A-SYNC WITH FASUDIL
35315
  121NASP     N    1   3.372   2.402   4.032 -0.5089 -0.3038 -0.1400
  121NASP    H1    2   3.357   2.445   4.122  1.5795  1.1621 -0.4219
  121NASP    H2    3   3.389   2.305   4.055  0.9448  0.0125  0.1764
  121NASP    H3    4   3.293   2.422   3.972  0.5330  2.7929 -0.6856
  121NASP    CA    5   3.491   2.462   3.966  0.0466  0.0147  0.4475
  121NASP    HA    6   3.480   2.569   3.951  0.3689 -0.0701 -0.4932
  121NASP    CB    7   3.621   2.423   4.042  0.0216 -0.1873 -0.1092
  121NASP   HB1    8   3.643   2.493   4.123 -0.7227  0.8468 -0.7800
  121NASP   HB2    9   3.708   2.434   3.978  0.9454 -0.3175  1.0868
  121NASP    CG   10   3.631   2.277   4.094  0.1247  0.2299  0.0872
  121NASP   OD1   11   3.739   2.255   4.151 -0.0454  0.3707 -0.3520
  121NASP   OD2   12   3.540   2.194   4.084 -0.2050 -0.3655  0.0742
  121NASP     C   13   3.497   2.399   3.821 -0.7036  0.0989  0.2322
  121NASP     O   14   3.449   2.287   3.798  0.2726 -0.4262 -0.0684
  122ASN      N   15   3.566   2.461   3.723  0.2698 -0.2477  0.0132
  122ASN      H   16   3.606   2.550   3.750 -0.6424 -0.0065  0.6237
  122ASN     CA   17   3.568   2.425   3.586 -0.3033  0.5046  0.2483
  122ASN     HA   18   3.487   2.354   3.568  0.4255 -0.9268  2.2464
  122ASN     CB   19   3.545   2.550   3.497 -0.4395 -0.6470 -0.4321
  122ASN    HB1   20   3.455   2.596   3.538  0.8270  1.3074  0.3043
  122ASN    HB2   21   3.521   2.515   3.396 -0.9672 -2.3473  0.2305
  122ASN     CG   22   3.654   2.656   3.494 -0.0742 -0.5805  0.1622
  122ASN    OD1   23   3.707   2.695   3.596 -0.2099  0.2150  0.1044
  122ASN    ND2   24   3.689   2.712   3.380  0.0301  0.2995  0.5201
  122ASN   HD21   25   3.752   2.791   3.380  0.7131 -0.2282 -0.2806
  122ASN   HD22   26   3.640   2.679   3.298 -1.1925 -0.0184  1.3480
  122ASN      C   27   3.694   2.346   3.559  0.2285 -0.4016 -0.4961
  122ASN      O   28   3.789   2.401   3.503 -0.6443 -0.0007 -0.3295
  123GLU      N   29   3.697   2.227   3.608 -0.7785  0.1954  0.9616
  123GLU      H   30   3.616   2.198   3.662 -2.0064 -0.7171 -1.2356
  123GLU     CA   31   3.807   2.135   3.582  0.2657  0.3259  0.0413
  123GLU     HA   32   3.902   2.188   3.590  0.7365 -0.3038 -1.1256
  123GLU     CB   33   3.824   2.041   3.696 -0.8556 -0.5353 -0.5295
  123GLU    HB1   34   3.898   1.963   3.680 -0.9009 -1.3014  2.3591
  123GLU    HB2   35   3.728   1.990   3.697 -0.4934 -1.2312 -0.7412
  123GLU     CG   36   3.845   2.103   3.835 -0.1713  0.5776  0.0734
  123GLU    HG1   37   3.751   2.146   3.871  0.1783  0.9549  0.5452
  123GLU    HG2   38   3.909   2.191   3.842 -1.1669  1.2899  0.6136
  123GLU     CD   39   3.891   1.991   3.932 -0.5171  0.8570 -0.1446
  123GLU    OE1   40   3.808   1.904   3.964 -0.2514  0.4168  0.5804
  123GLU    OE2   41   4.002   2.002   3.987  0.2300  0.1425 -0.0615
  123GLU      C   42   3.805   2.057   3.448  0.3355  0.1379  0.9786
  123GLU      O   43   3.912   2.031   3.401 -0.2352  0.2101 -0.2919
  124ALA      N   44   3.695   2.032   3.379  0.0072  0.4900  0.8394
  124ALA      H   45   3.610   2.070   3.418 -0.5012 -1.1187  1.3866
  124ALA     CA   46   3.691   1.959   3.248  0.4887  0.2634  0.0109
  124ALA     HA   47   3.779   1.898   3.227  0.1804  0.0072 -0.5595
  124ALA     CB   48   3.559   1.871   3.258 -0.5074  0.6397  0.1712
  124ALA    HB1   49   3.470   1.933   3.256 -2.5297 -2.1027 -0.8536
  124ALA    HB2   50   3.553   1.810   3.348 -0.6661  0.8056  0.2703
  124ALA    HB3   51   3.555   1.809   3.168  1.7558 -0.3256  0.6606
  124ALA      C   52   3.676   2.059   3.129  0.5899  0.0580 -0.5834
  124ALA      O   53   3.635   2.174   3.155 -0.0748  0.2409 -0.3782
  125TYR      N   54   3.688   2.016   3.004 -0.2639 -0.4256  0.9363
  125TYR      H   55   3.729   1.926   2.985  3.0286  1.1572 -0.2648
  125TYR     CA   56   3.605   2.075   2.899 -0.0249 -0.5019  0.1886
  125TYR     HA   57   3.617   2.183   2.891  0.4461 -0.3086  2.5502
  125TYR     CB   58   3.635   2.008   2.764  0.1834 -0.1488  0.3060
  125TYR    HB1   59   3.542   2.003   2.707 -1.5807 -1.0725  3.0193
  125TYR    HB2   60   3.667   1.905   2.780 -0.3575 -0.2854  0.5574
  125TYR     CG   61   3.733   2.088   2.684  0.6990  0.0525  0.2314
  125TYR    CD1   62   3.684   2.153   2.567  0.1521  1.0985 -0.8326
  125TYR    HD1   63   3.582   2.141   2.533  0.4052  1.4000 -1.7454
  125TYR    CE1   64   3.770   2.242   2.499 -0.1429  0.6525  0.2227
  125TYR    HE1   65   3.732   2.299   2.416 -0.2893 -0.7247 -0.6886
  125TYR     CZ   66   3.894   2.269   2.552 -0.4668  0.1107  0.0459
  125TYR     OH   67   3.963   2.370   2.500 -0.0336 -0.2612  0.0709
  125TYR     HH   68   3.911   2.436   2.454  0.7535 -0.0439 -0.5315
  125TYR    CE2   69   3.944   2.193   2.661  0.2474  0.2287  0.7641
  125TYR    HE2   70   4.047   2.208   2.691  0.6866  3.1471 -1.7292
  125TYR    CD2   71   3.863   2.103   2.723 -0.3009  0.1112 -0.4432
  125TYR    HD2   72   3.895   2.043   2.807  0.7969 -1.8632 -2.1916
  125TYR      C   73   3.456   2.051   2.924 -0.9924 -0.1057  0.2964
  125TYR      O   74   3.419   1.939   2.966  0.1409 -0.6359 -0.5011
  126GLU      N   75   3.367   2.147   2.881 -0.1581  0.1972 -0.0114
  126GLU      H   76   3.404   2.235   2.851  1.9580 -0.0950  1.4707
  126GLU     CA   77   3.228   2.120   2.878  0.3239 -0.6086  0.4762
  126GLU     HA   78   3.188   2.094   2.976 -1.2717 -0.2288 -0.0404
  126GLU     CB   79   3.143   2.233   2.827  0.0795 -0.1086 -0.5224
  126GLU    HB1   80   3.174   2.262   2.727  0.0926  1.1562 -0.1711
  126GLU    HB2   81   3.168   2.321   2.886 -2.2424  2.3762 -2.9236
  126GLU     CG   82   3.002   2.206   2.833  0.6610 -0.9334 -0.0374
  126GLU    HG1   83   2.979   2.153   2.926  0.7964 -0.4093  0.2954
  126GLU    HG2   84   2.959   2.143   2.755 -0.3662  0.6817 -0.8197
  126GLU     CD   85   2.921   2.335   2.831 -0.2092 -0.0470 -0.2829
  126GLU    OE1   86   2.943   2.417   2.740  0.3544 -0.2689 -0.3202
  126GLU    OE2   87   2.839   2.365   2.925  0.1033  0.4545 -0.3048
  126GLU      C   88   3.202   1.998   2.785 -0.9199 -0.4600  0.2783
  126GLU      O   89   3.241   2.018   2.669  0.2535  0.1007  0.3944
  127MET      N   90   3.156   1.877   2.822  1.0307  0.2027  0.7809
  127MET      H   91   3.124   1.876   2.918  0.5273  0.1478  0.6166
  127MET     CA   92   3.122   1.762   2.731 -0.1346 -0.2008 -0.1371
  127MET     HA   93   3.102   1.673   2.792 -0.0225 -0.8642 -1.0496
  127MET     CB   94   2.990   1.776   2.657  0.0337 -0.3551  0.4642
  127MET    HB1   95   3.002   1.863   2.593 -0.4787 -0.4950  0.1670
  127MET    HB2   96   2.914   1.814   2.725 -0.0683  1.6727 -0.7071
  127MET     CG   97   2.948   1.654   2.570  0.4169 -0.8089  0.4413
  127MET    HG1   98   3.031   1.637   2.501  1.6545  3.1316  0.6869
  127MET    HG2   99   2.869   1.688   2.503  0.0893  1.0129  1.6785
  127MET     SD  100   2.902   1.501   2.657  0.3548  0.1199 -0.2693
  127MET     CE  101   2.799   1.554   2.802 -0.4064 -0.0024 -0.0549
  127MET    HE1  102   2.708   1.607   2.774 -0.7306 -0.8895 -0.7515
  127MET    HE2  103   2.861   1.608   2.873  1.1183 -0.2453 -1.1530
  127MET    HE3  104   2.753   1.465   2.845  0.0409 -0.7422 -1.0711
  127MET      C  105   3.242   1.714   2.646 -0.4148 -0.2613  0.0010
  127MET      O  106   3.251   1.742   2.525 -0.0678 -0.7842  0.2782
  128PRO      N  107   3.344   1.655   2.706 -0.7940  0.2974 -0.3010
  128PRO     CD  108   3.353   1.623   2.848 -0.3163  0.1660 -0.0875
  128PRO    HD1  109   3.305   1.527   2.868  0.0587  0.2723  1.5148
  128PRO    HD2  110   3.319   1.702   2.916  0.6872  1.7229 -1.3188
  128PRO     CG  111   3.503   1.598   2.883  0.1156  0.0567 -0.4038
  128PRO    HG1  112   3.514   1.518   2.956 -0.1358  0.9582  0.6438
  128PRO    HG2  113   3.545   1.690   2.923 -1.1126 -0.1792  1.5547
  128PRO     CB  114   3.558   1.553   2.746  0.4131  0.7737  0.2112
  128PRO    HB1  115   3.665   1.572   2.733  0.7239 -1.5605 -1.1192
  128PRO    HB2  116   3.546   1.445   2.744  1.0787  0.6146  2.5544
  128PRO     CA  117   3.477   1.635   2.646  0.9550  0.3329  0.1278
  128PRO     HA  118   3.523   1.731   2.622 -0.5600  1.2070  0.6285
  128PRO      C  119   3.482   1.558   2.517  0.2203 -0.1522  0.0793
  128PRO      O  120   3.396   1.469   2.492  0.3765 -0.1798  0.3092
  129SER      N  121   3.587   1.581   2.434  0.0850 -0.0401  0.0825
  129SER      H  122   3.632   1.671   2.435 -1.3079  0.7611 -1.9782
  129SER     CA  123   3.602   1.504   2.308 -0.8008  0.1921  0.2683
  129SER     HA  124   3.566   1.403   2.329 -1.7781  0.7855  1.5346
  129SER     CB  125   3.526   1.572   2.191  0.0593 -0.2592 -0.4140
  129SER    HB1  126   3.418   1.566   2.203 -0.1867 -1.7397 -2.7695
  129SER    HB2  127   3.555   1.517   2.101 -0.3332 -0.4860 -0.4018
  129SER     OG  128   3.571   1.705   2.172  0.5657 -0.3507  0.3172
  129SER    HG1  129   3.515   1.754   2.111 -3.2406 -2.2084  1.9926
  129SER      C  130   3.752   1.478   2.271  0.5157 -0.1572  0.1884
  129SER      O  131   3.833   1.573   2.257 -0.3312 -0.2297  0.5188
  130GLU      N  132   3.787   1.353   2.227  0.1951 -0.0074  0.2972
  130GLU      H  133   3.713   1.283   2.224 -0.0841 -0.0237  3.7653
  130GLU     CA  134   3.919   1.316   2.171 -0.4425  0.3311  0.1893
  130GLU     HA  135   4.000   1.313   2.245  0.3206 -1.6510 -0.6509
  130GLU     CB  136   3.904   1.173   2.115 -0.0348 -0.0922  0.0650
  130GLU    HB1  137   3.984   1.155   2.043  0.6294  1.8439  0.2543
  130GLU    HB2  138   3.808   1.168   2.063 -0.3746  0.9647  0.5651
  130GLU     CG  139   3.923   1.057   2.213  0.3037 -0.0398 -0.6636
  130GLU    HG1  140   3.846   1.062   2.290  0.6832  1.1244 -0.3319
  130GLU    HG2  141   4.015   1.079   2.268 -0.3593  1.3054 -0.0398
  130GLU     CD  142   3.916   0.919   2.157 -0.2454  0.1063  0.0991
  130GLU    OE1  143   3.859   0.901   2.054 -0.5951  0.3820  0.3353
  130GLU    OE2  144   3.977   0.826   2.217 -0.1936  0.1773  0.0278
  130GLU      C  145   3.964   1.398   2.051  0.6813 -0.0659  0.6479
  130GLU      O  146   3.889   1.454   1.970 -0.3888  0.2691 -0.3848
  131GLU      N  147   4.096   1.399   2.040  0.3169 -0.5873  0.4700
  131GLU      H  148   4.144   1.344   2.109  1.3408 -1.0674 -0.5870
  131GLU     CA  149   4.163   1.460   1.923 -0.2667 -0.0039  0.0068
  131GLU     HA  150   4.121   1.558   1.902  0.3439  0.4191  0.6890
  131GLU     CB  151   4.315   1.466   1.957  0.1454  0.5819 -0.2106
  131GLU    HB1  152   4.376   1.460   1.867 -1.8408  1.7291 -1.7093
  131GLU    HB2  153   4.341   1.384   2.023  0.2131  1.5044  0.9433
  131GLU     CG  154   4.345   1.592   2.036  0.1506  0.5026 -0.2206
  131GLU    HG1  155   4.273   1.587   2.118 -0.2921 -0.2309 -0.6490
  131GLU    HG2  156   4.323   1.686   1.985  1.0804  0.9143  0.1173
  131GLU     CD  157   4.481   1.590   2.101 -0.4564  0.6168 -0.2420
  131GLU    OE1  158   4.576   1.513   2.059 -0.1950  0.0057 -0.9637
  131GLU    OE2  159   4.493   1.664   2.200 -0.1813  0.0663  0.2863
  131GLU      C  160   4.143   1.382   1.790 -0.6202 -0.0944 -0.2341
  131GLU      O  161   4.116   1.261   1.799  0.2641 -0.2327 -0.5487
  132GLY      N  162   4.164   1.448   1.679 -0.1871  0.0557 -0.1547
  132GLY      H  163   4.174   1.549   1.683 -0.7521  0.1365 -0.6092
  132GLY     CA  164   4.153   1.394   1.547 -0.8628 -0.0552  0.3363
  132GLY    HA1  165   4.133   1.478   1.480 -0.4403  0.0582  0.3517
  132GLY    HA2  166   4.064   1.330   1.552  0.5969 -2.0775  2.4235
  132GLY      C  167   4.276   1.318   1.483  0.6734 -0.3849 -0.1944
  132GLY      O  168   4.381   1.299   1.551 -0.0772  0.4594 -0.5962
  133TYR      N  169   4.262   1.271   1.358 -0.1142 -0.5107 -0.4543
  133TYR      H  170   4.173   1.289   1.313 -0.1164  2.6446  0.5585
  133TYR     CA  171   4.364   1.206   1.284 -1.1591  0.2077 -0.3796
  133TYR     HA  172   4.457   1.200   1.340 -0.4310  1.0504 -1.4384
  133TYR     CB  173   4.334   1.061   1.259  0.4606  0.4794 -0.4387
  133TYR    HB1  174   4.388   1.037   1.167  0.1429  0.8469 -0.7294
  133TYR    HB2  175   4.228   1.036   1.252  0.6856 -1.7993  2.6068
  133TYR     CG  176   4.380   0.961   1.359 -0.2434 -0.1235 -0.1960
  133TYR    CD1  177   4.332   0.967   1.495 -0.1157 -0.1702  0.7680
  133TYR    HD1  178   4.251   1.033   1.522 -1.6239 -1.0502 -1.3813
  133TYR    CE1  179   4.378   0.874   1.593  0.0497  0.1986  0.2396
  133TYR    HE1  180   4.343   0.879   1.695 -1.3543  0.5029 -0.2345
  133TYR     CZ  181   4.470   0.771   1.560  0.4177  0.3076 -0.4973
  133TYR     OH  182   4.527   0.690   1.661 -0.0086  0.0908  0.2986
  133TYR     HH  183   4.519   0.714   1.753  1.5805  1.0807  0.2119
  133TYR    CE2  184   4.524   0.763   1.431 -0.5405 -0.1589  0.2237
  133TYR    HE2  185   4.589   0.682   1.403  0.4005  0.9181 -0.7835
  133TYR    CD2  186   4.477   0.859   1.328  0.0159 -0.4747 -0.8234
  133TYR    HD2  187   4.503   0.856   1.223 -1.7922  0.8967 -1.3734
  133TYR      C  188   4.407   1.289   1.155 -0.6956 -0.1955  0.3777
  133TYR      O  189   4.322   1.349   1.092 -0.2961  0.4796  0.1721
  134GLN      N  190   4.537   1.292   1.127  0.2381 -0.4621 -0.8332
  134GLN      H  191   4.599   1.246   1.192  1.1974 -0.6961 -1.8711
  134GLN     CA  192   4.599   1.335   1.002  0.3753  0.0597 -0.3669
  134GLN     HA  193   4.545   1.421   0.964  2.1134  0.6556 -1.6692
  134GLN     CB  194   4.744   1.379   1.023 -0.9193 -0.0643 -0.7211
  134GLN    HB1  195   4.793   1.430   0.941 -0.4946 -1.5059 -1.4019
  134GLN    HB2  196   4.805   1.289   1.037  1.8493  1.4021 -2.4991
  134GLN     CG  197   4.772   1.467   1.145  0.1578  0.0902 -0.2457
  134GLN    HG1  198   4.768   1.415   1.241 -0.2495 -1.3655 -1.0149
  134GLN    HG2  199   4.701   1.549   1.136 -1.9928 -1.8236 -1.9015
  134GLN     CD  200   4.916   1.524   1.130 -0.0943 -0.0951  1.1014
  134GLN    OE1  201   4.941   1.643   1.100 -0.2327 -0.3456  0.1503
  134GLN    NE2  202   5.012   1.441   1.159  0.1268  0.3649 -0.5766
  134GLN   HE21  203   5.106   1.475   1.146  1.2661 -2.1058  0.4943
  134GLN   HE22  204   4.997   1.347   1.193  0.0330  0.6141  0.0849
  134GLN      C  205   4.584   1.221   0.900  0.0295 -0.5818 -0.3326
  134GLN      O  206   4.557   1.105   0.924  0.0770 -0.4821 -0.5459
  135ASP      N  207   4.621   1.255   0.775 -0.0031 -0.6942  0.7777
  135ASP      H  208   4.623   1.353   0.749 -2.9083 -1.1067 -1.5408
  135ASP     CA  209   4.643   1.154   0.671 -0.2129  0.0059 -0.4669
  135ASP     HA  210   4.556   1.090   0.661 -1.2762  1.5506 -1.5563
  135ASP     CB  211   4.662   1.226   0.533 -0.7647  0.8254  0.4601
  135ASP    HB1  212   4.674   1.150   0.456 -2.6205  1.8369 -0.9061
  135ASP    HB2  213   4.753   1.285   0.531  0.1297 -0.4568 -2.4782
  135ASP     CG  214   4.550   1.318   0.491  0.4416 -0.0460 -0.6408
  135ASP    OD1  215   4.442   1.329   0.550  0.1473 -0.1627  0.2102
  135ASP    OD2  216   4.582   1.397   0.397  0.1954 -0.2486 -0.1759
  135ASP      C  217   4.773   1.072   0.685  0.1438  0.3701  0.8900
  135ASP      O  218   4.793   0.984   0.601 -0.1175  0.3718 -0.0266
  136TYR      N  219   4.863   1.102   0.778  0.0517  0.0308 -0.3967
  136TYR      H  220   4.829   1.148   0.861  0.3928  0.0095 -0.2426
  136TYR     CA  221   5.003   1.059   0.780 -0.3721  0.5026 -0.6682
  136TYR     HA  222   5.048   1.101   0.690 -0.5999  0.2382 -0.9091
  136TYR     CB  223   5.082   1.127   0.898  0.3339 -0.1667  0.6923
  136TYR    HB1  224   5.027   1.105   0.990 -1.8004 -2.0959 -0.9031
  136TYR    HB2  225   5.082   1.235   0.884 -1.4935 -0.2210 -0.0040
  136TYR     CG  226   5.225   1.086   0.909  0.2291  0.4683  0.5725
  136TYR    CD1  227   5.322   1.145   0.821 -0.1247  0.6817  0.0156
  136TYR    HD1  228   5.298   1.231   0.760 -0.7011  0.1650 -0.5070
  136TYR    CE1  229   5.455   1.093   0.820 -0.1058 -0.7189  0.2784
  136TYR    HE1  230   5.525   1.131   0.748 -0.9784  0.9431  0.2513
  136TYR     CZ  231   5.484   0.975   0.898 -0.1915  0.2649 -0.0963
  136TYR     OH  232   5.608   0.916   0.893  0.1245 -0.0539 -0.1018
  136TYR     HH  233   5.676   0.967   0.847 -0.4701  1.8855  1.0386
  136TYR    CE2  234   5.391   0.918   0.980 -0.0956  0.7400 -0.6457
  136TYR    HE2  235   5.419   0.828   1.033  0.4638  0.0531 -2.0474
  136TYR    CD2  236   5.262   0.970   0.984  0.1884  0.8509 -0.1877
  136TYR    HD2  237   5.193   0.925   1.054  1.6884 -0.1867  0.7091
  136TYR      C  238   5.018   0.907   0.784 -0.5880 -0.5872 -0.0712
  136TYR      O  239   4.964   0.844   0.873  0.1466  0.3596  0.1776
  137GLU      N  240   5.105   0.851   0.699 -0.4416  0.8268  0.4133
  137GLU      H  241   5.158   0.912   0.639  0.8854 -1.1390 -0.4800
  137GLU     CA  242   5.143   0.707   0.685 -0.2290 -0.4958  0.5046
  137GLU     HA  243   5.190   0.707   0.587 -1.2895  0.5744 -0.0302
  137GLU     CB  244   5.257   0.672   0.778 -0.3030  0.2203 -0.8342
  137GLU    HB1  245   5.219   0.657   0.879 -1.5331  2.4383 -0.8992
  137GLU    HB2  246   5.322   0.759   0.770  1.5109 -1.1319 -1.5612
  137GLU     CG  247   5.350   0.556   0.748 -0.2896  0.2611 -0.5021
  137GLU    HG1  248   5.400   0.569   0.652  0.9569  1.7565  0.2927
  137GLU    HG2  249   5.292   0.465   0.737  0.6631 -0.1251 -3.0809
  137GLU     CD  250   5.461   0.544   0.856  0.5244 -0.4500  0.3424
  137GLU    OE1  251   5.440   0.503   0.974 -0.3320  0.3185  0.2363
  137GLU    OE2  252   5.578   0.553   0.819 -0.4171  0.0891  0.3372
  137GLU      C  253   5.031   0.603   0.683  0.0337 -0.1663  0.3546
  137GLU      O  254   4.991   0.555   0.794  0.4163  0.1298 -0.4143
  138PRO      N  255   4.978   0.583   0.562  0.6907 -0.3576  0.0180
  138PRO     CD  256   4.999   0.666   0.438 -0.0901  0.7030 -0.4643
  138PRO    HD1  257   5.082   0.628   0.378 -0.5947  1.4841 -1.7075
  138PRO    HD2  258   5.013   0.769   0.470  1.8204  0.1520  0.6068
  138PRO     CG  259   4.866   0.654   0.359 -0.3347 -0.7281 -0.5079
  138PRO    HG1  260   4.878   0.663   0.251 -0.8989  1.4900 -0.4480
  138PRO    HG2  261   4.802   0.732   0.400 -0.5698 -0.5971 -1.1058
  138PRO     CB  262   4.812   0.515   0.402 -0.1704  0.3906 -0.4761
  138PRO    HB1  263   4.703   0.518   0.409 -0.1765 -0.0673 -0.3134
  138PRO    HB2  264   4.839   0.427   0.343 -0.6764  0.3489 -0.6488
  138PRO     CA  265   4.869   0.486   0.544  0.0413  0.4226 -0.4265
  138PRO     HA  266   4.795   0.495   0.624  0.8816 -1.1395  0.6081
  138PRO      C  267   4.914   0.335   0.559  0.5148  0.4200  0.0668
  138PRO      O  268   5.031   0.299   0.529  0.7505 -0.6331  0.0754
  139GLU      N  269   4.815   0.251   0.600 -0.2268  0.2303 -0.0712
  139GLU      H  270   4.717   0.275   0.605 -1.3639 -3.3677 -1.9290
  139GLU     CA  271   4.846   0.106   0.611  0.9959 -0.6616  0.0753
  139GLU     HA  272   4.946   0.094   0.652  0.7879 -0.1568  0.7473
  139GLU     CB  273   4.753   0.043   0.723 -0.7815  0.5908 -1.2778
  139GLU    HB1  274   4.785  -0.061   0.735  0.5339  0.9068 -1.7897
  139GLU    HB2  275   4.650   0.048   0.689 -1.0748  2.3713 -0.2601
  139GLU     CG  276   4.755   0.118   0.858  0.3394 -0.1522  0.3215
  139GLU    HG1  277   4.718   0.219   0.844  1.1142 -0.1775 -2.6962
  139GLU    HG2  278   4.860   0.128   0.887  0.5276 -1.6152  0.2231
  139GLU     CD  279   4.667   0.039   0.957  0.5559  0.1561 -0.2119
  139GLU    OE1  280   4.579  -0.043   0.924  0.0572  0.2084  0.5783
  139GLU    OE2  281   4.683   0.061   1.081  0.0113  0.5061  0.1285
  139GLU      C  282   4.844   0.027   0.482 -0.9328 -0.0196  0.6701
  139GLU      O  283   4.762   0.057   0.395  0.2906  0.8775  0.3921
  140CALA     N  284   4.940  -0.058   0.465  0.3771 -0.3636  0.2347
  140CALA     H  285   5.005  -0.070   0.541  3.0416  0.4194 -1.7597
  140CALA    CA  286   4.984  -0.123   0.341  0.3072 -0.3048 -0.4036
  140CALA    HA  287   4.972  -0.042   0.269  0.9657 -0.0415 -0.2156
  140CALA    CB  288   5.137  -0.152   0.349  0.5331  0.2633 -0.7818
  140CALA   HB1  289   5.194  -0.060   0.337  0.4393  0.6644  1.3355
  140CALA   HB2  290   5.170  -0.225   0.275 -0.9124 -0.8971 -0.3419
  140CALA   HB3  291   5.144  -0.199   0.447  0.4419  0.1305 -0.8384
  140CALA     C  292   4.891  -0.235   0.284  0.3014  0.0489 -0.2274
  140CALA   OC1  293   4.865  -0.329   0.359 -0.4973  0.6224  0.0723
  140CALA   OC2  294   4.860  -0.231   0.159 -0.4331  0.4702 -0.3845
  141FAS      C  295   3.683   0.828   2.500 -0.1295  0.5906  0.7773
  141FAS     C1  296   3.624   0.697   2.553  0.4560 -0.5326  0.1503
  141FAS      N  297   3.525   0.711   2.670  0.0805 -0.6738 -0.5196
  141FAS     C2  298   3.390   0.773   2.622 -0.1472  0.2971  0.1715
  141FAS     C3  299   3.381   0.935   2.613  0.2563  0.1350 -0.5069
  141FAS     N1  300   3.509   0.996   2.571 -0.0814 -0.3434  0.8179
  141FAS     C4  301   3.573   0.931   2.453 -0.6569 -0.1815 -0.0477
  141FAS      S  302   3.509   1.164   2.558  0.4090 -0.2695  0.2936
  141FAS      O  303   3.643   1.218   2.597 -0.2003 -0.3584  0.1597
  141FAS     O1  304   3.431   1.185   2.434 -0.5068  0.3828 -0.1679
  141FAS     C5  305   3.408   1.202   2.705 -0.1920  0.2472 -0.0097
  141FAS     C6  306   3.274   1.248   2.695  0.9779 -0.4369  0.3518
  141FAS     C7  307   3.191   1.274   2.800  0.1971  0.2910 -0.3882
  141FAS     C8  308   3.245   1.251   2.929  0.0921 -0.7536 -0.6170
  141FAS     C9  309   3.374   1.204   2.952 -0.1889 -0.3163 -0.4296
  141FAS    C10  310   3.457   1.183   2.839  1.3715 -1.1850 -1.3327
  141FAS    C11  311   3.583   1.134   2.865 -0.2762  0.3608  0.2826
  141FAS    C12  312   3.636   1.132   2.992 -0.2565  0.7663  0.4882
  141FAS     N2  313   3.560   1.163   3.101 -0.2422 -0.4431 -0.0208
  141FAS    C13  314   3.428   1.189   3.079 -0.1115  0.4169 -0.0213
  141FAS      H  315   3.751   0.805   2.417  0.9342 -0.6292  1.9398
  141FAS     H1  316   3.743   0.860   2.585 -1.1519  1.1497  1.3067
  141FAS     H2  317   3.708   0.633   2.582  0.4440 -0.4065  0.4559
  141FAS     H3  318   3.563   0.650   2.475 -0.5966 -0.5154  0.9352
  141FAS     H4  319   3.506   0.620   2.713  2.3494 -1.0482 -0.1760
  141FAS     H5  320   3.311   0.744   2.691  0.5445  0.3536  1.0002
  141FAS     H6  321   3.348   0.724   2.534  1.9469  0.8262 -1.2271
  141FAS     H7  322   3.356   0.971   2.713  2.3156  0.4822 -0.0825
  141FAS     H8  323   3.292   0.970   2.559  0.9213  1.4047 -0.8135
  141FAS     H9  324   3.623   1.004   2.389  2.0091 -2.5793 -0.9132
  141FAS    H10  325   3.497   0.878   2.394 -1.9565  1.5009  0.0347
  141FAS    H11  326   3.232   1.256   2.595  2.2446  0.2707 -0.1598
  141FAS    H12  327   3.090   1.308   2.781 -0.8832 -1.0918  2.2362
  141FAS    H13  328   3.180   1.271   3.014  0.7328  0.6238 -0.4259
  141FAS    H14  329   3.650   1.114   2.783 -0.2430  3.1775 -0.4762
  141FAS    H15  330   3.740   1.107   3.010 -0.4222 -0.2471  0.1219
  141FAS    H16  331   3.376   1.225   3.167  0.0374  2.6307 -0.7628
  141FAS    H17  332   3.569   0.770   2.743 -2.0420  0.0805  0.2167
  142SOL     OW  333   6.401   3.257   4.348  0.0213  0.1607 -0.1955
  142SOL    HW2  334   6.487   3.299   4.350  0.8696 -1.4312 -1.2834
  142SOL    HW3  335   6.353   3.305   4.280  0.8479 -0.3168 -1.1512
  142SOL    MW4  336   6.406   3.269   4.339  0.2423 -0.1123 -0.4651
  143SOL     OW  337   6.097   0.229   2.799  0.4733  0.3792  0.2996
  143SOL    HW2  338   6.145   0.249   2.879  0.7446 -0.7648  0.4360
  143SOL    HW3  339   6.062   0.314   2.770  1.7212  1.0649  0.7368
  143SOL    MW4  340   6.098   0.243   2.806  0.6738  0.3187  0.3753
  144SOL     OW  341   4.337   4.182   5.487  0.0536 -0.0938  0.1952
  144SOL    HW2  342   4.410   4.183   5.549 -1.5008  0.4994  2.0994
  144SOL    HW3  343   4.319   4.275   5.470 -1.2739 -0.1658  1.0500
  144SOL    MW4  344   4.344   4.194   5.493 -0.3266 -0.0251  0.5592
  145SOL     OW  345   2.571   0.124   4.138  0.0704  0.0269 -0.3948
  145SOL    HW2  346   2.651   0.103   4.090  0.2383  0.8091 -0.4675
  145SOL    HW3  347   2.509   0.056   4.112  0.7164 -0.6072 -0.3116
  145SOL    MW4  348   2.574   0.112   4.128  0.1777  0.0464 -0.3934
  146SOL     OW  349   6.394   0.665   2.195 -0.5094  0.1188  0.0951
  146SOL    HW2  350   6.406   0.637   2.105 -0.4841  1.1280 -0.2217
  146SOL    HW3  351   6.401   0.760   2.193 -1.8480  0.2680  0.9447
  146SOL    MW4  352   6.397   0.674   2.183 -0.6827  0.2716  0.1654
  147SOL     OW  353   4.617   5.375   4.420 -0.1724 -0.0462  0.0957
  147SOL    HW2  354   4.663   5.291   4.428 -0.6262 -0.5545 -2.0015
  147SOL    HW3  355   4.687   5.440   4.419  0.1810 -0.3457  1.8221
  147SOL    MW4  356   4.633   5.373   4.421 -0.1857 -0.1528  0.0468
  148SOL     OW  357   1.163   1.407   4.085  0.3568  0.0685  0.8296
  148SOL    HW2  358   1.120   1.390   4.168  0.2883  0.5890  0.8994
  148SOL    HW3  359   1.117   1.482   4.048  1.0405  0.4804  0.7915
  148SOL    MW4  360   1.151   1.414   4.091  0.4380  0.1915  0.8338
  149SOL     OW  361   3.494   4.908   3.836 -0.3933 -0.4589 -0.5590
  149SOL    HW2  362   3.475   4.980   3.776  0.0861  0.2151  0.0732
  149SOL    HW3  363   3.589   4.896   3.829 -0.3095 -0.2785  0.1466
  149SOL    MW4  364   3.504   4.916   3.828 -0.3190 -0.3462 -0.3825
  150SOL     OW  365   4.226   3.059   1.636  0.4695 -0.2616  0.4060
  150SOL    HW2  366   4.252   2.978   1.592  1.7266 -0.0810  0.7707
  150SOL    HW3  367   4.133   3.047   1.656  1.0774 -2.6072  2.4322
  150SOL    MW4  368   4.217   3.047   1.633  0.7155 -0.5472  0.7215
  151SOL     OW  369   4.075   1.521   2.409 -0.4415 -0.6800 -0.5284
  151SOL    HW2  370   4.007   1.521   2.341 -0.1460 -1.1117 -0.8232
  151SOL    HW3  371   4.139   1.586   2.380 -2.3704  2.3744  1.4275
  151SOL    MW4  372   4.074   1.530   2.396 -0.6570 -0.3340 -0.3093
  152SOL     OW  373   5.954   5.835   1.138  0.4593  0.1699 -0.1880
  152SOL    HW2  374   5.947   5.928   1.160  1.2973  0.1570  0.1617
  152SOL    HW3  375   6.016   5.832   1.066 -0.5613 -0.0097 -1.0915
  152SOL    MW4  376   5.961   5.847   1.132  0.4352  0.1445 -0.2611
  153SOL     OW  377   6.396   2.794   3.422 -0.0173 -0.2568  0.4098
  153SOL    HW2  378   6.396   2.719   3.481  0.4347 -1.0639 -0.5847
  153SOL    HW3  379   6.477   2.784   3.372 -0.1005  0.7434  0.0701
  153SOL    MW4  380   6.407   2.783   3.423  0.0314 -0.2313  0.2338
  154SOL     OW  381   4.562   4.762   3.479  0.3505 -0.4082 -0.0360
  154SOL    HW2  382   4.568   4.691   3.415 -1.5835  1.2844 -2.3213
  154SOL    HW3  383   4.506   4.729   3.548 -0.3282 -1.1989 -0.9490
  154SOL    MW4  384   4.556   4.749   3.479  0.0058 -0.2892 -0.4580
  155SOL     OW  385   2.511   2.621   1.155  0.0790 -0.2710 -0.1858
  155SOL    HW2  386   2.498   2.581   1.069 -2.2742 -1.0820  0.4884
  155SOL    HW3  387   2.495   2.551   1.218  0.2104  0.6838  0.9649
  155SOL    MW4  388   2.508   2.607   1.152 -0.2141 -0.2520  0.0550
  156SOL     OW  389   0.070   2.980   4.155 -0.1896 -0.2489 -0.6948
  156SOL    HW2  390   0.130   2.968   4.081 -0.1143 -0.7253 -0.5603
  156SOL    HW3  391   0.127   3.000   4.229 -0.1797 -0.8599 -0.5324
  156SOL    MW4  392   0.085   2.981   4.155 -0.1783 -0.3924 -0.6557
  157SOL     OW  393   2.672   5.076   3.642 -0.5789 -0.2834  0.1367
  157SOL    HW2  394   2.657   4.993   3.597 -2.3649  0.5015 -0.8437
  157SOL    HW3  395   2.763   5.071   3.673  0.5407 -1.2310 -2.8764
  157SOL    MW4  396   2.682   5.065   3.640 -0.6668 -0.3049 -0.3902
  158SOL     OW  397   3.075   4.099   2.739  0.0574  0.5518  0.1674
  158SOL    HW2  398   3.016   4.053   2.798 -2.0462  1.0823 -1.4153
  158SOL    HW3  399   3.018   4.154   2.685  2.1555  2.4377 -0.3008
  158SOL    MW4  400   3.060   4.100   2.740  0.0567  0.8706 -0.1032
  159SOL     OW  401   1.511   2.577   4.489 -0.6836  0.0280 -0.2657
  159SOL    HW2  402   1.559   2.565   4.408  1.0523 -0.2773  0.7491
  159SOL    HW3  403   1.505   2.489   4.527  0.1891  0.3952  0.7994
  159SOL    MW4  404   1.517   2.564   4.484 -0.3394  0.0361  0.0087
  160SOL     OW  405   2.309   6.002   2.930 -0.1729 -0.3043 -0.0546
  160SOL    HW2  406   2.399   6.005   2.897 -0.3285 -1.7604 -0.6395
  160SOL    HW3  407   2.258   6.052   2.866  0.0760 -0.1938 -0.1687
  160SOL    MW4  408   2.314   6.009   2.917 -0.1606 -0.4818 -0.1468
  161SOL     OW  409   3.529   3.017   4.701 -0.0336 -0.4337  0.1583
  161SOL    HW2  410   3.441   3.053   4.689  0.7394  2.5490  2.1914
  161SOL    HW3  411   3.565   3.012   4.612 -1.3695  0.7561 -0.4909
  161SOL    MW4  412   3.522   3.021   4.688 -0.1079  0.1168  0.3409
  162SOL     OW  413   5.133   0.974   4.325  0.1430  0.2961 -0.4668
  162SOL    HW2  414   5.190   0.930   4.263  0.4772 -0.7056  0.5113
  162SOL    HW3  415   5.060   1.006   4.272  0.3176 -0.7014 -1.3433
  162SOL    MW4  416   5.131   0.972   4.310  0.2101  0.0323 -0.4534
  163SOL     OW  417   3.897   2.448   2.118  0.3138 -0.0469  0.1612
  163SOL    HW2  418   3.962   2.436   2.049 -0.8967 -0.9120 -0.8882
  163SOL    HW3  419   3.927   2.392   2.190 -1.3151 -3.9313 -1.8654
  163SOL    MW4  420   3.909   2.439   2.119 -0.0608 -0.6735 -0.2446
  164SOL     OW  421   3.355   6.081   2.717  0.1494 -0.0420  0.6300
  164SOL    HW2  422   3.438   6.129   2.725  0.9588 -0.8868 -1.7000
  164SOL    HW3  423   3.297   6.141   2.670  0.6102 -0.6590 -0.7825
  164SOL    MW4  424   3.359   6.096   2.712  0.3170 -0.2349  0.1362
  165SOL     OW  425   3.258   2.522   4.686 -0.1106  0.8409  0.2744
  165SOL    HW2  426   3.211   2.444   4.716 -0.0380  1.0261  0.8894
  165SOL    HW3  427   3.231   2.533   4.595 -0.0751  0.0625  0.1599
  165SOL    MW4  428   3.248   2.513   4.678 -0.0963  0.7627  0.3404
  166SOL     OW  429   5.042   0.497   0.053 -0.3434 -0.4811  0.1318
  166SOL    HW2  430   5.047   0.444   0.133  0.1769 -2.4162 -1.1298
  166SOL    HW3  431   5.131   0.527   0.039  0.2488 -2.6833 -1.3039
  166SOL    MW4  432   5.054   0.494   0.062 -0.1966 -1.0270 -0.2241
  167SOL     OW  433   1.846   4.062   2.188  0.2737 -0.4888  0.5612
  167SOL    HW2  434   1.799   4.071   2.271  0.4350 -1.2884  0.7431
  167SOL    HW3  435   1.790   4.107   2.124 -0.3692 -0.7883  0.9058
  167SOL    MW4  436   1.833   4.069   2.191  0.2102 -0.6338  0.6307
  168SOL     OW  437   1.856   6.231   4.265  0.7817  0.5761  0.4024
  168SOL    HW2  438   1.804   6.284   4.326 -1.3718  1.0391 -1.6727
  168SOL    HW3  439   1.815   6.144   4.268  1.1997  0.3713  0.2336
  168SOL    MW4  440   1.844   6.226   4.273  0.5527  0.6102  0.1064
  169SOL     OW  441   5.266   3.991   4.348 -0.1910 -0.4796 -0.0518
  169SOL    HW2  442   5.232   4.080   4.337 -1.8831 -1.0124  0.5651
  169SOL    HW3  443   5.245   3.968   4.438  3.2630 -0.3281  0.9353
  169SOL    MW4  444   5.259   4.000   4.358  0.0414 -0.5299  0.1598
  170SOL     OW  445   6.415   4.457   2.430  0.0852 -0.8317 -0.1286
  170SOL    HW2  446   6.417   4.506   2.347 -1.0511 -0.2805  0.1462
  170SOL    HW3  447   6.345   4.499   2.480  1.7703 -0.1080  1.7716
  170SOL    MW4  448   6.406   4.469   2.425  0.1576 -0.6635  0.1584
  171SOL     OW  449   2.975   6.164   2.211 -0.2612 -0.1799 -0.3730
  171SOL    HW2  450   2.892   6.204   2.186 -0.3068 -0.9854 -1.6254
  171SOL    HW3  451   3.030   6.172   2.132  0.8248  0.2799  0.4103
  171SOL    MW4  452   2.971   6.170   2.197 -0.1239 -0.2255 -0.4349
  172SOL     OW  453   3.558   2.525   4.518 -0.1302 -0.1494 -0.7262
  172SOL    HW2  454   3.495   2.515   4.589 -0.7713  0.5794 -1.1673
  172SOL    HW3  455   3.640   2.491   4.553 -0.0458  1.5311  0.9036
  172SOL    MW4  456   3.560   2.520   4.532 -0.2036  0.1684 -0.5694
  173SOL     OW  457   1.806   1.827   1.855 -0.1711  0.4486 -0.2215
  173SOL    HW2  458   1.821   1.744   1.809 -2.0597 -1.0724  1.7111
  173SOL    HW3  459   1.722   1.815   1.900 -0.6351  3.5205 -0.0269
  173SOL    MW4  460   1.797   1.815   1.855 -0.4815  0.6532  0.0592
  174SOL     OW  461   0.336   6.183   2.495 -0.5740  0.5115  0.6516
  174SOL    HW2  462   0.258   6.225   2.459 -0.2224  1.1429  0.6025
  174SOL    HW3  463   0.392   6.256   2.522  0.8962  0.1548 -1.2050
  174SOL    MW4  464   0.333   6.198   2.493 -0.3336  0.5477  0.4002
  175SOL     OW  465   5.450   4.593   1.515 -0.4434  0.7763 -0.1737
  175SOL    HW2  466   5.376   4.625   1.566 -0.7617 -0.8184  0.4331
  175SOL    HW3  467   5.425   4.504   1.490  0.3652  0.9735 -1.8195
  175SOL    MW4  468   5.437   4.585   1.519 -0.3787  0.5919 -0.3108
  176SOL     OW  469   5.640   1.592   3.345  0.1521  0.1324 -0.2525
  176SOL    HW2  470   5.570   1.527   3.342 -0.3238  0.6501 -0.3961
  176SOL    HW3  471   5.713   1.551   3.299 -0.6155  0.2609 -1.6411
  176SOL    MW4  472   5.640   1.578   3.339 -0.0120  0.2177 -0.4547
  177SOL     OW  473   5.298   3.608   2.545  0.5631  0.1864  0.7518
  177SOL    HW2  474   5.328   3.532   2.596  0.5273 -0.7296 -0.5463
  177SOL    HW3  475   5.379   3.646   2.511  0.4671 -0.4334 -0.1896
  177SOL    MW4  476   5.313   3.603   2.547  0.5457 -0.0163  0.4563
  178SOL     OW  477   2.413   0.901   4.588 -0.6415  0.2720  0.1334
  178SOL    HW2  478   2.424   0.990   4.556  1.6552 -0.2759 -0.7899
  178SOL    HW3  479   2.461   0.900   4.671 -0.9069 -0.0450  0.2848
  178SOL    MW4  480   2.420   0.913   4.595 -0.3735  0.1579  0.0315
  179SOL     OW  481   2.118   0.487   6.387  0.7227 -0.2840 -0.1336
  179SOL    HW2  482   2.154   0.575   6.386  1.9649 -0.7566  0.7448
  179SOL    HW3  483   2.053   0.487   6.316  0.6004  1.3542 -0.0608
  179SOL    MW4  484   2.114   0.498   6.378  0.8704 -0.1303 -0.0081
  180SOL     OW  485   2.216   2.283   3.447  0.0187 -0.4363  0.3084
  180SOL    HW2  486   2.211   2.363   3.394  0.0794  0.2071  1.2522
  180SOL    HW3  487   2.297   2.241   3.420 -0.5446 -0.7570 -0.9761
  180SOL    MW4  488   2.226   2.288   3.436 -0.0476 -0.3937  0.2634
  181SOL     OW  489   0.274   5.442   1.826  0.1968 -0.0389  1.0572
  181SOL    HW2  490   0.331   5.411   1.896 -0.7587  1.2117  2.4508
  181SOL    HW3  491   0.188   5.452   1.868 -0.2960  1.1833 -0.1763
  181SOL    MW4  492   0.270   5.439   1.841  0.0057  0.2873  1.0783
  182SOL     OW  493   5.427   3.996   6.155 -0.2027 -0.3367 -0.3537
  182SOL    HW2  494   5.453   4.042   6.075  1.6335 -1.3347 -0.4086
  182SOL    HW3  495   5.332   3.992   6.151 -0.3648  2.3116 -0.9437
  182SOL    MW4  496   5.418   4.001   6.144  0.0182 -0.1190 -0.4388
  183SOL     OW  497   6.026   0.463   3.672 -0.1406  0.3445 -0.5938
  183SOL    HW2  498   5.997   0.544   3.715 -2.3512 -0.2525 -0.8532
  183SOL    HW3  499   6.014   0.480   3.579  1.6852  0.5172 -0.8409
  183SOL    MW4  500   6.021   0.476   3.666 -0.1914  0.2885 -0.6606
  184SOL     OW  501   5.989   4.387   4.020  0.2359 -0.2455 -0.0911
  184SOL    HW2  502   5.967   4.468   3.974  1.1057  0.0093 -0.0795
  184SOL    HW3  503   6.075   4.363   3.985  0.3761 -0.6806  0.5484
  184SOL    MW4  504   5.998   4.395   4.009  0.3692 -0.2693 -0.0052
  185SOL     OW  505   5.396   3.394   2.690 -0.5413  0.5967  0.1815
  185SOL    HW2  506   5.444   3.367   2.611  1.0574 -0.2714  1.4014
  185SOL    HW3  507   5.315   3.342   2.687 -0.0266 -0.2112 -0.3652
  185SOL    MW4  508   5.391   3.383   2.679 -0.2625  0.3756  0.2703
  186SOL     OW  509   1.907   3.347   1.024  0.2123  0.0011 -0.4143
  186SOL    HW2  510   1.857   3.311   1.097 -0.5367 -0.2062 -1.0175
  186SOL    HW3  511   1.998   3.326   1.045 -0.0452 -0.5396  0.1908
  186SOL    MW4  512   1.912   3.339   1.036  0.0795 -0.0976 -0.4140
  187SOL     OW  513   4.005   1.724   1.087  0.3068  0.4239  0.3475
  187SOL    HW2  514   4.052   1.761   1.012  0.8464 -1.1162 -0.1256
  187SOL    HW3  515   4.075   1.698   1.148 -0.0942  0.9726  1.0508
  187SOL    MW4  516   4.020   1.725   1.085  0.3251  0.2931  0.3778
  188SOL     OW  517   2.723   2.280   1.303  0.5281  0.2403 -0.1778
  188SOL    HW2  518   2.647   2.236   1.342  0.5204 -0.6438 -1.1471
  188SOL    HW3  519   2.703   2.283   1.209  0.4406  2.5160 -0.1500
  188SOL    MW4  520   2.710   2.275   1.296  0.5155  0.4239 -0.3020
  189SOL     OW  521   5.262   4.494   2.894  0.3679  0.1909  0.3074
  189SOL    HW2  522   5.339   4.477   2.841  1.2845  0.2632  1.5730
  189SOL    HW3  523   5.217   4.409   2.898  0.2750  0.1888 -0.5707
  189SOL    MW4  524   5.266   4.480   2.887  0.4766  0.2001  0.3585
  190SOL     OW  525   5.311   1.031   1.719  0.6612 -0.3706  0.4072
  190SOL    HW2  526   5.291   1.007   1.810 -1.7640  1.6012  0.4799
  190SOL    HW3  527   5.269   0.963   1.667  0.4988 -0.5087  0.7124
  190SOL    MW4  528   5.303   1.018   1.724  0.3198 -0.1286  0.4570
  191SOL     OW  529   3.076   4.629   4.491  0.1446 -0.4926  0.1100
  191SOL    HW2  530   3.043   4.601   4.406  0.1530  0.2165 -0.1319
  191SOL    HW3  531   3.138   4.699   4.471  0.8501 -0.9476  0.6391
  191SOL    MW4  532   3.080   4.635   4.477  0.2388 -0.4591  0.1479
  192SOL     OW  533   1.013   3.715   1.725 -0.0820  0.2782 -0.8051
  192SOL    HW2  534   1.052   3.736   1.640  1.0411 -0.2955 -0.4460
  192SOL    HW3  535   0.941   3.656   1.704 -0.5392  1.0354 -1.4430
  192SOL    MW4  536   1.009   3.710   1.711  0.0058  0.3024 -0.8419
  193SOL     OW  537   6.413   4.405   2.049  0.7060 -0.1430  0.2478
  193SOL    HW2  538   6.324   4.376   2.070  0.7648 -0.3277  0.2385
  193SOL    HW3  539   6.429   4.370   1.961  0.4840  0.5764 -0.0901
  193SOL    MW4  540   6.403   4.397   2.040  0.6845 -0.0724  0.2020
  194SOL     OW  541   0.052   6.370   1.101  0.3353  0.0591  0.1911
  194SOL    HW2  542   0.039   6.425   1.177  0.3146 -0.2020  0.3780
  194SOL    HW3  543   0.146   6.348   1.102  0.0198 -1.3638  1.1305
  194SOL    MW4  544   0.063   6.374   1.111  0.2910 -0.1631  0.3397
  195SOL     OW  545   2.232   1.470   2.883 -0.0798  0.3030  0.2252
  195SOL    HW2  546   2.224   1.547   2.938  0.0017  0.1038  0.5211
  195SOL    HW3  547   2.153   1.470   2.829 -0.0646  0.6080  0.1997
  195SOL    MW4  548   2.221   1.480   2.883 -0.0670  0.3170  0.2609
  196SOL     OW  549   4.516   3.905   0.574 -0.2044 -0.5677  0.1218
  196SOL    HW2  550   4.504   3.986   0.524  3.2015 -0.6096 -1.0592
  196SOL    HW3  551   4.505   3.931   0.665 -1.4091  0.7013 -0.3465
  196SOL    MW4  552   4.513   3.919   0.579  0.0860 -0.4058 -0.0958
  197SOL     OW  553   6.315   3.695   4.078  0.0447  0.5283  0.2306
  197SOL    HW2  554   6.314   3.675   3.985 -0.2881  0.9093  0.1485
  197SOL    HW3  555   6.222   3.698   4.103  0.1365  0.1692  0.6294
  197SOL    MW4  556   6.303   3.693   4.069  0.0129  0.5312  0.2724
  198SOL     OW  557   4.322   0.328   2.032 -0.6156  0.4612 -0.1169
  198SOL    HW2  558   4.262   0.381   2.086 -0.6908 -1.3830  1.7195
  198SOL    HW3  559   4.279   0.243   2.026  1.4026 -0.6637  0.5497
  198SOL    MW4  560   4.308   0.324   2.038 -0.3593  0.0695  0.2133
  199SOL     OW  561   2.969   0.664   3.210  0.1720  0.0842 -0.5374
  199SOL    HW2  562   2.881   0.654   3.247  0.4243 -1.6654 -0.3172
  199SOL    HW3  563   2.958   0.650   3.116  0.2153 -0.2043 -0.5011
  199SOL    MW4  564   2.956   0.660   3.202  0.2110 -0.1847 -0.5036
  200SOL     OW  565   4.975   1.019   0.388 -0.0260  0.1431  0.2128
  200SOL    HW2  566   4.908   0.990   0.449  1.1221 -0.8460  1.0644
  200SOL    HW3  567   5.052   1.034   0.443  0.5561  0.9003 -0.7757
  200SOL    MW4  568   4.976   1.017   0.403  0.2023  0.1125  0.1948
  201SOL     OW  569   5.499   2.067   1.019  0.4597 -0.1050  0.0957
  201SOL    HW2  570   5.549   2.015   1.082 -0.8250 -0.3891  0.9148
  201SOL    HW3  571   5.430   2.108   1.071 -0.0356  0.4530 -0.9669
  201SOL    MW4  572   5.497   2.066   1.034  0.2249 -0.0688  0.0635
  202SOL     OW  573   6.343   5.376   3.307 -0.0313  0.6474 -0.1608
  202SOL    HW2  574   6.316   5.351   3.396 -1.4174  1.6610 -0.2612
  202SOL    HW3  575   6.312   5.304   3.252 -0.0440  0.4787  0.0613
  202SOL    MW4  576   6.335   5.363   3.312 -0.2158  0.7589 -0.1447
  203SOL     OW  577   2.262   3.134   2.218  0.0720  0.1111  0.8136
  203SOL    HW2  578   2.317   3.056   2.206  1.0924  0.9427 -0.1963
  203SOL    HW3  579   2.279   3.186   2.140 -0.7285  1.2695  1.3976
  203SOL    MW4  580   2.272   3.130   2.206  0.1010  0.3737  0.7574
  204SOL     OW  581   1.822   2.410   5.879 -0.1837  0.1641  0.0072
  204SOL    HW2  582   1.909   2.440   5.905 -0.6915  0.1652  1.8608
  204SOL    HW3  583   1.767   2.488   5.886 -0.6221 -0.1744  0.3880
  204SOL    MW4  584   1.826   2.424   5.883 -0.3085  0.1196  0.3020
  205SOL     OW  585   4.859   3.048   1.192 -0.1114  0.1759  0.1589
  205SOL    HW2  586   4.798   3.119   1.173  1.2739  0.9562 -1.6494
  205SOL    HW3  587   4.934   3.092   1.234  1.3432  0.0739 -2.1716
  205SOL    MW4  588   4.861   3.063   1.195  0.2633  0.2654 -0.3871
  206SOL     OW  589   2.576   6.302   2.877  0.4079 -0.4652 -0.4208
  206SOL    HW2  590   2.500   6.313   2.935  0.0230 -0.1790 -0.9795
  206SOL    HW3  591   2.598   6.391   2.848  0.3262 -0.6503 -1.0622
  206SOL    MW4  592   2.569   6.315   2.881  0.3464 -0.4519 -0.5792
  207SOL     OW  593   0.393   2.811   4.633  0.4810  0.1016 -0.1146
  207SOL    HW2  594   0.417   2.874   4.566 -0.1039 -0.5489 -0.9687
  207SOL    HW3  595   0.474   2.794   4.680  0.5860  1.6944  0.3344
  207SOL    MW4  596   0.407   2.817   4.630  0.4177  0.2259 -0.1680
  208SOL     OW  597   6.058   5.163   2.136  0.0896  0.5878  0.1036
  208SOL    HW2  598   6.076   5.105   2.062 -2.0225  0.4868 -0.3756
  208SOL    HW3  599   6.055   5.104   2.212 -2.6859 -0.1231 -0.4677
  208SOL    MW4  600   6.060   5.148   2.136 -0.5553  0.4807 -0.0350
  209SOL     OW  601   4.240   1.286   0.384 -0.3633  0.5071  0.2158
  209SOL    HW2  602   4.166   1.304   0.442  0.1759  0.0229  1.0768
  209SOL    HW3  603   4.317   1.316   0.432 -0.0027  1.2507 -0.7781
  209SOL    MW4  604   4.241   1.292   0.398 -0.2446  0.5413  0.1982
  210SOL     OW  605   1.342   3.289   5.183 -0.0667 -0.0856  0.5369
  210SOL    HW2  606   1.394   3.331   5.115  1.2427 -1.2237  0.8109
  210SOL    HW3  607   1.262   3.260   5.138 -0.1047  0.9199 -0.0639
  210SOL    MW4  608   1.338   3.291   5.168  0.1010 -0.1031  0.4938
  211SOL     OW  609   0.534   0.713   4.476  0.5030 -0.0087 -0.4034
  211SOL    HW2  610   0.441   0.732   4.490  0.3476 -0.9677 -0.0495
  211SOL    HW3  611   0.571   0.796   4.445 -1.0505 -0.3619 -3.5649
  211SOL    MW4  612   0.527   0.726   4.474  0.2775 -0.1818 -0.7738
  212SOL     OW  613   0.133   5.796   2.024  0.1376  0.3779 -0.2630
  212SOL    HW2  614   0.100   5.877   1.986  2.1383  1.1739 -0.3980
  212SOL    HW3  615   0.135   5.813   2.118  4.2600  2.1043 -0.4660
  212SOL    MW4  616   0.129   5.809   2.031  0.9455  0.7107 -0.3076
  213SOL     OW  617   2.627   5.340   4.100  0.3291 -0.8457  0.5994
  213SOL    HW2  618   2.542   5.295   4.095  0.4035 -0.8484 -2.2826
  213SOL    HW3  619   2.625   5.385   4.185 -3.1335  0.2350  0.1281
  213SOL    MW4  620   2.615   5.340   4.110 -0.1179 -0.7035  0.1570
  214SOL     OW  621   4.337   0.256   3.198 -0.1334  0.4916 -0.0502
  214SOL    HW2  622   4.257   0.289   3.238  0.0100  0.9747 -0.1561
  214SOL    HW3  623   4.350   0.311   3.121 -1.7611 -1.9854 -2.2725
  214SOL    MW4  624   4.328   0.268   3.193 -0.3293  0.2285 -0.3574
  215SOL     OW  625   4.572   1.020   0.148 -0.0114  0.1305 -0.5181
  215SOL    HW2  626   4.560   1.113   0.168 -2.2191 -0.2172  0.0508
  215SOL    HW3  627   4.576   1.016   0.053 -1.5680  0.6918 -0.6383
  215SOL    MW4  628   4.571   1.032   0.138 -0.5080  0.1587 -0.4589
  216SOL     OW  629   3.355   4.484   4.175 -0.0958  0.1791 -0.5612
  216SOL    HW2  630   3.369   4.504   4.083  0.2323 -0.0525 -0.5614
  216SOL    HW3  631   3.265   4.451   4.179 -0.5946  1.4782 -0.5814
  216SOL    MW4  632   3.345   4.482   4.164 -0.1183  0.3200 -0.5639
  217SOL     OW  633   4.184   4.320   0.051  0.8102  0.1829  0.0928
  217SOL    HW2  634   4.125   4.331  -0.023 -0.2234  2.8178  1.1760
  217SOL    HW3  635   4.144   4.252   0.105 -2.1350  2.7275  1.4366
  217SOL    MW4  636   4.171   4.312   0.049  0.2853  0.8663  0.4130
  218SOL     OW  637   6.042   1.870   3.747  0.4085  0.2376 -0.0908
  218SOL    HW2  638   5.979   1.940   3.765  1.4591  1.0961  0.3428
  218SOL    HW3  639   6.127   1.909   3.763  1.0471 -1.0683 -0.1206
  218SOL    MW4  640   6.045   1.884   3.752  0.6314  0.1786 -0.0375
  219SOL     OW  641   3.652   3.455   0.577  0.2345  0.2328  0.4626
  219SOL    HW2  642   3.705   3.468   0.498  0.6609  0.7808  0.8377
  219SOL    HW3  643   3.584   3.393   0.549 -0.0903  1.0036 -0.5471
  219SOL    MW4  644   3.650   3.448   0.563  0.2479  0.4068  0.3789
  220SOL     OW  645   5.653   2.501   6.026  0.1214  0.2804  0.5208
  220SOL    HW2  646   5.735   2.498   6.074  0.8193 -0.8797 -0.6721
  220SOL    HW3  647   5.635   2.410   6.002 -0.6049  0.7094 -0.7023
  220SOL    MW4  648   5.661   2.489   6.029  0.1177  0.1839  0.2020
  221SOL     OW  649   5.921   0.143   2.029  0.0952  0.4408  0.4761
  221SOL    HW2  650   5.829   0.171   2.028  0.3904  1.4858  1.1941
  221SOL    HW3  651   5.971   0.223   2.012  0.8649 -0.2836 -0.8994
  221SOL    MW4  652   5.915   0.157   2.027  0.2357  0.4831  0.3893
  222SOL     OW  653   2.695   0.574   3.294  0.2949 -0.1482 -0.5578
  222SOL    HW2  654   2.619   0.515   3.297 -1.3537  1.8743 -0.8953
  222SOL    HW3  655   2.673   0.639   3.228  1.4401  1.6510  0.7371
  222SOL    MW4  656   2.682   0.575   3.286  0.2285  0.3561 -0.4315
  223SOL     OW  657   3.030   1.209   2.291  0.2241  0.2942  0.1552
  223SOL    HW2  658   2.945   1.215   2.335  0.7608  0.9271  1.1204
  223SOL    HW3  659   3.072   1.293   2.309  1.2912 -0.2374  0.1730
  223SOL    MW4  660   3.024   1.221   2.299  0.4357  0.3075  0.2849
  224SOL     OW  661   5.748   5.436   3.642 -0.2051  0.0127  0.7397
  224SOL    HW2  662   5.841   5.457   3.639 -0.6616  2.2687  0.3953
  224SOL    HW3  663   5.728   5.427   3.736  0.1825  0.4023  0.8592
  224SOL    MW4  664   5.758   5.438   3.654 -0.2142  0.3617  0.7101
  225SOL     OW  665   3.710   1.163   4.516  0.2274  0.6020 -0.7175
  225SOL    HW2  666   3.801   1.193   4.522 -0.8167  3.8672  1.7285
  225SOL    HW3  667   3.689   1.130   4.603 -1.2870  1.1345 -0.8468
  225SOL    MW4  668   3.719   1.163   4.528 -0.1102  1.1030 -0.4118
  226SOL     OW  669   5.022   0.064   4.108 -0.3965  0.1214  0.0678
  226SOL    HW2  670   4.953   0.048   4.172  0.2671 -1.6677  0.4093
  226SOL    HW3  671   5.092   0.104   4.159  0.9124 -3.0675  1.0679
  226SOL    MW4  672   5.022   0.067   4.123 -0.1362 -0.5354  0.2448
  227SOL     OW  673   0.817   3.551   0.618 -0.0475 -0.3163 -0.7369
  227SOL    HW2  674   0.724   3.527   0.611  0.1441 -1.0375 -0.8245
  227SOL    HW3  675   0.864   3.469   0.604  0.6141  0.0947 -0.9523
  227SOL    MW4  676   0.811   3.537   0.615  0.0650 -0.3572 -0.7769
  228SOL     OW  677   1.618   5.478   0.604  0.1093  0.1777  0.1143
  228SOL    HW2  678   1.661   5.531   0.537 -1.7952  0.2815 -1.0971
  228SOL    HW3  679   1.604   5.539   0.677  1.0458  0.4098  0.1101
  228SOL    MW4  680   1.622   5.493   0.605 -0.0184  0.2220 -0.0461
  229SOL     OW  681   1.389   4.067   0.177  0.1954  0.0893 -0.4945
  229SOL    HW2  682   1.436   4.150   0.183  1.2175 -0.5998  2.5537
  229SOL    HW3  683   1.335   4.063   0.256 -2.7497 -0.5629 -2.3719
  229SOL    MW4  684   1.388   4.077   0.188 -0.0583 -0.0877 -0.3400
  230SOL     OW  685   4.482   0.050   0.435  0.0263 -0.4764  0.3667
  230SOL    HW2  686   4.571   0.031   0.406  0.1477 -1.6294  1.4028
  230SOL    HW3  687   4.489   0.133   0.483  1.1359 -1.8837  2.8306
  230SOL    MW4  688   4.495   0.059   0.438  0.1887 -0.8142  0.8285
  231SOL     OW  689   6.403   3.222   2.163 -0.1174 -0.5906 -0.1702
  231SOL    HW2  690   6.343   3.201   2.235  0.7435 -0.8073  0.5028
  231SOL    HW3  691   6.412   3.140   2.114  1.0437 -1.0792  0.8094
  231SOL    MW4  692   6.396   3.209   2.166  0.1494 -0.6837  0.0479
  232SOL     OW  693   0.513   4.412   6.415 -0.0521  0.0348 -1.0447
  232SOL    HW2  694   0.594   4.461   6.412 -0.6906  1.0636 -1.9842
  232SOL    HW3  695   0.524   4.341   6.351  0.7239 -0.8608  0.0445
  232SOL    MW4  696   0.525   4.409   6.406 -0.0339  0.0524 -1.0249
  233SOL     OW  697   0.823   6.294   0.443 -0.5908  0.1138 -0.6129
  233SOL    HW2  698   0.809   6.385   0.418  0.9945  0.5384 -0.0582
  233SOL    HW3  699   0.835   6.297   0.538 -1.1308 -0.7593 -0.5098
  233SOL    MW4  700   0.822   6.306   0.453 -0.4529  0.0546 -0.5261
  234SOL     OW  701   1.873   5.830   1.306  0.0629  0.3168 -0.2855
  234SOL    HW2  702   1.837   5.798   1.223 -0.3588 -2.6618  0.9215
  234SOL    HW3  703   1.965   5.805   1.304  0.5269  1.9115 -0.5577
  234SOL    MW4  704   1.880   5.823   1.294  0.0685  0.1342 -0.1621
  235SOL     OW  705   4.617   5.018   4.157  0.4595 -0.0587 -0.5210
  235SOL    HW2  706   4.524   5.040   4.164 -0.2329 -2.8408  0.1399
  235SOL    HW3  707   4.626   4.985   4.067  0.5389 -0.8729 -0.2160
  235SOL    MW4  708   4.606   5.017   4.146  0.3787 -0.5332 -0.3936
  236SOL     OW  709   4.573   1.164   4.857  0.3741 -0.1401  0.6165
  236SOL    HW2  710   4.521   1.113   4.919  2.4871 -2.5167  0.6165
  236SOL    HW3  711   4.576   1.252   4.894 -2.0605 -0.3570  1.5181
  236SOL    MW4  712   4.566   1.169   4.870  0.3316 -0.4823  0.7354
  237SOL     OW  713   2.818   5.916   3.656 -0.1015 -0.4345 -0.1764
  237SOL    HW2  714   2.909   5.909   3.686  0.0542 -1.1827 -0.7843
  237SOL    HW3  715   2.808   6.009   3.633 -0.5412  0.4454  3.0399
  237SOL    MW4  716   2.829   5.928   3.657 -0.1390 -0.4171  0.1677
  238SOL     OW  717   4.872   2.656   1.152  0.5900  0.2392 -0.2014
  238SOL    HW2  718   4.879   2.738   1.104 -2.4332  0.4509 -0.4188
  238SOL    HW3  719   4.889   2.588   1.087  1.3797  0.6115 -0.4002
  238SOL    MW4  720   4.875   2.658   1.137  0.2953  0.3163 -0.2563
  239SOL     OW  721   3.935   0.142   1.691 -0.0406  0.6145 -0.1011
  239SOL    HW2  722   4.006   0.177   1.744  0.2191  0.0476 -0.0689
  239SOL    HW3  723   3.955   0.172   1.602  0.2195  0.4924 -0.0853
  239SOL    MW4  724   3.947   0.151   1.686  0.0280  0.5236 -0.0948
  240SOL     OW  725   3.928   4.712   0.514  0.1436 -0.2112  0.2398
  240SOL    HW2  726   3.893   4.690   0.428  1.2428  1.3322 -0.6331
  240SOL    HW3  727   3.903   4.638   0.569 -1.0114 -0.9992 -1.2677
  240SOL    MW4  728   3.920   4.699   0.510  0.1362 -0.1115 -0.0743
  241SOL     OW  729   4.024   0.688   0.190 -0.3465 -0.2547  0.0262
  241SOL    HW2  730   4.020   0.657   0.280 -0.0475  0.0830  0.1576
  241SOL    HW3  731   4.066   0.617   0.142 -0.3429 -0.3612  0.1860
  241SOL    MW4  732   4.029   0.675   0.195 -0.3066 -0.2242  0.0646
  242SOL     OW  733   1.143   4.333   6.167 -0.6307  0.1696  0.8360
  242SOL    HW2  734   1.233   4.363   6.179 -0.1683 -1.2093  1.0842
  242SOL    HW3  735   1.148   4.271   6.094 -1.8518  1.9249 -0.8150
  242SOL    MW4  736   1.155   4.329   6.159 -0.7308  0.2193  0.6509
  243SOL     OW  737   3.459   2.842   1.838 -0.3646  0.1009 -0.1486
  243SOL    HW2  738   3.488   2.768   1.892  1.5282  0.6933 -0.2848
  243SOL    HW3  739   3.467   2.918   1.895 -0.1986  0.4836 -0.6771
  243SOL    MW4  740   3.464   2.842   1.853 -0.0930  0.2296 -0.2363
  244SOL     OW  741   0.632   6.365   5.146  0.5313 -0.3443 -0.2461
  244SOL    HW2  742   0.613   6.414   5.067  1.4756  0.4431 -0.0074
  244SOL    HW3  743   0.552   6.316   5.165 -0.5181  1.2541 -0.3834
  244SOL    MW4  744   0.619   6.365   5.138  0.5174 -0.0296 -0.2327
  245SOL     OW  745   5.423   2.266   4.385  0.3485  0.1883 -0.5570
  245SOL    HW2  746   5.518   2.261   4.393  0.3828 -0.7417 -1.3919
  245SOL    HW3  747   5.409   2.315   4.304  0.1809 -2.2967 -2.1147
  245SOL    MW4  748   5.434   2.272   4.375  0.3309 -0.2623 -0.8727
  246SOL     OW  749   2.878   1.377   1.416  0.0007 -0.2078 -0.5999
  246SOL    HW2  750   2.804   1.438   1.408  0.7954  0.9728  0.6116
  246SOL    HW3  751   2.859   1.328   1.497 -0.0560 -0.7765 -0.9514
  246SOL    MW4  752   2.866   1.379   1.426  0.0981 -0.1270 -0.4864
  247SOL     OW  753   1.276   2.099   5.192 -0.0659  0.1265  0.1793
  247SOL    HW2  754   1.310   2.043   5.122 -1.2380  0.5016 -0.7306
  247SOL    HW3  755   1.248   2.039   5.260 -2.5164 -0.5603 -1.3204
  247SOL    MW4  756   1.277   2.084   5.191 -0.5438  0.0854 -0.1386
  248SOL     OW  757   5.001   1.781   3.419 -0.2363 -0.2032  0.1465
  248SOL    HW2  758   5.008   1.746   3.330 -0.4842  0.9184 -0.3474
  248SOL    HW3  759   5.026   1.709   3.476 -0.8140 -1.1859 -0.7994
  248SOL    MW4  760   5.005   1.767   3.415 -0.3452 -0.1848 -0.0435
  249SOL     OW  761   0.047   5.158   5.634  0.3594 -0.1873 -0.1164
  249SOL    HW2  762  -0.000   5.240   5.646  0.8210 -0.0107  0.5477
  249SOL    HW3  763   0.108   5.176   5.562  0.1174 -0.1041 -0.3009
  249SOL    MW4  764   0.049   5.171   5.626  0.3884 -0.1530 -0.0531
  250SOL     OW  765   5.399   2.548   3.091 -0.3725 -0.2225  0.2808
  250SOL    HW2  766   5.474   2.607   3.093  0.6556 -1.5127  0.4979
  250SOL    HW3  767   5.335   2.590   3.149  0.3058  0.7150  0.3816
  250SOL    MW4  768   5.400   2.561   3.099 -0.1473 -0.2690  0.3228
  251SOL     OW  769   6.420   3.470   1.010 -0.0275 -0.3056 -0.0369
  251SOL    HW2  770   6.401   3.507   0.924  0.5580  1.5153  0.5600
  251SOL    HW3  771   6.341   3.422   1.034 -1.3834  1.5987 -0.3942
  251SOL    MW4  772   6.407   3.469   1.002 -0.1292  0.1859 -0.0053
  252SOL     OW  773   4.951   0.734   1.344  0.5377 -0.1263  0.0439
  252SOL    HW2  774   4.865   0.737   1.301  0.5822 -0.0677 -0.0410
  252SOL    HW3  775   4.973   0.641   1.346  1.3269 -0.0042 -1.6257
  252SOL    MW4  776   4.942   0.722   1.338  0.6477 -0.1024 -0.1876
  253SOL     OW  777   5.053   1.351   2.985 -0.7292 -0.0540  0.2990
  253SOL    HW2  778   5.044   1.257   2.970 -1.6670 -0.3280  2.1471
  253SOL    HW3  779   5.135   1.360   3.033  0.8855  0.4832 -2.3805
  253SOL    MW4  780   5.062   1.340   2.990 -0.6399 -0.0193  0.1893
  254SOL     OW  781   4.487   5.084   3.792 -0.0735 -0.5732 -0.0714
  254SOL    HW2  782   4.431   5.099   3.869  1.0151 -1.0621  0.8411
  254SOL    HW3  783   4.426   5.086   3.718 -0.7784  2.9535  0.4339
  254SOL    MW4  784   4.471   5.086   3.792 -0.0229 -0.1724  0.1157
  255SOL     OW  785   5.690   0.983   6.111  0.1858  0.9319  0.0278
  255SOL    HW2  786   5.641   0.935   6.044  2.3489  1.4628 -2.0676
  255SOL    HW3  787   5.629   0.990   6.185 -2.1697 -0.0548 -1.6998
  255SOL    MW4  788   5.675   0.977   6.112  0.1604  0.8717 -0.4766
  256SOL     OW  789   3.021   2.616   0.135 -0.0639  0.6048  0.4160
  256SOL    HW2  790   2.930   2.638   0.152  0.0306  2.2083 -0.8599
  256SOL    HW3  791   3.024   2.598   0.040  0.8489  0.0183  0.5387
  256SOL    MW4  792   3.010   2.616   0.124  0.0690  0.7390  0.2638
  257SOL     OW  793   4.049   5.008   2.961  0.4534  0.5979 -0.2294
  257SOL    HW2  794   3.962   5.023   2.997  0.7100  1.3436  0.1087
  257SOL    HW3  795   4.067   4.916   2.979 -0.5523  0.2340 -0.9636
  257SOL    MW4  796   4.040   4.998   2.968  0.3546  0.6483 -0.2817
  258SOL     OW  797   3.311   4.474   1.034 -0.5175  0.4462  0.3253
  258SOL    HW2  798   3.351   4.546   0.986 -1.5594  0.8286  0.0231
  258SOL    HW3  799   3.343   4.485   1.124  1.2065 -0.1105 -0.1752
  258SOL    MW4  800   3.321   4.485   1.040 -0.4275  0.4232  0.2194
  259SOL     OW  801   4.618   4.935   5.145  0.1440 -0.1502 -0.1109
  259SOL    HW2  802   4.624   4.841   5.127 -0.4053 -0.1864 -0.1158
  259SOL    HW3  803   4.525   4.952   5.154  0.2362  0.4097 -0.1619
  259SOL    MW4  804   4.607   4.925   5.144  0.0837 -0.0811 -0.1183
  260SOL     OW  805   2.354   6.394   3.355  0.4870  0.2573 -0.5683
  260SOL    HW2  806   2.357   6.490   3.354 -0.5413  0.2959 -0.7554
  260SOL    HW3  807   2.272   6.373   3.398  1.8958 -0.5974  1.8992
  260SOL    MW4  808   2.344   6.404   3.360  0.5372  0.1496 -0.2674
  261SOL     OW  809   5.330   1.484   0.553  0.0041 -0.0361  0.0652
  261SOL    HW2  810   5.358   1.405   0.507 -1.6222  0.1495 -1.3762
  261SOL    HW3  811   5.358   1.471   0.643 -0.6690 -2.5276 -0.0029
  261SOL    MW4  812   5.337   1.472   0.559 -0.2993 -0.3403 -0.1340
  262SOL     OW  813   0.175   5.438   5.662  0.2093  0.4467  0.1896
  262SOL    HW2  814   0.114   5.444   5.736 -0.1317  0.3450 -0.0827
  262SOL    HW3  815   0.153   5.514   5.608 -1.3685 -0.9142 -1.1862
  262SOL    MW4  816   0.164   5.449   5.665 -0.0439  0.2537 -0.0278
  263SOL     OW  817   4.504   0.211   1.221  0.3439 -0.3066 -0.7767
  263SOL    HW2  818   4.537   0.136   1.173  0.8450 -0.3824 -0.3090
  263SOL    HW3  819   4.576   0.238   1.278 -0.2643 -0.2536 -0.0186
  263SOL    MW4  820   4.518   0.205   1.222  0.3297 -0.3096 -0.6150
  264SOL     OW  821   1.458   4.744   4.256 -0.3102  0.2953  0.2631
  264SOL    HW2  822   1.466   4.745   4.352  0.6624  0.5680  0.1941
  264SOL    HW3  823   1.467   4.652   4.232  3.6227  0.5325  0.1844
  264SOL    MW4  824   1.460   4.732   4.266  0.3370  0.3626  0.2436
  265SOL     OW  825   3.456   0.532   4.231  0.2707  0.4725 -0.0035
  265SOL    HW2  826   3.538   0.576   4.253  0.1430  0.6426  0.1297
  265SOL    HW3  827   3.413   0.591   4.169  0.1825  0.4506  0.0369
  265SOL    MW4  828   3.461   0.546   4.225  0.2422  0.4921  0.0194
  266SOL     OW  829   6.155   5.170   3.215 -0.2059 -0.0105  0.2103
  266SOL    HW2  830   6.175   5.100   3.277  2.3838  0.5212  0.1210
  266SOL    HW3  831   6.070   5.203   3.241  0.3224 -0.5259  2.8200
  266SOL    MW4  832   6.147   5.166   3.226  0.2055 -0.0083  0.5428
  267SOL     OW  833   0.723   1.724   6.033  0.2865  0.0827  0.3982
  267SOL    HW2  834   0.771   1.801   6.002  0.4766  0.1513  0.8439
  267SOL    HW3  835   0.673   1.756   6.109  0.2137 -0.1863  0.4658
  267SOL    MW4  836   0.723   1.738   6.039  0.3020  0.0562  0.4659
  268SOL     OW  837   3.598   0.388   5.810 -0.0160  0.3777  0.4383
  268SOL    HW2  838   3.635   0.352   5.729 -1.9206  0.7575 -0.6802
  268SOL    HW3  839   3.647   0.345   5.880 -0.8935 -3.0329 -0.8211
  268SOL    MW4  840   3.609   0.378   5.809 -0.3831 -0.0221  0.1246
  269SOL     OW  841   5.482   4.491   3.618 -0.0127  0.4674 -0.3909
  269SOL    HW2  842   5.445   4.576   3.595 -3.8952 -0.0043  2.9443
  269SOL    HW3  843   5.434   4.428   3.564  0.9139  0.1740 -0.9039
  269SOL    MW4  844   5.471   4.494   3.608 -0.4027  0.3665 -0.0186
  270SOL     OW  845   4.255   2.088   0.455 -0.2345  0.2175 -0.3747
  270SOL    HW2  846   4.328   2.075   0.394 -1.0972  1.0765 -1.6368
  270SOL    HW3  847   4.297   2.107   0.539  0.9782 -0.8958 -0.6995
  270SOL    MW4  848   4.270   2.089   0.458 -0.1883  0.1840 -0.5841
  271SOL     OW  849   0.165   3.928   2.761  0.2404  0.3252 -0.0932
  271SOL    HW2  850   0.089   3.929   2.703  1.1814  0.4959 -1.3646
  271SOL    HW3  851   0.233   3.885   2.710  1.4812  1.6313  0.3981
  271SOL    MW4  852   0.164   3.922   2.747  0.5283  0.5201 -0.1961
  272SOL     OW  853   4.330   6.027   4.216  0.0904  0.0624 -0.7546
  272SOL    HW2  854   4.342   6.122   4.224 -0.5986 -0.0143  2.9525
  272SOL    HW3  855   4.419   5.992   4.207  0.4641  0.9941 -0.7472
  272SOL    MW4  856   4.344   6.035   4.216  0.0488  0.1752 -0.2645
  273SOL     OW  857   3.006   3.596   3.302 -0.1423 -1.2562 -0.2631
  273SOL    HW2  858   2.997   3.540   3.225  1.8907 -2.9725  0.6725
  273SOL    HW3  859   2.949   3.556   3.368 -2.6607  0.7600 -1.0137
  273SOL    MW4  860   2.997   3.583   3.301 -0.2063 -1.2166 -0.2387
  274SOL     OW  861   1.310   5.980   3.423  0.0253  0.4382  0.1888
  274SOL    HW2  862   1.281   5.935   3.503 -1.7416  0.5501 -0.3488
  274SOL    HW3  863   1.339   5.909   3.365 -1.8373  0.0349 -0.2933
  274SOL    MW4  864   1.310   5.964   3.426 -0.4536  0.3997  0.0543
  275SOL     OW  865   5.465   5.442   1.552 -0.2970  0.7110 -0.4485
  275SOL    HW2  866   5.473   5.367   1.492 -2.9158 -0.6771  0.7672
  275SOL    HW3  867   5.529   5.424   1.621 -1.3988 -0.9147  0.2309
  275SOL    MW4  868   5.474   5.430   1.553 -0.7879  0.3134 -0.1985
  276SOL     OW  869   1.345   5.938   3.951 -0.4415  0.0858  0.0155
  276SOL    HW2  870   1.422   5.976   3.908 -1.3343 -1.1270 -2.9962
  276SOL    HW3  871   1.278   6.007   3.947 -0.9161 -0.4100 -1.9622
  276SOL    MW4  872   1.346   5.952   3.945 -0.6219 -0.1397 -0.6428
  277SOL     OW  873   3.887   4.392   4.790  0.1276 -0.0426  0.5687
  277SOL    HW2  874   3.882   4.352   4.703 -1.9001  0.3457  0.4558
  277SOL    HW3  875   3.839   4.332   4.847 -0.7675  0.9397  0.8905
  277SOL    MW4  876   3.880   4.379   4.786 -0.2580  0.1382  0.5963
  278SOL     OW  877   3.307   3.517   1.710  0.3292 -0.3351  0.2850
  278SOL    HW2  878   3.391   3.473   1.721  0.5607 -0.0061 -0.1270
  278SOL    HW3  879   3.250   3.450   1.670  0.2648 -0.6888  0.9628
  278SOL    MW4  880   3.310   3.502   1.706  0.3513 -0.3383  0.3200
  279SOL     OW  881   0.445   5.583   2.225  0.0659 -0.6093 -0.5677
  279SOL    HW2  882   0.360   5.543   2.244 -0.8391  1.1376 -0.7783
  279SOL    HW3  883   0.506   5.538   2.284 -1.3226 -0.6189  0.9226
  279SOL    MW4  884   0.442   5.572   2.235 -0.2367 -0.3801 -0.3989
  280SOL     OW  885   4.139   5.522   3.512  0.5802  0.4894 -0.2273
  280SOL    HW2  886   4.113   5.587   3.446  1.5094  0.1495 -0.9486
  280SOL    HW3  887   4.179   5.451   3.462 -1.6497 -1.3319  0.4057
  280SOL    MW4  888   4.141   5.521   3.497  0.4086  0.2043 -0.2389
  281SOL     OW  889   5.736   3.322   4.156 -0.1953  0.4976 -0.7237
  281SOL    HW2  890   5.722   3.228   4.145 -0.4350  0.4218  0.1573
  281SOL    HW3  891   5.831   3.333   4.156 -0.0660 -0.0669  1.4071
  281SOL    MW4  892   5.747   3.311   4.155 -0.2099  0.4131 -0.3263
  282SOL     OW  893   3.144   3.973   5.986 -0.0415  0.2784 -0.3518
  282SOL    HW2  894   3.190   4.053   6.010  0.1718 -0.5141  2.0782
  282SOL    HW3  895   3.154   3.915   6.061 -0.0569 -2.1267 -2.0921
  282SOL    MW4  896   3.151   3.976   5.999 -0.0154 -0.1435 -0.2608
  283SOL     OW  897   3.961   3.942   0.387 -0.1285  0.4975  0.1391
  283SOL    HW2  898   3.889   3.974   0.442 -1.8413 -0.9363 -1.1360
  283SOL    HW3  899   3.927   3.949   0.298  0.9299 -1.1356 -0.4292
  283SOL    MW4  900   3.947   3.947   0.383 -0.2149  0.0929 -0.1041
  284SOL     OW  901   3.155   0.539   5.783  0.4094  0.0577 -0.2913
  284SOL    HW2  902   3.093   0.503   5.719 -1.1436 -0.1950  1.2768
  284SOL    HW3  903   3.115   0.622   5.810  0.4324 -0.3773  1.1580
  284SOL    MW4  904   3.141   0.545   5.778  0.2076 -0.0330  0.1068
  285SOL     OW  905   3.523   4.770   3.471  0.5473 -0.0645 -0.6538
  285SOL    HW2  906   3.560   4.762   3.383 -0.0678 -0.3211 -0.8885
  285SOL    HW3  907   3.488   4.859   3.474 -0.2253 -0.3560 -0.9754
  285SOL    MW4  908   3.523   4.780   3.460  0.3642 -0.1368 -0.7272
  286SOL     OW  909   1.160   3.704   1.162 -0.6055 -0.0249 -0.1093
  286SOL    HW2  910   1.102   3.631   1.182 -1.8714  1.4444  1.9408
  286SOL    HW3  911   1.145   3.722   1.069 -1.1615 -1.5746 -0.3466
  286SOL    MW4  912   1.151   3.697   1.152 -0.8458 -0.0355  0.1299
  287SOL     OW  913   4.762   2.598   4.737  0.2413 -0.0572  0.1137
  287SOL    HW2  914   4.674   2.588   4.774 -0.7577  3.4293 -1.0035
  287SOL    HW3  915   4.759   2.550   4.655 -0.7599  0.3259 -0.0892
  287SOL    MW4  916   4.750   2.590   4.731 -0.0226  0.4533 -0.0605
  288SOL     OW  917   3.165   5.933   3.453 -0.1271  0.2543 -0.3529
  288SOL    HW2  918   3.188   5.898   3.367 -0.7998  0.7126 -0.7284
  288SOL    HW3  919   3.105   6.006   3.434  2.1779  2.4926  0.2855
  288SOL    MW4  920   3.160   5.938   3.439  0.0882  0.6101 -0.3182
  289SOL     OW  921   5.860   2.660   2.000 -0.2304 -0.4664  0.1077
  289SOL    HW2  922   5.922   2.588   1.994  1.1033  0.7551 -1.4526
  289SOL    HW3  923   5.776   2.618   2.019  0.1103 -2.6498 -2.6799
  289SOL    MW4  924   5.857   2.645   2.002 -0.0095 -0.5933 -0.4660
  290SOL     OW  925   2.806   1.954   4.649 -0.2002 -0.2813  0.1935
  290SOL    HW2  926   2.853   1.895   4.590 -0.5558 -0.6472  0.2726
  290SOL    HW3  927   2.841   1.933   4.736  0.3410  0.2743  0.1143
  290SOL    MW4  928   2.817   1.944   4.653 -0.1757 -0.2563  0.1935
  291SOL     OW  929   1.805   1.685   2.172 -0.0725  0.2344 -0.1370
  291SOL    HW2  930   1.758   1.610   2.137 -0.7810 -0.3015  1.8376
  291SOL    HW3  931   1.838   1.656   2.257 -0.2056  2.0936  0.6095
  291SOL    MW4  932   1.803   1.672   2.178 -0.1835  0.4090  0.2220
  292SOL     OW  933   3.863   3.055   0.482  1.0082  0.1960 -0.3818
  292SOL    HW2  934   3.859   2.976   0.427  1.1475 -0.0930  0.0227
  292SOL    HW3  935   3.873   3.127   0.419 -0.2245  0.0030 -0.8203
  292SOL    MW4  936   3.864   3.054   0.466  0.8639  0.1324 -0.3863
  293SOL     OW  937   5.983   0.221   6.325  0.4888  0.9582  0.3389
  293SOL    HW2  938   6.013   0.164   6.395 -1.9329 -1.1516 -0.1998
  293SOL    HW3  939   5.900   0.256   6.356 -0.4130  0.3373 -1.2517
  293SOL    MW4  940   5.976   0.218   6.338  0.0503  0.5979  0.0579
  294SOL     OW  941   0.854   3.867   6.245  0.0008  0.0484  0.4124
  294SOL    HW2  942   0.768   3.849   6.283 -0.9767 -1.7473 -2.3490
  294SOL    HW3  943   0.843   3.951   6.200 -0.3005 -0.1303  0.1466
  294SOL    MW4  944   0.842   3.876   6.244 -0.1679 -0.2121  0.0130
  295SOL     OW  945   0.958   3.299   0.622 -0.1375  0.4268 -0.1503
  295SOL    HW2  946   1.045   3.289   0.583 -0.4558 -0.8231 -0.5952
  295SOL    HW3  947   0.907   3.227   0.585 -1.5341  1.4746 -0.3448
  295SOL    MW4  948   0.962   3.288   0.612 -0.3638  0.4001 -0.2346
  296SOL     OW  949   2.053   1.091   5.865  0.0897  0.0249 -0.5449
  296SOL    HW2  950   1.970   1.128   5.836  0.2687 -1.0887 -2.7231
  296SOL    HW3  951   2.119   1.136   5.812  0.6641 -0.5936 -0.3721
  296SOL    MW4  952   2.051   1.102   5.854  0.1891 -0.2037 -0.8095
  297SOL     OW  953   4.654   1.928   4.743 -0.0266 -0.0813  0.0304
  297SOL    HW2  954   4.573   1.974   4.765  1.4406  2.2529  0.9290
  297SOL    HW3  955   4.673   1.875   4.820 -0.4302 -0.2345  0.0269
  297SOL    MW4  956   4.646   1.927   4.756  0.1137  0.2064  0.1485
  298SOL     OW  957   3.997   3.871   0.845  0.3289 -0.0870 -0.2023
  298SOL    HW2  958   3.974   3.802   0.909 -0.2140 -4.0095 -4.1478
  298SOL    HW3  959   4.092   3.872   0.845  0.3641  0.8988  1.4158
  298SOL    MW4  960   4.006   3.862   0.854  0.2619 -0.4745 -0.5094
  299SOL     OW  961   5.542   4.233   1.820 -0.0039 -0.5090  0.2298
  299SOL    HW2  962   5.523   4.169   1.889  1.4518 -0.4160  0.7378
  299SOL    HW3  963   5.602   4.296   1.861  0.5148 -0.1908 -0.9918
  299SOL    MW4  964   5.547   4.233   1.835  0.2566 -0.4547  0.1357
  300SOL     OW  965   3.477   3.769   4.076 -0.4771 -0.0386 -0.4480
  300SOL    HW2  966   3.528   3.690   4.094 -1.8532 -1.1982 -1.3357
  300SOL    HW3  967   3.435   3.751   3.992 -0.7547  1.7065 -0.7212
  300SOL    MW4  968   3.478   3.756   4.067 -0.6953  0.0387 -0.6012
  301SOL     OW  969   0.063   4.331   4.246  0.1909 -0.6549 -0.1622
  301SOL    HW2  970   0.152   4.359   4.269  0.4593 -1.2392 -0.4664
  301SOL    HW3  971   0.031   4.400   4.188 -0.1874  0.4137  1.2429
  301SOL    MW4  972   0.071   4.344   4.242  0.1764 -0.5910 -0.0170
  302SOL     OW  973   2.825   3.471   4.461  0.2044 -0.2844  0.1147
  302SOL    HW2  974   2.833   3.440   4.371  0.1824  0.8456 -0.2995
  302SOL    HW3  975   2.745   3.524   4.461  0.4127  0.0442  0.7018
  302SOL    MW4  976   2.815   3.474   4.449  0.2289 -0.0920  0.1375
  303SOL     OW  977   2.242   3.538   1.814 -0.0896  0.2663  0.8088
  303SOL    HW2  978   2.170   3.583   1.859  0.7711  1.8190  0.6894
  303SOL    HW3  979   2.241   3.574   1.726  0.5508 -0.0579  0.6647
  303SOL    MW4  980   2.232   3.548   1.809  0.1085  0.4284  0.7740
  304SOL     OW  981   2.401   1.606   5.048 -0.7538 -0.0868  0.0975
  304SOL    HW2  982   2.308   1.626   5.038 -1.5667 -3.1657  0.6806
  304SOL    HW3  983   2.423   1.638   5.136 -1.0651  1.1928 -0.2729
  304SOL    MW4  984   2.392   1.613   5.059 -0.9021 -0.3242  0.1255
  305SOL     OW  985   0.086   4.948   6.239  0.3264 -0.7934 -0.0274
  305SOL    HW2  986   0.156   4.992   6.288  1.3236 -0.8498 -1.3351
  305SOL    HW3  987   0.130   4.878   6.192 -0.6213 -0.8828 -0.8194
  305SOL    MW4  988   0.101   4.945   6.240  0.3329 -0.8126 -0.3045
  306SOL     OW  989   0.969   3.278   2.688  0.4763  0.1036  0.0588
  306SOL    HW2  990   0.980   3.369   2.713 -1.3632 -0.3234  2.9185
  306SOL    HW3  991   1.051   3.235   2.713  0.5676  0.6318  0.6784
  306SOL    MW4  992   0.981   3.284   2.694  0.2456  0.1170  0.5179
  307SOL     OW  993   5.775   1.313   2.235  0.0704 -0.9075  0.4660
  307SOL    HW2  994   5.848   1.357   2.192  1.1157 -1.5167  1.5577
  307SOL    HW3  995   5.804   1.223   2.248 -0.5845 -0.9864  1.5630
  307SOL    MW4  996   5.788   1.307   2.231  0.1219 -0.9983  0.7548
  308SOL     OW  997   2.765   2.044   1.005  0.3402 -0.5606 -0.1542
  308SOL    HW2  998   2.681   2.073   0.969  0.2917 -0.6737 -0.1336
  308SOL    HW3  999   2.747   1.958   1.041  0.5488 -0.7477 -0.4836
  308SOL    MW4 1000   2.752   2.036   1.005  0.3613 -0.6002 -0.1949
  309SOL     OW 1001   2.204   5.187   4.333 -0.2605  0.0202  0.4007
  309SOL    HW2 1002   2.281   5.131   4.323 -0.6070 -0.4332  0.2978
  309SOL    HW3 1003   2.234   5.273   4.304 -0.1201 -0.4063 -0.7781
  309SOL    MW4 1004   2.218   5.191   4.328 -0.2877 -0.0959  0.2316
  310SOL     OW 1005   1.366   3.056   5.499 -0.2572 -0.4841  0.0356
  310SOL    HW2 1006   1.403   3.052   5.587  1.3196  0.9572 -0.5183
  310SOL    HW3 1007   1.273   3.069   5.513 -0.1368 -0.9578  1.4815
  310SOL    MW4 1008   1.359   3.057   5.512 -0.0333 -0.3564  0.1533
  311SOL     OW 1009   0.370   0.953   6.033  0.2290  0.0926 -0.1132
  311SOL    HW2 1010   0.276   0.967   6.024  0.2476  0.4673  0.2558
  311SOL    HW3 1011   0.392   0.992   6.117  0.4387 -1.4069  0.5581
  311SOL    MW4 1012   0.360   0.960   6.043  0.2591 -0.0558  0.0241
  312SOL     OW 1013   5.698   3.543   2.138 -0.0188  0.0984 -0.1159
  312SOL    HW2 1014   5.706   3.527   2.232  0.7816  1.4223  0.0558
  312SOL    HW3 1015   5.630   3.611   2.131 -1.2977 -1.1710 -0.6395
  312SOL    MW4 1016   5.690   3.550   2.149 -0.0819  0.1056 -0.1623
  313SOL     OW 1017   4.643   1.846   0.444 -0.1771 -0.1310  0.1723
  313SOL    HW2 1018   4.733   1.816   0.429 -0.1174  1.1238 -2.5646
  313SOL    HW3 1019   4.590   1.766   0.443  0.6128 -0.6650 -1.0895
  313SOL    MW4 1020   4.648   1.832   0.442 -0.0650 -0.0359 -0.3553
  314SOL     OW 1021   2.222   3.276   2.697  0.3407 -0.4894 -0.1084
  314SOL    HW2 1022   2.289   3.344   2.689 -0.4135  0.1814 -0.8729
  314SOL    HW3 1023   2.140   3.320   2.676 -0.0207 -1.9276 -2.0301
  314SOL    MW4 1024   2.220   3.291   2.693  0.1935 -0.5907 -0.4628
  315SOL     OW 1025   4.419   5.586   3.547  0.4235  0.3365  0.5223
  315SOL    HW2 1026   4.327   5.568   3.562  0.3690 -0.4823 -0.6591
  315SOL    HW3 1027   4.423   5.681   3.535 -0.5079  0.2179 -0.9056
  315SOL    MW4 1028   4.407   5.596   3.547  0.2934  0.2128  0.1780
  316SOL     OW 1029   5.994   5.136   5.626  0.5281 -0.6117  0.3065
  316SOL    HW2 1030   6.050   5.151   5.702 -0.1894 -1.2495  0.9743
  316SOL    HW3 1031   6.055   5.129   5.552  1.3089 -0.9844  0.9759
  316SOL    MW4 1032   6.009   5.137   5.626  0.5365 -0.7450  0.4829
  317SOL     OW 1033   0.446   3.459   2.967 -0.3346 -0.6205  0.1272
  317SOL    HW2 1034   0.361   3.431   3.001  0.0468 -0.9922  0.7985
  317SOL    HW3 1035   0.497   3.378   2.961  1.2615 -0.0311  3.4291
  317SOL    MW4 1036   0.441   3.444   2.970 -0.0737 -0.5918  0.6514
  318SOL     OW 1037   4.786   6.108   5.506 -0.5033  0.3226 -0.1171
  318SOL    HW2 1038   4.862   6.058   5.474 -1.1488 -1.0349  0.4048
  318SOL    HW3 1039   4.791   6.191   5.458  0.7212 -0.1474 -0.8689
  318SOL    MW4 1040   4.797   6.113   5.495 -0.4269  0.0815 -0.1474
  319SOL     OW 1041   2.865   0.588   4.013  0.0884 -0.5186  0.3239
  319SOL    HW2 1042   2.778   0.597   4.050  0.6544 -0.6120  1.7203
  319SOL    HW3 1043   2.918   0.653   4.059  1.3291 -2.1807  1.3593
  319SOL    MW4 1044   2.860   0.598   4.024  0.3268 -0.7502  0.6448
  320SOL     OW 1045   4.095   2.128   1.218  0.2222  0.2123  0.4096
  320SOL    HW2 1046   4.027   2.064   1.240 -0.0701  0.2013 -0.4628
  320SOL    HW3 1047   4.093   2.132   1.122  0.7835  0.9407  0.4217
  320SOL    MW4 1048   4.086   2.120   1.208  0.2577  0.3069  0.2961
  321SOL     OW 1049   2.471   1.641   5.341  0.0769 -0.0241 -0.0051
  321SOL    HW2 1050   2.453   1.730   5.313 -4.4921 -0.0944  1.7220
  321SOL    HW3 1051   2.505   1.650   5.430 -1.5694  0.1132  0.6545
  321SOL    MW4 1052   2.473   1.654   5.349 -0.7432 -0.0152  0.3098
  322SOL     OW 1053   3.277   0.039   2.836 -0.0966 -0.0138 -0.1023
  322SOL    HW2 1054   3.364   0.032   2.875  0.7628  1.1804 -1.6956
  322SOL    HW3 1055   3.275  -0.032   2.771  1.6775  2.7944 -3.5261
  322SOL    MW4 1056   3.288   0.029   2.833  0.2508  0.5143 -0.7643
  323SOL     OW 1057   5.845   1.668   4.375  0.1252 -0.1541  0.2277
  323SOL    HW2 1058   5.905   1.742   4.373 -0.6954  0.5536  0.9380
  323SOL    HW3 1059   5.880   1.607   4.310  0.0895  1.4349 -1.3702
  323SOL    MW4 1060   5.858   1.670   4.366  0.0122  0.1489  0.1106
  324SOL     OW 1061   5.381   5.697   4.364 -0.4965  0.5091  0.2294
  324SOL    HW2 1062   5.328   5.767   4.327 -0.6928  0.7095  0.8911
  324SOL    HW3 1063   5.327   5.658   4.432 -0.7464 -0.8769 -0.6991
  324SOL    MW4 1064   5.367   5.701   4.368 -0.5554  0.3527  0.1942
  325SOL     OW 1065   4.163   5.504   5.767  0.8281  0.4664  0.3564
  325SOL    HW2 1066   4.142   5.576   5.826 -3.1692  1.2160 -1.6351
  325SOL    HW3 1067   4.212   5.544   5.696 -0.4779  1.0522 -0.2335
  325SOL    MW4 1068   4.167   5.519   5.766  0.1284  0.6426  0.0158
  326SOL     OW 1069   3.361   3.176   0.226  0.2493  0.5246 -0.0313
  326SOL    HW2 1070   3.386   3.084   0.238 -0.7539  0.4370  1.5882
  326SOL    HW3 1071   3.381   3.194   0.134 -0.2939 -1.5491 -0.6062
  326SOL    MW4 1072   3.367   3.166   0.216  0.0452  0.2394  0.1065
  327SOL     OW 1073   0.793   1.852   2.453 -0.0939 -0.2548  0.2718
  327SOL    HW2 1074   0.859   1.789   2.483  0.1637 -0.0012  0.2379
  327SOL    HW3 1075   0.727   1.799   2.409  1.0217 -0.3382 -1.3993
  327SOL    MW4 1076   0.793   1.837   2.451  0.0872 -0.2324  0.0469
  328SOL     OW 1077   4.549   4.053   1.810  0.3880  0.2719  0.5166
  328SOL    HW2 1078   4.468   4.008   1.788  1.0730  0.1514 -2.1208
  328SOL    HW3 1079   4.533   4.145   1.790  0.4797  0.4743  1.3360
  328SOL    MW4 1080   4.536   4.059   1.804  0.4905  0.2827  0.2768
  329SOL     OW 1081   4.260   6.037   0.949 -0.0599  0.0021  0.5254
  329SOL    HW2 1082   4.326   6.091   0.993 -0.6561 -0.0053  1.4531
  329SOL    HW3 1083   4.299   6.015   0.865  2.0610 -1.7995  1.8661
  329SOL    MW4 1084   4.274   6.041   0.944  0.1413 -0.2366  0.8247
  330SOL     OW 1085   4.387   2.147   5.715 -0.1990 -0.2000 -0.1217
  330SOL    HW2 1086   4.461   2.207   5.705 -0.7554  0.4832 -0.1940
  330SOL    HW3 1087   4.316   2.188   5.667 -0.9062 -0.3672  0.7461
  330SOL    MW4 1088   4.388   2.161   5.708 -0.3657 -0.1320 -0.0167
  331SOL     OW 1089   2.239   0.323   3.761 -0.1379 -0.1533  0.0424
  331SOL    HW2 1090   2.195   0.297   3.843  1.2720 -1.6907  0.3814
  331SOL    HW3 1091   2.248   0.418   3.768  1.8513 -0.3968  2.7711
  331SOL    MW4 1092   2.234   0.332   3.773  0.3106 -0.3883  0.4471
  332SOL     OW 1093   3.289   2.393   6.050  0.0404  0.1920 -0.0196
  332SOL    HW2 1094   3.215   2.438   6.008 -0.0897  0.0050  0.0101
  332SOL    HW3 1095   3.348   2.464   6.077  0.8417  0.2741 -1.8325
  332SOL    MW4 1096   3.287   2.409   6.048  0.1290  0.1781 -0.2549
  333SOL     OW 1097   5.973   5.020   2.376 -0.3858 -0.3078 -0.1444
  333SOL    HW2 1098   5.921   5.021   2.456  1.6208 -0.7759  1.2437
  333SOL    HW3 1099   6.063   5.008   2.406  0.4678 -0.2419 -2.4703
  333SOL    MW4 1100   5.978   5.018   2.391 -0.0084 -0.3609 -0.2681
  334SOL     OW 1101   4.431   1.968   1.900  0.1575 -0.9099  0.3832
  334SOL    HW2 1102   4.472   1.965   1.987 -0.0008  0.5342  0.5238
  334SOL    HW3 1103   4.469   1.893   1.854  0.6488 -1.3908  1.5133
  334SOL    MW4 1104   4.442   1.958   1.906  0.2015 -0.7828  0.5508
  335SOL     OW 1105   5.754   2.106   0.896 -0.5903  0.0565  0.4869
  335SOL    HW2 1106   5.766   2.016   0.927 -1.0636  0.1119  0.8427
  335SOL    HW3 1107   5.672   2.135   0.937 -0.9984  0.2866 -0.4577
  335SOL    MW4 1108   5.744   2.098   0.906 -0.7066  0.0942  0.4092
  336SOL     OW 1109   4.045   4.989   5.606  0.3265 -0.2666  0.4322
  336SOL    HW2 1110   3.978   4.921   5.596  0.1660  0.0404 -0.7742
  336SOL    HW3 1111   3.997   5.071   5.593  0.8245 -0.0206  0.1066
  336SOL    MW4 1112   4.030   4.991   5.603  0.3710 -0.1937  0.2300
  337SOL     OW 1113   5.148   5.986   1.241  0.0815  0.4684  0.4338
  337SOL    HW2 1114   5.126   5.917   1.303  1.3771 -2.3314 -1.9972
  337SOL    HW3 1115   5.063   6.020   1.212 -0.5546  0.9775  2.7079
  337SOL    MW4 1116   5.134   5.981   1.245  0.1685  0.1662  0.4131
  338SOL     OW 1117   5.900   4.998   3.502 -0.0129  0.0908 -0.2440
  338SOL    HW2 1118   5.976   4.943   3.521 -0.6928 -0.7261  0.1876
  338SOL    HW3 1119   5.868   4.967   3.417  0.2834  0.6073 -0.5463
  338SOL    MW4 1120   5.906   4.987   3.494 -0.0635  0.0512 -0.2270
  339SOL     OW 1121   5.476   4.276   3.787 -0.1794 -0.4900  0.2707
  339SOL    HW2 1122   5.503   4.286   3.878 -1.6954 -2.0811  0.9541
  339SOL    HW3 1123   5.490   4.362   3.748 -1.8070  0.9503  2.6354
  339SOL    MW4 1124   5.482   4.289   3.794 -0.5942 -0.5099  0.6729
  340SOL     OW 1125   5.153   2.178   2.466 -0.4746 -0.3496  0.4982
  340SOL    HW2 1126   5.092   2.250   2.484 -0.9925 -0.3438 -1.1089
  340SOL    HW3 1127   5.142   2.160   2.373  2.5085  0.1235 -0.0567
  340SOL    MW4 1128   5.143   2.185   2.456 -0.1493 -0.2864  0.2129
  341SOL     OW 1129   1.125   6.123   1.513 -0.3980  0.0436  0.3193
  341SOL    HW2 1130   1.092   6.051   1.565  0.8880 -2.2971 -1.8812
  341SOL    HW3 1131   1.217   6.102   1.497 -0.4787  1.1266 -2.0216
  341SOL    MW4 1132   1.133   6.111   1.518 -0.2390 -0.1224 -0.2799
  342SOL     OW 1133   0.379   5.676   3.576  0.3193 -0.1070  0.2127
  342SOL    HW2 1134   0.290   5.664   3.609  0.8910 -1.6347  1.3195
  342SOL    HW3 1135   0.420   5.590   3.586  2.5261  1.0010  1.5774
  342SOL    MW4 1136   0.373   5.663   3.582  0.6859 -0.1624  0.5388
  343SOL     OW 1137   2.294   1.162   0.736  0.4270 -0.4252 -0.3487
  343SOL    HW2 1138   2.317   1.172   0.644 -2.0759 -0.5597 -1.0677
  343SOL    HW3 1139   2.233   1.088   0.739 -0.8150  0.5590  1.1118
  343SOL    MW4 1140   2.289   1.154   0.725 -0.0671 -0.3131 -0.2509
  344SOL     OW 1141   5.773   4.910   3.981 -0.2920  0.5431  0.0779
  344SOL    HW2 1142   5.820   4.941   4.058 -0.2911 -2.4644  1.4290
  344SOL    HW3 1143   5.802   4.819   3.971 -1.5244  0.3656 -2.5258
  344SOL    MW4 1144   5.783   4.902   3.990 -0.4545  0.1229 -0.0874
  345SOL     OW 1145   2.083   2.334   2.180 -0.1111 -0.1639 -0.5806
  345SOL    HW2 1146   2.155   2.294   2.132 -0.5991 -1.7271 -0.0819
  345SOL    HW3 1147   2.108   2.325   2.272 -0.7439 -0.3176 -0.4210
  345SOL    MW4 1148   2.096   2.328   2.186 -0.2590 -0.3904 -0.4937
  346SOL     OW 1149   0.867   3.291   3.554 -0.4037  0.5659  0.1507
  346SOL    HW2 1150   0.889   3.202   3.526  0.1731  1.4085 -2.2815
  346SOL    HW3 1151   0.932   3.313   3.621  0.8830 -0.0184 -0.8851
  346SOL    MW4 1152   0.878   3.282   3.559 -0.1578  0.6000 -0.3068
  347SOL     OW 1153   3.522   1.990   5.598  0.2603  0.6038 -0.9193
  347SOL    HW2 1154   3.564   1.905   5.593  1.6634  1.2237 -0.1579
  347SOL    HW3 1155   3.465   1.993   5.521  0.0668 -1.0602 -0.8731
  347SOL    MW4 1156   3.520   1.979   5.587  0.4199  0.4660 -0.8128
  348SOL     OW 1157   0.883   0.601   1.059 -0.0825  0.1778  0.2534
  348SOL    HW2 1158   0.909   0.514   1.088  0.5503 -0.0160 -0.8494
  348SOL    HW3 1159   0.807   0.586   1.003  0.5327  0.2310 -0.6189
  348SOL    MW4 1160   0.876   0.587   1.055  0.0822  0.1592 -0.0072
  349SOL     OW 1161   1.194   6.108   6.354 -0.1213  0.0076  0.1805
  349SOL    HW2 1162   1.276   6.127   6.308  0.1309  1.7953  1.2865
  349SOL    HW3 1163   1.183   6.013   6.345  0.9436  0.0142 -1.8092
  349SOL    MW4 1164   1.204   6.098   6.346  0.0525  0.2444  0.0639
  350SOL     OW 1165   0.487   1.645   0.083  0.5444 -0.0161 -0.2311
  350SOL    HW2 1166   0.448   1.683   0.005 -0.1854  0.2608  0.2557
  350SOL    HW3 1167   0.562   1.595   0.051 -0.5151 -1.0036 -1.2444
  350SOL    MW4 1168   0.492   1.644   0.069  0.3083 -0.1098 -0.3006
  351SOL     OW 1169   1.108   1.696   1.445  0.5413  0.2473  0.2076
  351SOL    HW2 1170   1.017   1.666   1.449  1.0242 -1.1541  3.0282
  351SOL    HW3 1171   1.139   1.667   1.359 -0.7651 -2.1902  0.4670
  351SOL    MW4 1172   1.100   1.689   1.434  0.4326 -0.2592  0.6140
  352SOL     OW 1173   4.835   4.068   6.115 -0.5421 -0.3116  0.3423
  352SOL    HW2 1174   4.897   4.035   6.179 -0.9359  0.0540  0.9163
  352SOL    HW3 1175   4.875   4.048   6.030  0.5399  0.2780  0.7084
  352SOL    MW4 1176   4.848   4.061   6.112 -0.4513 -0.1856  0.4663
  353SOL     OW 1177   1.322   4.441   1.218  0.0458  0.5457  0.3967
  353SOL    HW2 1178   1.345   4.357   1.179  0.7389  0.6057  0.6506
  353SOL    HW3 1179   1.228   4.451   1.203  0.0744  0.0009 -0.1531
  353SOL    MW4 1180   1.313   4.431   1.211  0.1410  0.4818  0.3577
  354SOL     OW 1181   1.197   4.127   5.645  0.2492 -0.1117  0.0694
  354SOL    HW2 1182   1.245   4.071   5.584 -0.5105  0.1993 -0.8292
  354SOL    HW3 1183   1.110   4.087   5.649 -0.6954  1.6504 -1.5216
  354SOL    MW4 1184   1.192   4.114   5.638  0.0244  0.1618 -0.2591
  355SOL     OW 1185   3.884   5.207   5.573 -0.0155 -0.2188 -0.0259
  355SOL    HW2 1186   3.901   5.261   5.651 -0.6586 -0.9491  0.6340
  355SOL    HW3 1187   3.877   5.270   5.501  2.6944  0.3396  0.0968
  355SOL    MW4 1188   3.885   5.222   5.574  0.2572 -0.2415  0.0773
  356SOL     OW 1189   4.680   3.072   6.066  0.3118 -0.3147 -0.0359
  356SOL    HW2 1190   4.694   3.002   6.130 -0.0707  0.0100  0.4090
  356SOL    HW3 1191   4.634   3.140   6.114  0.2131  0.0295 -0.6022
  356SOL    MW4 1192   4.676   3.072   6.080  0.2483 -0.2264 -0.0519
  357SOL     OW 1193   5.365   1.126   6.002 -0.1973  0.4061 -0.0087
  357SOL    HW2 1194   5.392   1.163   6.086 -0.2738  1.9318 -0.6350
  357SOL    HW3 1195   5.381   1.195   5.939  0.7190 -1.0305 -1.4189
  357SOL    MW4 1196   5.371   1.140   6.005 -0.0865  0.4179 -0.2774
  358SOL     OW 1197   0.413   0.638   5.667 -0.2297  0.1693  0.4863
  358SOL    HW2 1198   0.500   0.599   5.656 -0.8106 -1.3437  1.0112
  358SOL    HW3 1199   0.427   0.731   5.653  1.5329 -0.0039  0.8285
  358SOL    MW4 1200   0.426   0.645   5.664 -0.0738 -0.0532  0.6007
  359SOL     OW 1201   6.424   0.558   6.037 -0.1135  0.6010  0.2938
  359SOL    HW2 1202   6.336   0.545   6.001  0.3945  0.2170 -0.8739
  359SOL    HW3 1203   6.410   0.610   6.116 -1.5324 -0.6954  0.9617
  359SOL    MW4 1204   6.410   0.563   6.043 -0.2337  0.3793  0.2279
  360SOL     OW 1205   0.319   5.774   3.962 -0.2430  0.7066 -0.0265
  360SOL    HW2 1206   0.225   5.761   3.952 -0.4361  1.7997  0.2459
  360SOL    HW3 1207   0.342   5.836   3.893  0.0079  1.5448  0.7900
  360SOL    MW4 1208   0.310   5.780   3.951 -0.2354  0.9614  0.1172
  361SOL     OW 1209   2.255   3.050   2.896  0.5508  0.1183 -0.1516
  361SOL    HW2 1210   2.260   3.132   2.847  1.4579  0.1343 -0.0492
  361SOL    HW3 1211   2.251   3.078   2.988 -1.2021  0.0918 -0.1807
  361SOL    MW4 1212   2.255   3.065   2.902  0.4392  0.1169 -0.1419
  362SOL     OW 1213   3.387   5.897   6.130  0.1663  0.5101  0.1936
  362SOL    HW2 1214   3.477   5.888   6.099  0.0528  0.5826 -0.1694
  362SOL    HW3 1215   3.340   5.932   6.054 -0.7640 -2.2012 -0.5659
  362SOL    MW4 1216   3.393   5.901   6.116  0.0286  0.1619  0.0455
  363SOL     OW 1217   6.385   5.483   2.385 -0.4635  0.0487 -0.1085
  363SOL    HW2 1218   6.341   5.555   2.429 -2.7782 -0.8938 -0.6961
  363SOL    HW3 1219   6.389   5.414   2.451  0.2995  0.1777 -0.0152
  363SOL    MW4 1220   6.379   5.483   2.400 -0.6683 -0.0586 -0.1737
  364SOL     OW 1221   4.403   4.708   3.705 -0.5370  0.1046  0.1796
  364SOL    HW2 1222   4.381   4.765   3.779 -0.4841 -0.9038  0.9981
  364SOL    HW3 1223   4.353   4.628   3.721  1.1745 -0.9774  0.3387
  364SOL    MW4 1224   4.394   4.705   3.717 -0.3042 -0.1712  0.3086
  365SOL     OW 1225   5.382   3.685   5.001 -0.3118  0.6963 -0.0937
  365SOL    HW2 1226   5.433   3.607   4.982 -2.1518 -0.4147 -0.7068
  365SOL    HW3 1227   5.357   3.675   5.093  0.9198  1.4899  0.3565
  365SOL    MW4 1228   5.385   3.673   5.011 -0.3921  0.6544 -0.1152
  366SOL     OW 1229   1.926   3.780   2.665  0.7888  0.3947  0.2812
  366SOL    HW2 1230   1.953   3.850   2.606  0.7276  1.8493  1.8858
  366SOL    HW3 1231   2.008   3.746   2.701  0.7444  1.6885  1.7020
  366SOL    MW4 1232   1.940   3.785   2.662  0.7749  0.7573  0.6804
  367SOL     OW 1233   2.347   6.140   1.459 -0.1926 -0.4102 -0.3076
  367SOL    HW2 1234   2.274   6.104   1.409  0.2172 -0.4485 -0.8901
  367SOL    HW3 1235   2.413   6.162   1.393  0.2392 -0.1841  0.1901
  367SOL    MW4 1236   2.346   6.138   1.443 -0.0816 -0.3855 -0.3188
  368SOL     OW 1237   3.883   4.751   5.597  0.4417 -0.0304  0.5406
  368SOL    HW2 1238   3.795   4.719   5.577  0.1332  0.6601  0.7633
  368SOL    HW3 1239   3.878   4.776   5.689  1.8699 -3.2824  1.6769
  368SOL    MW4 1240   3.870   4.750   5.606  0.5895 -0.3683  0.7199
  369SOL     OW 1241   2.113   5.058   4.561 -0.0960 -0.8176  0.4354
  369SOL    HW2 1242   2.145   5.106   4.484  0.2891 -0.4816  0.8031
  369SOL    HW3 1243   2.086   4.973   4.526  0.0188 -0.6460 -0.0842
  369SOL    MW4 1244   2.114   5.053   4.546 -0.0300 -0.7506  0.4154
  370SOL     OW 1245   0.844   5.921   5.303  0.6264  0.3791 -0.3535
  370SOL    HW2 1246   0.775   5.986   5.317 -1.7746 -2.2507  1.1625
  370SOL    HW3 1247   0.888   5.914   5.388  0.4241 -0.3994 -0.3048
  370SOL    MW4 1248   0.841   5.929   5.316  0.2830 -0.0706 -0.1471
  371SOL     OW 1249   6.376   2.722   0.305  0.2542 -0.0693  0.5739
  371SOL    HW2 1250   6.292   2.726   0.260  0.5893  0.2079 -0.0454
  371SOL    HW3 1251   6.402   2.814   0.315  1.3655 -0.1812 -0.9524
  371SOL    MW4 1252   6.369   2.735   0.300  0.4451 -0.0475  0.2908
  372SOL     OW 1253   3.534   3.761   6.257 -0.1761 -0.0924 -0.2807
  372SOL    HW2 1254   3.621   3.775   6.218  0.8175 -0.4326  1.6961
  372SOL    HW3 1255   3.508   3.847   6.290  1.1297 -0.6238  2.3856
  372SOL    MW4 1256   3.542   3.774   6.256  0.1273 -0.2074  0.3319
  373SOL     OW 1257   5.470   1.172   5.553  0.0901 -0.3690 -0.0482
  373SOL    HW2 1258   5.469   1.217   5.637 -0.7801 -1.9685  0.8341
  373SOL    HW3 1259   5.409   1.223   5.498 -0.0678  0.1316  0.5818
  373SOL    MW4 1260   5.462   1.185   5.557 -0.0455 -0.5140  0.1513
  374SOL     OW 1261   5.081   4.303   0.673  0.3589 -0.4448 -0.4397
  374SOL    HW2 1262   5.117   4.280   0.587  2.8417  0.6588  0.2413
  374SOL    HW3 1263   4.987   4.315   0.656  0.4416 -2.1693 -2.5707
  374SOL    MW4 1264   5.073   4.302   0.659  0.6974 -0.5267 -0.6310
  375SOL     OW 1265   4.281   0.975   5.264 -0.0620  0.6912  0.0206
  375SOL    HW2 1266   4.203   0.921   5.252  0.3232  0.4133 -1.3732
  375SOL    HW3 1267   4.337   0.924   5.323 -0.7476  0.7251  0.7243
  375SOL    MW4 1268   4.278   0.961   5.270 -0.1016  0.6590 -0.0705
  376SOL     OW 1269   3.809   0.421   4.412  0.3589  0.0435 -0.5730
  376SOL    HW2 1270   3.821   0.400   4.505 -0.8907  1.0642 -0.1571
  376SOL    HW3 1271   3.725   0.382   4.389  0.8367 -0.5433 -1.4116
  376SOL    MW4 1272   3.800   0.413   4.421  0.2571  0.1007 -0.6288
  377SOL     OW 1273   3.228   5.935   2.182 -0.3829 -0.3452  0.4243
  377SOL    HW2 1274   3.289   5.866   2.155 -2.3019 -1.9529 -0.1036
  377SOL    HW3 1275   3.225   5.995   2.108  0.0876 -0.5781  0.2131
  377SOL    MW4 1276   3.236   5.934   2.169 -0.5740 -0.5880  0.3268
  378SOL     OW 1277   3.737   3.542   3.040 -0.0718  0.1023  0.2403
  378SOL    HW2 1278   3.717   3.591   3.120 -1.1260  0.2108 -0.0748
  378SOL    HW3 1279   3.657   3.548   2.988 -0.2134 -1.9070  0.1606
  378SOL    MW4 1280   3.724   3.549   3.044 -0.2296 -0.1485  0.1882
  379SOL     OW 1281   4.444   3.554   3.025  0.0364  0.0215 -0.1145
  379SOL    HW2 1282   4.528   3.583   3.060 -0.8731  1.6952  0.7695
  379SOL    HW3 1283   4.396   3.521   3.101 -0.8012  0.8230 -0.2740
  379SOL    MW4 1284   4.449   3.553   3.039 -0.1941  0.3481 -0.0189
  380SOL     OW 1285   5.530   5.595   5.607 -0.2144 -0.0480 -0.0618
  380SOL    HW2 1286   5.599   5.567   5.668 -1.4043 -1.9346  0.4914
  380SOL    HW3 1287   5.456   5.538   5.626 -2.4273  2.6692  0.1994
  380SOL    MW4 1288   5.530   5.584   5.618 -0.6634  0.0616  0.0457
  381SOL     OW 1289   2.850   0.276   5.303 -0.3635  0.2647 -0.6008
  381SOL    HW2 1290   2.805   0.244   5.381  0.5733 -0.2071 -0.2389
  381SOL    HW3 1291   2.795   0.248   5.230  0.2045 -1.8221 -0.2815
  381SOL    MW4 1292   2.837   0.268   5.304 -0.1649 -0.0729 -0.5109
  382SOL     OW 1293   5.460   1.849   2.318 -0.1829 -0.1711  0.2777
  382SOL    HW2 1294   5.492   1.920   2.374  2.6919 -1.8423  0.9517
  382SOL    HW3 1295   5.450   1.890   2.232  1.8096  1.0172  0.5404
  382SOL    MW4 1296   5.463   1.864   2.314  0.4593 -0.2348  0.4013
  383SOL     OW 1297   5.136   0.513   5.746  0.1332  0.5051  0.8018
  383SOL    HW2 1298   5.184   0.505   5.829  0.1389  0.3879  0.7878
  383SOL    HW3 1299   5.110   0.423   5.725  2.0396  0.1801 -0.4653
  383SOL    MW4 1300   5.139   0.500   5.754  0.3855  0.4468  0.6328
  384SOL     OW 1301   3.299   0.684   1.523  0.4212 -0.0368 -0.0637
  384SOL    HW2 1302   3.346   0.695   1.440  2.0852 -0.9283  0.7241
  384SOL    HW3 1303   3.248   0.765   1.532  1.1759  0.6177 -1.3522
  384SOL    MW4 1304   3.299   0.696   1.513  0.7403 -0.0681 -0.1298
  385SOL     OW 1305   4.956   0.958   1.487  0.3507 -0.3472 -0.0060
  385SOL    HW2 1306   4.883   0.972   1.547  0.2847  0.7300 -0.3170
  385SOL    HW3 1307   4.928   0.886   1.431 -0.0143 -0.6633  0.5695
  385SOL    MW4 1308   4.943   0.950   1.488  0.2939 -0.2468  0.0289
  386SOL     OW 1309   3.432   6.236   1.727 -0.9157 -0.0776 -0.2513
  386SOL    HW2 1310   3.396   6.151   1.702 -1.1202 -0.5205  1.4424
  386SOL    HW3 1311   3.484   6.263   1.651 -1.3857 -1.3956 -1.0802
  386SOL    MW4 1312   3.434   6.228   1.713 -1.0047 -0.3099 -0.1372
  387SOL     OW 1313   5.681   2.799   5.047  0.5977  0.6555 -0.3013
  387SOL    HW2 1314   5.622   2.734   5.009  0.3976 -0.5348  1.8804
  387SOL    HW3 1315   5.758   2.797   4.990  1.8190 -3.6881  1.1522
  387SOL    MW4 1316   5.684   2.790   5.035  0.7324 -0.0746  0.1783
  388SOL     OW 1317   4.019   0.970   1.692  0.7120  0.1694 -0.0973
  388SOL    HW2 1318   3.930   0.960   1.726  0.5791 -1.0721 -0.7649
  388SOL    HW3 1319   4.058   1.037   1.748 -0.5519  0.5467  0.3712
  388SOL    MW4 1320   4.012   0.977   1.704  0.5277  0.0553 -0.1236
  389SOL     OW 1321   3.661   0.277   4.712 -0.3469  0.6540 -0.3616
  389SOL    HW2 1322   3.639   0.247   4.624  0.5146  1.9340 -1.0534
  389SOL    HW3 1323   3.650   0.372   4.708  1.4867  0.9286  0.3516
  389SOL    MW4 1324   3.657   0.286   4.700  0.0087  0.8591 -0.3587
  390SOL     OW 1325   5.912   4.370   1.793  0.6338  0.0185  0.0533
  390SOL    HW2 1326   5.934   4.279   1.814 -0.5668 -0.2014  0.4254
  390SOL    HW3 1327   5.839   4.391   1.852  0.0035  0.7691 -0.9682
  390SOL    MW4 1328   5.905   4.360   1.804  0.3922  0.0885 -0.0324
  391SOL     OW 1329   5.461   4.559   0.562 -0.4405  0.3556  0.6496
  391SOL    HW2 1330   5.438   4.511   0.642 -1.6476 -0.1634  0.0145
  391SOL    HW3 1331   5.415   4.643   0.570 -1.2489 -0.0296  0.1279
  391SOL    MW4 1332   5.452   4.564   0.574 -0.7064  0.2363  0.4969
  392SOL     OW 1333   2.346   2.202   4.410 -0.4979  0.0884 -0.5499
  392SOL    HW2 1334   2.284   2.141   4.371  0.0426  0.0146 -1.3441
  392SOL    HW3 1335   2.306   2.288   4.399  0.8894  0.4628 -4.1387
  392SOL    MW4 1336   2.333   2.205   4.403 -0.2435  0.1281 -1.1281
  393SOL     OW 1337   0.923   1.684   1.189  0.1161 -0.5590  0.8854
  393SOL    HW2 1338   0.974   1.762   1.211 -2.0335  1.6564 -1.2974
  393SOL    HW3 1339   0.984   1.627   1.144  0.9699  1.6260 -0.9228
  393SOL    MW4 1340   0.937   1.687   1.186 -0.0548  0.0216  0.3588
  394SOL     OW 1341   0.913   5.048   5.497 -0.4690  0.2933 -0.5852
  394SOL    HW2 1342   0.850   4.987   5.456  0.1467  0.9883 -2.7177
  394SOL    HW3 1343   0.947   5.099   5.423  0.8340  1.5630  0.8440
  394SOL    MW4 1344   0.909   5.047   5.482 -0.2158  0.5525 -0.6780
  395SOL     OW 1345   6.324   3.871   0.336  0.0272 -0.5971  0.1977
  395SOL    HW2 1346   6.257   3.819   0.379 -0.0323 -0.4625  0.2676
  395SOL    HW3 1347   6.290   3.960   0.337  0.5614 -0.3970  0.9458
  395SOL    MW4 1348   6.311   3.876   0.342  0.0898 -0.5529  0.3056
  396SOL     OW 1349   0.332   4.615   6.351 -0.0222  0.4359  0.7387
  396SOL    HW2 1350   0.343   4.656   6.265  0.6647  3.6558  2.2022
  396SOL    HW3 1351   0.403   4.550   6.356  1.2923  1.7084 -0.3508
  396SOL    MW4 1352   0.343   4.612   6.341  0.2419  1.0286  0.7880
  397SOL     OW 1353   4.500   2.286   0.489 -0.5419 -0.1258  0.1314
  397SOL    HW2 1354   4.576   2.270   0.433  0.8068  3.3118  0.7111
  397SOL    HW3 1355   4.426   2.287   0.429  0.3295 -0.2386 -0.9894
  397SOL    MW4 1356   4.500   2.284   0.474 -0.2490  0.3128  0.0600
  398SOL     OW 1357   5.141   2.636   1.706 -0.9482 -0.4648 -0.4481
  398SOL    HW2 1358   5.081   2.640   1.630 -2.2165 -1.2808  0.4694
  398SOL    HW3 1359   5.149   2.727   1.734 -3.4753 -0.4830  0.6442
  398SOL    MW4 1360   5.134   2.649   1.699 -1.4490 -0.5749 -0.1829
  399SOL     OW 1361   1.981   2.037   1.923 -0.1490  0.0448  0.3909
  399SOL    HW2 1362   1.905   1.979   1.915  0.1761 -0.1856 -1.3104
  399SOL    HW3 1363   1.944   2.123   1.944 -0.7596 -0.3814  1.1041
  399SOL    MW4 1364   1.966   2.041   1.925 -0.1867 -0.0418  0.2606
  400SOL     OW 1365   3.827   4.824   3.231 -0.1242  0.0085  0.0434
  400SOL    HW2 1366   3.923   4.819   3.230 -0.1656 -0.9596 -1.0726
  400SOL    HW3 1367   3.807   4.885   3.302  1.2839 -0.7374  1.1375
  400SOL    MW4 1368   3.837   4.831   3.240  0.0561 -0.2176  0.0405
  401SOL     OW 1369   5.990   0.583   4.567  0.8253 -0.0149 -0.1795
  401SOL    HW2 1370   5.946   0.557   4.648 -0.2053  2.4319  0.1485
  401SOL    HW3 1371   5.987   0.505   4.512  0.4568 -1.3731  1.6740
  401SOL    MW4 1372   5.984   0.569   4.571  0.6407  0.1287  0.1084
  402SOL     OW 1373   4.849   1.683   5.686  0.0177  0.2244  0.1928
  402SOL    HW2 1374   4.836   1.778   5.679 -0.4970  0.3944  2.5930
  402SOL    HW3 1375   4.932   1.674   5.731  1.0194 -0.5642 -1.7087
  402SOL    MW4 1376   4.858   1.695   5.691  0.0820  0.1428  0.2586
  403SOL     OW 1377   4.721   1.604   6.075  0.1557  0.2733 -0.3016
  403SOL    HW2 1378   4.664   1.659   6.021 -0.9041  1.0953  1.5933
  403SOL    HW3 1379   4.737   1.526   6.021  0.1801  1.5873 -2.2899
  403SOL    MW4 1380   4.716   1.601   6.060  0.0191  0.5551 -0.3140
  404SOL     OW 1381   1.341   2.098   5.573  0.6094 -0.3269  0.1020
  404SOL    HW2 1382   1.409   2.042   5.534  0.4946 -0.1737 -0.3295
  404SOL    HW3 1383   1.383   2.183   5.582  0.1014  0.1182 -1.3752
  404SOL    MW4 1384   1.355   2.101   5.569  0.5272 -0.2479 -0.1498
  405SOL     OW 1385   2.586   0.571   6.025 -0.2358 -0.0333 -0.0255
  405SOL    HW2 1386   2.614   0.662   6.029  1.8533 -0.5291 -1.4807
  405SOL    HW3 1387   2.530   0.566   5.948 -1.1028  0.1579  0.5722
  405SOL    MW4 1388   2.582   0.582   6.016 -0.0746 -0.0735 -0.1387
  406SOL     OW 1389   3.734   4.341   0.535  0.1092 -0.1125  0.4535
  406SOL    HW2 1390   3.657   4.376   0.579 -0.0879 -1.5265  1.3195
  406SOL    HW3 1391   3.808   4.379   0.582 -0.0956 -0.6452  1.2342
  406SOL    MW4 1392   3.734   4.350   0.547  0.0562 -0.3693  0.6708
  407SOL     OW 1393   5.772   4.550   3.702  0.1327 -0.5408  0.0280
  407SOL    HW2 1394   5.767   4.455   3.694 -0.3107 -0.5385  0.2301
  407SOL    HW3 1395   5.681   4.578   3.705  0.2568 -0.1789  0.7470
  407SOL    MW4 1396   5.759   4.541   3.701  0.0906 -0.4927  0.1495
  408SOL     OW 1397   3.707   2.167   5.456  0.5816 -0.2704 -0.4332
  408SOL    HW2 1398   3.664   2.094   5.500 -0.7390  0.7552  0.0440
  408SOL    HW3 1399   3.652   2.243   5.475  1.9460  0.8756 -0.8679
  408SOL    MW4 1400   3.694   2.167   5.464  0.5874  0.0161 -0.4276
  409SOL     OW 1401   5.593   3.489   3.965  0.0402 -0.0679 -0.7915
  409SOL    HW2 1402   5.644   3.434   4.025 -0.1692 -0.3023 -0.8253
  409SOL    HW3 1403   5.633   3.472   3.879 -1.1266 -1.5265 -1.0833
  409SOL    MW4 1404   5.605   3.479   3.962 -0.1414 -0.2912 -0.8344
  410SOL     OW 1405   0.103   3.891   4.205 -0.0986 -0.8576  0.1623
  410SOL    HW2 1406   0.185   3.877   4.157  0.8797 -0.2180  1.5877
  410SOL    HW3 1407   0.063   3.967   4.163  1.1515  0.2054  0.8203
  410SOL    MW4 1408   0.109   3.899   4.193  0.1954 -0.6330  0.4372
  411SOL     OW 1409   4.036   0.855   5.241  0.1882  0.6655 -0.0227
  411SOL    HW2 1410   3.997   0.778   5.199  1.7799  0.7400 -1.7794
  411SOL    HW3 1411   3.970   0.924   5.233 -1.0862 -0.3381  1.1946
  411SOL    MW4 1412   4.022   0.854   5.235  0.2301  0.5429 -0.0938
  412SOL     OW 1413   2.006   2.358   5.073 -0.0438  0.0522 -0.1014
  412SOL    HW2 1414   2.027   2.420   5.142  2.7177  0.2813 -1.0199
  412SOL    HW3 1415   1.932   2.307   5.107 -0.5795  1.9866  1.7943
  412SOL    MW4 1416   1.999   2.359   5.086  0.2499  0.3376  0.0275
  413SOL     OW 1417   5.312   3.140   1.785  0.0245 -0.7262  0.0611
  413SOL    HW2 1418   5.279   3.122   1.873  0.2197 -1.3402  0.0079
  413SOL    HW3 1419   5.396   3.095   1.780  0.2014 -0.3649 -0.3057
  413SOL    MW4 1420   5.319   3.132   1.796  0.0736 -0.7595  0.0057
  414SOL     OW 1421   2.808   4.369   4.034  0.4874 -0.4170  0.2444
  414SOL    HW2 1422   2.795   4.425   3.957  0.8640 -3.2446 -2.0287
  414SOL    HW3 1423   2.740   4.302   4.026 -0.8298  0.3042  3.6118
  414SOL    MW4 1424   2.797   4.367   4.023  0.3633 -0.6949  0.3888
  415SOL     OW 1425   0.182   1.386   5.121 -0.3851  0.2188  0.1887
  415SOL    HW2 1426   0.236   1.333   5.061 -0.1300  0.9674 -0.2608
  415SOL    HW3 1427   0.205   1.354   5.208  0.9699  0.6508  0.0223
  415SOL    MW4 1428   0.192   1.375   5.124 -0.1726  0.3745  0.1075
  416SOL     OW 1429   0.577   2.458   4.813  0.2529 -0.4504 -0.3071
  416SOL    HW2 1430   0.646   2.425   4.869 -0.3655 -1.8221 -0.3014
  416SOL    HW3 1431   0.511   2.492   4.873  1.2392  1.6449 -0.3270
  416SOL    MW4 1432   0.577   2.458   4.828  0.3014 -0.3550 -0.3090
  417SOL     OW 1433   4.739   3.436   0.357  0.5483 -0.1946 -0.4228
  417SOL    HW2 1434   4.834   3.444   0.360  0.5005  0.3084 -0.1254
  417SOL    HW3 1435   4.712   3.488   0.281  0.4651  0.1352 -0.1683
  417SOL    MW4 1436   4.748   3.444   0.347  0.5310 -0.0847 -0.3500
  418SOL     OW 1437   6.135   1.951   2.216 -0.2798  0.7787 -0.2265
  418SOL    HW2 1438   6.057   2.007   2.220 -0.8864 -0.0807  0.4529
  418SOL    HW3 1439   6.155   1.933   2.307 -0.8109 -1.0534 -0.4440
  418SOL    MW4 1440   6.127   1.956   2.228 -0.4299  0.4236 -0.1655
  419SOL     OW 1441   1.295   5.082   0.361  0.6758 -0.4711  0.1706
  419SOL    HW2 1442   1.347   5.161   0.377  1.2260 -1.0520  1.3207
  419SOL    HW3 1443   1.293   5.036   0.445  0.0311 -1.4989 -0.3808
  419SOL    MW4 1444   1.301   5.087   0.374  0.6634 -0.6834  0.2496
  420SOL     OW 1445   4.153   1.805   0.862 -0.2545  0.1049  0.1042
  420SOL    HW2 1446   4.111   1.806   0.776 -2.1824  1.2295  1.0002
  420SOL    HW3 1447   4.180   1.714   0.875  1.0071  0.1046 -2.0683
  420SOL    MW4 1448   4.151   1.793   0.853 -0.3424  0.2533 -0.0642
  421SOL     OW 1449   2.608   3.695   2.818 -0.3121 -0.5061  0.0173
  421SOL    HW2 1450   2.527   3.745   2.828 -0.2552 -0.7046  1.9083
  421SOL    HW3 1451   2.653   3.736   2.744 -0.6778  1.6415  0.9147
  421SOL    MW4 1452   2.603   3.707   2.809 -0.3529 -0.2489  0.3852
  422SOL     OW 1453   0.242   2.142   3.034 -0.2671 -0.1690  0.6983
  422SOL    HW2 1454   0.284   2.121   2.951 -0.9502  0.7301  0.1096
  422SOL    HW3 1455   0.306   2.116   3.100  0.9773  0.6116 -0.1509
  422SOL    MW4 1456   0.256   2.136   3.032 -0.1930  0.0526  0.5086
  423SOL     OW 1457   5.869   6.426   1.587 -0.7572 -0.0601 -0.6960
  423SOL    HW2 1458   5.787   6.452   1.544 -1.7200 -1.7295  0.0438
  423SOL    HW3 1459   5.879   6.333   1.567 -0.6117 -0.6179  1.6283
  423SOL    MW4 1460   5.859   6.417   1.579 -0.8650 -0.3540 -0.2917
  424SOL     OW 1461   5.175   4.581   0.110 -0.5301  0.0324  0.1357
  424SOL    HW2 1462   5.181   4.675   0.094  1.0552 -0.0876 -0.1206
  424SOL    HW3 1463   5.241   4.563   0.177 -2.6830 -0.5063  2.2235
  424SOL    MW4 1464   5.185   4.591   0.117 -0.6050 -0.0545  0.3773
  425SOL     OW 1465   4.857   3.999   4.471  0.5543 -0.7361  0.6614
  425SOL    HW2 1466   4.838   4.086   4.437 -0.6686 -0.3504  2.2378
  425SOL    HW3 1467   4.905   3.956   4.401 -0.4152  0.5767 -0.8604
  425SOL    MW4 1468   4.861   4.005   4.458  0.2650 -0.5120  0.6686
  426SOL     OW 1469   5.151   4.681   5.981 -0.4606  0.1303  0.7250
  426SOL    HW2 1470   5.123   4.605   6.032  2.7104 -0.7216  1.4378
  426SOL    HW3 1471   5.157   4.752   6.045 -0.9991  0.3270  0.5620
  426SOL    MW4 1472   5.148   4.680   5.996 -0.1133  0.0439  0.7975
  427SOL     OW 1473   5.678   4.716   4.327 -0.5461  0.5860  0.3221
  427SOL    HW2 1474   5.758   4.743   4.371 -0.0000  0.6312 -0.6626
  427SOL    HW3 1475   5.623   4.795   4.328 -0.2926  0.7642  0.3906
  427SOL    MW4 1476   5.681   4.730   4.333 -0.4406  0.6155  0.2012
  428SOL     OW 1477   5.195   3.057   4.711  0.5790  0.1274 -1.0765
  428SOL    HW2 1478   5.229   2.971   4.735 -0.8132 -0.7097 -2.0105
  428SOL    HW3 1479   5.103   3.055   4.737  0.8193  1.8559  0.1592
  428SOL    MW4 1480   5.187   3.046   4.718  0.4270  0.2450 -1.0367
  429SOL     OW 1481   4.721   4.045   2.774  0.2683 -0.2718 -0.1358
  429SOL    HW2 1482   4.631   4.056   2.743  0.3531 -1.0352 -0.6987
  429SOL    HW3 1483   4.775   4.048   2.695  0.6702 -0.4628  0.1240
  429SOL    MW4 1484   4.716   4.047   2.760  0.3325 -0.3977 -0.1758
  430SOL     OW 1485   3.715   3.291   3.611 -0.0982  0.3435  0.2948
  430SOL    HW2 1486   3.661   3.301   3.533 -1.0113  2.8167  1.1595
  430SOL    HW3 1487   3.654   3.268   3.680  0.3307  0.5750  0.7617
  430SOL    MW4 1488   3.700   3.289   3.610 -0.1621  0.7004  0.4705
  431SOL     OW 1489   4.760   2.235   2.543 -0.1899 -0.2271  0.3670
  431SOL    HW2 1490   4.731   2.196   2.461  1.1177 -0.8934  0.1870
  431SOL    HW3 1491   4.732   2.172   2.611  0.1241 -0.4729  0.2717
  431SOL    MW4 1492   4.753   2.221   2.541  0.0241 -0.3474  0.3307
  432SOL     OW 1493   0.232   1.080   0.130  0.2552 -0.0546  0.3505
  432SOL    HW2 1494   0.286   1.011   0.091  0.9701  0.6479  0.0608
  432SOL    HW3 1495   0.289   1.157   0.130 -0.5469  0.5462  0.6258
  432SOL    MW4 1496   0.247   1.081   0.125  0.2437  0.1174  0.3486
  433SOL     OW 1497   2.794   3.421   5.122  0.2948 -0.2282 -0.5072
  433SOL    HW2 1498   2.832   3.461   5.045 -0.0774 -1.1510 -1.1877
  433SOL    HW3 1499   2.704   3.454   5.126  0.4907  0.2709 -0.1298
  433SOL    MW4 1500   2.787   3.431   5.113  0.2715 -0.2841 -0.5472
  434SOL     OW 1501   2.233   2.722   5.478 -0.4071  0.0286  0.2201
  434SOL    HW2 1502   2.265   2.653   5.419  0.6381  0.2270  0.5338
  434SOL    HW3 1503   2.235   2.682   5.565  0.3845  0.4963  0.4296
  434SOL    MW4 1504   2.237   2.707   5.482 -0.1648  0.1165  0.2891
  435SOL     OW 1505   3.350   4.904   2.355  0.1941 -0.0319 -0.1674
  435SOL    HW2 1506   3.443   4.924   2.353  0.0439  0.6706 -1.0254
  435SOL    HW3 1507   3.310   4.977   2.402  0.3623 -1.7950  2.9299
  435SOL    MW4 1508   3.357   4.916   2.361  0.1965 -0.1718  0.1280
  436SOL     OW 1509   1.411   1.933   3.648  0.5069  0.7128  0.4294
  436SOL    HW2 1510   1.414   1.987   3.569 -0.2031  1.2783  0.7730
  436SOL    HW3 1511   1.461   1.855   3.626  0.6418  1.0370 -0.4469
  436SOL    MW4 1512   1.418   1.930   3.635  0.4310  0.8302  0.3591
  437SOL     OW 1513   4.424   3.960   4.558  0.3022  0.2920  0.2625
  437SOL    HW2 1514   4.414   3.906   4.637 -0.8977 -2.0252 -1.3535
  437SOL    HW3 1515   4.512   3.939   4.526  0.0550 -0.3307 -0.0422
  437SOL    MW4 1516   4.434   3.950   4.564  0.1112 -0.0959  0.0091
  438SOL     OW 1517   4.458   0.772   3.261 -0.1334  0.2861 -0.8097
  438SOL    HW2 1518   4.429   0.775   3.352 -0.0524  0.6282 -0.7943
  438SOL    HW3 1519   4.542   0.727   3.264 -0.1514  0.2579 -0.7226
  438SOL    MW4 1520   4.465   0.766   3.273 -0.1251  0.3275 -0.7962
  439SOL     OW 1521   3.853   2.623   2.431 -0.0614 -0.7180 -0.1881
  439SOL    HW2 1522   3.905   2.700   2.404  0.4368 -0.7275  0.6968
  439SOL    HW3 1523   3.869   2.615   2.525 -0.0386 -1.9631 -0.2783
  439SOL    MW4 1524   3.862   2.632   2.440  0.0073 -0.8836 -0.0833
  440SOL     OW 1525   0.292   3.939   6.007  0.3430  0.4744  0.0779
  440SOL    HW2 1526   0.242   3.924   6.087 -2.3112 -0.6674 -1.6719
  440SOL    HW3 1527   0.297   4.035   6.000 -0.9607  0.6043  0.6976
  440SOL    MW4 1528   0.286   3.950   6.017 -0.1792  0.3409 -0.0712
  441SOL     OW 1529   0.274   2.163   4.278 -0.2932 -0.5251 -0.3675
  441SOL    HW2 1530   0.289   2.164   4.373 -0.1599 -1.9884 -0.3461
  441SOL    HW3 1531   0.362   2.161   4.240 -0.3516 -0.2598 -0.5210
  441SOL    MW4 1532   0.288   2.163   4.285 -0.2833 -0.6831 -0.3850
  442SOL     OW 1533   3.204   0.879   0.793 -0.2321 -0.0323 -0.1533
  442SOL    HW2 1534   3.114   0.847   0.781 -0.0913 -0.2412 -0.6804
  442SOL    HW3 1535   3.194   0.961   0.841 -1.0487  2.1117 -3.6076
  442SOL    MW4 1536   3.191   0.885   0.798 -0.3213  0.2230 -0.6786
  443SOL     OW 1537   3.046   0.833   2.875 -0.6130  0.4129 -0.1472
  443SOL    HW2 1538   3.040   0.873   2.788 -3.2898  1.6535  0.4994
  443SOL    HW3 1539   3.072   0.905   2.932 -0.9912  0.1322  0.3826
  443SOL    MW4 1540   3.049   0.848   2.871 -1.0161  0.5396  0.0080
  444SOL     OW 1541   3.512   2.482   1.436 -0.4584 -0.1159 -0.7862
  444SOL    HW2 1542   3.503   2.388   1.423 -2.2438 -0.2805  1.1614
  444SOL    HW3 1543   3.440   2.520   1.387 -0.8180  0.0782 -0.1162
  444SOL    MW4 1544   3.502   2.475   1.428 -0.7414 -0.1120 -0.4408
  445SOL     OW 1545   2.405   2.445   6.027  0.7893  0.1215 -0.4180
  445SOL    HW2 1546   2.439   2.516   5.973  0.9864  1.6126  1.5382
  445SOL    HW3 1547   2.433   2.467   6.116  1.3120 -2.7063  0.2173
  445SOL    MW4 1548   2.413   2.457   6.032  0.8843 -0.0549 -0.0761
  446SOL     OW 1549   5.683   4.321   0.196  0.1627  0.2499 -0.0550
  446SOL    HW2 1550   5.627   4.315   0.274 -1.1088  2.0261 -0.7564
  446SOL    HW3 1551   5.633   4.279   0.127 -0.2216  1.5671 -0.6171
  446SOL    MW4 1552   5.669   4.315   0.197 -0.0558  0.6580 -0.2217
  447SOL     OW 1553   2.402   2.326   5.720 -0.2680 -0.0761 -0.5472
  447SOL    HW2 1554   2.311   2.298   5.712 -0.1394 -0.3573 -1.0616
  447SOL    HW3 1555   2.445   2.293   5.641  0.2010  0.3596 -0.4847
  447SOL    MW4 1556   2.396   2.318   5.708 -0.1892 -0.0557 -0.6068
  448SOL     OW 1557   5.312   1.724   6.280  0.7293 -0.5309 -0.6639
  448SOL    HW2 1558   5.392   1.690   6.241  1.0645  0.9423 -1.3073
  448SOL    HW3 1559   5.243   1.697   6.219  0.7266 -1.7344 -0.1480
  448SOL    MW4 1560   5.313   1.716   6.267  0.7732 -0.4953 -0.6807
  449SOL     OW 1561   3.652   0.208   1.772 -0.3535  0.5773 -0.2397
  449SOL    HW2 1562   3.607   0.190   1.689 -0.2482 -2.4263  0.2393
  449SOL    HW3 1563   3.742   0.226   1.746 -0.1375 -1.1205 -0.7858
  449SOL    MW4 1564   3.658   0.208   1.758 -0.3111 -0.0430 -0.2485
  450SOL     OW 1565   2.627   3.800   2.557  0.4320  0.6278  0.0628
  450SOL    HW2 1566   2.535   3.778   2.543  0.4343  0.8692 -0.3536
  450SOL    HW3 1567   2.632   3.894   2.539  0.0806  1.4362  3.4242
  450SOL    MW4 1568   2.616   3.809   2.553  0.3859  0.7663  0.4514
  451SOL     OW 1569   6.104   3.954   2.665  0.1434  0.0607 -0.1938
  451SOL    HW2 1570   6.106   3.938   2.759  1.6074 -0.6077 -0.3035
  451SOL    HW3 1571   6.021   3.999   2.650 -0.5326 -0.6161  1.2785
  451SOL    MW4 1572   6.093   3.958   2.675  0.2474 -0.1168 -0.0140
  452SOL     OW 1573   5.418   4.765   3.558  0.0173  0.2515 -0.2341
  452SOL    HW2 1574   5.479   4.768   3.631  1.4236 -2.3167 -1.1726
  452SOL    HW3 1575   5.458   4.820   3.491  1.3353 -1.3476 -0.8101
  452SOL    MW4 1576   5.431   4.773   3.559  0.3768 -0.2983 -0.4339
  453SOL     OW 1577   2.624   5.483   2.852  0.3641 -0.0965 -0.1030
  453SOL    HW2 1578   2.536   5.458   2.826  0.5522 -0.6320 -0.2342
  453SOL    HW3 1579   2.663   5.402   2.886  0.9909  0.0007 -0.5715
  453SOL    MW4 1580   2.618   5.469   2.853  0.4716 -0.1543 -0.1821
  454SOL     OW 1581   5.627   1.538   2.205  0.2305  0.1722  0.1675
  454SOL    HW2 1582   5.655   1.450   2.229 -1.0037  0.0936  1.4961
  454SOL    HW3 1583   5.538   1.544   2.240 -1.2603  0.5678 -3.3144
  454SOL    MW4 1584   5.619   1.527   2.213 -0.1291  0.2141 -0.1166
  455SOL     OW 1585   0.471   3.847   1.533  0.0634  0.2782 -0.0649
  455SOL    HW2 1586   0.404   3.779   1.544  0.3090 -0.0180 -0.4060
  455SOL    HW3 1587   0.545   3.817   1.585  0.0339  0.4723  0.0904
  455SOL    MW4 1588   0.472   3.834   1.541  0.0919  0.2648 -0.0894
  456SOL     OW 1589   1.464   2.347   5.600  0.3349  0.1111 -0.1177
  456SOL    HW2 1590   1.426   2.410   5.662 -0.1006  0.2422 -0.5140
  456SOL    HW3 1591   1.532   2.397   5.555 -1.8748  1.2135 -2.4569
  456SOL    MW4 1592   1.468   2.362   5.602 -0.0141  0.2738 -0.4786
  457SOL     OW 1593   5.061   2.762   2.167  0.4771  0.4608  0.0205
  457SOL    HW2 1594   5.052   2.734   2.076  0.7981 -0.3636  0.2356
  457SOL    HW3 1595   5.028   2.688   2.218 -0.8357  1.3747  0.5571
  457SOL    MW4 1596   5.055   2.748   2.161  0.3463  0.4726  0.1197
  458SOL     OW 1597   5.298   5.978   1.005  0.3357  0.3072 -0.3855
  458SOL    HW2 1598   5.297   6.072   0.984  0.9781  0.4571  0.2225
  458SOL    HW3 1599   5.248   5.971   1.086  0.5460  0.1627 -0.2681
  458SOL    MW4 1600   5.291   5.990   1.013  0.4482  0.3079 -0.2898
  459SOL     OW 1601   3.514   5.476   3.528  0.1997  0.1082 -0.2784
  459SOL    HW2 1602   3.532   5.448   3.438  0.2143  1.6074 -0.7717
  459SOL    HW3 1603   3.549   5.406   3.582 -0.2468 -1.0533 -1.4521
  459SOL    MW4 1604   3.521   5.463   3.523  0.1427  0.1527 -0.4984
  460SOL     OW 1605   3.312   3.616   5.458  0.0326  1.1657 -0.1468
  460SOL    HW2 1606   3.243   3.672   5.494 -2.6141 -1.5480 -0.6431
  460SOL    HW3 1607   3.347   3.570   5.534  0.1016  1.2865 -0.1045
  460SOL    MW4 1608   3.308   3.618   5.473 -0.3075  0.8236 -0.2067
  461SOL     OW 1609   5.614   0.332   4.869 -0.1643 -0.4539  0.3775
  461SOL    HW2 1610   5.524   0.306   4.888 -0.0710 -1.8802 -1.0180
  461SOL    HW3 1611   5.643   0.273   4.800  0.6335  2.2990 -1.8269
  461SOL    MW4 1612   5.606   0.321   4.863 -0.0467 -0.2788 -0.0975
  462SOL     OW 1613   2.490   0.318   3.932  0.1024 -0.5593  0.0788
  462SOL    HW2 1614   2.497   0.265   4.011 -0.4071 -1.4534 -0.4717
  462SOL    HW3 1615   2.397   0.335   3.922  0.2326  0.1820  0.0751
  462SOL    MW4 1616   2.479   0.313   3.941  0.0524 -0.5794  0.0057
  463SOL     OW 1617   1.185   3.180   3.693 -0.1351 -0.6688 -0.4178
  463SOL    HW2 1618   1.213   3.264   3.656 -0.6434 -0.5989 -0.6521
  463SOL    HW3 1619   1.181   3.121   3.617 -2.5334 -0.1749 -0.7636
  463SOL    MW4 1620   1.188   3.183   3.678 -0.5186 -0.5944 -0.4943
  464SOL     OW 1621   4.173   5.799   3.857 -0.3631 -0.2173  0.1365
  464SOL    HW2 1622   4.088   5.822   3.821  0.6867  0.6767 -1.9425
  464SOL    HW3 1623   4.232   5.868   3.827  1.4601 -1.7791 -0.1221
  464SOL    MW4 1624   4.170   5.811   3.848  0.0159 -0.3054 -0.1720
  465SOL     OW 1625   0.491   5.714   3.093 -0.2975  0.3715  0.4596
  465SOL    HW2 1626   0.484   5.769   3.015  1.1171 -1.0693 -0.7724
  465SOL    HW3 1627   0.413   5.659   3.092  0.2853 -0.4787 -0.6791
  465SOL    MW4 1628   0.480   5.714   3.082 -0.0339  0.0692  0.1468
  466SOL     OW 1629   0.299   4.860   0.383  0.2295  0.2506 -0.1449
  466SOL    HW2 1630   0.319   4.853   0.289  0.0796 -0.6334 -0.1214
  466SOL    HW3 1631   0.257   4.945   0.392 -1.4286 -0.4121 -1.2076
  466SOL    MW4 1632   0.296   4.870   0.372 -0.0090  0.0465 -0.2820
  467SOL     OW 1633   2.595   5.976   6.017  0.0178  0.0463 -0.1094
  467SOL    HW2 1634   2.620   6.016   6.100  0.6407  0.9465 -0.7151
  467SOL    HW3 1635   2.677   5.949   5.977 -0.1600  0.7945 -1.0099
  467SOL    MW4 1636   2.609   5.978   6.022  0.0765  0.2638 -0.3081
  468SOL     OW 1637   6.412   2.036   0.985 -0.1055 -0.2506  0.2108
  468SOL    HW2 1638   6.496   2.078   1.002 -0.1314  0.2305 -0.7906
  468SOL    HW3 1639   6.433   1.960   0.932 -0.2231 -0.6390  0.7093
  468SOL    MW4 1640   6.426   2.032   0.980 -0.1244 -0.2384  0.1445
  469SOL     OW 1641   0.222   1.650   1.614 -0.4923 -0.8608  0.1182
  469SOL    HW2 1642   0.265   1.569   1.639 -2.5294 -2.4027 -1.0809
  469SOL    HW3 1643   0.210   1.697   1.697  1.9078 -1.0731  0.6803
  469SOL    MW4 1644   0.226   1.646   1.629 -0.4444 -1.0922  0.0342
  470SOL     OW 1645   2.514   1.271   5.591 -0.0995 -0.1334  0.7776
  470SOL    HW2 1646   2.461   1.279   5.511 -0.5014 -0.4941  1.0077
  470SOL    HW3 1647   2.482   1.342   5.647  1.2624  1.1257  0.0158
  470SOL    MW4 1648   2.503   1.282   5.588  0.0272 -0.0149  0.7075
  471SOL     OW 1649   1.038   4.432   1.198 -0.3278  0.5505 -0.0373
  471SOL    HW2 1650   0.960   4.483   1.176 -0.2666  1.0194  0.7994
  471SOL    HW3 1651   1.005   4.360   1.251 -0.1054  1.2482  1.0813
  471SOL    MW4 1652   1.023   4.429   1.202 -0.2904  0.7044  0.2207
  472SOL     OW 1653   4.655   4.653   5.872  0.0053 -0.1740 -0.6233
  472SOL    HW2 1654   4.617   4.735   5.903 -1.7867 -1.9007  2.1901
  472SOL    HW3 1655   4.699   4.616   5.948 -0.0315 -2.2682 -1.5418
  472SOL    MW4 1656   4.656   4.659   5.886 -0.2360 -0.6781 -0.3733
  473SOL     OW 1657   1.172   2.842   2.850  0.1057 -0.1247  0.6392
  473SOL    HW2 1658   1.235   2.899   2.894 -0.4679 -0.2364  1.6202
  473SOL    HW3 1659   1.090   2.892   2.850 -0.1609 -0.5607  0.6383
  473SOL    MW4 1660   1.170   2.856   2.856 -0.0052 -0.1970  0.7686
  474SOL     OW 1661   2.139   1.700   5.774  0.0388  0.6637  0.2326
  474SOL    HW2 1662   2.149   1.634   5.706  0.0178 -0.7949  1.5894
  474SOL    HW3 1663   2.198   1.672   5.844  0.0645  2.1124  0.8445
  474SOL    MW4 1664   2.148   1.688   5.774  0.0394  0.6624  0.4923
  475SOL     OW 1665   2.972   5.182   2.888  0.0418 -0.2977  0.0840
  475SOL    HW2 1666   3.009   5.250   2.944  0.6515 -0.3487 -0.2468
  475SOL    HW3 1667   2.877   5.193   2.897  0.1038  1.1996 -0.6691
  475SOL    MW4 1668   2.964   5.193   2.896  0.1304 -0.1068 -0.0590
  476SOL     OW 1669   2.186   3.883   3.214 -0.4840 -0.1084  0.3900
  476SOL    HW2 1670   2.096   3.880   3.247 -0.5022 -1.8424  0.2447
  476SOL    HW3 1671   2.187   3.823   3.140  0.4963  0.8732 -0.4148
  476SOL    MW4 1672   2.174   3.875   3.209 -0.3571 -0.2077  0.2646
  477SOL     OW 1673   5.376   3.826   1.104  0.2426 -0.4950 -0.2538
  477SOL    HW2 1674   5.439   3.779   1.050  0.3574 -0.3346 -0.2610
  477SOL    HW3 1675   5.297   3.830   1.052  0.6391  0.4976 -0.8111
  477SOL    MW4 1676   5.374   3.820   1.090  0.3100 -0.3429 -0.3283
  478SOL     OW 1677   3.308   0.142   6.362  0.5073  0.1729 -0.2604
  478SOL    HW2 1678   3.374   0.210   6.350  0.9724 -0.2463 -0.1088
  478SOL    HW3 1679   3.350   0.062   6.331  0.9927 -0.5611  2.0633
  478SOL    MW4 1680   3.322   0.141   6.357  0.6327  0.0208  0.0662
  479SOL     OW 1681   3.361   3.701   6.060  0.0410 -0.3449 -0.6161
  479SOL    HW2 1682   3.421   3.726   6.131  0.5512  1.2641 -1.5496
  479SOL    HW3 1683   3.356   3.606   6.066  1.2863 -0.3797  0.6146
  479SOL    MW4 1684   3.369   3.692   6.071  0.2726 -0.1372 -0.5769
  480SOL     OW 1685   3.995   2.212   4.929 -0.5142 -0.0355  0.1540
  480SOL    HW2 1686   3.910   2.255   4.933 -0.7019 -0.3438 -0.5102
  480SOL    HW3 1687   3.982   2.136   4.873  0.6424  0.9609 -1.5591
  480SOL    MW4 1688   3.982   2.208   4.922 -0.3864  0.0553 -0.1597
  481SOL     OW 1689   0.457   1.321   2.158  0.2701  0.7115 -0.2245
  481SOL    HW2 1690   0.535   1.266   2.153 -0.3222 -0.6381  2.7918
  481SOL    HW3 1691   0.406   1.298   2.080  1.4987 -0.6758 -0.6631
  481SOL    MW4 1692   0.461   1.311   2.147  0.3541  0.3504  0.1156
  482SOL     OW 1693   0.771   4.441   1.170  0.3119 -0.1340 -0.0578
  482SOL    HW2 1694   0.756   4.347   1.173 -2.0160 -0.0194 -2.8498
  482SOL    HW3 1695   0.736   4.474   1.252  1.3832 -1.6798  1.0699
  482SOL    MW4 1696   0.764   4.433   1.181  0.1461 -0.3228 -0.2774
  483SOL     OW 1697   4.918   0.233   5.841 -0.0722  0.0154 -1.0392
  483SOL    HW2 1698   4.981   0.278   5.784  1.8683  2.3286  2.5520
  483SOL    HW3 1699   4.972   0.191   5.908 -2.2458  0.3740  1.0723
  483SOL    MW4 1700   4.933   0.233   5.842 -0.1030  0.3679 -0.2868
  484SOL     OW 1701   2.041   1.628   6.092 -0.4725  0.0664 -0.2388
  484SOL    HW2 1702   2.129   1.598   6.068 -0.7924  0.2077 -1.6703
  484SOL    HW3 1703   2.007   1.558   6.148  0.3553 -0.2319 -0.0852
  484SOL    MW4 1704   2.048   1.615   6.097 -0.4055  0.0457 -0.4074
  485SOL     OW 1705   1.781   4.347   5.138 -0.3885  0.4606  0.1683
  485SOL    HW2 1706   1.808   4.394   5.217  1.0356 -0.5831  0.3587
  485SOL    HW3 1707   1.862   4.340   5.087  0.0791 -3.5870  1.1376
  485SOL    MW4 1708   1.795   4.352   5.142 -0.1389 -0.2111  0.3213
  486SOL     OW 1709   2.558   5.123   5.084  0.3018  0.1867  0.6825
  486SOL    HW2 1710   2.593   5.039   5.055  0.5960  0.4667  0.2122
  486SOL    HW3 1711   2.518   5.104   5.169  1.2452 -0.2281  1.0503
  486SOL    MW4 1712   2.557   5.109   5.091  0.4651  0.1689  0.6690
  487SOL     OW 1713   0.529   4.280   5.540  0.0971  0.3791  0.2402
  487SOL    HW2 1714   0.562   4.320   5.459 -1.8165  1.6622  0.0436
  487SOL    HW3 1715   0.491   4.197   5.512  1.3792 -0.2147  0.1881
  487SOL    MW4 1716   0.529   4.274   5.526  0.0138  0.4700  0.2074
  488SOL     OW 1717   1.511   3.427   3.849 -0.0764  0.2558 -0.1111
  488SOL    HW2 1718   1.482   3.440   3.759 -1.5136  1.3348  0.4647
  488SOL    HW3 1719   1.476   3.502   3.897 -0.7682 -1.1142  1.6717
  488SOL    MW4 1720   1.503   3.438   3.844 -0.3573  0.2174  0.2001
  489SOL     OW 1721   5.313   3.036   4.416 -0.0600  0.1309 -0.0228
  489SOL    HW2 1722   5.401   3.008   4.390 -0.1335  0.7855 -1.0625
  489SOL    HW3 1723   5.327   3.118   4.463 -0.1818  0.9764 -1.3996
  489SOL    MW4 1724   5.326   3.043   4.418 -0.0858  0.3288 -0.3417
  490SOL     OW 1725   4.027   3.689   4.617  0.0466  0.5161 -0.0698
  490SOL    HW2 1726   4.056   3.664   4.529 -1.2236 -0.5155 -0.2333
  490SOL    HW3 1727   4.012   3.605   4.661  2.2416  0.9848  1.7246
  490SOL    MW4 1728   4.028   3.674   4.611  0.1686  0.4418  0.1454
  491SOL     OW 1729   4.624   4.628   5.082 -0.1148  0.2914 -0.1245
  491SOL    HW2 1730   4.579   4.624   5.166 -1.4281 -0.3692 -0.8214
  491SOL    HW3 1731   4.638   4.536   5.059  2.2202  0.4681  0.3567
  491SOL    MW4 1732   4.620   4.615   5.090  0.0200  0.2276 -0.1530
  492SOL     OW 1733   5.224   2.317   3.830  0.5359  0.1779 -0.9571
  492SOL    HW2 1734   5.161   2.345   3.763 -1.0203 -1.1821 -0.1347
  492SOL    HW3 1735   5.253   2.230   3.800 -1.4805 -1.2376  0.8681
  492SOL    MW4 1736   5.219   2.309   3.817  0.0645 -0.1883 -0.6078
  493SOL     OW 1737   2.630   4.629   4.886 -0.0237  0.1723  0.1977
  493SOL    HW2 1738   2.538   4.603   4.890 -0.1826  0.6712 -0.2023
  493SOL    HW3 1739   2.638   4.679   4.805  0.8273 -0.7451 -0.3124
  493SOL    MW4 1740   2.619   4.632   4.876  0.0676  0.1171  0.0776
  494SOL     OW 1741   0.514   1.568   1.292 -0.2505  0.2081 -0.8095
  494SOL    HW2 1742   0.419   1.580   1.291 -0.2447  0.2489 -0.9108
  494SOL    HW3 1743   0.527   1.478   1.265 -0.3808 -0.6543  1.7580
  494SOL    MW4 1744   0.503   1.558   1.289 -0.2669  0.0997 -0.4841
  495SOL     OW 1745   0.350   4.510   2.835 -0.5886 -0.5588  0.4327
  495SOL    HW2 1746   0.400   4.459   2.898  0.4844  1.1088  0.9999
  495SOL    HW3 1747   0.301   4.445   2.784  0.7125 -2.1225  1.0981
  495SOL    MW4 1748   0.350   4.495   2.836 -0.2753 -0.5451  0.5953
  496SOL     OW 1749   2.871   5.305   5.818 -0.2824 -0.9119  0.6853
  496SOL    HW2 1750   2.821   5.257   5.752 -0.9936 -0.4190  0.8455
  496SOL    HW3 1751   2.817   5.301   5.897 -0.7549  0.7857  0.4993
  496SOL    MW4 1752   2.857   5.298   5.820 -0.4386 -0.6229  0.6819
  497SOL     OW 1753   1.317   3.928   5.444  0.1254 -0.2070 -0.7849
  497SOL    HW2 1754   1.373   3.888   5.511  0.2875 -1.7033 -1.7533
  497SOL    HW3 1755   1.375   3.941   5.369  0.2312  2.5162 -0.3414
  497SOL    MW4 1756   1.332   3.924   5.443  0.1607 -0.0451 -0.8541
  498SOL     OW 1757   5.556   4.935   1.555 -0.0274 -0.0618  0.4487
  498SOL    HW2 1758   5.611   4.921   1.478 -0.2792 -0.1980  0.2906
  498SOL    HW3 1759   5.468   4.910   1.526  0.1138 -1.5631  1.2328
  498SOL    MW4 1760   5.551   4.930   1.541 -0.0420 -0.2779  0.5313
  499SOL     OW 1761   5.232   3.956   1.927 -0.5308  0.1420  1.1587
  499SOL    HW2 1762   5.185   3.879   1.956 -2.9500  0.9333 -0.3856
  499SOL    HW3 1763   5.164   4.017   1.898  1.3990  1.2244 -1.5864
  499SOL    MW4 1764   5.217   3.954   1.927 -0.5953  0.3892  0.5928
  500SOL     OW 1765   3.896   4.286   1.102 -0.0272 -0.2473  0.2332
  500SOL    HW2 1766   3.872   4.260   1.013  1.0841  0.7176 -0.3872
  500SOL    HW3 1767   3.825   4.344   1.130 -0.6971 -1.0461  0.2427
  500SOL    MW4 1768   3.883   4.290   1.094  0.0310 -0.2254  0.1526
  501SOL     OW 1769   1.781   6.069   1.931 -0.5221 -0.3803 -0.5727
  501SOL    HW2 1770   1.821   6.125   1.864  1.2661 -0.5114  0.3378
  501SOL    HW3 1771   1.825   5.985   1.921 -1.4952 -0.9265 -0.3536
  501SOL    MW4 1772   1.792   6.066   1.921 -0.4146 -0.4696 -0.4237
  502SOL     OW 1773   3.959   1.563   5.596  0.1907  0.3178  0.6643
  502SOL    HW2 1774   3.864   1.548   5.602  0.1314  1.0303  1.8031
  502SOL    HW3 1775   3.984   1.592   5.684  1.8230 -1.7374  0.9438
  502SOL    MW4 1776   3.949   1.565   5.608  0.3982  0.1407  0.8514
  503SOL     OW 1777   4.439   3.314   2.567  0.1394 -0.2390  0.3562
  503SOL    HW2 1778   4.346   3.315   2.591  0.6110  1.0379  2.4275
  503SOL    HW3 1779   4.483   3.352   2.643  2.1392  1.5317 -1.5548
  503SOL    MW4 1780   4.432   3.319   2.581  0.4654  0.1631  0.3773
  504SOL     OW 1781   4.585   4.027   6.251  0.1030 -0.0283  0.4489
  504SOL    HW2 1782   4.671   4.024   6.209  0.1352 -0.0984  0.5180
  504SOL    HW3 1783   4.586   3.951   6.310 -0.4356 -0.7176 -0.3941
  504SOL    MW4 1784   4.597   4.016   6.253  0.0362 -0.1285  0.3468
  505SOL     OW 1785   3.176   2.259   5.312 -0.2841  0.1845 -0.5148
  505SOL    HW2 1786   3.084   2.280   5.297 -0.0924  1.9624  0.5137
  505SOL    HW3 1787   3.223   2.306   5.242 -0.0865  0.1840 -0.3839
  505SOL    MW4 1788   3.170   2.268   5.300 -0.2328  0.4190 -0.3619
  506SOL     OW 1789   5.144   3.524   4.723  0.0189  0.5652  0.1227
  506SOL    HW2 1790   5.125   3.489   4.810 -1.5191  1.0670  0.0312
  506SOL    HW3 1791   5.153   3.618   4.738  0.8159  0.5262 -0.1113
  506SOL    MW4 1792   5.143   3.532   4.737 -0.0789  0.6263  0.0797
  507SOL     OW 1793   5.973   0.022   4.202 -0.4617  0.3592 -0.1981
  507SOL    HW2 1794   5.928  -0.063   4.200 -0.9934  0.5934  1.1070
  507SOL    HW3 1795   5.906   0.085   4.173 -0.3527  0.4609 -0.2309
  507SOL    MW4 1796   5.958   0.019   4.198 -0.5175  0.4035 -0.0302
  508SOL     OW 1797   5.991   2.036   5.894 -0.2670  0.3457 -0.6535
  508SOL    HW2 1798   6.030   1.965   5.945  0.1598  1.8072  1.1663
  508SOL    HW3 1799   6.050   2.047   5.820  1.0831  0.4208  0.3836
  508SOL    MW4 1800   6.004   2.028   5.891 -0.0326  0.5485 -0.2766
  509SOL     OW 1801   3.231   6.337   3.505  0.0938 -0.5611 -0.0386
  509SOL    HW2 1802   3.140   6.330   3.533  0.0665  0.7793  0.2713
  509SOL    HW3 1803   3.233   6.293   3.420 -0.4004 -2.3116  0.8117
  509SOL    MW4 1804   3.219   6.330   3.497  0.0250 -0.6152  0.1145
  510SOL     OW 1805   0.276   3.532   5.996 -1.1417 -0.5322 -0.1749
  510SOL    HW2 1806   0.214   3.605   5.996  0.0829  0.5699 -0.9837
  510SOL    HW3 1807   0.238   3.467   6.054 -2.7651  0.3407 -0.2169
  510SOL    MW4 1808   0.263   3.533   6.003 -1.1943 -0.2716 -0.2871
  511SOL     OW 1809   2.000   2.987   2.458 -0.7630 -0.2633  0.0695
  511SOL    HW2 1810   1.960   3.026   2.537 -0.3130 -0.2516  0.2944
  511SOL    HW3 1811   2.031   3.062   2.408  0.8895 -0.3283  0.9164
  511SOL    MW4 1812   1.999   3.002   2.462 -0.4856 -0.2703  0.2109
  512SOL     OW 1813   2.152   3.739   6.356  0.7753  0.2340  0.2175
  512SOL    HW2 1814   2.092   3.752   6.283  0.0427  1.4037  0.9763
  512SOL    HW3 1815   2.105   3.681   6.416  0.4924  0.8959  0.6637
  512SOL    MW4 1816   2.138   3.733   6.355  0.6414  0.4756  0.3765
  513SOL     OW 1817   6.006   3.784   2.470  0.0365  0.5489 -0.2348
  513SOL    HW2 1818   6.052   3.839   2.534  0.5237 -1.0662  0.8649
  513SOL    HW3 1819   6.047   3.806   2.387  0.6814  1.3748  0.2824
  513SOL    MW4 1820   6.018   3.794   2.468  0.1859  0.4448 -0.0215
  514SOL     OW 1821   3.513   5.565   1.563  0.7734  0.6163 -0.4896
  514SOL    HW2 1822   3.496   5.602   1.476 -0.0464  2.5740  0.4556
  514SOL    HW3 1823   3.443   5.502   1.576 -0.8789  2.4306 -0.1271
  514SOL    MW4 1824   3.502   5.562   1.553  0.4472  1.1139 -0.3171
  515SOL     OW 1825   3.771   4.929   6.215 -0.2054 -0.0536 -0.0703
  515SOL    HW2 1826   3.770   5.013   6.259 -0.3893 -0.4785  0.7578
  515SOL    HW3 1827   3.710   4.939   6.142 -0.6122  0.3735  0.3261
  515SOL    MW4 1828   3.763   4.941   6.211 -0.2834 -0.0533  0.0913
  516SOL     OW 1829   5.875   2.538   6.163  0.1659  0.0344 -0.7451
  516SOL    HW2 1830   5.951   2.575   6.119  1.4365 -1.3096  0.2039
  516SOL    HW3 1831   5.906   2.455   6.200 -1.5285 -0.1618  0.3995
  516SOL    MW4 1832   5.889   2.532   6.162  0.1099 -0.1688 -0.4688
  517SOL     OW 1833   3.954   1.843   5.161  0.1665 -0.4501  0.2059
  517SOL    HW2 1834   4.032   1.817   5.210 -0.0144 -1.6318 -0.1120
  517SOL    HW3 1835   3.920   1.919   5.209  1.3099 -0.1372  0.5445
  517SOL    MW4 1836   3.960   1.850   5.174  0.2935 -0.5648  0.2086
  518SOL     OW 1837   0.065   6.248   5.050  0.6120  0.2892 -0.1390
  518SOL    HW2 1838   0.074   6.201   4.967 -2.1718 -1.1155  0.2547
  518SOL    HW3 1839   0.042   6.337   5.025 -2.3627 -0.6217 -0.9951
  518SOL    MW4 1840   0.063   6.253   5.036 -0.1477 -0.0163 -0.2000
  519SOL     OW 1841   4.125   3.610   2.259 -0.2416  0.1787  0.1320
  519SOL    HW2 1842   4.046   3.623   2.207 -0.3654  0.8470  0.4830
  519SOL    HW3 1843   4.093   3.599   2.349 -0.0705 -1.5001  0.0270
  519SOL    MW4 1844   4.110   3.610   2.264 -0.2353  0.0454  0.1645
  520SOL     OW 1845   4.940   4.978   0.734 -0.1956 -0.4951  0.0058
  520SOL    HW2 1846   4.972   5.034   0.663  1.5268 -0.4621  0.7591
  520SOL    HW3 1847   5.001   4.994   0.806 -0.3530 -2.4842  0.6338
  520SOL    MW4 1848   4.952   4.988   0.734  0.0109 -0.7532  0.1880
  521SOL     OW 1849   2.685   0.069   6.380  0.3740  0.1374  0.0140
  521SOL    HW2 1850   2.727   0.070   6.294  1.8125 -0.8041  0.6729
  521SOL    HW3 1851   2.635  -0.012   6.382  0.6723 -0.0465  0.1977
  521SOL    MW4 1852   2.684   0.059   6.369  0.6032 -0.0110  0.1252
  522SOL     OW 1853   4.413   2.072   4.755 -0.7403 -0.1291 -0.9249
  522SOL    HW2 1854   4.348   2.085   4.685 -0.2899 -0.2956 -1.3775
  522SOL    HW3 1855   4.364   2.088   4.836 -1.2339  0.1986 -1.2818
  522SOL    MW4 1856   4.398   2.076   4.756 -0.7460 -0.1078 -1.0317
  523SOL     OW 1857   4.312   1.781   2.638  0.0755 -0.3548  0.1777
  523SOL    HW2 1858   4.227   1.784   2.681 -2.5508 -0.2978 -4.4846
  523SOL    HW3 1859   4.334   1.873   2.620  1.4388 -0.3352  1.6532
  523SOL    MW4 1860   4.304   1.794   2.642 -0.0911 -0.3447 -0.2427
  524SOL     OW 1861   0.973   5.940   0.765 -0.7375  0.2307 -0.0612
  524SOL    HW2 1862   0.988   5.978   0.679 -0.8825 -0.9087 -0.6084
  524SOL    HW3 1863   0.879   5.921   0.767 -0.1652 -3.6298 -1.3958
  524SOL    MW4 1864   0.963   5.942   0.754 -0.6811 -0.4290 -0.3095
  525SOL     OW 1865   6.424   2.031   4.883 -0.2722  0.0520  0.4978
  525SOL    HW2 1866   6.381   2.110   4.916  0.1323 -0.2151  1.7570
  525SOL    HW3 1867   6.352   1.969   4.870 -0.5102  0.3640  0.3035
  525SOL    MW4 1868   6.409   2.033   4.886 -0.2503  0.0579  0.6383
  526SOL     OW 1869   3.627   6.409   4.426  0.0552  0.1603 -0.2694
  526SOL    HW2 1870   3.720   6.393   4.444  0.6158  1.3290 -1.8504
  526SOL    HW3 1871   3.581   6.347   4.482  1.8332 -1.5814 -0.5884
  526SOL    MW4 1872   3.633   6.399   4.436  0.3637  0.0847 -0.5201
  527SOL     OW 1873   3.114   4.475   1.858  0.9759  0.6110  0.2376
  527SOL    HW2 1874   3.204   4.459   1.830  0.5619 -0.6784 -0.4505
  527SOL    HW3 1875   3.092   4.399   1.913 -0.6658 -0.7282 -2.0974
  527SOL    MW4 1876   3.123   4.463   1.862  0.7047  0.2642 -0.1612
  528SOL     OW 1877   0.220   4.291   2.094  0.0935 -0.4423 -0.4447
  528SOL    HW2 1878   0.268   4.325   2.018  1.6727  1.2755  1.2356
  528SOL    HW3 1879   0.142   4.347   2.099  0.6132  0.2507 -0.0794
  528SOL    MW4 1880   0.216   4.303   2.084  0.3704 -0.1242 -0.1748
  529SOL     OW 1881   1.434   4.365   5.692  0.0447  0.2079  0.1630
  529SOL    HW2 1882   1.444   4.421   5.614 -1.6130  0.1365 -0.1212
  529SOL    HW3 1883   1.506   4.393   5.749 -0.3176  2.1820 -0.2482
  529SOL    MW4 1884   1.445   4.376   5.689 -0.2218  0.4590  0.0713
  530SOL     OW 1885   2.228   1.717   0.762  0.7305  0.0982 -0.4211
  530SOL    HW2 1886   2.245   1.642   0.705 -0.8679 -0.8804  0.3037
  530SOL    HW3 1887   2.133   1.731   0.754  0.8931  1.5938  0.0230
  530SOL    MW4 1888   2.218   1.709   0.753  0.5410  0.1664 -0.2669
  531SOL     OW 1889   2.011   1.933   6.125  0.5263 -0.0143  0.5215
  531SOL    HW2 1890   1.916   1.938   6.120  0.4476 -1.4693  0.1116
  531SOL    HW3 1891   2.030   1.839   6.132  2.0298 -0.1760 -3.1280
  531SOL    MW4 1892   2.001   1.921   6.125  0.7143 -0.2276 -0.0141
  532SOL     OW 1893   5.166   1.988   0.100  0.3174 -0.1497 -0.2202
  532SOL    HW2 1894   5.079   1.948   0.103  0.9842 -1.6979 -0.6315
  532SOL    HW3 1895   5.154   2.068   0.048 -1.1335  0.4929  1.0032
  532SOL    MW4 1896   5.153   1.994   0.094  0.2139 -0.2692 -0.1130
  533SOL     OW 1897   2.583   1.905   4.853 -0.4195  0.5412  0.7077
  533SOL    HW2 1898   2.641   1.921   4.779 -1.9007  0.1164 -0.5848
  533SOL    HW3 1899   2.562   1.812   4.848 -0.7758  0.5725  1.4892
  533SOL    MW4 1900   2.588   1.895   4.843 -0.6620  0.4893  0.6403
  534SOL     OW 1901   4.228   2.248   5.151  0.4124 -0.0540 -0.1482
  534SOL    HW2 1902   4.150   2.219   5.105  1.9845 -3.0286 -1.1805
  534SOL    HW3 1903   4.203   2.249   5.244 -0.8651 -0.8426 -0.4760
  534SOL    MW4 1904   4.215   2.244   5.157  0.4513 -0.5505 -0.3277
  535SOL     OW 1905   4.376   1.628   4.564  0.3590  0.5411  0.7305
  535SOL    HW2 1906   4.284   1.611   4.540  0.5629 -1.7006  1.3508
  535SOL    HW3 1907   4.373   1.647   4.657  0.5177  0.6494  0.7127
  535SOL    MW4 1908   4.363   1.628   4.573  0.4069  0.2596  0.8100
  536SOL     OW 1909   3.954   3.748   5.463  0.0534 -0.6314 -0.1749
  536SOL    HW2 1910   4.029   3.694   5.440  1.5579  0.3729  2.0057
  536SOL    HW3 1911   3.963   3.827   5.410  0.4641 -0.5851 -0.0396
  536SOL    MW4 1912   3.965   3.751   5.453  0.3061 -0.4928  0.1307
  537SOL     OW 1913   2.180   5.483   5.189  0.2139  0.1475 -0.4480
  537SOL    HW2 1914   2.273   5.470   5.206 -0.0345  1.1147  1.9735
  537SOL    HW3 1915   2.136   5.437   5.259 -1.0088  2.1846  0.2175
  537SOL    MW4 1916   2.187   5.476   5.200  0.0198  0.5439 -0.0407
  538SOL     OW 1917   2.163   3.276   0.639 -0.4009  0.0793  0.5684
  538SOL    HW2 1918   2.160   3.370   0.656 -0.8824  0.1284  0.2542
  538SOL    HW3 1919   2.134   3.236   0.721 -0.8553  0.2373  0.4911
  538SOL    MW4 1920   2.159   3.283   0.652 -0.5244  0.1067  0.5168
  539SOL     OW 1921   1.525   1.405   3.355  0.3386 -0.2075  0.0492
  539SOL    HW2 1922   1.520   1.339   3.423 -1.0004 -1.4302 -1.1520
  539SOL    HW3 1923   1.611   1.445   3.366  0.9915 -1.8056  1.1345
  539SOL    MW4 1924   1.536   1.402   3.365  0.2481 -0.5797  0.0339
  540SOL     OW 1925   2.862   3.714   2.924  0.6041  0.3594 -0.0267
  540SOL    HW2 1926   2.768   3.698   2.931  0.3832  0.5204 -2.0212
  540SOL    HW3 1927   2.902   3.628   2.941  0.0995  0.2634  0.7001
  540SOL    MW4 1928   2.855   3.700   2.927  0.5083  0.3680 -0.1940
  541SOL     OW 1929   2.782   5.201   1.530  0.2056 -0.0453  0.7990
  541SOL    HW2 1930   2.690   5.178   1.516  0.3579  1.1505 -4.1011
  541SOL    HW3 1931   2.829   5.117   1.525 -0.4399 -0.3649 -0.2647
  541SOL    MW4 1932   2.776   5.187   1.527  0.1405  0.0703  0.0121
  542SOL     OW 1933   4.303   4.209   1.524 -0.2191 -0.4173  0.2180
  542SOL    HW2 1934   4.350   4.228   1.606 -1.1062 -2.1116  1.1774
  542SOL    HW3 1935   4.371   4.208   1.457  0.5679  0.7919  0.9569
  542SOL    MW4 1936   4.318   4.211   1.526 -0.2323 -0.4813  0.4421
  543SOL     OW 1937   6.185   0.163   3.258  0.5920  0.4278 -0.0771
  543SOL    HW2 1938   6.264   0.119   3.225 -0.7770 -0.7157 -2.0804
  543SOL    HW3 1939   6.194   0.161   3.353  3.8112  1.9966 -0.2270
  543SOL    MW4 1940   6.196   0.157   3.266  0.8361  0.4839 -0.3612
  544SOL     OW 1941   3.154   0.340   1.634 -0.0773  0.3107  0.0251
  544SOL    HW2 1942   3.230   0.399   1.638  1.0840 -1.1826  0.5994
  544SOL    HW3 1943   3.110   0.364   1.553  2.1551 -0.1505 -1.3824
  544SOL    MW4 1944   3.158   0.351   1.624  0.3705  0.0529 -0.0849
  545SOL     OW 1945   3.911   1.826   4.223 -0.1340 -0.3473 -0.8402
  545SOL    HW2 1946   3.998   1.790   4.206  0.8528  1.3506  0.2108
  545SOL    HW3 1947   3.881   1.860   4.139  0.9675  0.4940 -0.9187
  545SOL    MW4 1948   3.919   1.826   4.210  0.1415 -0.0123 -0.7119
  546SOL     OW 1949   1.706   1.052   5.125 -0.4220  0.4963 -0.3741
  546SOL    HW2 1950   1.649   1.008   5.187 -0.1285  0.9550  0.2305
  546SOL    HW3 1951   1.692   1.006   5.042 -1.4756  0.4499 -0.1805
  546SOL    MW4 1952   1.697   1.040   5.122 -0.5223  0.5507 -0.2688
  547SOL     OW 1953   3.888   2.322   1.765  0.2265 -0.3154 -0.7836
  547SOL    HW2 1954   3.844   2.258   1.821 -0.0781  0.3743 -0.2269
  547SOL    HW3 1955   3.947   2.369   1.823 -1.2820  1.5347 -0.6568
  547SOL    MW4 1956   3.890   2.320   1.780 -0.0127  0.0197 -0.6934
  548SOL     OW 1957   0.359   1.879   4.237  0.3835 -0.1692 -0.3309
  548SOL    HW2 1958   0.436   1.836   4.275  0.2438 -1.2494 -1.2084
  548SOL    HW3 1959   0.337   1.948   4.299  0.2423 -1.7538  1.4640
  548SOL    MW4 1960   0.366   1.882   4.250  0.3464 -0.5208 -0.2098
  549SOL     OW 1961   4.290   0.041   5.629  0.1419  0.0678  0.4084
  549SOL    HW2 1962   4.338   0.022   5.709 -1.2280 -0.2339  1.1786
  549SOL    HW3 1963   4.208  -0.008   5.637 -0.0465  0.0661 -1.1526
  549SOL    MW4 1964   4.285   0.032   5.640 -0.0637  0.0278  0.3040
  550SOL     OW 1965   1.379   0.244   0.256 -0.0362 -0.5018 -0.5261
  550SOL    HW2 1966   1.420   0.202   0.332  3.3759 -1.9162 -2.8958
  550SOL    HW3 1967   1.329   0.174   0.214  1.3983 -0.8746 -1.6818
  550SOL    MW4 1968   1.378   0.229   0.260  0.6033 -0.7376 -0.9913
  551SOL     OW 1969   1.597   5.320   6.280  0.2211 -0.0312 -0.3430
  551SOL    HW2 1970   1.667   5.262   6.309 -0.0190  1.0716  2.8485
  551SOL    HW3 1971   1.517   5.269   6.292  0.2234 -0.0163 -0.2599
  551SOL    MW4 1972   1.596   5.306   6.286  0.1897  0.1163  0.0890
  552SOL     OW 1973   4.973   3.685   1.666 -0.5310 -0.7272 -0.4251
  552SOL    HW2 1974   4.896   3.739   1.647 -1.1159 -1.2344  0.3996
  552SOL    HW3 1975   5.042   3.720   1.609 -1.0366  0.5283 -0.3104
  552SOL    MW4 1976   4.972   3.697   1.656 -0.6749 -0.6284 -0.3012
  553SOL     OW 1977   4.407   5.667   0.037  0.1830 -0.1618 -0.4871
  553SOL    HW2 1978   4.382   5.576   0.024 -1.1002  0.0196  0.5520
  553SOL    HW3 1979   4.325   5.712   0.058  0.7791  1.2538 -1.0705
  553SOL    MW4 1980   4.393   5.661   0.038  0.0923  0.0489 -0.4270
  554SOL     OW 1981   3.884   0.476   3.445  0.3616  0.0808  0.0437
  554SOL    HW2 1982   3.931   0.536   3.502  2.0256 -0.5104 -0.6344
  554SOL    HW3 1983   3.843   0.413   3.504  1.4823 -0.1188  0.6298
  554SOL    MW4 1984   3.884   0.475   3.460  0.7290 -0.0235  0.0315
  555SOL     OW 1985   1.812   2.470   4.394 -0.4926 -0.9280 -0.4655
  555SOL    HW2 1986   1.778   2.397   4.446  1.1071 -2.1361 -1.0403
  555SOL    HW3 1987   1.892   2.497   4.440 -1.6020  1.2209  0.3387
  555SOL    MW4 1988   1.818   2.464   4.407 -0.4279 -0.8039 -0.4352
  556SOL     OW 1989   3.048   5.730   4.735 -0.4715 -0.5488  0.1560
  556SOL    HW2 1990   2.997   5.649   4.730 -0.3340 -0.6283  0.0233
  556SOL    HW3 1991   3.040   5.769   4.648 -2.1344  0.5686  0.7664
  556SOL    MW4 1992   3.041   5.724   4.723 -0.6728 -0.4119  0.2190
  557SOL     OW 1993   5.820   0.482   1.871  0.0896  0.0126 -0.3282
  557SOL    HW2 1994   5.738   0.442   1.898 -0.6536  0.2629 -2.0443
  557SOL    HW3 1995   5.807   0.576   1.885  0.5646 -0.0460  0.5543
  557SOL    MW4 1996   5.808   0.490   1.876  0.0542  0.0379 -0.4382
  558SOL     OW 1997   4.566   6.353   5.003 -0.3619 -0.1263 -0.2171
  558SOL    HW2 1998   4.587   6.445   4.989 -0.6494 -0.1514 -0.8821
  558SOL    HW3 1999   4.507   6.352   5.079  0.2676  0.1537  0.2757
  558SOL    MW4 2000   4.561   6.365   5.011 -0.3168 -0.0927 -0.2398
  559SOL     OW 2001   5.887   2.900   5.251 -0.1308  0.1970 -0.0277
  559SOL    HW2 2002   5.804   2.884   5.206 -0.4324 -0.1877  0.6471
  559SOL    HW3 2003   5.865   2.961   5.322  0.3689  0.9251 -0.4829
  559SOL    MW4 2004   5.873   2.906   5.255 -0.1046  0.2423  0.0013
  560SOL     OW 2005   4.334   3.056   6.079 -0.1239  0.1858  0.3423
  560SOL    HW2 2006   4.354   2.966   6.052  2.0218  0.7412 -0.1574
  560SOL    HW3 2007   4.367   3.062   6.169 -0.0040  0.5499  0.2745
  560SOL    MW4 2008   4.341   3.045   6.087  0.1750  0.3071  0.2674
  561SOL     OW 2009   4.746   3.813   1.595 -0.1670 -0.3215  0.0560
  561SOL    HW2 2010   4.700   3.759   1.660  2.3482 -1.6825  0.7996
  561SOL    HW3 2011   4.741   3.902   1.631 -2.4851 -0.3054 -0.1124
  561SOL    MW4 2012   4.739   3.818   1.609 -0.1410 -0.4990  0.1319
  562SOL     OW 2013   1.892   5.385   5.179 -0.3632 -0.3891  0.1650
  562SOL    HW2 2014   1.890   5.477   5.205 -2.4325 -0.4318  0.3076
  562SOL    HW3 2015   1.944   5.385   5.099 -0.9331  1.0302 -0.2484
  562SOL    MW4 2016   1.899   5.397   5.172 -0.7114 -0.2075  0.1292
  563SOL     OW 2017   0.590   6.266   6.109  0.1438 -0.2078  0.4840
  563SOL    HW2 2018   0.518   6.319   6.143 -0.2627 -0.7133  0.4258
  563SOL    HW3 2019   0.557   6.230   6.027  0.2737 -0.8408  0.7016
  563SOL    MW4 2020   0.576   6.268   6.103  0.1073 -0.3580  0.5050
  564SOL     OW 2021   1.451   1.742   2.231 -0.5595 -0.2015 -0.2201
  564SOL    HW2 2022   1.362   1.712   2.244  0.0641 -2.5033 -0.8485
  564SOL    HW3 2023   1.468   1.800   2.305 -2.3223 -0.2490  0.2623
  564SOL    MW4 2024   1.442   1.746   2.242 -0.7098 -0.5115 -0.2394
  565SOL     OW 2025   1.835   2.467   4.116  0.6895 -0.4543 -0.3301
  565SOL    HW2 2026   1.786   2.415   4.053  0.1668 -0.9829  0.5030
  565SOL    HW3 2027   1.796   2.447   4.201  0.1872  1.6071 -0.0184
  565SOL    MW4 2028   1.824   2.458   4.119  0.5543 -0.2521 -0.1790
  566SOL     OW 2029   5.907   2.684   3.660  0.4091 -0.0233  0.2209
  566SOL    HW2 2030   5.909   2.663   3.567  0.2255 -2.3008  0.6689
  566SOL    HW3 2031   5.989   2.647   3.695  1.4459  2.5147  0.7004
  566SOL    MW4 2032   5.918   2.677   3.653  0.5217  0.0110  0.3433
  567SOL     OW 2033   6.069   2.734   5.495 -0.1452 -0.0923 -0.5492
  567SOL    HW2 2034   6.089   2.651   5.451 -0.4091 -0.7125  0.4518
  567SOL    HW3 2035   5.981   2.721   5.532 -0.4305  0.8535 -0.8658
  567SOL    MW4 2036   6.060   2.721   5.494 -0.2177 -0.0493 -0.4589
  568SOL     OW 2037   3.056   5.052   4.642  0.3040 -0.4277  0.0758
  568SOL    HW2 2038   2.987   5.118   4.651 -0.1473 -0.4116 -2.5780
  568SOL    HW3 2039   3.122   5.077   4.706 -0.7454  1.4317  0.5085
  568SOL    MW4 2040   3.055   5.064   4.652  0.1060 -0.1803 -0.2173
  569SOL     OW 2041   5.117   4.963   2.210 -0.1215  0.0090 -0.2800
  569SOL    HW2 2042   5.141   4.904   2.138  0.9084 -2.6748  2.0589
  569SOL    HW3 2043   5.024   4.944   2.226  0.3673 -1.6057  0.8941
  569SOL    MW4 2044   5.108   4.953   2.202  0.0789 -0.5581  0.1835
  570SOL     OW 2045   5.594   4.776   2.457  0.0357  0.4966  0.1125
  570SOL    HW2 2046   5.585   4.725   2.377 -2.6944  0.5462  0.3242
  570SOL    HW3 2047   5.601   4.866   2.427 -0.3390  0.4567 -0.1016
  570SOL    MW4 2048   5.594   4.781   2.443 -0.3740  0.4979  0.1122
  571SOL     OW 2049   3.103   3.122   5.277 -0.2169 -0.2845 -0.1403
  571SOL    HW2 2050   3.168   3.132   5.346 -0.3996 -0.4923  0.0666
  571SOL    HW3 2051   3.039   3.191   5.295  0.0529  0.0537 -0.4674
  571SOL    MW4 2052   3.103   3.132   5.289 -0.2054 -0.2673 -0.1562
  572SOL     OW 2053   3.684   0.886   5.380 -0.3290  0.5242  0.4364
  572SOL    HW2 2054   3.707   0.793   5.381  0.8252  0.7058 -2.1895
  572SOL    HW3 2055   3.593   0.889   5.410 -0.9628 -1.6596 -1.0438
  572SOL    MW4 2056   3.675   0.874   5.384 -0.2603  0.2600 -0.1053
  573SOL     OW 2057   3.603   2.415   5.515 -0.8975  0.1521 -0.0099
  573SOL    HW2 2058   3.516   2.389   5.545 -1.3708  1.2219 -0.3896
  573SOL    HW3 2059   3.652   2.434   5.595 -1.5894  1.2839  0.1567
  573SOL    MW4 2060   3.598   2.414   5.529 -1.0512  0.4426 -0.0380
  574SOL     OW 2061   1.280   3.184   1.591 -0.5609  0.1260 -0.2203
  574SOL    HW2 2062   1.260   3.256   1.531 -3.1038 -0.5927 -0.3619
  574SOL    HW3 2063   1.251   3.216   1.677 -1.4723 -0.6144 -0.2431
  574SOL    MW4 2064   1.273   3.198   1.595 -1.0167 -0.0665 -0.2420
  575SOL     OW 2065   3.748   5.909   1.395 -0.1301  0.4297  0.2141
  575SOL    HW2 2066   3.819   5.958   1.353  0.0886  0.4700  0.6223
  575SOL    HW3 2067   3.752   5.935   1.487  0.2808 -0.6827  0.5318
  575SOL    MW4 2068   3.758   5.919   1.402 -0.0470  0.2882  0.3099
  576SOL     OW 2069   5.759   3.719   0.276 -0.6199 -0.5537 -0.2791
  576SOL    HW2 2070   5.710   3.699   0.356 -0.1891 -1.4431 -0.2377
  576SOL    HW3 2071   5.757   3.815   0.271  1.1103 -0.3257  1.9178
  576SOL    MW4 2072   5.752   3.729   0.286 -0.3348 -0.6410  0.0162
  577SOL     OW 2073   0.429   6.390   5.796 -0.0044 -0.0835  0.1870
  577SOL    HW2 2074   0.495   6.458   5.808 -0.1022  0.3099 -1.2263
  577SOL    HW3 2075   0.430   6.373   5.702 -3.8587  2.0098 -0.4733
  577SOL    MW4 2076   0.438   6.397   5.785 -0.5258  0.2446 -0.0866
  578SOL     OW 2077   5.406   6.090   5.660 -0.0553 -0.4111 -0.4702
  578SOL    HW2 2078   5.354   6.140   5.724 -1.0702 -2.8743  0.7633
  578SOL    HW3 2079   5.425   6.153   5.591 -0.7651  1.8140  1.2290
  578SOL    MW4 2080   5.401   6.105   5.659 -0.2829 -0.4425 -0.0833
  579SOL     OW 2081   2.264   3.604   3.339  0.2865  0.1013 -0.4682
  579SOL    HW2 2082   2.259   3.693   3.305 -0.8157 -0.0533 -0.7644
  579SOL    HW3 2083   2.172   3.576   3.344  0.2635  0.3810  3.4005
  579SOL    MW4 2084   2.251   3.612   3.335  0.1381  0.1178  0.0031
  580SOL     OW 2085   4.999   2.051   2.717 -0.4645  0.7995 -0.1603
  580SOL    HW2 2086   4.993   2.060   2.622 -2.3567  0.3075 -0.1312
  580SOL    HW3 2087   5.028   1.961   2.731  0.0973  0.9585 -0.2466
  580SOL    MW4 2088   5.002   2.040   2.707 -0.6400  0.7556 -0.1678
  581SOL     OW 2089   1.784   3.982   5.318 -0.6530 -0.5023  0.0183
  581SOL    HW2 2090   1.831   3.929   5.382  0.7286  1.5399  0.8368
  581SOL    HW3 2091   1.846   3.991   5.245  0.5912  2.5091  1.2563
  581SOL    MW4 2092   1.799   3.977   5.317 -0.3066  0.1644  0.2896
  582SOL     OW 2093   4.985   2.194   1.277 -0.4249 -0.1537  0.1695
  582SOL    HW2 2094   4.895   2.223   1.259  0.1436  0.8804 -1.1751
  582SOL    HW3 2095   5.018   2.256   1.343 -0.5773 -0.3238  0.4075
  582SOL    MW4 2096   4.977   2.206   1.284 -0.3700 -0.0397  0.0235
  583SOL     OW 2097   2.068   2.491   2.646 -0.1059  0.0673 -0.4738
  583SOL    HW2 2098   2.142   2.479   2.706 -1.4458  0.5860  1.3670
  583SOL    HW3 2099   1.992   2.499   2.703 -1.2498  2.3627 -2.1505
  583SOL    MW4 2100   2.068   2.491   2.661 -0.4336  0.4386 -0.4522
  584SOL     OW 2101   2.190   3.460   0.879  0.1419 -0.2380  0.0307
  584SOL    HW2 2102   2.151   3.509   0.951 -0.1759 -1.2090  0.5479
  584SOL    HW3 2103   2.279   3.494   0.872  0.5147 -0.7817  1.5512
  584SOL    MW4 2104   2.197   3.471   0.888  0.1492 -0.4378  0.2996
  585SOL     OW 2105   1.924   3.935   3.331  0.1552 -0.0914 -0.1613
  585SOL    HW2 2106   1.874   4.013   3.307 -1.5651 -0.8456  0.8332
  585SOL    HW3 2107   1.953   3.953   3.420 -2.2303 -1.4557  0.9857
  585SOL    MW4 2108   1.921   3.948   3.339 -0.3865 -0.3709  0.1212
  586SOL     OW 2109   5.278   3.027   3.488 -0.3375 -0.8232  0.1779
  586SOL    HW2 2110   5.194   3.018   3.444 -0.7366 -0.8314  0.9280
  586SOL    HW3 2111   5.325   2.946   3.468 -0.1094 -0.4320 -1.0241
  586SOL    MW4 2112   5.273   3.015   3.479 -0.3601 -0.7727  0.1183
  587SOL     OW 2113   0.058   3.396   4.984 -0.9373  0.2200 -0.7425
  587SOL    HW2 2114   0.032   3.307   5.004 -0.6103  0.7759  2.8174
  587SOL    HW3 2115   0.154   3.396   4.991 -1.0401  1.2463  1.9231
  587SOL    MW4 2116   0.067   3.385   4.988 -0.9077  0.4287  0.0789
  588SOL     OW 2117   1.282   2.669   3.451 -0.6875 -0.1559 -0.3222
  588SOL    HW2 2118   1.307   2.577   3.450 -0.2410 -0.0567  0.7567
  588SOL    HW3 2119   1.283   2.695   3.359 -0.4415 -1.1237 -0.6021
  588SOL    MW4 2120   1.285   2.660   3.438 -0.5962 -0.2705 -0.2168
  589SOL     OW 2121   1.251   6.249   3.174  0.1012 -0.6046  0.0584
  589SOL    HW2 2122   1.291   6.238   3.088  1.1841 -1.2170  0.6069
  589SOL    HW3 2123   1.227   6.342   3.178  2.8142  0.1871  0.1963
  589SOL    MW4 2124   1.253   6.260   3.163  0.6020 -0.5809  0.1490
  590SOL     OW 2125   5.151   0.745   2.080  0.0594 -0.5380  0.3211
  590SOL    HW2 2126   5.108   0.709   2.002  1.4031 -1.6398  0.0419
  590SOL    HW3 2127   5.177   0.834   2.053  1.0746 -1.1318 -0.7383
  590SOL    MW4 2128   5.149   0.752   2.066  0.3706 -0.7617  0.1445
  591SOL     OW 2129   4.472   0.406   1.518  0.3040  0.4011 -0.6551
  591SOL    HW2 2130   4.566   0.423   1.507  0.1666  0.1778 -2.5447
  591SOL    HW3 2131   4.460   0.317   1.485 -0.6611  0.6268 -0.9313
  591SOL    MW4 2132   4.483   0.396   1.512  0.1585  0.4014 -0.9409
  592SOL     OW 2133   2.290   6.077   4.718  0.2005  0.0799  0.5379
  592SOL    HW2 2134   2.280   6.000   4.774  0.2153  1.2852  2.2923
  592SOL    HW3 2135   2.233   6.143   4.757  0.2839  1.0137 -0.8333
  592SOL    MW4 2136   2.281   6.076   4.730  0.2134  0.3621  0.5884
  593SOL     OW 2137   1.909   4.239   5.452  0.7486  0.5222  0.0574
  593SOL    HW2 2138   1.856   4.186   5.393  0.7647  1.4346 -0.8056
  593SOL    HW3 2139   1.884   4.210   5.540  1.0517 -1.1718 -0.3851
  593SOL    MW4 2140   1.899   4.228   5.456  0.7907  0.4191 -0.1148
  594SOL     OW 2141   1.621   3.842   0.687  0.0203  0.4939 -0.4067
  594SOL    HW2 2142   1.697   3.800   0.727  1.1237  2.3790 -0.4187
  594SOL    HW3 2143   1.646   3.853   0.596 -0.7309  0.1466 -0.6590
  594SOL    MW4 2144   1.634   3.838   0.681  0.0667  0.6968 -0.4416
  595SOL     OW 2145   1.100   3.912   2.512 -0.3600  0.2591 -0.0624
  595SOL    HW2 2146   1.084   3.850   2.441  0.1410 -1.0761  0.9576
  595SOL    HW3 2147   1.076   3.997   2.475 -1.2153 -0.5478 -1.4401
  595SOL    MW4 2148   1.095   3.915   2.498 -0.4067 -0.0235 -0.1096
  596SOL     OW 2149   2.503   4.895   3.174  0.2587 -0.4341 -0.4880
  596SOL    HW2 2150   2.594   4.865   3.183  0.3116 -0.0597  0.3595
  596SOL    HW3 2151   2.499   4.974   3.227 -0.5383 -0.3882 -0.6087
  596SOL    MW4 2152   2.515   4.901   3.182  0.1606 -0.3786 -0.3921
  597SOL     OW 2153   3.715   1.393   0.618  0.0577 -0.3903 -0.1322
  597SOL    HW2 2154   3.629   1.419   0.649  0.1225  1.5660 -1.4054
  597SOL    HW3 2155   3.700   1.313   0.567 -0.7071 -1.0331  1.0722
  597SOL    MW4 2156   3.702   1.386   0.615 -0.0347 -0.2170 -0.1413
  598SOL     OW 2157   0.183   4.068   3.349  0.3429  0.6841  0.5588
  598SOL    HW2 2158   0.148   4.148   3.310 -0.9915 -0.6085 -1.0611
  598SOL    HW3 2159   0.214   4.017   3.274  1.2285 -0.2844  1.5646
  598SOL    MW4 2160   0.182   4.072   3.334  0.2837  0.3857  0.4778
  599SOL     OW 2161   5.177   1.580   5.413  0.4091 -0.0532 -0.4110
  599SOL    HW2 2162   5.223   1.503   5.448  0.7777  0.3702  0.0383
  599SOL    HW3 2163   5.194   1.649   5.477  0.7978  0.6366 -1.2446
  599SOL    MW4 2164   5.186   1.579   5.426  0.5090  0.0937 -0.4617
  600SOL     OW 2165   4.769   1.114   3.872 -0.6686 -0.3018  0.1127
  600SOL    HW2 2166   4.729   1.170   3.938  0.8468  0.0979  0.7426
  600SOL    HW3 2167   4.744   1.153   3.788  0.6411  1.5997  0.5373
  600SOL    MW4 2168   4.760   1.127   3.869 -0.2959  0.0018  0.2518
  601SOL     OW 2169   4.476   1.927   2.175 -0.6484 -0.1914  0.0149
  601SOL    HW2 2170   4.492   1.834   2.186  0.3398 -0.0304 -0.0411
  601SOL    HW3 2171   4.390   1.941   2.216  0.7972 -0.4595  3.4820
  601SOL    MW4 2172   4.466   1.917   2.182 -0.3273 -0.2055  0.4650
  602SOL     OW 2173   1.936   3.675   3.848 -0.3597  0.6397 -0.3085
  602SOL    HW2 2174   2.018   3.698   3.892  0.0253  0.6472 -1.0271
  602SOL    HW3 2175   1.922   3.583   3.869 -1.0485  1.0544  1.2054
  602SOL    MW4 2176   1.945   3.666   3.857 -0.3998  0.6954 -0.2036
  603SOL     OW 2177   1.209   4.505   1.690 -0.2018  0.0582 -0.0492
  603SOL    HW2 2178   1.163   4.577   1.646  1.3293  0.5124 -1.0308
  603SOL    HW3 2179   1.225   4.441   1.620  0.6645 -0.0548  0.2430
  603SOL    MW4 2180   1.205   4.506   1.675  0.1145  0.1032 -0.1402
  604SOL     OW 2181   4.271   6.111   2.793  0.0265 -0.4904  0.2332
  604SOL    HW2 2182   4.354   6.088   2.751  0.0093 -1.4312  0.6854
  604SOL    HW3 2183   4.217   6.033   2.784 -0.8149  0.0974 -0.0203
  604SOL    MW4 2184   4.275   6.098   2.786 -0.0868 -0.5370  0.2594
  605SOL     OW 2185   2.756   0.405   4.895 -0.4144  0.2583 -0.3987
  605SOL    HW2 2186   2.847   0.418   4.921 -0.4046 -0.3048 -0.1351
  605SOL    HW3 2187   2.740   0.472   4.828  0.0918  0.5712 -0.2081
  605SOL    MW4 2188   2.765   0.416   4.889 -0.3463  0.2253 -0.3388
  606SOL     OW 2189   3.836   0.326   3.923 -0.2997 -0.0887  0.4109
  606SOL    HW2 2190   3.849   0.278   3.841  0.4280 -0.2039  0.5826
  606SOL    HW3 2191   3.741   0.330   3.934 -0.4243  0.1480 -0.5661
  606SOL    MW4 2192   3.825   0.320   3.913 -0.2201 -0.0727  0.3047
  607SOL     OW 2193   1.790   4.736   2.277 -0.7183  0.1655  0.0918
  607SOL    HW2 2194   1.709   4.770   2.241 -0.2014  1.5114  0.1642
  607SOL    HW3 2195   1.771   4.722   2.370 -0.7337  0.9499  0.2138
  607SOL    MW4 2196   1.777   4.738   2.285 -0.6521  0.4466  0.1175
  608SOL     OW 2197   3.602   6.165   4.272 -0.6939  0.6941  0.0809
  608SOL    HW2 2198   3.614   6.251   4.312 -1.7173  0.9436 -0.1281
  608SOL    HW3 2199   3.660   6.107   4.322 -0.2061  1.4492  0.4017
  608SOL    MW4 2200   3.611   6.169   4.284 -0.7645  0.8267  0.0956
  609SOL     OW 2201   2.172   3.373   5.180 -0.3672  0.2757  0.2250
  609SOL    HW2 2202   2.126   3.385   5.097 -0.7981 -2.0872  0.0740
  609SOL    HW3 2203   2.114   3.412   5.245 -1.8118 -1.1245 -0.1745
  609SOL    MW4 2204   2.158   3.380   5.178 -0.6146 -0.2208  0.1523
  610SOL     OW 2205   3.925   3.654   3.605 -0.1865 -0.0328 -0.3563
  610SOL    HW2 2206   3.911   3.587   3.538 -2.8841  0.2775 -0.2203
  610SOL    HW3 2207   3.854   3.640   3.668  2.2711 -0.4169  2.6167
  610SOL    MW4 2208   3.914   3.643   3.605 -0.2182 -0.0426  0.0539
  611SOL     OW 2209   4.232   4.380   5.089  0.1662 -0.3350 -0.5170
  611SOL    HW2 2210   4.208   4.405   5.178  2.2475 -1.1511  0.3418
  611SOL    HW3 2211   4.244   4.463   5.043  0.4629  0.1454  0.3912
  611SOL    MW4 2212   4.231   4.394   5.095  0.4800 -0.3793 -0.2838
  612SOL     OW 2213   1.971   3.354  -0.002 -0.1500  0.4326 -0.0083
  612SOL    HW2 2214   1.985   3.323  -0.091 -0.4248  1.0082 -0.2538
  612SOL    HW3 2215   1.876   3.347   0.012 -0.4600  2.6739 -0.6497
  612SOL    MW4 2216   1.960   3.349  -0.012 -0.2272  0.8043 -0.1253
  613SOL     OW 2217   2.099   0.525   5.254  0.2745  0.7164  0.6051
  613SOL    HW2 2218   2.017   0.526   5.205  1.1997 -0.2833 -1.0365
  613SOL    HW3 2219   2.149   0.600   5.220  0.7910  0.2113  0.2357
  613SOL    MW4 2220   2.095   0.535   5.243  0.4647  0.5179  0.3398
  614SOL     OW 2221   5.258   1.416   3.168 -0.4447 -0.8872  0.2509
  614SOL    HW2 2222   5.263   1.414   3.264 -0.6600 -0.4747  0.2752
  614SOL    HW3 2223   5.211   1.498   3.149 -0.6857 -1.1274 -0.1937
  614SOL    MW4 2224   5.252   1.427   3.178 -0.5049 -0.8645  0.1955
  615SOL     OW 2225   5.279   4.753   0.559  0.0458  0.4796  0.1109
  615SOL    HW2 2226   5.207   4.695   0.534  1.2855 -1.8757  1.6370
  615SOL    HW3 2227   5.262   4.774   0.651 -0.1319  2.2547 -0.2871
  615SOL    MW4 2228   5.267   4.749   0.568  0.1859  0.4031  0.2598
  616SOL     OW 2229   5.153   1.904   5.908  0.2333 -0.0483 -0.1810
  616SOL    HW2 2230   5.102   1.916   5.988  1.1459 -0.5295  0.4959
  616SOL    HW3 2231   5.243   1.922   5.934  0.6089 -0.6991 -0.9756
  616SOL    MW4 2232   5.158   1.908   5.922  0.4033 -0.1976 -0.1965
  617SOL     OW 2233   5.483   6.194   3.637  0.1983 -0.0987 -0.2529
  617SOL    HW2 2234   5.391   6.176   3.620 -0.1425 -1.8021  2.7154
  617SOL    HW3 2235   5.523   6.196   3.550 -2.2217 -1.8228 -1.5363
  617SOL    MW4 2236   5.476   6.192   3.623 -0.1659 -0.5509 -0.0306
  618SOL     OW 2237   0.812   0.076   5.284 -0.0648  0.3119  0.4448
  618SOL    HW2 2238   0.745   0.033   5.230 -0.1304  0.8559  0.0849
  618SOL    HW3 2239   0.895   0.044   5.248 -0.1226 -0.1016  0.6730
  618SOL    MW4 2240   0.814   0.066   5.272 -0.0811  0.3291  0.4274
  619SOL     OW 2241   0.126   3.481   2.452 -0.2560  0.3346  0.1724
  619SOL    HW2 2242   0.130   3.459   2.359 -2.4782  0.0451  0.0914
  619SOL    HW3 2243   0.179   3.414   2.495 -1.7952 -1.5154 -0.6401
  619SOL    MW4 2244   0.133   3.470   2.446 -0.7523  0.0524  0.0545
  620SOL     OW 2245   5.784   1.272   1.532  0.1749  0.0089 -0.3578
  620SOL    HW2 2246   5.858   1.252   1.589 -0.9731  0.2383  1.2822
  620SOL    HW3 2247   5.784   1.203   1.466  0.2688 -1.5621  1.2137
  620SOL    MW4 2248   5.794   1.260   1.531  0.0358 -0.1681  0.0659
  621SOL     OW 2249   1.430   1.960   2.447 -0.1230 -0.5724  0.1179
  621SOL    HW2 2250   1.457   2.045   2.482 -1.5481 -0.7537  1.7814
  621SOL    HW3 2251   1.409   1.908   2.524 -0.8631 -1.8947 -0.9350
  621SOL    MW4 2252   1.431   1.964   2.461 -0.4087 -0.7708  0.1984
  622SOL     OW 2253   5.201   6.155   6.228 -0.1259 -0.0152  0.2849
  622SOL    HW2 2254   5.178   6.137   6.319 -0.5086  1.0948  0.4258
  622SOL    HW3 2255   5.139   6.102   6.176 -2.6110  2.2999  0.6602
  622SOL    MW4 2256   5.190   6.146   6.233 -0.5043  0.4367  0.3530
  623SOL     OW 2257   5.609   3.879   0.678 -0.1706 -0.2774 -0.1707
  623SOL    HW2 2258   5.556   3.900   0.601 -0.6543 -2.0219 -0.3621
  623SOL    HW3 2259   5.699   3.878   0.646 -0.2026  0.5702 -0.3278
  623SOL    MW4 2260   5.614   3.882   0.664 -0.2386 -0.3957 -0.2167
  624SOL     OW 2261   3.427   2.383   0.686 -0.5211 -0.1354  0.4056
  624SOL    HW2 2262   3.369   2.426   0.623  2.0525  2.6895 -0.2858
  624SOL    HW3 2263   3.513   2.384   0.645  0.5118 -2.0841  2.2993
  624SOL    MW4 2264   3.431   2.389   0.672 -0.0453 -0.0198  0.5642
  625SOL     OW 2265   3.029   2.260   3.320 -0.0292 -0.8044 -0.4055
  625SOL    HW2 2266   3.018   2.316   3.243  0.4121  0.8866  0.7148
  625SOL    HW3 2267   2.956   2.284   3.378 -0.9999 -2.8390 -0.6946
  625SOL    MW4 2268   3.018   2.270   3.317 -0.0990 -0.8497 -0.2959
  626SOL     OW 2269   2.562   4.729   0.723 -0.0454 -0.0613 -0.6768
  626SOL    HW2 2270   2.641   4.760   0.679 -1.3120  1.0076 -2.3338
  626SOL    HW3 2271   2.538   4.649   0.675  0.2435 -0.6300  0.1035
  626SOL    MW4 2272   2.569   4.722   0.711 -0.1744  0.0047 -0.7924
  627SOL     OW 2273   1.505   0.738   5.510  0.1312 -0.2943 -0.1302
  627SOL    HW2 2274   1.422   0.773   5.544  0.1182  0.8092 -1.2151
  627SOL    HW3 2275   1.572   0.794   5.549  0.2390 -0.1738 -0.4837
  627SOL    MW4 2276   1.503   0.750   5.520  0.1437 -0.1328 -0.3199
  628SOL     OW 2277   0.730   1.333   4.142  0.3752  0.1424 -0.3344
  628SOL    HW2 2278   0.776   1.289   4.070  1.4055 -1.0338  0.9959
  628SOL    HW3 2279   0.672   1.266   4.178 -0.8916  1.0185 -0.6735
  628SOL    MW4 2280   0.728   1.319   4.137  0.3440  0.1028 -0.2036
  629SOL     OW 2281   3.485   0.429   3.687 -0.3048  0.0346  0.5685
  629SOL    HW2 2282   3.392   0.417   3.710 -0.9946  0.3374 -1.7704
  629SOL    HW3 2283   3.508   0.350   3.639  0.3469  0.4202  0.2346
  629SOL    MW4 2284   3.475   0.417   3.684 -0.3098  0.1255  0.2159
  630SOL     OW 2285   4.935   2.350   0.557 -0.5688  0.1767 -0.3226
  630SOL    HW2 2286   4.993   2.347   0.481 -0.2994 -0.0227 -0.1110
  630SOL    HW3 2287   4.921   2.258   0.581 -1.0915  0.2143 -0.4596
  630SOL    MW4 2288   4.941   2.338   0.550 -0.6022  0.1553 -0.3127
  631SOL     OW 2289   1.888   3.579   0.377 -0.1119 -0.5001 -0.8240
  631SOL    HW2 2290   1.971   3.549   0.412 -0.7970 -0.7662  0.6555
  631SOL    HW3 2291   1.824   3.562   0.446 -1.7359 -1.9386 -2.5561
  631SOL    MW4 2292   1.890   3.573   0.391 -0.4166 -0.7250 -0.8573
  632SOL     OW 2293   5.583   2.352   2.318 -1.1463  0.6077  0.0567
  632SOL    HW2 2294   5.647   2.366   2.387 -1.0315  0.7930 -0.0872
  632SOL    HW3 2295   5.629   2.300   2.252 -1.2783  0.3687  0.1519
  632SOL    MW4 2296   5.597   2.347   2.318 -1.1485  0.6006  0.0503
  633SOL     OW 2297   2.319   4.390   0.119  0.0119 -0.6209 -0.1128
  633SOL    HW2 2298   2.317   4.404   0.213  1.3619 -0.3797 -0.0932
  633SOL    HW3 2299   2.323   4.478   0.081 -2.6451 -0.6064 -0.5293
  633SOL    MW4 2300   2.320   4.403   0.126 -0.1605 -0.5872 -0.1651
  634SOL     OW 2301   5.141   2.205   4.254  0.3180  0.4928 -0.5219
  634SOL    HW2 2302   5.142   2.202   4.350  0.7000  2.2115 -0.4488
  634SOL    HW3 2303   5.202   2.275   4.231  0.2262  0.1162 -2.0285
  634SOL    MW4 2304   5.149   2.214   4.264  0.3563  0.6699 -0.7111
  635SOL     OW 2305   1.736   1.217   0.349  0.4671  0.2925 -0.3669
  635SOL    HW2 2306   1.790   1.163   0.407  0.1893  0.5513  0.1340
  635SOL    HW3 2307   1.682   1.269   0.408  0.2116  0.5886 -0.8598
  635SOL    MW4 2308   1.736   1.217   0.364  0.3967  0.3657 -0.3658
  636SOL     OW 2309   2.619   4.092   3.003  0.1223  0.0663  0.1854
  636SOL    HW2 2310   2.623   4.154   2.931  0.8083 -0.6071 -0.3679
  636SOL    HW3 2311   2.620   4.147   3.082 -0.1011  0.7831 -0.3019
  636SOL    MW4 2312   2.620   4.107   3.004  0.1834  0.0720  0.0481
  637SOL     OW 2313   0.123   3.365   0.786 -0.8072  0.3587 -0.1863
  637SOL    HW2 2314   0.166   3.445   0.816  0.6861 -0.8164  0.9401
  637SOL    HW3 2315   0.085   3.327   0.865 -0.5311 -0.6164 -0.5181
  637SOL    MW4 2316   0.124   3.371   0.800 -0.5737  0.0750 -0.0814
  638SOL     OW 2317  -0.010   6.129   2.421 -0.1810 -0.3838 -0.2784
  638SOL    HW2 2318  -0.015   6.066   2.494 -1.8700 -0.4430 -0.3930
  638SOL    HW3 2319  -0.101   6.137   2.391  0.0279  1.8781 -0.4760
  638SOL    MW4 2320  -0.023   6.121   2.427 -0.3762 -0.0932 -0.3196
  639SOL     OW 2321   3.054   5.654   6.135 -0.5437  0.4299  0.3154
  639SOL    HW2 2322   3.071   5.605   6.055 -1.7163 -1.1835  1.0106
  639SOL    HW3 2323   3.139   5.657   6.180  0.2070  1.6524 -1.0921
  639SOL    MW4 2324   3.068   5.648   6.130 -0.5994  0.3783  0.2214
  640SOL     OW 2325   0.312   3.284   0.219 -0.2116  0.0970  0.2033
  640SOL    HW2 2326   0.304   3.205   0.274 -0.9728  0.3445  0.4651
  640SOL    HW3 2327   0.265   3.262   0.139 -1.9156  0.8565  0.9447
  640SOL    MW4 2328   0.305   3.271   0.216 -0.5368  0.2299  0.3357
  641SOL     OW 2329   1.510   3.205   6.097 -0.3368 -0.1951  0.8010
  641SOL    HW2 2330   1.525   3.299   6.106  1.2557 -0.0419 -2.1113
  641SOL    HW3 2331   1.415   3.196   6.089 -0.4240  1.3564 -0.2620
  641SOL    MW4 2332   1.500   3.216   6.097 -0.1382  0.0299  0.2765
  642SOL     OW 2333   2.829   5.181   4.026 -0.2920 -0.7191  0.4717
  642SOL    HW2 2334   2.902   5.205   4.082  0.3885 -0.3371 -0.5468
  642SOL    HW3 2335   2.755   5.231   4.061  0.3325  0.2518  0.4579
  642SOL    MW4 2336   2.829   5.191   4.038 -0.1198 -0.5406  0.3355
  643SOL     OW 2337   5.850   4.763   5.170  0.3187 -0.0808  0.2902
  643SOL    HW2 2338   5.860   4.771   5.265  1.7023  0.2945  0.1306
  643SOL    HW3 2339   5.767   4.716   5.159 -0.1416  0.3396  1.6607
  643SOL    MW4 2340   5.840   4.758   5.181  0.4405  0.0242  0.4500
  644SOL     OW 2341   5.955   1.085   0.389  0.7568  0.1765 -0.1798
  644SOL    HW2 2342   6.023   1.073   0.455 -0.0389 -0.6757  0.5101
  644SOL    HW3 2343   5.926   0.996   0.369  0.7875  0.4378 -1.4853
  644SOL    MW4 2344   5.960   1.072   0.395  0.6559  0.0985 -0.2611
  645SOL     OW 2345   4.457   3.720   0.368  0.2973 -0.5211  0.0628
  645SOL    HW2 2346   4.494   3.788   0.425  2.9880 -1.3393 -0.5536
  645SOL    HW3 2347   4.387   3.765   0.321  0.2366  1.0881  1.5483
  645SOL    MW4 2348   4.453   3.735   0.370  0.6443 -0.4167  0.1775
  646SOL     OW 2349   2.103   1.996   0.337 -0.2660 -0.2058 -0.1782
  646SOL    HW2 2350   2.088   1.942   0.414  0.5535 -0.5272 -0.2309
  646SOL    HW3 2351   2.056   2.078   0.355  1.2226  0.3645  1.3882
  646SOL    MW4 2352   2.095   2.000   0.350  0.0385 -0.1729  0.0215
  647SOL     OW 2353   1.522   5.247   1.619  0.5081 -0.6515  0.1846
  647SOL    HW2 2354   1.516   5.289   1.704  0.6976  0.5826 -0.3841
  647SOL    HW3 2355   1.505   5.154   1.636  0.9973 -0.4971  1.6184
  647SOL    MW4 2356   1.519   5.240   1.632  0.5977 -0.4683  0.2988
  648SOL     OW 2357   4.883   3.749   1.330 -0.2010 -0.0090 -0.4370
  648SOL    HW2 2358   4.938   3.671   1.336 -0.1258 -0.0477 -1.4210
  648SOL    HW3 2359   4.854   3.766   1.420  2.2205  0.6081  0.3081
  648SOL    MW4 2360   4.887   3.741   1.342  0.1284  0.0673 -0.4685
  649SOL     OW 2361   5.960   4.644   1.026 -0.0370  0.3066 -0.2298
  649SOL    HW2 2362   5.926   4.633   1.115 -0.9215  0.7347 -0.5031
  649SOL    HW3 2363   5.883   4.635   0.970  0.4593  0.3764 -0.9337
  649SOL    MW4 2364   5.945   4.641   1.030 -0.0882  0.3723 -0.3587
  650SOL     OW 2365   5.643   1.636   2.572 -0.4009 -0.3179 -0.0735
  650SOL    HW2 2366   5.670   1.548   2.550  1.1509  0.2635 -0.6177
  650SOL    HW3 2367   5.670   1.648   2.663  3.1154  0.8728 -1.1152
  650SOL    MW4 2368   5.650   1.626   2.581  0.2678 -0.0841 -0.2828
  651SOL     OW 2369   4.267   3.955   5.846 -0.2429  0.4082 -0.3485
  651SOL    HW2 2370   4.224   3.992   5.769  1.3897 -0.5640 -1.8031
  651SOL    HW3 2371   4.246   3.861   5.842  1.1884  0.0718 -0.5776
  651SOL    MW4 2372   4.258   3.947   5.836  0.1613  0.2356 -0.5706
  652SOL     OW 2373   0.981   0.299   4.026  0.1122 -0.0814 -0.4784
  652SOL    HW2 2374   0.964   0.288   4.119 -0.7050 -0.6112 -0.6780
  652SOL    HW3 2375   0.902   0.340   3.991  0.5549  0.4501 -0.8815
  652SOL    MW4 2376   0.969   0.303   4.034  0.0628 -0.0812 -0.5580
  653SOL     OW 2377   5.294   4.311   1.740  0.1735 -0.4062  0.0313
  653SOL    HW2 2378   5.255   4.383   1.789 -0.0155  0.6000 -1.5225
  653SOL    HW3 2379   5.368   4.282   1.793 -0.6241 -0.0480  1.3723
  653SOL    MW4 2380   5.299   4.317   1.753  0.0433 -0.2262  0.0032
  654SOL     OW 2381   4.226   0.131   1.280 -0.2367 -0.2785  0.4376
  654SOL    HW2 2382   4.309   0.175   1.259 -1.4820  1.2711 -1.7461
  654SOL    HW3 2383   4.225   0.054   1.223 -0.3953 -0.1493  0.2632
  654SOL    MW4 2384   4.237   0.127   1.269 -0.4219 -0.0570  0.1265
  655SOL     OW 2385   2.610   2.745   4.848 -0.6013 -0.8644 -0.0390
  655SOL    HW2 2386   2.587   2.675   4.909 -1.0650  1.0207  2.0680
  655SOL    HW3 2387   2.526   2.782   4.821 -0.3238 -0.1924  0.0092
  655SOL    MW4 2388   2.596   2.740   4.853 -0.6259 -0.5270  0.2453
  656SOL     OW 2389   2.926   2.791   2.146  0.8168  0.1180 -0.4882
  656SOL    HW2 2390   2.864   2.718   2.144  0.7761  0.0822  1.0164
  656SOL    HW3 2391   2.890   2.855   2.084  0.1471 -0.5817 -0.8336
  656SOL    MW4 2392   2.913   2.790   2.138  0.7231  0.0210 -0.3353
  657SOL     OW 2393   0.223   1.340   5.399  0.4029 -0.0386  0.2861
  657SOL    HW2 2394   0.275   1.359   5.477 -1.7831 -2.3591  2.4369
  657SOL    HW3 2395   0.164   1.415   5.391 -0.1650 -0.3134  1.6251
  657SOL    MW4 2396   0.222   1.353   5.408  0.0395 -0.3810  0.7465
  658SOL     OW 2397   2.019   1.359   4.087 -0.1986  0.2122  0.5437
  658SOL    HW2 2398   2.018   1.393   4.176 -1.5720  0.4235  0.4730
  658SOL    HW3 2399   1.936   1.311   4.079 -1.0376  1.8246 -1.2191
  658SOL    MW4 2400   2.008   1.357   4.098 -0.4905  0.4528  0.3018
  659SOL     OW 2401   0.614   1.616   4.657 -0.5273 -0.8921 -0.0242
  659SOL    HW2 2402   0.535   1.613   4.604  0.5586  1.3475 -1.9204
  659SOL    HW3 2403   0.598   1.686   4.720 -0.5250 -1.3006  0.4375
  659SOL    MW4 2404   0.601   1.625   4.659 -0.3837 -0.6505 -0.2134
  660SOL     OW 2405   1.136   3.548   4.933  0.2029 -0.0770 -0.3341
  660SOL    HW2 2406   1.058   3.493   4.928 -0.0657  0.2580  0.1495
  660SOL    HW3 2407   1.209   3.487   4.925 -0.0918 -0.5244  0.3360
  660SOL    MW4 2408   1.136   3.533   4.931  0.1286 -0.0918 -0.1819
  661SOL     OW 2409   3.465   5.144   4.313  0.3275 -0.1442  0.0119
  661SOL    HW2 2410   3.491   5.236   4.325 -0.0516  0.1229 -1.1140
  661SOL    HW3 2411   3.369   5.146   4.315  0.3049 -0.7841  1.6815
  661SOL    MW4 2412   3.456   5.157   4.315  0.2745 -0.1934  0.0836
  662SOL     OW 2413   1.071   6.058   3.803  0.4369 -0.6066  0.3002
  662SOL    HW2 2414   1.006   6.109   3.754  0.1137  0.0475  1.3942
  662SOL    HW3 2415   1.112   6.003   3.736 -0.0295  0.2273 -0.7053
  662SOL    MW4 2416   1.068   6.058   3.787  0.3327 -0.4103  0.3118
  663SOL     OW 2417   1.614   2.028   0.893 -0.0146 -0.0525  0.2145
  663SOL    HW2 2418   1.556   1.957   0.864 -2.6418  1.8708  0.3648
  663SOL    HW3 2419   1.625   2.082   0.815  0.2300  0.4581  0.6055
  663SOL    MW4 2420   1.608   2.026   0.879 -0.3289  0.2687  0.2859
  664SOL     OW 2421   2.382   2.386   3.110 -0.0667  0.8398  0.1338
  664SOL    HW2 2422   2.474   2.368   3.091  0.0105  0.3460  0.9303
  664SOL    HW3 2423   2.352   2.441   3.037  0.6810  0.4580 -0.4695
  664SOL    MW4 2424   2.390   2.391   3.098  0.0422  0.7243  0.1593
  665SOL     OW 2425   5.894   0.687   5.898 -0.1775  0.2838  0.4074
  665SOL    HW2 2426   5.840   0.747   5.846  0.5032  0.1223 -0.4983
  665SOL    HW3 2427   5.884   0.719   5.988 -0.0705  1.5827 -0.0110
  665SOL    MW4 2428   5.886   0.699   5.903 -0.0736  0.4339  0.2327
  666SOL     OW 2429   4.109   5.872   2.812 -0.5150 -0.4156  0.0414
  666SOL    HW2 2430   4.088   5.849   2.721 -2.4302 -1.6441  0.7371
  666SOL    HW3 2431   4.032   5.845   2.862  0.9733 -0.8860  2.2244
  666SOL    MW4 2432   4.096   5.866   2.806 -0.5714 -0.6397  0.4212
  667SOL     OW 2433   0.062   5.699   5.564 -0.8608  0.3751  0.3999
  667SOL    HW2 2434   0.072   5.793   5.578  1.4272  0.3106 -0.2792
  667SOL    HW3 2435  -0.017   5.690   5.510  0.9154  2.3460 -2.8549
  667SOL    MW4 2436   0.053   5.710   5.558 -0.3246  0.6266 -0.1191
  668SOL     OW 2437   2.954   4.258   2.325  0.2859 -0.0703  0.1153
  668SOL    HW2 2438   3.018   4.190   2.304  0.4690  0.8191 -2.5421
  668SOL    HW3 2439   3.006   4.339   2.330 -0.2717  0.2605  0.6939
  668SOL    MW4 2440   2.970   4.260   2.323  0.2365  0.0907 -0.1589
  669SOL     OW 2441   1.564   2.518   5.963 -0.5522  0.9539 -0.3786
  669SOL    HW2 2442   1.510   2.439   5.968  2.1598 -1.0082  0.4452
  669SOL    HW3 2443   1.540   2.558   5.880 -1.6257 -1.0800 -1.1260
  669SOL    MW4 2444   1.554   2.513   5.953 -0.3360  0.4267 -0.3685
  670SOL     OW 2445   3.705   5.240   4.598  0.3378  0.7392 -0.4491
  670SOL    HW2 2446   3.645   5.274   4.664  0.5084  1.4182 -0.6435
  670SOL    HW3 2447   3.673   5.152   4.580  1.0094  0.0381  1.4616
  670SOL    MW4 2448   3.693   5.233   4.604  0.4489  0.7363 -0.2226
  671SOL     OW 2449   1.296   2.060   5.885  0.3329 -0.2219 -0.1682
  671SOL    HW2 2450   1.328   2.047   5.795 -1.2290  2.2637 -1.1722
  671SOL    HW3 2451   1.344   2.137   5.916  0.0417 -0.3990  0.7235
  671SOL    MW4 2452   1.307   2.068   5.877  0.0884  0.0827 -0.1830
  672SOL     OW 2453   5.979   2.931   0.165 -0.4127  0.1900 -0.4551
  672SOL    HW2 2454   5.983   2.900   0.074 -1.1163  0.4993 -0.5980
  672SOL    HW3 2455   5.943   2.857   0.214 -1.2628  0.4521 -0.6538
  672SOL    MW4 2456   5.974   2.917   0.159 -0.6177  0.2654 -0.5002
  673SOL     OW 2457   4.788   5.148   6.085  0.3720 -0.4249 -0.1271
  673SOL    HW2 2458   4.838   5.112   6.158 -1.2166 -0.6845  0.8677
  673SOL    HW3 2459   4.848   5.211   6.044  1.3282 -0.3432  1.3215
  673SOL    MW4 2460   4.803   5.152   6.089  0.2886 -0.4484  0.1953
  674SOL     OW 2461   0.112   0.193   5.409  0.2341 -0.8961 -0.5777
  674SOL    HW2 2462   0.124   0.139   5.487  1.5144 -1.5156 -1.1708
  674SOL    HW3 2463   0.038   0.249   5.430  0.0308 -1.6205  0.7633
  674SOL    MW4 2464   0.104   0.193   5.422  0.3762 -1.0734 -0.4790
  675SOL     OW 2465   0.504   2.213   1.302 -0.1610 -0.6800 -1.0654
  675SOL    HW2 2466   0.539   2.296   1.270 -1.0920 -0.1550 -0.7212
  675SOL    HW3 2467   0.430   2.194   1.244  0.1064 -1.3283 -1.2095
  675SOL    MW4 2468   0.499   2.221   1.290 -0.2485 -0.6963 -1.0390
  676SOL     OW 2469   3.443   3.247   0.509  0.5541 -0.1952  0.0855
  676SOL    HW2 2470   3.424   3.236   0.416  3.3887  1.0664 -0.7373
  676SOL    HW3 2471   3.500   3.173   0.531 -0.4080 -0.7088  0.9967
  676SOL    MW4 2472   3.448   3.236   0.500  0.8012 -0.0965  0.0972
  677SOL     OW 2473   0.061   0.514   1.136  0.1763  0.8011 -0.0089
  677SOL    HW2 2474   0.113   0.539   1.060 -1.2091 -1.3424 -1.7738
  677SOL    HW3 2475   0.121   0.526   1.210  2.3221  0.8928 -1.6398
  677SOL    MW4 2476   0.076   0.519   1.136  0.2766  0.5304 -0.4570
  678SOL     OW 2477   3.225   3.876   4.820 -0.6204  0.3036 -0.5915
  678SOL    HW2 2478   3.195   3.855   4.909  0.0028 -0.0901 -0.4675
  678SOL    HW3 2479   3.235   3.791   4.777 -0.6839  0.4822 -0.9627
  678SOL    MW4 2480   3.222   3.862   4.826 -0.5466  0.2752 -0.6241
  679SOL     OW 2481   5.198   2.733   4.154 -0.0233 -0.0992  0.2839
  679SOL    HW2 2482   5.229   2.803   4.096  1.4028 -1.2239 -0.3444
  679SOL    HW3 2483   5.250   2.743   4.234 -0.1562 -0.1714  0.3809
  679SOL    MW4 2484   5.209   2.744   4.157  0.1473 -0.2571  0.2138
  680SOL     OW 2485   0.543   5.810   0.248 -0.7272  0.0885  0.5655
  680SOL    HW2 2486   0.508   5.899   0.243  0.8564  0.7135 -0.0637
  680SOL    HW3 2487   0.522   5.781   0.337 -2.1035  0.7021  0.4779
  680SOL    MW4 2488   0.535   5.818   0.259 -0.6999  0.2519  0.4709
  681SOL     OW 2489   1.985   6.119   2.208  0.0311  0.3739 -0.3559
  681SOL    HW2 2490   1.925   6.190   2.185 -1.9543 -0.9455  0.5176
  681SOL    HW3 2491   2.039   6.107   2.130 -0.6637  1.7606 -1.0913
  681SOL    MW4 2492   1.984   6.127   2.195 -0.3225  0.3828 -0.3377
  682SOL     OW 2493   1.141   5.031   3.777 -0.3014 -0.3251 -0.3204
  682SOL    HW2 2494   1.048   5.052   3.788 -0.3000 -0.6455  0.3695
  682SOL    HW3 2495   1.186   5.096   3.831 -0.1354 -0.2736 -0.5232
  682SOL    MW4 2496   1.134   5.043   3.786 -0.2793 -0.3606 -0.2562
  683SOL     OW 2497   3.800   3.754   6.161  0.2585  0.1578  0.0258
  683SOL    HW2 2498   3.826   3.662   6.162  2.0888  0.6227  1.9274
  683SOL    HW3 2499   3.806   3.779   6.068 -1.0134 -1.7585 -0.6450
  683SOL    MW4 2500   3.804   3.745   6.149  0.3322 -0.0337  0.1882
  684SOL     OW 2501   5.976   1.122   3.171 -0.0276  0.0691 -0.5052
  684SOL    HW2 2502   6.040   1.138   3.240  0.8811 -1.0222 -1.0526
  684SOL    HW3 2503   5.900   1.085   3.216  0.0346  0.6370  0.0661
  684SOL    MW4 2504   5.975   1.119   3.186  0.1005  0.0001 -0.5021
  685SOL     OW 2505   4.865   5.582   5.987 -0.3721 -0.2339 -0.7075
  685SOL    HW2 2506   4.794   5.555   5.928 -1.3242 -0.2667  0.4325
  685SOL    HW3 2507   4.822   5.629   6.058  0.5686 -1.5434  0.8028
  685SOL    MW4 2508   4.850   5.584   5.988 -0.3736 -0.4110 -0.3578
  686SOL     OW 2509   5.974   5.751   3.435  0.1557  0.1219 -0.2250
  686SOL    HW2 2510   6.058   5.794   3.422  1.1398 -1.6308 -0.0074
  686SOL    HW3 2511   5.949   5.720   3.348  0.8197 -1.1986  0.0283
  686SOL    MW4 2512   5.982   5.753   3.422  0.3731 -0.2836 -0.1629
  687SOL     OW 2513   3.998   3.968   4.407 -0.8938 -0.3692  0.0780
  687SOL    HW2 2514   4.017   4.035   4.342 -2.1082  0.6242  0.7060
  687SOL    HW3 2515   4.073   3.909   4.404  0.8629  1.7195  0.4314
  687SOL    MW4 2516   4.010   3.969   4.398 -0.8223  0.0374  0.2075
  688SOL     OW 2517   2.951   0.438   1.455 -0.2945  0.4844  0.6871
  688SOL    HW2 2518   2.933   0.489   1.535 -2.7791  0.1928  0.4029
  688SOL    HW3 2519   2.974   0.504   1.390  0.9563  0.7994  1.4081
  688SOL    MW4 2520   2.952   0.453   1.457 -0.4573  0.4875  0.7447
  689SOL     OW 2521   4.900   1.145   6.345  0.4297 -0.6124  0.2082
  689SOL    HW2 2522   4.991   1.170   6.365  1.1688 -0.7338 -2.6105
  689SOL    HW3 2523   4.884   1.069   6.400  0.4500  1.8273  3.9934
  689SOL    MW4 2524   4.910   1.139   6.355  0.5299 -0.3065  0.3357
  690SOL     OW 2525   4.063   1.016   3.594  0.2289  0.2199 -0.2328
  690SOL    HW2 2526   3.996   1.083   3.606  0.8723  0.6933  0.8782
  690SOL    HW3 2527   4.063   0.967   3.676  1.4997  0.4893 -0.0372
  690SOL    MW4 2528   4.054   1.018   3.606  0.4815  0.3179 -0.0604
  691SOL     OW 2529   3.223   4.394   6.202  0.0936 -0.1046  0.2357
  691SOL    HW2 2530   3.139   4.385   6.248 -0.4419 -2.1028 -0.9601
  691SOL    HW3 2531   3.220   4.481   6.162 -1.2326  0.0233  0.5717
  691SOL    MW4 2532   3.211   4.404   6.202 -0.1521 -0.3514  0.1223
  692SOL     OW 2533   1.950   4.979   1.560  0.2069 -0.4271 -0.2515
  692SOL    HW2 2534   1.961   5.046   1.628  0.8020  0.3416 -1.0780
  692SOL    HW3 2535   1.892   5.020   1.496  2.2321  0.1675 -1.8066
  692SOL    MW4 2536   1.944   4.994   1.561  0.5526 -0.2472 -0.5657
  693SOL     OW 2537   0.583   1.702   1.837 -0.1459 -0.3772 -0.0789
  693SOL    HW2 2538   0.533   1.688   1.757 -1.8916  1.6184  0.5828
  693SOL    HW3 2539   0.545   1.643   1.901  0.5613 -1.2190 -0.4166
  693SOL    MW4 2540   0.572   1.693   1.835 -0.2829 -0.2250 -0.0361
  694SOL     OW 2541   1.997   5.883   3.795 -0.5240 -0.2233 -0.2028
  694SOL    HW2 2542   1.916   5.839   3.769  0.5134 -0.6108 -3.0550
  694SOL    HW3 2543   2.052   5.813   3.829 -0.8330 -0.1876  0.3920
  694SOL    MW4 2544   1.993   5.868   3.796 -0.4279 -0.2697 -0.5006
  695SOL     OW 2545   1.959   3.182   3.399 -0.3455  0.5308  0.1710
  695SOL    HW2 2546   1.923   3.246   3.460  0.5641  2.4800 -1.2297
  695SOL    HW3 2547   2.054   3.195   3.404  0.1431 -2.5758  1.7413
  695SOL    MW4 2548   1.967   3.192   3.408 -0.1610  0.3781  0.1934
  696SOL     OW 2549   3.903   2.917   6.016 -0.1566 -0.3399  0.3072
  696SOL    HW2 2550   3.948   2.973   5.953 -0.5879  1.2757  1.3695
  696SOL    HW3 2551   3.958   2.920   6.094 -1.1321  0.1722  1.0014
  696SOL    MW4 2552   3.916   2.925   6.018 -0.3422 -0.0592  0.5390
  697SOL     OW 2553   3.883   0.109   4.070 -0.0325 -0.5231 -0.2081
  697SOL    HW2 2554   3.801   0.121   4.117  0.6938 -1.1192  1.2787
  697SOL    HW3 2555   3.894   0.190   4.020  0.2158  1.1185  2.3570
  697SOL    MW4 2556   3.874   0.121   4.069  0.0961 -0.3852  0.3265
  698SOL     OW 2557   2.736   3.431   3.938 -0.5227 -0.9194 -0.0640
  698SOL    HW2 2558   2.703   3.433   4.028  2.6679  2.1045  1.2871
  698SOL    HW3 2559   2.693   3.505   3.895  0.7779  0.0731  0.2679
  698SOL    MW4 2560   2.726   3.441   3.944  0.0699 -0.3895  0.1580
  699SOL     OW 2561   5.479   5.215   0.419 -0.2454 -0.5551 -0.2211
  699SOL    HW2 2562   5.468   5.120   0.421  0.1481 -0.6090 -0.4271
  699SOL    HW3 2563   5.548   5.232   0.483 -1.2552 -0.2616  0.8170
  699SOL    MW4 2564   5.487   5.205   0.427 -0.3267 -0.5235 -0.1113
  700SOL     OW 2565   5.930   2.614   5.211  0.1955  0.2477  0.1793
  700SOL    HW2 2566   5.848   2.566   5.228  0.0833  0.2714 -0.2811
  700SOL    HW3 2567   5.909   2.705   5.233  0.1637  0.2204  0.2645
  700SOL    MW4 2568   5.916   2.619   5.216  0.1765  0.2472  0.1298
  701SOL     OW 2569   4.605   5.406   5.573 -0.5427 -0.1249 -0.4154
  701SOL    HW2 2570   4.580   5.453   5.653 -1.2350 -1.6248  0.3035
  701SOL    HW3 2571   4.528   5.410   5.517 -0.0958  0.8288 -0.9890
  701SOL    MW4 2572   4.591   5.413   5.576 -0.5751 -0.1969 -0.3962
  702SOL     OW 2573   5.622   5.253   2.396 -0.0039  0.5515 -0.2070
  702SOL    HW2 2574   5.614   5.160   2.371 -1.4971  0.8512 -0.9642
  702SOL    HW3 2575   5.708   5.259   2.437  0.8909 -0.8228 -1.7460
  702SOL    MW4 2576   5.633   5.241   2.398 -0.0829  0.4097 -0.5100
  703SOL     OW 2577   3.264   5.319   6.311 -0.2581 -0.1846 -0.4241
  703SOL    HW2 2578   3.240   5.401   6.352 -0.2632 -0.4177  0.0505
  703SOL    HW3 2579   3.229   5.325   6.222 -3.2931 -1.0260  0.5720
  703SOL    MW4 2580   3.256   5.330   6.305 -0.6592 -0.3263 -0.2300
  704SOL     OW 2581   2.946   2.316   3.786  0.5434 -0.3637 -0.1828
  704SOL    HW2 2582   2.894   2.342   3.862  0.1747 -1.4750 -0.0425
  704SOL    HW3 2583   2.915   2.229   3.764  2.7715 -1.3642  0.3146
  704SOL    MW4 2584   2.935   2.308   3.793  0.7887 -0.6423 -0.0987
  705SOL     OW 2585   6.214   6.381   5.710 -0.3502 -0.4385  0.4791
  705SOL    HW2 2586   6.253   6.356   5.626  0.8470 -2.1105  1.4556
  705SOL    HW3 2587   6.270   6.452   5.742 -1.2757  0.7340 -0.4634
  705SOL    MW4 2588   6.227   6.387   5.703 -0.3143 -0.5044  0.4836
  706SOL     OW 2589   0.571   4.699   4.060 -0.2493  0.1939  0.4328
  706SOL    HW2 2590   0.630   4.769   4.032  1.2165 -1.3236 -0.4542
  706SOL    HW3 2591   0.622   4.648   4.123 -1.3577 -0.0177  1.2015
  706SOL    MW4 2592   0.585   4.702   4.065 -0.2022 -0.0342  0.4172
  707SOL     OW 2593   2.241   0.523   2.440  0.7281  0.0904 -0.3551
  707SOL    HW2 2594   2.220   0.609   2.477  0.9635 -0.5493  1.3841
  707SOL    HW3 2595   2.315   0.492   2.492  0.6301 -1.1778 -0.9231
  707SOL    MW4 2596   2.248   0.530   2.452  0.7462 -0.1613 -0.2006
  708SOL     OW 2597   0.892   2.690   0.672  0.3913  0.9701 -0.2140
  708SOL    HW2 2598   0.949   2.621   0.638  0.0771  1.6156 -2.2007
  708SOL    HW3 2599   0.804   2.665   0.644  0.2373  2.0004 -0.7257
  708SOL    MW4 2600   0.888   2.678   0.663  0.3295  1.1912 -0.5436
  709SOL     OW 2601   2.685   0.591   0.253  0.5123  0.3710  0.8049
  709SOL    HW2 2602   2.702   0.685   0.251 -1.7740  0.8523  0.5014
  709SOL    HW3 2603   2.751   0.556   0.312  1.3245  2.1935  1.0550
  709SOL    MW4 2604   2.696   0.599   0.261  0.3178  0.6749  0.7978
  710SOL     OW 2605   1.125   2.922   4.823  0.0020  0.4075  0.6708
  710SOL    HW2 2606   1.170   2.847   4.861  0.0668  0.5262  0.8313
  710SOL    HW3 2607   1.033   2.909   4.847  0.1153  0.7397  1.3042
  710SOL    MW4 2608   1.119   2.911   4.831  0.0255  0.4669  0.7756
  711SOL     OW 2609   1.971   1.930   0.107  0.2007  0.3016  0.2240
  711SOL    HW2 2610   1.960   2.023   0.086  2.6248  0.4343 -0.8160
  711SOL    HW3 2611   2.031   1.930   0.182  1.0208 -0.3948 -0.4102
  711SOL    MW4 2612   1.978   1.943   0.114  0.6287  0.2272  0.0031
  712SOL     OW 2613   2.547   5.077   1.515 -0.4282 -0.0447 -0.5421
  712SOL    HW2 2614   2.475   5.088   1.577  1.1413  0.3444  1.2996
  712SOL    HW3 2615   2.556   4.982   1.506  1.3921 -0.3037  2.5222
  712SOL    MW4 2616   2.539   5.066   1.522  0.0190 -0.0275  0.1052
  713SOL     OW 2617   3.569   3.423   1.790  0.2745  0.1177  0.1989
  713SOL    HW2 2618   3.558   3.339   1.744  0.9617  0.2179 -0.1766
  713SOL    HW3 2619   3.637   3.468   1.739 -0.5477  1.1809  0.0134
  713SOL    MW4 2620   3.577   3.418   1.777  0.2567  0.2712  0.1249
  714SOL     OW 2621   3.099   2.108   4.523  0.1889  0.0626 -0.0445
  714SOL    HW2 2622   3.091   2.021   4.562  0.3202  0.5185  1.0523
  714SOL    HW3 2623   3.187   2.137   4.547 -0.6809  1.4446  1.7078
  714SOL    MW4 2624   3.110   2.101   4.532  0.0914  0.3051  0.3314
  715SOL     OW 2625   6.133   0.638   5.215  0.5236 -0.1192  0.1787
  715SOL    HW2 2626   6.114   0.554   5.257 -0.3746  0.6779  1.4144
  715SOL    HW3 2627   6.069   0.645   5.144 -0.1071  0.0005  0.7546
  715SOL    MW4 2628   6.122   0.628   5.211  0.3219  0.0018  0.4177
  716SOL     OW 2629   0.307   2.646   4.415 -0.6664 -0.0021  0.7186
  716SOL    HW2 2630   0.212   2.650   4.424 -0.7358  2.2319 -0.4247
  716SOL    HW3 2631   0.340   2.695   4.491 -0.4617  0.0373  0.6046
  716SOL    MW4 2632   0.299   2.653   4.427 -0.6486  0.2978  0.5527
  717SOL     OW 2633   5.417   1.222   3.617 -0.2239 -0.3727  0.2013
  717SOL    HW2 2634   5.496   1.270   3.641  1.3300 -1.5652 -2.1972
  717SOL    HW3 2635   5.444   1.165   3.546 -2.8544 -2.1576  0.4964
  717SOL    MW4 2636   5.431   1.221   3.611 -0.3659 -0.7655 -0.0762
  718SOL     OW 2637   3.548   0.161   1.232  0.4485 -0.2450 -0.4303
  718SOL    HW2 2638   3.537   0.140   1.325 -1.3526  0.2155 -0.4917
  718SOL    HW3 2639   3.631   0.122   1.208  0.2416 -1.6846  1.0188
  718SOL    MW4 2640   3.557   0.153   1.241  0.1836 -0.3742 -0.2472
  719SOL     OW 2641   2.828   3.254   5.357  0.6258  0.8697 -0.2126
  719SOL    HW2 2642   2.825   3.299   5.273  1.1634  1.2419 -0.0353
  719SOL    HW3 2643   2.760   3.187   5.350  1.9967 -0.4730 -1.7282
  719SOL    MW4 2644   2.819   3.251   5.345  0.8776  0.7416 -0.3891
  720SOL     OW 2645   1.697   2.921   3.617  0.1975 -0.0618  0.1593
  720SOL    HW2 2646   1.786   2.948   3.594 -0.1972  1.0737 -0.0913
  720SOL    HW3 2647   1.659   2.892   3.534 -0.5187  1.9949 -0.2877
  720SOL    MW4 2648   1.704   2.920   3.603  0.0509  0.3594  0.0673
  721SOL     OW 2649   2.140   2.828   3.190 -0.0383  0.1318  0.5405
  721SOL    HW2 2650   2.157   2.921   3.202 -0.4625  0.2258  0.4154
  721SOL    HW3 2651   2.094   2.801   3.270  2.0615 -0.4800  1.6250
  721SOL    MW4 2652   2.136   2.836   3.202  0.1828  0.0635  0.6671
  722SOL     OW 2653   1.740   3.205   3.255  1.0064  0.2290 -0.2018
  722SOL    HW2 2654   1.690   3.198   3.337 -0.2714 -1.4459 -1.0656
  722SOL    HW3 2655   1.829   3.180   3.279  1.5211  3.1357  1.3462
  722SOL    MW4 2656   1.745   3.201   3.269  0.9057  0.3915 -0.1115
  723SOL     OW 2657   3.510   6.043   5.114 -0.3928  0.3967 -0.7477
  723SOL    HW2 2658   3.477   6.093   5.189  0.7783 -0.3029  0.2775
  723SOL    HW3 2659   3.527   5.956   5.149 -3.6198 -1.2500 -2.7641
  723SOL    MW4 2660   3.508   6.038   5.129 -0.6641  0.0871 -0.8785
  724SOL     OW 2661   5.028   4.110   4.158 -0.2383 -0.3136  0.0273
  724SOL    HW2 2662   5.025   4.015   4.154 -0.8050 -0.2433 -2.0465
  724SOL    HW3 2663   4.994   4.131   4.245 -4.0085 -1.8873 -0.8641
  724SOL    MW4 2664   5.023   4.100   4.169 -0.8105 -0.5119 -0.3639
  725SOL     OW 2665   6.073   1.962   3.149  0.6821  0.2076 -0.2337
  725SOL    HW2 2666   6.119   1.881   3.127 -0.9511 -0.9768  0.3963
  725SOL    HW3 2667   6.065   1.959   3.245 -3.8655 -1.6726 -0.4187
  725SOL    MW4 2668   6.078   1.951   3.159 -0.1334 -0.1967 -0.1750
  726SOL     OW 2669   4.598   1.502   4.228 -0.2541  0.0013 -0.3669
  726SOL    HW2 2670   4.594   1.558   4.150  1.4584  0.6208 -0.0520
  726SOL    HW3 2671   4.685   1.519   4.265 -1.1139 -0.0497  1.8415
  726SOL    MW4 2672   4.609   1.512   4.222 -0.1416  0.0763 -0.0340
  727SOL     OW 2673   1.983   2.504   5.328 -0.8885  0.3301  0.5814
  727SOL    HW2 2674   1.981   2.595   5.298  0.0888  0.3024  0.4194
  727SOL    HW3 2675   1.914   2.500   5.395 -1.9077  0.8198 -0.4161
  727SOL    MW4 2676   1.973   2.515   5.333 -0.8940  0.3911  0.4284
  728SOL     OW 2677   3.458   4.088   5.820  0.3305  0.1960 -0.2530
  728SOL    HW2 2678   3.513   4.132   5.885 -0.2451 -1.5682  1.5583
  728SOL    HW3 2679   3.391   4.153   5.798  0.6288  0.9002  0.8191
  728SOL    MW4 2680   3.456   4.103   5.826  0.2939  0.0562  0.1274
  729SOL     OW 2681   4.716   3.037   2.964 -1.0082 -0.0478  0.1471
  729SOL    HW2 2682   4.626   3.010   2.945 -0.0790 -2.3918 -1.3256
  729SOL    HW3 2683   4.767   2.956   2.960  1.4333  1.4232 -0.7063
  729SOL    MW4 2684   4.711   3.023   2.961 -0.5635 -0.1630 -0.1598
  730SOL     OW 2685   4.200   5.196   1.795 -0.6969 -0.2933 -0.3352
  730SOL    HW2 2686   4.134   5.201   1.864 -0.2802  1.0356  0.0016
  730SOL    HW3 2687   4.154   5.156   1.721 -1.1887 -1.5777  0.6395
  730SOL    MW4 2688   4.185   5.192   1.794 -0.7068 -0.2874 -0.1621
  731SOL     OW 2689   3.454   4.465   2.457  0.0271  0.3909  0.0553
  731SOL    HW2 2690   3.411   4.547   2.478 -0.7003 -0.2948  1.3894
  731SOL    HW3 2691   3.398   4.424   2.391 -0.8056  0.0032  0.9795
  731SOL    MW4 2692   3.441   4.470   2.451 -0.1787  0.2493  0.3532
  732SOL     OW 2693   4.353   2.028   1.253  0.5751 -0.1049 -0.4055
  732SOL    HW2 2694   4.394   2.062   1.173 -0.3806 -1.8011 -1.7022
  732SOL    HW3 2695   4.265   2.066   1.252  0.3755 -0.5543 -0.4867
  732SOL    MW4 2696   4.347   2.037   1.242  0.4227 -0.3880 -0.5873
  733SOL     OW 2697   4.364   3.497   0.494  0.2826 -0.1441 -0.3566
  733SOL    HW2 2698   4.442   3.480   0.546  0.1546  1.1400  0.3034
  733SOL    HW3 2699   4.386   3.576   0.444 -1.8231  2.6643  2.6904
  733SOL    MW4 2700   4.377   3.505   0.494 -0.0121  0.3959  0.1325
  734SOL     OW 2701  -0.003   5.113   1.271 -0.7643 -0.1174  0.1665
  734SOL    HW2 2702   0.056   5.040   1.253  0.1557  0.8562 -0.9037
  734SOL    HW3 2703  -0.081   5.094   1.219 -0.1313  0.1488 -0.8949
  734SOL    MW4 2704  -0.006   5.101   1.262 -0.5594  0.0462 -0.1147
  735SOL     OW 2705   1.738   5.603   3.770 -0.1387 -0.0636  0.1569
  735SOL    HW2 2706   1.719   5.634   3.858  2.7931 -0.0989  0.9224
  735SOL    HW3 2707   1.804   5.535   3.783 -1.0185 -1.4068 -1.9734
  735SOL    MW4 2708   1.744   5.598   3.783  0.1320 -0.2454 -0.0231
  736SOL     OW 2709   2.854   3.760   4.781 -0.3379 -0.7044  0.6236
  736SOL    HW2 2710   2.760   3.774   4.788 -0.3382 -0.8580  0.9706
  736SOL    HW3 2711   2.892   3.845   4.800 -0.4102 -0.5944  0.2865
  736SOL    MW4 2712   2.847   3.773   4.784 -0.3475 -0.7101  0.6249
  737SOL     OW 2713   1.160   0.130   3.481 -0.5269 -0.1884  0.2739
  737SOL    HW2 2714   1.231   0.165   3.535 -1.2249  3.3170 -0.8471
  737SOL    HW3 2715   1.200   0.115   3.396 -0.3522 -1.8546  0.6133
  737SOL    MW4 2716   1.175   0.133   3.477 -0.5959  0.0542  0.1708
  738SOL     OW 2717   0.541   3.319   3.905  0.2465  0.0015  0.0113
  738SOL    HW2 2718   0.632   3.344   3.918 -0.2388  1.5836  0.5810
  738SOL    HW3 2719   0.520   3.345   3.815  0.1534  0.3048  0.1205
  738SOL    MW4 2720   0.550   3.326   3.895  0.1702  0.2503  0.1009
  739SOL     OW 2721   3.910   2.291   0.441 -0.0410  0.0045  0.1111
  739SOL    HW2 2722   3.901   2.198   0.464 -0.7645  0.2263  0.7467
  739SOL    HW3 2723   3.824   2.317   0.409  0.3015  0.3337 -0.5616
  739SOL    MW4 2724   3.898   2.282   0.440 -0.0913  0.0772  0.1062
  740SOL     OW 2725   1.513   0.603   1.414  0.0104  0.8282  0.0410
  740SOL    HW2 2726   1.501   0.604   1.319  0.9139 -0.6869 -0.1370
  740SOL    HW3 2727   1.470   0.522   1.442  0.1959  1.0080  0.8602
  740SOL    MW4 2728   1.506   0.592   1.405  0.1541  0.6520  0.1256
  741SOL     OW 2729   5.926   0.078   2.639  0.2067 -0.1470 -0.0724
  741SOL    HW2 2730   5.981   0.105   2.712  2.2664 -1.9316 -0.8521
  741SOL    HW3 2731   5.963   0.122   2.563  1.3593 -2.1757 -0.7769
  741SOL    MW4 2732   5.938   0.087   2.639  0.6305 -0.6501 -0.2682
  742SOL     OW 2733   2.554   3.399   3.668  0.1129  0.2932 -0.9999
  742SOL    HW2 2734   2.621   3.360   3.612  1.3023  1.1950 -0.2480
  742SOL    HW3 2735   2.577   3.491   3.673  0.2332  0.1966  1.1879
  742SOL    MW4 2736   2.566   3.406   3.662  0.2857  0.3994 -0.6121
  743SOL     OW 2737   1.879   6.353   4.872  0.0861  0.0186  0.0266
  743SOL    HW2 2738   1.826   6.419   4.827 -1.2046  0.3860  1.9874
  743SOL    HW3 2739   1.826   6.273   4.867 -0.1296  0.0919  0.9537
  743SOL    MW4 2740   1.865   6.351   4.865 -0.1127  0.0768  0.4076
  744SOL     OW 2741   3.527   1.933   1.948  0.1858  0.0159  0.2488
  744SOL    HW2 2742   3.603   1.960   1.999  0.2631  0.4235 -0.0756
  744SOL    HW3 2743   3.457   1.922   2.012  0.2378  0.6807  0.4238
  744SOL    MW4 2744   3.527   1.935   1.963  0.2028  0.1574  0.2290
  745SOL     OW 2745   2.885   2.250   4.680 -0.3721  0.1040 -0.3925
  745SOL    HW2 2746   2.859   2.166   4.643 -0.7572  0.0469 -0.0016
  745SOL    HW3 2747   2.818   2.269   4.746  1.6565 -1.0722  2.1725
  745SOL    MW4 2748   2.873   2.242   4.684 -0.1552 -0.0587 -0.0025
  746SOL     OW 2749   1.641   1.131   2.488 -0.9588 -0.1605 -0.6407
  746SOL    HW2 2750   1.567   1.158   2.543 -0.9532 -0.3450 -0.5430
  746SOL    HW3 2751   1.716   1.133   2.547 -0.8159  0.3949 -0.8299
  746SOL    MW4 2752   1.641   1.135   2.503 -0.9392 -0.1115 -0.6528
  747SOL     OW 2753   2.232   2.266   1.644 -0.2597 -0.2712 -0.3153
  747SOL    HW2 2754   2.225   2.200   1.574  0.7373 -0.3840 -0.3169
  747SOL    HW3 2755   2.146   2.264   1.687 -0.7831 -0.4248 -1.3305
  747SOL    MW4 2756   2.219   2.257   1.640 -0.1972 -0.3064 -0.4494
  748SOL     OW 2757   4.039   5.122   3.284 -0.1510 -0.1712  0.8036
  748SOL    HW2 2758   4.022   5.043   3.335 -0.1290 -0.4120  0.4418
  748SOL    HW3 2759   3.964   5.179   3.302 -1.4122 -1.2260 -0.7964
  748SOL    MW4 2760   4.027   5.119   3.293 -0.3145 -0.3422  0.5447
  749SOL     OW 2761   3.564   2.709   1.563  0.7418  0.0080  0.2094
  749SOL    HW2 2762   3.548   2.630   1.511 -0.8666  0.3861  0.0920
  749SOL    HW3 2763   3.582   2.676   1.652 -2.3901 -0.4925  0.7778
  749SOL    MW4 2764   3.564   2.694   1.568  0.1164 -0.0082  0.2689
  750SOL     OW 2765   3.285   1.364   5.586 -0.1846  0.6062 -0.2269
  750SOL    HW2 2766   3.267   1.390   5.496  0.9739  0.3292 -0.5585
  750SOL    HW3 2767   3.205   1.384   5.634 -0.2934  2.1399 -1.0194
  750SOL    MW4 2768   3.272   1.370   5.580 -0.0461  0.7720 -0.3752
  751SOL     OW 2769   3.600   3.622   2.304  1.0099 -0.3409 -0.1113
  751SOL    HW2 2770   3.539   3.670   2.248  0.3632 -0.4188  0.5123
  751SOL    HW3 2771   3.649   3.690   2.350 -0.0251 -0.2667  0.9000
  751SOL    MW4 2772   3.599   3.638   2.303  0.7880 -0.3414  0.1044
  752SOL     OW 2773   0.750   5.274   5.581 -0.2839  0.5875 -0.3729
  752SOL    HW2 2774   0.817   5.219   5.540 -1.4335 -1.0286 -0.1725
  752SOL    HW3 2775   0.737   5.346   5.519  0.4070 -0.0127 -1.2360
  752SOL    MW4 2776   0.757   5.277   5.567 -0.3444  0.2951 -0.4603
  753SOL     OW 2777   4.475   0.217   6.243 -0.0323 -0.2917  0.7074
  753SOL    HW2 2778   4.400   0.266   6.275 -1.3525 -2.1403  0.5707
  753SOL    HW3 2779   4.486   0.246   6.153 -0.4380  0.1467  0.7958
  753SOL    MW4 2780   4.467   0.228   6.236 -0.2600 -0.4778  0.7010
  754SOL     OW 2781   1.490   5.314   5.335  0.3978  0.3047 -0.1801
  754SOL    HW2 2782   1.432   5.324   5.260 -1.3172  0.1859  1.0717
  754SOL    HW3 2783   1.552   5.246   5.309 -1.3456 -1.1122 -0.8188
  754SOL    MW4 2784   1.491   5.306   5.322 -0.0585  0.1021 -0.0992
  755SOL     OW 2785   2.237   3.161   6.351  0.4267  0.4687 -0.1960
  755SOL    HW2 2786   2.316   3.154   6.298 -0.2452  1.2229 -1.3214
  755SOL    HW3 2787   2.176   3.211   6.298 -0.0155  1.9424  1.6089
  755SOL    MW4 2788   2.240   3.166   6.337  0.2797  0.7626 -0.1063
  756SOL     OW 2789   0.475   2.136   5.486  0.4806 -0.1529 -0.1739
  756SOL    HW2 2790   0.391   2.097   5.511  1.0631 -0.2794  1.6992
  756SOL    HW3 2791   0.503   2.186   5.563  1.4584  1.0666 -1.2690
  756SOL    MW4 2792   0.468   2.137   5.499  0.6865 -0.0087 -0.0713
  757SOL     OW 2793   0.635   0.955   3.673 -0.0343 -0.6502  0.2172
  757SOL    HW2 2794   0.573   1.028   3.674  0.3082 -0.3516  1.5176
  757SOL    HW3 2795   0.669   0.951   3.762  1.6172 -1.0001 -0.3902
  757SOL    MW4 2796   0.631   0.964   3.685  0.2288 -0.6570  0.3086
  758SOL     OW 2797   4.650   0.130   2.223 -0.1143  0.0212 -0.2885
  758SOL    HW2 2798   4.571   0.081   2.200 -0.7615  0.9941 -0.1853
  758SOL    HW3 2799   4.700   0.133   2.141  0.4966 -1.7790 -0.0215
  758SOL    MW4 2800   4.646   0.124   2.209 -0.1191 -0.0880 -0.2396
  759SOL     OW 2801   5.038   0.042   2.223 -0.3167 -0.3204 -0.8657
  759SOL    HW2 2802   5.117  -0.011   2.214 -0.8058 -1.5909  1.4350
  759SOL    HW3 2803   5.062   0.128   2.189  1.8898 -0.8151 -0.6821
  759SOL    MW4 2804   5.052   0.046   2.217 -0.0901 -0.5533 -0.5379
  760SOL     OW 2805   1.261   1.582   4.431  0.2084  0.0967 -0.5871
  760SOL    HW2 2806   1.270   1.608   4.340 -0.9209  2.9268 -0.0040
  760SOL    HW3 2807   1.167   1.572   4.444  0.2519  0.8675  0.5081
  760SOL    MW4 2808   1.250   1.584   4.421  0.0652  0.5718 -0.3656
  761SOL     OW 2809   0.580   1.480   5.406  0.7120 -0.1914  0.4076
  761SOL    HW2 2810   0.644   1.409   5.397 -0.4723 -1.2539  0.0645
  761SOL    HW3 2811   0.529   1.457   5.483  1.9905  1.7307  1.9490
  761SOL    MW4 2812   0.582   1.468   5.415  0.7244 -0.0780  0.5657
  762SOL     OW 2813   0.106   1.499   1.012 -0.2630  0.8653  0.1045
  762SOL    HW2 2814   0.155   1.502   0.930  3.0560 -0.4293  1.8287
  762SOL    HW3 2815   0.084   1.406   1.024  0.0749  0.8867  1.0401
  762SOL    MW4 2816   0.110   1.487   1.003  0.2195  0.6973  0.4554
  763SOL     OW 2817   6.024   4.071   2.301 -0.4009 -0.1972 -0.0281
  763SOL    HW2 2818   6.087   4.143   2.297  1.0700 -1.1840  2.5980
  763SOL    HW3 2819   6.068   3.997   2.260 -0.5300 -0.4687  0.3165
  763SOL    MW4 2820   6.038   4.071   2.295 -0.2238 -0.3632  0.3639
  764SOL     OW 2821   6.243   4.505   4.491 -0.3068 -0.5188 -0.2662
  764SOL    HW2 2822   6.226   4.446   4.564 -0.2147  1.2247  1.2415
  764SOL    HW3 2823   6.163   4.501   4.437 -0.8161 -1.0381  0.5146
  764SOL    MW4 2824   6.230   4.497   4.493 -0.3618 -0.3573  0.0357
  765SOL     OW 2825   4.005   5.808   6.249  0.1325  0.1377 -0.1252
  765SOL    HW2 2826   4.075   5.819   6.314  0.5213  1.0148 -0.6765
  765SOL    HW3 2827   3.956   5.890   6.253  0.1256  0.1756 -0.8967
  765SOL    MW4 2828   4.008   5.821   6.258  0.1829  0.2584 -0.2997
  766SOL     OW 2829   4.744   4.124   0.081  0.0097  0.0405  0.0123
  766SOL    HW2 2830   4.772   4.049   0.135  0.8012  0.8327  0.7421
  766SOL    HW3 2831   4.656   4.100   0.050  0.7273 -1.7244 -0.8062
  766SOL    MW4 2832   4.736   4.111   0.084  0.2088 -0.0878  0.0006
  767SOL     OW 2833   0.675   4.995   1.108  0.3895 -0.1678  0.1498
  767SOL    HW2 2834   0.683   5.055   1.034 -1.7356  0.3644  0.2988
  767SOL    HW3 2835   0.677   4.907   1.069 -1.6003  0.1185 -0.6781
  767SOL    MW4 2836   0.676   4.991   1.093 -0.1534 -0.0598  0.0602
  768SOL     OW 2837   1.845   3.875   2.939 -0.0572  0.9778  0.3417
  768SOL    HW2 2838   1.854   3.880   2.844  3.0051  0.5559  0.5175
  768SOL    HW3 2839   1.882   3.790   2.962 -1.5552  0.6839  1.8920
  768SOL    MW4 2840   1.851   3.864   2.929  0.1492  0.8834  0.5694
  769SOL     OW 2841   5.881   5.228   2.918 -0.1873 -0.9921 -0.0440
  769SOL    HW2 2842   5.951   5.167   2.893 -0.1268 -1.0947  0.3641
  769SOL    HW3 2843   5.800   5.182   2.895 -0.1575 -1.4279  0.6801
  769SOL    MW4 2844   5.880   5.214   2.912 -0.1754 -1.0631  0.1054
  770SOL     OW 2845   5.903   3.933   0.582 -0.8022  0.6993 -0.6038
  770SOL    HW2 2846   5.955   3.862   0.620 -2.4570 -0.9239 -1.2284
  770SOL    HW3 2847   5.917   4.007   0.642 -0.1897 -0.5822  0.9177
  770SOL    MW4 2848   5.912   3.933   0.595 -0.9397  0.3161 -0.4855
  771SOL     OW 2849   6.377   1.534   0.490  0.3853 -0.1417  0.1839
  771SOL    HW2 2850   6.372   1.495   0.577  1.0959  0.2574  0.4183
  771SOL    HW3 2851   6.452   1.491   0.448  1.0374  0.7852  0.3662
  771SOL    MW4 2852   6.386   1.524   0.496  0.5651  0.0333  0.2389
  772SOL     OW 2853   6.363   1.835   1.858 -0.3300 -0.2530 -0.0104
  772SOL    HW2 2854   6.351   1.772   1.930 -0.5075  0.4889  0.6150
  772SOL    HW3 2855   6.458   1.846   1.852 -0.3240 -0.1462  0.2581
  772SOL    MW4 2856   6.374   1.828   1.867 -0.3526 -0.1411  0.1076
  773SOL     OW 2857   0.705   4.687   6.329 -0.0587  0.2187 -0.2020
  773SOL    HW2 2858   0.774   4.623   6.312  0.4186  0.7476 -0.2796
  773SOL    HW3 2859   0.646   4.678   6.254 -0.1733 -0.3546 -0.0491
  773SOL    MW4 2860   0.706   4.677   6.317 -0.0109  0.2128 -0.1920
  774SOL     OW 2861   3.561   4.709   5.575 -0.0508 -0.3873 -0.4658
  774SOL    HW2 2862   3.471   4.701   5.606 -0.4319  1.8942 -0.8229
  774SOL    HW3 2863   3.555   4.765   5.498  1.9205  2.1116  1.0616
  774SOL    MW4 2864   3.548   4.715   5.569  0.1590  0.2434 -0.3114
  775SOL     OW 2865   3.461   6.390   3.752  0.2820 -0.2808  0.0519
  775SOL    HW2 2866   3.389   6.452   3.742  0.1072 -0.4742  0.0970
  775SOL    HW3 2867   3.421   6.305   3.733  0.5853 -0.3483 -0.2906
  775SOL    MW4 2868   3.446   6.387   3.748  0.2990 -0.3152  0.0127
  776SOL     OW 2869   5.075   1.577   2.457  0.0011 -0.0956 -0.7958
  776SOL    HW2 2870   5.105   1.579   2.548  0.4888 -1.3459 -0.9032
  776SOL    HW3 2871   4.992   1.625   2.458  0.1470  0.1698  0.2503
  776SOL    MW4 2872   5.068   1.584   2.469  0.0847 -0.2255 -0.6720
  777SOL     OW 2873   2.184   5.887   5.928 -0.0999  0.1736  0.0677
  777SOL    HW2 2874   2.090   5.895   5.944 -0.3841  0.2107 -1.4009
  777SOL    HW3 2875   2.209   5.804   5.968 -0.7778  0.1362  0.4238
  777SOL    MW4 2876   2.175   5.877   5.935 -0.2268  0.1736 -0.0791
  778SOL     OW 2877   0.671   3.025   2.240  0.3923  0.0476  0.0564
  778SOL    HW2 2878   0.580   3.055   2.237  1.0517  2.1997 -2.1041
  778SOL    HW3 2879   0.716   3.090   2.294  0.6466 -1.0901  1.2434
  778SOL    MW4 2880   0.665   3.038   2.247  0.5129  0.1814 -0.0721
  779SOL     OW 2881   3.300   3.194   6.360  0.1538 -0.1373 -0.0551
  779SOL    HW2 2882   3.363   3.160   6.297  0.5952 -0.8849  0.7580
  779SOL    HW3 2883   3.275   3.279   6.326 -2.0100 -1.7397 -2.8921
  779SOL    MW4 2884   3.305   3.200   6.348 -0.0734 -0.4474 -0.3222
  780SOL     OW 2885   1.272   4.948   3.061 -0.0174  0.4460 -0.5831
  780SOL    HW2 2886   1.345   5.010   3.051  1.4035 -0.3971  2.8967
  780SOL    HW3 2887   1.241   4.962   3.150 -2.1013 -1.3950 -0.9381
  780SOL    MW4 2888   1.278   4.958   3.071 -0.1049  0.0919 -0.1708
  781SOL     OW 2889   1.165   1.985   2.174 -0.4699  0.1133 -0.3985
  781SOL    HW2 2890   1.144   1.961   2.084  0.3306  1.8961 -1.1031
  781SOL    HW3 2891   1.242   2.040   2.167 -0.5400  0.5053  1.3700
  781SOL    MW4 2892   1.172   1.989   2.161 -0.3735  0.4002 -0.2582
  782SOL     OW 2893   5.509   2.043   3.144 -0.0559  0.6650 -0.2238
  782SOL    HW2 2894   5.495   2.048   3.239 -0.5828  0.1955 -0.2734
  782SOL    HW3 2895   5.544   2.129   3.120  0.9615  0.4899  0.5398
  782SOL    MW4 2896   5.512   2.055   3.153  0.0088  0.5799 -0.1296
  783SOL     OW 2897   5.145   5.592   1.989  0.5841 -0.2969 -0.3034
  783SOL    HW2 2898   5.148   5.595   1.894 -0.8035 -2.5108 -0.4828
  783SOL    HW3 2899   5.176   5.504   2.012 -1.4532 -0.7356  1.0917
  783SOL    MW4 2900   5.150   5.581   1.980  0.1322 -0.6469 -0.1430
  784SOL     OW 2901   5.283   2.497   0.482  0.9134  0.1777  0.5307
  784SOL    HW2 2902   5.318   2.415   0.448  1.6436  0.4736  0.5668
  784SOL    HW3 2903   5.227   2.530   0.412 -0.2222 -0.8566  0.9095
  784SOL    MW4 2904   5.280   2.491   0.468  0.8599  0.0802  0.5855
  785SOL     OW 2905   5.738   0.718   4.234 -0.2681 -0.0210 -0.0051
  785SOL    HW2 2906   5.826   0.734   4.267  0.1581  0.2888 -1.2445
  785SOL    HW3 2907   5.685   0.790   4.270 -0.1828 -0.5631  1.2716
  785SOL    MW4 2908   5.743   0.729   4.243 -0.2006 -0.0517 -0.0002
  786SOL     OW 2909   0.070   5.682   1.683  0.3421 -0.0440 -0.4094
  786SOL    HW2 2910   0.001   5.746   1.693  1.0628  0.4365  2.5305
  786SOL    HW3 2911   0.041   5.607   1.736  1.8869  0.0875  0.7036
  786SOL    MW4 2912   0.057   5.680   1.692  0.6410  0.0368  0.1254
  787SOL     OW 2913   5.444   2.115   5.049 -0.6330  0.3842 -0.2647
  787SOL    HW2 2914   5.468   2.077   5.134 -0.8262  0.1969 -0.2950
  787SOL    HW3 2915   5.489   2.200   5.048 -0.0484  0.0810 -0.2743
  787SOL    MW4 2916   5.453   2.122   5.060 -0.5814  0.3195 -0.2699
  788SOL     OW 2917   3.754   2.603   5.205  0.6779  0.2328 -0.7460
  788SOL    HW2 2918   3.770   2.643   5.291 -0.6074  2.7987 -1.6052
  788SOL    HW3 2919   3.688   2.537   5.222  0.0377  1.0790  0.1977
  788SOL    MW4 2920   3.748   2.600   5.219  0.4239  0.6830 -0.7348
  789SOL     OW 2921   1.094   5.834   6.362 -0.4645  0.4727  0.4708
  789SOL    HW2 2922   1.023   5.850   6.300 -0.6276  0.0327  0.5353
  789SOL    HW3 2923   1.057   5.857   6.447  0.2003  2.3924  0.2753
  789SOL    MW4 2924   1.080   5.839   6.365 -0.3983  0.6680  0.4535
  790SOL     OW 2925   2.497   5.750   4.377  0.3362  0.1816  0.6362
  790SOL    HW2 2926   2.456   5.833   4.403  0.4696  0.4602 -0.0111
  790SOL    HW3 2927   2.590   5.762   4.399  0.5553  0.6417 -0.4435
  790SOL    MW4 2928   2.504   5.763   4.383  0.3827  0.2791  0.4083
  791SOL     OW 2929   4.827   2.664   3.667 -0.0088 -0.6079 -0.4061
  791SOL    HW2 2930   4.772   2.608   3.614  1.3768 -2.6185  0.1721
  791SOL    HW3 2931   4.860   2.607   3.737  2.6495  0.4875 -0.6456
  791SOL    MW4 2932   4.824   2.649   3.670  0.5247 -0.7286 -0.3614
  792SOL     OW 2933   1.676   6.343   5.229 -0.0971  0.7374  0.1416
  792SOL    HW2 2934   1.756   6.329   5.179  0.1840  3.0184 -0.1663
  792SOL    HW3 2935   1.611   6.287   5.187  1.4071 -1.5572  0.7209
  792SOL    MW4 2936   1.678   6.334   5.217  0.1384  0.7356  0.1774
  793SOL     OW 2937   1.051   3.842   4.059 -0.0753 -0.1330  0.4847
  793SOL    HW2 2938   1.053   3.898   3.981 -1.6839 -0.1409  0.4167
  793SOL    HW3 2939   1.009   3.896   4.126  0.1339 -0.5881  0.9852
  793SOL    MW4 2940   1.046   3.857   4.058 -0.2599 -0.1941  0.5418
  794SOL     OW 2941   5.932   0.340   5.097 -0.1753  0.0702  0.1027
  794SOL    HW2 2942   5.996   0.375   5.159 -1.4547  0.7762  1.0891
  794SOL    HW3 2943   5.917   0.250   5.126 -0.2385  0.1699  0.3831
  794SOL    MW4 2944   5.938   0.333   5.109 -0.3525  0.1765  0.2699
  795SOL     OW 2945   3.411   5.414   0.393 -0.2354 -0.1216  0.1202
  795SOL    HW2 2946   3.413   5.384   0.484  0.5557 -0.0560  0.1258
  795SOL    HW3 2947   3.495   5.457   0.380  0.1332 -1.1502 -0.9887
  795SOL    MW4 2948   3.422   5.416   0.404 -0.0824 -0.2487 -0.0254
  796SOL     OW 2949   3.127   5.114   0.220  0.3406 -0.4886 -0.0808
  796SOL    HW2 2950   3.213   5.146   0.194  0.2165  1.3484  1.5245
  796SOL    HW3 2951   3.097   5.176   0.286 -1.5828 -1.9222  0.5031
  796SOL    MW4 2952   3.134   5.126   0.226  0.0704 -0.4354  0.2080
  797SOL     OW 2953   0.367   1.818   1.455 -0.6873  0.0153 -0.3810
  797SOL    HW2 2954   0.322   1.763   1.519  1.1668  1.7947  2.6537
  797SOL    HW3 2955   0.450   1.772   1.439  0.4510  1.2806  1.4425
  797SOL    MW4 2956   0.372   1.804   1.461 -0.2925  0.4170  0.2600
  798SOL     OW 2957   5.922   2.304   2.928  0.7296  0.0671  0.4785
  798SOL    HW2 2958   5.886   2.272   3.011 -1.1028  1.4908  0.2940
  798SOL    HW3 2959   5.870   2.259   2.861  1.8629 -0.6961  0.0958
  798SOL    MW4 2960   5.910   2.294   2.930  0.6374  0.1542  0.4037
  799SOL     OW 2961   3.195   1.146   1.881  0.2859  0.4204  0.0227
  799SOL    HW2 2962   3.130   1.093   1.928 -1.0109  0.0183 -2.0980
  799SOL    HW3 2963   3.277   1.096   1.890 -0.3326 -0.5748  0.2981
  799SOL    MW4 2964   3.198   1.132   1.888  0.0332  0.2361 -0.2208
  800SOL     OW 2965   6.020   6.359   0.756 -0.0475 -0.1895 -0.4326
  800SOL    HW2 2966   5.943   6.357   0.812 -0.2718 -1.3056 -0.7629
  800SOL    HW3 2967   6.076   6.426   0.795 -0.4688 -0.5110  0.7604
  800SOL    MW4 2968   6.017   6.368   0.769 -0.1326 -0.3792 -0.3187
  801SOL     OW 2969   3.887   2.503   4.835  0.4072  0.2633 -0.6884
  801SOL    HW2 2970   3.871   2.596   4.852 -1.2185 -0.0456 -0.2819
  801SOL    HW3 2971   3.982   2.495   4.827  0.6142  1.8581 -0.1142
  801SOL    MW4 2972   3.897   2.514   4.836  0.2201  0.4330 -0.5590
  802SOL     OW 2973   2.534   1.726   1.001 -0.2495 -0.4289 -0.3317
  802SOL    HW2 2974   2.569   1.751   1.087 -1.3552 -1.7790  0.5578
  802SOL    HW3 2975   2.570   1.791   0.941  1.0553  0.1927  1.0460
  802SOL    MW4 2976   2.543   1.738   1.005 -0.2232 -0.5250 -0.0325
  803SOL     OW 2977   4.560   3.125   5.425 -1.2280 -0.5995  0.0777
  803SOL    HW2 2978   4.544   3.190   5.494 -0.3211 -0.4155  0.1368
  803SOL    HW3 2979   4.656   3.123   5.417 -1.3163 -0.7077 -1.0997
  803SOL    MW4 2980   4.571   3.134   5.433 -1.1200 -0.5895 -0.0698
  804SOL     OW 2981   0.663   3.884   3.556  0.4707  0.5831  0.1630
  804SOL    HW2 2982   0.579   3.928   3.570  0.5689  1.0337 -0.6134
  804SOL    HW3 2983   0.643   3.813   3.494  0.3219 -0.4657  1.3706
  804SOL    MW4 2984   0.650   3.881   3.550  0.4640  0.5041  0.2199
  805SOL     OW 2985   2.031   5.434   0.827 -0.1801 -0.1960  0.0105
  805SOL    HW2 2986   1.963   5.374   0.796  0.4999 -0.6681 -0.5864
  805SOL    HW3 2987   2.013   5.444   0.920  0.0119 -1.7536  0.2429
  805SOL    MW4 2988   2.019   5.428   0.835 -0.0651 -0.4638 -0.0376
  806SOL     OW 2989   6.241   6.347   4.161 -0.0634 -0.4266  0.1711
  806SOL    HW2 2990   6.161   6.397   4.180 -0.7837 -0.8178 -1.6549
  806SOL    HW3 2991   6.246   6.345   4.066  1.4439 -1.5195  0.2391
  806SOL    MW4 2992   6.231   6.353   4.151  0.0405 -0.6224 -0.0608
  807SOL     OW 2993   2.657   5.582   4.915  0.8459  0.0481 -0.5740
  807SOL    HW2 2994   2.677   5.490   4.899  1.3606  0.2313 -0.9924
  807SOL    HW3 2995   2.732   5.630   4.881  0.6215  0.6227 -0.2798
  807SOL    MW4 2996   2.669   5.576   4.908  0.8842  0.1481 -0.5904
  808SOL     OW 2997   1.688   3.682   5.032 -0.3811 -0.5813 -0.4671
  808SOL    HW2 2998   1.748   3.681   4.958  1.6841 -1.0835  1.1235
  808SOL    HW3 2999   1.624   3.750   5.010  0.3616 -0.4629 -2.5082
  808SOL    MW4 3000   1.687   3.691   5.019 -0.0107 -0.6319 -0.5266
  809SOL     OW 3001   2.354   3.803   5.214 -0.6549  0.3921  0.7029
  809SOL    HW2 3002   2.387   3.796   5.304  0.9079  0.1343  0.1431
  809SOL    HW3 3003   2.426   3.769   5.160 -1.7271  0.1529 -0.6210
  809SOL    MW4 3004   2.368   3.797   5.219 -0.5902  0.3265  0.4544
  810SOL     OW 3005   0.631   1.441   2.554  0.4119 -0.1988 -0.0293
  810SOL    HW2 3006   0.698   1.443   2.487  0.3541 -0.2267 -0.0878
  810SOL    HW3 3007   0.582   1.523   2.543  1.6362  0.7526  1.2408
  810SOL    MW4 3008   0.633   1.452   2.544  0.5658 -0.0770  0.1305
  811SOL     OW 3009   2.899   3.044   5.079  0.0045  0.6730  0.2635
  811SOL    HW2 3010   2.923   3.076   5.166 -0.3529  0.8027  0.3159
  811SOL    HW3 3011   2.803   3.042   5.080 -0.0024  0.7840 -0.1672
  811SOL    MW4 3012   2.889   3.048   5.091 -0.0435  0.7047  0.2136
  812SOL     OW 3013   4.779   6.123   2.149  0.0345  0.6545  0.6989
  812SOL    HW2 3014   4.764   6.028   2.142  0.3612  0.4624  2.2536
  812SOL    HW3 3015   4.777   6.154   2.059 -0.1153 -0.8340  0.1605
  812SOL    MW4 3016   4.777   6.114   2.136  0.0578  0.4328  0.8329
  813SOL     OW 3017   4.890   3.207   5.048 -0.2294 -0.4056 -0.2856
  813SOL    HW2 3018   4.943   3.270   4.999 -1.2028 -1.0495 -2.2882
  813SOL    HW3 3019   4.897   3.236   5.139  1.0044  1.3588 -0.8767
  813SOL    MW4 3020   4.898   3.219   5.053 -0.1950 -0.2578 -0.6278
  814SOL     OW 3021   0.574   0.035   1.603  0.0415  0.3164 -0.6298
  814SOL    HW2 3022   0.610  -0.053   1.612 -0.5459  0.2040  0.8988
  814SOL    HW3 3023   0.582   0.055   1.509 -2.1422 -2.3785 -1.5212
  814SOL    MW4 3024   0.579   0.026   1.592 -0.3241 -0.0540 -0.5458
  815SOL     OW 3025   2.022   3.029   2.098  0.2066  0.1558 -0.1258
  815SOL    HW2 3026   1.965   2.954   2.112  0.7567 -1.6962 -5.4663
  815SOL    HW3 3027   2.099   3.011   2.153  0.3580 -3.3595 -1.2532
  815SOL    MW4 3028   2.025   3.017   2.107  0.2992 -0.5524 -0.9792
  816SOL     OW 3029   2.465   0.182   4.751  0.8299  0.8418 -0.2685
  816SOL    HW2 3030   2.468   0.103   4.804  1.5688  0.0085 -1.5307
  816SOL    HW3 3031   2.439   0.251   4.813  1.2757 -0.1649  1.0740
  816SOL    MW4 3032   2.462   0.181   4.766  0.9862  0.5990 -0.2579
  817SOL     OW 3033   3.701   2.291   5.916  0.7963  0.0962  0.3737
  817SOL    HW2 3034   3.762   2.219   5.903  1.6402  0.3593  2.4575
  817SOL    HW3 3035   3.725   2.355   5.849  0.2114 -1.3820 -1.3194
  817SOL    MW4 3036   3.712   2.290   5.906  0.8304 -0.0641  0.4252
  818SOL     OW 3037   4.454   4.292   4.004 -0.2646  0.5305  0.6418
  818SOL    HW2 3038   4.475   4.238   4.080 -1.0657 -2.1659 -0.9159
  818SOL    HW3 3039   4.365   4.325   4.021  0.0989  1.1236  1.4470
  818SOL    MW4 3040   4.445   4.290   4.016 -0.3223  0.2530  0.5426
  819SOL     OW 3041   5.023   0.936   2.807  0.4407  0.1003 -0.0029
  819SOL    HW2 3042   5.019   0.955   2.713 -1.1378 -0.6030 -0.1124
  819SOL    HW3 3043   4.967   1.002   2.848  0.6559  0.0471  0.3880
  819SOL    MW4 3044   5.015   0.947   2.800  0.2608  0.0005  0.0342
  820SOL     OW 3045   2.680   3.045   0.565 -0.4424  0.3433 -0.0922
  820SOL    HW2 3046   2.634   3.077   0.488 -1.8774  1.8187  1.3121
  820SOL    HW3 3047   2.702   2.954   0.544 -2.5890  0.0723 -1.4548
  820SOL    MW4 3048   2.677   3.037   0.552 -0.9149  0.5022 -0.0867
  821SOL     OW 3049   4.348   6.420   0.811 -0.6075 -0.1855 -0.2123
  821SOL    HW2 3050   4.437   6.413   0.845 -0.3222 -0.3502 -0.9702
  821SOL    HW3 3051   4.330   6.514   0.812 -0.2281 -0.1025 -0.5187
  821SOL    MW4 3052   4.358   6.432   0.815 -0.5198 -0.1963 -0.3527
  822SOL     OW 3053   6.173   0.707   0.260  0.1469 -0.1466 -0.3911
  822SOL    HW2 3054   6.119   0.634   0.230  0.1224 -0.6829  0.9173
  822SOL    HW3 3055   6.207   0.680   0.345  0.6753  1.0999 -0.1704
  822SOL    MW4 3056   6.170   0.694   0.267  0.2134 -0.0529 -0.1893
  823SOL     OW 3057   0.086   4.548   4.520 -0.1671 -0.6927 -0.0588
  823SOL    HW2 3058   0.005   4.512   4.555 -0.2136 -0.0879  0.4742
  823SOL    HW3 3059   0.062   4.581   4.433 -0.0559 -2.1729 -0.6752
  823SOL    MW4 3060   0.073   4.548   4.513 -0.1586 -0.8082 -0.0698
  824SOL     OW 3061   4.426   4.693   4.267 -0.0455  0.2756  0.7199
  824SOL    HW2 3062   4.510   4.650   4.286  0.1335 -0.0905 -0.8132
  824SOL    HW3 3063   4.449   4.785   4.254  0.1756  0.1187 -0.0249
  824SOL    MW4 3064   4.440   4.700   4.268  0.0073  0.2066  0.4194
  825SOL     OW 3065   4.071   0.414   2.395  0.2895 -0.2276 -0.0832
  825SOL    HW2 3066   3.993   0.366   2.424  0.2323 -0.3343 -0.4103
  825SOL    HW3 3067   4.050   0.506   2.410 -1.0803 -0.0006 -2.8958
  825SOL    MW4 3068   4.058   0.419   2.401  0.1012 -0.2117 -0.4975
  826SOL     OW 3069   3.298   4.173   6.077  0.2259  0.5839  0.2085
  826SOL    HW2 3070   3.272   4.259   6.111 -0.9937  0.0081  0.7813
  826SOL    HW3 3071   3.391   4.182   6.058  0.0990  2.0639  0.1777
  826SOL    MW4 3072   3.307   4.186   6.079  0.0482  0.7032  0.2800
  827SOL     OW 3073   5.131   5.807   3.314  0.0303 -0.0075 -0.0040
  827SOL    HW2 3074   5.153   5.714   3.327 -0.5947 -0.1271  0.2692
  827SOL    HW3 3075   5.075   5.828   3.389  0.9287  0.8517  0.4435
  827SOL    MW4 3076   5.126   5.797   3.326  0.0663  0.0901  0.0911
  828SOL     OW 3077   5.388   2.774   3.469  0.0353 -0.0751  0.7860
  828SOL    HW2 3078   5.363   2.721   3.544  0.5081  1.4554  2.0678
  828SOL    HW3 3079   5.470   2.735   3.438 -0.6250 -1.2639  0.4726
  828SOL    MW4 3080   5.395   2.762   3.475  0.0105 -0.0300  0.9138
  829SOL     OW 3081   6.166   0.720   0.768  0.2015  0.1404 -0.0954
  829SOL    HW2 3082   6.223   0.757   0.700  1.0827  0.0274  0.5598
  829SOL    HW3 3083   6.217   0.648   0.805 -0.7184 -0.4932 -0.0504
  829SOL    MW4 3084   6.180   0.716   0.764  0.1964  0.0419 -0.0030
  830SOL     OW 3085   3.993   5.380   1.086 -0.0836 -0.7462 -0.4628
  830SOL    HW2 3086   3.998   5.365   1.180  0.2056  0.0595 -0.3389
  830SOL    HW3 3087   4.069   5.332   1.050  0.1803 -0.5203 -0.2112
  830SOL    MW4 3088   4.004   5.371   1.094 -0.0107 -0.6101 -0.4132
  831SOL     OW 3089   3.182   4.624   4.756 -0.3476  0.0767 -0.2882
  831SOL    HW2 3090   3.187   4.530   4.775 -0.5655  0.0847 -0.1932
  831SOL    HW3 3091   3.140   4.628   4.671 -1.2056  0.1283  0.1321
  831SOL    MW4 3092   3.177   4.612   4.747 -0.4896  0.0846 -0.2203
  832SOL     OW 3093   4.525   2.580   4.867  0.1044  0.3485  0.2816
  832SOL    HW2 3094   4.475   2.658   4.845 -2.0602 -0.3297  2.4452
  832SOL    HW3 3095   4.471   2.507   4.836  0.3349 -0.3750  1.5241
  832SOL    MW4 3096   4.512   2.581   4.860 -0.1508  0.1636  0.7310
  833SOL     OW 3097   4.528   3.947   2.385 -0.0117  0.0073  0.6507
  833SOL    HW2 3098   4.507   3.978   2.473  2.0780 -0.8438  1.4946
  833SOL    HW3 3099   4.448   3.903   2.356 -0.2760 -0.9575  2.6935
  833SOL    MW4 3100   4.515   3.945   2.393  0.2291 -0.2323  1.0316
  834SOL     OW 3101   1.863   4.457   0.217  0.0621  0.2355  0.0641
  834SOL    HW2 3102   1.923   4.395   0.259  0.6066  1.1618  0.6970
  834SOL    HW3 3103   1.826   4.508   0.290 -0.2607  0.7585 -0.4532
  834SOL    MW4 3104   1.866   4.456   0.232  0.0913  0.4267  0.0793
  835SOL     OW 3105   5.038   0.655   1.095 -0.4065 -0.0740  0.2703
  835SOL    HW2 3106   5.048   0.711   1.018  1.5178  0.2110  0.6835
  835SOL    HW3 3107   5.012   0.715   1.165 -1.0550 -0.1557  0.1055
  835SOL    MW4 3108   5.036   0.670   1.094 -0.2381 -0.0472  0.3030
  836SOL     OW 3109   5.256   3.589   1.268 -0.2110 -0.4670  0.9258
  836SOL    HW2 3110   5.302   3.654   1.215 -1.0465 -0.3387  0.3453
  836SOL    HW3 3111   5.214   3.641   1.337  0.4053 -0.5743  1.3971
  836SOL    MW4 3112   5.257   3.605   1.270 -0.2399 -0.4642  0.9114
  837SOL     OW 3113   5.386   0.921   5.499 -0.0864 -0.2343  0.3483
  837SOL    HW2 3114   5.413   1.005   5.535  0.8098 -0.2374 -0.2949
  837SOL    HW3 3115   5.292   0.915   5.520  0.0036  0.5861  1.0318
  837SOL    MW4 3116   5.377   0.931   5.506  0.0437 -0.1265  0.3536
  838SOL     OW 3117   1.556   0.802   2.592 -0.0887  0.3907 -0.1352
  838SOL    HW2 3118   1.567   0.734   2.658  1.1916  0.7246  0.0297
  838SOL    HW3 3119   1.534   0.880   2.641 -1.0764  0.2133 -0.2832
  838SOL    MW4 3120   1.555   0.803   2.607 -0.0501  0.4113 -0.1329
  839SOL     OW 3121   4.194   4.511   3.731  0.4638  0.6495 -0.2970
  839SOL    HW2 3122   4.263   4.475   3.675 -0.2524 -0.3488 -0.5737
  839SOL    HW3 3123   4.157   4.434   3.775 -0.6384  1.1393 -0.3501
  839SOL    MW4 3124   4.198   4.496   3.730  0.2239  0.5824 -0.3405
  840SOL     OW 3125   2.604   3.082   5.596 -0.0809 -0.1838  0.0053
  840SOL    HW2 3126   2.514   3.067   5.566  0.3087 -0.5556 -0.9948
  840SOL    HW3 3127   2.659   3.060   5.521  0.6998  3.3024 -0.6437
  840SOL    MW4 3128   2.599   3.077   5.582  0.0735  0.2271 -0.2123
  841SOL     OW 3129   0.139   4.452   0.032 -0.3148  0.2789  0.5024
  841SOL    HW2 3130   0.206   4.510  -0.005 -0.4123 -1.1750 -2.2997
  841SOL    HW3 3131   0.189   4.389   0.084  0.3038  0.3482  0.0102
  841SOL    MW4 3132   0.155   4.451   0.034 -0.2460  0.0962  0.0678
  842SOL     OW 3133   2.888   3.979   6.297  0.0337 -0.9113  0.0047
  842SOL    HW2 3134   2.907   4.025   6.215 -0.5985  0.4525  0.5892
  842SOL    HW3 3135   2.968   3.990   6.349 -0.4413  0.4195  0.5085
  842SOL    MW4 3136   2.901   3.987   6.293 -0.1123 -0.5558  0.1483
  843SOL     OW 3137   4.869   2.824   4.607  0.6347 -0.3983 -0.0670
  843SOL    HW2 3138   4.836   2.753   4.662  1.0911 -0.8040 -0.3161
  843SOL    HW3 3139   4.873   2.899   4.667  0.6143 -0.7012  0.3222
  843SOL    MW4 3140   4.865   2.825   4.622  0.6923 -0.4918 -0.0485
  844SOL     OW 3141   4.745   2.859   1.370 -0.2510  0.0321 -0.4512
  844SOL    HW2 3142   4.791   2.902   1.298 -1.3095 -0.7886 -1.6494
  844SOL    HW3 3143   4.652   2.870   1.349 -0.6051  0.2346  1.0781
  844SOL    MW4 3144   4.738   2.866   1.358 -0.4374 -0.0494 -0.4075
  845SOL     OW 3145   2.013   4.340   6.234 -0.0353 -0.0999  0.1337
  845SOL    HW2 3146   2.088   4.399   6.231 -0.0668 -0.0638 -2.6334
  845SOL    HW3 3147   2.051   4.253   6.223 -0.2715 -0.2588  0.5640
  845SOL    MW4 3148   2.028   4.337   6.232 -0.0706 -0.1161 -0.1746
  846SOL     OW 3149   5.109   4.712   1.139 -0.0552  0.5088 -0.4368
  846SOL    HW2 3150   5.029   4.763   1.147 -0.4299 -0.2159  0.5872
  846SOL    HW3 3151   5.082   4.634   1.089 -0.4398 -0.6096  1.4422
  846SOL    MW4 3152   5.095   4.708   1.133 -0.1554  0.2656 -0.0538
  847SOL     OW 3153   5.078   5.309   2.305 -0.1101  0.3652 -0.0493
  847SOL    HW2 3154   5.134   5.335   2.378 -0.8602  1.7054  0.0919
  847SOL    HW3 3155   5.040   5.225   2.332 -0.4125  0.8625  1.1508
  847SOL    MW4 3156   5.080   5.302   2.318 -0.2489  0.6077  0.1276
  848SOL     OW 3157   5.887   5.343   1.998  0.4661  0.1036  0.2621
  848SOL    HW2 3158   5.962   5.371   1.945 -0.1984  1.8171  0.1591
  848SOL    HW3 3159   5.924   5.281   2.061  1.7885  0.2066 -0.3794
  848SOL    MW4 3160   5.902   5.338   1.999  0.5529  0.3433  0.1639
  849SOL     OW 3161   2.945   2.171   0.194 -0.5207 -0.0867 -0.0083
  849SOL    HW2 3162   2.988   2.228   0.257 -0.3252  1.7490 -1.7090
  849SOL    HW3 3163   3.004   2.097   0.183 -0.4369 -0.3037  1.7168
  849SOL    MW4 3164   2.958   2.169   0.201 -0.4839  0.1269 -0.0051
  850SOL     OW 3165   6.280   4.765   4.577  0.0342  0.0894 -0.1449
  850SOL    HW2 3166   6.308   4.825   4.507  2.2597 -2.2306 -1.4232
  850SOL    HW3 3167   6.279   4.679   4.535 -2.4844 -0.9188  1.7622
  850SOL    MW4 3168   6.284   4.762   4.562 -0.0044 -0.3497 -0.0620
  851SOL     OW 3169   1.806   0.226   3.381 -0.3995 -0.3099  0.2180
  851SOL    HW2 3170   1.841   0.258   3.464 -0.1313  0.1759 -0.0690
  851SOL    HW3 3171   1.727   0.178   3.404  0.5146 -1.5463  0.9077
  851SOL    MW4 3172   1.800   0.224   3.395 -0.2435 -0.4089  0.2711
  852SOL     OW 3173   2.249   3.033   0.519  0.4557  0.1898 -0.3569
  852SOL    HW2 3174   2.236   3.038   0.425  1.4137  1.4948 -0.4364
  852SOL    HW3 3175   2.227   3.120   0.552  1.8208  0.2789  0.3886
  852SOL    MW4 3176   2.244   3.045   0.511  0.7622  0.3737 -0.2691
  853SOL     OW 3177   0.456   3.690   0.082 -0.2586  0.1363  0.0822
  853SOL    HW2 3178   0.494   3.715  -0.002  0.7712  0.5931  0.6693
  853SOL    HW3 3179   0.508   3.615   0.111 -2.2538 -1.7211 -0.8757
  853SOL    MW4 3180   0.468   3.683   0.075 -0.3860 -0.0485  0.0333
  854SOL     OW 3181   1.244   5.195   2.595  0.1248  0.2392  0.5050
  854SOL    HW2 3182   1.263   5.278   2.638  0.5777  0.3444  0.1133
  854SOL    HW3 3183   1.150   5.181   2.608 -0.4427  1.8942 -1.2798
  854SOL    MW4 3184   1.234   5.204   2.602  0.1097  0.4714  0.2179
  855SOL     OW 3185   0.742   2.025   0.355  0.3658 -0.0142 -0.1354
  855SOL    HW2 3186   0.792   1.959   0.307  1.5498  1.2827 -0.7448
  855SOL    HW3 3187   0.748   1.997   0.446  1.5350 -0.3401 -0.2943
  855SOL    MW4 3188   0.749   2.013   0.361  0.6763  0.1139 -0.2367
  856SOL     OW 3189   3.280   2.952   2.984 -0.2952  0.3125  0.5929
  856SOL    HW2 3190   3.349   3.016   2.963  1.0393 -1.6248 -1.4892
  856SOL    HW3 3191   3.214   2.966   2.916 -1.2027  1.0687  1.6072
  856SOL    MW4 3192   3.281   2.962   2.972 -0.2389  0.1566  0.4521
  857SOL     OW 3193   2.717   1.486   5.905  0.3214  0.3718 -0.0873
  857SOL    HW2 3194   2.766   1.512   5.828 -2.0088  2.8584 -0.8612
  857SOL    HW3 3195   2.764   1.526   5.978  1.7132 -0.7753 -0.3088
  857SOL    MW4 3196   2.729   1.494   5.905  0.1976  0.5485 -0.2186
  858SOL     OW 3197   4.848   4.585   3.497 -0.5735 -0.5970  0.3661
  858SOL    HW2 3198   4.929   4.539   3.518  0.6185  1.1263 -0.2749
  858SOL    HW3 3199   4.815   4.615   3.582  0.0080 -0.4102  0.5294
  858SOL    MW4 3200   4.854   4.583   3.511 -0.3395 -0.3450  0.3031
  859SOL     OW 3201   5.267   0.117   0.494 -0.2119  0.4419 -0.3718
  859SOL    HW2 3202   5.192   0.160   0.535  0.5036 -0.3776  2.0100
  859SOL    HW3 3203   5.301   0.181   0.432  0.2598  3.0769  2.3305
  859SOL    MW4 3204   5.262   0.131   0.491 -0.0552  0.6815  0.2989
  860SOL     OW 3205   5.232   0.224   4.164 -0.4062 -0.0376 -0.0791
  860SOL    HW2 3206   5.236   0.299   4.223 -1.1861  0.6081 -0.8148
  860SOL    HW3 3207   5.309   0.172   4.186  0.2443  1.0656  0.3321
  860SOL    MW4 3208   5.243   0.227   4.174 -0.4233  0.1932 -0.1219
  861SOL     OW 3209   1.311   0.630   3.049  0.1427 -0.7554  0.0906
  861SOL    HW2 3210   1.279   0.669   3.130 -0.8252  2.4548 -1.6676
  861SOL    HW3 3211   1.239   0.576   3.017 -0.0968 -0.6994  0.5359
  861SOL    MW4 3212   1.297   0.628   3.055 -0.0166 -0.3245 -0.0826
  862SOL     OW 3213   5.743   5.161   4.317  0.1010  0.1976 -0.3499
  862SOL    HW2 3214   5.729   5.197   4.405  3.0935  2.8625 -0.8174
  862SOL    HW3 3215   5.703   5.225   4.258  1.3506  0.3936 -1.0220
  862SOL    MW4 3216   5.736   5.174   4.321  0.6607  0.5751 -0.5002
  863SOL     OW 3217   3.321   1.945   4.374  0.4512 -0.0904  0.5648
  863SOL    HW2 3218   3.245   1.888   4.372 -0.3352  0.9239  0.8349
  863SOL    HW3 3219   3.392   1.892   4.337 -0.2775 -1.1853  0.7017
  863SOL    MW4 3220   3.321   1.931   4.369  0.2513 -0.1010  0.6185
  864SOL     OW 3221   3.443   3.440   4.930  0.3984  0.0370 -0.6109
  864SOL    HW2 3222   3.367   3.498   4.921 -0.7039 -1.5610 -2.4890
  864SOL    HW3 3223   3.436   3.404   5.018 -0.2056  0.9904 -0.2557
  864SOL    MW4 3224   3.432   3.443   4.940  0.1733 -0.0480 -0.8119
  865SOL     OW 3225   5.489   4.797   1.925  0.2523  0.5211  0.2114
  865SOL    HW2 3226   5.527   4.757   1.847  1.7377  0.7890  0.7615
  865SOL    HW3 3227   5.527   4.747   1.998 -0.3624  0.8882  0.7915
  865SOL    MW4 3228   5.499   4.785   1.925  0.3672  0.6049  0.3605
  866SOL     OW 3229   1.898   1.105   5.326  0.0847 -0.2315 -0.2053
  866SOL    HW2 3230   1.872   1.022   5.365 -0.2820 -0.5003 -1.0012
  866SOL    HW3 3231   1.857   1.105   5.240  2.0760 -0.3330 -1.2237
  866SOL    MW4 3232   1.889   1.094   5.320  0.2991 -0.2804 -0.4446
  867SOL     OW 3233   6.194   1.251   3.326 -0.0472  0.3391  0.3485
  867SOL    HW2 3234   6.213   1.279   3.236  2.8508 -1.8331  0.1543
  867SOL    HW3 3235   6.220   1.326   3.380 -0.3372  1.0845 -0.5113
  867SOL    MW4 3236   6.200   1.265   3.321  0.2969  0.1509  0.2094
  868SOL     OW 3237   0.505   1.691   2.593  0.1496  0.2834 -0.2181
  868SOL    HW2 3238   0.577   1.700   2.656  1.2256  0.0931 -1.3768
  868SOL    HW3 3239   0.490   1.780   2.561 -1.1119  0.5473  1.0428
  868SOL    MW4 3240   0.513   1.704   2.597  0.1251  0.2931 -0.2046
  869SOL     OW 3241   1.417   5.990   2.340 -0.1382 -0.1365 -0.7585
  869SOL    HW2 3242   1.362   5.962   2.267 -0.0936 -0.8069 -0.5441
  869SOL    HW3 3243   1.491   6.035   2.298 -0.3602 -0.0820 -1.0984
  869SOL    MW4 3244   1.420   5.992   2.325 -0.1616 -0.2178 -0.7750
  870SOL     OW 3245   2.045   2.580   3.735 -0.0363  0.0126  0.2638
  870SOL    HW2 3246   2.077   2.641   3.801  0.6751 -0.2477  0.1697
  870SOL    HW3 3247   1.950   2.591   3.736 -0.2930 -1.5633  2.9282
  870SOL    MW4 3248   2.037   2.589   3.744  0.0237 -0.2297  0.6029
  871SOL     OW 3249   3.630   3.299   2.696 -0.0681  0.1018  0.5101
  871SOL    HW2 3250   3.562   3.348   2.742 -0.5109 -0.3443  0.3404
  871SOL    HW3 3251   3.692   3.366   2.665 -0.3404  0.4938  0.8125
  871SOL    MW4 3252   3.629   3.314   2.698 -0.1624  0.0947  0.5276
  872SOL     OW 3253   0.496   2.509   2.091 -0.2715  0.1246  0.8650
  872SOL    HW2 3254   0.471   2.591   2.048  1.3737  0.2704  0.0723
  872SOL    HW3 3255   0.517   2.534   2.181 -1.7802  0.1777  1.2269
  872SOL    MW4 3256   0.496   2.523   2.097 -0.2535  0.1509  0.8081
  873SOL     OW 3257   3.744   0.967   1.807  0.4572 -0.0845 -0.5061
  873SOL    HW2 3258   3.755   0.936   1.897  0.0337  0.5686 -0.2211
  873SOL    HW3 3259   3.728   1.061   1.816  1.9245  0.2700 -1.3628
  873SOL    MW4 3260   3.743   0.975   1.820  0.5949  0.0484 -0.5815
  874SOL     OW 3261   1.890   5.415   0.420  0.3847  0.1151 -0.1277
  874SOL    HW2 3262   1.845   5.494   0.451  0.9349  0.2464  0.3378
  874SOL    HW3 3263   1.883   5.353   0.492 -1.9089 -1.0553 -1.2488
  874SOL    MW4 3264   1.883   5.417   0.434  0.1547 -0.0220 -0.2142
  875SOL     OW 3265   6.169   1.878   0.648 -0.2136  0.0799 -0.2797
  875SOL    HW2 3266   6.102   1.922   0.596 -1.0870 -1.6286 -0.6689
  875SOL    HW3 3267   6.217   1.823   0.586 -1.1145 -1.8074  0.6016
  875SOL    MW4 3268   6.167   1.877   0.633 -0.4477 -0.3945 -0.2148
  876SOL     OW 3269   0.547   4.786   4.908  0.2326 -0.0732  0.5546
  876SOL    HW2 3270   0.521   4.709   4.959  1.5633 -0.7357  0.2689
  876SOL    HW3 3271   0.500   4.859   4.949  0.0361 -0.8194  1.7074
  876SOL    MW4 3272   0.537   4.785   4.920  0.3823 -0.2591  0.6690
  877SOL     OW 3273   1.219   3.700   6.205  0.1971 -0.3848 -0.3758
  877SOL    HW2 3274   1.139   3.680   6.254  0.8739  0.4882  1.1591
  877SOL    HW3 3275   1.268   3.618   6.204  0.1969 -0.4000  0.4831
  877SOL    MW4 3276   1.215   3.687   6.211  0.2863 -0.2716 -0.0600
  878SOL     OW 3277   4.689   3.913   0.261  1.1637 -0.5079  0.1587
  878SOL    HW2 3278   4.633   3.868   0.198  1.4779  0.5685 -0.9187
  878SOL    HW3 3279   4.733   3.842   0.308 -0.0563 -1.3537  0.0887
  878SOL    MW4 3280   4.687   3.897   0.259  1.0442 -0.4774  0.0073
  879SOL     OW 3281   4.874   4.507   2.727 -0.0342 -0.5523  0.0467
  879SOL    HW2 3282   4.943   4.549   2.777  1.4603 -1.2349 -1.3494
  879SOL    HW3 3283   4.821   4.460   2.792  0.0445  0.9989  1.2723
  879SOL    MW4 3284   4.876   4.506   2.742  0.1733 -0.4377  0.0242
  880SOL     OW 3285   3.751   3.069   2.484 -0.0544 -0.4498  0.0666
  880SOL    HW2 3286   3.772   3.019   2.406 -0.6026 -1.0181  0.2798
  880SOL    HW3 3287   3.805   3.148   2.477  1.6602 -1.5567  0.2629
  880SOL    MW4 3288   3.761   3.073   2.473  0.0995 -0.6708  0.1206
  881SOL     OW 3289   5.577   1.409   3.719 -0.6246 -0.5656 -0.2416
  881SOL    HW2 3290   5.612   1.377   3.802 -0.8792  1.6213  0.7713
  881SOL    HW3 3291   5.655   1.424   3.665 -0.3009 -0.1862  0.3151
  881SOL    MW4 3292   5.592   1.407   3.723 -0.6155 -0.2270 -0.0346
  882SOL     OW 3293   5.494   0.747   6.220  0.3073 -0.0081  0.6304
  882SOL    HW2 3294   5.432   0.758   6.148  0.7586 -1.6126 -0.0360
  882SOL    HW3 3295   5.558   0.683   6.189  2.2305  1.4394  1.3723
  882SOL    MW4 3296   5.494   0.740   6.207  0.6206 -0.0288  0.6403
  883SOL     OW 3297   4.074   2.486   0.056  0.0992 -0.5778 -0.3895
  883SOL    HW2 3298   3.989   2.466   0.096 -0.3208  0.8950 -0.4845
  883SOL    HW3 3299   4.121   2.403   0.057 -1.1239 -1.2926  0.1996
  883SOL    MW4 3300   4.069   2.472   0.061 -0.1176 -0.4778 -0.3243
  884SOL     OW 3301   3.847   3.001   3.881 -0.4770 -0.7789  0.2148
  884SOL    HW2 3302   3.816   2.911   3.877  0.9521 -1.4031  1.9884
  884SOL    HW3 3303   3.826   3.037   3.794 -2.0513 -2.4496 -0.1630
  884SOL    MW4 3304   3.841   2.994   3.869 -0.4962 -1.0817  0.3990
  885SOL     OW 3305   5.605   3.075   4.146  0.0605 -0.1770 -0.0473
  885SOL    HW2 3306   5.597   3.038   4.234 -0.9839 -2.3127 -0.9693
  885SOL    HW3 3307   5.519   3.114   4.129 -0.0041 -0.4599 -0.3852
  885SOL    MW4 3308   5.592   3.075   4.155 -0.0858 -0.4961 -0.2136
  886SOL     OW 3309   0.178   2.095   0.333 -0.2140  0.1687  0.2629
  886SOL    HW2 3310   0.171   2.128   0.422  1.2497  1.8368 -0.1773
  886SOL    HW3 3311   0.111   2.143   0.284  0.4382  0.9019  0.0629
  886SOL    MW4 3312   0.168   2.105   0.338  0.0651  0.4855  0.1784
  887SOL     OW 3313   3.867   0.263   3.669 -0.3880  0.0528  0.4638
  887SOL    HW2 3314   3.929   0.206   3.624 -1.6251 -0.0448 -1.1903
  887SOL    HW3 3315   3.781   0.234   3.639 -1.2003  0.8015  1.9717
  887SOL    MW4 3316   3.864   0.252   3.659 -0.6584  0.1387  0.4445
  888SOL     OW 3317   6.131   1.078   5.466  0.1236 -0.8159 -0.4428
  888SOL    HW2 3318   6.201   1.115   5.413 -0.7613  1.9176  0.1550
  888SOL    HW3 3319   6.117   1.142   5.536 -0.0255 -3.3820  2.0668
  888SOL    MW4 3320   6.138   1.091   5.468 -0.0129 -0.7938 -0.0328
  889SOL     OW 3321   4.318   4.906   3.420  0.3677 -0.1755 -0.4628
  889SOL    HW2 3322   4.391   4.845   3.412  1.8839  1.5144 -0.0785
  889SOL    HW3 3323   4.358   4.989   3.447 -1.8011  0.5878  0.6595
  889SOL    MW4 3324   4.333   4.909   3.422  0.2816  0.1482 -0.2640
  890SOL     OW 3325   5.804   4.249   2.175  0.1358 -0.3162 -0.4389
  890SOL    HW2 3326   5.876   4.226   2.233 -2.2109  0.5001  3.1372
  890SOL    HW3 3327   5.775   4.166   2.138 -0.2434 -1.4452  2.1779
  890SOL    MW4 3328   5.810   4.235   2.178 -0.2238 -0.3574  0.3782
  891SOL     OW 3329   4.805   6.431   4.299 -0.1331 -0.1145 -0.6400
  891SOL    HW2 3330   4.763   6.516   4.282  0.1587  0.3372  0.7404
  891SOL    HW3 3331   4.732   6.372   4.317 -0.3335 -0.1336 -1.4850
  891SOL    MW4 3332   4.790   6.435   4.299 -0.1210 -0.0574 -0.5694
  892SOL     OW 3333   3.011   2.618   5.482  0.6462 -0.3731  0.1573
  892SOL    HW2 3334   3.012   2.700   5.433  1.3667 -0.6466 -0.2979
  892SOL    HW3 3335   2.948   2.633   5.552  2.1867  1.2869  1.2751
  892SOL    MW4 3336   3.003   2.631   5.485  0.9445 -0.1902  0.2447
  893SOL     OW 3337   1.269   0.278   1.270 -0.3918 -0.2316 -0.0037
  893SOL    HW2 3338   1.248   0.192   1.306 -1.2051  0.2326  0.6658
  893SOL    HW3 3339   1.346   0.263   1.215 -0.0951 -1.2509  0.6719
  893SOL    MW4 3340   1.277   0.265   1.267 -0.4600 -0.3049  0.1737
  894SOL     OW 3341   5.844   2.764   4.303 -0.0450 -0.9109  0.0997
  894SOL    HW2 3342   5.773   2.723   4.354 -0.9347  0.7023  0.2261
  894SOL    HW3 3343   5.856   2.850   4.344  0.2661 -0.1745 -1.4846
  894SOL    MW4 3344   5.836   2.770   4.315 -0.1213 -0.6009 -0.0927
  895SOL     OW 3345   3.972   2.615   0.481  0.1615 -0.2545  0.2731
  895SOL    HW2 3346   4.025   2.535   0.491  2.6140  1.2476  0.1394
  895SOL    HW3 3347   3.999   2.671   0.554  0.8571  1.6526 -1.3520
  895SOL    MW4 3348   3.983   2.612   0.492  0.5768  0.1953  0.0410
  896SOL     OW 3349   2.670   6.087   1.017  0.6727 -0.7381  0.0002
  896SOL    HW2 3350   2.662   6.182   1.011  1.7204 -0.7102 -1.6099
  896SOL    HW3 3351   2.763   6.071   1.030  0.6523 -1.5626 -0.7608
  896SOL    MW4 3352   2.681   6.097   1.018  0.8082 -0.8432 -0.3126
  897SOL     OW 3353   5.606   3.565   0.470 -0.1085  0.0812  0.0383
  897SOL    HW2 3354   5.675   3.539   0.531 -0.3073  0.2685  0.3499
  897SOL    HW3 3355   5.590   3.488   0.416 -0.8619 -0.5273  1.1019
  897SOL    MW4 3356   5.613   3.552   0.471 -0.2341  0.0256  0.2197
  898SOL     OW 3357   2.079   2.498   0.637 -0.2645 -0.1439 -0.6827
  898SOL    HW2 3358   2.161   2.493   0.587  0.7888  0.2191  0.9109
  898SOL    HW3 3359   2.090   2.576   0.691 -0.3315 -1.7143  1.7544
  898SOL    MW4 3360   2.091   2.508   0.637 -0.1343 -0.3032 -0.1509
  899SOL     OW 3361   4.139   5.627   1.775 -0.2157 -0.1433  0.1998
  899SOL    HW2 3362   4.106   5.576   1.850 -0.3939 -1.0393 -0.4750
  899SOL    HW3 3363   4.229   5.648   1.798 -0.3354 -0.2224  0.7628
  899SOL    MW4 3364   4.146   5.623   1.788 -0.2550 -0.2719  0.1850
  900SOL     OW 3365   5.535   0.818   4.655  0.1714 -0.1619  0.4803
  900SOL    HW2 3366   5.588   0.890   4.688 -0.2179 -0.3500  1.5712
  900SOL    HW3 3367   5.475   0.859   4.592  1.3969  0.0906 -0.5516
  900SOL    MW4 3368   5.534   0.833   4.651  0.2817 -0.1534  0.4881
  901SOL     OW 3369   2.748   0.431   3.804  0.3460  0.0705  0.0729
  901SOL    HW2 3370   2.662   0.412   3.843  0.7656 -0.3649  0.7991
  901SOL    HW3 3371   2.790   0.489   3.867  0.1866  1.1551 -0.7875
  901SOL    MW4 3372   2.742   0.436   3.817  0.3803  0.1562  0.0552
  902SOL     OW 3373   2.567   0.658   0.929 -0.2659 -1.1291 -0.2465
  902SOL    HW2 3374   2.486   0.657   0.879 -0.8917 -1.2923  0.7411
  902SOL    HW3 3375   2.580   0.750   0.952  0.8094 -0.8295 -1.9160
  902SOL    MW4 3376   2.558   0.670   0.926 -0.2066 -1.1111 -0.3365
  903SOL     OW 3377   2.144   1.432   5.228 -0.0155 -0.6405  0.5173
  903SOL    HW2 3378   2.109   1.355   5.183 -0.3242 -0.7836  0.9909
  903SOL    HW3 3379   2.232   1.407   5.255  0.4676 -0.2932 -0.6487
  903SOL    MW4 3380   2.151   1.419   5.225  0.0075 -0.6136  0.4259
  904SOL     OW 3381   4.765   0.098   6.074  0.2359  0.3147 -0.1439
  904SOL    HW2 3382   4.782   0.143   5.991  0.8285 -0.3304 -0.3782
  904SOL    HW3 3383   4.776   0.166   6.140 -3.1479  1.6203 -0.7109
  904SOL    MW4 3384   4.769   0.113   6.071 -0.1323  0.4019 -0.2496
  905SOL     OW 3385   4.593   4.414   2.526 -0.2566 -0.0783  0.2448
  905SOL    HW2 3386   4.612   4.493   2.576 -1.1754  0.0503  0.3944
  905SOL    HW3 3387   4.528   4.441   2.461 -0.5938 -0.7177  0.3139
  905SOL    MW4 3388   4.587   4.428   2.524 -0.4223 -0.1457  0.2737
  906SOL     OW 3389   0.596   2.255   6.305  0.1672 -0.2384 -0.2220
  906SOL    HW2 3390   0.562   2.254   6.394 -3.3643  0.4354 -1.3957
  906SOL    HW3 3391   0.682   2.214   6.311 -0.0183 -0.3950  3.4102
  906SOL    MW4 3392   0.603   2.250   6.318 -0.3232 -0.1702  0.1024
  907SOL     OW 3393   1.946   5.428   6.243  0.0585  0.1371  0.2983
  907SOL    HW2 3394   1.896   5.507   6.263  0.2669  0.4687 -0.4698
  907SOL    HW3 3395   1.935   5.373   6.321  0.2415  1.0823  1.0152
  907SOL    MW4 3396   1.938   5.431   6.256  0.1101  0.3055  0.2915
  908SOL     OW 3397   1.782   5.640   1.486  0.0676 -0.0001 -0.1084
  908SOL    HW2 3398   1.848   5.572   1.469 -1.2653 -0.9030 -2.1691
  908SOL    HW3 3399   1.811   5.715   1.435  0.3120  0.1653  0.2696
  908SOL    MW4 3400   1.794   5.641   1.477 -0.0760 -0.0974 -0.3304
  909SOL     OW 3401   1.892   2.188   0.428 -0.0794  0.2361 -0.4862
  909SOL    HW2 3402   1.896   2.122   0.497 -1.5422 -1.1410 -1.6426
  909SOL    HW3 3403   1.864   2.268   0.473  1.0152 -0.0637  0.8152
  909SOL    MW4 3404   1.889   2.190   0.443 -0.1280  0.0148 -0.4671
  910SOL     OW 3405   1.654   5.700   4.036 -0.2953 -0.0479 -0.3868
  910SOL    HW2 3406   1.718   5.671   4.101  0.9133  1.6090 -0.7822
  910SOL    HW3 3407   1.569   5.682   4.077  0.3830 -2.2301  0.1809
  910SOL    MW4 3408   1.651   5.694   4.050 -0.0463 -0.1172 -0.3641
  911SOL     OW 3409   2.704   5.298   6.057 -0.5772 -0.1061  0.1500
  911SOL    HW2 3410   2.652   5.351   6.118 -0.4401 -0.0634  0.2295
  911SOL    HW3 3411   2.640   5.241   6.014 -0.7922  0.4330 -0.2566
  911SOL    MW4 3412   2.689   5.297   6.060 -0.5875 -0.0294  0.1069
  912SOL     OW 3413   1.882   1.958   0.946 -0.0573 -1.3585 -0.4511
  912SOL    HW2 3414   1.928   2.031   0.988 -0.8109 -1.5329  0.7419
  912SOL    HW3 3415   1.792   1.988   0.938 -0.5486 -2.4138  0.7570
  912SOL    MW4 3416   1.876   1.971   0.951 -0.2216 -1.5207 -0.1343
  913SOL     OW 3417   0.300   1.580   4.927 -0.9518 -0.0628  0.2003
  913SOL    HW2 3418   0.363   1.525   4.972 -1.9002 -1.1065  0.3083
  913SOL    HW3 3419   0.241   1.611   4.996 -1.4928 -0.4083 -0.0974
  913SOL    MW4 3420   0.300   1.577   4.942 -1.1483 -0.2461  0.1753
  914SOL     OW 3421   4.274   1.135   4.531 -0.2877 -0.2880  0.3819
  914SOL    HW2 3422   4.332   1.085   4.589 -0.1643 -0.4503  0.1175
  914SOL    HW3 3423   4.308   1.224   4.534  0.2706 -0.4793 -0.1531
  914SOL    MW4 3424   4.286   1.140   4.539 -0.1977 -0.3346  0.2764
  915SOL     OW 3425   3.629   2.351   2.155  0.1748  0.0750  0.4576
  915SOL    HW2 3426   3.566   2.420   2.136  0.7766  0.0595 -1.8681
  915SOL    HW3 3427   3.714   2.391   2.140  0.6134 -0.6450  0.9669
  915SOL    MW4 3428   3.632   2.365   2.151  0.3121 -0.0220  0.2180
  916SOL     OW 3429   1.487   2.276   1.721  0.4843  0.2750 -0.1508
  916SOL    HW2 3430   1.470   2.182   1.719  0.7010  0.1912  0.9441
  916SOL    HW3 3431   1.420   2.314   1.663  2.2599 -0.7567 -3.0857
  916SOL    MW4 3432   1.476   2.269   1.713  0.7472  0.1278 -0.3935
  917SOL     OW 3433   5.124   1.856   1.062 -0.1174 -0.1970 -0.0178
  917SOL    HW2 3434   5.215   1.879   1.080 -0.6601  1.7166  0.6013
  917SOL    HW3 3435   5.128   1.773   1.015  1.9791  0.2561 -0.7230
  917SOL    MW4 3436   5.137   1.848   1.058  0.0876  0.1152 -0.0292
  918SOL     OW 3437   2.158   1.993   2.151 -0.3908  0.0352 -0.0400
  918SOL    HW2 3438   2.074   1.985   2.107 -0.6006 -1.7736  0.6006
  918SOL    HW3 3439   2.137   1.985   2.244  0.3080  1.4364  0.2645
  918SOL    MW4 3440   2.144   1.991   2.157 -0.3263 -0.0186  0.0847
  919SOL     OW 3441   1.356   4.724   1.522  0.1166  0.2450 -0.5049
  919SOL    HW2 3442   1.299   4.647   1.526  2.7974 -1.8630 -0.2854
  919SOL    HW3 3443   1.375   4.734   1.428 -0.2860  0.7456 -0.5419
  919SOL    MW4 3444   1.351   4.715   1.510  0.4172  0.0329 -0.4809
  920SOL     OW 3445   5.244   3.304   0.252  0.1029  0.5381 -0.3149
  920SOL    HW2 3446   5.203   3.227   0.292 -0.0678 -0.6435 -2.6093
  920SOL    HW3 3447   5.173   3.369   0.249  0.0746  0.6175  1.0472
  920SOL    MW4 3448   5.229   3.302   0.257  0.0766  0.3926 -0.4379
  921SOL     OW 3449   0.738   3.945   4.444  0.0164 -0.2999 -0.0002
  921SOL    HW2 3450   0.741   3.995   4.526  4.0540 -0.1841 -0.0328
  921SOL    HW3 3451   0.774   3.860   4.466 -1.2766 -1.2018 -1.2013
  921SOL    MW4 3452   0.743   3.941   4.457  0.3786 -0.4036 -0.1630
  922SOL     OW 3453   2.395   3.473   2.668  0.2883  0.3307  0.3448
  922SOL    HW2 3454   2.455   3.460   2.741  0.0687  0.2761  0.5179
  922SOL    HW3 3455   2.450   3.465   2.590  0.7558  1.5871  0.5244
  922SOL    MW4 3456   2.410   3.470   2.667  0.3210  0.4893  0.3914
  923SOL     OW 3457   1.331   2.377   3.891  0.1875 -0.0359 -0.0790
  923SOL    HW2 3458   1.372   2.446   3.839 -1.3185  1.5349  0.7056
  923SOL    HW3 3459   1.381   2.374   3.972  0.9282 -0.6516 -0.5514
  923SOL    MW4 3460   1.343   2.386   3.895  0.0865  0.0901 -0.0378
  924SOL     OW 3461   1.435   2.842   6.332  0.1714  0.4220  0.0009
  924SOL    HW2 3462   1.509   2.891   6.369 -0.1994  0.9867  0.0167
  924SOL    HW3 3463   1.453   2.838   6.238  0.2824  0.4592  0.0210
  924SOL    MW4 3464   1.447   2.848   6.325  0.1371  0.5014  0.0056
  925SOL     OW 3465   0.907   3.942   3.224 -0.3760  0.3833  1.0533
  925SOL    HW2 3466   0.947   3.947   3.137 -0.4181  0.5940  1.0467
  925SOL    HW3 3467   0.819   3.910   3.208 -0.6510  1.1762  0.9402
  925SOL    MW4 3468   0.901   3.938   3.211 -0.4178  0.5157  1.0375
  926SOL     OW 3469   3.267   1.806   3.161 -1.0056 -0.1845 -0.1643
  926SOL    HW2 3470   3.265   1.864   3.238 -0.1489  0.5160 -0.6505
  926SOL    HW3 3471   3.312   1.857   3.094  0.5267 -1.7021 -0.3611
  926SOL    MW4 3472   3.273   1.820   3.162 -0.6904 -0.2923 -0.2544
  927SOL     OW 3473   5.745   1.123   1.960 -0.2336  0.4759  0.6437
  927SOL    HW2 3474   5.709   1.081   2.039 -0.7455  0.8949  0.6404
  927SOL    HW3 3475   5.832   1.152   1.985  1.1025 -2.5875  0.0026
  927SOL    MW4 3476   5.751   1.121   1.974 -0.1248  0.1270  0.5587
  928SOL     OW 3477   5.791   3.364   5.789 -0.5320  0.4909  0.3473
  928SOL    HW2 3478   5.843   3.331   5.716  0.6106 -2.8716  2.4233
  928SOL    HW3 3479   5.850   3.425   5.834 -0.7313  1.4829 -0.6899
  928SOL    MW4 3480   5.806   3.368   5.786 -0.4075  0.1782  0.4844
  929SOL     OW 3481   1.050   6.122   3.361 -0.3732  0.5586  0.7144
  929SOL    HW2 3482   1.079   6.166   3.281 -1.4902 -1.1805 -0.7374
  929SOL    HW3 3483   1.124   6.069   3.389 -0.6011 -0.3579 -0.3521
  929SOL    MW4 3484   1.063   6.121   3.354 -0.5506  0.2082  0.3822
  930SOL     OW 3485   5.796   1.768   2.178  0.7376  0.9440  0.2958
  930SOL    HW2 3486   5.726   1.706   2.200  1.0756  0.9508  1.4662
  930SOL    HW3 3487   5.823   1.744   2.090  0.6821 -0.4159  0.6303
  930SOL    MW4 3488   5.790   1.757   2.170  0.7749  0.7655  0.4944
  931SOL     OW 3489   0.062   5.525   1.978 -0.8284 -0.2088  0.0396
  931SOL    HW2 3490   0.077   5.619   1.981  0.0551 -0.3277 -0.2924
  931SOL    HW3 3491  -0.033   5.515   1.976 -0.9662  0.6394  1.1753
  931SOL    MW4 3492   0.052   5.536   1.978 -0.7300 -0.1126  0.1456
  932SOL     OW 3493   2.475   3.821   3.526 -0.1764  0.3228 -0.1218
  932SOL    HW2 3494   2.407   3.870   3.572  0.4632 -0.8371  2.1729
  932SOL    HW3 3495   2.530   3.888   3.486 -0.6071  1.4052  1.0496
  932SOL    MW4 3496   2.473   3.836   3.527 -0.1488  0.3126  0.3355
  933SOL     OW 3497   4.070   3.297   0.598 -0.4774  0.1220 -0.7785
  933SOL    HW2 3498   3.995   3.271   0.651 -0.7555 -1.5700 -1.9460
  933SOL    HW3 3499   4.105   3.375   0.642 -2.1419  0.1897  0.4887
  933SOL    MW4 3500   4.065   3.304   0.611 -0.7337 -0.0923 -0.7653
  934SOL     OW 3501   0.883   5.919   3.263 -0.1181  0.2652  0.1562
  934SOL    HW2 3502   0.870   5.953   3.174  0.0540 -1.0640 -0.3937
  934SOL    HW3 3503   0.953   5.973   3.299  0.6913  0.0153 -0.9808
  934SOL    MW4 3504   0.891   5.931   3.256  0.0114  0.0569 -0.0664
  935SOL     OW 3505   1.788   3.038   6.184 -0.2743 -0.0618 -0.5618
  935SOL    HW2 3506   1.738   2.998   6.113 -1.6243 -2.0732  1.3934
  935SOL    HW3 3507   1.731   3.107   6.218 -1.3148 -1.5788  0.9081
  935SOL    MW4 3508   1.774   3.042   6.179 -0.5897 -0.5273 -0.1099
  936SOL     OW 3509   3.066   5.181   1.895  0.0207  0.1812 -0.1738
  936SOL    HW2 3510   3.042   5.179   1.988  0.5678 -1.0023 -0.0475
  936SOL    HW3 3511   3.031   5.265   1.864 -1.9112 -0.2706  0.6299
  936SOL    MW4 3512   3.058   5.192   1.904 -0.1620 -0.0346 -0.0511
  937SOL     OW 3513   2.883   1.093   0.449 -0.0013 -0.0121  0.4109
  937SOL    HW2 3514   2.803   1.089   0.502  0.8638 -0.8195  1.7083
  937SOL    HW3 3515   2.877   1.018   0.391 -0.7826  0.6667 -0.4188
  937SOL    MW4 3516   2.871   1.083   0.449  0.0098 -0.0291  0.4726
  938SOL     OW 3517   4.525   6.026   5.135 -0.4486 -0.1316  0.2048
  938SOL    HW2 3518   4.545   6.006   5.227  0.0860  2.5391  0.7572
  938SOL    HW3 3519   4.603   6.071   5.103 -1.5466  1.1533 -0.7788
  938SOL    MW4 3520   4.538   6.029   5.143 -0.5230  0.3903  0.1479
  939SOL     OW 3521   4.404   1.784   3.255 -0.7064  0.6279  0.4364
  939SOL    HW2 3522   4.338   1.776   3.324  0.1446  1.1461  1.3515
  939SOL    HW3 3523   4.484   1.750   3.296 -0.1508  1.0958 -0.2425
  939SOL    MW4 3524   4.406   1.778   3.270 -0.5208  0.7580  0.4676
  940SOL     OW 3525   4.757   1.109   5.671 -1.2324  0.3268 -0.9183
  940SOL    HW2 3526   4.713   1.072   5.748 -0.8399  1.3568 -0.1740
  940SOL    HW3 3527   4.776   1.199   5.696  0.3606  0.2093 -1.6045
  940SOL    MW4 3528   4.754   1.116   5.685 -0.9704  0.4472 -0.9106
  941SOL     OW 3529   2.960   0.067   2.104  0.0671 -0.0278  0.3613
  941SOL    HW2 3530   3.027   0.085   2.038  0.2488 -2.7478 -0.3240
  941SOL    HW3 3531   2.877   0.085   2.059  0.1892 -1.8431 -0.7089
  941SOL    MW4 3532   2.958   0.072   2.089  0.1072 -0.6262  0.1297
  942SOL     OW 3533   5.013   2.904   4.995  0.3486 -0.7039  0.0806
  942SOL    HW2 3534   5.005   2.811   4.975  1.0929 -0.4985 -1.2946
  942SOL    HW3 3535   4.942   2.922   5.057 -1.4795 -1.6338 -1.6508
  942SOL    MW4 3536   5.002   2.894   5.001  0.2056 -0.7995 -0.3292
  943SOL     OW 3537   3.637   4.354   5.594  0.0724  0.1520  0.2929
  943SOL    HW2 3538   3.614   4.398   5.675 -0.5895 -0.5604  0.5123
  943SOL    HW3 3539   3.572   4.384   5.531 -0.9552 -1.1598  0.6758
  943SOL    MW4 3540   3.625   4.364   5.596 -0.1505 -0.1151  0.3724
  944SOL     OW 3541   0.146   5.186   3.021  0.2693 -0.2733  0.3430
  944SOL    HW2 3542   0.222   5.233   3.055  0.4105 -0.5962  0.4794
  944SOL    HW3 3543   0.102   5.249   2.964  0.0127  0.3037  1.1468
  944SOL    MW4 3544   0.150   5.201   3.018  0.2541 -0.2398  0.4670
  945SOL     OW 3545   3.848   4.244   3.535  0.6355  0.5882 -0.4387
  945SOL    HW2 3546   3.804   4.172   3.489  1.0424  0.6882 -0.9920
  945SOL    HW3 3547   3.857   4.212   3.625  0.4378  0.1127 -0.5821
  945SOL    MW4 3548   3.844   4.230   3.541  0.6631  0.5386 -0.5306
  946SOL     OW 3549   1.359   5.357   0.750  0.2120 -0.0432 -0.6468
  946SOL    HW2 3550   1.330   5.403   0.829  0.1996  0.1822 -0.7836
  946SOL    HW3 3551   1.394   5.274   0.783  0.2004  0.0465 -0.4038
  946SOL    MW4 3552   1.360   5.352   0.765  0.2088 -0.0016 -0.6328
  947SOL     OW 3553   0.890   1.962   5.956 -0.1507  0.7114  0.7255
  947SOL    HW2 3554   0.963   1.906   5.929  0.6477  2.4431 -0.8878
  947SOL    HW3 3555   0.924   2.009   6.033  0.0076  0.6913  0.6688
  947SOL    MW4 3556   0.904   1.961   5.963 -0.0245  0.9372  0.5052
  948SOL     OW 3557   2.960   1.756   1.330 -0.5026  0.5002  0.1912
  948SOL    HW2 3558   2.912   1.732   1.409 -0.7848 -1.3494 -0.4971
  948SOL    HW3 3559   2.930   1.844   1.310 -1.5045  0.4485  1.3346
  948SOL    MW4 3560   2.949   1.764   1.338 -0.6720  0.2493  0.2512
  949SOL     OW 3561   1.965   4.539   3.349 -0.1948  0.2379  0.3597
  949SOL    HW2 3562   1.991   4.570   3.263 -1.7513 -0.5143 -0.4246
  949SOL    HW3 3563   2.026   4.468   3.368 -1.0295 -0.8940 -1.0221
  949SOL    MW4 3564   1.976   4.534   3.340 -0.5103 -0.0107  0.0739
  950SOL     OW 3565   3.874   2.510   3.793  0.0129  0.0410  0.2321
  950SOL    HW2 3566   3.867   2.522   3.699  1.5099 -0.0217  0.0851
  950SOL    HW3 3567   3.959   2.466   3.805  0.3011  0.9359  1.6743
  950SOL    MW4 3568   3.884   2.506   3.782  0.2484  0.1508  0.4030
  951SOL     OW 3569   1.812   4.706   1.442 -0.3923 -0.0902  0.1764
  951SOL    HW2 3570   1.878   4.642   1.466  2.6943  3.1243  1.0592
  951SOL    HW3 3571   1.792   4.753   1.523 -0.7811  1.5630 -0.8312
  951SOL    MW4 3572   1.818   4.704   1.455 -0.0363  0.5520  0.1600
  952SOL     OW 3573   4.406   3.010   0.205 -0.2431 -0.2262  0.4131
  952SOL    HW2 3574   4.392   2.932   0.259 -0.5492 -0.6941 -0.3161
  952SOL    HW3 3575   4.500   3.026   0.210 -0.0365 -1.1707 -0.1145
  952SOL    MW4 3576   4.417   3.002   0.213 -0.2563 -0.4125  0.2473
  953SOL     OW 3577   3.244   5.464   4.897 -0.4259 -0.5279  0.3010
  953SOL    HW2 3578   3.301   5.399   4.939 -0.0276 -0.4998 -0.1801
  953SOL    HW3 3579   3.291   5.488   4.817 -1.2633 -0.7151 -0.2531
  953SOL    MW4 3580   3.258   5.459   4.892 -0.4838 -0.5489  0.1644
  954SOL     OW 3581   3.357   2.829   3.672  0.5289 -0.4138 -0.2552
  954SOL    HW2 3582   3.359   2.912   3.625  1.8509 -0.9161 -1.1556
  954SOL    HW3 3583   3.420   2.839   3.743 -0.2563 -0.2236  0.4309
  954SOL    MW4 3584   3.366   2.841   3.675  0.5997 -0.4550 -0.2835
  955SOL     OW 3585   4.117   3.805   3.195 -0.6491 -0.2896  0.5480
  955SOL    HW2 3586   4.061   3.844   3.263 -0.4332  2.9933 -0.9578
  955SOL    HW3 3587   4.205   3.813   3.230 -0.6197  0.5628  0.3187
  955SOL    MW4 3588   4.121   3.811   3.209 -0.6167  0.2560  0.3191
  956SOL     OW 3589   0.197   0.553   0.904 -0.2345  0.1721 -0.1641
  956SOL    HW2 3590   0.156   0.596   0.829 -1.1357  0.1171  0.2940
  956SOL    HW3 3591   0.272   0.506   0.867  0.2088  1.3485 -0.8145
  956SOL    MW4 3592   0.202   0.553   0.889 -0.2949  0.3201 -0.1894
  957SOL     OW 3593   0.882   2.567   6.275 -0.0454  0.4926  0.3214
  957SOL    HW2 3594   0.792   2.575   6.307 -0.7599  2.3214 -1.9254
  957SOL    HW3 3595   0.873   2.543   6.183  1.8520 -0.6821  0.3814
  957SOL    MW4 3596   0.869   2.565   6.267  0.1107  0.5789  0.0329
  958SOL     OW 3597   4.335   2.788   1.535  0.0234 -0.0400  0.1785
  958SOL    HW2 3598   4.347   2.742   1.452  0.1291 -3.6850  2.0057
  958SOL    HW3 3599   4.385   2.736   1.599 -2.7498  0.5424  3.1132
  958SOL    MW4 3600   4.343   2.775   1.533 -0.3286 -0.4441  0.8068
  959SOL     OW 3601   5.895   2.014   1.520 -0.0523  0.3863 -0.2633
  959SOL    HW2 3602   5.828   1.973   1.466 -0.1072  0.8145 -0.5238
  959SOL    HW3 3603   5.968   1.953   1.518 -0.8204 -0.6140  0.9154
  959SOL    MW4 3604   5.895   2.001   1.513 -0.1609  0.3108 -0.1422
  960SOL     OW 3605   0.971   4.245   0.872 -0.1271 -0.3568  0.1083
  960SOL    HW2 3606   0.876   4.238   0.884 -0.1226 -3.3431 -0.7111
  960SOL    HW3 3607   0.984   4.331   0.832 -2.6795 -0.4265 -1.0733
  960SOL    MW4 3608   0.960   4.255   0.868 -0.4633 -0.7600 -0.1557
  961SOL     OW 3609   2.202   5.533   6.288 -0.5774 -0.0129 -0.1266
  961SOL    HW2 3610   2.112   5.510   6.262 -0.7088 -1.5294  1.5022
  961SOL    HW3 3611   2.234   5.588   6.216 -2.2207 -0.8337 -1.5660
  961SOL    MW4 3612   2.194   5.537   6.275 -0.8116 -0.3213 -0.1016
  962SOL     OW 3613   1.495   1.543   2.828 -0.0220  0.0098 -0.0302
  962SOL    HW2 3614   1.552   1.620   2.822  1.8364 -0.8683  3.4848
  962SOL    HW3 3615   1.408   1.579   2.844  0.7561  1.4827  1.1929
  962SOL    MW4 3616   1.491   1.558   2.829  0.3259  0.0882  0.5949
  963SOL     OW 3617   1.991   5.099   0.328 -0.2165 -0.1264 -0.0957
  963SOL    HW2 3618   2.027   5.085   0.415 -1.3121 -0.4757  0.3231
  963SOL    HW3 3619   2.062   5.076   0.268  0.8235  0.9035  0.6896
  963SOL    MW4 3620   2.005   5.094   0.332 -0.2239 -0.0366  0.0632
  964SOL     OW 3621   2.742   1.696   5.062  0.1974 -0.0844 -0.2148
  964SOL    HW2 3622   2.701   1.673   4.978 -1.1684  1.7803 -0.1041
  964SOL    HW3 3623   2.729   1.618   5.116 -0.5858 -0.6291 -1.1394
  964SOL    MW4 3624   2.735   1.682   5.058 -0.0861  0.0898 -0.3222
  965SOL     OW 3625   1.175   3.769   1.488  0.1370  0.0822 -0.5374
  965SOL    HW2 3626   1.148   3.726   1.407  1.1614  0.6810 -1.2184
  965SOL    HW3 3627   1.271   3.773   1.482  0.3264 -0.8870  1.2387
  965SOL    MW4 3628   1.184   3.764   1.476  0.2972  0.0333 -0.3929
  966SOL     OW 3629   3.504   0.454   4.954  0.2409 -0.0375 -0.1876
  966SOL    HW2 3630   3.438   0.387   4.972 -2.3825  2.3195 -0.2550
  966SOL    HW3 3631   3.494   0.473   4.861  0.5706  0.7939 -0.0625
  966SOL    MW4 3632   3.494   0.448   4.944 -0.0617  0.3832 -0.1800
  967SOL     OW 3633   4.778   3.738   6.081 -0.6068 -0.2698 -0.4413
  967SOL    HW2 3634   4.704   3.773   6.031 -0.5980 -0.3899 -0.5376
  967SOL    HW3 3635   4.821   3.677   6.021 -0.6193 -0.4435 -0.2745
  967SOL    MW4 3636   4.774   3.734   6.066 -0.6073 -0.3085 -0.4320
  968SOL     OW 3637   3.336   0.521   2.365 -0.5070 -0.1309  0.7973
  968SOL    HW2 3638   3.370   0.450   2.311 -2.3748 -1.1394  0.8591
  968SOL    HW3 3639   3.310   0.589   2.302 -2.5975 -1.2641  0.3279
  968SOL    MW4 3640   3.337   0.521   2.349 -1.0292 -0.4135  0.7436
  969SOL     OW 3641   4.555   2.371   3.658 -0.2848 -0.4581 -0.1685
  969SOL    HW2 3642   4.491   2.417   3.713  1.7773  1.0059  1.1375
  969SOL    HW3 3643   4.555   2.281   3.690 -0.8072 -0.1789  0.6461
  969SOL    MW4 3644   4.546   2.365   3.669 -0.0817 -0.2281  0.1113
  970SOL     OW 3645   0.128   3.873   6.227 -0.9546  0.4419  0.3651
  970SOL    HW2 3646   0.149   3.796   6.281  0.0324  0.8269  0.5646
  970SOL    HW3 3647   0.102   3.940   6.289 -0.1569  0.7781  0.3564
  970SOL    MW4 3648   0.128   3.871   6.242 -0.7191  0.5370  0.3903
  971SOL     OW 3649   5.504   2.005   5.278  0.2845  0.1571  0.1145
  971SOL    HW2 3650   5.438   1.942   5.307  1.1077  0.1382  2.0679
  971SOL    HW3 3651   5.476   2.089   5.314  0.3454  0.5221 -0.6561
  971SOL    MW4 3652   5.491   2.008   5.287  0.4011  0.2028  0.2706
  972SOL     OW 3653   1.062   2.707   4.617 -0.2010  0.1052  0.0524
  972SOL    HW2 3654   1.016   2.749   4.544 -0.5851  0.4014  0.4541
  972SOL    HW3 3655   1.089   2.780   4.673 -0.4745 -0.1508  0.5254
  972SOL    MW4 3656   1.059   2.722   4.615 -0.2878  0.1105  0.1678
  973SOL     OW 3657   2.820   4.843   0.954 -0.5612  0.3043  0.1236
  973SOL    HW2 3658   2.915   4.847   0.964 -0.5933  0.4947  0.3516
  973SOL    HW3 3659   2.794   4.931   0.929 -0.4845 -0.1441 -1.6484
  973SOL    MW4 3660   2.829   4.855   0.952 -0.5553  0.2703 -0.0801
  974SOL     OW 3661   5.109   3.082   0.345  0.2321 -0.1809 -0.3584
  974SOL    HW2 3662   5.171   3.017   0.380  0.1631 -0.1826 -0.2376
  974SOL    HW3 3663   5.048   3.097   0.417  1.3571  1.4424  0.3053
  974SOL    MW4 3664   5.109   3.075   0.359  0.3714  0.0331 -0.2549
  975SOL     OW 3665   3.693   2.978   3.630  0.0121  0.5088  0.4693
  975SOL    HW2 3666   3.699   2.883   3.615 -1.2914  0.3706  0.7289
  975SOL    HW3 3667   3.761   3.015   3.573 -0.2313 -0.4978 -0.5124
  975SOL    MW4 3668   3.703   2.970   3.621 -0.1920  0.3578  0.3741
  976SOL     OW 3669   3.544   5.413   4.417 -0.2491 -0.0406  0.1577
  976SOL    HW2 3670   3.482   5.447   4.481 -0.5952 -0.9445  0.3236
  976SOL    HW3 3671   3.624   5.397   4.466  0.3763  1.8052 -0.2022
  976SOL    MW4 3672   3.546   5.415   4.432 -0.2123  0.0837  0.1321
  977SOL     OW 3673   6.127   3.831   2.229  0.3119 -0.2866 -0.1259
  977SOL    HW2 3674   6.099   3.801   2.143  1.9700 -1.7588 -0.2100
  977SOL    HW3 3675   6.214   3.791   2.241  1.2227  1.9107  1.1758
  977SOL    MW4 3676   6.135   3.822   2.219  0.6508 -0.1910  0.0348
  978SOL     OW 3677   4.182   2.793   5.251 -0.1638  0.0507 -0.3875
  978SOL    HW2 3678   4.157   2.799   5.343  0.2420  5.3302 -0.2722
  978SOL    HW3 3679   4.267   2.748   5.252 -0.6242 -0.8935  1.6272
  978SOL    MW4 3680   4.190   2.788   5.263 -0.1710  0.6227 -0.1065
  979SOL     OW 3681   2.392   4.101   4.464 -0.3379 -0.2248 -0.0051
  979SOL    HW2 3682   2.433   4.186   4.452 -0.1639 -0.1930  0.7750
  979SOL    HW3 3683   2.373   4.097   4.557  0.4281 -1.3924  0.1167
  979SOL    MW4 3684   2.395   4.112   4.475 -0.2139 -0.3747  0.1139
  980SOL     OW 3685   3.846   4.309   4.256  0.3812  0.0584 -0.0330
  980SOL    HW2 3686   3.867   4.224   4.216  0.2765  1.0961 -2.4618
  980SOL    HW3 3687   3.751   4.313   4.256  0.3920  0.7070 -1.2137
  980SOL    MW4 3688   3.836   4.298   4.251  0.3688  0.2809 -0.5093
  981SOL     OW 3689   3.973   3.626   0.485  0.0368  0.1675  0.0848
  981SOL    HW2 3690   3.988   3.662   0.398 -0.0469 -0.0284 -0.0136
  981SOL    HW3 3691   3.896   3.672   0.517 -0.9545 -0.9136 -0.6240
  981SOL    MW4 3692   3.965   3.637   0.477 -0.1051 -0.0010 -0.0217
  982SOL     OW 3693   4.200   4.600   0.092  0.2566 -0.0322  0.3141
  982SOL    HW2 3694   4.187   4.506   0.085  0.3301 -0.0335  0.1885
  982SOL    HW3 3695   4.234   4.613   0.181 -0.8650  0.0052  0.7499
  982SOL    MW4 3696   4.203   4.589   0.103  0.1183 -0.0275  0.3550
  983SOL     OW 3697   4.431   1.616   0.543 -0.3654  0.6970  0.9416
  983SOL    HW2 3698   4.423   1.521   0.539  3.3346  0.2471  0.8279
  983SOL    HW3 3699   4.374   1.648   0.473 -0.4844 -1.5222 -0.0555
  983SOL    MW4 3700   4.422   1.608   0.533  0.1070  0.3448  0.7950
  984SOL     OW 3701   1.127   1.886   1.169 -0.1136  0.1568 -0.1940
  984SOL    HW2 3702   1.133   1.981   1.158 -1.0347  0.5105  1.8840
  984SOL    HW3 3703   1.216   1.859   1.191 -0.3934  1.0561  2.3069
  984SOL    MW4 3704   1.139   1.895   1.170 -0.2720  0.3221  0.4101
  985SOL     OW 3705   1.733   0.119   4.743  0.3390  0.2248  0.0407
  985SOL    HW2 3706   1.793   0.125   4.668 -0.1897 -0.2863 -0.4318
  985SOL    HW3 3707   1.750   0.198   4.794  1.3738  0.1146 -0.1205
  985SOL    MW4 3708   1.743   0.131   4.740  0.4057  0.1429 -0.0429
  986SOL     OW 3709   2.384   0.649   2.240  0.2494 -0.0549  0.1922
  986SOL    HW2 3710   2.359   0.607   2.323 -0.5667 -0.2087 -0.1119
  986SOL    HW3 3711   2.419   0.734   2.265  1.2913 -0.6429  0.7797
  986SOL    MW4 3712   2.385   0.654   2.254  0.2792 -0.1527  0.2296
  987SOL     OW 3713   5.631   5.491   1.774 -0.1632 -0.1120  0.1390
  987SOL    HW2 3714   5.609   5.423   1.838  1.0415  0.2595  0.9796
  987SOL    HW3 3715   5.722   5.514   1.794  0.1543  0.2177 -1.5379
  987SOL    MW4 3716   5.640   5.485   1.785  0.0377 -0.0195  0.0286
  988SOL     OW 3717   4.087   3.917   3.662 -0.6933  0.0117  0.9294
  988SOL    HW2 3718   4.027   3.855   3.621 -0.4749 -0.1560  0.8670
  988SOL    HW3 3719   4.102   3.882   3.750  0.3353 -0.6414  0.5081
  988SOL    MW4 3720   4.081   3.905   3.668 -0.5288 -0.0966  0.8656
  989SOL     OW 3721   3.169   2.782   3.870  0.2272 -0.0945  0.3663
  989SOL    HW2 3722   3.133   2.855   3.919 -1.0179 -0.1967 -0.3659
  989SOL    HW3 3723   3.222   2.822   3.802 -1.2236  0.1897 -0.6354
  989SOL    MW4 3724   3.172   2.797   3.868 -0.1285 -0.0705  0.1375
  990SOL     OW 3725   3.969   3.646   1.035  0.5986  0.2711 -0.3022
  990SOL    HW2 3726   3.897   3.684   1.085  1.2488 -1.0361  1.7337
  990SOL    HW3 3727   3.927   3.578   0.982  0.2688 -0.3135  0.6854
  990SOL    MW4 3728   3.954   3.642   1.034  0.6408  0.0215  0.0967
  991SOL     OW 3729   3.714   2.947   1.702  0.6373  0.2646  0.2892
  991SOL    HW2 3730   3.623   2.946   1.733  1.0735 -1.4976  1.7174
  991SOL    HW3 3731   3.711   2.901   1.618  0.3229 -0.8345  0.8704
  991SOL    MW4 3732   3.702   2.941   1.695  0.6534 -0.1129  0.5543
  992SOL     OW 3733   0.240   2.802   2.557  0.1916  0.2575 -0.8155
  992SOL    HW2 3734   0.252   2.801   2.462  0.7913 -0.7958 -0.7468
  992SOL    HW3 3735   0.190   2.722   2.575 -1.8686  1.5616 -0.4573
  992SOL    MW4 3736   0.235   2.791   2.547 -0.0011  0.2906 -0.7592
  993SOL     OW 3737   3.810   3.897   2.256 -0.3773 -0.2492  0.4320
  993SOL    HW2 3738   3.728   3.941   2.279  0.8180  2.4342 -0.0171
  993SOL    HW3 3739   3.806   3.890   2.160  0.3058  0.8213  0.3100
  993SOL    MW4 3740   3.799   3.902   2.246 -0.1295  0.2461  0.3567
  994SOL     OW 3741   3.569   3.649   5.102  0.2378 -0.1207 -0.0169
  994SOL    HW2 3742   3.479   3.679   5.102  0.7481  1.6119 -1.8598
  994SOL    HW3 3743   3.594   3.647   5.194 -1.9974 -1.8349  0.6376
  994SOL    MW4 3744   3.561   3.653   5.114  0.0103 -0.1183 -0.1737
  995SOL     OW 3745   0.781   3.484   4.683  0.1845 -0.6822  0.4207
  995SOL    HW2 3746   0.688   3.501   4.695 -0.1641 -3.0022  1.3877
  995SOL    HW3 3747   0.823   3.528   4.756 -0.2668 -0.6036  0.6351
  995SOL    MW4 3748   0.775   3.492   4.694  0.0789 -0.9779  0.5765
  996SOL     OW 3749   5.210   0.835   1.538  0.2531  0.0330 -0.1075
  996SOL    HW2 3750   5.246   0.844   1.450 -0.0205  0.0406 -0.2192
  996SOL    HW3 3751   5.124   0.878   1.533 -0.2028 -0.8694 -0.1095
  996SOL    MW4 3752   5.204   0.842   1.526  0.1568 -0.0851 -0.1225
  997SOL     OW 3753   6.407   4.529   1.403 -0.2470  0.4583 -0.9348
  997SOL    HW2 3754   6.313   4.514   1.393 -0.5695 -0.2264  2.2940
  997SOL    HW3 3755   6.416   4.624   1.409 -0.3562  0.7154 -3.4599
  997SOL    MW4 3756   6.396   4.540   1.402 -0.3039  0.4019 -0.8419
  998SOL     OW 3757   3.619   4.070   4.535  0.2397  0.1145 -0.6290
  998SOL    HW2 3758   3.699   4.123   4.534 -0.6782  1.5736 -0.3164
  998SOL    HW3 3759   3.645   3.988   4.578  1.9149 -0.1013 -1.9472
  998SOL    MW4 3760   3.633   4.066   4.541  0.3396  0.2786 -0.7616
  999SOL     OW 3761   0.886   3.046   0.546  0.0728  0.5446  0.3529
  999SOL    HW2 3762   0.957   3.002   0.593  1.0829 -3.4155 -4.1035
  999SOL    HW3 3763   0.806   3.004   0.578  0.2350  1.0493  1.4716
  999SOL    MW4 3764   0.885   3.035   0.557  0.2275  0.0887 -0.0875
 1000SOL     OW 3765   1.246   1.479   0.724 -0.1394  1.0324 -0.6810
 1000SOL    HW2 3766   1.241   1.387   0.751 -2.1395  1.0984 -0.6967
 1000SOL    HW3 3767   1.279   1.524   0.802 -2.6542  0.7532  0.6632
 1000SOL    MW4 3768   1.250   1.473   0.738 -0.7351  1.0043 -0.5058
 1001SOL     OW 3769   2.507   3.025   1.697 -0.1783  0.4755 -0.4140
 1001SOL    HW2 3770   2.474   2.957   1.756  0.3701 -1.6269 -2.3833
 1001SOL    HW3 3771   2.428   3.066   1.663 -0.5101  1.4157  1.3414
 1001SOL    MW4 3772   2.492   3.021   1.701 -0.1498  0.3222 -0.4422
 1002SOL     OW 3773   3.934   1.477   3.540  0.4289  0.1085 -0.2020
 1002SOL    HW2 3774   3.974   1.530   3.609  2.0209  0.5584 -1.4353
 1002SOL    HW3 3775   3.880   1.539   3.491 -0.8175 -0.2393  0.6567
 1002SOL    MW4 3776   3.932   1.492   3.543  0.4745  0.1220 -0.2514
 1003SOL     OW 3777   4.437   1.444   5.234  0.4048 -0.6213  0.1994
 1003SOL    HW2 3778   4.485   1.364   5.253 -1.2677 -1.0871  3.2646
 1003SOL    HW3 3779   4.346   1.416   5.227 -0.0695  0.8383  0.1582
 1003SOL    MW4 3780   4.431   1.430   5.236  0.1216 -0.4902  0.5984
 1004SOL     OW 3781   0.635   5.971   1.125  0.6724 -0.3127 -0.5497
 1004SOL    HW2 3782   0.660   5.886   1.090 -1.5932 -1.6525  0.8009
 1004SOL    HW3 3783   0.717   6.015   1.144  1.9119 -2.2519 -1.1577
 1004SOL    MW4 3784   0.649   5.966   1.123  0.5370 -0.7453 -0.4517
 1005SOL     OW 3785   3.137   4.341   4.803 -0.0754  0.0984  0.4920
 1005SOL    HW2 3786   3.216   4.290   4.785 -0.5542 -0.2828 -0.6121
 1005SOL    HW3 3787   3.106   4.309   4.887  0.1733 -0.7543  0.2699
 1005SOL    MW4 3788   3.143   4.330   4.811 -0.1058 -0.0644  0.3170
 1006SOL     OW 3789   1.390   5.672   2.781  0.2236  0.1452  0.3484
 1006SOL    HW2 3790   1.424   5.583   2.770 -0.4551 -0.3177  1.7362
 1006SOL    HW3 3791   1.439   5.708   2.855 -1.4934 -0.1685  1.7123
 1006SOL    MW4 3792   1.401   5.665   2.789 -0.0925  0.0428  0.7115
 1007SOL     OW 3793   3.989   2.003   4.717 -0.4806 -0.3991 -0.3610
 1007SOL    HW2 3794   3.968   2.041   4.632 -0.7101 -1.2250 -0.6889
 1007SOL    HW3 3795   3.907   1.963   4.747 -0.3111 -0.4246  0.0765
 1007SOL    MW4 3796   3.976   2.003   4.710 -0.4885 -0.5114 -0.3465
 1008SOL     OW 3797   5.126   1.300   0.008  0.0853  0.2187 -0.3221
 1008SOL    HW2 3798   5.082   1.385   0.011  2.0583  1.2946  0.1195
 1008SOL    HW3 3799   5.121   1.267   0.098  1.2514  0.9562  0.0351
 1008SOL    MW4 3800   5.120   1.307   0.020  0.4994  0.4580 -0.2167
 1009SOL     OW 3801   4.895   5.274   5.682  0.7168 -0.1937  0.3263
 1009SOL    HW2 3802   4.936   5.271   5.768 -1.2594  0.2779  1.3384
 1009SOL    HW3 3803   4.808   5.236   5.695  0.8842 -1.4929 -1.7981
 1009SOL    MW4 3804   4.888   5.269   5.695  0.4782 -0.3029  0.1796
 1010SOL     OW 3805   1.426   0.184   5.478  0.0064 -0.1613  0.0696
 1010SOL    HW2 3806   1.494   0.117   5.473  0.7521  0.6263 -0.7762
 1010SOL    HW3 3807   1.421   0.207   5.571  2.3011  1.1322 -0.0503
 1010SOL    MW4 3808   1.435   0.178   5.490  0.4075  0.1133 -0.0578
 1011SOL     OW 3809   2.196   6.389   1.290  0.7384  0.7638  0.4984
 1011SOL    HW2 3810   2.184   6.411   1.197  0.5362 -0.6938  0.1484
 1011SOL    HW3 3811   2.287   6.410   1.308  1.0088  0.2990 -0.2700
 1011SOL    MW4 3812   2.206   6.395   1.280  0.7474  0.5102  0.3509
 1012SOL     OW 3813   2.174   2.218   4.128 -0.6098 -0.0451 -0.2567
 1012SOL    HW2 3814   2.225   2.300   4.130 -4.2722  2.4939 -1.1295
 1012SOL    HW3 3815   2.231   2.156   4.082  2.2269  2.0243  0.1467
 1012SOL    MW4 3816   2.188   2.221   4.123 -0.7187  0.5629 -0.3187
 1013SOL     OW 3817   2.809   2.345   3.469 -0.1341 -0.5970  0.1807
 1013SOL    HW2 3818   2.795   2.273   3.530 -0.2816  0.0357  0.9153
 1013SOL    HW3 3819   2.729   2.397   3.476  0.8250  0.8119  1.3035
 1013SOL    MW4 3820   2.796   2.342   3.478 -0.0270 -0.3276  0.4258
 1014SOL     OW 3821   3.036   1.750   5.848  0.8470 -0.4340  0.0593
 1014SOL    HW2 3822   2.992   1.677   5.892  0.3138  0.4685  1.0740
 1014SOL    HW3 3823   3.080   1.797   5.918 -0.5391  1.4040 -0.2347
 1014SOL    MW4 3824   3.036   1.746   5.863  0.5938 -0.0724  0.1544
 1015SOL     OW 3825   6.129   2.062   1.026 -0.1268 -0.1236 -0.1929
 1015SOL    HW2 3826   6.215   2.098   1.002 -0.6850 -0.3584 -2.9702
 1015SOL    HW3 3827   6.127   1.976   0.982 -1.9347  0.0708 -0.5689
 1015SOL    MW4 3828   6.140   2.055   1.017 -0.4390 -0.1289 -0.6090
 1016SOL     OW 3829   3.463   5.828   1.728  0.2669  0.5775 -0.1729
 1016SOL    HW2 3830   3.553   5.857   1.715  0.9689 -0.7687  1.4107
 1016SOL    HW3 3831   3.456   5.747   1.676  0.2435  0.2164  0.3872
 1016SOL    MW4 3832   3.474   5.821   1.719  0.3564  0.3522  0.1099
 1017SOL     OW 3833   6.334   2.602   0.866  0.2292  0.4769 -0.3895
 1017SOL    HW2 3834   6.340   2.507   0.875  0.1578  0.4504 -0.6279
 1017SOL    HW3 3835   6.388   2.636   0.937  0.6610  0.2539 -0.6063
 1017SOL    MW4 3836   6.342   2.594   0.877  0.2768  0.4440 -0.4496
 1018SOL     OW 3837   4.308   2.378   4.579  0.3532 -0.1288 -0.0671
 1018SOL    HW2 3838   4.395   2.376   4.620  0.1033  0.8239  0.5479
 1018SOL    HW3 3839   4.251   2.411   4.648 -0.4955 -0.7177 -0.4813
 1018SOL    MW4 3840   4.312   2.382   4.594  0.2083 -0.0808 -0.0406
 1019SOL     OW 3841   2.584   1.633   3.362 -0.5923  0.3462  0.0740
 1019SOL    HW2 3842   2.664   1.643   3.413 -0.3217  1.1025 -0.4756
 1019SOL    HW3 3843   2.539   1.559   3.402 -0.6585  1.2487  1.7438
 1019SOL    MW4 3844   2.589   1.625   3.374 -0.5654  0.5651  0.2218
 1020SOL     OW 3845   1.796   5.969   2.950  0.8850  0.1369  0.3318
 1020SOL    HW2 3846   1.822   6.062   2.950  0.6809  0.2018 -0.3421
 1020SOL    HW3 3847   1.746   5.959   2.869  0.3603 -0.4158  0.7237
 1020SOL    MW4 3848   1.793   5.980   2.939  0.7888  0.0725  0.2946
 1021SOL     OW 3849   1.549   0.229   6.424 -0.1854  0.2117  0.2251
 1021SOL    HW2 3850   1.597   0.197   6.348  0.6876  0.0104  0.8500
 1021SOL    HW3 3851   1.485   0.290   6.388  0.1249  0.0146 -0.6816
 1021SOL    MW4 3852   1.547   0.233   6.409 -0.0293  0.1592  0.1879
 1022SOL     OW 3853   3.722   3.933   2.655  0.3002 -0.0671 -0.4441
 1022SOL    HW2 3854   3.672   3.965   2.580  1.4717  0.9737 -0.8202
 1022SOL    HW3 3855   3.794   3.884   2.617 -0.1785 -1.2157  0.0819
 1022SOL    MW4 3856   3.725   3.931   2.640  0.3916 -0.0813 -0.4243
 1023SOL     OW 3857   5.755   5.895   5.418  0.0395  0.1427 -0.6885
 1023SOL    HW2 3858   5.824   5.917   5.356 -0.6552 -1.4304 -2.1075
 1023SOL    HW3 3859   5.800   5.884   5.502  0.9457  2.7150 -0.7471
 1023SOL    MW4 3860   5.770   5.897   5.421  0.0674  0.2745 -0.8834
 1024SOL     OW 3861   0.862   2.776   4.139 -0.2158  0.4191  0.2585
 1024SOL    HW2 3862   0.857   2.762   4.233 -1.0290 -1.9336 -0.0867
 1024SOL    HW3 3863   0.775   2.805   4.114 -0.8174 -1.6464 -0.1308
 1024SOL    MW4 3864   0.850   2.778   4.148 -0.4025 -0.1638  0.1616
 1025SOL     OW 3865   0.273   5.545   3.085 -0.1198 -0.1291 -0.2986
 1025SOL    HW2 3866   0.230   5.525   3.168  0.9283 -0.2862  0.2219
 1025SOL    HW3 3867   0.324   5.467   3.064  0.6834  0.4049 -0.3974
 1025SOL    MW4 3868   0.274   5.532   3.093  0.1244 -0.0793 -0.2430
 1026SOL     OW 3869   6.151   3.363   0.688  0.0118  0.2846  0.1471
 1026SOL    HW2 3870   6.068   3.409   0.696 -0.0739  0.5671 -1.8736
 1026SOL    HW3 3871   6.217   3.429   0.710 -0.2108  0.6751 -0.3510
 1026SOL    MW4 3872   6.149   3.377   0.692 -0.0288  0.3734 -0.1852
 1027SOL     OW 3873   4.563   3.594   4.082  0.2237  1.0273 -0.4528
 1027SOL    HW2 3874   4.518   3.542   4.148  1.9584 -0.0287 -0.0402
 1027SOL    HW3 3875   4.493   3.629   4.027 -1.1754  0.8161  1.1189
 1027SOL    MW4 3876   4.548   3.592   4.083  0.2680  0.8601 -0.1910
 1028SOL     OW 3877   5.073   1.257   0.286 -0.8344 -0.3009 -0.2665
 1028SOL    HW2 3878   5.032   1.175   0.312 -1.0884 -0.0151  0.2628
 1028SOL    HW3 3879   5.004   1.323   0.299  0.0013  0.3172  1.4255
 1028SOL    MW4 3880   5.058   1.255   0.291 -0.7577 -0.1816  0.0266
 1029SOL     OW 3881   5.752   3.704   2.857 -0.0951 -0.0054  0.2543
 1029SOL    HW2 3882   5.697   3.674   2.930  0.3916  0.5092  0.8454
 1029SOL    HW3 3883   5.841   3.704   2.892 -0.0874  2.2819  0.3726
 1029SOL    MW4 3884   5.756   3.700   2.871 -0.0299  0.3642  0.3479
 1030SOL     OW 3885   1.393   1.778   2.646  0.6878  0.0528  0.3531
 1030SOL    HW2 3886   1.327   1.709   2.635  0.2705  0.5694 -0.5232
 1030SOL    HW3 3887   1.383   1.806   2.737  2.0583 -2.2051  1.2961
 1030SOL    MW4 3888   1.383   1.772   2.657  0.8136 -0.1769  0.3619
 1031SOL     OW 3889   3.807   0.568   3.159  0.1310 -0.2296 -0.1596
 1031SOL    HW2 3890   3.743   0.635   3.135  0.1176 -0.2317 -0.1307
 1031SOL    HW3 3891   3.804   0.566   3.255  0.5871  0.1637 -0.1365
 1031SOL    MW4 3892   3.798   0.577   3.168  0.1894 -0.1780 -0.1527
 1032SOL     OW 3893   3.500   2.821   1.192  0.4529 -0.0644 -0.5092
 1032SOL    HW2 3894   3.447   2.759   1.241  0.6006  0.3421  0.1892
 1032SOL    HW3 3895   3.539   2.877   1.260  1.6707 -0.2799 -1.0059
 1032SOL    MW4 3896   3.498   2.820   1.208  0.6330 -0.0392 -0.4826
 1033SOL     OW 3897   4.246   2.435   1.531  0.4253  0.1048  0.4021
 1033SOL    HW2 3898   4.292   2.475   1.458 -1.1670  0.6900 -0.3311
 1033SOL    HW3 3899   4.169   2.491   1.545 -1.3242 -2.0579  0.0254
 1033SOL    MW4 3900   4.242   2.448   1.524 -0.0156 -0.1033  0.2556
 1034SOL     OW 3901   5.542   4.297   4.069  0.0942  0.5726 -0.6509
 1034SOL    HW2 3902   5.542   4.205   4.095 -0.8585  0.0650 -2.3023
 1034SOL    HW3 3903   5.633   4.325   4.080  1.4498 -1.8175 -4.1333
 1034SOL    MW4 3904   5.554   4.288   4.074  0.1474  0.1903 -1.3282
 1035SOL     OW 3905   0.204   4.704   5.636  0.5207 -0.3735 -0.2424
 1035SOL    HW2 3906   0.236   4.615   5.651  2.0057  0.1654 -0.0597
 1035SOL    HW3 3907   0.261   4.759   5.690 -0.6349  0.6622 -0.0410
 1035SOL    MW4 3908   0.215   4.699   5.645  0.5642 -0.1658 -0.1917
 1036SOL     OW 3909   0.681   1.300   1.924 -0.1320 -0.0841 -0.0168
 1036SOL    HW2 3910   0.686   1.297   1.829 -1.8599  1.0084 -0.2016
 1036SOL    HW3 3911   0.677   1.394   1.945  0.3612 -0.2974  1.1467
 1036SOL    MW4 3912   0.681   1.312   1.914 -0.2949  0.0319  0.1123
 1037SOL     OW 3913   3.379   3.312   1.391  0.1606 -0.4741  0.2184
 1037SOL    HW2 3914   3.347   3.392   1.350  1.9514  0.4386  0.5327
 1037SOL    HW3 3915   3.329   3.305   1.472  0.6781  0.8765  0.6697
 1037SOL    MW4 3916   3.368   3.321   1.396  0.4651 -0.1754  0.3194
 1038SOL     OW 3917   4.839   2.904   3.570  0.1361  0.5586 -0.2104
 1038SOL    HW2 3918   4.908   2.959   3.606 -1.8126  2.1452  1.3249
 1038SOL    HW3 3919   4.841   2.825   3.624  0.5247  0.7407  0.0469
 1038SOL    MW4 3920   4.848   2.901   3.582 -0.0698  0.7920  0.0261
 1039SOL     OW 3921   6.106   0.402   2.236  0.5034  0.1727  0.0301
 1039SOL    HW2 3922   6.200   0.409   2.247  0.6570  0.5241 -1.3440
 1039SOL    HW3 3923   6.094   0.363   2.149 -0.6166  0.0381  0.2201
 1039SOL    MW4 3924   6.117   0.398   2.226  0.3759  0.2013 -0.1261
 1040SOL     OW 3925   5.512   3.673   0.896 -0.0324 -0.1549 -0.4879
 1040SOL    HW2 3926   5.592   3.646   0.940 -0.3676 -0.2537  0.0723
 1040SOL    HW3 3927   5.539   3.743   0.837  0.2751  0.6001  0.5364
 1040SOL    MW4 3928   5.526   3.678   0.894 -0.0361 -0.0683 -0.2788
 1041SOL     OW 3929   3.093   5.521   0.051  0.4190 -0.0378  0.2592
 1041SOL    HW2 3930   3.043   5.451   0.009  0.3344 -0.1595  0.5638
 1041SOL    HW3 3931   3.040   5.599   0.038  1.3397  0.3547 -1.6864
 1041SOL    MW4 3932   3.080   5.522   0.044  0.5293 -0.0021  0.0427
 1042SOL     OW 3933   5.324   3.739   3.211 -0.2589  0.1389 -0.0132
 1042SOL    HW2 3934   5.323   3.674   3.281  0.8646 -1.0718 -1.0720
 1042SOL    HW3 3935   5.271   3.811   3.245  0.2991 -0.3751  2.0965
 1042SOL    MW4 3936   5.317   3.740   3.224 -0.0370 -0.0886  0.1254
 1043SOL     OW 3937   5.001   2.315   5.584  0.1714 -0.6660  0.6429
 1043SOL    HW2 3938   4.995   2.221   5.597 -1.4737 -0.8048 -0.8377
 1043SOL    HW3 3939   4.923   2.338   5.535  1.5007  1.1794 -0.7631
 1043SOL    MW4 3940   4.990   2.306   5.579  0.1297 -0.4408  0.2621
 1044SOL     OW 3941   5.887   3.008   4.450  0.0519  0.4344 -0.1563
 1044SOL    HW2 3942   5.880   2.936   4.513 -1.1166  0.3236 -0.3997
 1044SOL    HW3 3943   5.846   3.082   4.494  0.9368  0.8730 -0.0487
 1044SOL    MW4 3944   5.881   3.008   4.464  0.0145  0.4776 -0.1742
 1045SOL     OW 3945   2.509   0.744   3.851  0.6904  0.4239 -0.0876
 1045SOL    HW2 3946   2.433   0.803   3.853  0.0129 -0.4516  0.8454
 1045SOL    HW3 3947   2.547   0.757   3.764 -0.2141  1.2610 -0.3785
 1045SOL    MW4 3948   2.504   0.754   3.840  0.4817  0.4188 -0.0029
 1046SOL     OW 3949   6.337   1.605   2.045  0.3456 -0.2095  0.2378
 1046SOL    HW2 3950   6.275   1.636   2.111  0.1755  0.3707 -0.1830
 1046SOL    HW3 3951   6.423   1.613   2.087  0.1430 -1.0827  0.8506
 1046SOL    MW4 3952   6.340   1.611   2.059  0.2965 -0.2481  0.2631
 1047SOL     OW 3953   3.099   4.781   6.353  0.3636 -0.2981 -0.3341
 1047SOL    HW2 3954   3.015   4.802   6.392  1.1617  1.9211  0.3295
 1047SOL    HW3 3955   3.151   4.861   6.361  3.2804 -2.1542  1.1452
 1047SOL    MW4 3956   3.095   4.794   6.359  0.8537 -0.2502 -0.0514
 1048SOL     OW 3957   2.946   6.112   1.049 -0.3473 -0.0301  0.1425
 1048SOL    HW2 3958   3.006   6.156   1.109  2.1444 -0.9300 -1.5235
 1048SOL    HW3 3959   2.995   6.036   1.017 -3.2089 -2.1278  0.2855
 1048SOL    MW4 3960   2.960   6.108   1.053 -0.3961 -0.4256 -0.0584
 1049SOL     OW 3961   2.475   0.766   6.393  0.1196  0.5173  0.0765
 1049SOL    HW2 3962   2.481   0.673   6.368 -2.3757  0.1163  0.7372
 1049SOL    HW3 3963   2.465   0.812   6.310 -1.4679 -0.1324 -0.1297
 1049SOL    MW4 3964   2.475   0.760   6.379 -0.4190  0.3787  0.1365
 1050SOL     OW 3965   3.610   5.578   5.851 -0.3016 -0.1340 -0.0404
 1050SOL    HW2 3966   3.570   5.497   5.883 -0.7728  0.3104  0.5198
 1050SOL    HW3 3967   3.541   5.644   5.859  0.5383  0.6610  0.9839
 1050SOL    MW4 3968   3.596   5.576   5.857 -0.2530  0.0295  0.1687
 1051SOL     OW 3969   5.356   4.909   4.146  0.0741 -0.1584  0.4349
 1051SOL    HW2 3970   5.405   4.838   4.104 -0.1189 -0.6271  0.9888
 1051SOL    HW3 3971   5.272   4.870   4.169 -0.5246  0.6172 -0.4097
 1051SOL    MW4 3972   5.352   4.894   4.143 -0.0303 -0.1179  0.3966
 1052SOL     OW 3973   6.398   4.933   4.378  0.0451 -0.4395  0.1395
 1052SOL    HW2 3974   6.450   4.861   4.341 -1.1130 -1.1228 -0.2293
 1052SOL    HW3 3975   6.438   4.949   4.464  0.0310 -1.8879  0.4569
 1052SOL    MW4 3976   6.410   4.925   4.385 -0.1096 -0.7208  0.1327
 1053SOL     OW 3977   2.343   1.301   5.360 -0.0238  0.0409  0.1308
 1053SOL    HW2 3978   2.406   1.259   5.301 -0.0647 -0.2542  0.2933
 1053SOL    HW3 3979   2.280   1.231   5.380 -0.1048  0.1890  0.3900
 1053SOL    MW4 3980   2.343   1.286   5.355 -0.0399  0.0215  0.1864
 1054SOL     OW 3981   1.437   0.239   1.955  0.6952 -0.2434  0.1446
 1054SOL    HW2 3982   1.532   0.250   1.954  0.7900 -0.6687  1.6950
 1054SOL    HW3 3983   1.413   0.244   2.048 -0.9879  1.3811 -0.3146
 1054SOL    MW4 3984   1.446   0.241   1.967  0.4856 -0.0851  0.2886
 1055SOL     OW 3985   1.975   3.227   5.487  0.5790 -0.0731 -0.0160
 1055SOL    HW2 3986   1.929   3.190   5.563 -0.4869 -1.0524 -1.0994
 1055SOL    HW3 3987   1.932   3.188   5.411  1.8085  0.6646 -1.1409
 1055SOL    MW4 3988   1.963   3.217   5.487  0.6005 -0.1049 -0.3074
 1056SOL     OW 3989   1.596   5.058   3.735 -0.4672  0.7813 -0.5167
 1056SOL    HW2 3990   1.624   5.079   3.646  1.4416 -1.0358 -0.4173
 1056SOL    HW3 3991   1.535   4.985   3.725 -2.2643  2.1925 -0.4407
 1056SOL    MW4 3992   1.591   5.051   3.722 -0.4525  0.7277 -0.4935
 1057SOL     OW 3993   4.548   2.120   3.753 -0.7663  0.2503  0.6187
 1057SOL    HW2 3994   4.474   2.088   3.805 -1.1308  0.5199  0.2673
 1057SOL    HW3 3995   4.578   2.043   3.705 -1.2412  0.2908  0.2560
 1057SOL    MW4 3996   4.542   2.106   3.754 -0.8770  0.2912  0.5245
 1058SOL     OW 3997   6.292   3.937   5.935  0.3170  0.5078  0.0474
 1058SOL    HW2 3998   6.365   3.985   5.974  0.4027  0.4002  0.0187
 1058SOL    HW3 3999   6.308   3.846   5.957 -0.3180  0.5818  0.8653
 1058SOL    MW4 4000   6.304   3.931   5.943  0.2445  0.5033  0.1516
 1059SOL     OW 4001   4.132   6.224   1.448  0.2511 -0.1093 -0.2702
 1059SOL    HW2 4002   4.151   6.200   1.538 -1.1045 -1.1116 -0.2252
 1059SOL    HW3 4003   4.210   6.272   1.419  0.6253  0.4049  1.4763
 1059SOL    MW4 4004   4.145   6.227   1.456  0.1216 -0.1737 -0.0338
 1060SOL     OW 4005   2.382   6.369   4.882  0.5624  0.0997  0.3488
 1060SOL    HW2 4006   2.305   6.345   4.831  1.5605  0.2112 -1.2939
 1060SOL    HW3 4007   2.450   6.308   4.853  1.0500 -0.1605  1.9439
 1060SOL    MW4 4008   2.381   6.358   4.872  0.7584  0.0801  0.3425
 1061SOL     OW 4009   5.925   0.093   1.304 -0.4463 -0.0280 -0.2682
 1061SOL    HW2 4010   5.879   0.013   1.281 -0.6329 -0.6300  1.9965
 1061SOL    HW3 4011   5.993   0.066   1.366 -0.5910  1.5428  0.6487
 1061SOL    MW4 4012   5.928   0.079   1.309 -0.4900  0.0998  0.1515
 1062SOL     OW 4013   5.505   3.816   2.756 -0.1097 -0.1647  0.2612
 1062SOL    HW2 4014   5.426   3.774   2.790 -0.2679 -0.0007  0.1010
 1062SOL    HW3 4015   5.577   3.766   2.794 -0.2930 -0.5163  0.1589
 1062SOL    MW4 4016   5.504   3.804   2.765 -0.1547 -0.1894  0.2265
 1063SOL     OW 4017   1.923   2.741   5.208 -0.4008 -0.1097 -0.1070
 1063SOL    HW2 4018   1.828   2.747   5.214 -0.2615  1.3423  1.0444
 1063SOL    HW3 4019   1.955   2.827   5.234  1.2159 -0.2896 -1.3242
 1063SOL    MW4 4020   1.914   2.753   5.212 -0.1692  0.0581 -0.1157
 1064SOL     OW 4021   0.835   5.834   2.701  0.2652 -0.4293 -0.1776
 1064SOL    HW2 4022   0.861   5.767   2.637 -0.6522 -0.1403 -0.8816
 1064SOL    HW3 4023   0.793   5.902   2.648  0.0587  0.1205  0.6723
 1064SOL    MW4 4024   0.833   5.834   2.685  0.1169 -0.3186 -0.1583
 1065SOL     OW 4025   2.904   3.416   2.267 -0.0199 -0.3726 -0.3868
 1065SOL    HW2 4026   2.934   3.465   2.344 -0.4959 -1.3334  0.4389
 1065SOL    HW3 4027   2.982   3.408   2.212  0.7034 -0.9223  0.6815
 1065SOL    MW4 4028   2.918   3.421   2.270  0.0128 -0.5719 -0.1369
 1066SOL     OW 4029   3.183   1.370   1.316  0.0861  0.9587 -0.1179
 1066SOL    HW2 4030   3.162   1.400   1.228 -0.5171  1.5230  0.2074
 1066SOL    HW3 4031   3.097   1.358   1.358  0.2137 -2.1906 -0.5221
 1066SOL    MW4 4032   3.169   1.372   1.310  0.0234  0.6177 -0.1283
 1067SOL     OW 4033   5.061   3.698   1.964 -0.7573  0.2384 -0.1437
 1067SOL    HW2 4034   5.045   3.671   1.874  0.8334  1.5740 -0.8566
 1067SOL    HW3 4035   4.974   3.696   2.005 -1.8845  1.6903 -2.2841
 1067SOL    MW4 4036   5.047   3.694   1.958 -0.6961  0.6062 -0.5202
 1068SOL     OW 4037   0.315   4.847   1.998  0.3863  0.2204 -0.1506
 1068SOL    HW2 4038   0.315   4.938   1.970  1.1101  0.3377  0.1977
 1068SOL    HW3 4039   0.396   4.811   1.962 -0.5893 -0.7048 -1.5550
 1068SOL    MW4 4040   0.326   4.854   1.989  0.3531  0.1138 -0.2900
 1069SOL     OW 4041   1.254   0.309   3.901  0.6675  0.2445  0.6471
 1069SOL    HW2 4042   1.298   0.236   3.944  0.2225 -1.4846 -1.6191
 1069SOL    HW3 4043   1.172   0.319   3.949  0.4587 -1.2084  0.6610
 1069SOL    MW4 4044   1.249   0.300   3.913  0.5812 -0.1753  0.3499
 1070SOL     OW 4045   1.114   1.723   3.417  0.2885 -0.2517  0.5210
 1070SOL    HW2 4046   1.050   1.652   3.410  0.0991 -0.1590  1.2740
 1070SOL    HW3 4047   1.120   1.742   3.510  0.3144  0.7465  0.3333
 1070SOL    MW4 4048   1.106   1.716   3.428  0.2669 -0.1078  0.5956
 1071SOL     OW 4049   1.809   1.033   1.089 -0.2759 -0.8915  0.0065
 1071SOL    HW2 4050   1.855   1.009   1.169 -3.1297  2.1700  2.9160
 1071SOL    HW3 4051   1.738   0.970   1.082 -1.6883  0.4082  1.6819
 1071SOL    MW4 4052   1.806   1.022   1.099 -0.8388 -0.3161  0.6114
 1072SOL     OW 4053   3.770   3.757   5.881  0.1320  0.3433 -0.2003
 1072SOL    HW2 4054   3.807   3.670   5.865 -0.5916 -0.0926  0.4510
 1072SOL    HW3 4055   3.811   3.812   5.814  2.1664 -0.0489  0.6529
 1072SOL    MW4 4056   3.780   3.753   5.870  0.3050  0.2340 -0.0018
 1073SOL     OW 4057   4.014   5.932   1.584  0.4232  0.0623 -0.0299
 1073SOL    HW2 4058   4.108   5.937   1.567  0.4122  1.6484  0.1889
 1073SOL    HW3 4059   3.990   5.842   1.565  1.6901  0.0309 -1.6166
 1073SOL    MW4 4060   4.023   5.921   1.580  0.5889  0.2674 -0.2104
 1074SOL     OW 4061   1.483   5.458   3.769 -0.2037 -0.4188  0.4006
 1074SOL    HW2 4062   1.447   5.404   3.698  0.6304 -0.1016 -0.2774
 1074SOL    HW3 4063   1.574   5.472   3.744 -0.3803  1.2600  0.5836
 1074SOL    MW4 4064   1.490   5.453   3.756 -0.1169 -0.1555  0.3353
 1075SOL     OW 4065   3.981   4.185   5.815 -0.2367  0.2146  0.2367
 1075SOL    HW2 4066   4.001   4.225   5.899  1.2315  0.6728 -0.3010
 1075SOL    HW3 4067   3.968   4.092   5.834 -0.4965  0.4097  1.0396
 1075SOL    MW4 4068   3.982   4.178   5.828 -0.0773  0.3008  0.2717
 1076SOL     OW 4069   1.911   0.981   2.341  0.1548 -0.4465  0.1168
 1076SOL    HW2 4070   1.835   0.924   2.348  0.0307 -0.3382 -0.3054
 1076SOL    HW3 4071   1.876   1.064   2.309  0.1336  0.3293  2.0322
 1076SOL    MW4 4072   1.896   0.984   2.337  0.1357 -0.3299  0.3138
 1077SOL     OW 4073   0.808   4.484   0.222 -0.4460 -0.3978  0.1887
 1077SOL    HW2 4074   0.722   4.445   0.214 -1.2832  1.0842  1.4279
 1077SOL    HW3 4075   0.792   4.572   0.255  1.5425 -0.0606  0.4178
 1077SOL    MW4 4076   0.795   4.491   0.225 -0.2941 -0.1578  0.3824
 1078SOL     OW 4077   0.687   0.766   2.610 -0.0792 -0.3588 -0.0989
 1078SOL    HW2 4078   0.598   0.733   2.614  0.9278 -3.6212 -1.3633
 1078SOL    HW3 4079   0.700   0.790   2.518  0.3342  0.2367  0.1035
 1078SOL    MW4 4080   0.677   0.765   2.598  0.1082 -0.7107 -0.2390
 1079SOL     OW 4081   2.201   1.634   5.486 -0.1479  0.5993  0.2113
 1079SOL    HW2 4082   2.288   1.640   5.446  0.3438  1.8136  1.4103
 1079SOL    HW3 4083   2.140   1.647   5.413  0.5483 -2.1967 -1.0411
 1079SOL    MW4 4084   2.205   1.636   5.471  0.0088  0.3906  0.2043
 1080SOL     OW 4085   1.250   0.500   5.481  0.1017 -0.4145  0.1034
 1080SOL    HW2 4086   1.197   0.574   5.452 -0.2457 -0.4078  0.7407
 1080SOL    HW3 4087   1.334   0.512   5.437 -0.4252 -0.4350 -0.9386
 1080SOL    MW4 4088   1.254   0.511   5.471 -0.0137 -0.4163  0.0500
 1081SOL     OW 4089   0.892   0.965   4.340 -0.5116  0.2832  0.0611
 1081SOL    HW2 4090   0.818   0.916   4.305  2.9159 -5.9065  0.0095
 1081SOL    HW3 4091   0.881   0.961   4.435 -0.7377  0.2381  0.0321
 1081SOL    MW4 4092   0.881   0.958   4.348 -0.0892 -0.5394  0.0505
 1082SOL     OW 4093   5.499   2.019   2.868  0.1685  0.6673  0.0621
 1082SOL    HW2 4094   5.406   2.033   2.850  0.3278  2.1610  0.2693
 1082SOL    HW3 4095   5.503   2.002   2.962  0.0625  0.1377 -0.0274
 1082SOL    MW4 4096   5.487   2.019   2.878  0.1755  0.7945  0.0776
 1083SOL     OW 4097   1.250   3.058   6.412  0.4591 -0.2317 -0.3221
 1083SOL    HW2 4098   1.293   2.972   6.415  1.9969  0.5151  0.0496
 1083SOL    HW3 4099   1.194   3.059   6.490 -0.0990 -1.1346 -0.6889
 1083SOL    MW4 4100   1.248   3.046   6.423  0.5884 -0.2523 -0.3215
 1084SOL     OW 4101   1.186   1.358   5.902 -0.1243 -0.0987 -0.1397
 1084SOL    HW2 4102   1.235   1.277   5.890  1.3793  0.4841  1.6401
 1084SOL    HW3 4103   1.101   1.330   5.935 -0.1565 -0.9923 -0.9304
 1084SOL    MW4 4104   1.181   1.344   5.904  0.0698 -0.1397 -0.0092
 1085SOL     OW 4105   1.475   1.013   1.285 -0.4325  0.0615 -0.4815
 1085SOL    HW2 4106   1.461   0.978   1.372 -1.8257  0.8067 -0.3847
 1085SOL    HW3 4107   1.531   1.090   1.298 -1.1545  0.5396 -0.1585
 1085SOL    MW4 4108   1.481   1.019   1.298 -0.7116  0.2229 -0.4261
 1086SOL     OW 4109   4.553   0.884   2.154  0.3581 -0.7728 -0.2020
 1086SOL    HW2 4110   4.467   0.926   2.150  1.1654  0.9267 -0.5048
 1086SOL    HW3 4111   4.554   0.825   2.079 -1.0195 -1.8458  0.5570
 1086SOL    MW4 4112   4.541   0.882   2.144  0.2829 -0.6901 -0.1418
 1087SOL     OW 4113   5.162   3.859   6.093 -0.1232  0.4236 -0.0755
 1087SOL    HW2 4114   5.153   3.798   6.165 -0.4782 -0.1554 -0.5994
 1087SOL    HW3 4115   5.139   3.808   6.015  0.6093  0.9330 -0.6409
 1087SOL    MW4 4116   5.158   3.844   6.092 -0.0734  0.4145 -0.2192
 1088SOL     OW 4117   1.537   4.644   2.865 -0.0614  0.0829  0.4222
 1088SOL    HW2 4118   1.580   4.560   2.880 -1.9468 -1.0607 -0.2262
 1088SOL    HW3 4119   1.489   4.660   2.947 -0.1388  0.2599  0.3406
 1088SOL    MW4 4120   1.536   4.635   2.878 -0.3204 -0.0446  0.3258
 1089SOL     OW 4121   1.013   4.448   1.865 -0.1702  0.3309 -0.1424
 1089SOL    HW2 4122   0.944   4.498   1.822 -0.5921  0.4975  0.7022
 1089SOL    HW3 4123   1.090   4.458   1.809 -0.0562  2.4547  0.3011
 1089SOL    MW4 4124   1.014   4.456   1.852 -0.2108  0.6331  0.0275
 1090SOL     OW 4125   2.280   5.216   5.819 -0.0129 -0.3423 -0.3416
 1090SOL    HW2 4126   2.268   5.252   5.907 -0.2253 -0.2744 -0.3983
 1090SOL    HW3 4127   2.192   5.218   5.780  0.3596  1.2876 -1.1991
 1090SOL    MW4 4128   2.267   5.221   5.826  0.0082 -0.1183 -0.4622
 1091SOL     OW 4129   1.396   6.177   1.812 -0.0466  0.5939 -0.3002
 1091SOL    HW2 4130   1.444   6.107   1.767  0.3980 -0.5949  1.8912
 1091SOL    HW3 4131   1.398   6.251   1.750  1.0338 -0.7379 -1.9449
 1091SOL    MW4 4132   1.403   6.178   1.798  0.1546  0.2613 -0.2281
 1092SOL     OW 4133   2.273   2.281   1.175  0.2357 -0.2796 -0.2995
 1092SOL    HW2 4134   2.329   2.204   1.176 -0.4307 -0.8072  1.9243
 1092SOL    HW3 4135   2.321   2.346   1.226  1.0319  1.0530 -2.5687
 1092SOL    MW4 4136   2.286   2.280   1.182  0.2528 -0.1734 -0.3055
 1093SOL     OW 4137   2.908   2.935   5.696 -0.3231 -0.3290 -0.5561
 1093SOL    HW2 4138   2.869   2.847   5.698  1.3312 -1.0787  0.7977
 1093SOL    HW3 4139   2.988   2.927   5.747  1.4316  1.2469 -2.8287
 1093SOL    MW4 4140   2.914   2.922   5.703  0.1266 -0.2200 -0.6773
 1094SOL     OW 4141   0.430   2.547   0.124  0.0405  0.2909  0.1061
 1094SOL    HW2 4142   0.375   2.557   0.046  0.1451  2.6730  0.2815
 1094SOL    HW3 4143   0.369   2.543   0.197 -0.0098 -0.7442  0.0193
 1094SOL    MW4 4144   0.415   2.548   0.123  0.0477  0.4686  0.1178
 1095SOL     OW 4145   3.547   3.778   3.074  0.3636  0.6108 -0.1841
 1095SOL    HW2 4146   3.460   3.749   3.101  0.6791  1.1048  1.5073
 1095SOL    HW3 4147   3.606   3.737   3.137  1.7189 -1.9575 -2.8802
 1095SOL    MW4 4148   3.544   3.769   3.086  0.5841  0.3371 -0.3167
 1096SOL     OW 4149   3.176   3.012   4.010  0.1496  0.2742 -0.2304
 1096SOL    HW2 4150   3.265   3.033   4.039 -0.1658  0.1986  0.8614
 1096SOL    HW3 4151   3.165   3.061   3.928  1.8596 -1.2683 -1.4432
 1096SOL    MW4 4152   3.186   3.021   4.003  0.3336  0.0607 -0.2464
 1097SOL     OW 4153   0.629   6.221   1.920 -0.1709  0.1222 -0.0993
 1097SOL    HW2 4154   0.690   6.185   1.855 -0.1112  1.5030 -0.8521
 1097SOL    HW3 4155   0.577   6.146   1.948 -0.3737 -0.4782 -1.9528
 1097SOL    MW4 4156   0.631   6.207   1.915 -0.1898  0.2251 -0.4432
 1098SOL     OW 4157   4.739   0.368   2.944 -0.1248  0.9019  0.2976
 1098SOL    HW2 4158   4.808   0.330   2.999  0.6718  1.4488 -0.2866
 1098SOL    HW3 4159   4.784   0.391   2.862 -1.4854 -0.9310 -1.0555
 1098SOL    MW4 4160   4.754   0.366   2.940 -0.1992  0.7323  0.0420
 1099SOL     OW 4161   2.713   1.555   3.132  0.2307  0.1223  0.2157
 1099SOL    HW2 4162   2.768   1.615   3.081  1.8571  0.4847  2.2650
 1099SOL    HW3 4163   2.676   1.610   3.202  0.5172 -0.9281  1.2280
 1099SOL    MW4 4164   2.715   1.570   3.135  0.4831  0.0315  0.6196
 1100SOL     OW 4165   4.693   3.648   3.125  0.2510 -0.0663  0.1583
 1100SOL    HW2 4166   4.729   3.599   3.199  0.6631  0.9820  0.6788
 1100SOL    HW3 4167   4.758   3.639   3.056  0.5949  0.1987  0.4413
 1100SOL    MW4 4168   4.707   3.640   3.126  0.3507  0.1070  0.2643
 1101SOL     OW 4169   4.238   5.361   2.158  0.3363  0.3198 -0.2598
 1101SOL    HW2 4170   4.262   5.271   2.137 -0.3052  0.3990 -1.4338
 1101SOL    HW3 4171   4.295   5.414   2.103 -0.8656  0.5544 -1.3289
 1101SOL    MW4 4172   4.249   5.356   2.148  0.0931  0.3612 -0.5557
 1102SOL     OW 4173   4.710   0.127   1.477 -0.4398  0.1057  0.2351
 1102SOL    HW2 4174   4.792   0.170   1.502 -0.6100 -0.0316  1.0691
 1102SOL    HW3 4175   4.737   0.054   1.422  0.1088 -0.6458  1.4499
 1102SOL    MW4 4176   4.724   0.123   1.473 -0.3899 -0.0116  0.5054
 1103SOL     OW 4177   4.629   4.182   4.775  0.1567  0.1666 -0.1464
 1103SOL    HW2 4178   4.664   4.243   4.840  0.1165  1.2685 -1.1395
 1103SOL    HW3 4179   4.621   4.233   4.695 -0.6378 -0.9385 -0.8045
 1103SOL    MW4 4180   4.633   4.197   4.773  0.0466  0.1662 -0.3643
 1104SOL     OW 4181   4.031   2.397   1.238 -0.0056 -1.1063 -0.6854
 1104SOL    HW2 4182   3.936   2.399   1.245  0.0760 -1.7091  2.2887
 1104SOL    HW3 4183   4.053   2.303   1.237  0.5603 -1.0200  0.7005
 1104SOL    MW4 4184   4.022   2.385   1.239  0.0798 -1.1744 -0.1101
 1105SOL     OW 4185   0.971   2.238   2.034 -0.1548  0.3498  0.1036
 1105SOL    HW2 4186   1.031   2.276   2.098  0.9119  1.2009 -1.3534
 1105SOL    HW3 4187   0.884   2.258   2.068  0.3618  0.0814  1.6698
 1105SOL    MW4 4188   0.968   2.245   2.047  0.0541  0.4267  0.1180
 1106SOL     OW 4189   0.559   1.605   0.858 -0.2227 -0.4833 -0.3494
 1106SOL    HW2 4190   0.598   1.640   0.938 -0.9277  0.4230 -0.3877
 1106SOL    HW3 4191   0.629   1.611   0.793  0.3508 -1.2181  0.1894
 1106SOL    MW4 4192   0.573   1.610   0.860 -0.2401 -0.4607 -0.2833
 1107SOL     OW 4193   1.158   3.702   5.571  0.5176  0.7174  0.4531
 1107SOL    HW2 4194   1.194   3.774   5.518 -0.8388  0.5173 -0.8361
 1107SOL    HW3 4195   1.120   3.642   5.506 -0.2703 -0.0810  1.6167
 1107SOL    MW4 4196   1.157   3.704   5.555  0.2347  0.5856  0.4365
 1108SOL     OW 4197   5.717   4.139   4.406 -0.6633  0.3249  0.5537
 1108SOL    HW2 4198   5.703   4.234   4.402 -0.1061  0.3693 -0.9568
 1108SOL    HW3 4199   5.660   4.104   4.338  1.2990 -0.1233 -0.9351
 1108SOL    MW4 4200   5.707   4.147   4.396 -0.3309  0.2716  0.1580
 1109SOL     OW 4201   3.095   0.467   6.082 -0.3665 -0.2668  0.1441
 1109SOL    HW2 4202   3.062   0.380   6.106  0.1206 -0.6905 -0.7064
 1109SOL    HW3 4203   3.165   0.450   6.020 -0.5900  0.7582 -0.4030
 1109SOL    MW4 4204   3.100   0.453   6.077 -0.3317 -0.1875 -0.0403
 1110SOL     OW 4205   0.960   0.420   4.687  0.2321 -0.9012 -0.7404
 1110SOL    HW2 4206   0.975   0.479   4.613 -3.0424  0.7897 -0.2624
 1110SOL    HW3 4207   0.895   0.358   4.655 -1.2666 -0.1138  0.6478
 1110SOL    MW4 4208   0.953   0.420   4.673 -0.3977 -0.5742 -0.4941
 1111SOL     OW 4209   6.203   2.857   2.899  0.0940  0.4272 -0.1601
 1111SOL    HW2 4210   6.172   2.772   2.930 -0.9567  0.6809 -0.4717
 1111SOL    HW3 4211   6.290   2.866   2.937 -0.3722 -0.1297  1.0855
 1111SOL    MW4 4212   6.210   2.847   2.908 -0.1062  0.3872 -0.0369
 1112SOL     OW 4213   3.342   4.148   3.113 -0.3529 -0.0265  0.0408
 1112SOL    HW2 4214   3.329   4.235   3.150 -2.3388 -0.4406  0.4401
 1112SOL    HW3 4215   3.352   4.163   3.019  0.6624  0.7155  0.2552
 1112SOL    MW4 4216   3.341   4.162   3.105 -0.4810  0.0168  0.1218
 1113SOL     OW 4217   1.213   0.659   4.778  0.2591 -0.0381 -0.3573
 1113SOL    HW2 4218   1.268   0.638   4.853  0.1473  0.8756 -0.0148
 1113SOL    HW3 4219   1.248   0.605   4.707  1.3691  0.2666 -0.0580
 1113SOL    MW4 4220   1.225   0.649   4.779  0.3908  0.1226 -0.2726
 1114SOL     OW 4221   3.124   6.005   4.240 -0.3047  0.2851 -0.9008
 1114SOL    HW2 4222   3.212   5.968   4.226  0.0867  1.5294 -1.9613
 1114SOL    HW3 4223   3.140   6.096   4.264 -1.1904 -0.4448  3.1484
 1114SOL    MW4 4224   3.138   6.012   4.241 -0.3699  0.3530 -0.5065
 1115SOL     OW 4225   2.370   5.384   0.208 -0.5348 -0.2253 -0.4540
 1115SOL    HW2 4226   2.413   5.306   0.243 -0.3192  0.3000  0.4845
 1115SOL    HW3 4227   2.281   5.380   0.244 -0.4653  0.0523 -0.2430
 1115SOL    MW4 4228   2.364   5.373   0.218 -0.4972 -0.1193 -0.3023
 1116SOL     OW 4229   2.383   1.839   0.350  0.0039  0.2388 -0.7220
 1116SOL    HW2 4230   2.461   1.784   0.353 -0.7557 -0.8382  0.2340
 1116SOL    HW3 4231   2.376   1.867   0.258  0.8453 -0.6161 -1.0550
 1116SOL    MW4 4232   2.392   1.836   0.338  0.0147 -0.0161 -0.6398
 1117SOL     OW 4233   3.667   1.289   3.329 -0.1797  0.2425 -0.3258
 1117SOL    HW2 4234   3.754   1.254   3.345 -0.6581 -0.7008  0.2993
 1117SOL    HW3 4235   3.634   1.241   3.253 -0.3336  0.2599 -0.2713
 1117SOL    MW4 4236   3.674   1.278   3.321 -0.2631  0.1203 -0.2361
 1118SOL     OW 4237   2.781   2.171   2.147 -0.0018  0.1810  0.4405
 1118SOL    HW2 4238   2.854   2.226   2.177  0.6535  0.4813 -1.5854
 1118SOL    HW3 4239   2.705   2.229   2.153 -0.0887 -0.0492  2.3048
 1118SOL    MW4 4240   2.781   2.186   2.152  0.0732  0.1903  0.4192
 1119SOL     OW 4241   4.017   1.442   3.952 -0.0251  0.1830 -0.1734
 1119SOL    HW2 4242   3.977   1.372   4.003 -0.7209  0.9613  0.3747
 1119SOL    HW3 4243   3.952   1.463   3.885 -1.0330  2.1409  1.3343
 1119SOL    MW4 4244   4.003   1.436   3.950 -0.2499  0.5440  0.0978
 1120SOL     OW 4245   4.534   2.311   4.751  0.0938  0.2623 -0.0837
 1120SOL    HW2 4246   4.615   2.310   4.802 -0.1076  1.2155  0.2666
 1120SOL    HW3 4247   4.507   2.219   4.749  1.2711 -0.0975 -0.3611
 1120SOL    MW4 4248   4.541   2.298   4.758  0.2226  0.3406 -0.0741
 1121SOL     OW 4249   0.674   3.429   1.436  0.6259 -0.2444 -0.2899
 1121SOL    HW2 4250   0.654   3.505   1.381  1.0715  0.5996  0.6851
 1121SOL    HW3 4251   0.594   3.415   1.487  0.6019 -0.3212 -0.3492
 1121SOL    MW4 4252   0.661   3.437   1.435  0.6816 -0.1432 -0.1691
 1122SOL     OW 4253   0.810   3.934   5.373  0.1834 -0.3005  0.3027
 1122SOL    HW2 4254   0.892   3.949   5.327 -0.3791  2.0576 -0.0557
 1122SOL    HW3 4255   0.743   3.975   5.318 -0.6631  1.5630  2.5501
 1122SOL    MW4 4256   0.812   3.942   5.360 -0.0025  0.2565  0.5520
 1123SOL     OW 4257   5.175   4.560   4.769  0.1007 -0.2856 -0.2066
 1123SOL    HW2 4258   5.157   4.470   4.742  1.1276 -0.2312 -1.1583
 1123SOL    HW3 4259   5.123   4.614   4.709 -1.6803 -0.2270  1.2970
 1123SOL    MW4 4260   5.166   4.555   4.758  0.0012 -0.2707 -0.1338
 1124SOL     OW 4261   0.964   2.881   4.419  0.2671 -0.8161 -0.0251
 1124SOL    HW2 4262   1.025   2.946   4.453 -0.1077 -0.7774  0.5753
 1124SOL    HW3 4263   0.880   2.901   4.460 -0.4581 -0.1482 -1.7249
 1124SOL    MW4 4264   0.961   2.892   4.429  0.1219 -0.7228 -0.1701
 1125SOL     OW 4265   5.871   5.494   0.564  0.4957  0.1660 -0.3684
 1125SOL    HW2 4266   5.870   5.533   0.652  0.7029  0.8568 -0.6678
 1125SOL    HW3 4267   5.809   5.547   0.514 -0.6445 -1.0539 -0.3023
 1125SOL    MW4 4268   5.863   5.506   0.569  0.3726  0.0962 -0.3992
 1126SOL     OW 4269   5.956   4.956   1.213  0.4103  0.2852 -0.0163
 1126SOL    HW2 4270   6.024   5.008   1.256  2.0567 -0.8646 -1.1035
 1126SOL    HW3 4271   5.980   4.959   1.120 -0.6882 -0.6412 -0.3405
 1126SOL    MW4 4272   5.968   4.963   1.206  0.4826  0.0112 -0.2025
 1127SOL     OW 4273   3.015   4.985   0.543 -0.4094 -0.6262 -0.2366
 1127SOL    HW2 4274   3.067   4.946   0.472 -1.0119 -0.9260 -0.5212
 1127SOL    HW3 4275   3.071   5.054   0.578  0.3266 -1.1792 -0.2982
 1127SOL    MW4 4276   3.029   4.989   0.538 -0.3918 -0.7387 -0.2823
 1128SOL     OW 4277   3.270   0.255   4.491  0.2115 -0.1929  0.2271
 1128SOL    HW2 4278   3.254   0.262   4.585  0.9041 -0.2473  0.3591
 1128SOL    HW3 4279   3.199   0.303   4.450  0.0759  0.0919  0.7950
 1128SOL    MW4 4280   3.259   0.262   4.498  0.2850 -0.1625  0.3195
 1129SOL     OW 4281   2.166   3.659   5.511  0.2457  0.4831 -0.3978
 1129SOL    HW2 4282   2.196   3.682   5.598  0.3789 -0.6677 -0.1231
 1129SOL    HW3 4283   2.233   3.599   5.477 -1.8773 -2.6403  0.4581
 1129SOL    MW4 4284   2.179   3.654   5.518 -0.0168 -0.0808 -0.2486
 1130SOL     OW 4285   3.762   2.734   3.902 -0.0840 -0.1798 -0.3040
 1130SOL    HW2 4286   3.803   2.650   3.884 -1.1387 -0.7780 -0.0485
 1130SOL    HW3 4287   3.787   2.754   3.993 -1.0052 -0.9543  0.1400
 1130SOL    MW4 4288   3.771   2.725   3.912 -0.3447 -0.3609 -0.2117
 1131SOL     OW 4289   5.726   0.354   6.357  0.0175 -0.1392  0.5007
 1131SOL    HW2 4290   5.657   0.306   6.402  1.1620 -4.2023 -1.6723
 1131SOL    HW3 4291   5.680   0.412   6.297 -1.4765 -0.7011  1.0717
 1131SOL    MW4 4292   5.711   0.356   6.355 -0.0286 -0.7494  0.2893
 1132SOL     OW 4293   4.979   5.615   3.793 -0.2876  0.0204 -0.2161
 1132SOL    HW2 4294   5.044   5.545   3.792 -0.8428 -0.5823  1.5918
 1132SOL    HW3 4295   5.029   5.696   3.787  0.5145 -0.4806 -0.3142
 1132SOL    MW4 4296   4.994   5.616   3.792 -0.2550 -0.1252  0.0095
 1133SOL     OW 4297   1.633   5.428   6.011  0.3844  0.0045 -0.0995
 1133SOL    HW2 4298   1.634   5.375   6.091  2.6184  1.3661  0.8556
 1133SOL    HW3 4299   1.593   5.511   6.037 -1.3843 -0.4604 -1.1370
 1133SOL    MW4 4300   1.628   5.432   6.025  0.4458  0.1228 -0.1104
 1134SOL     OW 4301   0.968   4.727   0.643  0.1525 -0.4638 -0.3907
 1134SOL    HW2 4302   0.903   4.794   0.662  1.3041  0.5450  0.1357
 1134SOL    HW3 4303   0.985   4.736   0.550  0.9775  0.6449 -0.1574
 1134SOL    MW4 4304   0.962   4.737   0.634  0.4133 -0.1844 -0.2904
 1135SOL     OW 4305   2.708   5.227   2.621  0.0483  0.2917  0.5670
 1135SOL    HW2 4306   2.782   5.169   2.602  0.2212  0.3965  0.9118
 1135SOL    HW3 4307   2.736   5.313   2.592  0.5273  0.5612  1.7496
 1135SOL    MW4 4308   2.721   5.231   2.615  0.1343  0.3411  0.7685
 1136SOL     OW 4309   4.755   0.260   6.312  0.3859  0.1682  0.8248
 1136SOL    HW2 4310   4.661   0.242   6.322  0.0753  0.1633 -1.5993
 1136SOL    HW3 4311   4.792   0.243   6.399 -1.7963 -0.1212  1.7563
 1136SOL    MW4 4312   4.748   0.255   6.325  0.0570  0.1293  0.6279
 1137SOL     OW 4313   3.890   4.396   2.097  0.2504 -0.0864 -0.0931
 1137SOL    HW2 4314   3.913   4.489   2.095  2.1766 -0.5301  0.1699
 1137SOL    HW3 4315   3.909   4.365   2.008 -0.6005 -0.2147 -0.2467
 1137SOL    MW4 4316   3.895   4.404   2.085  0.3923 -0.1619 -0.0787
 1138SOL     OW 4317   1.797   1.837   3.404 -1.0453  0.0960 -0.0893
 1138SOL    HW2 4318   1.858   1.829   3.331  0.0904 -1.8478  0.9811
 1138SOL    HW3 4319   1.814   1.924   3.440 -0.6769  0.5507 -1.3053
 1138SOL    MW4 4320   1.807   1.847   3.399 -0.8469 -0.1005 -0.1085
 1139SOL     OW 4321   3.887   2.022   0.528 -0.5695  0.0821  0.3080
 1139SOL    HW2 4322   3.832   1.972   0.589 -0.2237 -1.8689 -0.9066
 1139SOL    HW3 4323   3.844   2.011   0.443  1.7146 -1.7090 -0.7300
 1139SOL    MW4 4324   3.874   2.014   0.525 -0.2225 -0.4116  0.0108
 1140SOL     OW 4325   3.246   3.979   0.541  0.3496  0.2014 -0.0572
 1140SOL    HW2 4326   3.155   4.007   0.554  0.1900  0.2978 -1.2188
 1140SOL    HW3 4327   3.256   3.976   0.446  1.1808 -1.0716  0.0518
 1140SOL    MW4 4328   3.235   3.982   0.530  0.4382  0.0462 -0.1961
 1141SOL     OW 4329   1.612   0.003   3.489  0.1397 -0.2499 -0.2611
 1141SOL    HW2 4330   1.697  -0.033   3.514  0.4350  0.3700 -0.3486
 1141SOL    HW3 4331   1.583  -0.052   3.416 -0.1278 -1.2534  0.5966
 1141SOL    MW4 4332   1.619  -0.009   3.482  0.1434 -0.3005 -0.1594
 1142SOL     OW 4333   4.610   1.576   2.418 -0.3063  0.0355 -0.4532
 1142SOL    HW2 4334   4.672   1.515   2.379 -1.1175 -0.5503 -0.8761
 1142SOL    HW3 4335   4.558   1.608   2.344 -0.5631  0.4430 -0.1026
 1142SOL    MW4 4336   4.611   1.572   2.403 -0.4472  0.0120 -0.4627
 1143SOL     OW 4337   6.099   4.077   3.682  0.0161 -0.0141  0.0730
 1143SOL    HW2 4338   6.172   4.078   3.743  0.3607  2.8380 -0.2542
 1143SOL    HW3 4339   6.026   4.115   3.732  0.2142  2.0401 -1.1034
 1143SOL    MW4 4340   6.099   4.082   3.697  0.0877  0.6332 -0.1253
 1144SOL     OW 4341   1.551   5.399   4.937 -0.1104  0.0659  0.2287
 1144SOL    HW2 4342   1.600   5.319   4.955 -1.5831 -0.4848  2.2219
 1144SOL    HW3 4343   1.497   5.378   4.861  0.4142 -0.4277 -0.0116
 1144SOL    MW4 4344   1.550   5.386   4.930 -0.2355 -0.0719  0.4600
 1145SOL     OW 4345   0.002   6.148   3.421  0.4232 -0.3496  0.1102
 1145SOL    HW2 4346   0.092   6.133   3.448  0.1171 -0.5695  1.0223
 1145SOL    HW3 4347  -0.029   6.219   3.477  0.0182 -0.2796 -0.1921
 1145SOL    MW4 4348   0.010   6.155   3.432  0.3294 -0.3694  0.1906
 1146SOL     OW 4349   6.014   5.208   6.011  0.1736  0.0211 -0.5505
 1146SOL    HW2 4350   6.021   5.303   6.005  1.6010 -0.0581 -0.4332
 1146SOL    HW3 4351   6.046   5.187   6.099 -0.0668 -0.5772 -0.6009
 1146SOL    MW4 4352   6.019   5.218   6.022  0.3302 -0.0683 -0.5417
 1147SOL     OW 4353   0.004   1.179   3.648  0.3565 -0.7309 -0.1013
 1147SOL    HW2 4354   0.049   1.233   3.583  1.0058  0.3099  1.1575
 1147SOL    HW3 4355  -0.089   1.189   3.627  0.4890  0.5136 -0.1882
 1147SOL    MW4 4356  -0.002   1.188   3.636  0.4596 -0.4294  0.0533
 1148SOL     OW 4357   0.850   2.794   5.987  0.0164  0.2111 -0.5845
 1148SOL    HW2 4358   0.801   2.825   5.910  0.3676  2.4360  0.0106
 1148SOL    HW3 4359   0.805   2.835   6.061 -1.6388 -3.5312  0.7462
 1148SOL    MW4 4360   0.837   2.804   5.987 -0.1557  0.0109 -0.3304
 1149SOL     OW 4361   4.294   4.301   0.705  0.2202  0.1394  0.2831
 1149SOL    HW2 4362   4.348   4.355   0.647  0.9964 -0.0120  0.8625
 1149SOL    HW3 4363   4.356   4.249   0.756 -0.5131 -1.3324 -0.2624
 1149SOL    MW4 4364   4.309   4.302   0.704  0.2259 -0.0748  0.2876
 1150SOL     OW 4365   6.278   5.356   4.815  0.2990 -0.4951  0.9459
 1150SOL    HW2 4366   6.361   5.319   4.786  0.3497  0.4035 -0.1454
 1150SOL    HW3 4367   6.255   5.307   4.894  1.6765 -1.0031  1.0478
 1150SOL    MW4 4368   6.286   5.345   4.822  0.4875 -0.4435  0.8154
 1151SOL     OW 4369   1.607   4.160   4.953  0.0316 -0.3359 -0.0668
 1151SOL    HW2 4370   1.661   4.210   5.014 -0.6853 -1.5859  1.6480
 1151SOL    HW3 4371   1.523   4.206   4.951 -0.2467 -0.7959  0.6244
 1151SOL    MW4 4372   1.603   4.173   4.960 -0.0997 -0.5615  0.2506
 1152SOL     OW 4373   1.142   4.348   4.214  0.5752  0.2448  0.0891
 1152SOL    HW2 4374   1.069   4.405   4.188 -1.7597 -1.7961  1.6977
 1152SOL    HW3 4375   1.144   4.280   4.147  1.7293  0.8685 -0.5185
 1152SOL    MW4 4376   1.132   4.346   4.202  0.4194  0.0578  0.2211
 1153SOL     OW 4377   4.352   3.497   3.280  0.6197  0.1683  0.0910
 1153SOL    HW2 4378   4.257   3.504   3.274  0.6020 -0.1099  0.0288
 1153SOL    HW3 4379   4.382   3.586   3.299  0.5221  0.7989 -2.3606
 1153SOL    MW4 4380   4.344   3.510   3.281  0.6045  0.2148 -0.2407
 1154SOL     OW 4381   0.685   5.722   3.294  0.3916  0.1964  0.4130
 1154SOL    HW2 4382   0.746   5.789   3.265 -0.1164  0.7412  0.5849
 1154SOL    HW3 4383   0.617   5.721   3.226  1.9141 -2.3125 -1.2792
 1154SOL    MW4 4384   0.684   5.731   3.281  0.5254 -0.0628  0.2124
 1155SOL     OW 4385   0.615   5.347   4.911 -0.2536  0.2082  0.2100
 1155SOL    HW2 4386   0.588   5.264   4.870 -1.6763  0.6008  0.2843
 1155SOL    HW3 4387   0.664   5.392   4.843 -0.0970 -0.3851 -0.0800
 1155SOL    MW4 4388   0.618   5.342   4.896 -0.4207  0.1818  0.1816
 1156SOL     OW 4389   5.418   4.565   6.147 -0.3839 -0.2164 -0.1491
 1156SOL    HW2 4390   5.340   4.538   6.196 -1.4430  0.6781 -1.2743
 1156SOL    HW3 4391   5.403   4.657   6.128  1.3509  0.2004  0.2909
 1156SOL    MW4 4392   5.406   4.574   6.151 -0.2948 -0.0434 -0.2395
 1157SOL     OW 4393   3.565   4.984   4.516 -0.2525 -0.3748  0.1946
 1157SOL    HW2 4394   3.624   4.922   4.473  0.2636 -0.1988  0.6475
 1157SOL    HW3 4395   3.522   5.030   4.444 -0.5257 -1.1396 -0.1514
 1157SOL    MW4 4396   3.567   4.982   4.501 -0.2205 -0.4525  0.2087
 1158SOL     OW 4397   1.054   1.455   5.443  0.3004 -0.3081 -0.3592
 1158SOL    HW2 4398   1.112   1.459   5.518  0.0612 -0.1073 -0.1815
 1158SOL    HW3 4399   0.987   1.522   5.460  0.6263  0.2164 -1.0686
 1158SOL    MW4 4400   1.053   1.464   5.455  0.3118 -0.2124 -0.4294
 1159SOL     OW 4401   6.080   5.735   4.883  0.5159 -0.1673  0.3406
 1159SOL    HW2 4402   6.085   5.829   4.865  0.3707 -0.4607 -1.4842
 1159SOL    HW3 4403   6.067   5.695   4.796  0.5155 -1.8643  1.0831
 1159SOL    MW4 4404   6.079   5.742   4.869  0.4967 -0.4299  0.1978
 1160SOL     OW 4405   5.876   5.020   5.331  0.4025  0.0583 -0.0592
 1160SOL    HW2 4406   5.830   4.994   5.251 -0.0312 -1.1736  0.5729
 1160SOL    HW3 4407   5.924   4.942   5.358 -1.0695 -0.2126  1.9907
 1160SOL    MW4 4408   5.877   5.006   5.324  0.1510 -0.1400  0.2947
 1161SOL     OW 4409   3.495   0.576   4.694 -0.4024  0.5756 -0.0790
 1161SOL    HW2 4410   3.566   0.612   4.641 -1.0814 -0.0752 -1.4875
 1161SOL    HW3 4411   3.443   0.652   4.720 -0.2669  0.8776 -0.6760
 1161SOL    MW4 4412   3.498   0.590   4.691 -0.4741  0.5296 -0.3436
 1162SOL     OW 4413   3.458   3.133   5.742  0.7187 -0.4034 -0.4879
 1162SOL    HW2 4414   3.378   3.177   5.712  0.2833 -0.9472 -0.1372
 1162SOL    HW3 4415   3.427   3.056   5.789  1.4431 -0.3557  0.0796
 1162SOL    MW4 4416   3.444   3.129   5.744  0.7568 -0.4689 -0.3668
 1163SOL     OW 4417   3.636   5.848   6.030 -0.1190  0.3745  0.5538
 1163SOL    HW2 4418   3.680   5.772   6.067  0.7475  1.1345  1.1461
 1163SOL    HW3 4419   3.658   5.846   5.937  0.1709  0.0844  0.6256
 1163SOL    MW4 4420   3.645   5.838   6.023  0.0335  0.4365  0.6414
 1164SOL     OW 4421   5.343   1.673   5.190 -0.1075 -0.4042  0.4807
 1164SOL    HW2 4422   5.301   1.759   5.196 -0.2628 -0.3607 -0.9123
 1164SOL    HW3 4423   5.277   1.613   5.224 -0.8789 -0.2026 -0.5915
 1164SOL    MW4 4424   5.329   1.677   5.195 -0.2298 -0.3719  0.1555
 1165SOL     OW 4425   5.886   1.713   6.304  0.2164  0.7872 -0.0674
 1165SOL    HW2 4426   5.798   1.704   6.341  0.3556 -0.0600  0.0734
 1165SOL    HW3 4427   5.945   1.684   6.374  0.4683 -1.0961 -0.9889
 1165SOL    MW4 4428   5.882   1.708   6.318  0.2680  0.4269 -0.1704
 1166SOL     OW 4429   3.272   0.123   1.506 -0.8580 -0.1881  0.0189
 1166SOL    HW2 4430   3.233   0.207   1.533 -0.8312 -0.0813 -0.2677
 1166SOL    HW3 4431   3.197   0.066   1.490 -0.8658 -0.9527  2.4390
 1166SOL    MW4 4432   3.257   0.127   1.507 -0.8555 -0.2749  0.3004
 1167SOL     OW 4433   1.923   0.903   1.973 -0.1230  0.4946  0.0033
 1167SOL    HW2 4434   1.938   0.849   1.895  1.8289 -1.4958  1.6316
 1167SOL    HW3 4435   1.976   0.982   1.958  1.7851 -0.7060  0.0502
 1167SOL    MW4 4436   1.932   0.907   1.960  0.3863  0.0736  0.2243
 1168SOL     OW 4437   1.951   6.314   5.422 -0.0209 -0.3249 -0.2831
 1168SOL    HW2 4438   1.938   6.311   5.327  3.4236  1.5946 -0.9792
 1168SOL    HW3 4439   2.017   6.248   5.439  0.7937  0.6517  0.4425
 1168SOL    MW4 4440   1.958   6.305   5.412  0.5410  0.0572 -0.2792
 1169SOL     OW 4441   6.205   6.174   5.907 -0.0100 -0.3582  0.3444
 1169SOL    HW2 4442   6.278   6.192   5.966  0.1009  0.9131 -0.1441
 1169SOL    HW3 4443   6.204   6.248   5.847 -2.5734  0.3677  1.1861
 1169SOL    MW4 4444   6.215   6.186   5.907 -0.3336 -0.0947  0.3910
 1170SOL     OW 4445   2.996   2.528   1.971 -0.1979  0.0791 -0.6410
 1170SOL    HW2 4446   3.088   2.550   1.984  0.3508 -1.4509 -1.6072
 1170SOL    HW3 4447   2.955   2.609   1.941  0.5413  1.1072  0.9772
 1170SOL    MW4 4448   3.003   2.541   1.969 -0.0280  0.0129 -0.5550
 1171SOL     OW 4449   2.920   0.992   6.013 -0.1543 -0.2160  0.1678
 1171SOL    HW2 4450   2.923   1.082   5.982  0.0844 -0.4504 -0.5122
 1171SOL    HW3 4451   3.010   0.974   6.042  0.0068 -0.4957 -0.4816
 1171SOL    MW4 4452   2.932   1.001   6.013 -0.1015 -0.2838 -0.0076
 1172SOL     OW 4453   0.313   5.747   5.991 -0.0115  0.9446 -0.2336
 1172SOL    HW2 4454   0.314   5.777   5.901 -0.9222  0.2573 -0.4988
 1172SOL    HW3 4455   0.222   5.721   6.006  0.4131 -0.2307  0.4359
 1172SOL    MW4 4456   0.301   5.747   5.981 -0.0756  0.6989 -0.1803
 1173SOL     OW 4457   5.948   5.795   2.561  0.4426 -0.6183  0.4561
 1173SOL    HW2 4458   5.940   5.731   2.632 -0.8045 -2.3202 -1.1151
 1173SOL    HW3 4459   5.858   5.811   2.532  0.9525 -0.4571 -1.1410
 1173SOL    MW4 4460   5.935   5.789   2.567  0.3453 -0.8215  0.0381
 1174SOL     OW 4461   5.597   4.233   0.745  0.6505 -0.6480  0.7010
 1174SOL    HW2 4462   5.534   4.305   0.748  0.2121 -0.9344 -0.7333
 1174SOL    HW3 4463   5.557   4.164   0.799  1.2723  0.2841  2.4336
 1174SOL    MW4 4464   5.583   4.233   0.752  0.6747 -0.5628  0.7403
 1175SOL     OW 4465   2.334   2.241   5.259 -0.9728  0.0830 -0.5368
 1175SOL    HW2 4466   2.396   2.217   5.327 -0.9497  0.7466 -0.3226
 1175SOL    HW3 4467   2.252   2.200   5.286 -1.0170  0.5229  0.0028
 1175SOL    MW4 4468   2.331   2.232   5.271 -0.9756  0.2286 -0.4373
 1176SOL     OW 4469   1.629   3.212   5.848 -0.2065 -0.4544  0.2695
 1176SOL    HW2 4470   1.618   3.302   5.817 -2.1499 -1.2027 -1.4687
 1176SOL    HW3 4471   1.579   3.209   5.929 -2.8239 -0.6406 -1.2326
 1176SOL    MW4 4472   1.621   3.223   5.855 -0.8083 -0.5777 -0.1580
 1177SOL     OW 4473   4.094   2.702   3.340 -0.0543  0.4913 -0.0386
 1177SOL    HW2 4474   4.086   2.744   3.254 -0.3661  0.8590  0.1675
 1177SOL    HW3 4475   4.059   2.766   3.402 -2.2130 -0.7585  0.1187
 1177SOL    MW4 4476   4.089   2.716   3.337 -0.3803  0.3749  0.0094
 1178SOL     OW 4477   3.453   4.610   4.410 -0.2127  0.4105  0.2407
 1178SOL    HW2 4478   3.407   4.609   4.326  1.2103 -1.5120 -0.5916
 1178SOL    HW3 4479   3.429   4.527   4.451  1.1723  0.1405  0.5356
 1178SOL    MW4 4480   3.444   4.599   4.404  0.1578  0.1212  0.1698
 1179SOL     OW 4481   4.305   2.769   3.131  0.6033  0.2266  0.2772
 1179SOL    HW2 4482   4.396   2.737   3.128  0.0654 -1.2866 -1.1733
 1179SOL    HW3 4483   4.273   2.759   3.042 -0.3801  2.7569  0.2657
 1179SOL    MW4 4484   4.313   2.764   3.119  0.4026  0.3608  0.0843
 1180SOL     OW 4485   6.100   6.215   0.001 -0.1596  0.4420  0.2692
 1180SOL    HW2 4486   6.074   6.129  -0.032 -0.4643  1.0365 -1.1114
 1180SOL    HW3 4487   6.027   6.243   0.057 -1.3047  0.9230 -1.4070
 1180SOL    MW4 4488   6.087   6.208   0.004 -0.3509  0.5839 -0.1341
 1181SOL     OW 4489   1.759   5.109   3.496 -0.2013  0.1069  0.0376
 1181SOL    HW2 4490   1.795   5.190   3.532  0.2033 -1.0132  2.2953
 1181SOL    HW3 4491   1.822   5.041   3.520 -2.3911 -1.4889  1.6855
 1181SOL    MW4 4492   1.772   5.111   3.504 -0.4368 -0.2515  0.5529
 1182SOL     OW 4493   1.044   2.021   2.429 -0.1731  0.3895  0.4993
 1182SOL    HW2 4494   1.083   2.022   2.341 -0.5318  0.2527  0.3332
 1182SOL    HW3 4495   0.950   2.033   2.413 -0.4502 -1.1669  0.7339
 1182SOL    MW4 4496   1.037   2.022   2.415 -0.2570  0.1661  0.5083
 1183SOL     OW 4497   5.419   5.290   3.866  0.0428  0.6299 -0.0676
 1183SOL    HW2 4498   5.472   5.210   3.858 -1.2064 -0.2160 -0.1822
 1183SOL    HW3 4499   5.348   5.265   3.925  0.2201  1.9904  0.7587
 1183SOL    MW4 4500   5.417   5.276   3.873 -0.0986  0.6978  0.0263
 1184SOL     OW 4501   5.002   0.093   5.417  0.1253  0.2632 -0.0819
 1184SOL    HW2 4502   4.925   0.036   5.421 -0.2664  0.7751 -0.2861
 1184SOL    HW3 4503   5.069   0.040   5.374 -0.2993  0.0265 -0.4519
 1184SOL    MW4 4504   5.001   0.079   5.412  0.0176  0.2995 -0.1576
 1185SOL     OW 4505   0.031   4.291   3.606  0.5413 -0.1829  0.0920
 1185SOL    HW2 4506   0.117   4.305   3.567  0.6842  1.0507  0.7921
 1185SOL    HW3 4507  -0.029   4.340   3.549  0.4858  0.0113  0.3148
 1185SOL    MW4 4508   0.034   4.299   3.594  0.5529  0.0055  0.2137
 1186SOL     OW 4509   5.611   2.688   3.693  0.6233 -0.2401 -0.4542
 1186SOL    HW2 4510   5.707   2.693   3.700  0.5323  0.3183  0.5094
 1186SOL    HW3 4511   5.579   2.763   3.742 -0.2952  0.4053 -1.9790
 1186SOL    MW4 4512   5.620   2.698   3.700  0.4901 -0.0813 -0.5283
 1187SOL     OW 4513   5.071   0.541   3.565 -0.1719 -0.0546  0.5157
 1187SOL    HW2 4514   5.063   0.480   3.638 -0.0647 -1.7992 -0.8687
 1187SOL    HW3 4515   4.986   0.585   3.562 -0.3805 -0.3749  1.3160
 1187SOL    MW4 4516   5.059   0.539   3.574 -0.1853 -0.3270  0.4386
 1188SOL     OW 4517   5.811   4.467   6.332 -0.6923 -0.1663 -0.3872
 1188SOL    HW2 4518   5.779   4.377   6.323  0.7979 -0.7374 -0.3260
 1188SOL    HW3 4519   5.899   4.457   6.370 -0.5840  1.3293 -0.2065
 1188SOL    MW4 4520   5.819   4.454   6.336 -0.4814 -0.0443 -0.3552
 1189SOL     OW 4521  -0.001   5.113   1.784  0.0455  0.6072  0.1482
 1189SOL    HW2 4522  -0.046   5.046   1.733 -0.7789  0.7770  0.6344
 1189SOL    HW3 4523   0.004   5.189   1.726  1.3333  0.0196 -0.5441
 1189SOL    MW4 4524  -0.006   5.114   1.770  0.1067  0.5521  0.1210
 1190SOL     OW 4525   1.807   0.302   1.130 -0.3480 -0.3871 -0.4054
 1190SOL    HW2 4526   1.774   0.214   1.147  0.6650 -0.6236  0.3944
 1190SOL    HW3 4527   1.833   0.300   1.038  2.3042 -1.8457  0.2772
 1190SOL    MW4 4528   1.806   0.290   1.120  0.1356 -0.6107 -0.2098
 1191SOL     OW 4529   0.461   3.092   5.066  0.1757 -0.2826 -0.0641
 1191SOL    HW2 4530   0.502   3.128   5.144 -0.9265  1.4167 -0.2143
 1191SOL    HW3 4531   0.492   3.148   4.995  0.3325 -1.1542 -0.6949
 1191SOL    MW4 4532   0.471   3.104   5.067  0.0510 -0.1734 -0.1672
 1192SOL     OW 4533   2.912   4.085   6.037 -0.0420  0.1804 -0.4065
 1192SOL    HW2 4534   2.910   4.176   6.005 -1.1575  0.5219  0.5447
 1192SOL    HW3 4535   3.002   4.056   6.021  0.4366  1.5682 -0.4110
 1192SOL    MW4 4536   2.923   4.093   6.031 -0.1260  0.4086 -0.2816
 1193SOL     OW 4537   5.894   3.591   6.332 -0.3001  0.7220  0.4313
 1193SOL    HW2 4538   5.915   3.515   6.277 -0.3903  0.1263  1.2055
 1193SOL    HW3 4539   5.898   3.665   6.272  0.0278  0.1374 -0.2924
 1193SOL    MW4 4540   5.898   3.590   6.317 -0.2688  0.5663  0.4380
 1194SOL     OW 4541   5.160   3.953   3.300 -0.3341  0.1099 -0.0622
 1194SOL    HW2 4542   5.070   3.985   3.291 -0.3680 -0.3664 -1.7343
 1194SOL    HW3 4543   5.183   3.972   3.391 -2.4894 -0.7142  0.7204
 1194SOL    MW4 4544   5.151   3.960   3.311 -0.6230 -0.0617 -0.1795
 1195SOL     OW 4545   0.291   1.369   2.653 -0.4384  0.2903  0.2346
 1195SOL    HW2 4546   0.324   1.320   2.577  0.5859  1.9461 -0.4384
 1195SOL    HW3 4547   0.348   1.341   2.726 -0.1748  0.1155 -0.0368
 1195SOL    MW4 4548   0.303   1.359   2.653 -0.2684  0.4857  0.1100
 1196SOL     OW 4549   1.241   2.573   4.448  0.6835 -0.3508 -0.0318
 1196SOL    HW2 4550   1.189   2.609   4.519  1.3215  3.9062 -1.4632
 1196SOL    HW3 4551   1.332   2.591   4.472  1.1613 -1.9432 -0.4578
 1196SOL    MW4 4552   1.246   2.580   4.460  0.8307  0.0007 -0.2769
 1197SOL     OW 4553   2.317   6.354   2.032 -0.7747 -0.2137  0.3157
 1197SOL    HW2 4554   2.369   6.336   1.954 -1.7936 -3.0797  0.1759
 1197SOL    HW3 4555   2.230   6.376   1.999 -1.6355 -2.9187  0.5293
 1197SOL    MW4 4556   2.313   6.354   2.018 -1.0227 -0.9487  0.3254
 1198SOL     OW 4557   3.139   4.837   3.142 -0.4557  0.0044  0.6331
 1198SOL    HW2 4558   3.073   4.874   3.084  1.4247  0.8163 -1.1329
 1198SOL    HW3 4559   3.160   4.752   3.103  0.2167  0.1843  0.5812
 1198SOL    MW4 4560   3.133   4.831   3.129 -0.1189  0.1352  0.3932
 1199SOL     OW 4561   1.662   6.311   0.275  0.3535 -0.2282 -0.5638
 1199SOL    HW2 4562   1.702   6.360   0.203  0.0758 -0.6342 -1.0021
 1199SOL    HW3 4563   1.657   6.221   0.243  1.0784 -0.6023  0.3261
 1199SOL    MW4 4564   1.666   6.306   0.261  0.4125 -0.3311 -0.5042
 1200SOL     OW 4565   4.651   1.497   3.776 -0.3671 -0.4095  0.2413
 1200SOL    HW2 4566   4.613   1.544   3.851 -1.7762 -1.2541  0.1034
 1200SOL    HW3 4567   4.583   1.434   3.751  0.4141 -0.6996 -1.2407
 1200SOL    MW4 4568   4.637   1.495   3.783 -0.4500 -0.5592  0.0276
 1201SOL     OW 4569   2.184   0.850   4.068  0.1426 -0.4424  0.4143
 1201SOL    HW2 4570   2.271   0.822   4.097  0.7400  0.1856 -0.7089
 1201SOL    HW3 4571   2.198   0.885   3.980 -1.0987  0.4876  0.5580
 1201SOL    MW4 4572   2.198   0.851   4.060  0.0576 -0.2368  0.2850
 1202SOL     OW 4573   0.124   5.810   4.336 -0.4902  0.4904  0.3023
 1202SOL    HW2 4574   0.178   5.869   4.283 -1.2577  0.5891 -0.3910
 1202SOL    HW3 4575   0.043   5.859   4.351 -2.0253 -1.1105 -2.0756
 1202SOL    MW4 4576   0.121   5.825   4.331 -0.7940  0.2922 -0.1029
 1203SOL     OW 4577   5.702   0.785   6.419  0.2537  0.4397 -0.2464
 1203SOL    HW2 4578   5.700   0.732   6.499  1.5385  1.0063  0.1929
 1203SOL    HW3 4579   5.621   0.763   6.373  0.6407 -1.7317  0.0106
 1203SOL    MW4 4580   5.691   0.775   6.424  0.4743  0.2280 -0.1545
 1204SOL     OW 4581   0.353   0.534   1.284 -0.5679  0.4008 -0.5092
 1204SOL    HW2 4582   0.428   0.478   1.300 -0.1524  0.4516 -2.0800
 1204SOL    HW3 4583   0.344   0.586   1.364  1.3365  0.6886 -0.4340
 1204SOL    MW4 4584   0.361   0.534   1.296 -0.2618  0.4455 -0.7065
 1205SOL     OW 4585   2.648   0.929   4.352  0.0004 -0.1552  0.3876
 1205SOL    HW2 4586   2.703   0.982   4.294 -0.5654  0.6879  0.6148
 1205SOL    HW3 4587   2.600   0.871   4.293  0.0357  0.1315  0.0755
 1205SOL    MW4 4588   2.649   0.928   4.336 -0.0696 -0.0062  0.3764
 1206SOL     OW 4589   0.212   3.392   4.289  0.0849 -0.3818  0.0414
 1206SOL    HW2 4590   0.182   3.471   4.244 -0.3423 -0.8366 -0.4896
 1206SOL    HW3 4591   0.259   3.343   4.221  2.9466  0.7308  1.0372
 1206SOL    MW4 4592   0.214   3.396   4.274  0.4061 -0.2950  0.1027
 1207SOL     OW 4593   5.676   4.948   0.244  0.0943  0.2515 -0.7910
 1207SOL    HW2 4594   5.660   5.026   0.190 -3.8415 -0.8016 -1.4780
 1207SOL    HW3 4595   5.693   4.983   0.331  0.1581  1.8952 -1.4218
 1207SOL    MW4 4596   5.676   4.963   0.248 -0.4166  0.3294 -0.9649
 1208SOL     OW 4597   2.188   3.872   1.102 -0.2350  0.4563 -0.7151
 1208SOL    HW2 4598   2.176   3.777   1.113 -0.3952  0.0569 -3.6400
 1208SOL    HW3 4599   2.262   3.893   1.160 -0.6929 -1.2796  0.5968
 1208SOL    MW4 4600   2.196   3.862   1.111 -0.3166  0.1746 -0.9279
 1209SOL     OW 4601   3.318   4.320   5.712 -0.1838  0.3794  0.2953
 1209SOL    HW2 4602   3.344   4.286   5.626  0.7359 -0.7063  0.9577
 1209SOL    HW3 4603   3.398   4.360   5.746  0.3663 -1.8415  1.8353
 1209SOL    MW4 4604   3.332   4.321   5.705  0.0101 -0.0568  0.5859
 1210SOL     OW 4605   0.610   3.355   0.544  0.1423 -0.0969  0.0157
 1210SOL    HW2 4606   0.532   3.402   0.516 -0.4359  0.2356  2.0320
 1210SOL    HW3 4607   0.669   3.361   0.469 -2.1689 -1.4454 -2.0679
 1210SOL    MW4 4608   0.608   3.362   0.531 -0.2389 -0.2310  0.0068
 1211SOL     OW 4609   3.721   2.008   2.177  0.3214 -0.1179  0.9787
 1211SOL    HW2 4610   3.780   2.083   2.185 -0.2361  0.3303  0.9909
 1211SOL    HW3 4611   3.634   2.047   2.177  0.0277 -0.7680  0.9266
 1211SOL    MW4 4612   3.717   2.023   2.178  0.2091 -0.1446  0.9734
 1212SOL     OW 4613   1.101   5.296   4.384  0.4317 -0.0132  0.0291
 1212SOL    HW2 4614   1.098   5.200   4.384  0.1400 -0.0374  1.8811
 1212SOL    HW3 4615   1.193   5.318   4.376  0.7048 -0.5115  1.5405
 1212SOL    MW4 4616   1.113   5.286   4.383  0.4293 -0.0821  0.4729
 1213SOL     OW 4617   5.076   6.411   3.236  1.2102  0.4201  0.1618
 1213SOL    HW2 4618   5.017   6.374   3.302  1.2255  0.4251  0.1782
 1213SOL    HW3 4619   5.164   6.393   3.269  1.2743 -1.4455 -0.8478
 1213SOL    MW4 4620   5.080   6.404   3.249  1.2207  0.1746  0.0308
 1214SOL     OW 4621   1.184   2.834   5.198 -0.0129  0.2868  0.2237
 1214SOL    HW2 4622   1.229   2.763   5.244  0.8951  0.1696 -0.7781
 1214SOL    HW3 4623   1.242   2.909   5.209 -0.5394  0.6421  0.5494
 1214SOL    MW4 4624   1.198   2.834   5.205  0.0374  0.3182  0.1345
 1215SOL     OW 4625   0.524   2.167   4.168 -0.3413 -0.4649  0.5334
 1215SOL    HW2 4626   0.607   2.166   4.216 -0.2089 -0.8134  0.2990
 1215SOL    HW3 4627   0.526   2.250   4.120  0.1418 -0.7374  0.0666
 1215SOL    MW4 4628   0.535   2.178   4.168 -0.2601 -0.5468  0.4409
 1216SOL     OW 4629   2.999   2.459   3.122 -0.2077 -0.3416  0.5136
 1216SOL    HW2 4630   2.927   2.451   3.060 -0.7063  2.7380  0.5395
 1216SOL    HW3 4631   3.051   2.532   3.089  2.4585 -1.9003  0.9939
 1216SOL    MW4 4632   2.996   2.467   3.109  0.0783 -0.1409  0.5804
 1217SOL     OW 4633   3.668   0.171   2.299 -0.1511 -0.7785 -0.0983
 1217SOL    HW2 4634   3.640   0.262   2.292  0.6086 -0.5495 -0.1882
 1217SOL    HW3 4635   3.743   0.164   2.239  1.4812 -0.7809  1.8666
 1217SOL    MW4 4636   3.674   0.182   2.290  0.1645 -0.7486  0.1491
 1218SOL     OW 4637   4.015   5.117   2.010 -0.0593  0.0706 -0.5707
 1218SOL    HW2 4638   4.037   5.116   2.103  1.8955 -0.0660 -1.0039
 1218SOL    HW3 4639   3.941   5.177   2.004 -0.2555  0.0448  1.0703
 1218SOL    MW4 4640   4.008   5.125   2.021  0.1728  0.0492 -0.4113
 1219SOL     OW 4641   1.007   6.039   2.331  0.1865  0.1825  0.5580
 1219SOL    HW2 4642   0.931   6.042   2.274 -0.5682  2.1735  1.5555
 1219SOL    HW3 4643   1.078   6.008   2.275 -0.4169  2.4105 -1.6428
 1219SOL    MW4 4644   1.007   6.035   2.316  0.0073  0.7392  0.3992
 1220SOL     OW 4645   5.619   4.791   3.743  0.6886 -0.4418  0.4782
 1220SOL    HW2 4646   5.645   4.883   3.737  0.8906 -0.5582 -0.5174
 1220SOL    HW3 4647   5.620   4.772   3.837  0.9842  0.4753  0.6681
 1220SOL    MW4 4648   5.623   4.801   3.755  0.7542 -0.3362  0.3719
 1221SOL     OW 4649   4.116   3.375   3.504 -0.0336  0.1360  0.3156
 1221SOL    HW2 4650   4.179   3.311   3.471 -0.0939  0.1245  0.2218
 1221SOL    HW3 4651   4.071   3.329   3.575 -0.7999 -0.2972 -0.4353
 1221SOL    MW4 4652   4.118   3.360   3.509 -0.1427  0.0773  0.2042
 1222SOL     OW 4653   3.034   3.619   4.591 -0.4660 -0.5831 -0.0724
 1222SOL    HW2 4654   2.973   3.567   4.539 -0.3191 -1.5210  0.6766
 1222SOL    HW3 4655   2.979   3.662   4.656 -0.3936 -1.0399  0.2927
 1222SOL    MW4 4656   3.018   3.618   4.593 -0.4370 -0.7671  0.0746
 1223SOL     OW 4657   2.882   1.651   1.089  0.1279  0.2710 -0.5533
 1223SOL    HW2 4658   2.909   1.698   1.168  1.7160  0.0487 -0.9313
 1223SOL    HW3 4659   2.844   1.569   1.122 -1.7905  1.3493  0.0625
 1223SOL    MW4 4660   2.880   1.646   1.104  0.0843  0.3839 -0.5219
 1224SOL     OW 4661   0.198   1.063   2.872  0.5416  0.0985 -0.0774
 1224SOL    HW2 4662   0.255   1.080   2.798  1.4165  1.0416  0.7713
 1224SOL    HW3 4663   0.257   1.058   2.947 -0.5139  2.1986  1.0078
 1224SOL    MW4 4664   0.213   1.065   2.872  0.5178  0.5000  0.1777
 1225SOL     OW 4665   5.373   2.825   0.723 -0.5651  0.7016 -0.4614
 1225SOL    HW2 4666   5.347   2.857   0.637 -0.2640  2.5616  0.0985
 1225SOL    HW3 4667   5.410   2.901   0.767  2.8633 -1.0068 -0.0352
 1225SOL    MW4 4668   5.374   2.839   0.718 -0.0731  0.7216 -0.3313
 1226SOL     OW 4669   5.133   5.606   0.354  0.1937 -0.0973  0.3178
 1226SOL    HW2 4670   5.128   5.511   0.344  0.7521 -0.1616  0.6094
 1226SOL    HW3 4671   5.048   5.632   0.389 -0.2408 -0.3950 -0.5013
 1226SOL    MW4 4672   5.121   5.597   0.357  0.2100 -0.1451  0.2482
 1227SOL     OW 4673   3.610   5.557   0.039  0.4438  0.6880  0.3887
 1227SOL    HW2 4674   3.517   5.567   0.060  0.6490  0.2694  1.5558
 1227SOL    HW3 4675   3.617   5.587  -0.051 -0.8221  0.7522  0.2914
 1227SOL    MW4 4676   3.599   5.562   0.030  0.3038  0.6412  0.5298
 1228SOL     OW 4677   5.277   0.913   2.544  0.1141 -0.0849 -0.0599
 1228SOL    HW2 4678   5.184   0.936   2.549 -0.2818 -1.7920  1.3093
 1228SOL    HW3 4679   5.309   0.923   2.633  1.6548  1.7952 -0.7388
 1228SOL    MW4 4680   5.269   0.918   2.556  0.2651 -0.0621  0.0312
 1229SOL     OW 4681   1.547   4.616   0.637  0.3519  0.2624 -0.0193
 1229SOL    HW2 4682   1.593   4.694   0.670  1.2757 -1.2302  2.5088
 1229SOL    HW3 4683   1.594   4.594   0.557  0.1384  2.2171 -0.7360
 1229SOL    MW4 4684   1.560   4.624   0.631  0.4456  0.3234  0.2197
 1230SOL     OW 4685   6.188   3.334   1.093 -0.3824  0.6754  0.1304
 1230SOL    HW2 4686   6.121   3.339   1.161 -0.5684  0.8969 -0.0662
 1230SOL    HW3 4687   6.161   3.259   1.039 -0.4105  0.6930  0.1198
 1230SOL    MW4 4688   6.176   3.325   1.095 -0.4107  0.7070  0.1031
 1231SOL     OW 4689   3.517   1.972   1.658 -0.0233 -0.0057  0.6414
 1231SOL    HW2 4690   3.500   2.066   1.669  2.3100  0.3157  2.1971
 1231SOL    HW3 4691   3.516   1.937   1.747 -1.2575 -1.5898  0.0531
 1231SOL    MW4 4692   3.514   1.980   1.671  0.1217 -0.1723  0.7690
 1232SOL     OW 4693   5.072   1.022   5.865 -0.2477 -0.3468 -0.0503
 1232SOL    HW2 4694   5.150   0.976   5.897  0.5167  0.4182 -0.7680
 1232SOL    HW3 4695   5.019   1.037   5.944  0.0568 -1.3521  0.3668
 1232SOL    MW4 4696   5.075   1.018   5.880 -0.1067 -0.3785 -0.0900
 1233SOL     OW 4697   5.991   2.520   4.503 -0.1736  0.5873 -1.0119
 1233SOL    HW2 4698   6.060   2.532   4.569 -1.4330  0.9256  0.3018
 1233SOL    HW3 4699   5.956   2.607   4.489  0.0234  0.4973 -2.0884
 1233SOL    MW4 4700   5.995   2.533   4.510 -0.3138  0.6201 -0.9806
 1234SOL     OW 4701   2.542   1.194   0.907 -0.1773 -0.8186  0.0996
 1234SOL    HW2 4702   2.453   1.178   0.876  0.0893 -0.4527 -0.8789
 1234SOL    HW3 4703   2.592   1.214   0.828  0.0312  2.4985  0.9421
 1234SOL    MW4 4704   2.537   1.194   0.893 -0.1146 -0.3327  0.0817
 1235SOL     OW 4705   0.688   4.744   0.985  0.2001 -0.0958  0.6792
 1235SOL    HW2 4706   0.645   4.660   0.997 -0.6781  0.2868  0.3364
 1235SOL    HW3 4707   0.660   4.773   0.898  2.0090 -0.2996 -0.0095
 1235SOL    MW4 4708   0.678   4.737   0.975  0.3229 -0.0722  0.5431
 1236SOL     OW 4709   0.308   6.283   1.058  0.0728 -0.3478  0.9637
 1236SOL    HW2 4710   0.390   6.311   1.098  0.9017 -1.1254 -0.1385
 1236SOL    HW3 4711   0.306   6.328   0.974  0.1125 -1.5028  0.3342
 1236SOL    MW4 4712   0.319   6.292   1.052  0.1874 -0.6028  0.7352
 1237SOL     OW 4713   2.910   2.868   2.535 -0.5491 -0.2605  0.2886
 1237SOL    HW2 4714   2.837   2.899   2.481  1.0918  2.3119 -0.6693
 1237SOL    HW3 4715   2.889   2.899   2.623 -0.6720  0.3423  0.0511
 1237SOL    MW4 4716   2.897   2.876   2.539 -0.3488  0.1584  0.1309
 1238SOL     OW 4717   0.779   2.680   5.575 -0.4465 -0.1822 -0.0339
 1238SOL    HW2 4718   0.734   2.604   5.539  1.7134 -0.9937 -1.1532
 1238SOL    HW3 4719   0.830   2.645   5.648 -0.6793  0.4999  0.4657
 1238SOL    MW4 4720   0.780   2.665   5.580 -0.1922 -0.1993 -0.1157
 1239SOL     OW 4721   1.405   2.079   3.397  0.4158  0.5660  0.2044
 1239SOL    HW2 4722   1.498   2.103   3.393  0.1505  1.7170  0.3964
 1239SOL    HW3 4723   1.359   2.157   3.365 -0.4901  0.0493  0.2139
 1239SOL    MW4 4724   1.411   2.093   3.393  0.2613  0.6497  0.2310
 1240SOL     OW 4725   1.432   2.373   4.162 -0.4023 -0.0256  0.1894
 1240SOL    HW2 4726   1.466   2.462   4.170 -1.3560  0.5583 -1.6713
 1240SOL    HW3 4727   1.350   2.374   4.210 -0.1002 -0.1024  0.7173
 1240SOL    MW4 4728   1.426   2.385   4.169 -0.4883  0.0413  0.0135
 1241SOL     OW 4729   1.848   5.259   0.637  0.6600  0.0286 -0.2347
 1241SOL    HW2 4730   1.763   5.287   0.670 -0.2449  0.5987 -2.8457
 1241SOL    HW3 4731   1.866   5.178   0.684 -2.2756 -1.1747 -0.9792
 1241SOL    MW4 4732   1.839   5.252   0.648  0.1533 -0.0549 -0.6774
 1242SOL     OW 4733   0.430   1.745   3.342  0.6352  0.1609 -0.0148
 1242SOL    HW2 4734   0.427   1.837   3.371  1.8371  0.0444  0.5291
 1242SOL    HW3 4735   0.385   1.696   3.411  0.6125  0.2515  0.0348
 1242SOL    MW4 4736   0.423   1.751   3.355  0.7908  0.1575  0.0635
 1243SOL     OW 4737   0.573   1.689   4.318 -0.2153 -0.5870 -0.4039
 1243SOL    HW2 4738   0.517   1.630   4.368 -1.2146 -0.4922 -1.3682
 1243SOL    HW3 4739   0.596   1.759   4.380 -0.2402 -1.2069  0.3165
 1243SOL    MW4 4740   0.569   1.691   4.333 -0.3505 -0.6563 -0.4360
 1244SOL     OW 4741   3.128   0.117   0.450 -0.1630  0.2437  0.6286
 1244SOL    HW2 4742   3.087   0.170   0.383 -0.1819  0.6497  0.9589
 1244SOL    HW3 4743   3.177   0.051   0.402 -0.7368  0.1024  0.2237
 1244SOL    MW4 4744   3.129   0.115   0.435 -0.2412  0.2786  0.6188
 1245SOL     OW 4745   5.519   4.469   1.024 -0.5897 -0.2002 -0.2184
 1245SOL    HW2 4746   5.515   4.527   1.101 -0.4155  0.0850 -0.4243
 1245SOL    HW3 4747   5.491   4.384   1.058 -2.8523  0.4323 -0.3373
 1245SOL    MW4 4748   5.515   4.466   1.039 -0.8652 -0.0791 -0.2612
 1246SOL     OW 4749   1.862   2.303   3.279 -0.1923 -0.0137 -0.2136
 1246SOL    HW2 4750   1.807   2.313   3.201 -0.2510 -2.1871 -0.5138
 1246SOL    HW3 4751   1.939   2.357   3.261 -1.5436  1.9852 -0.3835
 1246SOL    MW4 4752   1.865   2.311   3.267 -0.3783 -0.0367 -0.2756
 1247SOL     OW 4753   3.191   2.500   3.821  0.0349  0.0668 -0.5962
 1247SOL    HW2 4754   3.162   2.584   3.856  1.0833  0.0292  0.4486
 1247SOL    HW3 4755   3.126   2.437   3.854  0.3331  0.2087  0.2987
 1247SOL    MW4 4756   3.179   2.502   3.830  0.2126  0.0805 -0.3403
 1248SOL     OW 4757   3.638   5.676   4.675 -0.1829 -0.2022 -0.0440
 1248SOL    HW2 4758   3.656   5.765   4.645  1.2102 -0.3947  0.1787
 1248SOL    HW3 4759   3.713   5.625   4.647 -1.3326 -1.5055 -0.8718
 1248SOL    MW4 4760   3.650   5.681   4.668 -0.1508 -0.3996 -0.1239
 1249SOL     OW 4761   3.930   0.127   6.119 -0.0059  0.8116 -0.4040
 1249SOL    HW2 4762   3.932   0.033   6.135 -0.9929  0.7445 -0.6555
 1249SOL    HW3 4763   4.023   0.152   6.115  0.2665 -0.1833 -0.5809
 1249SOL    MW4 4764   3.943   0.118   6.121 -0.1002  0.6715 -0.4605
 1250SOL     OW 4765   3.505   3.947   4.963  0.2976  0.4968  0.2141
 1250SOL    HW2 4766   3.462   4.010   4.906  1.7482  0.5116 -0.9149
 1250SOL    HW3 4767   3.542   4.000   5.034 -1.6776  0.4540  1.3375
 1250SOL    MW4 4768   3.504   3.962   4.965  0.2284  0.4931  0.2134
 1251SOL     OW 4769   2.255   1.313   2.293  0.6712  0.0900 -0.7233
 1251SOL    HW2 4770   2.160   1.306   2.302  0.8977 -1.0526  1.1394
 1251SOL    HW3 4771   2.283   1.226   2.265  1.2175  0.3413 -0.9839
 1251SOL    MW4 4772   2.246   1.301   2.290  0.7732 -0.0276 -0.5119
 1252SOL     OW 4773   4.820   1.132   4.524  0.5112  0.5582 -0.0805
 1252SOL    HW2 4774   4.896   1.171   4.480 -0.1153  0.8831 -0.8929
 1252SOL    HW3 4775   4.762   1.105   4.453  0.6561 -1.3345  0.4738
 1252SOL    MW4 4776   4.822   1.134   4.509  0.4476  0.3513 -0.1145
 1253SOL     OW 4777   4.352   6.088   4.920  0.3807  0.4070  0.6320
 1253SOL    HW2 4778   4.341   6.183   4.932  1.2856  0.5318  0.5598
 1253SOL    HW3 4779   4.415   6.062   4.987 -0.2179 -0.2387  0.9555
 1253SOL    MW4 4780   4.359   6.097   4.930  0.4211  0.3383  0.6651
 1254SOL     OW 4781   1.387   3.484   2.273 -0.6017 -0.5695  0.0685
 1254SOL    HW2 4782   1.318   3.460   2.335  0.2910  0.2287  1.4436
 1254SOL    HW3 4783   1.354   3.564   2.231 -0.3968 -0.0024  0.9602
 1254SOL    MW4 4784   1.373   3.491   2.276 -0.4569 -0.3894  0.3675
 1255SOL     OW 4785   3.030   5.289   4.193  0.0955 -0.6527 -0.2158
 1255SOL    HW2 4786   3.076   5.242   4.263  2.3978  0.9946 -0.5136
 1255SOL    HW3 4787   3.100   5.327   4.140 -1.5797  2.8755 -0.1500
 1255SOL    MW4 4788   3.045   5.288   4.195  0.1782  0.0302 -0.2464
 1256SOL     OW 4789   1.373   2.210   2.718 -0.2691  0.6105  0.6022
 1256SOL    HW2 4790   1.351   2.271   2.788 -0.2611 -0.1948  1.3236
 1256SOL    HW3 4791   1.325   2.243   2.642 -0.7342  1.1722  1.1270
 1256SOL    MW4 4792   1.364   2.222   2.717 -0.3295  0.5783  0.7666
 1257SOL     OW 4793   1.177   4.346   2.897 -0.2894 -0.1628  0.2067
 1257SOL    HW2 4794   1.213   4.415   2.840 -1.6683  0.9283  0.5953
 1257SOL    HW3 4795   1.216   4.265   2.865  1.3945  0.7848 -0.2686
 1257SOL    MW4 4796   1.187   4.345   2.885 -0.2492  0.1062  0.1953
 1258SOL     OW 4797   2.091   0.194   2.619 -0.3593  0.1025  0.1045
 1258SOL    HW2 4798   2.121   0.254   2.687 -1.5591  0.6977  0.1264
 1258SOL    HW3 4799   2.169   0.143   2.597  0.9872  2.3323 -0.6386
 1258SOL    MW4 4800   2.105   0.195   2.625 -0.3400  0.4752  0.0093
 1259SOL     OW 4801   5.721   3.475   2.395 -0.0571  0.4962  0.7002
 1259SOL    HW2 4802   5.650   3.418   2.426 -0.8588  1.7413  1.1968
 1259SOL    HW3 4803   5.743   3.529   2.471  0.4882  1.0629  0.1464
 1259SOL    MW4 4804   5.714   3.474   2.409 -0.0910  0.7352  0.6927
 1260SOL     OW 4805   4.160   4.910   4.264 -0.3324 -0.2789 -0.1571
 1260SOL    HW2 4806   4.180   4.965   4.339 -1.3612 -0.6195  0.3859
 1260SOL    HW3 4807   4.156   4.821   4.299 -0.4210 -0.4907 -0.6890
 1260SOL    MW4 4808   4.162   4.905   4.278 -0.4798 -0.3518 -0.1556
 1261SOL     OW 4809   3.903   1.371   0.233  0.3234 -0.0665 -0.0735
 1261SOL    HW2 4810   3.924   1.291   0.184 -0.5590 -0.1949 -0.2565
 1261SOL    HW3 4811   3.944   1.441   0.183  0.5978 -0.3386 -0.2367
 1261SOL    MW4 4812   3.911   1.369   0.220  0.2432 -0.1194 -0.1192
 1262SOL     OW 4813   2.895   1.891   5.258 -0.5144  0.1053 -0.5784
 1262SOL    HW2 4814   2.858   1.855   5.338  0.3478  1.7076  0.6108
 1262SOL    HW3 4815   2.851   1.845   5.187 -2.1383 -0.5411  0.8051
 1262SOL    MW4 4816   2.885   1.880   5.259 -0.6149  0.2314 -0.2390
 1263SOL     OW 4817   5.342   2.334   5.695  0.2054  0.1633 -0.2240
 1263SOL    HW2 4818   5.261   2.379   5.669  2.2180  2.8049 -2.5839
 1263SOL    HW3 4819   5.347   2.348   5.789 -2.6444 -1.2166  0.2364
 1263SOL    MW4 4820   5.332   2.342   5.704  0.0949  0.3298 -0.4746
 1264SOL     OW 4821   4.995   6.081   2.372  0.3849  0.0703  0.1254
 1264SOL    HW2 4822   5.029   6.134   2.444 -1.0282  0.6228  0.4224
 1264SOL    HW3 4823   4.932   6.138   2.328 -0.8080 -1.1658  0.1512
 1264SOL    MW4 4824   4.991   6.095   2.376  0.0411 -0.0199  0.1680
 1265SOL     OW 4825   0.982   0.363   5.232  0.3341 -0.2321 -0.3070
 1265SOL    HW2 4826   1.036   0.435   5.199  0.9310 -0.6431 -0.2396
 1265SOL    HW3 4827   1.045   0.302   5.271  0.1441 -2.0528 -2.6189
 1265SOL    MW4 4828   0.998   0.365   5.233  0.3878 -0.5266 -0.6031
 1266SOL     OW 4829   2.973   3.795   2.692 -0.8366 -0.3810 -0.0289
 1266SOL    HW2 4830   2.962   3.726   2.626  0.3546  1.2788 -2.0745
 1266SOL    HW3 4831   2.923   3.764   2.767 -1.9191 -2.5697 -1.5474
 1266SOL    MW4 4832   2.965   3.782   2.693 -0.8223 -0.4508 -0.4991
 1267SOL     OW 4833   1.692   3.829   1.879  0.0271 -0.2626 -0.3383
 1267SOL    HW2 4834   1.720   3.802   1.967 -0.1815 -2.0102 -0.7696
 1267SOL    HW3 4835   1.759   3.793   1.821  0.0485  0.7064 -0.9171
 1267SOL    MW4 4836   1.705   3.820   1.883  0.0024 -0.3653 -0.4716
 1268SOL     OW 4837   3.010   0.752   0.433  0.6532 -0.0058 -0.1712
 1268SOL    HW2 4838   3.035   0.691   0.363  0.4934 -0.6746  0.3423
 1268SOL    HW3 4839   3.022   0.702   0.514 -1.1979  0.0266  0.1778
 1268SOL    MW4 4840   3.015   0.737   0.435  0.3879 -0.0898 -0.0574
 1269SOL     OW 4841   3.343   3.985   2.040 -0.0705 -0.1915  0.4771
 1269SOL    HW2 4842   3.297   4.018   2.117 -2.5340 -1.8507 -0.1620
 1269SOL    HW3 4843   3.383   3.903   2.070 -1.4137 -1.0744 -0.0470
 1269SOL    MW4 4844   3.342   3.979   2.054 -0.5728 -0.5269  0.3236
 1270SOL     OW 4845   4.335   5.025   3.148  0.5112 -0.0896 -0.2392
 1270SOL    HW2 4846   4.307   4.990   3.233  2.0346 -1.7661 -0.3542
 1270SOL    HW3 4847   4.255   5.052   3.105 -0.5302 -1.3818  0.8125
 1270SOL    MW4 4848   4.321   5.024   3.154  0.5748 -0.4813 -0.1156
 1271SOL     OW 4849   3.432   1.753   0.564 -0.2748  0.8397 -0.3397
 1271SOL    HW2 4850   3.439   1.669   0.610 -2.6820 -0.0700 -1.4418
 1271SOL    HW3 4851   3.473   1.816   0.623 -0.4315 -0.7372  1.5852
 1271SOL    MW4 4852   3.439   1.750   0.578 -0.6131  0.5116 -0.2311
 1272SOL     OW 4853   3.725   1.236   3.888  0.5949  0.0479  0.0598
 1272SOL    HW2 4854   3.677   1.172   3.835  0.4207  0.2728 -0.0544
 1272SOL    HW3 4855   3.674   1.317   3.880  0.2324 -0.0646  1.0566
 1272SOL    MW4 4856   3.712   1.238   3.880  0.5241  0.0627  0.1763
 1273SOL     OW 4857   3.493   5.775   4.085  0.2348 -0.0963 -0.4455
 1273SOL    HW2 4858   3.563   5.805   4.026 -0.8617 -1.1886 -2.4160
 1273SOL    HW3 4859   3.427   5.739   4.026 -0.4400 -2.3140  1.5468
 1273SOL    MW4 4860   3.494   5.774   4.069  0.0011 -0.5330 -0.4427
 1274SOL     OW 4861   0.667   1.960   2.699  0.8892 -0.3323  0.1711
 1274SOL    HW2 4862   0.707   1.944   2.613  0.0304 -2.2726  0.0800
 1274SOL    HW3 4863   0.707   2.042   2.728  2.5172 -0.5151 -1.3110
 1274SOL    MW4 4864   0.678   1.969   2.691  0.9907 -0.6125 -0.0365
 1275SOL     OW 4865   0.974   2.186   1.281 -0.2096 -0.2049  0.4724
 1275SOL    HW2 4866   0.985   2.147   1.367 -0.7069  0.3299  0.7905
 1275SOL    HW3 4867   1.053   2.238   1.267 -0.5177  0.4086  0.9892
 1275SOL    MW4 4868   0.986   2.188   1.291 -0.3159 -0.0534  0.5825
 1276SOL     OW 4869   2.070   0.038   5.791 -0.2511 -0.3131 -0.1999
 1276SOL    HW2 4870   2.091   0.127   5.820 -1.0859 -0.3530  0.5938
 1276SOL    HW3 4871   2.128   0.022   5.717 -0.2278  0.9670 -0.4770
 1276SOL    MW4 4872   2.080   0.048   5.785 -0.3582 -0.1494 -0.1317
 1277SOL     OW 4873   0.254   4.507   3.227 -0.0350  0.3910  0.2009
 1277SOL    HW2 4874   0.323   4.494   3.163 -0.6716  1.2292 -0.6911
 1277SOL    HW3 4875   0.243   4.602   3.233 -1.0840  0.2838  0.3275
 1277SOL    MW4 4876   0.261   4.517   3.219 -0.2574  0.4874  0.0999
 1278SOL     OW 4877   5.074   0.495   2.469  0.0686  0.0370 -0.4897
 1278SOL    HW2 4878   5.136   0.568   2.471 -0.0646  0.1361  1.0951
 1278SOL    HW3 4879   5.128   0.417   2.470  0.2130  0.0838 -2.1612
 1278SOL    MW4 4880   5.089   0.495   2.469  0.0701  0.0562 -0.5011
 1279SOL     OW 4881   3.718   5.912   1.677 -0.1889  0.6143  0.2899
 1279SOL    HW2 4882   3.787   5.855   1.711 -0.7398  0.3191  0.9205
 1279SOL    HW3 4883   3.749   6.001   1.697 -0.7070  0.4317  1.9844
 1279SOL    MW4 4884   3.731   5.917   1.684 -0.3299  0.5512  0.5967
 1280SOL     OW 4885   3.048   4.922   2.883  0.0750  0.2221 -0.2531
 1280SOL    HW2 4886   3.137   4.933   2.848  1.2246  1.2185  2.7074
 1280SOL    HW3 4887   3.018   5.011   2.900 -1.5534 -0.1103 -1.2025
 1280SOL    MW4 4888   3.056   4.935   2.881  0.0119  0.3097  0.0122
 1281SOL     OW 4889   5.186   1.909   2.506  0.4848 -0.3279  0.8684
 1281SOL    HW2 4890   5.223   1.873   2.587 -0.5855  0.7497  1.8671
 1281SOL    HW3 4891   5.228   1.994   2.497  0.5098 -0.3930  0.3456
 1281SOL    MW4 4892   5.197   1.915   2.515  0.3468 -0.1943  0.9312
 1282SOL     OW 4893   4.971   5.763   1.370  0.1542  0.8372 -0.3734
 1282SOL    HW2 4894   5.007   5.679   1.343 -0.1707  0.6100 -0.1148
 1282SOL    HW3 4895   4.996   5.771   1.462 -0.1061  0.8627 -0.3032
 1282SOL    MW4 4896   4.979   5.753   1.379  0.0770  0.8106 -0.3300
 1283SOL     OW 4897   1.960   4.124   3.033 -0.0043 -0.2859  0.4398
 1283SOL    HW2 4898   1.902   4.169   3.094  0.9743  0.9616  0.4789
 1283SOL    HW3 4899   1.912   4.044   3.009 -1.7221  0.6891  0.4703
 1283SOL    MW4 4900   1.946   4.119   3.038 -0.1018  0.0073  0.4490
 1284SOL     OW 4901   6.057   3.945   1.169 -0.4482 -0.4164 -0.0292
 1284SOL    HW2 4902   5.964   3.953   1.149 -0.4828 -0.0800  0.2576
 1284SOL    HW3 4903   6.091   3.886   1.102 -0.7010  0.1061 -0.6185
 1284SOL    MW4 4904   6.049   3.938   1.158 -0.4861 -0.3031 -0.0691
 1285SOL     OW 4905   4.123   6.401   5.910 -0.1999 -0.2633  0.3059
 1285SOL    HW2 4906   4.042   6.447   5.888 -0.4899 -0.8762  0.0784
 1285SOL    HW3 4907   4.168   6.460   5.970 -1.5504 -0.5993  1.7180
 1285SOL    MW4 4908   4.118   6.415   5.915 -0.4164 -0.3885  0.4622
 1286SOL     OW 4909   5.415   6.001   3.989 -0.0282 -0.0603  0.3840
 1286SOL    HW2 4910   5.380   5.927   4.040  0.5210  0.1803  1.1314
 1286SOL    HW3 4911   5.473   5.960   3.925 -2.2534 -0.5388 -1.4374
 1286SOL    MW4 4912   5.418   5.986   3.988 -0.2493 -0.0917  0.2423
 1287SOL     OW 4913   4.285   4.721   0.961  0.0455  0.3061 -0.3502
 1287SOL    HW2 4914   4.376   4.692   0.953  0.8705  2.8107 -1.1728
 1287SOL    HW3 4915   4.233   4.648   0.928  2.0050  0.1629 -3.6266
 1287SOL    MW4 4916   4.290   4.708   0.955  0.4129  0.6177 -0.8910
 1288SOL     OW 4917   6.003   4.103   1.857 -0.0654 -0.7143 -0.4030
 1288SOL    HW2 4918   6.086   4.073   1.821  1.1182 -2.0595  2.9744
 1288SOL    HW3 4919   5.939   4.038   1.827  0.7693 -1.5184 -0.5052
 1288SOL    MW4 4920   6.006   4.090   1.848  0.2009 -0.9979  0.0291
 1289SOL     OW 4921   0.438   4.928   1.277  0.7626 -0.1331  0.0172
 1289SOL    HW2 4922   0.473   4.884   1.355  0.3840  1.7399  1.3308
 1289SOL    HW3 4923   0.514   4.939   1.220  0.8022 -2.6924 -0.5269
 1289SOL    MW4 4924   0.453   4.924   1.280  0.7179 -0.2236  0.1187
 1290SOL     OW 4925   0.459   1.288   0.104 -0.1371  0.2359  0.1284
 1290SOL    HW2 4926   0.535   1.234   0.081 -1.6760 -2.3625  0.6882
 1290SOL    HW3 4927   0.425   1.318   0.021  1.2308  1.0987 -0.1527
 1290SOL    MW4 4928   0.465   1.285   0.090 -0.1597  0.0069  0.1652
 1291SOL     OW 4929   1.784   4.923   4.916  0.1921 -0.4549  0.2092
 1291SOL    HW2 4930   1.753   4.877   4.994  1.8349 -0.3499  0.9585
 1291SOL    HW3 4931   1.873   4.889   4.902 -0.6843 -1.9044 -2.7633
 1291SOL    MW4 4932   1.792   4.912   4.924  0.2932 -0.6323 -0.0842
 1292SOL     OW 4933   5.026   1.863   1.651  0.0917  0.3667 -0.1330
 1292SOL    HW2 4934   4.932   1.875   1.666  0.3985  1.2229  1.3677
 1292SOL    HW3 4935   5.032   1.781   1.601 -1.3401 -1.0377  1.8004
 1292SOL    MW4 4936   5.014   1.854   1.647 -0.0567  0.2944  0.3201
 1293SOL     OW 4937   1.931   0.078   4.548  0.0914 -0.3298  0.7698
 1293SOL    HW2 4938   1.908   0.076   4.455 -1.7121 -1.1552  1.1764
 1293SOL    HW3 4939   2.024   0.057   4.551  0.4963  0.9989 -0.9143
 1293SOL    MW4 4940   1.940   0.075   4.536 -0.0931 -0.2634  0.6013
 1294SOL     OW 4941   1.713   4.220   5.955  0.2775 -0.0209  0.1105
 1294SOL    HW2 4942   1.730   4.150   6.018 -0.5904 -0.3002  0.0429
 1294SOL    HW3 4943   1.632   4.261   5.986 -0.3448 -0.3745 -0.9941
 1294SOL    MW4 4944   1.704   4.216   5.968  0.0809 -0.1044 -0.0441
 1295SOL     OW 4945   1.097   5.593   1.823  0.5089  0.2231  0.1464
 1295SOL    HW2 4946   1.135   5.665   1.772  0.6926  0.5477  0.7251
 1295SOL    HW3 4947   1.158   5.582   1.896  1.0437 -1.2284 -0.4843
 1295SOL    MW4 4948   1.110   5.601   1.826  0.6037  0.0744  0.1396
 1296SOL     OW 4949   1.809   2.831   1.408  0.0620 -0.7926  0.3156
 1296SOL    HW2 4950   1.732   2.870   1.450  0.2485 -0.9132  0.7734
 1296SOL    HW3 4951   1.794   2.737   1.414 -0.1926 -0.8107 -0.4264
 1296SOL    MW4 4952   1.797   2.824   1.414  0.0530 -0.8109  0.2781
 1297SOL     OW 4953   0.044   6.236   3.168 -0.2350  0.2250  0.5895
 1297SOL    HW2 4954   0.031   6.212   3.260 -0.1747  1.5823  0.9813
 1297SOL    HW3 4955  -0.012   6.176   3.119  0.3780 -1.0810  1.4352
 1297SOL    MW4 4956   0.035   6.225   3.174 -0.1462  0.2318  0.7528
 1298SOL     OW 4957   2.249   6.046   0.979  0.1362 -0.5110 -0.2325
 1298SOL    HW2 4958   2.233   6.055   1.073 -0.4344 -0.9108 -0.2827
 1298SOL    HW3 4959   2.168   6.007   0.945 -0.0904  0.6145 -1.0571
 1298SOL    MW4 4960   2.236   6.042   0.987  0.0310 -0.4152 -0.3479
 1299SOL     OW 4961   0.569   1.766   0.323 -0.3881 -0.2533  0.2209
 1299SOL    HW2 4962   0.525   1.719   0.253 -0.5578 -0.0611  0.1958
 1299SOL    HW3 4963   0.540   1.857   0.313  0.9054  0.1035 -0.5031
 1299SOL    MW4 4964   0.559   1.772   0.312 -0.2398 -0.1808  0.1220
 1300SOL     OW 4965   1.663   5.139   2.842 -0.1625 -0.1345 -0.6615
 1300SOL    HW2 4966   1.680   5.059   2.890  1.0568 -0.8402 -2.1564
 1300SOL    HW3 4967   1.590   5.118   2.784 -0.8290  0.3316 -0.0146
 1300SOL    MW4 4968   1.655   5.126   2.840 -0.0895 -0.1661 -0.7734
 1301SOL     OW 4969   0.112   1.044   1.247  0.4168  0.4513  0.0182
 1301SOL    HW2 4970   0.203   1.050   1.219  0.7177 -1.3379  0.4901
 1301SOL    HW3 4971   0.116   1.023   1.340 -0.4470 -0.3876 -0.1104
 1301SOL    MW4 4972   0.124   1.042   1.255  0.3425  0.1045  0.0635
 1302SOL     OW 4973   3.546   1.390   5.384  0.0934 -0.3389 -0.0858
 1302SOL    HW2 4974   3.593   1.408   5.465 -1.2081 -1.9671  1.0996
 1302SOL    HW3 4975   3.506   1.474   5.361  2.3057  0.7066 -0.3424
 1302SOL    MW4 4976   3.547   1.404   5.392  0.2136 -0.4158  0.0368
 1303SOL     OW 4977   3.877   4.854   5.889  0.3572 -0.0176 -0.4552
 1303SOL    HW2 4978   3.937   4.795   5.934  2.3783  0.4298 -2.4173
 1303SOL    HW3 4979   3.904   4.942   5.916 -0.3640  0.1547 -0.2609
 1303SOL    MW4 4980   3.888   4.858   5.899  0.5287  0.0642 -0.6885
 1304SOL     OW 4981   4.960   1.630   4.021  0.5292 -0.2230 -0.4301
 1304SOL    HW2 4982   4.973   1.692   3.949  0.5610  0.8050  0.4348
 1304SOL    HW3 4983   4.980   1.544   3.983 -1.3892  0.0300 -2.1954
 1304SOL    MW4 4984   4.964   1.627   4.006  0.2802 -0.0540 -0.5489
 1305SOL     OW 4985   0.582   1.938   3.008  0.1465  0.3112 -0.0426
 1305SOL    HW2 4986   0.518   1.867   3.005  1.1829 -0.6264 -1.2715
 1305SOL    HW3 4987   0.597   1.960   2.916 -0.2488  2.2413  0.3188
 1305SOL    MW4 4988   0.575   1.932   2.995  0.2311  0.4422 -0.1570
 1306SOL     OW 4989   4.810   0.296   1.145  0.4229  0.2530 -0.3854
 1306SOL    HW2 4990   4.775   0.209   1.129 -0.8196  0.8376 -0.9589
 1306SOL    HW3 4991   4.851   0.322   1.063 -0.6951  0.8662 -0.7684
 1306SOL    MW4 4992   4.811   0.288   1.132  0.1114  0.4110 -0.5116
 1307SOL     OW 4993   1.437   1.924   5.010  0.3621  0.1253  1.1058
 1307SOL    HW2 4994   1.472   1.963   4.930  2.7980 -1.1937  1.4271
 1307SOL    HW3 4995   1.365   1.868   4.980 -0.3695  1.5317  0.1662
 1307SOL    MW4 4996   1.432   1.922   4.996  0.5870  0.1368  1.0242
 1308SOL     OW 4997   2.446   2.196   0.207 -0.3743 -0.0771  0.2984
 1308SOL    HW2 4998   2.537   2.169   0.218 -0.7824 -1.3538  0.6922
 1308SOL    HW3 4999   2.399   2.115   0.190 -1.3528  0.6420 -0.5545
 1308SOL    MW4 5000   2.452   2.182   0.206 -0.5572 -0.1507  0.2378
 1309SOL     OW 5001   1.767   2.552   2.315 -0.0904  0.0831  0.1907
 1309SOL    HW2 5002   1.798   2.640   2.295 -1.4187  1.4300  3.3075
 1309SOL    HW3 5003   1.695   2.536   2.253  2.5026 -0.5421 -2.9307
 1309SOL    MW4 5004   1.762   2.561   2.304  0.0764  0.1783  0.1901
 1310SOL     OW 5005   3.980   0.640   0.474 -0.4439  0.6037 -0.1794
 1310SOL    HW2 5006   3.913   0.592   0.522 -0.5491 -0.4267 -1.3045
 1310SOL    HW3 5007   4.061   0.626   0.524 -0.7147  0.3055  0.1770
 1310SOL    MW4 5008   3.982   0.632   0.487 -0.4935  0.4284 -0.2808
 1311SOL     OW 5009   0.689   3.623   3.872  0.1061  0.8012  0.3819
 1311SOL    HW2 5010   0.742   3.550   3.902 -0.5953 -0.2000 -0.7319
 1311SOL    HW3 5011   0.749   3.677   3.820  0.1254 -0.1846 -0.6587
 1311SOL    MW4 5012   0.704   3.621   3.869  0.0161  0.5390  0.0977
 1312SOL     OW 5013   2.609   0.396   1.779  0.5149  0.0127  0.2914
 1312SOL    HW2 5014   2.527   0.350   1.763  0.5702  0.6324 -2.1651
 1312SOL    HW3 5015   2.583   0.475   1.826 -0.2949  0.1201 -0.3156
 1312SOL    MW4 5016   2.595   0.400   1.783  0.4153  0.1087 -0.1128
 1313SOL     OW 5017   4.662   3.242   1.990  0.4205 -0.0025  0.9560
 1313SOL    HW2 5018   4.618   3.188   1.924 -0.5938  0.0379  1.5803
 1313SOL    HW3 5019   4.614   3.225   2.071  0.3073  1.5500  1.2468
 1313SOL    MW4 5020   4.650   3.232   1.992  0.2717  0.2077  1.0767
 1314SOL     OW 5021   2.660   5.908   2.598  0.2753 -0.3272 -0.4030
 1314SOL    HW2 5022   2.662   5.812   2.598 -0.5463 -0.3565 -0.3019
 1314SOL    HW3 5023   2.645   5.931   2.690  0.2953 -0.1108 -0.4553
 1314SOL    MW4 5024   2.658   5.898   2.610  0.1696 -0.3025 -0.3966
 1315SOL     OW 5025   4.285   1.702   2.366  0.7241  0.6550 -0.0887
 1315SOL    HW2 5026   4.300   1.727   2.457  0.2945  0.5684  0.0090
 1315SOL    HW3 5027   4.372   1.697   2.327  0.8990  0.8345  0.2813
 1315SOL    MW4 5028   4.299   1.704   2.373  0.6905  0.6673 -0.0270
 1316SOL     OW 5029   2.701   3.233   3.508  0.0523 -0.3166  0.0070
 1316SOL    HW2 5030   2.680   3.140   3.502 -0.2412 -0.3023  0.6314
 1316SOL    HW3 5031   2.664   3.271   3.428 -1.2034 -0.5045  0.4666
 1316SOL    MW4 5032   2.693   3.226   3.497 -0.1521 -0.3395  0.1500
 1317SOL     OW 5033   0.212   3.871   3.153  0.4091  0.1990  0.3939
 1317SOL    HW2 5034   0.291   3.839   3.109  0.0649 -0.7633  0.4669
 1317SOL    HW3 5035   0.148   3.878   3.082  0.3715  0.3676  0.4452
 1317SOL    MW4 5036   0.214   3.868   3.138  0.3587  0.0943  0.4103
 1318SOL     OW 5037   5.020   4.263   5.401 -0.2136 -0.0150 -0.5193
 1318SOL    HW2 5038   4.979   4.187   5.442  0.1133 -0.3945 -0.8923
 1318SOL    HW3 5039   4.965   4.282   5.325  0.7611 -1.0569 -1.5190
 1318SOL    MW4 5040   5.007   4.256   5.397 -0.0419 -0.2026 -0.7004
 1319SOL     OW 5041   3.428   3.005   4.147 -0.7487  0.0569  0.2135
 1319SOL    HW2 5042   3.432   3.100   4.157 -2.1785  0.0507  1.1976
 1319SOL    HW3 5043   3.382   2.974   4.225  0.4191 -1.5488  0.3177
 1319SOL    MW4 5044   3.422   3.013   4.158 -0.7832 -0.1558  0.3571
 1320SOL     OW 5045   0.781   4.142   6.123  0.3696 -0.1977 -0.0050
 1320SOL    HW2 5046   0.821   4.170   6.041 -0.9607  2.2048  0.0676
 1320SOL    HW3 5047   0.691   4.172   6.117 -0.0960 -1.0689  1.8534
 1320SOL    MW4 5048   0.774   4.149   6.112  0.1326  0.0043  0.2497
 1321SOL     OW 5049   2.998   5.960   0.781  0.1565 -0.1020 -0.0078
 1321SOL    HW2 5050   2.910   5.999   0.779 -0.1499 -0.7724  0.1311
 1321SOL    HW3 5051   2.982   5.866   0.774  0.8031 -0.3172  1.2864
 1321SOL    MW4 5052   2.984   5.953   0.780  0.2014 -0.2189  0.1813
 1322SOL     OW 5053   3.145   0.181   0.715  0.1901 -0.1701 -0.3062
 1322SOL    HW2 5054   3.155   0.169   0.621  0.7892  1.2172 -0.4421
 1322SOL    HW3 5055   3.229   0.152   0.752  1.2038  2.2968 -0.5311
 1322SOL    MW4 5056   3.157   0.175   0.708  0.4029  0.3384 -0.3538
 1323SOL     OW 5057   5.521   3.326   0.332  0.4968  0.1120 -0.0198
 1323SOL    HW2 5058   5.437   3.309   0.289  0.9200 -2.4318  0.0170
 1323SOL    HW3 5059   5.586   3.309   0.264  1.0383  0.6149  0.3644
 1323SOL    MW4 5060   5.519   3.321   0.317  0.6241 -0.1572  0.0357
 1324SOL     OW 5061   0.503   2.460   4.525 -0.5095  0.1325 -0.0868
 1324SOL    HW2 5062   0.423   2.506   4.498 -0.9972 -0.9007 -0.4939
 1324SOL    HW3 5063   0.516   2.486   4.617 -0.1120  1.9346 -0.6125
 1324SOL    MW4 5064   0.494   2.469   4.534 -0.5214  0.2339 -0.2098
 1325SOL     OW 5065   4.915   1.190   5.132 -0.0378 -0.0414 -0.0510
 1325SOL    HW2 5066   5.004   1.162   5.156 -0.1652 -0.3840  0.0235
 1325SOL    HW3 5067   4.862   1.111   5.140 -0.0147 -0.2733 -1.8956
 1325SOL    MW4 5068   4.920   1.176   5.137 -0.0516 -0.1172 -0.2846
 1326SOL     OW 5069   4.310   0.742   3.490 -0.1501 -0.0025  0.1498
 1326SOL    HW2 5070   4.252   0.704   3.425 -0.4092 -1.0063  0.9418
 1326SOL    HW3 5071   4.374   0.673   3.509  0.9413  0.8658 -0.2533
 1326SOL    MW4 5072   4.311   0.728   3.484 -0.0403 -0.0204  0.2011
 1327SOL     OW 5073   3.814   4.059   6.105  0.0582 -0.1252  0.6734
 1327SOL    HW2 5074   3.904   4.038   6.079  0.2654 -0.6033  1.7375
 1327SOL    HW3 5075   3.787   3.985   6.160 -1.2310 -0.3159 -0.1604
 1327SOL    MW4 5076   3.823   4.046   6.109 -0.0846 -0.2134  0.7038
 1328SOL     OW 5077   5.635   1.763   0.074  0.4058  0.2139 -0.6121
 1328SOL    HW2 5078   5.578   1.835   0.047 -0.6161  0.0855  1.0448
 1328SOL    HW3 5079   5.686   1.799   0.147 -1.0543 -1.0621  1.1131
 1328SOL    MW4 5080   5.634   1.777   0.080  0.0783  0.0286 -0.1659
 1329SOL     OW 5081   1.262   2.878   4.268  0.2872 -0.2504 -0.0996
 1329SOL    HW2 5082   1.184   2.869   4.321 -0.2189  0.4114 -0.7021
 1329SOL    HW3 5083   1.329   2.909   4.329  0.4647 -2.0762  0.6980
 1329SOL    MW4 5084   1.261   2.881   4.283  0.2438 -0.4040 -0.0739
 1330SOL     OW 5085   1.768   5.812   3.604  0.5098 -0.5259  0.1313
 1330SOL    HW2 5086   1.821   5.794   3.526  1.5241 -1.8889  1.0961
 1330SOL    HW3 5087   1.761   5.728   3.648 -2.5511 -0.4347  0.0468
 1330SOL    MW4 5088   1.774   5.798   3.599  0.2398 -0.6937  0.2474
 1331SOL     OW 5089   6.158   1.213   6.143 -0.4585  0.5501 -0.2537
 1331SOL    HW2 5090   6.201   1.182   6.064  1.4780 -1.3357  1.4364
 1331SOL    HW3 5091   6.066   1.189   6.131 -0.4124  1.1843 -2.2944
 1331SOL    MW4 5092   6.151   1.206   6.131 -0.1969  0.3849 -0.2999
 1332SOL     OW 5093   1.529   1.972   2.928 -0.4289 -0.5262  0.0809
 1332SOL    HW2 5094   1.439   1.989   2.901  0.0402 -1.7299 -2.5167
 1332SOL    HW3 5095   1.582   2.029   2.872  0.4858 -0.3224  1.1195
 1332SOL    MW4 5096   1.524   1.982   2.917 -0.2463 -0.6581 -0.1248
 1333SOL     OW 5097   1.284   5.159   6.053  0.8026  0.5909 -0.2046
 1333SOL    HW2 5098   1.212   5.104   6.025  0.8823  0.7567 -0.7583
 1333SOL    HW3 5099   1.261   5.188   6.141 -0.0504  1.0591 -0.5751
 1333SOL    MW4 5100   1.272   5.156   6.061  0.7006  0.6745 -0.3265
 1334SOL     OW 5101   2.468   2.770   2.323 -0.1838 -0.3734  0.5793
 1334SOL    HW2 5102   2.428   2.758   2.409 -1.0183  0.4525  0.3125
 1334SOL    HW3 5103   2.444   2.692   2.273 -0.2956 -0.5175  0.8612
 1334SOL    MW4 5104   2.460   2.758   2.328 -0.3086 -0.2835  0.5813
 1335SOL     OW 5105   3.354   4.955   0.522 -0.1713  0.4323  0.5815
 1335SOL    HW2 5106   3.441   4.975   0.556 -0.4825  2.7393  0.1897
 1335SOL    HW3 5107   3.367   4.942   0.428 -0.4412  2.7374  0.1667
 1335SOL    MW4 5108   3.367   4.956   0.514 -0.2480  1.0408  0.4751
 1336SOL     OW 5109   4.614   0.412   4.994 -0.2746  0.5913 -0.1321
 1336SOL    HW2 5110   4.571   0.479   5.046  0.2536  0.1136  0.9472
 1336SOL    HW3 5111   4.575   0.329   5.023  0.5941  0.2492  0.1063
 1336SOL    MW4 5112   4.603   0.410   5.004 -0.0903  0.4831  0.0418
 1337SOL     OW 5113   0.083   3.849   1.458  0.0352 -0.2617  0.1173
 1337SOL    HW2 5114   0.048   3.779   1.512 -2.5414  0.8521  0.0547
 1337SOL    HW3 5115   0.073   3.928   1.511  1.0180  0.3304 -0.5409
 1337SOL    MW4 5116   0.077   3.850   1.472 -0.1751 -0.0366  0.0222
 1338SOL     OW 5117   6.084   2.783   0.911  0.3926  0.2392 -0.4676
 1338SOL    HW2 5118   6.174   2.750   0.907  0.9679  1.7505 -0.9410
 1338SOL    HW3 5119   6.094   2.878   0.901 -0.9720  0.8462  2.5997
 1338SOL    MW4 5120   6.097   2.791   0.909  0.2885  0.5187 -0.1254
 1339SOL     OW 5121   3.038   1.099   6.315 -0.0787 -0.3313  0.7303
 1339SOL    HW2 5122   2.998   1.031   6.369  0.3349 -0.0326  1.4252
 1339SOL    HW3 5123   3.117   1.124   6.362  0.6267 -0.4923 -0.3261
 1339SOL    MW4 5124   3.043   1.094   6.328  0.0690 -0.3131  0.6826
 1340SOL     OW 5125   1.645   3.079   2.223 -0.4224 -0.1924 -0.4532
 1340SOL    HW2 5126   1.578   3.040   2.166 -1.8748 -0.1277  1.1490
 1340SOL    HW3 5127   1.622   3.049   2.311  0.3048  1.7196  0.4306
 1340SOL    MW4 5128   1.633   3.070   2.227 -0.5181  0.0684 -0.1252
 1341SOL     OW 5129   4.702   4.549   5.460 -0.5954 -0.6079  0.6538
 1341SOL    HW2 5130   4.751   4.561   5.379 -0.6032 -0.2951  0.6939
 1341SOL    HW3 5131   4.747   4.605   5.524 -0.1302 -1.4373  1.0644
 1341SOL    MW4 5132   4.714   4.558   5.458 -0.5351 -0.6761  0.7133
 1342SOL     OW 5133   5.178   4.515   1.914  0.0403 -0.0386 -0.4692
 1342SOL    HW2 5134   5.183   4.605   1.945  1.8746  0.0764 -0.9773
 1342SOL    HW3 5135   5.085   4.492   1.919 -0.0975  0.8457  2.5108
 1342SOL    MW4 5136   5.166   4.524   1.918  0.2641  0.0932 -0.1430
 1343SOL     OW 5137   1.372   3.612   0.303 -0.2573 -0.3918 -0.7919
 1343SOL    HW2 5138   1.313   3.648   0.370  0.1420 -2.1586  0.5884
 1343SOL    HW3 5139   1.426   3.686   0.277  1.7948 -0.1708  3.2967
 1343SOL    MW4 5140   1.371   3.626   0.309  0.0661 -0.5958 -0.0704
 1344SOL     OW 5141   1.876   5.244   2.732 -0.0677  0.1546 -0.3106
 1344SOL    HW2 5142   1.931   5.307   2.779  2.3265 -3.5564  2.3564
 1344SOL    HW3 5143   1.802   5.230   2.790  0.7828 -1.3627  0.4601
 1344SOL    MW4 5144   1.874   5.251   2.745  0.3604 -0.5352  0.1430
 1345SOL     OW 5145   5.887   5.322   2.482  0.3645 -0.0457  0.0929
 1345SOL    HW2 5146   5.937   5.265   2.424  1.3628 -0.2684  1.1509
 1345SOL    HW3 5147   5.904   5.411   2.449 -1.0599 -0.2853 -1.4509
 1345SOL    MW4 5148   5.896   5.327   2.470  0.3083 -0.1067  0.0288
 1346SOL     OW 5149   4.354   4.852   5.415  1.0527 -0.0224  0.0283
 1346SOL    HW2 5150   4.292   4.911   5.374  1.8836  0.1189 -1.0663
 1346SOL    HW3 5151   4.319   4.838   5.503 -1.4150 -1.2729 -1.0644
 1346SOL    MW4 5152   4.341   4.858   5.421  0.8368 -0.1687 -0.2603
 1347SOL     OW 5153   3.609   3.184   1.108 -0.7039 -0.2785  0.3119
 1347SOL    HW2 5154   3.612   3.107   1.051 -0.1989 -0.2243  0.2588
 1347SOL    HW3 5155   3.560   3.249   1.057 -2.0694 -0.8987  0.7868
 1347SOL    MW4 5156   3.603   3.183   1.093 -0.8175 -0.3532  0.3675
 1348SOL     OW 5157   1.394   2.296   5.967 -0.0920  0.1504  0.3615
 1348SOL    HW2 5158   1.323   2.331   5.912 -0.2614 -1.2479 -0.3488
 1348SOL    HW3 5159   1.365   2.314   6.056 -0.6411  0.9038  0.0498
 1348SOL    MW4 5160   1.380   2.303   5.971 -0.1868  0.0653  0.2267
 1349SOL     OW 5161   3.297   5.985   1.572 -0.4379 -0.5522  0.0832
 1349SOL    HW2 5162   3.347   5.960   1.495 -2.0372 -0.4075 -1.0514
 1349SOL    HW3 5163   3.342   5.943   1.645  1.9559  0.4701 -0.7137
 1349SOL    MW4 5164   3.310   5.976   1.571 -0.3330 -0.3982 -0.1716
 1350SOL     OW 5165   0.936   2.184   0.673  0.6001  0.8149  0.5316
 1350SOL    HW2 5166   0.857   2.236   0.661  0.1789  0.2525  0.8073
 1350SOL    HW3 5167   0.965   2.164   0.584 -0.3298 -0.0884  0.4050
 1350SOL    MW4 5168   0.929   2.188   0.660  0.4219  0.6215  0.5513
 1351SOL     OW 5169   3.027   3.526   3.018 -0.8139  0.3061 -0.6833
 1351SOL    HW2 5170   2.972   3.449   3.035 -0.7336  0.6664  1.5379
 1351SOL    HW3 5171   3.107   3.490   2.981 -1.4368 -0.4919 -1.3060
 1351SOL    MW4 5172   3.030   3.511   3.016 -0.8855  0.2484 -0.4724
 1352SOL     OW 5173   3.352   2.143   5.775  0.3698 -0.3112  0.3197
 1352SOL    HW2 5174   3.411   2.109   5.707  0.5501  0.3184  0.1615
 1352SOL    HW3 5175   3.405   2.140   5.855  0.2689 -0.7301  0.3742
 1352SOL    MW4 5176   3.367   2.138   5.777  0.3803 -0.2834  0.3060
 1353SOL     OW 5177   1.944   5.965   2.590 -0.4369  0.0346 -0.0509
 1353SOL    HW2 5178   2.008   6.020   2.634 -0.2311  0.0639 -0.3870
 1353SOL    HW3 5179   1.927   5.893   2.652  0.1361 -0.1310 -0.0795
 1353SOL    MW4 5180   1.950   5.962   2.604 -0.3341  0.0166 -0.0990
 1354SOL     OW 5181   2.412   0.778   3.402 -0.4186 -0.4731 -0.0874
 1354SOL    HW2 5182   2.424   0.872   3.390 -2.0201 -0.0222  1.4657
 1354SOL    HW3 5183   2.429   0.741   3.315 -1.4190  1.4231 -1.1587
 1354SOL    MW4 5184   2.416   0.785   3.389 -0.7619 -0.1634 -0.0239
 1355SOL     OW 5185   5.492   5.191   6.398 -0.3797 -0.1699 -1.0556
 1355SOL    HW2 5186   5.521   5.118   6.343  0.3961  0.1646 -1.1004
 1355SOL    HW3 5187   5.511   5.269   6.347 -3.5006  0.0602 -2.1170
 1355SOL    MW4 5188   5.498   5.192   6.384 -0.6891 -0.0954 -1.2015
 1356SOL     OW 5189   0.231   5.008   2.843  0.0008  0.2258  0.1515
 1356SOL    HW2 5190   0.217   5.079   2.906  0.8626 -0.1082  0.7536
 1356SOL    HW3 5191   0.263   4.935   2.897 -0.1879 -0.3875 -0.5496
 1356SOL    MW4 5192   0.233   5.008   2.859  0.0896  0.1008  0.1384
 1357SOL     OW 5193   3.441   2.288   3.293  0.5575 -0.7654  0.5722
 1357SOL    HW2 5194   3.513   2.261   3.236 -0.5253 -1.7044 -0.4245
 1357SOL    HW3 5195   3.435   2.219   3.359  0.0447 -1.1477  0.1381
 1357SOL    MW4 5196   3.449   2.276   3.294  0.3470 -0.9397  0.3834
 1358SOL     OW 5197   1.185   2.988   0.640  1.0412 -0.2894  0.1183
 1358SOL    HW2 5198   1.261   3.034   0.675  0.3090  2.0527 -1.2048
 1358SOL    HW3 5199   1.214   2.954   0.556  0.4952  1.2127 -0.7166
 1358SOL    MW4 5200   1.199   2.989   0.633  0.8726  0.2178 -0.1664
 1359SOL     OW 5201   1.640   5.821   0.061  0.2042 -0.2756  0.3272
 1359SOL    HW2 5202   1.674   5.743   0.016  1.7620 -0.4412  1.6905
 1359SOL    HW3 5203   1.622   5.791   0.150 -0.3048  0.6571  0.5492
 1359SOL    MW4 5204   1.642   5.806   0.067  0.3426 -0.1744  0.5364
 1360SOL     OW 5205   6.068   2.623   1.615  0.2394  0.2115  0.0529
 1360SOL    HW2 5206   6.105   2.617   1.527  1.3484  0.3788  0.4939
 1360SOL    HW3 5207   6.130   2.677   1.664 -0.4394  0.2459  0.9007
 1360SOL    MW4 5208   6.081   2.629   1.610  0.2961  0.2381  0.2229
 1361SOL     OW 5209   2.822   0.322   4.179  0.4211 -0.0452  0.4523
 1361SOL    HW2 5210   2.845   0.391   4.117 -1.4290  1.1196  0.9815
 1361SOL    HW3 5211   2.827   0.241   4.129  0.4688  0.7044 -0.7947
 1361SOL    MW4 5212   2.826   0.320   4.165  0.1833  0.2074  0.3576
 1362SOL     OW 5213   2.770   4.070   1.327  0.3203 -0.6653  0.4028
 1362SOL    HW2 5214   2.749   4.161   1.348  1.4984 -0.2938  0.0859
 1362SOL    HW3 5215   2.709   4.018   1.378 -0.8213  0.3179  0.0748
 1362SOL    MW4 5216   2.759   4.076   1.336  0.3252 -0.4866  0.3177
 1363SOL     OW 5217   0.546   2.563   0.972  0.1567  0.3648  0.1614
 1363SOL    HW2 5218   0.569   2.536   1.061  0.3761  0.6467  0.1901
 1363SOL    HW3 5219   0.540   2.659   0.977 -0.4673  0.3381  0.0240
 1363SOL    MW4 5220   0.548   2.572   0.984  0.1033  0.3985  0.1470
 1364SOL     OW 5221   6.167   5.606   4.180 -0.4333  0.2143 -0.5010
 1364SOL    HW2 5222   6.186   5.615   4.274 -0.5182  0.8778 -0.5427
 1364SOL    HW3 5223   6.115   5.684   4.159 -2.1866 -0.9271 -0.6406
 1364SOL    MW4 5224   6.163   5.617   4.190 -0.6758  0.1513 -0.5249
 1365SOL     OW 5225   0.884   2.959   1.924  0.5825 -0.4017 -0.4377
 1365SOL    HW2 5226   0.934   2.909   1.988  2.1027 -0.7368 -1.8148
 1365SOL    HW3 5227   0.897   2.912   1.841 -0.0815  0.8368 -1.2773
 1365SOL    MW4 5228   0.893   2.946   1.922  0.6955 -0.2825 -0.7301
 1366SOL     OW 5229   3.240   3.753   3.074 -0.1378  0.0504  0.0875
 1366SOL    HW2 5230   3.246   3.730   2.981  0.5607 -2.1180  0.5935
 1366SOL    HW3 5231   3.171   3.696   3.108  1.4636 -1.2200  1.3908
 1366SOL    MW4 5232   3.232   3.742   3.066  0.1657 -0.4033  0.3262
 1367SOL     OW 5233   4.177   4.368   4.061 -0.2499 -0.1697  0.5241
 1367SOL    HW2 5234   4.167   4.311   4.137 -1.2141 -1.0744 -0.2525
 1367SOL    HW3 5235   4.110   4.436   4.073  0.5746  0.5533  1.2004
 1367SOL    MW4 5236   4.167   4.370   4.072 -0.2683 -0.1936  0.5109
 1368SOL     OW 5237   5.872   0.335   6.061 -0.0786  0.1038 -0.1266
 1368SOL    HW2 5238   5.912   0.331   6.148 -0.8789  0.8786  0.2960
 1368SOL    HW3 5239   5.874   0.245   6.029 -0.9357 -0.4380  1.2449
 1368SOL    MW4 5240   5.878   0.323   6.068 -0.2973  0.1346  0.1101
 1369SOL     OW 5241   3.986   4.013   1.455  0.3161 -0.1720 -0.2085
 1369SOL    HW2 5242   3.898   3.977   1.465 -0.1925  0.7341 -1.2117
 1369SOL    HW3 5243   3.981   4.065   1.375  1.7338  0.0002 -0.1988
 1369SOL    MW4 5244   3.974   4.015   1.446  0.4361 -0.0297 -0.3396
 1370SOL     OW 5245   5.041   3.846   4.279 -0.6445  0.0086 -0.2921
 1370SOL    HW2 5246   5.117   3.897   4.306 -1.7342  1.2265  0.5642
 1370SOL    HW3 5247   5.078   3.771   4.233  1.0776  0.4673  0.2787
 1370SOL    MW4 5248   5.056   3.843   4.276 -0.5610  0.2298 -0.1038
 1371SOL     OW 5249   0.199   3.621   3.301  1.0509 -0.5214 -0.5270
 1371SOL    HW2 5250   0.216   3.689   3.236  1.4349  0.0339  0.1428
 1371SOL    HW3 5251   0.230   3.658   3.383 -1.5383 -0.2573  0.4268
 1371SOL    MW4 5252   0.205   3.634   3.303  0.7599 -0.4133 -0.3128
 1372SOL     OW 5253   5.596   0.983   4.251  0.0434  0.5956 -0.0907
 1372SOL    HW2 5254   5.547   1.025   4.180  0.0298 -0.5390 -0.7756
 1372SOL    HW3 5255   5.535   0.982   4.325 -1.1088 -1.0003 -0.9929
 1372SOL    MW4 5256   5.582   0.988   4.251 -0.1104  0.2354 -0.3001
 1373SOL     OW 5257   0.334   5.294   0.231  0.3951  0.0331 -0.0892
 1373SOL    HW2 5258   0.299   5.302   0.143 -1.1353 -0.1153  0.4705
 1373SOL    HW3 5259   0.395   5.221   0.227  0.2581 -0.0383 -0.9979
 1373SOL    MW4 5260   0.337   5.286   0.219  0.1751  0.0041 -0.1353
 1374SOL     OW 5261   1.087   5.372   4.887 -0.1627 -0.5300  0.2502
 1374SOL    HW2 5262   1.082   5.430   4.811  0.6724  1.7096  1.7912
 1374SOL    HW3 5263   1.145   5.301   4.860  0.0004  0.1334 -1.2227
 1374SOL    MW4 5264   1.094   5.370   4.873 -0.0310 -0.1470  0.2592
 1375SOL     OW 5265   3.170   5.377   3.293  0.0137 -0.2475 -0.1420
 1375SOL    HW2 5266   3.214   5.315   3.234  2.7012  0.2072  1.1954
 1375SOL    HW3 5267   3.185   5.341   3.380 -1.8020  0.3214  0.4381
 1375SOL    MW4 5268   3.178   5.364   3.296  0.1287 -0.1124  0.1110
 1376SOL     OW 5269   1.709   2.538   1.362  0.6150 -0.1481 -0.2125
 1376SOL    HW2 5270   1.666   2.520   1.446  0.3900 -1.1360 -0.5249
 1376SOL    HW3 5271   1.640   2.527   1.297  0.5767  1.4846 -0.4788
 1376SOL    MW4 5272   1.694   2.534   1.364  0.5803 -0.0631 -0.2888
 1377SOL     OW 5273   1.816   1.062   6.284  1.0903 -0.0355  0.6324
 1377SOL    HW2 5274   1.842   1.050   6.375  0.7541  1.2702  0.9184
 1377SOL    HW3 5275   1.731   1.106   6.288  1.3768  0.6517 -0.2954
 1377SOL    MW4 5276   1.808   1.066   6.296  1.0838  0.2274  0.5477
 1378SOL     OW 5277   1.594   5.473   0.162 -0.0540  0.6306  0.1074
 1378SOL    HW2 5278   1.616   5.384   0.134 -2.2809  0.0624 -0.0145
 1378SOL    HW3 5279   1.565   5.516   0.081 -0.4407  0.9824  0.4328
 1378SOL    MW4 5280   1.593   5.467   0.148 -0.3989  0.6020  0.1343
 1379SOL     OW 5281   4.983   2.630   1.925 -1.0023 -0.1222  0.3028
 1379SOL    HW2 5282   4.939   2.549   1.899  0.5930 -1.0491  0.3863
 1379SOL    HW3 5283   5.043   2.649   1.853 -0.5830  0.4024  0.7784
 1379SOL    MW4 5284   4.985   2.622   1.912 -0.7365 -0.1753  0.3765
 1380SOL     OW 5285   3.088   3.728   2.090 -0.0020  0.1175 -0.3413
 1380SOL    HW2 5286   3.079   3.634   2.077  1.5484  0.1071 -1.7671
 1380SOL    HW3 5287   3.107   3.763   2.002 -1.4747  1.9003 -0.0186
 1380SOL    MW4 5288   3.089   3.720   2.076  0.0083  0.3513 -0.4869
 1381SOL     OW 5289   4.907   1.813   0.447  0.3104 -0.3452  0.6187
 1381SOL    HW2 5290   4.939   1.883   0.503  1.7467 -0.6208  0.1948
 1381SOL    HW3 5291   4.954   1.735   0.476  3.0149 -0.0696 -2.4277
 1381SOL    MW4 5292   4.917   1.812   0.458  0.8567 -0.3452  0.1608
 1382SOL     OW 5293   6.350   6.259   1.618  0.1481  0.6417 -0.2181
 1382SOL    HW2 5294   6.398   6.342   1.614 -0.5617  1.2019  1.6861
 1382SOL    HW3 5295   6.331   6.247   1.711  0.9094 -2.0822 -0.3266
 1382SOL    MW4 5296   6.353   6.269   1.629  0.1549  0.3562  0.0188
 1383SOL     OW 5297   3.463   6.327   4.021 -0.2950  0.3559 -0.9539
 1383SOL    HW2 5298   3.475   6.232   4.019  0.1611  0.2478  2.1128
 1383SOL    HW3 5299   3.442   6.351   3.930 -0.8093 -2.6911 -1.7415
 1383SOL    MW4 5300   3.462   6.318   4.009 -0.3027 -0.0604 -0.6532
 1384SOL     OW 5301   5.069   1.276   4.841  0.5848 -1.0288  0.5306
 1384SOL    HW2 5302   4.989   1.223   4.835 -0.3156  0.2996  0.3159
 1384SOL    HW3 5303   5.065   1.315   4.928  0.6867 -0.4799  0.2896
 1384SOL    MW4 5304   5.058   1.274   4.852  0.4795 -0.7811  0.4705
 1385SOL     OW 5305   4.815   6.378   1.281 -0.1993  0.1362  0.6330
 1385SOL    HW2 5306   4.760   6.403   1.206  0.1113 -2.0800 -0.4261
 1385SOL    HW3 5307   4.902   6.411   1.258  0.2933 -2.0289 -0.9289
 1385SOL    MW4 5308   4.820   6.386   1.268 -0.0934 -0.4418  0.2872
 1386SOL     OW 5309   2.605   4.289   0.608  0.2979 -0.5445 -0.0730
 1386SOL    HW2 5310   2.674   4.296   0.674 -0.2773 -1.5442  0.6698
 1386SOL    HW3 5311   2.617   4.202   0.570 -0.3562 -0.6107 -0.1436
 1386SOL    MW4 5312   2.616   4.278   0.612  0.1357 -0.6851  0.0157
 1387SOL     OW 5313   5.724   3.468   0.958 -0.4032 -0.1180  0.0681
 1387SOL    HW2 5314   5.818   3.462   0.941 -0.1540  2.8954  0.0193
 1387SOL    HW3 5315   5.685   3.406   0.896  1.4449 -0.6511 -0.6373
 1387SOL    MW4 5316   5.731   3.459   0.948 -0.1265  0.2092 -0.0314
 1388SOL     OW 5317   3.347   4.101   4.772 -0.2695  0.3211  0.2148
 1388SOL    HW2 5318   3.400   4.104   4.692  0.0284  1.8026  0.4556
 1388SOL    HW3 5319   3.314   4.011   4.774  2.0250 -0.6133 -0.0696
 1388SOL    MW4 5320   3.350   4.089   4.761  0.0725  0.3933  0.2091
 1389SOL     OW 5321   2.727   2.812   1.328 -0.1330  0.7073 -0.7324
 1389SOL    HW2 5322   2.649   2.826   1.381 -0.8492 -1.7889 -1.0174
 1389SOL    HW3 5323   2.739   2.717   1.327 -0.0202  0.5875 -4.7876
 1389SOL    MW4 5324   2.719   2.801   1.335 -0.2126  0.3621 -1.3050
 1390SOL     OW 5325   0.668   0.739   4.730 -0.1888 -0.3799 -0.2390
 1390SOL    HW2 5326   0.606   0.719   4.659  0.3779 -1.8071 -0.3725
 1390SOL    HW3 5327   0.624   0.805   4.783 -0.4928  1.0071 -2.0971
 1390SOL    MW4 5328   0.654   0.745   4.727 -0.1542 -0.3852 -0.5018
 1391SOL     OW 5329   4.868   2.458   3.855 -0.0269 -0.1935  0.5433
 1391SOL    HW2 5330   4.797   2.505   3.900 -0.2371  0.4574 -0.4289
 1391SOL    HW3 5331   4.948   2.488   3.900 -0.2001  0.7599  0.2549
 1391SOL    MW4 5332   4.869   2.468   3.867 -0.0775  0.0182  0.3770
 1392SOL     OW 5333   0.889   3.042   5.448 -0.1658  0.2687 -0.0904
 1392SOL    HW2 5334   0.875   2.965   5.393 -0.6324  0.6935 -0.5796
 1392SOL    HW3 5335   0.932   3.105   5.390 -0.4187  0.6222  0.1022
 1392SOL    MW4 5336   0.892   3.040   5.433 -0.2607  0.3714 -0.1295
 1393SOL     OW 5337   5.191   1.927   5.253  0.5497 -0.6072 -0.5335
 1393SOL    HW2 5338   5.182   1.911   5.347 -0.1533  0.4172 -0.4143
 1393SOL    HW3 5339   5.171   2.019   5.242  1.9537 -0.3905 -1.5291
 1393SOL    MW4 5340   5.187   1.937   5.264  0.6422 -0.4435 -0.6491
 1394SOL     OW 5341   2.410   3.954   5.503  0.0857 -0.1084 -0.5875
 1394SOL    HW2 5342   2.465   3.932   5.578 -1.0838  0.1699  0.3888
 1394SOL    HW3 5343   2.459   4.021   5.456  1.6908 -1.6088 -1.1479
 1394SOL    MW4 5344   2.424   3.960   5.507  0.1432 -0.2696 -0.5326
 1395SOL     OW 5345   1.913   2.043   0.672  0.3673  0.1738  0.0346
 1395SOL    HW2 5346   1.866   2.011   0.749  1.1809 -1.3446 -0.0658
 1395SOL    HW3 5347   1.984   2.097   0.707 -0.1766  0.7419  0.2711
 1395SOL    MW4 5348   1.916   2.046   0.687  0.4029  0.0484  0.0526
 1396SOL     OW 5349   2.909   0.374   3.284 -0.2560  0.2550  0.0507
 1396SOL    HW2 5350   2.861   0.447   3.244 -0.7365  1.9120  3.2759
 1396SOL    HW3 5351   2.986   0.416   3.324 -0.5075 -0.9673  1.9373
 1396SOL    MW4 5352   2.913   0.389   3.284 -0.3526  0.3124  0.7252
 1397SOL     OW 5353   0.872   4.995   4.766  0.2589 -0.2183  0.1403
 1397SOL    HW2 5354   0.900   5.080   4.732 -0.5655  0.1967  0.4875
 1397SOL    HW3 5355   0.854   5.010   4.858  2.6665 -1.3840  0.8797
 1397SOL    MW4 5356   0.873   5.008   4.773  0.4677 -0.3174  0.2837
 1398SOL     OW 5357   0.739   2.710   2.828 -0.1523 -0.1415  0.0594
 1398SOL    HW2 5358   0.659   2.762   2.833 -0.6919 -1.0331  1.6153
 1398SOL    HW3 5359   0.810   2.774   2.839 -0.7792  0.3781  1.3592
 1398SOL    MW4 5360   0.738   2.725   2.830 -0.3062 -0.1906  0.4362
 1399SOL     OW 5361   0.713   3.657   4.972 -0.0795 -0.7634  0.0434
 1399SOL    HW2 5362   0.765   3.731   4.941  0.8212 -0.2215  2.5781
 1399SOL    HW3 5363   0.648   3.642   4.903  0.4707  1.6132 -1.0878
 1399SOL    MW4 5364   0.711   3.665   4.959  0.1119 -0.3784  0.2286
 1400SOL     OW 5365   1.631   4.570   1.285 -0.0176  0.2268 -1.0296
 1400SOL    HW2 5366   1.700   4.614   1.333 -2.3399  1.6538  1.2450
 1400SOL    HW3 5367   1.677   4.521   1.216  3.1038  1.8555 -0.2845
 1400SOL    MW4 5368   1.646   4.569   1.282  0.0878  0.6300 -0.6312
 1401SOL     OW 5369   1.608   2.308   4.559 -0.4260 -0.1767 -0.7022
 1401SOL    HW2 5370   1.632   2.239   4.498  0.5613  0.4267 -1.0066
 1401SOL    HW3 5371   1.585   2.261   4.640  1.9200 -0.8108 -0.3352
 1401SOL    MW4 5372   1.608   2.293   4.562  0.0138 -0.1808 -0.6940
 1402SOL     OW 5373   5.564   3.311   4.374  0.2728  0.1541  0.5343
 1402SOL    HW2 5374   5.557   3.404   4.395  2.3754  0.5717 -0.4215
 1402SOL    HW3 5375   5.627   3.307   4.303 -1.1572 -1.8636 -0.7078
 1402SOL    MW4 5376   5.571   3.323   4.368  0.3615 -0.0570  0.2443
 1403SOL     OW 5377   4.486   3.707   0.827 -0.0436 -0.2909  0.5742
 1403SOL    HW2 5378   4.405   3.756   0.811  0.2043 -0.0405  0.0857
 1403SOL    HW3 5379   4.533   3.759   0.892  0.5568  0.5096 -0.4825
 1403SOL    MW4 5380   4.481   3.720   0.833  0.0683 -0.1523  0.3703
 1404SOL     OW 5381   4.244   0.157   3.836  0.0131 -0.1480 -0.4503
 1404SOL    HW2 5382   4.166   0.102   3.838  0.5197 -0.8705  1.3171
 1404SOL    HW3 5383   4.308   0.106   3.785  0.2422 -0.8810  0.5532
 1404SOL    MW4 5384   4.242   0.143   3.829  0.1101 -0.3401 -0.0847
 1405SOL     OW 5385   2.516   4.350   6.263 -0.1841  0.4875  0.0128
 1405SOL    HW2 5386   2.541   4.358   6.171  0.7645 -0.6605  0.1504
 1405SOL    HW3 5387   2.487   4.259   6.272 -1.2517  0.8642  0.6360
 1405SOL    MW4 5388   2.515   4.339   6.252 -0.1998  0.3857  0.1132
 1406SOL     OW 5389   3.201   1.723   1.703  0.2523  0.7406 -0.1026
 1406SOL    HW2 5390   3.118   1.710   1.658  0.3262 -1.1396  0.2294
 1406SOL    HW3 5391   3.261   1.751   1.634 -0.1361 -0.0660 -0.7966
 1406SOL    MW4 5392   3.198   1.725   1.688  0.2108  0.3861 -0.1503
 1407SOL     OW 5393   0.080   5.262   4.765  0.3784 -0.8654  0.2679
 1407SOL    HW2 5394   0.170   5.277   4.795  1.3536  0.6191 -2.9176
 1407SOL    HW3 5395   0.086   5.182   4.713 -0.3926 -1.2663  0.7780
 1407SOL    MW4 5396   0.093   5.254   4.762  0.4054 -0.7225 -0.0851
 1408SOL     OW 5397   2.816   0.177   1.498 -0.2820 -0.2812  0.1210
 1408SOL    HW2 5398   2.822   0.254   1.441  2.5262 -0.3304  0.1879
 1408SOL    HW3 5399   2.863   0.204   1.578  0.0523 -1.7773  0.4570
 1408SOL    MW4 5400   2.823   0.191   1.501  0.1326 -0.4851  0.1742
 1409SOL     OW 5401   0.609   1.865   6.241  0.0274 -1.3726  0.6123
 1409SOL    HW2 5402   0.631   1.913   6.321 -0.9834 -0.6615  0.4707
 1409SOL    HW3 5403   0.517   1.842   6.250 -1.3606  2.2140 -2.0151
 1409SOL    MW4 5404   0.600   1.868   6.253 -0.2891 -0.8055  0.2469
 1410SOL     OW 5405   3.342   1.544   4.368  0.1923  0.8192  0.3705
 1410SOL    HW2 5406   3.340   1.567   4.275 -0.7298 -4.7699 -1.3922
 1410SOL    HW3 5407   3.407   1.474   4.374 -2.6279 -1.9330  2.9044
 1410SOL    MW4 5408   3.350   1.538   4.357 -0.3014 -0.2813  0.4722
 1411SOL     OW 5409   0.734   0.198   3.662 -0.1458  0.3534 -0.2195
 1411SOL    HW2 5410   0.798   0.150   3.716  1.1398  2.6891  0.5027
 1411SOL    HW3 5411   0.774   0.202   3.575  1.0225  2.1914  0.3370
 1411SOL    MW4 5412   0.748   0.193   3.658  0.1780  0.9041 -0.0508
 1412SOL     OW 5413   3.634   1.714   3.625  0.0871 -0.1546 -0.1640
 1412SOL    HW2 5414   3.684   1.689   3.548 -0.1613 -1.6410  0.1206
 1412SOL    HW3 5415   3.556   1.756   3.591 -0.0651 -0.8835 -0.7488
 1412SOL    MW4 5416   3.630   1.716   3.610  0.0342 -0.4469 -0.2036
 1413SOL     OW 5417   2.386   3.201   4.082  0.7027 -0.0319 -0.0582
 1413SOL    HW2 5418   2.419   3.219   3.994  0.7049  0.9065  0.1198
 1413SOL    HW3 5419   2.457   3.226   4.141  0.1862  0.7514  0.2633
 1413SOL    MW4 5420   2.399   3.207   4.078  0.6349  0.1953  0.0077
 1414SOL     OW 5421   3.629   4.964   0.597  0.5148 -0.0207  0.2881
 1414SOL    HW2 5422   3.647   4.905   0.670  0.0742 -1.3849 -0.6748
 1414SOL    HW3 5423   3.680   4.928   0.524 -2.1679 -1.1348 -1.1781
 1414SOL    MW4 5424   3.638   4.951   0.597  0.1027 -0.3477 -0.0324
 1415SOL     OW 5425   5.770   0.771   4.518 -0.4432 -0.0422 -0.1509
 1415SOL    HW2 5426   5.803   0.686   4.546 -1.0071 -1.1393 -2.5673
 1415SOL    HW3 5427   5.685   0.779   4.560 -0.0253 -0.2604  0.7610
 1415SOL    MW4 5428   5.763   0.761   4.527 -0.4625 -0.2158 -0.3494
 1416SOL     OW 5429   3.389   6.043   4.102  0.0696  0.0765 -0.6178
 1416SOL    HW2 5430   3.440   6.078   4.175  0.6985 -1.0689 -0.4858
 1416SOL    HW3 5431   3.421   5.953   4.091 -1.6622 -0.5691 -0.7673
 1416SOL    MW4 5432   3.400   6.036   4.110 -0.0759 -0.1598 -0.6201
 1417SOL     OW 5433   3.680   5.179   4.086  0.1560  0.2700  0.3517
 1417SOL    HW2 5434   3.731   5.189   4.166  0.6487 -0.9416  0.2135
 1417SOL    HW3 5435   3.740   5.138   4.024 -0.3220  0.8711 -0.5399
 1417SOL    MW4 5436   3.695   5.175   4.089  0.1579  0.1894  0.2158
 1418SOL     OW 5437   4.063   0.684   2.427 -0.3173  0.6331 -0.2155
 1418SOL    HW2 5438   4.052   0.749   2.497  0.2937  1.8713 -1.2409
 1418SOL    HW3 5439   4.024   0.725   2.350 -0.8104 -0.6404 -0.6745
 1418SOL    MW4 5440   4.056   0.698   2.426 -0.3017  0.6285 -0.4114
 1419SOL     OW 5441   3.885   6.119   2.243  0.5781 -0.2603  0.0307
 1419SOL    HW2 5442   3.819   6.188   2.248 -0.4523 -1.2087 -0.0929
 1419SOL    HW3 5443   3.969   6.165   2.245 -0.0907  1.0423 -0.8690
 1419SOL    MW4 5444   3.887   6.134   2.244  0.3539 -0.2136 -0.1043
 1420SOL     OW 5445   3.734   2.310   4.968  0.0397  0.3417  0.1743
 1420SOL    HW2 5446   3.697   2.356   5.044  0.6078  0.8402  0.1582
 1420SOL    HW3 5447   3.733   2.374   4.898  0.9343  0.3815  0.1778
 1420SOL    MW4 5448   3.729   2.324   4.969  0.2327  0.4127  0.1727
 1421SOL     OW 5449   2.031   2.204   1.027 -0.8580 -0.1502 -0.7389
 1421SOL    HW2 5450   1.996   2.292   1.019  0.0521  0.4951  1.6584
 1421SOL    HW3 5451   2.111   2.214   1.078 -0.6414 -2.3359 -0.5472
 1421SOL    MW4 5452   2.037   2.217   1.033 -0.7093 -0.3534 -0.3973
 1422SOL     OW 5453   2.110   0.821   2.276  0.1285  0.4593 -0.0048
 1422SOL    HW2 5454   2.056   0.898   2.292  0.1615  0.5900 -0.4942
 1422SOL    HW3 5455   2.072   0.781   2.197  1.6664  1.4054 -1.2949
 1422SOL    MW4 5456   2.098   0.826   2.268  0.3358  0.6014 -0.2396
 1423SOL     OW 5457   4.205   6.126   5.986 -0.3425  0.1995  0.3122
 1423SOL    HW2 5458   4.185   6.216   5.960  0.2383  0.2788  0.1377
 1423SOL    HW3 5459   4.297   6.114   5.964  0.0046  0.0561  1.7170
 1423SOL    MW4 5460   4.214   6.136   5.980 -0.2200  0.1911  0.4745
 1424SOL     OW 5461   1.051   5.035   4.319 -0.2610  0.1602  0.0675
 1424SOL    HW2 5462   1.096   4.954   4.296 -0.5610 -0.0454  0.1970
 1424SOL    HW3 5463   1.048   5.085   4.238  2.9211  1.5418  0.6570
 1424SOL    MW4 5464   1.056   5.031   4.305  0.1193  0.3154  0.1624
 1425SOL     OW 5465   1.948   0.465   1.699  0.5964  0.1902  0.3400
 1425SOL    HW2 5466   1.882   0.471   1.630  0.3579  0.1954  0.5655
 1425SOL    HW3 5467   1.943   0.550   1.744  1.9537  0.8557 -0.7082
 1425SOL    MW4 5468   1.938   0.477   1.696  0.7440  0.2787  0.2315
 1426SOL     OW 5469   4.405   5.743   1.799 -0.0351 -0.0224 -0.6183
 1426SOL    HW2 5470   4.385   5.773   1.710 -1.0887  1.2077  0.0101
 1426SOL    HW3 5471   4.449   5.817   1.840 -1.5057  0.2570  0.5500
 1426SOL    MW4 5472   4.408   5.756   1.792 -0.3682  0.1767 -0.3813
 1427SOL     OW 5473   0.769   4.499   0.673 -0.4909 -0.1152  0.2986
 1427SOL    HW2 5474   0.836   4.567   0.673 -1.2866  0.6946  0.0997
 1427SOL    HW3 5475   0.731   4.502   0.762 -2.4214  1.6759 -0.5005
 1427SOL    MW4 5476   0.773   4.508   0.685 -0.8506  0.2279  0.1669
 1428SOL     OW 5477   3.022   4.524   3.337  0.0077  0.4465 -0.3229
 1428SOL    HW2 5478   3.078   4.600   3.349 -1.1634  1.1242  1.2736
 1428SOL    HW3 5479   3.053   4.461   3.403 -3.2781  2.2412  3.3033
 1428SOL    MW4 5480   3.034   4.526   3.348 -0.5803  0.7727  0.3662
 1429SOL     OW 5481   4.179   1.737   4.208 -0.2953 -0.0523 -0.1104
 1429SOL    HW2 5482   4.167   1.693   4.292 -0.8224 -1.3625 -0.8321
 1429SOL    HW3 5483   4.206   1.667   4.148 -3.1702  0.0779 -1.7862
 1429SOL    MW4 5484   4.181   1.722   4.211 -0.7441 -0.2080 -0.4267
 1430SOL     OW 5485   4.262   0.850   2.858  0.0404  0.2416 -0.3009
 1430SOL    HW2 5486   4.345   0.884   2.825 -0.7399  1.5231 -1.0158
 1430SOL    HW3 5487   4.286   0.771   2.906  1.4824 -0.3245 -1.8647
 1430SOL    MW4 5488   4.276   0.844   2.860  0.1277  0.3359 -0.6016
 1431SOL     OW 5489   0.294   2.612   4.869  0.1249  0.3808  0.1547
 1431SOL    HW2 5490   0.322   2.695   4.907  0.4058  0.5685 -0.4539
 1431SOL    HW3 5491   0.271   2.558   4.945  1.6879  0.3816  0.6745
 1431SOL    MW4 5492   0.295   2.615   4.884  0.3682  0.4057  0.1430
 1432SOL     OW 5493   2.707   2.028   0.234  0.6288  0.4223 -0.4814
 1432SOL    HW2 5494   2.701   1.987   0.148  2.3088  2.0651 -1.4625
 1432SOL    HW3 5495   2.790   2.077   0.232  1.0913 -0.0594  2.3370
 1432SOL    MW4 5496   2.718   2.029   0.223  0.9114  0.5755 -0.2390
 1433SOL     OW 5497   5.442   4.104   2.062  0.2649  0.1563  0.3253
 1433SOL    HW2 5498   5.367   4.056   2.026 -0.0598  0.7701  0.1783
 1433SOL    HW3 5499   5.405   4.158   2.132  0.2790  1.6875 -0.8091
 1433SOL    MW4 5500   5.427   4.104   2.067  0.2239  0.4393  0.1562
 1434SOL     OW 5501   4.759   3.181   1.494 -0.0272  0.0037  0.3624
 1434SOL    HW2 5502   4.705   3.250   1.534  0.1226  0.5928 -0.4272
 1434SOL    HW3 5503   4.721   3.169   1.407  0.5817 -0.1861  0.1171
 1434SOL    MW4 5504   4.747   3.188   1.488  0.0729  0.0564  0.2258
 1435SOL     OW 5505   0.702   4.333   1.716  0.1840 -0.4141 -0.0933
 1435SOL    HW2 5506   0.758   4.260   1.691 -0.4234 -0.2903 -1.9932
 1435SOL    HW3 5507   0.679   4.316   1.807  3.3156 -0.4237  0.8050
 1435SOL    MW4 5508   0.706   4.322   1.724  0.5171 -0.3990 -0.2255
 1436SOL     OW 5509   0.154   6.232   4.099 -0.0817 -0.3324  0.1206
 1436SOL    HW2 5510   0.181   6.148   4.137  1.4720  0.2695  0.4360
 1436SOL    HW3 5511   0.138   6.289   4.174 -1.9330 -0.5380 -0.0712
 1436SOL    MW4 5512   0.156   6.228   4.114 -0.1210 -0.2801  0.1369
 1437SOL     OW 5513   2.620   3.110   1.982 -0.4346 -0.2112  0.6154
 1437SOL    HW2 5514   2.715   3.104   1.983 -0.2121  2.1174  2.7116
 1437SOL    HW3 5515   2.596   3.105   1.889  1.8443  0.5624 -0.0640
 1437SOL    MW4 5516   2.629   3.108   1.970 -0.1046  0.1981  0.8023
 1438SOL     OW 5517   4.474   0.112   4.028  0.1148 -0.7809  0.5703
 1438SOL    HW2 5518   4.407   0.180   4.024  0.6970  0.0118  2.8797
 1438SOL    HW3 5519   4.425   0.030   4.037 -0.5635 -0.5050 -0.4919
 1438SOL    MW4 5520   4.459   0.110   4.029  0.1021 -0.6400  0.7349
 1439SOL     OW 5521   4.117   1.622   3.711  0.1809  0.1529 -0.2968
 1439SOL    HW2 5522   4.150   1.666   3.633  0.3586  1.1892  0.3410
 1439SOL    HW3 5523   4.107   1.692   3.775 -1.2407 -0.4715  0.2002
 1439SOL    MW4 5524   4.120   1.637   3.709  0.0168  0.2072 -0.1470
 1440SOL     OW 5525   2.978   5.829   3.011  0.0319  0.1545  0.4921
 1440SOL    HW2 5526   3.036   5.776   2.956  0.7177 -1.7221  2.8243
 1440SOL    HW3 5527   3.038   5.883   3.062 -0.5652  1.5816 -0.2879
 1440SOL    MW4 5528   2.994   5.829   3.011  0.0436  0.0952  0.6969
 1441SOL     OW 5529   5.821   1.824   0.489  0.0521  0.6561  0.3197
 1441SOL    HW2 5530   5.761   1.884   0.534  0.5518 -0.2604  2.3268
 1441SOL    HW3 5531   5.815   1.743   0.539  1.3336 -0.1636 -0.7849
 1441SOL    MW4 5532   5.812   1.821   0.501  0.2871  0.4271  0.4388
 1442SOL     OW 5533   3.191   4.068   1.768 -0.2993 -0.0436 -0.0483
 1442SOL    HW2 5534   3.270   4.043   1.722  1.0665  1.7104  1.2247
 1442SOL    HW3 5535   3.211   4.054   1.861 -2.7439 -2.8905  0.2187
 1442SOL    MW4 5536   3.204   4.063   1.774 -0.4417 -0.1878  0.1549
 1443SOL     OW 5537   6.355   0.888   3.589  0.0617  0.2327 -0.6763
 1443SOL    HW2 5538   6.382   0.971   3.629  1.4069 -0.6234  0.2600
 1443SOL    HW3 5539   6.303   0.844   3.655 -0.3376  0.1611 -1.0336
 1443SOL    MW4 5540   6.352   0.893   3.603  0.1865  0.1103 -0.5999
 1444SOL     OW 5541   0.698   0.795   4.232 -0.4251 -0.5474  0.3909
 1444SOL    HW2 5542   0.685   0.705   4.204 -0.1103 -0.8016  1.0331
 1444SOL    HW3 5543   0.650   0.848   4.168  1.3395 -1.0117 -1.4113
 1444SOL    MW4 5544   0.690   0.790   4.220 -0.1507 -0.6422  0.2378
 1445SOL     OW 5545   4.798   5.843   0.289 -0.3461 -0.0326  0.0276
 1445SOL    HW2 5546   4.824   5.935   0.302  1.4162 -0.2111 -1.6693
 1445SOL    HW3 5547   4.864   5.808   0.229 -1.8694 -1.9953 -0.6233
 1445SOL    MW4 5548   4.810   5.851   0.283 -0.3145 -0.3151 -0.2822
 1446SOL     OW 5549   1.482   0.612   4.874  0.5872 -0.0022 -0.1437
 1446SOL    HW2 5550   1.493   0.518   4.892 -3.1219 -0.7573 -0.8206
 1446SOL    HW3 5551   1.538   0.628   4.798 -0.1169 -2.2430 -1.2414
 1446SOL    MW4 5552   1.491   0.601   4.866  0.0049 -0.3975 -0.3778
 1447SOL     OW 5553   1.019   6.209   4.075 -0.3511  0.3698  0.6348
 1447SOL    HW2 5554   1.052   6.165   3.997  0.0181  0.8132  0.5344
 1447SOL    HW3 5555   0.951   6.267   4.043 -1.1279 -0.4131  0.8194
 1447SOL    MW4 5556   1.015   6.211   4.061 -0.4049  0.3250  0.6459
 1448SOL     OW 5557   0.464   6.122   5.885  0.3105 -0.0904 -0.4856
 1448SOL    HW2 5558   0.450   6.206   5.841  0.0378 -0.5014 -1.2149
 1448SOL    HW3 5559   0.391   6.113   5.946 -0.1528 -0.1893 -1.0433
 1448SOL    MW4 5560   0.453   6.132   5.887  0.2134 -0.1577 -0.6554
 1449SOL     OW 5561   2.587   3.003   4.332 -0.7186 -0.5719  0.0292
 1449SOL    HW2 5562   2.583   3.087   4.286 -1.0904 -0.6972 -0.1725
 1449SOL    HW3 5563   2.660   3.013   4.393 -0.1415 -0.4387 -0.6587
 1449SOL    MW4 5564   2.596   3.016   4.334 -0.6915 -0.5708 -0.0881
 1450SOL     OW 5565   5.080   1.605   6.128  0.0749  0.1329  0.4360
 1450SOL    HW2 5566   5.054   1.695   6.109 -0.5385 -0.0554  0.3432
 1450SOL    HW3 5567   5.011   1.572   6.186  1.6035  0.4987  2.5724
 1450SOL    MW4 5568   5.068   1.612   6.133  0.1957  0.1563  0.7056
 1451SOL     OW 5569   3.607   4.421   3.410  0.0489 -0.8959  0.9767
 1451SOL    HW2 5570   3.684   4.375   3.443 -0.2073 -1.1032  1.2786
 1451SOL    HW3 5571   3.629   4.441   3.318  0.3210 -1.2554  0.9641
 1451SOL    MW4 5572   3.620   4.418   3.402  0.0510 -0.9707  1.0148
 1452SOL     OW 5573   4.234   6.267   3.872  0.1278 -0.0399 -0.2161
 1452SOL    HW2 5574   4.175   6.307   3.809  1.3037  0.8365 -0.8021
 1452SOL    HW3 5575   4.264   6.187   3.830  0.7653  0.4480 -0.7089
 1452SOL    MW4 5576   4.230   6.262   3.858  0.3671  0.1401 -0.3584
 1453SOL     OW 5577   0.057   5.405   3.817  0.0653  0.5200  0.2625
 1453SOL    HW2 5578   0.145   5.372   3.835  0.1328  0.9109  0.6564
 1453SOL    HW3 5579   0.068   5.464   3.742 -0.1086 -0.5873 -0.6642
 1453SOL    MW4 5580   0.070   5.408   3.810  0.0513  0.4255  0.1922
 1454SOL     OW 5581   3.407   0.042   5.603 -0.1785 -0.2435  0.8086
 1454SOL    HW2 5582   3.324   0.014   5.564  1.1656  0.8871 -3.4388
 1454SOL    HW3 5583   3.386   0.121   5.651 -1.7520 -0.7398  0.9804
 1454SOL    MW4 5584   3.393   0.049   5.604 -0.2088 -0.1598  0.2709
 1455SOL     OW 5585   0.570   4.960   2.713  0.0080  0.7082  0.6819
 1455SOL    HW2 5586   0.549   4.873   2.747  1.1237 -0.4378 -1.3398
 1455SOL    HW3 5587   0.494   4.985   2.661 -1.6025  2.3635  3.5643
 1455SOL    MW4 5588   0.557   4.952   2.710 -0.0573  0.7754  0.7954
 1456SOL     OW 5589   6.157   3.682   0.424  0.0032 -0.3992  0.0831
 1456SOL    HW2 5590   6.107   3.667   0.343 -2.8296 -1.7211  1.9054
 1456SOL    HW3 5591   6.192   3.596   0.447  3.6523  0.5257 -1.2681
 1456SOL    MW4 5592   6.155   3.669   0.416  0.1109 -0.4516  0.1453
 1457SOL     OW 5593   3.518   6.434   2.957  0.0846  0.1406 -0.3030
 1457SOL    HW2 5594   3.608   6.441   2.925 -0.0461  0.1254 -0.6781
 1457SOL    HW3 5595   3.502   6.340   2.962  0.2233  0.1389  0.1496
 1457SOL    MW4 5596   3.528   6.423   2.953  0.0856  0.1384 -0.2928
 1458SOL     OW 5597   1.771   0.801   3.878  0.2157  0.6159 -0.6462
 1458SOL    HW2 5598   1.678   0.807   3.903 -0.3234 -1.5039 -1.8677
 1458SOL    HW3 5599   1.817   0.789   3.961 -0.6203  1.4705 -0.0406
 1458SOL    MW4 5600   1.764   0.800   3.893  0.0343  0.4490 -0.7275
 1459SOL     OW 5601   6.377   5.329   4.532  0.1845 -0.3537 -0.2699
 1459SOL    HW2 5602   6.437   5.348   4.604  0.7494 -0.2861 -0.7502
 1459SOL    HW3 5603   6.312   5.270   4.570 -0.1959  0.5921  0.5991
 1459SOL    MW4 5604   6.377   5.324   4.547  0.2088 -0.2200 -0.2186
 1460SOL     OW 5605   0.674   0.811   1.234  0.7274 -0.6619 -0.4186
 1460SOL    HW2 5606   0.602   0.778   1.181 -0.0160  1.0661 -0.5727
 1460SOL    HW3 5607   0.749   0.757   1.210  0.0240 -1.0089 -1.9755
 1460SOL    MW4 5608   0.674   0.800   1.224  0.5366 -0.4797 -0.6444
 1461SOL     OW 5609   5.557   2.929   4.377  0.0671 -0.2828 -0.5228
 1461SOL    HW2 5610   5.552   2.839   4.344 -2.1226 -0.1972 -0.6269
 1461SOL    HW3 5611   5.593   2.920   4.466  0.1596 -1.2294 -0.6397
 1461SOL    MW4 5612   5.561   2.916   4.385 -0.2096 -0.3964 -0.5520
 1462SOL     OW 5613   5.152   5.101   3.090  0.0078  0.4952  0.0773
 1462SOL    HW2 5614   5.223   5.036   3.088  0.4051  0.9166 -1.8733
 1462SOL    HW3 5615   5.087   5.067   3.028 -0.4663  1.2179  0.1651
 1462SOL    MW4 5616   5.153   5.088   3.082 -0.0024  0.6461 -0.1685
 1463SOL     OW 5617   4.520   2.071   6.089  0.1286 -0.5095 -0.3428
 1463SOL    HW2 5618   4.488   2.019   6.163  1.7403 -0.6948  0.2779
 1463SOL    HW3 5619   4.441   2.099   6.043 -0.8472 -2.1011  0.2738
 1463SOL    MW4 5620   4.506   2.068   6.093  0.2125 -0.7439 -0.1796
 1464SOL     OW 5621   6.258   2.736   1.790 -0.0516  0.6153  0.9062
 1464SOL    HW2 5622   6.319   2.755   1.719 -1.0632 -1.2763 -0.5497
 1464SOL    HW3 5623   6.291   2.654   1.828 -0.5336  0.6798  1.4762
 1464SOL    MW4 5624   6.271   2.728   1.786 -0.2487  0.3743  0.7893
 1465SOL     OW 5625   3.056   3.948   0.269  0.0169 -0.4756 -0.4295
 1465SOL    HW2 5626   2.963   3.967   0.272 -0.1077 -1.1567  0.4785
 1465SOL    HW3 5627   3.062   3.855   0.291  1.0785  0.1658  2.5523
 1465SOL    MW4 5628   3.045   3.938   0.272  0.1405 -0.4809  0.0837
 1466SOL     OW 5629   3.970   2.494   2.916  0.5006 -0.1800 -0.2255
 1466SOL    HW2 5630   3.984   2.570   2.972 -1.3815 -0.1748  0.2990
 1466SOL    HW3 5631   3.908   2.439   2.964  0.0794 -0.9494 -1.5813
 1466SOL    MW4 5632   3.964   2.497   2.930  0.1967 -0.2809 -0.3352
 1467SOL     OW 5633   2.605   4.620   1.092 -0.3653  0.2026  0.8045
 1467SOL    HW2 5634   2.667   4.610   1.164 -0.3970  0.7901  0.9161
 1467SOL    HW3 5635   2.659   4.642   1.016 -0.3920  0.2102  0.7876
 1467SOL    MW4 5636   2.620   4.622   1.091 -0.3730  0.2811  0.8170
 1468SOL     OW 5637   0.084   1.146   5.646  0.3273 -0.3150 -0.4977
 1468SOL    HW2 5638   0.089   1.157   5.551 -1.8674 -1.9250 -0.8873
 1468SOL    HW3 5639   0.016   1.080   5.659 -2.0275  2.3266  2.3387
 1468SOL    MW4 5640   0.075   1.139   5.635 -0.2729 -0.1789 -0.1749
 1469SOL     OW 5641   1.838   4.569   4.383 -0.1635  0.1790  0.4696
 1469SOL    HW2 5642   1.745   4.564   4.406 -0.9090 -0.3399 -2.2826
 1469SOL    HW3 5643   1.843   4.644   4.323  0.5685 -1.5813 -1.7692
 1469SOL    MW4 5644   1.826   4.579   4.378 -0.1653 -0.1217 -0.1889
 1470SOL     OW 5645   1.625   2.440   1.068  0.1187 -0.3136  0.2597
 1470SOL    HW2 5646   1.607   2.527   1.031 -0.4576 -1.0754 -1.3509
 1470SOL    HW3 5647   1.720   2.432   1.064  0.2825  0.6452  1.4573
 1470SOL    MW4 5648   1.635   2.451   1.062  0.0643 -0.2876  0.2052
 1471SOL     OW 5649   5.078   0.798   0.068  0.1498  0.0656  0.4059
 1471SOL    HW2 5650   5.008   0.859   0.046  0.2127  0.2878  0.8168
 1471SOL    HW3 5651   5.041   0.711   0.051 -0.0309  0.2051  0.0832
 1471SOL    MW4 5652   5.064   0.794   0.063  0.1342  0.1133  0.4176
 1472SOL     OW 5653   4.072   4.882   2.371  0.4951  0.2617 -0.1357
 1472SOL    HW2 5654   4.057   4.972   2.342 -1.0348  0.2063  0.4221
 1472SOL    HW3 5655   4.082   4.889   2.466  0.6222 -0.1355 -0.1182
 1472SOL    MW4 5656   4.072   4.895   2.379  0.3100  0.2020 -0.0598
 1473SOL     OW 5657   3.059   5.790   1.657 -0.2747  0.2053 -0.1343
 1473SOL    HW2 5658   3.082   5.880   1.681  0.1509  0.3569 -1.0641
 1473SOL    HW3 5659   2.964   5.787   1.665 -0.0991 -0.4653  3.9311
 1473SOL    MW4 5660   3.049   5.802   1.661 -0.1954  0.1369  0.2794
 1474SOL     OW 5661   4.196   1.180   5.491  0.0026 -0.2231  0.3480
 1474SOL    HW2 5662   4.168   1.250   5.432 -0.8858 -0.6158  0.2930
 1474SOL    HW3 5663   4.211   1.105   5.434  0.1200 -0.3223  0.5089
 1474SOL    MW4 5664   4.194   1.179   5.476 -0.0991 -0.2880  0.3620
 1475SOL     OW 5665   4.194   3.566   5.583 -0.4428 -0.6985 -0.3680
 1475SOL    HW2 5666   4.208   3.577   5.677 -0.5909  0.8241 -0.4987
 1475SOL    HW3 5667   4.255   3.497   5.558  0.8051  0.0253  0.5655
 1475SOL    MW4 5668   4.204   3.558   5.592 -0.2977 -0.4021 -0.2621
 1476SOL     OW 5669   5.674   5.674   0.475 -0.3285 -0.4603 -0.1841
 1476SOL    HW2 5670   5.591   5.682   0.428 -0.9992  0.4456  1.0938
 1476SOL    HW3 5671   5.657   5.712   0.561  0.6161 -2.7879  1.1119
 1476SOL    MW4 5672   5.661   5.680   0.480 -0.2924 -0.6479  0.1555
 1477SOL     OW 5673   1.428   5.682   4.205 -0.1238  0.3458  0.2692
 1477SOL    HW2 5674   1.465   5.634   4.280  0.0194  0.2915  0.1636
 1477SOL    HW3 5675   1.456   5.772   4.219  1.4964  0.0380 -0.6939
 1477SOL    MW4 5676   1.437   5.687   4.217  0.1089  0.2981  0.1282
 1478SOL     OW 5677   1.102   4.073   2.008  0.1357  0.1780  0.0075
 1478SOL    HW2 5678   1.183   4.061   2.058  0.5331  1.4307 -0.2778
 1478SOL    HW3 5679   1.130   4.120   1.929 -0.8436  0.4692 -0.1798
 1478SOL    MW4 5680   1.116   4.078   2.004  0.0589  0.3817 -0.0548
 1479SOL     OW 5681   2.347   0.492   2.819  0.3871  0.2291 -0.4575
 1479SOL    HW2 5682   2.278   0.428   2.838  2.4172 -1.2486  2.6195
 1479SOL    HW3 5683   2.385   0.461   2.737  1.1104 -2.4525  0.7793
 1479SOL    MW4 5684   2.343   0.479   2.811  0.7504 -0.3197  0.1117
 1480SOL     OW 5685   1.422   1.608   5.248 -0.3456 -0.0350  0.1037
 1480SOL    HW2 5686   1.327   1.604   5.257 -0.4486  1.0359 -0.3585
 1480SOL    HW3 5687   1.447   1.689   5.293  0.3572 -0.3238  0.2482
 1480SOL    MW4 5688   1.413   1.618   5.255 -0.2665  0.0682  0.0618
 1481SOL     OW 5689   5.877   4.675   1.624  0.1989 -0.0390  0.1957
 1481SOL    HW2 5690   5.873   4.582   1.605 -1.9045  0.4078 -1.9670
 1481SOL    HW3 5691   5.790   4.696   1.658 -0.0520  1.4627 -1.2593
 1481SOL    MW4 5692   5.865   4.666   1.626 -0.1117  0.2181 -0.2816
 1482SOL     OW 5693   0.251   5.767   4.612 -0.5761 -0.0265 -0.0449
 1482SOL    HW2 5694   0.234   5.765   4.518 -0.7253 -0.0217 -0.0186
 1482SOL    HW3 5695   0.293   5.683   4.631 -2.5722 -0.9983  0.2664
 1482SOL    MW4 5696   0.254   5.756   4.602 -0.8592 -0.1541 -0.0003
 1483SOL     OW 5697   5.218   1.473   1.776  0.0005  0.3468  0.4419
 1483SOL    HW2 5698   5.137   1.467   1.827 -0.2754  1.1196  0.1119
 1483SOL    HW3 5699   5.219   1.393   1.724  0.4696 -0.6362  1.8977
 1483SOL    MW4 5700   5.207   1.461   1.776  0.0260  0.3190  0.5904
 1484SOL     OW 5701   0.169   2.713   6.065 -0.6576 -0.0718 -0.0082
 1484SOL    HW2 5702   0.229   2.638   6.062 -0.2884  0.1749  0.9543
 1484SOL    HW3 5703   0.129   2.715   5.978 -1.1444 -1.7595  0.1371
 1484SOL    MW4 5704   0.172   2.703   6.053 -0.6731 -0.2619  0.1379
 1485SOL     OW 5705   5.473   4.546   4.455 -0.1250  0.1923 -0.3039
 1485SOL    HW2 5706   5.534   4.619   4.448 -0.4769  0.6112  0.7733
 1485SOL    HW3 5707   5.440   4.533   4.366  1.6252 -0.1414 -0.9434
 1485SOL    MW4 5708   5.476   4.554   4.442  0.0595  0.2036 -0.2461
 1486SOL     OW 5709   2.427   4.197   1.290  0.1412 -0.1691 -0.3315
 1486SOL    HW2 5710   2.430   4.107   1.260 -0.4214 -0.0164 -0.8513
 1486SOL    HW3 5711   2.335   4.214   1.309  0.3357  0.0836  0.4291
 1486SOL    MW4 5712   2.416   4.188   1.288  0.0926 -0.1156 -0.2997
 1487SOL     OW 5713   5.806   1.108   4.411  0.7616 -0.5655 -0.0465
 1487SOL    HW2 5714   5.760   1.159   4.478 -1.2922  0.5353 -2.1201
 1487SOL    HW3 5715   5.738   1.051   4.375  1.5450 -0.4752 -1.7514
 1487SOL    MW4 5716   5.791   1.107   4.415  0.5940 -0.4084 -0.5450
 1488SOL     OW 5717   3.863   4.985   0.424  0.0783  0.5190  0.2195
 1488SOL    HW2 5718   3.889   4.900   0.460 -0.6144 -0.1999 -0.9134
 1488SOL    HW3 5719   3.925   5.047   0.462  2.7332 -0.9525 -1.4547
 1488SOL    MW4 5720   3.875   4.982   0.434  0.3372  0.2300 -0.1508
 1489SOL     OW 5721   6.341   5.999   6.386  0.1095 -0.0251 -0.3994
 1489SOL    HW2 5722   6.387   5.958   6.459 -0.9252 -0.4562  0.0385
 1489SOL    HW3 5723   6.358   6.093   6.396  0.4636 -0.1356  0.0500
 1489SOL    MW4 5724   6.349   6.006   6.397  0.0197 -0.0965 -0.2823
 1490SOL     OW 5725   2.371   4.000   1.623  0.3588 -0.1585  0.2881
 1490SOL    HW2 5726   2.343   3.949   1.698 -0.0070 -0.2268  0.1076
 1490SOL    HW3 5727   2.302   4.066   1.611  0.4773 -0.0683  0.0913
 1490SOL    MW4 5728   2.358   4.002   1.631  0.3261 -0.1556  0.2383
 1491SOL     OW 5729   1.881   4.300   4.327  0.0586  0.5503  0.4165
 1491SOL    HW2 5730   1.892   4.391   4.355  0.1886  0.3559  1.0172
 1491SOL    HW3 5731   1.962   4.281   4.279 -0.0217  0.7867  0.1814
 1491SOL    MW4 5732   1.893   4.310   4.324  0.0652  0.5558  0.4647
 1492SOL     OW 5733   0.428   1.906   2.432  0.7201 -0.0512  0.6680
 1492SOL    HW2 5734   0.333   1.894   2.428  0.4299  2.0733 -0.6488
 1492SOL    HW3 5735   0.462   1.850   2.362 -0.0744  2.3100 -1.8331
 1492SOL    MW4 5736   0.420   1.897   2.422  0.5770  0.5406  0.1643
 1493SOL     OW 5737   0.615   0.454   4.414 -0.1373  0.3709 -0.3626
 1493SOL    HW2 5738   0.648   0.466   4.325  1.0041  0.0987  0.0073
 1493SOL    HW3 5739   0.586   0.541   4.440  0.3925  0.6431 -0.6646
 1493SOL    MW4 5740   0.615   0.467   4.405  0.0832  0.3709 -0.3536
 1494SOL     OW 5741   6.299   3.457   5.734  0.3039  0.2347  0.3020
 1494SOL    HW2 5742   6.286   3.382   5.676  0.1770  0.7800 -0.3782
 1494SOL    HW3 5743   6.391   3.481   5.721  0.6969 -0.5328  1.4201
 1494SOL    MW4 5744   6.310   3.450   5.725  0.3390  0.2054  0.3598
 1495SOL     OW 5745   5.917   2.099   3.851  0.7952  0.0672  0.1494
 1495SOL    HW2 5746   5.868   2.170   3.810  0.5888  0.9577  1.8348
 1495SOL    HW3 5747   5.877   2.089   3.937  1.3056 -1.6142  0.2274
 1495SOL    MW4 5748   5.905   2.107   3.857  0.8353 -0.0371  0.3820
 1496SOL     OW 5749   3.845   1.986   6.184  0.7546 -0.3753  0.3949
 1496SOL    HW2 5750   3.754   1.969   6.211  0.0326  0.4442 -1.3365
 1496SOL    HW3 5751   3.857   1.931   6.106  1.3454  0.3557 -0.0415
 1496SOL    MW4 5752   3.834   1.977   6.177  0.7373 -0.1707  0.1089
 1497SOL     OW 5753   5.826   1.566   4.886  0.5829 -0.2062 -0.4122
 1497SOL    HW2 5754   5.914   1.577   4.922  0.8354 -0.4549 -0.9423
 1497SOL    HW3 5755   5.768   1.595   4.956  1.1193  1.1827 -0.4943
 1497SOL    MW4 5756   5.830   1.571   4.900  0.6870 -0.0558 -0.4929
 1498SOL     OW 5757   4.531   3.686   2.619  0.0358 -0.5536 -0.0191
 1498SOL    HW2 5758   4.625   3.680   2.637 -0.2728 -0.5132  1.8322
 1498SOL    HW3 5759   4.518   3.632   2.541  1.4522 -1.3654  0.2688
 1498SOL    MW4 5760   4.541   3.678   2.611  0.1820 -0.6554  0.2632
 1499SOL     OW 5761   5.142   1.631   4.222 -0.3712  0.3078 -0.2662
 1499SOL    HW2 5762   5.083   1.623   4.147  2.4320 -0.5331 -2.5847
 1499SOL    HW3 5763   5.113   1.563   4.282 -1.4981 -0.3767 -1.5188
 1499SOL    MW4 5764   5.130   1.621   4.220 -0.1500  0.1065 -0.7373
 1500SOL     OW 5765   2.642   4.669   2.275 -0.7071  0.2365 -0.4643
 1500SOL    HW2 5766   2.576   4.723   2.317  0.8392  1.2122  0.7930
 1500SOL    HW3 5767   2.607   4.580   2.281 -0.2035  0.1176  3.8817
 1500SOL    MW4 5768   2.629   4.664   2.281 -0.4366  0.3496  0.2750
 1501SOL     OW 5769   3.809   1.068   5.223 -0.2168 -0.2785  0.3745
 1501SOL    HW2 5770   3.746   1.010   5.264 -1.8471  0.8536 -0.4099
 1501SOL    HW3 5771   3.756   1.131   5.175  1.5536 -0.7680 -2.4403
 1501SOL    MW4 5772   3.794   1.069   5.222 -0.1983 -0.1937 -0.1003
 1502SOL     OW 5773   3.924   0.619   5.125 -0.8100  0.2978  0.3431
 1502SOL    HW2 5774   3.842   0.581   5.157 -1.6418  1.5139 -0.2543
 1502SOL    HW3 5775   3.902   0.651   5.037  0.4527  0.1975 -0.0203
 1502SOL    MW4 5776   3.910   0.618   5.117 -0.7531  0.4450  0.2163
 1503SOL     OW 5777   0.285   2.826   5.629  0.1844 -0.3034 -0.4330
 1503SOL    HW2 5778   0.314   2.806   5.540 -1.2488 -0.4535 -0.8969
 1503SOL    HW3 5779   0.226   2.901   5.619  0.4682  0.0481  0.4649
 1503SOL    MW4 5780   0.281   2.833   5.616  0.0328 -0.2768 -0.3757
 1504SOL     OW 5781   3.157   3.969   3.234  0.5133  0.1347  0.0863
 1504SOL    HW2 5782   3.160   3.903   3.165  0.0439  0.7763 -0.5753
 1504SOL    HW3 5783   3.225   4.032   3.209  1.3830 -0.4146  1.0506
 1504SOL    MW4 5784   3.166   3.969   3.221  0.5661  0.1469  0.1263
 1505SOL     OW 5785   2.526   5.211   0.962 -0.2371  0.5938  0.0014
 1505SOL    HW2 5786   2.586   5.284   0.977 -0.5361  0.7554  0.4185
 1505SOL    HW3 5787   2.522   5.166   1.047 -0.3611  0.3224 -0.1465
 1505SOL    MW4 5788   2.534   5.215   0.976 -0.2929  0.5793  0.0369
 1506SOL     OW 5789   5.001   3.797   3.655  0.1982 -0.0548 -0.3402
 1506SOL    HW2 5790   4.981   3.708   3.685 -0.3484  0.5421  1.1228
 1506SOL    HW3 5791   4.938   3.812   3.584  1.1481 -1.2716 -1.5252
 1506SOL    MW4 5792   4.990   3.787   3.649  0.2514 -0.1366 -0.3035
 1507SOL     OW 5793   1.314   5.767   0.841 -0.0196  0.0371 -0.1270
 1507SOL    HW2 5794   1.294   5.848   0.889  0.6404  0.3125 -0.3062
 1507SOL    HW3 5795   1.273   5.698   0.893 -0.8263  0.5103 -0.1152
 1507SOL    MW4 5796   1.306   5.769   0.854 -0.0390  0.1359 -0.1491
 1508SOL     OW 5797   0.981   4.838   6.146  0.1497  0.3461 -0.2731
 1508SOL    HW2 5798   1.049   4.845   6.078  1.0947 -2.3403  0.2372
 1508SOL    HW3 5799   1.021   4.782   6.213 -1.8772  0.3549  1.0113
 1508SOL    MW4 5800   0.995   4.831   6.146  0.0070 -0.0071 -0.0363
 1509SOL     OW 5801   5.401   4.512   4.191 -0.7020  0.0353  0.7228
 1509SOL    HW2 5802   5.471   4.463   4.147 -0.6999 -0.2981  1.0957
 1509SOL    HW3 5803   5.328   4.450   4.196 -0.5206 -0.1095  1.6786
 1509SOL    MW4 5804   5.400   4.498   4.186 -0.6778 -0.0278  0.8981
 1510SOL     OW 5805   4.620   2.232   0.075 -0.1352 -0.4154 -0.6136
 1510SOL    HW2 5806   4.677   2.264   0.005  1.7736 -3.1505 -0.4669
 1510SOL    HW3 5807   4.592   2.146   0.045 -1.2773 -0.6390  0.9586
 1510SOL    MW4 5808   4.624   2.225   0.062 -0.0341 -0.8058 -0.3868
 1511SOL     OW 5809   4.971   2.170   1.858 -0.1452  0.0916 -0.4784
 1511SOL    HW2 5810   5.062   2.163   1.888 -0.7254 -1.3195  1.1496
 1511SOL    HW3 5811   4.960   2.095   1.798 -0.4554 -0.2739  0.0250
 1511SOL    MW4 5812   4.982   2.159   1.854 -0.2627 -0.1428 -0.1972
 1512SOL     OW 5813   0.920   1.379   3.130 -0.2940  0.3471 -0.5900
 1512SOL    HW2 5814   0.912   1.417   3.217  0.4153  1.0105 -0.8040
 1512SOL    HW3 5815   0.910   1.453   3.070 -1.7131 -0.2427 -1.1138
 1512SOL    MW4 5816   0.918   1.394   3.133 -0.3877  0.3568 -0.6874
 1513SOL     OW 5817   1.238   4.167   4.953 -0.8396  0.1190  0.1759
 1513SOL    HW2 5818   1.269   4.125   4.873  0.8526 -1.1134  1.4022
 1513SOL    HW3 5819   1.282   4.252   4.954 -0.6361  0.0169 -0.0553
 1513SOL    MW4 5820   1.248   4.173   4.943 -0.5895 -0.0571  0.3072
 1514SOL     OW 5821   0.713   5.247   3.629 -0.0483 -0.0722 -1.0739
 1514SOL    HW2 5822   0.684   5.183   3.564 -0.2771  1.7329 -2.8409
 1514SOL    HW3 5823   0.742   5.322   3.578  2.0849  0.5353  0.8534
 1514SOL    MW4 5824   0.713   5.248   3.614  0.2029  0.2461 -1.0528
 1515SOL     OW 5825   0.194   1.863   1.816  0.1674 -0.2973 -1.3234
 1515SOL    HW2 5826   0.194   1.928   1.745  1.8961 -1.5441 -2.5395
 1515SOL    HW3 5827   0.275   1.879   1.863 -0.0846 -0.6635 -0.7618
 1515SOL    MW4 5828   0.205   1.874   1.813  0.3622 -0.5101 -1.4098
 1516SOL     OW 5829   6.418   3.362   4.713 -0.1836 -0.2736 -0.3281
 1516SOL    HW2 5830   6.439   3.376   4.806  0.8131 -0.5472 -0.4962
 1516SOL    HW3 5831   6.401   3.450   4.679 -1.4590 -0.2539  0.3017
 1516SOL    MW4 5832   6.419   3.376   4.721 -0.2203 -0.3071 -0.2672
 1517SOL     OW 5833   3.855   1.766   6.017  0.1183 -0.0587 -0.0397
 1517SOL    HW2 5834   3.849   1.715   6.098 -0.3974  0.5376  0.3092
 1517SOL    HW3 5835   3.765   1.775   5.987 -0.0091  1.9655  0.7631
 1517SOL    MW4 5836   3.842   1.761   6.024  0.0334  0.2871  0.1123
 1518SOL     OW 5837   2.384   5.943   2.491 -0.4439  0.1667  0.4108
 1518SOL    HW2 5838   2.476   5.924   2.508 -0.8067 -0.7597  1.3899
 1518SOL    HW3 5839   2.335   5.883   2.547 -1.6712 -0.3147 -1.1093
 1518SOL    MW4 5840   2.389   5.933   2.500 -0.6537 -0.0191  0.3394
 1519SOL     OW 5841   0.445   1.178   5.290 -0.0371  0.2163 -0.1608
 1519SOL    HW2 5842   0.364   1.198   5.337 -0.5743 -2.1691  0.0386
 1519SOL    HW3 5843   0.509   1.240   5.325 -1.5045  1.4821  0.4049
 1519SOL    MW4 5844   0.443   1.189   5.301 -0.3016  0.0686 -0.0598
 1520SOL     OW 5845   6.323   5.354   5.253  0.6230 -0.1535 -0.1187
 1520SOL    HW2 5846   6.281   5.304   5.182  1.9274  0.0790 -1.0996
 1520SOL    HW3 5847   6.326   5.293   5.327 -2.1225  0.0711  0.2856
 1520SOL    MW4 5848   6.318   5.339   5.253  0.4329 -0.0932 -0.1948
 1521SOL     OW 5849   4.250   3.820   0.763 -0.4461  0.5633 -0.3300
 1521SOL    HW2 5850   4.225   3.728   0.753 -0.0218  0.3996  0.0696
 1521SOL    HW3 5851   4.245   3.856   0.675  0.0809 -0.0222 -0.6033
 1521SOL    MW4 5852   4.246   3.813   0.750 -0.3206  0.4645 -0.3134
 1522SOL     OW 5853   1.281   0.491   5.781  0.2920  0.7717 -0.2097
 1522SOL    HW2 5854   1.192   0.480   5.814  0.4235  1.0161  0.2275
 1522SOL    HW3 5855   1.269   0.505   5.687  0.0206 -1.7786 -0.6436
 1522SOL    MW4 5856   1.267   0.491   5.773  0.2735  0.4675 -0.2093
 1523SOL     OW 5857   3.934   0.235   6.367 -0.1104 -0.0131 -0.1787
 1523SOL    HW2 5858   3.880   0.313   6.381  0.4312  0.2360  0.6530
 1523SOL    HW3 5859   3.935   0.223   6.272 -2.7533 -0.8634 -0.1871
 1523SOL    MW4 5860   3.927   0.244   6.356 -0.3876 -0.0925 -0.0701
 1524SOL     OW 5861   5.048   3.937   2.648 -0.6210 -0.1220  0.4804
 1524SOL    HW2 5862   5.016   3.931   2.558  0.2507 -0.1746  0.1614
 1524SOL    HW3 5863   5.035   4.028   2.673 -1.4847 -0.2578  0.5446
 1524SOL    MW4 5864   5.042   3.948   2.639 -0.6199 -0.1469  0.4468
 1525SOL     OW 5865   3.613   0.168   3.570  0.1811  0.0613 -0.2235
 1525SOL    HW2 5866   3.577   0.082   3.589  0.2983  0.3982  1.7029
 1525SOL    HW3 5867   3.575   0.191   3.485 -1.7229 -0.8948  0.2997
 1525SOL    MW4 5868   3.603   0.160   3.561 -0.0546 -0.0204  0.0997
 1526SOL     OW 5869   5.355   2.800   6.161  0.3643  1.2278 -1.3546
 1526SOL    HW2 5870   5.360   2.845   6.245  0.0604 -0.2853 -0.4879
 1526SOL    HW3 5871   5.267   2.821   6.127 -0.3390  0.1490 -0.2679
 1526SOL    MW4 5872   5.344   2.809   6.167  0.2314  0.8858 -1.0969
 1527SOL     OW 5873   0.548   3.632   4.748  0.0248  0.1791  0.0702
 1527SOL    HW2 5874   0.496   3.710   4.727  0.5808  0.3471 -0.7701
 1527SOL    HW3 5875   0.486   3.559   4.743  0.0430  0.2485 -1.9594
 1527SOL    MW4 5876   0.533   3.633   4.744  0.1006  0.2104 -0.3085
 1528SOL     OW 5877   5.617   3.246   2.103 -0.7284  0.1824 -0.0895
 1528SOL    HW2 5878   5.610   3.234   2.009 -0.7807 -0.0491 -0.0569
 1528SOL    HW3 5879   5.637   3.340   2.114 -0.4094  0.1484 -0.3424
 1528SOL    MW4 5880   5.619   3.257   2.092 -0.6932  0.1474 -0.1185
 1529SOL     OW 5881   4.454   2.900   2.635  0.0899 -0.3641 -0.4427
 1529SOL    HW2 5882   4.500   2.969   2.587 -0.8609 -0.1475 -1.0518
 1529SOL    HW3 5883   4.521   2.832   2.648  1.2687  0.9626  0.8636
 1529SOL    MW4 5884   4.469   2.900   2.631  0.1200 -0.1605 -0.3507
 1530SOL     OW 5885   2.606   3.670   6.111 -0.1698  0.8042  0.9792
 1530SOL    HW2 5886   2.684   3.719   6.086 -0.0006 -0.0650 -0.3186
 1530SOL    HW3 5887   2.535   3.734   6.109  0.1577  1.1533 -0.0142
 1530SOL    MW4 5888   2.607   3.685   6.108 -0.1043  0.7356  0.6769
 1531SOL     OW 5889   2.737   2.136   5.020 -0.7389  0.8080 -0.2155
 1531SOL    HW2 5890   2.754   2.128   5.114 -1.6052  0.8311 -0.0500
 1531SOL    HW3 5891   2.779   2.059   4.982 -1.4862  0.1049  0.3503
 1531SOL    MW4 5892   2.745   2.125   5.027 -0.9518  0.7183 -0.1190
 1532SOL     OW 5893   1.479   3.373   4.289  0.1355 -0.0894  0.4086
 1532SOL    HW2 5894   1.436   3.334   4.364  0.3600 -0.4574  0.3494
 1532SOL    HW3 5895   1.416   3.366   4.217 -0.0046  0.0880  0.5144
 1532SOL    MW4 5896   1.465   3.367   4.289  0.1466 -0.1146  0.4148
 1533SOL     OW 5897   1.027   0.812   5.668 -0.5070 -0.3926 -0.5805
 1533SOL    HW2 5898   1.103   0.835   5.720  0.0450  0.7717 -1.8497
 1533SOL    HW3 5899   0.954   0.810   5.731  0.8572 -4.0447  1.1797
 1533SOL    MW4 5900   1.027   0.815   5.683 -0.2541 -0.7209 -0.5157
 1534SOL     OW 5901   1.164   0.247   5.410 -0.8637 -0.2406  0.4220
 1534SOL    HW2 5902   1.166   0.337   5.444 -0.8899 -0.0828  0.0086
 1534SOL    HW3 5903   1.255   0.217   5.417 -1.1291 -0.7770  2.1154
 1534SOL    MW4 5904   1.176   0.255   5.416 -0.9021 -0.2906  0.5909
 1535SOL     OW 5905   2.751   2.108   5.299  0.0142 -0.1796 -0.4855
 1535SOL    HW2 5906   2.800   2.026   5.297 -0.8942 -0.8476  1.5754
 1535SOL    HW3 5907   2.818   2.176   5.306  0.7623 -0.7314 -1.9606
 1535SOL    MW4 5908   2.766   2.106   5.300 -0.0069 -0.3405 -0.4082
 1536SOL     OW 5909   0.355   5.130   1.982  0.4125 -0.2630 -0.3731
 1536SOL    HW2 5910   0.398   5.213   1.999  0.2285 -0.1025 -0.6762
 1536SOL    HW3 5911   0.318   5.140   1.894 -0.6007 -0.2519  0.0521
 1536SOL    MW4 5912   0.356   5.142   1.972  0.2545 -0.2403 -0.3570
 1537SOL     OW 5913   1.184   3.360   5.587  0.1500 -0.6695 -0.0562
 1537SOL    HW2 5914   1.162   3.310   5.509 -0.6067 -0.6961  0.1639
 1537SOL    HW3 5915   1.213   3.295   5.651  1.6032 -0.5649 -0.5781
 1537SOL    MW4 5916   1.185   3.345   5.585  0.2419 -0.6592 -0.0960
 1538SOL     OW 5917   1.938   5.053   0.799  0.0792 -0.2605 -0.1770
 1538SOL    HW2 5918   2.022   5.050   0.754  0.4035 -1.1892  0.4464
 1538SOL    HW3 5919   1.960   5.051   0.892 -0.5759  1.7046  0.0596
 1538SOL    MW4 5920   1.952   5.052   0.806  0.0356 -0.1237 -0.0635
 1539SOL     OW 5921   3.279   3.226   1.133 -0.1776  0.0785 -0.1176
 1539SOL    HW2 5922   3.331   3.246   1.210  0.4173 -1.3067 -0.1163
 1539SOL    HW3 5923   3.319   3.146   1.097 -1.0246  0.1499 -1.3098
 1539SOL    MW4 5924   3.291   3.218   1.138 -0.2108 -0.0948 -0.2747
 1540SOL     OW 5925   5.227   2.208   6.371 -0.8840 -0.4717 -0.0164
 1540SOL    HW2 5926   5.229   2.273   6.441 -3.1601  2.6231 -2.5445
 1540SOL    HW3 5927   5.301   2.231   6.315 -1.4689 -0.3075 -0.7275
 1540SOL    MW4 5928   5.237   2.219   6.373 -1.2615 -0.0417 -0.4438
 1541SOL     OW 5929   5.037   4.456   3.167  0.2440 -0.0612  0.5525
 1541SOL    HW2 5930   5.045   4.406   3.087 -0.6541 -0.1734  0.5217
 1541SOL    HW3 5931   4.977   4.528   3.145  0.1485  0.0232  1.0587
 1541SOL    MW4 5932   5.030   4.459   3.154  0.1129 -0.0649  0.6152
 1542SOL     OW 5933   2.054   1.251   0.389  0.2575  0.2253 -0.1038
 1542SOL    HW2 5934   2.029   1.193   0.461  1.3775 -1.1314 -0.7580
 1542SOL    HW3 5935   1.973   1.296   0.365 -1.6257 -3.5601 -1.7900
 1542SOL    MW4 5936   2.040   1.249   0.395  0.1568 -0.4531 -0.4126
 1543SOL     OW 5937   4.188   1.892   3.831 -0.1229 -0.0518  0.3693
 1543SOL    HW2 5938   4.116   1.925   3.885 -1.0209 -1.2408 -0.0635
 1543SOL    HW3 5939   4.196   1.954   3.760 -1.1755 -0.2492  0.0652
 1543SOL    MW4 5940   4.180   1.904   3.829 -0.3802 -0.2347  0.2721
 1544SOL     OW 5941   5.365   5.590   1.278 -0.0864  0.2368 -0.1112
 1544SOL    HW2 5942   5.402   5.545   1.353 -0.0607 -0.5296 -0.5760
 1544SOL    HW3 5943   5.412   5.554   1.202 -0.3942  0.7004 -0.5331
 1544SOL    MW4 5944   5.376   5.580   1.278 -0.1236  0.1968 -0.2282
 1545SOL     OW 5945   5.328   3.235   4.905 -0.2354 -0.3039 -0.6339
 1545SOL    HW2 5946   5.293   3.176   4.838  0.4650 -1.7278  0.1985
 1545SOL    HW3 5947   5.395   3.183   4.950 -0.7435  0.5603  1.2427
 1545SOL    MW4 5948   5.332   3.220   4.902 -0.2100 -0.3777 -0.2765
 1546SOL     OW 5949   1.483   2.446   3.444  0.2309  1.1060  0.2590
 1546SOL    HW2 5950   1.487   2.354   3.418  0.0353  1.4570 -1.0521
 1546SOL    HW3 5951   1.572   2.479   3.432  0.1999  1.2049  0.2982
 1546SOL    MW4 5952   1.495   2.438   3.439  0.2010  1.1653  0.0912
 1547SOL     OW 5953   1.963   3.883   5.518 -0.9309  0.3097 -0.3158
 1547SOL    HW2 5954   2.021   3.953   5.488 -0.3806  1.3593  2.8336
 1547SOL    HW3 5955   2.009   3.802   5.496  0.4393  1.0724 -0.3358
 1547SOL    MW4 5956   1.976   3.881   5.511 -0.6775  0.5488  0.0971
 1548SOL     OW 5957   4.313   0.564   6.067  0.9525 -0.7537 -0.2145
 1548SOL    HW2 5958   4.264   0.545   5.988  0.8685 -1.0179 -0.0985
 1548SOL    HW3 5959   4.266   0.637   6.108  1.6152  0.1221 -0.9672
 1548SOL    MW4 5960   4.301   0.571   6.062  1.0289 -0.6730 -0.2985
 1549SOL     OW 5961   4.686   2.336   2.193  0.4878 -0.1274 -0.6525
 1549SOL    HW2 5962   4.621   2.299   2.253 -0.4923  1.1053 -0.9255
 1549SOL    HW3 5963   4.745   2.263   2.175  0.3639 -0.7534  1.1833
 1549SOL    MW4 5964   4.685   2.322   2.199  0.3422 -0.0474 -0.4463
 1550SOL     OW 5965   3.933   0.408   1.971 -0.6790 -0.0956 -0.1837
 1550SOL    HW2 5966   3.995   0.379   1.904  0.7775  1.8618  0.2291
 1550SOL    HW3 5967   3.909   0.497   1.944  1.2262  1.4126  2.6790
 1550SOL    MW4 5968   3.938   0.416   1.959 -0.2354  0.3617  0.2485
 1551SOL     OW 5969   1.055   3.884   0.483  0.3473  0.1184  0.3551
 1551SOL    HW2 5970   1.011   3.869   0.399 -0.5604  0.6330  0.7219
 1551SOL    HW3 5971   0.988   3.925   0.538  1.1923  0.6052  1.0481
 1551SOL    MW4 5972   1.041   3.887   0.479  0.3390  0.2505  0.4949
 1552SOL     OW 5973   2.635   0.575   4.673 -0.1040 -0.0294  0.4308
 1552SOL    HW2 5974   2.646   0.622   4.591 -1.8456  0.4890  0.4475
 1552SOL    HW3 5975   2.543   0.587   4.695  0.5530  0.8912  3.0921
 1552SOL    MW4 5976   2.624   0.583   4.665 -0.2471  0.1604  0.7841
 1553SOL     OW 5977   3.561   4.745   1.931  0.0884  0.2630  0.3073
 1553SOL    HW2 5978   3.540   4.768   1.841  0.5773  1.1722  0.4198
 1553SOL    HW3 5979   3.483   4.771   1.981  0.4075  1.1679  0.3507
 1553SOL    MW4 5980   3.548   4.752   1.926  0.1950  0.5023  0.3279
 1554SOL     OW 5981   3.386   5.488   5.229  0.1885  0.2517  0.1034
 1554SOL    HW2 5982   3.326   5.435   5.281 -2.2550  0.8904 -1.8737
 1554SOL    HW3 5983   3.467   5.488   5.280 -1.8169  0.4872  3.6672
 1554SOL    MW4 5984   3.389   5.481   5.243 -0.3985  0.3670  0.3127
 1555SOL     OW 5985   0.653   2.625   4.338 -0.2720  0.5723 -0.1098
 1555SOL    HW2 5986   0.681   2.537   4.363 -1.1121  0.2982 -0.1265
 1555SOL    HW3 5987   0.562   2.631   4.365 -0.2487  1.4145 -0.1783
 1555SOL    MW4 5988   0.645   2.614   4.345 -0.3797  0.6472 -0.1211
 1556SOL     OW 5989   3.385   3.792   0.859  0.0911  0.6223 -0.1632
 1556SOL    HW2 5990   3.345   3.726   0.917 -0.1004 -0.6683 -1.6959
 1556SOL    HW3 5991   3.386   3.751   0.773 -0.7214  2.9522 -1.3609
 1556SOL    MW4 5992   3.380   3.778   0.856 -0.0413  0.7595 -0.5234
 1557SOL     OW 5993   5.699   3.549   3.293 -0.0548  1.0739  0.2187
 1557SOL    HW2 5994   5.741   3.635   3.283  0.0947  0.9765  0.0056
 1557SOL    HW3 5995   5.644   3.540   3.215  0.5757  0.6147 -0.1802
 1557SOL    MW4 5996   5.697   3.559   3.282  0.0481  1.0005  0.1380
 1558SOL     OW 5997   5.428   3.798   3.600 -0.0371  0.1800  0.2384
 1558SOL    HW2 5998   5.375   3.723   3.574 -1.2983  0.9998  0.3750
 1558SOL    HW3 5999   5.367   3.871   3.604  0.8744  0.9277  1.5312
 1558SOL    MW4 6000   5.413   3.798   3.597 -0.0832  0.3868  0.4270
 1559SOL     OW 6001   1.113   0.461   0.854  0.2894  0.0885 -0.6259
 1559SOL    HW2 6002   1.047   0.403   0.891 -0.0748  0.8200 -0.1048
 1559SOL    HW3 6003   1.190   0.405   0.841 -0.0072 -0.4730  0.0015
 1559SOL    MW4 6004   1.114   0.446   0.857  0.2022  0.1109 -0.4744
 1560SOL     OW 6005   1.319   6.412   5.216  0.4862  0.4913 -0.6700
 1560SOL    HW2 6006   1.353   6.476   5.154 -1.2100 -0.1425 -2.3752
 1560SOL    HW3 6007   1.330   6.328   5.171 -0.9534  0.0331 -0.2119
 1560SOL    MW4 6008   1.325   6.409   5.202  0.0725  0.3473 -0.8346
 1561SOL     OW 6009   2.763   3.419   2.660  0.4370  0.2203  0.5486
 1561SOL    HW2 6010   2.754   3.377   2.575 -0.6607  0.5967  0.4640
 1561SOL    HW3 6011   2.736   3.353   2.723 -1.0068  0.6747  0.4350
 1561SOL    MW4 6012   2.758   3.405   2.657  0.1017  0.3299  0.5224
 1562SOL     OW 6013   4.414   2.647   0.250 -0.3940  0.1252  0.0787
 1562SOL    HW2 6014   4.442   2.628   0.340 -1.4072 -1.3819  0.0965
 1562SOL    HW3 6015   4.329   2.690   0.259 -0.3601  0.2433 -0.1482
 1562SOL    MW4 6016   4.407   2.650   0.263 -0.5232 -0.0580  0.0511
 1563SOL     OW 6017   1.761   2.343   0.049  0.6087  0.1165 -0.4366
 1563SOL    HW2 6018   1.775   2.373   0.139 -0.1961 -0.9679  0.0665
 1563SOL    HW3 6019   1.840   2.293   0.028  1.3829  1.4196 -0.8314
 1563SOL    MW4 6020   1.774   2.341   0.058  0.6047  0.1454 -0.4223
 1564SOL     OW 6021   0.052   0.929   4.000 -0.4521 -0.3208 -0.1333
 1564SOL    HW2 6022   0.088   0.901   4.084  1.4999 -0.4943 -0.9759
 1564SOL    HW3 6023   0.056   0.850   3.945  1.1498  0.4667 -1.2564
 1564SOL    MW4 6024   0.057   0.915   4.004  0.0168 -0.2398 -0.3926
 1565SOL     OW 6025   1.702   0.566   3.682  0.5224  0.1274  0.3378
 1565SOL    HW2 6026   1.616   0.599   3.706  0.0853 -0.6028 -0.1737
 1565SOL    HW3 6027   1.760   0.597   3.752 -0.3464 -0.2572  1.2547
 1565SOL    MW4 6028   1.699   0.574   3.694  0.3501 -0.0197  0.3913
 1566SOL     OW 6029   3.694   3.506   1.236  0.4557  0.0505  0.0668
 1566SOL    HW2 6030   3.724   3.592   1.266 -2.1012  1.0892 -0.1116
 1566SOL    HW3 6031   3.671   3.460   1.317 -2.2469  1.2216  0.0825
 1566SOL    MW4 6032   3.695   3.512   1.251 -0.2382  0.3420  0.0453
 1567SOL     OW 6033   4.832   4.963   5.836  0.0542  0.5925  0.1318
 1567SOL    HW2 6034   4.829   4.905   5.912 -3.4774  0.0622 -0.2322
 1567SOL    HW3 6035   4.761   5.025   5.851  1.1648  2.3236 -1.4028
 1567SOL    MW4 6036   4.822   4.963   5.848 -0.2653  0.7509 -0.1187
 1568SOL     OW 6037   4.621   4.960   6.259  0.1442  0.1346  0.2495
 1568SOL    HW2 6038   4.621   5.054   6.274 -0.8517 -0.0148  1.3421
 1568SOL    HW3 6039   4.637   4.922   6.346 -0.7379 -0.7194  0.0585
 1568SOL    MW4 6040   4.623   4.967   6.273 -0.1036  0.0022  0.3684
 1569SOL     OW 6041   0.205   3.208   4.563 -0.6898 -0.1657  0.5196
 1569SOL    HW2 6042   0.204   3.125   4.610 -1.0700  0.6342  1.9515
 1569SOL    HW3 6043   0.133   3.259   4.600 -0.1523  1.0048  0.0167
 1569SOL    MW4 6044   0.196   3.204   4.574 -0.6690  0.0943  0.6422
 1570SOL     OW 6045   2.894   3.927   5.148 -0.5295  0.8588 -0.3404
 1570SOL    HW2 6046   2.989   3.934   5.140 -0.7112  3.4803 -1.0107
 1570SOL    HW3 6047   2.880   3.840   5.185  2.1557  0.7100  0.5618
 1570SOL    MW4 6048   2.905   3.916   5.152 -0.1992  1.1851 -0.3098
 1571SOL     OW 6049   1.802   0.901   3.627  0.2515  0.3885  0.3142
 1571SOL    HW2 6050   1.766   0.847   3.557 -1.0781  1.8684 -0.2048
 1571SOL    HW3 6051   1.778   0.856   3.707  0.4600 -0.5342 -0.1260
 1571SOL    MW4 6052   1.794   0.888   3.628  0.1036  0.4620  0.1877
 1572SOL     OW 6053   0.761   5.507   3.936 -0.4707 -0.1769  0.2520
 1572SOL    HW2 6054   0.697   5.573   3.961  0.2002  0.5949 -0.0254
 1572SOL    HW3 6055   0.846   5.547   3.955 -0.0612 -1.5611  1.5790
 1572SOL    MW4 6056   0.764   5.521   3.942 -0.3282 -0.2577  0.3905
 1573SOL     OW 6057   5.615   2.325   5.097  0.3654 -0.0586 -0.9443
 1573SOL    HW2 6058   5.694   2.273   5.112  0.6878  0.5588 -0.4555
 1573SOL    HW3 6059   5.632   2.373   5.016  1.1500  1.2522 -0.0414
 1573SOL    MW4 6060   5.628   2.325   5.089  0.5114  0.1958 -0.7607
 1574SOL     OW 6061   1.189   3.883   6.005  0.3869  0.2115 -0.1054
 1574SOL    HW2 6062   1.225   3.834   6.079  1.0654 -0.3318 -0.7658
 1574SOL    HW3 6063   1.095   3.870   6.011  0.5536 -1.2747 -0.3060
 1574SOL    MW4 6064   1.182   3.875   6.015  0.4984 -0.0562 -0.2190
 1575SOL     OW 6065   1.000   1.007   1.119  0.2695  0.0198  0.0232
 1575SOL    HW2 6066   0.918   1.033   1.077 -0.8169 -0.0947  1.9850
 1575SOL    HW3 6067   0.985   0.919   1.151  0.1549  0.9199  2.7039
 1575SOL    MW4 6068   0.987   0.999   1.117  0.1110  0.1235  0.6357
 1576SOL     OW 6069   5.828   1.434   1.850  0.3721  0.5221 -0.1110
 1576SOL    HW2 6070   5.846   1.345   1.820 -0.9403 -0.1627  1.0515
 1576SOL    HW3 6071   5.734   1.445   1.839  0.6210  2.0898 -1.0245
 1576SOL    MW4 6072   5.818   1.424   1.844  0.2317  0.6386 -0.0781
 1577SOL     OW 6073   2.304   4.617   3.340 -0.1333  1.0603 -0.0392
 1577SOL    HW2 6074   2.314   4.650   3.251 -0.4187  2.4213  0.4100
 1577SOL    HW3 6075   2.260   4.533   3.330  0.8115  0.6771 -1.2364
 1577SOL    MW4 6076   2.300   4.610   3.327 -0.0463  1.1893 -0.1379
 1578SOL     OW 6077   5.835   0.796   1.063 -0.2580  0.0457  0.2478
 1578SOL    HW2 6078   5.819   0.703   1.047  0.6425  0.2697 -2.5001
 1578SOL    HW3 6079   5.760   0.840   1.023  0.9876  0.5796 -1.6129
 1578SOL    MW4 6080   5.823   0.789   1.056  0.0251  0.1457 -0.3603
 1579SOL     OW 6081   4.191   5.211   0.963 -0.4691  0.0828 -0.4372
 1579SOL    HW2 6082   4.188   5.116   0.967 -0.0558  0.1052  0.5930
 1579SOL    HW3 6083   4.279   5.234   0.991 -0.5319  0.7697 -0.7711
 1579SOL    MW4 6084   4.202   5.201   0.967 -0.4228  0.1764 -0.3453
 1580SOL     OW 6085   1.769   0.769   0.497  0.5591  0.2054 -0.1500
 1580SOL    HW2 6086   1.798   0.794   0.409 -0.5198 -0.3698 -0.6871
 1580SOL    HW3 6087   1.685   0.814   0.507  0.6103  0.1495  0.5313
 1580SOL    MW4 6088   1.762   0.778   0.486  0.4235  0.1222 -0.1310
 1581SOL     OW 6089   5.703   1.381   2.508  0.4635  0.0099 -0.0211
 1581SOL    HW2 6090   5.758   1.313   2.547 -2.1857 -2.5950 -0.4094
 1581SOL    HW3 6091   5.733   1.388   2.418  1.3115 -0.0053  0.2526
 1581SOL    MW4 6092   5.714   1.373   2.502  0.2259 -0.3358 -0.0362
 1582SOL     OW 6093   2.190   4.381   3.406  0.1962 -0.5306 -0.0129
 1582SOL    HW2 6094   2.241   4.378   3.487  2.4644 -1.6602 -1.3982
 1582SOL    HW3 6095   2.183   4.290   3.378  2.6723  0.0216 -2.9121
 1582SOL    MW4 6096   2.196   4.369   3.413  0.8221 -0.6068 -0.5782
 1583SOL     OW 6097   4.837   2.775   2.467  0.6297 -0.2711  0.5914
 1583SOL    HW2 6098   4.905   2.711   2.445  1.5805  0.8209  0.2708
 1583SOL    HW3 6099   4.801   2.801   2.383 -0.2008 -0.8470  0.7617
 1583SOL    MW4 6100   4.841   2.770   2.453  0.6456 -0.2030  0.5716
 1584SOL     OW 6101   1.552   0.489   2.982 -0.7745  0.2022 -0.1826
 1584SOL    HW2 6102   1.617   0.493   3.052 -0.1176  1.1600 -0.8166
 1584SOL    HW3 6103   1.478   0.540   3.015 -1.6195 -1.6158  0.9007
 1584SOL    MW4 6104   1.551   0.496   2.995 -0.7994  0.0887 -0.1233
 1585SOL     OW 6105   0.811   1.315   3.576  0.4390 -0.9740  0.3756
 1585SOL    HW2 6106   0.812   1.234   3.525 -1.1148 -0.9769  0.2862
 1585SOL    HW3 6107   0.720   1.344   3.573  1.0698  1.1191 -0.0872
 1585SOL    MW4 6108   0.799   1.308   3.569  0.3172 -0.6982  0.3027
 1586SOL     OW 6109   0.388   1.023   2.609 -0.0725  0.3876  0.0524
 1586SOL    HW2 6110   0.450   1.089   2.578  0.5167 -0.8382 -1.5351
 1586SOL    HW3 6111   0.350   0.986   2.529 -2.8485  1.0185  0.9519
 1586SOL    MW4 6112   0.391   1.027   2.595 -0.3611  0.3091 -0.0384
 1587SOL     OW 6113   3.703   3.098   6.382 -0.2203 -0.1437 -0.2197
 1587SOL    HW2 6114   3.637   3.104   6.313 -1.5231  1.5467  1.0627
 1587SOL    HW3 6115   3.787   3.099   6.336 -1.0054 -2.7615 -1.9402
 1587SOL    MW4 6116   3.705   3.098   6.367 -0.4958 -0.2661 -0.2775
 1588SOL     OW 6117   3.633   3.606   5.360 -0.0597  0.3615 -0.2310
 1588SOL    HW2 6118   3.633   3.694   5.398  1.5850  0.7225 -0.9619
 1588SOL    HW3 6119   3.547   3.570   5.382 -1.3274  2.6445 -1.0358
 1588SOL    MW4 6120   3.621   3.613   5.368 -0.0100  0.7103 -0.4336
 1589SOL     OW 6121   4.677   0.833   4.520 -0.3519  0.2884  0.0047
 1589SOL    HW2 6122   4.721   0.770   4.463 -2.5216 -1.3304 -0.0061
 1589SOL    HW3 6123   4.747   0.890   4.551  1.2829 -0.3668 -2.2165
 1589SOL    MW4 6124   4.692   0.832   4.517 -0.4224 -0.0116 -0.2898
 1590SOL     OW 6125   5.028   6.013   0.564  0.6913 -0.6294 -0.0831
 1590SOL    HW2 6126   4.978   6.040   0.487 -0.4969 -2.5666 -0.0731
 1590SOL    HW3 6127   4.963   5.971   0.620  1.5901  0.5037  1.8810
 1590SOL    MW4 6128   5.013   6.011   0.561  0.6531 -0.7355  0.1773
 1591SOL     OW 6129   3.240   4.921   5.474  0.2042 -0.5324 -0.0824
 1591SOL    HW2 6130   3.288   4.997   5.507 -2.1819  1.4533 -0.9485
 1591SOL    HW3 6131   3.177   4.957   5.411 -0.1599 -3.3898 -1.5255
 1591SOL    MW4 6132   3.238   4.936   5.470 -0.1587 -0.6474 -0.3871
 1592SOL     OW 6133   2.892   4.939   4.265  0.4256  0.3161 -0.2335
 1592SOL    HW2 6134   2.830   4.893   4.209 -1.6350  3.0124 -0.3727
 1592SOL    HW3 6135   2.893   4.888   4.346 -0.6087 -0.7922 -0.8871
 1592SOL    MW4 6136   2.884   4.927   4.269  0.0173  0.5256 -0.3381
 1593SOL     OW 6137   0.282   6.396   1.723 -0.3473  0.5796 -0.0122
 1593SOL    HW2 6138   0.298   6.309   1.759  2.0689  1.3587  0.9549
 1593SOL    HW3 6139   0.356   6.413   1.665  0.3714  2.8046  1.4502
 1593SOL    MW4 6140   0.294   6.387   1.720  0.0663  0.9759  0.3083
 1594SOL     OW 6141   4.633   3.567   5.475  0.5443  0.3467 -0.1168
 1594SOL    HW2 6142   4.624   3.648   5.526 -0.4065  1.1489 -1.5057
 1594SOL    HW3 6143   4.550   3.521   5.490  1.4293 -0.8729  1.4077
 1594SOL    MW4 6144   4.621   3.572   5.484  0.5356  0.2916 -0.0989
 1595SOL     OW 6145   1.476   3.882   2.245 -0.3400  0.1922 -0.0276
 1595SOL    HW2 6146   1.447   3.947   2.181 -0.1031  0.2780 -0.0456
 1595SOL    HW3 6147   1.549   3.836   2.203 -1.4753 -1.1330 -0.6444
 1595SOL    MW4 6148   1.482   3.884   2.231 -0.4585  0.0287 -0.1113
 1596SOL     OW 6149   0.683   2.433   6.089  0.1682  0.1223  0.2696
 1596SOL    HW2 6150   0.644   2.379   6.159  0.6141 -0.6081 -0.0371
 1596SOL    HW3 6151   0.616   2.499   6.070  0.8305  1.6557  2.8177
 1596SOL    MW4 6152   0.669   2.434   6.096  0.3144  0.2283  0.5653
 1597SOL     OW 6153   2.921   4.039   4.873  0.9069  0.6236 -0.1717
 1597SOL    HW2 6154   2.916   4.022   4.967  0.8499 -1.6667 -0.5268
 1597SOL    HW3 6155   2.843   4.091   4.853  0.3501  0.2210  0.8862
 1597SOL    MW4 6156   2.910   4.043   4.883  0.8259  0.2683 -0.0790
 1598SOL     OW 6157   2.022   5.534   1.076 -0.1108  0.1276 -0.1143
 1598SOL    HW2 6158   2.102   5.586   1.078 -0.9053  1.4970 -1.6583
 1598SOL    HW3 6159   2.000   5.521   1.169  1.4899  0.3300  0.3233
 1598SOL    MW4 6160   2.029   5.539   1.089 -0.0045  0.3349 -0.2603
 1599SOL     OW 6161   5.618   1.352   4.855  0.1643  0.3390  0.6245
 1599SOL    HW2 6162   5.527   1.377   4.841 -0.4436 -0.3777  2.8535
 1599SOL    HW3 6163   5.664   1.436   4.866  0.2764  0.8270 -2.6041
 1599SOL    MW4 6164   5.612   1.367   4.855  0.0989  0.3089  0.4926
 1600SOL     OW 6165   0.724   1.942   0.937  0.3914  0.1132 -0.0896
 1600SOL    HW2 6166   0.684   1.893   1.009  0.9467  1.4397  1.1743
 1600SOL    HW3 6167   0.816   1.916   0.939  0.5129  0.5419  0.0348
 1600SOL    MW4 6168   0.731   1.932   0.947  0.4807  0.3447  0.0936
 1601SOL     OW 6169   3.509   1.514   5.940  0.4593 -0.4246  0.3027
 1601SOL    HW2 6170   3.469   1.537   5.856 -1.8989  0.0502  1.4838
 1601SOL    HW3 6171   3.583   1.458   5.916  0.0193 -0.0974 -2.0909
 1601SOL    MW4 6172   3.514   1.509   5.926  0.0901 -0.3188  0.1427
 1602SOL     OW 6173   6.049   4.452   0.056 -0.5144 -0.1995  0.2908
 1602SOL    HW2 6174   6.130   4.493   0.089 -1.0797  1.3683 -0.1677
 1602SOL    HW3 6175   6.036   4.376   0.112  0.4398  0.4107  1.3914
 1602SOL    MW4 6176   6.058   4.447   0.068 -0.4631  0.0879  0.3755
 1603SOL     OW 6177   0.671   1.138   0.028  0.1477  0.2512  0.2119
 1603SOL    HW2 6178   0.621   1.108  -0.048 -1.6301 -0.9252  1.7554
 1603SOL    HW3 6179   0.761   1.112   0.011 -0.4371 -1.0619 -0.9555
 1603SOL    MW4 6180   0.676   1.131   0.016 -0.1640 -0.0772  0.2615
 1604SOL     OW 6181   4.314   2.306   1.785  0.5404  0.4397  0.2104
 1604SOL    HW2 6182   4.403   2.323   1.816  0.5023  1.3932 -0.1596
 1604SOL    HW3 6183   4.317   2.326   1.691  0.5540 -2.0176 -0.3806
 1604SOL    MW4 6184   4.326   2.311   1.776  0.5372  0.2413  0.0836
 1605SOL     OW 6185   0.853   1.789   0.261  0.2761  0.2811  0.4956
 1605SOL    HW2 6186   0.770   1.773   0.307  0.3762  1.7004  1.2252
 1605SOL    HW3 6187   0.918   1.796   0.331  0.4547  2.3196  0.1801
 1605SOL    MW4 6188   0.850   1.787   0.277  0.3129  0.7373  0.5502
 1606SOL     OW 6189   3.444   3.402   2.295 -0.1744 -0.6145 -0.6055
 1606SOL    HW2 6190   3.434   3.413   2.201 -2.0065  0.9568 -0.2848
 1606SOL    HW3 6191   3.519   3.457   2.318  1.0451 -1.9420 -1.2659
 1606SOL    MW4 6192   3.453   3.411   2.286 -0.2552 -0.5823 -0.6503
 1607SOL     OW 6193   5.643   2.487   5.324  0.0998 -0.3716  0.1156
 1607SOL    HW2 6194   5.622   2.405   5.278 -0.8566 -1.0721  1.7369
 1607SOL    HW3 6195   5.604   2.477   5.411  0.0600  1.7741  0.3980
 1607SOL    MW4 6196   5.635   2.475   5.329 -0.0316 -0.1809  0.3668
 1608SOL     OW 6197   0.121   3.554   3.841 -0.3102  0.3112  0.5410
 1608SOL    HW2 6198   0.160   3.467   3.838 -1.6450 -0.2853  0.0938
 1608SOL    HW3 6199   0.196   3.614   3.838  0.7477 -0.8015  2.5613
 1608SOL    MW4 6200   0.136   3.550   3.840 -0.3467  0.0857  0.7485
 1609SOL     OW 6201   5.043   5.193   1.789 -0.1686 -0.6458  0.6146
 1609SOL    HW2 6202   5.136   5.214   1.781 -0.0942 -1.5642 -1.6029
 1609SOL    HW3 6203   5.008   5.206   1.701 -1.7600 -2.0393  0.9967
 1609SOL    MW4 6204   5.051   5.198   1.776 -0.3688 -0.9508  0.3725
 1610SOL     OW 6205   3.290   6.199   2.971  0.0707  0.1826 -0.8301
 1610SOL    HW2 6206   3.209   6.178   2.924  0.5899 -2.9854 -0.5589
 1610SOL    HW3 6207   3.349   6.126   2.951  2.3398  1.6200  0.1908
 1610SOL    MW4 6208   3.287   6.187   2.962  0.4386 -0.0457 -0.6596
 1611SOL     OW 6209   0.216   0.493   5.335  0.0134  0.3666  0.1628
 1611SOL    HW2 6210   0.300   0.536   5.327  0.6551 -1.0047 -0.8882
 1611SOL    HW3 6211   0.219   0.449   5.420 -1.0433  3.0913  1.7162
 1611SOL    MW4 6212   0.227   0.493   5.345 -0.0413  0.5452  0.2291
 1612SOL     OW 6213   3.745   2.031   4.329 -0.2178  0.1069  0.0186
 1612SOL    HW2 6214   3.760   2.073   4.245  0.4216  0.1915  0.1743
 1612SOL    HW3 6215   3.806   1.957   4.331 -0.3390  0.0098  0.3415
 1612SOL    MW4 6216   3.755   2.027   4.318 -0.1494  0.1053  0.0817
 1613SOL     OW 6217   1.168   6.378   1.663 -0.1693 -0.0172 -0.2047
 1613SOL    HW2 6218   1.152   6.300   1.610 -1.0355  1.0249 -1.5454
 1613SOL    HW3 6219   1.137   6.354   1.750  1.8942 -1.9935  0.0678
 1613SOL    MW4 6220   1.162   6.365   1.667 -0.0113 -0.1405 -0.3456
 1614SOL     OW 6221   3.548   5.213   2.602 -0.3130 -0.2638 -0.1943
 1614SOL    HW2 6222   3.595   5.214   2.518 -1.7381 -1.9865 -1.0719
 1614SOL    HW3 6223   3.512   5.301   2.610  0.3115  0.0920 -1.1036
 1614SOL    MW4 6224   3.550   5.225   2.592 -0.4186 -0.4441 -0.4300
 1615SOL     OW 6225   5.355   0.533   3.573  0.0502  0.2298 -0.2686
 1615SOL    HW2 6226   5.276   0.587   3.581 -0.1576  0.0543 -1.0493
 1615SOL    HW3 6227   5.399   0.544   3.657 -0.7532  0.4097  0.1476
 1615SOL    MW4 6228   5.350   0.542   3.585 -0.0832  0.2304 -0.3167
 1616SOL     OW 6229   0.677   2.673   1.374 -0.2066 -0.2201 -0.6626
 1616SOL    HW2 6230   0.693   2.654   1.466  0.4556  0.5905 -0.6031
 1616SOL    HW3 6231   0.618   2.603   1.346 -1.0726 -0.0167  0.5756
 1616SOL    MW4 6232   0.671   2.661   1.382 -0.2335 -0.0863 -0.4914
 1617SOL     OW 6233   0.686   3.128   0.163  0.1570 -0.7108 -0.1930
 1617SOL    HW2 6234   0.661   3.160   0.077  0.9188  0.6800  0.0751
 1617SOL    HW3 6235   0.612   3.074   0.191 -1.0183  0.5016 -0.8494
 1617SOL    MW4 6236   0.673   3.125   0.156  0.1024 -0.3674 -0.2443
 1618SOL     OW 6237   4.025   5.322   2.995 -0.0960 -0.0702 -0.0324
 1618SOL    HW2 6238   4.054   5.248   3.048  0.3757  0.1591  0.0364
 1618SOL    HW3 6239   3.990   5.384   3.059  0.1289  0.0475 -0.0208
 1618SOL    MW4 6240   4.024   5.320   3.011 -0.0041 -0.0244 -0.0218
 1619SOL     OW 6241   3.377   2.783   0.544  0.4350  0.5612 -0.0343
 1619SOL    HW2 6242   3.331   2.706   0.512  0.2404  0.0077  1.4872
 1619SOL    HW3 6243   3.469   2.757   0.545  0.4554  0.6228 -0.2511
 1619SOL    MW4 6244   3.383   2.769   0.540  0.4120  0.4963  0.1378
 1620SOL     OW 6245   3.035   2.651   0.712 -0.4670 -0.0955 -0.0394
 1620SOL    HW2 6246   3.020   2.741   0.682 -1.2692  0.5389  2.0446
 1620SOL    HW3 6247   3.057   2.660   0.805 -0.8474 -2.0707  0.2980
 1620SOL    MW4 6248   3.036   2.664   0.720 -0.6230 -0.2724  0.2800
 1621SOL     OW 6249   3.747   4.814   3.849 -0.0424  0.3610  0.3092
 1621SOL    HW2 6250   3.770   4.818   3.756 -0.4601  1.0089  0.2262
 1621SOL    HW3 6251   3.793   4.737   3.882  0.9854  0.7522 -0.1870
 1621SOL    MW4 6252   3.756   4.805   3.841  0.0381  0.4981  0.2328
 1622SOL     OW 6253   4.632   1.257   2.730  0.2400  0.4915 -0.5733
 1622SOL    HW2 6254   4.558   1.315   2.743  1.6706  1.7998  2.7289
 1622SOL    HW3 6255   4.686   1.301   2.664  0.0780  1.6611  0.0543
 1622SOL    MW4 6256   4.630   1.270   2.723  0.4073  0.8184 -0.0548
 1623SOL     OW 6257   0.925   5.658   3.623 -0.3563  0.0367  0.0885
 1623SOL    HW2 6258   0.873   5.581   3.599  0.1518 -0.0805 -0.6824
 1623SOL    HW3 6259   0.910   5.669   3.717 -0.5134 -0.9505  0.1881
 1623SOL    MW4 6260   0.916   5.649   3.632 -0.3100 -0.1090 -0.0000
 1624SOL     OW 6261   3.177   3.961   0.862 -0.6871 -0.6385 -0.0526
 1624SOL    HW2 6262   3.140   3.958   0.774 -1.6802 -3.3697  0.3547
 1624SOL    HW3 6263   3.247   3.895   0.860  0.6279  0.6715  0.7021
 1624SOL    MW4 6264   3.181   3.952   0.850 -0.6446 -0.8260  0.1007
 1625SOL     OW 6265   3.271   4.683   5.653  0.2406  0.1345  0.0454
 1625SOL    HW2 6266   3.232   4.605   5.613 -1.3135  0.3137  1.1298
 1625SOL    HW3 6267   3.245   4.754   5.595 -0.8822  0.2130  0.6055
 1625SOL    MW4 6268   3.262   4.682   5.640 -0.1126  0.1685  0.2624
 1626SOL     OW 6269   5.212   5.203   5.164  0.1919 -0.2614 -0.6385
 1626SOL    HW2 6270   5.147   5.247   5.110  0.5472 -0.0529 -0.8982
 1626SOL    HW3 6271   5.165   5.131   5.205 -0.6140  0.8093  0.4185
 1626SOL    MW4 6272   5.197   5.200   5.163  0.1324 -0.0926 -0.5333
 1627SOL     OW 6273   6.154   4.880   2.923  0.5088  0.0799  0.2349
 1627SOL    HW2 6274   6.195   4.842   3.000  0.4926  0.4551  0.4316
 1627SOL    HW3 6275   6.067   4.839   2.919  1.1968 -1.3719 -0.6836
 1627SOL    MW4 6276   6.148   4.870   2.933  0.5974 -0.0621  0.1397
 1628SOL     OW 6277   0.388   0.395   2.271  0.0364 -0.5637  0.6052
 1628SOL    HW2 6278   0.379   0.322   2.209  0.9790  0.3483 -0.6349
 1628SOL    HW3 6279   0.470   0.377   2.317 -0.0036 -0.5660  0.6750
 1628SOL    MW4 6280   0.397   0.383   2.269  0.1555 -0.4437  0.4508
 1629SOL     OW 6281   4.259   5.563   3.153 -0.1916 -0.1434  0.6025
 1629SOL    HW2 6282   4.250   5.598   3.064 -2.0694  0.1087  0.8585
 1629SOL    HW3 6283   4.304   5.480   3.141  1.4453  0.8216 -0.3499
 1629SOL    MW4 6284   4.264   5.557   3.139 -0.2234  0.0172  0.5106
 1630SOL     OW 6285   1.398   4.862   0.217 -0.2584  0.0477 -0.2925
 1630SOL    HW2 6286   1.343   4.920   0.269 -2.2894 -2.0569  0.0237
 1630SOL    HW3 6287   1.467   4.834   0.278 -0.4873  0.4436  0.1606
 1630SOL    MW4 6288   1.400   4.866   0.232 -0.5566 -0.1778 -0.1910
 1631SOL     OW 6289   0.606   5.158   1.769  0.1957  0.9059  0.0508
 1631SOL    HW2 6290   0.516   5.135   1.744  1.4667 -3.2145 -1.5307
 1631SOL    HW3 6291   0.642   5.203   1.693 -0.3057  2.0954  0.4908
 1631SOL    MW4 6292   0.599   5.161   1.756  0.2973  0.5192 -0.0998
 1632SOL     OW 6293   2.378   2.530   3.367  0.1895 -0.1689 -0.1471
 1632SOL    HW2 6294   2.457   2.510   3.418 -0.1949  0.0735  0.5629
 1632SOL    HW3 6295   2.384   2.474   3.290  1.0683 -0.1355 -0.1176
 1632SOL    MW4 6296   2.389   2.520   3.364  0.2548 -0.1325 -0.0495
 1633SOL     OW 6297   1.012   0.382   6.386 -0.3643  0.3906  0.6161
 1633SOL    HW2 6298   1.049   0.294   6.395  0.1152  0.6589  1.3846
 1633SOL    HW3 6299   0.946   0.387   6.455 -1.5392  0.0789 -0.4525
 1633SOL    MW4 6300   1.008   0.371   6.396 -0.4561  0.3849  0.5765
 1634SOL     OW 6301   1.829   6.252   0.003  0.1943  0.1734 -0.7962
 1634SOL    HW2 6302   1.801   6.341  -0.017  2.1914  0.4743 -2.6767
 1634SOL    HW3 6303   1.763   6.196  -0.038 -0.2520  0.8056 -0.9500
 1634SOL    MW4 6304   1.816   6.256  -0.005  0.3989  0.2965 -1.0646
 1635SOL     OW 6305   1.240   2.635   2.468 -0.3598 -0.4050  0.0185
 1635SOL    HW2 6306   1.244   2.729   2.455  1.1686 -0.4954 -0.4386
 1635SOL    HW3 6307   1.158   2.620   2.516 -1.2594  0.9971 -1.0179
 1635SOL    MW4 6308   1.230   2.645   2.473 -0.2769 -0.2319 -0.1785
 1636SOL     OW 6309   3.146   6.236   6.177 -0.3012 -0.8298  0.0592
 1636SOL    HW2 6310   3.114   6.148   6.198  0.8418 -1.3392 -0.2350
 1636SOL    HW3 6311   3.144   6.240   6.082 -0.2734 -0.5663  0.0684
 1636SOL    MW4 6312   3.141   6.225   6.167 -0.1467 -0.8622  0.0216
 1637SOL     OW 6313   4.173   2.675   6.310  0.0037  0.4098  0.3799
 1637SOL    HW2 6314   4.135   2.611   6.369  1.7014  1.3980  2.7016
 1637SOL    HW3 6315   4.109   2.746   6.307 -0.2634  0.1840  0.6996
 1637SOL    MW4 6316   4.160   2.676   6.317  0.1924  0.5104  0.7284
 1638SOL     OW 6317   5.297   0.400   3.970 -0.0126 -0.0022 -0.1367
 1638SOL    HW2 6318   5.359   0.354   3.913 -1.4642 -1.1428 -0.8791
 1638SOL    HW3 6319   5.278   0.336   4.039  1.0944  1.0653  1.2086
 1638SOL    MW4 6320   5.303   0.385   3.972 -0.0580 -0.0118 -0.0572
 1639SOL     OW 6321   3.888   1.515   1.405  0.6774  0.4925  0.4212
 1639SOL    HW2 6322   3.905   1.586   1.466 -0.1553 -0.3391  1.6637
 1639SOL    HW3 6323   3.799   1.530   1.374  0.0183 -0.6706  1.6658
 1639SOL    MW4 6324   3.878   1.526   1.409  0.4806  0.2293  0.7494
 1640SOL     OW 6325   4.437   3.706   1.403 -0.5575 -0.0260 -0.6025
 1640SOL    HW2 6326   4.365   3.725   1.344 -1.6614  0.1026  0.7248
 1640SOL    HW3 6327   4.398   3.650   1.471  0.4671  0.4432  0.4117
 1640SOL    MW4 6328   4.423   3.701   1.404 -0.5680  0.0528 -0.2936
 1641SOL     OW 6329   5.315   0.220   4.621  0.4161 -0.4427  0.0349
 1641SOL    HW2 6330   5.306   0.143   4.565  0.7190  0.1894 -0.9057
 1641SOL    HW3 6331   5.342   0.290   4.562 -1.5669  0.8361  0.5527
 1641SOL    MW4 6332   5.318   0.219   4.606  0.1945 -0.1906 -0.0209
 1642SOL     OW 6333   2.330   6.160   4.200 -0.0746 -0.2180  0.7847
 1642SOL    HW2 6334   2.317   6.083   4.144 -0.7457  1.2397 -1.1885
 1642SOL    HW3 6335   2.255   6.160   4.259 -0.7205 -0.4301 -0.0213
 1642SOL    MW4 6336   2.319   6.150   4.200 -0.2483 -0.0537  0.4180
 1643SOL     OW 6337   1.530   1.918   4.137 -0.1901 -0.6671 -0.6031
 1643SOL    HW2 6338   1.573   1.847   4.185  0.3769  0.9231  1.4268
 1643SOL    HW3 6339   1.602   1.972   4.106 -0.5828  0.9605  1.1169
 1643SOL    MW4 6340   1.545   1.916   4.139 -0.1671 -0.2426 -0.1084
 1644SOL     OW 6341   6.156   5.345   1.419 -0.3202  0.0750 -0.4933
 1644SOL    HW2 6342   6.137   5.252   1.410 -0.7164  0.3431 -3.1152
 1644SOL    HW3 6343   6.212   5.366   1.345  0.1328  1.8445  0.2955
 1644SOL    MW4 6344   6.161   5.336   1.408 -0.3127  0.3438 -0.7351
 1645SOL     OW 6345   3.025   1.020   5.368 -0.1781  0.2334 -0.1595
 1645SOL    HW2 6346   3.059   1.060   5.448 -2.2973 -0.6073  1.2675
 1645SOL    HW3 6347   3.006   1.093   5.310 -1.5154  1.1602  1.3695
 1645SOL    MW4 6348   3.027   1.035   5.371 -0.6341  0.2448  0.2305
 1646SOL     OW 6349   2.597   4.336   1.062 -0.0777  0.2665  0.3719
 1646SOL    HW2 6350   2.546   4.304   1.137 -0.4204  0.4978  0.2408
 1646SOL    HW3 6351   2.586   4.432   1.065  0.4230  0.3226  0.3945
 1646SOL    MW4 6352   2.589   4.345   1.072 -0.0568  0.3044  0.3576
 1647SOL     OW 6353   3.035   4.633   5.245  0.0462 -0.7245 -0.0276
 1647SOL    HW2 6354   3.123   4.644   5.280  1.0028 -1.8018 -1.8967
 1647SOL    HW3 6355   3.032   4.692   5.169 -1.1054 -0.1816  0.4158
 1647SOL    MW4 6356   3.046   4.642   5.239  0.0205 -0.7950 -0.2157
 1648SOL     OW 6357   5.826   3.958   2.730 -0.0830  0.4986 -0.4138
 1648SOL    HW2 6358   5.785   3.877   2.760  0.1709  0.1539 -0.9880
 1648SOL    HW3 6359   5.855   4.001   2.811 -1.5729  0.7620  0.0056
 1648SOL    MW4 6360   5.824   3.953   2.745 -0.2461  0.4879 -0.4342
 1649SOL     OW 6361   6.031   0.903   3.459  0.5799  0.1586  0.0490
 1649SOL    HW2 6362   6.125   0.911   3.475  0.8758 -2.4020  0.0019
 1649SOL    HW3 6363   6.019   0.813   3.431 -2.0004  0.2409  0.6276
 1649SOL    MW4 6364   6.042   0.892   3.457  0.2785 -0.1684  0.1191
 1650SOL     OW 6365   3.040   0.569   0.656  0.5263 -0.3712 -0.1591
 1650SOL    HW2 6366   3.003   0.596   0.740 -0.5776  0.4183 -0.8686
 1650SOL    HW3 6367   3.015   0.477   0.647  1.0617 -0.6003  0.5736
 1650SOL    MW4 6368   3.032   0.560   0.666  0.4513 -0.2972 -0.1560
 1651SOL     OW 6369   1.630   4.966   2.195  0.3700  0.6336 -0.0147
 1651SOL    HW2 6370   1.540   4.935   2.185 -0.0912  1.3803  1.5075
 1651SOL    HW3 6371   1.660   4.980   2.106 -1.8373  2.5574 -0.5643
 1651SOL    MW4 6372   1.622   4.964   2.182  0.0179  0.9859  0.1136
 1652SOL     OW 6373   2.777   4.931   1.229  0.9866  0.1351  0.2261
 1652SOL    HW2 6374   2.791   4.903   1.139  1.0309  0.4658  0.1295
 1652SOL    HW3 6375   2.712   5.001   1.223 -0.1391 -0.8226  0.5857
 1652SOL    MW4 6376   2.770   4.936   1.217  0.8439  0.0524  0.2608
 1653SOL     OW 6377   4.019   0.195   4.539 -0.0769  0.7173  0.0695
 1653SOL    HW2 6378   3.989   0.104   4.532  0.5057  0.5507 -0.3431
 1653SOL    HW3 6379   4.095   0.190   4.596  0.4288  0.8287 -0.5883
 1653SOL    MW4 6380   4.025   0.182   4.545  0.0667  0.7100 -0.0717
 1654SOL     OW 6381   2.526   2.525   5.006  0.2086 -0.2577 -0.3791
 1654SOL    HW2 6382   2.448   2.471   4.998  1.2510 -2.1107  1.1800
 1654SOL    HW3 6383   2.510   2.580   5.083 -0.6023  1.3621 -1.6209
 1654SOL    MW4 6384   2.514   2.525   5.015  0.2391 -0.2885 -0.3372
 1655SOL     OW 6385   6.132   2.378   1.125  0.3481 -0.2317  0.4667
 1655SOL    HW2 6386   6.194   2.392   1.054 -0.6451 -1.7772 -0.7590
 1655SOL    HW3 6387   6.071   2.314   1.091 -1.1302  0.2183  2.1440
 1655SOL    MW4 6388   6.132   2.372   1.111  0.0220 -0.3762  0.5263
 1656SOL     OW 6389   1.709   3.213   1.202 -0.6394 -0.2774 -0.2369
 1656SOL    HW2 6390   1.620   3.244   1.221 -0.8245  0.0625 -1.5447
 1656SOL    HW3 6391   1.700   3.165   1.119  0.5098  0.3938 -0.7730
 1656SOL    MW4 6392   1.696   3.211   1.193 -0.5122 -0.1440 -0.4802
 1657SOL     OW 6393   3.243   6.019   4.955  0.4601  0.1612  0.2916
 1657SOL    HW2 6394   3.157   6.046   4.989  0.1250 -0.6225  0.0859
 1657SOL    HW3 6395   3.284   5.972   5.027  0.2586 -0.4256  0.0251
 1657SOL    MW4 6396   3.237   6.016   4.969  0.3893 -0.0196  0.2293
 1658SOL     OW 6397   5.565   3.634   3.057  0.3501 -0.2653 -0.0822
 1658SOL    HW2 6398   5.530   3.552   3.022 -0.9666  0.7761 -1.3302
 1658SOL    HW3 6399   5.500   3.661   3.123  1.5285 -0.9298  1.4148
 1658SOL    MW4 6400   5.552   3.627   3.061  0.3319 -0.2156 -0.0494
 1659SOL     OW 6401   1.960   1.529   0.452  0.5915  0.0998 -0.9363
 1659SOL    HW2 6402   2.045   1.571   0.439  0.0335  1.9604  0.9123
 1659SOL    HW3 6403   1.910   1.552   0.374  0.5419  2.4147 -0.3016
 1659SOL    MW4 6404   1.964   1.538   0.440  0.5113  0.6507 -0.6087
 1660SOL     OW 6405   3.507   1.264   1.302  0.0790  0.4319  0.2893
 1660SOL    HW2 6406   3.570   1.208   1.348  1.0657  0.3060 -1.1533
 1660SOL    HW3 6407   3.422   1.222   1.317  0.6189 -0.6419  0.4295
 1660SOL    MW4 6408   3.504   1.251   1.310  0.2805  0.2736  0.1175
 1661SOL     OW 6409   0.661   0.485   5.623  0.7930  0.2404 -0.1435
 1661SOL    HW2 6410   0.652   0.409   5.680  0.1027 -0.3975 -1.0672
 1661SOL    HW3 6411   0.751   0.481   5.591  0.1986 -1.3958 -1.7783
 1661SOL    MW4 6412   0.672   0.475   5.626  0.6235 -0.0596 -0.4811
 1662SOL     OW 6413   6.119   0.376   5.313  0.2019  0.4796  0.2090
 1662SOL    HW2 6414   6.093   0.387   5.405  0.7135  3.2586  0.0912
 1662SOL    HW3 6415   6.192   0.314   5.316 -1.8642 -2.1405  1.2324
 1662SOL    MW4 6416   6.125   0.369   5.326 -0.0032  0.5006  0.3285
 1663SOL     OW 6417   1.011   4.442   5.962  0.0899  0.3617 -0.1312
 1663SOL    HW2 6418   1.049   4.424   6.048  1.7075  2.7888 -0.2469
 1663SOL    HW3 6419   0.965   4.525   5.972 -0.4922  0.2192 -1.3830
 1663SOL    MW4 6420   1.010   4.451   5.974  0.2265  0.6632 -0.3116
 1664SOL     OW 6421   3.416   0.845   3.266 -0.3763  0.0070  0.4080
 1664SOL    HW2 6422   3.334   0.881   3.234 -0.8996  0.0395  1.7334
 1664SOL    HW3 6423   3.457   0.917   3.314  0.0100 -0.2692  0.4984
 1664SOL    MW4 6424   3.411   0.859   3.268 -0.3944 -0.0251  0.5948
 1665SOL     OW 6425   5.004   3.823   5.393 -0.5301 -0.8934  0.0051
 1665SOL    HW2 6426   4.946   3.754   5.362 -0.3334 -0.6746 -0.8669
 1665SOL    HW3 6427   5.062   3.841   5.319  0.1177 -0.5425  0.5889
 1665SOL    MW4 6428   5.004   3.817   5.379 -0.4187 -0.8182 -0.0329
 1666SOL     OW 6429   4.943   4.212   3.918 -0.1935 -0.0086  0.0593
 1666SOL    HW2 6430   4.965   4.187   4.008 -0.7621  1.8081  0.7485
 1666SOL    HW3 6431   4.914   4.130   3.877 -1.3999 -0.6330  1.9964
 1666SOL    MW4 6432   4.942   4.198   3.925 -0.4277  0.1487  0.4058
 1667SOL     OW 6433   0.629   6.158   0.054  0.0195  0.0706 -0.2060
 1667SOL    HW2 6434   0.719   6.171   0.083 -0.6746  2.1571  1.2172
 1667SOL    HW3 6435   0.638   6.121  -0.034  2.2935  1.3583 -0.5981
 1667SOL    MW4 6436   0.642   6.155   0.046  0.2280  0.5158 -0.0700
 1668SOL     OW 6437   5.659   2.618   4.068  0.0383 -0.2066 -0.6744
 1668SOL    HW2 6438   5.690   2.703   4.037  0.1629  0.0712  0.1868
 1668SOL    HW3 6439   5.723   2.555   4.033 -0.2674  0.0073 -1.6252
 1668SOL    MW4 6440   5.672   2.621   4.060  0.0144 -0.1417 -0.6862
 1669SOL     OW 6441   2.732   3.508   2.039  0.7311 -0.0466 -0.5345
 1669SOL    HW2 6442   2.779   3.473   2.115 -0.8734  0.6408  0.8295
 1669SOL    HW3 6443   2.688   3.587   2.071 -0.0856  0.2017 -2.1427
 1669SOL    MW4 6444   2.732   3.514   2.053  0.4116  0.0769 -0.5667
 1670SOL     OW 6445   4.472   4.995   0.830 -0.3192 -0.1694  0.4920
 1670SOL    HW2 6446   4.420   5.043   0.765  0.0057 -0.2236  0.1867
 1670SOL    HW3 6447   4.555   5.042   0.834  1.0944 -2.2005 -1.8502
 1670SOL    MW4 6448   4.476   5.007   0.822 -0.0898 -0.4445  0.1427
 1671SOL     OW 6449   6.178   0.648   3.358  0.2382  0.0169  0.3250
 1671SOL    HW2 6450   6.190   0.702   3.280  2.1315 -0.3397  0.3079
 1671SOL    HW3 6451   6.248   0.582   3.351 -1.0061 -1.4459  1.1571
 1671SOL    MW4 6452   6.189   0.646   3.346  0.3238 -0.2231  0.4325
 1672SOL     OW 6453   4.181   5.847   0.015  0.0997  0.4555  0.5340
 1672SOL    HW2 6454   4.250   5.910  -0.007  0.1497  0.3538  0.3956
 1672SOL    HW3 6455   4.155   5.870   0.104  1.7524 -0.7735  1.4083
 1672SOL    MW4 6456   4.187   5.858   0.024  0.3244  0.2799  0.6311
 1673SOL     OW 6457   4.021   4.769   2.644 -0.1266 -0.0851  0.4837
 1673SOL    HW2 6458   4.114   4.748   2.657 -0.2840 -0.5277  0.9270
 1673SOL    HW3 6459   3.978   4.684   2.635 -0.4083  0.1340 -0.3470
 1673SOL    MW4 6460   4.028   4.755   2.645 -0.1845 -0.1146  0.4326
 1674SOL     OW 6461   0.247   4.743   6.116  0.3016  0.0028  0.3429
 1674SOL    HW2 6462   0.284   4.770   6.032 -0.2663  0.9665  0.3898
 1674SOL    HW3 6463   0.193   4.666   6.095  1.2181 -0.5809  0.0582
 1674SOL    MW4 6464   0.245   4.736   6.102  0.3476  0.0529  0.3116
 1675SOL     OW 6465   5.434   4.203   1.083  0.0967 -0.1221 -0.4856
 1675SOL    HW2 6466   5.450   4.148   1.160  2.9173  0.2485 -0.6958
 1675SOL    HW3 6467   5.463   4.149   1.009  1.8876  1.1746 -0.7931
 1675SOL    MW4 6468   5.440   4.189   1.083  0.7051  0.0979 -0.5539
 1676SOL     OW 6469   4.896   0.515   2.250 -0.1340  0.6798 -0.0745
 1676SOL    HW2 6470   4.894   0.600   2.205  0.7836  1.8456  1.9542
 1676SOL    HW3 6471   4.949   0.530   2.328  0.6881 -1.9729 -0.0055
 1676SOL    MW4 6472   4.903   0.528   2.254  0.0955  0.4836  0.2023
 1677SOL     OW 6473   5.694   6.067   5.765 -0.1374 -0.2806  0.6670
 1677SOL    HW2 6474   5.675   6.015   5.844 -1.0091 -0.8984  0.0633
 1677SOL    HW3 6475   5.613   6.065   5.715 -0.1608  1.6034  0.5625
 1677SOL    MW4 6476   5.681   6.060   5.769 -0.2555 -0.1135  0.5736
 1678SOL     OW 6477   4.204   5.296   0.293 -0.2218  0.2681 -0.2037
 1678SOL    HW2 6478   4.113   5.294   0.263  0.0053  0.6439 -0.9393
 1678SOL    HW3 6479   4.236   5.206   0.281 -0.6631 -0.0075  0.6136
 1678SOL    MW4 6480   4.196   5.284   0.288 -0.2500  0.2813 -0.1929
 1679SOL     OW 6481   5.368   1.344   5.007 -0.0186 -0.2585 -0.2600
 1679SOL    HW2 6482   5.463   1.328   5.009  0.0905  0.4173  0.2586
 1679SOL    HW3 6483   5.332   1.266   4.965  0.3209 -2.7766  3.5734
 1679SOL    MW4 6484   5.376   1.331   5.002  0.0405 -0.5015  0.3142
 1680SOL     OW 6485   0.866   1.807   5.256 -0.3105 -0.1777 -0.1980
 1680SOL    HW2 6486   0.845   1.731   5.203 -1.5191  0.2793 -0.4032
 1680SOL    HW3 6487   0.874   1.773   5.345 -2.8517 -0.2962  0.0541
 1680SOL    MW4 6488   0.865   1.793   5.261 -0.8052 -0.1330 -0.1918
 1681SOL     OW 6489   1.617   1.469   3.721  0.1304  0.0553  0.0580
 1681SOL    HW2 6490   1.678   1.501   3.787  2.7471  1.8444 -2.8991
 1681SOL    HW3 6491   1.575   1.548   3.687 -1.4987 -0.8539 -0.1155
 1681SOL    MW4 6492   1.620   1.484   3.725  0.2607  0.1714 -0.3550
 1682SOL     OW 6493   6.058   1.946   4.638 -0.3105 -0.1516 -0.1466
 1682SOL    HW2 6494   5.987   1.909   4.689  0.8771 -0.1169  1.6104
 1682SOL    HW3 6495   6.133   1.889   4.655  0.0429 -0.4180 -2.2554
 1682SOL    MW4 6496   6.059   1.934   4.647 -0.1072 -0.1822 -0.1930
 1683SOL     OW 6497   2.681   3.194   2.836  0.1049  0.1333 -0.0773
 1683SOL    HW2 6498   2.654   3.149   2.916 -0.8864 -2.1081 -1.5645
 1683SOL    HW3 6499   2.627   3.155   2.767  2.7298  0.0274 -2.2472
 1683SOL    MW4 6500   2.670   3.183   2.837  0.3204 -0.1764 -0.5598
 1684SOL     OW 6501   3.779   5.069   3.074  0.3981  0.5859 -0.0169
 1684SOL    HW2 6502   3.748   5.016   3.000 -0.6894  1.1091  0.0471
 1684SOL    HW3 6503   3.792   5.005   3.145 -0.4406  0.3201 -0.0827
 1684SOL    MW4 6504   3.776   5.053   3.074  0.1440  0.6198 -0.0172
 1685SOL     OW 6505   4.572   2.345   1.930 -0.1797 -0.0818  0.4069
 1685SOL    HW2 6506   4.570   2.354   2.025  0.9563  2.9483  0.2713
 1685SOL    HW3 6507   4.664   2.357   1.907 -0.5487  0.0442 -1.1297
 1685SOL    MW4 6508   4.584   2.348   1.940 -0.0785  0.3346  0.1863
 1686SOL     OW 6509   3.017   1.398   6.020 -0.6279 -0.5274  0.1795
 1686SOL    HW2 6510   2.962   1.374   6.094 -0.9948 -0.0092  0.0776
 1686SOL    HW3 6511   3.106   1.402   6.057 -0.5264 -2.1224  0.1767
 1686SOL    MW4 6512   3.022   1.395   6.035 -0.6629 -0.6695  0.1657
 1687SOL     OW 6513   5.924   4.822   5.702 -0.4599  0.1971 -0.1768
 1687SOL    HW2 6514   5.901   4.744   5.752 -1.2331  0.7368  0.3241
 1687SOL    HW3 6515   5.858   4.886   5.725 -0.9036  0.4404 -1.9781
 1687SOL    MW4 6516   5.912   4.820   5.712 -0.6205  0.3004 -0.3484
 1688SOL     OW 6517   4.553   0.726   5.734  0.3900 -0.7818  0.4015
 1688SOL    HW2 6518   4.508   0.807   5.709 -0.6365 -1.0977  1.1908
 1688SOL    HW3 6519   4.546   0.670   5.657 -1.6517 -1.2720  0.8743
 1688SOL    MW4 6520   4.546   0.730   5.721 -0.0148 -0.8882  0.5681
 1689SOL     OW 6521   1.413   1.488   2.466 -0.6692 -0.3778 -0.0367
 1689SOL    HW2 6522   1.496   1.532   2.484 -1.7302  0.6464  2.7447
 1689SOL    HW3 6523   1.414   1.410   2.521 -1.9948  0.2455  0.9250
 1689SOL    MW4 6524   1.424   1.483   2.475 -0.9841 -0.1605  0.4572
 1690SOL     OW 6525   3.969   5.602   0.413 -0.2298 -0.0187  0.0249
 1690SOL    HW2 6526   4.000   5.627   0.326  0.0612 -1.1529 -0.2089
 1690SOL    HW3 6527   4.002   5.671   0.471  0.1278  0.3991 -0.6622
 1690SOL    MW4 6528   3.977   5.614   0.409 -0.1442 -0.1132 -0.0966
 1691SOL     OW 6529   4.629   2.706   6.127 -0.6999  0.1685 -0.2405
 1691SOL    HW2 6530   4.546   2.739   6.092 -0.9783 -0.5534 -0.2773
 1691SOL    HW3 6531   4.666   2.780   6.175 -1.4739  0.4401 -0.0435
 1691SOL    MW4 6532   4.623   2.720   6.129 -0.8388  0.1091 -0.2194
 1692SOL     OW 6533   3.283   6.361   0.330 -0.5716  0.5551  0.1376
 1692SOL    HW2 6534   3.206   6.318   0.292 -1.3117  0.3080  1.8042
 1692SOL    HW3 6535   3.315   6.299   0.395 -1.3852  2.2387  2.2625
 1692SOL    MW4 6536   3.277   6.347   0.334 -0.7766  0.7446  0.6378
 1693SOL     OW 6537   1.706   3.818   3.911 -0.0938 -0.0233 -0.2700
 1693SOL    HW2 6538   1.782   3.761   3.903 -0.1500 -0.1419  0.0373
 1693SOL    HW3 6539   1.734   3.888   3.970 -0.0825  0.1730 -0.5045
 1693SOL    MW4 6540   1.719   3.820   3.917 -0.0998 -0.0131 -0.2604
 1694SOL     OW 6541   0.451   5.380   2.020  0.3674 -0.2679 -0.1709
 1694SOL    HW2 6542   0.442   5.458   2.075 -1.5202 -0.2265 -0.5048
 1694SOL    HW3 6543   0.546   5.373   2.006  0.5967  2.0471 -0.2679
 1694SOL    MW4 6544   0.463   5.390   2.026  0.1486  0.0430 -0.2278
 1695SOL     OW 6545   5.861   1.654   5.810 -0.1028  0.2181  0.1237
 1695SOL    HW2 6546   5.887   1.654   5.902 -1.1964  0.5797  0.4496
 1695SOL    HW3 6547   5.927   1.601   5.766  0.6951  0.4293  1.0401
 1695SOL    MW4 6548   5.873   1.647   5.816 -0.1418  0.2936  0.2876
 1696SOL     OW 6549   1.919   5.921   6.014 -0.1152  0.1633  0.5094
 1696SOL    HW2 6550   1.867   5.881   6.083  2.0593 -0.6505  1.7694
 1696SOL    HW3 6551   1.962   5.996   6.055  2.7729 -1.4783  0.7316
 1696SOL    MW4 6552   1.917   5.926   6.028  0.5528 -0.1607  0.7050
 1697SOL     OW 6553   1.546   3.515   1.022  0.8034  0.0996 -0.1607
 1697SOL    HW2 6554   1.638   3.541   1.022  0.4856  1.2834  0.9523
 1697SOL    HW3 6555   1.499   3.589   1.061 -0.6487 -0.4182 -0.8364
 1697SOL    MW4 6556   1.552   3.528   1.027  0.5699  0.1875 -0.1030
 1698SOL     OW 6557   1.758   0.888   1.543  0.4806 -0.0087 -0.1645
 1698SOL    HW2 6558   1.799   0.964   1.584  0.4724 -0.9363  1.6233
 1698SOL    HW3 6559   1.664   0.905   1.550  0.4688 -0.4032  0.6870
 1698SOL    MW4 6560   1.751   0.901   1.549  0.4780 -0.1831  0.1838
 1699SOL     OW 6561   4.232   5.437   4.453 -0.3421  0.3172  0.0222
 1699SOL    HW2 6562   4.149   5.449   4.499 -0.8060 -1.1176 -0.3810
 1699SOL    HW3 6563   4.295   5.413   4.521 -0.6596 -0.2462  0.1223
 1699SOL    MW4 6564   4.229   5.435   4.468 -0.4452  0.0536 -0.0178
 1700SOL     OW 6565   2.342   0.692   3.139  0.2003  0.2493 -0.4829
 1700SOL    HW2 6566   2.293   0.612   3.123 -0.0124 -0.0420  1.3472
 1700SOL    HW3 6567   2.336   0.741   3.057 -2.9377  0.0914 -0.4864
 1700SOL    MW4 6568   2.335   0.688   3.126 -0.2418  0.1900 -0.2419
 1701SOL     OW 6569   4.305   2.115   4.487 -0.6742  0.1055  0.4220
 1701SOL    HW2 6570   4.302   2.207   4.514 -1.2105  0.0628  0.5212
 1701SOL    HW3 6571   4.213   2.087   4.486 -0.4180 -1.0398  2.5102
 1701SOL    MW4 6572   4.292   2.124   4.490 -0.7111 -0.0512  0.7106
 1702SOL     OW 6573   6.072   4.878   6.421  0.1345 -0.4275 -0.8704
 1702SOL    HW2 6574   6.139   4.813   6.403  1.4976  0.2079  1.4914
 1702SOL    HW3 6575   6.025   4.845   6.498  0.1938  0.8457 -0.2468
 1702SOL    MW4 6576   6.074   4.865   6.429  0.3221 -0.1757 -0.4765
 1703SOL     OW 6577   4.959   3.436   2.175 -0.4469  0.1450 -0.2682
 1703SOL    HW2 6578   4.960   3.346   2.207 -2.0012 -0.2469 -1.1947
 1703SOL    HW3 6579   5.048   3.468   2.188 -0.1327 -1.1787  1.0148
 1703SOL    MW4 6580   4.971   3.428   2.181 -0.6105 -0.0814 -0.2212
 1704SOL     OW 6581   3.950   1.037   1.442 -0.0125  0.2664  0.1727
 1704SOL    HW2 6582   3.984   0.969   1.384  0.1937  1.2147 -0.8504
 1704SOL    HW3 6583   3.971   1.006   1.530  0.7984 -0.6015 -0.3079
 1704SOL    MW4 6584   3.957   1.024   1.446  0.1217  0.2770 -0.0257
 1705SOL     OW 6585   2.836   5.825   5.933  0.4789 -0.0704  0.5263
 1705SOL    HW2 6586   2.839   5.879   5.854 -0.3720  0.0744  0.5871
 1705SOL    HW3 6587   2.847   5.735   5.901 -1.2636 -0.1600  0.0584
 1705SOL    MW4 6588   2.838   5.820   5.918  0.1367 -0.0631  0.4726
 1706SOL     OW 6589   4.056   0.852   2.681  0.0899 -0.2245 -0.4305
 1706SOL    HW2 6590   4.144   0.853   2.719  0.5625  2.1479 -1.3714
 1706SOL    HW3 6591   4.017   0.935   2.709 -1.2201 -0.4839 -1.3946
 1706SOL    MW4 6592   4.062   0.863   2.690 -0.0206  0.0543 -0.6819
 1707SOL     OW 6593   3.009   0.463   1.884  0.5068  0.3129  0.5645
 1707SOL    HW2 6594   3.088   0.497   1.842  0.8886 -0.0810  0.9556
 1707SOL    HW3 6595   3.028   0.464   1.977  1.2909 -2.7066  0.5435
 1707SOL    MW4 6596   3.022   0.467   1.891  0.6607 -0.1375  0.6133
 1708SOL     OW 6597   3.134   6.023   1.321  0.2241  0.5455  0.3053
 1708SOL    HW2 6598   3.147   6.114   1.294 -0.6102  1.1176  1.7406
 1708SOL    HW3 6599   3.180   6.015   1.405  1.6421 -0.8230 -0.5454
 1708SOL    MW4 6600   3.141   6.034   1.328  0.3011  0.4405  0.3825
 1709SOL     OW 6601   1.668   3.639   3.469 -0.6236  0.8295 -0.6287
 1709SOL    HW2 6602   1.718   3.652   3.389  1.3679 -0.2945  0.3708
 1709SOL    HW3 6603   1.694   3.710   3.526 -0.2588  0.3032 -0.1385
 1709SOL    MW4 6604   1.678   3.650   3.466 -0.3127  0.6118 -0.4321
 1710SOL     OW 6605   3.058   4.752   1.989 -0.3824  0.1799  0.4585
 1710SOL    HW2 6606   3.072   4.664   1.954 -0.6000  0.4445 -0.3027
 1710SOL    HW3 6607   3.143   4.776   2.028  0.3770  0.5193 -1.3184
 1710SOL    MW4 6608   3.071   4.744   1.990 -0.3109  0.2596  0.1236
 1711SOL     OW 6609   1.278   3.769   4.853 -0.3251  0.2374 -0.0375
 1711SOL    HW2 6610   1.232   3.691   4.884 -1.7475  0.4388 -1.5272
 1711SOL    HW3 6611   1.327   3.739   4.776 -0.1752  0.6228 -0.0942
 1711SOL    MW4 6612   1.279   3.754   4.847 -0.4930  0.3148 -0.2415
 1712SOL     OW 6613   3.748   6.358   3.772  0.8495  0.3074  0.5193
 1712SOL    HW2 6614   3.750   6.277   3.823  1.1328  0.0579  0.1168
 1712SOL    HW3 6615   3.661   6.394   3.788  0.7056 -0.0996  0.6628
 1712SOL    MW4 6616   3.737   6.352   3.781  0.8679  0.2208  0.4851
 1713SOL     OW 6617   3.855   2.438   4.331 -0.1118  0.1920  0.3379
 1713SOL    HW2 6618   3.813   2.375   4.272 -0.9183  0.4290  0.6432
 1713SOL    HW3 6619   3.943   2.449   4.296 -0.1295 -0.7239 -0.0109
 1713SOL    MW4 6620   3.861   2.432   4.318 -0.2206  0.1024  0.3321
 1714SOL     OW 6621   4.988   1.867   6.133  0.1346 -0.0289 -0.6165
 1714SOL    HW2 6622   5.019   1.946   6.179  1.3275  0.3047 -1.9122
 1714SOL    HW3 6623   4.900   1.891   6.102  0.1790  0.5078 -0.3509
 1714SOL    MW4 6624   4.980   1.881   6.135  0.2978  0.0859 -0.7524
 1715SOL     OW 6625   5.149   0.159   0.811  0.0343 -0.0096  0.2340
 1715SOL    HW2 6626   5.227   0.183   0.860 -1.1764  1.7055  1.4425
 1715SOL    HW3 6627   5.172   0.077   0.768  2.5299  0.5119  0.4158
 1715SOL    MW4 6628   5.162   0.151   0.811  0.2038  0.2855  0.4174
 1716SOL     OW 6629   1.753   4.291   4.603 -0.1432  0.1029  0.3789
 1716SOL    HW2 6630   1.663   4.297   4.569 -0.3568 -2.1876  0.3572
 1716SOL    HW3 6631   1.804   4.260   4.528  0.4447  0.2852  0.7045
 1716SOL    MW4 6632   1.748   4.288   4.589 -0.0938 -0.1752  0.4190
 1717SOL     OW 6633   3.204   2.842   0.143 -0.6704 -0.3876  0.2356
 1717SOL    HW2 6634   3.146   2.767   0.140  1.5686 -2.1907 -1.0465
 1717SOL    HW3 6635   3.214   2.870   0.052 -0.2022  0.4255  0.5169
 1717SOL    MW4 6636   3.198   2.836   0.131 -0.3132 -0.5182  0.1036
 1718SOL     OW 6637   5.604   1.903   1.791 -0.4727 -0.5548 -0.0326
 1718SOL    HW2 6638   5.529   1.962   1.793  0.7591  1.1058 -0.9365
 1718SOL    HW3 6639   5.618   1.885   1.698  0.2189 -0.8909  0.1284
 1718SOL    MW4 6640   5.596   1.908   1.779 -0.2189 -0.3801 -0.1307
 1719SOL     OW 6641   3.056   1.246   0.288 -0.2186  0.0555  0.2065
 1719SOL    HW2 6642   2.994   1.291   0.231 -0.2521 -0.0553  0.1558
 1719SOL    HW3 6643   3.001   1.199   0.350 -0.1913 -0.3900 -0.1045
 1719SOL    MW4 6644   3.041   1.246   0.289 -0.2194 -0.0179  0.1588
 1720SOL     OW 6645   5.684   5.356   5.137  0.3239 -0.1420 -0.3562
 1720SOL    HW2 6646   5.655   5.265   5.132 -0.7401  0.0913  0.9125
 1720SOL    HW3 6647   5.653   5.386   5.222  1.3372  1.1877 -0.4242
 1720SOL    MW4 6648   5.676   5.348   5.148  0.3173  0.0642 -0.1977
 1721SOL     OW 6649   3.752   1.607   4.163  0.5943 -0.4441 -0.4945
 1721SOL    HW2 6650   3.755   1.614   4.068  1.2572  0.8127 -0.4075
 1721SOL    HW3 6651   3.807   1.679   4.194 -0.5952 -0.0662  0.8583
 1721SOL    MW4 6652   3.760   1.618   4.155  0.5248 -0.2284 -0.3045
 1722SOL     OW 6653   3.004   4.089   0.621  0.1417 -0.0314  0.3056
 1722SOL    HW2 6654   3.046   4.134   0.695 -1.2687  1.2381  0.3818
 1722SOL    HW3 6655   2.932   4.040   0.661  0.1059 -0.2938 -0.0843
 1722SOL    MW4 6656   3.000   4.089   0.636 -0.0491  0.1015  0.2642
 1723SOL     OW 6657   1.591   5.434   2.842 -0.6690 -0.4453 -0.1066
 1723SOL    HW2 6658   1.599   5.347   2.802 -0.1997 -0.8954  0.9354
 1723SOL    HW3 6659   1.555   5.417   2.929 -0.8732  0.4348 -0.0131
 1723SOL    MW4 6660   1.587   5.420   2.848 -0.6341 -0.3885  0.0432
 1724SOL     OW 6661   1.412   2.467   0.741  0.1684 -0.2283  0.0756
 1724SOL    HW2 6662   1.412   2.393   0.680  1.4198  0.7963 -1.2285
 1724SOL    HW3 6663   1.503   2.496   0.745 -0.3957  1.7719 -0.1420
 1724SOL    MW4 6664   1.424   2.461   0.734  0.2591  0.1708 -0.1251
 1725SOL     OW 6665   6.078   0.220   4.877  0.4121  0.4972  0.0483
 1725SOL    HW2 6666   6.168   0.242   4.898  0.4266 -0.4034  1.0159
 1725SOL    HW3 6667   6.028   0.248   4.953 -0.1489  1.0729 -0.5211
 1725SOL    MW4 6668   6.083   0.226   4.890  0.3400  0.4544  0.1008
 1726SOL     OW 6669   4.788   1.011   1.717  0.2642  0.9643  0.6059
 1726SOL    HW2 6670   4.831   1.083   1.764  2.0802 -0.0220  0.5531
 1726SOL    HW3 6671   4.745   1.053   1.643  0.3292  2.1296  1.2016
 1726SOL    MW4 6672   4.788   1.026   1.714  0.5124  0.9879  0.6775
 1727SOL     OW 6673   2.446   3.864   0.813 -0.5448  0.8008 -0.2392
 1727SOL    HW2 6674   2.393   3.923   0.759 -1.1381 -0.0079 -0.5536
 1727SOL    HW3 6675   2.480   3.920   0.883 -0.9752  1.5454 -0.6140
 1727SOL    MW4 6676   2.444   3.879   0.815 -0.6799  0.7923 -0.3302
 1728SOL     OW 6677   3.575   5.424   5.024  0.1511 -0.1360 -0.2417
 1728SOL    HW2 6678   3.494   5.418   5.075  0.2604 -2.2598 -0.2237
 1728SOL    HW3 6679   3.586   5.518   5.008 -1.3814  0.3543  1.2300
 1728SOL    MW4 6680   3.566   5.436   5.029 -0.0367 -0.3515 -0.0451
 1729SOL     OW 6681   1.727   4.405   1.090  0.0830  0.0898  0.1228
 1729SOL    HW2 6682   1.683   4.451   1.019 -1.9645 -0.3322  1.0435
 1729SOL    HW3 6683   1.705   4.313   1.078 -0.2953  0.0089  1.2869
 1729SOL    MW4 6684   1.719   4.399   1.079 -0.2370  0.0235  0.3979
 1730SOL     OW 6685   5.215   2.571   4.789  0.3734 -0.4140 -0.4355
 1730SOL    HW2 6686   5.277   2.509   4.750  0.2278 -0.9954  0.2450
 1730SOL    HW3 6687   5.254   2.657   4.771  0.0650 -0.6063 -2.3000
 1730SOL    MW4 6688   5.228   2.575   4.781  0.3135 -0.5161 -0.5917
 1731SOL     OW 6689   0.900   2.889   0.864  0.4162  0.4521  0.0622
 1731SOL    HW2 6690   0.818   2.930   0.836  1.1849  2.4431  0.5450
 1731SOL    HW3 6691   0.909   2.813   0.807 -2.3162 -0.5346  0.7614
 1731SOL    MW4 6692   0.890   2.885   0.853  0.1571  0.5846  0.2181
 1732SOL     OW 6693   0.931   1.051   0.328  0.2376  0.3433 -0.2049
 1732SOL    HW2 6694   0.849   1.006   0.352 -0.0428 -0.7862 -2.8412
 1732SOL    HW3 6695   0.905   1.142   0.313 -0.7179 -0.1220 -1.5800
 1732SOL    MW4 6696   0.917   1.057   0.329  0.0746  0.1329 -0.7342
 1733SOL     OW 6697   1.804   1.741   5.926  0.5196  0.1229  0.0982
 1733SOL    HW2 6698   1.850   1.658   5.935  0.0509 -0.3464 -1.3942
 1733SOL    HW3 6699   1.845   1.783   5.850  0.0198  0.7303  0.1540
 1733SOL    MW4 6700   1.815   1.736   5.917  0.3918  0.1411 -0.0913
 1734SOL     OW 6701   4.384   4.490   4.818  0.1592  0.1950  0.5329
 1734SOL    HW2 6702   4.334   4.423   4.771  0.8483 -1.5627  2.1851
 1734SOL    HW3 6703   4.443   4.526   4.752 -2.4780  1.6168 -1.2167
 1734SOL    MW4 6704   4.385   4.486   4.803 -0.0978  0.1507  0.5201
 1735SOL     OW 6705   5.340   3.563   3.445 -0.0689 -0.4849  0.5194
 1735SOL    HW2 6706   5.417   3.513   3.474 -0.2490 -1.3316 -0.4220
 1735SOL    HW3 6707   5.265   3.514   3.478 -0.2299 -0.3522  0.3563
 1735SOL    MW4 6708   5.340   3.550   3.453 -0.1139 -0.5791  0.3736
 1736SOL     OW 6709   2.968   5.130   3.472 -0.3075  0.5780  0.1351
 1736SOL    HW2 6710   2.883   5.162   3.444 -0.3085  0.1958 -0.3082
 1736SOL    HW3 6711   2.966   5.134   3.568 -1.4276 -0.9433  0.2101
 1736SOL    MW4 6712   2.957   5.135   3.481 -0.4554  0.3269  0.0865
 1737SOL     OW 6713   3.411   2.609   5.836 -0.2730 -0.2814  0.0641
 1737SOL    HW2 6714   3.442   2.612   5.746 -1.3206 -0.4051 -0.3130
 1737SOL    HW3 6715   3.334   2.553   5.834  0.4023 -1.3054  1.2740
 1737SOL    MW4 6716   3.405   2.602   5.824 -0.3221 -0.4328  0.1740
 1738SOL     OW 6717   3.362   1.587   0.253  0.0931 -0.3695 -0.1744
 1738SOL    HW2 6718   3.390   1.678   0.241  0.8770 -0.6038 -0.2006
 1738SOL    HW3 6719   3.304   1.589   0.329 -0.5490  0.2784 -0.6813
 1738SOL    MW4 6720   3.358   1.599   0.262  0.1118 -0.3150 -0.2447
 1739SOL     OW 6721   4.108   3.255   0.002  0.1813 -0.8496  0.2606
 1739SOL    HW2 6722   4.132   3.314  -0.069 -0.6645  0.5168  1.0615
 1739SOL    HW3 6723   4.178   3.265   0.066 -0.8137  0.6970  1.1785
 1739SOL    MW4 6724   4.121   3.264   0.001 -0.0616 -0.4653  0.4874
 1740SOL     OW 6725   3.863   0.151   2.096  0.5929  0.3603  0.2943
 1740SOL    HW2 6726   3.827   0.093   2.029  0.2867  1.6648 -0.6991
 1740SOL    HW3 6727   3.861   0.238   2.056 -1.3509  1.5158  2.6540
 1740SOL    MW4 6728   3.858   0.155   2.082  0.2960  0.6848  0.4746
 1741SOL     OW 6729   2.413   3.353   5.986  0.1553 -0.1090 -0.0707
 1741SOL    HW2 6730   2.422   3.267   5.946  1.1862 -0.0947  0.1223
 1741SOL    HW3 6731   2.460   3.412   5.928  0.4390  0.1402  0.4125
 1741SOL    MW4 6732   2.420   3.350   5.973  0.3288 -0.0743  0.0185
 1742SOL     OW 6733   4.339   1.982   4.239  0.6650  0.4875  0.0989
 1742SOL    HW2 6734   4.346   2.006   4.331  2.2360 -0.5297  0.2800
 1742SOL    HW3 6735   4.270   1.916   4.236 -1.3647  2.4749  0.0739
 1742SOL    MW4 6736   4.331   1.977   4.251  0.6045  0.6155  0.1195
 1743SOL     OW 6737   3.026   6.414   1.445  0.1146 -0.0163 -0.3521
 1743SOL    HW2 6738   2.987   6.350   1.504  0.8566  1.3304  1.7230
 1743SOL    HW3 6739   2.959   6.482   1.435  0.0102 -0.2150 -1.0335
 1743SOL    MW4 6740   3.012   6.415   1.452  0.1987  0.1352 -0.1682
 1744SOL     OW 6741   4.175   6.193   2.286 -0.2161 -0.0248 -0.1884
 1744SOL    HW2 6742   4.206   6.149   2.207  0.0255  0.5429 -0.4200
 1744SOL    HW3 6743   4.198   6.135   2.358  0.7812  0.0813 -0.4191
 1744SOL    MW4 6744   4.182   6.180   2.285 -0.0527  0.0641 -0.2494
 1745SOL     OW 6745   3.672   2.016   1.255  0.0896 -0.3575 -0.5400
 1745SOL    HW2 6746   3.762   1.983   1.254  0.3054  0.0634  1.3189
 1745SOL    HW3 6747   3.617   1.937   1.253  0.5483 -0.7103  0.3575
 1745SOL    MW4 6748   3.676   2.001   1.255  0.1786 -0.3485 -0.1763
 1746SOL     OW 6749   0.639   5.581   0.846  0.1986  0.2401 -0.0831
 1746SOL    HW2 6750   0.662   5.639   0.774 -2.8881  2.7372  0.6996
 1746SOL    HW3 6751   0.545   5.596   0.860  0.6483  0.2376  4.6415
 1746SOL    MW4 6752   0.629   5.590   0.839 -0.1493  0.5692  0.6436
 1747SOL     OW 6753   1.648   4.340   2.325  0.2547 -0.5745  0.1561
 1747SOL    HW2 6754   1.636   4.253   2.362 -0.2648 -0.6295 -0.1310
 1747SOL    HW3 6755   1.652   4.398   2.401 -0.2354 -0.7517  0.3235
 1747SOL    MW4 6756   1.647   4.336   2.340  0.1215 -0.6052  0.1403
 1748SOL     OW 6757   5.358   6.297   5.496 -0.6581 -0.5955  0.0612
 1748SOL    HW2 6758   5.389   6.372   5.547  0.2913 -1.9958  1.6607
 1748SOL    HW3 6759   5.316   6.336   5.420 -1.2120  1.5852  1.3792
 1748SOL    MW4 6760   5.357   6.312   5.493 -0.6059 -0.4926  0.4461
 1749SOL     OW 6761   2.859   2.016   1.921  0.7328 -0.5482 -0.5422
 1749SOL    HW2 6762   2.815   2.058   1.995 -1.6624 -1.5000 -1.3480
 1749SOL    HW3 6763   2.895   2.089   1.871 -1.8714  0.5315 -1.0084
 1749SOL    MW4 6764   2.858   2.031   1.924  0.0732 -0.5313 -0.7100
 1750SOL     OW 6765   5.851   5.862   0.310 -0.2504 -0.5353 -0.8498
 1750SOL    HW2 6766   5.831   5.846   0.218 -1.8215 -0.0483 -0.6204
 1750SOL    HW3 6767   5.810   5.790   0.356  1.3611 -1.3251 -0.5550
 1750SOL    MW4 6768   5.843   5.851   0.304 -0.2451 -0.5753 -0.7807
 1751SOL     OW 6769   4.540   1.624   0.248  0.2111  0.3030 -0.0379
 1751SOL    HW2 6770   4.537   1.568   0.325  1.8158 -0.8636 -0.7682
 1751SOL    HW3 6771   4.465   1.597   0.196  1.3802 -1.8206 -0.7507
 1751SOL    MW4 6772   4.530   1.613   0.251  0.5771 -0.1311 -0.2283
 1752SOL     OW 6773   0.828   5.657   5.736 -0.3976 -0.0106  0.1761
 1752SOL    HW2 6774   0.873   5.606   5.669 -0.3976  0.0839  0.1045
 1752SOL    HW3 6775   0.777   5.592   5.785 -1.6350  0.1080 -0.8985
 1752SOL    MW4 6776   0.827   5.642   5.734 -0.5608  0.0175  0.0249
 1753SOL     OW 6777   4.403   1.011   3.819  0.2591  0.3222 -0.3695
 1753SOL    HW2 6778   4.438   1.031   3.906 -0.0744 -0.3215 -0.0817
 1753SOL    HW3 6779   4.329   1.071   3.810  0.3012  0.4004 -0.2171
 1753SOL    MW4 6780   4.398   1.022   3.830  0.2207  0.2476 -0.3115
 1754SOL     OW 6781   3.580   0.943   2.108 -0.1412  0.3571 -0.2893
 1754SOL    HW2 6782   3.675   0.932   2.105 -0.2522 -0.4794 -0.9659
 1754SOL    HW3 6783   3.546   0.857   2.133 -0.6337  1.1530  2.0803
 1754SOL    MW4 6784   3.588   0.930   2.111 -0.2208  0.3518 -0.0659
 1755SOL     OW 6785   2.785   0.002   0.194  0.2987 -0.1857  0.4858
 1755SOL    HW2 6786   2.771   0.034   0.105 -0.4166  0.5329  0.8508
 1755SOL    HW3 6787   2.774  -0.093   0.187 -1.4287  0.0192  0.1091
 1755SOL    MW4 6788   2.782  -0.007   0.181 -0.0236 -0.0638  0.4842
 1756SOL     OW 6789   2.477   5.015   2.910 -0.0732  0.1623 -0.3448
 1756SOL    HW2 6790   2.471   4.964   2.990 -1.4237 -0.2637 -0.6927
 1756SOL    HW3 6791   2.408   5.080   2.918  1.1035  1.4426 -0.2754
 1756SOL    MW4 6792   2.467   5.017   2.921 -0.0961  0.2750 -0.3815
 1757SOL     OW 6793   4.443   3.761   4.762 -0.4511 -0.3251  0.0096
 1757SOL    HW2 6794   4.491   3.813   4.826 -0.2542  0.2331 -0.5831
 1757SOL    HW3 6795   4.511   3.720   4.708 -0.6207 -0.3411 -0.1952
 1757SOL    MW4 6796   4.458   3.762   4.763 -0.4475 -0.2536 -0.0956
 1758SOL     OW 6797   1.378   3.653   4.614 -0.0174 -0.5131  0.1919
 1758SOL    HW2 6798   1.305   3.592   4.596  0.1964 -0.3186 -1.4778
 1758SOL    HW3 6799   1.456   3.605   4.585  0.3141 -0.0121  0.2556
 1758SOL    MW4 6800   1.379   3.638   4.607  0.0546 -0.4214 -0.0200
 1759SOL     OW 6801   5.678   0.198   0.772 -0.2150  0.0481  0.5382
 1759SOL    HW2 6802   5.585   0.219   0.781 -0.2134  0.2133  0.2035
 1759SOL    HW3 6803   5.685   0.106   0.796 -0.5350 -0.0816  0.1408
 1759SOL    MW4 6804   5.667   0.189   0.776 -0.2570  0.0528  0.4416
 1760SOL     OW 6805   1.395   2.591   5.722  0.1379 -0.1198  0.4830
 1760SOL    HW2 6806   1.314   2.636   5.748 -0.6216 -0.9670 -0.3444
 1760SOL    HW3 6807   1.427   2.641   5.646  0.1931 -0.0067  0.5799
 1760SOL    MW4 6808   1.388   2.604   5.715  0.0450 -0.2166  0.3866
 1761SOL     OW 6809   5.867   3.624   5.555 -0.1919  0.4765  0.0381
 1761SOL    HW2 6810   5.896   3.534   5.541 -0.6304 -0.5417  4.3788
 1761SOL    HW3 6811   5.947   3.671   5.579 -0.3223  0.6752  0.0803
 1761SOL    MW4 6812   5.881   3.618   5.556 -0.2670  0.3684  0.6164
 1762SOL     OW 6813   1.200   4.891   1.245  0.3811  0.0155  0.3425
 1762SOL    HW2 6814   1.287   4.852   1.241  1.3576  2.0999  0.2123
 1762SOL    HW3 6815   1.196   4.950   1.170 -1.7057 -1.0367 -0.4769
 1762SOL    MW4 6816   1.211   4.894   1.234  0.2346  0.1517  0.2172
 1763SOL     OW 6817   1.984   3.401   2.634  1.1011 -0.1658 -0.3659
 1763SOL    HW2 6818   1.901   3.363   2.606  1.9472 -1.2235 -1.5665
 1763SOL    HW3 6819   2.008   3.461   2.563  1.4892 -0.0481 -0.1363
 1763SOL    MW4 6820   1.976   3.404   2.621  1.2639 -0.2898 -0.4940
 1764SOL     OW 6821   3.431   4.714   2.839 -0.0413  0.1255 -0.1067
 1764SOL    HW2 6822   3.410   4.775   2.911 -2.1624 -0.4715 -0.1545
 1764SOL    HW3 6823   3.464   4.636   2.883 -0.2511  0.1822  0.1567
 1764SOL    MW4 6824   3.432   4.712   2.855 -0.3488  0.0543 -0.0782
 1765SOL     OW 6825   0.786   0.387   2.891 -0.0667  0.9656  0.1355
 1765SOL    HW2 6826   0.838   0.312   2.863  1.1632  0.9470  2.2429
 1765SOL    HW3 6827   0.696   0.357   2.889  0.0962  0.4685 -2.0378
 1765SOL    MW4 6828   0.781   0.373   2.887  0.1171  0.8976  0.1268
 1766SOL     OW 6829   6.153   4.961   3.900 -0.1356 -0.1421  0.3178
 1766SOL    HW2 6830   6.086   5.020   3.865 -0.1088  0.1116  0.6938
 1766SOL    HW3 6831   6.230   5.015   3.913 -0.3000 -0.1086  1.2588
 1766SOL    MW4 6832   6.154   4.976   3.897 -0.1538 -0.1042  0.4916
 1767SOL     OW 6833   6.224   3.173   2.686 -0.4670 -0.3345 -0.1554
 1767SOL    HW2 6834   6.260   3.211   2.606  2.0565 -2.1811 -0.0481
 1767SOL    HW3 6835   6.203   3.248   2.742  1.0352  0.9442 -1.2222
 1767SOL    MW4 6836   6.226   3.188   2.683  0.0641 -0.4094 -0.2820
 1768SOL     OW 6837   4.690   2.031   2.353  0.5526  0.0455  0.6863
 1768SOL    HW2 6838   4.724   1.977   2.424  0.5014  0.7616  1.2679
 1768SOL    HW3 6839   4.654   1.968   2.290  0.0253 -0.5804  1.5887
 1768SOL    MW4 6840   4.689   2.015   2.354  0.4762  0.0574  0.8821
 1769SOL     OW 6841   4.467   0.977   4.662  0.2296 -0.3780  0.0987
 1769SOL    HW2 6842   4.522   1.043   4.705  1.3015 -0.0007 -1.7447
 1769SOL    HW3 6843   4.528   0.926   4.608 -0.8315 -1.8058  0.1760
 1769SOL    MW4 6844   4.482   0.979   4.661  0.2310 -0.5166 -0.1343
 1770SOL     OW 6845   4.016   3.010   5.468 -0.5710  0.2393 -0.3259
 1770SOL    HW2 6846   3.957   3.043   5.535  1.8178  1.2833  1.4072
 1770SOL    HW3 6847   3.969   3.023   5.385 -2.1208  2.5281  0.8113
 1770SOL    MW4 6848   4.002   3.016   5.466 -0.4603  0.6790  0.0528
 1771SOL     OW 6849   1.926   3.123   3.800  0.1897 -0.6436  0.1036
 1771SOL    HW2 6850   1.990   3.122   3.871  0.9058  1.0648 -0.4792
 1771SOL    HW3 6851   1.843   3.100   3.843  1.0597 -2.4082  0.9479
 1771SOL    MW4 6852   1.923   3.120   3.815  0.3990 -0.6510  0.1381
 1772SOL     OW 6853   6.231   3.607   4.394 -0.1834  1.2386  0.6290
 1772SOL    HW2 6854   6.230   3.547   4.320 -0.5215  1.8552  0.1177
 1772SOL    HW3 6855   6.245   3.693   4.354 -2.7190  1.9112  0.9948
 1772SOL    MW4 6856   6.233   3.611   4.379 -0.5626  1.4087  0.6098
 1773SOL     OW 6857   4.196   0.196   5.419  0.5796 -0.3700  0.3815
 1773SOL    HW2 6858   4.232   0.137   5.485  1.7303 -2.2297 -1.7358
 1773SOL    HW3 6859   4.234   0.282   5.439  1.0664 -0.9354  1.9644
 1773SOL    MW4 6860   4.206   0.200   5.430  0.7956 -0.6900  0.3110
 1774SOL     OW 6861   4.454   5.855   3.488  0.7696 -0.5640 -0.3400
 1774SOL    HW2 6862   4.520   5.925   3.492  1.1356 -0.9392  0.8462
 1774SOL    HW3 6863   4.370   5.900   3.489  0.9943 -0.0866 -1.5774
 1774SOL    MW4 6864   4.452   5.870   3.489  0.8476 -0.5505 -0.3468
 1775SOL     OW 6865   6.379   0.440   3.339  0.9235  0.2365 -0.2125
 1775SOL    HW2 6866   6.453   0.493   3.372  1.1690 -0.4352  0.3394
 1775SOL    HW3 6867   6.394   0.435   3.245  1.2435  0.6207 -0.1883
 1775SOL    MW4 6868   6.391   0.447   3.331  0.9981  0.1985 -0.1365
 1776SOL     OW 6869   3.071   0.778   1.059 -0.3896 -0.2089 -0.0877
 1776SOL    HW2 6870   3.040   0.738   1.140  1.3058 -0.7718  0.3107
 1776SOL    HW3 6871   3.150   0.825   1.084 -1.0759  1.5549 -0.9959
 1776SOL    MW4 6872   3.077   0.779   1.073 -0.2565 -0.0504 -0.1550
 1777SOL     OW 6873   2.460   0.619   1.368 -0.0974 -0.7859 -0.0378
 1777SOL    HW2 6874   2.501   0.579   1.292  0.2707 -1.6260  0.5855
 1777SOL    HW3 6875   2.443   0.546   1.428 -0.1060 -0.1135  0.8104
 1777SOL    MW4 6876   2.463   0.604   1.366 -0.0499 -0.8080  0.1564
 1778SOL     OW 6877   5.534   2.230   3.947 -0.5940 -0.4771 -0.1095
 1778SOL    HW2 6878   5.533   2.300   3.881  0.3694 -1.4552 -1.2132
 1778SOL    HW3 6879   5.473   2.165   3.913  1.2445 -1.8047 -1.0269
 1778SOL    MW4 6880   5.526   2.231   3.934 -0.2243 -0.7813 -0.3761
 1779SOL     OW 6881   0.086   1.620   1.362 -0.3961 -0.2614 -0.8796
 1779SOL    HW2 6882   0.147   1.652   1.428  0.8858 -0.6048 -1.8717
 1779SOL    HW3 6883   0.016   1.686   1.360 -0.0727  0.1350  0.2638
 1779SOL    MW4 6884   0.085   1.633   1.370 -0.1843 -0.2544 -0.8597
 1780SOL     OW 6885   4.899   0.886   3.929  0.3652 -0.0253  0.3934
 1780SOL    HW2 6886   4.867   0.968   3.890  1.2917 -0.6234 -1.7845
 1780SOL    HW3 6887   4.825   0.825   3.920 -0.4998  0.6527  2.4691
 1780SOL    MW4 6888   4.885   0.889   3.923  0.3733 -0.0147  0.3799
 1781SOL     OW 6889   1.255   6.305   5.761  0.2393  0.4292 -0.3545
 1781SOL    HW2 6890   1.211   6.366   5.702  0.2154 -0.6718 -1.5094
 1781SOL    HW3 6891   1.347   6.330   5.758 -0.0315  1.7409  0.8590
 1781SOL    MW4 6892   1.261   6.316   5.753  0.2004  0.4570 -0.3468
 1782SOL     OW 6893   3.382   6.332   6.301  0.4721  0.1299 -0.4767
 1782SOL    HW2 6894   3.443   6.259   6.290 -1.5106 -2.3378  2.9690
 1782SOL    HW3 6895   3.301   6.303   6.261 -0.1788  0.7001  0.3903
 1782SOL    MW4 6896   3.379   6.319   6.294  0.1246 -0.1205  0.0923
 1783SOL     OW 6897   1.272   4.426   5.232  0.3159  0.1820  0.1365
 1783SOL    HW2 6898   1.322   4.471   5.300 -3.4805  2.2560  1.8635
 1783SOL    HW3 6899   1.242   4.345   5.273  0.1771  0.1579 -0.0114
 1783SOL    MW4 6900   1.275   4.421   5.246 -0.2033  0.4524  0.3448
 1784SOL     OW 6901   0.344   1.425   1.714 -0.1769  0.3307 -0.2032
 1784SOL    HW2 6902   0.304   1.378   1.642 -1.9348  0.7022  0.4913
 1784SOL    HW3 6903   0.438   1.416   1.699 -0.4886 -1.1385 -1.5129
 1784SOL    MW4 6904   0.351   1.418   1.703 -0.4499  0.1859 -0.2844
 1785SOL     OW 6905   5.380   0.306   0.313 -0.6713 -0.2110 -0.1247
 1785SOL    HW2 6906   5.407   0.396   0.329 -0.9806  0.2823 -2.0396
 1785SOL    HW3 6907   5.438   0.276   0.243 -1.5587 -0.9671 -0.5673
 1785SOL    MW4 6908   5.391   0.314   0.306 -0.8292 -0.2457 -0.4357
 1786SOL     OW 6909   0.461   0.792   3.286  0.7826 -0.3572 -0.0049
 1786SOL    HW2 6910   0.467   0.789   3.381  0.3928  0.5664  0.0621
 1786SOL    HW3 6911   0.368   0.809   3.268  1.0969  0.9885 -0.4901
 1786SOL    MW4 6912   0.449   0.794   3.296  0.7727 -0.0578 -0.0601
 1787SOL     OW 6913   4.016   6.171   4.045  0.1275  0.0369  0.1164
 1787SOL    HW2 6914   4.084   6.197   3.982  1.5137  0.1755  1.6030
 1787SOL    HW3 6915   4.025   6.076   4.051 -0.0999  0.0087  0.0003
 1787SOL    MW4 6916   4.026   6.162   4.037  0.2804  0.0515  0.2972
 1788SOL     OW 6917   2.423   3.464   1.212 -0.3832 -0.0927 -0.2220
 1788SOL    HW2 6918   2.454   3.414   1.287  0.5360  0.3254 -0.3105
 1788SOL    HW3 6919   2.461   3.419   1.136  1.1043  1.1566 -0.2600
 1788SOL    MW4 6920   2.432   3.451   1.211 -0.0656  0.1273 -0.2387
 1789SOL     OW 6921   3.614   2.999   4.421  0.1425 -0.4403 -0.1947
 1789SOL    HW2 6922   3.612   3.086   4.383 -0.6264  0.2373  1.3415
 1789SOL    HW3 6923   3.558   2.946   4.364 -1.2563  0.6232  0.1500
 1789SOL    MW4 6924   3.607   3.003   4.409 -0.1435 -0.2106  0.0535
 1790SOL     OW 6925   2.164   3.703   4.009 -0.1524 -0.1267  0.0164
 1790SOL    HW2 6926   2.172   3.751   4.092  1.0556 -0.4818  0.1342
 1790SOL    HW3 6927   2.199   3.616   4.029  2.3086  0.4312 -1.3711
 1790SOL    MW4 6928   2.170   3.698   4.023  0.3317 -0.0999 -0.1512
 1791SOL     OW 6929   6.157   2.902   1.987  0.3020  0.3203  0.0210
 1791SOL    HW2 6930   6.174   2.864   1.901  1.2098  1.1534 -0.1886
 1791SOL    HW3 6931   6.101   2.978   1.970  0.5902  0.5634  0.1464
 1791SOL    MW4 6932   6.152   2.907   1.973  0.4598  0.4623  0.0099
 1792SOL     OW 6933   0.630   5.673   2.714 -0.3732  0.1320 -0.6368
 1792SOL    HW2 6934   0.708   5.728   2.722 -1.8970  2.4608 -0.9385
 1792SOL    HW3 6935   0.623   5.629   2.798  1.0853  0.1006 -0.4982
 1792SOL    MW4 6936   0.640   5.674   2.726 -0.3818  0.4351 -0.6583
 1793SOL     OW 6937   6.377   1.244   0.196 -0.1697 -0.4545 -0.5396
 1793SOL    HW2 6938   6.356   1.169   0.252 -2.8077 -1.5491 -2.7506
 1793SOL    HW3 6939   6.294   1.291   0.186  0.8797  1.3577 -1.1922
 1793SOL    MW4 6940   6.363   1.240   0.202 -0.3793 -0.3598 -0.9174
 1794SOL     OW 6941   6.210   4.882   5.441  0.1870  0.2310 -0.4092
 1794SOL    HW2 6942   6.217   4.897   5.535  2.4406  0.3436 -0.5515
 1794SOL    HW3 6943   6.125   4.838   5.430 -0.4434  0.8575  1.5633
 1794SOL    MW4 6944   6.200   4.878   5.452  0.4012  0.3285 -0.1677
 1795SOL     OW 6945   2.109   6.105   2.767  0.5469 -0.4622  1.0486
 1795SOL    HW2 6946   2.151   6.181   2.727 -0.2499  0.4208  1.8525
 1795SOL    HW3 6947   2.046   6.142   2.829  0.5334 -1.7812  1.8549
 1795SOL    MW4 6948   2.106   6.120   2.770  0.4400 -0.5197  1.2610
 1796SOL     OW 6949   2.726   2.490   1.448  0.4924  0.2518 -0.1581
 1796SOL    HW2 6950   2.728   2.422   1.381 -0.2363  1.0380 -1.0150
 1796SOL    HW3 6951   2.676   2.452   1.520  0.6790 -0.3557 -0.3439
 1796SOL    MW4 6952   2.719   2.476   1.449  0.4209  0.2754 -0.2957
 1797SOL     OW 6953   1.520   5.619   1.585  0.0917 -0.3456  0.0420
 1797SOL    HW2 6954   1.463   5.561   1.535 -0.2004  0.3801 -0.4773
 1797SOL    HW3 6955   1.605   5.614   1.541  0.0827 -0.4233  0.0338
 1797SOL    MW4 6956   1.524   5.611   1.573  0.0520 -0.2601 -0.0276
 1798SOL     OW 6957   5.069   3.714   2.350 -0.2871 -0.1904  0.0403
 1798SOL    HW2 6958   5.118   3.646   2.397 -0.1015  0.7747  1.3003
 1798SOL    HW3 6959   4.984   3.675   2.332  0.4114 -1.3668 -0.8320
 1798SOL    MW4 6960   5.064   3.700   2.354 -0.1705 -0.2183  0.0915
 1799SOL     OW 6961   4.171   0.694   1.158  0.0870  0.1677 -0.1831
 1799SOL    HW2 6962   4.265   0.690   1.137  0.5183  0.3805  1.5274
 1799SOL    HW3 6963   4.138   0.607   1.136  0.7475 -0.0120 -0.5119
 1799SOL    MW4 6964   4.179   0.682   1.152  0.2311  0.1721 -0.0008
 1800SOL     OW 6965   0.469   3.649   5.423  0.2056  0.1697  0.4173
 1800SOL    HW2 6966   0.502   3.703   5.352  1.2360 -0.4012  0.4380
 1800SOL    HW3 6967   0.545   3.634   5.479 -0.2805 -0.5070  0.9131
 1800SOL    MW4 6968   0.483   3.654   5.421  0.2774  0.0051  0.4855
 1801SOL     OW 6969   1.942   3.544   2.907  0.2579  0.6930 -0.0163
 1801SOL    HW2 6970   1.967   3.485   2.836  0.5756 -0.1976  0.8167
 1801SOL    HW3 6971   1.871   3.498   2.953 -0.2520  1.4575 -0.0059
 1801SOL    MW4 6972   1.936   3.530   2.904  0.2326  0.6763  0.0950
 1802SOL     OW 6973   0.360   6.095   3.924 -0.4587  0.4475 -0.1827
 1802SOL    HW2 6974   0.340   6.133   4.009 -1.1033  0.6265 -0.4050
 1802SOL    HW3 6975   0.276   6.095   3.877  0.1268  1.5537 -1.2884
 1802SOL    MW4 6976   0.346   6.100   3.929 -0.4665  0.6171 -0.3579
 1803SOL     OW 6977   5.052   2.121   6.178  0.3328 -0.5811  0.1381
 1803SOL    HW2 6978   5.113   2.165   6.236 -0.0568  1.7582 -1.0841
 1803SOL    HW3 6979   4.972   2.174   6.183  0.2585 -0.3284 -2.3759
 1803SOL    MW4 6980   5.049   2.134   6.186  0.2716 -0.2391 -0.3548
 1804SOL     OW 6981   5.161   3.268   2.699  0.9261  0.0324 -0.3570
 1804SOL    HW2 6982   5.094   3.331   2.674 -0.3326 -0.2389  2.0268
 1804SOL    HW3 6983   5.163   3.204   2.627 -1.7509 -0.2121 -0.2991
 1804SOL    MW4 6984   5.152   3.268   2.686  0.4068 -0.0357 -0.0348
 1805SOL     OW 6985   6.198   0.298   6.112  0.1454 -0.4173  0.4222
 1805SOL    HW2 6986   6.137   0.246   6.164  2.5204 -2.9495  0.9400
 1805SOL    HW3 6987   6.196   0.384   6.152  0.0290 -1.5928  3.1850
 1805SOL    MW4 6988   6.190   0.302   6.124  0.4434 -0.9065  0.8550
 1806SOL     OW 6989   3.889   0.565   3.757 -0.2054  0.1516  0.4424
 1806SOL    HW2 6990   3.973   0.586   3.715 -1.0495  2.3427 -0.3360
 1806SOL    HW3 6991   3.884   0.470   3.754  3.2611 -0.2703  2.5932
 1806SOL    MW4 6992   3.900   0.555   3.751  0.1406  0.3850  0.6235
 1807SOL     OW 6993   6.162   1.833   6.000 -0.1094 -0.7644 -0.0581
 1807SOL    HW2 6994   6.169   1.838   6.095 -0.9566 -1.3209  0.0451
 1807SOL    HW3 6995   6.249   1.854   5.968 -0.2758  1.4156  0.7622
 1807SOL    MW4 6996   6.174   1.836   6.008 -0.2432 -0.5502  0.0638
 1808SOL     OW 6997   4.471   4.610   5.309 -0.1654 -0.1072 -0.2257
 1808SOL    HW2 6998   4.543   4.586   5.367  0.6701 -0.8077 -1.5111
 1808SOL    HW3 6999   4.447   4.699   5.337  1.1531  0.1195  0.2672
 1808SOL    MW4 7000   4.478   4.619   5.320  0.1188 -0.1697 -0.3303
 1809SOL     OW 7001   0.120   3.561   5.380 -0.0215  0.3073  0.3035
 1809SOL    HW2 7002   0.039   3.544   5.429  0.1213 -2.1457 -0.1435
 1809SOL    HW3 7003   0.175   3.612   5.439 -0.8075 -0.4712  1.7415
 1809SOL    MW4 7004   0.117   3.565   5.394 -0.1064 -0.1191  0.4343
 1810SOL     OW 7005   4.850   0.229   5.175  0.3551  0.2010  0.5508
 1810SOL    HW2 7006   4.857   0.191   5.088  2.3349  0.4135  0.5704
 1810SOL    HW3 7007   4.907   0.175   5.230 -0.2018  0.5796  1.5328
 1810SOL    MW4 7008   4.859   0.217   5.171  0.5428  0.2790  0.6830
 1811SOL     OW 7009   3.425   4.965   5.124  0.9481  0.8740 -0.4648
 1811SOL    HW2 7010   3.440   4.871   5.112  0.2429  0.8016 -0.7876
 1811SOL    HW3 7011   3.494   4.992   5.185  0.4501 -0.0826  0.5458
 1811SOL    MW4 7012   3.436   4.956   5.131  0.7893  0.7382 -0.3741
 1812SOL     OW 7013   3.759   4.294   2.681  0.0190 -0.1679  0.5199
 1812SOL    HW2 7014   3.669   4.290   2.714 -0.0673 -0.9750  0.2236
 1812SOL    HW3 7015   3.796   4.208   2.701  0.1697 -0.4559 -0.8470
 1812SOL    MW4 7016   3.752   4.282   2.688  0.0275 -0.3124  0.3005
 1813SOL     OW 7017   2.712   1.655   0.132  0.8314 -0.0870 -0.0029
 1813SOL    HW2 7018   2.644   1.617   0.076  1.2705  0.9329 -1.2728
 1813SOL    HW3 7019   2.745   1.729   0.082  1.8687  0.3155  1.2438
 1813SOL    MW4 7020   2.707   1.659   0.118  1.0262  0.1006 -0.0059
 1814SOL     OW 7021   5.283   1.070   4.857 -0.2107 -0.3741  0.1530
 1814SOL    HW2 7022   5.225   1.125   4.805 -0.3988  0.4245  1.1778
 1814SOL    HW3 7023   5.225   1.007   4.899 -0.2735  0.0721  0.7405
 1814SOL    MW4 7024   5.268   1.069   4.856 -0.2438 -0.2098  0.3657
 1815SOL     OW 7025   4.080   3.052   5.857  0.5680 -0.1486  0.1822
 1815SOL    HW2 7026   4.147   3.120   5.863  1.8288 -1.3855  0.5066
 1815SOL    HW3 7027   4.129   2.970   5.853 -0.9012 -1.0081 -1.0476
 1815SOL    MW4 7028   4.095   3.050   5.857  0.5405 -0.4252  0.0628
 1816SOL     OW 7029   2.342   3.025   5.525  0.8148 -0.3659 -0.1985
 1816SOL    HW2 7030   2.306   2.958   5.466  3.2782  0.6114 -3.0808
 1816SOL    HW3 7031   2.267   3.078   5.551 -0.7438 -2.4378 -0.2613
 1816SOL    MW4 7032   2.327   3.023   5.521  0.9342 -0.5104 -0.5871
 1817SOL     OW 7033   1.195   2.597   2.114  0.0370 -0.5815 -0.5278
 1817SOL    HW2 7034   1.216   2.616   2.022 -0.2933  0.1052 -0.4731
 1817SOL    HW3 7035   1.223   2.507   2.127  1.8634 -0.0829 -0.7595
 1817SOL    MW4 7036   1.201   2.588   2.104  0.2344 -0.4251 -0.5511
 1818SOL     OW 7037   3.464   4.191   1.605 -0.0436  0.1263 -0.0446
 1818SOL    HW2 7038   3.430   4.262   1.659 -1.9992 -1.4768  0.9817
 1818SOL    HW3 7039   3.471   4.116   1.665 -0.8976 -1.3380 -1.6654
 1818SOL    MW4 7040   3.460   4.190   1.620 -0.4143 -0.2784 -0.1230
 1819SOL     OW 7041   2.531   4.526   2.592 -0.1579  0.4430  0.2467
 1819SOL    HW2 7042   2.481   4.541   2.512  0.4780 -0.9085 -0.4359
 1819SOL    HW3 7043   2.616   4.566   2.574 -0.0555  0.2439  0.2840
 1819SOL    MW4 7044   2.536   4.533   2.579 -0.0605  0.2384  0.1616
 1820SOL     OW 7045   0.441   0.706   1.091 -0.3908 -0.7829 -0.1116
 1820SOL    HW2 7046   0.473   0.653   1.019  0.2900  0.0852 -0.4657
 1820SOL    HW3 7047   0.400   0.643   1.151  0.4678 -1.7106 -0.4713
 1820SOL    MW4 7048   0.440   0.691   1.090 -0.1877 -0.7908 -0.2057
 1821SOL     OW 7049   4.078   4.751   4.579 -0.1021  0.0924 -0.0434
 1821SOL    HW2 7050   4.088   4.699   4.499 -0.8224  0.4306 -0.3606
 1821SOL    HW3 7051   4.167   4.781   4.599 -0.1669  1.6128 -1.8082
 1821SOL    MW4 7052   4.091   4.748   4.571 -0.2057  0.3376 -0.3181
 1822SOL     OW 7053   5.860   0.084   5.920 -0.2972 -0.4129  0.2143
 1822SOL    HW2 7054   5.896   0.128   5.843 -0.3017 -0.2971  0.2767
 1822SOL    HW3 7055   5.906   0.000   5.924 -1.0421 -0.8631 -0.5069
 1822SOL    MW4 7056   5.871   0.079   5.910 -0.3961 -0.4570  0.1274
 1823SOL     OW 7057   6.069   1.605   3.233 -0.5042 -0.5426 -0.3166
 1823SOL    HW2 7058   6.126   1.644   3.166  1.8514 -0.2819  1.6899
 1823SOL    HW3 7059   6.129   1.559   3.291 -2.4373 -0.7074  1.6610
 1823SOL    MW4 7060   6.085   1.604   3.232 -0.4485 -0.5299  0.2091
 1824SOL     OW 7061   2.676   0.206   4.578  0.3325  0.5734  0.1520
 1824SOL    HW2 7062   2.610   0.226   4.644 -0.0699  0.8251 -0.3141
 1824SOL    HW3 7063   2.658   0.268   4.506  3.2007  3.0661  1.3472
 1824SOL    MW4 7064   2.665   0.217   4.577  0.6578  0.9355  0.2482
 1825SOL     OW 7065   2.541   2.535   0.111 -0.1921 -0.0664 -0.1158
 1825SOL    HW2 7066   2.497   2.561   0.192  1.7313  1.9881  0.3393
 1825SOL    HW3 7067   2.598   2.608   0.090  1.0299 -1.5139 -2.1244
 1825SOL    MW4 7068   2.542   2.548   0.119  0.2229  0.0137 -0.3208
 1826SOL     OW 7069   4.646   3.262   0.983  0.0837 -0.1401 -0.9474
 1826SOL    HW2 7070   4.578   3.318   0.945  0.6624 -0.2783 -2.2324
 1826SOL    HW3 7071   4.621   3.254   1.075 -0.1036  2.0919 -0.7451
 1826SOL    MW4 7072   4.633   3.269   0.990  0.1354  0.1361 -1.0902
 1827SOL     OW 7073   0.614   1.341   1.642  0.3478  0.6599  0.3357
 1827SOL    HW2 7074   0.676   1.359   1.572 -0.6972  1.6753 -0.3575
 1827SOL    HW3 7075   0.593   1.248   1.632 -1.0309  1.1293 -1.7870
 1827SOL    MW4 7076   0.619   1.331   1.632  0.0280  0.8558 -0.0358
 1828SOL     OW 7077   0.900   4.966   2.322  0.1672  0.7526 -0.0902
 1828SOL    HW2 7078   0.962   4.919   2.267  1.5270  1.7306  0.5683
 1828SOL    HW3 7079   0.859   4.898   2.375  0.0221 -0.0051 -1.1415
 1828SOL    MW4 7080   0.902   4.951   2.321  0.3275  0.7817 -0.1420
 1829SOL     OW 7081   3.573   3.862   5.451 -0.1955 -0.2071  0.1986
 1829SOL    HW2 7082   3.483   3.841   5.476 -0.3606 -1.5328 -1.3657
 1829SOL    HW3 7083   3.593   3.942   5.500 -2.0741 -0.0983  0.8808
 1829SOL    MW4 7084   3.564   3.870   5.461 -0.4651 -0.3676  0.0823
 1830SOL     OW 7085   4.899   3.931   2.955 -0.4650 -0.1774 -0.5931
 1830SOL    HW2 7086   4.828   3.965   2.901  0.0887  2.4174  0.1298
 1830SOL    HW3 7087   4.898   3.837   2.942 -2.1077  0.0972 -2.9166
 1830SOL    MW4 7088   4.890   3.923   2.946 -0.6087  0.2012 -0.8043
 1831SOL     OW 7089   4.707   5.159   0.738  0.6217 -0.6776 -0.4812
 1831SOL    HW2 7090   4.710   5.195   0.827  1.9299 -1.7803 -0.0431
 1831SOL    HW3 7091   4.773   5.089   0.739  1.5558  0.1092 -2.6960
 1831SOL    MW4 7092   4.716   5.155   0.750  0.9176 -0.7193 -0.7156
 1832SOL     OW 7093   0.749   0.411   3.876  0.1026 -0.2867  0.2177
 1832SOL    HW2 7094   0.745   0.345   3.807  1.6218  0.3457 -0.5232
 1832SOL    HW3 7095   0.746   0.495   3.830 -1.6872  0.2074  1.1376
 1832SOL    MW4 7096   0.748   0.413   3.861  0.0669 -0.1381  0.2413
 1833SOL     OW 7097   0.593   3.389   3.560  0.1772  0.0642 -0.5511
 1833SOL    HW2 7098   0.546   3.327   3.504  2.1352 -0.1492 -2.0690
 1833SOL    HW3 7099   0.679   3.349   3.573 -0.1833  0.0288  2.8320
 1833SOL    MW4 7100   0.598   3.376   3.555  0.3880  0.0313 -0.3050
 1834SOL     OW 7101   4.988   2.383   2.547 -0.0350 -0.2653 -0.3602
 1834SOL    HW2 7102   4.987   2.449   2.616 -0.5111  0.0601 -0.6803
 1834SOL    HW3 7103   4.907   2.334   2.559 -0.0948 -0.2383 -0.6644
 1834SOL    MW4 7104   4.977   2.385   2.558 -0.1057 -0.2188 -0.4426
 1835SOL     OW 7105   5.963   2.832   2.181  0.1825 -0.0973 -0.7210
 1835SOL    HW2 7106   6.018   2.869   2.112 -0.2938  0.2439 -0.9242
 1835SOL    HW3 7107   5.926   2.752   2.142 -0.9054  0.6315 -1.2537
 1835SOL    MW4 7108   5.965   2.826   2.167 -0.0239  0.0438 -0.8181
 1836SOL     OW 7109   2.315   1.892   5.655 -0.2580  0.0703 -0.1813
 1836SOL    HW2 7110   2.348   1.943   5.728 -1.8843 -0.0933  0.6891
 1836SOL    HW3 7111   2.253   1.831   5.693 -0.9504 -0.2067 -1.6616
 1836SOL    MW4 7112   2.311   1.891   5.669 -0.5639  0.0121 -0.2617
 1837SOL     OW 7113   2.076   5.651   0.090  0.3529 -0.4771 -0.0531
 1837SOL    HW2 7114   2.125   5.610   0.018  0.6460  1.2426 -0.8714
 1837SOL    HW3 7115   2.040   5.577   0.139  1.4318 -1.7296 -1.0619
 1837SOL    MW4 7116   2.078   5.636   0.087  0.5339 -0.4155 -0.2941
 1838SOL     OW 7117   1.763   5.393   5.532  0.1651  0.4883  0.7690
 1838SOL    HW2 7118   1.739   5.426   5.445  0.0652  0.1025  0.6463
 1838SOL    HW3 7119   1.786   5.471   5.582 -0.0074  0.7349  0.4668
 1838SOL    MW4 7120   1.763   5.408   5.527  0.1292  0.4699  0.7129
 1839SOL     OW 7121   1.015   1.278   4.321 -0.0915  0.4323 -0.5468
 1839SOL    HW2 7122   0.933   1.323   4.342 -0.0071  0.4873 -0.3232
 1839SOL    HW3 7123   1.037   1.231   4.402  1.5907  2.7282  0.4535
 1839SOL    MW4 7124   1.007   1.278   4.335  0.1416  0.7424 -0.3853
 1840SOL     OW 7125   6.193   2.561   4.956  0.0056 -0.2711 -0.6373
 1840SOL    HW2 7126   6.244   2.605   5.025 -0.7609 -1.0248  0.4381
 1840SOL    HW3 7127   6.229   2.473   4.952 -1.0562 -0.7485 -0.0087
 1840SOL    MW4 7128   6.204   2.555   4.965 -0.2356 -0.4335 -0.4125
 1841SOL     OW 7129   6.137   5.548   3.173  0.1380  0.0290 -0.8146
 1841SOL    HW2 7130   6.055   5.519   3.214 -1.2671 -0.9300 -4.0016
 1841SOL    HW3 7131   6.205   5.504   3.223 -1.5588 -2.5846 -0.6071
 1841SOL    MW4 7132   6.135   5.538   3.185 -0.2712 -0.4424 -1.2077
 1842SOL     OW 7133   2.592   2.815   5.662 -0.0233 -0.3152 -0.1242
 1842SOL    HW2 7134   2.605   2.909   5.648 -0.4273 -0.3917 -1.0616
 1842SOL    HW3 7135   2.567   2.781   5.577 -1.7660 -0.9407  0.5870
 1842SOL    MW4 7136   2.590   2.823   5.649 -0.3065 -0.4078 -0.1541
 1843SOL     OW 7137   4.772   3.299   2.845  0.2682  0.1095 -0.0193
 1843SOL    HW2 7138   4.732   3.215   2.868 -2.3158 -0.0678 -4.0726
 1843SOL    HW3 7139   4.699   3.354   2.818  2.2343  1.9735 -2.0343
 1843SOL    MW4 7140   4.757   3.295   2.844  0.1867  0.3321 -0.8200
 1844SOL     OW 7141   0.672   0.925   3.960 -0.2882 -0.4383  0.2822
 1844SOL    HW2 7142   0.762   0.936   3.990 -0.1590 -1.8553  0.4455
 1844SOL    HW3 7143   0.626   1.001   3.996  0.8529  0.3619  0.0936
 1844SOL    MW4 7144   0.678   0.937   3.969 -0.1206 -0.5197  0.2789
 1845SOL     OW 7145   0.401   4.977   5.009 -0.0503  0.4184  0.3555
 1845SOL    HW2 7146   0.314   4.941   5.030 -0.7200  0.7031 -1.7233
 1845SOL    HW3 7147   0.382   5.057   4.959  1.4101  0.4665 -0.1507
 1845SOL    MW4 7148   0.387   4.983   5.005  0.0540  0.4623  0.0144
 1846SOL     OW 7149   3.825   5.806   0.721  0.0778  0.0943 -0.2407
 1846SOL    HW2 7150   3.779   5.726   0.693  2.1983 -0.6401 -1.9010
 1846SOL    HW3 7151   3.771   5.878   0.688 -0.3491 -0.7254 -1.4171
 1846SOL    MW4 7152   3.812   5.805   0.713  0.3013 -0.1108 -0.6150
 1847SOL     OW 7153   4.860   5.814   5.784 -0.3413 -0.2970 -0.8266
 1847SOL    HW2 7154   4.890   5.725   5.763  1.4225  0.1515 -0.3304
 1847SOL    HW3 7155   4.890   5.829   5.873  1.1855  1.5211 -1.5833
 1847SOL    MW4 7156   4.868   5.804   5.793  0.0928  0.0020 -0.8610
 1848SOL     OW 7157   2.562   3.310   3.249  0.1019  0.6945  0.5070
 1848SOL    HW2 7158   2.467   3.320   3.250  0.1166  0.8171  1.2427
 1848SOL    HW3 7159   2.595   3.399   3.237  0.1211  0.5671 -0.4699
 1848SOL    MW4 7160   2.554   3.323   3.247  0.1064  0.6939  0.4752
 1849SOL     OW 7161   5.572   5.564   3.890  0.0626  0.3120 -0.3471
 1849SOL    HW2 7162   5.491   5.522   3.920 -0.1302 -0.1371 -1.4406
 1849SOL    HW3 7163   5.642   5.507   3.922 -0.0798  0.4508  0.2073
 1849SOL    MW4 7164   5.571   5.551   3.898  0.0184  0.2711 -0.4182
 1850SOL     OW 7165   4.322   1.446   5.789  0.5189 -0.3987  0.1042
 1850SOL    HW2 7166   4.301   1.485   5.874  2.2229  1.8102 -0.3987
 1850SOL    HW3 7167   4.407   1.404   5.802 -0.9640 -3.5658  0.4406
 1850SOL    MW4 7168   4.330   1.446   5.802  0.5481 -0.5251  0.0822
 1851SOL     OW 7169   5.464   1.217   3.186 -0.5228 -0.4005  0.4178
 1851SOL    HW2 7170   5.529   1.252   3.247 -0.1200 -0.8608  0.2572
 1851SOL    HW3 7171   5.388   1.274   3.197 -0.5077 -0.5598  1.4535
 1851SOL    MW4 7172   5.462   1.229   3.196 -0.4677 -0.4822  0.5332
 1852SOL     OW 7173   1.896   4.459   2.244 -0.4895 -0.1487 -0.7511
 1852SOL    HW2 7174   1.880   4.549   2.216  0.3354  0.4757  0.6298
 1852SOL    HW3 7175   1.813   4.429   2.280 -0.2079  0.9188  0.8935
 1852SOL    MW4 7176   1.883   4.467   2.245 -0.3435  0.0745 -0.3519
 1853SOL     OW 7177   0.971   1.119   1.789  0.4082 -1.0558  0.5441
 1853SOL    HW2 7178   0.947   1.075   1.708 -1.3128  0.1808  0.3246
 1853SOL    HW3 7179   1.024   1.055   1.836  0.1417 -2.3787 -0.8668
 1853SOL    MW4 7180   0.974   1.105   1.784  0.1460 -1.0671  0.3290
 1854SOL     OW 7181   1.630   3.048   1.783  1.2133 -0.2921 -0.5687
 1854SOL    HW2 7182   1.634   3.057   1.688  0.0694  0.5339 -0.5695
 1854SOL    HW3 7183   1.706   2.994   1.806  0.8854 -1.4482 -2.0504
 1854SOL    MW4 7184   1.640   3.042   1.773  1.0191 -0.3356 -0.7643
 1855SOL     OW 7185   6.192   6.339   1.111 -0.0773  0.3064  0.2817
 1855SOL    HW2 7186   6.279   6.300   1.107  0.5900  1.7349 -0.0302
 1855SOL    HW3 7187   6.188   6.380   1.198 -0.5530 -0.0073  0.4090
 1855SOL    MW4 7188   6.203   6.339   1.122 -0.0520  0.4535  0.2574
 1856SOL     OW 7189   3.673   0.706   6.045 -0.1873  0.5580  0.0179
 1856SOL    HW2 7190   3.627   0.625   6.066 -0.2728  0.8117  0.8636
 1856SOL    HW3 7191   3.643   0.768   6.111 -0.4699  1.4161 -0.8907
 1856SOL    MW4 7192   3.663   0.704   6.056 -0.2358  0.7047  0.0096
 1857SOL     OW 7193   0.117   2.713   5.799 -0.1880  0.1328  0.2831
 1857SOL    HW2 7194   0.027   2.744   5.791  0.6079  2.5283 -0.0180
 1857SOL    HW3 7195   0.164   2.757   5.728  1.6477  0.6554  1.7516
 1857SOL    MW4 7196   0.111   2.723   5.789  0.1592  0.5178  0.4372
 1858SOL     OW 7197   3.848   1.408   5.293  0.1308 -0.6802 -0.0337
 1858SOL    HW2 7198   3.797   1.485   5.318  1.7094  0.9125 -1.4204
 1858SOL    HW3 7199   3.834   1.399   5.199  2.5287  0.0298 -0.5468
 1858SOL    MW4 7200   3.840   1.417   5.284  0.6555 -0.3764 -0.2844
 1859SOL     OW 7201   2.117   5.055   0.568  0.0751 -0.4874  0.0987
 1859SOL    HW2 7202   2.158   5.141   0.572 -0.1450 -0.3688 -0.1415
 1859SOL    HW3 7203   2.189   4.993   0.583  0.4536 -0.3068 -0.8591
 1859SOL    MW4 7204   2.132   5.058   0.571  0.0960 -0.4479 -0.0593
 1860SOL     OW 7205   0.558   4.723   3.490  0.0241  0.2504 -0.0756
 1860SOL    HW2 7206   0.541   4.697   3.580 -1.5903 -2.0806 -0.9385
 1860SOL    HW3 7207   0.486   4.782   3.468 -0.6188 -0.6039 -0.3312
 1860SOL    MW4 7208   0.546   4.727   3.499 -0.2737 -0.1699 -0.2232
 1861SOL     OW 7209   1.951   1.668   5.337  0.2417 -0.2855 -0.6469
 1861SOL    HW2 7210   1.883   1.706   5.393  0.3809 -1.6390  0.4888
 1861SOL    HW3 7211   1.906   1.649   5.255 -0.5711 -0.4479 -0.1799
 1861SOL    MW4 7212   1.936   1.670   5.334  0.1528 -0.4855 -0.4354
 1862SOL     OW 7213   0.307   6.143   1.853 -0.0396  0.1840 -0.5333
 1862SOL    HW2 7214   0.373   6.088   1.896 -0.8193 -0.8604 -0.6537
 1862SOL    HW3 7215   0.228   6.132   1.905 -0.3854  0.6971 -0.9347
 1862SOL    MW4 7216   0.305   6.134   1.866 -0.1881  0.1139 -0.6022
 1863SOL     OW 7217   4.362   2.433   4.298 -0.2104 -0.0056  0.1699
 1863SOL    HW2 7218   4.355   2.430   4.393 -0.8000 -0.6921  0.1147
 1863SOL    HW3 7219   4.408   2.515   4.280  1.0601 -0.4841  1.0935
 1863SOL    MW4 7220   4.367   2.444   4.308 -0.1205 -0.1593  0.2845
 1864SOL     OW 7221   3.121   3.365   0.225  0.0651 -0.4557  0.2558
 1864SOL    HW2 7222   3.122   3.283   0.275  0.1927 -0.8393 -0.3666
 1864SOL    HW3 7223   3.208   3.369   0.184 -0.0414 -0.1497  0.0537
 1864SOL    MW4 7224   3.133   3.355   0.226  0.0679 -0.4659  0.1470
 1865SOL     OW 7225   1.522   4.774   3.825  0.5820 -0.2367 -0.0323
 1865SOL    HW2 7226   1.611   4.780   3.859  0.9912 -0.2264 -1.0905
 1865SOL    HW3 7227   1.532   4.742   3.735 -0.6026 -2.3033  0.5097
 1865SOL    MW4 7228   1.535   4.771   3.818  0.4797 -0.5080 -0.1004
 1866SOL     OW 7229   3.389   2.807   5.331  0.4803 -0.4566 -0.4366
 1866SOL    HW2 7230   3.480   2.837   5.327  0.5988 -0.3580  1.7974
 1866SOL    HW3 7231   3.374   2.767   5.246  2.2598  0.5053 -1.2707
 1866SOL    MW4 7232   3.399   2.806   5.319  0.7307 -0.3167 -0.2519
 1867SOL     OW 7233   5.409   5.495   4.149  0.0036  0.0071  0.0789
 1867SOL    HW2 7234   5.439   5.559   4.213 -0.3059  0.0196  0.2133
 1867SOL    HW3 7235   5.314   5.507   4.146 -0.4848 -2.4332  2.2812
 1867SOL    MW4 7236   5.401   5.505   4.157 -0.1017 -0.3132  0.3872
 1868SOL     OW 7237   2.388   2.565   0.864 -0.0626  0.0241 -0.3591
 1868SOL    HW2 7238   2.465   2.594   0.815  0.1943 -0.4187 -0.2239
 1868SOL    HW3 7239   2.319   2.628   0.840  0.2793  0.2942 -0.6479
 1868SOL    MW4 7240   2.389   2.577   0.854  0.0164  0.0013 -0.3793
 1869SOL     OW 7241   5.503   4.717   4.006  0.4803  0.2653 -0.6757
 1869SOL    HW2 7242   5.507   4.649   4.074  0.0530  1.2679  0.3869
 1869SOL    HW3 7243   5.420   4.703   3.962 -0.7209  1.4728  1.0789
 1869SOL    MW4 7244   5.493   4.706   4.009  0.2654  0.5569 -0.3040
 1870SOL     OW 7245   6.021   3.126   2.320  0.0224  0.0146 -0.1118
 1870SOL    HW2 7246   5.944   3.070   2.311  0.1236 -0.7161  2.7199
 1870SOL    HW3 7247   5.986   3.215   2.321 -0.5196 -0.1784 -1.0282
 1870SOL    MW4 7248   6.006   3.131   2.319 -0.0358 -0.1073  0.1409
 1871SOL     OW 7249   3.285   2.971   4.377 -0.7606  0.4953 -0.0927
 1871SOL    HW2 7250   3.302   3.062   4.404  0.8043 -0.4664  2.5604
 1871SOL    HW3 7251   3.284   2.922   4.459 -0.0388 -2.1376 -1.5577
 1871SOL    MW4 7252   3.287   2.977   4.391 -0.4589  0.0210  0.0641
 1872SOL     OW 7253   3.272   3.596   4.754  0.2526 -0.9528  0.0473
 1872SOL    HW2 7254   3.215   3.580   4.679  0.2248 -2.0280  0.2768
 1872SOL    HW3 7255   3.361   3.596   4.717  0.2048 -0.9478 -0.0668
 1872SOL    MW4 7256   3.276   3.594   4.740  0.2426 -1.0940  0.0625
 1873SOL     OW 7257   0.779   4.166   2.610 -0.0324 -0.2708 -0.1376
 1873SOL    HW2 7258   0.850   4.162   2.546 -0.0559  0.1044 -0.1908
 1873SOL    HW3 7259   0.701   4.187   2.558 -0.4131 -1.8350 -0.2449
 1873SOL    MW4 7260   0.778   4.168   2.595 -0.0857 -0.4277 -0.1588
 1874SOL     OW 7261   6.151   4.988   4.867 -0.6719 -0.3178  0.1571
 1874SOL    HW2 7262   6.123   5.006   4.777  1.2043 -1.0649 -0.6370
 1874SOL    HW3 7263   6.085   4.928   4.901 -1.4525  0.0267 -0.6899
 1874SOL    MW4 7264   6.139   4.983   4.859 -0.5273 -0.3709 -0.0594
 1875SOL     OW 7265   3.770   1.564   1.060 -0.4738 -0.1211 -0.1210
 1875SOL    HW2 7266   3.843   1.624   1.077 -0.4263 -0.1117 -0.3553
 1875SOL    HW3 7267   3.804   1.503   0.995 -0.6754 -0.1187 -0.2285
 1875SOL    MW4 7268   3.784   1.564   1.054 -0.4941 -0.1195 -0.1661
 1876SOL     OW 7269   3.078   0.259   3.944 -0.1602 -0.1922  0.0480
 1876SOL    HW2 7270   3.074   0.206   4.024 -0.1131  1.0745  0.9296
 1876SOL    HW3 7271   2.997   0.239   3.897 -0.3052 -0.7755  0.5398
 1876SOL    MW4 7272   3.067   0.249   3.949 -0.1731 -0.1020  0.2292
 1877SOL     OW 7273   4.997   0.181   1.563 -0.6085 -0.1405  0.7133
 1877SOL    HW2 7274   5.044   0.255   1.526 -0.8367 -0.5470 -0.4289
 1877SOL    HW3 7275   5.051   0.105   1.543 -1.2118 -0.4825  0.3340
 1877SOL    MW4 7276   5.010   0.181   1.555 -0.7182 -0.2393  0.5126
 1878SOL     OW 7277   5.116   3.789   0.969 -0.2285  0.3604  0.1084
 1878SOL    HW2 7278   5.066   3.713   0.941  0.4982 -0.0481 -0.1187
 1878SOL    HW3 7279   5.062   3.830   1.037 -1.5972  0.8502 -1.2224
 1878SOL    MW4 7280   5.103   3.784   0.974 -0.3132  0.3711 -0.0972
 1879SOL     OW 7281   5.459   0.730   3.381 -0.7613 -0.3082  0.5164
 1879SOL    HW2 7282   5.404   0.680   3.441 -2.3070  1.1775  0.4205
 1879SOL    HW3 7283   5.465   0.675   3.302  2.2774 -2.8414  2.2599
 1879SOL    MW4 7284   5.453   0.716   3.379 -0.5643 -0.4464  0.7338
 1880SOL     OW 7285   1.584   5.009   1.381 -0.7449  0.2100 -0.1499
 1880SOL    HW2 7286   1.605   5.099   1.358 -0.0965  0.3319  0.8900
 1880SOL    HW3 7287   1.563   5.011   1.474 -0.0293 -0.8246  0.0539
 1880SOL    MW4 7288   1.584   5.021   1.390 -0.5649  0.0895  0.0142
 1881SOL     OW 7289   6.342   1.239   5.897 -0.0380  0.3208 -0.0033
 1881SOL    HW2 7290   6.292   1.320   5.911 -0.4266  0.3061 -1.1834
 1881SOL    HW3 7291   6.415   1.245   5.959  0.2746  1.8649 -0.4728
 1881SOL    MW4 7292   6.345   1.250   5.907 -0.0481  0.5226 -0.2209
 1882SOL     OW 7293   0.580   4.619   2.212 -0.1613 -0.7602  0.0420
 1882SOL    HW2 7294   0.532   4.702   2.215  1.6808  0.3736  2.2391
 1882SOL    HW3 7295   0.513   4.552   2.227 -1.5030  0.4281 -0.3617
 1882SOL    MW4 7296   0.565   4.621   2.215 -0.0953 -0.4538  0.2786
 1883SOL     OW 7297   6.197   1.734   3.018  0.3179 -0.5567 -0.2955
 1883SOL    HW2 7298   6.276   1.704   3.062 -0.3229 -0.3482  1.0541
 1883SOL    HW3 7299   6.228   1.801   2.957  1.3502 -1.5815 -0.9299
 1883SOL    MW4 7300   6.211   1.739   3.016  0.3696 -0.6644 -0.2011
 1884SOL     OW 7301   4.997   0.675   2.862  0.4578 -0.4754 -0.1269
 1884SOL    HW2 7302   5.091   0.663   2.868  0.2890 -1.7968  0.2575
 1884SOL    HW3 7303   4.986   0.763   2.825  1.8138  0.6259  1.8488
 1884SOL    MW4 7304   5.008   0.685   2.858  0.6145 -0.5044  0.1845
 1885SOL     OW 7305   5.915   0.615   2.543  0.4314  0.4953 -0.6922
 1885SOL    HW2 7306   5.939   0.636   2.453  1.7736 -0.1972 -0.5262
 1885SOL    HW3 7307   5.871   0.530   2.537 -0.7026  1.0775 -0.8301
 1885SOL    MW4 7308   5.913   0.607   2.530  0.4589  0.4807 -0.6885
 1886SOL     OW 7309   4.222   2.713   4.343  0.4709 -1.3574 -0.1241
 1886SOL    HW2 7310   4.264   2.770   4.407  1.5222 -1.3881 -0.7621
 1886SOL    HW3 7311   4.143   2.682   4.387 -0.9251  1.7159 -0.2728
 1886SOL    MW4 7312   4.217   2.716   4.357  0.4254 -0.9560 -0.2279
 1887SOL     OW 7313   5.186   5.079   3.666  0.3831  0.1857 -0.0906
 1887SOL    HW2 7314   5.113   5.140   3.667 -0.4930 -0.8382  0.8613
 1887SOL    HW3 7315   5.188   5.042   3.754  0.3363 -1.7820 -0.8584
 1887SOL    MW4 7316   5.177   5.082   3.678  0.2613 -0.2090 -0.0663
 1888SOL     OW 7317   4.057   3.230   4.620  0.5554  0.3360 -0.3394
 1888SOL    HW2 7318   4.034   3.158   4.678 -0.4668 -0.6721 -1.9063
 1888SOL    HW3 7319   4.152   3.226   4.612  0.5164 -0.8045 -0.3481
 1888SOL    MW4 7320   4.067   3.220   4.627  0.4154  0.0525 -0.5473
 1889SOL     OW 7321   4.561   2.706   3.168  0.0783  0.5358  0.3297
 1889SOL    HW2 7322   4.615   2.739   3.240  0.2877  0.4562  0.2098
 1889SOL    HW3 7323   4.551   2.613   3.186  0.4281  0.4491  0.0627
 1889SOL    MW4 7324   4.567   2.698   3.180  0.1521  0.5139  0.2787
 1890SOL     OW 7325   4.041   1.528  -0.002 -0.0882  0.0075 -0.2322
 1890SOL    HW2 7326   4.028   1.621  -0.018  2.2560  0.1071 -2.2162
 1890SOL    HW3 7327   4.133   1.521   0.023 -0.1460 -1.8061 -0.3788
 1890SOL    MW4 7328   4.052   1.540  -0.001  0.2134 -0.2187 -0.5133
 1891SOL     OW 7329   4.781   4.117   0.544  0.1048  0.2226 -0.1377
 1891SOL    HW2 7330   4.845   4.119   0.472  0.3463 -1.5333 -0.0141
 1891SOL    HW3 7331   4.696   4.114   0.500  0.2428 -0.5845 -0.3637
 1891SOL    MW4 7332   4.778   4.117   0.529  0.1549 -0.1155 -0.1512
 1892SOL     OW 7333   5.797   5.716   1.943 -0.1976 -0.5633  0.0839
 1892SOL    HW2 7334   5.741   5.682   2.013 -1.4600  2.1918  0.5395
 1892SOL    HW3 7335   5.736   5.754   1.880  1.0774  0.8303 -0.3587
 1892SOL    MW4 7336   5.781   5.717   1.944 -0.1959 -0.0159  0.0856
 1893SOL     OW 7337   1.087   3.249   5.354  0.2547 -0.3523  0.1149
 1893SOL    HW2 7338   1.135   3.228   5.274  1.8556 -0.5387  1.0741
 1893SOL    HW3 7339   1.014   3.303   5.325  1.0217 -0.0895 -1.4233
 1893SOL    MW4 7340   1.083   3.253   5.339  0.5671 -0.3422  0.0385
 1894SOL     OW 7341   5.512   5.097   2.620  0.0093  0.2402 -0.3624
 1894SOL    HW2 7342   5.535   5.174   2.567 -0.3263  0.2700 -0.4671
 1894SOL    HW3 7343   5.417   5.091   2.613 -0.0008  0.0353 -0.0464
 1894SOL    MW4 7344   5.502   5.106   2.612 -0.0363  0.2171 -0.3345
 1895SOL     OW 7345   0.928   4.809   2.743 -0.4381 -0.4580 -0.4012
 1895SOL    HW2 7346   0.911   4.717   2.763 -0.8626 -0.3288 -0.1683
 1895SOL    HW3 7347   1.013   4.808   2.698  1.4305 -0.6147  2.8385
 1895SOL    MW4 7348   0.937   4.797   2.739 -0.2476 -0.4616  0.0569
 1896SOL     OW 7349   1.849   3.205   4.739 -0.1103  0.1216 -0.1525
 1896SOL    HW2 7350   1.912   3.155   4.791 -1.2239 -0.4574  0.6889
 1896SOL    HW3 7351   1.874   3.296   4.752 -0.5026  0.0163  1.6578
 1896SOL    MW4 7352   1.860   3.210   4.748 -0.3090  0.0313  0.1973
 1897SOL     OW 7353   4.597   1.221   5.310 -0.9273 -0.0070 -0.0669
 1897SOL    HW2 7354   4.664   1.274   5.351 -2.1338  0.8591  0.8445
 1897SOL    HW3 7355   4.641   1.138   5.290  0.7762  1.0148 -0.8141
 1897SOL    MW4 7356   4.612   1.217   5.313 -0.8617  0.2421 -0.0452
 1898SOL     OW 7357   3.136   2.294   4.842  0.4109  0.4782  0.0887
 1898SOL    HW2 7358   3.080   2.253   4.776 -2.1244 -0.6108  2.7107
 1898SOL    HW3 7359   3.199   2.226   4.866 -0.5613 -0.1780  0.8422
 1898SOL    MW4 7360   3.137   2.280   4.836 -0.0519  0.2479  0.5341
 1899SOL     OW 7361   0.725   3.255   3.266  0.0058  0.2558 -0.2435
 1899SOL    HW2 7362   0.702   3.278   3.177 -0.1314 -1.2503 -0.6255
 1899SOL    HW3 7363   0.753   3.338   3.306 -3.4816  1.7420 -0.5141
 1899SOL    MW4 7364   0.726   3.269   3.260 -0.4724  0.2531 -0.3296
 1900SOL     OW 7365   5.590   1.478   5.250 -0.3102  0.0731  0.4030
 1900SOL    HW2 7366   5.509   1.486   5.200 -0.3937  0.2906  0.5686
 1900SOL    HW3 7367   5.596   1.385   5.272  1.1921 -0.6021 -2.4245
 1900SOL    MW4 7368   5.580   1.467   5.247 -0.1230  0.0127  0.0518
 1901SOL     OW 7369   3.616   3.974   3.795 -0.6676  0.3828  0.9924
 1901SOL    HW2 7370   3.704   3.999   3.766 -1.1988  0.1601 -0.9076
 1901SOL    HW3 7371   3.624   3.881   3.816 -0.6800  0.0923 -0.2265
 1901SOL    MW4 7372   3.629   3.965   3.794 -0.7393  0.3151  0.5809
 1902SOL     OW 7373   3.170   2.805   2.468  0.1035  0.3024 -1.1429
 1902SOL    HW2 7374   3.086   2.851   2.465 -0.1882 -0.1832 -0.7163
 1902SOL    HW3 7375   3.148   2.719   2.505  1.0012  0.6630  0.3076
 1902SOL    MW4 7376   3.156   2.799   2.473  0.1834  0.2859 -0.8952
 1903SOL     OW 7377   1.719   6.365   0.733  0.3653 -0.3725 -0.2753
 1903SOL    HW2 7378   1.752   6.390   0.647  0.1687 -1.0911 -0.5638
 1903SOL    HW3 7379   1.694   6.448   0.775  0.4104 -0.0293 -0.9251
 1903SOL    MW4 7380   1.720   6.380   0.727  0.3453 -0.4220 -0.3991
 1904SOL     OW 7381   5.186   3.390   2.394  0.0715  0.0366  0.1270
 1904SOL    HW2 7382   5.262   3.337   2.368 -0.1742 -0.2198 -0.0717
 1904SOL    HW3 7383   5.224   3.465   2.440  0.5217  0.4340 -0.8487
 1904SOL    MW4 7384   5.201   3.393   2.396  0.0985  0.0552 -0.0280
 1905SOL     OW 7385   2.391   5.835   5.191 -0.0054  0.4918  0.2251
 1905SOL    HW2 7386   2.303   5.807   5.215 -0.3603  1.1196 -0.3221
 1905SOL    HW3 7387   2.384   5.860   5.099  0.5020  1.4836  0.4418
 1905SOL    MW4 7388   2.378   5.835   5.182  0.0147  0.7055  0.1815
 1906SOL     OW 7389   1.999   4.689   1.043 -0.4238 -0.2764  0.2770
 1906SOL    HW2 7390   2.093   4.697   1.028 -0.4140  2.4237  1.2940
 1906SOL    HW3 7391   1.992   4.623   1.112  0.5557 -1.7412 -0.9632
 1906SOL    MW4 7392   2.011   4.681   1.050 -0.2933 -0.1134  0.2475
 1907SOL     OW 7393   0.725   0.082   6.191  0.0708 -0.0621 -0.0007
 1907SOL    HW2 7394   0.819   0.063   6.186  0.4789  1.2197  1.7219
 1907SOL    HW3 7395   0.683  -0.004   6.194  1.0410 -0.6704 -2.3058
 1907SOL    MW4 7396   0.732   0.068   6.191  0.2527  0.0268 -0.0776
 1908SOL     OW 7397   5.167   6.014   4.961 -0.2447  0.2100 -0.9850
 1908SOL    HW2 7398   5.082   5.974   4.978 -1.2080  1.9272 -1.5148
 1908SOL    HW3 7399   5.208   5.957   4.895 -1.8800  0.4617 -2.2879
 1908SOL    MW4 7400   5.161   6.001   4.955 -0.5875  0.4698 -1.2268
 1909SOL     OW 7401   3.979   1.162   4.034  0.6502  0.1781  0.3388
 1909SOL    HW2 7402   3.889   1.129   4.035  0.1634  1.2971 -1.6055
 1909SOL    HW3 7403   4.032   1.088   4.066 -0.7249 -1.3387 -0.7186
 1909SOL    MW4 7404   3.974   1.148   4.038  0.4046  0.1256 -0.0572
 1910SOL     OW 7405   2.295   0.222   3.460 -0.8751 -0.3334  0.1945
 1910SOL    HW2 7406   2.281   0.284   3.531 -1.4203  2.1096 -1.8900
 1910SOL    HW3 7407   2.207   0.187   3.442 -0.7133 -1.0603  0.8031
 1910SOL    MW4 7408   2.281   0.225   3.467 -0.9257 -0.1069 -0.0002
 1911SOL     OW 7409   5.107   5.797   2.922  0.1932  0.4521  0.0593
 1911SOL    HW2 7410   5.153   5.865   2.971  0.5597  0.4536 -0.2852
 1911SOL    HW3 7411   5.115   5.823   2.831 -0.2315  0.2904 -0.0295
 1911SOL    MW4 7412   5.114   5.809   2.917  0.1855  0.4309  0.0021
 1912SOL     OW 7413   4.350   2.880   3.639 -0.6457  0.0082  0.0525
 1912SOL    HW2 7414   4.266   2.911   3.674 -0.2980  1.0437 -0.0119
 1912SOL    HW3 7415   4.347   2.903   3.546  0.3036  1.4105  0.3372
 1912SOL    MW4 7416   4.338   2.887   3.631 -0.4745  0.3298  0.0816
 1913SOL     OW 7417   1.229   0.936   3.994 -0.3332 -0.2422 -0.2898
 1913SOL    HW2 7418   1.215   0.930   4.088 -0.6520 -2.2974 -0.4172
 1913SOL    HW3 7419   1.323   0.917   3.982 -0.4854 -0.9411 -0.4323
 1913SOL    MW4 7420   1.240   0.932   4.005 -0.3953 -0.6056 -0.3254
 1914SOL     OW 7421   6.387   3.966   2.610 -0.1076  1.0215  0.4672
 1914SOL    HW2 7422   6.405   3.993   2.520  0.9967  0.1071  0.3910
 1914SOL    HW3 7423   6.292   3.974   2.619 -0.4952 -0.7462 -1.4251
 1914SOL    MW4 7424   6.377   3.971   2.599 -0.0131  0.6676  0.2075
 1915SOL     OW 7425   0.108   3.270   1.300  0.1379  0.3584 -0.2734
 1915SOL    HW2 7426   0.163   3.253   1.377 -1.8350 -0.1788  1.0776
 1915SOL    HW3 7427   0.037   3.325   1.332 -1.3856 -0.8503 -1.4267
 1915SOL    MW4 7428   0.106   3.275   1.314 -0.3234  0.1281 -0.2473
 1916SOL     OW 7429   0.877   2.668   1.186 -0.7346  0.1235  0.0321
 1916SOL    HW2 7430   0.803   2.647   1.243 -0.2672 -0.6307  0.3773
 1916SOL    HW3 7431   0.868   2.762   1.168 -0.5050  0.5423  1.9115
 1916SOL    MW4 7432   0.866   2.678   1.191 -0.6427  0.0793  0.3256
 1917SOL     OW 7433   3.568   5.312   3.759  0.3204 -0.4640 -0.2727
 1917SOL    HW2 7434   3.553   5.320   3.853 -2.2296 -0.0027 -0.6576
 1917SOL    HW3 7435   3.633   5.243   3.751  0.5855 -0.5225  1.8182
 1917SOL    MW4 7436   3.575   5.304   3.770  0.0189 -0.4109 -0.0476
 1918SOL     OW 7437   5.465   3.606   4.210  0.1976 -0.0351  0.2369
 1918SOL    HW2 7438   5.375   3.639   4.203  0.4186  0.3676 -0.7514
 1918SOL    HW3 7439   5.474   3.546   4.136  0.2237 -1.3524  1.2701
 1918SOL    MW4 7440   5.454   3.602   4.200  0.2302 -0.1557  0.2428
 1919SOL     OW 7441   2.656   6.178   0.111 -0.0152 -0.1971  0.5491
 1919SOL    HW2 7442   2.674   6.121   0.036  1.4668  0.0085  0.7100
 1919SOL    HW3 7443   2.562   6.196   0.106 -0.4358 -2.3029  0.2602
 1919SOL    MW4 7444   2.646   6.173   0.100  0.1249 -0.4478  0.5322
 1920SOL     OW 7445   4.608   2.813   4.477  0.2853 -0.2578  0.3475
 1920SOL    HW2 7446   4.645   2.899   4.456  0.2399 -0.1194  0.8223
 1920SOL    HW3 7447   4.670   2.775   4.540 -0.2707 -0.1011  1.0051
 1920SOL    MW4 7448   4.621   2.819   4.483  0.2060 -0.2189  0.4969
 1921SOL     OW 7449   3.693   1.262   1.843  0.0341 -0.0840 -0.2690
 1921SOL    HW2 7450   3.776   1.297   1.875 -1.1419  1.7327  0.9516
 1921SOL    HW3 7451   3.635   1.263   1.919 -1.2118 -1.0590 -1.1533
 1921SOL    MW4 7452   3.696   1.267   1.857 -0.2855  0.0271 -0.2246
 1922SOL     OW 7453   4.262   2.487   2.398  0.2948 -0.0985  0.1070
 1922SOL    HW2 7454   4.312   2.464   2.320  1.6317 -0.3191  0.9988
 1922SOL    HW3 7455   4.258   2.583   2.397 -1.7106 -0.1409 -1.4243
 1922SOL    MW4 7456   4.268   2.497   2.388  0.2066 -0.1332  0.0227
 1923SOL     OW 7457   4.129   5.439   5.026 -0.0754 -0.2393  0.1395
 1923SOL    HW2 7458   4.040   5.474   5.029 -0.0065 -0.0575  0.0777
 1923SOL    HW3 7459   4.148   5.413   5.116  0.1245  0.5115  0.3199
 1923SOL    MW4 7460   4.120   5.440   5.038 -0.0399 -0.1163  0.1552
 1924SOL     OW 7461   3.023   1.372   3.635  0.3637  0.2893  0.2749
 1924SOL    HW2 7462   3.040   1.283   3.605  0.3803  0.1891  0.5762
 1924SOL    HW3 7463   2.932   1.371   3.664 -0.3664  0.9500 -1.7813
 1924SOL    MW4 7464   3.013   1.361   3.635  0.2696  0.3632  0.0433
 1925SOL     OW 7465   3.816   3.845   4.680 -0.0809  0.2753  0.1269
 1925SOL    HW2 7466   3.894   3.795   4.660 -0.0718  0.6540 -0.8614
 1925SOL    HW3 7467   3.772   3.796   4.749 -0.2802 -1.3094 -1.0789
 1925SOL    MW4 7468   3.820   3.832   4.686 -0.1060  0.1162 -0.1626
 1926SOL     OW 7469   1.179   4.706   3.462 -0.0704  0.5861  0.1337
 1926SOL    HW2 7470   1.148   4.634   3.406  0.8565  0.3803 -0.1350
 1926SOL    HW3 7471   1.099   4.747   3.495 -0.6857  1.2215 -1.9791
 1926SOL    MW4 7472   1.164   4.702   3.459 -0.0293  0.6428 -0.1805
 1927SOL     OW 7473   5.645   0.472   4.276  0.0678 -0.2066  0.5833
 1927SOL    HW2 7474   5.699   0.551   4.272 -0.6459  0.2545 -0.2412
 1927SOL    HW3 7475   5.568   0.493   4.222 -0.1195 -1.4658  0.3425
 1927SOL    MW4 7476   5.642   0.485   4.268 -0.0511 -0.3119  0.4427
 1928SOL     OW 7477   6.140   1.644   2.224 -0.5217 -0.1142  0.1421
 1928SOL    HW2 7478   6.149   1.607   2.312 -0.3487 -0.4424 -0.0108
 1928SOL    HW3 7479   6.085   1.722   2.236  1.4848  1.2742  0.9544
 1928SOL    MW4 7480   6.134   1.649   2.237 -0.2341  0.0256  0.2291
 1929SOL     OW 7481   3.994   0.011   3.829 -0.0503 -0.2466 -0.1928
 1929SOL    HW2 7482   3.911   0.002   3.782 -1.0511 -0.8018  1.5803
 1929SOL    HW3 7483   3.971  -0.001   3.921  1.9063  0.2850  0.4176
 1929SOL    MW4 7484   3.980   0.008   3.835  0.0758 -0.2497  0.1217
 1930SOL     OW 7485   5.323   2.635   4.392 -0.4735 -0.0208 -0.3609
 1930SOL    HW2 7486   5.269   2.701   4.436 -0.8622 -0.9990  0.6833
 1930SOL    HW3 7487   5.278   2.552   4.410 -0.3683 -0.5257 -2.2212
 1930SOL    MW4 7488   5.310   2.633   4.400 -0.5109 -0.2165 -0.4686
 1931SOL     OW 7489   3.746   0.950   3.355 -0.3851  0.3325 -0.1690
 1931SOL    HW2 7490   3.674   1.013   3.369 -0.3804  0.9413 -2.3868
 1931SOL    HW3 7491   3.820   1.005   3.330 -0.3436 -0.4935 -2.0354
 1931SOL    MW4 7492   3.746   0.966   3.353 -0.3790  0.3038 -0.7078
 1932SOL     OW 7493   6.066   4.185   5.620 -0.1017  0.5308 -0.0924
 1932SOL    HW2 7494   5.990   4.127   5.610 -0.5488  0.9964  0.4947
 1932SOL    HW3 7495   6.093   4.203   5.530  0.5003 -1.1454 -0.2903
 1932SOL    MW4 7496   6.059   4.180   5.607 -0.0813  0.3711 -0.0411
 1933SOL     OW 7497   1.653   5.737   5.796  0.6227 -0.5351 -0.1072
 1933SOL    HW2 7498   1.588   5.696   5.738 -0.0563 -0.9898  0.9421
 1933SOL    HW3 7499   1.737   5.722   5.752 -0.0220  0.8267 -1.9379
 1933SOL    MW4 7500   1.655   5.730   5.783  0.4481 -0.4154 -0.2103
 1934SOL     OW 7501   1.819   4.346   0.570 -0.1355  0.3644 -0.3142
 1934SOL    HW2 7502   1.813   4.433   0.531 -3.2575  1.0146  1.2525
 1934SOL    HW3 7503   1.848   4.363   0.660 -3.2582  0.2668  0.8480
 1934SOL    MW4 7504   1.822   4.360   0.577 -0.9594  0.4373  0.0459
 1935SOL     OW 7505   3.066   4.253   0.832 -0.1006 -0.4306 -0.6187
 1935SOL    HW2 7506   3.125   4.327   0.823 -1.5414  1.2008  1.9930
 1935SOL    HW3 7507   2.979   4.292   0.840 -0.7575 -2.1567  2.3855
 1935SOL    MW4 7508   3.063   4.268   0.832 -0.3774 -0.4431  0.1223
 1936SOL     OW 7509   2.094   4.031   2.030 -0.2543  0.7108  0.5095
 1936SOL    HW2 7510   2.012   4.034   2.079  1.1125  1.7555  2.8821
 1936SOL    HW3 7511   2.159   4.069   2.089  2.3758 -1.9322 -0.4191
 1936SOL    MW4 7512   2.092   4.036   2.044  0.2731  0.4999  0.7000
 1937SOL     OW 7513   3.779   3.034   3.100 -0.1388 -0.1776 -0.2893
 1937SOL    HW2 7514   3.868   3.061   3.078 -0.7651  1.4021 -0.9830
 1937SOL    HW3 7515   3.730   3.115   3.111 -1.4607 -1.0097  0.3346
 1937SOL    MW4 7516   3.784   3.048   3.099 -0.3959 -0.0790 -0.2985
 1938SOL     OW 7517   5.849   2.433   3.988  0.4083 -0.1918 -0.2124
 1938SOL    HW2 7518   5.931   2.472   4.018  1.1452 -0.1147 -2.1790
 1938SOL    HW3 7519   5.868   2.404   3.899 -1.5638 -0.6588 -0.5209
 1938SOL    MW4 7520   5.862   2.434   3.980  0.2453 -0.2433 -0.5126
 1939SOL     OW 7521   1.322   5.233   6.347 -0.1221  0.3037  0.6044
 1939SOL    HW2 7522   1.302   5.148   6.387 -1.1662  1.0750  1.7919
 1939SOL    HW3 7523   1.262   5.295   6.390  0.3764  1.5868 -0.4805
 1939SOL    MW4 7524   1.312   5.230   6.358 -0.1941  0.5747  0.6180
 1940SOL     OW 7525   4.013   5.125   5.988 -0.1896  0.1935 -0.3512
 1940SOL    HW2 7526   4.076   5.053   5.987 -0.4747 -0.0568 -0.5192
 1940SOL    HW3 7527   3.999   5.144   6.081  1.7815  1.7186 -0.2994
 1940SOL    MW4 7528   4.020   5.118   6.000  0.0328  0.3617 -0.3665
 1941SOL     OW 7529   5.786   3.119   5.414 -0.3390  0.4291  0.2073
 1941SOL    HW2 7530   5.764   3.171   5.337 -0.0914  2.7416  1.5826
 1941SOL    HW3 7531   5.704   3.112   5.463 -0.4382 -0.7849 -0.1188
 1941SOL    MW4 7532   5.773   3.125   5.410 -0.3194  0.5740  0.3457
 1942SOL     OW 7533   2.997   6.413   5.221 -0.3712  0.3643  0.5638
 1942SOL    HW2 7534   2.997   6.478   5.151 -0.1711 -0.7763 -0.5452
 1942SOL    HW3 7535   2.924   6.438   5.278 -1.7968  0.2182 -1.1327
 1942SOL    MW4 7536   2.987   6.425   5.219 -0.5329  0.1946  0.1937
 1943SOL     OW 7537   3.034   0.780   4.115  0.7720  0.1694  0.1679
 1943SOL    HW2 7538   3.042   0.738   4.201  1.3168  0.7591  0.4160
 1943SOL    HW3 7539   3.086   0.860   4.123 -0.1654  0.8428 -0.3271
 1943SOL    MW4 7540   3.042   0.785   4.128  0.7202  0.3360  0.1353
 1944SOL     OW 7541   1.412   0.542   0.579 -0.1016  0.2068  0.0610
 1944SOL    HW2 7542   1.452   0.519   0.496 -0.9009  1.8588 -0.8346
 1944SOL    HW3 7543   1.459   0.621   0.608 -0.0138 -0.1902  1.0463
 1944SOL    MW4 7544   1.423   0.550   0.572 -0.1955  0.3724  0.0729
 1945SOL     OW 7545   6.159   4.709   4.006 -0.3904 -0.1204 -0.7008
 1945SOL    HW2 7546   6.128   4.722   4.096 -1.2173 -1.3182 -0.7939
 1945SOL    HW3 7547   6.156   4.797   3.967  1.8969  0.8368  0.9770
 1945SOL    MW4 7548   6.155   4.723   4.013 -0.1977 -0.1521 -0.4917
 1946SOL     OW 7549   4.370   6.360   5.198 -0.3920  0.0932  0.2836
 1946SOL    HW2 7550   4.380   6.329   5.287  0.1074  0.2123  0.2690
 1946SOL    HW3 7551   4.275   6.365   5.185 -0.4670  0.1542  0.8314
 1946SOL    MW4 7552   4.359   6.357   5.208 -0.3360  0.1170  0.3540
 1947SOL     OW 7553   0.145   5.163   6.075  0.0290 -0.3743 -0.0831
 1947SOL    HW2 7554   0.142   5.091   6.138  0.7762  0.5653  1.0735
 1947SOL    HW3 7555   0.055   5.196   6.072  0.0625 -0.1558  0.8467
 1947SOL    MW4 7556   0.133   5.158   6.083  0.1320 -0.2215  0.1922
 1948SOL     OW 7557   0.835   1.729   2.085 -0.0110  0.0320 -0.5106
 1948SOL    HW2 7558   0.895   1.796   2.052 -0.9843  1.4089  0.3834
 1948SOL    HW3 7559   0.891   1.655   2.107  1.2254  0.8600 -0.7536
 1948SOL    MW4 7560   0.850   1.728   2.084  0.0237  0.3229 -0.4247
 1949SOL     OW 7561   0.443   3.245   5.648 -0.3405  0.4674  0.1092
 1949SOL    HW2 7562   0.431   3.329   5.693  1.0950  1.0995 -0.6214
 1949SOL    HW3 7563   0.494   3.192   5.708 -0.7910  0.2933  0.3474
 1949SOL    MW4 7564   0.448   3.249   5.662 -0.2105  0.5278  0.0442
 1950SOL     OW 7565   2.018   4.918   1.840 -0.1314  0.1875 -0.4122
 1950SOL    HW2 7566   2.017   4.860   1.764  0.0431  0.7734 -0.8682
 1950SOL    HW3 7567   2.076   4.875   1.903  0.9486  0.4511 -1.2130
 1950SOL    MW4 7568   2.025   4.905   1.838  0.0341  0.2996 -0.5780
 1951SOL     OW 7569   3.122   5.682   3.556  0.1019 -0.4303 -0.5262
 1951SOL    HW2 7570   3.142   5.775   3.570 -0.4975 -0.5680  1.4007
 1951SOL    HW3 7571   3.031   5.681   3.525 -1.1601 -0.4733  2.7462
 1951SOL    MW4 7572   3.113   5.694   3.553 -0.1437 -0.4541  0.1598
 1952SOL     OW 7573   3.195   3.281   5.732  0.3633 -0.5417 -0.1281
 1952SOL    HW2 7574   3.115   3.253   5.688 -0.3057 -1.0325  1.3196
 1952SOL    HW3 7575   3.204   3.374   5.710  0.0736 -0.7856 -1.2949
 1952SOL    MW4 7576   3.186   3.290   5.724  0.2368 -0.6386 -0.0910
 1953SOL     OW 7577   0.395   3.673   3.791  0.4562 -0.3268  0.3124
 1953SOL    HW2 7578   0.377   3.739   3.858 -0.1281  1.6416 -1.6693
 1953SOL    HW3 7579   0.485   3.645   3.808  1.4455  2.4289  0.1121
 1953SOL    MW4 7580   0.404   3.678   3.802  0.5097  0.2965  0.0245
 1954SOL     OW 7581   1.004   5.026   2.946 -0.3235 -0.2493  0.6257
 1954SOL    HW2 7582   0.968   4.975   2.874 -0.6300  0.4799  0.2508
 1954SOL    HW3 7583   1.090   4.987   2.963 -0.3706 -0.6056  0.0551
 1954SOL    MW4 7584   1.010   5.014   2.939 -0.3702 -0.2001  0.5010
 1955SOL     OW 7585   0.123   0.917   4.948 -0.0177 -0.2942  0.0090
 1955SOL    HW2 7586   0.045   0.937   4.999  1.2330 -0.4655  2.1145
 1955SOL    HW3 7587   0.117   0.973   4.871 -3.0313 -1.5486 -0.8112
 1955SOL    MW4 7588   0.112   0.927   4.945 -0.2503 -0.4823  0.1786
 1956SOL     OW 7589   6.226   0.006   1.366 -0.6499 -0.1336 -0.2906
 1956SOL    HW2 7590   6.316   0.037   1.361 -0.1412 -1.4480  0.2498
 1956SOL    HW3 7591   6.193   0.042   1.449 -0.8970  0.9878 -0.8579
 1956SOL    MW4 7592   6.233   0.015   1.377 -0.6154 -0.1591 -0.2941
 1957SOL     OW 7593   5.429   1.952   6.409  0.3761  0.0169 -0.1756
 1957SOL    HW2 7594   5.351   1.968   6.462  0.3099  0.8184 -0.4914
 1957SOL    HW3 7595   5.408   1.875   6.357 -0.6363  0.8431 -1.0340
 1957SOL    MW4 7596   5.416   1.944   6.409  0.2338  0.2316 -0.3305
 1958SOL     OW 7597   1.041   0.444   2.402 -0.0252 -0.1778 -0.0390
 1958SOL    HW2 7598   0.992   0.463   2.482  0.4488  0.9140  0.0080
 1958SOL    HW3 7599   1.000   0.499   2.335  0.9997  0.6081 -0.0408
 1958SOL    MW4 7600   1.029   0.453   2.403  0.1726  0.0699 -0.0330
 1959SOL     OW 7601   0.671   4.856   0.107 -0.5381  0.6135 -0.5233
 1959SOL    HW2 7602   0.675   4.797   0.181  1.0969  2.2142  0.7523
 1959SOL    HW3 7603   0.686   4.801   0.030  0.0063 -0.7258  0.5175
 1959SOL    MW4 7604   0.673   4.841   0.106 -0.2505  0.6480 -0.2177
 1960SOL     OW 7605   5.415   4.451   5.295 -0.4303  0.2704  0.1100
 1960SOL    HW2 7606   5.338   4.472   5.243 -0.0414  0.6776 -0.3159
 1960SOL    HW3 7607   5.427   4.526   5.353 -0.0905  0.4238 -0.1508
 1960SOL    MW4 7608   5.406   4.463   5.296 -0.3341  0.3443  0.0194
 1961SOL     OW 7609   3.750   2.533   2.693 -0.2826  0.3171  0.1019
 1961SOL    HW2 7610   3.803   2.476   2.748 -0.8234  0.4347  0.7628
 1961SOL    HW3 7611   3.663   2.494   2.695 -0.3975  0.5375 -0.3599
 1961SOL    MW4 7612   3.745   2.521   2.700 -0.3691  0.3617  0.1282
 1962SOL     OW 7613   5.225   3.965   3.569 -0.3705 -0.5522 -0.7508
 1962SOL    HW2 7614   5.215   4.042   3.625  1.0333 -0.5444 -0.4684
 1962SOL    HW3 7615   5.159   3.903   3.600 -1.3545  0.4309 -0.8162
 1962SOL    MW4 7616   5.215   3.967   3.580 -0.3151 -0.4215 -0.7222
 1963SOL     OW 7617   3.443   0.565   2.955 -0.4368 -0.1658 -0.3484
 1963SOL    HW2 7618   3.420   0.656   2.973  2.1467  0.5331 -0.1416
 1963SOL    HW3 7619   3.389   0.514   3.015 -0.0241  1.4216  1.4684
 1963SOL    MW4 7620   3.433   0.570   2.965 -0.0415  0.1358 -0.0814
 1964SOL     OW 7621   1.733   3.395   3.017 -0.2037  0.0343  0.1022
 1964SOL    HW2 7622   1.648   3.437   3.023  0.7683  2.0102  1.1409
 1964SOL    HW3 7623   1.747   3.356   3.103  0.7400  1.4850  0.6533
 1964SOL    MW4 7624   1.724   3.395   3.029  0.0491  0.4864  0.3120
 1965SOL     OW 7625   3.355   1.860   0.823 -0.1672 -0.2138 -0.0973
 1965SOL    HW2 7626   3.312   1.912   0.891  0.6726  1.5976 -0.8767
 1965SOL    HW3 7627   3.289   1.853   0.754 -1.6411 -3.5174  1.4724
 1965SOL    MW4 7628   3.340   1.866   0.823 -0.2509 -0.4107  0.0070
 1966SOL     OW 7629   1.820   2.417   0.594  0.0537 -0.0629  0.3834
 1966SOL    HW2 7630   1.773   2.475   0.655  0.6872 -0.4377  1.2494
 1966SOL    HW3 7631   1.913   2.435   0.612  0.2505 -0.9602  0.2862
 1966SOL    MW4 7632   1.826   2.427   0.605  0.1632 -0.2307  0.4848
 1967SOL     OW 7633   4.295   3.790   2.961  0.0601 -0.1338 -0.4443
 1967SOL    HW2 7634   4.217   3.785   3.017  0.9951  1.9467  1.1693
 1967SOL    HW3 7635   4.353   3.721   2.996  0.6962  1.2371  1.3739
 1967SOL    MW4 7636   4.292   3.780   2.973  0.2674  0.3215  0.0085
 1968SOL     OW 7637   3.637   1.531   0.258  0.1938 -0.0726  0.4165
 1968SOL    HW2 7638   3.675   1.602   0.308  0.1059  0.3223 -0.0746
 1968SOL    HW3 7639   3.542   1.546   0.263  0.2323  1.6194 -2.2016
 1968SOL    MW4 7640   3.629   1.542   0.265  0.1873  0.2028  0.0063
 1969SOL     OW 7641   2.237   2.037   1.462 -0.0927 -0.1768  0.1031
 1969SOL    HW2 7642   2.180   2.013   1.534 -0.0500  1.1877  0.6210
 1969SOL    HW3 7643   2.187   2.015   1.383 -1.2081  0.6405  0.5460
 1969SOL    MW4 7644   2.223   2.031   1.461 -0.2342  0.1111  0.2298
 1970SOL     OW 7645   3.138   5.930   5.873  0.4303  0.2492  0.3767
 1970SOL    HW2 7646   3.110   5.903   5.960  0.8434  0.5595  0.6122
 1970SOL    HW3 7647   3.126   6.025   5.872 -1.1155  0.0785 -0.4824
 1970SOL    MW4 7648   3.133   5.939   5.884  0.2808  0.2676  0.2944
 1971SOL     OW 7649   5.629   4.728   5.617  0.2468 -0.3245  0.5202
 1971SOL    HW2 7650   5.656   4.809   5.574  2.4527 -0.0877  2.1640
 1971SOL    HW3 7651   5.606   4.754   5.706 -0.0871 -1.3537  0.7496
 1971SOL    MW4 7652   5.630   4.742   5.623  0.4938 -0.4291  0.7673
 1972SOL     OW 7653   2.786   3.834   3.258  0.4308  0.1322  0.0294
 1972SOL    HW2 7654   2.737   3.756   3.286 -0.2507  0.3885 -0.4201
 1972SOL    HW3 7655   2.850   3.801   3.196 -0.0400 -0.0399 -0.3707
 1972SOL    MW4 7656   2.788   3.819   3.254  0.2788  0.1433 -0.0827
 1973SOL     OW 7657   1.498   2.191   1.071 -0.5045  0.1954  0.2157
 1973SOL    HW2 7658   1.529   2.281   1.058 -0.3492 -0.0680 -1.4173
 1973SOL    HW3 7659   1.552   2.138   1.012 -1.5402 -0.7732  0.1030
 1973SOL    MW4 7660   1.509   2.196   1.061 -0.6206  0.0328 -0.0147
 1974SOL     OW 7661   1.555   6.297   2.033 -0.5233 -0.2099 -0.6016
 1974SOL    HW2 7662   1.588   6.217   2.074  1.0534  0.2042 -0.9987
 1974SOL    HW3 7663   1.498   6.266   1.963  0.3258 -0.9984 -0.9550
 1974SOL    MW4 7664   1.552   6.282   2.029 -0.2032 -0.2593 -0.7006
 1975SOL     OW 7665   5.072   5.325   6.223  0.0768  0.7031 -0.1531
 1975SOL    HW2 7666   5.162   5.353   6.207  1.0628 -1.1794  1.5155
 1975SOL    HW3 7667   5.041   5.382   6.294 -0.8788  2.7154 -2.0587
 1975SOL    MW4 7668   5.080   5.336   6.231  0.0808  0.7202 -0.1843
 1976SOL     OW 7669   0.732   5.518   3.509 -0.3608 -0.1033 -0.3119
 1976SOL    HW2 7670   0.687   5.582   3.565 -1.2150 -0.6998 -0.2937
 1976SOL    HW3 7671   0.740   5.562   3.424 -0.7668  0.1080 -0.2454
 1976SOL    MW4 7672   0.727   5.532   3.505 -0.5270 -0.1541 -0.3007
 1977SOL     OW 7673   0.317   2.869   5.022 -0.1905 -0.3703  0.0683
 1977SOL    HW2 7674   0.298   2.829   5.107 -0.6743 -1.6403 -0.6005
 1977SOL    HW3 7675   0.342   2.959   5.042 -0.2254 -0.6686  1.5538
 1977SOL    MW4 7676   0.318   2.875   5.036 -0.2589 -0.5772  0.1760
 1978SOL     OW 7677   1.883   6.266   1.534  0.1154  0.1569 -0.1938
 1978SOL    HW2 7678   1.872   6.246   1.627  0.8501  0.6007 -0.0003
 1978SOL    HW3 7679   1.862   6.359   1.526 -0.5938 -0.0358 -0.5925
 1978SOL    MW4 7680   1.879   6.275   1.545  0.1188  0.1900 -0.2208
 1979SOL     OW 7681   1.208   2.922   1.536 -0.1319  0.0902  0.4167
 1979SOL    HW2 7682   1.212   3.012   1.567  0.3568 -0.5714  2.4049
 1979SOL    HW3 7683   1.151   2.878   1.599  2.5031 -1.7782  1.6567
 1979SOL    MW4 7684   1.201   2.928   1.548  0.2802 -0.2436  0.8427
 1980SOL     OW 7685   5.626   2.686   4.674 -0.9632 -0.5463 -0.1238
 1980SOL    HW2 7686   5.617   2.642   4.589  2.6124 -1.2934 -0.2803
 1980SOL    HW3 7687   5.634   2.615   4.738  1.2184 -0.1961  0.0938
 1980SOL    MW4 7688   5.626   2.671   4.671 -0.2036 -0.5986 -0.1157
 1981SOL     OW 7689   4.979   6.175   5.982 -0.1025 -0.2617 -0.0864
 1981SOL    HW2 7690   4.994   6.263   5.949 -1.3021 -0.1390 -0.3548
 1981SOL    HW3 7691   4.929   6.187   6.063 -2.7905 -0.7132 -1.5547
 1981SOL    MW4 7692   4.975   6.188   5.988 -0.6154 -0.3051 -0.3155
 1982SOL     OW 7693   5.679   4.818   3.036  0.1397  0.1663  0.2359
 1982SOL    HW2 7694   5.663   4.749   2.972  0.2359 -0.6544  1.0603
 1982SOL    HW3 7695   5.687   4.898   2.985 -3.3738  0.1802 -0.5055
 1982SOL    MW4 7696   5.678   4.819   3.021 -0.3112  0.0599  0.2469
 1983SOL     OW 7697   5.590   2.877   1.084 -0.9662 -0.2499 -0.0069
 1983SOL    HW2 7698   5.677   2.896   1.048 -0.6841 -0.7037  0.4256
 1983SOL    HW3 7699   5.569   2.790   1.048 -0.8020 -0.5831  0.6880
 1983SOL    MW4 7700   5.599   2.868   1.074 -0.9073 -0.3537  0.1418
 1984SOL     OW 7701   5.849   6.024   2.130  0.1427 -0.6064  0.6251
 1984SOL    HW2 7702   5.784   5.955   2.142  2.6124 -3.2461 -0.2439
 1984SOL    HW3 7703   5.826   6.065   2.047 -1.3661 -0.2888  1.1639
 1984SOL    MW4 7704   5.837   6.020   2.121  0.2695 -0.9128  0.5815
 1985SOL     OW 7705   5.204   6.164   3.578 -0.2239  0.4041 -0.0700
 1985SOL    HW2 7706   5.139   6.199   3.517  0.6478  1.3990 -0.4414
 1985SOL    HW3 7707   5.153   6.139   3.656 -0.8930  2.4490  0.1975
 1985SOL    MW4 7708   5.188   6.165   3.580 -0.1972  0.8052 -0.0837
 1986SOL     OW 7709   4.368   2.410   0.124  0.2453  0.1599 -0.0490
 1986SOL    HW2 7710   4.449   2.360   0.113  0.1403  0.2711 -1.4192
 1986SOL    HW3 7711   4.398   2.499   0.144  0.5281  0.5983 -2.2034
 1986SOL    MW4 7712   4.383   2.415   0.125  0.2688  0.2324 -0.5141
 1987SOL     OW 7713   1.672   2.175   5.928 -0.2879 -0.0451 -0.2617
 1987SOL    HW2 7714   1.741   2.239   5.914  0.2705 -0.7123 -0.6694
 1987SOL    HW3 7715   1.590   2.224   5.919  0.1317  0.6803 -0.1514
 1987SOL    MW4 7716   1.670   2.190   5.925 -0.1589 -0.0375 -0.3010
 1988SOL     OW 7717   0.187   4.279   3.859  0.6291  0.9975 -0.4667
 1988SOL    HW2 7718   0.241   4.207   3.829  2.6329  1.6118  1.3509
 1988SOL    HW3 7719   0.117   4.286   3.795  1.7701 -0.9463 -2.0235
 1988SOL    MW4 7720   0.185   4.271   3.847  1.0440  0.8221 -0.4323
 1989SOL     OW 7721   5.202   2.615   3.307 -0.2490  0.2036 -0.4365
 1989SOL    HW2 7722   5.251   2.677   3.362  1.1429 -1.9809  0.9200
 1989SOL    HW3 7723   5.113   2.650   3.306  0.3836  2.0051  0.5907
 1989SOL    MW4 7724   5.197   2.628   3.314  0.0181  0.1530 -0.1220
 1990SOL     OW 7725   6.392   3.002   0.337 -0.3011 -0.4408  0.3331
 1990SOL    HW2 7726   6.323   2.974   0.398  0.1337  0.4012  1.2469
 1990SOL    HW3 7727   6.454   3.049   0.392  1.3540 -1.7175 -0.3365
 1990SOL    MW4 7728   6.391   3.004   0.353 -0.0254 -0.4982  0.3653
 1991SOL     OW 7729   5.478   3.026   0.865 -0.1549 -0.3991  0.1591
 1991SOL    HW2 7730   5.449   3.111   0.900  1.9780  1.2831 -1.8307
 1991SOL    HW3 7731   5.505   2.976   0.942 -0.1424  1.2845  1.3020
 1991SOL    MW4 7732   5.478   3.031   0.880  0.1282  0.0450  0.0474
 1992SOL     OW 7733   2.381   5.226   4.032 -0.0248  0.7207 -0.1990
 1992SOL    HW2 7734   2.288   5.212   4.015 -0.0323  0.5707 -0.0399
 1992SOL    HW3 7735   2.424   5.153   3.987 -0.0501  0.2802  0.4770
 1992SOL    MW4 7736   2.374   5.214   4.024 -0.0291  0.6428 -0.0888
 1993SOL     OW 7737   4.809   2.869   5.665  0.2584 -0.2268 -0.2893
 1993SOL    HW2 7738   4.879   2.815   5.701  0.7829  0.3366 -0.4429
 1993SOL    HW3 7739   4.847   2.957   5.660  0.0018 -0.1727 -1.6473
 1993SOL    MW4 7740   4.824   2.874   5.669  0.2938 -0.1453 -0.4887
 1994SOL     OW 7741   1.354   4.597   4.790  0.1636  0.4408  0.0748
 1994SOL    HW2 7742   1.329   4.643   4.870  1.0938  0.5738  0.3058
 1994SOL    HW3 7743   1.280   4.610   4.730  0.2087  1.8559  0.2935
 1994SOL    MW4 7744   1.341   4.605   4.793  0.2923  0.6451  0.1342
 1995SOL     OW 7745   5.268   2.869   0.474 -0.0724  0.1291  0.4725
 1995SOL    HW2 7746   5.331   2.890   0.406  0.0167 -1.2691  0.0960
 1995SOL    HW3 7747   5.211   2.803   0.435 -0.0981 -0.6009  1.6966
 1995SOL    MW4 7748   5.269   2.863   0.460 -0.0640 -0.1517  0.5843
 1996SOL     OW 7749   0.941   3.753   5.970 -0.0658  0.1091 -0.1889
 1996SOL    HW2 7750   0.957   3.659   5.973  3.5919  0.5858  0.9979
 1996SOL    HW3 7751   0.899   3.774   6.053 -1.3819 -0.4912 -0.6837
 1996SOL    MW4 7752   0.938   3.744   5.981  0.2431  0.0928 -0.0976
 1997SOL     OW 7753   0.255   3.115   0.699 -0.1157 -0.3171  0.1862
 1997SOL    HW2 7754   0.348   3.136   0.706 -0.1798 -0.2351  0.8471
 1997SOL    HW3 7755   0.213   3.169   0.766 -0.5055 -1.1648  0.6414
 1997SOL    MW4 7756   0.262   3.125   0.709 -0.1756 -0.4181  0.3335
 1998SOL     OW 7757   1.649   6.111   2.240  0.0364 -0.0802  0.2135
 1998SOL    HW2 7758   1.724   6.067   2.200  0.6870  2.4011 -1.5201
 1998SOL    HW3 7759   1.683   6.146   2.322 -0.1081 -1.5275  0.9165
 1998SOL    MW4 7760   1.664   6.110   2.246  0.1032  0.0562  0.0775
 1999SOL     OW 7761   2.144   3.542   6.078  0.4469 -0.0752  0.0088
 1999SOL    HW2 7762   2.182   3.503   5.999  2.6599  2.0608 -0.0791
 1999SOL    HW3 7763   2.216   3.545   6.141 -0.4075  1.2443  0.9823
 1999SOL    MW4 7764   2.159   3.537   6.076  0.6261  0.3807  0.1256
 2000SOL     OW 7765   2.774   1.097   1.321  0.2694 -0.4312  0.4966
 2000SOL    HW2 7766   2.803   1.188   1.310  1.4455 -0.2483  4.0568
 2000SOL    HW3 7767   2.822   1.049   1.254  1.4146  1.2560  0.0237
 2000SOL    MW4 7768   2.784   1.103   1.311  0.5756 -0.1845  0.9039
 2001SOL     OW 7769   2.514   1.548   4.505 -0.2484  0.4932 -0.3589
 2001SOL    HW2 7770   2.448   1.568   4.439 -1.4941 -2.2295 -0.0709
 2001SOL    HW3 7771   2.562   1.474   4.470  1.1713  0.9855  0.4548
 2001SOL    MW4 7772   2.511   1.541   4.492 -0.2254  0.1989 -0.2135
 2002SOL     OW 7773   4.132   2.598   1.095  0.5673 -0.0248  0.2821
 2002SOL    HW2 7774   4.128   2.524   1.155 -0.2472 -1.5696 -1.5776
 2002SOL    HW3 7775   4.042   2.610   1.064  0.8834  1.0236 -0.3059
 2002SOL    MW4 7776   4.120   2.590   1.099  0.5016 -0.0903 -0.0408
 2003SOL     OW 7777   0.391   3.085   2.227  0.2082 -0.1853 -0.7585
 2003SOL    HW2 7778   0.371   2.991   2.232  0.2893 -0.2371 -1.3604
 2003SOL    HW3 7779   0.367   3.119   2.313 -0.0614 -0.7142 -0.6202
 2003SOL    MW4 7780   0.385   3.077   2.239  0.1834 -0.2619 -0.8197
 2004SOL     OW 7781   3.211   1.962   0.463 -0.1670 -0.2174 -0.4803
 2004SOL    HW2 7782   3.299   1.968   0.500  0.0071 -1.7333 -0.5643
 2004SOL    HW3 7783   3.163   1.907   0.525 -0.7750 -0.1834 -0.9111
 2004SOL    MW4 7784   3.217   1.955   0.476 -0.2243 -0.4129 -0.5482
 2005SOL     OW 7785   0.700   1.241   5.463  0.0835 -0.7055 -0.0579
 2005SOL    HW2 7786   0.778   1.186   5.463 -0.4586 -1.4878  0.5141
 2005SOL    HW3 7787   0.685   1.264   5.554  0.5101  0.7236 -0.3156
 2005SOL    MW4 7788   0.708   1.237   5.475  0.0683 -0.6202 -0.0164
 2006SOL     OW 7789   2.496   1.023   5.801 -0.0554 -0.1314  0.2566
 2006SOL    HW2 7790   2.564   1.090   5.792  0.2931 -0.7765 -4.1299
 2006SOL    HW3 7791   2.455   1.020   5.715 -2.8007 -2.7789  1.4997
 2006SOL    MW4 7792   2.500   1.031   5.788 -0.3716 -0.5658 -0.1581
 2007SOL     OW 7793   3.436   4.666   5.089  0.2358  0.1331 -0.5202
 2007SOL    HW2 7794   3.528   4.659   5.115  0.3717  0.6811 -0.8663
 2007SOL    HW3 7795   3.413   4.577   5.061  0.7272  0.0521 -0.6738
 2007SOL    MW4 7796   3.445   4.653   5.089  0.3185  0.1947 -0.5862
 2008SOL     OW 7797   3.781   2.651   6.353 -0.2687 -0.0480  0.3952
 2008SOL    HW2 7798   3.706   2.695   6.313  0.3787  0.5395 -0.1966
 2008SOL    HW3 7799   3.842   2.637   6.281 -0.3086 -1.6192  0.6422
 2008SOL    MW4 7800   3.779   2.655   6.338 -0.1886 -0.1778  0.3497
 2009SOL     OW 7801   1.421   4.705   1.945  0.0945 -0.2308 -0.0084
 2009SOL    HW2 7802   1.353   4.640   1.962  1.1973 -1.3318  0.3220
 2009SOL    HW3 7803   1.496   4.675   1.996  1.0907  0.5265 -0.9847
 2009SOL    MW4 7804   1.422   4.692   1.954  0.3714 -0.2761 -0.0936
 2010SOL     OW 7805   4.219   2.192   3.906  0.5844 -0.0347  0.2960
 2010SOL    HW2 7806   4.164   2.119   3.936 -1.1144  1.4612  0.9923
 2010SOL    HW3 7807   4.288   2.199   3.972 -0.6138  0.4644  1.5363
 2010SOL    MW4 7808   4.221   2.183   3.918  0.2021  0.2285  0.5515
 2011SOL     OW 7809   5.164   0.627   5.374 -0.5273  0.3816  0.7316
 2011SOL    HW2 7810   5.223   0.640   5.449 -0.8913  0.5446  0.9946
 2011SOL    HW3 7811   5.078   0.613   5.414 -0.7670  0.7082  0.3355
 2011SOL    MW4 7812   5.160   0.627   5.390 -0.6069  0.4462  0.7140
 2012SOL     OW 7813   5.766   2.090   6.394 -0.2664  0.3065  0.1369
 2012SOL    HW2 7814   5.791   2.023   6.458 -0.6564 -1.1200 -1.1463
 2012SOL    HW3 7815   5.686   2.129   6.431  0.3749  0.6020  1.2545
 2012SOL    MW4 7816   5.759   2.086   6.407 -0.2333  0.1573  0.1151
 2013SOL     OW 7817   5.430   3.286   1.004  0.1473  0.0842 -0.3367
 2013SOL    HW2 7818   5.375   3.360   0.979 -1.8373 -0.6868  1.4740
 2013SOL    HW3 7819   5.459   3.306   1.093 -1.4895 -1.8230  0.7039
 2013SOL    MW4 7820   5.427   3.298   1.012 -0.3305 -0.2691  0.0395
 2014SOL     OW 7821   5.980   3.015   2.968 -0.3624 -0.1948 -0.2082
 2014SOL    HW2 7822   5.925   2.945   3.003  0.4075 -0.9088 -0.3895
 2014SOL    HW3 7823   6.050   2.970   2.921 -0.5731  0.7217 -1.4666
 2014SOL    MW4 7824   5.982   3.000   2.966 -0.2886 -0.1681 -0.3981
 2015SOL     OW 7825   4.598   0.512   2.711 -0.8482  0.3000 -0.2812
 2015SOL    HW2 7826   4.566   0.554   2.791 -0.1367 -0.7069  0.5547
 2015SOL    HW3 7827   4.693   0.506   2.724 -0.8707 -1.0149 -0.6369
 2015SOL    MW4 7828   4.607   0.517   2.724 -0.7573 -0.0063 -0.2178
 2016SOL     OW 7829   1.498   6.391   1.078  0.0450  0.1116 -0.0115
 2016SOL    HW2 7830   1.480   6.482   1.098 -1.4813 -0.2232  0.2365
 2016SOL    HW3 7831   1.422   6.361   1.028 -0.0657 -1.3458  0.9566
 2016SOL    MW4 7832   1.486   6.399   1.074 -0.1710 -0.1249  0.1489
 2017SOL     OW 7833   5.079   3.114   6.419  0.0223 -0.5281  0.4367
 2017SOL    HW2 7834   5.089   3.208   6.404 -1.4852 -0.3390  0.4193
 2017SOL    HW3 7835   5.003   3.107   6.477  0.4454 -1.7108  0.8855
 2017SOL    MW4 7836   5.070   3.125   6.425 -0.1208 -0.6592  0.4936
 2018SOL     OW 7837   5.686   4.861   4.692 -0.1579  0.0706 -0.2360
 2018SOL    HW2 7838   5.734   4.897   4.767 -1.4361  0.2902  0.5172
 2018SOL    HW3 7839   5.747   4.867   4.619  1.1514 -0.2148  0.7999
 2018SOL    MW4 7840   5.701   4.867   4.692 -0.1538  0.0619  0.0001
 2019SOL     OW 7841   4.033   6.056   5.676 -0.2761  0.5101  0.9808
 2019SOL    HW2 7842   4.116   6.008   5.685 -1.7487 -2.3462  0.6107
 2019SOL    HW3 7843   4.009   6.078   5.765 -1.0690 -2.4397  1.6128
 2019SOL    MW4 7844   4.041   6.053   5.689 -0.5750 -0.2560  1.0154
 2020SOL     OW 7845   3.799   6.168   0.437  0.2081  0.0174  0.5281
 2020SOL    HW2 7846   3.753   6.134   0.513  0.5973  0.7941  1.1259
 2020SOL    HW3 7847   3.878   6.209   0.473  1.2644 -1.0620 -0.4356
 2020SOL    MW4 7848   3.804   6.169   0.452  0.3989 -0.0226  0.4798
 2021SOL     OW 7849   0.560   2.293   0.193  0.3412 -0.6406 -0.0460
 2021SOL    HW2 7850   0.564   2.382   0.160 -1.8196  0.1652  1.6312
 2021SOL    HW3 7851   0.651   2.269   0.209  0.8803  2.3033  2.0499
 2021SOL    MW4 7852   0.572   2.301   0.190  0.1273 -0.1459  0.4518
 2022SOL     OW 7853   3.634   6.412   0.978  0.0936 -0.6902 -0.5853
 2022SOL    HW2 7854   3.580   6.489   0.958 -0.1795 -0.0740  2.0789
 2022SOL    HW3 7855   3.695   6.406   0.905  1.0788  2.9875 -0.2898
 2022SOL    MW4 7856   3.635   6.422   0.966  0.1876 -0.1237 -0.1948
 2023SOL     OW 7857   1.612   3.100   0.937  0.5719 -0.8943 -0.3606
 2023SOL    HW2 7858   1.534   3.055   0.904 -0.1904 -0.3002  0.5790
 2023SOL    HW3 7859   1.626   3.171   0.875  0.8217 -1.4412 -0.9484
 2023SOL    MW4 7860   1.603   3.103   0.924  0.5043 -0.8880 -0.3142
 2024SOL     OW 7861   4.210   1.210   2.556 -0.2866 -0.3094 -0.1492
 2024SOL    HW2 7862   4.164   1.239   2.477 -1.4323 -0.7016  0.3513
 2024SOL    HW3 7863   4.266   1.283   2.580 -1.1183  0.4356 -0.4335
 2024SOL    MW4 7864   4.211   1.223   2.549 -0.5475 -0.2628 -0.1207
 2025SOL     OW 7865   4.749   1.721   5.198 -0.4430  0.2570  1.1443
 2025SOL    HW2 7866   4.699   1.694   5.122  1.1733 -1.8384  0.7290
 2025SOL    HW3 7867   4.685   1.764   5.255 -2.3093 -0.7565 -0.0845
 2025SOL    MW4 7868   4.734   1.724   5.196 -0.4760 -0.1532  0.9274
 2026SOL     OW 7869   2.581   1.836   2.243 -0.2524 -0.0162  0.0070
 2026SOL    HW2 7870   2.491   1.836   2.210 -0.9954 -0.9674  1.8783
 2026SOL    HW3 7871   2.604   1.743   2.249  1.8776  0.1877 -2.8727
 2026SOL    MW4 7872   2.572   1.824   2.239 -0.0694 -0.1148 -0.1260
 2027SOL     OW 7873  -0.006   4.842   0.168 -0.3722 -0.0850 -0.1543
 2027SOL    HW2 7874   0.017   4.934   0.176  0.6669 -0.3407 -0.0506
 2027SOL    HW3 7875   0.061   4.806   0.109 -2.4423 -0.1702 -2.6275
 2027SOL    MW4 7876   0.006   4.849   0.161 -0.5082 -0.1300 -0.4670
 2028SOL     OW 7877   1.287   4.931   5.421 -0.1034  0.2727  0.0795
 2028SOL    HW2 7878   1.280   4.948   5.327 -1.7133  0.9474  0.2770
 2028SOL    HW3 7879   1.327   5.010   5.457 -0.6388  0.5437  0.0942
 2028SOL    MW4 7880   1.291   4.944   5.413 -0.3864  0.3975  0.1075
 2029SOL     OW 7881   3.465   6.291   4.631 -0.4435  0.8374 -0.2117
 2029SOL    HW2 7882   3.475   6.370   4.685 -0.2643  0.8075 -0.1990
 2029SOL    HW3 7883   3.482   6.219   4.692 -3.1304  0.6390  0.4199
 2029SOL    MW4 7884   3.469   6.292   4.646 -0.7744  0.8073 -0.1267
 2030SOL     OW 7885   6.186   4.922   5.708  0.2181 -0.2160 -0.1348
 2030SOL    HW2 7886   6.093   4.919   5.685  0.1411 -0.0889  0.1605
 2030SOL    HW3 7887   6.206   4.834   5.740 -0.1205  0.1254  1.0425
 2030SOL    MW4 7888   6.177   4.910   5.709  0.1633 -0.1542  0.0595
 2031SOL     OW 7889   1.164   2.244   2.527  0.3959  0.1020 -0.1714
 2031SOL    HW2 7890   1.137   2.158   2.494  3.5531 -1.2132  0.3361
 2031SOL    HW3 7891   1.152   2.303   2.453 -0.6809 -1.0054 -0.9196
 2031SOL    MW4 7892   1.159   2.240   2.513  0.6704 -0.2177 -0.2031
 2032SOL     OW 7893   0.699   5.781   4.301  0.3022 -0.5270 -0.8439
 2032SOL    HW2 7894   0.671   5.726   4.373 -1.3576 -0.8105 -1.6572
 2032SOL    HW3 7895   0.792   5.795   4.316 -0.0018 -0.5109  1.3789
 2032SOL    MW4 7896   0.707   5.776   4.312  0.0431 -0.5622 -0.6579
 2033SOL     OW 7897   5.889   2.586   1.028  0.3391 -0.1750 -0.2301
 2033SOL    HW2 7898   5.973   2.596   0.984  0.5733 -0.8584  0.0442
 2033SOL    HW3 7899   5.823   2.604   0.961  0.6877  1.5065 -0.1755
 2033SOL    MW4 7900   5.891   2.590   1.014  0.4160 -0.0433 -0.1867
 2034SOL     OW 7901   3.378   4.400   5.036  0.7749 -0.4551 -0.2503
 2034SOL    HW2 7902   3.283   4.391   5.040  0.6351  0.6696 -0.8174
 2034SOL    HW3 7903   3.399   4.394   4.943  0.8750  2.6343 -0.5109
 2034SOL    MW4 7904   3.368   4.398   5.025  0.7697  0.1009 -0.3595
 2035SOL     OW 7905   4.544   0.508   4.293  0.0030 -0.2208 -0.1681
 2035SOL    HW2 7906   4.617   0.570   4.299  0.0666 -0.4091  1.8048
 2035SOL    HW3 7907   4.468   0.557   4.323 -0.3672 -0.4809 -0.6751
 2035SOL    MW4 7908   4.544   0.523   4.298 -0.0375 -0.2799  0.0253
 2036SOL     OW 7909   1.505   4.767   2.602 -0.4674  0.5146 -0.3067
 2036SOL    HW2 7910   1.512   4.704   2.530 -1.2420 -0.0594  0.1204
 2036SOL    HW3 7911   1.512   4.714   2.681  0.3475  1.1442  0.0560
 2036SOL    MW4 7912   1.507   4.752   2.603 -0.4621  0.5219 -0.2025
 2037SOL     OW 7913   1.251   2.942   1.108 -0.1382 -0.3797  0.6405
 2037SOL    HW2 7914   1.197   2.977   1.178 -1.1907  0.6806 -0.6515
 2037SOL    HW3 7915   1.223   2.850   1.100 -2.4019  0.3333 -0.5193
 2037SOL    MW4 7916   1.240   2.934   1.116 -0.5758 -0.1457  0.3170
 2038SOL     OW 7917   1.738   2.207   1.593 -0.0672  0.1569 -0.7855
 2038SOL    HW2 7918   1.659   2.223   1.645 -0.8622  0.6841 -2.1216
 2038SOL    HW3 7919   1.709   2.210   1.502  1.4305 -0.0065 -1.3031
 2038SOL    MW4 7920   1.724   2.210   1.588  0.0255  0.2049 -1.0300
 2039SOL     OW 7921   1.874   0.259   0.615  0.0654  0.5204 -0.1106
 2039SOL    HW2 7922   1.823   0.178   0.605  0.9930  0.0011 -0.7228
 2039SOL    HW3 7923   1.808   0.328   0.621 -0.7083 -0.0847 -1.3935
 2039SOL    MW4 7924   1.858   0.258   0.615  0.0857  0.3720 -0.3607
 2040SOL     OW 7925   0.246   5.827   0.975 -0.4460 -0.5236  0.5260
 2040SOL    HW2 7926   0.250   5.875   1.058 -0.3328 -1.5051  1.1103
 2040SOL    HW3 7927   0.257   5.894   0.908 -2.5340  0.5878  1.1944
 2040SOL    MW4 7928   0.248   5.842   0.977 -0.7066 -0.5064  0.6913
 2041SOL     OW 7929   4.183   0.064   2.355  0.0279  0.6231 -0.1739
 2041SOL    HW2 7930   4.266   0.055   2.401 -0.8716 -1.5609  1.1723
 2041SOL    HW3 7931   4.166  -0.022   2.318 -1.4435  1.1439 -0.8145
 2041SOL    MW4 7932   4.192   0.052   2.356 -0.2849  0.4037 -0.0808
 2042SOL     OW 7933   2.768   1.170   2.404  0.5171  0.4847 -0.0720
 2042SOL    HW2 7934   2.750   1.135   2.492  1.2712 -0.8333 -0.4124
 2042SOL    HW3 7935   2.764   1.093   2.347  1.3048  1.1190 -1.0055
 2042SOL    MW4 7936   2.765   1.155   2.408  0.7205  0.3945 -0.2401
 2043SOL     OW 7937   3.601   5.454   1.015 -0.7305 -0.1293  0.5332
 2043SOL    HW2 7938   3.628   5.536   0.972 -1.0060 -0.6847 -0.7694
 2043SOL    HW3 7939   3.642   5.457   1.101  0.3907  0.7602 -0.0036
 2043SOL    MW4 7940   3.610   5.465   1.020 -0.6189 -0.0852  0.2905
 2044SOL     OW 7941   4.634   5.609   2.998 -0.5939  0.0425  0.3455
 2044SOL    HW2 7942   4.651   5.544   3.065 -3.2697 -3.0010 -1.6011
 2044SOL    HW3 7943   4.575   5.672   3.039  1.2293  0.7871  1.9692
 2044SOL    MW4 7944   4.628   5.609   3.012 -0.7064 -0.2608  0.3029
 2045SOL     OW 7945   0.260   4.046   2.269  0.6150  0.9449  0.0838
 2045SOL    HW2 7946   0.246   4.115   2.334  0.2240  2.6767 -1.7296
 2045SOL    HW3 7947   0.233   3.966   2.313  0.7669  1.9722  2.1811
 2045SOL    MW4 7948   0.254   4.045   2.284  0.5835  1.3089  0.1213
 2046SOL     OW 7949   5.229   2.465   2.110  0.1610  0.5648 -0.3914
 2046SOL    HW2 7950   5.277   2.527   2.055 -1.3579  2.3326  0.1374
 2046SOL    HW3 7951   5.140   2.500   2.112 -0.3682 -0.7435  1.2938
 2046SOL    MW4 7952   5.223   2.478   2.103 -0.1093  0.6254 -0.0993
 2047SOL     OW 7953   0.063   4.567   6.008  0.0474 -0.6519  0.4681
 2047SOL    HW2 7954  -0.022   4.570   6.052  0.3419  2.2127  1.0549
 2047SOL    HW3 7955   0.054   4.628   5.934  1.1456 -1.4876 -0.3929
 2047SOL    MW4 7956   0.050   4.575   6.004  0.2312 -0.3842  0.4319
 2048SOL     OW 7957   3.596   0.725   1.720 -0.3792 -0.3128 -0.2331
 2048SOL    HW2 7958   3.662   0.689   1.661 -0.7059  0.9077 -1.4189
 2048SOL    HW3 7959   3.641   0.796   1.766 -0.5224 -0.3054 -0.1034
 2048SOL    MW4 7960   3.611   0.730   1.718 -0.4412 -0.1508 -0.3724
 2049SOL     OW 7961   0.333   6.322   4.472 -0.6299 -0.2015 -0.6044
 2049SOL    HW2 7962   0.365   6.316   4.382  1.5352  4.2072 -0.3910
 2049SOL    HW3 7963   0.304   6.413   4.481 -1.5298 -0.6948  2.9589
 2049SOL    MW4 7964   0.333   6.333   4.461 -0.4630  0.3151 -0.1061
 2050SOL     OW 7965   0.101   0.951   5.959  0.3245 -0.6250 -0.2655
 2050SOL    HW2 7966   0.127   0.892   5.888 -0.4271 -1.1156 -0.1382
 2050SOL    HW3 7967   0.014   0.982   5.935  0.3970 -0.1581  0.0471
 2050SOL    MW4 7968   0.093   0.947   5.947  0.2349 -0.6281 -0.2075
 2051SOL     OW 7969   3.501   5.301   1.882 -0.1035 -0.2893  0.0604
 2051SOL    HW2 7970   3.530   5.390   1.905  2.2639 -1.3964  1.8109
 2051SOL    HW3 7971   3.580   5.248   1.889 -1.6790 -2.7617  0.2971
 2051SOL    MW4 7972   3.516   5.306   1.886  0.0010 -0.7616  0.3226
 2052SOL     OW 7973   5.460   1.993   2.086 -0.3556 -0.6418 -0.2798
 2052SOL    HW2 7974   5.415   2.032   2.012  1.2285  0.2254 -0.8277
 2052SOL    HW3 7975   5.533   2.053   2.105 -1.2964 -0.2590  2.6653
 2052SOL    MW4 7976   5.464   2.006   2.079 -0.2707 -0.4769  0.0365
 2053SOL     OW 7977   5.476   0.027   2.044  0.0803  1.1723 -0.2671
 2053SOL    HW2 7978   5.505  -0.047   1.991 -0.5303  1.0159 -0.3840
 2053SOL    HW3 7979   5.535   0.098   2.019  1.2955  0.4857  0.5502
 2053SOL    MW4 7980   5.488   0.027   2.034  0.1601  1.0611 -0.1747
 2054SOL     OW 7981   6.411   0.039   4.682  0.5469 -0.4144  0.1922
 2054SOL    HW2 7982   6.453   0.119   4.650  1.1715 -1.1778 -0.9596
 2054SOL    HW3 7983   6.457  -0.032   4.637 -1.6698 -1.3141 -0.8218
 2054SOL    MW4 7984   6.422   0.040   4.672  0.3368 -0.6339 -0.0935
 2055SOL     OW 7985   1.595   4.194   0.477 -0.2781  0.8897 -0.5284
 2055SOL    HW2 7986   1.529   4.208   0.544 -0.3094 -0.2162 -0.3100
 2055SOL    HW3 7987   1.673   4.239   0.510 -0.4928  0.9397 -0.0930
 2055SOL    MW4 7988   1.597   4.202   0.490 -0.3106  0.7504 -0.4421
 2056SOL     OW 7989   5.101   2.925   5.962  0.1569  0.2426 -0.3723
 2056SOL    HW2 7990   5.076   2.878   6.042  0.6927  0.7685  0.1170
 2056SOL    HW3 7991   5.094   2.860   5.893  0.3084 -0.3956  0.2020
 2056SOL    MW4 7992   5.097   2.910   5.964  0.2476  0.2277 -0.2319
 2057SOL     OW 7993   4.244   5.675   5.093 -0.4775 -0.0509 -0.6137
 2057SOL    HW2 7994   4.226   5.690   5.186  0.3035 -2.6205  0.0372
 2057SOL    HW3 7995   4.199   5.593   5.073 -1.6985  1.0729 -2.9183
 2057SOL    MW4 7996   4.236   5.667   5.103 -0.5356 -0.2417 -0.8319
 2058SOL     OW 7997   1.533   6.026   5.341 -0.1171  0.5086  0.5654
 2058SOL    HW2 7998   1.587   6.011   5.419 -1.7024 -0.3872  1.5339
 2058SOL    HW3 7999   1.451   6.061   5.375 -1.1865 -0.7656 -0.6043
 2058SOL    MW4 8000   1.530   6.029   5.356 -0.4674  0.2223  0.5388
 2059SOL     OW 8001   2.586   6.255   5.268 -0.3561  0.5694  0.0595
 2059SOL    HW2 8002   2.549   6.320   5.208  0.9225  1.1458 -0.1262
 2059SOL    HW3 8003   2.622   6.188   5.211 -1.9517 -0.5167  0.2522
 2059SOL    MW4 8004   2.586   6.255   5.252 -0.3979  0.5021  0.0604
 2060SOL     OW 8005   3.359   0.910   3.878  0.1881  0.4610 -0.2624
 2060SOL    HW2 8006   3.438   0.963   3.882 -0.8093  2.0672 -0.9042
 2060SOL    HW3 8007   3.303   0.945   3.948 -1.0745  1.3128 -1.6517
 2060SOL    MW4 8008   3.362   0.922   3.888 -0.1101  0.7853 -0.5304
 2061SOL     OW 8009   2.253   0.976   1.063 -0.0101  0.7468  0.2167
 2061SOL    HW2 8010   2.264   1.069   1.081 -0.4814  1.2714 -2.0133
 2061SOL    HW3 8011   2.299   0.933   1.136  0.5823  2.6920  1.0686
 2061SOL    MW4 8012   2.261   0.982   1.075  0.0058  1.0727  0.0348
 2062SOL     OW 8013   2.081   0.957   2.977 -0.2220  0.4849  0.5486
 2062SOL    HW2 8014   2.066   1.043   2.938 -2.6005  0.8391  2.0206
 2062SOL    HW3 8015   2.006   0.905   2.949  0.8562 -0.9453  0.2174
 2062SOL    MW4 8016   2.069   0.961   2.968 -0.3936  0.3429  0.6991
 2063SOL     OW 8017   1.606   0.612   4.322 -0.3014 -0.5718  0.3612
 2063SOL    HW2 8018   1.570   0.626   4.235  0.8340 -1.1827 -0.2215
 2063SOL    HW3 8019   1.662   0.688   4.338 -1.4449  0.1607  1.0930
 2063SOL    MW4 8020   1.608   0.624   4.313 -0.3025 -0.5557  0.3809
 2064SOL     OW 8021   1.460   3.446   2.983  0.1131 -0.4616 -0.0346
 2064SOL    HW2 8022   1.465   3.534   3.020 -1.4889 -0.7083  0.8444
 2064SOL    HW3 8023   1.419   3.393   3.051 -1.2365 -1.3419 -1.4666
 2064SOL    MW4 8024   1.455   3.451   2.997 -0.2763 -0.6103 -0.1075
 2065SOL     OW 8025   4.371   5.277   2.846  0.3429  0.1689  0.0506
 2065SOL    HW2 8026   4.338   5.188   2.835 -0.2676  0.1927  1.3983
 2065SOL    HW3 8027   4.310   5.332   2.798  0.2952 -0.0805 -0.1726
 2065SOL    MW4 8028   4.359   5.272   2.838  0.2561  0.1391  0.1989
 2066SOL     OW 8029   5.328   3.149   5.947  0.1155 -0.2283  0.3451
 2066SOL    HW2 8030   5.419   3.123   5.932  0.4512  0.0077  1.8543
 2066SOL    HW3 8031   5.279   3.067   5.942  0.7103 -0.6804  1.6321
 2066SOL    MW4 8032   5.333   3.135   5.944  0.2382 -0.2568  0.7140
 2067SOL     OW 8033   4.944   4.516   1.736 -0.5374 -0.2525  0.0531
 2067SOL    HW2 8034   4.915   4.496   1.825 -0.9857 -0.2162 -0.0823
 2067SOL    HW3 8035   4.901   4.451   1.681 -0.0136 -0.4708 -0.1057
 2067SOL    MW4 8036   4.935   4.505   1.741 -0.5274 -0.2765  0.0143
 2068SOL     OW 8037   5.994   6.085   4.432 -0.0857  0.2159  0.1645
 2068SOL    HW2 8038   6.027   6.011   4.381 -1.1126 -0.7045  0.7825
 2068SOL    HW3 8039   6.066   6.148   4.434  1.0168 -1.0254  0.1409
 2068SOL    MW4 8040   6.008   6.084   4.425 -0.0758 -0.0693  0.2429
 2069SOL     OW 8041   1.860   1.282   5.795  0.2931  0.3573 -0.1236
 2069SOL    HW2 8042   1.861   1.357   5.736  2.3299  1.7163  1.5061
 2069SOL    HW3 8043   1.854   1.321   5.882  0.9623 -1.4003  0.7418
 2069SOL    MW4 8044   1.859   1.297   5.799  0.6501  0.3047  0.2056
 2070SOL     OW 8045   4.449   5.744   3.207  0.3257 -0.2929  0.2054
 2070SOL    HW2 8046   4.447   5.774   3.297  0.0959  0.9834 -0.2085
 2070SOL    HW3 8047   4.376   5.683   3.200  0.9164 -1.1328  1.1134
 2070SOL    MW4 8048   4.439   5.740   3.218  0.3733 -0.2353  0.2706
 2071SOL     OW 8049   3.558   1.169   5.568  0.2589  0.0207 -0.0615
 2071SOL    HW2 8050   3.653   1.171   5.554  0.0621  1.7753 -1.5170
 2071SOL    HW3 8051   3.526   1.249   5.526 -1.8744 -0.5261  0.4148
 2071SOL    MW4 8052   3.566   1.180   5.561 -0.0485  0.1801 -0.1907
 2072SOL     OW 8053   1.021   2.357   4.105 -0.4996 -0.0700  0.4555
 2072SOL    HW2 8054   0.960   2.392   4.041 -1.5351  0.7446  1.8403
 2072SOL    HW3 8055   1.072   2.291   4.056 -1.1982  0.5540 -1.1853
 2072SOL    MW4 8056   1.020   2.353   4.090 -0.7284  0.1198  0.4217
 2073SOL     OW 8057   2.305   4.762   5.378  0.0831  0.5115 -0.3021
 2073SOL    HW2 8058   2.221   4.734   5.413 -0.1525  0.6986 -0.7128
 2073SOL    HW3 8059   2.285   4.795   5.290  0.6060  0.4045 -0.4662
 2073SOL    MW4 8060   2.292   4.763   5.371  0.1210  0.5221 -0.3779
 2074SOL     OW 8061   5.704   4.682   2.081 -1.0113 -0.2067  0.1556
 2074SOL    HW2 8062   5.772   4.741   2.114 -2.2957  1.2149  0.3561
 2074SOL    HW3 8063   5.661   4.649   2.159 -0.7358 -0.8882  0.0218
 2074SOL    MW4 8064   5.708   4.686   2.095 -1.1444 -0.1091  0.1644
 2075SOL     OW 8065   3.590   3.275   4.368 -0.2720 -0.3602 -0.2321
 2075SOL    HW2 8066   3.625   3.358   4.400 -3.0275  0.8010  0.1055
 2075SOL    HW3 8067   3.597   3.281   4.273  0.0550  0.0297 -0.1858
 2075SOL    MW4 8068   3.596   3.287   4.360 -0.5924 -0.1555 -0.1814
 2076SOL     OW 8069   4.499   0.845   5.404  0.0889  0.2133 -0.1345
 2076SOL    HW2 8070   4.489   0.903   5.480 -0.7577 -0.9013  0.6341
 2076SOL    HW3 8071   4.585   0.867   5.369  1.2230 -0.3671  2.1258
 2076SOL    MW4 8072   4.509   0.856   5.410  0.1268 -0.0103  0.2652
 2077SOL     OW 8073   0.737   5.994   0.473  0.1444 -0.1510 -0.0190
 2077SOL    HW2 8074   0.685   6.035   0.404  0.3150 -1.9278 -1.2584
 2077SOL    HW3 8075   0.817   6.046   0.476  0.3944 -0.4156 -1.5993
 2077SOL    MW4 8076   0.741   6.006   0.465  0.1999 -0.4204 -0.3910
 2078SOL     OW 8077   5.168   3.929   5.194 -0.3773 -0.6266  0.0989
 2078SOL    HW2 8078   5.263   3.930   5.176 -0.1453  1.0958  1.1997
 2078SOL    HW3 8079   5.128   3.958   5.112  0.2001  0.4824  0.1903
 2078SOL    MW4 8080   5.176   3.933   5.181 -0.2705 -0.2530  0.2562
 2079SOL     OW 8081   3.789   1.644   3.397 -0.3780  0.1070  0.3856
 2079SOL    HW2 8082   3.858   1.691   3.351 -1.1085  1.3691  0.5277
 2079SOL    HW3 8083   3.747   1.591   3.329  0.8693 -0.8847  0.3534
 2079SOL    MW4 8084   3.792   1.643   3.382 -0.3098  0.1427  0.4001
 2080SOL     OW 8085   3.844   2.999   1.225  0.5420  0.4500 -0.2554
 2080SOL    HW2 8086   3.852   3.094   1.236  1.2238  0.6571 -2.1321
 2080SOL    HW3 8087   3.918   2.963   1.274  0.2338  0.8643  0.5359
 2080SOL    MW4 8088   3.855   3.007   1.233  0.5913  0.5320 -0.3986
 2081SOL     OW 8089   0.673   3.710   1.660  0.1678  0.0484  0.4579
 2081SOL    HW2 8090   0.603   3.653   1.691 -1.3178  0.4885 -1.8581
 2081SOL    HW3 8091   0.735   3.651   1.617  0.2298 -0.1320  0.7923
 2081SOL    MW4 8092   0.672   3.695   1.658 -0.0200  0.0826  0.1965
 2082SOL     OW 8093   0.870   3.760   1.377  0.4325 -0.2789  0.1152
 2082SOL    HW2 8094   0.790   3.727   1.334  1.3899  1.2027 -3.1217
 2082SOL    HW3 8095   0.845   3.845   1.412  0.5659  0.2300 -0.9868
 2082SOL    MW4 8096   0.856   3.767   1.376  0.5764 -0.0163 -0.4572
 2083SOL     OW 8097   5.796   2.709   5.554 -0.4283  0.0476 -0.4511
 2083SOL    HW2 8098   5.807   2.615   5.540 -0.5662  0.0506 -0.5812
 2083SOL    HW3 8099   5.757   2.741   5.472  0.1156  0.3080 -0.6147
 2083SOL    MW4 8100   5.792   2.701   5.541 -0.3748  0.0824 -0.4899
 2084SOL     OW 8101   2.745   3.830   5.918  0.3868  0.2597 -0.4831
 2084SOL    HW2 8102   2.679   3.899   5.928 -0.0562 -0.1085 -0.8004
 2084SOL    HW3 8103   2.828   3.873   5.940 -0.0136  0.5988  0.4013
 2084SOL    MW4 8104   2.747   3.845   5.922  0.2755  0.2558 -0.4083
 2085SOL     OW 8105   0.347   3.840   3.999 -0.2143  0.2199  0.8285
 2085SOL    HW2 8106   0.309   3.909   3.944 -1.5464 -1.4602 -0.4899
 2085SOL    HW3 8107   0.438   3.866   4.010  0.1803  0.5998 -2.3646
 2085SOL    MW4 8108   0.354   3.853   3.993 -0.3380  0.0484  0.2332
 2086SOL     OW 8109   2.503   6.191   1.229 -0.4227  0.2637  0.4645
 2086SOL    HW2 8110   2.597   6.204   1.236 -0.2754 -0.9342  0.9464
 2086SOL    HW3 8111   2.493   6.102   1.198 -1.3956 -0.4260  2.5392
 2086SOL    MW4 8112   2.514   6.181   1.226 -0.5316  0.0147  0.8018
 2087SOL     OW 8113   2.879   3.291   3.726 -0.1734  0.1502 -0.7360
 2087SOL    HW2 8114   2.826   3.317   3.802 -1.0952 -2.5877 -0.3406
 2087SOL    HW3 8115   2.816   3.257   3.663  0.7680  0.6868 -1.9933
 2087SOL    MW4 8116   2.864   3.290   3.728 -0.1708 -0.1402 -0.8497
 2088SOL     OW 8117   2.114   6.152   0.701  0.0088  0.0457  0.7924
 2088SOL    HW2 8118   2.175   6.089   0.664 -0.9067 -1.1602  1.2961
 2088SOL    HW3 8119   2.160   6.186   0.779  0.2716 -0.4163  0.8409
 2088SOL    MW4 8120   2.128   6.148   0.706 -0.0773 -0.1744  0.8652
 2089SOL     OW 8121   5.329   1.313   4.088 -0.9999  0.7889  0.4729
 2089SOL    HW2 8122   5.362   1.315   4.178 -0.8975 -0.4338  0.4803
 2089SOL    HW3 8123   5.378   1.381   4.043  1.2361 -0.6339  0.5976
 2089SOL    MW4 8124   5.340   1.322   4.094 -0.6914  0.4398  0.4903
 2090SOL     OW 8125   5.644   3.894   3.757 -0.3082  0.4397 -0.1488
 2090SOL    HW2 8126   5.715   3.834   3.734 -0.2323 -0.2122  1.6018
 2090SOL    HW3 8127   5.567   3.857   3.715 -0.3657 -1.2722  1.3060
 2090SOL    MW4 8128   5.643   3.881   3.749 -0.3058  0.1278  0.2741
 2091SOL     OW 8129   2.203   5.212   1.920 -0.3370 -0.9156  0.2809
 2091SOL    HW2 8130   2.226   5.137   1.865 -1.5565 -2.0983  1.3051
 2091SOL    HW3 8131   2.287   5.250   1.946  0.2948 -1.6756 -0.6084
 2091SOL    MW4 8132   2.217   5.207   1.916 -0.4145 -1.1719  0.2987
 2092SOL     OW 8133   5.450   4.032   1.285  0.4933  0.5485 -0.2897
 2092SOL    HW2 8134   5.411   3.964   1.230 -0.6271  0.3196  0.7256
 2092SOL    HW3 8135   5.529   3.992   1.320  0.8384  0.4480 -1.1614
 2092SOL    MW4 8136   5.455   4.018   1.283  0.3910  0.5050 -0.2707
 2093SOL     OW 8137   0.729   5.239   0.499  0.2693  0.5446  0.5193
 2093SOL    HW2 8138   0.790   5.274   0.564 -0.5278  1.3328  0.8589
 2093SOL    HW3 8139   0.718   5.311   0.436  0.6614 -0.0378 -0.2361
 2093SOL    MW4 8140   0.736   5.253   0.499  0.2159  0.5717  0.4644
 2094SOL     OW 8141   2.544   5.454   1.590 -0.0423  0.3906  0.4880
 2094SOL    HW2 8142   2.458   5.495   1.577 -1.1911 -2.1063 -0.6267
 2094SOL    HW3 8143   2.607   5.522   1.566 -1.7761  1.6048 -0.9731
 2094SOL    MW4 8144   2.541   5.468   1.585 -0.4226  0.2213  0.1482
 2095SOL     OW 8145   1.496   3.886   4.983 -0.1459  0.6800  0.0988
 2095SOL    HW2 8146   1.413   3.864   4.941  0.2970  0.9258 -0.9547
 2095SOL    HW3 8147   1.516   3.975   4.951 -0.6552  1.6243  2.2379
 2095SOL    MW4 8148   1.488   3.895   4.973 -0.1546  0.8370  0.2420
 2096SOL     OW 8149   1.310   2.452   1.025  0.8074 -0.3285  0.3082
 2096SOL    HW2 8150   1.376   2.512   1.062 -1.3913  3.0572 -0.7762
 2096SOL    HW3 8151   1.335   2.445   0.933  0.8844 -0.8684  0.3694
 2096SOL    MW4 8152   1.322   2.459   1.018  0.5274  0.0470  0.1732
 2097SOL     OW 8153   6.036   0.222   4.599 -0.4087 -0.1771 -0.4511
 2097SOL    HW2 8154   6.075   0.136   4.585  0.2449  0.0619 -0.1514
 2097SOL    HW3 8155   6.060   0.245   4.688 -0.4374  0.3921 -0.5860
 2097SOL    MW4 8156   6.044   0.214   4.609 -0.3263 -0.0705 -0.4294
 2098SOL     OW 8157   3.237   0.485   3.832 -0.3005  0.6820 -0.0946
 2098SOL    HW2 8158   3.273   0.538   3.904 -1.1074  1.1414 -0.0114
 2098SOL    HW3 8159   3.194   0.411   3.876 -0.4142  0.7293 -0.1245
 2098SOL    MW4 8160   3.236   0.482   3.848 -0.4220  0.7489 -0.0876
 2099SOL     OW 8161   2.599   4.665   5.997 -0.0748 -0.4031  0.0787
 2099SOL    HW2 8162   2.693   4.676   5.984  0.1123 -1.8925 -0.0651
 2099SOL    HW3 8163   2.559   4.734   5.944  0.9007 -0.9270 -1.4139
 2099SOL    MW4 8164   2.606   4.675   5.988  0.0786 -0.6688 -0.1372
 2100SOL     OW 8165   0.552   3.660   0.802  0.3968  0.7445 -0.1454
 2100SOL    HW2 8166   0.592   3.727   0.858  2.9251 -0.3523 -0.4878
 2100SOL    HW3 8167   0.571   3.690   0.713  1.3972 -0.2990 -0.3030
 2100SOL    MW4 8168   0.560   3.673   0.797  0.8624  0.4621 -0.2114
 2101SOL     OW 8169   0.698   5.849   0.686 -0.3864 -0.2138 -0.3687
 2101SOL    HW2 8170   0.713   5.900   0.607  1.6463 -0.5913 -0.3088
 2101SOL    HW3 8171   0.659   5.910   0.748  0.1283  0.7255 -0.9448
 2101SOL    MW4 8172   0.695   5.863   0.684 -0.0503 -0.1397 -0.4368
 2102SOL     OW 8173   2.109   0.294   4.859 -0.3431  0.0413 -0.0105
 2102SOL    HW2 8174   2.147   0.215   4.821 -1.1017 -1.1631  1.6234
 2102SOL    HW3 8175   2.080   0.345   4.783  1.9713 -0.2406 -1.2000
 2102SOL    MW4 8176   2.110   0.291   4.844 -0.1378 -0.1548  0.0481
 2103SOL     OW 8177   1.957   2.039   3.008 -0.3226 -0.5665 -0.0616
 2103SOL    HW2 8178   2.036   2.092   2.996  0.3076 -1.6165 -0.7343
 2103SOL    HW3 8179   1.981   1.974   3.074 -0.7536 -0.6637  0.0047
 2103SOL    MW4 8180   1.971   2.038   3.015 -0.2963 -0.7179 -0.1416
 2104SOL     OW 8181   6.234   0.553   4.281  0.0326  0.0965  0.0242
 2104SOL    HW2 8182   6.173   0.481   4.299  0.1962 -0.0461  0.0148
 2104SOL    HW3 8183   6.210   0.621   4.343 -3.0125  1.8223 -2.6990
 2104SOL    MW4 8184   6.223   0.552   4.291 -0.3476  0.3054 -0.3364
 2105SOL     OW 8185   1.061   0.297   3.093  0.0840 -0.0898  0.1205
 2105SOL    HW2 8186   0.994   0.246   3.137 -2.4110  1.7770 -1.2389
 2105SOL    HW3 8187   1.073   0.374   3.149  2.5362 -1.1827  1.2678
 2105SOL    MW4 8188   1.054   0.301   3.106  0.0783  0.0123  0.0925
 2106SOL     OW 8189   5.050   4.677   2.876 -0.3387  0.1819 -0.2751
 2106SOL    HW2 8190   5.003   4.683   2.959 -1.1363 -0.2988 -0.6738
 2106SOL    HW3 8191   5.126   4.622   2.895 -0.3927  0.2712  0.1971
 2106SOL    MW4 8192   5.054   4.670   2.889 -0.4510  0.1302 -0.2654
 2107SOL     OW 8193   5.986   3.841   3.492  0.1507  0.2175  0.0568
 2107SOL    HW2 8194   5.945   3.776   3.548  0.1666  1.2874  1.3617
 2107SOL    HW3 8195   5.999   3.917   3.549  1.6542  0.7790 -0.9694
 2107SOL    MW4 8196   5.983   3.843   3.507  0.3511  0.4328  0.0936
 2108SOL     OW 8197   4.238   6.063   2.519  0.0424  0.0088  0.1597
 2108SOL    HW2 8198   4.231   5.968   2.514 -0.4020  0.0027  0.8456
 2108SOL    HW3 8199   4.260   6.081   2.610  0.3758  0.5497 -0.0227
 2108SOL    MW4 8200   4.240   6.053   2.530  0.0277  0.0793  0.2261
 2109SOL     OW 8201   1.044   4.191   0.197  0.2047 -0.0883  0.0561
 2109SOL    HW2 8202   1.061   4.264   0.138 -0.8321  0.1057 -0.0217
 2109SOL    HW3 8203   1.038   4.115   0.140 -1.2837  0.1726 -0.1729
 2109SOL    MW4 8204   1.045   4.191   0.182 -0.1285 -0.0283  0.0156
 2110SOL     OW 8205   0.147   4.215   1.394 -0.2148  0.0363  0.0050
 2110SOL    HW2 8206   0.052   4.204   1.395 -0.3685  0.3551  3.6250
 2110SOL    HW3 8207   0.181   4.126   1.387 -0.7694 -0.1427 -0.5768
 2110SOL    MW4 8208   0.139   4.202   1.393 -0.3083  0.0548  0.4058
 2111SOL     OW 8209   3.881   6.352   1.538 -0.6374  0.1306 -0.6781
 2111SOL    HW2 8210   3.907   6.429   1.588  0.5801  0.1684 -1.3369
 2111SOL    HW3 8211   3.963   6.313   1.509 -1.2746 -0.6872 -1.4451
 2111SOL    MW4 8212   3.895   6.357   1.541 -0.5608  0.0277 -0.8662
 2112SOL     OW 8213   3.343   6.180   0.525 -0.3794 -0.0945 -0.2811
 2112SOL    HW2 8214   3.289   6.100   0.527 -2.0539  0.8699 -2.5378
 2112SOL    HW3 8215   3.320   6.226   0.606  0.2459 -1.6125  0.8177
 2112SOL    MW4 8216   3.333   6.175   0.536 -0.5179 -0.1675 -0.4338
 2113SOL     OW 8217   4.300   6.372   4.857 -0.0556  0.3005 -0.2551
 2113SOL    HW2 8218   4.363   6.406   4.794 -0.2976  1.6615  0.2083
 2113SOL    HW3 8219   4.343   6.383   4.942 -0.4432  0.1429 -0.0353
 2113SOL    MW4 8220   4.314   6.378   4.860 -0.1387  0.4593 -0.1649
 2114SOL     OW 8221   3.598   3.522   4.153 -0.0762  0.1417  0.2875
 2114SOL    HW2 8222   3.595   3.441   4.102  0.7350  1.6668 -2.3724
 2114SOL    HW3 8223   3.683   3.520   4.197 -0.4968 -0.8833  1.0881
 2114SOL    MW4 8224   3.609   3.511   4.152 -0.0247  0.2077  0.0422
 2115SOL     OW 8225   3.609   2.620   1.029  0.7818  0.7414  0.1515
 2115SOL    HW2 8226   3.530   2.616   0.975  0.7364  2.9080 -0.0430
 2115SOL    HW3 8227   3.595   2.695   1.087  2.4623  0.8282  0.4980
 2115SOL    MW4 8228   3.597   2.629   1.030  0.9975  1.0387  0.1715
 2116SOL     OW 8229   0.322   4.423   1.862  0.0116  0.0877 -0.0038
 2116SOL    HW2 8230   0.270   4.393   1.788 -0.0217 -0.8320  0.3772
 2116SOL    HW3 8231   0.312   4.519   1.862  1.9522  0.3930 -2.6138
 2116SOL    MW4 8232   0.314   4.432   1.852  0.2633  0.0066 -0.2979
 2117SOL     OW 8233   0.615   6.086   5.281 -0.6101  0.5307  0.0026
 2117SOL    HW2 8234   0.569   6.055   5.204 -0.0255  0.6114 -0.3876
 2117SOL    HW3 8235   0.555   6.070   5.354 -1.4096  1.0198 -0.5421
 2117SOL    MW4 8236   0.601   6.080   5.281 -0.6385  0.6059 -0.1207
 2118SOL     OW 8237   1.752   2.268   5.135 -0.1548 -0.9178  0.1503
 2118SOL    HW2 8238   1.683   2.330   5.159 -0.4708 -1.0759 -0.3486
 2118SOL    HW3 8239   1.744   2.197   5.198 -0.8133 -1.2097 -0.2657
 2118SOL    MW4 8240   1.742   2.267   5.147 -0.2833 -0.9772  0.0296
 2119SOL     OW 8241   1.755   4.600   0.451 -0.2139 -0.3354 -0.4030
 2119SOL    HW2 8242   1.713   4.661   0.391 -0.3930 -1.2032 -1.1877
 2119SOL    HW3 8243   1.813   4.655   0.504 -0.8373  0.5912 -0.6581
 2119SOL    MW4 8244   1.757   4.615   0.450 -0.3198 -0.3276 -0.5402
 2120SOL     OW 8245   1.169   5.852   3.617  0.3849  0.2232 -0.0494
 2120SOL    HW2 8246   1.224   5.798   3.674  0.6994  1.1502  0.5371
 2120SOL    HW3 8247   1.082   5.813   3.624  0.8179 -0.8653 -0.4808
 2120SOL    MW4 8248   1.165   5.840   3.625  0.4835  0.2019 -0.0289
 2121SOL     OW 8249   5.630   0.211   4.441  0.2693 -0.1312  0.4326
 2121SOL    HW2 8250   5.684   0.209   4.520  0.2941  0.8548  0.4631
 2121SOL    HW3 8251   5.630   0.304   4.415 -0.4138 -0.3123 -0.2520
 2121SOL    MW4 8252   5.637   0.223   4.448  0.1824 -0.0250  0.3463
 2122SOL     OW 8253   6.069   1.030   4.489  0.3324  0.3815  0.5661
 2122SOL    HW2 8254   6.067   0.987   4.575 -0.1989  1.4191  1.0809
 2122SOL    HW3 8255   5.979   1.058   4.474  0.3437 -0.1142 -0.5117
 2122SOL    MW4 8256   6.057   1.028   4.498  0.2638  0.4530  0.4918
 2123SOL     OW 8257   0.512   3.962   5.514 -0.2759 -0.2078  0.0198
 2123SOL    HW2 8258   0.472   3.957   5.601 -1.3118 -0.2787 -0.4459
 2123SOL    HW3 8259   0.606   3.955   5.531 -0.3270  1.3578  1.2773
 2123SOL    MW4 8260   0.519   3.961   5.528 -0.4193 -0.0106  0.1243
 2124SOL     OW 8261   2.458   2.820   4.490 -0.1496 -0.5470  0.1526
 2124SOL    HW2 8262   2.522   2.748   4.486  0.3538 -0.0373 -2.1476
 2124SOL    HW3 8263   2.498   2.890   4.439 -1.1475  0.9865  1.4034
 2124SOL    MW4 8264   2.472   2.820   4.483 -0.2148 -0.2774  0.0142
 2125SOL     OW 8265   0.102   4.264   4.645  0.4964 -0.0426  0.1733
 2125SOL    HW2 8266   0.081   4.186   4.594 -0.7934  0.4080 -0.0334
 2125SOL    HW3 8267   0.141   4.325   4.582 -0.5814  0.3042 -0.1905
 2125SOL    MW4 8268   0.104   4.262   4.630  0.1840  0.0626  0.0980
 2126SOL     OW 8269   1.192   5.392   2.788  0.3516 -0.0321 -0.3309
 2126SOL    HW2 8270   1.229   5.467   2.836 -0.0857  0.8368 -1.3172
 2126SOL    HW3 8271   1.121   5.361   2.843  0.6617  0.1513  0.1810
 2126SOL    MW4 8272   1.188   5.398   2.802  0.3348  0.1067 -0.3935
 2127SOL     OW 8273   4.059   0.616   1.396  0.0062  0.4823 -0.0950
 2127SOL    HW2 8274   4.115   0.564   1.453  1.2990  0.0396 -1.6857
 2127SOL    HW3 8275   4.118   0.653   1.330 -1.3306  1.4197 -0.8291
 2127SOL    MW4 8276   4.074   0.614   1.395  0.0004  0.5476 -0.4017
 2128SOL     OW 8277   6.282   2.002   3.878  0.3774 -0.2161 -0.1364
 2128SOL    HW2 8278   6.334   2.063   3.826  0.6063 -1.1726 -1.0829
 2128SOL    HW3 8279   6.344   1.934   3.905 -0.1093 -0.6988 -0.2035
 2128SOL    MW4 8280   6.297   2.001   3.875  0.3434 -0.4060 -0.2701
 2129SOL     OW 8281   2.106   2.745   1.210  0.0484 -0.7635 -0.3245
 2129SOL    HW2 8282   2.016   2.759   1.183 -0.5260  0.9498  2.1039
 2129SOL    HW3 8283   2.106   2.656   1.247 -1.4094  0.0864  1.9899
 2129SOL    MW4 8284   2.094   2.735   1.211 -0.2197 -0.4253  0.3012
 2130SOL     OW 8285   3.739   2.719   5.884  0.2474 -0.0760  0.1081
 2130SOL    HW2 8286   3.800   2.780   5.926  0.6347 -0.8307  0.6681
 2130SOL    HW3 8287   3.706   2.767   5.808  0.2160  0.9886  0.7690
 2130SOL    MW4 8288   3.743   2.733   5.880  0.2944 -0.0351  0.2692
 2131SOL     OW 8289   5.586   0.001   4.019  0.2952 -0.0522 -0.2316
 2131SOL    HW2 8290   5.577  -0.092   4.038  0.6573 -0.1335 -0.4462
 2131SOL    HW3 8291   5.563   0.045   4.100 -1.8076 -0.2503 -0.6591
 2131SOL    MW4 8292   5.582  -0.005   4.032  0.0655 -0.0891 -0.3163
 2132SOL     OW 8293   4.832   2.742   5.414  0.4616 -0.8776 -0.3746
 2132SOL    HW2 8294   4.834   2.800   5.491  1.8272 -0.6516 -0.5707
 2132SOL    HW3 8295   4.923   2.729   5.391  0.0766 -1.1488 -1.8278
 2132SOL    MW4 8296   4.844   2.748   5.421  0.5910 -0.8836 -0.5922
 2133SOL     OW 8297   2.214   0.530   1.567  0.1772 -0.0868 -0.3283
 2133SOL    HW2 8298   2.238   0.619   1.595 -1.6794  1.0774 -2.1554
 2133SOL    HW3 8299   2.126   0.517   1.600  0.0632 -0.8741 -0.9161
 2133SOL    MW4 8300   2.206   0.540   1.575 -0.0828 -0.0371 -0.6469
 2134SOL     OW 8301   3.087   6.431   4.692  0.2159  0.1002  0.7270
 2134SOL    HW2 8302   3.112   6.404   4.603  0.4545  2.7523 -0.1222
 2134SOL    HW3 8303   3.145   6.381   4.749  0.4707 -1.2528 -0.6315
 2134SOL    MW4 8304   3.098   6.421   4.688  0.2810  0.2716  0.4357
 2135SOL     OW 8305   0.981   2.586   5.422  0.1743  0.0054  0.3436
 2135SOL    HW2 8306   0.916   2.628   5.479  0.4222  1.1002 -0.1473
 2135SOL    HW3 8307   0.929   2.548   5.351 -0.0510 -0.4666  0.7582
 2135SOL    MW4 8308   0.965   2.587   5.420  0.1773  0.0876  0.3335
 2136SOL     OW 8309   0.818   5.388   0.964 -0.0693  0.0918 -0.1463
 2136SOL    HW2 8310   0.788   5.298   0.951  0.8574 -0.1358 -0.8158
 2136SOL    HW3 8311   0.763   5.440   0.906  0.3532 -0.2408 -0.8684
 2136SOL    MW4 8312   0.807   5.383   0.954  0.1087  0.0179 -0.3299
 2137SOL     OW 8313   1.976   3.978   5.112  0.0247 -0.1166 -0.2330
 2137SOL    HW2 8314   2.045   4.033   5.147 -0.3584 -0.6231  1.4329
 2137SOL    HW3 8315   1.995   3.891   5.147 -0.0068 -0.8305 -1.8927
 2137SOL    MW4 8316   1.988   3.974   5.121 -0.0300 -0.2776 -0.2322
 2138SOL     OW 8317   2.443   4.999   2.066  0.1817  0.0745 -0.1436
 2138SOL    HW2 8318   2.513   4.978   2.004 -0.4701  0.2325 -0.9520
 2138SOL    HW3 8319   2.433   5.094   2.059 -0.0716  0.0590  0.0089
 2138SOL    MW4 8320   2.451   5.009   2.057  0.0623  0.0933 -0.2301
 2139SOL     OW 8321   1.958   0.644   6.041 -0.5370 -0.0471  0.3010
 2139SOL    HW2 8322   1.962   0.585   5.966 -2.7720 -1.1359  0.9616
 2139SOL    HW3 8323   1.904   0.598   6.106  1.3427  0.8115  2.6383
 2139SOL    MW4 8324   1.951   0.630   6.040 -0.5839 -0.0775  0.6965
 2140SOL     OW 8325   3.511   5.502   2.630  0.7036 -0.0774 -0.0269
 2140SOL    HW2 8326   3.537   5.542   2.547  0.2443 -2.2352 -1.2895
 2140SOL    HW3 8327   3.421   5.531   2.644  1.5285  2.1717  0.9825
 2140SOL    MW4 8328   3.503   5.511   2.621  0.7518 -0.0653 -0.0603
 2141SOL     OW 8329   3.130   3.987  -0.000 -0.0185 -0.0748  0.0924
 2141SOL    HW2 8330   3.109   3.964   0.090 -0.7292 -0.0086 -0.0481
 2141SOL    HW3 8331   3.226   3.989  -0.003  0.0067  0.4524  0.9727
 2141SOL    MW4 8332   3.140   3.984   0.011 -0.1090  0.0035  0.1900
 2142SOL     OW 8333   4.509   3.464   2.068  0.0627  0.8062  0.3220
 2142SOL    HW2 8334   4.435   3.429   2.118  0.3839  0.8765  0.8475
 2142SOL    HW3 8335   4.548   3.388   2.026 -1.1533  0.9203 -1.1218
 2142SOL    MW4 8336   4.504   3.449   2.069 -0.0553  0.8305  0.2008
 2143SOL     OW 8337   4.385   2.778   6.036  0.7098  0.0241 -0.4413
 2143SOL    HW2 8338   4.330   2.701   6.048 -0.1785  0.5661 -0.8740
 2143SOL    HW3 8339   4.448   2.752   5.968  1.4630 -0.8340  0.5646
 2143SOL    MW4 8340   4.386   2.764   6.028  0.6920 -0.0176 -0.3656
 2144SOL     OW 8341   2.225   5.769   4.541  0.2680  0.1990  0.7249
 2144SOL    HW2 8342   2.264   5.683   4.524 -1.0908 -0.4645  0.8326
 2144SOL    HW3 8343   2.144   5.750   4.588 -0.9592  1.4091 -0.7835
 2144SOL    MW4 8344   2.220   5.755   4.545 -0.0732  0.2711  0.5401
 2145SOL     OW 8345   4.903   3.525   5.884  0.1720  0.3159 -0.1900
 2145SOL    HW2 8346   4.935   3.459   5.945 -0.3057  1.2245  1.0918
 2145SOL    HW3 8347   4.854   3.475   5.818  0.5476 -0.6767  0.2694
 2145SOL    MW4 8348   4.901   3.510   5.883  0.1586  0.3048  0.0397
 2146SOL     OW 8349   2.136   3.685   0.723  0.0302 -0.5231  0.4449
 2146SOL    HW2 8350   2.146   3.654   0.633  2.3574 -1.2738  0.8790
 2146SOL    HW3 8351   2.119   3.607   0.774  0.8391 -0.4089  0.9072
 2146SOL    MW4 8352   2.135   3.671   0.718  0.4440 -0.6071  0.5632
 2147SOL     OW 8353   1.651   5.347   2.286 -0.0682  0.6166  0.0716
 2147SOL    HW2 8354   1.656   5.442   2.278 -0.4153  0.5888 -0.5322
 2147SOL    HW3 8355   1.656   5.331   2.380  0.3777  1.2083  0.1550
 2147SOL    MW4 8356   1.652   5.358   2.297 -0.0552  0.6910  0.0029
 2148SOL     OW 8357   5.094   1.676   3.147 -0.1699  0.4754  0.1939
 2148SOL    HW2 8358   5.021   1.653   3.089 -0.4897  2.8962 -0.4340
 2148SOL    HW3 8359   5.117   1.766   3.124  2.0009  0.3221  1.4720
 2148SOL    MW4 8360   5.087   1.685   3.137  0.0743  0.7746  0.2797
 2149SOL     OW 8361   5.627   4.043   2.525 -0.3420  0.3212  0.0110
 2149SOL    HW2 8362   5.543   4.005   2.549  0.1362 -0.8167 -0.0257
 2149SOL    HW3 8363   5.683   4.028   2.601  0.9983 -2.7256 -1.3703
 2149SOL    MW4 8364   5.624   4.036   2.538 -0.1021 -0.2309 -0.1761
 2150SOL     OW 8365   5.154   1.817   4.765 -0.4339 -0.0405 -0.3416
 2150SOL    HW2 8366   5.113   1.894   4.803  2.8253  1.1553  1.1786
 2150SOL    HW3 8367   5.150   1.831   4.670  0.4844  2.2996 -0.0866
 2150SOL    MW4 8368   5.148   1.829   4.757  0.1173  0.4260 -0.1073
 2151SOL     OW 8369   5.430   3.383   1.310  0.6426  0.3452  0.3029
 2151SOL    HW2 8370   5.399   3.293   1.304  2.3263 -0.2628  0.2860
 2151SOL    HW3 8371   5.351   3.436   1.304 -0.6026 -1.1638  2.2916
 2151SOL    MW4 8372   5.416   3.378   1.309  0.7005  0.0659  0.5631
 2152SOL     OW 8373   3.142   4.782   1.673  0.2980 -0.0671  0.3647
 2152SOL    HW2 8374   3.147   4.872   1.640 -0.3393 -0.1260  0.0926
 2152SOL    HW3 8375   3.116   4.792   1.765 -0.7197  0.0091  0.0888
 2152SOL    MW4 8376   3.139   4.795   1.681  0.0796 -0.0648  0.2924
 2153SOL     OW 8377   2.917   0.621   0.896 -0.5692 -0.2259  0.3104
 2153SOL    HW2 8378   2.959   0.687   0.951 -0.5377 -0.4747  0.5858
 2153SOL    HW3 8379   2.937   0.537   0.939  0.4915 -0.5341 -0.7286
 2153SOL    MW4 8380   2.925   0.618   0.909 -0.4251 -0.2994  0.2096
 2154SOL     OW 8381   1.755   0.040   1.164  0.3238  0.5586 -0.2362
 2154SOL    HW2 8382   1.671   0.002   1.137  0.5411 -0.0682 -0.0631
 2154SOL    HW3 8383   1.819   0.000   1.105  0.9168 -1.4582  1.6178
 2154SOL    MW4 8384   1.753   0.030   1.153  0.4307  0.2098  0.0312
 2155SOL     OW 8385   6.303   3.491   6.134  0.2470 -0.8105 -0.3073
 2155SOL    HW2 8386   6.269   3.483   6.223 -0.0727 -1.6907 -0.4936
 2155SOL    HW3 8387   6.267   3.415   6.088 -0.3838  0.1509 -1.4519
 2155SOL    MW4 8388   6.294   3.480   6.140  0.1216 -0.7998 -0.4829
 2156SOL     OW 8389   5.223   4.733   3.894 -0.6738 -0.2246 -0.0919
 2156SOL    HW2 8390   5.205   4.777   3.811 -1.3079 -0.0227  0.1472
 2156SOL    HW3 8391   5.149   4.674   3.907 -1.2173  0.6404  0.9217
 2156SOL    MW4 8392   5.211   4.731   3.885 -0.8292 -0.0839  0.0734
 2157SOL     OW 8393   4.166   5.689   2.227  0.8259  0.0432  0.3940
 2157SOL    HW2 8394   4.184   5.638   2.306  0.9694 -0.2399  0.1807
 2157SOL    HW3 8395   4.251   5.723   2.200  0.6936  0.6234  0.6838
 2157SOL    MW4 8396   4.180   5.687   2.234  0.8274  0.0824  0.4041
 2158SOL     OW 8397   0.465   6.384   0.106 -0.4014 -0.3239 -0.3793
 2158SOL    HW2 8398   0.489   6.469   0.070 -1.1878  0.1100  0.0966
 2158SOL    HW3 8399   0.537   6.326   0.082  0.5956  0.6923  0.1096
 2158SOL    MW4 8400   0.477   6.387   0.098 -0.3736 -0.1326 -0.2520
 2159SOL     OW 8401   1.843   2.703   5.557  0.6682 -0.7584  0.0061
 2159SOL    HW2 8402   1.776   2.644   5.524  0.0309  0.0382 -0.1744
 2159SOL    HW3 8403   1.834   2.782   5.503 -1.0814  0.9887  2.5758
 2159SOL    MW4 8404   1.833   2.706   5.546  0.3533 -0.4228  0.3213
 2160SOL     OW 8405   0.812   1.366   1.449 -0.3282  0.3014 -0.1810
 2160SOL    HW2 8406   0.779   1.362   1.359  1.3887  1.9689 -0.9609
 2160SOL    HW3 8407   0.875   1.295   1.454 -2.4673 -1.6716  0.7155
 2160SOL    MW4 8408   0.816   1.356   1.438 -0.3839  0.2611 -0.1656
 2161SOL     OW 8409   2.742   0.983   3.752 -0.6527  0.1040  0.1051
 2161SOL    HW2 8410   2.686   0.921   3.704  0.0353 -0.3571 -0.1070
 2161SOL    HW3 8411   2.821   0.933   3.773 -0.5228  0.6043  0.8447
 2161SOL    MW4 8412   2.745   0.968   3.749 -0.5448  0.1092  0.1747
 2162SOL     OW 8413   1.475   5.284   0.414 -0.2162  0.4756  0.8573
 2162SOL    HW2 8414   1.486   5.372   0.451 -1.9683  1.4764 -0.7820
 2162SOL    HW3 8415   1.553   5.271   0.360 -0.0405  1.1407  0.9373
 2162SOL    MW4 8416   1.487   5.294   0.412 -0.4242  0.6954  0.6516
 2163SOL     OW 8417   0.474   5.112   0.508  0.3831  0.4251 -0.6201
 2163SOL    HW2 8418   0.511   5.059   0.438 -0.1700  2.6372 -2.7266
 2163SOL    HW3 8419   0.540   5.179   0.525 -0.4019  1.2219 -0.6213
 2163SOL    MW4 8420   0.487   5.114   0.501  0.2065  0.8220 -0.8982
 2164SOL     OW 8421   2.351   0.065   1.720 -0.1467  0.2712  0.8609
 2164SOL    HW2 8422   2.344   0.161   1.718 -0.2841  0.3119  2.5375
 2164SOL    HW3 8423   2.264   0.034   1.694 -0.3304  0.5982  1.0888
 2164SOL    MW4 8424   2.338   0.074   1.716 -0.1891  0.3197  1.1122
 2165SOL     OW 8425   4.739   1.833   0.805 -0.8113  0.2040  0.0859
 2165SOL    HW2 8426   4.696   1.902   0.755 -2.3423  0.2163  1.3381
 2165SOL    HW3 8427   4.817   1.875   0.843 -0.6273  0.6730 -0.7887
 2165SOL    MW4 8428   4.744   1.848   0.804 -0.9890  0.2675  0.1357
 2166SOL     OW 8429   0.921   6.134   4.382  0.2518 -0.7442  0.0342
 2166SOL    HW2 8430   0.917   6.170   4.293 -2.1102 -0.7940  0.0673
 2166SOL    HW3 8431   0.945   6.209   4.437 -1.6545  0.1458 -0.2672
 2166SOL    MW4 8432   0.923   6.149   4.377 -0.3114 -0.6334 -0.0012
 2167SOL     OW 8433   3.667   0.354   5.197  0.2266 -0.3462  0.5726
 2167SOL    HW2 8434   3.713   0.270   5.199  0.8196 -0.0858 -0.9991
 2167SOL    HW3 8435   3.615   0.352   5.116  1.9715  1.6374 -0.7131
 2167SOL    MW4 8436   3.666   0.343   5.187  0.5351 -0.0501  0.1956
 2168SOL     OW 8437   5.903   6.123   1.592  0.2456  0.0086  0.4435
 2168SOL    HW2 8438   5.971   6.133   1.525  1.1661 -0.9100  1.2093
 2168SOL    HW3 8439   5.854   6.046   1.565  0.5742 -0.3218  0.7706
 2168SOL    MW4 8440   5.906   6.114   1.580  0.4104 -0.1562  0.5877
 2169SOL     OW 8441   0.238   2.576   0.331  0.3533 -0.0130 -0.2504
 2169SOL    HW2 8442   0.241   2.666   0.363 -0.4019  0.1321 -0.5559
 2169SOL    HW3 8443   0.168   2.535   0.383  0.1120 -0.1776 -0.6972
 2169SOL    MW4 8444   0.229   2.583   0.342  0.2218 -0.0156 -0.3497
 2170SOL     OW 8445   3.280   5.796   0.279  0.7404  0.1047 -0.0072
 2170SOL    HW2 8446   3.344   5.843   0.333 -1.3810  2.5687  0.5416
 2170SOL    HW3 8447   3.229   5.745   0.342  0.2778  0.5111 -0.0461
 2170SOL    MW4 8448   3.282   5.795   0.295  0.3994  0.4834  0.0601
 2171SOL     OW 8449   6.384   2.673   5.158 -0.2615  0.2465  0.1808
 2171SOL    HW2 8450   6.393   2.739   5.088 -1.0851  0.2682  0.0872
 2171SOL    HW3 8451   6.364   2.724   5.236 -1.6107  0.0681 -0.0358
 2171SOL    MW4 8452   6.383   2.689   5.159 -0.5481  0.2259  0.1399
 2172SOL     OW 8453   4.545   0.569   5.507 -0.2031  0.9166  0.3364
 2172SOL    HW2 8454   4.576   0.511   5.437 -1.8382 -0.0693  0.3773
 2172SOL    HW3 8455   4.470   0.615   5.468 -1.6902 -0.2830  1.6480
 2172SOL    MW4 8456   4.539   0.567   5.492 -0.6150  0.6282  0.5149
 2173SOL     OW 8457   1.704   0.732   4.637  0.3716 -0.0395 -0.9840
 2173SOL    HW2 8458   1.760   0.783   4.579 -0.6618  0.9474 -1.1462
 2173SOL    HW3 8459   1.618   0.773   4.630  0.1669  0.0158  1.1057
 2173SOL    MW4 8460   1.700   0.744   4.628  0.2083  0.0980 -0.7297
 2174SOL     OW 8461   5.577   3.011   1.890  1.1014  0.0560 -0.6129
 2174SOL    HW2 8462   5.601   2.947   1.824 -1.6113  0.0570 -1.7491
 2174SOL    HW3 8463   5.584   2.964   1.973  0.9602 -1.1395 -1.2556
 2174SOL    MW4 8464   5.581   2.996   1.892  0.7249 -0.1016 -0.8476
 2175SOL     OW 8465   0.187   5.466   2.240 -0.1746 -0.1237  0.4802
 2175SOL    HW2 8466   0.136   5.474   2.159  0.1190 -1.0764  0.1903
 2175SOL    HW3 8467   0.121   5.472   2.309 -0.5530 -0.2903  0.1417
 2175SOL    MW4 8468   0.171   5.468   2.238 -0.1858 -0.2714  0.3973
 2176SOL     OW 8469   2.293   4.876   5.128  0.3796 -0.8708  0.1844
 2176SOL    HW2 8470   2.243   4.807   5.083  0.9295 -2.1093  1.4199
 2176SOL    HW3 8471   2.384   4.855   5.111  0.5457  0.1946 -0.3224
 2176SOL    MW4 8472   2.298   4.864   5.120  0.4741 -0.8936  0.2806
 2177SOL     OW 8473   2.276   3.911   5.861 -0.5647 -0.0660  0.4760
 2177SOL    HW2 8474   2.188   3.938   5.833 -0.8720 -0.4019  1.0958
 2177SOL    HW3 8475   2.286   3.823   5.827  0.3195  0.6708 -1.2822
 2177SOL    MW4 8476   2.266   3.903   5.853 -0.4886 -0.0131  0.3258
 2178SOL     OW 8477   6.330   2.214   0.214  0.5052 -0.1931  0.4209
 2178SOL    HW2 8478   6.303   2.126   0.241  0.0676 -0.7187 -1.5880
 2178SOL    HW3 8479   6.279   2.273   0.271 -0.4775 -1.2260  0.6373
 2178SOL    MW4 8480   6.320   2.210   0.225  0.3178 -0.3987  0.1844
 2179SOL     OW 8481   5.471   5.749   3.109  0.2606  0.3515  0.3856
 2179SOL    HW2 8482   5.489   5.692   3.034 -0.2834 -1.0297  1.2635
 2179SOL    HW3 8483   5.404   5.809   3.077  0.6199  0.3172 -0.4725
 2179SOL    MW4 8484   5.465   5.750   3.095  0.2362  0.1647  0.3882
 2180SOL     OW 8485   2.194   6.099   2.032 -0.6774  0.6202 -0.0469
 2180SOL    HW2 8486   2.202   6.073   1.940  0.3109 -1.5828  0.6096
 2180SOL    HW3 8487   2.242   6.182   2.037  0.6320 -0.0153 -1.2215
 2180SOL    MW4 8488   2.201   6.107   2.021 -0.3743  0.2457 -0.1153
 2181SOL     OW 8489   0.879   0.570   1.505  0.0582 -0.0983 -0.0995
 2181SOL    HW2 8490   0.916   0.581   1.593  0.7542  1.0383 -0.5122
 2181SOL    HW3 8491   0.824   0.647   1.493 -1.4572 -1.1199 -0.0065
 2181SOL    MW4 8492   0.877   0.581   1.515 -0.0499 -0.0831 -0.1417
 2182SOL     OW 8493   0.440   0.408   5.039 -0.4028 -0.1401 -0.4861
 2182SOL    HW2 8494   0.526   0.388   5.001 -0.7238 -0.6617 -0.9611
 2182SOL    HW3 8495   0.425   0.338   5.103  0.2770  0.9162  0.8708
 2182SOL    MW4 8496   0.449   0.396   5.042 -0.3555 -0.0695 -0.3698
 2183SOL     OW 8497   2.694   1.975   1.548  0.1044 -0.2742 -0.4036
 2183SOL    HW2 8498   2.766   2.034   1.523  0.6917 -0.2514  1.1752
 2183SOL    HW3 8499   2.734   1.888   1.547  0.6222 -0.1249  1.8520
 2183SOL    MW4 8500   2.709   1.972   1.545  0.2502 -0.2515  0.1023
 2184SOL     OW 8501   5.687   5.072   5.087 -0.0448 -0.3526 -0.7940
 2184SOL    HW2 8502   5.606   5.028   5.114 -1.0576  1.2186 -1.1222
 2184SOL    HW3 8503   5.668   5.105   4.999  1.2770 -0.6925 -1.2280
 2184SOL    MW4 8504   5.674   5.070   5.079 -0.0040 -0.1901 -0.8946
 2185SOL     OW 8505   4.403   1.913   0.944  0.0081  0.5228 -0.4507
 2185SOL    HW2 8506   4.313   1.895   0.915 -0.4912  0.7191  0.9088
 2185SOL    HW3 8507   4.445   1.827   0.946 -1.1825 -0.0827  2.1487
 2185SOL    MW4 8508   4.397   1.899   0.940 -0.2149  0.4688  0.0716
 2186SOL     OW 8509   3.299   3.659   2.404 -0.1114  0.5283  0.0390
 2186SOL    HW2 8510   3.341   3.613   2.331 -1.1042 -1.3717  0.6146
 2186SOL    HW3 8511   3.272   3.590   2.464 -0.4506  1.9678  1.6295
 2186SOL    MW4 8512   3.301   3.644   2.402 -0.2871  0.4676  0.3248
 2187SOL     OW 8513   2.540   1.999   3.787  0.5334 -0.1896  0.6248
 2187SOL    HW2 8514   2.477   1.945   3.740  1.7489 -0.3910 -0.8538
 2187SOL    HW3 8515   2.508   2.089   3.775 -0.7529 -0.4382  1.9474
 2187SOL    MW4 8516   2.528   2.004   3.780  0.5240 -0.2490  0.6042
 2188SOL     OW 8517   3.822   0.357   0.334  0.2933 -0.2576  0.1517
 2188SOL    HW2 8518   3.804   0.382   0.243  1.3156 -0.6082 -0.1675
 2188SOL    HW3 8519   3.750   0.298   0.357  0.6385 -1.1124 -0.8518
 2188SOL    MW4 8520   3.810   0.352   0.325  0.4737 -0.4166 -0.0229
 2189SOL     OW 8521   6.379   1.294   4.134  0.6354 -0.7625  0.3287
 2189SOL    HW2 8522   6.339   1.214   4.169  0.9622 -0.5922  1.1025
 2189SOL    HW3 8523   6.414   1.267   4.049 -1.8777 -0.7044 -0.8202
 2189SOL    MW4 8524   6.378   1.280   4.127  0.3469 -0.7323  0.2792
 2190SOL     OW 8525   0.427   1.628   3.662 -0.0720 -0.3212  0.5615
 2190SOL    HW2 8526   0.426   1.593   3.751  1.9647  0.5408  0.9811
 2190SOL    HW3 8527   0.410   1.721   3.673 -1.6672 -0.4895 -0.1778
 2190SOL    MW4 8528   0.424   1.636   3.675 -0.0137 -0.2297  0.5194
 2191SOL     OW 8529   3.304   2.648   5.123  0.2214  0.2620  0.4913
 2191SOL    HW2 8530   3.336   2.672   5.036 -0.3189  0.9700  0.4824
 2191SOL    HW3 8531   3.210   2.662   5.119  0.1983  0.3790  1.2158
 2191SOL    MW4 8532   3.296   2.653   5.111  0.1471  0.3708  0.5858
 2192SOL     OW 8533   0.225   0.624   1.977  0.3183  0.3888 -0.1465
 2192SOL    HW2 8534   0.247   0.546   2.029 -0.9870  0.3382  0.3490
 2192SOL    HW3 8535   0.252   0.698   2.032 -0.0187  0.3125  0.1253
 2192SOL    MW4 8536   0.232   0.623   1.992  0.1016  0.3721 -0.0453
 2193SOL     OW 8537   2.574   5.460   3.210  0.3351 -0.0212  0.6632
 2193SOL    HW2 8538   2.666   5.485   3.206  1.1993 -2.1843  3.4439
 2193SOL    HW3 8539   2.532   5.530   3.260  0.5422  0.7661 -0.2491
 2193SOL    MW4 8540   2.581   5.473   3.216  0.4764 -0.2027  0.9097
 2194SOL     OW 8541   5.465   4.959   3.346  0.4008 -0.8987 -0.0918
 2194SOL    HW2 8542   5.438   4.927   3.260  0.7086  0.3363 -0.6782
 2194SOL    HW3 8543   5.560   4.966   3.340  0.2740  1.1153 -0.3888
 2194SOL    MW4 8544   5.474   4.956   3.334  0.4247 -0.4700 -0.2083
 2195SOL     OW 8545   2.607   6.348   0.920 -0.6295  0.3692 -0.5117
 2195SOL    HW2 8546   2.512   6.335   0.916 -1.0118  2.6458 -4.0288
 2195SOL    HW3 8547   2.631   6.372   0.830  3.0792  1.2141  0.5352
 2195SOL    MW4 8548   2.597   6.350   0.907 -0.1906  0.7811 -0.8376
 2196SOL     OW 8549   4.285   3.072   1.117  0.5230  0.6020 -0.2759
 2196SOL    HW2 8550   4.279   3.167   1.118  1.2034  0.6468 -0.1828
 2196SOL    HW3 8551   4.339   3.052   1.041  0.5758  0.2971 -0.1592
 2196SOL    MW4 8552   4.291   3.082   1.107  0.6197  0.5677 -0.2482
 2197SOL     OW 8553   3.714   0.837   2.851  0.4906  0.1349 -0.6358
 2197SOL    HW2 8554   3.704   0.834   2.946 -2.9876 -3.8374 -0.8682
 2197SOL    HW3 8555   3.787   0.777   2.833  0.6189  0.2637 -0.5552
 2197SOL    MW4 8556   3.723   0.829   2.861  0.0486 -0.3722 -0.6558
 2198SOL     OW 8557   6.359   0.825   0.544  0.1375  0.0932  0.5758
 2198SOL    HW2 8558   6.343   0.905   0.494 -1.0905 -0.9154 -0.7128
 2198SOL    HW3 8559   6.409   0.769   0.485 -1.0868 -1.0030  0.5328
 2198SOL    MW4 8560   6.363   0.828   0.530 -0.1860 -0.1845  0.4001
 2199SOL     OW 8561   4.956   5.852   6.038 -0.0268  0.0048 -0.6303
 2199SOL    HW2 8562   5.033   5.872   5.985  0.5651  0.2112  0.2938
 2199SOL    HW3 8563   4.922   5.938   6.065  0.0338 -0.1123 -0.1697
 2199SOL    MW4 8564   4.961   5.866   6.035  0.0593  0.0165 -0.4476
 2200SOL     OW 8565   6.170   1.520   4.800 -0.0217 -0.3287 -0.3362
 2200SOL    HW2 8566   6.218   1.439   4.783 -0.0061  0.0275 -2.1818
 2200SOL    HW3 8567   6.088   1.509   4.752 -0.5207  0.2836  0.3597
 2200SOL    MW4 8568   6.165   1.508   4.792 -0.0855 -0.2009 -0.4879
 2201SOL     OW 8569   0.252   0.823   4.478 -0.2150  0.1501 -0.5575
 2201SOL    HW2 8570   0.213   0.823   4.390  0.6204 -1.9119 -0.9859
 2201SOL    HW3 8571   0.178   0.806   4.537 -0.4132 -1.0051 -1.1148
 2201SOL    MW4 8572   0.237   0.820   4.474 -0.1309 -0.2744 -0.6875
 2202SOL     OW 8573   5.109   0.258   5.638  0.4370 -0.5913 -0.1527
 2202SOL    HW2 8574   5.065   0.199   5.576  0.8773 -0.9520 -0.1281
 2202SOL    HW3 8575   5.189   0.285   5.593  0.7783 -0.8818  0.2621
 2202SOL    MW4 8576   5.114   0.254   5.624  0.5401 -0.6772 -0.0947
 2203SOL     OW 8577   6.192   1.007   1.607 -0.1729  0.1661 -0.4694
 2203SOL    HW2 8578   6.137   1.071   1.653  0.1339  0.0762  0.0300
 2203SOL    HW3 8579   6.197   0.933   1.667  1.6021  0.7056  0.1064
 2203SOL    MW4 8580   6.185   1.006   1.621  0.1018  0.2254 -0.3275
 2204SOL     OW 8581   5.976   6.070   3.538 -0.0373 -0.0435 -0.0756
 2204SOL    HW2 8582   6.015   6.122   3.468 -0.0389  0.2732  0.1569
 2204SOL    HW3 8583   6.047   6.014   3.569  0.4905  1.1574  0.9467
 2204SOL    MW4 8584   5.991   6.069   3.533  0.0322  0.1568  0.0899
 2205SOL     OW 8585   5.276   0.302   3.384  0.8053  0.2781  0.3349
 2205SOL    HW2 8586   5.339   0.350   3.438 -0.6620  1.8015  0.7413
 2205SOL    HW3 8587   5.222   0.370   3.344  0.1618 -0.9506 -0.9677
 2205SOL    MW4 8588   5.277   0.317   3.386  0.5268  0.3170  0.2166
 2206SOL     OW 8589   4.300   4.202   2.085 -0.3438 -0.9419  0.3214
 2206SOL    HW2 8590   4.350   4.138   2.035 -2.5664 -1.0515 -1.9790
 2206SOL    HW3 8591   4.231   4.152   2.128 -0.3823 -0.4314  0.8774
 2206SOL    MW4 8592   4.297   4.187   2.084 -0.6421 -0.8890  0.0912
 2207SOL     OW 8593   1.070   6.111   2.792 -0.0761 -0.2634  0.3907
 2207SOL    HW2 8594   1.140   6.175   2.775  0.3259 -0.5897  0.7891
 2207SOL    HW3 8595   1.111   6.026   2.777 -0.7856 -0.4219 -0.7728
 2207SOL    MW4 8596   1.085   6.108   2.788 -0.1166 -0.3274  0.2897
 2208SOL     OW 8597   2.339   5.028   1.730 -0.8462  0.3667  0.0183
 2208SOL    HW2 8598   2.384   5.009   1.812 -2.0136 -0.9180  0.3809
 2208SOL    HW3 8599   2.304   4.944   1.701  0.0651  0.6622 -2.1427
 2208SOL    MW4 8600   2.341   5.015   1.737 -0.8800  0.2362 -0.2190
 2209SOL     OW 8601   4.450   2.924   2.901 -0.7424 -0.2287 -0.3560
 2209SOL    HW2 8602   4.403   2.848   2.936  0.8611 -1.7052 -1.2355
 2209SOL    HW3 8603   4.460   2.906   2.808  2.3907 -0.5571 -0.0813
 2209SOL    MW4 8604   4.445   2.912   2.894 -0.1175 -0.4668 -0.4358
 2210SOL     OW 8605   0.115   2.521   3.087  0.0219 -0.0979 -0.1955
 2210SOL    HW2 8606   0.153   2.451   3.034 -0.1814 -0.3374 -0.0315
 2210SOL    HW3 8607   0.020   2.508   3.079 -0.0646  1.1413 -1.4494
 2210SOL    MW4 8608   0.108   2.510   3.079 -0.0164  0.0340 -0.3393
 2211SOL     OW 8609   0.994   1.881   0.927 -0.2822  0.0712 -0.3969
 2211SOL    HW2 8610   0.977   1.787   0.933 -2.8381  0.4745 -0.3278
 2211SOL    HW3 8611   1.038   1.903   1.009 -0.4211 -0.9183 -0.0511
 2211SOL    MW4 8612   0.998   1.872   0.938 -0.6377 -0.0061 -0.3422
 2212SOL     OW 8613   1.922   4.452   0.801  0.0502  0.1452  0.7408
 2212SOL    HW2 8614   1.916   4.542   0.768 -0.3658 -0.3939 -0.6959
 2212SOL    HW3 8615   1.907   4.461   0.895  2.7049  1.8966  1.1122
 2212SOL    MW4 8616   1.919   4.465   0.809  0.3455  0.3052  0.6002
 2213SOL     OW 8617   3.613   4.884   5.348  0.0799  0.0595 -0.0605
 2213SOL    HW2 8618   3.682   4.837   5.301 -0.9317 -0.7991 -0.7061
 2213SOL    HW3 8619   3.639   4.976   5.342 -0.3537  0.0926 -2.9475
 2213SOL    MW4 8620   3.626   4.890   5.341 -0.1108 -0.0494 -0.5265
 2214SOL     OW 8621   2.316   3.450   3.571 -0.3026  0.2961  0.2033
 2214SOL    HW2 8622   2.410   3.440   3.588 -0.1659  1.3910  0.1842
 2214SOL    HW3 8623   2.311   3.515   3.501 -1.0506 -0.5284 -0.5294
 2214SOL    MW4 8624   2.328   3.458   3.564 -0.3832  0.3318  0.1042
 2215SOL     OW 8625   2.853   4.761   1.606 -0.6153 -0.2261  0.3913
 2215SOL    HW2 8626   2.836   4.669   1.630 -4.2046  0.4828  1.2603
 2215SOL    HW3 8627   2.854   4.807   1.689 -0.1729  0.6857 -0.1110
 2215SOL    MW4 8628   2.851   4.755   1.620 -1.0305 -0.0123  0.4397
 2216SOL     OW 8629   0.985   0.299   1.290  0.4019  0.0503 -0.5191
 2216SOL    HW2 8630   1.068   0.308   1.336  0.5932 -1.2314 -0.5690
 2216SOL    HW3 8631   0.919   0.294   1.359  0.2754  1.6562 -0.4908
 2216SOL    MW4 8632   0.987   0.299   1.305  0.4104  0.0930 -0.5220
 2217SOL     OW 8633   5.814   2.097   3.425 -0.7310 -0.0860  0.1231
 2217SOL    HW2 8634   5.778   2.013   3.452  1.3630 -0.7814  0.9161
 2217SOL    HW3 8635   5.810   2.152   3.503 -2.2152  0.6519 -0.4249
 2217SOL    MW4 8636   5.809   2.093   3.439 -0.6505 -0.0804  0.1555
 2218SOL     OW 8637   1.482   4.821   5.595 -0.0237  0.1499  0.4845
 2218SOL    HW2 8638   1.429   4.886   5.550  0.2219  0.3633  0.5055
 2218SOL    HW3 8639   1.440   4.811   5.681 -0.1376  0.1829  0.4335
 2218SOL    MW4 8640   1.469   4.828   5.601 -0.0063  0.1824  0.4805
 2219SOL     OW 8641   1.140   1.425   1.545 -0.1615  0.3778  0.2024
 2219SOL    HW2 8642   1.227   1.416   1.582 -0.4121  2.0965  1.3259
 2219SOL    HW3 8643   1.131   1.518   1.526 -1.6401  0.1896 -0.2060
 2219SOL    MW4 8644   1.150   1.436   1.547 -0.3896  0.5797  0.2968
 2220SOL     OW 8645   0.342   6.262   1.433  0.1513 -0.1423 -0.4817
 2220SOL    HW2 8646   0.424   6.252   1.385  0.1786  0.1522 -0.5004
 2220SOL    HW3 8647   0.310   6.173   1.445  1.1970 -0.3725  0.8124
 2220SOL    MW4 8648   0.348   6.249   1.428  0.2929 -0.1338 -0.3134
 2221SOL     OW 8649   0.431   1.590   2.079 -0.0746  0.2030 -0.1326
 2221SOL    HW2 8650   0.337   1.604   2.095 -0.6886 -1.4542 -1.8615
 2221SOL    HW3 8651   0.448   1.502   2.113  0.8560  0.4832  0.1460
 2221SOL    MW4 8652   0.420   1.580   2.086 -0.0328  0.0213 -0.3240
 2222SOL     OW 8653   0.105   0.724   0.362 -0.0428  0.6823  0.4233
 2222SOL    HW2 8654   0.153   0.662   0.417  0.3529  0.0625 -0.5869
 2222SOL    HW3 8655   0.153   0.806   0.371 -0.4261  0.7870  1.5828
 2222SOL    MW4 8656   0.118   0.726   0.370 -0.0412  0.6144  0.4430
 2223SOL     OW 8657   3.453   3.933   1.750 -0.4498 -0.1393 -0.0030
 2223SOL    HW2 8658   3.482   3.884   1.674 -0.9917 -0.1143 -0.2310
 2223SOL    HW3 8659   3.534   3.959   1.795 -0.1532 -1.0156 -0.0162
 2223SOL    MW4 8660   3.467   3.930   1.746 -0.4822 -0.2516 -0.0348
 2224SOL     OW 8661   2.794   4.344   0.825  0.0995  0.2857 -0.0100
 2224SOL    HW2 8662   2.808   4.439   0.832  0.2020  0.2529  0.2348
 2224SOL    HW3 8663   2.754   4.320   0.908 -0.9088  0.2886 -0.4822
 2224SOL    MW4 8664   2.791   4.353   0.837 -0.0200  0.2817 -0.0400
 2225SOL     OW 8665   4.306   2.778   2.408  0.4512  0.4892  0.1362
 2225SOL    HW2 8666   4.374   2.784   2.341 -0.0668  0.0763 -0.4435
 2225SOL    HW3 8667   4.339   2.829   2.482  2.6530 -1.8938  0.9498
 2225SOL    MW4 8668   4.319   2.785   2.409  0.6734  0.1203  0.1671
 2226SOL     OW 8669   0.821   1.372   0.911 -0.6116  0.0613  0.5400
 2226SOL    HW2 8670   0.877   1.303   0.877 -0.0201  1.0858 -0.6207
 2226SOL    HW3 8671   0.762   1.393   0.839  0.0401  1.6213  0.4398
 2226SOL    MW4 8672   0.820   1.366   0.897 -0.4476  0.4023  0.3737
 2227SOL     OW 8673   1.414   3.223   3.408  0.0474  0.1447 -0.3951
 2227SOL    HW2 8674   1.357   3.147   3.421 -0.0858  0.2989 -0.0533
 2227SOL    HW3 8675   1.492   3.203   3.460  1.2920 -1.0613 -2.5625
 2227SOL    MW4 8676   1.417   3.210   3.417  0.1940  0.0059 -0.6360
 2228SOL     OW 8677   1.935   0.755   1.748  0.4866  0.0012  0.1329
 2228SOL    HW2 8678   2.016   0.776   1.702 -0.1766  0.8450 -0.6855
 2228SOL    HW3 8679   1.866   0.789   1.692 -0.4551 -0.9432  0.6952
 2228SOL    MW4 8680   1.937   0.762   1.735  0.2748 -0.0120  0.0991
 2229SOL     OW 8681   0.455   5.635   4.909 -0.0629 -0.2956  0.1797
 2229SOL    HW2 8682   0.486   5.692   4.839  1.0764  0.0417  0.9169
 2229SOL    HW3 8683   0.379   5.680   4.945  0.0217  0.0949 -0.1178
 2229SOL    MW4 8684   0.449   5.649   4.905  0.0986 -0.1996  0.2377
 2230SOL     OW 8685   5.033   0.086   2.516 -0.1754 -0.0506 -0.2911
 2230SOL    HW2 8686   4.958   0.146   2.518  0.0434  0.2848 -1.4264
 2230SOL    HW3 8687   5.033   0.050   2.428 -0.3970 -1.8983  0.4091
 2230SOL    MW4 8688   5.023   0.089   2.505 -0.1758 -0.2501 -0.3485
 2231SOL     OW 8689   0.007   3.894   2.976 -0.6054  0.3447  0.1898
 2231SOL    HW2 8690   0.026   3.800   2.974  0.8390  0.6022  0.2785
 2231SOL    HW3 8691   0.040   3.926   2.892  0.7284  1.0601  0.9482
 2231SOL    MW4 8692   0.014   3.885   2.964 -0.2388  0.4731  0.3015
 2232SOL     OW 8693   5.171   5.562   4.966  0.4092 -0.0839 -0.2251
 2232SOL    HW2 8694   5.259   5.536   4.938  1.8389  2.0591  1.7829
 2232SOL    HW3 8695   5.187   5.627   5.035 -2.7873  0.2124  0.3880
 2232SOL    MW4 8696   5.185   5.567   4.972  0.1761  0.2380  0.1208
 2233SOL     OW 8697   0.944   1.051   0.022  0.2435  0.1390 -0.0691
 2233SOL    HW2 8698   0.940   1.044   0.117 -1.1157 -2.1339 -0.2144
 2233SOL    HW3 8699   0.971   0.964  -0.008 -1.4649  0.1242 -1.8111
 2233SOL    MW4 8700   0.947   1.039   0.030 -0.1612 -0.1628 -0.3181
 2234SOL     OW 8701   3.298   6.423   5.144  0.3027 -0.3573 -0.1973
 2234SOL    HW2 8702   3.206   6.434   5.167  0.3085 -0.5987 -0.0488
 2234SOL    HW3 8703   3.344   6.491   5.193  0.3011 -0.7916  0.4281
 2234SOL    MW4 8704   3.292   6.433   5.154  0.3033 -0.4464 -0.0952
 2235SOL     OW 8705   1.266   0.286   2.214  0.0737  0.4218  0.4245
 2235SOL    HW2 8706   1.220   0.202   2.207  3.3004 -1.5912  1.0136
 2235SOL    HW3 8707   1.267   0.305   2.308  1.3816 -0.2068  0.5612
 2235SOL    MW4 8708   1.260   0.277   2.226  0.6720  0.0733  0.5203
 2236SOL     OW 8709   1.712   5.649   2.970  0.4790  0.0261 -0.1578
 2236SOL    HW2 8710   1.727   5.559   2.942 -0.5147 -0.4209  0.6902
 2236SOL    HW3 8711   1.792   5.674   3.016  1.7227  0.4092 -2.3893
 2236SOL    MW4 8712   1.724   5.640   2.972  0.5120  0.0176 -0.3404
 2237SOL     OW 8713   3.437   3.684   3.448 -0.5276  0.0842  0.6528
 2237SOL    HW2 8714   3.388   3.763   3.472  1.6610  1.8303 -0.2894
 2237SOL    HW3 8715   3.464   3.647   3.532 -0.3639  1.1687  1.1020
 2237SOL    MW4 8716   3.434   3.690   3.462 -0.2172  0.4576  0.5878
 2238SOL     OW 8717   5.522   3.915   5.545 -0.1199  0.2728  0.0679
 2238SOL    HW2 8718   5.536   3.827   5.580  0.0896  0.5422  0.6805
 2238SOL    HW3 8719   5.428   3.920   5.527 -0.7013  0.8963  2.8057
 2238SOL    MW4 8720   5.512   3.904   5.547 -0.1690  0.3906  0.5100
 2239SOL     OW 8721   1.313   6.131   0.163  0.1873 -0.0667  0.1094
 2239SOL    HW2 8722   1.272   6.114   0.078  0.7227  1.9522 -0.6113
 2239SOL    HW3 8723   1.301   6.050   0.212 -1.1643 -0.8877 -1.4726
 2239SOL    MW4 8724   1.306   6.118   0.159  0.0796  0.0913 -0.1944
 2240SOL     OW 8725   3.166   5.603   1.875  0.0095  0.6612 -0.5354
 2240SOL    HW2 8726   3.108   5.645   1.939 -0.2500  0.7391 -0.8192
 2240SOL    HW3 8727   3.156   5.656   1.795 -0.6249 -0.1672 -1.0235
 2240SOL    MW4 8728   3.157   5.616   1.873 -0.1085  0.5622 -0.6372
 2241SOL     OW 8729   5.193   5.744   5.205  0.5741 -0.1760  0.1001
 2241SOL    HW2 8730   5.214   5.659   5.244  1.1313 -0.7945 -1.4847
 2241SOL    HW3 8731   5.274   5.771   5.162 -0.6078 -0.7189 -2.7154
 2241SOL    MW4 8732   5.206   5.736   5.204  0.4917 -0.3292 -0.4805
 2242SOL     OW 8733   0.456   2.773   5.840 -0.1569  0.2103  0.1756
 2242SOL    HW2 8734   0.427   2.845   5.897 -0.2306  2.1804 -2.1655
 2242SOL    HW3 8735   0.394   2.775   5.767 -0.0111 -2.1465 -0.0733
 2242SOL    MW4 8736   0.444   2.783   5.838 -0.1474  0.1593 -0.1661
 2243SOL     OW 8737   4.088   0.404   0.077  0.0019  0.1862 -0.2435
 2243SOL    HW2 8738   4.155   0.348   0.118  0.4041 -1.0767 -2.4576
 2243SOL    HW3 8739   4.028   0.343   0.035 -0.1645  1.3979 -1.8423
 2243SOL    MW4 8740   4.089   0.389   0.077  0.0330  0.1794 -0.7466
 2244SOL     OW 8741   5.672   3.257   1.787  0.0204  0.1908  0.4093
 2244SOL    HW2 8742   5.651   3.166   1.809  2.3872 -0.5108  0.0974
 2244SOL    HW3 8743   5.636   3.269   1.699  1.1289 -1.0510 -0.2623
 2244SOL    MW4 8744   5.665   3.246   1.778  0.4789 -0.0656  0.2796
 2245SOL     OW 8745   0.762   0.878   5.501 -0.1788  0.2880  0.6707
 2245SOL    HW2 8746   0.680   0.922   5.479 -0.2529  0.8128  1.9489
 2245SOL    HW3 8747   0.746   0.837   5.586  0.8002  0.1562  0.8006
 2245SOL    MW4 8748   0.749   0.878   5.509 -0.0594  0.3398  0.8565
 2246SOL     OW 8749   6.240   5.448   3.955 -0.0784  0.3176  0.2476
 2246SOL    HW2 8750   6.335   5.439   3.946 -0.3656 -1.4695 -2.2580
 2246SOL    HW3 8751   6.228   5.506   4.030  2.9955  1.9228 -0.3412
 2246SOL    MW4 8752   6.251   5.454   3.964  0.2893  0.2936 -0.1606
 2247SOL     OW 8753   3.991   0.222   1.432 -0.0190  0.5679 -0.0820
 2247SOL    HW2 8754   4.071   0.190   1.392 -0.8716 -1.1778 -0.4618
 2247SOL    HW3 8755   3.978   0.309   1.394 -0.0591 -0.4520 -2.5842
 2247SOL    MW4 8756   4.000   0.230   1.422 -0.1368  0.2030 -0.4622
 2248SOL     OW 8757   5.400   6.019   2.317  0.7239  0.0697 -0.3507
 2248SOL    HW2 8758   5.387   6.090   2.380  0.5578  2.3511 -2.7515
 2248SOL    HW3 8759   5.316   5.975   2.312 -0.1299  1.7057 -1.0123
 2248SOL    MW4 8760   5.388   6.023   2.324  0.5894  0.5866 -0.7548
 2249SOL     OW 8761   5.689   5.655   3.434  0.0112 -0.1926 -0.4742
 2249SOL    HW2 8762   5.698   5.613   3.520  0.5691  2.0559  0.6253
 2249SOL    HW3 8763   5.731   5.740   3.444  2.3361 -0.7831 -3.7232
 2249SOL    MW4 8764   5.695   5.660   3.447  0.3915  0.0261 -0.7578
 2250SOL     OW 8765   3.688   3.450   4.553 -0.2842  0.0449 -0.0835
 2250SOL    HW2 8766   3.630   3.518   4.585 -2.1758 -1.5340  0.0658
 2250SOL    HW3 8767   3.678   3.378   4.616  2.0997 -0.1943  0.1053
 2250SOL    MW4 8768   3.679   3.449   4.565 -0.2193 -0.1950 -0.0389
 2251SOL     OW 8769   3.743   0.296   5.593  0.0135 -0.7571 -0.2758
 2251SOL    HW2 8770   3.800   0.309   5.517 -0.7799  3.3270 -0.4319
 2251SOL    HW3 8771   3.661   0.263   5.556 -0.5344  1.6564 -1.4223
 2251SOL    MW4 8772   3.740   0.294   5.578 -0.1635  0.1001 -0.4477
 2252SOL     OW 8773   2.341   0.579   4.718 -0.1296 -0.3038  0.4033
 2252SOL    HW2 8774   2.317   0.666   4.748 -0.6340 -0.6822  1.1310
 2252SOL    HW3 8775   2.345   0.526   4.798  2.4878 -0.4371  0.2796
 2252SOL    MW4 8776   2.338   0.583   4.732  0.1492 -0.3713  0.4830
 2253SOL     OW 8777  -0.004   1.904   5.665 -0.3812 -0.3767  0.2210
 2253SOL    HW2 8778  -0.036   1.814   5.661 -0.7712 -0.3071  1.4937
 2253SOL    HW3 8779   0.025   1.915   5.755 -2.0558  1.3285  0.6194
 2253SOL    MW4 8780  -0.005   1.894   5.676 -0.6536 -0.1426  0.4415
 2254SOL     OW 8781   4.412   5.116   5.894 -0.0470  0.0237  0.4504
 2254SOL    HW2 8782   4.476   5.136   5.825  0.9042 -0.7315  1.1036
 2254SOL    HW3 8783   4.334   5.087   5.846 -0.4150  2.2019 -0.4140
 2254SOL    MW4 8784   4.410   5.115   5.878  0.0299  0.2115  0.4225
 2255SOL     OW 8785   2.452   0.291   0.869  0.5187 -0.6940 -0.3127
 2255SOL    HW2 8786   2.457   0.236   0.947  1.3284 -0.8815 -0.4867
 2255SOL    HW3 8787   2.534   0.341   0.870 -0.0171  0.2070 -0.3834
 2255SOL    MW4 8788   2.464   0.291   0.880  0.5548 -0.5999 -0.3450
 2256SOL     OW 8789   1.187   1.920   5.368  0.3219  0.0657  0.2183
 2256SOL    HW2 8790   1.163   1.943   5.458  0.4330 -0.8685  0.4992
 2256SOL    HW3 8791   1.139   1.839   5.352  0.6518 -0.0002 -0.4164
 2256SOL    MW4 8792   1.177   1.912   5.378  0.3801 -0.0663  0.1716
 2257SOL     OW 8793   2.425   3.536   0.090  0.2329 -0.1285 -0.0914
 2257SOL    HW2 8794   2.377   3.552   0.009  1.0671  0.9920 -0.3885
 2257SOL    HW3 8795   2.463   3.621   0.113 -0.8707 -0.1728  2.0728
 2257SOL    MW4 8796   2.424   3.549   0.082  0.1973  0.0135  0.1549
 2258SOL     OW 8797   1.968   4.476   1.217  0.0842 -0.0325  0.0955
 2258SOL    HW2 8798   2.032   4.406   1.226  0.2795  0.0641 -0.4882
 2258SOL    HW3 8799   1.888   4.432   1.190 -0.4717 -0.3084  2.0241
 2258SOL    MW4 8800   1.966   4.461   1.215  0.0366 -0.0561  0.2730
 2259SOL     OW 8801   4.948   3.519   3.734  0.0062 -0.2420 -0.0995
 2259SOL    HW2 8802   4.990   3.477   3.810  0.9150  2.0305  0.7426
 2259SOL    HW3 8803   4.855   3.518   3.754  0.2300  0.2619  1.0430
 2259SOL    MW4 8804   4.942   3.513   3.747  0.1557  0.1243  0.1623
 2260SOL     OW 8805   3.436   4.394   4.769 -0.7564 -0.0927 -0.1844
 2260SOL    HW2 8806   3.481   4.477   4.755  1.9404 -1.5897 -1.2805
 2260SOL    HW3 8807   3.432   4.354   4.682 -3.2416 -0.5766  0.0885
 2260SOL    MW4 8808   3.442   4.400   4.756 -0.7285 -0.3541 -0.2930
 2261SOL     OW 8809   4.596   3.230   1.248 -0.3047 -0.2128 -0.4447
 2261SOL    HW2 8810   4.548   3.311   1.263 -0.9679 -0.8811  1.3179
 2261SOL    HW3 8811   4.539   3.162   1.285  1.7444 -1.0923  1.3082
 2261SOL    MW4 8812   4.582   3.231   1.255 -0.1219 -0.4170  0.0191
 2262SOL     OW 8813   0.415   5.477   3.963  0.2134  0.1146 -0.4858
 2262SOL    HW2 8814   0.391   5.425   4.040 -0.4284  0.0805 -0.7009
 2262SOL    HW3 8815   0.353   5.550   3.964  0.0963  0.0242 -1.0646
 2262SOL    MW4 8816   0.403   5.480   3.973  0.1133  0.0982 -0.5905
 2263SOL     OW 8817   0.278   0.229   1.850 -0.0337  0.3873 -0.0452
 2263SOL    HW2 8818   0.211   0.288   1.814 -0.3958 -0.5259 -0.9119
 2263SOL    HW3 8819   0.284   0.158   1.786  1.6276  0.3427  0.1337
 2263SOL    MW4 8820   0.270   0.227   1.837  0.1377  0.2609 -0.1359
 2264SOL     OW 8821   4.078   0.561   3.147 -0.0855 -0.1831 -0.0905
 2264SOL    HW2 8822   4.090   0.491   3.211  0.2464 -0.1849 -0.1500
 2264SOL    HW3 8823   3.983   0.569   3.136 -0.1937  0.6179  1.2638
 2264SOL    MW4 8824   4.067   0.553   3.154 -0.0560 -0.0777  0.0803
 2265SOL     OW 8825   4.035   4.597   5.943  0.5933  0.9089  0.2333
 2265SOL    HW2 8826   4.047   4.646   6.024  1.6259 -0.7126  1.1294
 2265SOL    HW3 8827   4.111   4.620   5.890  1.5768 -0.3281  1.0300
 2265SOL    MW4 8828   4.046   4.606   5.947  0.8593  0.5318  0.4567
 2266SOL     OW 8829   0.048   0.079   4.951  0.2845 -0.0432 -0.8615
 2266SOL    HW2 8830   0.128   0.130   4.942 -0.5056  1.1066 -1.6063
 2266SOL    HW3 8831   0.021   0.060   4.862 -0.6394  0.2010 -0.6493
 2266SOL    MW4 8832   0.055   0.084   4.938  0.0584  0.1408 -0.9318
 2267SOL     OW 8833   2.996   1.542   3.394 -0.8120 -0.2330  0.3913
 2267SOL    HW2 8834   2.977   1.474   3.459  0.9862 -1.0894  0.0762
 2267SOL    HW3 8835   3.083   1.574   3.418 -1.5615  1.9341  0.4717
 2267SOL    MW4 8836   3.005   1.537   3.406 -0.6736 -0.0601  0.3604
 2268SOL     OW 8837   5.209   3.944   0.514 -0.1518  0.0111 -0.7043
 2268SOL    HW2 8838   5.208   3.849   0.504  0.7527  0.0696 -1.5193
 2268SOL    HW3 8839   5.301   3.968   0.500 -0.2502  0.9422  0.1521
 2268SOL    MW4 8840   5.221   3.935   0.510 -0.0454  0.1416 -0.6988
 2269SOL     OW 8841   4.638   4.428   3.388 -0.2539 -0.1579 -0.5532
 2269SOL    HW2 8842   4.677   4.359   3.334  0.3270 -1.7617  1.7748
 2269SOL    HW3 8843   4.713   4.472   3.427 -0.4960 -2.6420  3.2082
 2269SOL    MW4 8844   4.653   4.425   3.386 -0.2092 -0.6973  0.2502
 2270SOL     OW 8845   5.429   3.139   3.707  0.1274 -0.9188 -0.2032
 2270SOL    HW2 8846   5.378   3.114   3.630 -0.4015  0.6682 -0.4121
 2270SOL    HW3 8847   5.518   3.148   3.674 -0.1192 -0.1137 -0.6969
 2270SOL    MW4 8848   5.434   3.137   3.693  0.0251 -0.6032 -0.2959
 2271SOL     OW 8849   3.692   5.245   0.648  0.1046 -0.2647 -0.3368
 2271SOL    HW2 8850   3.711   5.152   0.635 -0.9018 -0.7304  1.1857
 2271SOL    HW3 8851   3.771   5.281   0.688 -0.1565 -0.9022  0.7801
 2271SOL    MW4 8852   3.705   5.238   0.651 -0.0626 -0.4103  0.0115
 2272SOL     OW 8853   0.695   5.146   4.497 -0.3762 -0.0627 -0.4087
 2272SOL    HW2 8854   0.717   5.062   4.456 -0.1881 -0.0835 -0.2645
 2272SOL    HW3 8855   0.675   5.204   4.424  0.7061  0.1193 -0.5742
 2272SOL    MW4 8856   0.695   5.142   4.482 -0.2086 -0.0414 -0.4115
 2273SOL     OW 8857   0.434   4.608   1.602  0.5347 -0.3569 -0.4486
 2273SOL    HW2 8858   0.406   4.518   1.590  1.6965 -0.7780 -0.1322
 2273SOL    HW3 8859   0.353   4.659   1.600 -0.0283 -1.2551 -1.8613
 2273SOL    MW4 8860   0.420   4.603   1.601  0.6137 -0.5310 -0.5932
 2274SOL     OW 8861   2.385   3.499   5.427 -0.0049  0.0761  0.1388
 2274SOL    HW2 8862   2.409   3.435   5.494  0.5811 -0.1560 -0.2915
 2274SOL    HW3 8863   2.340   3.447   5.360  1.5162 -0.1039 -0.7780
 2274SOL    MW4 8864   2.382   3.484   5.427  0.2731  0.0217 -0.0390
 2275SOL     OW 8865   5.802   6.301   1.202 -0.2314  0.0741 -0.1283
 2275SOL    HW2 8866   5.731   6.251   1.242  0.1777  0.2166  0.8069
 2275SOL    HW3 8867   5.866   6.235   1.175 -0.7277 -0.0582 -1.0223
 2275SOL    MW4 8868   5.801   6.286   1.203 -0.2429  0.0755 -0.1229
 2276SOL     OW 8869   2.128   6.123   1.275  0.2377 -0.2359  0.4782
 2276SOL    HW2 8870   2.161   6.212   1.285 -1.6515  0.4176  1.3263
 2276SOL    HW3 8871   2.072   6.110   1.351 -0.8338 -1.5480 -0.5021
 2276SOL    MW4 8872   2.125   6.133   1.287 -0.1529 -0.3228  0.4608
 2277SOL     OW 8873   4.271   1.059   1.866  0.0338 -0.0982 -0.3667
 2277SOL    HW2 8874   4.362   1.081   1.848  0.3662 -0.0853  1.1915
 2277SOL    HW3 8875   4.222   1.136   1.837  0.7836  0.9894  1.1132
 2277SOL    MW4 8876   4.277   1.072   1.860  0.1766  0.0470  0.0342
 2278SOL     OW 8877   1.599   1.432   4.874  0.3462  0.4295 -0.4365
 2278SOL    HW2 8878   1.655   1.392   4.940 -0.0142  1.4214  0.5115
 2278SOL    HW3 8879   1.632   1.398   4.791  0.2069 -1.5913  0.2793
 2278SOL    MW4 8880   1.611   1.423   4.872  0.2803  0.2938 -0.2170
 2279SOL     OW 8881   0.419   5.819   0.533  0.2740 -0.6174 -0.4931
 2279SOL    HW2 8882   0.508   5.832   0.566  1.5767 -0.3638 -3.6952
 2279SOL    HW3 8883   0.411   5.724   0.524 -0.4028 -0.7502  1.1633
 2279SOL    MW4 8884   0.430   5.808   0.536  0.3566 -0.6015 -0.6970
 2280SOL     OW 8885   3.965   4.522   4.124 -0.1064  0.0429 -0.4917
 2280SOL    HW2 8886   3.931   4.446   4.171  0.2224  1.0733  1.5510
 2280SOL    HW3 8887   3.888   4.575   4.105 -0.1143  0.3484  0.3214
 2280SOL    MW4 8888   3.951   4.519   4.128 -0.0640  0.2191 -0.1149
 2281SOL     OW 8889   6.152   6.408   4.596 -0.2022  0.4271 -0.3667
 2281SOL    HW2 8890   6.173   6.330   4.545 -1.9455 -0.1445 -0.2601
 2281SOL    HW3 8891   6.238   6.445   4.620  0.6675 -1.6364 -0.1118
 2281SOL    MW4 8892   6.166   6.403   4.592 -0.3175  0.0794 -0.3190
 2282SOL     OW 8893   1.540   4.297   0.228 -0.2093  0.0602 -0.3336
 2282SOL    HW2 8894   1.559   4.256   0.313 -1.0385 -0.5517 -0.4238
 2282SOL    HW3 8895   1.552   4.391   0.243  2.6404 -0.2190 -0.3612
 2282SOL    MW4 8896   1.544   4.304   0.241  0.0573 -0.0574 -0.3491
 2283SOL     OW 8897   1.088   2.140   0.428 -0.1990  0.2224  0.1389
 2283SOL    HW2 8898   1.173   2.161   0.390  0.0777  0.7902  1.0428
 2283SOL    HW3 8899   1.086   2.045   0.432  0.4405  0.2105  0.2199
 2283SOL    MW4 8900   1.099   2.130   0.424 -0.0781  0.2957  0.2689
 2284SOL     OW 8901   1.082   5.150   5.683 -0.2456  0.1460 -0.2899
 2284SOL    HW2 8902   1.051   5.087   5.618 -1.1059 -0.1538  0.3898
 2284SOL    HW3 8903   1.177   5.136   5.687 -0.3042 -0.4413 -0.8208
 2284SOL    MW4 8904   1.091   5.140   5.675 -0.3669  0.0290 -0.2703
 2285SOL     OW 8905   1.378   5.410   1.435 -0.0114  0.3334  0.0702
 2285SOL    HW2 8906   1.346   5.355   1.363 -0.1069  0.9826 -0.3956
 2285SOL    HW3 8907   1.438   5.353   1.484 -1.1145 -0.5949  0.3794
 2285SOL    MW4 8908   1.382   5.395   1.432 -0.1695  0.2965  0.0495
 2286SOL     OW 8909   6.039   1.359   0.665  0.4497 -0.9078 -0.3448
 2286SOL    HW2 8910   5.943   1.354   0.668  0.1788  2.3018  0.1509
 2286SOL    HW3 8911   6.065   1.366   0.757  0.9395  0.3189 -0.5607
 2286SOL    MW4 8912   6.030   1.359   0.677  0.4786 -0.3225 -0.3079
 2287SOL     OW 8913   0.647   2.710   4.726  0.0278 -0.3693  0.3553
 2287SOL    HW2 8914   0.638   2.618   4.750  0.6883 -0.4944  0.1413
 2287SOL    HW3 8915   0.647   2.756   4.810  3.2956 -0.8894  0.7642
 2287SOL    MW4 8916   0.646   2.704   4.740  0.5461 -0.4544  0.3810
 2288SOL     OW 8917   4.040   6.434   4.832 -0.2383  0.4862  0.2103
 2288SOL    HW2 8918   3.997   6.356   4.796 -0.1007  0.5480 -0.0864
 2288SOL    HW3 8919   4.133   6.418   4.821 -0.2345  1.1225 -0.7553
 2288SOL    MW4 8920   4.046   6.422   4.826 -0.2197  0.5783  0.0437
 2289SOL     OW 8921   3.862   2.637   5.454 -1.3360 -0.0001 -0.1751
 2289SOL    HW2 8922   3.833   2.710   5.510 -2.1789 -1.1218  0.9006
 2289SOL    HW3 8923   3.825   2.559   5.496 -1.9239 -0.8953 -2.2599
 2289SOL    MW4 8924   3.853   2.637   5.467 -1.5248 -0.2662 -0.3082
 2290SOL     OW 8925   2.082   2.504   5.891  0.4554  0.3402 -0.1037
 2290SOL    HW2 8926   2.118   2.447   5.959  0.6099 -0.9418 -1.2094
 2290SOL    HW3 8927   2.149   2.505   5.823  0.2388  1.4725 -0.3249
 2290SOL    MW4 8928   2.095   2.497   5.891  0.4472  0.3204 -0.2787
 2291SOL     OW 8929   3.274   3.278   4.726  0.2087 -0.5199 -0.1950
 2291SOL    HW2 8930   3.301   3.328   4.803  0.0624  2.2072 -1.8134
 2291SOL    HW3 8931   3.190   3.239   4.751 -0.4799  1.3812  0.5916
 2291SOL    MW4 8932   3.267   3.279   4.740  0.0985  0.0908 -0.3047
 2292SOL     OW 8933   2.588   4.286   4.985  0.0765  0.1168  0.8338
 2292SOL    HW2 8934   2.524   4.330   5.041  1.7971  0.8824  2.3183
 2292SOL    HW3 8935   2.641   4.234   5.046  0.3601 -1.1293 -0.4483
 2292SOL    MW4 8936   2.587   4.285   5.001  0.3409  0.0534  0.8605
 2293SOL     OW 8937   6.365   2.335   4.966 -0.3712  0.0324 -0.8970
 2293SOL    HW2 8938   6.440   2.339   4.906  1.6769 -2.5719  1.2045
 2293SOL    HW3 8939   6.403   2.351   5.053 -2.1090 -1.8456  0.3134
 2293SOL    MW4 8940   6.380   2.338   4.970 -0.3303 -0.5590 -0.4600
 2294SOL     OW 8941   3.855   5.454   2.362  0.5551 -0.4033 -0.6159
 2294SOL    HW2 8942   3.781   5.514   2.376  1.0838  0.4602 -1.3953
 2294SOL    HW3 8943   3.922   5.485   2.423  0.3484 -1.0534 -0.0589
 2294SOL    MW4 8944   3.854   5.466   2.372  0.5976 -0.3751 -0.6452
 2295SOL     OW 8945   5.610   2.361   2.787 -0.0961 -0.9079 -0.4664
 2295SOL    HW2 8946   5.623   2.393   2.698  0.4943  0.3382  0.0369
 2295SOL    HW3 8947   5.653   2.276   2.788 -0.2112 -0.9907 -1.4002
 2295SOL    MW4 8948   5.618   2.354   2.775 -0.0334 -0.7544 -0.5232
 2296SOL     OW 8949   0.804   2.433   4.953 -0.7243 -0.0267 -0.4657
 2296SOL    HW2 8950   0.846   2.421   4.868 -1.0009 -0.4010 -0.5540
 2296SOL    HW3 8951   0.774   2.345   4.977 -0.1912 -0.0188  0.2602
 2296SOL    MW4 8952   0.806   2.420   4.945 -0.6905 -0.0751 -0.3816
 2297SOL     OW 8953   2.627   3.876   5.641 -0.3384  0.4683 -0.0332
 2297SOL    HW2 8954   2.659   3.822   5.714  0.4766  0.3521 -0.4604
 2297SOL    HW3 8955   2.705   3.924   5.612 -0.7172  0.7044 -0.6583
 2297SOL    MW4 8956   2.642   3.875   5.647 -0.2809  0.4841 -0.1721
 2298SOL     OW 8957   1.249   3.177   0.914 -0.1516  0.5191 -0.7008
 2298SOL    HW2 8958   1.260   3.099   0.969  1.8809  0.0746 -1.6551
 2298SOL    HW3 8959   1.160   3.208   0.934 -0.2702 -0.8706  1.1787
 2298SOL    MW4 8960   1.238   3.170   0.924  0.1009  0.2771 -0.5787
 2299SOL     OW 8961   5.816   5.519   4.840 -0.3127 -0.1489 -0.0152
 2299SOL    HW2 8962   5.832   5.590   4.778 -2.4811 -0.2567 -0.8079
 2299SOL    HW3 8963   5.767   5.560   4.911 -1.0524 -0.7118 -0.1850
 2299SOL    MW4 8964   5.811   5.534   4.841 -0.6964 -0.2374 -0.1422
 2300SOL     OW 8965   4.459   4.901   2.675  0.2398 -0.0951 -0.3883
 2300SOL    HW2 8966   4.494   4.896   2.764 -0.0128  0.9434 -0.2189
 2300SOL    HW3 8967   4.383   4.958   2.682 -0.0451 -0.3619 -1.1968
 2300SOL    MW4 8968   4.454   4.908   2.687  0.1689  0.0067 -0.4726
 2301SOL     OW 8969   1.805   2.942   5.427 -0.3551  0.2264  0.1976
 2301SOL    HW2 8970   1.774   2.980   5.345  1.0752  0.0472 -0.4601
 2301SOL    HW3 8971   1.899   2.960   5.428 -0.3774  0.4975  1.9570
 2301SOL    MW4 8972   1.813   2.950   5.417 -0.1693  0.2385  0.3429
 2302SOL     OW 8973   5.975   0.077   0.171  0.1096  0.3220 -0.0879
 2302SOL    HW2 8974   5.920   0.000   0.159  0.4405 -0.0528  0.6959
 2302SOL    HW3 8975   5.914   0.147   0.195 -0.0892  0.0448  0.2272
 2302SOL    MW4 8976   5.960   0.076   0.172  0.1270  0.2360  0.0571
 2303SOL     OW 8977   1.528   5.815   5.145 -0.0369  0.1944  0.0601
 2303SOL    HW2 8978   1.521   5.724   5.176 -0.0748 -0.0242 -0.5788
 2303SOL    HW3 8979   1.523   5.867   5.225  3.6544 -0.4727  0.9354
 2303SOL    MW4 8980   1.527   5.810   5.160  0.4451  0.0776  0.0913
 2304SOL     OW 8981   1.135   5.298   0.550 -0.2775  0.0956  0.6193
 2304SOL    HW2 8982   1.061   5.346   0.588 -0.3539  1.6043 -1.3069
 2304SOL    HW3 8983   1.213   5.339   0.587 -0.3630  0.5725  0.2668
 2304SOL    MW4 8984   1.135   5.310   0.560 -0.2988  0.3575  0.3186
 2305SOL     OW 8985   2.155   3.715   2.990  0.4653 -0.4871 -0.5079
 2305SOL    HW2 8986   2.077   3.659   2.990  0.3228 -0.2934 -0.7385
 2305SOL    HW3 8987   2.175   3.728   2.898 -0.5975  1.3271 -0.5229
 2305SOL    MW4 8988   2.147   3.709   2.978  0.3063 -0.2222 -0.5403
 2306SOL     OW 8989   3.848   3.494   5.820 -0.1039 -0.4342 -0.3524
 2306SOL    HW2 8990   3.848   3.494   5.725 -0.8314 -2.3914 -0.4056
 2306SOL    HW3 8991   3.780   3.431   5.844 -1.3084  1.4534  1.5044
 2306SOL    MW4 8992   3.839   3.486   5.811 -0.3588 -0.4434 -0.1144
 2307SOL     OW 8993   1.630   1.026   3.258 -0.6755  0.2543 -0.1991
 2307SOL    HW2 8994   1.597   0.960   3.198  1.3826 -0.1621 -0.9630
 2307SOL    HW3 8995   1.725   1.022   3.248 -0.3966  1.9166  1.2588
 2307SOL    MW4 8996   1.638   1.017   3.249 -0.3671  0.4186 -0.1075
 2308SOL     OW 8997   1.300   0.912   5.566 -0.1832  0.5330  0.1453
 2308SOL    HW2 8998   1.220   0.894   5.517  0.3549 -0.9332 -0.2516
 2308SOL    HW3 8999   1.328   0.998   5.536 -0.7752  0.3879 -0.8640
 2308SOL    MW4 9000   1.293   0.921   5.556 -0.1903  0.3204 -0.0402
 2309SOL     OW 9001   3.508   3.535   2.847 -0.4986  0.0761  0.1942
 2309SOL    HW2 9002   3.519   3.606   2.783 -0.2015 -0.0179  0.1371
 2309SOL    HW3 9003   3.414   3.530   2.862 -0.8462 -1.3688 -1.9480
 2309SOL    MW4 9004   3.497   3.543   2.840 -0.5053 -0.1269 -0.0960
 2310SOL     OW 9005   3.348   0.229   4.983  0.4673  0.0810  0.7223
 2310SOL    HW2 9006   3.285   0.216   4.912  0.1191 -1.1950  1.2444
 2310SOL    HW3 9007   3.300   0.207   5.063  0.3880  2.9608  1.5652
 2310SOL    MW4 9008   3.334   0.224   4.984  0.4109  0.2926  0.9024
 2311SOL     OW 9009   2.296   4.742   0.231 -0.2987  0.1570  0.2105
 2311SOL    HW2 9010   2.207   4.710   0.244 -0.7858  1.2131 -0.3512
 2311SOL    HW3 9011   2.289   4.837   0.243  1.0714  0.1054  1.8048
 2311SOL    MW4 9012   2.284   4.751   0.235 -0.1822  0.2895  0.3468
 2312SOL     OW 9013   2.947   0.217   5.895  0.3065 -0.0155  0.1677
 2312SOL    HW2 9014   2.929   0.311   5.888  1.3130  0.2445  0.8704
 2312SOL    HW3 9015   2.927   0.196   5.986 -0.6337 -0.6574 -0.1762
 2312SOL    MW4 9016   2.942   0.227   5.906  0.3153 -0.0659  0.2150
 2313SOL     OW 9017   1.707   3.448   6.168  0.1370  0.4833  0.6412
 2313SOL    HW2 9018   1.747   3.461   6.082 -2.2317 -0.8723 -0.7709
 2313SOL    HW3 9019   1.653   3.526   6.182 -1.5101 -0.4444 -0.3548
 2313SOL    MW4 9020   1.705   3.460   6.159 -0.3929  0.1821  0.3235
 2314SOL     OW 9021   1.346   6.088   2.601 -0.3413  0.0364 -0.0929
 2314SOL    HW2 9022   1.303   6.009   2.635 -0.3937  0.3949  0.6833
 2314SOL    HW3 9023   1.363   6.067   2.509  1.2522 -1.5682  0.5125
 2314SOL    MW4 9024   1.343   6.074   2.593 -0.1380 -0.1280  0.0894
 2315SOL     OW 9025   3.346   2.321   5.524  0.1063  0.0235 -0.4980
 2315SOL    HW2 9026   3.292   2.345   5.599  1.7614 -1.7869  1.4116
 2315SOL    HW3 9027   3.286   2.323   5.450 -2.3206 -0.8096  1.2937
 2315SOL    MW4 9028   3.331   2.324   5.524  0.0045 -0.3253 -0.0097
 2316SOL     OW 9029   0.837   1.195   3.811 -0.1139 -0.0288 -0.3370
 2316SOL    HW2 9030   0.829   1.227   3.721  1.2277  0.1403 -0.4184
 2316SOL    HW3 9031   0.928   1.166   3.818 -0.6541 -1.6561  0.4557
 2316SOL    MW4 9032   0.848   1.196   3.800 -0.0082 -0.2212 -0.2431
 2317SOL     OW 9033   1.600   2.656   0.165  0.1483 -0.5298  0.3508
 2317SOL    HW2 9034   1.669   2.678   0.102  2.4551 -1.2575  2.4751
 2317SOL    HW3 9035   1.590   2.734   0.219 -0.5500 -0.5086  0.1989
 2317SOL    MW4 9036   1.608   2.669   0.164  0.3605 -0.6230  0.6111
 2318SOL     OW 9037   3.911   0.659   2.789 -0.0642  0.2471  0.1952
 2318SOL    HW2 9038   3.970   0.730   2.763 -0.3499  0.8314  1.0950
 2318SOL    HW3 9039   3.941   0.583   2.739  0.4522  0.9179 -0.5397
 2318SOL    MW4 9040   3.922   0.658   2.779 -0.0337  0.4127  0.2169
 2319SOL     OW 9041   5.148   4.349   1.307 -0.3048  0.1751  0.0025
 2319SOL    HW2 9042   5.240   4.339   1.332 -0.3844 -1.3512 -0.2547
 2319SOL    HW3 9043   5.145   4.319   1.216 -1.0273  0.3903 -0.0475
 2319SOL    MW4 9044   5.160   4.344   1.298 -0.4106  0.0021 -0.0380
 2320SOL     OW 9045   1.829   4.666   6.129 -0.3744 -0.6266  0.1521
 2320SOL    HW2 9046   1.865   4.635   6.046 -1.7657 -1.1916 -0.2690
 2320SOL    HW3 9047   1.863   4.604   6.194  0.3449 -0.4568 -0.0445
 2320SOL    MW4 9048   1.838   4.654   6.126 -0.4631 -0.6787  0.0706
 2321SOL     OW 9049   5.059   2.699   0.398  0.1434  0.7245 -0.4691
 2321SOL    HW2 9050   4.980   2.652   0.373  0.4535 -0.4572  0.6556
 2321SOL    HW3 9051   5.027   2.772   0.451 -0.2346  0.7838 -0.7696
 2321SOL    MW4 9052   5.045   2.703   0.402  0.1344  0.5764 -0.3604
 2322SOL     OW 9053   4.029   0.571   5.830  0.2923 -0.6703  0.0872
 2322SOL    HW2 9054   3.972   0.595   5.757  0.2407  0.9836  0.6377
 2322SOL    HW3 9055   4.057   0.481   5.810  0.6197 -0.1239 -2.1717
 2322SOL    MW4 9056   4.025   0.562   5.817  0.3287 -0.3800 -0.1382
 2323SOL     OW 9057   1.646   4.911   6.364 -0.4901 -0.2359  0.0918
 2323SOL    HW2 9058   1.604   4.936   6.282  0.5353 -0.3001 -0.4655
 2323SOL    HW3 9059   1.617   4.977   6.427  0.9286  1.4785 -0.9810
 2323SOL    MW4 9060   1.636   4.923   6.362 -0.1676 -0.0181 -0.1233
 2324SOL     OW 9061   5.976   0.453   3.406  0.5835 -0.3493 -0.6101
 2324SOL    HW2 9062   5.906   0.463   3.342  0.0899 -0.1185 -0.0476
 2324SOL    HW3 9063   6.046   0.510   3.374  0.5647 -0.6774 -1.2432
 2324SOL    MW4 9064   5.976   0.462   3.394  0.5159 -0.3621 -0.6194
 2325SOL     OW 9065   0.930   0.902   2.159 -0.1120  0.0509 -0.3995
 2325SOL    HW2 9066   0.848   0.942   2.130 -1.3881  0.0446  2.7905
 2325SOL    HW3 9067   0.926   0.812   2.125  0.1225  0.9007 -2.8598
 2325SOL    MW4 9068   0.918   0.895   2.151 -0.2494  0.1622 -0.3032
 2326SOL     OW 9069   1.987   1.873   4.541 -0.5981 -0.1566 -0.5946
 2326SOL    HW2 9070   1.964   1.935   4.611  0.9602  0.4146 -0.5588
 2326SOL    HW3 9071   2.077   1.895   4.518 -0.5221 -1.4468 -1.6339
 2326SOL    MW4 9072   1.996   1.884   4.547 -0.3825 -0.2515 -0.7270
 2327SOL     OW 9073   5.573   4.049   4.624  0.5640  0.4277  0.4940
 2327SOL    HW2 9074   5.637   4.063   4.554 -1.0325  0.9964 -0.8943
 2327SOL    HW3 9075   5.538   4.135   4.643 -1.6966 -0.1577 -0.6747
 2327SOL    MW4 9076   5.577   4.062   4.618  0.0551  0.4255  0.1566
 2328SOL     OW 9077   0.498   0.418   3.449  0.3462 -0.1140 -0.2388
 2328SOL    HW2 9078   0.579   0.412   3.399 -0.6933 -2.2589 -1.8431
 2328SOL    HW3 9079   0.440   0.472   3.396  0.2727  0.2732  0.2297
 2328SOL    MW4 9080   0.501   0.424   3.436  0.1993 -0.3459 -0.3886
 2329SOL     OW 9081   3.886   3.879   3.353 -0.0190  0.6007  0.5612
 2329SOL    HW2 9082   3.827   3.804   3.348  0.6353  0.1424 -0.5256
 2329SOL    HW3 9083   3.829   3.955   3.346 -0.4246  0.1498 -1.3993
 2329SOL    MW4 9084   3.871   3.879   3.352  0.0138  0.4808  0.1592
 2330SOL     OW 9085   3.009   2.945   3.582  0.6130 -0.3787 -0.3877
 2330SOL    HW2 9086   3.049   2.863   3.552 -0.7551 -0.7746 -1.1674
 2330SOL    HW3 9087   2.919   2.922   3.603  0.6538  0.5898  0.9840
 2330SOL    MW4 9088   3.003   2.931   3.581  0.4379 -0.3032 -0.3096
 2331SOL     OW 9089   0.762   2.570   5.198 -0.1828  0.0311  0.4728
 2331SOL    HW2 9090   0.789   2.523   5.119  1.0051  0.9359  0.2922
 2331SOL    HW3 9091   0.819   2.648   5.199 -1.2817  0.8572  1.3601
 2331SOL    MW4 9092   0.773   2.574   5.188 -0.1711  0.2595  0.5661
 2332SOL     OW 9093   1.680   0.474   1.899  0.5757  0.0398  0.3250
 2332SOL    HW2 9094   1.594   0.491   1.859 -0.8811 -2.7956  1.9160
 2332SOL    HW3 9095   1.697   0.551   1.953 -0.3528  1.1958 -0.9672
 2332SOL    MW4 9096   1.671   0.487   1.901  0.2610 -0.1818  0.3645
 2333SOL     OW 9097   6.022   1.307   2.884  0.4839  0.1359  0.0479
 2333SOL    HW2 9098   6.027   1.213   2.902  1.0754 -0.0252 -0.8832
 2333SOL    HW3 9099   5.929   1.325   2.876  0.2862 -0.1243  1.3918
 2333SOL    MW4 9100   6.011   1.297   2.886  0.5359  0.0803  0.1024
 2334SOL     OW 9101   2.724   0.378   0.849  0.0123 -0.2965  0.3689
 2334SOL    HW2 9102   2.777   0.364   0.770 -0.9341 -2.1063  0.0129
 2334SOL    HW3 9103   2.709   0.472   0.850 -2.7343 -0.4495 -3.5170
 2334SOL    MW4 9104   2.729   0.388   0.839 -0.4750 -0.5555 -0.1908
 2335SOL     OW 9105   2.573   4.049   1.996  0.6306  0.1481 -0.2848
 2335SOL    HW2 9106   2.535   3.969   1.960  2.2119 -0.2265 -1.1714
 2335SOL    HW3 9107   2.625   4.020   2.071  0.2282  0.5045  0.1423
 2335SOL    MW4 9108   2.575   4.035   2.001  0.7861  0.1457 -0.3454
 2336SOL     OW 9109   2.745   5.144   5.611  0.2346  1.8534 -0.0945
 2336SOL    HW2 9110   2.785   5.194   5.539 -0.6162  0.7901 -1.3586
 2336SOL    HW3 9111   2.775   5.054   5.597  0.8980  1.7877  1.5336
 2336SOL    MW4 9112   2.754   5.139   5.600  0.2099  1.7045 -0.0465
 2337SOL     OW 9113   5.943   1.662   1.610  0.8959 -0.1613  0.1596
 2337SOL    HW2 9114   5.998   1.587   1.633  1.3802  0.3673  0.7902
 2337SOL    HW3 9115   5.973   1.732   1.668  1.5112  0.9760 -1.4797
 2337SOL    MW4 9116   5.954   1.661   1.621  1.0410  0.0585  0.0265
 2338SOL     OW 9117   2.417   2.723   5.194 -0.8643 -0.1751 -0.1144
 2338SOL    HW2 9118   2.366   2.645   5.217 -1.3874  0.7577  2.1367
 2338SOL    HW3 9119   2.488   2.726   5.259 -0.3494  0.7791 -0.6884
 2338SOL    MW4 9120   2.420   2.713   5.205 -0.8654  0.0739  0.1069
 2339SOL     OW 9121   3.791   6.209   5.144  0.2906  0.3747 -0.2158
 2339SOL    HW2 9122   3.707   6.163   5.139  0.3490  0.3789 -1.9371
 2339SOL    HW3 9123   3.784   6.280   5.080  0.6076  2.1351  1.6219
 2339SOL    MW4 9124   3.779   6.212   5.135  0.3401  0.6075 -0.2005
 2340SOL     OW 9125   1.283   2.183   4.798 -0.2177  0.2176 -0.0738
 2340SOL    HW2 9126   1.223   2.116   4.831  1.1782 -1.0619  0.0195
 2340SOL    HW3 9127   1.243   2.214   4.717 -0.0597 -2.1198 -1.1342
 2340SOL    MW4 9128   1.270   2.178   4.791 -0.0127 -0.2596 -0.2014
 2341SOL     OW 9129   2.089   5.966   1.507  0.2074  0.9696  0.4274
 2341SOL    HW2 9130   2.123   5.891   1.457  0.6389  0.8880  0.8407
 2341SOL    HW3 9131   2.008   5.933   1.546  0.3554  0.7341  0.5460
 2341SOL    MW4 9132   2.083   5.951   1.505  0.2839  0.9278  0.4976
 2342SOL     OW 9133   1.953   5.175   4.739  0.1068  0.3810 -0.4134
 2342SOL    HW2 9134   1.869   5.174   4.692  0.8286  1.1411 -1.7787
 2342SOL    HW3 9135   2.017   5.145   4.674  0.7669 -1.4431  0.9667
 2342SOL    MW4 9136   1.950   5.171   4.724  0.2892  0.2406 -0.4115
 2343SOL     OW 9137   5.583   0.979   3.146 -0.1169  0.0870  0.1655
 2343SOL    HW2 9138   5.516   0.914   3.126 -0.2569  0.4575 -0.6172
 2343SOL    HW3 9139   5.535   1.062   3.147 -0.2273  0.0418  2.6735
 2343SOL    MW4 9140   5.567   0.982   3.143 -0.1500  0.1300  0.3931
 2344SOL     OW 9141   5.068   4.585   0.572  1.0783  0.0871 -0.7579
 2344SOL    HW2 9142   4.999   4.647   0.595 -0.0469 -0.6155 -2.0566
 2344SOL    HW3 9143   5.102   4.554   0.655  1.5057  2.2242 -0.0628
 2344SOL    MW4 9144   5.064   4.589   0.586  0.9862  0.2763 -0.8375
 2345SOL     OW 9145   0.045   2.422   2.057 -0.2073  0.3001 -0.2261
 2345SOL    HW2 9146  -0.022   2.430   1.989 -1.2936 -1.0774  0.6234
 2345SOL    HW3 9147   0.003   2.456   2.136  0.0107 -0.7781  0.3641
 2345SOL    MW4 9148   0.031   2.428   2.059 -0.3218 -0.0239 -0.0362
 2346SOL     OW 9149   4.621   2.298   5.693  0.2097 -0.2077 -0.2398
 2346SOL    HW2 9150   4.679   2.316   5.619  0.0175  0.9839 -0.1240
 2346SOL    HW3 9151   4.680   2.268   5.763  0.3705 -1.5473 -0.9032
 2346SOL    MW4 9152   4.637   2.296   5.693  0.2056 -0.2272 -0.3120
 2347SOL     OW 9153   1.554   0.142   5.121 -0.5618  0.3844 -0.1982
 2347SOL    HW2 9154   1.562   0.067   5.179  1.6902  0.9599  0.3529
 2347SOL    HW3 9155   1.608   0.210   5.162  2.1285  0.4729 -3.3958
 2347SOL    MW4 9156   1.563   0.141   5.134  0.0903  0.4720 -0.5473
 2348SOL     OW 9157   2.099   4.794   6.209 -0.3743  0.3578  0.1087
 2348SOL    HW2 9158   2.030   4.772   6.147 -0.4586 -0.3834  0.4533
 2348SOL    HW3 9159   2.055   4.801   6.293 -0.0488 -0.0858  0.3240
 2348SOL    MW4 9160   2.084   4.792   6.212 -0.3425  0.2015  0.1825
 2349SOL     OW 9161   1.967   1.551   1.090  0.4874  0.0686  0.2233
 2349SOL    HW2 9162   2.048   1.512   1.122  0.8044  1.0322  0.6134
 2349SOL    HW3 9163   1.995   1.623   1.034 -0.0955 -0.1202 -0.3177
 2349SOL    MW4 9164   1.981   1.555   1.087  0.4523  0.1708  0.2034
 2350SOL     OW 9165   1.602   4.915   1.045 -0.2018 -0.4219 -0.3590
 2350SOL    HW2 9166   1.678   4.901   1.101 -0.0964 -2.7816 -1.0035
 2350SOL    HW3 9167   1.534   4.858   1.082 -2.8743  3.8309  2.1099
 2350SOL    MW4 9168   1.603   4.906   1.057 -0.5405 -0.1722 -0.1183
 2351SOL     OW 9169   5.920   3.330   5.547  0.1244 -0.0256 -0.1628
 2351SOL    HW2 9170   5.884   3.255   5.500  0.3097  1.2005 -2.4038
 2351SOL    HW3 9171   6.013   3.311   5.557  0.2077 -0.0248 -0.8988
 2351SOL    MW4 9172   5.927   3.318   5.543  0.1599  0.1363 -0.5556
 2352SOL     OW 9173   4.892   4.422   5.729 -0.1351 -0.5014 -0.1740
 2352SOL    HW2 9174   4.956   4.394   5.795  1.7276  1.2456 -1.1232
 2352SOL    HW3 9175   4.913   4.514   5.713 -1.9843 -0.2789 -1.6029
 2352SOL    MW4 9176   4.903   4.430   5.736 -0.1333 -0.2416 -0.4878
 2353SOL     OW 9177   0.932   6.354   0.708  0.4752 -0.1635 -0.3130
 2353SOL    HW2 9178   1.004   6.305   0.667  0.3884 -0.5418 -0.0165
 2353SOL    HW3 9179   0.949   6.445   0.683  0.8440 -0.2950 -0.5645
 2353SOL    MW4 9180   0.944   6.359   0.699  0.5124 -0.2308 -0.3071
 2354SOL     OW 9181   1.248   4.570   0.210  0.1746 -0.3224 -0.0378
 2354SOL    HW2 9182   1.274   4.659   0.235 -1.2105  0.6438 -1.7547
 2354SOL    HW3 9183   1.246   4.522   0.293  2.2011  0.8799  0.7787
 2354SOL    MW4 9184   1.251   4.576   0.224  0.2593 -0.0363 -0.1566
 2355SOL     OW 9185   2.764   5.678   0.953  0.1462  0.6651  0.2635
 2355SOL    HW2 9186   2.858   5.658   0.952  0.4161  1.4234  2.7779
 2355SOL    HW3 9187   2.741   5.689   0.861  2.4974  0.3510 -0.4370
 2355SOL    MW4 9188   2.773   5.677   0.941  0.4921  0.7237  0.5028
 2356SOL     OW 9189   5.117   2.892   3.788 -0.2065 -0.2718  0.6794
 2356SOL    HW2 9190   5.146   2.820   3.732 -0.4852 -1.5797  2.1473
 2356SOL    HW3 9191   5.040   2.858   3.833 -1.6585  1.7375 -0.1838
 2356SOL    MW4 9192   5.111   2.878   3.787 -0.4348 -0.1792  0.7592
 2357SOL     OW 9193   3.879   5.949   5.471  0.1774 -0.0614  0.0953
 2357SOL    HW2 9194   3.785   5.935   5.477 -0.0820  0.9932 -1.0905
 2357SOL    HW3 9195   3.905   5.978   5.558 -1.1675  2.5823 -0.2810
 2357SOL    MW4 9196   3.870   5.951   5.483 -0.0342  0.4266 -0.1108
 2358SOL     OW 9197   3.762   2.389   3.081 -0.2154 -0.3746 -0.3215
 2358SOL    HW2 9198   3.810   2.398   3.163 -1.0873  1.0157  0.0777
 2358SOL    HW3 9199   3.714   2.306   3.090  1.3672 -1.3447 -0.3748
 2358SOL    MW4 9200   3.762   2.379   3.093 -0.1217 -0.3192 -0.2759
 2359SOL     OW 9201   5.207   1.096   5.164  0.0174  0.0892 -0.3553
 2359SOL    HW2 9202   5.204   1.001   5.172  2.1450 -0.0019 -0.1710
 2359SOL    HW3 9203   5.293   1.115   5.126 -0.0511  1.9648  0.2959
 2359SOL    MW4 9204   5.218   1.086   5.160  0.2891  0.3246 -0.2451
 2360SOL     OW 9205   5.511   5.573   5.981 -0.3744 -0.4562 -0.4008
 2360SOL    HW2 9206   5.489   5.654   5.935 -2.2745 -1.1496 -0.8319
 2360SOL    HW3 9207   5.531   5.600   6.071  0.4949  0.6184 -0.9006
 2360SOL    MW4 9208   5.511   5.587   5.987 -0.5104 -0.4059 -0.5236
 2361SOL     OW 9209   1.762   5.513   4.796 -0.4346  0.0595  0.0342
 2361SOL    HW2 9210   1.836   5.462   4.829  1.0191  2.2507  0.3855
 2361SOL    HW3 9211   1.685   5.475   4.839  0.7292 -0.9623  1.2961
 2361SOL    MW4 9212   1.762   5.501   4.806 -0.0892  0.2138  0.2470
 2362SOL     OW 9213   2.178   4.619   5.051 -0.0527 -0.1635 -0.5521
 2362SOL    HW2 9214   2.158   4.532   5.015  1.0005  0.1011 -1.8498
 2362SOL    HW3 9215   2.111   4.633   5.119  1.2122 -3.0034  1.4585
 2362SOL    MW4 9216   2.166   4.609   5.055  0.2532 -0.5033 -0.4580
 2363SOL     OW 9217   2.547   0.432   0.453  0.8670 -0.1567  0.2459
 2363SOL    HW2 9218   2.536   0.474   0.368 -1.7577  0.6451  0.9026
 2363SOL    HW3 9219   2.612   0.486   0.498  0.3778  0.9384 -0.3316
 2363SOL    MW4 9220   2.554   0.445   0.448  0.4561  0.0936  0.2564
 2364SOL     OW 9221   5.529   3.278   2.453  0.4368  0.9747 -0.0081
 2364SOL    HW2 9222   5.480   3.240   2.380 -0.5028  0.9530  0.6132
 2364SOL    HW3 9223   5.595   3.213   2.475 -0.5520  0.0940  0.4316
 2364SOL    MW4 9224   5.531   3.265   2.446  0.1824  0.8556  0.1319
 2365SOL     OW 9225   2.078   4.647   3.895  0.2834 -0.1593  0.1232
 2365SOL    HW2 9226   1.983   4.638   3.906  0.4369 -0.9000  0.8652
 2365SOL    HW3 9227   2.089   4.658   3.800 -0.4125 -1.8505 -0.1958
 2365SOL    MW4 9228   2.067   4.647   3.884  0.2119 -0.4802  0.1790
 2366SOL     OW 9229   5.479   5.907   3.352 -0.0210 -0.4638  0.2797
 2366SOL    HW2 9230   5.574   5.923   3.356  0.4632 -3.1072  1.7379
 2366SOL    HW3 9231   5.466   5.864   3.267  0.5847 -2.3892  1.1054
 2366SOL    MW4 9232   5.490   5.904   3.341  0.1228 -1.0666  0.5810
 2367SOL     OW 9233   5.390   3.922   5.833 -0.3284  0.4852 -0.1355
 2367SOL    HW2 9234   5.343   3.999   5.800 -0.5902  0.3924  0.0213
 2367SOL    HW3 9235   5.343   3.897   5.912 -0.2932  0.1141 -0.2314
 2367SOL    MW4 9236   5.378   3.929   5.839 -0.3583  0.4240 -0.1275
 2368SOL     OW 9237   3.433   3.167   2.875 -0.0182  0.6825 -0.3515
 2368SOL    HW2 9238   3.391   3.201   2.796  0.7325  0.9313 -0.6601
 2368SOL    HW3 9239   3.513   3.124   2.842  0.1517  0.5360  0.2441
 2368SOL    MW4 9240   3.438   3.166   2.860  0.1033  0.6960 -0.3136
 2369SOL     OW 9241   1.353   5.944   6.109 -0.2406  0.5356 -0.3309
 2369SOL    HW2 9242   1.355   5.896   6.191  0.9086 -0.9225 -1.1626
 2369SOL    HW3 9243   1.260   5.948   6.086 -0.3644 -2.0678 -0.6002
 2369SOL    MW4 9244   1.341   5.938   6.117 -0.1053 -0.0003 -0.4761
 2370SOL     OW 9245   0.511   2.911   0.229 -0.5450 -0.0831 -0.6046
 2370SOL    HW2 9246   0.462   2.905   0.311  0.4247  1.4711  0.1376
 2370SOL    HW3 9247   0.564   2.831   0.227  0.1733  0.3296  0.8063
 2370SOL    MW4 9248   0.512   2.900   0.239 -0.3223  0.1764 -0.3205
 2371SOL     OW 9249   3.979   4.100   2.809  0.0839  0.2516  0.4742
 2371SOL    HW2 9250   3.932   4.172   2.852  0.6189  0.7268  0.2792
 2371SOL    HW3 9251   3.949   4.021   2.854  0.7632  0.7489  1.8565
 2371SOL    MW4 9252   3.969   4.099   2.821  0.2441  0.3799  0.6309
 2372SOL     OW 9253   6.298   3.862   5.212 -0.6483  0.2217 -0.2487
 2372SOL    HW2 9254   6.352   3.874   5.290 -2.4631  1.0812  0.9646
 2372SOL    HW3 9255   6.312   3.771   5.187  1.7223  0.5417 -0.3443
 2372SOL    MW4 9256   6.307   3.852   5.219 -0.5750  0.3773 -0.1012
 2373SOL     OW 9257   5.154   4.761   3.631  0.1158 -0.2855  0.1192
 2373SOL    HW2 9258   5.245   4.757   3.602 -0.1370 -0.4736 -0.6624
 2373SOL    HW3 9259   5.126   4.670   3.637 -0.2251 -0.2087 -0.3029
 2373SOL    MW4 9260   5.163   4.749   3.628  0.0375 -0.3002 -0.0396
 2374SOL     OW 9261   5.025   1.035   2.527  0.5566 -0.3527 -0.2026
 2374SOL    HW2 9262   5.019   1.123   2.490 -1.2548  0.9995  2.9483
 2374SOL    HW3 9263   4.952   0.987   2.488 -1.6355  1.1955  1.7585
 2374SOL    MW4 9264   5.015   1.040   2.517  0.0284  0.0300  0.4719
 2375SOL     OW 9265   4.179   5.860   4.894  0.1584  0.0995 -0.2361
 2375SOL    HW2 9266   4.234   5.938   4.902  0.8930 -0.5020  0.7685
 2375SOL    HW3 9267   4.214   5.799   4.959  0.3903 -1.5456 -1.8244
 2375SOL    MW4 9268   4.191   5.862   4.903  0.2859 -0.1969 -0.3131
 2376SOL     OW 9269   3.966   6.037   1.281  0.0899  0.2311  0.2099
 2376SOL    HW2 9270   4.031   6.092   1.324 -0.3186  2.8152 -2.1780
 2376SOL    HW3 9271   4.017   5.968   1.239  0.9343  0.3234  1.0490
 2376SOL    MW4 9272   3.981   6.035   1.281  0.1474  0.5842  0.0055
 2377SOL     OW 9273   4.324   4.917   5.063  0.6692 -0.9608 -0.1169
 2377SOL    HW2 9274   4.298   4.828   5.039 -0.9266 -0.6409  0.3172
 2377SOL    HW3 9275   4.252   4.973   5.032  1.6676  0.2075 -0.4420
 2377SOL    MW4 9276   4.311   4.913   5.055  0.5904 -0.7645 -0.1025
 2378SOL     OW 9277   2.713   3.410   6.171 -0.2236 -0.0699  0.4651
 2378SOL    HW2 9278   2.660   3.397   6.250  1.2617 -1.0824  1.3342
 2378SOL    HW3 9279   2.682   3.494   6.135 -1.9774 -0.3376  1.2522
 2378SOL    MW4 9280   2.702   3.419   6.177 -0.2590 -0.2388  0.6836
 2379SOL     OW 9281   0.652   4.661   5.470 -0.0802 -0.2865  0.4839
 2379SOL    HW2 9282   0.740   4.628   5.454  0.7444  2.2269 -0.7675
 2379SOL    HW3 9283   0.649   4.680   5.563  1.1926  0.7426  0.3449
 2379SOL    MW4 9284   0.663   4.659   5.480  0.1965  0.1809  0.3005
 2380SOL     OW 9285   2.396   5.127   5.319 -0.0488  0.3611 -0.0469
 2380SOL    HW2 9286   2.301   5.136   5.323  0.0122  0.7547  0.7120
 2380SOL    HW3 9287   2.418   5.068   5.391  0.0906 -1.5434 -1.5677
 2380SOL    MW4 9288   2.386   5.120   5.329 -0.0224  0.1618 -0.1474
 2381SOL     OW 9289   1.976   0.429   1.360 -0.0103  0.1115 -0.2102
 2381SOL    HW2 9290   1.917   0.486   1.409  0.3258  1.0763 -0.8961
 2381SOL    HW3 9291   1.921   0.387   1.294 -0.2612 -0.3772  0.3051
 2381SOL    MW4 9292   1.961   0.431   1.358  0.0010  0.1743 -0.2327
 2382SOL     OW 9293   1.435   5.756   0.409 -0.6084  0.4673  0.3515
 2382SOL    HW2 9294   1.511   5.706   0.379 -0.7045  0.5588 -0.0499
 2382SOL    HW3 9295   1.393   5.699   0.474 -0.5312  0.1636  0.1396
 2382SOL    MW4 9296   1.440   5.742   0.414 -0.6109  0.4393  0.2706
 2383SOL     OW 9297   5.659   1.722   5.051  0.9667 -0.1719 -0.0805
 2383SOL    HW2 9298   5.638   1.659   5.120 -0.5559 -1.7870 -1.8767
 2383SOL    HW3 9299   5.573   1.748   5.016  1.6924  0.3184 -1.5730
 2383SOL    MW4 9300   5.645   1.717   5.055  0.8615 -0.3203 -0.5144
 2384SOL     OW 9301   5.261   1.122   1.268 -0.3691  0.2273 -1.2251
 2384SOL    HW2 9302   5.269   1.028   1.282 -0.4604  0.5743  1.8667
 2384SOL    HW3 9303   5.169   1.142   1.286 -0.1087  1.0387 -0.7360
 2384SOL    MW4 9304   5.250   1.112   1.272 -0.3468  0.3801 -0.7527
 2385SOL     OW 9305   2.374   4.536   4.866  0.4699  0.4883  0.2541
 2385SOL    HW2 9306   2.328   4.543   4.782 -1.2075 -3.5284  0.5855
 2385SOL    HW3 9307   2.316   4.578   4.928 -1.1946 -1.4140  0.1083
 2385SOL    MW4 9308   2.360   4.542   4.863  0.0290 -0.2926  0.2786
 2386SOL     OW 9309   3.501   4.379   2.735  0.3272  0.8416  0.0786
 2386SOL    HW2 9310   3.481   4.392   2.642  0.8402 -1.8514 -0.5072
 2386SOL    HW3 9311   3.417   4.353   2.774  0.2795  1.1582  0.1856
 2386SOL    MW4 9312   3.487   4.377   2.728  0.3886  0.5281  0.0154
 2387SOL     OW 9313   1.036   2.812   6.262 -0.5186  0.0748 -0.5343
 2387SOL    HW2 9314   0.968   2.871   6.229 -0.6932 -0.7031 -1.6047
 2387SOL    HW3 9315   0.993   2.727   6.268  0.1074 -0.2264 -0.3102
 2387SOL    MW4 9316   1.021   2.809   6.258 -0.4591 -0.0676 -0.6460
 2388SOL     OW 9317   0.329   2.387   0.700  0.2068 -0.7619  0.0525
 2388SOL    HW2 9318   0.378   2.371   0.619  1.2312 -0.6058  0.6285
 2388SOL    HW3 9319   0.385   2.354   0.769 -0.5557 -0.6693  0.7276
 2388SOL    MW4 9320   0.342   2.381   0.698  0.2414 -0.7291  0.2176
 2389SOL     OW 9321   5.498   4.299   4.689  0.6738 -0.4883  0.8901
 2389SOL    HW2 9322   5.477   4.352   4.766  0.6132 -0.2733  0.7275
 2389SOL    HW3 9323   5.498   4.362   4.617  0.3835 -0.7459  0.6609
 2389SOL    MW4 9324   5.495   4.314   4.690  0.6275 -0.4939  0.8384
 2390SOL     OW 9325   1.244   3.377   4.139 -0.4791  0.3142 -0.5043
 2390SOL    HW2 9326   1.183   3.389   4.212 -0.9867 -0.3773 -0.8127
 2390SOL    HW3 9327   1.225   3.290   4.105  0.8024  0.0091 -0.5020
 2390SOL    MW4 9328   1.233   3.367   4.144 -0.3770  0.1827 -0.5447
 2391SOL     OW 9329   2.897   0.649   1.264  0.1336  0.3879  0.7469
 2391SOL    HW2 9330   2.838   0.697   1.323  0.3398  0.7882  0.6276
 2391SOL    HW3 9331   2.838   0.599   1.207 -0.1274  1.6209 -0.0928
 2391SOL    MW4 9332   2.881   0.649   1.265  0.1264  0.6034  0.6204
 2392SOL     OW 9333   4.251   1.505   4.070  0.1075 -0.0418  0.7490
 2392SOL    HW2 9334   4.271   1.431   4.127 -0.3935 -0.5712  0.2427
 2392SOL    HW3 9335   4.162   1.488   4.039  0.3568  0.2693 -0.1516
 2392SOL    MW4 9336   4.242   1.493   4.073  0.0743 -0.0706  0.5633
 2393SOL     OW 9337   3.624   5.537   4.177 -0.0519  0.1087 -0.4465
 2393SOL    HW2 9338   3.582   5.499   4.255  0.3534 -0.7143 -0.6232
 2393SOL    HW3 9339   3.567   5.610   4.153 -0.8418 -0.3767 -0.0925
 2393SOL    MW4 9340   3.611   5.542   4.184 -0.1027 -0.0639 -0.4231
 2394SOL     OW 9341   4.810   4.282   0.912 -0.3967  0.0738  0.2460
 2394SOL    HW2 9342   4.827   4.345   0.842  0.1546  0.0725  0.3776
 2394SOL    HW3 9343   4.846   4.324   0.990  1.5130 -1.1162  0.0633
 2394SOL    MW4 9344   4.817   4.296   0.913 -0.0720 -0.0834  0.2392
 2395SOL     OW 9345   3.098   5.983   2.432  0.6670  0.3538 -0.1335
 2395SOL    HW2 9346   3.032   5.915   2.429 -1.4116  2.2684 -0.8027
 2395SOL    HW3 9347   3.123   5.997   2.341  1.0023  0.5417 -0.0143
 2395SOL    MW4 9348   3.092   5.976   2.420  0.4370  0.6312 -0.2061
 2396SOL     OW 9349   5.371   1.528   2.348  0.0840 -0.6795 -0.3363
 2396SOL    HW2 9350   5.397   1.467   2.418 -0.6179 -0.9956 -0.3438
 2396SOL    HW3 9351   5.300   1.483   2.302 -1.0966  0.5157  0.2265
 2396SOL    MW4 9352   5.365   1.514   2.351 -0.1644 -0.5635 -0.2630
 2397SOL     OW 9353   5.276   5.573   1.719  0.2070  0.4291 -0.3876
 2397SOL    HW2 9354   5.327   5.532   1.649  0.2384 -0.5372  0.1847
 2397SOL    HW3 9355   5.336   5.576   1.793 -0.6333 -1.0154  0.3903
 2397SOL    MW4 9356   5.291   5.568   1.719  0.1003  0.1111 -0.2094
 2398SOL     OW 9357   2.205   5.254   1.089 -0.6034  0.2197  0.2770
 2398SOL    HW2 9358   2.237   5.186   1.029 -2.3057 -0.9931  0.6573
 2398SOL    HW3 9359   2.158   5.316   1.032 -0.0445  0.4643  0.0729
 2398SOL    MW4 9360   2.203   5.253   1.074 -0.7542  0.0920  0.3003
 2399SOL     OW 9361   2.033   4.473   1.498 -0.2395  0.1861  0.2252
 2399SOL    HW2 9362   1.978   4.465   1.576 -1.3377  0.0362 -0.5505
 2399SOL    HW3 9363   1.979   4.441   1.426 -0.6064  3.5741 -1.1994
 2399SOL    MW4 9364   2.019   4.468   1.499 -0.4328  0.6134 -0.0651
 2400SOL     OW 9365   3.809   2.698   4.189 -0.1179  0.0160  0.4817
 2400SOL    HW2 9366   3.899   2.728   4.174  0.0899 -0.3336  1.0056
 2400SOL    HW3 9367   3.818   2.608   4.218 -0.7799 -0.9261 -1.9738
 2400SOL    MW4 9368   3.822   2.690   4.191 -0.1779 -0.1544  0.2268
 2401SOL     OW 9369   3.564   4.711   3.191 -0.3272  0.1466 -0.3958
 2401SOL    HW2 9370   3.561   4.647   3.120 -0.0539 -2.4554  1.7963
 2401SOL    HW3 9371   3.657   4.727   3.205 -0.3701  0.3824 -0.3691
 2401SOL    MW4 9372   3.576   4.705   3.183 -0.2968 -0.1656 -0.1031
 2402SOL     OW 9373   0.812   4.458   4.926 -0.3803 -0.0062  0.2749
 2402SOL    HW2 9374   0.723   4.481   4.952 -0.7901 -1.6566  0.4536
 2402SOL    HW3 9375   0.826   4.371   4.963  1.0894 -0.0333 -0.2710
 2402SOL    MW4 9376   0.802   4.449   4.934 -0.2404 -0.2275  0.2264
 2403SOL     OW 9377   3.425   2.915   0.302 -0.3111 -0.2025 -0.8214
 2403SOL    HW2 9378   3.347   2.884   0.257 -1.0770  1.3740 -0.6654
 2403SOL    HW3 9379   3.420   2.878   0.390  0.2776 -1.8606 -1.4501
 2403SOL    MW4 9380   3.414   2.906   0.308 -0.3345 -0.2133 -0.8838
 2404SOL     OW 9381   5.480   5.254   1.300 -0.4556 -0.2833  0.1572
 2404SOL    HW2 9382   5.566   5.283   1.268 -0.3992  0.4548  0.9375
 2404SOL    HW3 9383   5.438   5.216   1.223  1.0773 -1.8918  0.0509
 2404SOL    MW4 9384   5.486   5.253   1.285 -0.2459 -0.3981  0.2462
 2405SOL     OW 9385   6.189   4.609   5.669 -0.2193  0.1375  0.1911
 2405SOL    HW2 9386   6.267   4.634   5.718  0.9300 -0.1025 -1.4087
 2405SOL    HW3 9387   6.221   4.542   5.607 -1.2947  1.2948 -1.7063
 2405SOL    MW4 9388   6.204   4.603   5.667 -0.2096  0.2586 -0.2703
 2406SOL     OW 9389   3.292   5.738   3.871 -0.2847  0.3559  0.3710
 2406SOL    HW2 9390   3.215   5.792   3.851  0.4293  1.0503 -0.5892
 2406SOL    HW3 9391   3.359   5.768   3.809  0.2074 -1.4701 -0.0197
 2406SOL    MW4 9392   3.291   5.749   3.860 -0.1256  0.2066  0.1927
 2407SOL     OW 9393   3.400   0.551   0.583 -0.3695 -0.5879  0.4223
 2407SOL    HW2 9394   3.439   0.478   0.630 -0.0518  1.0225  2.8304
 2407SOL    HW3 9395   3.329   0.582   0.640 -1.0206  0.5047 -0.8962
 2407SOL    MW4 9396   3.396   0.546   0.596 -0.4135 -0.2313  0.5661
 2408SOL     OW 9397   4.839   0.047   2.030 -0.2188 -0.2821 -0.0344
 2408SOL    HW2 9398   4.893   0.044   2.109 -0.2718  0.2688  0.0261
 2408SOL    HW3 9399   4.878   0.117   1.978 -1.8913  1.3323  0.7690
 2408SOL    MW4 9400   4.852   0.056   2.034 -0.4465  0.0036  0.0796
 2409SOL     OW 9401   5.738   3.703   4.473 -0.0323  0.4495  1.4836
 2409SOL    HW2 9402   5.788   3.623   4.456  0.9696  1.0720  1.3875
 2409SOL    HW3 9403   5.768   3.732   4.560  0.1781  1.1104  1.2013
 2409SOL    MW4 9404   5.749   3.697   4.482  0.1276  0.6188  1.4337
 2410SOL     OW 9405   1.149   4.204   1.787 -0.1695  0.7398 -0.7742
 2410SOL    HW2 9406   1.143   4.144   1.713 -0.2862  1.0645 -1.0266
 2410SOL    HW3 9407   1.064   4.249   1.790 -0.6270 -0.1442  0.3051
 2410SOL    MW4 9408   1.137   4.202   1.778 -0.2453  0.6660 -0.6651
 2411SOL     OW 9409   2.151   4.388   5.436 -0.2305 -0.2174 -0.0439
 2411SOL    HW2 9410   2.067   4.342   5.443  0.0660 -0.9419 -1.0126
 2411SOL    HW3 9411   2.212   4.335   5.487 -0.4101  0.4470  0.8692
 2411SOL    MW4 9412   2.148   4.375   5.443 -0.2150 -0.2253 -0.0512
 2412SOL     OW 9413   4.959   0.332   4.045 -0.5116 -0.0742  0.9604
 2412SOL    HW2 9414   4.997   0.338   3.957  1.2516  1.7803  1.7647
 2412SOL    HW3 9415   4.985   0.246   4.077  0.5921  0.0341  0.4067
 2412SOL    MW4 9416   4.967   0.322   4.038 -0.1333  0.1848  0.9935
 2413SOL     OW 9417   3.621   4.771   5.831 -0.2418 -0.5989  0.1060
 2413SOL    HW2 9418   3.608   4.761   5.737 -0.3240  1.0318 -0.0994
 2413SOL    HW3 9419   3.713   4.797   5.840 -0.6663  0.9506  0.2768
 2413SOL    MW4 9420   3.631   4.773   5.820 -0.3087 -0.1793  0.1014
 2414SOL     OW 9421   2.227   5.763   2.016 -0.5099 -0.6062 -0.0386
 2414SOL    HW2 9422   2.229   5.682   2.067 -0.7723 -1.7316 -1.7212
 2414SOL    HW3 9423   2.240   5.832   2.080  0.0158 -1.9919  1.4193
 2414SOL    MW4 9424   2.229   5.761   2.031 -0.4752 -0.9375 -0.0682
 2415SOL     OW 9425   3.819   6.026   3.435 -0.2987  0.3054 -0.1566
 2415SOL    HW2 9426   3.762   5.950   3.420 -2.1768  1.4831  0.6880
 2415SOL    HW3 9427   3.759   6.097   3.456  1.5703  1.1827  2.7933
 2415SOL    MW4 9428   3.804   6.025   3.435 -0.2999  0.5765  0.3440
 2416SOL     OW 9429   2.376   2.901   3.922  0.6032 -0.7830  0.2094
 2416SOL    HW2 9430   2.367   2.984   3.876  0.0305 -0.5080  0.7942
 2416SOL    HW3 9431   2.416   2.842   3.858  1.5903  0.0984 -0.0127
 2416SOL    MW4 9432   2.380   2.904   3.907  0.6579 -0.6304  0.2573
 2417SOL     OW 9433   2.004   5.951   0.898 -0.2558 -0.0975 -0.3565
 2417SOL    HW2 9434   1.942   6.008   0.945 -0.7816 -1.0834  0.1792
 2417SOL    HW3 9435   1.999   5.979   0.807  0.1669  1.3105  0.0303
 2417SOL    MW4 9436   1.995   5.962   0.893 -0.2694 -0.0418 -0.2348
 2418SOL     OW 9437   0.790   2.805   1.657  0.7032  0.0319  0.7257
 2418SOL    HW2 9438   0.802   2.895   1.626 -0.2831 -0.2599 -0.5955
 2418SOL    HW3 9439   0.878   2.768   1.655  0.8483  0.3967 -0.6438
 2418SOL    MW4 9440   0.803   2.812   1.653  0.5922  0.0416  0.3707
 2419SOL     OW 9441   2.705   4.188   5.793 -0.1435  0.3379  0.2551
 2419SOL    HW2 9442   2.657   4.123   5.846  0.4711  0.2240  0.6791
 2419SOL    HW3 9443   2.780   4.140   5.759  0.2179  0.7792  0.4212
 2419SOL    MW4 9444   2.708   4.173   5.795 -0.0147  0.3811  0.3329
 2420SOL     OW 9445   2.315   0.954   2.665  0.0126  0.6324 -0.6915
 2420SOL    HW2 9446   2.306   0.935   2.758 -1.2747  0.3905 -0.8507
 2420SOL    HW3 9447   2.241   1.010   2.644  0.4918  0.9884 -1.5073
 2420SOL    MW4 9448   2.304   0.959   2.674 -0.0940  0.6475 -0.8202
 2421SOL     OW 9449   1.835   5.841   0.303 -0.6005 -0.0348  0.1148
 2421SOL    HW2 9450   1.905   5.844   0.238 -0.9245 -0.9567 -0.3088
 2421SOL    HW3 9451   1.879   5.853   0.387  0.2218 -1.5206 -0.0644
 2421SOL    MW4 9452   1.850   5.843   0.305 -0.5347 -0.3525  0.0353
 2422SOL     OW 9453   5.195   3.782   4.802 -0.2586  0.1161  0.0526
 2422SOL    HW2 9454   5.239   3.752   4.881 -0.9904 -0.7599  0.1439
 2422SOL    HW3 9455   5.265   3.814   4.746  0.3457  0.0226  0.7377
 2422SOL    MW4 9456   5.210   3.782   4.805 -0.2754 -0.0118  0.1551
 2423SOL     OW 9457   4.815   0.399   3.388 -0.4591 -0.2100  0.4114
 2423SOL    HW2 9458   4.752   0.335   3.357 -0.1149 -0.2239 -0.2802
 2423SOL    HW3 9459   4.895   0.381   3.339 -0.3990  0.8366  0.0829
 2423SOL    MW4 9460   4.818   0.388   3.378 -0.4058 -0.0737  0.2768
 2424SOL     OW 9461   1.344   2.343   5.334  0.3220  0.3044 -0.2655
 2424SOL    HW2 9462   1.375   2.299   5.413  0.2094  0.6561 -0.0239
 2424SOL    HW3 9463   1.337   2.273   5.268  0.2216 -0.0235  0.0917
 2424SOL    MW4 9464   1.347   2.328   5.335  0.2939  0.3075 -0.1865
 2425SOL     OW 9465   6.240   5.891   3.393 -0.3687 -0.3058  0.4935
 2425SOL    HW2 9466   6.317   5.836   3.401 -0.6919 -1.2152 -1.9052
 2425SOL    HW3 9467   6.272   5.980   3.409  1.0403 -0.7265  0.1381
 2425SOL    MW4 9468   6.254   5.896   3.396 -0.2254 -0.4813  0.1301
 2426SOL     OW 9469   2.078   4.359   3.855 -0.4914 -0.0330  0.1294
 2426SOL    HW2 9470   2.003   4.310   3.822 -0.2053 -0.0135 -0.5572
 2426SOL    HW3 9471   2.056   4.451   3.840 -1.3152  0.1302  2.0119
 2426SOL    MW4 9472   2.065   4.365   3.849 -0.5624 -0.0089  0.2872
 2427SOL     OW 9473   0.123   1.549   2.927 -0.1624 -0.5995  0.9163
 2427SOL    HW2 9474   0.196   1.537   2.988  0.4301  0.2943  0.4094
 2427SOL    HW3 9475   0.157   1.610   2.861 -1.5839  0.3601  1.0346
 2427SOL    MW4 9476   0.137   1.556   2.926 -0.2717 -0.3550  0.8650
 2428SOL     OW 9477   2.853   6.010   5.720 -0.5724 -0.4646  0.9423
 2428SOL    HW2 9478   2.883   6.056   5.641 -1.4724  0.8613  1.3169
 2428SOL    HW3 9479   2.765   5.980   5.697 -0.7648 -0.2365  1.3621
 2428SOL    MW4 9480   2.845   6.012   5.706 -0.7165 -0.2595  1.0471
 2429SOL     OW 9481   5.991   5.906   3.973  0.1924  0.0316  0.0195
 2429SOL    HW2 9482   5.919   5.968   3.961  0.3789 -0.0925 -2.2354
 2429SOL    HW3 9483   5.949   5.820   3.970  0.0457 -0.0162  2.2407
 2429SOL    MW4 9484   5.976   5.903   3.971  0.1977  0.0089  0.0150
 2430SOL     OW 9485   0.633   3.106   4.686 -0.3667  0.1682 -0.1828
 2430SOL    HW2 9486   0.706   3.114   4.748  0.0295  0.2382 -0.6450
 2430SOL    HW3 9487   0.652   3.024   4.639  0.6852  1.3191 -1.8892
 2430SOL    MW4 9488   0.645   3.096   4.688 -0.1757  0.3293 -0.4689
 2431SOL     OW 9489   2.648   0.941   5.391  0.8129  0.6856 -0.2248
 2431SOL    HW2 9490   2.618   0.854   5.366  0.0739  1.0969 -0.8044
 2431SOL    HW3 9491   2.672   0.983   5.309  0.4930  1.2764 -0.0222
 2431SOL    MW4 9492   2.648   0.935   5.377  0.6732  0.8178 -0.2746
 2432SOL     OW 9493   2.144   5.629   2.815 -0.2400  0.1269 -0.0335
 2432SOL    HW2 9494   2.061   5.676   2.806 -0.0976  0.4546  0.3360
 2432SOL    HW3 9495   2.121   5.548   2.860 -0.6237 -0.5648 -1.4138
 2432SOL    MW4 9496   2.130   5.625   2.820 -0.2719  0.0789 -0.1668
 2433SOL     OW 9497   4.523   1.766   3.615  0.1278  0.0155  0.6608
 2433SOL    HW2 9498   4.603   1.816   3.630  0.3244 -0.2828  0.6108
 2433SOL    HW3 9499   4.543   1.678   3.647  0.3015 -0.4308 -0.6045
 2433SOL    MW4 9500   4.536   1.761   3.621  0.1766 -0.0828  0.4872
 2434SOL     OW 9501   5.389   4.699   2.636  0.4492 -0.4108  0.1694
 2434SOL    HW2 9502   5.458   4.712   2.571  0.5724  0.0089  0.3819
 2434SOL    HW3 9503   5.313   4.669   2.585  0.5191  0.0020 -0.1770
 2434SOL    MW4 9504   5.388   4.697   2.621  0.4747 -0.3009  0.1517
 2435SOL     OW 9505   3.928   1.287   4.864 -0.9014  0.0988  0.1119
 2435SOL    HW2 9506   3.951   1.335   4.784  0.1739  1.3284  1.0999
 2435SOL    HW3 9507   4.009   1.242   4.889 -0.9659  0.4029  0.9229
 2435SOL    MW4 9508   3.942   1.288   4.857 -0.7681  0.3011  0.3492
 2436SOL     OW 9509   1.378   3.887   2.495  0.7056  0.0773  0.1995
 2436SOL    HW2 9510   1.298   3.940   2.498  2.0314  2.1832  0.1248
 2436SOL    HW3 9511   1.399   3.881   2.402 -0.8730 -3.0065 -0.0832
 2436SOL    MW4 9512   1.370   3.893   2.483  0.6722 -0.0517  0.1524
 2437SOL     OW 9513   2.136   0.979   6.347  0.0217 -0.3908  0.2196
 2437SOL    HW2 9514   2.102   1.040   6.281 -0.0205 -1.9761 -1.3014
 2437SOL    HW3 9515   2.227   1.008   6.360 -0.5701  1.2169  1.0754
 2437SOL    MW4 9516   2.144   0.991   6.340 -0.0620 -0.3879  0.1319
 2438SOL     OW 9517   4.433   0.107   4.688 -0.1274 -1.0432 -0.1653
 2438SOL    HW2 9518   4.422   0.097   4.594 -1.6072 -2.2813  0.1132
 2438SOL    HW3 9519   4.528   0.120   4.700  0.0559 -0.7041 -1.8065
 2438SOL    MW4 9520   4.444   0.108   4.678 -0.2985 -1.1619 -0.3451
 2439SOL     OW 9521   1.552   2.210   2.483 -0.1660  0.5061  0.2731
 2439SOL    HW2 9522   1.642   2.215   2.451  0.8559 -0.9892  2.6560
 2439SOL    HW3 9523   1.534   2.298   2.516  1.2256  0.3277  1.6273
 2439SOL    MW4 9524   1.561   2.222   2.483  0.1525  0.2853  0.7662
 2440SOL     OW 9525   3.909   0.797   3.535 -0.6050 -0.3113 -0.4847
 2440SOL    HW2 9526   3.831   0.819   3.484 -0.1746  0.2322 -0.9239
 2440SOL    HW3 9527   3.965   0.875   3.528  0.6140 -1.2290 -1.4024
 2440SOL    MW4 9528   3.906   0.810   3.527 -0.3874 -0.3606 -0.6637
 2441SOL     OW 9529   4.443   3.478   5.893  0.3207  0.0381  0.4130
 2441SOL    HW2 9530   4.377   3.410   5.881  0.9180 -0.3061 -1.2615
 2441SOL    HW3 9531   4.522   3.430   5.921  0.6932  0.0471 -0.5945
 2441SOL    MW4 9532   4.445   3.463   5.895  0.4486 -0.0061  0.0592
 2442SOL     OW 9533   3.801   0.718  -0.012  0.4746 -0.0274  0.6049
 2442SOL    HW2 9534   3.746   0.733   0.065  0.8167 -1.5782  1.1778
 2442SOL    HW3 9535   3.890   0.731   0.020  0.5327  2.0044 -0.2112
 2442SOL    MW4 9536   3.805   0.722   0.003  0.5274  0.0361  0.5728
 2443SOL     OW 9537   1.614   1.722   3.230 -0.3634  0.0316  0.0153
 2443SOL    HW2 9538   1.680   1.756   3.291  0.4291 -0.3688 -0.5969
 2443SOL    HW3 9539   1.553   1.794   3.219  1.1027  1.1835 -1.0167
 2443SOL    MW4 9540   1.615   1.736   3.237 -0.0654  0.1308 -0.2016
 2444SOL     OW 9541   4.358   5.375   0.020 -0.1810 -0.3093  0.5994
 2444SOL    HW2 9542   4.331   5.330   0.100  1.8798 -0.8005  1.0840
 2444SOL    HW3 9543   4.425   5.318  -0.018  0.4576  0.9893 -0.2996
 2444SOL    MW4 9544   4.363   5.362   0.025  0.1752 -0.2028  0.5447
 2445SOL     OW 9545   4.218   5.038   2.734  0.2466  0.0316  0.1563
 2445SOL    HW2 9546   4.156   5.040   2.807 -0.0180  0.0796 -0.0677
 2445SOL    HW3 9547   4.182   5.100   2.670  0.4751 -0.0121 -0.0163
 2445SOL    MW4 9548   4.205   5.047   2.735  0.2418  0.0322  0.1040
 2446SOL     OW 9549   5.710   3.044   2.573 -0.7902  0.6712 -0.3250
 2446SOL    HW2 9550   5.773   3.009   2.510  1.7297  1.0158  1.8203
 2446SOL    HW3 9551   5.764   3.095   2.634 -2.6631 -1.3521  3.3457
 2446SOL    MW4 9552   5.726   3.046   2.572 -0.7048  0.4497  0.4424
 2447SOL     OW 9553   3.979   5.661   1.561  0.1874  0.3998  0.0335
 2447SOL    HW2 9554   4.044   5.658   1.631 -1.1176  0.1591  1.2960
 2447SOL    HW3 9555   3.906   5.607   1.594  0.1059 -0.9170 -2.1354
 2447SOL    MW4 9556   3.978   5.654   1.575  0.0044  0.1943 -0.0861
 2448SOL     OW 9557   0.621   3.861   2.384 -0.4709  0.0152  0.1107
 2448SOL    HW2 9558   0.637   3.918   2.309  1.8482 -1.0871 -0.2965
 2448SOL    HW3 9559   0.703   3.861   2.433 -2.2341  1.7333  3.4842
 2448SOL    MW4 9560   0.634   3.869   2.381 -0.3975  0.0965  0.5021
 2449SOL     OW 9561   1.756   5.400   4.511 -0.4857  0.7051  0.6135
 2449SOL    HW2 9562   1.737   5.431   4.600  1.6372  0.2564  1.2890
 2449SOL    HW3 9563   1.735   5.307   4.513  0.4961  0.4819  0.9695
 2449SOL    MW4 9564   1.751   5.392   4.523 -0.0760  0.6165  0.7496
 2450SOL     OW 9565   6.426   3.031   1.191  0.3759  0.2351 -0.1152
 2450SOL    HW2 9566   6.332   3.036   1.210  0.3153  0.7078 -0.5093
 2450SOL    HW3 9567   6.464   3.105   1.238  0.7999 -0.8879  1.3829
 2450SOL    MW4 9568   6.418   3.041   1.200  0.4238  0.1493  0.0304
 2451SOL     OW 9569   6.349   3.159   0.131  0.0514 -0.2936  0.1614
 2451SOL    HW2 9570   6.368   3.097   0.202  0.4354 -1.8640 -1.2257
 2451SOL    HW3 9571   6.319   3.103   0.059 -0.5462  1.2669 -0.8381
 2451SOL    MW4 9572   6.348   3.143   0.131  0.0232 -0.2949 -0.1535
 2452SOL     OW 9573   1.717   2.275   3.049  0.0296 -0.0176 -0.0731
 2452SOL    HW2 9574   1.632   2.313   3.074  0.1283 -0.7126  1.3603
 2452SOL    HW3 9575   1.694   2.199   2.996 -0.2248 -0.0246  0.0461
 2452SOL    MW4 9576   1.702   2.270   3.045  0.0091 -0.1102  0.1318
 2453SOL     OW 9577   6.085   0.157   1.573 -0.1732 -0.4254  0.6930
 2453SOL    HW2 9578   6.041   0.239   1.595 -0.4762 -1.2316  3.4494
 2453SOL    HW3 9579   6.021   0.088   1.596  0.8259 -1.4848  0.4023
 2453SOL    MW4 9580   6.071   0.158   1.579 -0.0813 -0.6716  1.0183
 2454SOL     OW 9581   0.544   5.482   5.164  0.6767  0.5346  0.9030
 2454SOL    HW2 9582   0.555   5.458   5.072  1.8954  1.8986  0.6362
 2454SOL    HW3 9583   0.553   5.578   5.164 -2.8384  1.0003  1.9975
 2454SOL    MW4 9584   0.547   5.492   5.152  0.3738  0.7760  1.0122
 2455SOL     OW 9585   1.160   5.693   5.009  0.3445 -0.7483 -0.3901
 2455SOL    HW2 9586   1.193   5.708   5.097  1.4958 -0.9679 -0.7761
 2455SOL    HW3 9587   1.065   5.708   5.016  0.5025 -0.2183  0.7513
 2455SOL    MW4 9588   1.152   5.697   5.021  0.5173 -0.7074 -0.2905
 2456SOL     OW 9589   4.152   0.288   5.822 -0.0504 -0.4973 -0.3660
 2456SOL    HW2 9590   4.210   0.255   5.753 -0.6679 -0.0885 -1.0970
 2456SOL    HW3 9591   4.070   0.240   5.810 -0.4970  0.2902 -0.5648
 2456SOL    MW4 9592   4.149   0.277   5.812 -0.1908 -0.3395 -0.4887
 2457SOL     OW 9593   4.822   2.144   4.639  0.0466  0.0811  0.2451
 2457SOL    HW2 9594   4.787   2.058   4.661  1.8802 -1.3884 -2.0758
 2457SOL    HW3 9595   4.778   2.167   4.557  1.5345  0.0078 -0.6153
 2457SOL    MW4 9596   4.811   2.136   4.631  0.4848 -0.1225 -0.1746
 2458SOL     OW 9597   1.331   0.535   4.576 -0.0719  0.0969  0.2851
 2458SOL    HW2 9598   1.282   0.457   4.550  0.0398 -0.0171  0.4161
 2458SOL    HW3 9599   1.415   0.501   4.607  0.9810  0.4060 -1.9784
 2458SOL    MW4 9600   1.336   0.520   4.576  0.0817  0.1226  0.0038
 2459SOL     OW 9601   4.076   4.962   1.318  0.2007  0.2936  0.5199
 2459SOL    HW2 9602   4.146   4.962   1.253 -1.1240  0.0646 -0.9544
 2459SOL    HW3 9603   4.007   5.016   1.279 -0.4574  0.5209  1.9341
 2459SOL    MW4 9604   4.076   4.969   1.304 -0.0609  0.2934  0.5119
 2460SOL     OW 9605   1.892   0.496   2.874  0.3156  0.1890  0.5310
 2460SOL    HW2 9606   1.979   0.465   2.850  1.8328  3.1191  1.6367
 2460SOL    HW3 9607   1.858   0.537   2.794 -0.5111 -1.7574 -0.1589
 2460SOL    MW4 9608   1.899   0.498   2.860  0.4067  0.3188  0.5859
 2461SOL     OW 9609   0.757   0.198   4.660 -0.3094 -0.0179  0.0114
 2461SOL    HW2 9610   0.690   0.190   4.728 -0.8989  0.0652 -0.5486
 2461SOL    HW3 9611   0.730   0.137   4.592 -0.2281  0.5551 -0.5500
 2461SOL    MW4 9612   0.745   0.189   4.660 -0.3765  0.0686 -0.1366
 2462SOL     OW 9613   2.019   0.697   3.769 -0.4814  0.2311  0.2135
 2462SOL    HW2 9614   2.086   0.703   3.837  0.9905 -0.7418 -1.1035
 2462SOL    HW3 9615   1.944   0.744   3.806  0.5448  0.4456  2.1554
 2462SOL    MW4 9616   2.018   0.704   3.783 -0.1518  0.1310  0.2959
 2463SOL     OW 9617   5.403   2.571   3.912 -0.3745  0.0180 -0.2206
 2463SOL    HW2 9618   5.422   2.490   3.866 -0.6839 -1.1314  1.5668
 2463SOL    HW3 9619   5.483   2.589   3.962  0.0655  1.3973 -1.3374
 2463SOL    MW4 9620   5.416   2.563   3.913 -0.3573  0.0484 -0.1321
 2464SOL     OW 9621   4.464   5.512   2.029  0.1595 -0.0013  0.0838
 2464SOL    HW2 9622   4.437   5.602   2.012  1.6842  0.2418 -1.3762
 2464SOL    HW3 9623   4.423   5.461   1.958  1.1243 -0.0736 -0.4372
 2464SOL    MW4 9624   4.455   5.517   2.017  0.4880  0.0212 -0.1776
 2465SOL     OW 9625   4.409   2.350   2.819  0.4351  0.1883 -0.2231
 2465SOL    HW2 9626   4.492   2.345   2.866  1.1833 -0.5168 -1.5587
 2465SOL    HW3 9627   4.416   2.283   2.752 -0.7788  0.8694 -1.0574
 2465SOL    MW4 9628   4.421   2.341   2.817  0.3736  0.1852 -0.5094
 2466SOL     OW 9629   3.167   5.596   1.325  0.2461 -0.1879 -0.1795
 2466SOL    HW2 9630   3.135   5.516   1.283 -0.5750  0.6443 -1.2120
 2466SOL    HW3 9631   3.112   5.606   1.403  0.7467 -0.9225  0.2839
 2466SOL    MW4 9632   3.156   5.587   1.330  0.2038 -0.1750 -0.2546
 2467SOL     OW 9633   0.945   4.574   4.189 -0.2603 -0.2168  0.2701
 2467SOL    HW2 9634   0.879   4.596   4.255  0.1249  1.0442  0.2680
 2467SOL    HW3 9635   1.013   4.640   4.202  1.6650 -2.2597  1.1701
 2467SOL    MW4 9636   0.945   4.586   4.199  0.0446 -0.3200  0.3885
 2468SOL     OW 9637   3.114   0.616   0.216  0.1209 -0.1213 -0.2151
 2468SOL    HW2 9638   3.169   0.693   0.205  0.2888 -0.0802  0.8206
 2468SOL    HW3 9639   3.093   0.588   0.127  0.2461  0.9830 -0.6052
 2468SOL    MW4 9640   3.118   0.622   0.203  0.1595  0.0298 -0.1299
 2469SOL     OW 9641   2.005   3.483   5.381  0.5347 -0.3168 -0.0934
 2469SOL    HW2 9642   2.055   3.526   5.450 -1.0566  0.9950  0.3071
 2469SOL    HW3 9643   1.968   3.405   5.423  0.0583  0.1618  0.3922
 2469SOL    MW4 9644   2.007   3.478   5.396  0.2619 -0.0806  0.0235
 2470SOL     OW 9645   3.790   6.414   3.282  0.2939  0.0512 -0.3029
 2470SOL    HW2 9646   3.717   6.475   3.275  0.8486  1.1027  2.0856
 2470SOL    HW3 9647   3.782   6.358   3.205 -0.7927  2.5116 -2.1164
 2470SOL    MW4 9648   3.780   6.415   3.271  0.2237  0.5145 -0.2270
 2471SOL     OW 9649   0.461   1.932   1.942  0.4124 -0.0577 -0.5118
 2471SOL    HW2 9650   0.508   1.855   1.908  0.6877  0.6810 -1.8791
 2471SOL    HW3 9651   0.469   1.998   1.873 -1.0511  0.7267  0.0080
 2471SOL    MW4 9652   0.468   1.930   1.928  0.2557  0.1432 -0.6236
 2472SOL     OW 9653   4.078   6.037   4.528  0.1423  0.2635 -0.2212
 2472SOL    HW2 9654   4.066   6.107   4.464 -0.8524 -0.1667 -0.5182
 2472SOL    HW3 9655   4.016   5.969   4.502  0.5471 -0.4093  0.5177
 2472SOL    MW4 9656   4.069   6.037   4.516  0.0644  0.1180 -0.1629
 2473SOL     OW 9657   1.102   4.709   6.364  0.2243 -0.1199  0.2441
 2473SOL    HW2 9658   1.180   4.678   6.318  0.5775  0.4540  0.4430
 2473SOL    HW3 9659   1.076   4.636   6.421  1.7223  0.3300  1.5817
 2473SOL    MW4 9660   1.109   4.695   6.366  0.4685  0.0152  0.4468
 2474SOL     OW 9661   4.457   4.096   0.839 -0.8192 -0.6464 -0.2876
 2474SOL    HW2 9662   4.499   4.165   0.891 -0.6489 -0.4877 -0.6299
 2474SOL    HW3 9663   4.397   4.053   0.899 -0.5989 -0.4848  0.0489
 2474SOL    MW4 9664   4.455   4.099   0.854 -0.7677 -0.6042 -0.2884
 2475SOL     OW 9665   1.793   4.130   5.702 -0.2744  0.1421 -0.0043
 2475SOL    HW2 9666   1.713   4.120   5.650  0.5360  1.9797 -1.7461
 2475SOL    HW3 9667   1.764   4.165   5.785 -1.4707 -1.4183  0.2782
 2475SOL    MW4 9668   1.779   4.133   5.706 -0.3253  0.1787 -0.1969
 2476SOL     OW 9669   4.685   6.279   4.570 -0.6512 -0.0841 -0.1194
 2476SOL    HW2 9670   4.609   6.249   4.620 -0.8028  1.1744  0.4582
 2476SOL    HW3 9671   4.660   6.268   4.479 -1.3990 -0.0126  0.0703
 2476SOL    MW4 9672   4.672   6.274   4.565 -0.7698  0.0914 -0.0181
 2477SOL     OW 9673   1.532   1.332   0.504 -0.1863  0.4545 -0.1526
 2477SOL    HW2 9674   1.473   1.264   0.473  1.2167 -0.4335 -1.0162
 2477SOL    HW3 9675   1.570   1.297   0.584 -0.6916  0.9600  0.3212
 2477SOL    MW4 9676   1.529   1.319   0.511 -0.0679  0.4040 -0.2040
 2478SOL     OW 9677   1.938   4.595   5.712 -0.3055 -0.3639 -0.1543
 2478SOL    HW2 9678   1.990   4.638   5.644  1.5659  0.2833  1.5770
 2478SOL    HW3 9679   1.988   4.518   5.736 -0.8378 -0.4813  0.6121
 2478SOL    MW4 9680   1.951   4.591   5.706 -0.1288 -0.2940  0.1752
 2479SOL     OW 9681   0.006   5.643   4.171 -0.2024  0.0109 -0.2363
 2479SOL    HW2 9682  -0.088   5.637   4.185 -0.1941 -0.0879 -0.2243
 2479SOL    HW3 9683   0.035   5.713   4.230 -0.2468 -0.0515 -0.1412
 2479SOL    MW4 9684  -0.003   5.652   4.180 -0.2072 -0.0104 -0.2222
 2480SOL     OW 9685   0.032   4.005   4.546 -0.3665 -0.0400  0.5831
 2480SOL    HW2 9686  -0.038   3.992   4.482  0.1725  0.0916 -0.0464
 2480SOL    HW3 9687  -0.012   4.001   4.631 -0.7680 -2.6744  0.3508
 2480SOL    MW4 9688   0.017   4.003   4.548 -0.3484 -0.3702  0.4694
 2481SOL     OW 9689   5.658   5.182   1.650 -0.2988  0.2183 -0.5577
 2481SOL    HW2 9690   5.633   5.093   1.624 -3.2080  0.8974 -0.4680
 2481SOL    HW3 9691   5.650   5.182   1.745 -0.9350  0.7185 -0.6066
 2481SOL    MW4 9692   5.654   5.170   1.659 -0.7666  0.3739 -0.5523
 2482SOL     OW 9693   1.022   4.166   2.427 -0.2952  0.1892 -0.6759
 2482SOL    HW2 9694   1.067   4.238   2.470 -0.5271 -0.9778  1.6954
 2482SOL    HW3 9695   0.981   4.205   2.350  1.1989  2.1466 -0.5386
 2482SOL    MW4 9696   1.022   4.181   2.422 -0.1286  0.2935 -0.3449
 2483SOL     OW 9697   1.883   4.727   0.684 -0.1776 -0.2874  0.5375
 2483SOL    HW2 9698   1.973   4.757   0.686  0.3220 -1.2599 -2.2376
 2483SOL    HW3 9699   1.832   4.799   0.722  1.5873  1.0892  0.3880
 2483SOL    MW4 9700   1.888   4.741   0.689  0.1212 -0.2340  0.1517
 2484SOL     OW 9701   6.340   0.505   0.675 -0.0833  0.3508 -0.6860
 2484SOL    HW2 9702   6.432   0.530   0.666  1.0991 -3.1464 -0.1472
 2484SOL    HW3 9703   6.337   0.457   0.757 -1.3584 -3.1094 -2.5446
 2484SOL    MW4 9704   6.352   0.502   0.684 -0.0955 -0.5672 -0.8601
 2485SOL     OW 9705   5.271   2.913   6.392  0.7229  0.8903  0.2407
 2485SOL    HW2 9706   5.241   2.859   6.464  0.5543  0.4163 -0.1802
 2485SOL    HW3 9707   5.204   2.982   6.385 -0.6055 -0.4338 -1.0107
 2485SOL    MW4 9708   5.258   2.915   6.401  0.5254  0.6530  0.0201
 2486SOL     OW 9709   5.067   5.432   0.729 -0.2412 -0.3121 -0.0845
 2486SOL    HW2 9710   5.115   5.353   0.705 -1.4802 -1.2122  0.2973
 2486SOL    HW3 9711   4.990   5.431   0.673 -0.1648  0.7478 -0.2209
 2486SOL    MW4 9712   5.063   5.421   0.719 -0.3946 -0.2910 -0.0521
 2487SOL     OW 9713   2.000   5.403   4.901  0.2601  0.1731 -0.3408
 2487SOL    HW2 9714   2.094   5.409   4.886  0.4729 -0.9497  0.4288
 2487SOL    HW3 9715   1.973   5.325   4.853  0.1773 -0.9215  1.4150
 2487SOL    MW4 9716   2.009   5.394   4.893  0.2773 -0.1195 -0.0076
 2488SOL     OW 9717   3.157   3.083   1.794  0.3906  0.3080  0.4953
 2488SOL    HW2 9718   3.190   2.994   1.803  0.1009  0.2593  1.1296
 2488SOL    HW3 9719   3.072   3.082   1.838  0.1892  0.7909  0.1302
 2488SOL    MW4 9720   3.150   3.071   1.801  0.3258  0.3653  0.5308
 2489SOL     OW 9721   3.056   3.990   4.575  0.0989  0.1635  0.3401
 2489SOL    HW2 9722   3.109   3.925   4.620  1.9652  1.2261 -0.2297
 2489SOL    HW3 9723   3.001   4.028   4.644  1.4199  0.3217  1.3417
 2489SOL    MW4 9724   3.055   3.986   4.590  0.5194  0.3246  0.3971
 2490SOL     OW 9725   0.475   4.443   3.072  0.5471  0.0351  0.5725
 2490SOL    HW2 9726   0.514   4.355   3.070  0.5085 -0.1092  2.8280
 2490SOL    HW3 9727   0.548   4.502   3.057  0.7032 -0.3665 -0.2810
 2490SOL    MW4 9728   0.489   4.439   3.070  0.5626 -0.0369  0.7575
 2491SOL     OW 9729   4.964   4.082   2.178 -0.0182  0.3667  0.4896
 2491SOL    HW2 9730   4.884   4.087   2.231  0.5228 -2.1188  1.6869
 2491SOL    HW3 9731   5.028   4.043   2.237  1.6994  0.9637 -0.9123
 2491SOL    MW4 9732   4.962   4.078   2.193  0.2798  0.1175  0.4626
 2492SOL     OW 9733   4.201   6.283   6.244 -0.1070 -0.1108  0.7961
 2492SOL    HW2 9734   4.274   6.310   6.187  0.0416  0.0701  1.0658
 2492SOL    HW3 9735   4.144   6.231   6.188  1.3929 -2.2453  1.1294
 2492SOL    MW4 9736   4.203   6.280   6.229  0.1105 -0.3686  0.8757
 2493SOL     OW 9737   2.443   3.590   0.876  0.0875 -0.1824  0.0734
 2493SOL    HW2 9738   2.480   3.567   0.790 -1.4715 -0.0539 -0.6711
 2493SOL    HW3 9739   2.420   3.683   0.867  0.8668  0.1119  1.0055
 2493SOL    MW4 9740   2.445   3.599   0.863 -0.0154 -0.1266  0.0982
 2494SOL     OW 9741   0.990   5.658   0.610  0.3429  0.3256  0.2143
 2494SOL    HW2 9742   1.082   5.631   0.602  0.4026  0.6051 -0.0815
 2494SOL    HW3 9743   0.995   5.752   0.628  0.1175  0.3126  0.3366
 2494SOL    MW4 9744   1.003   5.667   0.612  0.3210  0.3608  0.1914
 2495SOL     OW 9745   1.283   1.553   3.767  0.0908  0.1824  0.1047
 2495SOL    HW2 9746   1.277   1.551   3.671  0.6740 -0.7369  0.0733
 2495SOL    HW3 9747   1.199   1.588   3.795 -0.5208 -0.5596 -0.7146
 2495SOL    MW4 9748   1.271   1.557   3.758  0.0870 -0.0368 -0.0076
 2496SOL     OW 9749   3.688   1.126   1.475  0.2862  0.5508  0.4137
 2496SOL    HW2 9750   3.772   1.081   1.480 -0.1140 -0.1753  0.9157
 2496SOL    HW3 9751   3.627   1.066   1.518 -0.6778  0.6112 -0.8099
 2496SOL    MW4 9752   3.691   1.112   1.482  0.1062  0.4630  0.3185
 2497SOL     OW 9753   0.463   3.615   1.841  0.8180 -0.0668  0.7229
 2497SOL    HW2 9754   0.392   3.551   1.840  3.0501 -2.8514  3.1294
 2497SOL    HW3 9755   0.423   3.695   1.874 -1.7203 -0.6156 -0.7311
 2497SOL    MW4 9756   0.448   3.617   1.845  0.7776 -0.5066  0.8486
 2498SOL     OW 9757   4.827   3.204   2.591  0.3077 -0.3507  0.2355
 2498SOL    HW2 9758   4.805   3.200   2.684 -1.9253 -1.2210 -0.2698
 2498SOL    HW3 9759   4.887   3.131   2.577  0.8758 -0.0402  1.0455
 2498SOL    MW4 9760   4.832   3.194   2.601  0.0881 -0.4245  0.2757
 2499SOL     OW 9761   0.393   0.554   0.070 -0.2514  0.6091  0.3921
 2499SOL    HW2 9762   0.372   0.557  -0.023 -0.1587 -3.1615  0.0900
 2499SOL    HW3 9763   0.487   0.540   0.074 -0.4710 -1.0350  0.8810
 2499SOL    MW4 9764   0.403   0.553   0.059 -0.2681 -0.1053  0.4167
 2500SOL     OW 9765   1.239   1.151   1.165  0.0210  0.3981  0.4705
 2500SOL    HW2 9766   1.177   1.080   1.152  0.9397 -0.1440 -1.2741
 2500SOL    HW3 9767   1.321   1.107   1.189  0.6490  0.8113 -0.8200
 2500SOL    MW4 9768   1.242   1.136   1.167  0.2251  0.3811  0.0701
 2501SOL     OW 9769   0.089   1.825   0.137  0.6630 -0.7369 -0.7224
 2501SOL    HW2 9770   0.007   1.815   0.088  0.1666 -0.7922  0.0964
 2501SOL    HW3 9771   0.063   1.867   0.219  1.7584  1.1179 -1.2767
 2501SOL    MW4 9772   0.075   1.829   0.141  0.7420 -0.4994 -0.6875
 2502SOL     OW 9773   1.526   0.519   3.464 -0.3612 -0.5684  0.5448
 2502SOL    HW2 9774   1.508   0.597   3.413  1.4692 -1.5409 -1.8022
 2502SOL    HW3 9775   1.604   0.541   3.516  1.3125 -1.2947 -1.5182
 2502SOL    MW4 9776   1.534   0.532   3.464  0.1011 -0.7926 -0.0371
 2503SOL     OW 9777   2.533   5.553   2.038 -0.0830 -0.4393  0.1868
 2503SOL    HW2 9778   2.607   5.584   1.987 -1.0973 -0.1614 -1.1537
 2503SOL    HW3 9779   2.523   5.619   2.107 -0.4429  0.7238 -0.9382
 2503SOL    MW4 9780   2.541   5.566   2.041 -0.2643 -0.2492 -0.1385
 2504SOL     OW 9781   1.794   3.796   5.943  0.1981  0.4593  0.0175
 2504SOL    HW2 9782   1.845   3.833   5.870  0.6779 -1.3503 -0.6144
 2504SOL    HW3 9783   1.703   3.806   5.917  0.2963  1.4405  0.0064
 2504SOL    MW4 9784   1.789   3.802   5.930  0.2744  0.3500 -0.0673
 2505SOL     OW 9785   6.116   4.227   1.114 -0.1080 -0.3115 -0.6261
 2505SOL    HW2 9786   6.094   4.140   1.147  1.5857 -0.8414 -0.8256
 2505SOL    HW3 9787   6.121   4.282   1.192 -2.1854 -0.1062 -0.5735
 2505SOL    MW4 9788   6.113   4.223   1.129 -0.1586 -0.3544 -0.6455
 2506SOL     OW 9789   3.029   3.336   0.695  0.0058  0.9327 -0.5079
 2506SOL    HW2 9790   3.052   3.428   0.706  0.3559  1.0851 -2.2493
 2506SOL    HW3 9791   2.933   3.335   0.689 -0.1376  0.9498  1.1213
 2506SOL    MW4 9792   3.019   3.348   0.696  0.0331  0.9551 -0.5227
 2507SOL     OW 9793   2.509   5.086   0.018 -0.7578  0.1913  0.0373
 2507SOL    HW2 9794   2.561   5.158   0.054  0.4161  0.2628 -1.7097
 2507SOL    HW3 9795   2.434   5.129  -0.023 -0.5052  0.3601 -0.2522
 2507SOL    MW4 9796   2.506   5.101   0.018 -0.5696  0.2230 -0.2314
 2508SOL     OW 9797   4.767   0.711   4.261  0.6500 -0.3757 -0.0836
 2508SOL    HW2 9798   4.771   0.720   4.166  1.4145 -1.2721 -0.1579
 2508SOL    HW3 9799   4.855   0.682   4.286  0.7076  0.6796  1.0043
 2508SOL    MW4 9800   4.779   0.708   4.252  0.7584 -0.3548  0.0501
 2509SOL     OW 9801   5.878   5.476   1.471  0.6023  0.4377  0.7849
 2509SOL    HW2 9802   5.896   5.385   1.496  1.3419  0.3157 -0.1270
 2509SOL    HW3 9803   5.928   5.489   1.390 -2.2403  0.5757 -1.0929
 2509SOL    MW4 9804   5.887   5.466   1.463  0.3248  0.4398  0.4168
 2510SOL     OW 9805   1.734   2.540   3.410 -0.0978  0.5848  0.3550
 2510SOL    HW2 9806   1.765   2.552   3.500  0.1791 -2.4472  0.7591
 2510SOL    HW3 9807   1.780   2.462   3.379 -1.9132  0.2057 -1.6048
 2510SOL    MW4 9808   1.745   2.532   3.418 -0.3008  0.1347  0.1498
 2511SOL     OW 9809   4.445   2.796   5.512  0.0861 -0.0135 -0.2028
 2511SOL    HW2 9810   4.509   2.862   5.484 -0.5618  0.5326 -0.4169
 2511SOL    HW3 9811   4.476   2.714   5.473  0.8403  0.1784 -0.0228
 2511SOL    MW4 9812   4.458   2.794   5.503  0.1001  0.0839 -0.2073
 2512SOL     OW 9813   2.650   5.038   4.802 -0.1054  0.0221 -0.3080
 2512SOL    HW2 9814   2.630   4.972   4.736  0.3204 -1.4478  0.9830
 2512SOL    HW3 9815   2.721   5.000   4.854  0.2465  1.5571  0.3900
 2512SOL    MW4 9816   2.657   5.024   4.800 -0.0028  0.0307 -0.0456
 2513SOL     OW 9817   5.377   1.704   4.912 -0.2430  0.0597  0.1076
 2513SOL    HW2 9818   5.295   1.737   4.876 -0.7070 -1.5776 -0.4404
 2513SOL    HW3 9819   5.357   1.688   5.005 -0.3601  0.2624  0.1176
 2513SOL    MW4 9820   5.363   1.706   4.920 -0.3197 -0.1296  0.0366
 2514SOL     OW 9821   5.826   6.397   4.860  0.4584  0.2355 -0.1688
 2514SOL    HW2 9822   5.809   6.329   4.925 -1.4346 -0.4913 -1.3338
 2514SOL    HW3 9823   5.907   6.439   4.890  0.7294 -1.3571  1.5405
 2514SOL    MW4 9824   5.834   6.393   4.873  0.2444 -0.0705 -0.0970
 2515SOL     OW 9825   0.036   2.124   3.214 -0.1256 -0.2979  0.0503
 2515SOL    HW2 9826   0.101   2.150   3.149 -0.8387  0.8108 -0.2537
 2515SOL    HW3 9827   0.082   2.062   3.271  0.6183 -0.9885 -1.2695
 2515SOL    MW4 9828   0.051   2.119   3.213 -0.1215 -0.2427 -0.1640
 2516SOL     OW 9829   4.529   3.497   1.233 -0.1576  0.4999 -0.0561
 2516SOL    HW2 9830   4.449   3.450   1.208  0.0112 -0.5942  1.3415
 2516SOL    HW3 9831   4.497   3.573   1.282 -0.3536  0.6294 -0.3752
 2516SOL    MW4 9832   4.514   3.501   1.236 -0.1612  0.3726  0.0862
 2517SOL     OW 9833   3.136   4.078   2.240  0.2065 -0.1667 -0.0943
 2517SOL    HW2 9834   3.177   4.054   2.323 -0.3624  0.6286  0.4322
 2517SOL    HW3 9835   3.060   4.019   2.232  0.2151 -0.1882 -0.0101
 2517SOL    MW4 9836   3.131   4.067   2.250  0.1326 -0.0646 -0.0138
 2518SOL     OW 9837   0.626   3.842   0.254 -0.0119 -0.1530 -0.0417
 2518SOL    HW2 9838   0.662   3.922   0.216 -0.7770  1.0081  1.5750
 2518SOL    HW3 9839   0.588   3.795   0.179 -3.1782  2.9349 -0.6565
 2518SOL    MW4 9840   0.626   3.846   0.239 -0.5306  0.4076  0.0905
 2519SOL     OW 9841   4.414   2.871   0.517  0.2957 -0.4240  0.1541
 2519SOL    HW2 9842   4.345   2.937   0.521  1.1223  0.4607  0.5960
 2519SOL    HW3 9843   4.392   2.809   0.586 -0.6978 -0.8432 -0.5142
 2519SOL    MW4 9844   4.402   2.872   0.527  0.2737 -0.3626  0.1242
 2520SOL     OW 9845   4.064   5.414   1.366 -0.2322  0.0247 -0.0227
 2520SOL    HW2 9846   4.147   5.380   1.397 -0.0347  1.4044  1.0583
 2520SOL    HW3 9847   4.073   5.509   1.372 -1.0718  0.2933 -2.0795
 2520SOL    MW4 9848   4.076   5.422   1.371 -0.3169  0.2422 -0.1515
 2521SOL     OW 9849   4.381   0.708   4.432 -0.4510  0.0273  0.0039
 2521SOL    HW2 9850   4.451   0.723   4.496 -0.4998  0.0091  0.0612
 2521SOL    HW3 9851   4.376   0.790   4.383 -0.1022 -0.1141 -0.2799
 2521SOL    MW4 9852   4.390   0.721   4.434 -0.4114  0.0062 -0.0260
 2522SOL     OW 9853   6.212   4.371   0.746  0.2528 -0.0772 -0.0370
 2522SOL    HW2 9854   6.245   4.286   0.776 -0.4134 -0.4390 -0.3187
 2522SOL    HW3 9855   6.256   4.434   0.803 -0.3156 -0.6937  1.1193
 2522SOL    MW4 9856   6.222   4.368   0.758  0.0899 -0.2063  0.0784
 2523SOL     OW 9857   5.361   0.063   1.238 -0.1023 -0.5759 -0.1115
 2523SOL    HW2 9858   5.441   0.076   1.187 -0.2692  1.3584  0.0471
 2523SOL    HW3 9859   5.307   0.139   1.217 -1.0833 -0.8527  1.3011
 2523SOL    MW4 9860   5.365   0.075   1.228 -0.2537 -0.3572  0.0958
 2524SOL     OW 9861   3.207   2.937   5.575  0.2468 -0.3531 -0.1337
 2524SOL    HW2 9862   3.263   2.871   5.534 -0.2418 -0.4691 -0.6305
 2524SOL    HW3 9863   3.224   3.017   5.526 -0.5329 -0.5527 -0.7652
 2524SOL    MW4 9864   3.217   2.939   5.563  0.0795 -0.3947 -0.2826
 2525SOL     OW 9865   1.934   0.125   4.240  0.4133 -0.4243 -0.4012
 2525SOL    HW2 9866   1.855   0.146   4.191  0.8936  0.4819 -0.8210
 2525SOL    HW3 9867   1.964   0.209   4.275  1.3031 -0.7122 -0.4250
 2525SOL    MW4 9868   1.928   0.139   4.239  0.5941 -0.3427 -0.4597
 2526SOL     OW 9869   2.148   3.583   0.454  0.2732 -0.5962 -0.0037
 2526SOL    HW2 9870   2.228   3.539   0.427 -0.8023 -0.8697 -3.1373
 2526SOL    HW3 9871   2.147   3.665   0.404 -0.3952  0.4454  1.6150
 2526SOL    MW4 9872   2.158   3.588   0.444  0.0432 -0.4949 -0.2036
 2527SOL     OW 9873   0.562   0.184   1.347  0.3073  0.4523 -0.4124
 2527SOL    HW2 9874   0.524   0.212   1.264 -2.2596  0.3797  0.6480
 2527SOL    HW3 9875   0.596   0.264   1.386  1.8045  0.4449 -1.5963
 2527SOL    MW4 9876   0.561   0.198   1.341  0.1662  0.4418 -0.4287
 2528SOL     OW 9877   2.437   5.183   0.710 -0.8005 -0.3160  0.4220
 2528SOL    HW2 9878   2.470   5.215   0.794 -0.7636 -0.0629  0.3119
 2528SOL    HW3 9879   2.369   5.245   0.685 -0.3636 -0.0157 -0.0495
 2528SOL    MW4 9880   2.432   5.196   0.718 -0.7380 -0.2430  0.3453
 2529SOL     OW 9881   5.117   4.963   4.520 -0.1561  0.8381 -0.2175
 2529SOL    HW2 9882   5.187   4.898   4.524  0.0660  1.1127  0.3705
 2529SOL    HW3 9883   5.122   5.009   4.603 -1.5675  0.3249  0.1774
 2529SOL    MW4 9884   5.127   4.961   4.531 -0.3130  0.8066 -0.0878
 2530SOL     OW 9885   2.876   0.590   1.672 -0.5014 -0.1581  0.6336
 2530SOL    HW2 9886   2.918   0.530   1.734 -0.2918 -0.3759  0.2848
 2530SOL    HW3 9887   2.942   0.658   1.657 -0.0001 -0.8554 -0.4296
 2530SOL    MW4 9888   2.890   0.591   1.679 -0.4076 -0.2789  0.4473
 2531SOL     OW 9889   2.982   2.946   1.331  0.2221 -0.2618  0.1454
 2531SOL    HW2 9890   3.036   2.936   1.252  0.6756  1.6971  0.1677
 2531SOL    HW3 9891   2.919   2.874   1.325  1.2982 -1.1596 -1.1266
 2531SOL    MW4 9892   2.981   2.935   1.320  0.4239 -0.1218 -0.0195
 2532SOL     OW 9893   0.245   3.929   5.734  0.0570 -0.5015  0.0747
 2532SOL    HW2 9894   0.219   4.019   5.713  1.3634 -0.3485 -1.0519
 2532SOL    HW3 9895   0.251   3.927   5.829 -0.7922  0.3599  0.1633
 2532SOL    MW4 9896   0.243   3.941   5.744  0.1174 -0.3676 -0.0623
 2533SOL     OW 9897   3.391   3.005   1.011  0.6177 -0.5637  0.0882
 2533SOL    HW2 9898   3.404   2.966   0.925 -1.1740  0.3407 -0.6602
 2533SOL    HW3 9899   3.422   2.939   1.073  0.5390 -1.8584 -1.2064
 2533SOL    MW4 9900   3.397   2.991   1.008  0.3709 -0.6152 -0.1814
 2534SOL     OW 9901   1.869   0.161   5.542  0.1109 -0.0785  0.9646
 2534SOL    HW2 9902   1.934   0.095   5.567  1.1295  0.6649  0.3669
 2534SOL    HW3 9903   1.872   0.226   5.613  0.7713  0.4673  0.4519
 2534SOL    MW4 9904   1.878   0.161   5.555  0.3324  0.0916  0.8181
 2535SOL     OW 9905   1.829   0.756   0.214  0.1868  0.1954 -0.1277
 2535SOL    HW2 9906   1.894   0.689   0.192  1.3801  0.6035  1.9074
 2535SOL    HW3 9907   1.748   0.707   0.228  0.8694 -0.7465  0.6278
 2535SOL    MW4 9908   1.826   0.740   0.213  0.4343  0.1250  0.2405
 2536SOL     OW 9909   4.161   3.454   3.974  0.6783  0.2128 -0.2342
 2536SOL    HW2 9910   4.235   3.514   3.984  1.4108 -0.5890 -0.7084
 2536SOL    HW3 9911   4.145   3.421   4.062  2.2037 -1.1073 -0.3978
 2536SOL    MW4 9912   4.169   3.457   3.987  0.9762 -0.0671 -0.3184
 2537SOL     OW 9913   2.550   0.198   5.980 -0.5684  0.7515  0.2105
 2537SOL    HW2 9914   2.517   0.231   5.896 -2.0203  1.8978  1.1735
 2537SOL    HW3 9915   2.559   0.104   5.967  4.1964  1.2855 -2.8205
 2537SOL    MW4 9916   2.546   0.190   5.967 -0.1313  0.9732 -0.0624
 2538SOL     OW 9917   4.060   5.655   4.202 -0.1129  0.0395  0.6510
 2538SOL    HW2 9918   4.002   5.608   4.142  0.3841  0.1067  0.1054
 2538SOL    HW3 9919   4.076   5.739   4.160 -0.5876  0.5009  1.3792
 2538SOL    MW4 9920   4.055   5.660   4.189 -0.1099  0.1092  0.6751
 2539SOL     OW 9921   0.073   3.228   1.772  0.1090  0.3381 -0.0905
 2539SOL    HW2 9922   0.017   3.239   1.695  0.8655 -0.9874 -0.8551
 2539SOL    HW3 9923   0.024   3.168   1.829  0.1402  0.2635 -0.1420
 2539SOL    MW4 9924   0.059   3.222   1.770  0.2129  0.1534 -0.1982
 2540SOL     OW 9925   4.170   4.753   2.977 -0.0816 -0.0314  0.1984
 2540SOL    HW2 9926   4.189   4.762   3.070 -1.0095 -1.6195  0.5771
 2540SOL    HW3 9927   4.111   4.678   2.971  1.2000 -0.9768 -1.8355
 2540SOL    MW4 9928   4.165   4.745   2.988 -0.0349 -0.3657 -0.0200
 2541SOL     OW 9929   1.005   3.805   0.224  0.2629  0.0461 -0.1003
 2541SOL    HW2 9930   1.006   3.867   0.152  0.4335 -0.0367 -0.1699
 2541SOL    HW3 9931   1.020   3.720   0.183 -2.1278 -0.3494 -0.2775
 2541SOL    MW4 9932   1.007   3.802   0.209 -0.0300 -0.0170 -0.1329
 2542SOL     OW 9933   3.469   5.847   4.388  0.7011 -0.4238 -0.0328
 2542SOL    HW2 9934   3.391   5.794   4.402  1.5115 -1.3978  1.0008
 2542SOL    HW3 9935   3.510   5.809   4.310  0.1523  0.0883 -0.5755
 2542SOL    MW4 9936   3.464   5.835   4.380  0.7356 -0.4847  0.0319
 2543SOL     OW 9937   1.968   3.991   0.948 -0.1749  0.1359 -0.1426
 2543SOL    HW2 9938   2.039   3.946   0.994 -0.1797 -0.7790 -1.0039
 2543SOL    HW3 9939   1.927   3.923   0.894 -0.7023  1.0006 -0.8560
 2543SOL    MW4 9940   1.972   3.976   0.947 -0.2451  0.1293 -0.3504
 2544SOL     OW 9941   2.810   5.417   2.159 -0.1017  0.2338 -0.0642
 2544SOL    HW2 9942   2.788   5.431   2.067 -0.6653 -0.5408 -0.0533
 2544SOL    HW3 9943   2.748   5.351   2.190  0.5274 -0.0334  0.6853
 2544SOL    MW4 9944   2.799   5.410   2.151 -0.0930  0.0964  0.0361
 2545SOL     OW 9945   0.982   5.672   3.103 -0.4020 -0.2935 -0.3605
 2545SOL    HW2 9946   1.000   5.666   3.197 -3.9855  0.5065  0.5269
 2545SOL    HW3 9947   0.947   5.760   3.091 -0.1378 -0.4339 -2.4626
 2545SOL    MW4 9948   0.980   5.683   3.114 -0.8399 -0.2064 -0.5208
 2546SOL     OW 9949   1.036   4.511   0.816  0.3445 -0.1030 -0.7217
 2546SOL    HW2 9950   1.031   4.553   0.902 -0.3882 -1.2357 -0.1904
 2546SOL    HW3 9951   1.041   4.584   0.754  1.4786  0.7274  0.2945
 2546SOL    MW4 9952   1.036   4.526   0.819  0.3975 -0.1429 -0.5175
 2547SOL     OW 9953   5.476   0.209   3.845  0.7795 -0.2034 -0.0671
 2547SOL    HW2 9954   5.460   0.124   3.886  1.1268 -1.8740 -3.1493
 2547SOL    HW3 9955   5.563   0.234   3.874  1.6862 -2.1267 -0.9790
 2547SOL    MW4 9956   5.485   0.201   3.854  0.9449 -0.6776 -0.5941
 2548SOL     OW 9957   2.676   5.803   0.670  0.7637  0.1404 -0.3194
 2548SOL    HW2 9958   2.768   5.780   0.655  1.5014 -1.0576  4.3723
 2548SOL    HW3 9959   2.679   5.893   0.702  0.4270 -0.1354  0.5073
 2548SOL    MW4 9960   2.688   5.812   0.672  0.8166 -0.0541  0.4087
 2549SOL     OW 9961   1.818   5.906   4.354 -0.2281 -0.3747 -0.3486
 2549SOL    HW2 9962   1.814   5.814   4.328 -0.9694 -0.5627  0.3886
 2549SOL    HW3 9963   1.912   5.924   4.363 -0.0263 -0.7681 -1.4542
 2549SOL    MW4 9964   1.830   5.896   4.352 -0.2992 -0.4514 -0.3972
 2550SOL     OW 9965   6.249   1.501   3.442  0.1193  0.1022 -0.6092
 2550SOL    HW2 9966   6.189   1.530   3.512  0.6560  1.1861 -0.5697
 2550SOL    HW3 9967   6.320   1.565   3.444  0.2831 -0.0131 -1.9733
 2550SOL    MW4 9968   6.250   1.513   3.452  0.2117  0.2300 -0.7839
 2551SOL     OW 9969   5.103   2.482   4.509  0.2465 -0.0889  0.1923
 2551SOL    HW2 9970   5.035   2.515   4.450 -0.5020 -0.9764  0.5333
 2551SOL    HW3 9971   5.108   2.547   4.579 -1.0736 -0.5725  0.7599
 2551SOL    MW4 9972   5.095   2.495   4.510 -0.0264 -0.2698  0.3122
 2552SOL     OW 9973   4.118   2.699   0.257  0.2143  0.6014  0.2766
 2552SOL    HW2 9974   4.085   2.638   0.191  2.7163 -0.4029 -0.1396
 2552SOL    HW3 9975   4.105   2.655   0.341  1.4078 -0.2481  0.0290
 2552SOL    MW4 9976   4.112   2.685   0.259  0.7019  0.3568  0.1890
 2553SOL     OW 9977   2.350   2.486   1.913 -0.3611  0.2800 -0.8692
 2553SOL    HW2 9978   2.366   2.482   2.007 -2.2615 -2.0183 -0.5405
 2553SOL    HW3 9979   2.353   2.395   1.884  2.0475  1.0514 -3.4529
 2553SOL    MW4 9980   2.352   2.473   1.922 -0.2940  0.0785 -1.1667
 2554SOL     OW 9981   5.636   5.856   1.747 -0.1404 -0.0965  0.4028
 2554SOL    HW2 9982   5.572   5.924   1.731 -0.7801 -0.5486  0.9742
 2554SOL    HW3 9983   5.695   5.860   1.672  0.3794  1.6722  0.8605
 2554SOL    MW4 9984   5.635   5.865   1.735 -0.1562  0.0772  0.5385
 2555SOL     OW 9985   3.395   5.593   0.763 -0.3866  1.0382  0.2701
 2555SOL    HW2 9986   3.425   5.667   0.710  0.8578 -0.4740 -1.2183
 2555SOL    HW3 9987   3.395   5.627   0.853  0.5085  2.7399 -0.3297
 2555SOL    MW4 9988   3.399   5.608   0.768 -0.1044  1.0632 -0.0054
 2556SOL     OW 9989   2.157   3.599   1.122 -0.4137  0.3018 -0.0892
 2556SOL    HW2 9990   2.243   3.561   1.140  0.2188  1.6277 -0.2295
 2556SOL    HW3 9991   2.105   3.577   1.200  0.1708 -0.1399  0.1855
 2556SOL    MW4 9992   2.162   3.591   1.135 -0.2531  0.4184 -0.0715
 2557SOL     OW 9993   4.491   0.009   5.850  0.0419  0.0774 -0.2298
 2557SOL    HW2 9994   4.475  -0.039   5.931  1.7790 -1.2974 -0.6562
 2557SOL    HW3 9995   4.582  -0.008   5.828 -0.5394 -0.1734 -2.8606
 2557SOL    MW4 9996   4.501   0.001   5.858  0.1944 -0.1371 -0.6332
 2558SOL     OW 9997   2.820   5.826   6.217  0.5768 -0.0319 -0.7005
 2558SOL    HW2 9998   2.873   5.826   6.137  3.1170 -0.0315  0.8554
 2558SOL    HW3 9999   2.858   5.755   6.270  0.6961  1.5571  1.4969
 2558SOL    MW410000   2.832   5.817   6.213  0.9277  0.1778 -0.2053
 2559SOL     OW10001   0.078   2.425   1.612  0.5534  0.8675 -0.1594
 2559SOL    HW210002   0.098   2.332   1.618  2.3642  1.2730  1.1168
 2559SOL    HW310003   0.030   2.434   1.530  2.8409 -0.8007 -1.8305
 2559SOL    MW410004   0.075   2.414   1.602  1.0942  0.7009 -0.2115
 2560SOL     OW10005   4.095   6.324   5.083  0.1716  0.5341 -0.0846
 2560SOL    HW210006   4.054   6.237   5.093 -0.5119  0.9434  0.7970
 2560SOL    HW310007   4.061   6.357   5.000  0.6589 -0.1483 -0.5697
 2560SOL    MW410008   4.085   6.317   5.073  0.1457  0.4980 -0.0323
 2561SOL     OW10009   3.230   0.607   1.813 -0.2934 -0.9721 -0.3497
 2561SOL    HW210010   3.251   0.639   1.726  3.7154 -1.3976  0.2942
 2561SOL    HW310011   3.206   0.685   1.863  1.0247 -0.1534 -0.9472
 2561SOL    MW410012   3.229   0.621   1.808  0.4094 -0.9202 -0.3436
 2562SOL     OW10013   5.450   1.788   0.463 -0.2261 -0.1227 -0.0495
 2562SOL    HW210014   5.399   1.735   0.524 -1.9784 -0.8806 -2.0437
 2562SOL    HW310015   5.460   1.733   0.385 -0.7060  1.8337 -1.5948
 2562SOL    MW410016   5.444   1.774   0.461 -0.5206  0.0354 -0.5165
 2563SOL     OW10017   5.073   5.578   4.119 -0.1974  0.2993 -0.2991
 2563SOL    HW210018   5.005   5.540   4.063 -0.4528  1.5020 -0.8431
 2563SOL    HW310019   5.025   5.627   4.186  0.1196 -0.4813  0.5062
 2563SOL    MW410020   5.058   5.580   4.120 -0.1892  0.3550 -0.2647
 2564SOL     OW10021   0.299   0.416   5.591  0.5372  0.1330 -0.9561
 2564SOL    HW210022   0.333   0.505   5.598 -0.7283  0.6025 -0.3567
 2564SOL    HW310023   0.224   0.414   5.652  1.7133 -1.9265  0.5598
 2564SOL    MW410024   0.293   0.427   5.600  0.5254 -0.0768 -0.6770
 2565SOL     OW10025   4.422   0.365   2.939 -0.1217  0.9243  0.0578
 2565SOL    HW210026   4.513   0.381   2.915  0.3088 -0.3972  0.7358
 2565SOL    HW310027   4.372   0.397   2.863  0.7573  3.1386  0.3281
 2565SOL    MW410028   4.427   0.372   2.926  0.0510  1.0421  0.1829
 2566SOL     OW10029   0.723   0.106   1.017 -0.6063 -0.5845 -0.1899
 2566SOL    HW210030   0.769   0.086   1.099 -1.7010 -0.0040  0.5897
 2566SOL    HW310031   0.728   0.024   0.967  1.5465 -0.4468 -0.3085
 2566SOL    MW410032   0.730   0.092   1.022 -0.4667 -0.4897 -0.1027
 2567SOL     OW10033   4.196   4.142   2.692  0.2630  0.1775 -0.6693
 2567SOL    HW210034   4.168   4.229   2.664  0.1257  0.0382 -0.9753
 2567SOL    HW310035   4.127   4.112   2.750  1.0699  0.9066  0.7060
 2567SOL    MW410036   4.183   4.149   2.696  0.3513  0.2553 -0.5282
 2568SOL     OW10037   5.636   5.730   6.196  0.1430 -0.4929  0.6348
 2568SOL    HW210038   5.641   5.801   6.132  0.2911 -1.8411 -0.9222
 2568SOL    HW310039   5.727   5.707   6.214  0.0959 -0.3171  1.1071
 2568SOL    MW410040   5.648   5.736   6.190  0.1564 -0.6476  0.4917
 2569SOL     OW10041   5.884   0.156   3.316  0.2086 -0.3679 -0.6531
 2569SOL    HW210042   5.976   0.178   3.301  0.5515 -0.4741  1.0288
 2569SOL    HW310043   5.885   0.097   3.391 -1.2450 -0.2575 -0.5045
 2569SOL    MW410044   5.896   0.151   3.324  0.0620 -0.3674 -0.4116
 2570SOL     OW10045   0.825   5.940   2.976  0.2393 -0.0356  0.2300
 2570SOL    HW210046   0.844   5.930   2.883  1.2223  0.2426  0.3953
 2570SOL    HW310047   0.740   5.985   2.978  0.0087 -0.4215 -0.5241
 2570SOL    MW410048   0.816   5.945   2.964  0.3386 -0.0498  0.1523
 2571SOL     OW10049   5.504   4.644   1.260 -0.1694 -0.3123 -0.0022
 2571SOL    HW210050   5.469   4.647   1.349  2.4320  1.6263  1.0984
 2571SOL    HW310051   5.439   4.690   1.207 -1.5564 -1.1047  0.9553
 2571SOL    MW410052   5.491   4.651   1.265 -0.0092 -0.1611  0.2694
 2572SOL     OW10053   2.308   3.941   0.006 -0.3597 -0.0059 -1.2602
 2572SOL    HW210054   2.247   3.872  -0.019 -0.7323 -0.2283  0.1386
 2572SOL    HW310055   2.375   3.941  -0.062 -0.3779 -1.7239 -1.3217
 2572SOL    MW410056   2.309   3.932  -0.006 -0.4113 -0.2619 -1.0837
 2573SOL     OW10057   5.504   5.026   0.692  0.4677  0.1179 -0.2050
 2573SOL    HW210058   5.577   5.040   0.631  1.4423 -0.8291  0.7025
 2573SOL    HW310059   5.514   5.095   0.757 -0.2890  0.8329 -0.8202
 2573SOL    MW410060   5.515   5.037   0.693  0.4965  0.0873 -0.1665
 2574SOL     OW10061   0.354   5.192   2.639 -0.4936 -0.1718  0.0778
 2574SOL    HW210062   0.316   5.142   2.711 -0.5224 -0.3768 -0.0766
 2574SOL    HW310063   0.374   5.278   2.676  1.2087 -0.8469  0.8356
 2574SOL    MW410064   0.352   5.197   2.653 -0.2728 -0.2879  0.1574
 2575SOL     OW10065   2.031   3.320   1.631  0.0279  0.1454  0.2860
 2575SOL    HW210066   2.003   3.368   1.553 -2.4521 -0.6775  0.5802
 2575SOL    HW310067   1.994   3.370   1.704  0.7652 -0.0855  0.8208
 2575SOL    MW410068   2.022   3.333   1.630 -0.2021  0.0063  0.3954
 2576SOL     OW10069   3.561   1.783   4.581  0.7431  0.0314  0.0422
 2576SOL    HW210070   3.557   1.778   4.485  3.1548 -2.6367 -0.0666
 2576SOL    HW310071   3.488   1.730   4.611  1.1907 -0.8480 -0.3909
 2576SOL    MW410072   3.551   1.775   4.572  1.1204 -0.4367 -0.0293
 2577SOL     OW10073   5.875   1.682   0.998  0.1490  0.0243 -0.3953
 2577SOL    HW210074   5.897   1.696   1.090 -1.8510 -1.6835  0.4304
 2577SOL    HW310075   5.955   1.702   0.951  0.9738  1.8180  1.6160
 2577SOL    MW410076   5.888   1.686   1.004 -0.0060  0.0357 -0.0210
 2578SOL     OW10077   5.434   6.371   3.072 -0.4926 -0.0261 -0.6513
 2578SOL    HW210078   5.404   6.448   3.120 -1.7592  0.0222 -1.4743
 2578SOL    HW310079   5.453   6.404   2.984 -0.6479 -0.5656 -0.8924
 2578SOL    MW410080   5.433   6.386   3.067 -0.6802 -0.0909 -0.7917
 2579SOL     OW10081   2.216   0.209   0.354  0.6255 -0.1581 -0.1042
 2579SOL    HW210082   2.268   0.273   0.304 -0.7441  0.2234 -1.1232
 2579SOL    HW310083   2.126   0.241   0.346  0.3586  0.2001  3.0760
 2579SOL    MW410084   2.211   0.222   0.346  0.4096 -0.0605  0.1809
 2580SOL     OW10085   3.556   1.972   6.152  0.5059 -0.2624  0.1695
 2580SOL    HW210086   3.548   1.904   6.085 -1.2737 -1.7092  1.7528
 2580SOL    HW310087   3.536   2.053   6.106  1.4039 -0.9309 -1.4920
 2580SOL    MW410088   3.552   1.973   6.137  0.3896 -0.5415  0.1592
 2581SOL     OW10089   3.939   5.338   5.808  0.3747 -0.6512 -0.3166
 2581SOL    HW210090   4.013   5.398   5.797 -1.4833  1.7331 -0.6445
 2581SOL    HW310091   3.970   5.274   5.872  2.9018 -0.1145 -0.8789
 2581SOL    MW410092   3.953   5.337   5.815  0.4630 -0.2658 -0.4340
 2582SOL     OW10093   5.231   5.520   0.106  0.3987  0.1204 -0.0426
 2582SOL    HW210094   5.287   5.576   0.052 -0.8820  1.2179 -0.3017
 2582SOL    HW310095   5.262   5.534   0.195  0.4105  0.9025 -0.1587
 2582SOL    MW410096   5.242   5.529   0.111  0.2313  0.3684 -0.0921
 2583SOL     OW10097   5.190   5.876   0.081 -0.5682 -0.3471  0.2189
 2583SOL    HW210098   5.249   5.833   0.019 -0.0542  1.5422 -0.6515
 2583SOL    HW310099   5.117   5.814   0.090  0.4763 -1.7306 -0.3961
 2583SOL    MW410100   5.188   5.862   0.074 -0.3626 -0.2804  0.0229
 2584SOL     OW10101   0.488   3.043   3.879  0.0864  0.6349 -0.0198
 2584SOL    HW210102   0.557   3.021   3.815  0.2071 -1.1715  0.6592
 2584SOL    HW310103   0.507   3.133   3.905  2.2270  0.1997  0.1429
 2584SOL    MW410104   0.500   3.052   3.874  0.3848  0.3392  0.0912
 2585SOL     OW10105   4.973   1.390   3.437 -0.1668 -0.4291  0.6524
 2585SOL    HW210106   4.939   1.377   3.348  0.6880  0.0291  0.2520
 2585SOL    HW310107   5.067   1.401   3.426 -0.1999  0.9628  1.4648
 2585SOL    MW410108   4.981   1.390   3.424 -0.0584 -0.1850  0.7067
 2586SOL     OW10109   4.986   5.710   0.127 -0.4340 -0.3204 -0.4353
 2586SOL    HW210110   5.043   5.667   0.191 -0.9277 -1.9038 -1.0086
 2586SOL    HW310111   4.969   5.643   0.061 -1.0667  0.8476 -1.5095
 2586SOL    MW410112   4.991   5.695   0.127 -0.5826 -0.3752 -0.6527
 2587SOL     OW10113   1.900   3.404   4.461  0.1379 -0.3256  0.1750
 2587SOL    HW210114   1.897   3.425   4.368  2.4567 -0.1097  0.0959
 2587SOL    HW310115   1.881   3.310   4.465 -3.0137  0.1792 -0.1388
 2587SOL    MW410116   1.897   3.394   4.449  0.0280 -0.2305  0.1232
 2588SOL     OW10117   0.308   5.289   4.141  0.3599 -0.4285  0.0701
 2588SOL    HW210118   0.302   5.195   4.130  3.1572 -0.5801 -0.8788
 2588SOL    HW310119   0.264   5.307   4.224 -1.1459 -2.3858 -0.2553
 2588SOL    MW410120   0.302   5.279   4.151  0.5303 -0.7067 -0.0980
 2589SOL     OW10121   3.489   2.455   4.831 -0.1966  0.2699 -0.6757
 2589SOL    HW210122   3.502   2.544   4.865 -1.2461 -0.0613  0.6596
 2589SOL    HW310123   3.403   2.458   4.789 -1.8129 -0.8826  2.2755
 2589SOL    MW410124   3.480   2.467   4.830 -0.5483  0.0741 -0.1101
 2590SOL     OW10125   4.286   3.353   1.153  0.4983 -0.2093 -0.4511
 2590SOL    HW210126   4.215   3.405   1.191 -1.7795 -2.0620 -1.9034
 2590SOL    HW310127   4.314   3.402   1.077  0.1310  0.1011 -0.3878
 2590SOL    MW410128   4.280   3.366   1.148  0.1493 -0.4128 -0.6344
 2591SOL     OW10129   0.971   5.348   6.246 -0.1074  0.3187  0.0609
 2591SOL    HW210130   0.876   5.343   6.249 -0.1128 -0.3933 -0.8117
 2591SOL    HW310131   0.996   5.389   6.329 -1.1619  0.3991  0.3498
 2591SOL    MW410132   0.962   5.352   6.257 -0.2473  0.2354 -0.0161
 2592SOL     OW10133   0.373   3.479   0.410  0.2568 -0.1759 -0.2397
 2592SOL    HW210134   0.366   3.567   0.373 -1.0653  0.0083  0.4083
 2592SOL    HW310135   0.351   3.421   0.337 -0.3826  0.1045 -0.2761
 2592SOL    MW410136   0.369   3.483   0.395 -0.0020 -0.1146 -0.1590
 2593SOL     OW10137   2.808   4.468   5.266 -0.0091 -0.5634  0.2568
 2593SOL    HW210138   2.895   4.507   5.273 -0.0974 -0.1991 -0.5512
 2593SOL    HW310139   2.748   4.539   5.290 -0.2464  0.3140 -2.5369
 2593SOL    MW410140   2.812   4.483   5.270 -0.0521 -0.3996 -0.2184
 2594SOL     OW10141   4.787   3.920   4.716  0.7695  0.2515  0.2366
 2594SOL    HW210142   4.810   3.929   4.624 -0.3472 -0.6409 -0.1438
 2594SOL    HW310143   4.742   4.002   4.737 -0.6394 -0.2858 -0.5427
 2594SOL    MW410144   4.785   3.932   4.707  0.4363  0.0629  0.0836
 2595SOL     OW10145   2.668   3.611   2.371  0.2917  0.3736 -0.0270
 2595SOL    HW210146   2.671   3.674   2.443 -1.0029 -1.5499  1.8405
 2595SOL    HW310147   2.757   3.578   2.364  0.1503 -0.4864  1.7679
 2595SOL    MW410148   2.680   3.615   2.379  0.1022  0.0064  0.4562
 2596SOL     OW10149   4.544   4.193   5.674 -0.1306 -0.2477  0.1442
 2596SOL    HW210150   4.523   4.279   5.712 -1.1835 -0.8803  1.0400
 2596SOL    HW310151   4.602   4.214   5.601 -0.7229  1.2688  0.0598
 2596SOL    MW410152   4.549   4.207   5.670 -0.3476 -0.1310  0.2512
 2597SOL     OW10153   0.601   4.345   5.273 -0.5395  0.4128 -0.1862
 2597SOL    HW210154   0.694   4.344   5.248  0.4821  1.6949  3.1399
 2597SOL    HW310155   0.568   4.427   5.237  0.7863  2.0333  2.0669
 2597SOL    MW410156   0.609   4.355   5.265 -0.2298  0.7957  0.5499
 2598SOL     OW10157   4.675   1.583   0.727 -0.6017  0.4917  0.1533
 2598SOL    HW210158   4.683   1.675   0.753 -0.0881  0.6446 -0.4982
 2598SOL    HW310159   4.637   1.587   0.639  1.0916  0.1897 -0.6291
 2598SOL    MW410160   4.671   1.596   0.719 -0.3105  0.4720 -0.0359
 2599SOL     OW10161   4.616   3.852   1.016  0.1342 -0.4464  0.1295
 2599SOL    HW210162   4.664   3.785   1.065  0.2983 -1.0606 -0.8365
 2599SOL    HW310163   4.685   3.906   0.977  0.0392  2.0421  3.1240
 2599SOL    MW410164   4.632   3.850   1.017  0.1433 -0.1991  0.3971
 2600SOL     OW10165   3.197   3.566   5.724 -0.0626 -0.2467 -0.2344
 2600SOL    HW210166   3.170   3.588   5.813 -0.2653  0.2768 -0.4159
 2600SOL    HW310167   3.140   3.619   5.668 -0.0443 -0.6870 -0.6802
 2600SOL    MW410168   3.186   3.576   5.728 -0.0869 -0.2357 -0.3172
 2601SOL     OW10169   1.275   3.684   2.679 -0.8207  0.7150  0.0004
 2601SOL    HW210170   1.325   3.603   2.692  0.0019  1.6440  4.2279
 2601SOL    HW310171   1.326   3.734   2.616  0.4012 -0.7388 -0.2197
 2601SOL    MW410172   1.288   3.680   2.672 -0.5510  0.6458  0.5291
 2602SOL     OW10173   5.672   5.486   3.096 -0.8577  0.4455  0.4998
 2602SOL    HW210174   5.658   5.521   3.008 -0.0864 -1.6450 -0.5214
 2602SOL    HW310175   5.756   5.522   3.123 -1.0635  1.0445  0.3721
 2602SOL    MW410176   5.681   5.495   3.088 -0.7831  0.2488  0.3482
 2603SOL     OW10177   3.734   1.663   3.874 -1.0293 -0.1208 -0.8422
 2603SOL    HW210178   3.742   1.757   3.891 -0.0487 -0.1750 -0.9810
 2603SOL    HW310179   3.684   1.658   3.793 -0.3906  0.3013 -1.2657
 2603SOL    MW410180   3.728   1.675   3.866 -0.8157 -0.0723 -0.9164
 2604SOL     OW10181   6.276   4.954   3.369  0.1807 -0.0209 -0.1562
 2604SOL    HW210182   6.250   4.895   3.298 -0.0647  0.1691 -0.2282
 2604SOL    HW310183   6.253   4.907   3.449  0.2415 -0.1379 -0.2073
 2604SOL    MW410184   6.269   4.940   3.370  0.1564 -0.0113 -0.1724
 2605SOL     OW10185   6.120   2.992   4.956  0.2790 -0.0846 -0.2723
 2605SOL    HW210186   6.106   3.083   4.931  1.0109 -0.0201 -0.4749
 2605SOL    HW310187   6.120   2.992   5.051  0.8839  0.2321 -0.2696
 2605SOL    MW410188   6.119   3.004   4.965  0.4554 -0.0343 -0.2987
 2606SOL     OW10189   6.103   0.926   4.752  0.3535  0.2776 -0.3050
 2606SOL    HW210190   6.114   1.010   4.797 -0.6872  0.7807 -0.9407
 2606SOL    HW310191   6.019   0.893   4.785  1.3894 -1.2057  0.9861
 2606SOL    MW410192   6.093   0.933   4.763  0.3529  0.1483 -0.2186
 2607SOL     OW10193   3.194   1.147   0.916  0.6671  0.7278 -0.5452
 2607SOL    HW210194   3.105   1.180   0.903 -0.1928 -1.5160 -0.8406
 2607SOL    HW310195   3.234   1.209   0.977 -1.9087  0.4939  1.5524
 2607SOL    MW410196   3.188   1.159   0.922  0.2138  0.4009 -0.3074
 2608SOL     OW10197   3.680   1.518   4.591  0.0418 -0.1452 -0.1003
 2608SOL    HW210198   3.705   1.506   4.499  0.0000 -2.4068  0.1069
 2608SOL    HW310199   3.644   1.606   4.596  0.7049  0.2775 -2.1000
 2608SOL    MW410200   3.679   1.528   4.580  0.1238 -0.3879 -0.3368
 2609SOL     OW10201   4.442   6.236   1.385  0.0856 -0.0055  0.0999
 2609SOL    HW210202   4.456   6.155   1.433 -1.7436 -0.8577 -0.7040
 2609SOL    HW310203   4.466   6.214   1.295  0.3564  0.5877  0.0254
 2609SOL    MW410204   4.447   6.222   1.379 -0.1200 -0.0396 -0.0160
 2610SOL     OW10205   0.982   3.123   4.206 -0.0170  0.5665  0.3320
 2610SOL    HW210206   0.984   3.038   4.250 -0.2306  1.0846  1.3952
 2610SOL    HW310207   1.048   3.117   4.137 -0.4825 -0.6681 -0.0246
 2610SOL    MW410208   0.991   3.111   4.203 -0.1066  0.4720  0.4252
 2611SOL     OW10209   3.551   5.525   5.553  0.0099 -1.0105  0.5376
 2611SOL    HW210210   3.579   5.434   5.549 -1.1027 -1.3239 -0.2750
 2611SOL    HW310211   3.595   5.559   5.631  3.1731 -1.2827 -0.9353
 2611SOL    MW410212   3.561   5.518   5.563  0.2805 -1.0877  0.2361
 2612SOL     OW10213   3.690   2.397   6.272 -0.0638  0.0786  0.1177
 2612SOL    HW210214   3.621   2.378   6.335  0.3336  0.4707  0.6855
 2612SOL    HW310215   3.724   2.482   6.299 -0.2212  0.4921 -0.9336
 2612SOL    MW410216   3.685   2.406   6.284 -0.0321  0.1849  0.0539
 2613SOL     OW10217   3.628   4.044   0.776 -0.0702  0.2991 -0.3357
 2613SOL    HW210218   3.533   4.035   0.774 -0.1004  0.5340  0.0890
 2613SOL    HW310219   3.655   4.023   0.686 -0.2728 -2.3360  0.1424
 2613SOL    MW410220   3.619   4.040   0.764 -0.1009 -0.0176 -0.2166
 2614SOL     OW10221   3.644   4.505   0.835 -0.5548 -0.0283 -0.2071
 2614SOL    HW210222   3.658   4.595   0.807 -1.5725 -0.1141 -1.0429
 2614SOL    HW310223   3.637   4.510   0.930 -1.0869  0.8377 -0.2863
 2614SOL    MW410224   3.645   4.517   0.844 -0.7593  0.0747 -0.3278
 2615SOL     OW10225   6.076   4.074   4.160  0.2336 -0.2723  0.2793
 2615SOL    HW210226   6.133   4.126   4.216 -1.2548  1.0880  0.6260
 2615SOL    HW310227   6.003   4.049   4.217 -2.6212  3.2393 -1.4277
 2615SOL    MW410228   6.074   4.077   4.175 -0.3394  0.3705  0.0998
 2616SOL     OW10229   3.570   2.259   1.695  0.1713  0.6872  0.0432
 2616SOL    HW210230   3.564   2.354   1.687  1.1589  0.8335  0.8421
 2616SOL    HW310231   3.616   2.231   1.616 -1.4559  0.6923 -0.9329
 2616SOL    MW410232   3.575   2.268   1.684  0.0869  0.7072  0.0198
 2617SOL     OW10233   5.641   6.271   6.278  0.1337 -0.3700  0.8845
 2617SOL    HW210234   5.583   6.219   6.223  1.2867  0.7953 -1.5857
 2617SOL    HW310235   5.724   6.223   6.277  0.6008  0.4246  0.3035
 2617SOL    MW410236   5.644   6.258   6.271  0.3474 -0.1114  0.4819
 2618SOL     OW10237   3.220   6.310   2.627 -0.0081 -0.3833  0.2775
 2618SOL    HW210238   3.136   6.352   2.611  1.3350  2.9791  1.3077
 2618SOL    HW310239   3.267   6.318   2.544 -0.0677 -0.7502  0.2043
 2618SOL    MW410240   3.215   6.316   2.614  0.1612  0.0119  0.4038
 2619SOL     OW10241   2.137   4.164   2.514 -0.5818 -0.1191  0.4529
 2619SOL    HW210242   2.165   4.224   2.445 -0.8525 -1.3265 -0.7360
 2619SOL    HW310243   2.216   4.116   2.538 -1.0380 -1.7759 -1.1498
 2619SOL    MW410244   2.151   4.166   2.508 -0.6777 -0.4970  0.0846
 2620SOL     OW10245   2.826   2.654   5.697 -0.5180  0.1211 -0.2288
 2620SOL    HW210246   2.742   2.695   5.677 -0.0951 -0.1305 -2.9132
 2620SOL    HW310247   2.803   2.573   5.742 -1.6510  0.5692  0.0317
 2620SOL    MW410248   2.812   2.648   5.700 -0.6117  0.1470 -0.5486
 2621SOL     OW10249   5.790   4.640   2.586 -0.1085 -0.3636  0.5065
 2621SOL    HW210250   5.736   4.561   2.579  0.4744 -0.7425  0.2134
 2621SOL    HW310251   5.729   4.712   2.571 -0.6340 -0.7625  0.7130
 2621SOL    MW410252   5.775   4.639   2.583 -0.1009 -0.4662  0.4950
 2622SOL     OW10253   1.938   2.732   5.807  0.4730  0.1997 -0.1236
 2622SOL    HW210254   1.987   2.655   5.836  0.3287  0.2963  0.3882
 2622SOL    HW310255   1.920   2.716   5.714  0.4315 -0.3879 -0.0165
 2622SOL    MW410256   1.942   2.719   5.799  0.4485  0.1350 -0.0419
 2623SOL     OW10257   0.906   1.520   3.366  0.1009  0.3728  0.1233
 2623SOL    HW210258   0.906   1.472   3.449  0.0350  0.7690  0.3552
 2623SOL    HW310259   0.815   1.546   3.353  0.1094  0.3050 -0.0795
 2623SOL    MW410260   0.894   1.517   3.375  0.0933  0.4162  0.1271
 2624SOL     OW10261   6.160   3.460   5.292  0.2361  0.0914 -0.3207
 2624SOL    HW210262   6.212   3.512   5.232 -0.6172 -1.6318 -2.7179
 2624SOL    HW310263   6.195   3.371   5.284 -0.2092 -0.2810  1.4235
 2624SOL    MW410264   6.171   3.455   5.283  0.0647 -0.1851 -0.4068
 2625SOL     OW10265   2.107   0.459   4.623 -0.0793  0.1550 -0.4145
 2625SOL    HW210266   2.047   0.515   4.672 -0.4211 -0.5021 -0.0757
 2625SOL    HW310267   2.194   0.497   4.640 -0.1742 -0.1601  0.8459
 2625SOL    MW410268   2.111   0.472   4.632 -0.1369  0.0268 -0.2035
 2626SOL     OW10269   5.530   4.815   0.862  0.2262 -0.0465 -0.7716
 2626SOL    HW210270   5.519   4.881   0.794  1.5645  1.6689  0.5744
 2626SOL    HW310271   5.556   4.865   0.940 -0.5726 -1.9861  0.8364
 2626SOL    MW410272   5.532   4.830   0.863  0.2974 -0.0760 -0.3819
 2627SOL     OW10273   1.929   1.344   0.117 -0.4185 -0.0578 -0.3393
 2627SOL    HW210274   1.913   1.252   0.137 -0.7284 -0.0238 -0.4290
 2627SOL    HW310275   1.868   1.392   0.172 -0.9039  0.0573 -0.9582
 2627SOL    MW410276   1.919   1.339   0.127 -0.5235 -0.0382 -0.4328
 2628SOL     OW10277   4.248   3.012   4.953  0.1829 -0.0176  0.2867
 2628SOL    HW210278   4.265   3.055   5.037  0.4204 -1.7318  1.1524
 2628SOL    HW310279   4.153   3.015   4.944  0.2385  1.3210 -0.0381
 2628SOL    MW410280   4.238   3.018   4.963  0.2216 -0.0672  0.3581
 2629SOL     OW10281   0.631   6.070   4.904  0.1584 -0.6927 -0.2340
 2629SOL    HW210282   0.714   6.116   4.917 -0.3888 -0.0363  1.1757
 2629SOL    HW310283   0.575   6.135   4.861 -0.5692 -0.0329  1.6226
 2629SOL    MW410284   0.635   6.085   4.900 -0.0098 -0.5191  0.1969
 2630SOL     OW10285   3.546   4.519   3.656 -0.7120 -0.1907  0.0120
 2630SOL    HW210286   3.556   4.612   3.637 -0.0494 -0.0357  1.0794
 2630SOL    HW310287   3.554   4.477   3.570 -1.8813  0.7803 -0.5996
 2630SOL    MW410288   3.548   4.526   3.642 -0.7789 -0.0421  0.0722
 2631SOL     OW10289   5.692   2.815   0.010  0.4911  0.6968  0.6594
 2631SOL    HW210290   5.628   2.878   0.042  0.2483  1.1169 -0.6168
 2631SOL    HW310291   5.673   2.805  -0.083  0.6892 -1.0683  0.7700
 2631SOL    MW410292   5.681   2.822   0.002  0.4852  0.5194  0.5056
 2632SOL     OW10293   6.138   6.405   6.249  0.5772  1.0329 -0.5045
 2632SOL    HW210294   6.232   6.421   6.247  0.9863 -1.0618 -0.4536
 2632SOL    HW310295   6.128   6.326   6.303 -1.3529  1.9696  0.5954
 2632SOL    MW410296   6.149   6.396   6.255  0.3766  0.8801 -0.3527
 2633SOL     OW10297   1.405   4.318   1.811 -0.3592 -0.7661  0.1716
 2633SOL    HW210298   1.334   4.268   1.771 -0.3003 -0.8533  0.1763
 2633SOL    HW310299   1.396   4.406   1.775 -0.9522 -0.5723  0.7714
 2633SOL    MW410300   1.394   4.323   1.801 -0.4297 -0.7520  0.2513
 2634SOL     OW10301   0.450   2.313   0.469  0.0533  0.4062 -0.2238
 2634SOL    HW210302   0.452   2.318   0.373 -1.2385  1.3699 -0.2254
 2634SOL    HW310303   0.427   2.222   0.487  0.1337  0.2554 -0.8417
 2634SOL    MW410304   0.447   2.302   0.459 -0.1065  0.5134 -0.3055
 2635SOL     OW10305   4.773   1.852   1.406 -0.7575 -0.4860  0.7175
 2635SOL    HW210306   4.747   1.798   1.480 -1.3728  0.5496  1.2855
 2635SOL    HW310307   4.695   1.855   1.350 -0.3037 -1.2488  0.0227
 2635SOL    MW410308   4.759   1.846   1.408 -0.7788 -0.4500  0.7008
 2636SOL     OW10309   5.138   3.598   4.184  0.4707 -0.5088 -0.0519
 2636SOL    HW210310   5.194   3.530   4.222  1.5781 -1.0323 -2.4339
 2636SOL    HW310311   5.071   3.550   4.136 -0.8002  0.1323  1.0148
 2636SOL    MW410312   5.137   3.582   4.183  0.4491 -0.4933 -0.2254
 2637SOL     OW10313   4.736   0.674   3.936 -0.1952 -0.5357  0.5473
 2637SOL    HW210314   4.669   0.735   3.964  1.6189 -0.0032  4.3007
 2637SOL    HW310315   4.701   0.587   3.957 -0.6389 -0.4371  0.2222
 2637SOL    MW410316   4.723   0.670   3.942 -0.0144 -0.4525  0.9996
 2638SOL     OW10317   5.472   6.011   2.708 -0.4214 -0.2532 -0.4145
 2638SOL    HW210318   5.389   5.964   2.699 -0.4345 -0.2145 -0.4968
 2638SOL    HW310319   5.495   6.001   2.801 -1.2727  0.9982 -0.0433
 2638SOL    MW410320   5.464   6.003   2.719 -0.5354 -0.0830 -0.3764
 2639SOL     OW10321   2.433   2.539   6.291  0.4042 -0.2298 -0.0883
 2639SOL    HW210322   2.382   2.620   6.300 -0.7508 -0.8288 -0.9735
 2639SOL    HW310323   2.462   2.519   6.380 -1.2744 -0.0745  0.5272
 2639SOL    MW410324   2.430   2.547   6.304  0.0303 -0.2884 -0.1239
 2640SOL     OW10325   4.087   5.929   0.261 -0.2376  0.1372  0.9265
 2640SOL    HW210326   4.001   5.963   0.239 -0.1605  0.1846  0.7019
 2640SOL    HW310327   4.099   5.954   0.353 -0.8354 -0.6470  1.2244
 2640SOL    MW410328   4.078   5.937   0.270 -0.3063  0.0400  0.9361
 2641SOL     OW10329   5.306   0.422   4.341  0.6991 -0.0946 -0.2037
 2641SOL    HW210330   5.225   0.460   4.375  1.6692  0.9779  0.9936
 2641SOL    HW310331   5.345   0.491   4.288  0.8801 -0.5715 -0.7006
 2641SOL    MW410332   5.301   0.436   4.339  0.8510 -0.0160 -0.1113
 2642SOL     OW10333   0.578   3.198   5.314  0.6381  0.3944  0.0620
 2642SOL    HW210334   0.514   3.267   5.303  1.6092  1.2913 -0.0877
 2642SOL    HW310335   0.547   3.148   5.390 -0.8696  0.0494 -0.7315
 2642SOL    MW410336   0.566   3.200   5.323  0.5673  0.4672 -0.0624
 2643SOL     OW10337   0.013   3.610   1.592 -0.5271  0.6627 -0.2465
 2643SOL    HW210338  -0.024   3.620   1.680 -0.9195 -0.5997 -0.2458
 2643SOL    HW310339  -0.036   3.537   1.554  0.2814  0.5806 -1.1713
 2643SOL    MW410340   0.001   3.602   1.599 -0.4722  0.4853 -0.3684
 2644SOL     OW10341   6.384   4.236   1.025 -0.4461 -0.1526  0.4081
 2644SOL    HW210342   6.415   4.323   1.050  2.1114  0.0243 -2.7509
 2644SOL    HW310343   6.291   4.236   1.048  0.2420  1.9868  3.8746
 2644SOL    MW410344   6.375   4.248   1.031 -0.0179  0.1530  0.4487
 2645SOL     OW10345   4.263   2.523   6.089  0.1550 -0.2789  0.3385
 2645SOL    HW210346   4.202   2.459   6.052 -1.6569  1.1218  0.7670
 2645SOL    HW310347   4.293   2.482   6.170  0.4442 -1.3291 -0.2707
 2645SOL    MW410348   4.258   2.509   6.095 -0.0459 -0.2326  0.3147
 2646SOL     OW10349   4.548   3.135   2.223  0.2385  0.5198  0.1640
 2646SOL    HW210350   4.578   3.107   2.309  0.9917  1.0321  0.0780
 2646SOL    HW310351   4.453   3.140   2.231  0.2047 -0.6363  0.5933
 2646SOL    MW410352   4.539   3.132   2.235  0.3334  0.4349  0.2093
 2647SOL     OW10353   1.422   0.313   4.936  0.1744 -0.1886  0.9250
 2647SOL    HW210354   1.331   0.328   4.961  0.9749  3.8812  2.1560
 2647SOL    HW310355   1.459   0.265   5.011 -0.7594 -1.4054  0.6468
 2647SOL    MW410356   1.415   0.308   4.949  0.1568  0.1878  1.0507
 2648SOL     OW10357   1.044   5.461   5.638 -0.2408  0.5901  0.1391
 2648SOL    HW210358   1.076   5.488   5.552  0.5479 -1.2983 -0.2146
 2648SOL    HW310359   1.043   5.365   5.634 -1.5235  0.4896  1.7698
 2648SOL    MW410360   1.048   5.452   5.626 -0.3060  0.3277  0.3076
 2649SOL     OW10361   1.331   4.960   2.423 -0.1662 -0.4261 -0.0219
 2649SOL    HW210362   1.327   5.054   2.442 -2.5062 -0.1376 -1.5322
 2649SOL    HW310363   1.328   4.955   2.327  3.0243 -2.0207 -0.1800
 2649SOL    MW410364   1.330   4.972   2.413 -0.0540 -0.5984 -0.2421
 2650SOL     OW10365   2.735   2.527   2.406 -0.7421  0.3345 -0.6406
 2650SOL    HW210366   2.755   2.593   2.473 -0.7725  0.4372 -0.7326
 2650SOL    HW310367   2.758   2.444   2.447  1.4537  0.5521 -1.3175
 2650SOL    MW410368   2.740   2.525   2.420 -0.4564  0.3768 -0.7420
 2651SOL     OW10369   5.056   2.952   5.407  0.1037 -0.0257 -0.2340
 2651SOL    HW210370   5.008   3.035   5.409  0.6259  0.3138 -1.0634
 2651SOL    HW310371   5.144   2.975   5.437  0.4903 -0.0858 -1.2627
 2651SOL    MW410372   5.061   2.966   5.411  0.2236  0.0112 -0.4792
 2652SOL     OW10373   5.406   2.460   1.281  0.3429  0.4547 -0.2743
 2652SOL    HW210374   5.494   2.497   1.291  1.0819 -0.6544 -1.9868
 2652SOL    HW310375   5.367   2.464   1.368  1.5066  2.3827  0.2124
 2652SOL    MW410376   5.413   2.466   1.293  0.5939  0.5628 -0.4360
 2653SOL     OW10377   6.402   4.529   4.058  0.2542  0.5833 -0.3494
 2653SOL    HW210378   6.327   4.587   4.068 -0.1977 -0.0261 -0.1572
 2653SOL    HW310379   6.420   4.528   3.964 -0.6895 -0.1345 -0.5390
 2653SOL    MW410380   6.394   4.536   4.047  0.0701  0.4082 -0.3491
 2654SOL     OW10381   2.786   6.403   5.409 -0.0258 -0.6529 -0.1101
 2654SOL    HW210382   2.703   6.369   5.376 -0.1880 -2.0720  1.5860
 2654SOL    HW310383   2.769   6.421   5.502  1.2001  0.3340 -0.0527
 2654SOL    MW410384   2.772   6.401   5.417  0.1145 -0.7099  0.1213
 2655SOL     OW10385   1.572   1.499   6.139 -0.1828 -0.0165  0.2111
 2655SOL    HW210386   1.602   1.579   6.183  0.8278 -0.7326  0.8676
 2655SOL    HW310387   1.562   1.435   6.209 -0.9521 -0.4841 -0.3090
 2655SOL    MW410388   1.575   1.501   6.154 -0.1509 -0.1727  0.2291
 2656SOL     OW10389   3.741   5.453   2.796 -0.4323 -0.3111 -0.7731
 2656SOL    HW210390   3.655   5.469   2.755 -0.7092  0.1445 -0.0336
 2656SOL    HW310391   3.793   5.530   2.773 -0.4285 -0.2898 -0.6954
 2656SOL    MW410392   3.736   5.466   2.787 -0.4683 -0.2482 -0.6653
 2657SOL     OW10393   1.981   3.857   6.171 -0.4748 -0.4144 -0.1161
 2657SOL    HW210394   2.028   3.939   6.160  0.7656 -1.1782 -0.6432
 2657SOL    HW310395   1.937   3.844   6.087 -0.2287 -0.5635 -0.2218
 2657SOL    MW410396   1.981   3.866   6.158 -0.2787 -0.5349 -0.1996
 2658SOL     OW10397   5.621   3.828   1.805  0.3506  0.4929 -0.0254
 2658SOL    HW210398   5.550   3.868   1.754 -1.4209 -0.8163  1.2877
 2658SOL    HW310399   5.613   3.734   1.789  0.1075  0.0918  2.1290
 2658SOL    MW410400   5.610   3.821   1.796  0.0848  0.2672  0.4321
 2659SOL     OW10401   2.273   1.792   4.576  0.4351  0.1279  0.4944
 2659SOL    HW210402   2.270   1.844   4.656 -0.5930  1.1319 -0.1605
 2659SOL    HW310403   2.317   1.848   4.512 -2.1843  0.9831 -0.6972
 2659SOL    MW410404   2.278   1.806   4.578 -0.0461  0.3732  0.2508
 2660SOL     OW10405   1.522   0.186   4.293 -0.2503 -0.0289 -0.6773
 2660SOL    HW210406   1.579   0.250   4.336 -0.2633 -0.7597  0.4723
 2660SOL    HW310407   1.447   0.237   4.264  0.1201  0.6257 -0.5216
 2660SOL    MW410408   1.520   0.201   4.295 -0.2031 -0.0389 -0.5051
 2661SOL     OW10409   3.884   4.098   3.753  0.2310  0.1300 -0.4267
 2661SOL    HW210410   3.934   4.170   3.792 -1.7233  1.6715 -0.6192
 2661SOL    HW310411   3.950   4.033   3.730  2.1006  1.9106 -0.3545
 2661SOL    MW410412   3.899   4.099   3.755  0.2198  0.5683 -0.4426
 2662SOL     OW10413   0.954   2.594   0.323  0.1507  0.0846 -0.2542
 2662SOL    HW210414   1.023   2.605   0.258 -0.1980  0.5840 -0.5503
 2662SOL    HW310415   0.957   2.501   0.346  1.3148  0.2238  0.2043
 2662SOL    MW410416   0.963   2.583   0.317  0.2583  0.1689 -0.2328
 2663SOL     OW10417   6.058   5.964   6.306  0.5202  0.1412 -0.0517
 2663SOL    HW210418   6.148   5.952   6.337 -0.2589 -1.7000  1.7487
 2663SOL    HW310419   6.024   5.875   6.298 -1.3423  0.8107 -0.0154
 2663SOL    MW410420   6.065   5.950   6.309  0.1716 -0.0134  0.1906
 2664SOL     OW10421   1.481   1.993   6.315 -0.2178  0.4629 -0.1909
 2664SOL    HW210422   1.423   1.961   6.246  1.2505 -0.5938 -1.0218
 2664SOL    HW310423   1.549   1.925   6.321  0.8977  1.6183  0.7386
 2664SOL    MW410424   1.483   1.980   6.306  0.1231  0.4760 -0.1779
 2665SOL     OW10425   1.505   6.283   1.367  0.3208  0.6240  0.0645
 2665SOL    HW210426   1.478   6.305   1.278 -1.9852 -1.4818  0.1298
 2665SOL    HW310427   1.585   6.230   1.355 -1.2070 -1.6082 -1.0346
 2665SOL    MW410428   1.512   6.279   1.354 -0.1851  0.0516 -0.0719
 2666SOL     OW10429   0.194   6.046   2.211  0.8394  0.2767  0.2333
 2666SOL    HW210430   0.254   5.987   2.257  1.5063  3.1249  3.3746
 2666SOL    HW310431   0.116   6.049   2.267  0.2035  1.2048 -0.6662
 2666SOL    MW410432   0.192   6.038   2.224  0.8435  0.7749  0.5291
 2667SOL     OW10433   5.535   3.376   5.631 -0.4564  0.3723  0.6267
 2667SOL    HW210434   5.540   3.434   5.555  0.1372  0.2528  0.5666
 2667SOL    HW310435   5.615   3.394   5.680 -0.7894  0.3752  1.1730
 2667SOL    MW410436   5.547   3.386   5.627 -0.4220  0.3569  0.6908
 2668SOL     OW10437   1.736   1.791   4.850  0.2732  0.5014  0.8078
 2668SOL    HW210438   1.745   1.748   4.935  0.0305  0.2817  0.7262
 2668SOL    HW310439   1.743   1.884   4.869  0.5160  0.4369  1.0280
 2668SOL    MW410440   1.738   1.797   4.863  0.2732  0.4639  0.8261
 2669SOL     OW10441   4.970   1.119   2.109  0.2137  0.5754  0.1365
 2669SOL    HW210442   4.950   1.112   2.202  2.3614 -1.9372  0.5322
 2669SOL    HW310443   4.892   1.088   2.064  0.4044 -1.7973  1.3020
 2669SOL    MW410444   4.957   1.114   2.115  0.5222 -0.0691  0.3425
 2670SOL     OW10445   2.264   0.714   6.006  0.0408  0.0467 -0.0680
 2670SOL    HW210446   2.172   0.720   6.030 -0.2087 -0.8718 -0.7223
 2670SOL    HW310447   2.310   0.767   6.071 -0.9701  0.7397  0.1023
 2670SOL    MW410448   2.258   0.722   6.017 -0.1255  0.0169 -0.1318
 2671SOL     OW10449   4.052   4.945   1.015  0.1067 -0.2204  0.4735
 2671SOL    HW210450   4.006   4.996   1.082  1.2622  0.5847  0.6829
 2671SOL    HW310451   4.045   4.855   1.045  1.1680  0.1803  2.0766
 2671SOL    MW410452   4.045   4.940   1.028  0.3992 -0.0613  0.7126
 2672SOL     OW10453   5.538   3.575   1.742 -0.2125 -0.0372 -0.0453
 2672SOL    HW210454   5.498   3.603   1.659 -0.5189  0.5210  0.2875
 2672SOL    HW310455   5.501   3.488   1.758  0.6621 -0.6176 -1.0328
 2672SOL    MW410456   5.528   3.567   1.733 -0.1375 -0.0401 -0.1317
 2673SOL     OW10457   1.002   5.905   0.173 -0.1066 -0.6074 -0.2214
 2673SOL    HW210458   0.929   5.845   0.162 -0.6949 -0.1101  0.8475
 2673SOL    HW310459   0.961   5.988   0.197  0.7573 -0.0802 -0.5268
 2673SOL    MW410460   0.987   5.908   0.175 -0.0702 -0.4722 -0.1207
 2674SOL     OW10461   0.227   3.796   4.528 -0.7671 -0.2053  0.0451
 2674SOL    HW210462   0.169   3.872   4.517 -1.1587 -0.5931 -0.6644
 2674SOL    HW310463   0.168   3.721   4.535 -0.3711 -0.6392 -0.9736
 2674SOL    MW410464   0.212   3.796   4.527 -0.7665 -0.3137 -0.1830
 2675SOL     OW10465   1.782   5.780   1.050  0.3470  0.3793  0.0802
 2675SOL    HW210466   1.752   5.691   1.067  0.7694  0.3067  0.4721
 2675SOL    HW310467   1.867   5.768   1.007 -0.4230  0.5692 -1.5568
 2675SOL    MW410468   1.790   5.767   1.047  0.3011  0.3948 -0.0840
 2676SOL     OW10469   1.053   2.462   3.382 -0.1316 -0.7657 -0.1392
 2676SOL    HW210470   1.061   2.545   3.335  0.4501  0.0231  1.2916
 2676SOL    HW310471   0.961   2.439   3.373 -0.3762  0.2084 -0.3011
 2676SOL    MW410472   1.042   2.470   3.375 -0.0872 -0.5331  0.0282
 2677SOL     OW10473   5.120   3.390   6.391 -0.3788 -0.1656  0.0942
 2677SOL    HW210474   5.211   3.404   6.418  0.2026 -1.3037 -1.1503
 2677SOL    HW310475   5.072   3.464   6.429  0.8916 -0.0407  1.5486
 2677SOL    MW410476   5.126   3.402   6.400 -0.1345 -0.2993  0.1219
 2678SOL     OW10477   1.836   1.656   4.493  0.3960  0.4393  0.3472
 2678SOL    HW210478   1.883   1.738   4.505 -0.4195  0.8523  0.7736
 2678SOL    HW310479   1.755   1.667   4.543  0.6630 -0.9485  1.1375
 2678SOL    MW410480   1.832   1.668   4.501  0.3236  0.3107  0.5077
 2679SOL     OW10481   0.687   4.800   4.648  0.1429 -0.0231  0.1309
 2679SOL    HW210482   0.752   4.859   4.686  0.7979 -0.8673  0.3412
 2679SOL    HW310483   0.631   4.775   4.721  1.0299 -1.1586  0.4544
 2679SOL    MW410484   0.688   4.804   4.663  0.3464 -0.2843  0.2013
 2680SOL     OW10485   4.595   1.455   4.777 -0.1678 -0.3305  0.1045
 2680SOL    HW210486   4.654   1.424   4.846  1.2579  1.1895 -0.3864
 2680SOL    HW310487   4.645   1.445   4.696 -0.5745  0.9712 -0.3260
 2680SOL    MW410488   4.609   1.449   4.775 -0.0334  0.0418 -0.0170
 2681SOL     OW10489   5.646   5.884   2.510  0.5021  0.4744 -0.1439
 2681SOL    HW210490   5.620   5.908   2.421  0.1976 -0.1328 -0.2214
 2681SOL    HW310491   5.571   5.907   2.565 -0.0944 -0.9726 -0.3228
 2681SOL    MW410492   5.633   5.890   2.506  0.3832  0.2034 -0.1777
 2682SOL     OW10493   2.660   4.304   2.772 -0.1389  0.0851 -0.1592
 2682SOL    HW210494   2.746   4.290   2.734  1.0849  2.4542  1.4817
 2682SOL    HW310495   2.622   4.376   2.722  0.4187  1.4922  1.3603
 2682SOL    MW410496   2.666   4.311   2.761  0.0961  0.5833  0.2578
 2683SOL     OW10497   0.038   2.277  -0.003 -0.0560 -0.5428 -0.3014
 2683SOL    HW210498   0.019   2.207  -0.065  1.3406 -0.3361 -0.9857
 2683SOL    HW310499   0.005   2.244   0.081 -0.8096 -1.3531 -0.9012
 2683SOL    MW410500   0.031   2.263  -0.000  0.0288 -0.6224 -0.4708
 2684SOL     OW10501   4.526   0.419   0.153 -0.3584 -0.2422 -0.0515
 2684SOL    HW210502   4.548   0.326   0.152 -0.1438 -0.1905 -0.0024
 2684SOL    HW310503   4.600   0.462   0.110  0.3607  0.0950  1.4655
 2684SOL    MW410504   4.538   0.412   0.147 -0.2352 -0.1909  0.1551
 2685SOL     OW10505   0.586   4.111   3.283 -0.3810 -0.2253  0.3355
 2685SOL    HW210506   0.609   4.021   3.260 -2.5135 -1.1056  1.3759
 2685SOL    HW310507   0.578   4.109   3.379  0.0563  1.2201  0.4190
 2685SOL    MW410508   0.588   4.099   3.293 -0.6046 -0.1507  0.4838
 2686SOL     OW10509   0.868   3.435   4.998  0.2864 -0.0579 -0.3612
 2686SOL    HW210510   0.859   3.433   5.093  2.6486  0.4640 -0.0470
 2686SOL    HW310511   0.812   3.508   4.970  0.1336  0.2638  0.7239
 2686SOL    MW410512   0.860   3.445   5.007  0.5779  0.0534 -0.1765
 2687SOL     OW10513   1.386   6.213   5.456 -0.1877  0.4810 -0.2606
 2687SOL    HW210514   1.435   6.245   5.532  0.6730  0.3657 -0.7585
 2687SOL    HW310515   1.379   6.288   5.398 -0.1950  0.3710 -0.4028
 2687SOL    MW410516   1.391   6.227   5.458 -0.0751  0.4513 -0.3450
 2688SOL     OW10517   0.273   5.963   4.159  0.0693  0.1416 -0.4997
 2688SOL    HW210518   0.360   5.977   4.196 -0.4938  1.0286  0.5425
 2688SOL    HW310519   0.289   5.923   4.073  1.5165  1.0110 -0.6596
 2688SOL    MW410520   0.286   5.959   4.152  0.1859  0.3733 -0.3833
 2689SOL     OW10521   2.036   1.156   6.152  0.6389 -0.4485  0.3272
 2689SOL    HW210522   2.018   1.123   6.063 -1.7040  1.8080 -0.1629
 2689SOL    HW310523   1.963   1.123   6.204  0.8841 -0.0512  0.9308
 2689SOL    MW410524   2.024   1.147   6.147  0.3621 -0.0984  0.3422
 2690SOL     OW10525   5.345   6.399   3.810  0.1861 -0.4023  0.2909
 2690SOL    HW210526   5.395   6.331   3.765  1.0318 -0.2053  0.9062
 2690SOL    HW310527   5.255   6.366   3.811  0.2043 -0.5419 -1.2509
 2690SOL    MW410528   5.339   6.385   3.804  0.3001 -0.3947  0.1687
 2691SOL     OW10529   1.918   4.424   1.754 -0.0234  0.1958 -0.2825
 2691SOL    HW210530   1.939   4.355   1.816 -1.5764  0.4665  0.6068
 2691SOL    HW310531   1.823   4.418   1.743 -0.3204  2.6169  0.3944
 2691SOL    MW410532   1.908   4.414   1.761 -0.2675  0.5510 -0.0759
 2692SOL     OW10533   1.405   0.398   0.823 -0.3756  0.5295 -0.0200
 2692SOL    HW210534   1.429   0.465   0.887 -1.3184  1.3810 -0.5330
 2692SOL    HW310535   1.398   0.446   0.740  0.9518 -0.5648 -0.8171
 2692SOL    MW410536   1.407   0.413   0.820 -0.3248  0.4975 -0.1928
 2693SOL     OW10537   1.541   1.172   5.737  0.2369 -0.0211 -0.0125
 2693SOL    HW210538   1.532   1.243   5.673  0.3029 -2.1330 -2.5704
 2693SOL    HW310539   1.616   1.198   5.790  0.7871  1.4649 -1.4091
 2693SOL    MW410540   1.550   1.185   5.735  0.3182 -0.1037 -0.5342
 2694SOL     OW10541   1.653   2.177   3.422  0.3253  0.1997  0.3434
 2694SOL    HW210542   1.682   2.155   3.511  1.2524  0.8283  0.2086
 2694SOL    HW310543   1.734   2.199   3.375 -0.0515 -0.8264 -0.8706
 2694SOL    MW410544   1.667   2.177   3.427  0.3979  0.1472  0.1654
 2695SOL     OW10545   4.136   0.578   3.611  0.0107  0.3272 -0.3794
 2695SOL    HW210546   4.200   0.529   3.663 -1.3512 -0.8615  0.2459
 2695SOL    HW310547   4.176   0.663   3.598  2.6198 -1.0174 -1.7734
 2695SOL    MW410548   4.150   0.583   3.616  0.1752 -0.0071 -0.4808
 2696SOL     OW10549   0.297   6.396   5.090 -0.1027 -0.2449 -0.5229
 2696SOL    HW210550   0.298   6.420   4.997 -3.0638  1.2338 -0.2936
 2696SOL    HW310551   0.221   6.340   5.100  0.3167 -0.5889  1.0070
 2696SOL    MW410552   0.287   6.392   5.079 -0.4381 -0.0952 -0.2908
 2697SOL     OW10553   1.312   0.052   3.983 -0.2896 -0.3062  0.4985
 2697SOL    HW210554   1.248   0.048   4.054  0.7859 -1.7224  1.4255
 2697SOL    HW310555   1.261   0.029   3.905 -1.6001  1.7881  0.6585
 2697SOL    MW410556   1.297   0.048   3.982 -0.3206 -0.2168  0.6419
 2698SOL     OW10557   1.059   1.869   0.446  0.1891 -0.5880 -0.1092
 2698SOL    HW210558   1.122   1.855   0.376  0.2732 -2.1220  0.2324
 2698SOL    HW310559   1.103   1.838   0.525 -0.5321 -0.4822  0.3466
 2698SOL    MW410560   1.073   1.863   0.448  0.1050 -0.7765 -0.0040
 2699SOL     OW10561   4.564   1.881   5.382  0.2001 -0.7359 -0.2049
 2699SOL    HW210562   4.494   1.847   5.326 -0.2622 -0.2200  0.0446
 2699SOL    HW310563   4.534   1.863   5.471  1.7389 -3.1732 -0.0782
 2699SOL    MW410564   4.551   1.874   5.386  0.3421 -0.9894 -0.1552
 2700SOL     OW10565   4.102   4.789   3.239 -0.2172  0.5087 -0.0150
 2700SOL    HW210566   4.072   4.699   3.253  1.3165  0.1722  1.5154
 2700SOL    HW310567   4.146   4.812   3.321 -0.3441  2.5737 -0.4819
 2700SOL    MW410568   4.104   4.780   3.252 -0.0316  0.7367  0.1254
 2701SOL     OW10569   5.003   4.715   4.599  0.0473 -0.1569 -0.1697
 2701SOL    HW210570   5.029   4.803   4.570  0.6636 -0.6643 -1.2269
 2701SOL    HW310571   4.928   4.730   4.657  0.4820  1.1002  0.0931
 2701SOL    MW410572   4.996   4.728   4.603  0.1860 -0.0580 -0.2745
 2702SOL     OW10573   3.233   5.430   3.573  0.3037  0.5405 -0.0493
 2702SOL    HW210574   3.196   5.517   3.564 -1.6044 -0.2240 -0.0205
 2702SOL    HW310575   3.328   5.443   3.566  0.0712  2.6146  0.1484
 2702SOL    MW410576   3.241   5.443   3.571  0.0213  0.7133 -0.0194
 2703SOL     OW10577   5.841   6.219   4.197  0.3562 -0.5653  0.1908
 2703SOL    HW210578   5.890   6.183   4.272  0.5236  0.8204  0.7825
 2703SOL    HW310579   5.779   6.280   4.236  0.0412 -0.2541 -0.7718
 2703SOL    MW410580   5.840   6.222   4.212  0.3367 -0.3415  0.1418
 2704SOL     OW10581   6.355   5.127   0.897  0.1173 -0.4544  0.0482
 2704SOL    HW210582   6.356   5.082   0.812  2.8789 -1.5900  0.5824
 2704SOL    HW310583   6.316   5.065   0.957 -0.5154 -0.2035 -0.0904
 2704SOL    MW410584   6.350   5.113   0.894  0.3982 -0.5711  0.1004
 2705SOL     OW10585   0.921   0.999   4.056  0.0425  0.0682  0.4414
 2705SOL    HW210586   0.990   1.054   4.017  0.0658  0.6162  1.2433
 2705SOL    HW310587   0.920   1.023   4.148 -0.5163 -0.6962  0.6438
 2705SOL    MW410588   0.930   1.009   4.063 -0.0282  0.0396  0.5739
 2706SOL     OW10589   1.662   1.706   4.280  0.3571  0.2456  0.0249
 2706SOL    HW210590   1.620   1.628   4.243 -0.9533  0.9056  0.0767
 2706SOL    HW310591   1.732   1.671   4.335  1.4073 -0.8005 -1.8763
 2706SOL    MW410592   1.665   1.691   4.283  0.3228  0.1947 -0.2191
 2707SOL     OW10593   1.328   0.362   3.605  0.4433 -0.1575 -0.1362
 2707SOL    HW210594   1.375   0.419   3.544 -0.4122  0.3745 -0.3241
 2707SOL    HW310595   1.341   0.402   3.691  0.6313 -0.2215 -0.1336
 2707SOL    MW410596   1.336   0.375   3.608  0.3552 -0.0958 -0.1607
 2708SOL     OW10597   1.959   1.807   3.153 -0.2705  0.1301 -0.3488
 2708SOL    HW210598   2.046   1.769   3.144 -0.7123 -1.7698  2.2472
 2708SOL    HW310599   1.900   1.743   3.113 -0.8146 -0.8583  1.9189
 2708SOL    MW410600   1.963   1.794   3.146 -0.4006 -0.2510  0.2929
 2709SOL     OW10601   3.522   4.772   6.374 -0.0136  0.4172  0.1675
 2709SOL    HW210602   3.533   4.867   6.372 -0.9039  0.5530  0.7611
 2709SOL    HW310603   3.458   4.754   6.304  0.1459  0.2598  0.0635
 2709SOL    MW410604   3.515   4.782   6.364 -0.1100  0.4143  0.2321
 2710SOL     OW10605   5.715   2.792   1.325  0.3247  0.6370 -0.5465
 2710SOL    HW210606   5.681   2.705   1.343 -1.4558  1.6321  1.2876
 2710SOL    HW310607   5.656   2.828   1.259  0.1819  0.9677 -0.2413
 2710SOL    MW410608   5.703   2.786   1.319  0.0710  0.8119 -0.2642
 2711SOL     OW10609   4.014   3.517   1.759  0.6358 -0.3189  0.7744
 2711SOL    HW210610   4.047   3.429   1.774 -0.6953 -0.7757  1.1199
 2711SOL    HW310611   3.944   3.506   1.694 -0.7150  0.2141  2.0759
 2711SOL    MW410612   4.009   3.504   1.752  0.2820 -0.3088  0.9917
 2712SOL     OW10613   2.629   4.949   1.871 -0.6842 -0.2750 -0.0826
 2712SOL    HW210614   2.721   4.973   1.879 -0.4240 -0.7775 -1.3607
 2712SOL    HW310615   2.630   4.859   1.837 -1.6382 -1.2970  2.3375
 2712SOL    MW410616   2.641   4.940   1.868 -0.7758 -0.4761  0.0681
 2713SOL     OW10617   0.430   4.863   2.230 -0.2390  0.7598 -0.3520
 2713SOL    HW210618   0.491   4.937   2.233  0.6504  0.0220  0.2174
 2713SOL    HW310619   0.396   4.865   2.140 -0.9694  2.4174 -0.0785
 2713SOL    MW410620   0.434   4.873   2.218 -0.2180  0.8811 -0.2408
 2714SOL     OW10621   3.146   6.236   5.895  0.4390  0.0360  0.4968
 2714SOL    HW210622   3.053   6.259   5.889  0.8916  1.6577 -1.0387
 2714SOL    HW310623   3.191   6.320   5.896  2.0349 -0.6671 -2.2641
 2714SOL    MW410624   3.139   6.250   5.894  0.7093  0.1572 -0.0701
 2715SOL     OW10625   3.191   1.098   5.588 -0.3907  0.1595  0.0615
 2715SOL    HW210626   3.230   1.184   5.575 -0.4228  0.0018 -1.1949
 2715SOL    HW310627   3.204   1.079   5.681  0.0499  1.3008  0.2411
 2715SOL    MW410628   3.198   1.107   5.599 -0.3368  0.2893 -0.0805
 2716SOL     OW10629   5.677   1.772   1.542 -0.2906  0.5814  0.1754
 2716SOL    HW210630   5.637   1.690   1.513 -0.8706  0.7736  0.4058
 2716SOL    HW310631   5.770   1.752   1.549 -0.3118  0.1816 -0.5757
 2716SOL    MW410632   5.684   1.759   1.539 -0.3699  0.5540  0.1067
 2717SOL     OW10633   2.859   6.244   5.866 -0.2277 -0.3922 -0.1052
 2717SOL    HW210634   2.840   6.160   5.823  0.4404  0.0740 -1.3392
 2717SOL    HW310635   2.805   6.242   5.946  0.1860 -2.2336  0.1869
 2717SOL    MW410636   2.849   6.232   5.871 -0.0850 -0.5736 -0.2295
 2718SOL     OW10637   1.470   5.558   2.493 -0.6488 -0.3629  0.1292
 2718SOL    HW210638   1.446   5.548   2.401  1.9684  1.2594 -0.8377
 2718SOL    HW310639   1.493   5.470   2.522 -0.7854 -0.7798 -0.9835
 2718SOL    MW410640   1.469   5.545   2.484 -0.3215 -0.2038 -0.1452
 2719SOL     OW10641   4.333   1.442   3.678 -0.6255  0.1933 -0.1167
 2719SOL    HW210642   4.306   1.365   3.727 -3.2782  0.8463 -0.3879
 2719SOL    HW310643   4.271   1.511   3.705  1.4616  2.1953 -0.0729
 2719SOL    MW410644   4.321   1.441   3.688 -0.7001  0.5436 -0.1467
 2720SOL     OW10645   2.785   2.847   3.725 -0.0619 -0.6177  0.0243
 2720SOL    HW210646   2.796   2.883   3.813  0.5701  0.0082 -0.2944
 2720SOL    HW310647   2.777   2.753   3.738 -2.0508 -0.3670  0.9139
 2720SOL    MW410648   2.786   2.839   3.738 -0.2409 -0.5021  0.0996
 2721SOL     OW10649   6.117   6.126   5.237  0.1105 -0.3857  0.3191
 2721SOL    HW210650   6.154   6.188   5.174  0.9119 -0.9940  0.1734
 2721SOL    HW310651   6.142   6.160   5.323  1.4755 -1.0407  0.2132
 2721SOL    MW410652   6.125   6.138   5.240  0.3963 -0.5523  0.2859
 2722SOL     OW10653   4.344   2.068   2.655 -0.0404 -0.1569 -0.2235
 2722SOL    HW210654   4.301   2.120   2.588 -1.9026  1.0692  1.7676
 2722SOL    HW310655   4.282   2.067   2.728  2.1790 -0.6925  1.8098
 2722SOL    MW410656   4.330   2.074   2.656  0.0067 -0.0658  0.3074
 2723SOL     OW10657   1.199   2.356   1.263 -0.1774  0.1713 -0.2106
 2723SOL    HW210658   1.231   2.381   1.176 -1.0124 -0.7096 -0.7937
 2723SOL    HW310659   1.270   2.304   1.301 -0.9253 -2.0152 -1.6053
 2723SOL    MW410660   1.213   2.352   1.256 -0.3863 -0.2334 -0.4716
 2724SOL     OW10661   4.728   3.056   3.248  0.0309  0.6038 -0.0703
 2724SOL    HW210662   4.705   2.974   3.292  1.3489  1.5618  2.6873
 2724SOL    HW310663   4.740   3.033   3.156 -0.9354 -1.9967  0.3867
 2724SOL    MW410664   4.727   3.042   3.242  0.0773  0.3871  0.3538
 2725SOL     OW10665   3.640   1.199   0.429  0.6688  0.8487  0.4578
 2725SOL    HW210666   3.696   1.231   0.359  1.6389  0.1542  0.8828
 2725SOL    HW310667   3.583   1.134   0.387  0.4834  1.2332  0.1096
 2725SOL    MW410668   3.640   1.195   0.414  0.7723  0.8078  0.4679
 2726SOL     OW10669   3.098   0.098   1.057 -0.0046  0.3337  0.3731
 2726SOL    HW210670   3.193   0.090   1.065 -0.2757 -1.3367  2.9266
 2726SOL    HW310671   3.084   0.192   1.045  1.9370  0.6064 -0.2510
 2726SOL    MW410672   3.109   0.110   1.056  0.2158  0.1493  0.6277
 2727SOL     OW10673   0.233   3.772   5.514  0.0899  0.0315  0.2292
 2727SOL    HW210674   0.262   3.821   5.590  0.7514 -0.6346  0.4112
 2727SOL    HW310675   0.314   3.744   5.470 -0.2742  0.4403 -0.7449
 2727SOL    MW410676   0.247   3.775   5.518  0.1292 -0.0024  0.1247
 2728SOL     OW10677   5.772   1.079   3.364 -0.3743 -0.3474 -0.4066
 2728SOL    HW210678   5.734   1.007   3.313 -1.6531 -0.1120  0.1925
 2728SOL    HW310679   5.791   1.040   3.449  1.4356 -0.6459 -0.8929
 2728SOL    MW410680   5.769   1.064   3.368 -0.3042 -0.3557 -0.3917
 2729SOL     OW10681   2.369   1.066   0.003  0.0628 -0.2887 -0.2385
 2729SOL    HW210682   2.316   1.061   0.082 -2.0279 -2.1735 -1.6259
 2729SOL    HW310683   2.361   1.157  -0.025 -0.7918 -0.0600  0.6810
 2729SOL    MW410684   2.361   1.077   0.010 -0.3258 -0.5072 -0.3002
 2730SOL     OW10685   2.395   5.334   2.286 -0.0103  0.2147 -0.6134
 2730SOL    HW210686   2.359   5.414   2.248  1.4455 -0.5758 -4.1437
 2730SOL    HW310687   2.323   5.271   2.283 -0.3251  0.5797 -0.6988
 2730SOL    MW410688   2.381   5.336   2.280  0.1403  0.1586 -1.0905
 2731SOL     OW10689   5.599   2.830   2.176 -0.5338  0.4323  0.4037
 2731SOL    HW210690   5.638   2.796   2.256 -1.0620  1.5018  1.1323
 2731SOL    HW310691   5.506   2.837   2.196 -0.8256 -0.1819 -0.6406
 2731SOL    MW410692   5.592   2.826   2.189 -0.6420  0.4924  0.3621
 2732SOL     OW10693   2.226   3.780   4.287  0.0900  0.1192 -0.0450
 2732SOL    HW210694   2.313   3.817   4.297  0.5578 -0.6668 -1.0600
 2732SOL    HW310695   2.180   3.805   4.367  1.4430 -0.0205  0.8074
 2732SOL    MW410696   2.231   3.788   4.299  0.3302 -0.0030 -0.0664
 2733SOL     OW10697   2.394   6.222   0.084  0.2784  0.6488 -0.5981
 2733SOL    HW210698   2.339   6.294   0.116 -1.1730 -0.1902 -1.1211
 2733SOL    HW310699   2.359   6.201  -0.002  1.6061  0.2486 -1.0734
 2733SOL    MW410700   2.383   6.229   0.077  0.2621  0.4853 -0.7298
 2734SOL     OW10701   5.741   2.936   5.721  0.0310  0.5240  0.4838
 2734SOL    HW210702   5.684   2.990   5.666  0.3647  0.2355 -0.1512
 2734SOL    HW310703   5.768   2.864   5.665  1.1587  0.7445  0.7178
 2734SOL    MW410704   5.737   2.934   5.707  0.2238  0.5150  0.4309
 2735SOL     OW10705   4.765   0.522   0.919  0.0984 -0.1281  0.2399
 2735SOL    HW210706   4.854   0.517   0.885  0.1156  0.8181  0.1310
 2735SOL    HW310707   4.729   0.602   0.881 -0.8142 -0.5251  0.2492
 2735SOL    MW410708   4.772   0.532   0.910 -0.0197 -0.0556  0.2268
 2736SOL     OW10709   5.681   2.856   3.487  0.5437  0.1584 -0.0326
 2736SOL    HW210710   5.660   2.938   3.530  0.9237  0.0291  0.4082
 2736SOL    HW310711   5.653   2.788   3.549  1.6744 -0.0214  0.3070
 2736SOL    MW410712   5.675   2.858   3.501  0.7430  0.1176  0.0703
 2737SOL     OW10713   1.507   4.466   5.450 -0.1522 -0.1327 -0.4276
 2737SOL    HW210714   1.584   4.503   5.495 -1.0213  0.2645  0.7881
 2737SOL    HW310715   1.543   4.397   5.395  1.0376 -0.2809  0.4870
 2737SOL    MW410716   1.522   4.462   5.449 -0.1099 -0.0998 -0.1465
 2738SOL     OW10717   2.511   3.410   5.153 -0.2072 -0.5310  0.2771
 2738SOL    HW210718   2.493   3.343   5.219 -0.6683 -0.4617  0.2190
 2738SOL    HW310719   2.511   3.363   5.070 -1.7898 -0.2633  0.0946
 2738SOL    MW410720   2.509   3.395   5.151 -0.4768 -0.4865  0.2453
 2739SOL     OW10721   3.364   5.844   5.513 -0.2605  0.0015 -0.3830
 2739SOL    HW210722   3.421   5.918   5.532  1.0357 -0.9614 -0.4072
 2739SOL    HW310723   3.363   5.838   5.417 -1.9961  1.1902 -0.4853
 2739SOL    MW410724   3.371   5.853   5.503 -0.3185  0.0313 -0.3997
 2740SOL     OW10725   1.527   0.918   5.298 -0.4744 -0.3067 -0.1543
 2740SOL    HW210726   1.538   0.865   5.377  1.3178  1.4763  0.8807
 2740SOL    HW310727   1.467   0.987   5.325  0.2381  0.3774 -0.3013
 2740SOL    MW410728   1.520   0.920   5.312 -0.1439  0.0188 -0.0371
 2741SOL     OW10729   2.701   3.549   1.012  0.2534 -0.2309 -0.2537
 2741SOL    HW210730   2.701   3.456   1.033 -0.4641 -0.5239 -1.4632
 2741SOL    HW310731   2.614   3.565   0.973  0.5364  0.8327 -0.4786
 2741SOL    MW410732   2.689   3.539   1.010  0.1961 -0.1293 -0.4430
 2742SOL     OW10733   0.366   1.436   5.613  0.2537  0.0765  0.0674
 2742SOL    HW210734   0.319   1.518   5.627  1.3436  0.6802  0.2911
 2742SOL    HW310735   0.360   1.391   5.697  0.9746  0.6399  0.4357
 2742SOL    MW410736   0.359   1.441   5.626  0.4927  0.2305  0.1455
 2743SOL     OW10737   2.397   4.082   2.612  0.7748 -0.4219  0.1989
 2743SOL    HW210738   2.388   4.027   2.690  0.5924  0.2520  0.6656
 2743SOL    HW310739   2.383   4.171   2.644 -2.2933 -0.3205 -1.1183
 2743SOL    MW410740   2.394   4.087   2.627  0.3459 -0.3196  0.0867
 2744SOL     OW10741   4.103   4.105   4.875 -0.2955  0.1350  0.1163
 2744SOL    HW210742   4.150   4.113   4.958 -1.3334 -0.5373  0.8037
 2744SOL    HW310743   4.152   4.040   4.825 -0.1242 -0.0642  0.5403
 2744SOL    MW410744   4.115   4.097   4.879 -0.4099  0.0200  0.2629
 2745SOL     OW10745   1.856   5.627   5.329 -0.1538 -0.2662 -0.0646
 2745SOL    HW210746   1.887   5.713   5.356 -0.4184 -0.6359  1.5128
 2745SOL    HW310747   1.765   5.641   5.303 -0.5729 -0.2474  1.3371
 2745SOL    MW410748   1.848   5.640   5.329 -0.2440 -0.3125  0.3285
 2746SOL     OW10749   0.218   1.680   5.689 -0.2056 -0.0386 -0.1799
 2746SOL    HW210750   0.123   1.676   5.700 -0.3410  0.4109 -1.0498
 2746SOL    HW310751   0.230   1.722   5.603  0.8026  2.4080  1.0628
 2746SOL    MW410752   0.207   1.685   5.679 -0.0904  0.3435 -0.1307
 2747SOL     OW10753   3.464   2.744   2.904 -0.1215  0.3883 -0.0396
 2747SOL    HW210754   3.395   2.800   2.940 -0.3129  1.2738 -1.6901
 2747SOL    HW310755   3.421   2.661   2.885 -0.3125  0.3486  0.5531
 2747SOL    MW410756   3.450   2.740   2.907 -0.1719  0.4999 -0.1791
 2748SOL     OW10757   5.918   4.825   2.167  0.5670 -0.0507 -0.1275
 2748SOL    HW210758   5.919   4.887   2.240 -2.1744  0.5192 -0.4471
 2748SOL    HW310759   5.983   4.759   2.191  2.6982  2.2156  0.8333
 2748SOL    MW410760   5.926   4.825   2.180  0.4865  0.3235 -0.0429
 2749SOL     OW10761   1.300   6.255   0.923  0.3564 -0.3108 -0.2033
 2749SOL    HW210762   1.261   6.170   0.944  0.6900  0.2491  3.4588
 2749SOL    HW310763   1.363   6.237   0.854  0.9631 -3.2257  0.9754
 2749SOL    MW410764   1.303   6.241   0.917  0.4805 -0.6215  0.4354
 2750SOL     OW10765   1.498   4.050   3.262 -0.5698  0.5864 -0.0496
 2750SOL    HW210766   1.480   3.971   3.312  0.7540  0.9528  1.0572
 2750SOL    HW310767   1.416   4.067   3.214 -0.7456 -1.6367 -0.6317
 2750SOL    MW410768   1.485   4.042   3.262 -0.4183  0.3415  0.0196
 2751SOL     OW10769   0.729   0.838   1.513 -1.2454 -0.3899  0.7326
 2751SOL    HW210770   0.697   0.829   1.423 -0.9419 -0.6675  0.6518
 2751SOL    HW310771   0.802   0.900   1.506 -0.4462 -1.3271  0.5969
 2751SOL    MW410772   0.734   0.845   1.500 -1.0999 -0.5501  0.7040
 2752SOL     OW10773   3.515   1.778   1.265  0.1025 -0.4194  0.3038
 2752SOL    HW210774   3.438   1.749   1.216 -0.4295 -1.4548  1.6846
 2752SOL    HW310775   3.555   1.698   1.297  1.2090  0.1652  0.4296
 2752SOL    MW410776   3.510   1.764   1.263  0.1783 -0.4789  0.5026
 2753SOL     OW10777   3.839   2.727   1.822  0.3856  0.5344 -0.2682
 2753SOL    HW210778   3.806   2.811   1.793 -0.4029  0.1241 -0.5850
 2753SOL    HW310779   3.930   2.725   1.792 -0.4593 -0.0211 -3.1207
 2753SOL    MW410780   3.847   2.737   1.814  0.1701  0.4069 -0.6863
 2754SOL     OW10781   5.994   4.245   5.882 -0.8688  0.1503 -0.2692
 2754SOL    HW210782   5.976   4.155   5.912  1.5105 -0.1536  0.4781
 2754SOL    HW310783   6.020   4.235   5.791 -3.5359  0.5103 -1.1427
 2754SOL    MW410784   5.995   4.232   5.874 -0.9067  0.1577 -0.2859
 2755SOL     OW10785   5.578   1.003   1.524  0.5323 -0.2209 -0.3615
 2755SOL    HW210786   5.577   1.044   1.611  1.2653  0.0819 -0.4823
 2755SOL    HW310787   5.544   0.915   1.538 -0.0611  0.0697  0.0972
 2755SOL    MW410788   5.573   0.997   1.537  0.5507 -0.1426 -0.3169
 2756SOL     OW10789   0.140   3.258   3.812  0.3442  0.0246 -0.1830
 2756SOL    HW210790   0.165   3.185   3.755  0.3759 -0.8773  0.9476
 2756SOL    HW310791   0.056   3.232   3.849 -1.2618  1.9979 -2.1615
 2756SOL    MW410792   0.132   3.245   3.810  0.1365  0.1660 -0.2949
 2757SOL     OW10793   0.515   1.519   0.517 -0.2157 -0.1624 -0.6259
 2757SOL    HW210794   0.549   1.502   0.429  0.3689  1.1077 -0.6669
 2757SOL    HW310795   0.422   1.497   0.511  0.0672 -1.2639 -1.2105
 2757SOL    MW410796   0.507   1.514   0.504 -0.1013 -0.1402 -0.7084
 2758SOL     OW10797   4.753   2.518   3.436  0.1009 -0.2085  0.0613
 2758SOL    HW210798   4.664   2.492   3.411 -0.6204  0.7016  1.5549
 2758SOL    HW310799   4.797   2.436   3.457 -1.0001 -0.5522  1.1466
 2758SOL    MW410800   4.747   2.504   3.436 -0.1396 -0.1337  0.4016
 2759SOL     OW10801   0.783   3.842   2.145  0.2843  0.2623 -0.0894
 2759SOL    HW210802   0.786   3.859   2.051 -1.4100  1.5839  0.0494
 2759SOL    HW310803   0.742   3.757   2.153  0.0659  0.3244 -0.5378
 2759SOL    MW410804   0.778   3.833   2.134  0.0320  0.4449 -0.1302
 2760SOL     OW10805   1.765   1.339   5.087 -0.5195 -0.0574  0.0683
 2760SOL    HW210806   1.749   1.245   5.088 -0.2589 -0.1035 -0.0853
 2760SOL    HW310807   1.855   1.348   5.056 -0.4271  0.2259  0.4149
 2760SOL    MW410808   1.774   1.328   5.083 -0.4729 -0.0261  0.0937
 2761SOL     OW10809   0.420   6.338   2.125  0.0355  0.3070 -0.1294
 2761SOL    HW210810   0.327   6.315   2.134  0.2824 -0.5332  0.4592
 2761SOL    HW310811   0.446   6.299   2.042  0.0432 -0.1483  0.0805
 2761SOL    MW410812   0.411   6.329   2.115  0.0691  0.1360 -0.0241
 2762SOL     OW10813   2.177   2.325   3.733  0.7297  0.3314  0.4522
 2762SOL    HW210814   2.157   2.417   3.750  1.2315  0.1759  2.1101
 2762SOL    HW310815   2.162   2.314   3.639 -0.8981  1.6923  0.4975
 2762SOL    MW410816   2.173   2.336   3.723  0.5811  0.4904  0.6769
 2763SOL     OW10817   2.784   2.526   0.815  0.1767  0.3053 -0.3240
 2763SOL    HW210818   2.802   2.562   0.902  0.9727  2.4399 -1.3083
 2763SOL    HW310819   2.867   2.534   0.769 -0.1109 -1.2409 -1.1698
 2763SOL    MW410820   2.798   2.532   0.820  0.2438  0.3829 -0.5654
 2764SOL     OW10821   2.581   3.535   1.546 -0.3442  0.8490  0.6410
 2764SOL    HW210822   2.556   3.453   1.503  1.3510 -0.3605  1.8128
 2764SOL    HW310823   2.622   3.508   1.629  2.9439  2.6179 -0.1933
 2764SOL    MW410824   2.583   3.521   1.551  0.3133  0.9228  0.6855
 2765SOL     OW10825   3.130   4.571   1.476 -0.3653  0.2164  0.1397
 2765SOL    HW210826   3.122   4.629   1.551 -0.4474  0.5868 -0.1503
 2765SOL    HW310827   3.114   4.484   1.511  1.0420  0.2067  0.8443
 2765SOL    MW410828   3.127   4.567   1.490 -0.1904  0.2640  0.1944
 2766SOL     OW10829   0.706   2.871   5.755  0.2471  0.0980  0.4286
 2766SOL    HW210830   0.621   2.835   5.778  0.1801  0.1681  0.2944
 2766SOL    HW310831   0.735   2.818   5.680 -0.7165  1.5235 -1.0254
 2766SOL    MW410832   0.699   2.859   5.748  0.1112  0.2953  0.2191
 2767SOL     OW10833   4.156   0.394   3.371 -0.2138  0.0700 -0.0514
 2767SOL    HW210834   4.225   0.377   3.436 -1.0334 -1.9626  0.3555
 2767SOL    HW310835   4.081   0.423   3.424 -0.1784  0.6996 -0.3391
 2767SOL    MW410836   4.155   0.396   3.387 -0.3173 -0.1151 -0.0356
 2768SOL     OW10837   1.024   4.727   0.361 -0.5490 -0.2215  0.1528
 2768SOL    HW210838   1.029   4.795   0.293  0.5561  0.0863  0.5040
 2768SOL    HW310839   1.076   4.655   0.326 -1.2837 -0.6871  0.0098
 2768SOL    MW410840   1.032   4.727   0.348 -0.5001 -0.2423  0.1802
 2769SOL     OW10841   2.283   1.215   4.029  0.1792  0.4033  0.0263
 2769SOL    HW210842   2.309   1.154   4.098  1.6468  0.0607 -0.7832
 2769SOL    HW310843   2.195   1.244   4.054  0.0382 -0.9281  1.1812
 2769SOL    MW410844   2.275   1.211   4.041  0.3542  0.1824  0.0719
 2770SOL     OW10845   4.712   3.090   3.734  0.3260  0.1051 -0.4844
 2770SOL    HW210846   4.686   2.999   3.749  1.5714 -0.2574 -0.4215
 2770SOL    HW310847   4.692   3.106   3.642 -1.9374  0.4913  0.0075
 2770SOL    MW410848   4.706   3.080   3.724  0.1917  0.1082 -0.4112
 2771SOL     OW10849   1.653   4.861   0.769  0.2562  0.6389  0.0582
 2771SOL    HW210850   1.657   4.956   0.762  1.4712  0.5774 -0.3849
 2771SOL    HW310851   1.631   4.844   0.861 -2.1795  1.3384 -0.3213
 2771SOL    MW410852   1.651   4.871   0.780  0.0952  0.7231 -0.0503
 2772SOL     OW10853   5.368   1.684   2.604  0.7410 -0.0657  0.7453
 2772SOL    HW210854   5.352   1.643   2.689 -0.4189  0.1246  0.6251
 2772SOL    HW310855   5.457   1.657   2.581  0.3635 -1.7205  1.1229
 2772SOL    MW410856   5.378   1.675   2.612  0.5382 -0.2589  0.7793
 2773SOL     OW10857   0.708   4.905   5.383  0.1901 -0.1611  0.1294
 2773SOL    HW210858   0.712   4.812   5.404  1.6303  0.1832  1.6824
 2773SOL    HW310859   0.617   4.921   5.358 -0.4121 -1.7165  1.1978
 2773SOL    MW410860   0.696   4.895   5.383  0.3007 -0.3209  0.4753
 2774SOL     OW10861   0.817   2.075   6.239 -0.0202  0.4912 -0.0102
 2774SOL    HW210862   0.783   1.992   6.206 -1.7310  0.6034  1.3508
 2774SOL    HW310863   0.879   2.050   6.307  1.3637  0.3278 -1.2718
 2774SOL    MW410864   0.821   2.061   6.244 -0.0633  0.4845  0.0029
 2775SOL     OW10865   1.541   2.095   4.728 -0.2744 -0.7479  0.4636
 2775SOL    HW210866   1.456   2.126   4.758 -0.1055  0.0849  0.1155
 2775SOL    HW310867   1.521   2.038   4.654 -0.4884  0.6201 -0.5905
 2775SOL    MW410868   1.528   2.092   4.722 -0.2803 -0.4575  0.2786
 2776SOL     OW10869   1.289   2.518   5.083 -0.3957  0.2349  0.3394
 2776SOL    HW210870   1.211   2.485   5.037 -0.2718  0.6542 -0.1758
 2776SOL    HW310871   1.254   2.570   5.155 -0.5908 -0.4177  0.7301
 2776SOL    MW410872   1.274   2.520   5.087 -0.4051  0.2041  0.3230
 2777SOL     OW10873   2.601   0.043   2.384 -0.5470 -0.3920 -0.1698
 2777SOL    HW210874   2.689   0.018   2.411 -0.5336 -0.6017 -0.4055
 2777SOL    HW310875   2.565  -0.035   2.342 -0.7778 -0.2492 -0.2415
 2777SOL    MW410876   2.608   0.029   2.382 -0.5757 -0.4009 -0.2104
 2778SOL     OW10877   5.661   6.344   4.353  0.3325 -0.3404  0.0098
 2778SOL    HW210878   5.592   6.304   4.300  0.8933 -0.2792 -0.7907
 2778SOL    HW310879   5.638   6.437   4.356  0.6189 -0.2379 -0.6626
 2778SOL    MW410880   5.649   6.351   4.346  0.4443 -0.3188 -0.1846
 2779SOL     OW10881   4.259   0.971   0.705 -0.2272  0.0010 -0.4287
 2779SOL    HW210882   4.320   0.935   0.769 -1.0646  0.5831  0.7482
 2779SOL    HW310883   4.173   0.937   0.732 -0.7342  1.1220 -0.5674
 2779SOL    MW410884   4.255   0.962   0.717 -0.4046  0.2257 -0.2917
 2780SOL     OW10885   3.665   4.544   6.293 -0.1051 -0.1010 -0.2919
 2780SOL    HW210886   3.746   4.558   6.341 -0.2432 -3.1688  1.1169
 2780SOL    HW310887   3.607   4.615   6.322  1.0841  0.3460  1.0928
 2780SOL    MW410888   3.668   4.555   6.304  0.0336 -0.4468  0.0767
 2781SOL     OW10889   6.422   6.435   6.313  0.0766 -0.0638  0.1158
 2781SOL    HW210890   6.461   6.516   6.345  2.4777 -0.3759 -1.7603
 2781SOL    HW310891   6.429   6.374   6.387  1.4026  0.4577  0.4448
 2781SOL    MW410892   6.428   6.438   6.327  0.5683 -0.0362 -0.0883
 2782SOL     OW10893   1.954   2.325   1.700 -0.0893 -0.0533 -0.0423
 2782SOL    HW210894   1.890   2.289   1.638 -1.1877 -0.1816  1.1375
 2782SOL    HW310895   1.979   2.409   1.662 -0.1417 -0.4652 -1.0471
 2782SOL    MW410896   1.949   2.331   1.687 -0.2412 -0.1246 -0.0192
 2783SOL     OW10897   4.600   3.798   5.622 -0.2990  1.0160 -0.1779
 2783SOL    HW210898   4.630   3.860   5.689  0.8387 -0.7805  1.0470
 2783SOL    HW310899   4.504   3.804   5.627 -0.2916  0.4225  2.1766
 2783SOL    MW410900   4.591   3.807   5.632 -0.1480  0.7007  0.2944
 2784SOL     OW10901   6.398   3.461   0.186  0.0341  0.5538  0.0003
 2784SOL    HW210902   6.370   3.454   0.277  1.3621  0.0185  0.4023
 2784SOL    HW310903   6.396   3.371   0.153  0.6523  0.5800 -0.1324
 2784SOL    MW410904   6.394   3.448   0.194  0.2909  0.4866  0.0358
 2785SOL     OW10905   4.768   2.770   2.972  0.3761 -0.2893 -0.1453
 2785SOL    HW210906   4.691   2.754   3.027  0.9392 -0.0876  0.7309
 2785SOL    HW310907   4.750   2.722   2.891 -0.5381 -0.4844  0.1577
 2785SOL    MW410908   4.755   2.762   2.969  0.3298 -0.2884  0.0103
 2786SOL     OW10909   4.499   5.983   2.719  0.2922 -0.4336 -0.2464
 2786SOL    HW210910   4.537   6.029   2.643  0.1078 -0.5674 -0.4222
 2786SOL    HW310911   4.573   5.936   2.758  0.4007 -0.3150 -0.3069
 2786SOL    MW410912   4.514   5.983   2.714  0.2822 -0.4356 -0.2776
 2787SOL     OW10913   5.698   5.979   3.201 -0.4911  0.1835 -0.6685
 2787SOL    HW210914   5.775   6.035   3.188  0.0443 -0.2794  0.3356
 2787SOL    HW310915   5.668   5.958   3.112  0.3840  0.5865 -1.0724
 2787SOL    MW410916   5.704   5.983   3.187 -0.3050  0.1756 -0.5893
 2788SOL     OW10917   2.905   4.944   1.848  0.1274 -0.2294  0.6845
 2788SOL    HW210918   2.951   5.027   1.850 -1.0562  0.4973 -0.5225
 2788SOL    HW310919   2.960   4.884   1.899  2.9298  0.3067 -1.4810
 2788SOL    MW410920   2.918   4.947   1.855  0.3410 -0.0628  0.2396
 2789SOL     OW10921   3.061   5.485   4.400 -0.2626  0.3346  0.2978
 2789SOL    HW210922   3.025   5.427   4.467  0.3099  0.0690  0.3830
 2789SOL    HW310923   3.068   5.430   4.322  0.3248  0.2746  0.3913
 2789SOL    MW410924   3.057   5.470   4.399 -0.1096  0.2917  0.3213
 2790SOL     OW10925   3.274   3.540   0.375  0.4821  0.0707 -0.7000
 2790SOL    HW210926   3.216   3.476   0.334  0.4705 -0.2297 -0.2243
 2790SOL    HW310927   3.356   3.533   0.325  0.6316 -0.6389 -0.3715
 2790SOL    MW410928   3.277   3.530   0.363  0.5003 -0.0625 -0.5939
 2791SOL     OW10929   2.579   0.969   1.968 -0.0539 -0.0705  0.2161
 2791SOL    HW210930   2.594   0.975   1.873  2.7610  0.8976  0.6125
 2791SOL    HW310931   2.623   0.888   1.994 -0.4186 -0.0943  0.7560
 2791SOL    MW410932   2.587   0.959   1.959  0.2694  0.0541  0.3396
 2792SOL     OW10933   3.680   6.300   2.269  0.0333 -0.1489 -0.1692
 2792SOL    HW210934   3.624   6.348   2.208  0.6089  0.3867 -0.2833
 2792SOL    HW310935   3.705   6.365   2.335  0.0852 -0.5189  0.1774
 2792SOL    MW410936   3.676   6.315   2.269  0.1161 -0.1270 -0.1386
 2793SOL     OW10937   1.117   0.726   0.457 -0.0286  0.0484  0.1011
 2793SOL    HW210938   1.114   0.709   0.363  0.9860  0.6937 -0.0645
 2793SOL    HW310939   1.138   0.642   0.497 -0.6258 -0.2634 -0.2210
 2793SOL    MW410940   1.119   0.713   0.450  0.0265  0.0924  0.0368
 2794SOL     OW10941   3.446   0.874   4.517 -0.0610  0.4879  0.6943
 2794SOL    HW210942   3.394   0.796   4.496 -0.3398  0.6122  0.9161
 2794SOL    HW310943   3.434   0.886   4.611 -0.2550  0.9673  0.6131
 2794SOL    MW410944   3.437   0.865   4.526 -0.1234  0.5676  0.7128
 2795SOL     OW10945   1.075   3.125   1.823 -0.1742 -0.2686  0.3033
 2795SOL    HW210946   1.021   3.063   1.873  0.5677  0.7213  2.4663
 2795SOL    HW310947   1.012   3.189   1.789 -0.5204  0.6903  2.5124
 2795SOL    MW410948   1.059   3.125   1.825 -0.1220 -0.0115  0.8802
 2796SOL     OW10949   4.773   4.818   1.940  0.1787  0.0870  0.3208
 2796SOL    HW210950   4.779   4.762   2.017  0.0407  1.3440  1.2960
 2796SOL    HW310951   4.864   4.846   1.924  0.1094  0.4530  0.5382
 2796SOL    MW410952   4.786   4.815   1.948  0.1514  0.3011  0.4781
 2797SOL     OW10953   1.973   5.360   0.161  0.0621 -0.4372  0.0287
 2797SOL    HW210954   1.945   5.283   0.111  0.6798 -0.7022  0.0827
 2797SOL    HW310955   1.938   5.346   0.249 -1.4729  0.2772 -0.4419
 2797SOL    MW410956   1.965   5.348   0.166 -0.0589 -0.3779 -0.0263
 2798SOL     OW10957   4.703   0.797   2.615 -0.1165 -0.5140  0.3518
 2798SOL    HW210958   4.654   0.736   2.560  0.0051 -1.1231  0.9016
 2798SOL    HW310959   4.637   0.837   2.671 -0.8345  2.7448 -2.4979
 2798SOL    MW410960   4.688   0.794   2.615 -0.1952 -0.1644  0.0483
 2799SOL     OW10961   0.827   2.552   1.909 -0.1555  0.4225  0.2614
 2799SOL    HW210962   0.905   2.506   1.878  0.2705  1.3508 -0.0721
 2799SOL    HW310963   0.787   2.491   1.972  1.1520  0.1607  0.8791
 2799SOL    MW410964   0.832   2.538   1.913  0.0732  0.5104  0.2989
 2800SOL     OW10965   4.700   1.316   4.036 -0.0832  0.0006 -0.4332
 2800SOL    HW210966   4.789   1.337   4.006  0.4509  1.6070  2.0204
 2800SOL    HW310967   4.673   1.393   4.085 -2.2553 -1.0876  0.1805
 2800SOL    MW410968   4.708   1.329   4.038 -0.2993  0.0690 -0.0285
 2801SOL     OW10969   1.864   3.742   0.826 -0.0830  0.5115  0.1815
 2801SOL    HW210970   1.835   3.690   0.901 -0.2633 -0.7039 -0.6866
 2801SOL    HW310971   1.943   3.697   0.796 -0.7384  0.1848 -1.1327
 2801SOL    MW410972   1.871   3.729   0.832 -0.1933  0.3081 -0.1064
 2802SOL     OW10973   2.048   2.739   4.930  0.8693 -0.1153  0.0030
 2802SOL    HW210974   2.006   2.712   4.848 -0.9037  0.1941  0.7758
 2802SOL    HW310975   1.986   2.716   4.998  1.8296  0.6683  1.1831
 2802SOL    MW410976   2.035   2.733   4.928  0.7621  0.0289  0.2607
 2803SOL     OW10977   3.340   1.255   0.708 -0.1624 -0.0802 -0.6043
 2803SOL    HW210978   3.337   1.181   0.647  1.1375 -1.3128  0.7306
 2803SOL    HW310979   3.276   1.233   0.776  1.8699 -1.2572  1.0588
 2803SOL    MW410980   3.331   1.242   0.709  0.2773 -0.3981 -0.2087
 2804SOL     OW10981   4.396   4.754   1.642  0.2805 -0.3653  0.9944
 2804SOL    HW210982   4.478   4.725   1.682  0.8321 -0.7423 -0.3553
 2804SOL    HW310983   4.340   4.777   1.716  1.6675  0.0930  1.9414
 2804SOL    MW410984   4.400   4.753   1.657  0.5363 -0.3546  0.9413
 2805SOL     OW10985   1.603   4.643   6.345 -0.6698  0.3613  0.3182
 2805SOL    HW210986   1.626   4.733   6.368  1.0450 -0.1468  0.7454
 2805SOL    HW310987   1.677   4.612   6.293 -1.7858 -0.4400 -0.8657
 2805SOL    MW410988   1.616   4.651   6.341 -0.5908  0.1885  0.2184
 2806SOL     OW10989   1.917   1.723   3.641 -0.5183  0.3715 -0.2698
 2806SOL    HW210990   1.914   1.780   3.564  0.4156 -0.2415 -0.7790
 2806SOL    HW310991   1.844   1.753   3.696 -1.2020  0.8076 -1.3871
 2806SOL    MW410992   1.907   1.735   3.638 -0.4853  0.3481 -0.4844
 2807SOL     OW10993   0.130   3.162   0.464  0.6575  0.3495  0.3505
 2807SOL    HW210994   0.177   3.159   0.547  1.6763  1.7235 -0.1524
 2807SOL    HW310995   0.109   3.254   0.451  1.1909  0.2786 -1.2650
 2807SOL    MW410996   0.134   3.174   0.473  0.8623  0.5214  0.0710
 2808SOL     OW10997   1.015   1.633   4.546 -0.0123  0.3109 -0.0325
 2808SOL    HW210998   0.950   1.565   4.532  0.1256 -0.0555  0.9926
 2808SOL    HW310999   0.972   1.713   4.516 -0.8007  0.0207  0.2841
 2808SOL    MW411000   1.001   1.635   4.540 -0.0981  0.2243  0.1445
 2809SOL     OW11001   3.755   4.476   6.027  0.3420 -0.6413  0.3831
 2809SOL    HW211002   3.735   4.515   6.113  0.4548  1.6793 -0.5821
 2809SOL    HW311003   3.839   4.515   6.002 -0.8310  0.6517 -1.8227
 2809SOL    MW411004   3.763   4.486   6.035  0.2021 -0.1645 -0.0353
 2810SOL     OW11005   1.510   6.320   2.732  0.3976  0.5739  0.5614
 2810SOL    HW211006   1.470   6.237   2.707  0.1018  0.4595  1.3725
 2810SOL    HW311007   1.473   6.384   2.672  0.3817  0.1776  0.1407
 2810SOL    MW411008   1.500   6.317   2.721  0.3564  0.5065  0.6129
 2811SOL     OW11009   5.615   3.563   1.208  0.8114  0.0889 -0.0267
 2811SOL    HW211010   5.564   3.489   1.241  0.4503  0.8497  1.1955
 2811SOL    HW311011   5.660   3.529   1.131  1.0831 -1.5560  0.8238
 2811SOL    MW411012   5.614   3.549   1.202  0.7996 -0.0277  0.2468
 2812SOL     OW11013   5.205   1.149   3.363  0.2937  0.3079 -0.2691
 2812SOL    HW211014   5.132   1.121   3.418  0.9220  2.1240  1.5653
 2812SOL    HW311015   5.282   1.107   3.401  0.5526  0.3727 -0.7068
 2812SOL    MW411016   5.205   1.140   3.375  0.4107  0.5561 -0.0848
 2813SOL     OW11017   2.270   0.737   4.406 -0.1912 -0.1547  0.0289
 2813SOL    HW211018   2.218   0.809   4.370  1.4183  1.0981  0.0722
 2813SOL    HW311019   2.326   0.778   4.471  0.9426 -1.4024 -0.1141
 2813SOL    MW411020   2.271   0.752   4.410  0.1708 -0.1540  0.0158
 2814SOL     OW11021   1.224   3.181   2.771  0.5237  0.1753  0.5334
 2814SOL    HW211022   1.284   3.199   2.698  0.7398 -1.5230  0.2620
 2814SOL    HW311023   1.271   3.118   2.826 -0.4857 -0.1789  1.0062
 2814SOL    MW411024   1.238   3.175   2.769  0.4190 -0.0955  0.5599
 2815SOL     OW11025   3.221   1.139   0.123 -0.1869 -0.0366 -0.3457
 2815SOL    HW211026   3.154   1.186   0.173  0.6458 -1.9712  2.8734
 2815SOL    HW311027   3.304   1.178   0.150  0.3703 -1.9454  0.9260
 2815SOL    MW411028   3.223   1.150   0.133 -0.0035 -0.5437  0.2468
 2816SOL     OW11029   4.620   3.957   1.396 -0.4155 -0.1559 -0.3110
 2816SOL    HW211030   4.662   3.905   1.464 -0.7960 -0.5664 -0.3818
 2816SOL    HW311031   4.546   3.903   1.367 -0.1719 -0.0478 -1.1496
 2816SOL    MW411032   4.616   3.943   1.401 -0.4336 -0.1958 -0.4310
 2817SOL     OW11033   1.424   0.904   6.255  0.1500 -0.0209 -0.0116
 2817SOL    HW211034   1.511   0.878   6.224  0.0524  1.8454 -2.0960
 2817SOL    HW311035   1.365   0.837   6.222  0.5869 -0.3458 -0.1344
 2817SOL    MW411036   1.428   0.892   6.247  0.1948  0.1825 -0.3028
 2818SOL     OW11037   4.802   0.855   6.026  0.4107  0.1293  0.1826
 2818SOL    HW211038   4.854   0.799   5.968  0.1197  0.3173 -0.2728
 2818SOL    HW311039   4.768   0.796   6.093  1.4973  0.0698  0.6956
 2818SOL    MW411040   4.804   0.840   6.027  0.5157  0.1463  0.1902
 2819SOL     OW11041   2.318   2.108   3.163 -0.3081  0.5050  0.6884
 2819SOL    HW211042   2.353   2.182   3.113  3.4818  0.3615  2.7439
 2819SOL    HW311043   2.230   2.135   3.188 -0.7488  2.3297 -2.3578
 2819SOL    MW411044   2.311   2.121   3.160  0.1338  0.7268  0.5577
 2820SOL     OW11045   2.167   5.776   0.329  0.1919 -0.1858  0.2151
 2820SOL    HW211046   2.227   5.848   0.306  0.9485 -0.8805 -0.0131
 2820SOL    HW311047   2.151   5.730   0.247  0.6372 -0.9767  0.5628
 2820SOL    MW411048   2.173   5.780   0.315  0.3504 -0.3818  0.2309
 2821SOL     OW11049   2.185   4.701   0.598 -0.6291  0.4640 -0.3247
 2821SOL    HW211050   2.256   4.643   0.571  0.5825  2.4449 -1.6514
 2821SOL    HW311051   2.225   4.759   0.663 -1.1711  1.2506 -0.6780
 2821SOL    MW411052   2.199   4.701   0.603 -0.5407  0.8291 -0.5464
 2822SOL     OW11053   2.377   1.330   1.393 -0.3831  0.0682  0.1098
 2822SOL    HW211054   2.424   1.352   1.473 -0.6482 -0.4580  0.4182
 2822SOL    HW311055   2.444   1.297   1.333 -0.3103 -0.3269  0.4116
 2822SOL    MW411056   2.392   1.329   1.395 -0.4085 -0.0533  0.1903
 2823SOL     OW11057   2.564   3.759   4.766 -0.3813  0.3643 -0.3200
 2823SOL    HW211058   2.500   3.698   4.731 -0.4685 -0.6885  1.5486
 2823SOL    HW311059   2.513   3.833   4.799 -0.5041  0.1728 -0.0871
 2823SOL    MW411060   2.549   3.761   4.765 -0.4091  0.2001 -0.0428
 2824SOL     OW11061   2.272   1.989   4.005  0.0238  0.1021 -0.1311
 2824SOL    HW211062   2.291   1.980   3.911 -0.1624  1.9607 -0.3756
 2824SOL    HW311063   2.328   1.924   4.047 -0.1500 -1.0115 -1.5433
 2824SOL    MW411064   2.282   1.979   3.998 -0.0237  0.2004 -0.3497
 2825SOL     OW11065   5.702   4.942   0.504 -0.2671  0.0026  0.2330
 2825SOL    HW211066   5.793   4.972   0.510 -0.4691  0.5399  0.8286
 2825SOL    HW311067   5.707   4.847   0.511  0.2217  0.0534  0.6424
 2825SOL    MW411068   5.715   4.934   0.506 -0.2293  0.0802  0.3656
 2826SOL     OW11069   4.513   0.804   4.051 -0.0945 -0.0728  0.3416
 2826SOL    HW211070   4.448   0.749   4.095 -1.0056 -0.0257 -0.9157
 2826SOL    HW311071   4.500   0.891   4.089  0.3847 -0.4061  1.3014
 2826SOL    MW411072   4.503   0.809   4.062 -0.1515 -0.1106  0.3024
 2827SOL     OW11073   3.318   2.530   2.841  0.4263  0.5003  0.5226
 2827SOL    HW211074   3.244   2.550   2.784  0.3361 -1.0098  0.0672
 2827SOL    HW311075   3.279   2.516   2.927  0.1211 -0.6171  0.2155
 2827SOL    MW411076   3.303   2.531   2.845  0.3741  0.1537  0.4220
 2828SOL     OW11077   2.405   3.184   3.795  0.5252 -0.4071 -0.0010
 2828SOL    HW211078   2.461   3.243   3.745  0.2372  0.3521  0.5666
 2828SOL    HW311079   2.324   3.179   3.745  0.3847  0.0376  0.1760
 2828SOL    MW411080   2.402   3.191   3.782  0.4686 -0.2482  0.0972
 2829SOL     OW11081   1.369   3.224   0.671 -0.1267  0.4164  0.3524
 2829SOL    HW211082   1.451   3.272   0.681 -0.1352  0.1907  1.6627
 2829SOL    HW311083   1.330   3.224   0.758 -0.5650 -1.1745  0.1854
 2829SOL    MW411084   1.375   3.230   0.684 -0.1857  0.1767  0.5032
 2830SOL     OW11085   4.030   2.382   5.743  0.2189  0.0310 -0.2876
 2830SOL    HW211086   4.056   2.388   5.835  0.6949 -0.7048 -0.3651
 2830SOL    HW311087   3.992   2.295   5.735  1.0534 -0.2870 -1.0012
 2830SOL    MW411088   4.028   2.371   5.754  0.3918 -0.1080 -0.3920
 2831SOL     OW11089   0.852   3.246   1.323  0.6599 -0.4286  0.5769
 2831SOL    HW211090   0.839   3.256   1.229  1.9412 -0.1340  0.4086
 2831SOL    HW311091   0.790   3.307   1.362  1.5634  1.0428 -0.1699
 2831SOL    MW411092   0.842   3.256   1.316  0.9481 -0.1956  0.4562
 2832SOL     OW11093   5.674   4.116   1.589 -0.1356  0.0029  0.1396
 2832SOL    HW211094   5.741   4.067   1.637 -1.3615 -2.2980 -0.3225
 2832SOL    HW311095   5.622   4.159   1.656  1.4246  1.3473  0.5282
 2832SOL    MW411096   5.676   4.115   1.604 -0.0915 -0.1233  0.1299
 2833SOL     OW11097   0.131   6.391   2.432 -0.4190  0.1491  0.6570
 2833SOL    HW211098   0.117   6.485   2.448 -1.6599  0.6507 -2.6964
 2833SOL    HW311099   0.044   6.352   2.444 -0.4319 -0.1349 -0.2898
 2833SOL    MW411100   0.117   6.398   2.436 -0.5845  0.1778  0.0896
 2834SOL     OW11101   1.109   2.632   4.035  0.1659  0.5405  0.7926
 2834SOL    HW211102   1.104   2.539   4.058 -1.7498  0.0821 -1.2019
 2834SOL    HW311103   1.041   2.673   4.088 -1.3826  0.1638 -0.7992
 2834SOL    MW411104   1.100   2.625   4.045 -0.2912  0.4303  0.3195
 2835SOL     OW11105   2.198   2.721   0.755  0.1671 -0.5106  0.6058
 2835SOL    HW211106   2.191   2.810   0.789  1.5349 -1.1526  2.8403
 2835SOL    HW311107   2.241   2.729   0.671 -0.2967  0.9746  0.4966
 2835SOL    MW411108   2.202   2.733   0.749  0.2864 -0.3993  0.8862
 2836SOL     OW11109   3.698   5.990   2.023 -0.2869  0.0408  0.2431
 2836SOL    HW211110   3.763   5.952   1.965 -0.3498  0.2049  0.0647
 2836SOL    HW311111   3.749   6.044   2.084 -0.3957  1.5990 -1.0014
 2836SOL    MW411112   3.714   5.992   2.024 -0.3096  0.2680  0.0554
 2837SOL     OW11113   5.111   6.207   2.570  0.4424 -0.2273 -0.5261
 2837SOL    HW211114   5.086   6.179   2.658 -0.2519  1.0264 -0.3102
 2837SOL    HW311115   5.134   6.299   2.580 -2.7919  0.8921 -2.1977
 2837SOL    MW411116   5.111   6.215   2.583 -0.0759  0.0858 -0.7181
 2838SOL     OW11117   1.427   5.426   3.117 -0.3252 -0.4989  0.4223
 2838SOL    HW211118   1.341   5.445   3.079 -1.3572  0.0785  2.8721
 2838SOL    HW311119   1.437   5.331   3.106 -2.0623 -0.8503  1.5498
 2838SOL    MW411120   1.417   5.416   3.110 -0.6905 -0.4691  0.8943
 2839SOL     OW11121   5.399   5.796   1.915  0.6285  0.2049 -0.1099
 2839SOL    HW211122   5.485   5.782   1.876  1.4346 -0.5655  1.7941
 2839SOL    HW311123   5.418   5.822   2.005 -1.1282  1.3642 -0.0340
 2839SOL    MW411124   5.413   5.797   1.922  0.5031  0.2562  0.1513
 2840SOL     OW11125   6.098   3.169   0.243 -0.0521 -0.3402 -0.1595
 2840SOL    HW211126   6.035   3.099   0.226 -0.3917 -0.0435 -0.1329
 2840SOL    HW311127   6.176   3.144   0.194  0.0022 -0.9912  0.2450
 2840SOL    MW411128   6.100   3.157   0.235 -0.0897 -0.3870 -0.1026
 2841SOL     OW11129   3.344   5.350   1.017  0.0673 -0.1996  0.2441
 2841SOL    HW211130   3.423   5.404   1.024 -0.0036 -0.1375  0.5794
 2841SOL    HW311131   3.367   5.282   0.953 -0.3116  1.0388 -1.2451
 2841SOL    MW411132   3.358   5.348   1.010  0.0080 -0.0280  0.0919
 2842SOL     OW11133   4.265   1.773   3.513 -0.1838 -0.1668 -0.5257
 2842SOL    HW211134   4.234   1.863   3.511  2.0133  0.6610  0.5495
 2842SOL    HW311135   4.349   1.776   3.558 -0.8347 -3.0189  1.1512
 2842SOL    MW411136   4.272   1.785   3.518  0.0202 -0.4339 -0.1626
 2843SOL     OW11137   0.530   2.008   3.501  0.5287  0.1132  0.4705
 2843SOL    HW211138   0.476   1.968   3.570  0.7909  0.7011  1.0290
 2843SOL    HW311139   0.617   1.973   3.517  0.4097 -0.4917 -0.1600
 2843SOL    MW411140   0.534   1.998   3.513  0.5476  0.1110  0.4610
 2844SOL     OW11141   2.064   4.652   5.473 -0.5781 -0.0888 -0.5101
 2844SOL    HW211142   2.010   4.643   5.395 -0.0914 -1.4390 -0.7168
 2844SOL    HW311143   2.123   4.577   5.471  0.9600  1.0504 -0.0028
 2844SOL    MW411144   2.065   4.641   5.463 -0.3109 -0.1167 -0.4705
 2845SOL     OW11145   2.441   1.958   2.544  0.0653 -0.4354 -0.1208
 2845SOL    HW211146   2.529   1.976   2.579  0.3241 -4.2133  1.7308
 2845SOL    HW311147   2.454   1.884   2.485 -1.6280  0.4984 -1.7496
 2845SOL    MW411148   2.454   1.950   2.541 -0.1240 -0.8106 -0.0914
 2846SOL     OW11149   1.474   2.946   4.436  0.1120  0.2022  0.1539
 2846SOL    HW211150   1.468   3.031   4.479  1.2002  0.4912 -0.2550
 2846SOL    HW311151   1.567   2.934   4.418 -0.1170 -0.7268 -0.4944
 2846SOL    MW411152   1.485   2.955   4.439  0.2254  0.1178  0.0144
 2847SOL     OW11153   2.122   2.760   3.998  0.1596  0.3273 -0.0303
 2847SOL    HW211154   2.045   2.815   3.994  0.2612  0.3796 -2.2227
 2847SOL    HW311155   2.195   2.818   3.975  0.7912  0.1166  1.3212
 2847SOL    MW411156   2.122   2.775   3.994  0.2563  0.3064 -0.1413
 2848SOL     OW11157   0.336   5.887   3.387 -0.1629  0.0075 -0.2084
 2848SOL    HW211158   0.335   5.808   3.440 -1.3573  1.1042  1.5198
 2848SOL    HW311159   0.261   5.878   3.329  0.1702 -0.4602 -0.5756
 2848SOL    MW411160   0.326   5.876   3.387 -0.2766  0.0905 -0.0288
 2849SOL     OW11161   2.139   0.327   2.877 -0.2968 -0.0724  0.1104
 2849SOL    HW211162   2.121   0.371   2.960  0.6422  0.1819  0.1916
 2849SOL    HW311163   2.166   0.238   2.902  0.9463  0.2942  0.1655
 2849SOL    MW411164   2.140   0.321   2.891 -0.0089  0.0095  0.1284
 2850SOL     OW11165   4.154   4.035   5.617  0.2585  0.1429 -0.2768
 2850SOL    HW211166   4.064   4.063   5.631 -0.4163 -2.4047  1.0738
 2850SOL    HW311167   4.198   4.112   5.582 -1.4257  2.7611  2.8659
 2850SOL    MW411168   4.148   4.049   5.614 -0.0527  0.1522  0.3160
 2851SOL     OW11169   3.109   4.651   4.033  0.3242  0.1265  0.3176
 2851SOL    HW211170   3.091   4.743   4.053  1.2900  0.4147 -0.0632
 2851SOL    HW311171   3.201   4.650   4.005  0.9327 -1.2422  2.1509
 2851SOL    MW411172   3.119   4.663   4.032  0.5319 -0.0161  0.5092
 2852SOL     OW11173   5.048   2.520   2.806 -0.3591 -0.4923 -0.2910
 2852SOL    HW211174   5.138   2.490   2.795  0.0606  1.0842 -1.6422
 2852SOL    HW311175   5.053   2.615   2.790 -2.3257 -0.4580 -0.9055
 2852SOL    MW411176   5.061   2.529   2.802 -0.5632 -0.2798 -0.5504
 2853SOL     OW11177   4.325   2.984   0.819 -0.5553 -0.0391  0.0551
 2853SOL    HW211178   4.240   2.955   0.853  0.3614 -0.2113  2.4115
 2853SOL    HW311179   4.305   3.060   0.765 -2.2987 -0.7648 -0.3973
 2853SOL    MW411180   4.311   2.990   0.816 -0.6644 -0.1575  0.3063
 2854SOL     OW11181   1.769   4.884   3.887 -0.2503 -0.5601  0.4915
 2854SOL    HW211182   1.726   4.950   3.834  1.5086  0.2461 -0.0116
 2854SOL    HW311183   1.862   4.908   3.885  0.3318 -2.5446  1.0128
 2854SOL    MW411184   1.775   4.896   3.880  0.0586 -0.7155  0.4939
 2855SOL     OW11185   6.248   2.171   3.071  0.1436 -0.5167  0.4504
 2855SOL    HW211186   6.317   2.152   3.134 -0.3642 -1.1936  0.8165
 2855SOL    HW311187   6.167   2.149   3.116 -0.1857 -1.9498 -0.7304
 2855SOL    MW411188   6.247   2.166   3.085  0.0332 -0.7951  0.3429
 2856SOL     OW11189   1.227   2.372   1.649  0.1483 -0.0552  0.4778
 2856SOL    HW211190   1.228   2.314   1.573  1.4422 -0.4217  0.7421
 2856SOL    HW311191   1.142   2.358   1.690 -1.3988  1.5383 -1.9087
 2856SOL    MW411192   1.216   2.363   1.644  0.1149  0.1067  0.1978
 2857SOL     OW11193   4.912   1.040   4.167  0.4202  0.1606  0.1644
 2857SOL    HW211194   4.843   1.032   4.232 -1.1303  1.2339 -1.2747
 2857SOL    HW311195   4.897   0.969   4.106 -0.2989  1.2207 -0.9204
 2857SOL    MW411196   4.901   1.030   4.168  0.1207  0.4420 -0.1686
 2858SOL     OW11197   2.467   4.487   3.916 -0.1941  0.0077 -0.5777
 2858SOL    HW211198   2.436   4.417   3.975  0.5783  0.6571  0.6482
 2858SOL    HW311199   2.558   4.502   3.943 -0.2975  1.3633 -0.9265
 2858SOL    MW411200   2.475   4.479   3.928 -0.1058  0.2722 -0.4620
 2859SOL     OW11201   5.130   4.881   0.005  0.5493 -0.3686  0.0188
 2859SOL    HW211202   5.209   4.920   0.044 -0.2769 -1.2117  2.8266
 2859SOL    HW311203   5.067   4.953   0.001  0.9800 -0.0327 -0.7748
 2859SOL    MW411204   5.132   4.896   0.010  0.4971 -0.4355  0.2845
 2860SOL     OW11205   4.412   6.071   0.344  0.0688  0.0823  0.1974
 2860SOL    HW211206   4.471   6.107   0.410 -0.4502 -0.3541  0.9044
 2860SOL    HW311207   4.457   5.993   0.312  0.8713  0.9360 -0.8373
 2860SOL    MW411208   4.426   6.065   0.348  0.1062  0.1373  0.1542
 2861SOL     OW11209   4.556   4.600   0.980 -0.4382 -0.0376  0.3386
 2861SOL    HW211210   4.569   4.605   1.074  0.1387 -0.5815  0.2914
 2861SOL    HW311211   4.516   4.514   0.965 -2.9720  1.0559  0.3403
 2861SOL    MW411212   4.552   4.589   0.990 -0.6964  0.0349  0.3326
 2862SOL     OW11213   0.185   0.202   3.939  0.1467 -0.3723 -0.7812
 2862SOL    HW211214   0.265   0.151   3.952 -0.3145 -1.2720 -1.3442
 2862SOL    HW311215   0.124   0.141   3.898 -0.6020  0.4984 -1.0087
 2862SOL    MW411216   0.188   0.187   3.936 -0.0129 -0.3761 -0.8855
 2863SOL     OW11217   1.165   0.552   5.135 -0.2857 -0.5895 -0.0241
 2863SOL    HW211218   1.133   0.633   5.095 -0.2532 -1.1514 -1.2203
 2863SOL    HW311219   1.261   0.560   5.133 -0.2945  0.0769  1.4288
 2863SOL    MW411220   1.174   0.564   5.130 -0.2826 -0.5757  0.0098
 2864SOL     OW11221   0.844   4.227   5.102  0.4833 -0.1392  0.1549
 2864SOL    HW211222   0.770   4.180   5.139 -0.9568  1.0121 -1.1405
 2864SOL    HW311223   0.885   4.164   5.042  0.5431 -0.7689  0.8459
 2864SOL    MW411224   0.840   4.213   5.099  0.3012 -0.0704  0.0752
 2865SOL     OW11225   5.944   1.195   4.829 -0.6614 -0.3927  0.0035
 2865SOL    HW211226   5.913   1.221   4.916 -1.7783 -1.7525  0.0455
 2865SOL    HW311227   5.952   1.278   4.782 -3.3978  0.1765  0.3463
 2865SOL    MW411228   5.941   1.210   4.835 -1.1698 -0.4970  0.0543
 2866SOL     OW11229   3.141   2.015   5.187  0.5090 -0.3766  0.1858
 2866SOL    HW211230   3.148   2.106   5.217  1.1067 -0.1268 -0.6655
 2866SOL    HW311231   3.052   1.989   5.208  0.6834  0.0167  1.5071
 2866SOL    MW411232   3.130   2.024   5.194  0.6108 -0.2917  0.2478
 2867SOL     OW11233   5.959   1.417   4.644  0.6950 -0.0337 -0.2248
 2867SOL    HW211234   5.986   1.395   4.555 -0.2250 -1.4851 -0.1708
 2867SOL    HW311235   5.880   1.470   4.633  0.9717  0.3785 -0.2708
 2867SOL    MW411236   5.952   1.421   4.631  0.6101 -0.1708 -0.2238
 2868SOL     OW11237   3.690   4.519   1.823  0.1915  0.5806 -0.3304
 2868SOL    HW211238   3.637   4.542   1.899 -0.4797 -0.7591 -0.3565
 2868SOL    HW311239   3.700   4.601   1.775  1.2016  1.6004  1.5231
 2868SOL    MW411240   3.684   4.532   1.827  0.2362  0.5384 -0.0893
 2869SOL     OW11241   4.514   0.540   3.550  0.0828 -0.6021  0.3545
 2869SOL    HW211242   4.548   0.476   3.487  2.9160  0.1146  0.9795
 2869SOL    HW311243   4.451   0.492   3.602  0.3144 -2.1890 -0.7611
 2869SOL    MW411244   4.510   0.526   3.549  0.4872 -0.7169  0.2898
 2870SOL     OW11245   2.057   3.295   3.102  0.1680  0.6035 -0.1901
 2870SOL    HW211246   2.027   3.350   3.174 -1.3850 -1.1396  0.6108
 2870SOL    HW311247   2.134   3.339   3.067  0.4060  1.9949  1.9281
 2870SOL    MW411248   2.063   3.308   3.107 -0.0055  0.5571  0.1951
 2871SOL     OW11249   4.979   4.011   6.335 -0.5745  0.3719 -0.3433
 2871SOL    HW211250   5.068   3.999   6.368 -0.3613  1.3203 -0.5499
 2871SOL    HW311251   4.944   4.084   6.386 -2.3539 -1.8819  1.9198
 2871SOL    MW411252   4.986   4.019   6.346 -0.7811  0.1996 -0.0720
 2872SOL     OW11253   0.770   3.238   2.384 -0.5672 -0.1183  0.5757
 2872SOL    HW211254   0.793   3.272   2.471  0.6616  1.5845 -0.3601
 2872SOL    HW311255   0.853   3.236   2.337 -1.4338  0.4102 -1.0328
 2872SOL    MW411256   0.784   3.242   2.389 -0.5194  0.1761  0.2400
 2873SOL     OW11257   4.020   4.915   3.508  0.5803  0.0859  0.2719
 2873SOL    HW211258   4.081   4.922   3.582  0.3908 -0.4904  0.4841
 2873SOL    HW311259   3.954   4.852   3.537  0.2384  0.2187 -0.2089
 2873SOL    MW411260   4.019   4.908   3.522  0.5102  0.0274  0.2365
 2874SOL     OW11261   3.592   4.037   3.158  0.1747  0.5525  0.0364
 2874SOL    HW211262   3.512   4.087   3.139 -0.8067 -0.6576  0.8901
 2874SOL    HW311263   3.568   3.946   3.143  1.2598  0.1244  0.7734
 2874SOL    MW411264   3.578   4.032   3.153  0.1884  0.3363  0.2462
 2875SOL     OW11265   2.584   5.965   2.868  0.7155 -0.2774  0.2426
 2875SOL    HW211266   2.627   6.025   2.928  0.4019 -0.4442  0.6371
 2875SOL    HW311267   2.573   5.884   2.918 -0.9561  0.0753  0.5063
 2875SOL    MW411268   2.588   5.962   2.882  0.4535 -0.2529  0.3295
 2876SOL     OW11269   3.672   6.257   3.494  0.3693 -0.1356  0.2240
 2876SOL    HW211270   3.715   6.309   3.426 -2.7144  0.9449 -1.0540
 2876SOL    HW311271   3.711   6.288   3.576  0.8979  1.8895 -0.7441
 2876SOL    MW411272   3.683   6.268   3.496  0.0322  0.2741 -0.0724
 2877SOL     OW11273   5.436   1.064   4.030  0.3649 -0.2761 -0.3635
 2877SOL    HW211274   5.513   1.108   3.995  0.1216 -0.8856 -1.7389
 2877SOL    HW311275   5.373   1.135   4.047  0.8543  0.1222 -0.1879
 2877SOL    MW411276   5.438   1.079   4.028  0.3973 -0.3040 -0.5218
 2878SOL     OW11277   0.457   5.866   2.852  0.3320 -0.5321  0.0416
 2878SOL    HW211278   0.512   5.817   2.789 -0.0613  0.3858 -1.0511
 2878SOL    HW311279   0.503   5.949   2.863 -0.1503 -0.2811  0.1517
 2878SOL    MW411280   0.471   5.870   2.845  0.2164 -0.3778 -0.0881
 2879SOL     OW11281   5.390   2.515   5.219 -0.7786 -0.0212  0.0967
 2879SOL    HW211282   5.316   2.468   5.258 -1.3000 -0.7774 -1.7327
 2879SOL    HW311283   5.467   2.467   5.250 -1.2130 -0.9373 -0.2077
 2879SOL    MW411284   5.390   2.502   5.229 -0.9047 -0.2419 -0.1848
 2880SOL     OW11285   1.490   5.537   3.364 -0.3616  0.3310  0.3374
 2880SOL    HW211286   1.467   5.478   3.436  2.1029  0.1179  1.0211
 2880SOL    HW311287   1.473   5.485   3.285  1.3559 -1.2289  0.9196
 2880SOL    MW411288   1.484   5.522   3.363  0.1902  0.0971  0.5045
 2881SOL     OW11289   4.979   4.160   4.955  0.1432  0.2279  0.6495
 2881SOL    HW211290   4.972   4.064   4.955  0.4380  0.2034  0.8398
 2881SOL    HW311291   4.930   4.186   5.034  0.4694  0.1994  0.8629
 2881SOL    MW411292   4.972   4.150   4.966  0.2251  0.2209  0.7028
 2882SOL     OW11293   0.097   0.949   6.249  0.1991 -0.6651  0.0918
 2882SOL    HW211294   0.074   0.931   6.158 -0.1722 -1.5964  0.3503
 2882SOL    HW311295   0.075   1.041   6.262 -0.6702 -0.7792 -0.4843
 2882SOL    MW411296   0.091   0.959   6.239  0.0354 -0.8030  0.0499
 2883SOL     OW11297   3.764   6.437   0.004 -0.3878 -0.1079 -0.2329
 2883SOL    HW211298   3.806   6.523   0.001  0.0011 -0.2999 -0.4383
 2883SOL    HW311299   3.734   6.428   0.094 -0.9063  0.4661 -0.3483
 2883SOL    MW411300   3.766   6.447   0.015 -0.4049 -0.0575 -0.2753
 2884SOL     OW11301   0.749   3.012   6.171  0.3448 -0.0197  0.1568
 2884SOL    HW211302   0.681   3.054   6.224 -0.4888  1.8692 -2.2278
 2884SOL    HW311303   0.811   3.083   6.152  1.1533 -0.8945 -0.5553
 2884SOL    MW411304   0.748   3.027   6.175  0.3415  0.1141 -0.2518
 2885SOL     OW11305   4.171   1.029   3.320  0.2636 -0.2213 -0.2877
 2885SOL    HW211306   4.178   1.049   3.413 -1.0764 -1.1984  0.0512
 2885SOL    HW311307   4.151   0.936   3.317 -2.1915  0.2675 -1.4196
 2885SOL    MW411308   4.170   1.020   3.332 -0.2371 -0.2858 -0.3923
 2886SOL     OW11309   0.599   2.272   5.700  0.0884  0.1967  0.0598
 2886SOL    HW211310   0.511   2.291   5.735  0.1559  0.4504  0.0899
 2886SOL    HW311311   0.623   2.189   5.742  0.6241  1.0362  1.4764
 2886SOL    MW411312   0.590   2.263   5.711  0.1680  0.3410  0.2507
 2887SOL     OW11313   3.664   0.796   3.140 -0.2480 -0.1404 -0.0567
 2887SOL    HW211314   3.714   0.847   3.204  0.8653 -1.7248  0.4049
 2887SOL    HW311315   3.575   0.795   3.173  0.0882  0.0011  0.8751
 2887SOL    MW411316   3.659   0.803   3.153 -0.0568 -0.3308  0.1271
 2888SOL     OW11317   3.090   1.871   0.698  0.3904  0.4168 -0.4066
 2888SOL    HW211318   3.044   1.932   0.756 -1.0614 -0.0319 -1.0294
 2888SOL    HW311319   3.094   1.789   0.748  0.6517  0.4974 -0.2947
 2888SOL    MW411320   3.084   1.868   0.713  0.2333  0.3682 -0.4740
 2889SOL     OW11321   4.051   3.212   5.156 -0.1733  0.5102  0.0567
 2889SOL    HW211322   3.984   3.143   5.160  0.5110 -0.1864 -0.2170
 2889SOL    HW311323   4.025   3.274   5.224 -1.6725  0.7954 -0.7102
 2889SOL    MW411324   4.038   3.211   5.165 -0.2809  0.4559 -0.0806
 2890SOL     OW11325   1.404   5.158   5.545 -0.2088 -0.7850 -0.3714
 2890SOL    HW211326   1.428   5.217   5.474 -1.2294 -0.0561 -0.1379
 2890SOL    HW311327   1.487   5.134   5.586  0.2307  0.4767 -0.4833
 2890SOL    MW411328   1.418   5.162   5.541 -0.2855 -0.5224 -0.3553
 2891SOL     OW11329   3.423   1.564   6.209 -0.1168 -0.5405  0.2736
 2891SOL    HW211330   3.458   1.507   6.141 -0.6176 -0.4595 -0.0603
 2891SOL    HW311331   3.483   1.553   6.283 -0.4159 -1.7955  0.3543
 2891SOL    MW411332   3.436   1.555   6.209 -0.2223 -0.6954  0.2402
 2892SOL     OW11333   3.024   4.967   2.347  0.0215 -0.1223  0.2832
 2892SOL    HW211334   3.006   5.036   2.284  0.2017 -1.2428 -1.0284
 2892SOL    HW311335   2.987   4.888   2.309  0.1523 -0.8420  1.5730
 2892SOL    MW411336   3.017   4.966   2.334  0.0625 -0.3651  0.2803
 2893SOL     OW11337   1.705   3.485   0.568 -0.2459 -0.6820 -0.0711
 2893SOL    HW211338   1.753   3.403   0.554 -1.4509 -1.3965 -0.1743
 2893SOL    HW311339   1.622   3.472   0.523  0.1782  1.2762 -1.5769
 2893SOL    MW411340   1.701   3.473   0.560 -0.3489 -0.5179 -0.2834
 2894SOL     OW11341   3.438   1.938   2.425 -0.0042  0.1203 -0.1464
 2894SOL    HW211342   3.432   1.881   2.348  0.6020  0.3918 -0.4022
 2894SOL    HW311343   3.360   1.917   2.477 -1.8807  1.8191 -2.1006
 2894SOL    MW411344   3.427   1.928   2.422 -0.1718  0.3803 -0.4380
 2895SOL     OW11345   1.699   5.230   0.286 -0.0141 -0.1809 -0.0444
 2895SOL    HW211346   1.748   5.313   0.282 -0.3371  0.1876  2.2522
 2895SOL    HW311347   1.766   5.163   0.302 -0.0404  0.1908  2.0035
 2895SOL    MW411348   1.714   5.232   0.288 -0.0602 -0.0832  0.5288
 2896SOL     OW11349   2.925   0.399   2.511 -0.1828 -0.9255 -0.4520
 2896SOL    HW211350   3.001   0.453   2.533 -0.7132  0.1970 -1.2773
 2896SOL    HW311351   2.959   0.335   2.448 -0.2140  0.6241 -2.1358
 2896SOL    MW411352   2.939   0.397   2.505 -0.2569 -0.5729 -0.7831
 2897SOL     OW11353   1.885   3.499   1.811  0.3675 -0.2065  0.0278
 2897SOL    HW211354   1.812   3.441   1.830 -0.3435  0.2006 -1.3737
 2897SOL    HW311355   1.911   3.534   1.897 -2.6991  1.5988  0.3466
 2897SOL    MW411356   1.879   3.496   1.825 -0.1309  0.0854 -0.1150
 2898SOL     OW11357   0.439   1.321   2.899 -0.2957  0.1791 -0.3662
 2898SOL    HW211358   0.439   1.226   2.913 -1.6520  0.2319  0.1253
 2898SOL    HW311359   0.523   1.338   2.855  0.7019 -1.0166  0.9550
 2898SOL    MW411360   0.450   1.311   2.895 -0.3430  0.0283 -0.1271
 2899SOL     OW11361   0.022   1.263   2.603  0.2745  0.3714 -0.4429
 2899SOL    HW211362   0.033   1.246   2.509  2.8885  0.0946 -0.1695
 2899SOL    HW311363   0.099   1.315   2.627  0.2722 -0.5217  1.7544
 2899SOL    MW411364   0.034   1.268   2.594  0.6191  0.2170 -0.1169
 2900SOL     OW11365   1.425   4.430   4.211  0.0018 -0.2020  0.2370
 2900SOL    HW211366   1.330   4.420   4.225 -0.3819  1.7873 -0.6212
 2900SOL    HW311367   1.434   4.438   4.116  0.4620  3.7024  0.4525
 2900SOL    MW411368   1.413   4.430   4.201  0.0119  0.5756  0.1522
 2901SOL     OW11369   3.524   5.855   2.348  0.3778 -0.1197 -0.3289
 2901SOL    HW211370   3.461   5.917   2.384  2.2057  1.0028  1.0775
 2901SOL    HW311371   3.502   5.850   2.255 -0.9461  1.2439 -0.1215
 2901SOL    MW411372   3.513   5.862   2.340  0.4443  0.2083 -0.1159
 2902SOL     OW11373   1.062   6.317   1.029 -0.1906  0.5112  0.4131
 2902SOL    HW211374   1.093   6.326   1.119  0.7865 -0.7400  0.2239
 2902SOL    HW311375   1.141   6.298   0.978 -0.5533  2.2394 -0.8974
 2902SOL    MW411376   1.076   6.316   1.034 -0.1096  0.5741  0.2152
 2903SOL     OW11377   0.347   3.857   1.061  0.6555  1.0752  0.0181
 2903SOL    HW211378   0.312   3.914   1.129 -1.1481 -0.2916  0.3149
 2903SOL    HW311379   0.293   3.875   0.984 -2.8589 -2.9244  1.1810
 2903SOL    MW411380   0.335   3.867   1.060 -0.0461  0.3672  0.2107
 2904SOL     OW11381   5.619   0.608   2.875  0.2819 -0.5853  0.2746
 2904SOL    HW211382   5.678   0.681   2.891 -1.1525  0.8924 -0.9147
 2904SOL    HW311383   5.675   0.540   2.836  1.3511  0.4785 -0.0973
 2904SOL    MW411384   5.634   0.609   2.872  0.2337 -0.2500  0.0686
 2905SOL     OW11385   0.235   1.225   4.571 -0.2197  0.2038 -0.5359
 2905SOL    HW211386   0.266   1.177   4.494 -1.6563 -1.3111 -0.2273
 2905SOL    HW311387   0.301   1.206   4.639  0.3063  0.3854 -0.9879
 2905SOL    MW411388   0.248   1.216   4.570 -0.3399  0.0279 -0.5549
 2906SOL     OW11389   2.185   4.598   2.732  0.5076 -0.1337  0.5890
 2906SOL    HW211390   2.256   4.659   2.751  0.6438 -0.0287 -0.2430
 2906SOL    HW311391   2.226   4.512   2.735  0.6132 -0.0909  0.3655
 2906SOL    MW411392   2.199   4.595   2.735  0.5395 -0.1142  0.4497
 2907SOL     OW11393   6.155   6.252   0.289 -0.4370  0.1351  0.4088
 2907SOL    HW211394   6.216   6.239   0.215 -2.2635 -0.7958 -1.0138
 2907SOL    HW311395   6.171   6.342   0.317  1.3545  0.0378 -0.1224
 2907SOL    MW411396   6.165   6.262   0.283 -0.4416 -0.0006  0.1510
 2908SOL     OW11397   0.550   4.544   5.063 -0.3608  0.6396 -0.1982
 2908SOL    HW211398   0.496   4.590   5.126 -0.2216 -0.3705  0.6845
 2908SOL    HW311399   0.487   4.497   5.007 -0.6688  3.5988 -2.6154
 2908SOL    MW411400   0.534   4.544   5.064 -0.3831  0.8968 -0.4006
 2909SOL     OW11401   3.047   5.342   0.371 -0.3755  0.1457  0.7070
 2909SOL    HW211402   3.124   5.399   0.373  0.4226 -0.7252 -1.6518
 2909SOL    HW311403   2.979   5.393   0.327  0.3894 -0.6393 -1.5573
 2909SOL    MW411404   3.048   5.356   0.365 -0.1693 -0.0728  0.0971
 2910SOL     OW11405   5.478   0.566   3.118  0.0183  0.6817 -0.0385
 2910SOL    HW211406   5.446   0.476   3.124 -1.0653  1.0335 -0.2727
 2910SOL    HW311407   5.519   0.571   3.031 -0.4104  0.5573 -0.2528
 2910SOL    MW411408   5.479   0.555   3.107 -0.1812  0.7117 -0.0977
 2911SOL     OW11409   6.017   0.667   4.923 -0.0061 -0.1389  0.3862
 2911SOL    HW211410   5.988   0.588   4.879  0.1156 -0.5116  0.9596
 2911SOL    HW311411   5.941   0.724   4.923 -1.2262 -1.5804  2.9913
 2911SOL    MW411412   6.003   0.664   4.917 -0.1510 -0.3783  0.8056
 2912SOL     OW11413   4.592   3.088   2.495  0.0768  0.0130  0.7649
 2912SOL    HW211414   4.672   3.114   2.540 -0.3076  1.3799  0.7143
 2912SOL    HW311415   4.525   3.145   2.531 -0.6800 -0.4217  0.0760
 2912SOL    MW411416   4.594   3.099   2.506 -0.0738  0.1360  0.6673
 2913SOL     OW11417   5.485   2.043   3.416 -0.4023  0.7512  0.2174
 2913SOL    HW211418   5.551   1.977   3.435  0.2158  1.5014  0.7061
 2913SOL    HW311419   5.403   1.994   3.411 -0.0111  0.0009  0.9486
 2913SOL    MW411420   5.483   2.028   3.418 -0.2691  0.7512  0.3784
 2914SOL     OW11421   4.772   1.341   2.498  0.2069  0.3186 -0.1731
 2914SOL    HW211422   4.714   1.271   2.468  1.5897 -1.8262  1.8274
 2914SOL    HW311423   4.860   1.310   2.476  0.8180  1.9847 -0.2347
 2914SOL    MW411424   4.776   1.327   2.491  0.4700  0.2554  0.0827
 2915SOL     OW11425   2.197   0.136   5.173 -0.2287 -0.2546  0.2496
 2915SOL    HW211426   2.185   0.187   5.253 -0.3199 -0.8433  0.6183
 2915SOL    HW311427   2.117   0.153   5.122 -0.3633 -0.2169  0.4712
 2915SOL    MW411428   2.185   0.145   5.177 -0.2585 -0.3273  0.3275
 2916SOL     OW11429   1.008   3.576   2.695  0.2824 -0.0523 -0.2010
 2916SOL    HW211430   1.099   3.604   2.679  1.0274 -1.3098  1.5366
 2916SOL    HW311431   0.983   3.620   2.776 -0.4008 -0.3054 -0.2683
 2916SOL    MW411432   1.017   3.585   2.704  0.2906 -0.2516  0.0194
 2917SOL     OW11433   2.864   0.045   1.195 -0.1048  0.3212  0.0571
 2917SOL    HW211434   2.833   0.130   1.164 -0.2429  0.3744  0.3399
 2917SOL    HW311435   2.958   0.045   1.175 -0.2042  0.3238 -0.4307
 2917SOL    MW411436   2.872   0.056   1.188 -0.1362  0.3285  0.0300
 2918SOL     OW11437   3.330   0.605   4.480  0.7980  0.2767  0.4985
 2918SOL    HW211438   3.382   0.573   4.554 -0.6021 -1.1780  0.9149
 2918SOL    HW311439   3.376   0.572   4.403  0.1511 -1.6892  0.8867
 2918SOL    MW411440   3.343   0.596   4.479  0.5280 -0.1746  0.6047
 2919SOL     OW11441   2.668   0.137   2.813  0.3317 -0.0192  0.3020
 2919SOL    HW211442   2.736   0.076   2.783 -0.2274  0.1827 -1.5168
 2919SOL    HW311443   2.683   0.216   2.761 -1.1470  0.0983  0.0138
 2919SOL    MW411444   2.679   0.140   2.802  0.0628  0.0229  0.0240
 2920SOL     OW11445   2.906   1.759   2.200 -0.1287 -0.2731 -0.5864
 2920SOL    HW211446   2.870   1.840   2.238 -1.7856  0.6551 -3.7796
 2920SOL    HW311447   2.839   1.693   2.217  0.4657 -0.6310  0.5278
 2920SOL    MW411448   2.892   1.761   2.207 -0.2689 -0.1978 -0.8607
 2921SOL     OW11449   4.382   4.849   4.631 -0.0213 -0.0631  0.5067
 2921SOL    HW211450   4.423   4.927   4.593 -1.4621  0.1623 -0.6624
 2921SOL    HW311451   4.422   4.842   4.718  1.3066  1.0395  0.0409
 2921SOL    MW411452   4.393   4.859   4.637 -0.0362  0.1121  0.2910
 2922SOL     OW11453   2.848   6.193   4.304  0.0800 -0.3016 -0.3394
 2922SOL    HW211454   2.836   6.101   4.280 -1.6251 -0.1315 -0.2786
 2922SOL    HW311455   2.760   6.224   4.327  0.9806  0.6265  2.3139
 2922SOL    MW411456   2.835   6.185   4.304 -0.0262 -0.1567  0.0187
 2923SOL     OW11457   1.670   4.756   3.248 -0.2053 -0.2951 -0.3028
 2923SOL    HW211458   1.745   4.737   3.191 -0.3682 -1.2518 -0.2120
 2923SOL    HW311459   1.594   4.736   3.195 -0.4121  0.7638 -0.4234
 2923SOL    MW411460   1.670   4.751   3.233 -0.2541 -0.2816 -0.3067
 2924SOL     OW11461   0.170   1.774   5.430 -0.1069  0.1613  0.0805
 2924SOL    HW211462   0.261   1.771   5.400  0.3693  0.6636  1.3648
 2924SOL    HW311463   0.160   1.864   5.463 -1.6980  0.7509 -1.8487
 2924SOL    MW411464   0.181   1.786   5.430 -0.2540  0.3054 -0.0046
 2925SOL     OW11465   2.459   5.265   2.002 -0.0934  0.3700 -0.3122
 2925SOL    HW211466   2.469   5.354   2.036  0.4578  0.3216 -0.3404
 2925SOL    HW311467   2.511   5.264   1.922 -1.5614  0.5426 -1.2868
 2925SOL    MW411468   2.467   5.277   1.996 -0.2143  0.3864 -0.4445
 2926SOL     OW11469   0.780   2.422   3.337 -0.3687  0.5658 -0.1520
 2926SOL    HW211470   0.765   2.455   3.248  0.7317  1.3159 -0.0797
 2926SOL    HW311471   0.737   2.485   3.394 -1.3768 -0.1037 -0.1488
 2926SOL    MW411472   0.772   2.435   3.332 -0.3565  0.5764 -0.1420
 2927SOL     OW11473   3.008   1.059   1.458  0.1896 -0.0987  0.7211
 2927SOL    HW211474   2.915   1.065   1.436  0.4083 -0.5723 -0.4258
 2927SOL    HW311475   3.023   1.132   1.518 -0.7899  0.3776  0.4159
 2927SOL    MW411476   2.998   1.069   1.463  0.0892 -0.0983  0.5295
 2928SOL     OW11477   0.510   6.011   3.202 -0.0574 -0.4365  0.2463
 2928SOL    HW211478   0.578   6.026   3.268  0.2331  0.3131 -0.2179
 2928SOL    HW311479   0.453   5.945   3.242  0.2532 -0.1773  1.1472
 2928SOL    MW411480   0.511   6.004   3.216  0.0219 -0.3034  0.3039
 2929SOL     OW11481   3.752   3.504   1.622 -0.1020 -0.0526 -0.3999
 2929SOL    HW211482   3.730   3.584   1.574  0.1667 -0.7921 -1.8097
 2929SOL    HW311483   3.744   3.434   1.556  0.1609 -1.1205  0.6795
 2929SOL    MW411484   3.748   3.505   1.607 -0.0318 -0.2910 -0.4435
 2930SOL     OW11485   0.499   1.813   4.897 -0.5771  0.1152  0.3872
 2930SOL    HW211486   0.461   1.732   4.930  0.6978 -0.6465  0.0158
 2930SOL    HW311487   0.586   1.817   4.935 -0.1989  0.7229 -0.5134
 2930SOL    MW411488   0.505   1.803   4.906 -0.3590  0.0949  0.2194
 2931SOL     OW11489   3.897   4.279   5.562  0.5817  0.6637  0.2878
 2931SOL    HW211490   3.924   4.244   5.646  0.3562 -0.0630  0.0591
 2931SOL    HW311491   3.807   4.308   5.575  0.1939 -0.4037  0.0175
 2931SOL    MW411492   3.889   4.278   5.575  0.5008  0.4270  0.2220
 2932SOL     OW11493   2.025   0.381   2.403  0.3824 -0.0183 -0.2612
 2932SOL    HW211494   2.030   0.318   2.475  1.3264  1.0131  0.6187
 2932SOL    HW311495   2.105   0.434   2.412  0.2944  0.4321 -1.7972
 2932SOL    MW411496   2.037   0.380   2.414  0.4954  0.1772 -0.3478
 2933SOL     OW11497   4.861   1.359   5.970 -0.8506 -0.1336 -1.1361
 2933SOL    HW211498   4.877   1.272   6.006  3.0727  0.3418 -1.3511
 2933SOL    HW311499   4.856   1.345   5.875  0.5669 -0.0858 -1.2342
 2933SOL    MW411500   4.862   1.345   5.962 -0.1459 -0.0646 -1.1774
 2934SOL     OW11501   2.440   5.186   2.523 -0.3581 -0.0294 -0.3625
 2934SOL    HW211502   2.534   5.186   2.538  0.0195 -0.2219 -2.4057
 2934SOL    HW311503   2.429   5.235   2.441 -1.8915 -1.1375 -0.8680
 2934SOL    MW411504   2.451   5.193   2.514 -0.5106 -0.2010 -0.6988
 2935SOL     OW11505   5.940   1.706   1.265  0.4829  0.5834  0.5064
 2935SOL    HW211506   6.005   1.646   1.229 -0.4544  0.0835 -0.4189
 2935SOL    HW311507   5.990   1.766   1.320  1.4004 -1.3576  1.9035
 2935SOL    MW411508   5.955   1.706   1.268  0.4803  0.2614  0.5687
 2936SOL     OW11509   0.523   5.471   2.501  1.4696 -0.6488 -0.2076
 2936SOL    HW211510   0.576   5.501   2.576 -0.5881 -1.8559  1.8740
 2936SOL    HW311511   0.444   5.525   2.505  0.1521 -2.5116  0.2356
 2936SOL    MW411512   0.520   5.482   2.512  1.0243 -1.0538  0.1255
 2937SOL     OW11513   5.375   0.318   2.755 -0.1036 -0.1458 -0.1092
 2937SOL    HW211514   5.418   0.234   2.771 -0.3485 -0.3265 -0.4121
 2937SOL    HW311515   5.336   0.310   2.668 -1.0688 -0.1166  0.3117
 2937SOL    MW411516   5.376   0.306   2.746 -0.2633 -0.1658 -0.0937
 2938SOL     OW11517   0.258   1.444   3.865 -0.1436  0.2582  0.0208
 2938SOL    HW211518   0.192   1.375   3.870  0.0380  0.1403  1.2321
 2938SOL    HW311519   0.313   1.430   3.942  0.3024  1.3464 -0.0750
 2938SOL    MW411520   0.256   1.433   3.876 -0.0608  0.3862  0.1680
 2939SOL     OW11521   0.418   1.182   4.766 -0.2371 -0.4563  0.0845
 2939SOL    HW211522   0.411   1.197   4.861 -2.8477  0.5546 -0.1726
 2939SOL    HW311523   0.499   1.225   4.741 -0.1955  0.4895  1.6806
 2939SOL    MW411524   0.428   1.190   4.775 -0.5761 -0.1981  0.2611
 2940SOL     OW11525   5.889   4.084   5.255  0.4375  0.4763  0.6970
 2940SOL    HW211526   5.967   4.114   5.207  0.8387  1.1622  1.7208
 2940SOL    HW311527   5.903   3.990   5.268  1.1271  0.5944  0.8837
 2940SOL    MW411528   5.901   4.076   5.251  0.5814  0.5824  0.8567
 2941SOL     OW11529   6.343   1.239   5.320  0.2842  0.1575  0.0057
 2941SOL    HW211530   6.405   1.167   5.330  0.4125  0.3434  0.6284
 2941SOL    HW311531   6.360   1.273   5.232 -1.0988 -1.7529 -1.0788
 2941SOL    MW411532   6.354   1.234   5.310  0.1187 -0.0700 -0.0552
 2942SOL     OW11533   4.142   4.451   2.757 -0.0218  0.4970  0.8884
 2942SOL    HW211534   4.192   4.530   2.734 -1.9530  1.5158 -0.0088
 2942SOL    HW311535   4.190   4.414   2.832  1.8340  1.6014  0.3262
 2942SOL    MW411536   4.155   4.457   2.764 -0.0317  0.7772  0.6958
 2943SOL     OW11537   2.654   0.513   2.349  0.5848 -0.0247 -0.4916
 2943SOL    HW211538   2.710   0.457   2.402 -1.6929 -1.6853  0.3445
 2943SOL    HW311539   2.613   0.454   2.286  0.4299  1.2714 -1.6712
 2943SOL    MW411540   2.656   0.498   2.347  0.2638 -0.0728 -0.5369
 2944SOL     OW11541   0.352   6.104   5.429 -0.6005 -0.0016 -0.6117
 2944SOL    HW211542   0.363   6.199   5.433 -0.6379  0.0109 -0.7704
 2944SOL    HW311543   0.267   6.093   5.386 -0.3962 -0.1100 -0.9926
 2944SOL    MW411544   0.342   6.115   5.424 -0.5785 -0.0143 -0.6829
 2945SOL     OW11545   2.425   3.926   2.837 -0.0607 -0.5911  0.1412
 2945SOL    HW211546   2.508   3.963   2.869  1.0140 -3.3648  0.8666
 2945SOL    HW311547   2.361   3.955   2.901  0.7141  0.0465  0.6570
 2945SOL    MW411548   2.428   3.935   2.850  0.1833 -0.8729  0.3050
 2946SOL     OW11549   5.838   2.044   1.886  0.0383 -0.3057 -0.2406
 2946SOL    HW211550   5.764   1.987   1.869 -1.1252  1.3656 -1.0377
 2946SOL    HW311551   5.833   2.111   1.818  2.7151 -0.5121 -0.7572
 2946SOL    MW411552   5.828   2.045   1.875  0.2380 -0.1124 -0.4140
 2947SOL     OW11553   1.112   0.013   2.901  0.1196 -0.1932  0.0177
 2947SOL    HW211554   1.090   0.047   2.814  0.6570 -0.0393 -0.0580
 2947SOL    HW311555   1.064   0.070   2.961 -1.4980 -1.2403 -0.2157
 2947SOL    MW411556   1.103   0.025   2.898 -0.0229 -0.3110 -0.0230
 2948SOL     OW11557   5.123   5.591   5.881 -0.3542  0.2531 -0.1864
 2948SOL    HW211558   5.052   5.582   5.945 -0.3668 -1.3718 -0.3666
 2948SOL    HW311559   5.085   5.561   5.799 -0.0390  1.3433 -0.7429
 2948SOL    MW411560   5.109   5.586   5.879 -0.3143  0.1826 -0.2836
 2949SOL     OW11561   1.261   3.105   4.102 -0.0387 -0.2729  0.3482
 2949SOL    HW211562   1.267   3.028   4.158  0.5319 -0.5146 -0.0295
 2949SOL    HW311563   1.342   3.103   4.051 -1.4335 -1.2113 -1.9591
 2949SOL    MW411564   1.273   3.095   4.103 -0.1474 -0.4286 -0.0061
 2950SOL     OW11565   4.490   4.873   6.042  0.3480 -0.2082  0.5186
 2950SOL    HW211566   4.471   4.945   5.982  1.9591 -1.0241 -1.1042
 2950SOL    HW311567   4.519   4.915   6.123  1.5823  1.0049 -0.5047
 2950SOL    MW411568   4.491   4.888   6.045  0.7234 -0.1558  0.1695
 2951SOL     OW11569   2.504   4.343   4.345  0.0721  0.3552  0.2755
 2951SOL    HW211570   2.569   4.302   4.403  0.8166  1.1966  0.0614
 2951SOL    HW311571   2.433   4.368   4.404  0.5100  0.5626  0.7290
 2951SOL    MW411572   2.503   4.341   4.361  0.2281  0.4936  0.3071
 2952SOL     OW11573   0.106   4.416   2.703 -0.2975  0.0596  0.5604
 2952SOL    HW211574   0.136   4.465   2.627 -0.1762  0.9146  1.1478
 2952SOL    HW311575   0.046   4.476   2.748  0.4442 -0.0137  1.7043
 2952SOL    MW411576   0.102   4.430   2.699 -0.1837  0.1627  0.7888
 2953SOL     OW11577   1.328   2.233   0.252 -0.3590  0.2714 -0.4006
 2953SOL    HW211578   1.397   2.267   0.309 -0.4411 -2.0308  1.2111
 2953SOL    HW311579   1.370   2.223   0.167  1.0579 -0.2935  0.3397
 2953SOL    MW411580   1.343   2.236   0.248 -0.1829 -0.1068 -0.0903
 2954SOL     OW11581   2.525   0.873   0.218  1.2952  0.3152  0.1471
 2954SOL    HW211582   2.597   0.923   0.180  2.0690 -1.1387 -0.3709
 2954SOL    HW311583   2.467   0.854   0.144  1.7430 -0.7598  0.0625
 2954SOL    MW411584   2.527   0.878   0.203  1.4564 -0.0185  0.0676
 2955SOL     OW11585   1.472   6.216   5.078  0.6440  0.5325 -0.4575
 2955SOL    HW211586   1.459   6.280   5.008 -0.3523  0.0847 -0.7024
 2955SOL    HW311587   1.413   6.145   5.056  1.1342 -0.1084  0.2583
 2955SOL    MW411588   1.462   6.215   5.066  0.5772  0.3888 -0.3954
 2956SOL     OW11589   4.682   3.996   5.818 -0.1706  0.0117  0.0359
 2956SOL    HW211590   4.644   4.068   5.769 -1.4247 -0.1124  0.7710
 2956SOL    HW311591   4.617   3.976   5.886  1.2603 -0.1659  1.4082
 2956SOL    MW411592   4.668   4.003   5.821 -0.1473 -0.0281  0.3140
 2957SOL     OW11593   3.314   4.562   3.455  0.4788 -0.2898  0.0247
 2957SOL    HW211594   3.246   4.602   3.509  0.3651 -0.2679 -0.1342
 2957SOL    HW311595   3.376   4.632   3.438  0.0371 -0.0537 -0.6500
 2957SOL    MW411596   3.313   4.576   3.460  0.4055 -0.2558 -0.0853
 2958SOL     OW11597   4.100   4.316   0.360  0.2642  0.0299 -0.1685
 2958SOL    HW211598   4.072   4.289   0.448  0.3514  1.1872  0.2284
 2958SOL    HW311599   4.019   4.338   0.315  0.2927  0.4706 -0.0133
 2958SOL    MW411600   4.085   4.315   0.366  0.2795  0.2407 -0.0957
 2959SOL     OW11601   5.590   2.698   5.831 -0.1728 -0.0665 -0.4136
 2959SOL    HW211602   5.601   2.626   5.893  0.5337  1.5595  1.4612
 2959SOL    HW311603   5.679   2.728   5.812 -0.3990 -0.2912 -1.9548
 2959SOL    MW411604   5.603   2.693   5.836 -0.1094  0.1184 -0.3696
 2960SOL     OW11605   5.430   1.341   4.336 -0.1720  0.4366  0.0930
 2960SOL    HW211606   5.419   1.303   4.424 -1.4001  0.8267  0.1339
 2960SOL    HW311607   5.361   1.407   4.331 -0.9399 -0.4382 -1.6216
 2960SOL    MW411608   5.419   1.344   4.347 -0.4353  0.3727 -0.1278
 2961SOL     OW11609   1.361   1.243   0.191 -0.2762 -0.5759  0.4084
 2961SOL    HW211610   1.390   1.334   0.180  0.2347 -1.0210 -3.0025
 2961SOL    HW311611   1.435   1.190   0.163 -2.0633 -1.8802 -2.2293
 2961SOL    MW411612   1.374   1.248   0.186 -0.4446 -0.8067 -0.3896
 2962SOL     OW11613   0.467   2.574   3.166  0.7772  0.2206  0.1286
 2962SOL    HW211614   0.509   2.648   3.208  1.9561 -0.1758 -0.2936
 2962SOL    HW311615   0.404   2.613   3.105  0.6174  0.8348  0.6782
 2962SOL    MW411616   0.464   2.589   3.163  0.9117  0.2493  0.1454
 2963SOL     OW11617   2.608   1.678   0.402 -0.5026 -0.0200 -0.7253
 2963SOL    HW211618   2.662   1.661   0.324 -0.4259 -0.7367 -0.5255
 2963SOL    HW311619   2.665   1.725   0.461 -0.5251  0.4308 -1.0594
 2963SOL    MW411620   2.622   1.682   0.399 -0.4955 -0.0551 -0.7430
 2964SOL     OW11621   6.375   0.960   2.200  0.5410 -0.3944 -0.5461
 2964SOL    HW211622   6.342   0.926   2.284 -0.8024  0.0590 -0.8595
 2964SOL    HW311623   6.426   1.038   2.224 -0.2791  0.0408 -0.1764
 2964SOL    MW411624   6.377   0.966   2.215  0.2555 -0.2771 -0.5387
 2965SOL     OW11625   1.960   5.761   4.668  0.1479 -0.0072  0.3010
 2965SOL    HW211626   1.960   5.736   4.760  0.6603  0.7797  0.5233
 2965SOL    HW311627   1.901   5.836   4.664 -2.2632 -1.8126 -0.5498
 2965SOL    MW411628   1.952   5.767   4.680 -0.1026 -0.1416  0.2181
 2966SOL     OW11629   1.127   0.049   2.152  0.0981 -0.0948 -0.2465
 2966SOL    HW211630   1.048   0.071   2.103  0.0635  0.7818  0.1855
 2966SOL    HW311631   1.099  -0.022   2.210 -0.1202 -0.4480 -0.7807
 2966SOL    MW411632   1.113   0.043   2.153  0.0647 -0.0257 -0.2600
 2967SOL     OW11633   0.042   0.007   3.764  0.0814 -0.0283  0.3325
 2967SOL    HW211634   0.133  -0.006   3.737  0.1429 -0.1805  0.6128
 2967SOL    HW311635  -0.009  -0.015   3.685  0.2523 -0.7197  0.4036
 2967SOL    MW411636   0.047   0.002   3.750  0.1121 -0.1396  0.3789
 2968SOL     OW11637   3.664   6.276   5.379 -0.2888 -0.2141 -0.0876
 2968SOL    HW211638   3.715   6.262   5.299 -0.3244 -0.5989 -0.0444
 2968SOL    HW311639   3.578   6.240   5.360 -0.2392 -0.4873  0.1881
 2968SOL    MW411640   3.660   6.270   5.366 -0.2869 -0.3009 -0.0455
 2969SOL     OW11641   1.250   4.762   0.912 -0.0515 -1.0429  0.4206
 2969SOL    HW211642   1.173   4.735   0.963 -0.2004 -0.2127  0.6505
 2969SOL    HW311643   1.325   4.729   0.962 -0.1717  0.2382  1.4992
 2969SOL    MW411644   1.250   4.754   0.926 -0.0870 -0.7643  0.5932
 2970SOL     OW11645   2.694   2.973   5.892  0.0871  0.4050 -0.2213
 2970SOL    HW211646   2.734   2.991   5.807  0.8045 -0.3820 -0.0633
 2970SOL    HW311647   2.723   3.045   5.948 -0.3288  0.8863 -0.6097
 2970SOL    MW411648   2.703   2.985   5.888  0.1269  0.3647 -0.2517
 2971SOL     OW11649   2.295   5.818   4.808  0.7382  0.0855  0.0108
 2971SOL    HW211650   2.208   5.823   4.848  0.7122  1.3281 -0.1713
 2971SOL    HW311651   2.278   5.787   4.719  0.4656  0.4475 -0.0664
 2971SOL    MW411652   2.281   5.815   4.801  0.6988  0.2972 -0.0234
 2972SOL     OW11653   2.873   5.395   1.773 -0.1109  0.3756 -0.2456
 2972SOL    HW211654   2.794   5.343   1.781  1.2229 -1.4956  1.9601
 2972SOL    HW311655   2.909   5.372   1.687 -0.4883 -0.9917 -0.0552
 2972SOL    MW411656   2.867   5.385   1.762  0.0153 -0.0517  0.0705
 2973SOL     OW11657   0.779   4.368   3.458 -0.2791  0.1391 -0.5916
 2973SOL    HW211658   0.778   4.455   3.418  1.3001  0.2696 -0.4228
 2973SOL    HW311659   0.863   4.363   3.503 -1.5834 -0.3890  1.9260
 2973SOL    MW411660   0.790   4.378   3.458 -0.2428  0.0866 -0.2371
 2974SOL     OW11661   0.697   3.605   6.152 -0.2441  0.4451 -0.0554
 2974SOL    HW211662   0.670   3.532   6.096 -0.7932  0.2971  0.3947
 2974SOL    HW311663   0.679   3.683   6.099 -1.3258  0.3368  0.1270
 2974SOL    MW411664   0.691   3.606   6.138 -0.4593  0.4113  0.0281
 2975SOL     OW11665   3.938   3.436   4.745 -0.2552  0.3058 -0.1689
 2975SOL    HW211666   3.974   3.358   4.702 -0.0609  0.3929 -0.1655
 2975SOL    HW311667   3.980   3.437   4.831 -0.5639  0.1905 -0.0146
 2975SOL    MW411668   3.948   3.426   4.751 -0.2703  0.3021 -0.1481
 2976SOL     OW11669   6.223   3.426   6.398 -0.5372 -0.2170 -0.1167
 2976SOL    HW211670   6.253   3.456   6.484  0.4771  0.1323 -0.5808
 2976SOL    HW311671   6.134   3.394   6.414 -0.4099 -0.0450  1.0367
 2976SOL    MW411672   6.215   3.426   6.412 -0.3865 -0.1483 -0.0258
 2977SOL     OW11673   2.200   0.817   4.826  0.0062 -0.0881 -0.0910
 2977SOL    HW211674   2.210   0.912   4.829 -1.5821  0.0868  1.3157
 2977SOL    HW311675   2.141   0.802   4.752 -0.4078  0.1065  0.1953
 2977SOL    MW411676   2.193   0.827   4.817 -0.2580 -0.0394  0.1324
 2978SOL     OW11677   3.653   0.640   3.582 -0.5838 -0.3738 -0.3620
 2978SOL    HW211678   3.723   0.673   3.638  1.0584 -2.7308 -0.8748
 2978SOL    HW311679   3.601   0.583   3.639 -0.3267 -0.9137 -0.6615
 2978SOL    MW411680   3.655   0.637   3.597 -0.3332 -0.7560 -0.4692
 2979SOL     OW11681   2.437   2.048   5.081 -0.4111 -0.2150 -0.1894
 2979SOL    HW211682   2.531   2.062   5.066  0.0988 -0.4782  2.2942
 2979SOL    HW311683   2.404   2.133   5.110 -1.2799  0.2128 -2.2619
 2979SOL    MW411684   2.445   2.061   5.083 -0.4585 -0.1933 -0.1351
 2980SOL     OW11685   1.026   0.802   3.585  0.1295  0.5310 -0.8550
 2980SOL    HW211686   0.933   0.818   3.602 -0.3476  0.6848 -3.2825
 2980SOL    HW311687   1.028   0.720   3.535  1.5590 -0.8089  1.2287
 2980SOL    MW411688   1.014   0.793   3.581  0.2551  0.3745 -0.9003
 2981SOL     OW11689   4.758   2.250   6.240 -0.0563 -0.0342  0.4488
 2981SOL    HW211690   4.673   2.214   6.214  0.8095 -1.3273 -0.6933
 2981SOL    HW311691   4.756   2.340   6.209 -1.0912  0.0234  0.6349
 2981SOL    MW411692   4.746   2.257   6.233 -0.0786 -0.1972  0.3226
 2982SOL     OW11693   0.168   5.230   1.525  0.4731  0.0703  0.1322
 2982SOL    HW211694   0.140   5.254   1.437  2.9893 -0.0790 -0.7909
 2982SOL    HW311695   0.239   5.291   1.545  1.8301 -1.6590  0.8473
 2982SOL    MW411696   0.174   5.241   1.516  0.9841 -0.1775  0.1048
 2983SOL     OW11697   0.277   4.238   0.170 -0.0371 -0.2551  0.4227
 2983SOL    HW211698   0.287   4.306   0.237 -0.1364 -1.0155  1.2269
 2983SOL    HW311699   0.254   4.160   0.219 -0.8584 -0.6580 -0.5747
 2983SOL    MW411700   0.275   4.237   0.186 -0.1586 -0.4086  0.3972
 2984SOL     OW11701   5.496   1.526   4.030  0.2917 -0.4408 -0.3693
 2984SOL    HW211702   5.525   1.554   4.117 -1.0694  2.1929 -0.6654
 2984SOL    HW311703   5.577   1.509   3.982  1.0887 -0.8479  1.0779
 2984SOL    MW411704   5.511   1.528   4.035  0.2173 -0.1470 -0.2174
 2985SOL     OW11705   6.114   5.886   5.532 -0.3549 -0.1430  0.5381
 2985SOL    HW211706   6.048   5.842   5.585 -2.6954 -0.9400 -2.7431
 2985SOL    HW311707   6.156   5.815   5.482 -0.5007  0.7985 -0.9995
 2985SOL    MW411708   6.111   5.870   5.532 -0.6829 -0.1240 -0.0977
 2986SOL     OW11709   6.311   6.419   2.724 -0.6135 -0.5310  0.0097
 2986SOL    HW211710   6.368   6.477   2.775 -0.5638 -0.6628  0.1045
 2986SOL    HW311711   6.270   6.476   2.659 -0.6899 -0.3583  0.2084
 2986SOL    MW411712   6.313   6.434   2.722 -0.6170 -0.5256  0.0484
 2987SOL     OW11713   3.688   5.344   3.056  0.4208  0.2626 -0.3967
 2987SOL    HW211714   3.732   5.261   3.072 -0.6096 -0.0458  1.1158
 2987SOL    HW311715   3.720   5.373   2.971  0.8224 -1.6704 -0.9431
 2987SOL    MW411716   3.698   5.337   3.047  0.3378 -0.0332 -0.2692
 2988SOL     OW11717   5.237   2.003   0.412  0.3214 -0.1689 -0.0879
 2988SOL    HW211718   5.314   1.947   0.399  2.0611  2.0612  0.0918
 2988SOL    HW311719   5.254   2.047   0.495 -1.2352  0.2993  0.0093
 2988SOL    MW411720   5.250   2.001   0.422  0.3455  0.1871 -0.0514
 2989SOL     OW11721   1.227   1.799   1.842 -0.3647 -0.0248  0.2760
 2989SOL    HW211722   1.163   1.867   1.863 -0.8013  0.4072 -2.1397
 2989SOL    HW311723   1.184   1.717   1.865 -1.1078  0.3501  0.2546
 2989SOL    MW411724   1.213   1.797   1.848 -0.5203  0.0817 -0.0455
 2990SOL     OW11725   1.965   0.528   5.788 -0.6946 -0.3417 -0.1881
 2990SOL    HW211726   2.016   0.447   5.781 -2.4629 -1.5542  0.3764
 2990SOL    HW311727   1.945   0.551   5.698  1.5107  0.6661 -0.5001
 2990SOL    MW411728   1.969   0.520   5.775 -0.6369 -0.3687 -0.1548
 2991SOL     OW11729   3.457   0.321   3.382  0.0593 -0.2423  0.1536
 2991SOL    HW211730   3.490   0.282   3.301  0.7497 -1.0498  0.7950
 2991SOL    HW311731   3.467   0.415   3.369 -0.9129 -0.2817 -1.1330
 2991SOL    MW411732   3.463   0.328   3.370  0.0221 -0.3540  0.0684
 2992SOL     OW11733   5.704   4.523   4.116 -0.4915  0.0252 -0.7138
 2992SOL    HW211734   5.770   4.535   4.048  2.1635 -0.7930  1.5407
 2992SOL    HW311735   5.716   4.599   4.174 -0.1920 -1.0593  0.7038
 2992SOL    MW411736   5.714   4.535   4.115 -0.1017 -0.2259 -0.2293
 2993SOL     OW11737   0.325   0.367   1.546 -0.6540 -0.1126 -0.5103
 2993SOL    HW211738   0.235   0.400   1.539 -0.8953 -0.7430 -0.5089
 2993SOL    HW311739   0.321   0.279   1.506  0.1873  0.2579 -1.4587
 2993SOL    MW411740   0.313   0.359   1.540 -0.5748 -0.1469 -0.6352
 2994SOL     OW11741   4.545   2.499   2.508  0.3188  0.9307  0.2115
 2994SOL    HW211742   4.453   2.503   2.481  0.8277  0.4050 -1.7713
 2994SOL    HW311743   4.568   2.406   2.503  0.9499  1.0489  0.7463
 2994SOL    MW411744   4.536   2.487   2.504  0.4692  0.8769  0.0205
 2995SOL     OW11745   2.084   4.805   2.484  0.9756  0.1144  0.4734
 2995SOL    HW211746   2.002   4.768   2.516  0.7036  0.0214 -0.2970
 2995SOL    HW311747   2.151   4.744   2.514  0.8408  0.5102  1.6237
 2995SOL    MW411748   2.082   4.792   2.492  0.9220  0.1543  0.5235
 2996SOL     OW11749   1.592   1.263   6.285 -0.0208 -0.0406 -0.4513
 2996SOL    HW211750   1.515   1.219   6.250 -0.3427 -1.6899  2.0387
 2996SOL    HW311751   1.584   1.254   6.380  1.6322  2.6115  0.0594
 2996SOL    MW411752   1.581   1.256   6.293  0.1548  0.0917 -0.0554
 2997SOL     OW11753   3.362   0.846   6.316 -0.1841  0.1559  0.3854
 2997SOL    HW211754   3.314   0.914   6.268 -1.4962  0.0062  1.4306
 2997SOL    HW311755   3.454   0.871   6.308 -0.4171  0.5883 -1.4896
 2997SOL    MW411756   3.367   0.858   6.308 -0.3880  0.1932  0.2759
 2998SOL     OW11757   0.368   1.763   3.070  0.0532  0.4902  0.1439
 2998SOL    HW211758   0.275   1.774   3.051  0.2876  1.4274 -0.5151
 2998SOL    HW311759   0.376   1.776   3.164 -0.3820  1.1287  0.0917
 2998SOL    MW411760   0.357   1.766   3.080  0.0267  0.6981  0.0501
 2999SOL     OW11761   0.870   3.731   4.566  0.1842  0.0608  0.4790
 2999SOL    HW211762   0.834   3.648   4.536 -1.3176  1.3966 -1.7867
 2999SOL    HW311763   0.963   3.727   4.543  0.2470 -1.1879  0.9065
 2999SOL    MW411764   0.877   3.720   4.559 -0.0057  0.0723  0.2365
 3000SOL     OW11765   5.869   3.442   5.263  0.1778 -0.6199 -0.2639
 3000SOL    HW211766   5.948   3.436   5.316  0.3937 -0.2924 -0.5385
 3000SOL    HW311767   5.895   3.498   5.189 -0.6687  0.5593  0.3054
 3000SOL    MW411768   5.883   3.449   5.260  0.0946 -0.4211 -0.2250
 3001SOL     OW11769   2.662   0.954   1.687  0.8864 -0.5796 -0.7056
 3001SOL    HW211770   2.736   0.945   1.746  0.4952 -1.3382 -0.3237
 3001SOL    HW311771   2.668   0.879   1.628  1.4314  0.3117 -1.8287
 3001SOL    MW411772   2.672   0.943   1.687  0.9067 -0.5621 -0.8034
 3002SOL     OW11773   3.868   5.736   2.976 -0.6110  0.2121  0.2709
 3002SOL    HW211774   3.794   5.764   2.923 -1.5318 -0.1697  1.3054
 3002SOL    HW311775   3.879   5.806   3.041  2.8115  2.5452 -2.4115
 3002SOL    MW411776   3.860   5.749   2.978 -0.2809  0.4695  0.0535
 3003SOL     OW11777   4.431   6.416   2.106 -0.0781  0.4443  0.1848
 3003SOL    HW211778   4.430   6.388   2.015  0.3718  0.3606  0.2005
 3003SOL    HW311779   4.343   6.450   2.123  0.1988  1.6226 -0.6395
 3003SOL    MW411780   4.419   6.417   2.096  0.0178  0.5887  0.0781
 3004SOL     OW11781   6.243   0.214   1.803 -0.0318 -0.3542  0.4533
 3004SOL    HW211782   6.296   0.136   1.821 -0.1484 -0.8832 -1.2804
 3004SOL    HW311783   6.202   0.196   1.718 -0.2945  1.4801  0.1493
 3004SOL    MW411784   6.245   0.201   1.794 -0.0818 -0.1820  0.1845
 3005SOL     OW11785   5.888   5.700   6.023  0.0172 -0.4408  0.7955
 3005SOL    HW211786   5.836   5.666   5.950 -0.4424 -1.9444  1.7742
 3005SOL    HW311787   5.936   5.624   6.056  2.2908  0.7594  0.4075
 3005SOL    MW411788   5.887   5.685   6.018  0.2565 -0.4808  0.8734
 3006SOL     OW11789   3.278   1.076   2.263 -0.0428 -0.9649 -0.0671
 3006SOL    HW211790   3.196   1.112   2.295 -0.2460 -1.0800 -0.4543
 3006SOL    HW311791   3.344   1.107   2.325 -0.5985 -2.2614  1.2395
 3006SOL    MW411792   3.276   1.085   2.275 -0.1429 -1.1512  0.0542
 3007SOL     OW11793   6.148   5.709   2.199 -0.1008  0.1184 -0.1359
 3007SOL    HW211794   6.131   5.790   2.151  0.3899  0.4414  0.2372
 3007SOL    HW311795   6.181   5.736   2.284 -1.3152 -0.4529  0.5448
 3007SOL    MW411796   6.150   5.723   2.204 -0.1963  0.0856  0.0032
 3008SOL     OW11797   6.369   0.663   2.506 -0.0958  0.2495 -0.3384
 3008SOL    HW211798   6.443   0.628   2.456 -0.9838 -0.5252 -1.1415
 3008SOL    HW311799   6.353   0.749   2.468  1.2752  1.0650  0.7942
 3008SOL    MW411800   6.377   0.670   2.495 -0.0321  0.2549 -0.2949
 3009SOL     OW11801   4.001   4.660   1.055 -0.0784 -0.4305  0.2176
 3009SOL    HW211802   3.906   4.652   1.050 -0.0654 -0.5800  0.2128
 3009SOL    HW311803   4.034   4.580   1.013  0.0514  0.0857 -0.6893
 3009SOL    MW411804   3.993   4.648   1.048 -0.0595 -0.3821  0.0973
 3010SOL     OW11805   1.604   1.659   4.631 -0.6130 -0.4901 -0.1125
 3010SOL    HW211806   1.631   1.669   4.722  0.1212 -0.1312 -0.3591
 3010SOL    HW311807   1.530   1.719   4.621 -1.3086 -1.2335  0.4896
 3010SOL    MW411808   1.598   1.668   4.642 -0.6079 -0.5408 -0.0656
 3011SOL     OW11809   0.127   1.162   2.323 -0.7592  0.1898 -0.0287
 3011SOL    HW211810   0.140   1.256   2.334 -0.3789  0.2029 -0.5909
 3011SOL    HW311811   0.207   1.122   2.356 -0.8473  0.0718  0.0437
 3011SOL    MW411812   0.139   1.169   2.329 -0.7206  0.1760 -0.0933
 3012SOL     OW11813   2.163   2.211   2.904  0.5367 -0.1610  0.2562
 3012SOL    HW211814   2.185   2.175   2.818  1.2955  0.2116  0.2821
 3012SOL    HW311815   2.228   2.281   2.918  1.1535 -0.9667  1.6330
 3012SOL    MW411816   2.175   2.216   2.894  0.7182 -0.2182  0.4413
 3013SOL     OW11817   5.609   0.141   1.088  0.6002  0.1286  0.1224
 3013SOL    HW211818   5.683   0.108   1.038 -0.1288 -0.7659 -0.4109
 3013SOL    HW311819   5.639   0.223   1.126  0.9169  1.2906 -2.4692
 3013SOL    MW411820   5.622   0.147   1.087  0.5458  0.1639 -0.2899
 3014SOL     OW11821   2.069   0.463   3.413  0.2618  0.1546  0.0530
 3014SOL    HW211822   2.037   0.418   3.492 -2.0423  2.7856  0.7755
 3014SOL    HW311823   2.151   0.504   3.440 -0.9046  1.7070  1.4468
 3014SOL    MW411824   2.076   0.462   3.427 -0.1961  0.7066  0.3322
 3015SOL     OW11825   2.336   2.877   5.987 -0.0744 -0.0165 -0.1623
 3015SOL    HW211826   2.383   2.952   5.949  1.8390 -1.9889 -1.9944
 3015SOL    HW311827   2.248   2.883   5.949  0.8838 -0.1866 -2.5933
 3015SOL    MW411828   2.331   2.888   5.977  0.3045 -0.2991 -0.7247
 3016SOL     OW11829   2.169   3.411   4.391 -0.2533 -0.0003  0.0149
 3016SOL    HW211830   2.084   3.381   4.423  0.3799 -2.0795 -0.0606
 3016SOL    HW311831   2.195   3.481   4.451 -1.8645  0.4375  0.2242
 3016SOL    MW411832   2.162   3.416   4.403 -0.3824 -0.2168  0.0325
 3017SOL     OW11833   4.835   0.266   2.519  0.0476  0.4161  0.4832
 3017SOL    HW211834   4.740   0.279   2.517  0.0020  0.3399  1.5069
 3017SOL    HW311835   4.867   0.333   2.581  0.4833 -0.4637  1.2385
 3017SOL    MW411836   4.827   0.277   2.527  0.0991  0.2899  0.7179
 3018SOL     OW11837   6.323   0.290   5.032  0.2889  0.0209 -0.0934
 3018SOL    HW211838   6.374   0.209   5.028  0.3975 -0.2994  3.7096
 3018SOL    HW311839   6.386   0.357   5.058 -0.4788  0.4403  0.7589
 3018SOL    MW411840   6.338   0.288   5.035  0.2020  0.0340  0.5208
 3019SOL     OW11841   0.147   3.084   2.616 -0.1620  0.3727  0.1555
 3019SOL    HW211842   0.176   2.993   2.615 -1.3791 -0.0365 -0.9531
 3019SOL    HW311843   0.070   3.085   2.559 -1.3519  1.7098  1.7027
 3019SOL    MW411844   0.141   3.072   2.608 -0.4796  0.4952  0.2133
 3020SOL     OW11845   3.694   4.422   5.165 -0.2150  0.8805 -0.3353
 3020SOL    HW211846   3.690   4.388   5.076  1.2423  0.2801 -0.1991
 3020SOL    HW311847   3.760   4.368   5.209 -0.1790  1.8082  0.8155
 3020SOL    MW411848   3.702   4.410   5.159 -0.0180  0.9237 -0.1655
 3021SOL     OW11849   0.075   2.799   2.882 -0.1368  0.1552 -0.0525
 3021SOL    HW211850   0.127   2.744   2.941 -0.1399  1.3445  1.1202
 3021SOL    HW311851   0.128   2.879   2.872 -1.3950  1.1064  0.6129
 3021SOL    MW411852   0.089   2.803   2.889 -0.3032  0.4376  0.1900
 3022SOL     OW11853   1.958   0.168   5.045 -0.1083 -0.3691 -0.0425
 3022SOL    HW211854   1.966   0.077   5.018 -2.4907 -0.6643  0.0480
 3022SOL    HW311855   1.997   0.218   4.974 -1.7181 -1.3492 -1.7025
 3022SOL    MW411856   1.964   0.163   5.032 -0.6350 -0.5374 -0.2496
 3023SOL     OW11857   0.419   5.897   2.528  0.2056 -0.2312 -0.1097
 3023SOL    HW211858   0.506   5.928   2.556 -0.5198  1.8973 -0.0668
 3023SOL    HW311859   0.361   5.970   2.546 -1.6756 -1.7082  0.0720
 3023SOL    MW411860   0.423   5.911   2.534 -0.1383 -0.1453 -0.0800
 3024SOL     OW11861   6.307   0.489   3.737 -0.1739  0.5107 -0.3996
 3024SOL    HW211862   6.360   0.415   3.706  0.0212  0.3746  0.2429
 3024SOL    HW311863   6.218   0.469   3.706 -0.0854  0.1059 -0.4010
 3024SOL    MW411864   6.302   0.476   3.729 -0.1365  0.4393 -0.3150
 3025SOL     OW11865   3.661   5.258   2.143 -0.0911 -0.0307 -0.1346
 3025SOL    HW211866   3.718   5.315   2.091 -1.6142  0.5676 -1.2104
 3025SOL    HW311867   3.675   5.171   2.108  0.2578  0.0939 -0.3043
 3025SOL    MW411868   3.670   5.254   2.132 -0.2460  0.0647 -0.2989
 3026SOL     OW11869   0.830   0.010   4.066 -0.5610  0.2206  0.6679
 3026SOL    HW211870   0.770   0.083   4.077 -0.9946  0.2859 -1.6288
 3026SOL    HW311871   0.871   0.025   3.980  4.0272  1.0960  2.6955
 3026SOL    MW411872   0.828   0.021   4.056 -0.0129  0.3447  0.6324
 3027SOL     OW11873   3.722   1.018   4.221 -0.0190 -0.3896  0.1770
 3027SOL    HW211874   3.792   0.959   4.250 -0.6525 -0.6073  1.2917
 3027SOL    HW311875   3.716   1.084   4.291  1.2430  1.5234 -1.4153
 3027SOL    MW411876   3.731   1.019   4.234  0.0639 -0.1659  0.1140
 3028SOL     OW11877   2.860   6.151   0.400 -0.3123  0.3257  0.0862
 3028SOL    HW211878   2.765   6.157   0.386 -0.7989 -1.4003  2.0412
 3028SOL    HW311879   2.882   6.228   0.452 -0.6383  0.7529 -0.4061
 3028SOL    MW411880   2.850   6.162   0.405 -0.4195  0.1544  0.2792
 3029SOL     OW11881   1.912   2.024   2.736  0.2036  0.0195  0.5466
 3029SOL    HW211882   1.992   2.067   2.708 -0.5254  1.6699  0.8566
 3029SOL    HW311883   1.913   2.030   2.831 -0.4018  0.2963  0.5412
 3029SOL    MW411884   1.922   2.031   2.745  0.0275  0.2737  0.5868
 3030SOL     OW11885   3.875   0.242   4.886  0.0374  0.0708 -0.2192
 3030SOL    HW211886   3.932   0.172   4.853 -1.1059 -1.3373  0.7143
 3030SOL    HW311887   3.819   0.265   4.812  1.4821  1.1955 -1.0263
 3030SOL    MW411888   3.875   0.236   4.872  0.0771  0.0334 -0.2025
 3031SOL     OW11889   2.072   3.728   5.183 -0.0982 -0.0338  0.4283
 3031SOL    HW211890   2.166   3.720   5.200 -0.4435 -1.8659  1.6690
 3031SOL    HW311891   2.035   3.645   5.212 -1.8762 -0.1242 -1.8138
 3031SOL    MW411892   2.080   3.716   5.189 -0.3784 -0.2874  0.2962
 3032SOL     OW11893   6.043   1.395   5.348  0.1275 -0.1582  0.3516
 3032SOL    HW211894   6.025   1.348   5.267  0.1406 -1.4171  1.0426
 3032SOL    HW311895   5.967   1.451   5.361 -0.0252 -0.1919 -0.3534
 3032SOL    MW411896   6.031   1.396   5.339  0.1091 -0.3287  0.3497
 3033SOL     OW11897   5.645   2.297   1.845  0.0189  0.2024 -0.3922
 3033SOL    HW211898   5.649   2.332   1.756  0.4030  0.1200 -0.4102
 3033SOL    HW311899   5.636   2.375   1.900 -1.8094  0.1735 -0.5860
 3033SOL    MW411900   5.644   2.312   1.840 -0.1716  0.1877 -0.4202
 3034SOL     OW11901   3.380   1.837   0.143  0.1582 -0.2020  0.0304
 3034SOL    HW211902   3.409   1.910   0.198  0.7988 -1.1374  0.9611
 3034SOL    HW311903   3.378   1.874   0.055  2.1829  0.4983  0.2198
 3034SOL    MW411904   3.383   1.851   0.139  0.5098 -0.2330  0.1782
 3035SOL     OW11905   5.265   4.750   0.836 -0.4726  0.1707  0.0989
 3035SOL    HW211906   5.238   4.666   0.872 -1.5625  0.8138  0.8357
 3035SOL    HW311907   5.357   4.758   0.859  0.4917 -2.0532 -2.4210
 3035SOL    MW411908   5.274   4.740   0.844 -0.4892 -0.0379 -0.1364
 3036SOL     OW11909   4.849   4.590   6.279  0.8044  0.5849 -0.0862
 3036SOL    HW211910   4.816   4.558   6.363  0.3103  0.2143 -0.4132
 3036SOL    HW311911   4.850   4.685   6.288 -0.2785  0.6064 -0.0211
 3036SOL    MW411912   4.845   4.598   6.291  0.5963  0.5389 -0.1207
 3037SOL     OW11913   2.486   1.147   2.957 -0.1937 -0.2198 -0.2384
 3037SOL    HW211914   2.443   1.222   2.998 -1.9276 -0.6937 -1.0998
 3037SOL    HW311915   2.480   1.164   2.863  0.0317 -1.0947 -0.4169
 3037SOL    MW411916   2.480   1.159   2.950 -0.3927 -0.3978 -0.3756
 3038SOL     OW11917   3.797   3.459   0.339  0.0612  0.0303  0.0055
 3038SOL    HW211918   3.829   3.370   0.325  0.9334  0.5273 -1.4359
 3038SOL    HW311919   3.872   3.506   0.376  0.3573  0.6700 -1.3246
 3038SOL    MW411920   3.811   3.453   0.342  0.2153  0.1802 -0.3602
 3039SOL     OW11921   0.210   4.159   0.921 -0.5931 -0.2037 -0.0887
 3039SOL    HW211922   0.195   4.217   0.846  0.6753 -1.0425 -1.0329
 3039SOL    HW311923   0.136   4.175   0.979 -0.6252  1.8777 -0.6218
 3039SOL    MW411924   0.198   4.169   0.919 -0.4300 -0.0398 -0.2836
 3040SOL     OW11925   1.335   3.025   2.981 -0.2943  0.3085 -0.3207
 3040SOL    HW211926   1.333   3.105   3.033 -1.5049 -0.4976  0.9654
 3040SOL    HW311927   1.416   3.030   2.931  1.0538  1.0459  1.8119
 3040SOL    MW411928   1.345   3.036   2.982 -0.2762  0.2995  0.1304
 3041SOL     OW11929   4.351   1.053   5.974 -0.0127 -0.0076  0.8802
 3041SOL    HW211930   4.320   0.968   5.945  0.7691  0.2489 -0.8055
 3041SOL    HW311931   4.308   1.116   5.916 -0.7390  0.7918  2.2264
 3041SOL    MW411932   4.341   1.050   5.963 -0.0053  0.1317  0.8354
 3042SOL     OW11933   3.888   1.789   2.963  0.2816 -0.7910 -0.7980
 3042SOL    HW211934   3.850   1.702   2.954 -0.5794 -1.0299  3.1776
 3042SOL    HW311935   3.952   1.780   3.034  1.5783  1.4780 -1.5647
 3042SOL    MW411936   3.892   1.776   2.971  0.3391 -0.5232 -0.3747
 3043SOL     OW11937   0.462   4.301   0.478  0.1636 -0.0329 -0.7917
 3043SOL    HW211938   0.490   4.361   0.547 -0.4529  1.6514 -1.9439
 3043SOL    HW311939   0.373   4.327   0.457 -0.9173 -2.6848  0.0201
 3043SOL    MW411940   0.454   4.312   0.484 -0.0603 -0.1606 -0.8366
 3044SOL     OW11941   1.366   1.109   2.270  0.2607 -0.0750 -0.1948
 3044SOL    HW211942   1.399   1.113   2.360  2.6226 -0.0259 -0.9911
 3044SOL    HW311943   1.389   1.021   2.240  0.4519  0.2787 -1.0955
 3044SOL    MW411944   1.373   1.098   2.278  0.5975 -0.0219 -0.4187
 3045SOL     OW11945   2.466   1.537   2.763 -0.4239 -0.0903  0.4010
 3045SOL    HW211946   2.434   1.623   2.736  0.2527 -0.0432 -0.2650
 3045SOL    HW311947   2.389   1.495   2.802 -0.6457  0.9802  1.1647
 3045SOL    MW411948   2.451   1.543   2.764 -0.3639  0.0572  0.4139
 3046SOL     OW11949   6.190   4.285   3.506 -0.0844  0.6831 -0.4408
 3046SOL    HW211950   6.121   4.351   3.517 -0.4476  0.7792 -2.7851
 3046SOL    HW311951   6.157   4.208   3.551 -2.0313  0.5595 -1.9444
 3046SOL    MW411952   6.176   4.284   3.513 -0.3892  0.6794 -0.9485
 3047SOL     OW11953   1.977   5.575   4.446  0.2306 -0.4206  0.3404
 3047SOL    HW211954   1.965   5.640   4.515 -2.7406  0.4174 -0.8145
 3047SOL    HW311955   1.916   5.505   4.467 -0.1271 -0.5301 -0.9715
 3047SOL    MW411956   1.967   5.575   4.458 -0.2086 -0.3245  0.0149
 3048SOL     OW11957   0.225   4.219   6.169 -0.6365  0.1925 -0.0984
 3048SOL    HW211958   0.143   4.213   6.120 -0.0306 -1.3513 -1.0208
 3048SOL    HW311959   0.204   4.180   6.254 -0.6819 -0.9496 -0.6142
 3048SOL    MW411960   0.211   4.213   6.174 -0.5625 -0.1618 -0.2881
 3049SOL     OW11961   3.149   3.802   6.196 -0.6194 -0.5241  0.6073
 3049SOL    HW211962   3.228   3.764   6.157 -0.5809 -0.9418  1.0797
 3049SOL    HW311963   3.178   3.836   6.281 -0.9289 -0.6017  0.7453
 3049SOL    MW411964   3.163   3.801   6.202 -0.6552 -0.5895  0.6878
 3050SOL     OW11965   3.186   5.950   0.586  0.0883 -0.2428  0.0956
 3050SOL    HW211966   3.140   5.953   0.670  0.1432  0.6326  0.1052
 3050SOL    HW311967   3.134   5.892   0.531 -1.2708  1.0398 -0.0292
 3050SOL    MW411968   3.173   5.943   0.590 -0.0838  0.0419  0.0804
 3051SOL     OW11969   5.724   1.415   6.180 -0.0017 -0.1876  0.0439
 3051SOL    HW211970   5.788   1.353   6.145 -1.5283 -0.5115 -2.4280
 3051SOL    HW311971   5.703   1.381   6.267  0.0944 -2.4954 -0.7478
 3051SOL    MW411972   5.730   1.402   6.187 -0.1904 -0.5348 -0.3867
 3052SOL     OW11973   4.843   5.275   1.975 -0.3299 -0.0194 -0.6864
 3052SOL    HW211974   4.913   5.247   1.916  0.3176  0.7529 -0.3020
 3052SOL    HW311975   4.799   5.346   1.929 -0.3109  0.0717 -0.5651
 3052SOL    MW411976   4.846   5.280   1.961 -0.2420  0.0945 -0.6197
 3053SOL     OW11977   5.108   4.506   0.921  0.1445  0.5269  0.4573
 3053SOL    HW211978   5.020   4.540   0.905  0.5592  1.2904 -0.2219
 3053SOL    HW311979   5.094   4.414   0.946 -0.8328  0.6186  0.2674
 3053SOL    MW411980   5.095   4.498   0.922  0.0703  0.6397  0.3426
 3054SOL     OW11981   2.473   4.904   5.822 -0.5536 -0.0700  0.4328
 3054SOL    HW211982   2.505   4.989   5.854 -0.8147  0.4733 -0.6788
 3054SOL    HW311983   2.428   4.926   5.740 -2.3992 -1.0071  1.1359
 3054SOL    MW411984   2.471   4.918   5.816 -0.8316 -0.1220  0.3789
 3055SOL     OW11985   1.026   4.717   1.042  0.0720 -0.2590 -0.1013
 3055SOL    HW211986   0.938   4.736   1.009 -0.0884 -2.1612 -0.9155
 3055SOL    HW311987   1.033   4.767   1.124 -1.2882  0.8804 -0.6536
 3055SOL    MW411988   1.015   4.726   1.049 -0.1286 -0.3596 -0.2816
 3056SOL     OW11989   6.102   2.173   4.841  0.2435 -0.3315 -0.1579
 3056SOL    HW211990   6.015   2.212   4.830  0.7624  0.3897 -2.2873
 3056SOL    HW311991   6.102   2.099   4.780  1.1511 -0.2694 -0.2423
 3056SOL    MW411992   6.090   2.169   4.831  0.4317 -0.2281 -0.4500
 3057SOL     OW11993   5.531   0.394   1.810 -0.4589 -0.1287  0.2364
 3057SOL    HW211994   5.568   0.383   1.722 -1.7978 -2.1326 -0.1361
 3057SOL    HW311995   5.501   0.485   1.812 -2.2943 -0.5711 -2.1807
 3057SOL    MW411996   5.532   0.405   1.799 -0.8777 -0.4514 -0.1317
 3058SOL     OW11997   0.062   4.478   1.145 -0.3232  0.0854 -0.5620
 3058SOL    HW211998   0.026   4.480   1.233  1.9381  1.8401  0.4084
 3058SOL    HW311999   0.024   4.554   1.101  1.8121  1.8082  0.3925
 3058SOL    MW412000   0.052   4.488   1.151  0.2569  0.5442 -0.3080
 3059SOL     OW12001   5.248   6.311   4.073 -0.2824 -0.2469 -0.5272
 3059SOL    HW212002   5.176   6.374   4.077  1.9596  2.4324  1.5716
 3059SOL    HW312003   5.301   6.339   3.998  0.3104 -0.0946 -0.0617
 3059SOL    MW412004   5.246   6.323   4.063  0.0916  0.1267 -0.1889
 3060SOL     OW12005   4.160   3.553   0.703 -0.1868  0.4756  0.0974
 3060SOL    HW212006   4.222   3.544   0.630  0.6524  1.1694  0.7075
 3060SOL    HW312007   4.076   3.570   0.661  0.2102  0.4559 -0.7203
 3060SOL    MW412008   4.157   3.554   0.688 -0.0237  0.5645  0.0700
 3061SOL     OW12009   2.552   5.161   5.862  0.2147 -0.1034  0.2849
 3061SOL    HW212010   2.607   5.161   5.784 -1.4874  0.1830 -0.9795
 3061SOL    HW312011   2.464   5.177   5.829 -0.4491  0.9235  2.3573
 3061SOL    MW412012   2.548   5.163   5.847 -0.0975  0.0698  0.3915
 3062SOL     OW12013   0.785   4.090   2.874 -0.4626  0.3128 -0.2927
 3062SOL    HW212014   0.771   4.112   2.782 -0.5826 -0.2951 -0.4249
 3062SOL    HW312015   0.712   4.132   2.920 -0.6558  0.2365 -0.5295
 3062SOL    MW412016   0.773   4.099   2.868 -0.5039  0.2225 -0.3414
 3063SOL     OW12017   4.367   4.815   3.987  0.1114  0.0118 -0.5981
 3063SOL    HW212018   4.362   4.746   4.053  3.7122  0.6205  0.5596
 3063SOL    HW312019   4.289   4.869   4.003  0.3019 -0.4397  2.5541
 3063SOL    MW412020   4.356   4.813   3.998  0.6116  0.0325 -0.0295
 3064SOL     OW12021   2.519   4.773   6.247  0.1218  0.4177 -0.0776
 3064SOL    HW212022   2.554   4.719   6.177  0.7948 -1.1126  1.3597
 3064SOL    HW312023   2.482   4.849   6.203 -2.4135 -1.9336 -2.4248
 3064SOL    MW412024   2.519   4.775   6.232 -0.1239 -0.0944 -0.1977
 3065SOL     OW12025   2.522   5.356   1.318  0.8585 -0.1671 -0.2583
 3065SOL    HW212026   2.565   5.410   1.385 -1.2661 -0.6734  1.6277
 3065SOL    HW312027   2.456   5.306   1.366  1.7939 -3.4927 -2.1236
 3065SOL    MW412028   2.519   5.357   1.333  0.7016 -0.6727 -0.2555
 3066SOL     OW12029   5.056   2.253   0.341 -0.4669  0.1251 -0.6854
 3066SOL    HW212030   5.094   2.166   0.353 -0.9697 -0.0714 -0.4768
 3066SOL    HW312031   4.961   2.238   0.335 -1.0595  0.9436  3.3502
 3066SOL    MW412032   5.048   2.240   0.342 -0.6114  0.2072 -0.1254
 3067SOL     OW12033   5.039   1.594   0.506  0.1665 -0.1328  0.6357
 3067SOL    HW212034   4.980   1.553   0.442  0.6390  0.6778 -0.3577
 3067SOL    HW312035   5.126   1.561   0.482  0.4017  0.5163  0.5639
 3067SOL    MW412036   5.043   1.584   0.494  0.2599  0.0598  0.4952
 3068SOL     OW12037   2.382   4.489   0.584  0.2269  0.3225  0.6203
 3068SOL    HW212038   2.437   4.412   0.594 -1.5603 -0.9613  1.2368
 3068SOL    HW312039   2.313   4.477   0.650 -0.9653  1.6502 -0.3373
 3068SOL    MW412040   2.380   4.477   0.594 -0.1662  0.3283  0.5753
 3069SOL     OW12041   5.425   0.999   3.433  0.7440 -0.3616 -0.4148
 3069SOL    HW212042   5.387   0.913   3.453  2.5543 -1.2080 -0.4563
 3069SOL    HW312043   5.459   0.991   3.344  0.0117  0.7684 -0.8301
 3069SOL    MW412044   5.424   0.987   3.424  0.8863 -0.3242 -0.4751
 3070SOL     OW12045   4.894   5.638   2.070  0.2409  0.4033 -0.3451
 3070SOL    HW212046   4.879   5.575   2.140  1.2662  0.1753 -0.3167
 3070SOL    HW312047   4.978   5.612   2.031 -0.0972  0.7819 -1.3798
 3070SOL    MW412048   4.903   5.626   2.074  0.3316  0.4232 -0.4779
 3071SOL     OW12049   2.888   2.994   2.811  0.6293 -0.1025 -0.2464
 3071SOL    HW212050   2.884   2.960   2.900 -0.4018 -1.2259 -0.6989
 3071SOL    HW312051   2.813   3.053   2.804 -0.3563 -1.3951 -0.8956
 3071SOL    MW412052   2.878   2.997   2.822  0.3632 -0.4212 -0.3918
 3072SOL     OW12053   4.560   0.192   3.775 -0.7390 -0.1083  0.0518
 3072SOL    HW212054   4.551   0.170   3.867  0.8711  0.8486  0.4730
 3072SOL    HW312055   4.516   0.120   3.729  1.2193 -2.3476  1.4600
 3072SOL    MW412056   4.553   0.180   3.781 -0.2682 -0.2775  0.2932
 3073SOL     OW12057   3.277   1.797   6.167  0.1695  0.1021  0.1324
 3073SOL    HW212058   3.328   1.716   6.177  1.0155  0.4411 -1.1046
 3073SOL    HW312059   3.318   1.858   6.228  0.2499 -0.0855  0.2687
 3073SOL    MW412060   3.289   1.794   6.176  0.2917  0.1220 -0.0129
 3074SOL     OW12061   5.648   2.511   2.083 -0.7581 -0.5197 -0.1159
 3074SOL    HW212062   5.561   2.532   2.049 -0.8870 -0.3557  0.3084
 3074SOL    HW312063   5.637   2.509   2.178  0.0066  0.9579  0.0360
 3074SOL    MW412064   5.635   2.514   2.091 -0.6742 -0.3031 -0.0399
 3075SOL     OW12065   1.393   6.306   6.225  0.1077  0.4025 -0.0793
 3075SOL    HW212066   1.325   6.321   6.159 -0.7786 -1.3059  0.3934
 3075SOL    HW312067   1.443   6.232   6.191  0.3873  0.2768  0.6007
 3075SOL    MW412068   1.390   6.298   6.211  0.0277  0.1605  0.0728
 3076SOL     OW12069   3.226   2.540   0.517  0.1291  0.7693  0.2541
 3076SOL    HW212070   3.172   2.484   0.462  0.6935  0.1107  0.3656
 3076SOL    HW312071   3.163   2.595   0.564 -0.3498  2.0201 -1.7327
 3076SOL    MW412072   3.210   2.540   0.516  0.1404  0.8474  0.0067
 3077SOL     OW12073   2.475   5.607   3.411 -0.1922 -0.6646  0.2261
 3077SOL    HW212074   2.497   5.698   3.426 -0.8464 -0.4798  0.0911
 3077SOL    HW312075   2.388   5.596   3.449  0.0982 -1.3686  0.7250
 3077SOL    MW412076   2.467   5.617   3.418 -0.2402 -0.7331  0.2741
 3078SOL     OW12077   4.857   4.826   1.139  0.1912  0.0540  0.2191
 3078SOL    HW212078   4.852   4.921   1.134 -2.5908 -0.0374 -0.9891
 3078SOL    HW312079   4.826   4.804   1.227 -0.5299  0.2512  0.0216
 3078SOL    MW412080   4.852   4.836   1.150 -0.2710  0.0680  0.0336
 3079SOL     OW12081   3.329   3.924   2.419 -0.1797  0.1479 -0.0728
 3079SOL    HW212082   3.323   3.940   2.513 -1.0008 -0.8751  0.0535
 3079SOL    HW312083   3.315   3.830   2.409  3.0824 -0.3820 -0.9413
 3079SOL    MW412084   3.326   3.914   2.430  0.1423 -0.0570 -0.1707
 3080SOL     OW12085   2.303   5.595   1.574 -0.3478  0.1453  0.1927
 3080SOL    HW212086   2.337   5.647   1.646 -1.4526  1.1400  0.0283
 3080SOL    HW312087   2.294   5.657   1.501 -0.3008 -0.5997 -0.4615
 3080SOL    MW412088   2.306   5.610   1.574 -0.4873  0.1783  0.0847
 3081SOL     OW12089   0.219   3.468   1.861  0.7395  0.3038 -0.1053
 3081SOL    HW212090   0.181   3.391   1.818 -0.1695  0.6476  0.0617
 3081SOL    HW312091   0.192   3.460   1.952 -1.8432  2.2697 -0.6059
 3081SOL    MW412092   0.210   3.457   1.867  0.2788  0.6085 -0.1493
 3082SOL     OW12093   3.904   2.005   1.912  0.1935  0.0399  0.3348
 3082SOL    HW212094   3.869   1.920   1.938  0.1807  0.0623  0.3900
 3082SOL    HW312095   3.836   2.068   1.937  0.0855  0.0387  0.0478
 3082SOL    MW412096   3.890   2.002   1.918  0.1776  0.0427  0.3042
 3083SOL     OW12097   1.940   4.905   3.543 -1.1031 -0.2831 -0.4431
 3083SOL    HW212098   1.996   4.847   3.595 -0.9514 -1.1821 -1.5633
 3083SOL    HW312099   1.865   4.851   3.519 -1.2351  0.1485 -1.0374
 3083SOL    MW412100   1.937   4.890   3.546 -1.1005 -0.3448 -0.6693
 3084SOL     OW12101   6.422   6.121   4.794 -0.0695  0.1482  0.3955
 3084SOL    HW212102   6.435   6.026   4.797  0.4546  0.0978 -1.5333
 3084SOL    HW312103   6.458   6.146   4.709 -1.1089  1.9394  0.4430
 3084SOL    MW412104   6.428   6.111   4.783 -0.1375  0.3779  0.1473
 3085SOL     OW12105   1.351   0.458   0.028  0.5943  0.9552  0.0158
 3085SOL    HW212106   1.346   0.397   0.101  4.1661  0.6773  0.2225
 3085SOL    HW312107   1.314   0.410  -0.046 -2.2480  0.9215  1.3545
 3085SOL    MW412108   1.345   0.444   0.028  0.6906  0.9141  0.2197
 3086SOL     OW12109   0.738   4.605   4.383  0.5160  0.0311  0.3823
 3086SOL    HW212110   0.690   4.576   4.461 -2.5827  1.3354 -0.8656
 3086SOL    HW312111   0.747   4.699   4.394 -1.7774  0.5960 -1.5755
 3086SOL    MW412112   0.733   4.613   4.395 -0.1954  0.2777 -0.0407
 3087SOL     OW12113   2.912   1.892   4.909  0.0347 -0.3286  0.1401
 3087SOL    HW212114   3.007   1.889   4.912  0.0232 -0.9525  0.0130
 3087SOL    HW312115   2.884   1.802   4.925 -0.6126  0.2524  2.8694
 3087SOL    MW412116   2.921   1.880   4.912 -0.0522 -0.3343  0.4834
 3088SOL     OW12117   6.068   1.539   5.661 -0.9960 -0.5430 -0.1813
 3088SOL    HW212118   6.086   1.476   5.592  1.0790  1.4298 -1.5553
 3088SOL    HW312119   6.130   1.517   5.731 -0.3256 -0.1073 -0.6287
 3088SOL    MW412120   6.078   1.528   5.661 -0.6338 -0.2252 -0.4216
 3089SOL     OW12121   0.956   4.236   3.282 -0.0743  0.0509 -0.2674
 3089SOL    HW212122   0.947   4.144   3.259  0.9336 -0.4544  1.2095
 3089SOL    HW312123   0.870   4.263   3.312 -0.8402  0.1176 -2.3900
 3089SOL    MW412124   0.944   4.228   3.283 -0.0424 -0.0069 -0.3526
 3090SOL     OW12125   1.873   3.131   4.395 -0.3459 -0.5750 -0.4843
 3090SOL    HW212126   1.810   3.158   4.328 -1.6622  3.3364  2.0260
 3090SOL    HW312127   1.956   3.121   4.347 -1.5624  0.1280 -2.9316
 3090SOL    MW412128   1.876   3.133   4.380 -0.6801  0.0338 -0.4760
 3091SOL     OW12129   3.717   5.041   3.374  0.1802  0.8626 -0.2807
 3091SOL    HW212130   3.739   5.126   3.337 -0.7918  0.5713 -1.5845
 3091SOL    HW312131   3.622   5.040   3.380  0.1758 -0.0967 -0.2183
 3091SOL    MW412132   3.708   5.052   3.370  0.0514  0.6976 -0.4445
 3092SOL     OW12133   6.362   6.133   2.131  0.1209 -0.2139 -0.4958
 3092SOL    HW212134   6.355   6.226   2.152 -0.3434 -0.9050  3.1908
 3092SOL    HW312135   6.273   6.099   2.143  0.5641 -1.3682 -0.3373
 3092SOL    MW412136   6.349   6.140   2.136  0.1181 -0.4574  0.0115
 3093SOL     OW12137   2.624   4.008   6.421  0.1077  0.9263  0.0252
 3093SOL    HW212138   2.621   4.078   6.486  0.0244  1.5079 -0.5812
 3093SOL    HW312139   2.714   4.009   6.388  1.1112 -1.4961  2.3390
 3093SOL    MW412140   2.635   4.017   6.425  0.2291  0.6834  0.2504
 3094SOL     OW12141   2.215   1.691   3.076 -0.2490 -0.2117  0.0828
 3094SOL    HW212142   2.266   1.772   3.081 -0.8952  0.2622 -0.7581
 3094SOL    HW312143   2.225   1.651   3.162 -1.4247  1.6719  1.1617
 3094SOL    MW412144   2.223   1.696   3.088 -0.4894  0.0993  0.1142
 3095SOL     OW12145   4.838   1.135   2.904  0.3292  0.5326  0.4976
 3095SOL    HW212146   4.781   1.170   2.835 -0.0668  1.8256  1.4554
 3095SOL    HW312147   4.782   1.078   2.956  0.2780  0.6729  0.5948
 3095SOL    MW412148   4.823   1.132   2.902  0.2702  0.7217  0.6368
 3096SOL     OW12149   5.313   4.876   1.460 -0.2931 -0.1537 -0.5530
 3096SOL    HW212150   5.260   4.822   1.518  1.2815 -0.8614  0.2959
 3096SOL    HW312151   5.280   4.965   1.472  0.1495 -0.2295  1.6935
 3096SOL    MW412152   5.302   4.881   1.469 -0.0270 -0.2570 -0.1446
 3097SOL     OW12153   3.855   5.316   3.320 -0.3139 -0.1368 -0.3925
 3097SOL    HW212154   3.865   5.400   3.274  1.0927  0.0901  0.2788
 3097SOL    HW312155   3.874   5.337   3.411  0.7792 -1.3245 -0.3276
 3097SOL    MW412156   3.859   5.330   3.326  0.0159 -0.2635 -0.2954
 3098SOL     OW12157   6.279   2.601   4.324 -0.4372  0.0164 -0.3735
 3098SOL    HW212158   6.269   2.696   4.311  3.4057  0.2813 -3.8058
 3098SOL    HW312159   6.370   2.591   4.351 -0.9564 -2.7102  0.5979
 3098SOL    MW412160   6.290   2.613   4.326  0.0013 -0.3084 -0.6982
 3099SOL     OW12161   1.086   0.201   1.641  0.1750 -0.1112 -0.1093
 3099SOL    HW212162   1.106   0.266   1.708  1.0417 -0.4495 -0.0273
 3099SOL    HW312163   1.160   0.140   1.644  0.1499 -0.2170 -1.2666
 3099SOL    MW412164   1.099   0.201   1.650  0.2860 -0.1698 -0.2512
 3100SOL     OW12165   4.648   5.293   4.140 -0.5381  0.0993 -0.1180
 3100SOL    HW212166   4.640   5.326   4.229  1.2539 -0.3720  0.2496
 3100SOL    HW312167   4.635   5.199   4.148  0.3089 -0.0362 -0.2236
 3100SOL    MW412168   4.645   5.285   4.153 -0.1899  0.0192 -0.0834
 3101SOL     OW12169   3.374   1.665   4.058  0.3508  0.0682  0.3605
 3101SOL    HW212170   3.403   1.756   4.059  0.7832 -0.0467 -0.5965
 3101SOL    HW312171   3.284   1.669   4.025  1.5048 -0.0882 -3.2502
 3101SOL    MW412172   3.366   1.678   4.054  0.5601  0.0324 -0.2421
 3102SOL     OW12173   4.568   5.214   6.365  0.1339  0.0278  0.3434
 3102SOL    HW212174   4.622   5.273   6.312 -1.0537  0.3696 -0.5456
 3102SOL    HW312175   4.603   5.222   6.453  2.0607 -0.4228 -0.3353
 3102SOL    MW412176   4.580   5.223   6.369  0.2314  0.0134  0.1365
 3103SOL     OW12177   5.773   5.360   5.622  0.0776  0.3606  0.4042
 3103SOL    HW212178   5.821   5.282   5.596  1.0278  1.2164 -0.4634
 3103SOL    HW312179   5.766   5.413   5.542 -1.2892  0.7959  0.7728
 3103SOL    MW412180   5.778   5.357   5.608  0.0227  0.5309  0.3384
 3104SOL     OW12181   5.022   3.352   5.278  0.2052  0.1833  0.0919
 3104SOL    HW212182   5.049   3.369   5.368  2.1328 -1.2083 -0.1365
 3104SOL    HW312183   4.980   3.433   5.249  1.2286  1.3288  1.6390
 3104SOL    MW412184   5.020   3.365   5.286  0.5945  0.1509  0.2659
 3105SOL     OW12185   5.696   4.868   1.351 -0.0017 -0.4770  0.0920
 3105SOL    HW212186   5.669   4.779   1.329 -0.2333 -0.1948 -0.8428
 3105SOL    HW312187   5.786   4.875   1.319 -0.1317 -0.2481 -0.2344
 3105SOL    MW412188   5.705   4.857   1.344 -0.0494 -0.4096 -0.0744
 3106SOL     OW12189   2.341   2.000   5.902 -0.1623  0.1382  0.0319
 3106SOL    HW212190   2.253   2.036   5.915 -0.7131 -0.8759 -0.7502
 3106SOL    HW312191   2.346   1.927   5.965  0.5987  0.9588  0.9510
 3106SOL    MW412192   2.330   1.995   5.912 -0.1346  0.1127  0.0500
 3107SOL     OW12193   1.725   1.499   0.725 -0.4988 -0.2044  0.0563
 3107SOL    HW212194   1.698   1.556   0.653 -1.6667 -0.9233 -0.0983
 3107SOL    HW312195   1.657   1.509   0.790  0.4853  0.3390  1.0399
 3107SOL    MW412196   1.713   1.508   0.724 -0.5230 -0.2275  0.1656
 3108SOL     OW12197   4.306   0.773   6.290 -0.2157 -0.1251  0.1413
 3108SOL    HW212198   4.392   0.732   6.282 -0.0550 -0.0545  1.3652
 3108SOL    HW312199   4.271   0.741   6.373 -2.2238 -1.7178 -1.2051
 3108SOL    MW412200   4.312   0.763   6.300 -0.4594 -0.3260  0.1251
 3109SOL     OW12201   0.201   2.073   5.560 -0.0989 -0.0940 -0.3351
 3109SOL    HW212202   0.120   2.031   5.589 -0.3817  0.6699  0.0204
 3109SOL    HW312203   0.173   2.136   5.493 -0.1025  1.6625  1.2372
 3109SOL    MW412204   0.187   2.076   5.555 -0.1367  0.2386 -0.0808
 3110SOL     OW12205   0.666   2.954   3.691  0.2893  0.0225  0.5197
 3110SOL    HW212206   0.662   2.859   3.701  0.2179 -0.0395 -0.0620
 3110SOL    HW312207   0.752   2.979   3.724  0.0200 -0.1549  1.3691
 3110SOL    MW412208   0.677   2.945   3.697  0.2444 -0.0091  0.5550
 3111SOL     OW12209   5.674   3.800   4.208 -0.0704  0.4477  0.7832
 3111SOL    HW212210   5.723   3.775   4.286  0.2815 -1.2253  0.0480
 3111SOL    HW312211   5.622   3.723   4.185  1.0715  0.2928 -1.5932
 3111SOL    MW412212   5.673   3.787   4.215  0.1267  0.2065  0.3726
 3112SOL     OW12213   1.146   4.920   4.682 -0.0374  0.2023 -0.8008
 3112SOL    HW212214   1.143   4.833   4.642  1.4231 -1.0003  1.4712
 3112SOL    HW312215   1.060   4.931   4.722  0.1936 -0.7976  0.0072
 3112SOL    MW412216   1.134   4.910   4.682  0.1858 -0.0883 -0.3944
 3113SOL     OW12217   2.447   3.111   5.869 -0.3487  0.7484 -0.1709
 3113SOL    HW212218   2.540   3.091   5.882 -0.8247 -0.6635  1.3683
 3113SOL    HW312219   2.419   3.050   5.800 -0.8509 -1.2955  1.7143
 3113SOL    MW412220   2.455   3.100   5.861 -0.4778  0.2925  0.2809
 3114SOL     OW12221   1.444   5.165   0.982 -0.2669  0.2335  0.3708
 3114SOL    HW212222   1.360   5.126   0.958  0.9263 -1.7060 -0.9092
 3114SOL    HW312223   1.499   5.090   1.006  1.9213  1.1499 -1.4735
 3114SOL    MW412224   1.441   5.150   0.982  0.1792  0.0985 -0.0414
 3115SOL     OW12225   1.701   0.345   5.731  0.0480 -0.6847  0.2966
 3115SOL    HW212226   1.690   0.413   5.664  0.1001 -1.3394 -0.3846
 3115SOL    HW312227   1.623   0.290   5.723  0.3154 -1.0836  0.4007
 3115SOL    MW412228   1.689   0.347   5.721  0.0901 -0.8237  0.2204
 3116SOL     OW12229   5.621   1.732   3.081  0.2054 -0.1112  0.5591
 3116SOL    HW212230   5.621   1.704   3.173 -0.1764  0.5225  0.7628
 3116SOL    HW312231   5.662   1.819   3.083  1.9705 -0.8760 -0.1473
 3116SOL    MW412232   5.626   1.740   3.094  0.3879 -0.1285  0.4928
 3117SOL     OW12233   5.656   5.658   1.471 -0.1747  0.2993  0.3126
 3117SOL    HW212234   5.738   5.608   1.473 -1.7217 -2.6183 -1.5789
 3117SOL    HW312235   5.604   5.621   1.543 -0.9087 -0.0453 -0.3763
 3117SOL    MW412236   5.660   5.646   1.481 -0.4757 -0.1311 -0.0279
 3118SOL     OW12237   3.655   5.534   5.305 -0.3977  0.0491 -0.0684
 3118SOL    HW212238   3.659   5.619   5.262  2.2634  1.3327  2.3938
 3118SOL    HW312239   3.611   5.551   5.389  1.7780 -0.5321  1.2538
 3118SOL    MW412240   3.649   5.547   5.311  0.2405  0.1418  0.4309
 3119SOL     OW12241   5.844   4.551   0.237  0.4666  0.1692  0.2178
 3119SOL    HW212242   5.769   4.492   0.227 -0.8873  2.0410 -1.4195
 3119SOL    HW312243   5.910   4.515   0.177  1.4280 -2.0952  2.4243
 3119SOL    MW412244   5.843   4.538   0.228  0.4148  0.1174  0.2929
 3120SOL     OW12245   1.105   1.014   2.339  0.6773  0.1683 -0.3096
 3120SOL    HW212246   1.061   0.974   2.263  0.7950 -0.6552  0.0417
 3120SOL    HW312247   1.185   1.051   2.303  0.7988 -0.3394 -0.5764
 3120SOL    MW412248   1.109   1.013   2.324  0.7088 -0.0073 -0.2985
 3121SOL     OW12249   1.000   3.757   2.303  0.6004  0.2423  0.3689
 3121SOL    HW212250   0.951   3.678   2.327 -1.1008  1.7645  2.2447
 3121SOL    HW312251   0.938   3.809   2.252  1.0713  1.1524  0.7083
 3121SOL    MW412252   0.985   3.753   2.299  0.4381  0.5632  0.6612
 3122SOL     OW12253   3.542   3.550   0.220 -0.4906 -0.0095 -0.1669
 3122SOL    HW212254   3.546   3.512   0.132 -0.9890  0.8939 -0.5934
 3122SOL    HW312255   3.608   3.502   0.270 -1.6550 -1.9745 -0.4557
 3122SOL    MW412256   3.551   3.539   0.215 -0.7100 -0.1495 -0.2613
 3123SOL     OW12257   5.678   3.529   0.070 -0.5042  0.1142  0.5501
 3123SOL    HW212258   5.669   3.602   0.131  1.1318  0.8116  0.0379
 3123SOL    HW312259   5.723   3.568  -0.006 -1.8064 -0.8870 -0.7798
 3123SOL    MW412260   5.683   3.544   0.068 -0.4601  0.0741  0.3070
 3124SOL     OW12261   4.531   2.034   3.268 -0.0143 -0.0034 -0.0847
 3124SOL    HW212262   4.495   1.945   3.277  0.6995 -0.1186  2.2632
 3124SOL    HW312263   4.454   2.090   3.259 -0.4689 -0.9070 -3.6813
 3124SOL    MW412264   4.516   2.030   3.268  0.0199 -0.1378 -0.2494
 3125SOL     OW12265   0.119   2.466   5.684  0.2538  0.2189 -0.2252
 3125SOL    HW212266   0.194   2.415   5.713 -0.1296 -0.0548  0.3022
 3125SOL    HW312267   0.120   2.544   5.739  0.5232  0.5237 -0.6582
 3125SOL    MW412268   0.129   2.470   5.695  0.2387  0.2230 -0.2127
 3126SOL     OW12269   0.935   4.826   3.557  0.5514  0.0620  0.5344
 3126SOL    HW212270   0.889   4.772   3.493  1.4177  0.4076 -0.4187
 3126SOL    HW312271   0.952   4.767   3.630 -0.9688 -0.1929  0.7249
 3126SOL    MW412272   0.931   4.811   3.558  0.4651  0.0739  0.4338
 3127SOL     OW12273   5.751   1.045  -0.002 -0.5778  0.2827  0.5227
 3127SOL    HW212274   5.842   1.067   0.018 -0.5542 -0.2346  0.9962
 3127SOL    HW312275   5.751   0.950  -0.013 -0.6542  0.4793 -1.6273
 3127SOL    MW412276   5.763   1.036  -0.001 -0.5848  0.2404  0.3015
 3128SOL     OW12277   4.023   3.189   3.166 -0.2823  0.4623  0.1699
 3128SOL    HW212278   4.102   3.160   3.212  0.5626 -0.7741 -1.9084
 3128SOL    HW312279   4.023   3.284   3.176  0.7593  0.3785  1.2785
 3128SOL    MW412280   4.034   3.198   3.173 -0.0334  0.2881  0.0420
 3129SOL     OW12281   4.446   5.409   2.547  0.1739 -0.0822 -0.7386
 3129SOL    HW212282   4.507   5.371   2.610 -0.8153 -0.2125  0.1717
 3129SOL    HW312283   4.500   5.430   2.471  1.2104 -0.8891 -0.2532
 3129SOL    MW412284   4.461   5.407   2.545  0.1802 -0.2059 -0.5545
 3130SOL     OW12285   5.736   3.599   4.878 -0.2395  0.0792 -0.7589
 3130SOL    HW212286   5.758   3.651   4.801  0.7935  0.7921 -0.0145
 3130SOL    HW312287   5.645   3.572   4.864  0.0096 -0.0223 -2.3325
 3130SOL    MW412288   5.727   3.602   4.866 -0.0703  0.1599 -0.8683
 3131SOL     OW12289   6.380   0.406   2.281 -0.0268 -0.5901  0.8819
 3131SOL    HW212290   6.417   0.363   2.204 -0.0874 -0.1122  0.5828
 3131SOL    HW312291   6.389   0.499   2.263 -0.9191 -0.4621  1.0240
 3131SOL    MW412292   6.386   0.412   2.268 -0.1525 -0.5102  0.8612
 3132SOL     OW12293   3.765   2.370   1.301 -0.3179  0.1775  0.3280
 3132SOL    HW212294   3.712   2.438   1.342  1.2717  0.5627  1.8649
 3132SOL    HW312295   3.756   2.295   1.360 -0.8564 -0.4781 -0.5618
 3132SOL    MW412296   3.757   2.369   1.315 -0.1792  0.1418  0.4134
 3133SOL     OW12297   2.851   2.772   1.855  0.4973 -0.4734  0.5227
 3133SOL    HW212298   2.763   2.746   1.883  0.1186 -0.2256 -0.4039
 3133SOL    HW312299   2.859   2.740   1.765  1.7088 -1.2864  0.8963
 3133SOL    MW412300   2.841   2.765   1.847  0.6072 -0.5480  0.4498
 3134SOL     OW12301   2.184   6.161   5.414  0.2348 -0.6258  0.0100
 3134SOL    HW212302   2.265   6.151   5.464  1.0699  1.1056 -0.8862
 3134SOL    HW312303   2.213   6.196   5.329 -1.5415  1.5033  0.1896
 3134SOL    MW412304   2.199   6.165   5.409  0.1106 -0.1164 -0.0845
 3135SOL     OW12305   0.909   4.611   5.409  0.6423 -0.0528  0.3921
 3135SOL    HW212306   0.974   4.654   5.465 -0.5145  2.5168 -0.1485
 3135SOL    HW312307   0.943   4.622   5.320  0.0680  0.2474  0.2059
 3135SOL    MW412308   0.922   4.618   5.404  0.4139  0.3259  0.2962
 3136SOL     OW12309   2.665   1.960   2.891  0.2011 -0.2835  0.0970
 3136SOL    HW212310   2.697   1.982   2.803 -0.3427  0.0064 -0.0304
 3136SOL    HW312311   2.739   1.916   2.932  1.2249  1.4511  0.2289
 3136SOL    MW412312   2.679   1.957   2.885  0.2644 -0.0164  0.0976
 3137SOL     OW12313   3.241   2.190   1.807  1.1988  0.0903  0.1671
 3137SOL    HW212314   3.203   2.103   1.798  0.9570  0.1726  0.3589
 3137SOL    HW312315   3.265   2.195   1.900  0.0082  0.7059  0.4622
 3137SOL    MW412316   3.239   2.179   1.818  1.0098  0.1824  0.2314
 3138SOL     OW12317   2.637   6.420   1.525 -0.1341 -0.0925 -0.1936
 3138SOL    HW212318   2.648   6.398   1.617 -0.1023  0.3420 -0.0906
 3138SOL    HW312319   2.700   6.490   1.509 -1.1176  0.8350 -0.1765
 3138SOL    MW412320   2.647   6.426   1.535 -0.2597  0.0872 -0.1778
 3139SOL     OW12321   4.670   6.086   0.018 -0.3305  0.4743 -0.0973
 3139SOL    HW212322   4.744   6.112   0.073  0.5087 -2.4115  0.3069
 3139SOL    HW312323   4.620   6.025   0.071 -0.6013 -0.8838 -1.8271
 3139SOL    MW412324   4.673   6.082   0.032 -0.2555 -0.0856 -0.2722
 3140SOL     OW12325   2.866   5.497   0.238  0.4632 -0.7368  0.8731
 3140SOL    HW212326   2.814   5.425   0.203 -2.1771  1.0238  0.8164
 3140SOL    HW312327   2.926   5.521   0.167  1.9366 -3.2296  1.1602
 3140SOL    MW412328   2.867   5.491   0.224  0.3093 -0.8334  0.9035
 3141SOL     OW12329   3.122   4.483   2.658  0.4348 -0.4153 -0.3716
 3141SOL    HW212330   3.099   4.551   2.721  1.4053  0.0268 -0.4782
 3141SOL    HW312331   3.205   4.512   2.621  1.7733 -2.5154  0.8296
 3141SOL    MW412332   3.130   4.496   2.662  0.7394 -0.6340 -0.2272
 3142SOL     OW12333   1.484   5.115   3.047 -0.1752  0.3451  0.3360
 3142SOL    HW212334   1.539   5.119   2.968 -0.6417  0.1229 -0.0069
 3142SOL    HW312335   1.546   5.110   3.119  0.2574 -1.0841 -0.1066
 3142SOL    MW412336   1.499   5.115   3.046 -0.1797  0.1272  0.2323
 3143SOL     OW12337   1.348   3.444   6.226 -0.2621 -0.0806  0.3837
 3143SOL    HW212338   1.286   3.406   6.163  0.0054 -1.4686  0.9177
 3143SOL    HW312339   1.308   3.428   6.311  0.1842  0.2502  0.6562
 3143SOL    MW412340   1.335   3.437   6.229 -0.1679 -0.2201  0.4901
 3144SOL     OW12341   3.036   0.220   0.205 -0.2237  0.1259 -0.2139
 3144SOL    HW212342   3.107   0.280   0.185  0.2375 -0.3797 -0.1041
 3144SOL    HW312343   3.053   0.144   0.150  1.2270 -1.4191  2.2084
 3144SOL    MW412344   3.047   0.218   0.195  0.0285 -0.1446  0.1202
 3145SOL     OW12345   2.197   2.410   0.178  0.2816  0.1288 -0.6184
 3145SOL    HW212346   2.212   2.454   0.262  1.9904  1.5508 -1.5905
 3145SOL    HW312347   2.273   2.353   0.168 -0.9429 -1.6295 -0.2967
 3145SOL    MW412348   2.209   2.409   0.188  0.3455  0.0844 -0.7042
 3146SOL     OW12349   4.700   1.699   4.923  0.1818 -0.1132  0.1679
 3146SOL    HW212350   4.796   1.705   4.923  0.2985  0.3410 -3.4729
 3146SOL    HW312351   4.682   1.621   4.870 -1.3744  1.9036 -2.4706
 3146SOL    MW412352   4.711   1.689   4.916 -0.0081  0.2128 -0.6605
 3147SOL     OW12353   1.742   1.515   3.952 -0.1459 -0.3121 -0.0212
 3147SOL    HW212354   1.741   1.427   3.989 -0.5214 -0.3128 -0.0296
 3147SOL    HW312355   1.653   1.547   3.964  0.3106  0.5858  1.2182
 3147SOL    MW412356   1.730   1.508   3.959 -0.1352 -0.1937  0.1412
 3148SOL     OW12357   1.854   4.853   0.281 -0.3802  0.2614 -0.2032
 3148SOL    HW212358   1.905   4.924   0.319 -0.5840 -0.8356  2.3437
 3148SOL    HW312359   1.909   4.776   0.291 -1.0800 -0.3255 -0.7810
 3148SOL    MW412360   1.868   4.852   0.287 -0.4994  0.0392  0.0566
 3149SOL     OW12361   0.138   6.323   2.160  0.0074  0.0911 -0.0132
 3149SOL    HW212362   0.137   6.351   2.251  1.4191  1.2520 -0.3163
 3149SOL    HW312363   0.119   6.229   2.164 -0.7699  0.2838  1.3911
 3149SOL    MW412364   0.136   6.314   2.172  0.0911  0.2697  0.1321
 3150SOL     OW12365   1.921   2.467   1.013 -0.9255  0.3393 -0.3769
 3150SOL    HW212366   1.948   2.500   1.099  0.4698  0.3658 -0.8024
 3150SOL    HW312367   1.927   2.543   0.955  1.4362 -0.3579 -1.1740
 3150SOL    MW412368   1.925   2.481   1.017 -0.4298  0.2508 -0.5382
 3151SOL     OW12369   1.961   1.599   0.798 -0.0989  0.0096 -0.1834
 3151SOL    HW212370   1.879   1.565   0.763 -1.2476  1.1124  1.3442
 3151SOL    HW312371   2.026   1.532   0.774 -1.9270 -2.3847  1.0481
 3151SOL    MW412372   1.959   1.585   0.790 -0.4916 -0.1608  0.1806
 3152SOL     OW12373   2.650   2.628   4.586 -0.7431  0.3520 -0.3574
 3152SOL    HW212374   2.626   2.653   4.675 -0.0871 -0.5992  0.1038
 3152SOL    HW312375   2.612   2.541   4.575 -1.4105  0.7445 -1.2620
 3152SOL    MW412376   2.642   2.620   4.596 -0.7446  0.2782 -0.4159
 3153SOL     OW12377   5.913   0.445   4.798 -0.2867 -0.8410 -0.2482
 3153SOL    HW212378   5.974   0.374   4.820 -0.4135 -0.5769  1.0760
 3153SOL    HW312379   5.829   0.414   4.831 -0.2207  0.1722  0.9546
 3153SOL    MW412380   5.910   0.431   4.806 -0.2947 -0.6725  0.0852
 3154SOL     OW12381   0.499   0.920   5.403 -0.5780 -0.0655 -0.5513
 3154SOL    HW212382   0.479   0.841   5.353  1.1010 -0.8520 -0.0227
 3154SOL    HW312383   0.487   0.991   5.340 -2.7991 -0.6198 -0.8496
 3154SOL    MW412384   0.494   0.919   5.388 -0.6495 -0.2424 -0.5209
 3155SOL     OW12385   4.600   5.201   5.256 -0.1129  0.0409  0.4055
 3155SOL    HW212386   4.600   5.117   5.302  0.5487 -0.1501  0.0739
 3155SOL    HW312387   4.672   5.250   5.295  0.5041 -0.1530 -0.4658
 3155SOL    MW412388   4.609   5.197   5.267  0.0558 -0.0099  0.2468
 3156SOL     OW12389   2.978   4.798   3.766  0.5566  0.3056 -0.6795
 3156SOL    HW212390   3.059   4.765   3.726  0.3005 -0.6920 -0.4057
 3156SOL    HW312391   2.996   4.799   3.860  0.1824 -0.1386 -0.5984
 3156SOL    MW412392   2.991   4.794   3.773  0.4734  0.1153 -0.6327
 3157SOL     OW12393   1.272   0.584   3.801  0.9348  0.6587  0.1639
 3157SOL    HW212394   1.196   0.637   3.824 -0.7022 -0.9864 -1.1766
 3157SOL    HW312395   1.253   0.497   3.836  2.2316  0.2193 -0.1683
 3157SOL    MW412396   1.260   0.579   3.809  0.8899  0.3837 -0.0568
 3158SOL     OW12397   2.899   0.000   2.428  0.3923 -0.1848  0.3114
 3158SOL    HW212398   2.890  -0.054   2.349  0.0951  0.9028 -0.4184
 3158SOL    HW312399   2.927   0.086   2.395  0.7058  0.1589  1.4344
 3158SOL    MW412400   2.902   0.004   2.413  0.3945  0.0041  0.3633
 3159SOL     OW12401   4.853   5.113   1.168 -0.1518  0.3716 -0.3410
 3159SOL    HW212402   4.806   5.084   1.246 -1.4910  0.1406 -1.1922
 3159SOL    HW312403   4.936   5.147   1.201 -2.2236  4.1237  1.6846
 3159SOL    MW412404   4.857   5.114   1.183 -0.6019  0.8362 -0.1860
 3160SOL     OW12405   2.120   1.663   5.012 -0.2378 -0.0919 -0.3444
 3160SOL    HW212406   2.079   1.672   4.926 -0.4689 -1.0813 -0.3574
 3160SOL    HW312407   2.071   1.592   5.054  0.8632 -0.6854 -0.0106
 3160SOL    MW412408   2.108   1.655   5.006 -0.1230 -0.3008 -0.3021
 3161SOL     OW12409   1.980   0.058   3.953  0.0804 -0.0443  0.3958
 3161SOL    HW212410   2.059   0.003   3.952  1.5913  1.5466  4.9375
 3161SOL    HW312411   1.912   0.001   3.989  0.1301 -0.4090 -0.0726
 3161SOL    MW412412   1.982   0.043   3.957  0.2863  0.1175  0.9332
 3162SOL     OW12413   3.470   5.487   2.148 -0.7465 -0.6400  1.0553
 3162SOL    HW212414   3.519   5.405   2.143  2.4392  0.8264  3.9442
 3162SOL    HW312415   3.486   5.530   2.064 -0.4135 -1.9000  0.4506
 3162SOL    MW412416   3.479   5.482   2.137 -0.2822 -0.6128  1.3567
 3163SOL     OW12417   4.301   2.517   3.423 -0.3484  0.2589  0.5213
 3163SOL    HW212418   4.241   2.589   3.405 -0.3902 -0.2260 -1.6762
 3163SOL    HW312419   4.372   2.556   3.472 -1.0457  1.4935  0.5924
 3163SOL    MW412420   4.302   2.531   3.427 -0.4459  0.3578  0.2407
 3164SOL     OW12421   4.215   3.664   5.854 -0.7221 -0.2757 -0.1143
 3164SOL    HW212422   4.299   3.619   5.863  0.1703  0.9915 -1.5525
 3164SOL    HW312423   4.176   3.659   5.941  1.4099  0.1672  0.9370
 3164SOL    MW412424   4.221   3.657   5.867 -0.3231 -0.0501 -0.1653
 3165SOL     OW12425   5.705   2.160   5.590 -0.7959  0.2919  0.0347
 3165SOL    HW212426   5.783   2.190   5.543 -0.4563 -0.6208  0.0026
 3165SOL    HW312427   5.696   2.067   5.566 -2.1901  0.4995 -0.3788
 3165SOL    MW412428   5.714   2.152   5.581 -0.9351  0.1989 -0.0241
 3166SOL     OW12429   5.777   2.414   0.249 -0.7352  0.0868  0.5975
 3166SOL    HW212430   5.798   2.455   0.165 -0.0817  1.8953  1.5883
 3166SOL    HW312431   5.682   2.422   0.256 -0.9483 -1.1537 -0.4596
 3166SOL    MW412432   5.767   2.421   0.238 -0.6771  0.1617  0.5888
 3167SOL     OW12433   4.820   2.281   3.563 -0.0989  0.2309  0.3431
 3167SOL    HW212434   4.741   2.321   3.598 -0.5871 -0.4775  0.0671
 3167SOL    HW312435   4.788   2.216   3.501  0.7198  0.7883 -0.6984
 3167SOL    MW412436   4.805   2.278   3.559 -0.0553  0.2109  0.1693
 3168SOL     OW12437   2.698   2.041   4.308  0.1080  0.1748  0.5204
 3168SOL    HW212438   2.628   1.994   4.352 -0.3082  0.5034  0.2167
 3168SOL    HW312439   2.658   2.076   4.229  0.2505  1.5138  1.0027
 3168SOL    MW412440   2.684   2.040   4.304  0.0719  0.3948  0.5440
 3169SOL     OW12441   3.819   0.115   1.240 -0.0940  0.7175 -0.3621
 3169SOL    HW212442   3.878   0.125   1.314 -1.3242 -0.1447  0.7937
 3169SOL    HW312443   3.872   0.076   1.171  0.9615  1.1042  0.2164
 3169SOL    MW412444   3.834   0.111   1.240 -0.1171  0.6548 -0.1333
 3170SOL     OW12445   0.609   6.055   5.594  0.0483 -0.2517 -0.0677
 3170SOL    HW212446   0.597   5.963   5.568 -0.3753 -0.0282 -0.6689
 3170SOL    HW312447   0.522   6.093   5.587 -0.7055 -0.7382  4.0255
 3170SOL    MW412448   0.596   6.048   5.590 -0.1070 -0.2864  0.3930
 3171SOL     OW12449   6.393   5.950   2.631 -0.2145 -0.5344  0.2074
 3171SOL    HW212450   6.349   6.017   2.683 -1.9451 -1.0163 -0.5778
 3171SOL    HW312451   6.480   5.943   2.671  0.3242  2.6595 -0.1049
 3171SOL    MW412452   6.399   5.958   2.643 -0.3718 -0.1766  0.0626
 3172SOL     OW12453   4.005   5.886   2.093  0.1918 -0.0245 -0.0790
 3172SOL    HW212454   3.933   5.908   2.152 -0.0060  0.6781 -0.5610
 3172SOL    HW312455   4.054   5.817   2.138 -1.1828 -1.0210 -0.0479
 3172SOL    MW412456   4.002   5.880   2.106 -0.0157 -0.0633 -0.1385
 3173SOL     OW12457   0.943   0.296   1.009  0.3513 -0.1410  0.2580
 3173SOL    HW212458   0.968   0.287   1.102 -2.1381 -1.1134  0.9098
 3173SOL    HW312459   0.873   0.231   0.997  0.4325  0.1505 -2.2618
 3173SOL    MW412460   0.937   0.286   1.020  0.0336 -0.2309  0.0115
 3174SOL     OW12461   4.542   5.127   1.728 -0.2304  0.2175  0.0566
 3174SOL    HW212462   4.496   5.086   1.654 -1.6348 -1.0342  1.5564
 3174SOL    HW312463   4.489   5.204   1.749 -0.8356 -0.3906  0.8269
 3174SOL    MW412464   4.529   5.132   1.721 -0.4956 -0.0279  0.3561
 3175SOL     OW12465   5.087   1.657   5.813  0.6046  0.4090  0.3443
 3175SOL    HW212466   5.094   1.741   5.858  0.2488 -0.1174  1.4124
 3175SOL    HW312467   5.159   1.657   5.750  0.7589  1.4064  0.5144
 3175SOL    MW412468   5.098   1.668   5.811  0.5780  0.4711  0.5077
 3176SOL     OW12469   2.393   2.260   0.821 -0.0348 -0.8600 -0.6101
 3176SOL    HW212470   2.309   2.248   0.776 -0.9763 -0.6770  1.0169
 3176SOL    HW312471   2.394   2.353   0.844  0.4175 -0.9590 -0.2243
 3176SOL    MW412472   2.382   2.271   0.818 -0.0994 -0.8489 -0.3445
 3177SOL     OW12473   2.929   5.165   0.025 -0.0201 -0.1192 -0.0757
 3177SOL    HW212474   3.002   5.136   0.081 -1.1039 -2.2903  0.3087
 3177SOL    HW312475   2.964   5.160  -0.064  0.8248  0.5869  0.1974
 3177SOL    MW412476   2.943   5.160   0.021 -0.0516 -0.3125  0.0110
 3178SOL     OW12477   0.111   4.015   1.742  0.1243 -0.4040 -0.6281
 3178SOL    HW212478   0.105   4.108   1.762  0.4203 -0.2789 -1.0957
 3178SOL    HW312479   0.176   3.982   1.805  0.6734 -0.1156 -1.0284
 3178SOL    MW412480   0.119   4.023   1.753  0.2358 -0.3494 -0.7426
 3179SOL     OW12481   5.518   6.277   2.679 -0.1524  0.0220 -0.1450
 3179SOL    HW212482   5.614   6.276   2.687  0.2678  0.7017 -3.4976
 3179SOL    HW312483   5.492   6.186   2.692  0.7913  0.0005  1.8799
 3179SOL    MW412484   5.527   6.265   2.681  0.0275  0.1088 -0.3202
 3180SOL     OW12485   0.811   6.278   1.470 -0.4168 -0.7958 -0.6556
 3180SOL    HW212486   0.771   6.214   1.411 -0.7715 -0.0458 -1.2562
 3180SOL    HW312487   0.830   6.229   1.549  0.5425 -1.9503 -1.5667
 3180SOL    MW412488   0.808   6.263   1.472 -0.3370 -0.8492 -0.8551
 3181SOL     OW12489   1.596   6.141   6.396 -0.1207  0.0756  0.1218
 3181SOL    HW212490   1.539   6.066   6.409  0.0708  0.0469  0.8247
 3181SOL    HW312491   1.556   6.211   6.447  0.2545  0.1709  0.2905
 3181SOL    MW412492   1.583   6.141   6.404 -0.0459  0.0844  0.2368
 3182SOL     OW12493   3.166   3.389   4.220 -0.3799 -0.5793 -0.0183
 3182SOL    HW212494   3.194   3.322   4.282 -1.0276 -0.5411  0.3309
 3182SOL    HW312495   3.208   3.469   4.250 -0.7276 -0.5509  0.4114
 3182SOL    MW412496   3.175   3.391   4.232 -0.5112 -0.5705  0.0845
 3183SOL     OW12497   2.385   0.153   2.509  0.3190 -0.3983  0.1488
 3183SOL    HW212498   2.473   0.121   2.489  0.8566  0.9720  0.1994
 3183SOL    HW312499   2.345   0.169   2.424  1.1171  1.5072  0.0768
 3183SOL    MW412500   2.392   0.151   2.495  0.4952  0.0339  0.1460
 3184SOL     OW12501   0.967   4.032   4.297  0.1263 -0.3659 -0.2001
 3184SOL    HW212502   0.935   4.107   4.246  0.1579  1.1250  1.8534
 3184SOL    HW312503   0.898   4.014   4.359  1.2996 -0.1096  1.2424
 3184SOL    MW412504   0.954   4.040   4.298  0.2853 -0.1353  0.2611
 3185SOL     OW12505   4.580   2.933   5.812 -0.0311 -0.3870  0.2180
 3185SOL    HW212506   4.665   2.913   5.772  0.6054 -2.1332  2.2360
 3185SOL    HW312507   4.601   2.986   5.888 -0.4536 -2.4151  1.8418
 3185SOL    MW412508   4.594   2.937   5.817 -0.0028 -0.8850  0.6985
 3186SOL     OW12509   1.687   4.282   0.005 -0.5087  0.3995 -0.0863
 3186SOL    HW212510   1.723   4.368  -0.016 -0.3422  0.5353  0.7182
 3186SOL    HW312511   1.646   4.294   0.091 -0.6040 -0.2879 -0.0315
 3186SOL    MW412512   1.686   4.295   0.013 -0.4993  0.3267  0.0271
 3187SOL     OW12513   0.393   2.981   3.139 -0.3211 -0.4274 -0.2979
 3187SOL    HW212514   0.360   3.036   3.211  0.0531  0.2911 -0.6585
 3187SOL    HW312515   0.350   3.016   3.061 -1.2945 -1.6762 -0.3492
 3187SOL    MW412516   0.383   2.993   3.139 -0.4002 -0.4974 -0.3522
 3188SOL     OW12517   0.144   2.364   4.797  0.0941 -0.1362  0.4357
 3188SOL    HW212518   0.225   2.316   4.813  1.6389  2.6192  1.6396
 3188SOL    HW312519   0.167   2.456   4.813 -2.5816  1.1087 -1.8598
 3188SOL    MW412520   0.158   2.370   4.801 -0.0551  0.3916  0.2917
 3189SOL     OW12521   0.132   3.437   2.186 -0.0603  0.2820  0.1958
 3189SOL    HW212522   0.223   3.408   2.173 -0.0943  1.0195 -2.1555
 3189SOL    HW312523   0.079   3.359   2.167 -0.0006  0.7251 -2.0193
 3189SOL    MW412524   0.137   3.423   2.182 -0.0569  0.4378 -0.4067
 3190SOL     OW12525   4.036   1.508   0.425  0.3052 -0.6072  0.2743
 3190SOL    HW212526   3.995   1.443   0.368 -0.9424  0.1774  0.2593
 3190SOL    HW312527   3.963   1.551   0.470  1.2194 -0.7282  1.9631
 3190SOL    MW412528   4.021   1.505   0.423  0.2612 -0.5196  0.4951
 3191SOL     OW12529   3.152   5.087   5.290  0.2413 -0.2551  0.5131
 3191SOL    HW212530   3.137   5.181   5.287  0.5060 -0.2305 -0.2830
 3191SOL    HW312531   3.239   5.075   5.251 -0.9937 -1.0852 -2.2281
 3191SOL    MW412532   3.162   5.098   5.284  0.1132 -0.3614  0.0464
 3192SOL     OW12533   4.272   2.372   0.380  0.2244 -0.2921 -0.0034
 3192SOL    HW212534   4.277   2.382   0.285 -1.5517  0.2273 -0.0827
 3192SOL    HW312535   4.240   2.283   0.394 -0.7594  0.0476  0.0272
 3192SOL    MW412536   4.268   2.362   0.369 -0.1398 -0.1788 -0.0098
 3193SOL     OW12537   5.929   4.376   5.110  0.0391 -0.0966  0.0712
 3193SOL    HW212538   5.962   4.457   5.072  1.7638 -1.0417 -0.5589
 3193SOL    HW312539   5.834   4.382   5.101  0.0738  2.1062  0.6387
 3193SOL    MW412540   5.921   4.387   5.104  0.2712  0.0694  0.0629
 3194SOL     OW12541   1.970   4.724   4.571 -0.1963 -0.5886  0.3716
 3194SOL    HW212542   1.935   4.685   4.491  0.3881  1.8317 -1.1847
 3194SOL    HW312543   1.898   4.778   4.605  0.0134 -0.4920  0.6677
 3194SOL    MW412544   1.956   4.726   4.565 -0.0916 -0.2566  0.2054
 3195SOL     OW12545   2.611   0.926   0.940 -0.2613 -0.2386 -0.4538
 3195SOL    HW212546   2.577   1.010   0.910 -0.0596 -0.2251 -0.6381
 3195SOL    HW312547   2.684   0.948   0.997 -2.2825 -0.1011  2.3319
 3195SOL    MW412548   2.616   0.940   0.944 -0.5013 -0.2187 -0.1106
 3196SOL     OW12549   0.322   6.325   3.154 -0.5478  0.6647 -0.2701
 3196SOL    HW212550   0.386   6.280   3.210 -1.7084 -0.4489  0.2000
 3196SOL    HW312551   0.245   6.268   3.155 -0.8193  0.9350 -2.5276
 3196SOL    MW412552   0.320   6.311   3.162 -0.7368  0.5534 -0.5060
 3197SOL     OW12553   2.718   4.243   4.491  0.3641  0.1818 -0.1199
 3197SOL    HW212554   2.789   4.286   4.538 -0.3460  1.7432 -0.4226
 3197SOL    HW312555   2.759   4.167   4.450  0.9680 -1.5758  3.3164
 3197SOL    MW412556   2.733   4.239   4.492  0.3501  0.1559  0.2936
 3198SOL     OW12557   0.342   1.057   4.367  0.4581  0.2131  0.3518
 3198SOL    HW212558   0.343   0.964   4.388 -0.8137 -0.4059 -1.9139
 3198SOL    HW312559   0.322   1.060   4.273 -0.9889  2.8047  0.6403
 3198SOL    MW412560   0.340   1.045   4.357  0.0994  0.4734  0.0909
 3199SOL     OW12561   1.050   3.929   5.209  0.1239  0.2379  0.5855
 3199SOL    HW212562   1.109   3.993   5.250  3.8530 -0.2306 -3.4215
 3199SOL    HW312563   1.095   3.845   5.219 -1.8117 -0.8502  0.6234
 3199SOL    MW412564   1.064   3.926   5.216  0.3605  0.0325  0.0619
 3200SOL     OW12565   5.813   4.007   5.676 -0.0746  0.0501  0.1213
 3200SOL    HW212566   5.771   3.944   5.618  2.5222 -1.1279 -0.6358
 3200SOL    HW312567   5.791   3.977   5.764 -1.5372  0.0403 -0.2274
 3200SOL    MW412568   5.805   3.995   5.680  0.0751 -0.1066 -0.0246
 3201SOL     OW12569   2.842   3.358   0.079  0.5418 -0.4055  1.0633
 3201SOL    HW212570   2.932   3.380   0.104  0.9254  2.5608 -2.1462
 3201SOL    HW312571   2.850   3.277   0.029  1.3174 -0.5459  1.4028
 3201SOL    MW412572   2.855   3.351   0.075  0.6948 -0.0326  0.6847
 3202SOL     OW12573   4.281   3.794   0.174 -0.3192 -0.5569 -0.0275
 3202SOL    HW212574   4.250   3.733   0.107 -1.1357 -0.9357  0.6739
 3202SOL    HW312575   4.223   3.870   0.165  1.6039  0.8303 -1.8863
 3202SOL    MW412576   4.269   3.796   0.164 -0.1732 -0.4239 -0.1802
 3203SOL     OW12577   4.892   3.448   1.343  0.0494 -0.6235 -0.0848
 3203SOL    HW212578   4.797   3.452   1.328 -0.0241  2.2704  0.4895
 3203SOL    HW312579   4.902   3.434   1.437  0.1703 -0.2288 -0.0369
 3203SOL    MW412580   4.881   3.447   1.353  0.0557 -0.1896 -0.0027
 3204SOL     OW12581   1.899   0.609   2.613 -0.4461  0.2201 -0.0368
 3204SOL    HW212582   1.866   0.582   2.527  0.3625  1.1704 -0.6737
 3204SOL    HW312583   1.984   0.650   2.594  0.8216 -1.5833  1.4794
 3204SOL    MW412584   1.906   0.611   2.599 -0.1721  0.1075  0.0792
 3205SOL     OW12585   0.774   2.795   2.401 -0.3653  0.0417  0.1799
 3205SOL    HW212586   0.769   2.861   2.333  1.9063 -0.5160 -0.5997
 3205SOL    HW312587   0.863   2.800   2.434  0.5041 -3.6900 -1.0896
 3205SOL    MW412588   0.785   2.804   2.397  0.0491 -0.5242 -0.0905
 3206SOL     OW12589   6.110   6.161   2.303 -0.0504 -0.2135  0.3068
 3206SOL    HW212590   6.078   6.113   2.226  0.2764 -0.6676  0.4524
 3206SOL    HW312591   6.072   6.248   2.293  0.1074 -0.2187 -0.4548
 3206SOL    MW412592   6.100   6.166   2.291  0.0136 -0.2741  0.2255
 3207SOL     OW12593   1.988   1.422   3.351  0.4377 -0.0190  0.2388
 3207SOL    HW212594   1.906   1.466   3.372 -0.0701 -1.3242  1.1943
 3207SOL    HW312595   1.996   1.355   3.419  0.1629 -2.6750 -2.1530
 3207SOL    MW412596   1.978   1.419   3.363  0.3345 -0.5416  0.0493
 3208SOL     OW12597   1.202   3.914   4.385  0.6766 -0.2993  0.5067
 3208SOL    HW212598   1.274   3.963   4.344  1.2790  1.1383  3.0535
 3208SOL    HW312599   1.123   3.959   4.356  0.7985 -1.2829 -1.5271
 3208SOL    MW412600   1.201   3.926   4.376  0.7722 -0.2394  0.5744
 3209SOL     OW12601   5.558   4.692   5.141  0.2357  0.4654 -0.3094
 3209SOL    HW212602   5.485   4.732   5.188  0.3519 -0.1338  0.4159
 3209SOL    HW312603   5.517   4.645   5.069 -0.2601 -0.8813  0.7926
 3209SOL    MW412604   5.543   4.691   5.138  0.1856  0.2086 -0.0683
 3210SOL     OW12605   1.734   4.912   5.992 -0.2825 -0.1061 -0.8315
 3210SOL    HW212606   1.755   4.927   5.900 -0.6257 -1.8727 -1.2377
 3210SOL    HW312607   1.789   4.839   6.018  2.4506  2.4926  1.4616
 3210SOL    MW412608   1.744   4.905   5.984  0.0328  0.0037 -0.5825
 3211SOL     OW12609   2.337   3.309   1.941 -0.3250  0.3156 -0.3110
 3211SOL    HW212610   2.432   3.317   1.943 -0.1173 -1.7367  0.9877
 3211SOL    HW312611   2.307   3.385   1.890  1.9287  1.4572 -0.0459
 3211SOL    MW412612   2.345   3.320   1.935 -0.0003  0.1955 -0.1047
 3212SOL     OW12613   6.126   1.546   1.125 -0.5978 -0.6708 -0.4008
 3212SOL    HW212614   6.209   1.589   1.105 -1.4845  0.8033 -1.1023
 3212SOL    HW312615   6.150   1.471   1.179  1.0499  0.5429  0.6493
 3212SOL    MW412616   6.140   1.542   1.129 -0.4974 -0.3161 -0.3548
 3213SOL     OW12617   3.222   6.289   4.489  0.7150 -0.0004 -0.4911
 3213SOL    HW212618   3.233   6.316   4.398  0.0071  0.0724 -0.5614
 3213SOL    HW312619   3.311   6.282   4.523  0.9555  0.9004 -0.9136
 3213SOL    MW412620   3.235   6.291   4.482  0.6534  0.1281 -0.5561
 3214SOL     OW12621   1.695   2.807   3.853  0.1033  0.1060  0.0117
 3214SOL    HW212622   1.608   2.824   3.890  0.3209 -2.6640  2.1283
 3214SOL    HW312623   1.696   2.854   3.770 -3.6373 -0.2532 -0.3751
 3214SOL    MW412624   1.684   2.815   3.847 -0.3615 -0.3068  0.2399
 3215SOL     OW12625   0.933   5.253   4.615 -0.1033 -0.4869 -0.2256
 3215SOL    HW212626   1.009   5.274   4.562 -0.3727  0.1682 -0.3557
 3215SOL    HW312627   0.873   5.208   4.555 -0.2612 -0.0565 -0.3950
 3215SOL    MW412628   0.935   5.250   4.600 -0.1597 -0.3437 -0.2651
 3216SOL     OW12629   4.032   3.956   0.070  0.2737 -0.4058 -0.0022
 3216SOL    HW212630   3.974   3.881   0.080  0.3828 -0.3136  1.7549
 3216SOL    HW312631   4.079   3.940  -0.012  0.2210 -2.2005  0.2745
 3216SOL    MW412632   4.031   3.944   0.061  0.2811 -0.6304  0.2661
 3217SOL     OW12633   6.323   1.944   0.321 -0.0017  0.2120 -0.7091
 3217SOL    HW212634   6.242   1.893   0.316  1.1590 -1.7592 -0.6081
 3217SOL    HW312635   6.373   1.902   0.391  1.6442  0.5071 -1.6505
 3217SOL    MW412636   6.319   1.932   0.329  0.3686 -0.0092 -0.8200
 3218SOL     OW12637   3.323   2.165   4.215  0.5468 -0.0929  0.7734
 3218SOL    HW212638   3.411   2.142   4.184  0.7740 -0.5278  1.6812
 3218SOL    HW312639   3.296   2.088   4.265  0.3277  0.6830  1.8775
 3218SOL    MW412640   3.331   2.152   4.218  0.5479 -0.0479  1.0388
 3219SOL     OW12641   2.480   1.632   6.374 -0.1098 -0.2268  0.1906
 3219SOL    HW212642   2.401   1.684   6.357 -0.4746 -1.2108 -1.2821
 3219SOL    HW312643   2.448   1.543   6.389  0.6212 -0.3517  1.0997
 3219SOL    MW412644   2.466   1.627   6.374 -0.0615 -0.3731  0.1163
 3220SOL     OW12645   4.882   1.290   1.796  0.1030  0.7177 -0.0577
 3220SOL    HW212646   4.791   1.317   1.789  0.1409  0.7133 -0.6766
 3220SOL    HW312647   4.907   1.309   1.886 -0.9679 -0.7247  0.5747
 3220SOL    MW412648   4.873   1.296   1.807 -0.0333  0.5268 -0.0559
 3221SOL     OW12649   1.938   3.360   5.011 -0.2155  0.3991 -0.3669
 3221SOL    HW212650   1.848   3.370   5.045 -0.1912  1.1808 -0.5223
 3221SOL    HW312651   1.942   3.420   4.937  1.0045  1.7709  0.7621
 3221SOL    MW412652   1.926   3.369   5.006 -0.0513  0.6832 -0.2384
 3222SOL     OW12653   1.754   4.714   3.506 -0.0707  0.0650 -0.0791
 3222SOL    HW212654   1.690   4.734   3.438 -0.8280 -3.3959 -0.6151
 3222SOL    HW312655   1.829   4.678   3.458  0.0368 -0.9201  0.7969
 3222SOL    MW412656   1.756   4.712   3.491 -0.1564 -0.5216 -0.0342
 3223SOL     OW12657   2.406   4.377   5.191  1.0519  0.6468 -0.1734
 3223SOL    HW212658   2.447   4.316   5.252  1.5943  1.2020  0.0224
 3223SOL    HW312659   2.324   4.402   5.234 -0.0317 -1.2540 -1.0291
 3223SOL    MW412660   2.400   4.372   5.205  0.9805  0.4693 -0.2605
 3224SOL     OW12661   1.743   0.252   2.037 -0.5263  0.0431 -0.0840
 3224SOL    HW212662   1.721   0.330   1.985 -1.1811 -0.3764 -0.4615
 3224SOL    HW312663   1.698   0.266   2.120 -1.5007 -0.3819 -0.5183
 3224SOL    MW412664   1.734   0.264   2.041 -0.7412 -0.0684 -0.1911
 3225SOL     OW12665   2.285   0.493   1.151 -0.4326  0.1336 -0.4059
 3225SOL    HW212666   2.280   0.588   1.151 -2.2779  0.0739 -0.6285
 3225SOL    HW312667   2.232   0.466   1.076 -1.6684 -1.1130  0.8438
 3225SOL    MW412668   2.277   0.502   1.141 -0.8391 -0.0387 -0.2704
 3226SOL     OW12669   3.154   0.936   6.140 -0.0098 -0.0793 -0.0426
 3226SOL    HW212670   3.110   0.852   6.149  1.5923 -0.8290  1.1264
 3226SOL    HW312671   3.102   0.997   6.192 -0.7652 -0.4894 -0.3101
 3226SOL    MW412672   3.141   0.933   6.148  0.1019 -0.2323  0.0764
 3227SOL     OW12673   5.110   3.410   4.984  0.3097  0.3455 -0.0512
 3227SOL    HW212674   5.172   3.340   4.965  0.1793 -0.3527  1.8186
 3227SOL    HW312675   5.150   3.458   5.057 -1.9295 -1.0846  2.3070
 3227SOL    MW412676   5.124   3.407   4.991 -0.0029  0.0647  0.5066
 3228SOL     OW12677   3.642   5.941   4.605 -0.2855  0.8926 -0.2882
 3228SOL    HW212678   3.586   5.963   4.680 -2.1667  0.6651 -1.5501
 3228SOL    HW312679   3.581   5.909   4.539  1.3156  1.1264 -1.9496
 3228SOL    MW412680   3.627   5.939   4.606 -0.3224  0.8935 -0.6739
 3229SOL     OW12681   1.769   4.685   2.563  0.2282 -0.5175 -0.0993
 3229SOL    HW212682   1.817   4.693   2.645  0.0874 -0.6125 -0.0066
 3229SOL    HW312683   1.686   4.730   2.579  0.6806  0.5266 -0.5837
 3229SOL    MW412684   1.764   4.692   2.576  0.2693 -0.3922 -0.1510
 3230SOL     OW12685   5.048   3.234   1.270 -0.4482 -0.4864 -0.5308
 3230SOL    HW212686   5.070   3.198   1.356  1.1180  0.2536 -0.5828
 3230SOL    HW312687   4.988   3.306   1.289 -0.1452 -0.3548 -0.0520
 3230SOL    MW412688   5.043   3.239   1.284 -0.2015 -0.3714 -0.4745
 3231SOL     OW12689   1.054   1.995   1.909 -0.6936  0.2792  0.3619
 3231SOL    HW212690   1.036   2.078   1.953  0.1069  1.3008 -1.1767
 3231SOL    HW312691   0.977   1.980   1.854 -1.7716 -1.0832  2.1401
 3231SOL    MW412692   1.041   2.004   1.908 -0.7302  0.2343  0.3935
 3232SOL     OW12693   1.626   4.578   2.083  0.2000 -0.3558 -0.2027
 3232SOL    HW212694   1.713   4.569   2.045  0.0961  0.7192 -0.7054
 3232SOL    HW312695   1.600   4.488   2.103  1.1107 -0.7534 -0.7413
 3232SOL    MW412696   1.634   4.565   2.081  0.3065 -0.2664 -0.3401
 3233SOL     OW12697   3.297   3.539   0.926  0.1156 -0.3113 -0.4911
 3233SOL    HW212698   3.240   3.554   1.001  1.2390 -1.2145  0.6039
 3233SOL    HW312699   3.243   3.558   0.849 -0.9124  1.1433  0.5460
 3233SOL    MW412700   3.283   3.543   0.926  0.1282 -0.2385 -0.2098
 3234SOL     OW12701   1.262   5.562   2.075  0.6212  0.1364  0.4968
 3234SOL    HW212702   1.330   5.604   2.022  0.9040 -2.8467 -1.7177
 3234SOL    HW312703   1.303   5.485   2.112  0.1275  1.5390  4.5166
 3234SOL    MW412704   1.276   5.558   2.073  0.5934 -0.0721  0.7350
 3235SOL     OW12705   3.223   1.747   3.728  0.5485  0.1072 -0.4137
 3235SOL    HW212706   3.272   1.667   3.710  0.3871  0.3288 -1.9989
 3235SOL    HW312707   3.289   1.808   3.761  0.9533 -0.2344 -0.5737
 3235SOL    MW412708   3.238   1.744   3.730  0.5806  0.0914 -0.6440
 3236SOL     OW12709   0.630   0.437   1.416 -0.5563 -0.4049 -0.4445
 3236SOL    HW212710   0.604   0.464   1.504 -3.5918  1.3574 -1.6847
 3236SOL    HW312711   0.721   0.466   1.407 -0.5193  0.3039  1.7350
 3236SOL    MW412712   0.638   0.445   1.426 -0.9519 -0.0789 -0.3206
 3237SOL     OW12713   2.227   2.578   4.764 -0.3771  0.4843 -0.6680
 3237SOL    HW212714   2.304   2.536   4.725  1.1999  1.7265  0.9467
 3237SOL    HW312715   2.221   2.540   4.852  0.2903  2.5680  0.3493
 3237SOL    MW412716   2.236   2.567   4.770 -0.0810  0.9231 -0.3208
 3238SOL     OW12717   5.195   0.482   4.940 -0.3988  0.0530 -0.5832
 3238SOL    HW212718   5.120   0.508   4.993 -0.2063 -3.4013  1.6749
 3238SOL    HW312719   5.264   0.544   4.964 -1.0751  0.1183  1.3030
 3238SOL    MW412720   5.194   0.494   4.950 -0.4626 -0.3941 -0.0364
 3239SOL     OW12721   4.499   3.904   6.016  0.0413  0.7786 -0.1080
 3239SOL    HW212722   4.417   3.938   5.980 -0.6014 -0.4324  0.1439
 3239SOL    HW312723   4.511   3.951   6.098  0.1831  1.7384 -0.6632
 3239SOL    MW412724   4.490   3.914   6.022 -0.0248  0.7455 -0.1480
 3240SOL     OW12725   5.902   0.741   3.728  0.0143  0.1900  0.5267
 3240SOL    HW212726   5.853   0.717   3.807  0.6353  0.3354  0.9665
 3240SOL    HW312727   5.993   0.746   3.757  0.2921 -0.0471 -0.2711
 3240SOL    MW412728   5.908   0.738   3.742  0.1329  0.1779  0.4795
 3241SOL     OW12729   5.729   4.593   0.872  0.1821 -0.0319 -0.4053
 3241SOL    HW212730   5.674   4.533   0.922  0.0608 -0.5344 -1.1191
 3241SOL    HW312731   5.671   4.665   0.848  0.0293 -0.1906 -0.5118
 3241SOL    MW412732   5.714   4.594   0.876  0.1460 -0.1191 -0.5135
 3242SOL     OW12733   2.109   0.953   4.303  0.2581  0.4428  0.0564
 3242SOL    HW212734   2.119   1.041   4.339 -0.3587  0.4743  0.1650
 3242SOL    HW312735   2.152   0.956   4.218  1.8276  0.3435  0.8165
 3242SOL    MW412736   2.116   0.965   4.297  0.3838  0.4339  0.1710
 3243SOL     OW12737   6.254   4.229   4.320  0.6202  0.0151 -0.8704
 3243SOL    HW212738   6.331   4.279   4.292  1.2733  0.2728  1.2110
 3243SOL    HW312739   6.188   4.296   4.340  0.5324 -0.1008 -0.7735
 3243SOL    MW412740   6.255   4.245   4.319  0.6948  0.0338 -0.5830
 3244SOL     OW12741   5.267   3.432   1.780  0.2436 -0.2000  0.0487
 3244SOL    HW212742   5.183   3.431   1.733 -0.6886 -0.6876  1.6323
 3244SOL    HW312743   5.294   3.340   1.782  1.3620  0.0643 -1.3118
 3244SOL    MW412744   5.259   3.420   1.774  0.2681 -0.2295  0.0782
 3245SOL     OW12745   4.782   0.411   1.822  0.0263 -0.4223  0.4859
 3245SOL    HW212746   4.708   0.399   1.881 -0.2470  0.1122  0.2621
 3245SOL    HW312747   4.846   0.346   1.849  0.1783  0.2553  1.7948
 3245SOL    MW412748   4.780   0.401   1.833  0.0103 -0.2624  0.6291
 3246SOL     OW12749   5.983   3.486   3.431 -0.3076 -0.1006 -0.7046
 3246SOL    HW212750   5.916   3.540   3.472 -0.3860 -0.8315  0.1634
 3246SOL    HW312751   6.057   3.490   3.492  0.7547  1.3116 -2.0049
 3246SOL    MW412752   5.984   3.494   3.444 -0.1778 -0.0107 -0.7617
 3247SOL     OW12753   6.316   5.727   6.318  0.3131  0.1260 -0.3598
 3247SOL    HW212754   6.242   5.726   6.257 -0.3424 -0.0185  0.4200
 3247SOL    HW312755   6.329   5.820   6.338 -1.1097  0.0255  1.2003
 3247SOL    MW412756   6.308   5.739   6.312  0.0389  0.0937 -0.0510
 3248SOL     OW12757   2.834   1.760   3.432 -0.7372  0.1375  0.4529
 3248SOL    HW212758   2.894   1.688   3.410  1.1296  1.6565  0.2830
 3248SOL    HW312759   2.862   1.787   3.519 -1.0077  1.0436  0.2629
 3248SOL    MW412760   2.846   1.754   3.441 -0.5266  0.4574  0.4054
 3249SOL     OW12761   4.283   3.366   2.176 -0.2445  0.1979 -0.5724
 3249SOL    HW212762   4.262   3.289   2.229 -0.6122  0.4216 -0.3875
 3249SOL    HW312763   4.246   3.440   2.225  0.0833  0.4894 -0.7602
 3249SOL    MW412764   4.276   3.366   2.190 -0.2497  0.2659 -0.5728
 3250SOL     OW12765   6.239   2.664   6.353  0.2144  0.6774 -0.4709
 3250SOL    HW212766   6.329   2.692   6.341  1.2674 -1.4472  1.6946
 3250SOL    HW312767   6.223   2.672   6.447 -0.8148 -1.7528 -0.3557
 3250SOL    MW412768   6.249   2.669   6.364  0.2175  0.0764 -0.1700
 3251SOL     OW12769   1.753   5.504   3.326  0.3312  0.3425  0.7202
 3251SOL    HW212770   1.791   5.461   3.402 -1.9142  0.0501  1.7480
 3251SOL    HW312771   1.662   5.521   3.350  0.0479  2.0000 -1.1891
 3251SOL    MW412772   1.746   5.501   3.339 -0.0025  0.5226  0.6039
 3252SOL     OW12773   0.545   2.151   1.754  0.1582  0.1092  0.2258
 3252SOL    HW212774   0.528   2.245   1.763 -0.7084  0.0140 -0.2528
 3252SOL    HW312775   0.514   2.129   1.666  0.1289 -0.6704  0.4191
 3252SOL    MW412776   0.538   2.160   1.744  0.0400 -0.0062  0.1882
 3253SOL     OW12777   5.148   6.084   3.906  0.2450  0.0415  0.0599
 3253SOL    HW212778   5.232   6.088   3.951 -0.6598 -1.3021  1.9758
 3253SOL    HW312779   5.118   6.175   3.902  1.5295  0.4690 -0.1881
 3253SOL    MW412780   5.155   6.096   3.911  0.2951 -0.0794  0.2799
 3254SOL     OW12781   6.203   4.247   2.934 -0.2419  0.5935 -0.4828
 3254SOL    HW212782   6.132   4.265   2.872 -0.3509  0.5369 -0.3747
 3254SOL    HW312783   6.158   4.227   3.016 -0.1556 -0.8285 -0.7619
 3254SOL    MW412784   6.188   4.247   2.937 -0.2449  0.3984 -0.5054
 3255SOL     OW12785   3.257   5.618   2.660  0.1139  0.5308 -0.2171
 3255SOL    HW212786   3.185   5.590   2.603  1.2724 -2.0490 -0.5505
 3255SOL    HW312787   3.280   5.705   2.628 -0.4642 -0.1045 -2.5333
 3255SOL    MW412788   3.250   5.626   2.648  0.1905  0.1066 -0.5667
 3256SOL     OW12789   5.962   4.587   5.825  0.3469  0.0377 -0.2485
 3256SOL    HW212790   5.927   4.500   5.804 -0.2261  0.1033  0.3861
 3256SOL    HW312791   6.049   4.588   5.785 -0.1133 -0.3780 -1.3026
 3256SOL    MW412792   5.969   4.575   5.817  0.2106 -0.0085 -0.3038
 3257SOL     OW12793   4.053   2.818   4.147  0.0255  0.1025  0.2096
 3257SOL    HW212794   4.087   2.805   4.059  1.8638 -0.1463  0.9149
 3257SOL    HW312795   4.114   2.772   4.204 -1.3626 -0.1164  1.6020
 3257SOL    MW412796   4.065   2.810   4.143  0.0849  0.0408  0.4864
 3258SOL     OW12797   4.769   4.458   6.054 -0.3603  0.0666  0.4911
 3258SOL    HW212798   4.793   4.519   6.124 -3.1746  2.7378 -0.5930
 3258SOL    HW312799   4.848   4.450   6.001  1.3833 -0.8102  3.0259
 3258SOL    MW412800   4.782   4.465   6.056 -0.5016  0.3033  0.6825
 3259SOL     OW12801   2.970   5.774   0.030  0.1342  0.2089  0.0335
 3259SOL    HW212802   3.045   5.829   0.049  0.8075 -0.2409 -1.2168
 3259SOL    HW312803   2.894   5.825   0.059  0.9156  0.5230  1.6119
 3259SOL    MW412804   2.970   5.788   0.036  0.3261  0.1910  0.0768
 3260SOL     OW12805   4.466   0.085   1.549 -0.2253  0.1459  0.1227
 3260SOL    HW212806   4.449  -0.002   1.513 -0.0694  0.4923 -0.8108
 3260SOL    HW312807   4.554   0.107   1.518 -0.7976  1.2028 -0.8283
 3260SOL    MW412808   4.475   0.077   1.540 -0.2803  0.3311 -0.1259
 3261SOL     OW12809   2.369   5.072   3.458 -0.3882  0.0158  0.6327
 3261SOL    HW212810   2.404   4.984   3.473 -2.6461 -1.2973 -0.9973
 3261SOL    HW312811   2.323   5.094   3.539 -1.2711 -1.1318  0.4808
 3261SOL    MW412812   2.368   5.063   3.470 -0.8026 -0.3088  0.3976
 3262SOL     OW12813   4.350   0.269   0.785 -0.1683 -0.4731  0.1049
 3262SOL    HW212814   4.407   0.306   0.853  0.6995  0.0498 -0.8731
 3262SOL    HW312815   4.278   0.332   0.776  0.3740  0.0985 -0.3159
 3262SOL    MW412816   4.348   0.282   0.793  0.0177 -0.3287 -0.0796
 3263SOL     OW12817   0.497   2.929   4.343 -0.4726 -0.4689 -0.1399
 3263SOL    HW212818   0.473   2.858   4.283 -0.3087 -2.1365  1.6568
 3263SOL    HW312819   0.560   2.981   4.293 -0.6356 -1.5442 -1.5627
 3263SOL    MW412820   0.502   2.926   4.328 -0.4725 -0.8308 -0.0905
 3264SOL     OW12821   0.138   1.452   4.244 -0.1362  0.2779 -0.0249
 3264SOL    HW212822   0.115   1.487   4.330  2.0282  0.7026  0.4473
 3264SOL    HW312823   0.074   1.383   4.229 -0.8383  0.4744  1.7411
 3264SOL    MW412824   0.127   1.447   4.254  0.0568  0.3599  0.2704
 3265SOL     OW12825   4.442   0.846   0.317  0.1051  0.0935  0.2027
 3265SOL    HW212826   4.496   0.909   0.269  0.4667 -0.9332 -0.7852
 3265SOL    HW312827   4.363   0.895   0.340 -0.4077  0.4630 -2.0822
 3265SOL    MW412828   4.439   0.861   0.314  0.0851  0.0068 -0.2291
 3266SOL     OW12829   4.939   2.059   3.130  0.4401  0.2503  0.4053
 3266SOL    HW212830   4.939   2.152   3.105 -0.7783  0.4845  1.1710
 3266SOL    HW312831   5.028   2.030   3.113  0.1460  0.7606 -2.6937
 3266SOL    MW412832   4.950   2.068   3.125  0.2405  0.3485  0.0975
 3267SOL     OW12833   0.291   3.148   3.374 -0.3010 -0.2787 -0.6925
 3267SOL    HW212834   0.291   3.237   3.338 -0.0544 -0.4576 -1.1449
 3267SOL    HW312835   0.381   3.134   3.403 -0.2565 -0.5031 -0.9339
 3267SOL    MW412836   0.303   3.158   3.373 -0.2626 -0.3319 -0.7840
 3268SOL     OW12837   0.267   3.227   1.528  0.6096 -0.7245 -0.2432
 3268SOL    HW212838   0.330   3.292   1.558  1.5718 -1.6429 -0.2530
 3268SOL    HW312839   0.204   3.219   1.600 -1.0055  2.0092 -1.1842
 3268SOL    MW412840   0.267   3.234   1.541  0.5235 -0.4850 -0.3687
 3269SOL     OW12841   3.481   0.027   2.136 -0.3427  0.7046 -0.3297
 3269SOL    HW212842   3.545   0.017   2.066 -0.0168 -0.5348  0.1153
 3269SOL    HW312843   3.521   0.089   2.197 -0.6546  1.8329 -1.2446
 3269SOL    MW412844   3.494   0.034   2.135 -0.3408  0.6900 -0.3917
 3270SOL     OW12845   4.397   6.049   0.702  0.1717  0.2046  0.1493
 3270SOL    HW212846   4.345   6.114   0.654  1.2561  1.1916  0.2586
 3270SOL    HW312847   4.429   5.990   0.634 -0.2184  0.2180 -0.0485
 3270SOL    MW412848   4.394   6.050   0.686  0.2633  0.3366  0.1376
 3271SOL     OW12849   1.734   1.162   3.711  0.4753 -0.1194  0.3736
 3271SOL    HW212850   1.759   1.075   3.680 -1.4738 -0.2413 -1.0543
 3271SOL    HW312851   1.664   1.189   3.652  1.0098  2.4329  0.8021
 3271SOL    MW412852   1.728   1.154   3.699  0.2887  0.2013  0.2417
 3272SOL     OW12853   5.161   4.015   3.011  0.2286  0.5218  0.2013
 3272SOL    HW212854   5.177   3.981   3.099  2.4286 -1.8233 -0.9395
 3272SOL    HW312855   5.079   3.974   2.984 -0.6782  1.5912  1.2735
 3272SOL    MW412856   5.153   4.005   3.019  0.3992  0.3535  0.1923
 3273SOL     OW12857   1.227   3.122   6.124  0.2565  0.3531  0.0786
 3273SOL    HW212858   1.255   3.122   6.216 -0.3390  0.5873  0.2649
 3273SOL    HW312859   1.223   3.030   6.100 -1.6693  0.1712  0.9509
 3273SOL    MW412860   1.230   3.110   6.133 -0.0762  0.3600  0.2183
 3274SOL     OW12861   2.402   0.928   5.547  0.3146 -0.4128  0.0842
 3274SOL    HW212862   2.338   0.969   5.489 -0.4734 -2.4130 -0.5491
 3274SOL    HW312863   2.486   0.945   5.505 -0.1471 -0.8875 -1.0681
 3274SOL    MW412864   2.405   0.936   5.534  0.1497 -0.7394 -0.1513
 3275SOL     OW12865   0.948   6.348   6.114  0.5206 -0.2186 -0.1243
 3275SOL    HW212866   1.041   6.333   6.093  0.2554 -1.6189 -0.3590
 3275SOL    HW312867   0.901   6.289   6.056 -0.6393  1.6261 -1.1681
 3275SOL    MW412868   0.954   6.339   6.104  0.3326 -0.1599 -0.2930
 3276SOL     OW12869   0.445   0.689   6.035 -0.5498 -0.3830 -0.8726
 3276SOL    HW212870   0.416   0.772   5.997 -0.6148  0.1275  0.2318
 3276SOL    HW312871   0.529   0.710   6.075 -0.9754 -0.6203  0.1732
 3276SOL    MW412872   0.452   0.703   6.035 -0.6146 -0.3470 -0.5889
 3277SOL     OW12873   4.405   3.918   2.057 -0.2433  0.0530 -0.2501
 3277SOL    HW212874   4.365   3.885   2.138  1.4274  0.7074  0.9158
 3277SOL    HW312875   4.495   3.941   2.083 -0.0479  1.4909 -1.9935
 3277SOL    MW412876   4.412   3.917   2.071  0.0030  0.3291 -0.3263
 3278SOL     OW12877   2.852   4.861   3.501  0.5035 -0.1048  0.6921
 3278SOL    HW212878   2.875   4.831   3.589  0.3386  0.4684  0.9276
 3278SOL    HW312879   2.887   4.950   3.495  1.1578 -0.3964 -0.0768
 3278SOL    MW412880   2.860   4.869   3.512  0.5680 -0.0677  0.6217
 3279SOL     OW12881   1.598   6.250   3.041  0.5017  0.5413  0.0182
 3279SOL    HW212882   1.605   6.230   3.134  0.3002 -0.0615 -0.0902
 3279SOL    HW312883   1.560   6.171   3.002 -1.5597  1.5917 -0.2491
 3279SOL    MW412884   1.594   6.237   3.048  0.2032  0.6004 -0.0314
 3280SOL     OW12885   1.011   1.780   4.160  0.2107  0.5505  0.4765
 3280SOL    HW212886   0.978   1.866   4.137  0.8399 -0.0133 -3.1925
 3280SOL    HW312887   0.935   1.722   4.151  0.0590  0.5195  1.7760
 3280SOL    MW412888   0.997   1.784   4.156  0.2737  0.4720  0.1639
 3281SOL     OW12889   1.658   4.018   1.593 -0.0312 -0.4152  0.5015
 3281SOL    HW212890   1.587   4.039   1.532  0.0410  0.9012  0.8477
 3281SOL    HW312891   1.641   3.927   1.618 -1.1570 -0.3656 -0.0115
 3281SOL    MW412892   1.646   4.009   1.589 -0.1702 -0.2350  0.4795
 3282SOL     OW12893   2.428   1.853   3.335  0.8428  0.4048  0.1295
 3282SOL    HW212894   2.475   1.769   3.332  0.9653  0.4834 -0.1735
 3282SOL    HW312895   2.451   1.896   3.253  0.4647  0.5675  0.1072
 3282SOL    MW412896   2.437   1.847   3.324  0.8091  0.4366  0.0866
 3283SOL     OW12897   4.709   2.593   5.673  0.6595  0.2668 -0.2030
 3283SOL    HW212898   4.696   2.542   5.594 -0.3215  0.6461 -0.2933
 3283SOL    HW312899   4.710   2.684   5.644  0.1550  0.4178  0.2276
 3283SOL    MW412900   4.708   2.598   5.659  0.4635  0.3368 -0.1581
 3284SOL     OW12901   4.945   1.529   5.270  0.3451 -0.7999  0.4593
 3284SOL    HW212902   5.002   1.568   5.336  1.3160 -0.5795 -0.4842
 3284SOL    HW312903   4.879   1.595   5.253  0.3185 -0.7030  0.9205
 3284SOL    MW412904   4.944   1.543   5.276  0.4697 -0.7580  0.3957
 3285SOL     OW12905   3.119   2.654   0.977 -0.1080 -0.0106 -0.0859
 3285SOL    HW212906   3.101   2.605   1.057 -0.1209  2.2173  1.3632
 3285SOL    HW312907   3.212   2.637   0.959 -0.7394 -2.7670 -1.3107
 3285SOL    MW412908   3.129   2.645   0.985 -0.1930 -0.0803 -0.0563
 3286SOL     OW12909   6.100   5.482   6.021  0.1050  0.1740  0.1118
 3286SOL    HW212910   6.167   5.527   5.970  1.6996 -1.7271  0.4260
 3286SOL    HW312911   6.144   5.459   6.103 -0.4051 -2.4421 -0.2621
 3286SOL    MW412912   6.115   5.485   6.025  0.2481 -0.4220  0.1039
 3287SOL     OW12913   1.446   6.006   2.913  0.9805  0.4651  0.0313
 3287SOL    HW212914   1.376   6.065   2.886 -0.4121 -1.6114 -1.2039
 3287SOL    HW312915   1.496   5.992   2.832  1.2007 -0.1328  0.2713
 3287SOL    MW412916   1.443   6.012   2.898  0.8258  0.1122 -0.1000
 3288SOL     OW12917   3.683   5.125   5.222 -0.0574 -0.5206 -0.0017
 3288SOL    HW212918   3.704   5.171   5.140 -1.4703 -3.5649 -2.2811
 3288SOL    HW312919   3.652   5.194   5.280  0.0734  1.7012 -2.3612
 3288SOL    MW412920   3.682   5.140   5.219 -0.2265 -0.6291 -0.6137
 3289SOL     OW12921   5.269   6.396   1.775  0.2086 -0.1569  0.2971
 3289SOL    HW212922   5.187   6.351   1.794  1.2711 -1.5756  1.8886
 3289SOL    HW312923   5.250   6.489   1.793 -2.0193  0.1848 -3.0416
 3289SOL    MW412924   5.256   6.403   1.780  0.0549 -0.2990  0.0666
 3290SOL     OW12925   0.842   0.673   5.308  0.4177  0.0248  0.0044
 3290SOL    HW212926   0.798   0.588   5.310 -3.8039  1.9085 -1.2043
 3290SOL    HW312927   0.809   0.719   5.386  1.5727  1.0711 -0.0842
 3290SOL    MW412928   0.832   0.668   5.319  0.0131  0.4114 -0.1668
 3291SOL     OW12929   6.007   2.746   6.005 -0.2769  0.1401  0.2664
 3291SOL    HW212930   5.997   2.702   5.920  2.3697  0.1280 -0.1267
 3291SOL    HW312931   5.941   2.816   6.003 -0.0426  0.3884 -2.0072
 3291SOL    MW412932   5.997   2.750   5.993  0.1032  0.1713 -0.0855
 3292SOL     OW12933   2.948   2.421   4.468  1.0534  0.7035  0.4619
 3292SOL    HW212934   2.978   2.345   4.418  0.1843  0.7566 -0.1583
 3292SOL    HW312935   2.912   2.385   4.549  2.0612  0.5831  0.8712
 3292SOL    MW412936   2.948   2.406   4.472  1.0717  0.6946  0.4341
 3293SOL     OW12937   0.893   6.153   5.910 -0.4965  0.0544 -0.3418
 3293SOL    HW212938   0.840   6.075   5.894  0.9380 -1.2914  1.0793
 3293SOL    HW312939   0.888   6.202   5.828 -0.8939 -1.8719 -1.5462
 3293SOL    MW412940   0.885   6.149   5.897 -0.3597 -0.3773 -0.3132
 3294SOL     OW12941   1.306   1.530   3.499 -0.0768 -0.1833 -0.1772
 3294SOL    HW212942   1.363   1.461   3.466  1.1998  1.3883 -1.4710
 3294SOL    HW312943   1.265   1.567   3.421 -1.6259 -0.2129  0.5963
 3294SOL    MW412944   1.308   1.526   3.485 -0.1128  0.0202 -0.2459
 3295SOL     OW12945   2.471   5.538   5.162  0.0606 -0.5342  0.2542
 3295SOL    HW212946   2.451   5.630   5.177 -3.1006 -0.5937 -2.2301
 3295SOL    HW312947   2.520   5.537   5.079 -1.2075 -1.0576 -0.5347
 3295SOL    MW412948   2.474   5.550   5.153 -0.5238 -0.6111 -0.1777
 3296SOL     OW12949   6.294   2.735   6.006 -0.3348  0.2240 -0.3871
 3296SOL    HW212950   6.201   2.728   5.985 -0.3337 -0.2426 -0.2416
 3296SOL    HW312951   6.299   2.805   6.071 -0.8092 -0.9805  0.9871
 3296SOL    MW412952   6.282   2.744   6.012 -0.3973  0.0035 -0.1866
 3297SOL     OW12953   5.867   2.025   2.264 -0.6694  0.4952  0.1096
 3297SOL    HW212954   5.863   2.019   2.359  0.6036 -1.1953  0.0992
 3297SOL    HW312955   5.842   1.938   2.233  2.6281 -0.2345 -0.9087
 3297SOL    MW412956   5.863   2.012   2.272 -0.0664  0.1759 -0.0262
 3298SOL     OW12957   1.137   1.626   5.248  0.1629 -0.0315 -0.4355
 3298SOL    HW212958   1.110   1.556   5.308 -0.8803  1.3388  0.7984
 3298SOL    HW312959   1.067   1.630   5.183  0.9717 -1.0914 -1.3982
 3298SOL    MW412960   1.124   1.617   5.247  0.1320  0.0094 -0.3997
 3299SOL     OW12961   0.311   1.013   4.076 -0.0646  0.1773 -0.4203
 3299SOL    HW212962   0.356   0.931   4.094  0.3671  0.2503 -1.1512
 3299SOL    HW312963   0.226   0.987   4.040  0.4850  0.0481 -1.6494
 3299SOL    MW412964   0.306   0.999   4.074  0.0649  0.1699 -0.6789
 3300SOL     OW12965   0.409   2.749   0.661 -0.2690 -0.4787  0.1220
 3300SOL    HW212966   0.504   2.751   0.675 -0.0105 -0.7684 -1.4629
 3300SOL    HW312967   0.388   2.656   0.654 -0.7282 -0.4272  0.7092
 3300SOL    MW412968   0.419   2.737   0.662 -0.2955 -0.5101 -0.0097
 3301SOL     OW12969   2.914   6.403   6.233 -0.0270  0.1194 -1.1176
 3301SOL    HW212970   2.989   6.353   6.200  1.2860  0.9166  0.4868
 3301SOL    HW312971   2.932   6.493   6.205 -0.0959  0.4048 -0.2578
 3301SOL    MW412972   2.926   6.409   6.225  0.1372  0.2622 -0.7925
 3302SOL     OW12973   2.708   2.990   5.352  0.0160 -0.3485 -0.6457
 3302SOL    HW212974   2.636   3.008   5.292 -1.2018  0.0847  0.8798
 3302SOL    HW312975   2.769   2.936   5.301 -1.1299 -0.3049 -2.1337
 3302SOL    MW412976   2.706   2.985   5.337 -0.2958 -0.2856 -0.6408
 3303SOL     OW12977   2.277   4.030   4.077  0.5459  0.3213 -0.1201
 3303SOL    HW212978   2.339   4.102   4.080  0.9147  0.0091 -0.1544
 3303SOL    HW312979   2.326   3.958   4.037 -0.0407  0.2704 -0.7766
 3303SOL    MW412980   2.292   4.030   4.072  0.5172  0.2734 -0.2112
 3304SOL     OW12981   0.034   3.293   5.921 -0.3268 -0.4657  0.1591
 3304SOL    HW212982   0.063   3.346   5.847  0.5143 -0.9195  0.1527
 3304SOL    HW312983  -0.060   3.309   5.927 -0.5598 -0.9985 -1.4871
 3304SOL    MW412984   0.025   3.302   5.912 -0.2466 -0.5959 -0.0590
 3305SOL     OW12985   6.031   0.734   5.456 -0.0647  0.3976  0.2709
 3305SOL    HW212986   6.071   0.733   5.369  0.1410  1.0105  0.3567
 3305SOL    HW312987   5.943   0.768   5.442 -0.8047 -1.4764 -0.0045
 3305SOL    MW412988   6.025   0.738   5.443 -0.1352  0.2312  0.2459
 3306SOL     OW12989   4.188   1.761   1.704 -0.0472  0.0695 -0.8609
 3306SOL    HW212990   4.275   1.777   1.667  0.3972 -1.8012 -0.7554
 3306SOL    HW312991   4.147   1.847   1.708  2.5975  1.3712  1.1644
 3306SOL    MW412992   4.194   1.774   1.699  0.3604 -0.0056 -0.5798
 3307SOL     OW12993   4.851   0.945   0.127  0.6178  0.2064 -0.5138
 3307SOL    HW212994   4.759   0.966   0.143  0.3349 -0.5412 -1.1445
 3307SOL    HW312995   4.888   0.934   0.215 -0.0500 -0.1526 -0.2697
 3307SOL    MW412996   4.844   0.947   0.141  0.4924  0.0604 -0.5648
 3308SOL     OW12997   2.877   4.990   2.588 -0.0316 -0.0457  0.2727
 3308SOL    HW212998   2.933   4.980   2.665  0.7384 -0.4294 -0.3303
 3308SOL    HW312999   2.936   4.982   2.513 -0.7936  0.1707 -0.3661
 3308SOL    MW413000   2.892   4.988   2.588 -0.0306 -0.0678  0.1089
 3309SOL     OW13001   0.361   5.546   0.380  0.1716  0.6161  0.3368
 3309SOL    HW213002   0.280   5.555   0.429  0.1004 -1.3360  0.6257
 3309SOL    HW313003   0.352   5.464   0.332  1.6755  0.7364 -0.2078
 3309SOL    MW413004   0.349   5.537   0.380  0.3606  0.3744  0.3031
 3310SOL     OW13005   4.118   1.435   5.390  0.1778 -0.4300  0.2406
 3310SOL    HW213006   4.030   1.425   5.352 -0.3487  0.5024  1.1597
 3310SOL    HW313007   4.104   1.487   5.469  1.6409  0.1307  0.1539
 3310SOL    MW413008   4.104   1.440   5.396  0.3014 -0.2330  0.3504
 3311SOL     OW13009   3.807   1.948   1.647  0.3525 -0.3916 -0.2325
 3311SOL    HW213010   3.712   1.960   1.640  0.5156  0.3902 -1.5636
 3311SOL    HW313011   3.828   1.976   1.736 -0.3794  1.8294 -0.6885
 3311SOL    MW413012   3.797   1.954   1.658  0.2774  0.0046 -0.4683
 3312SOL     OW13013   2.888   3.039   1.884 -0.2426 -0.0903 -0.3402
 3312SOL    HW213014   2.888   2.947   1.855 -0.1072  0.3555 -1.8290
 3312SOL    HW313015   2.849   3.087   1.812 -0.1489  1.0593  0.3549
 3312SOL    MW413016   2.883   3.033   1.871 -0.2124  0.1202 -0.4449
 3313SOL     OW13017   3.342   1.324   4.963 -0.5132  0.2975  0.5083
 3313SOL    HW213018   3.383   1.389   4.906 -0.7321 -0.0678 -0.0752
 3313SOL    HW313019   3.270   1.371   5.006  0.0688  0.7523  1.0015
 3313SOL    MW413020   3.338   1.338   4.961 -0.4653  0.3093  0.4964
 3314SOL     OW13021   3.067   0.837   1.642 -0.6678  0.0645 -0.1279
 3314SOL    HW213022   3.024   0.872   1.720  2.2905  1.4205  1.0399
 3314SOL    HW313023   3.041   0.897   1.572 -0.9024  0.7023  0.4843
 3314SOL    MW413024   3.058   0.850   1.643 -0.3085  0.3275  0.1069
 3315SOL     OW13025   5.902   4.638   3.922 -0.4958  0.6504 -0.0614
 3315SOL    HW213026   5.995   4.661   3.918  0.3463 -1.9166  1.9980
 3315SOL    HW313027   5.880   4.611   3.833  1.6098 -1.5272 -0.0145
 3315SOL    MW413028   5.911   4.638   3.910 -0.1069  0.0244  0.2165
 3316SOL     OW13029   1.833   4.083   4.028 -0.5487  0.0218  0.8211
 3316SOL    HW213030   1.899   4.089   3.958 -2.1597 -1.8475 -1.0033
 3316SOL    HW313031   1.780   4.161   4.018 -1.3309 -0.6639 -0.7406
 3316SOL    MW413032   1.835   4.094   4.017 -0.8645 -0.3153  0.3743
 3317SOL     OW13033   6.278   0.432   5.722  0.1658 -0.3049 -0.0941
 3317SOL    HW213034   6.253   0.359   5.779  1.7960  0.2883  1.4659
 3317SOL    HW313035   6.242   0.510   5.765  1.7081  0.1885  0.3564
 3317SOL    MW413036   6.270   0.433   5.735  0.5844 -0.1615  0.1711
 3318SOL     OW13037   0.012   2.300   2.792 -0.2984  0.2007 -0.2963
 3318SOL    HW213038  -0.030   2.259   2.867  0.0861  1.0441  0.3907
 3318SOL    HW313039  -0.039   2.379   2.775 -0.5004 -0.0850 -1.0523
 3318SOL    MW413040  -0.000   2.305   2.799 -0.2743  0.2743 -0.3054
 3319SOL     OW13041   2.110   1.708   4.213 -0.0931 -0.4542 -0.5107
 3319SOL    HW213042   2.081   1.627   4.254  0.4985 -0.4725 -0.1157
 3319SOL    HW313043   2.095   1.695   4.120 -0.7329 -0.7112 -0.3748
 3319SOL    MW413044   2.104   1.696   4.206 -0.0995 -0.4905 -0.4407
 3320SOL     OW13045   6.408   0.897   4.568  0.5456 -0.3895 -0.1793
 3320SOL    HW213046   6.430   0.954   4.642  0.7586  0.4466 -0.8685
 3320SOL    HW313047   6.320   0.865   4.587  0.5225 -0.0321  0.3428
 3320SOL    MW413048   6.400   0.900   4.580  0.5707 -0.2320 -0.2014
 3321SOL     OW13049   3.566   0.213   3.141  0.6542 -0.3690 -0.3427
 3321SOL    HW213050   3.534   0.146   3.080 -2.2887  0.3243  0.2867
 3321SOL    HW313051   3.614   0.275   3.085 -2.5956  0.6774 -2.2577
 3321SOL    MW413052   3.568   0.212   3.125 -0.1629 -0.1395 -0.5123
 3322SOL     OW13053   5.553   4.674   0.193 -0.5942 -0.5149 -0.4345
 3322SOL    HW213054   5.612   4.648   0.122 -0.2043 -3.3204  0.7656
 3322SOL    HW313055   5.602   4.739   0.243  0.3679 -0.7608 -1.0351
 3322SOL    MW413056   5.567   4.679   0.190 -0.4158 -0.9175 -0.3554
 3323SOL     OW13057   3.172   2.956   6.293  0.5182  0.3802 -0.2202
 3323SOL    HW213058   3.107   2.983   6.228  0.9845  0.3325 -0.7115
 3323SOL    HW313059   3.234   3.029   6.297 -1.1034  1.8051  2.4127
 3323SOL    MW413060   3.171   2.969   6.285  0.3657  0.5619  0.0624
 3324SOL     OW13061   2.944   6.351   0.573 -0.2765 -0.0598  0.3691
 3324SOL    HW213062   2.972   6.324   0.661 -0.3141 -1.9509 -0.1535
 3324SOL    HW313063   3.010   6.416   0.546 -0.5974  0.9963  1.9901
 3324SOL    MW413064   2.956   6.356   0.581 -0.3238 -0.1699  0.5140
 3325SOL     OW13065   4.793   2.596   0.329 -0.3646  0.5377 -0.3905
 3325SOL    HW213066   4.732   2.531   0.364 -0.0434 -0.0019 -0.8054
 3325SOL    HW313067   4.758   2.680   0.357 -0.5922  0.1667  0.4624
 3325SOL    MW413068   4.780   2.598   0.337 -0.3523  0.4175 -0.3327
 3326SOL     OW13069   4.555   0.697   2.396  0.4669  0.0923  0.4683
 3326SOL    HW213070   4.529   0.749   2.320  1.7637 -0.1416 -0.1708
 3326SOL    HW313071   4.554   0.606   2.364 -0.5126 -0.1709  1.1992
 3326SOL    MW413072   4.552   0.692   2.382  0.5087  0.0267  0.4804
 3327SOL     OW13073   5.983   3.301   6.394  0.5679  0.6165  0.0770
 3327SOL    HW213074   5.935   3.218   6.403  1.4484  0.1861  0.9610
 3327SOL    HW313075   5.986   3.316   6.300 -1.7104  0.9099 -0.0192
 3327SOL    MW413076   5.977   3.292   6.383  0.3835  0.5984  0.1809
 3328SOL     OW13077   6.399   3.700   2.213 -0.4597 -0.2708 -0.1500
 3328SOL    HW213078   6.474   3.696   2.153 -0.8688  0.2136 -0.6913
 3328SOL    HW313079   6.358   3.614   2.205 -0.2763 -0.3508 -0.2509
 3328SOL    MW413080   6.404   3.688   2.204 -0.4895 -0.2175 -0.2348
 3329SOL     OW13081   0.708   5.139   0.878  0.2965  0.5354  0.1011
 3329SOL    HW213082   0.749   5.092   0.805 -0.4921  2.6918 -1.8613
 3329SOL    HW313083   0.614   5.124   0.867  0.2259 -0.1048  1.4294
 3329SOL    MW413084   0.701   5.131   0.867  0.1832  0.7354  0.0174
 3330SOL     OW13085   1.692   2.517   1.904 -0.1539  0.3136  0.1197
 3330SOL    HW213086   1.744   2.451   1.950  1.0275  1.2271  0.1329
 3330SOL    HW313087   1.704   2.597   1.955  1.4541  1.4527 -1.9013
 3330SOL    MW413088   1.700   2.519   1.917  0.2141  0.5844 -0.1452
 3331SOL     OW13089   6.374   2.523   3.521 -0.2450  0.0654 -0.5019
 3331SOL    HW213090   6.364   2.438   3.478 -2.1982  0.8403 -1.7687
 3331SOL    HW313091   6.319   2.517   3.599  0.3361 -0.1239 -0.1053
 3331SOL    MW413092   6.365   2.511   3.525 -0.4260  0.1427 -0.6167
 3332SOL     OW13093   6.211   5.769   2.476 -0.7374  0.0109 -0.0257
 3332SOL    HW213094   6.129   5.796   2.517 -0.6103 -0.0941  0.2958
 3332SOL    HW313095   6.274   5.836   2.502 -1.0879  1.0138 -1.6247
 3332SOL    MW413096   6.208   5.781   2.485 -0.7668  0.1294 -0.1942
 3333SOL     OW13097   2.957   0.197   3.489  0.4087 -0.8116 -0.4420
 3333SOL    HW213098   2.943   0.238   3.404  0.1522  0.3313  0.1396
 3333SOL    HW313099   3.052   0.194   3.499  0.5424  3.3601  1.1935
 3333SOL    MW413100   2.968   0.202   3.479  0.3925 -0.1104 -0.1495
 3334SOL     OW13101   5.830   0.542   0.924  0.5382 -0.0647 -0.0834
 3334SOL    HW213102   5.861   0.618   0.874 -0.7237  0.1351 -0.5960
 3334SOL    HW313103   5.737   0.538   0.905  0.1114 -0.2809  1.8835
 3334SOL    MW413104   5.822   0.552   0.915  0.3154 -0.0669  0.1085
 3335SOL     OW13105   3.366   3.713   1.505  0.5587  1.2512  0.0659
 3335SOL    HW213106   3.342   3.643   1.566 -0.7627 -0.1645 -1.9593
 3335SOL    HW313107   3.282   3.750   1.478  1.0674  1.3593 -1.4258
 3335SOL    MW413108   3.351   3.709   1.510  0.4514  1.0787 -0.3981
 3336SOL     OW13109   3.954   2.549   1.491 -0.0243 -0.7799 -0.0887
 3336SOL    HW213110   3.883   2.512   1.544 -0.9249 -0.7193 -1.2201
 3336SOL    HW313111   3.972   2.482   1.425  0.1801 -0.3196 -0.5078
 3336SOL    MW413112   3.947   2.535   1.489 -0.1162 -0.7112 -0.2932
 3337SOL     OW13113   3.071   3.309   0.989  0.5154 -0.3444  0.4263
 3337SOL    HW213114   3.150   3.280   1.034 -0.0146 -1.9482  0.3858
 3337SOL    HW313115   3.098   3.321   0.898  0.7148 -0.9151  0.4073
 3337SOL    MW413116   3.085   3.307   0.983  0.4718 -0.6313  0.4185
 3338SOL     OW13117   0.362   0.533   2.826  0.1894  0.6346  0.0712
 3338SOL    HW213118   0.437   0.477   2.846  0.1847  0.9429  1.0252
 3338SOL    HW313119   0.298   0.474   2.787  0.3744  0.0703  0.6092
 3338SOL    MW413120   0.364   0.518   2.824  0.2132  0.6008  0.2680
 3339SOL     OW13121   0.657   6.030   6.227 -0.3314  0.7994 -0.3844
 3339SOL    HW213122   0.574   5.981   6.222 -0.1566  0.3588  0.7807
 3339SOL    HW313123   0.635   6.116   6.192 -0.7886  0.1008 -1.9458
 3339SOL    MW413124   0.643   6.035   6.222 -0.3686  0.6491 -0.4367
 3340SOL     OW13125   4.271   1.479   6.082  0.1764 -0.3108  0.2546
 3340SOL    HW213126   4.357   1.474   6.123 -0.5640 -3.1550  1.7351
 3340SOL    HW313127   4.214   1.428   6.140 -2.1249  0.0332 -1.5612
 3340SOL    MW413128   4.275   1.471   6.095 -0.2249 -0.6407  0.2104
 3341SOL     OW13129   3.861   4.301   1.809 -1.0706  0.2118  0.1348
 3341SOL    HW213130   3.925   4.344   1.752 -1.5527 -1.1291 -1.5271
 3341SOL    HW313131   3.790   4.365   1.817  0.0280  1.3398  1.2216
 3341SOL    MW413132   3.860   4.315   1.802 -0.9893  0.1837  0.0590
 3342SOL     OW13133   0.023   5.849   0.144 -0.0330 -0.2587  0.0249
 3342SOL    HW213134   0.085   5.912   0.180 -0.3606  0.0539  0.0421
 3342SOL    HW313135   0.072   5.766   0.142  0.7176  0.1832 -0.8774
 3342SOL    MW413136   0.038   5.846   0.148  0.0228 -0.1591 -0.0919
 3343SOL     OW13137   2.669   1.451   1.102 -0.0740  0.3759 -0.5883
 3343SOL    HW213138   2.627   1.371   1.132 -0.7595  0.6880 -0.7007
 3343SOL    HW313139   2.665   1.446   1.007  1.4019 -0.2452 -0.6432
 3343SOL    MW413140   2.663   1.440   1.093  0.0303  0.3351 -0.6104
 3344SOL     OW13141   0.058   0.661   3.870  0.4564  0.4867 -0.0842
 3344SOL    HW213142   0.067   0.598   3.942  0.5022  0.8466  0.2287
 3344SOL    HW313143   0.008   0.614   3.804  0.2618  0.2079  0.2551
 3344SOL    MW413144   0.052   0.647   3.871  0.4368  0.4974  0.0019
 3345SOL     OW13145   2.241   1.552   4.746 -0.5706  0.5146 -0.2407
 3345SOL    HW213146   2.276   1.631   4.705  1.2930  0.5701  1.3376
 3345SOL    HW313147   2.147   1.568   4.752 -0.2958  2.4292 -0.3401
 3345SOL    MW413148   2.233   1.564   4.741 -0.2885  0.7745 -0.0455
 3346SOL     OW13149   1.479   4.470   3.406  0.2331  0.1663 -0.8023
 3346SOL    HW213150   1.482   4.565   3.410  0.3221  0.2205 -1.8515
 3346SOL    HW313151   1.557   4.445   3.355  0.0407 -0.4441 -0.8116
 3346SOL    MW413152   1.490   4.479   3.400  0.2195  0.0929 -0.9419
 3347SOL     OW13153   5.914   5.258   4.953 -0.3161 -0.0503 -0.3048
 3347SOL    HW213154   5.894   5.331   4.895 -0.4129 -1.4819 -2.1974
 3347SOL    HW313155   5.839   5.252   5.011  0.3375  2.1962  0.8904
 3347SOL    MW413156   5.902   5.267   4.953 -0.2427  0.0572 -0.3968
 3348SOL     OW13157   0.870   4.111   2.154 -0.3102 -0.8737  0.1902
 3348SOL    HW213158   0.824   4.027   2.157  1.6947 -2.0146  1.8694
 3348SOL    HW313159   0.949   4.093   2.104 -0.3261  0.3106 -0.2902
 3348SOL    MW413160   0.874   4.098   2.148 -0.0478 -0.8680  0.3484
 3349SOL     OW13161   1.428   2.530   1.523  0.1834  0.7165  0.7531
 3349SOL    HW213162   1.460   2.602   1.577  1.4038  0.2939  0.6337
 3349SOL    HW313163   1.343   2.507   1.560 -0.3030  2.3217  0.6819
 3349SOL    MW413164   1.421   2.536   1.535  0.2802  0.8725  0.7280
 3350SOL     OW13165   5.464   6.269   4.983 -0.0440  0.1751 -0.6280
 3350SOL    HW213166   5.404   6.235   5.049  0.7333  0.8182  0.4425
 3350SOL    HW313167   5.503   6.191   4.944 -0.4058 -0.2131 -0.2257
 3350SOL    MW413168   5.462   6.254   4.987  0.0108  0.2087 -0.4337
 3351SOL     OW13169   3.892   2.975   5.202  0.2496  0.4653 -0.1625
 3351SOL    HW213170   3.921   2.887   5.177  0.5916  0.4348  0.3335
 3351SOL    HW313171   3.806   2.962   5.240  0.8232  0.1725  1.0802
 3351SOL    MW413172   3.885   2.962   5.204  0.3704  0.4226  0.0669
 3352SOL     OW13173   0.442   0.663   5.293 -0.4070  0.2813 -0.4734
 3352SOL    HW213174   0.519   0.607   5.302 -0.2448  0.7390  1.3851
 3352SOL    HW313175   0.440   0.687   5.200 -0.2342 -2.3955 -1.2682
 3352SOL    MW413176   0.452   0.659   5.282 -0.3628 -0.0115 -0.3330
 3353SOL     OW13177   0.485   4.224   1.042  0.3192 -0.1186 -0.6637
 3353SOL    HW213178   0.462   4.261   1.127  1.0750  0.8449 -0.8664
 3353SOL    HW313179   0.402   4.192   1.006 -0.3430  1.2935 -0.4361
 3353SOL    MW413180   0.471   4.225   1.048  0.3316  0.1948 -0.6604
 3354SOL     OW13181   5.009   4.100   0.379 -0.4971  0.4544  0.4208
 3354SOL    HW213182   5.069   4.070   0.447 -1.2863  1.0100  1.3780
 3354SOL    HW313183   5.062   4.162   0.327  1.0008 -2.0733 -1.3087
 3354SOL    MW413184   5.024   4.104   0.381 -0.4036  0.1942  0.3189
 3355SOL     OW13185   5.960   5.031   0.576  0.0655 -0.1973 -0.3614
 3355SOL    HW213186   5.920   5.058   0.658 -0.5628 -0.2703 -0.6389
 3355SOL    HW313187   5.982   5.112   0.531 -1.3472 -0.1247 -0.9658
 3355SOL    MW413188   5.958   5.045   0.581 -0.2038 -0.1973 -0.4778
 3356SOL     OW13189   3.173   3.467   3.761 -0.2329 -0.1342  0.0306
 3356SOL    HW213190   3.191   3.503   3.674  1.0898  2.0073  1.1038
 3356SOL    HW313191   3.077   3.464   3.766 -0.3523  0.8942 -1.0714
 3356SOL    MW413192   3.162   3.471   3.750 -0.0741  0.2840  0.0268
 3357SOL     OW13193   2.844   1.394   0.699  0.2186 -1.0222 -0.2918
 3357SOL    HW213194   2.800   1.475   0.726  0.6626 -1.5975  2.5194
 3357SOL    HW313195   2.878   1.413   0.612 -0.4328  1.5220 -0.0763
 3357SOL    MW413196   2.843   1.407   0.691  0.1913 -0.7624  0.1075
 3358SOL     OW13197   5.971   6.131   2.899  0.1176  0.0411 -0.8715
 3358SOL    HW213198   5.957   6.174   2.983  0.4898  0.5032 -1.0447
 3358SOL    HW313199   5.919   6.182   2.837 -2.8809 -2.1923 -0.4388
 3358SOL    MW413200   5.962   6.143   2.902 -0.2289 -0.1926 -0.8373
 3359SOL     OW13201   3.314   4.685   2.576 -0.3739  0.3271 -0.3540
 3359SOL    HW213202   3.334   4.739   2.652  0.0943  1.6108 -1.3613
 3359SOL    HW313203   3.293   4.747   2.506  1.0237 -0.7130 -1.7854
 3359SOL    MW413204   3.314   4.700   2.577 -0.1277  0.3592 -0.6757
 3360SOL     OW13205   5.624   2.775   6.176 -0.1120  0.4345  0.2754
 3360SOL    HW213206   5.544   2.769   6.124  0.3430 -0.2921 -0.3757
 3360SOL    HW313207   5.677   2.701   6.146  0.8852  1.0168  0.5557
 3360SOL    MW413208   5.620   2.764   6.165  0.0796  0.4155  0.2265
 3361SOL     OW13209   5.203   5.053   5.852  0.0534  0.1063  0.4300
 3361SOL    HW213210   5.280   5.060   5.910  0.8272  2.2016 -0.7470
 3361SOL    HW313211   5.209   4.965   5.814  1.4171 -0.0504  0.9578
 3361SOL    MW413212   5.214   5.042   5.855  0.3354  0.3621  0.3444
 3362SOL     OW13213   1.557   5.945   1.853  0.3371  0.5230  0.0224
 3362SOL    HW213214   1.586   5.906   1.770 -2.0164 -0.0663 -0.5879
 3362SOL    HW313215   1.637   5.980   1.892  1.5517  0.6011 -2.3718
 3362SOL    MW413216   1.571   5.945   1.847  0.1868  0.4556 -0.3740
 3363SOL     OW13217   1.406   0.824   4.639  0.7582 -0.3496  0.0738
 3363SOL    HW213218   1.324   0.779   4.657  0.6998 -1.2400 -2.0762
 3363SOL    HW313219   1.388   0.875   4.560  1.9403  0.3708  0.2530
 3363SOL    MW413220   1.393   0.824   4.631  0.9065 -0.3720 -0.1862
 3364SOL     OW13221   3.321   4.416   3.220 -0.6389 -0.3619  0.1407
 3364SOL    HW213222   3.343   4.491   3.165  0.8732 -0.7199  0.2031
 3364SOL    HW313223   3.349   4.441   3.308  1.3125 -1.5041 -0.0836
 3364SOL    MW413224   3.328   4.429   3.224 -0.1819 -0.5598  0.1193
 3365SOL     OW13225   5.843   2.950   6.143 -0.3551 -0.0746  0.3183
 3365SOL    HW213226   5.824   3.035   6.181 -0.8028  1.5740 -3.1613
 3365SOL    HW313227   5.761   2.902   6.147 -0.8131  0.6718  0.0262
 3365SOL    MW413228   5.830   2.954   6.148 -0.4746  0.2414 -0.1794
 3366SOL     OW13229   2.695   6.269   6.087  0.2309  0.6881 -0.2042
 3366SOL    HW213230   2.746   6.334   6.135 -0.2898  0.2563  0.9954
 3366SOL    HW313231   2.661   6.210   6.155 -2.8871  1.6634 -0.7476
 3366SOL    MW413232   2.697   6.270   6.102 -0.2492  0.7598 -0.1177
 3367SOL     OW13233   4.364   0.424   3.737  0.0754 -0.0799  0.0032
 3367SOL    HW213234   4.364   0.408   3.831  0.2149 -0.0097  0.0158
 3367SOL    HW313235   4.352   0.337   3.698  0.1435 -0.1267  0.0843
 3367SOL    MW413236   4.363   0.410   3.744  0.1028 -0.0768  0.0155
 3368SOL     OW13237   0.244   0.273   1.024 -0.5162 -0.0246 -0.1813
 3368SOL    HW213238   0.206   0.267   0.937 -0.1640  0.6784 -0.3895
 3368SOL    HW313239   0.191   0.340   1.068  0.4601  0.9612 -0.4743
 3368SOL    MW413240   0.232   0.281   1.019 -0.3409  0.1982 -0.2475
 3369SOL     OW13241   1.301   2.561   0.422 -0.2055 -0.5072  0.6501
 3369SOL    HW213242   1.271   2.549   0.332 -0.0456  1.8695  0.2306
 3369SOL    HW313243   1.227   2.534   0.475 -0.2644 -2.0553 -0.1380
 3369SOL    MW413244   1.287   2.556   0.417 -0.1921 -0.3979  0.4908
 3370SOL     OW13245   3.118   6.138   3.954  0.5684  0.4353  0.2053
 3370SOL    HW213246   3.176   6.153   3.880  1.3744  0.0960  0.7599
 3370SOL    HW313247   3.172   6.093   4.019 -0.6711 -1.1812  0.1962
 3370SOL    MW413248   3.133   6.134   3.953  0.5112  0.1772  0.2773
 3371SOL     OW13249   1.009   3.370   6.299  0.1189 -0.2431 -0.0152
 3371SOL    HW213250   0.924   3.384   6.341  1.0826  3.5339  1.1189
 3371SOL    HW313251   0.989   3.326   6.216 -2.6379 -1.4284  1.1806
 3371SOL    MW413252   0.995   3.366   6.293 -0.1176  0.0989  0.2922
 3372SOL     OW13253   1.731   4.865   4.658  0.1451 -0.3384  0.3634
 3372SOL    HW213254   1.733   4.870   4.753  0.6450 -1.6818  0.4344
 3372SOL    HW313255   1.639   4.845   4.637 -0.2166  1.0622  0.4691
 3372SOL    MW413256   1.719   4.863   4.668  0.1633 -0.3308  0.3867
 3373SOL     OW13257   3.961   1.757   1.515  0.4483  0.5250 -0.7047
 3373SOL    HW213258   4.038   1.747   1.571  0.6272  0.5869 -0.9395
 3373SOL    HW313259   3.899   1.805   1.570  0.9589  1.3934 -0.8666
 3373SOL    MW413260   3.963   1.762   1.530  0.5393  0.6478 -0.7571
 3374SOL     OW13261   5.362   6.348   0.625  0.4500  0.6811  0.3129
 3374SOL    HW213262   5.328   6.425   0.580 -1.3742 -0.6843 -0.7709
 3374SOL    HW313263   5.286   6.312   0.672  0.9568 -1.0904 -0.1573
 3374SOL    MW413264   5.347   6.353   0.626  0.2762  0.2673  0.1079
 3375SOL     OW13265   2.865   1.805   3.048 -0.5918  0.4148 -0.1243
 3375SOL    HW213266   2.879   1.869   3.118  0.4632 -0.8873  0.9337
 3375SOL    HW313267   2.942   1.748   3.054 -0.7817 -0.0710 -1.9955
 3375SOL    MW413268   2.877   1.806   3.058 -0.4777  0.1789 -0.2316
 3376SOL     OW13269   5.782   0.162   4.666 -0.2146  0.0152  0.6815
 3376SOL    HW213270   5.783   0.084   4.721  1.8998 -0.0645  0.6169
 3376SOL    HW313271   5.875   0.180   4.648 -0.4742  3.4375  1.9904
 3376SOL    MW413272   5.794   0.154   4.671  0.0301  0.4562  0.8457
 3377SOL     OW13273   3.085   2.180   2.493  0.2948  0.0369  0.2530
 3377SOL    HW213274   3.096   2.138   2.407  2.4709  0.7884  0.1062
 3377SOL    HW313275   3.141   2.129   2.552  0.7302  1.0036  0.6839
 3377SOL    MW413276   3.094   2.167   2.489  0.6393  0.2636  0.2905
 3378SOL     OW13277   2.509   5.586   3.988 -0.4246  0.1065 -0.0245
 3378SOL    HW213278   2.578   5.642   3.953  0.4951 -0.8102  0.2983
 3378SOL    HW313279   2.554   5.509   4.021 -1.5458 -0.2516  0.7365
 3378SOL    MW413280   2.524   5.583   3.987 -0.4512 -0.0617  0.1185
 3379SOL     OW13281   2.237   0.180   3.128 -0.6924 -0.7049 -0.0673
 3379SOL    HW213282   2.194   0.100   3.098  1.0214 -0.9949 -1.9987
 3379SOL    HW313283   2.329   0.168   3.105  0.1104  0.7476  2.0080
 3379SOL    MW413284   2.244   0.168   3.121 -0.3604 -0.5515 -0.0483
 3380SOL     OW13285   0.766   5.285   2.654 -0.1766 -0.1045  0.4564
 3380SOL    HW213286   0.701   5.259   2.589 -0.2517 -1.3473  0.9971
 3380SOL    HW313287   0.821   5.349   2.609 -1.2796  0.3833 -0.2553
 3380SOL    MW413288   0.765   5.290   2.639 -0.3320 -0.2041  0.4338
 3381SOL     OW13289   1.599   3.354   0.800 -0.3085  0.1193  0.2719
 3381SOL    HW213290   1.555   3.420   0.853  0.1828  0.8257 -0.1915
 3381SOL    HW313291   1.651   3.404   0.737 -1.1376 -0.6849 -1.1023
 3381SOL    MW413292   1.600   3.369   0.799 -0.3530  0.1064  0.0294
 3382SOL     OW13293   0.116   2.421   4.284 -0.1806 -0.6028 -0.2069
 3382SOL    HW213294   0.197   2.371   4.299 -1.6715 -2.9517  0.6069
 3382SOL    HW313295   0.055   2.388   4.351 -2.2127  0.0986 -1.6230
 3382SOL    MW413296   0.119   2.410   4.295 -0.6454 -0.8201 -0.2864
 3383SOL     OW13297   3.938   0.632   6.083  0.1006 -0.0971  0.1438
 3383SOL    HW213298   3.964   0.582   6.006 -0.5189  0.6401 -0.5510
 3383SOL    HW313299   3.844   0.645   6.074 -0.1277 -0.6415  1.4112
 3383SOL    MW413300   3.929   0.627   6.072 -0.0113 -0.0717  0.2194
 3384SOL     OW13301   3.486   5.948   0.367  0.2031 -0.3908  0.3092
 3384SOL    HW213302   3.479   6.040   0.344 -0.0074 -0.2136  1.0356
 3384SOL    HW313303   3.521   5.905   0.289 -2.1291 -0.1307 -0.9797
 3384SOL    MW413304   3.490   5.954   0.354 -0.1324 -0.3331  0.2350
 3385SOL     OW13305   4.586   5.954   1.871 -0.6538  0.5524  0.4510
 3385SOL    HW213306   4.564   6.045   1.854  1.6832  0.8993 -1.2627
 3385SOL    HW313307   4.626   5.954   1.958  1.3098  1.6135 -0.3936
 3385SOL    MW413308   4.589   5.966   1.880 -0.0864  0.7382  0.1134
 3386SOL     OW13309   3.671   5.812   0.207 -0.0807  0.0503 -0.3376
 3386SOL    HW213310   3.646   5.800   0.116  0.8112 -1.4975 -0.4136
 3386SOL    HW313311   3.732   5.886   0.206 -0.9165  0.7473 -0.8212
 3386SOL    MW413312   3.676   5.820   0.195 -0.0733 -0.0620 -0.4114
 3387SOL     OW13313   0.945   6.215   3.613  0.1678 -0.2534 -0.2828
 3387SOL    HW213314   0.870   6.257   3.571  0.2667  1.3156  1.0442
 3387SOL    HW313315   0.985   6.164   3.543  0.4074  2.3677 -2.1958
 3387SOL    MW413316   0.940   6.213   3.598  0.2125  0.2995 -0.3601
 3388SOL     OW13317   4.441   0.568   4.715  0.1525  0.4147  0.1939
 3388SOL    HW213318   4.530   0.538   4.728  0.6728  1.8641  0.2105
 3388SOL    HW313319   4.414   0.528   4.632  1.2535  0.8911 -0.4134
 3388SOL    MW413320   4.449   0.559   4.706  0.3664  0.6688  0.1160
 3389SOL     OW13321   0.583   4.622   2.495 -0.2809  0.0166 -0.2821
 3389SOL    HW213322   0.600   4.605   2.402  1.6703 -1.9162  0.3280
 3389SOL    HW313323   0.640   4.696   2.516 -1.3560  1.0137 -0.7645
 3389SOL    MW413324   0.593   4.630   2.486 -0.1653 -0.1068 -0.2653
 3390SOL     OW13325   4.644   3.288   4.119  0.0825  0.2112 -0.5226
 3390SOL    HW213326   4.580   3.224   4.149 -0.5602  0.9485 -0.3067
 3390SOL    HW313327   4.727   3.239   4.117  0.0109 -0.0883  1.6446
 3390SOL    MW413328   4.646   3.273   4.123 -0.0117  0.2689 -0.2082
 3391SOL     OW13329   0.568   5.207   2.457  0.2979 -0.8299 -0.2607
 3391SOL    HW213330   0.484   5.205   2.503 -0.9072 -1.4670 -2.3414
 3391SOL    HW313331   0.579   5.298   2.430  1.0389 -0.4405  1.2370
 3391SOL    MW413332   0.558   5.219   2.459  0.2367 -0.8625 -0.3376
 3392SOL     OW13333   0.196   4.731   2.297  0.4768 -0.4471 -0.3079
 3392SOL    HW213334   0.280   4.769   2.274 -0.4971  1.2536 -1.3290
 3392SOL    HW313335   0.141   4.807   2.318 -1.1958 -1.3797 -1.0962
 3392SOL    MW413336   0.200   4.746   2.297  0.1276 -0.3458 -0.5466
 3393SOL     OW13337   0.440   1.074   0.794 -0.2130 -0.5603  0.0812
 3393SOL    HW213338   0.428   1.057   0.888 -0.6537 -2.7857 -0.3274
 3393SOL    HW313339   0.477   1.162   0.791 -1.6792  0.2333  2.2470
 3393SOL    MW413340   0.443   1.083   0.806 -0.4646 -0.7492  0.3130
 3394SOL     OW13341   2.458   0.040   5.123 -0.0250  0.2922 -0.0137
 3394SOL    HW213342   2.372   0.073   5.149 -0.7813 -0.1820 -1.7565
 3394SOL    HW313343   2.441  -0.017   5.048  1.5651 -1.6649  0.9832
 3394SOL    MW413344   2.445   0.037   5.117  0.0850 -0.0286 -0.1121
 3395SOL     OW13345   0.090   5.853   5.223  0.1599 -0.2271  0.2067
 3395SOL    HW213346   0.035   5.778   5.199 -0.8546  0.3547  0.6365
 3395SOL    HW313347   0.167   5.813   5.265 -1.0082 -1.0135  1.7105
 3395SOL    MW413348   0.093   5.838   5.226 -0.1281 -0.2541  0.4618
 3396SOL     OW13349   2.743   3.193   1.694  0.0788  0.4263 -1.0768
 3396SOL    HW213350   2.800   3.196   1.617 -0.0658 -0.4548 -1.2276
 3396SOL    HW313351   2.673   3.132   1.670 -0.1097  0.3444 -0.3405
 3396SOL    MW413352   2.741   3.185   1.680  0.0349  0.2993 -0.9995
 3397SOL     OW13353   6.283   3.207   5.299  0.5090 -0.7194  0.0344
 3397SOL    HW213354   6.240   3.134   5.255  1.0450 -0.9098 -0.1689
 3397SOL    HW313355   6.369   3.213   5.258  0.4894 -0.0102  0.0863
 3397SOL    MW413356   6.289   3.198   5.287  0.5771 -0.6509  0.0144
 3398SOL     OW13357   0.509   0.587   0.440  0.3575  0.2957  0.4633
 3398SOL    HW213358   0.589   0.549   0.477  0.1173  0.4301  1.1439
 3398SOL    HW313359   0.469   0.515   0.392  1.5172  0.5694 -0.9624
 3398SOL    MW413360   0.514   0.572   0.439  0.4788  0.3495  0.3650
 3399SOL     OW13361   3.604   4.350   1.203  0.1817  0.1672  0.2356
 3399SOL    HW213362   3.532   4.301   1.164  0.6231  1.0447 -1.7855
 3399SOL    HW313363   3.637   4.293   1.273 -0.4758 -1.6102 -0.8316
 3399SOL    MW413364   3.599   4.336   1.207  0.1532  0.0485 -0.1718
 3400SOL     OW13365   4.188   0.633   0.659  0.1967  0.5372 -0.2868
 3400SOL    HW213366   4.275   0.649   0.623  0.7673  0.8706  1.1843
 3400SOL    HW313367   4.165   0.714   0.704 -1.0538  0.5910 -0.9754
 3400SOL    MW413368   4.197   0.646   0.660  0.1070  0.5883 -0.1835
 3401SOL     OW13369   1.820   1.341   1.491 -0.5874 -0.1442  0.0593
 3401SOL    HW213370   1.835   1.435   1.478 -1.3012 -0.0611 -0.2180
 3401SOL    HW313371   1.867   1.299   1.419 -2.4513  0.1759 -1.4387
 3401SOL    MW413372   1.828   1.348   1.480 -0.9275 -0.0910 -0.1750
 3402SOL     OW13373   0.776   2.715   3.799 -0.1818 -0.0322  0.4898
 3402SOL    HW213374   0.844   2.782   3.788 -2.0858  2.0345  0.5586
 3402SOL    HW313375   0.723   2.747   3.872 -1.5507 -1.3025  0.0899
 3402SOL    MW413376   0.778   2.728   3.807 -0.6136  0.0729  0.4461
 3403SOL     OW13377   5.879   3.804   3.230  0.6530  0.0485  0.1620
 3403SOL    HW213378   5.800   3.856   3.249  0.4795  0.4248 -1.4700
 3403SOL    HW313379   5.930   3.808   3.311 -1.5001 -1.1575  1.6774
 3403SOL    MW413380   5.875   3.811   3.243  0.3460 -0.0609  0.1466
 3404SOL     OW13381   0.995   4.616   2.423 -0.1477  0.2246  0.1864
 3404SOL    HW213382   0.918   4.665   2.396  0.5249  1.2358  0.0507
 3404SOL    HW313383   0.967   4.524   2.423 -0.7530  0.3513 -1.9959
 3404SOL    MW413384   0.981   4.610   2.419 -0.1388  0.3747 -0.1194
 3405SOL     OW13385   1.480   5.708   1.998 -0.1188  0.1509 -0.4317
 3405SOL    HW213386   1.501   5.791   1.954 -1.0530 -0.0384 -1.2733
 3405SOL    HW313387   1.534   5.643   1.954 -1.2170 -0.0753 -1.4985
 3405SOL    MW413388   1.490   5.711   1.986 -0.3870  0.0960 -0.6835
 3406SOL     OW13389   4.085   3.673   4.997 -0.2372  0.2261  1.0385
 3406SOL    HW213390   4.107   3.737   4.929 -0.2892  0.2589  1.0529
 3406SOL    HW313391   4.001   3.702   5.032 -0.4521 -0.0710  0.7744
 3406SOL    MW413392   4.077   3.685   4.992 -0.2724  0.1912  1.0056
 3407SOL     OW13393   4.960   6.237   3.441  0.7213 -0.3964  0.0161
 3407SOL    HW213394   4.909   6.303   3.488 -0.6312  0.6690 -2.7284
 3407SOL    HW313395   4.895   6.173   3.412  1.7765 -2.0205  1.0616
 3407SOL    MW413396   4.944   6.237   3.444  0.6821 -0.4701 -0.2080
 3408SOL     OW13397   1.928   4.959   5.396 -0.3522 -0.2326 -0.0415
 3408SOL    HW213398   1.993   5.026   5.378 -0.4714  0.0510  0.5406
 3408SOL    HW313399   1.908   4.970   5.489 -1.0544 -0.4699 -0.1586
 3408SOL    MW413400   1.934   4.969   5.406 -0.4606 -0.2265  0.0199
 3409SOL     OW13401   2.924   0.682   4.653 -0.0532 -0.0515  0.4230
 3409SOL    HW213402   3.003   0.692   4.707 -0.3981 -0.6566  1.0425
 3409SOL    HW313403   2.915   0.588   4.640  0.7049  0.1172 -1.7338
 3409SOL    MW413404   2.933   0.671   4.659  0.0013 -0.1091  0.2202
 3410SOL     OW13405   3.976   4.776   6.180 -0.5152 -0.1951 -0.1457
 3410SOL    HW213406   3.902   4.836   6.182  0.2151  0.7518 -0.5146
 3410SOL    HW313407   4.052   4.830   6.200  0.1310 -1.0621 -0.1589
 3410SOL    MW413408   3.977   4.791   6.183 -0.3336 -0.1846 -0.1961
 3411SOL     OW13409   2.103   5.795   2.398  0.4424 -0.1017 -0.6120
 3411SOL    HW213410   2.170   5.853   2.360 -1.4911  0.8096 -2.8568
 3411SOL    HW313411   2.042   5.854   2.442  0.0571 -0.7299 -0.2898
 3411SOL    MW413412   2.104   5.811   2.399  0.1365 -0.0644 -0.8657
 3412SOL     OW13413   3.324   5.060   1.916  0.6726  0.6334 -0.3266
 3412SOL    HW213414   3.388   5.117   1.873  0.4901 -0.5449 -2.2630
 3412SOL    HW313415   3.245   5.114   1.921  1.5848  1.9266  1.6384
 3412SOL    MW413416   3.322   5.075   1.911  0.7689  0.6485 -0.3228
 3413SOL     OW13417   4.116   2.952   2.062 -0.4332 -0.9098  0.1125
 3413SOL    HW213418   4.195   2.941   2.009  0.6109 -0.1674  1.4338
 3413SOL    HW313419   4.069   2.869   2.052  0.5378 -1.3993 -0.6626
 3413SOL    MW413420   4.120   2.940   2.054 -0.1674 -0.8764  0.1846
 3414SOL     OW13421   2.807   3.589   1.406 -0.7080 -1.0487  0.1164
 3414SOL    HW213422   2.732   3.575   1.465  0.1976  0.0107  1.5838
 3414SOL    HW313423   2.782   3.664   1.352 -0.6410 -0.5633  0.7486
 3414SOL    MW413424   2.794   3.597   1.407 -0.5797 -0.8449  0.3934
 3415SOL     OW13425   3.765   0.874   3.970  0.3733  0.4076 -0.2177
 3415SOL    HW213426   3.732   0.785   3.984  0.4674  0.0380 -2.0292
 3415SOL    HW313427   3.743   0.921   4.050  0.2098 -1.2096  0.7414
 3415SOL    MW413428   3.758   0.868   3.982  0.3642  0.1455 -0.3302
 3416SOL     OW13429   1.707   1.086   4.711  0.0461  0.5417 -0.0069
 3416SOL    HW213430   1.638   1.057   4.771  0.6014  1.9374  1.3606
 3416SOL    HW313431   1.788   1.060   4.754  0.4274  0.0705 -0.9838
 3416SOL    MW413432   1.708   1.079   4.725  0.1697  0.6637  0.0446
 3417SOL     OW13433   2.160   6.303   1.598 -0.6913  0.0042 -0.1311
 3417SOL    HW213434   2.089   6.317   1.536  0.7332  2.2720 -1.4163
 3417SOL    HW313435   2.229   6.260   1.547 -0.4920 -0.5935  0.6235
 3417SOL    MW413436   2.160   6.299   1.583 -0.4770  0.2246 -0.2011
 3418SOL     OW13437   4.863   2.003   5.189 -0.1528 -0.6203  0.0840
 3418SOL    HW213438   4.957   2.004   5.205 -0.3400 -0.3921  1.2721
 3418SOL    HW313439   4.839   1.911   5.185  0.2150 -0.6785 -0.8473
 3418SOL    MW413440   4.872   1.991   5.191 -0.1290 -0.5979  0.1179
 3419SOL     OW13441   5.096   1.146   5.403 -0.0099  0.2229  0.3435
 3419SOL    HW213442   5.121   1.072   5.458  0.2276  0.4943  0.6084
 3419SOL    HW313443   5.143   1.133   5.321  2.1299  1.4165  1.2903
 3419SOL    MW413444   5.105   1.135   5.399  0.3037  0.4162  0.5034
 3420SOL     OW13445   1.080   5.623   3.360  0.3812  0.3562 -0.1918
 3420SOL    HW213446   1.035   5.647   3.441 -0.0362 -0.1580 -0.2642
 3420SOL    HW313447   1.152   5.686   3.352 -0.6764  1.5711 -0.3836
 3420SOL    MW413448   1.084   5.635   3.369  0.1866  0.4486 -0.2266
 3421SOL     OW13449   6.013   5.412   1.018  0.3342 -0.0692 -0.1975
 3421SOL    HW213450   5.946   5.344   1.026 -3.3830  2.8863 -2.4049
 3421SOL    HW313451   6.064   5.386   0.941 -2.2210  0.3410 -2.1711
 3421SOL    MW413452   6.011   5.399   1.009 -0.4934  0.3749 -0.7491
 3422SOL     OW13453   2.125   5.558   5.633  0.2962 -0.0537 -0.6266
 3422SOL    HW213454   2.191   5.608   5.586  1.0869 -1.8917 -1.6005
 3422SOL    HW313455   2.173   5.517   5.705 -0.5693  1.4313  0.8481
 3422SOL    MW413456   2.140   5.559   5.636  0.2863 -0.1003 -0.5605
 3423SOL     OW13457   1.905   3.143   5.964 -0.1943 -0.4092  0.3553
 3423SOL    HW213458   1.828   3.177   5.919 -0.8961  0.5519  2.1782
 3423SOL    HW313459   1.872   3.112   6.048  1.6289  1.8803  2.0615
 3423SOL    MW413460   1.890   3.143   5.969 -0.0463  0.0197  0.8209
 3424SOL     OW13461   3.558   2.778   6.268  0.4710 -0.1337 -0.0745
 3424SOL    HW213462   3.560   2.713   6.198 -0.3632 -0.2024 -0.0414
 3424SOL    HW313463   3.496   2.742   6.332  0.0757  0.6452 -0.0112
 3424SOL    MW413464   3.550   2.765   6.268  0.3088 -0.0400 -0.0618
 3425SOL     OW13465   1.248   4.103   3.174 -0.1362 -0.2779  0.4036
 3425SOL    HW213466   1.185   4.076   3.107 -0.9450  0.3956  0.8687
 3425SOL    HW313467   1.269   4.194   3.151  1.1413 -0.6861 -0.0916
 3425SOL    MW413468   1.242   4.112   3.162 -0.0744 -0.2429  0.3996
 3426SOL     OW13469   6.236   4.008   3.924  0.0387  0.0222  0.0664
 3426SOL    HW213470   6.173   4.014   3.995  1.6051 -0.2267  1.5305
 3426SOL    HW313471   6.321   4.002   3.967  0.9903 -0.9034 -1.8140
 3426SOL    MW413472   6.239   4.008   3.939  0.3709 -0.1328  0.0115
 3427SOL     OW13473   5.495   3.324   6.401  0.3623 -0.2451  0.0913
 3427SOL    HW213474   5.515   3.342   6.309 -0.4119 -0.1548 -0.0717
 3427SOL    HW313475   5.533   3.398   6.449 -1.2193  0.9723 -0.4053
 3427SOL    MW413476   5.502   3.336   6.396  0.0515 -0.0725  0.0043
 3428SOL     OW13477   1.170   1.523   5.691 -0.0237  0.6982 -0.2224
 3428SOL    HW213478   1.191   1.474   5.771 -0.3562  1.1769  0.1577
 3428SOL    HW313479   1.247   1.577   5.674  1.3931 -1.6649 -1.9938
 3428SOL    MW413480   1.183   1.523   5.699  0.1194  0.4496 -0.4059
 3429SOL     OW13481   2.524   2.462   2.669 -0.2733  0.7045 -0.5984
 3429SOL    HW213482   2.466   2.529   2.632  0.6916  0.3814 -2.8376
 3429SOL    HW313483   2.612   2.496   2.656  0.1489  0.1811  0.7215
 3429SOL    MW413484   2.528   2.475   2.663 -0.0903  0.5928 -0.7197
 3430SOL     OW13485   5.044   4.368   5.971 -0.7720 -0.0940 -0.2428
 3430SOL    HW213486   5.081   4.293   6.018  1.0859 -0.4606 -2.1453
 3430SOL    HW313487   5.110   4.390   5.905 -2.1113  2.0347 -0.9838
 3430SOL    MW413488   5.058   4.361   5.969 -0.7036  0.1385 -0.5915
 3431SOL     OW13489   3.417   0.953   1.873  0.4306 -0.2165 -0.3275
 3431SOL    HW213490   3.497   0.969   1.923 -0.3252  1.4452  0.4472
 3431SOL    HW313491   3.440   0.975   1.783  0.8310  0.3446 -0.0942
 3431SOL    MW413492   3.430   0.958   1.868  0.3837  0.0768 -0.1945
 3432SOL     OW13493   4.016   4.086   3.133 -0.3169 -0.6086  0.0841
 3432SOL    HW213494   4.059   4.106   3.216 -1.7198 -0.5657  0.8258
 3432SOL    HW313495   4.088   4.067   3.073  0.6783 -2.3853  1.7373
 3432SOL    MW413496   4.032   4.086   3.136 -0.3707 -0.8373  0.4001
 3433SOL     OW13497   0.261   1.406   1.263  0.4618  0.0809  0.4401
 3433SOL    HW213498   0.275   1.350   1.339 -1.7207 -2.7889 -1.0845
 3433SOL    HW313499   0.190   1.465   1.290 -2.0508 -2.5347  0.0527
 3433SOL    MW413500   0.253   1.407   1.277 -0.1577 -0.6429  0.1878
 3434SOL     OW13501   1.268   0.667   4.312  0.0262  0.1186 -0.2029
 3434SOL    HW213502   1.320   0.649   4.234  0.9166  0.0860  0.3799
 3434SOL    HW313503   1.328   0.649   4.385 -0.8807 -0.1436  0.4902
 3434SOL    MW413504   1.283   0.662   4.312  0.0241  0.0797 -0.0346
 3435SOL     OW13505   5.027   6.389   5.812 -0.5015  0.5488  0.2919
 3435SOL    HW213506   5.060   6.336   5.740  1.9663  1.2596  0.8224
 3435SOL    HW313507   5.043   6.480   5.785 -0.3655  0.8559  1.3571
 3435SOL    MW413508   5.033   6.394   5.799 -0.1579  0.6831  0.5024
 3436SOL     OW13509   1.493   2.682   3.118  0.2084 -0.5920  0.4521
 3436SOL    HW213510   1.491   2.774   3.146 -0.8350  0.6053 -3.0351
 3436SOL    HW313511   1.566   2.677   3.057 -0.8098 -1.6134 -0.7278
 3436SOL    MW413512   1.502   2.694   3.114 -0.0636 -0.5688 -0.1637
 3437SOL     OW13513   1.532   5.076   0.100  0.2192 -0.2608  0.5270
 3437SOL    HW213514   1.579   5.102   0.179  0.3877 -0.3666  0.4623
 3437SOL    HW313515   1.463   5.017   0.131 -0.1796  0.2763  0.6774
 3437SOL    MW413516   1.529   5.071   0.114  0.1888 -0.2039  0.5383
 3438SOL     OW13517   4.760   1.940   6.024  0.0928 -0.1126  0.2341
 3438SOL    HW213518   4.695   2.001   6.058  0.2437  1.8620 -2.6767
 3438SOL    HW313519   4.712   1.885   5.962  0.7819  0.0312 -0.4448
 3438SOL    MW413520   4.745   1.941   6.020  0.2036  0.1669 -0.2396
 3439SOL     OW13521   0.551   4.717   2.880 -0.1580 -0.3606 -0.1637
 3439SOL    HW213522   0.499   4.647   2.840 -1.3738  0.5905 -0.3149
 3439SOL    HW313523   0.614   4.672   2.936  0.5760 -1.6623 -1.9540
 3439SOL    MW413524   0.552   4.702   2.882 -0.2216 -0.4069 -0.4199
 3440SOL     OW13525   2.684   5.423   4.377 -0.0270  0.1126 -0.0578
 3440SOL    HW213526   2.720   5.335   4.376 -0.1960  0.0435 -0.5220
 3440SOL    HW313527   2.677   5.446   4.470  1.0614  0.0783  0.0371
 3440SOL    MW413528   2.688   5.414   4.389  0.0943  0.0989 -0.1065
 3441SOL     OW13529   6.148   4.289   2.039  0.1479  0.3072 -0.0750
 3441SOL    HW213530   6.105   4.216   1.995  0.2517 -0.1049  0.4990
 3441SOL    HW313531   6.155   4.262   2.130  2.9476 -0.2856 -0.3835
 3441SOL    MW413532   6.143   4.276   2.045  0.5310  0.1746 -0.0400
 3442SOL     OW13533   1.612   1.747   6.296 -0.3556  0.6838 -0.2693
 3442SOL    HW213534   1.669   1.736   6.372 -0.8049 -3.0728 -0.2831
 3442SOL    HW313535   1.664   1.799   6.234  1.5104  0.5880  1.1310
 3442SOL    MW413536   1.626   1.753   6.298 -0.1687  0.1755 -0.0864
 3443SOL     OW13537   5.870   6.143   5.066  0.3534  0.2501 -0.2547
 3443SOL    HW213538   5.850   6.059   5.026 -2.4885  0.4604  0.5339
 3443SOL    HW313539   5.938   6.123   5.130 -1.3320 -1.8092  1.0222
 3443SOL    MW413540   5.876   6.130   5.069 -0.2439  0.0061  0.0178
 3444SOL     OW13541   0.563   1.044   2.853  0.0176 -0.4914  0.0053
 3444SOL    HW213542   0.597   0.970   2.902  0.5397  0.6722  1.4887
 3444SOL    HW313543   0.525   1.006   2.774 -0.9833 -2.4481  1.3721
 3444SOL    MW413544   0.563   1.029   2.849 -0.0456 -0.5961  0.3814
 3445SOL     OW13545   2.738   5.133   4.417 -0.3097 -0.5215  0.1067
 3445SOL    HW213546   2.772   5.058   4.369 -0.0723 -0.6629  0.4893
 3445SOL    HW313547   2.647   5.110   4.435  0.1766 -1.4226  1.5753
 3445SOL    MW413548   2.730   5.120   4.413 -0.2142 -0.6591  0.3510
 3446SOL     OW13549   1.799   4.468   5.384 -0.0212 -0.4022 -0.1470
 3446SOL    HW213550   1.844   4.392   5.421 -2.8242 -1.8603  0.5329
 3446SOL    HW313551   1.818   4.539   5.446  2.0198 -0.6887 -0.3820
 3446SOL    MW413552   1.808   4.467   5.397 -0.1218 -0.6324 -0.0883
 3447SOL     OW13553   3.906   5.826   3.799  0.3728 -0.1718 -0.4539
 3447SOL    HW213554   3.846   5.844   3.871 -0.6180 -0.0715 -1.2764
 3447SOL    HW313555   3.891   5.734   3.777  1.9824 -0.7358  0.6224
 3447SOL    MW413556   3.896   5.816   3.805  0.4545 -0.2330 -0.4204
 3448SOL     OW13557   4.751   0.508   1.567 -0.2997 -0.9084 -0.2818
 3448SOL    HW213558   4.763   0.451   1.643  0.8202 -0.3935 -0.0406
 3448SOL    HW313559   4.686   0.572   1.595 -0.9965 -1.5998 -0.2895
 3448SOL    MW413560   4.744   0.509   1.581 -0.2439 -0.9317 -0.2510
 3449SOL     OW13561   6.398   5.315   2.836 -0.5223  0.2749  0.1002
 3449SOL    HW213562   6.405   5.292   2.743 -4.5550  0.9302 -0.5467
 3449SOL    HW313563   6.327   5.260   2.869 -0.5690  1.5406  2.2728
 3449SOL    MW413564   6.390   5.305   2.828 -1.0605  0.5284  0.3015
 3450SOL     OW13565   3.223   3.760   1.839 -0.0037 -0.1620  0.2443
 3450SOL    HW213566   3.287   3.827   1.862  1.3182 -1.5255  0.7031
 3450SOL    HW313567   3.275   3.688   1.803 -1.3614 -0.9947 -0.1341
 3450SOL    MW413568   3.238   3.759   1.837 -0.0084 -0.4518  0.2549
 3451SOL     OW13569   4.597   1.019   6.306 -0.5598  0.5857  0.3473
 3451SOL    HW213570   4.611   0.938   6.258 -2.0218  0.0998  0.6748
 3451SOL    HW313571   4.512   1.051   6.275  0.8144  3.0052 -1.1382
 3451SOL    MW413572   4.587   1.012   6.296 -0.5714  0.8408  0.1945
 3452SOL     OW13573   0.338   1.920   3.689 -0.2404 -0.2057  0.2014
 3452SOL    HW213574   0.378   1.950   3.770  0.5665  0.9727 -0.5940
 3452SOL    HW313575   0.246   1.943   3.697 -0.2466 -0.4834  0.9500
 3452SOL    MW413576   0.331   1.927   3.700 -0.1347 -0.0869  0.1952
 3453SOL     OW13577   2.296   3.624   4.824  0.0193 -0.1973  0.2727
 3453SOL    HW213578   2.302   3.530   4.843 -1.6397 -0.8546 -2.0527
 3453SOL    HW313579   2.209   3.649   4.855 -0.8408 -0.2342 -1.9177
 3453SOL    MW413580   2.285   3.615   4.831 -0.3131 -0.2889 -0.3231
 3454SOL     OW13581   4.809   2.917   5.195 -0.3641  0.1112  0.2507
 3454SOL    HW213582   4.799   2.863   5.273  0.6953  0.2916  0.5156
 3454SOL    HW313583   4.719   2.930   5.164 -0.7416 -0.5407  1.0351
 3454SOL    MW413584   4.795   2.912   5.201 -0.2741  0.0489  0.3891
 3455SOL     OW13585   3.741   3.881   4.312 -0.0289 -0.3978  0.2052
 3455SOL    HW213586   3.697   3.959   4.279 -2.8668 -1.6754  0.6613
 3455SOL    HW313587   3.829   3.911   4.334 -0.4050  2.2053 -1.3915
 3455SOL    MW413588   3.747   3.895   4.311 -0.4529 -0.2229  0.0547
 3456SOL     OW13589   6.113   3.786   1.628  0.4898 -0.2643  0.3138
 3456SOL    HW213590   6.149   3.823   1.547 -1.5499 -1.9773 -1.5113
 3456SOL    HW313591   6.107   3.692   1.611 -1.4993 -0.4700  1.8311
 3456SOL    MW413592   6.117   3.778   1.615 -0.0418 -0.5175  0.2732
 3457SOL     OW13593   5.062   6.368   3.861  0.1397 -0.1955 -0.1926
 3457SOL    HW213594   5.002   6.371   3.786  1.1485  0.1953 -1.0073
 3457SOL    HW313595   5.020   6.423   3.927  0.0957  0.9404 -1.1381
 3457SOL    MW413596   5.048   6.376   3.859  0.2670  0.0059 -0.4248
 3458SOL     OW13597   0.814   0.594   5.916  0.0748  0.0081  0.0193
 3458SOL    HW213598   0.837   0.642   5.996 -0.0383  0.8896 -0.4601
 3458SOL    HW313599   0.749   0.530   5.944  0.3774 -0.0037  0.7141
 3458SOL    MW413600   0.809   0.592   5.930  0.0998  0.1229  0.0477
 3459SOL     OW13601   5.740   4.882   3.313 -0.9964 -0.3484  0.0978
 3459SOL    HW213602   5.726   4.799   3.359 -0.3209  0.3061  1.5265
 3459SOL    HW313603   5.714   4.863   3.222 -1.0609 -2.0500  0.4331
 3459SOL    MW413604   5.734   4.868   3.307 -0.9158 -0.4866  0.3305
 3460SOL     OW13605   5.818   3.710   3.687  0.1854  0.0314  0.2322
 3460SOL    HW213606   5.802   3.617   3.704  1.6828 -0.4033 -0.5205
 3460SOL    HW313607   5.893   3.732   3.742  1.5984  0.0270 -1.5922
 3460SOL    MW413608   5.826   3.700   3.696  0.5694 -0.0265 -0.1078
 3461SOL     OW13609   0.588   4.078   5.856  0.1472  0.0405  0.1457
 3461SOL    HW213610   0.509   4.132   5.865  0.4383  0.6675 -0.9122
 3461SOL    HW313611   0.660   4.140   5.867  0.5628 -0.7462  2.5381
 3461SOL    MW413612   0.587   4.094   5.859  0.2404  0.0194  0.3218
 3462SOL     OW13613   3.390   3.809   0.204  0.2860 -0.0833 -0.2396
 3462SOL    HW213614   3.410   3.901   0.217 -1.5851  0.4093 -0.5249
 3462SOL    HW313615   3.459   3.762   0.250  1.6008  1.4393 -0.5855
 3462SOL    MW413616   3.402   3.815   0.212  0.2126  0.1826 -0.3229
 3463SOL     OW13617   0.281   5.131   6.374 -0.5901  0.1700  0.4096
 3463SOL    HW213618   0.374   5.110   6.378 -0.6014  0.2100  1.1224
 3463SOL    HW313619   0.277   5.225   6.392 -0.6935  0.3826 -0.6848
 3463SOL    MW413620   0.293   5.140   6.377 -0.6052  0.2033  0.3592
 3464SOL     OW13621   1.992   1.331   2.381 -0.3522 -0.0172  0.3222
 3464SOL    HW213622   1.925   1.303   2.318  0.1300 -2.5466  0.8463
 3464SOL    HW313623   1.972   1.423   2.398 -1.5961  0.2325 -2.1253
 3464SOL    MW413624   1.981   1.340   2.375 -0.4527 -0.3180  0.0684
 3465SOL     OW13625   5.359   2.396   4.135  0.3641  0.6522  1.1835
 3465SOL    HW213626   5.354   2.486   4.103 -1.9743  0.4348  0.7026
 3465SOL    HW313627   5.412   2.350   4.071  0.0842  1.3367  0.4487
 3465SOL    MW413628   5.365   2.402   4.123  0.0186  0.7139  1.0231
 3466SOL     OW13629   6.031   4.894   0.939  0.1568 -0.0041  0.4282
 3466SOL    HW213630   6.075   4.892   0.854  4.1006  0.7960  2.2681
 3466SOL    HW313631   6.000   4.804   0.951  1.6332 -0.7347 -0.8546
 3466SOL    MW413632   6.032   4.882   0.929  0.8719  0.0051  0.5017
 3467SOL     OW13633   6.227   5.542   0.080 -0.1267 -0.0425 -0.3282
 3467SOL    HW213634   6.275   5.594   0.016 -1.4975  2.7681  0.7542
 3467SOL    HW313635   6.195   5.605   0.144  0.1194 -2.5398  2.5175
 3467SOL    MW413636   6.229   5.557   0.080 -0.2751 -0.0012  0.1901
 3468SOL     OW13637   1.158   0.338   4.937  0.1658 -0.2694  0.3626
 3468SOL    HW213638   1.103   0.399   4.986 -0.1650 -0.6531  0.4721
 3468SOL    HW313639   1.133   0.350   4.846 -1.8731 -2.1616  0.5965
 3468SOL    MW413640   1.148   0.348   4.931 -0.1468 -0.5697  0.4079
 3469SOL     OW13641   6.227   2.662   0.606  0.1701 -0.4107  0.3252
 3469SOL    HW213642   6.265   2.667   0.694 -1.1805 -0.0513  0.9198
 3469SOL    HW313643   6.132   2.663   0.621 -0.0885  0.5069 -1.1793
 3469SOL    MW413644   6.219   2.663   0.620 -0.0422 -0.2422  0.2051
 3470SOL     OW13645   2.961   1.112   3.083 -0.2674 -0.6379 -0.2331
 3470SOL    HW213646   2.963   1.208   3.079  0.6703 -0.6501 -0.3726
 3470SOL    HW313647   2.868   1.090   3.089 -0.5338  0.2586 -0.7986
 3470SOL    MW413648   2.949   1.122   3.083 -0.1789 -0.5213 -0.3261
 3471SOL     OW13649   3.129   1.625   5.268  0.0857 -0.5118  0.2300
 3471SOL    HW213650   3.118   1.676   5.348  2.9232  1.1835 -0.3121
 3471SOL    HW313651   3.172   1.544   5.297  0.8104 -0.0467  0.4878
 3471SOL    MW413652   3.133   1.621   5.283  0.5557 -0.2267  0.1925
 3472SOL     OW13653   5.604   4.715   1.702  0.5823 -0.1103 -0.0896
 3472SOL    HW213654   5.558   4.646   1.655  0.0633 -1.1259  1.7848
 3472SOL    HW313655   5.593   4.793   1.648  1.1265 -1.4403 -2.2403
 3472SOL    MW413656   5.597   4.716   1.689  0.5856 -0.4198 -0.1261
 3473SOL     OW13657   2.291   5.899   6.265 -0.4567  0.2168 -0.2522
 3473SOL    HW213658   2.357   5.911   6.333 -0.3642 -0.8240 -0.1430
 3473SOL    HW313659   2.286   5.983   6.221  1.0209  0.2837 -0.3410
 3473SOL    MW413660   2.299   5.911   6.269 -0.2496  0.0883 -0.2495
 3474SOL     OW13661   2.403   3.267   0.963 -0.0175 -0.4465  0.2286
 3474SOL    HW213662   2.321   3.311   0.941 -0.1399 -1.0031 -0.4549
 3474SOL    HW313663   2.383   3.174   0.954 -0.2293 -0.7782  3.2374
 3474SOL    MW413664   2.390   3.261   0.959 -0.0616 -0.5637  0.5354
 3475SOL     OW13665   1.100   2.260   4.594  0.2625 -0.6817 -0.8379
 3475SOL    HW213666   1.127   2.275   4.504 -0.4395  0.5114 -0.8725
 3475SOL    HW313667   1.083   2.166   4.599 -0.7094 -0.5989 -2.2395
 3475SOL    MW413668   1.101   2.250   4.583  0.0416 -0.5133 -1.0274
 3476SOL     OW13669   3.752   0.637   4.258 -0.0371 -0.1968 -0.2003
 3476SOL    HW213670   3.756   0.611   4.166 -1.7697  0.0178 -0.3635
 3476SOL    HW313671   3.767   0.556   4.307 -0.2935 -0.5379 -0.6817
 3476SOL    MW413672   3.755   0.623   4.252 -0.2995 -0.2135 -0.2854
 3477SOL     OW13673   3.235   5.343   2.285 -0.0035  0.3239  0.3361
 3477SOL    HW213674   3.313   5.365   2.235 -0.9471  3.3947 -0.0252
 3477SOL    HW313675   3.266   5.282   2.352  2.9557  2.1998  0.8674
 3477SOL    MW413676   3.249   5.338   2.287  0.2624  0.9766  0.3585
 3478SOL     OW13677   6.313   3.534   3.475 -0.4069 -0.7541 -0.2703
 3478SOL    HW213678   6.265   3.492   3.546 -0.6122  1.3921  0.9281
 3478SOL    HW313679   6.304   3.628   3.491  1.3418 -0.2273 -1.9441
 3478SOL    MW413680   6.305   3.541   3.486 -0.2032 -0.4014 -0.3330
 3479SOL     OW13681   3.585   0.754   0.199 -0.5477  0.1219  0.4326
 3479SOL    HW213682   3.544   0.678   0.240  1.1084  0.2209  2.4532
 3479SOL    HW313683   3.644   0.789   0.267  1.3473  1.1214 -1.5945
 3479SOL    MW413684   3.588   0.748   0.214 -0.0792  0.2668  0.4317
 3480SOL     OW13685   1.207   3.303   1.341  0.0302 -0.0459  0.3519
 3480SOL    HW213686   1.139   3.369   1.326  1.3372  1.6853  1.6808
 3480SOL    HW313687   1.284   3.338   1.295  0.4296 -1.2712  0.0627
 3480SOL    MW413688   1.209   3.316   1.333  0.2554  0.0208  0.4891
 3481SOL     OW13689   6.255   5.602   4.436  0.1130  0.0608  0.2607
 3481SOL    HW213690   6.247   5.697   4.448 -0.2888 -0.1568  1.9365
 3481SOL    HW313691   6.217   5.564   4.515 -1.6984 -1.5828 -1.2918
 3481SOL    MW413692   6.249   5.610   4.448 -0.1790 -0.1848  0.2769
 3482SOL     OW13693   5.599   2.066   4.636  0.0077 -0.4032 -0.4558
 3482SOL    HW213694   5.520   2.093   4.683  0.1235 -0.7987 -0.0332
 3482SOL    HW313695   5.591   1.971   4.629  0.3814 -0.4287 -0.5295
 3482SOL    MW413696   5.587   2.057   4.641  0.0723 -0.4588 -0.4097
 3483SOL     OW13697   0.287   2.146   1.111  0.7269 -0.1741 -0.0664
 3483SOL    HW213698   0.282   2.055   1.141  0.7242 -0.0978  0.1671
 3483SOL    HW313699   0.332   2.141   1.027 -1.0001 -0.6034 -1.0100
 3483SOL    MW413700   0.292   2.133   1.104  0.4987 -0.2207 -0.1601
 3484SOL     OW13701   3.242   3.210   2.013  0.2524 -0.2324 -0.2604
 3484SOL    HW213702   3.210   3.160   1.938  0.7080 -0.2222 -0.4714
 3484SOL    HW313703   3.214   3.161   2.090 -0.6866  0.0364 -0.4152
 3484SOL    MW413704   3.234   3.197   2.013  0.1886 -0.1956 -0.3086
 3485SOL     OW13705   2.249   1.601   0.374 -0.5111 -0.0637 -0.2497
 3485SOL    HW213706   2.272   1.693   0.388  1.3669 -0.5375  0.0571
 3485SOL    HW313707   2.261   1.560   0.459 -3.9564 -0.1806  0.3295
 3485SOL    MW413708   2.253   1.608   0.387 -0.7178 -0.1416 -0.1328
 3486SOL     OW13709   3.931   0.132   5.784  0.2681 -0.1697 -0.2283
 3486SOL    HW213710   3.870   0.189   5.737  0.6326  0.0315 -0.4646
 3486SOL    HW313711   3.956   0.066   5.719 -0.6099 -0.9628  0.2150
 3486SOL    MW413712   3.926   0.131   5.769  0.2004 -0.2478 -0.2010
 3487SOL     OW13713   0.751   6.299   5.541 -0.3052  0.1380  0.4331
 3487SOL    HW213714   0.775   6.282   5.450 -1.0393 -1.1955  0.4747
 3487SOL    HW313715   0.717   6.216   5.574  0.9492  0.2951  2.2682
 3487SOL    MW413716   0.750   6.286   5.534 -0.2365 -0.0172  0.6807
 3488SOL     OW13717   0.371   5.633   1.379 -0.2121  0.4769 -0.1440
 3488SOL    HW213718   0.369   5.562   1.443  2.0638 -0.3184 -0.8815
 3488SOL    HW313719   0.280   5.664   1.375 -1.1759 -2.0405  0.5489
 3488SOL    MW413720   0.358   5.628   1.387 -0.0390  0.0398 -0.1499
 3489SOL     OW13721   4.692   4.573   0.459  0.3325 -0.4070 -0.9216
 3489SOL    HW213722   4.610   4.565   0.508  0.7656 -1.7110 -0.3510
 3489SOL    HW313723   4.737   4.647   0.500 -0.6021  0.3987 -1.3212
 3489SOL    MW413724   4.687   4.582   0.471  0.2663 -0.4727 -0.8990
 3490SOL     OW13725   3.302   2.692   4.114 -0.0421 -0.1529  0.1017
 3490SOL    HW213726   3.379   2.714   4.167 -0.1492  0.6328 -0.0456
 3490SOL    HW313727   3.311   2.747   4.036 -1.0517  0.4126  0.3595
 3490SOL    MW413728   3.313   2.702   4.111 -0.1894  0.0254  0.1162
 3491SOL     OW13729   3.007   3.633   4.014  0.2068  0.0264 -0.0720
 3491SOL    HW213730   3.005   3.538   4.027  3.0319 -0.1145 -0.0563
 3491SOL    HW313731   3.003   3.669   4.102 -0.0992 -0.0932 -0.0341
 3491SOL    MW413732   3.006   3.625   4.027  0.5392 -0.0080 -0.0650
 3492SOL     OW13733   0.121   1.329   6.048 -0.6304  0.0538 -0.1036
 3492SOL    HW213734   0.186   1.314   5.980 -1.9759  0.5418 -1.5479
 3492SOL    HW313735   0.173   1.336   6.129  1.1324  0.8516 -1.2418
 3492SOL    MW413736   0.137   1.328   6.050 -0.5754  0.2234 -0.4443
 3493SOL     OW13737   5.709   3.184   2.972  0.4028 -0.0567  0.0347
 3493SOL    HW213738   5.760   3.182   2.891  1.9630  1.3755  0.9003
 3493SOL    HW313739   5.724   3.098   3.012 -0.2572 -0.7198 -1.0956
 3493SOL    MW413740   5.718   3.173   2.966  0.5216  0.0448 -0.0002
 3494SOL     OW13741   3.237   0.030   1.787  0.6814  0.1773  0.0726
 3494SOL    HW213742   3.285  -0.046   1.819 -0.1105 -0.1471  0.5087
 3494SOL    HW313743   3.275   0.048   1.701  1.8815  0.1981  0.5785
 3494SOL    MW413744   3.249   0.023   1.780  0.7352  0.1373  0.1969
 3495SOL     OW13745   6.178   1.348   1.317  0.0292 -0.3392 -0.1845
 3495SOL    HW213746   6.269   1.358   1.345 -0.2780  2.4282  0.0882
 3495SOL    HW313747   6.159   1.255   1.332  2.3318 -0.6772  1.1756
 3495SOL    MW413748   6.187   1.337   1.323  0.2924 -0.0187  0.0309
 3496SOL     OW13749   3.438   5.645   1.300 -0.3807 -0.1540 -0.3996
 3496SOL    HW213750   3.348   5.633   1.330 -0.3078 -1.7866 -0.6978
 3496SOL    HW313751   3.432   5.645   1.205  0.0190 -1.4914 -0.4547
 3496SOL    MW413752   3.425   5.643   1.292 -0.3183 -0.5459 -0.4462
 3497SOL     OW13753   3.823   2.816   0.338 -0.3435  0.0874 -0.1918
 3497SOL    HW213754   3.805   2.852   0.252  0.1416 -1.3521 -0.9329
 3497SOL    HW313755   3.906   2.768   0.327 -1.5445 -2.2900  0.3581
 3497SOL    MW413756   3.832   2.814   0.325 -0.4379 -0.4162 -0.2170
 3498SOL     OW13757   3.139   1.530   0.033  0.8365 -0.3910  0.0192
 3498SOL    HW213758   3.213   1.548   0.091 -0.7223  0.3651  1.8905
 3498SOL    HW313759   3.122   1.613  -0.011  0.3466 -0.2128  0.5331
 3498SOL    MW413760   3.147   1.543   0.035  0.5662 -0.2677  0.3339
 3499SOL     OW13761   1.610   4.420   3.675  0.1205 -0.5769 -0.0524
 3499SOL    HW213762   1.556   4.425   3.754  1.1072  2.0549  0.5562
 3499SOL    HW313763   1.571   4.484   3.615  2.1239  1.0135  0.2130
 3499SOL    MW413764   1.598   4.429   3.678  0.5150 -0.0198  0.0629
 3500SOL     OW13765   5.915   1.260   5.588 -0.7126 -0.2440  0.3591
 3500SOL    HW213766   5.951   1.293   5.506 -0.3603  2.3195  1.4324
 3500SOL    HW313767   5.865   1.183   5.563  0.9338 -0.6702 -1.9657
 3500SOL    MW413768   5.913   1.254   5.574 -0.4489  0.0380  0.1940
 3501SOL     OW13769   3.576   0.361   3.928 -0.1939  0.7940  0.1353
 3501SOL    HW213770   3.507   0.317   3.977 -0.3446  0.3331 -0.4782
 3501SOL    HW313771   3.531   0.402   3.854  0.2339  0.1262 -0.5108
 3501SOL    MW413772   3.561   0.360   3.925 -0.1573  0.6451 -0.0309
 3502SOL     OW13773   0.373   3.405   3.324  0.0248 -0.4238  0.0193
 3502SOL    HW213774   0.444   3.469   3.329 -0.0870 -0.3849  1.8318
 3502SOL    HW313775   0.294   3.457   3.313  0.2092 -0.4377 -1.4744
 3502SOL    MW413776   0.372   3.420   3.323  0.0344 -0.4205  0.0614
 3503SOL     OW13777   4.959   5.026   2.908 -0.8623 -0.5768 -0.2016
 3503SOL    HW213778   4.944   5.107   2.860  0.3633  0.7253  1.4906
 3503SOL    HW313779   4.881   5.015   2.963  0.2739  1.3432  1.9983
 3503SOL    MW413780   4.947   5.035   2.909 -0.5507 -0.1517  0.3119
 3504SOL     OW13781   5.413   0.604   0.273  0.0330 -0.5074 -0.3125
 3504SOL    HW213782   5.500   0.643   0.272 -0.1531 -0.0977 -1.3646
 3504SOL    HW313783   5.353   0.679   0.269 -0.3696 -0.7989  0.1054
 3504SOL    MW413784   5.416   0.619   0.272 -0.0447 -0.4918 -0.3962
 3505SOL     OW13785   3.801   1.729   1.952 -0.1315  0.0176  0.2987
 3505SOL    HW213786   3.845   1.644   1.955 -1.1823 -0.5957 -0.7924
 3505SOL    HW313787   3.735   1.719   1.883 -0.8016  1.4650  0.7029
 3505SOL    MW413788   3.798   1.716   1.943 -0.3586  0.1277  0.2081
 3506SOL     OW13789   0.361   2.117   4.551  0.0182 -0.3108  0.1640
 3506SOL    HW213790   0.296   2.067   4.600  1.3720 -0.6874  1.6493
 3506SOL    HW313791   0.428   2.052   4.527 -0.0121  0.1111 -1.1237
 3506SOL    MW413792   0.362   2.101   4.554  0.1928 -0.3048  0.1901
 3507SOL     OW13793   3.143   0.695   4.835  0.3308  0.1842 -0.0273
 3507SOL    HW213794   3.171   0.609   4.864  0.5540  0.1666 -0.2926
 3507SOL    HW313795   3.219   0.751   4.848 -0.4193  0.8171  2.0991
 3507SOL    MW413796   3.156   0.691   4.840  0.2613  0.2654  0.2183
 3508SOL     OW13797   4.546   6.066   1.590  0.5043 -0.0370 -0.2350
 3508SOL    HW213798   4.606   6.139   1.607  0.5327 -0.4018  1.4278
 3508SOL    HW313799   4.600   5.988   1.601  0.4034 -0.3463 -1.7250
 3508SOL    MW413800   4.561   6.066   1.594  0.4948 -0.1259 -0.2122
 3509SOL     OW13801   3.005   5.837   4.486 -0.8766  0.3067 -0.1753
 3509SOL    HW213802   3.082   5.816   4.432 -1.0843  1.2982 -0.8967
 3509SOL    HW313803   3.009   5.932   4.497 -1.5485  0.2670  0.4768
 3509SOL    MW413804   3.016   5.847   4.480 -0.9926  0.4323 -0.1844
 3510SOL     OW13805   1.200   4.478   0.472 -0.1613  0.1957  0.1464
 3510SOL    HW213806   1.116   4.434   0.486 -0.6419  0.9158 -0.3661
 3510SOL    HW313807   1.206   4.542   0.544 -0.1057  0.2215  0.1192
 3510SOL    MW413808   1.190   4.481   0.484 -0.2174  0.2941  0.0752
 3511SOL     OW13809   2.880   1.692   3.704 -0.0510  0.3850  0.0867
 3511SOL    HW213810   2.958   1.654   3.665  0.0716  0.9338 -0.1994
 3511SOL    HW313811   2.808   1.635   3.675 -0.2739  1.9225 -2.6898
 3511SOL    MW413812   2.881   1.679   3.695 -0.0642  0.6603 -0.3174
 3512SOL     OW13813   5.244   4.273   5.039  0.4009  1.1149 -0.4707
 3512SOL    HW213814   5.241   4.215   5.115 -0.6252  2.1527  0.3233
 3512SOL    HW313815   5.196   4.225   4.971  0.0065  0.8168  0.0095
 3512SOL    MW413816   5.237   4.259   5.040  0.2135  1.2125 -0.3026
 3513SOL     OW13817   3.549   6.363   5.773 -0.1160  0.2168 -0.5737
 3513SOL    HW213818   3.637   6.354   5.738 -0.9489 -1.0284 -2.4935
 3513SOL    HW313819   3.501   6.410   5.705 -1.1796 -0.0163 -0.0069
 3513SOL    MW413820   3.554   6.368   5.759 -0.3663  0.0218 -0.7522
 3514SOL     OW13821   4.172   5.298   0.708 -0.0676 -0.3423  0.1184
 3514SOL    HW213822   4.219   5.381   0.720  1.2108 -1.1259  0.6398
 3514SOL    HW313823   4.170   5.259   0.795 -0.8919 -0.7477 -0.0789
 3514SOL    MW413824   4.178   5.304   0.721 -0.0077 -0.4992  0.1612
 3515SOL     OW13825   4.059   2.187   0.181  0.4095 -0.0354  0.1051
 3515SOL    HW213826   4.031   2.223   0.265  1.6524 -1.4959  1.2056
 3515SOL    HW313827   3.977   2.173   0.133 -0.3600  0.4736  1.2271
 3515SOL    MW413828   4.044   2.190   0.186  0.4720 -0.1609  0.3983
 3516SOL     OW13829   4.135   6.273   3.347 -0.1313  0.4165 -0.2167
 3516SOL    HW213830   4.080   6.339   3.303 -0.2488 -0.1465 -0.9349
 3516SOL    HW313831   4.204   6.254   3.283  0.9590  1.1696  0.7025
 3516SOL    MW413832   4.137   6.279   3.333 -0.0029  0.4416 -0.1902
 3517SOL     OW13833   1.868   5.324   3.820 -0.0233 -0.2078  0.1128
 3517SOL    HW213834   1.806   5.267   3.865 -0.1258 -0.8821 -0.8462
 3517SOL    HW313835   1.931   5.349   3.887 -0.0445 -1.3596  0.5893
 3517SOL    MW413836   1.868   5.320   3.835 -0.0397 -0.4488  0.0492
 3518SOL     OW13837   5.181   0.798   5.117  0.3409 -0.1278  0.0677
 3518SOL    HW213838   5.182   0.714   5.164  0.4710 -0.2709 -0.1898
 3518SOL    HW313839   5.251   0.790   5.053  0.5876  0.3157  0.2769
 3518SOL    MW413840   5.190   0.786   5.115  0.3906 -0.0882  0.0613
 3519SOL     OW13841   5.950   0.488   1.177 -0.2737 -0.5381 -0.1328
 3519SOL    HW213842   5.908   0.500   1.091 -0.7229  0.4390  0.2115
 3519SOL    HW313843   5.994   0.571   1.194  0.1540 -0.8728  0.4056
 3519SOL    MW413844   5.950   0.500   1.168 -0.2765 -0.4533 -0.0164
 3520SOL     OW13845   5.747   1.427   2.916 -0.3352 -0.1031 -0.0364
 3520SOL    HW213846   5.785   1.445   3.002 -0.0848  0.7554 -0.3095
 3520SOL    HW313847   5.737   1.514   2.876 -0.0929 -0.5131 -1.0188
 3520SOL    MW413848   5.751   1.441   2.922 -0.2702 -0.0439 -0.2020
 3521SOL     OW13849   6.066   4.706   4.279  0.0397 -0.1025 -0.3264
 3521SOL    HW213850   6.016   4.625   4.290 -0.9803  0.1928 -2.2897
 3521SOL    HW313851   6.001   4.775   4.293  0.1881  0.3049 -1.5419
 3521SOL    MW413852   6.050   4.704   4.282 -0.0753 -0.0098 -0.7458
 3522SOL     OW13853   5.473   0.299   6.058  0.0008 -0.3207 -0.3618
 3522SOL    HW213854   5.429   0.290   6.143 -0.8659 -1.0413 -0.8677
 3522SOL    HW313855   5.549   0.240   6.065  0.3644  0.2017  0.1753
 3522SOL    MW413856   5.477   0.290   6.070 -0.0656 -0.3469 -0.3577
 3523SOL     OW13857   3.471   0.985   1.599 -0.3440  0.2224  0.3797
 3523SOL    HW213858   3.493   0.892   1.605 -0.4156  0.3041  2.1571
 3523SOL    HW313859   3.422   0.992   1.517 -0.3473 -1.3048  0.2279
 3523SOL    MW413860   3.467   0.974   1.589 -0.3539  0.0317  0.5942
 3524SOL     OW13861   0.102   0.434   0.045  0.1131 -0.1184 -0.2592
 3524SOL    HW213862   0.185   0.483   0.040  0.5506 -0.8353 -0.0687
 3524SOL    HW313863   0.075   0.444   0.136  0.3811 -0.5250 -0.1354
 3524SOL    MW413864   0.110   0.442   0.057  0.2062 -0.2666 -0.2177
 3525SOL     OW13865   2.037   4.362   5.014  0.8111  0.2394 -0.1014
 3525SOL    HW213866   2.088   4.282   5.025  0.9779  0.2524 -0.7280
 3525SOL    HW313867   2.050   4.386   4.922 -1.1399 -0.3114 -0.5679
 3525SOL    MW413868   2.045   4.355   5.003  0.5757  0.1684 -0.2456
 3526SOL     OW13869   5.360   3.078   2.877 -0.5276  0.7725 -0.2631
 3526SOL    HW213870   5.394   3.139   2.942 -0.8255 -0.3295  0.9741
 3526SOL    HW313871   5.278   3.046   2.914 -0.9908  0.5401 -1.4523
 3526SOL    MW413872   5.354   3.082   2.890 -0.6280  0.5964 -0.2568
 3527SOL     OW13873   3.142   2.542   2.614 -0.2890 -0.3143 -0.1209
 3527SOL    HW213874   3.088   2.480   2.663 -1.1077  0.2792 -0.2529
 3527SOL    HW313875   3.186   2.488   2.549  1.6598 -1.3119  1.8765
 3527SOL    MW413876   3.141   2.527   2.612 -0.1399 -0.3676  0.1252
 3528SOL     OW13877   5.264   5.367   2.098 -0.4127  0.0320 -0.6880
 3528SOL    HW213878   5.206   5.339   2.169  0.0223  1.3247  0.2222
 3528SOL    HW313879   5.352   5.357   2.134 -0.1088 -0.8454 -1.6512
 3528SOL    MW413880   5.268   5.362   2.112 -0.3152  0.0867 -0.6950
 3529SOL     OW13881   2.352   4.912   0.727  0.1121 -0.4119  0.0368
 3529SOL    HW213882   2.426   4.851   0.726  0.4987  0.0576 -0.3292
 3529SOL    HW313883   2.392   4.998   0.718 -0.2283  0.1069  2.6161
 3529SOL    MW413884   2.367   4.915   0.726  0.1182 -0.2815  0.3288
 3530SOL     OW13885   5.662   6.282   4.654 -0.3671 -0.4967  0.1576
 3530SOL    HW213886   5.723   6.322   4.716 -0.7685  2.0985 -0.9897
 3530SOL    HW313887   5.691   6.313   4.568 -1.3166 -1.9712 -0.7522
 3530SOL    MW413888   5.674   6.291   4.651 -0.5454 -0.3488 -0.1138
 3531SOL     OW13889   0.929   3.455   5.643 -0.4118  0.1756 -0.1622
 3531SOL    HW213890   1.013   3.411   5.632 -0.9501 -0.8026 -0.4203
 3531SOL    HW313891   0.866   3.401   5.596 -1.0375  1.4385 -0.8441
 3531SOL    MW413892   0.932   3.442   5.636 -0.5654  0.2132 -0.2862
 3532SOL     OW13893   4.638   6.113   0.502 -0.2094 -0.1255 -0.2345
 3532SOL    HW213894   4.660   6.142   0.590  0.5612 -2.0821  0.2862
 3532SOL    HW313895   4.714   6.136   0.449 -1.0065  1.7807 -0.6043
 3532SOL    MW413896   4.651   6.120   0.507 -0.2129 -0.1321 -0.2146
 3533SOL     OW13897   4.951   4.613   4.972 -0.0159  0.0550 -0.4508
 3533SOL    HW213898   4.914   4.685   4.921 -0.3699  0.2603  0.0840
 3533SOL    HW313899   5.046   4.623   4.964 -0.0262  1.4464  0.7715
 3533SOL    MW413900   4.959   4.624   4.965 -0.0640  0.2657 -0.2190
 3534SOL     OW13901   1.800   0.389   4.858  0.3185  0.2774 -0.3875
 3534SOL    HW213902   1.724   0.414   4.806  0.3876  1.1409 -0.1020
 3534SOL    HW313903   1.872   0.442   4.821  0.7820 -0.5039 -0.6369
 3534SOL    MW413904   1.800   0.399   4.846  0.3888  0.2883 -0.3828
 3535SOL     OW13905   4.129   0.500   2.129  0.3666  0.0750  0.4415
 3535SOL    HW213906   4.108   0.458   2.212 -0.1629 -0.5120  0.0209
 3535SOL    HW313907   4.062   0.469   2.068  0.5257  0.7882 -0.1170
 3535SOL    MW413908   4.118   0.491   2.132  0.3178  0.0917  0.3123
 3536SOL     OW13909   6.284   1.049   2.698 -0.3518  0.5768  0.6556
 3536SOL    HW213910   6.353   1.111   2.674 -0.5803  0.3957 -0.5306
 3536SOL    HW313911   6.214   1.065   2.634 -0.5900 -0.6014  0.5980
 3536SOL    MW413912   6.283   1.059   2.687 -0.4134  0.3974  0.4915
 3537SOL     OW13913   6.001   2.838   1.222 -0.0416 -0.3326  0.3148
 3537SOL    HW213914   6.013   2.809   1.132  1.5015 -0.7388  0.6327
 3537SOL    HW313915   5.906   2.837   1.235 -0.4257  1.3866 -1.8327
 3537SOL    MW413916   5.990   2.834   1.212  0.1113 -0.1594  0.0734
 3538SOL     OW13917   4.108   1.980   3.224 -0.0167 -0.1600 -0.2485
 3538SOL    HW213918   4.048   2.006   3.294 -0.5390 -0.3538 -0.6192
 3538SOL    HW313919   4.178   2.045   3.227 -0.8946  0.8404 -0.6533
 3538SOL    MW413920   4.109   1.992   3.234 -0.2015 -0.0535 -0.3508
 3539SOL     OW13921   3.713   4.794   0.811  0.4814  0.1449  0.5157
 3539SOL    HW213922   3.699   4.852   0.886  0.9678 -0.5706  1.1765
 3539SOL    HW313923   3.793   4.827   0.770  1.5525 -0.8408  1.6985
 3539SOL    MW413924   3.722   4.806   0.816  0.6869 -0.0796  0.7590
 3540SOL     OW13925   2.755   5.647   1.888 -0.1596 -0.6949  0.4264
 3540SOL    HW213926   2.793   5.574   1.839  1.9615  1.1385 -0.8342
 3540SOL    HW313927   2.827   5.677   1.944 -0.9249  0.5440  0.7766
 3540SOL    MW413928   2.769   5.641   1.889  0.0193 -0.2896  0.3063
 3541SOL     OW13929   4.212   1.403   4.696 -0.0121 -0.6104  0.9340
 3541SOL    HW213930   4.211   1.429   4.788 -1.5111 -1.4345  1.1785
 3541SOL    HW313931   4.127   1.429   4.662 -0.0532 -1.6477  0.1768
 3541SOL    MW413932   4.201   1.410   4.704 -0.2153 -0.8560  0.8663
 3542SOL     OW13933   3.252   6.312   4.192  0.0890 -0.3428 -0.4225
 3542SOL    HW213934   3.201   6.391   4.177 -0.2774 -0.3458  0.6766
 3542SOL    HW313935   3.324   6.316   4.129  0.0282  0.8350 -0.4230
 3542SOL    MW413936   3.255   6.323   4.182  0.0326 -0.1878 -0.2776
 3543SOL     OW13937   3.379   4.005   6.298  0.4544  0.0954 -0.3120
 3543SOL    HW213938   3.332   4.061   6.236 -1.2277  1.0825  1.7458
 3543SOL    HW313939   3.441   4.063   6.341  1.0938 -0.4227 -0.5156
 3543SOL    MW413940   3.381   4.020   6.295  0.3168  0.1573 -0.0674
 3544SOL     OW13941   3.292   2.428   3.120  0.3035  0.1469 -0.1578
 3544SOL    HW213942   3.338   2.384   3.192  0.1094 -0.6097 -0.4808
 3544SOL    HW313943   3.201   2.402   3.132 -0.2215  2.2967  0.9654
 3544SOL    MW413944   3.286   2.418   3.131  0.2086  0.3307 -0.0522
 3545SOL     OW13945   5.891   4.423   1.484  0.0242  0.1429 -0.2445
 3545SOL    HW213946   5.808   4.374   1.480  0.4783 -0.6520 -0.2063
 3545SOL    HW313947   5.940   4.381   1.555  0.7849  0.0671 -0.8017
 3545SOL    MW413948   5.886   4.411   1.493  0.1845  0.0280 -0.3130
 3546SOL     OW13949   4.279   2.635   2.888 -0.4941  0.3074  0.0312
 3546SOL    HW213950   4.249   2.627   2.798 -2.3480  0.3906  0.6039
 3546SOL    HW313951   4.345   2.566   2.898 -0.7172 -0.1048 -1.1919
 3546SOL    MW413952   4.284   2.625   2.877 -0.7681  0.2640 -0.0546
 3547SOL     OW13953   2.364   4.963   5.573 -0.1761 -0.9024 -0.1064
 3547SOL    HW213954   2.341   4.892   5.513 -1.2790  1.2312 -2.4166
 3547SOL    HW313955   2.281   4.992   5.611  0.4007 -1.5709  1.7716
 3547SOL    MW413956   2.350   4.958   5.570 -0.2455 -0.7091 -0.1634
 3548SOL     OW13957   2.537   2.669   5.917  0.1474 -0.8845 -0.3890
 3548SOL    HW213958   2.546   2.720   5.837  1.3401  0.2333  0.4127
 3548SOL    HW313959   2.498   2.729   5.980 -0.4138 -1.6228 -0.0151
 3548SOL    MW413960   2.533   2.684   5.915  0.2307 -0.8344 -0.2339
 3549SOL     OW13961   5.190   0.120   0.061  0.7273 -0.2578 -0.4132
 3549SOL    HW213962   5.117   0.104   0.120  1.9949 -0.5947  1.1352
 3549SOL    HW313963   5.171   0.067  -0.017 -1.4909  1.0131 -0.8028
 3549SOL    MW413964   5.178   0.111   0.058  0.6019 -0.1345 -0.2603
 3550SOL     OW13965   0.496   5.201   5.564 -0.2904  0.0358  0.4762
 3550SOL    HW213966   0.589   5.217   5.579  0.2547 -2.2139 -0.0556
 3550SOL    HW313967   0.451   5.249   5.633  1.1994  1.8464  0.2419
 3550SOL    MW413968   0.502   5.209   5.575 -0.0219 -0.0221  0.3751
 3551SOL     OW13969   4.886   4.426   4.796 -0.2066  0.5285  0.2692
 3551SOL    HW213970   4.918   4.342   4.828 -1.4668  0.1438  0.5593
 3551SOL    HW313971   4.911   4.489   4.864 -0.0751  0.2389  0.4904
 3551SOL    MW413972   4.893   4.423   4.809 -0.3555  0.4396  0.3367
 3552SOL     OW13973   4.898   3.877   0.662  0.3469 -0.0488  0.1389
 3552SOL    HW213974   4.907   3.885   0.757 -0.3160 -1.1377  0.3204
 3552SOL    HW313975   4.873   3.964   0.632 -1.2731 -0.1034  1.2157
 3552SOL    MW413976   4.896   3.889   0.670  0.0457 -0.1997  0.3049
 3553SOL     OW13977   2.460   6.182   2.660 -0.2159  1.1125  0.4608
 3553SOL    HW213978   2.466   6.087   2.671 -0.8255  1.1586  1.2758
 3553SOL    HW313979   2.516   6.217   2.729  0.7646  1.3507 -0.4223
 3553SOL    MW413980   2.468   6.174   2.671 -0.1670  1.1500  0.4518
 3554SOL     OW13981   5.780   3.101   6.425  0.3290  0.1919  0.8298
 3554SOL    HW213982   5.790   3.010   6.455  1.6686 -1.1237 -2.9201
 3554SOL    HW313983   5.688   3.120   6.438 -0.0158 -1.7513  1.6766
 3554SOL    MW413984   5.769   3.091   6.431  0.4603 -0.2381  0.4467
 3555SOL     OW13985   5.236   1.940   3.397 -0.0351 -0.1650 -0.4569
 3555SOL    HW213986   5.211   2.012   3.455  0.5382 -1.6944  1.8137
 3555SOL    HW313987   5.163   1.878   3.403  1.1744 -1.5388  0.8051
 3555SOL    MW413988   5.223   1.941   3.405  0.2001 -0.5481  0.0092
 3556SOL     OW13989   3.294   5.425   1.669 -0.4345 -0.0371  0.4226
 3556SOL    HW213990   3.227   5.471   1.720 -0.1896  1.4649 -0.5596
 3556SOL    HW313991   3.349   5.382   1.735 -1.6033 -0.2615  1.2988
 3556SOL    MW413992   3.292   5.425   1.685 -0.5564  0.1314  0.4086
 3557SOL     OW13993   5.878   4.518   2.980  0.4009  0.2629 -0.1644
 3557SOL    HW213994   5.905   4.524   3.072 -1.6538  1.8351  0.4231
 3557SOL    HW313995   5.811   4.449   2.980  1.9912 -1.3435 -0.9720
 3557SOL    MW413996   5.873   4.510   2.992  0.3396  0.2584 -0.1934
 3558SOL     OW13997   2.063   5.798   4.117  0.8543 -0.0049 -0.4803
 3558SOL    HW213998   2.061   5.878   4.065  2.3771 -1.1398 -2.4497
 3558SOL    HW313999   2.154   5.768   4.111  0.3261 -1.8821  0.1688
 3558SOL    MW414000   2.075   5.804   4.109  0.9855 -0.4023 -0.6545
 3559SOL     OW14001   0.738   5.713   6.075 -0.2668  0.2414 -0.3412
 3559SOL    HW214002   0.792   5.639   6.048 -2.2956 -1.2356 -0.6381
 3559SOL    HW314003   0.800   5.781   6.100  1.6877 -1.0530 -1.4214
 3559SOL    MW414004   0.753   5.712   6.075 -0.2766 -0.1242 -0.5229
 3560SOL     OW14005   4.601   2.589   5.381 -0.0911  0.0390  0.1699
 3560SOL    HW214006   4.569   2.612   5.294 -0.5782  0.0518  0.3478
 3560SOL    HW314007   4.683   2.638   5.391  1.3994 -2.0075 -1.3200
 3560SOL    MW414008   4.608   2.598   5.371  0.0413 -0.2294 -0.0032
 3561SOL     OW14009   1.214   5.556   3.003  0.4509  0.0851 -0.5148
 3561SOL    HW214010   1.273   5.630   2.992  0.1620  0.4764  0.4535
 3561SOL    HW314011   1.131   5.596   3.029 -0.1219 -0.4869 -1.4116
 3561SOL    MW414012   1.211   5.571   3.005  0.3372  0.0613 -0.5054
 3562SOL     OW14013   5.946   5.623   3.920  0.5751 -0.0899  0.0997
 3562SOL    HW214014   5.898   5.656   3.844  0.7724 -0.4972 -0.2061
 3562SOL    HW314015   5.910   5.535   3.935 -0.4140  0.4837  1.3140
 3562SOL    MW414016   5.935   5.616   3.912  0.4706 -0.0680  0.2195
 3563SOL     OW14017   0.706   2.180   5.046  0.7463  0.3544  0.6155
 3563SOL    HW214018   0.775   2.127   5.086  0.6482  2.4737  4.0298
 3563SOL    HW314019   0.637   2.183   5.111  0.1435  3.3632  0.0031
 3563SOL    MW414020   0.706   2.173   5.060  0.6538  1.0310  0.9852
 3564SOL     OW14021   3.031   6.318   0.863  0.1887 -0.4295 -0.8844
 3564SOL    HW214022   2.980   6.263   0.923  0.0716 -1.8233 -2.2081
 3564SOL    HW314023   3.023   6.406   0.899 -2.6196 -0.6893 -0.6523
 3564SOL    MW414024   3.023   6.323   0.876 -0.1973 -0.6476 -1.0284
 3565SOL     OW14025   4.105   2.456   1.902 -0.2496  0.3184 -0.2084
 3565SOL    HW214026   4.175   2.404   1.863 -0.0227  0.2627  0.2653
 3565SOL    HW314027   4.113   2.542   1.861  0.2003  0.3587 -0.0417
 3565SOL    MW414028   4.116   2.460   1.892 -0.1603  0.3164 -0.1239
 3566SOL     OW14029   5.778   1.607   0.654 -0.1560  0.4870 -0.0152
 3566SOL    HW214030   5.731   1.662   0.717 -2.9495 -0.6960 -0.8801
 3566SOL    HW314031   5.743   1.519   0.668  1.8066 -0.4938 -0.8486
 3566SOL    MW414032   5.767   1.603   0.664 -0.2656  0.2015 -0.2393
 3567SOL     OW14033   5.732   6.055   0.166 -0.6513 -0.2895 -0.3633
 3567SOL    HW214034   5.737   5.989   0.096 -0.4311 -0.3268 -0.3120
 3567SOL    HW314035   5.736   6.004   0.247  1.1363 -0.1040 -0.3088
 3567SOL    MW414036   5.733   6.039   0.168 -0.3864 -0.2699 -0.3494
 3568SOL     OW14037   0.503   3.315   4.899 -0.0487  0.6462  0.4621
 3568SOL    HW214038   0.471   3.331   4.811 -0.3730  0.6167  0.5726
 3568SOL    HW314039   0.448   3.370   4.955  0.6535  1.2511  0.5747
 3568SOL    MW414040   0.491   3.324   4.895  0.0011  0.7221  0.4915
 3569SOL     OW14041   2.861   2.632   3.322 -0.2799 -0.3701 -0.0617
 3569SOL    HW214042   2.928   2.575   3.285 -0.2160 -0.5651  0.3514
 3569SOL    HW314043   2.839   2.592   3.406  0.7533  0.9402  0.8725
 3569SOL    MW414044   2.867   2.619   3.328 -0.1352 -0.2230  0.1160
 3570SOL     OW14045   2.843   3.652   5.287  0.4412 -0.3810 -0.2388
 3570SOL    HW214046   2.755   3.658   5.324  1.4273  1.3595  2.0641
 3570SOL    HW314047   2.838   3.580   5.224 -2.5171 -0.5263  0.0349
 3570SOL    MW414048   2.831   3.644   5.283  0.1810 -0.1705  0.1011
 3571SOL     OW14049   4.667   0.683   6.225  0.8101  0.0673 -0.3267
 3571SOL    HW214050   4.716   0.619   6.276  1.8457  0.5432 -0.6921
 3571SOL    HW314051   4.644   0.636   6.144 -0.0732 -0.4102  0.1837
 3571SOL    MW414052   4.670   0.668   6.221  0.8302  0.0671 -0.3076
 3572SOL     OW14053   6.229   3.076   6.338 -0.2398  0.3457  0.2975
 3572SOL    HW214054   6.187   3.154   6.373  0.3828  1.2719 -0.8957
 3572SOL    HW314055   6.162   3.008   6.339 -1.1163  1.2042  0.3774
 3572SOL    MW414056   6.215   3.077   6.343 -0.2733  0.5811  0.1507
 3573SOL     OW14057   5.030   6.328   4.425 -0.7663 -0.2933  0.2549
 3573SOL    HW214058   5.049   6.250   4.373 -0.3153  0.4666 -0.7572
 3573SOL    HW314059   4.952   6.365   4.385  0.4301  1.1218 -0.9150
 3573SOL    MW414060   5.022   6.323   4.413 -0.5489 -0.0063 -0.0330
 3574SOL     OW14061   5.860   3.094   3.858  0.1852  0.3319  0.6379
 3574SOL    HW214062   5.806   3.030   3.905  0.6240  0.6813  1.6359
 3574SOL    HW314063   5.936   3.108   3.915  0.2393  1.5200  0.3003
 3574SOL    MW414064   5.863   3.087   3.872  0.2502  0.5348  0.7250
 3575SOL     OW14065   5.150   0.299   1.226  0.0284  0.2179 -0.2402
 3575SOL    HW214066   5.103   0.361   1.282 -1.6587 -1.5551  0.4326
 3575SOL    HW314067   5.117   0.316   1.138  1.2642  1.7284 -0.4557
 3575SOL    MW414068   5.139   0.309   1.222 -0.0311  0.1833 -0.1799
 3576SOL     OW14069   0.734   4.618   3.085 -0.0443 -0.1996 -0.7148
 3576SOL    HW214070   0.758   4.711   3.077  0.7301 -0.3804 -0.5888
 3576SOL    HW314071   0.814   4.571   3.063 -0.2170 -0.8365 -0.0237
 3576SOL    MW414072   0.748   4.624   3.081  0.0351 -0.3075 -0.6070
 3577SOL     OW14073   5.034   4.220   2.688  0.3235  0.1270 -0.2695
 3577SOL    HW214074   4.964   4.258   2.636  0.7988  1.5909  0.1295
 3577SOL    HW314075   5.115   4.248   2.645  0.6974  0.3218  0.5367
 3577SOL    MW414076   5.035   4.228   2.675  0.4355  0.3459 -0.1105
 3578SOL     OW14077   4.545   2.707   1.056 -0.0232 -0.1216 -0.1272
 3578SOL    HW214078   4.544   2.801   1.037 -1.0942  0.0990  0.8966
 3578SOL    HW314079   4.637   2.687   1.072  0.2254  0.7449 -0.4139
 3578SOL    MW414080   4.557   2.717   1.056 -0.1317  0.0219 -0.0299
 3579SOL     OW14081   6.060   5.693   1.584  0.2805 -0.1418 -0.1732
 3579SOL    HW214082   5.992   5.626   1.588  0.9400 -0.7898  0.5317
 3579SOL    HW314083   6.074   5.718   1.675  2.5526 -1.6656 -0.0164
 3579SOL    MW414084   6.053   5.687   1.597  0.6673 -0.4283 -0.0595
 3580SOL     OW14085   2.309   1.487   0.613  0.7449 -0.0621 -0.5806
 3580SOL    HW214086   2.393   1.461   0.651  0.5250 -0.5319 -0.4058
 3580SOL    HW314087   2.244   1.431   0.656 -0.0016  2.0386  1.1600
 3580SOL    MW414088   2.311   1.476   0.623  0.6174  0.1531 -0.3279
 3581SOL     OW14089   2.033   2.166   4.366  0.0536  0.0579 -0.0936
 3581SOL    HW214090   2.074   2.184   4.282  1.4197 -3.1094 -0.2593
 3581SOL    HW314091   1.939   2.169   4.347  0.3218  0.2770 -1.5397
 3581SOL    MW414092   2.026   2.168   4.352  0.2692 -0.3311 -0.3063
 3582SOL     OW14093   1.248   5.631   6.251 -0.1109  0.1741  0.0877
 3582SOL    HW214094   1.192   5.701   6.284  2.2957  2.5452 -0.5041
 3582SOL    HW314095   1.240   5.637   6.156  1.2245  0.6664 -0.0115
 3582SOL    MW414096   1.240   5.641   6.243  0.3828  0.5519 -0.0035
 3583SOL     OW14097   5.177   5.542   3.364  0.4992  0.3288 -0.6046
 3583SOL    HW214098   5.146   5.476   3.426  1.1914  0.0582 -0.5374
 3583SOL    HW314099   5.267   5.515   3.343  1.5954  2.3837  1.0538
 3583SOL    MW414100   5.185   5.530   3.369  0.7352  0.5642 -0.3769
 3584SOL     OW14101   2.169   1.049   0.220  0.2438  0.1886  0.9308
 3584SOL    HW214102   2.170   1.133   0.265  1.1551  0.6096  0.1714
 3584SOL    HW314103   2.190   0.985   0.288  1.2836  0.7786  1.1899
 3584SOL    MW414104   2.172   1.051   0.235  0.5013  0.3220  0.8648
 3585SOL     OW14105   6.376   3.994   4.815  0.3656  0.1289  0.1463
 3585SOL    HW214106   6.431   4.004   4.893 -1.4435 -0.4784  1.5757
 3585SOL    HW314107   6.376   3.900   4.797 -1.4586 -0.1352  1.2104
 3585SOL    MW414108   6.383   3.983   4.823 -0.1137  0.0139  0.4753
 3586SOL     OW14109   2.225   1.943   4.331 -0.0154 -0.5008  0.0263
 3586SOL    HW214110   2.205   1.864   4.280  1.1324  0.2138 -1.5963
 3586SOL    HW314111   2.145   1.995   4.328 -0.2611 -0.8912 -0.2442
 3586SOL    MW414112   2.212   1.939   4.324  0.1036 -0.4580 -0.2235
 3587SOL     OW14113   4.364   0.671   0.091 -0.2599 -0.4742 -0.4182
 3587SOL    HW214114   4.397   0.735   0.154  1.1053 -1.1251 -0.4499
 3587SOL    HW314115   4.415   0.592   0.108  0.4703 -0.5406 -2.6381
 3587SOL    MW414116   4.375   0.669   0.102  0.0166 -0.5688 -0.7153
 3588SOL     OW14117   2.963   3.112   4.822  0.2537 -0.0768  0.4910
 3588SOL    HW214118   2.945   3.097   4.914  1.6695  1.2997  1.0540
 3588SOL    HW314119   2.882   3.150   4.787 -0.0925 -0.0373  1.3177
 3588SOL    MW414120   2.950   3.115   4.829  0.3948  0.1100  0.6743
 3589SOL     OW14121   6.023   2.872   6.338  0.0294 -0.3891 -0.4444
 3589SOL    HW214122   6.077   2.794   6.325  0.2813 -0.1992 -0.5463
 3589SOL    HW314123   5.955   2.864   6.271  0.3833 -0.2389 -0.8298
 3589SOL    MW414124   6.021   2.861   6.327  0.1093 -0.3442 -0.5087
 3590SOL     OW14125   3.289   6.138   3.718 -0.4638 -0.8037  0.0391
 3590SOL    HW214126   3.258   6.181   3.639 -1.3181  0.7037  1.1481
 3590SOL    HW314127   3.305   6.048   3.691 -0.7618 -0.3427 -1.8297
 3590SOL    MW414128   3.287   6.132   3.704 -0.6158 -0.5440 -0.0612
 3591SOL     OW14129   4.771   6.153   4.997  0.2756  0.4613  0.4018
 3591SOL    HW214130   4.803   6.147   4.907  1.9592 -1.0521  1.0601
 3591SOL    HW314131   4.735   6.242   5.003 -0.1065  0.5236 -1.8065
 3591SOL    MW414132   4.770   6.164   4.986  0.4473  0.2699  0.1973
 3592SOL     OW14133   0.924   2.040   5.093  0.3879 -0.0456 -0.7085
 3592SOL    HW214134   0.970   2.118   5.123 -1.8648  1.0700  0.0715
 3592SOL    HW314135   0.919   1.983   5.169 -0.8950  0.5641 -0.3079
 3592SOL    MW414136   0.929   2.042   5.107 -0.0785  0.1820 -0.5527
 3593SOL     OW14137   1.412   1.641   5.645  0.4189 -0.4641 -0.0198
 3593SOL    HW214138   1.434   1.673   5.733 -0.4061 -0.0729  0.0546
 3593SOL    HW314139   1.450   1.553   5.642  1.2805 -0.1247  0.3772
 3593SOL    MW414140   1.420   1.633   5.656  0.4237 -0.3677  0.0424
 3594SOL     OW14141   4.441   4.502   0.566 -0.5423 -0.2085 -0.0990
 3594SOL    HW214142   4.371   4.563   0.589  0.0418  0.7467 -0.8012
 3594SOL    HW314143   4.421   4.476   0.476  0.7771  1.1980 -0.8298
 3594SOL    MW414144   4.429   4.506   0.557 -0.2911  0.1031 -0.2880
 3595SOL     OW14145   5.965   3.843   6.216  0.0956  0.8014  0.1639
 3595SOL    HW214146   5.910   3.892   6.277 -0.3436  0.3487  0.1361
 3595SOL    HW314147   6.055   3.862   6.244 -0.0984 -0.4639  1.8333
 3595SOL    MW414148   5.970   3.852   6.228  0.0121  0.5747  0.3805
 3596SOL     OW14149   4.400   4.404   2.315  0.4338 -0.3527  0.4813
 3596SOL    HW214150   4.400   4.332   2.252  0.4880 -0.3010  0.4216
 3596SOL    HW314151   4.307   4.425   2.326  0.3774 -0.8299  0.9622
 3596SOL    MW414152   4.388   4.397   2.308  0.4335 -0.4088  0.5369
 3597SOL     OW14153   2.951   3.585   2.517 -0.9877 -0.3941 -0.3936
 3597SOL    HW214154   3.034   3.538   2.526 -1.7888 -2.1150 -1.4463
 3597SOL    HW314155   2.890   3.535   2.572 -1.8367 -0.5681 -1.4574
 3597SOL    MW414156   2.954   3.572   2.526 -1.2054 -0.6441 -0.6729
 3598SOL     OW14157   2.126   3.271   1.198  0.2834  0.2722 -0.0615
 3598SOL    HW214158   2.206   3.238   1.157 -0.3617  1.8181 -2.8063
 3598SOL    HW314159   2.080   3.192   1.226  1.6658 -0.7836 -0.6227
 3598SOL    MW414160   2.131   3.256   1.196  0.3807  0.3369 -0.4977
 3599SOL     OW14161   0.698   3.131   4.160  0.3741  0.6560 -0.7926
 3599SOL    HW214162   0.697   3.181   4.241  0.4345  0.8396 -0.9036
 3599SOL    HW314163   0.791   3.115   4.144  0.2751 -1.9126  0.7134
 3599SOL    MW414164   0.710   3.136   4.168  0.3690  0.3413 -0.6085
 3600SOL     OW14165   1.173   5.806   4.145 -0.2388  0.3944  0.3599
 3600SOL    HW214166   1.226   5.846   4.077 -0.5823  2.7565  1.3763
 3600SOL    HW314167   1.233   5.748   4.192  0.3267 -0.2032 -1.0612
 3600SOL    MW414168   1.188   5.804   4.142 -0.2095  0.6272  0.3065
 3601SOL     OW14169   0.585   4.291   0.229  0.3533  0.0200  0.6750
 3601SOL    HW214170   0.538   4.296   0.146  1.5860 -0.1893 -0.0563
 3601SOL    HW314171   0.518   4.309   0.296 -1.1351 -1.9076 -0.2031
 3601SOL    MW414172   0.570   4.294   0.227  0.3195 -0.2619  0.4626
 3602SOL     OW14173   4.596   2.489   6.319 -0.0339  0.1995 -0.1484
 3602SOL    HW214174   4.517   2.443   6.289  0.3471 -1.5486  1.3286
 3602SOL    HW314175   4.595   2.572   6.271 -2.7872  0.2664 -0.1393
 3602SOL    MW414176   4.585   2.493   6.309 -0.3469 -0.0223  0.0477
 3603SOL     OW14177   4.638   2.048   0.641  0.6424 -0.0801 -0.1635
 3603SOL    HW214178   4.592   2.126   0.611 -2.3474 -0.9542  1.7988
 3603SOL    HW314179   4.617   1.981   0.575  0.3071 -0.1046 -0.0325
 3603SOL    MW414180   4.629   2.049   0.628  0.2037 -0.1987  0.1127
 3604SOL     OW14181   4.911   5.730   4.302 -0.3177 -0.4427 -0.0247
 3604SOL    HW214182   4.839   5.715   4.364  1.0919 -1.4747  1.4872
 3604SOL    HW314183   4.982   5.763   4.357  0.0859  1.5487 -1.6420
 3604SOL    MW414184   4.911   5.732   4.318 -0.0785 -0.3161 -0.0386
 3605SOL     OW14185   4.252   4.000   5.299 -0.0776  1.2695  0.0638
 3605SOL    HW214186   4.270   4.056   5.374  0.2865  0.7980  0.3332
 3605SOL    HW314187   4.299   3.918   5.318  0.2708  1.2528 -0.8093
 3605SOL    MW414188   4.261   3.996   5.311  0.0164  1.2051 -0.0159
 3606SOL     OW14189   4.692   0.636   3.242  0.8054  0.4840  0.2352
 3606SOL    HW214190   4.746   0.589   3.305  0.9904  0.8581  0.3588
 3606SOL    HW314191   4.752   0.657   3.170  0.2302 -1.4017 -0.8638
 3606SOL    MW414192   4.707   0.633   3.241  0.7539  0.2846  0.1066
 3607SOL     OW14193   4.009   1.081   6.347  0.5546  0.3119 -0.0395
 3607SOL    HW214194   4.013   1.024   6.270 -0.9185 -1.5466  1.1564
 3607SOL    HW314195   4.063   1.036   6.413  0.3735  0.9404  0.5483
 3607SOL    MW414196   4.016   1.067   6.346  0.3364  0.1496  0.1958
 3608SOL     OW14197   0.328   2.904   0.434  0.0815  0.4298  0.1528
 3608SOL    HW214198   0.328   2.987   0.481 -1.2977  0.6738 -0.2164
 3608SOL    HW314199   0.357   2.840   0.498  0.1595  1.0393  0.7428
 3608SOL    MW414200   0.332   2.907   0.448 -0.0902  0.5424  0.1819
 3609SOL     OW14201   4.838   2.495   6.109 -0.5176 -0.1219 -0.1866
 3609SOL    HW214202   4.770   2.558   6.087 -0.9811 -1.0452 -1.5501
 3609SOL    HW314203   4.866   2.459   6.024  0.0844 -1.3744  0.5083
 3609SOL    MW414204   4.833   2.499   6.095 -0.4994 -0.4090 -0.2748
 3610SOL     OW14205   3.109   6.283   1.216  0.5345  0.1963 -0.3287
 3610SOL    HW214206   3.167   6.344   1.171 -0.2964  1.0191 -0.3098
 3610SOL    HW314207   3.081   6.330   1.295  0.4513 -0.4861  0.0534
 3610SOL    MW414208   3.113   6.297   1.220  0.4139  0.2148 -0.2758
 3611SOL     OW14209   1.228   0.926   5.225 -0.2241 -0.6383 -0.4310
 3611SOL    HW214210   1.183   0.856   5.273  0.6284 -1.0478 -0.2064
 3611SOL    HW314211   1.293   0.879   5.172  0.6539  0.0132  0.0506
 3611SOL    MW414212   1.230   0.910   5.224  0.0042 -0.6064 -0.3378
 3612SOL     OW14213   0.732   2.736   0.240  0.3808 -0.1061 -0.2399
 3612SOL    HW214214   0.802   2.682   0.277 -0.0283 -0.7489 -0.3845
 3612SOL    HW314215   0.766   2.825   0.242  0.1978 -0.0512  2.0824
 3612SOL    MW414216   0.746   2.741   0.245  0.3027 -0.1836  0.0474
 3613SOL     OW14217   4.720   5.456   1.456 -0.1801 -0.3588  0.1005
 3613SOL    HW214218   4.755   5.522   1.516 -2.3732  0.2642  0.7825
 3613SOL    HW314219   4.722   5.497   1.370  0.7125 -0.3440  0.1170
 3613SOL    MW414220   4.725   5.470   1.453 -0.3517 -0.2746  0.1927
 3614SOL     OW14221   0.306   1.234   1.921 -0.5042 -1.0737  0.2902
 3614SOL    HW214222   0.212   1.241   1.934 -0.5650  0.5492 -0.7168
 3614SOL    HW314223   0.326   1.299   1.853  1.0599 -2.6526 -0.8828
 3614SOL    MW414224   0.297   1.243   1.913 -0.3059 -1.0679  0.0026
 3615SOL     OW14225   0.233   4.640   3.605  0.6138 -0.4435  0.4027
 3615SOL    HW214226   0.265   4.560   3.565  1.1348 -0.5960  1.0997
 3615SOL    HW314227   0.203   4.694   3.532  0.8182 -1.0254 -0.1157
 3615SOL    MW414228   0.233   4.637   3.590  0.7095 -0.5404  0.4263
 3616SOL     OW14229   2.980   1.992   3.822  0.0034  0.0381  0.7483
 3616SOL    HW214230   2.898   1.958   3.858 -0.4411  1.0373  0.7289
 3616SOL    HW314231   3.035   2.009   3.899 -0.5041  1.0591  0.9085
 3616SOL    MW414232   2.977   1.990   3.837 -0.1222  0.3046  0.7669
 3617SOL     OW14233   4.178   3.333   2.636 -0.1997 -0.6638  0.4881
 3617SOL    HW214234   4.121   3.342   2.560  0.6814 -1.0937 -0.2486
 3617SOL    HW314235   4.179   3.239   2.654 -0.1179 -0.6020  0.8121
 3617SOL    MW414236   4.171   3.322   2.628 -0.0727 -0.7123  0.4336
 3618SOL     OW14237   0.317   3.271   2.469 -0.2150  0.1339 -0.7666
 3618SOL    HW214238   0.283   3.211   2.536  0.1656  0.7280 -0.0362
 3618SOL    HW314239   0.386   3.320   2.513 -1.2773  1.9259 -1.0044
 3618SOL    MW414240   0.321   3.269   2.484 -0.3050  0.4487 -0.7016
 3619SOL     OW14241   0.009   5.673   2.645 -0.0890 -0.2015  0.2193
 3619SOL    HW214242  -0.022   5.762   2.626 -0.2927 -0.1750  0.6550
 3619SOL    HW314243  -0.006   5.662   2.739  0.4862 -0.4843  0.2822
 3619SOL    MW414244   0.003   5.683   2.655 -0.0400 -0.2353  0.2851
 3620SOL     OW14245   0.732   2.146   3.322 -0.1056  0.6184 -0.0991
 3620SOL    HW214246   0.745   2.240   3.310  2.7544  0.2327 -0.8046
 3620SOL    HW314247   0.764   2.106   3.240 -0.3554 -1.0167  0.5520
 3620SOL    MW414248   0.738   2.153   3.309  0.2388  0.3518 -0.1063
 3621SOL     OW14249   5.435   5.166   4.472 -0.2377 -0.1026 -0.1526
 3621SOL    HW214250   5.472   5.088   4.432 -1.7705 -1.0388  0.1989
 3621SOL    HW314251   5.371   5.198   4.409  0.5525  1.0447 -0.4087
 3621SOL    MW414252   5.432   5.160   4.459 -0.3357 -0.0747 -0.1400
 3622SOL     OW14253   3.530   2.565   6.085 -0.4891  0.1941 -0.1456
 3622SOL    HW214254   3.524   2.585   5.992  1.5753  1.2495 -0.1146
 3622SOL    HW314255   3.587   2.488   6.089  0.3309  0.8064  0.2721
 3622SOL    MW414256   3.537   2.558   6.074 -0.1085  0.4141 -0.0864
 3623SOL     OW14257   6.081   0.773   2.912  0.2323 -0.4514 -0.0486
 3623SOL    HW214258   6.120   0.774   3.000 -0.4140  1.4614  0.2770
 3623SOL    HW314259   6.157   0.770   2.853  0.8274  0.8737  0.5914
 3623SOL    MW414260   6.096   0.773   2.916  0.2255 -0.0242  0.0788
 3624SOL     OW14261   5.360   0.333   5.536 -0.4984  0.6253  0.4519
 3624SOL    HW214262   5.374   0.242   5.561 -2.1062  0.1929 -0.1145
 3624SOL    HW314263   5.403   0.384   5.606  0.3003 -0.5402  0.8404
 3624SOL    MW414264   5.368   0.328   5.549 -0.6051  0.4145  0.4284
 3625SOL     OW14265   6.005   5.906   5.866  0.6725  0.1603  0.0574
 3625SOL    HW214266   5.968   5.868   5.945  0.7837 -0.3357 -0.1203
 3625SOL    HW314267   6.042   5.989   5.894 -0.0326  0.3807  0.3554
 3625SOL    MW414268   6.005   5.912   5.880  0.5941  0.1240  0.0733
 3626SOL     OW14269   2.581   3.152   0.326 -0.7326  0.2418  0.0750
 3626SOL    HW214270   2.496   3.183   0.297 -0.7319  0.8016  0.6665
 3626SOL    HW314271   2.629   3.231   0.351 -0.2260 -0.1123  0.2401
 3626SOL    MW414272   2.576   3.166   0.325 -0.6657  0.2690  0.1748
 3627SOL     OW14273   0.066   0.310   3.708  0.2331  0.7890 -0.1791
 3627SOL    HW214274   0.069   0.248   3.635  1.6110  0.1076  0.4180
 3627SOL    HW314275   0.147   0.294   3.756  0.1278  2.3679  0.5756
 3627SOL    MW414276   0.077   0.300   3.705  0.4010  0.9074 -0.0007
 3628SOL     OW14277   0.221   6.007   1.450  0.0678 -0.7045  0.1244
 3628SOL    HW214278   0.227   5.951   1.527 -1.2937 -0.9179  0.1052
 3628SOL    HW314279   0.129   6.035   1.448 -0.4398 -2.2458 -2.4747
 3628SOL    MW414280   0.209   6.004   1.460 -0.1788 -0.9360 -0.2211
 3629SOL     OW14281   2.959   3.688   0.183 -0.3503 -0.5875  0.0821
 3629SOL    HW214282   2.904   3.677   0.106 -0.6224 -1.8533  0.4339
 3629SOL    HW314283   2.905   3.656   0.256  0.4338 -0.8049  0.5835
 3629SOL    MW414284   2.945   3.682   0.182 -0.2827 -0.7832  0.1947
 3630SOL     OW14285   2.100   2.967   5.862  0.7608 -0.1332 -0.6936
 3630SOL    HW214286   2.050   2.893   5.828  4.3038 -2.5818 -1.1406
 3630SOL    HW314287   2.038   3.014   5.918 -2.8581 -0.9150 -3.6160
 3630SOL    MW414288   2.085   2.964   5.865  0.7508 -0.5594 -1.1382
 3631SOL     OW14289   1.199   5.590   4.753  0.1191  0.2962  0.5441
 3631SOL    HW214290   1.185   5.600   4.848  2.6466 -0.4437  1.0782
 3631SOL    HW314291   1.156   5.666   4.714 -2.8841 -0.4898  2.0316
 3631SOL    MW414292   1.191   5.601   4.761  0.0563  0.0949  0.8108
 3632SOL     OW14293   2.114   1.240   2.972 -0.1379  0.4173 -0.8208
 3632SOL    HW214294   2.027   1.277   2.984 -0.6087 -0.9627  0.3028
 3632SOL    HW314295   2.170   1.315   2.953 -0.8491  1.9225  2.3735
 3632SOL    MW414296   2.110   1.255   2.971 -0.2938  0.4338 -0.2511
 3633SOL     OW14297   0.895   5.541   2.557 -0.1642 -0.0285  0.0035
 3633SOL    HW214298   0.990   5.536   2.553 -0.2451 -1.9450 -0.9448
 3633SOL    HW314299   0.870   5.591   2.479  0.0655  1.3647  0.7883
 3633SOL    MW414300   0.904   5.547   2.546 -0.1446 -0.0975 -0.0181
 3634SOL     OW14301   0.213   5.955   2.772 -0.0728 -0.3268 -0.5536
 3634SOL    HW214302   0.242   6.046   2.762 -0.9191 -0.1020 -1.0207
 3634SOL    HW314303   0.292   5.908   2.798  0.4990  0.4459 -0.8465
 3634SOL    MW414304   0.228   5.961   2.774 -0.1090 -0.1952 -0.6539
 3635SOL     OW14305   2.361   1.339   4.965 -0.1823  0.5444 -0.5919
 3635SOL    HW214306   2.384   1.421   5.009 -0.8262  0.0876  0.6112
 3635SOL    HW314307   2.283   1.360   4.914 -1.1187  0.3704  0.7396
 3635SOL    MW414308   2.354   1.353   4.964 -0.3908  0.4611 -0.2575
 3636SOL     OW14309   4.089   5.908   4.105  0.1957 -0.2375 -0.5322
 3636SOL    HW214310   4.153   5.957   4.157 -0.0573 -1.1377  0.6854
 3636SOL    HW314311   4.131   5.895   4.020  0.5367  1.4618 -0.6558
 3636SOL    MW414312   4.103   5.912   4.101  0.2073 -0.1321 -0.3878
 3637SOL     OW14313   5.927   2.176   0.223  0.5148 -0.4001 -0.2404
 3637SOL    HW214314   5.977   2.192   0.303 -0.6651 -0.1498  0.4718
 3637SOL    HW314315   5.859   2.243   0.224 -1.8051 -2.5993  0.5066
 3637SOL    MW414316   5.925   2.187   0.234  0.0531 -0.6572 -0.0479
 3638SOL     OW14317   2.309   4.704   4.031  0.6913 -0.2360 -0.0014
 3638SOL    HW214318   2.230   4.682   3.981  1.3474 -2.1451 -0.2558
 3638SOL    HW314319   2.372   4.636   4.009  1.0618 -1.1545  3.3581
 3638SOL    MW414320   2.307   4.692   4.022  0.8267 -0.6091  0.4083
 3639SOL     OW14321   2.638   1.540   1.405 -0.1900 -0.3684 -0.1865
 3639SOL    HW214322   2.560   1.554   1.459 -0.0993  0.3756 -0.2296
 3639SOL    HW314323   2.606   1.551   1.315 -0.1920 -0.8529 -0.2449
 3639SOL    MW414324   2.624   1.544   1.400 -0.1783 -0.3341 -0.1999
 3640SOL     OW14325   2.658   5.759   1.233  0.6756  0.2690  0.3275
 3640SOL    HW214326   2.708   5.839   1.251  1.0151  0.2307 -0.4143
 3640SOL    HW314327   2.660   5.750   1.138 -0.0281 -0.2011  0.3450
 3640SOL    MW414328   2.665   5.769   1.223  0.6275  0.2019  0.2319
 3641SOL     OW14329   2.508   6.382   5.883  0.1255 -0.5991 -0.1135
 3641SOL    HW214330   2.418   6.356   5.906  0.3431 -1.3513 -0.0645
 3641SOL    HW314331   2.563   6.336   5.947  0.4815  0.8737  0.6685
 3641SOL    MW414332   2.503   6.372   5.894  0.2012 -0.5040 -0.0039
 3642SOL     OW14333   3.430   2.938   1.538 -0.5419 -0.6760 -0.1092
 3642SOL    HW214334   3.479   2.977   1.466 -1.5278  0.5821 -0.1434
 3642SOL    HW314335   3.483   2.863   1.566  0.4962 -0.4066 -1.2750
 3642SOL    MW414336   3.444   2.933   1.532 -0.5350 -0.4745 -0.2675
 3643SOL     OW14337   5.881   2.468   3.430  0.1280  0.4531 -0.6261
 3643SOL    HW214338   5.882   2.403   3.359 -0.6791  0.4473 -0.6467
 3643SOL    HW314339   5.912   2.549   3.389 -1.1233  0.6617 -1.2242
 3643SOL    MW414340   5.885   2.470   3.415 -0.1436  0.4798 -0.7077
 3644SOL     OW14341   2.625   3.597   3.335  0.2826 -0.1966  0.2522
 3644SOL    HW214342   2.544   3.643   3.358 -0.2690  0.4816 -2.6166
 3644SOL    HW314343   2.659   3.566   3.419 -0.8840  2.8634  2.0632
 3644SOL    MW414344   2.619   3.599   3.349  0.0559  0.2966  0.1127
 3645SOL     OW14345   0.737   2.230   0.971  0.7998  0.4376  0.8194
 3645SOL    HW214346   0.798   2.255   0.902 -0.9223  0.3317 -0.8235
 3645SOL    HW314347   0.735   2.134   0.967 -0.5759  0.4697 -0.2267
 3645SOL    MW414348   0.745   2.220   0.962  0.3911  0.4279  0.4646
 3646SOL     OW14349   5.834   2.897   0.927  0.0585  0.7639 -0.1370
 3646SOL    HW214350   5.905   2.833   0.917 -0.0770  0.4107  1.0384
 3646SOL    HW314351   5.855   2.965   0.863  2.1090  1.2410  0.9613
 3646SOL    MW414352   5.846   2.898   0.917  0.3112  0.7803  0.1630
 3647SOL     OW14353   4.158   0.300   1.783 -0.1031 -0.4961 -0.0963
 3647SOL    HW214354   4.154   0.360   1.709 -1.1463 -1.3032 -0.7174
 3647SOL    HW314355   4.226   0.337   1.840 -0.2254  0.8717 -0.7952
 3647SOL    MW414356   4.166   0.313   1.781 -0.2569 -0.4221 -0.2704
 3648SOL     OW14357   5.963   4.234   0.244  0.1020 -0.3124  0.3810
 3648SOL    HW214358   5.871   4.259   0.230 -0.3723 -1.8416  0.5463
 3648SOL    HW314359   5.982   4.262   0.333 -1.8671 -4.2660  2.3501
 3648SOL    MW414360   5.953   4.241   0.254 -0.2204 -1.0358  0.6626
 3649SOL     OW14361   4.968   3.456   2.552  0.3250 -0.0893 -0.2234
 3649SOL    HW214362   5.013   3.448   2.468 -1.4244  0.4530 -1.2700
 3649SOL    HW314363   4.911   3.380   2.557 -2.5633  1.8305 -1.4955
 3649SOL    MW414364   4.967   3.445   2.542 -0.2869  0.2355 -0.5293
 3650SOL     OW14365   2.975   2.966   4.406  0.1132  0.0925  0.4415
 3650SOL    HW214366   3.069   2.955   4.416 -0.0235 -0.4637  1.1934
 3650SOL    HW314367   2.937   2.900   4.464 -0.7417  1.0787  1.0424
 3650SOL    MW414368   2.982   2.956   4.415 -0.0176  0.1493  0.6200
 3651SOL     OW14369   0.329   3.644   1.226  0.0325  0.2413  0.0230
 3651SOL    HW214370   0.276   3.575   1.185 -0.9006  1.0268 -0.1277
 3651SOL    HW314371   0.321   3.718   1.166  1.4328  0.3432 -0.0668
 3651SOL    MW414372   0.321   3.644   1.212  0.0941  0.3584 -0.0087
 3652SOL     OW14373   2.735   2.756   5.118 -0.4175  0.6742 -0.1239
 3652SOL    HW214374   2.687   2.797   5.046 -0.4139  0.5433 -0.2000
 3652SOL    HW314375   2.818   2.730   5.080 -1.2735 -1.4455 -0.6668
 3652SOL    MW414376   2.740   2.758   5.104 -0.5299  0.3772 -0.2055
 3653SOL     OW14377   4.634   0.394   2.288  0.2572  0.1393  0.1561
 3653SOL    HW214378   4.719   0.436   2.298  0.3988 -0.5528  2.2759
 3653SOL    HW314379   4.653   0.300   2.293 -0.6373 -0.0175  0.9026
 3653SOL    MW414380   4.648   0.387   2.290  0.1579  0.0273  0.5342
 3654SOL     OW14381   0.787   4.418   2.348  0.5070 -0.2513  0.3772
 3654SOL    HW214382   0.765   4.454   2.262 -1.2235  0.7702  1.2010
 3654SOL    HW314383   0.726   4.345   2.361 -0.9723  1.1389  1.7135
 3654SOL    MW414384   0.776   4.413   2.339  0.0835  0.0669  0.6622
 3655SOL     OW14385   1.997   3.506   3.293  0.5199 -0.1757 -0.0500
 3655SOL    HW214386   1.969   3.485   3.382  0.1035 -1.9023 -0.5509
 3655SOL    HW314387   1.924   3.556   3.256 -0.3743 -1.5083 -0.1641
 3655SOL    MW414388   1.984   3.510   3.300  0.3470 -0.5793 -0.1312
 3656SOL     OW14389   0.302   0.199   4.902 -0.0671 -0.2384  0.2649
 3656SOL    HW214390   0.316   0.277   4.955 -1.9592 -0.3973  1.0500
 3656SOL    HW314391   0.287   0.232   4.813 -2.9855  0.5180  0.9530
 3656SOL    MW414392   0.302   0.213   4.897 -0.7017 -0.1595  0.4593
 3657SOL     OW14393   1.333   3.503   5.365  0.3494 -0.4199  0.3730
 3657SOL    HW214394   1.338   3.417   5.323  1.1638 -0.1197 -0.1653
 3657SOL    HW314395   1.284   3.487   5.446  1.1322 -1.5361  0.6493
 3657SOL    MW414396   1.327   3.490   5.370  0.5602 -0.5276  0.3385
 3658SOL     OW14397   5.015   3.140   3.735  0.0683 -0.1231  0.6494
 3658SOL    HW214398   4.922   3.131   3.755 -0.2321 -0.3399 -0.7317
 3658SOL    HW314399   5.053   3.055   3.757 -0.2499 -0.3566  0.3134
 3658SOL    MW414400   5.008   3.127   3.741 -0.0133 -0.1825  0.4228
 3659SOL     OW14401   5.977   0.396   1.634 -0.0689  0.0601 -0.5314
 3659SOL    HW214402   5.905   0.431   1.686  0.4712  0.6031 -0.1381
 3659SOL    HW314403   5.938   0.378   1.548 -1.3408 -2.2309  0.4265
 3659SOL    MW414404   5.962   0.398   1.629 -0.1655 -0.1705 -0.3531
 3660SOL     OW14405   6.210   2.587   4.663 -0.3037  0.3557 -0.3599
 3660SOL    HW214406   6.193   2.563   4.753 -1.3705  0.4887 -0.5230
 3660SOL    HW314407   6.256   2.671   4.669  0.4215 -0.0610  0.0791
 3660SOL    MW414408   6.214   2.595   4.675 -0.3488  0.3183 -0.3235
 3661SOL     OW14409   4.977   5.689   4.802  0.3390 -0.0677 -0.3609
 3661SOL    HW214410   4.956   5.618   4.741  1.6727 -0.5741 -0.2628
 3661SOL    HW314411   5.048   5.654   4.856  1.5966  1.6049 -0.8507
 3661SOL    MW414412   4.984   5.675   4.801  0.6809  0.0861 -0.4126
 3662SOL     OW14413   1.232   0.847   5.867 -0.0897  0.1273  0.2825
 3662SOL    HW214414   1.243   0.942   5.859  0.4350 -0.0388 -1.3630
 3662SOL    HW314415   1.322   0.813   5.870 -0.0128 -0.5787 -3.8796
 3662SOL    MW414416   1.246   0.855   5.867 -0.0104  0.0122 -0.4838
 3663SOL     OW14417   4.639   4.606   0.182 -0.5151 -0.1600  0.4681
 3663SOL    HW214418   4.677   4.581   0.265 -2.0456 -0.0919  1.2266
 3663SOL    HW314419   4.610   4.524   0.142 -1.9535 -0.0232  1.1445
 3663SOL    MW414420   4.640   4.592   0.187 -0.9068 -0.1330  0.6575
 3664SOL     OW14421   5.489   1.719   5.440 -0.1951 -0.2399  0.5596
 3664SOL    HW214422   5.493   1.640   5.495  0.9501 -1.3088 -0.9486
 3664SOL    HW314423   5.462   1.687   5.354 -1.4474  1.3161  0.3263
 3664SOL    MW414424   5.486   1.704   5.436 -0.2093 -0.1756  0.3298
 3665SOL     OW14425   2.568   5.863   3.464 -0.1962 -0.1273  0.3721
 3665SOL    HW214426   2.624   5.916   3.407  1.5449 -2.1461  0.0976
 3665SOL    HW314427   2.562   5.914   3.545  0.7332  0.8943 -0.1745
 3665SOL    MW414428   2.575   5.877   3.467  0.1561 -0.2589  0.2637
 3666SOL     OW14429   2.120   2.500   4.133  0.4336 -0.5223 -0.0379
 3666SOL    HW214430   2.122   2.595   4.121  0.1104 -0.5575 -0.3821
 3666SOL    HW314431   2.027   2.477   4.130  0.3629 -0.6312  1.8434
 3666SOL    MW414432   2.108   2.510   4.131  0.3816 -0.5413  0.1649
 3667SOL     OW14433   0.565   4.749   1.966 -0.3588 -0.0456 -0.3573
 3667SOL    HW214434   0.595   4.696   2.040 -2.8307 -1.1175 -0.0326
 3667SOL    HW314435   0.636   4.812   1.952  0.2498  0.1536  2.8431
 3667SOL    MW414436   0.578   4.750   1.974 -0.6046 -0.1608  0.1078
 3668SOL     OW14437   2.719   4.382   0.371  0.2795 -0.0150  0.2404
 3668SOL    HW214438   2.676   4.354   0.452 -0.1144 -0.1664 -0.0201
 3668SOL    HW314439   2.672   4.336   0.301 -0.2725  1.1580 -0.1886
 3668SOL    MW414440   2.707   4.372   0.372  0.1547  0.1198  0.1494
 3669SOL     OW14441   0.221   6.421   0.501 -0.3963 -0.8872  0.1504
 3669SOL    HW214442   0.219   6.452   0.410  1.5783 -0.1053  0.3161
 3669SOL    HW314443   0.145   6.462   0.542 -1.4261 -1.3958 -1.1586
 3669SOL    MW414444   0.211   6.431   0.494 -0.2716 -0.8512 -0.0005
 3670SOL     OW14445   2.724   6.096   5.083  0.1320 -0.0212  0.5838
 3670SOL    HW214446   2.669   6.020   5.063 -0.5513  0.5298  0.3542
 3670SOL    HW314447   2.722   6.149   5.004 -0.0492  0.6337  1.0151
 3670SOL    MW414448   2.716   6.093   5.070  0.0179  0.1379  0.6104
 3671SOL     OW14449   4.920   5.919   5.073 -0.1729  0.1537  0.0659
 3671SOL    HW214450   4.854   5.982   5.046  0.3032  0.4768 -0.3695
 3671SOL    HW314451   4.893   5.837   5.034  0.5494  0.6309 -1.5290
 3671SOL    MW414452   4.908   5.917   5.065 -0.0147  0.2593 -0.2020
 3672SOL     OW14453   0.844   0.961   4.619 -0.0610  0.4737 -0.5630
 3672SOL    HW214454   0.812   0.878   4.656 -0.5311  1.1168  0.5537
 3672SOL    HW314455   0.920   0.983   4.673  0.0400  0.7859 -0.8332
 3672SOL    MW414456   0.850   0.953   4.631 -0.1097  0.5997 -0.4513
 3673SOL     OW14457   4.587   1.626   2.872  0.0603 -0.3015 -0.5793
 3673SOL    HW214458   4.622   1.624   2.961  1.0178  0.8917 -0.8994
 3673SOL    HW314459   4.527   1.701   2.872  1.3335  0.7394 -1.3667
 3673SOL    MW414460   4.584   1.636   2.884  0.3546 -0.0067 -0.7254
 3674SOL     OW14461   0.290   5.489   5.349  0.2776 -0.0265 -0.5775
 3674SOL    HW214462   0.333   5.458   5.269  1.2497 -0.5836  0.1380
 3674SOL    HW314463   0.289   5.584   5.341 -2.0473 -0.1218 -2.4573
 3674SOL    MW414464   0.296   5.497   5.337  0.0991 -0.1126 -0.7311
 3675SOL     OW14465   4.250   5.983   5.353  0.2512 -0.7516 -0.5245
 3675SOL    HW214466   4.326   6.032   5.323  1.0420 -0.6570  1.5228
 3675SOL    HW314467   4.181   6.049   5.360  0.3603 -0.5772 -1.0286
 3675SOL    MW414468   4.251   5.998   5.350  0.3700 -0.7161 -0.3209
 3676SOL     OW14469   1.548   1.379   5.308  0.0221 -0.0534 -0.8590
 3676SOL    HW214470   1.533   1.469   5.280  0.3354  0.5412  0.7670
 3676SOL    HW314471   1.619   1.348   5.252  1.8645  1.6824  0.3772
 3676SOL    MW414472   1.555   1.387   5.297  0.3065  0.2541 -0.4814
 3677SOL     OW14473   0.922   0.001   3.124 -0.1068  0.5324  0.0514
 3677SOL    HW214474   0.909   0.002   3.219 -0.4088 -1.6264  0.0919
 3677SOL    HW314475   0.942  -0.091   3.104  0.2491  1.0046 -1.9398
 3677SOL    MW414476   0.923  -0.011   3.134 -0.0997  0.3099 -0.2059
 3678SOL     OW14477   5.696   5.818   0.995 -0.5913 -0.1454 -0.6278
 3678SOL    HW214478   5.632   5.865   1.047  0.2161 -0.4121  0.6437
 3678SOL    HW314479   5.776   5.820   1.047  0.2833 -0.3451 -1.8941
 3678SOL    MW414480   5.698   5.824   1.008 -0.3693 -0.2069 -0.6271
 3679SOL     OW14481   5.568   2.317   3.075 -0.3286 -0.6595  0.2482
 3679SOL    HW214482   5.503   2.384   3.093 -1.2368 -1.1340 -1.1386
 3679SOL    HW314483   5.595   2.333   2.985  3.0804  0.8266  1.3474
 3679SOL    MW414484   5.563   2.328   3.066  0.0013 -0.5260  0.2103
 3680SOL     OW14485   3.843   2.544   0.226 -0.1473  0.0146 -0.0429
 3680SOL    HW214486   3.773   2.599   0.191  1.7118  1.5919 -1.4822
 3680SOL    HW314487   3.836   2.553   0.321 -1.7867  0.2000 -0.1480
 3680SOL    MW414488   3.833   2.552   0.234 -0.1183  0.2472 -0.2467
 3681SOL     OW14489   5.484   1.988   5.933 -0.0500  0.0293 -0.4551
 3681SOL    HW214490   5.564   2.039   5.920  0.0357 -0.2046 -0.8510
 3681SOL    HW314491   5.455   2.011   6.021 -0.6755  1.7115 -1.0562
 3681SOL    MW414492   5.491   1.998   5.943 -0.1213  0.2204 -0.5867
 3682SOL     OW14493   6.422   2.090   5.343  0.3314 -0.3286  0.7370
 3682SOL    HW214494   6.471   2.045   5.275  1.7997  1.7976  0.2622
 3682SOL    HW314495   6.337   2.046   5.346  0.9619 -1.7658 -1.0401
 3682SOL    MW414496   6.417   2.078   5.334  0.6083 -0.2377  0.4399
 3683SOL     OW14497   3.449   5.015   6.143  0.3559 -0.4665 -0.0533
 3683SOL    HW214498   3.405   4.973   6.069 -1.7556  1.0209  0.2800
 3683SOL    HW314499   3.522   5.063   6.104 -0.0082 -0.6751 -1.0129
 3683SOL    MW414500   3.453   5.015   6.128  0.0293 -0.2978 -0.1359
 3684SOL     OW14501   1.284   3.850   2.882  0.0175 -0.2813 -0.0251
 3684SOL    HW214502   1.272   3.787   2.812  1.3693 -0.7121  0.0981
 3684SOL    HW314503   1.374   3.837   2.911 -0.3964  0.1244  1.5557
 3684SOL    MW414504   1.294   3.840   2.877  0.1412 -0.2846  0.1997
 3685SOL     OW14505   0.818   3.397   3.988 -0.0408  0.0085  0.8223
 3685SOL    HW214506   0.890   3.344   3.952  1.3909  1.8771  0.7837
 3685SOL    HW314507   0.802   3.358   4.074  2.2094  0.5200  1.5464
 3685SOL    MW414508   0.826   3.385   3.995  0.4450  0.3226  0.9127
 3686SOL     OW14509   0.343   4.907   2.553  0.2729 -0.0598  0.4931
 3686SOL    HW214510   0.391   4.866   2.481  1.0416  0.0765  0.9199
 3686SOL    HW314511   0.320   4.994   2.520  0.1693 -0.1843  0.2294
 3686SOL    MW414512   0.347   4.913   2.539  0.3607 -0.0583  0.5146
 3687SOL     OW14513   5.648   0.532   6.138  0.4367 -0.2814  0.0850
 3687SOL    HW214514   5.577   0.500   6.082  0.2773 -0.1394  0.2051
 3687SOL    HW314515   5.728   0.508   6.091  0.3096 -0.4474 -0.0481
 3687SOL    MW414516   5.649   0.525   6.124  0.3989 -0.2845  0.0832
 3688SOL     OW14517   2.442   4.045   5.109  0.1062  0.0948 -0.0535
 3688SOL    HW214518   2.525   4.049   5.157 -0.3669 -1.3438  0.9616
 3688SOL    HW314519   2.396   3.971   5.148 -2.1066  1.4708  0.1042
 3688SOL    MW414520   2.447   4.036   5.121 -0.2482  0.0865  0.1012
 3689SOL     OW14521   4.909   5.469   6.403 -0.2334  0.1676  0.1186
 3689SOL    HW214522   4.905   5.416   6.482 -0.4732  0.0904  0.0557
 3689SOL    HW314523   4.825   5.453   6.359 -1.2379  2.2374  1.1419
 3689SOL    MW414524   4.898   5.460   6.407 -0.3976  0.4305  0.2453
 3690SOL     OW14525   0.713   5.390   1.214  0.0258 -0.7384  0.0485
 3690SOL    HW214526   0.738   5.383   1.122  0.5041  1.7139 -0.0839
 3690SOL    HW314527   0.618   5.374   1.214 -0.1228 -0.0046 -1.0212
 3690SOL    MW414528   0.703   5.387   1.202  0.0693 -0.3181 -0.1101
 3691SOL     OW14529   0.596   3.877   2.819  0.1554  0.0642 -0.1541
 3691SOL    HW214530   0.684   3.912   2.831  0.0275  0.9625 -1.5597
 3691SOL    HW314531   0.558   3.932   2.750 -1.0407 -1.1307 -0.4897
 3691SOL    MW414532   0.603   3.889   2.811 -0.0193  0.0251 -0.3838
 3692SOL     OW14533   2.400   2.549   2.175 -0.3666  0.3328 -0.6469
 3692SOL    HW214534   2.306   2.550   2.194 -0.3949  0.1260 -0.7742
 3692SOL    HW314535   2.426   2.458   2.185 -0.0441  0.4919  0.0241
 3692SOL    MW414536   2.391   2.537   2.179 -0.3278  0.3265 -0.5751
 3693SOL     OW14537   6.232   1.852   3.495  0.4569 -0.1585 -0.3228
 3693SOL    HW214538   6.307   1.796   3.474  0.3607 -0.1852 -0.5937
 3693SOL    HW314539   6.160   1.792   3.512  0.0620 -0.0965 -1.7154
 3693SOL    MW414540   6.232   1.837   3.495  0.3921 -0.1538 -0.5423
 3694SOL     OW14541   2.924   2.732   4.552  0.1093 -0.1222 -0.5261
 3694SOL    HW214542   2.969   2.662   4.505 -0.1053 -0.6403  0.0254
 3694SOL    HW314543   2.843   2.691   4.585  0.7482 -0.0916  1.1965
 3694SOL    MW414544   2.919   2.717   4.550  0.1653 -0.1865 -0.2260
 3695SOL     OW14545   5.995   4.482   5.380 -0.4728  0.2961 -0.1513
 3695SOL    HW214546   5.958   4.450   5.298 -0.9271  0.9372 -0.2013
 3695SOL    HW314547   5.931   4.458   5.446  0.3481 -1.1101  0.1833
 3695SOL    MW414548   5.982   4.475   5.378 -0.4245  0.1952 -0.1137
 3696SOL     OW14549   3.127   1.935   1.898 -0.1899  0.5310  0.0524
 3696SOL    HW214550   3.032   1.931   1.890 -0.1383  0.9997 -0.9998
 3696SOL    HW314551   3.159   1.861   1.847  0.0128  0.0411  0.8611
 3696SOL    MW414552   3.119   1.925   1.891 -0.1563  0.5282  0.0203
 3697SOL     OW14553   0.531   0.294   1.092  1.0260  0.1105 -0.4881
 3697SOL    HW214554   0.441   0.278   1.065  0.9595  0.7628 -0.6613
 3697SOL    HW314555   0.583   0.230   1.042  0.4462 -2.0382  1.4907
 3697SOL    MW414556   0.526   0.283   1.082  0.9407 -0.0869 -0.2499
 3698SOL     OW14557   4.988   1.566   0.117 -0.4363 -0.3882  0.1493
 3698SOL    HW214558   5.072   1.612   0.118  0.6124 -2.2323  0.6559
 3698SOL    HW314559   4.947   1.593   0.034  0.6934  0.4506 -0.1587
 3698SOL    MW414560   4.994   1.576   0.106 -0.1489 -0.5208  0.1755
 3699SOL     OW14561   5.724   2.612   0.828  0.2858  0.1808 -0.3023
 3699SOL    HW214562   5.721   2.707   0.824  0.8985  0.2495  0.5754
 3699SOL    HW314563   5.676   2.583   0.751 -2.9589  1.1722  1.2003
 3699SOL    MW414564   5.717   2.621   0.817 -0.0615  0.3207  0.0117
 3700SOL     OW14565   1.675   2.481   5.461  0.2716  0.1869  0.0830
 3700SOL    HW214566   1.755   2.431   5.479  0.6775  1.3097  1.6871
 3700SOL    HW314567   1.665   2.478   5.366  1.0671 -1.6928  0.0220
 3700SOL    MW414568   1.684   2.474   5.451  0.4301  0.0870  0.2866
 3701SOL     OW14569   1.830   1.326   1.872  0.1118 -0.3400 -0.4790
 3701SOL    HW214570   1.782   1.393   1.920 -0.9467 -2.3303  1.4219
 3701SOL    HW314571   1.921   1.337   1.899 -0.2926 -0.6316  1.0882
 3701SOL    MW414572   1.836   1.336   1.882 -0.0812 -0.6410 -0.0214
 3702SOL     OW14573   5.629   4.946   1.084 -0.4369 -0.4161 -0.3257
 3702SOL    HW214574   5.643   4.958   1.178 -0.7723 -3.2965  0.2013
 3702SOL    HW314575   5.696   5.000   1.043  0.7097 -0.2312  1.6249
 3702SOL    MW414576   5.640   4.955   1.091 -0.3299 -0.7717  0.0012
 3703SOL     OW14577   0.425   3.625   6.211 -0.4981 -0.3538  0.2190
 3703SOL    HW214578   0.515   3.637   6.182 -0.9214  1.5009 -0.5475
 3703SOL    HW314579   0.375   3.617   6.130 -0.9445 -2.3080  0.6527
 3703SOL    MW414580   0.430   3.626   6.196 -0.6129 -0.3669  0.1751
 3704SOL     OW14581   2.350   5.729   5.522  0.0921 -0.3497  0.0260
 3704SOL    HW214582   2.285   5.798   5.539  0.4613  0.0394 -0.1192
 3704SOL    HW314583   2.409   5.734   5.597  0.5461 -0.0039 -0.3440
 3704SOL    MW414584   2.349   5.739   5.534  0.2007 -0.2527 -0.0420
 3705SOL     OW14585  -0.003   0.844   0.115 -0.1771  0.1862  0.1565
 3705SOL    HW214586   0.079   0.889   0.095 -0.9688  0.5698 -2.7644
 3705SOL    HW314587   0.015   0.796   0.195  3.0339 -0.0466 -0.5640
 3705SOL    MW414588   0.010   0.844   0.123  0.1421  0.2061 -0.3239
 3706SOL     OW14589   1.498   3.771   1.669 -0.0963 -1.0660 -0.0827
 3706SOL    HW214590   1.535   3.761   1.756  0.6304 -1.0311 -0.3831
 3706SOL    HW314591   1.532   3.697   1.619 -1.8453 -2.0493  0.0879
 3706SOL    MW414592   1.507   3.760   1.674 -0.2312 -1.1911 -0.0998
 3707SOL     OW14593   2.233   3.881   1.829  0.2159  0.1150  0.1438
 3707SOL    HW214594   2.291   3.866   1.904  1.1327 -0.7141 -0.6924
 3707SOL    HW314595   2.166   3.941   1.861  1.0711  0.4368  1.3800
 3707SOL    MW414596   2.232   3.887   1.843  0.4497  0.0480  0.1965
 3708SOL     OW14597   0.541   0.000   0.723  0.0989  0.4501  0.5270
 3708SOL    HW214598   0.449  -0.016   0.747  0.1152 -0.4199  0.0193
 3708SOL    HW314599   0.591  -0.050   0.788  0.2260  1.0116  0.8699
 3708SOL    MW414600   0.535  -0.008   0.735  0.1178  0.4094  0.5052
 3709SOL     OW14601   6.406   2.867   5.356  0.3372 -0.1215 -0.5789
 3709SOL    HW214602   6.409   2.917   5.438 -0.5681  0.3135 -0.7920
 3709SOL    HW314603   6.495   2.836   5.343  0.5724  0.1393  0.3716
 3709SOL    MW414604   6.418   2.870   5.365  0.2487 -0.0297 -0.4816
 3710SOL     OW14605   3.858   1.023   0.902  0.4577 -0.0504  0.6103
 3710SOL    HW214606   3.901   1.108   0.898  0.7722 -0.1823  1.1379
 3710SOL    HW314607   3.775   1.036   0.857  0.0835  0.7942  1.5045
 3710SOL    MW414608   3.853   1.036   0.896  0.4498  0.0436  0.7979
 3711SOL     OW14609   4.183   4.986   6.267 -0.2052  0.1881 -0.6119
 3711SOL    HW214610   4.221   4.986   6.179 -1.9214 -1.2803 -1.4056
 3711SOL    HW314611   4.230   4.916   6.313  1.3903  1.6089  0.0167
 3711SOL    MW414612   4.194   4.977   6.262 -0.2211  0.1819 -0.6337
 3712SOL     OW14613   2.702   3.745   4.012 -0.3411  0.8743 -0.0785
 3712SOL    HW214614   2.798   3.746   4.015 -0.2355 -0.9669 -1.1603
 3712SOL    HW314615   2.675   3.824   4.058  1.6996  1.4102  0.2682
 3712SOL    MW414616   2.711   3.755   4.018 -0.0579  0.7021 -0.1755
 3713SOL     OW14617   4.745   6.406   5.716  0.2192  0.4732 -0.5418
 3713SOL    HW214618   4.740   6.312   5.731 -1.0404 -0.0484 -3.5092
 3713SOL    HW314619   4.831   6.432   5.749 -0.1771 -1.3043  2.0873
 3713SOL    MW414620   4.756   6.397   5.722  0.0007  0.1699 -0.5865
 3714SOL     OW14621   0.590   0.150   4.894  0.3444 -0.5812 -0.3961
 3714SOL    HW214622   0.496   0.164   4.887  0.1922 -1.9522 -1.4211
 3714SOL    HW314623   0.617   0.203   4.969 -1.8739 -3.2053  2.4867
 3714SOL    MW414624   0.581   0.159   4.903  0.0317 -1.1083 -0.1510
 3715SOL     OW14625   1.109   0.124   0.327 -0.0873 -0.3845  0.7697
 3715SOL    HW214626   1.158   0.043   0.343 -0.6823 -0.5516  1.8056
 3715SOL    HW314627   1.085   0.119   0.234  3.1078  0.4031 -0.2190
 3715SOL    MW414628   1.113   0.112   0.317  0.2558 -0.3027  0.7760
 3716SOL     OW14629   2.067   0.458   0.637 -0.1821  0.0438 -0.2440
 3716SOL    HW214630   2.142   0.472   0.578  0.6604 -0.5741  0.6549
 3716SOL    HW314631   2.040   0.368   0.620 -0.6089  0.2028 -0.4247
 3716SOL    MW414632   2.074   0.448   0.627 -0.1273 -0.0168 -0.1492
 3717SOL     OW14633   2.785   0.065   4.787 -0.4319 -0.7613 -0.3024
 3717SOL    HW214634   2.748   0.121   4.719  0.1428  0.7175  0.5552
 3717SOL    HW314635   2.867   0.032   4.750 -0.1899 -0.0714 -0.3906
 3717SOL    MW414636   2.791   0.068   4.773 -0.3242 -0.4752 -0.2009
 3718SOL     OW14637   1.202   0.865   2.765 -0.6276 -0.5580  0.0458
 3718SOL    HW214638   1.122   0.876   2.714 -0.6269 -0.1614  0.1288
 3718SOL    HW314639   1.212   0.947   2.813 -0.5431 -0.8676  0.5665
 3718SOL    MW414640   1.193   0.877   2.764 -0.6164 -0.5465  0.1254
 3719SOL     OW14641   6.165   2.164   6.092  0.5015  0.4191 -0.4235
 3719SOL    HW214642   6.095   2.225   6.117  0.9974  0.7376  0.2063
 3719SOL    HW314643   6.140   2.134   6.004  0.3609  1.7024 -0.8435
 3719SOL    MW414644   6.152   2.168   6.083  0.5484  0.6305 -0.3958
 3720SOL     OW14645   1.489   0.984   4.864  0.0290 -0.4140 -0.1478
 3720SOL    HW214646   1.458   0.921   4.799 -0.4316 -0.0948 -0.2465
 3720SOL    HW314647   1.414   0.998   4.922  0.7752 -1.5453  1.1488
 3720SOL    MW414648   1.475   0.978   4.863  0.0667 -0.5212  0.0103
 3721SOL     OW14649   0.201   6.062   0.236  0.4178  0.2189 -0.2248
 3721SOL    HW214650   0.293   6.071   0.210  0.8807  0.1098  1.3120
 3721SOL    HW314651   0.204   6.043   0.330 -1.1668 -0.1086 -0.2141
 3721SOL    MW414652   0.213   6.060   0.245  0.2698  0.1613 -0.0207
 3722SOL     OW14653   0.929   0.025   3.811 -0.0553 -0.0112 -1.0265
 3722SOL    HW214654   0.961  -0.041   3.749  0.4490 -0.8076  0.0695
 3722SOL    HW314655   1.008   0.061   3.851 -0.4301 -0.6519  0.3232
 3722SOL    MW414656   0.944   0.021   3.808 -0.0382 -0.2008 -0.7038
 3723SOL     OW14657   0.882   1.678   3.688 -0.1166  0.7748 -0.2317
 3723SOL    HW214658   0.885   1.596   3.737  1.4973 -0.0477 -1.5860
 3723SOL    HW314659   0.950   1.732   3.727 -0.5713  1.1313  0.0782
 3723SOL    MW414660   0.891   1.674   3.699  0.0363  0.7133 -0.3695
 3724SOL     OW14661   5.277   5.228   0.728 -0.1132  0.2904 -0.2186
 3724SOL    HW214662   5.330   5.194   0.656 -3.4041  0.4010 -2.9493
 3724SOL    HW314663   5.255   5.151   0.781  1.3754  0.0155  0.0414
 3724SOL    MW414664   5.281   5.213   0.725 -0.3510  0.2687 -0.5446
 3725SOL     OW14665   5.572   2.296   1.569 -0.4908 -0.0063  0.6276
 3725SOL    HW214666   5.547   2.337   1.486  0.6776  0.0856  0.3001
 3725SOL    HW314667   5.569   2.202   1.552 -1.0431 -0.0123  0.7325
 3725SOL    MW414668   5.568   2.289   1.556 -0.4095  0.0050  0.5982
 3726SOL     OW14669   1.983   5.222   1.719  0.1844  0.3051  0.1713
 3726SOL    HW214670   2.021   5.304   1.686  0.8395 -0.2527 -0.4659
 3726SOL    HW314671   2.042   5.195   1.789  1.5815 -1.0890 -1.4784
 3726SOL    MW414672   1.996   5.230   1.724  0.4552  0.0476 -0.1304
 3727SOL     OW14673   5.806   4.905   1.889  0.2744 -0.1431  0.1297
 3727SOL    HW214674   5.898   4.895   1.915  1.2247 -0.2546 -2.9758
 3727SOL    HW314675   5.771   4.816   1.893 -0.0172 -0.0026  2.0791
 3727SOL    MW414676   5.814   4.892   1.893  0.3613 -0.1393 -0.0229
 3728SOL     OW14677   1.529   4.977   1.659 -0.3650  0.0446  0.0358
 3728SOL    HW214678   1.440   4.949   1.681 -0.6459  0.3395 -0.6933
 3728SOL    HW314679   1.583   4.899   1.672 -0.7455 -0.1682  0.3685
 3728SOL    MW414680   1.524   4.963   1.663 -0.4523  0.0554 -0.0165
 3729SOL     OW14681   3.140   5.526   0.725 -0.6281 -0.1921  0.1241
 3729SOL    HW214682   3.123   5.432   0.734 -2.3760  0.2245  2.0004
 3729SOL    HW314683   3.231   5.537   0.752  0.8311 -1.6858 -3.5146
 3729SOL    MW414684   3.149   5.515   0.730 -0.6662 -0.3342 -0.1084
 3730SOL     OW14685   2.402   4.070   3.783 -0.2515  0.2287  0.5075
 3730SOL    HW214686   2.355   4.056   3.700  0.1674  1.5078  0.0337
 3730SOL    HW314687   2.406   3.983   3.823 -2.1870 -0.0811  0.1188
 3730SOL    MW414688   2.396   4.057   3.777 -0.4516  0.3566  0.3937
 3731SOL     OW14689   5.113   6.067   2.108 -0.4073  0.3488 -0.3108
 3731SOL    HW214690   5.145   6.158   2.108 -2.0622  0.9865  0.7625
 3731SOL    HW314691   5.063   6.060   2.189  0.2082 -1.7565 -0.0646
 3731SOL    MW414692   5.111   6.078   2.119 -0.5444  0.1552 -0.1367
 3732SOL     OW14693   0.312   0.106   1.447  0.0722  0.5565  0.1687
 3732SOL    HW214694   0.303   0.011   1.452  0.0068  0.6226  2.2880
 3732SOL    HW314695   0.391   0.120   1.396 -1.3234 -0.5189 -2.4812
 3732SOL    MW414696   0.321   0.096   1.441 -0.1206  0.4233  0.0987
 3733SOL     OW14697   5.703   0.625   0.213  0.0695 -0.1025 -0.3923
 3733SOL    HW214698   5.761   0.668   0.275 -0.2408 -0.5993  0.2465
 3733SOL    HW314699   5.727   0.532   0.218 -1.6596 -0.5167  0.8518
 3733SOL    MW414700   5.714   0.618   0.222 -0.1996 -0.2227 -0.1439
 3734SOL     OW14701   5.745   5.571   5.816  0.1569  0.2312 -0.4572
 3734SOL    HW214702   5.777   5.496   5.766 -0.7162 -1.6219  1.5940
 3734SOL    HW314703   5.679   5.534   5.875  1.0230  2.2503  1.9590
 3734SOL    MW414704   5.741   5.556   5.817  0.1560  0.2531  0.1322
 3735SOL     OW14705   2.139   6.297   4.779 -0.2778  0.1287 -0.5867
 3735SOL    HW214706   2.136   6.343   4.695  1.4065  0.8076 -0.3090
 3735SOL    HW314707   2.049   6.299   4.811 -1.2901 -1.5587 -3.0862
 3735SOL    MW414708   2.127   6.303   4.772 -0.1892 -0.0044 -0.8798
 3736SOL     OW14709   5.227   2.425   0.149  0.3203 -0.1418 -0.0910
 3736SOL    HW214710   5.320   2.442   0.162  0.4501 -0.6621 -0.2893
 3736SOL    HW314711   5.199   2.383   0.231  1.4364 -4.6338 -1.6689
 3736SOL    MW414712   5.236   2.421   0.161  0.4847 -0.8031 -0.3253
 3737SOL     OW14713   3.249   0.985   4.114 -0.1750 -0.2479 -0.2066
 3737SOL    HW214714   3.192   1.061   4.127 -1.9744 -1.9045  2.9240
 3737SOL    HW314715   3.319   0.997   4.179  1.2141  0.0909 -1.7047
 3737SOL    MW414716   3.251   0.997   4.125 -0.2291 -0.4217  0.0088
 3738SOL     OW14717   5.686   5.307   3.403  0.2197 -0.4550 -0.1453
 3738SOL    HW214718   5.700   5.354   3.485 -1.0463 -0.0594 -0.1428
 3738SOL    HW314719   5.668   5.376   3.339  1.2529 -0.7568 -0.7864
 3738SOL    MW414720   5.686   5.323   3.405  0.1890 -0.4426 -0.2296
 3739SOL     OW14721   5.953   2.493   0.487 -0.0013 -0.1719  0.3254
 3739SOL    HW214722   5.899   2.444   0.424  0.1951  0.6025 -0.4764
 3739SOL    HW314723   5.977   2.429   0.553  1.4609 -1.5702 -1.4496
 3739SOL    MW414724   5.949   2.478   0.487  0.2175 -0.2542 -0.0146
 3740SOL     OW14725   3.061   6.436   0.032 -0.3705 -0.0634 -0.0544
 3740SOL    HW214726   2.989   6.425  -0.031 -0.3500 -1.1110  0.0773
 3740SOL    HW314727   3.134   6.470  -0.020 -1.1683  1.7810 -0.0383
 3740SOL    MW414728   3.061   6.439   0.017 -0.4730  0.0418 -0.0349
 3741SOL     OW14729   4.507   3.964   4.949  0.0738  0.2256 -0.1912
 3741SOL    HW214730   4.554   4.031   4.900  1.0349  0.0098  0.4217
 3741SOL    HW314731   4.429   4.010   4.982 -1.0601  0.1768 -2.5618
 3741SOL    MW414732   4.503   3.979   4.947  0.0510  0.1907 -0.4231
 3742SOL     OW14733   5.495   3.574   4.489 -0.5093 -0.4901  0.0664
 3742SOL    HW214734   5.584   3.609   4.480 -1.3617  2.6005  2.1755
 3742SOL    HW314735   5.458   3.581   4.401  0.9984 -0.9253 -0.6362
 3742SOL    MW414736   5.502   3.580   4.476 -0.4228 -0.1397  0.2520
 3743SOL     OW14737   5.834   5.772   4.630 -0.3477  0.0110  0.3138
 3743SOL    HW214738   5.821   5.861   4.662  0.5800 -0.5985  2.6247
 3743SOL    HW314739   5.846   5.782   4.536 -2.6496  2.0327  0.1186
 3743SOL    MW414740   5.834   5.785   4.622 -0.5290  0.1973  0.5929
 3744SOL     OW14741   2.604   4.664   1.843  0.0148  0.8682 -0.4891
 3744SOL    HW214742   2.644   4.592   1.891 -0.2607  1.5568  0.8280
 3744SOL    HW314743   2.571   4.625   1.762  0.1499 -0.4042  0.0565
 3744SOL    MW414744   2.605   4.650   1.839 -0.0037  0.7912 -0.2433
 3745SOL     OW14745   0.446   0.493   0.751 -0.5358  0.0358 -0.3269
 3745SOL    HW214746   0.482   0.405   0.735 -0.0865  0.2034 -0.2389
 3745SOL    HW314747   0.428   0.528   0.664  1.1491  0.6300 -0.4759
 3745SOL    MW414748   0.448   0.486   0.737 -0.2542  0.1363 -0.3350
 3746SOL     OW14749   5.896   5.583   0.822  0.0937  0.0239 -0.4588
 3746SOL    HW214750   5.984   5.611   0.797 -0.1480  1.3015  0.0576
 3746SOL    HW314751   5.911   5.515   0.887  0.7296  1.4972  1.0011
 3746SOL    MW414752   5.910   5.577   0.827  0.1457  0.3868 -0.1980
 3747SOL     OW14753   3.168   2.845   1.527 -0.3191 -0.6476  0.2510
 3747SOL    HW214754   3.107   2.880   1.462 -2.2860 -2.1997  1.1698
 3747SOL    HW314755   3.248   2.896   1.515 -1.7550  1.4191 -1.0560
 3747SOL    MW414756   3.171   2.856   1.517 -0.7680 -0.5797  0.1998
 3748SOL     OW14757   0.660   0.287   1.732 -0.0018 -0.5853  0.8283
 3748SOL    HW214758   0.612   0.222   1.681 -1.2626  0.3252  0.8037
 3748SOL    HW314759   0.632   0.271   1.822  0.6380 -0.8669  0.9781
 3748SOL    MW414760   0.650   0.277   1.737 -0.0837 -0.5023  0.8448
 3749SOL     OW14761   5.914   2.739   3.381  0.1117  0.1540 -0.1966
 3749SOL    HW214762   5.842   2.789   3.419 -0.8253 -1.2455 -0.0720
 3749SOL    HW314763   5.990   2.797   3.389 -0.8346  1.3585  0.3653
 3749SOL    MW414764   5.915   2.753   3.387 -0.1368  0.1283 -0.1060
 3750SOL     OW14765   4.217   1.593   2.870  0.1277  0.3245  0.1633
 3750SOL    HW214766   4.144   1.545   2.831 -0.9749  2.3480 -0.4670
 3750SOL    HW314767   4.269   1.527   2.915 -1.1324 -1.4406 -0.8536
 3750SOL    MW414768   4.214   1.578   2.871 -0.1840  0.3586 -0.0541
 3751SOL     OW14769   0.775   5.672   0.184  0.3361 -0.3400  0.1075
 3751SOL    HW214770   0.693   5.705   0.221 -0.5007 -1.9395 -0.2207
 3751SOL    HW314771   0.820   5.632   0.258  0.6674  0.2388  0.2212
 3751SOL    MW414772   0.770   5.671   0.198  0.2694 -0.4747  0.0792
 3752SOL     OW14773   2.943   6.365   3.547  0.2398  0.1789 -0.3748
 3752SOL    HW214774   2.944   6.459   3.526  0.0257  0.1756 -0.4095
 3752SOL    HW314775   2.869   6.355   3.607  0.7307  0.1523  0.2282
 3752SOL    MW414776   2.933   6.376   3.552  0.2763  0.1749 -0.2999
 3753SOL     OW14777   1.643   3.559   2.388  0.2196  0.6311 -0.2435
 3753SOL    HW214778   1.654   3.466   2.407 -1.0375  0.4906 -0.0946
 3753SOL    HW314779   1.589   3.561   2.309 -1.2766  1.2140  0.7494
 3753SOL    MW414780   1.637   3.547   2.380 -0.1437  0.6895 -0.0928
 3754SOL     OW14781   0.985   0.241   6.013 -0.1731 -0.6403  0.1051
 3754SOL    HW214782   0.996   0.147   5.997  0.3296 -0.7970  1.2896
 3754SOL    HW314783   0.993   0.281   5.926  0.5787 -1.5986 -0.2844
 3754SOL    MW414784   0.987   0.234   5.999 -0.0076 -0.7874  0.2100
 3755SOL     OW14785   3.816   6.025   4.902  0.2105  0.3764 -0.2240
 3755SOL    HW214786   3.852   5.936   4.899  2.4309  1.2135 -0.3972
 3755SOL    HW314787   3.860   6.065   4.977 -1.9587  0.8903  0.8369
 3755SOL    MW414788   3.827   6.018   4.912  0.2172  0.5546 -0.1069
 3756SOL     OW14789   0.710   0.779   5.759 -0.3343  0.1312  0.1424
 3756SOL    HW214790   0.730   0.855   5.814  1.7404 -0.3391  0.1355
 3756SOL    HW314791   0.722   0.704   5.816 -0.3825 -0.2660 -0.3577
 3756SOL    MW414792   0.714   0.779   5.773 -0.0669  0.0167  0.0755
 3757SOL     OW14793   1.636   2.724   5.265 -0.3219  0.2050 -0.1043
 3757SOL    HW214794   1.620   2.654   5.202 -0.4839 -0.0195  0.1840
 3757SOL    HW314795   1.629   2.805   5.214 -0.8990  0.0426 -0.2819
 3757SOL    MW414796   1.633   2.726   5.250 -0.4195  0.1539 -0.0897
 3758SOL     OW14797   0.844   1.846   1.788 -0.6343  0.0046  0.1247
 3758SOL    HW214798   0.857   1.809   1.701 -0.2508  0.6595 -0.1087
 3758SOL    HW314799   0.767   1.802   1.822 -1.3427  0.3938 -0.9250
 3758SOL    MW414800   0.836   1.835   1.781 -0.6772  0.1424 -0.0446
 3759SOL     OW14801   2.786   1.858   0.616  0.5158  0.4592 -0.3311
 3759SOL    HW214802   2.878   1.855   0.587  0.9656  2.2642  0.7915
 3759SOL    HW314803   2.768   1.950   0.631 -1.1873  0.0338  0.4808
 3759SOL    MW414804   2.796   1.870   0.614  0.3505  0.6413 -0.0759
 3760SOL     OW14805   1.457   3.837   5.666 -0.1470  0.1139 -0.3914
 3760SOL    HW214806   1.484   3.928   5.661  0.2542 -0.0088 -0.4810
 3760SOL    HW314807   1.538   3.787   5.658 -0.2712 -0.2346  0.4154
 3760SOL    MW414808   1.471   3.842   5.664 -0.1105  0.0518 -0.2967
 3761SOL     OW14809   4.907   5.396   4.371  0.4113  0.4881 -0.2346
 3761SOL    HW214810   4.912   5.489   4.348 -3.0176  0.9175  0.2561
 3761SOL    HW314811   4.936   5.350   4.292 -1.8840  2.0224 -2.1250
 3761SOL    MW414812   4.911   5.402   4.358 -0.3439  0.7472 -0.4193
 3762SOL     OW14813   6.200   2.097   5.719 -0.6123 -0.2589  0.2905
 3762SOL    HW214814   6.280   2.054   5.750 -0.1031  0.0356 -0.5893
 3762SOL    HW314815   6.220   2.191   5.723 -1.1122 -0.1573  0.5745
 3762SOL    MW414816   6.213   2.104   5.724 -0.6111 -0.2066  0.2119
 3763SOL     OW14817   2.589   3.697   5.408  0.3207  0.1136  0.7118
 3763SOL    HW214818   2.591   3.761   5.479  0.8564  0.5362  0.3326
 3763SOL    HW314819   2.524   3.632   5.434 -2.0813  2.0922 -0.0091
 3763SOL    MW414820   2.581   3.697   5.421  0.0745  0.4304  0.5666
 3764SOL     OW14821   2.452   5.043   3.830  0.2845  0.1251 -0.2578
 3764SOL    HW214822   2.372   5.060   3.781  1.5607 -2.8460 -3.9224
 3764SOL    HW314823   2.521   5.084   3.778  1.3921  0.7236  1.5967
 3764SOL    MW414824   2.451   5.051   3.817  0.5990 -0.1879 -0.4966
 3765SOL     OW14825   3.931   5.235   0.188 -0.5844  0.3026  0.1343
 3765SOL    HW214826   3.857   5.229   0.249  1.2006 -0.9853  2.3177
 3765SOL    HW314827   3.946   5.145   0.160 -0.5174  0.7076 -1.1690
 3765SOL    MW414828   3.923   5.222   0.193 -0.3400  0.1861  0.2504
 3766SOL     OW14829   1.648   5.154   5.668 -0.8962 -0.2960 -0.1646
 3766SOL    HW214830   1.673   5.227   5.611 -1.6948  0.5033  0.4760
 3766SOL    HW314831   1.612   5.196   5.746 -1.2435 -1.3819  0.2765
 3766SOL    MW414832   1.646   5.169   5.670 -1.0474 -0.3338 -0.0218
 3767SOL     OW14833   4.203   0.523   1.611 -0.0901 -0.0443 -0.0346
 3767SOL    HW214834   4.207   0.586   1.683 -0.1083  0.1944 -0.2436
 3767SOL    HW314835   4.295   0.503   1.591 -0.0485  0.9077 -0.8400
 3767SOL    MW414836   4.216   0.528   1.618 -0.0870  0.1128 -0.1684
 3768SOL     OW14837   1.922   1.393   4.652  0.1011  0.6296 -0.0314
 3768SOL    HW214838   1.832   1.369   4.630 -0.0176  1.2107 -0.2064
 3768SOL    HW314839   1.916   1.485   4.678  0.4591  0.3594  1.0870
 3768SOL    MW414840   1.909   1.402   4.653  0.1327  0.6707  0.0931
 3769SOL     OW14841   3.439   1.046   4.304  0.2769  0.2726  0.0634
 3769SOL    HW214842   3.526   1.033   4.267  0.2212  0.4149 -0.1199
 3769SOL    HW314843   3.442   1.000   4.388  0.6372  0.5609  0.2126
 3769SOL    MW414844   3.451   1.038   4.310  0.3171  0.3294  0.0589
 3770SOL     OW14845   4.334   0.391   4.537 -0.0558  0.6740  0.2328
 3770SOL    HW214846   4.258   0.398   4.480  0.7888  1.1728 -0.8691
 3770SOL    HW314847   4.304   0.339   4.612 -0.8339 -1.2041 -1.3104
 3770SOL    MW414848   4.320   0.385   4.540 -0.0471  0.4920 -0.1162
 3771SOL     OW14849   1.824   2.094   5.591  0.7501 -0.1463 -0.0700
 3771SOL    HW214850   1.826   2.190   5.591 -1.3687 -0.0573 -0.8209
 3771SOL    HW314851   1.749   2.071   5.646  0.6371 -1.3361 -0.6901
 3771SOL    MW414852   1.815   2.104   5.598  0.4557 -0.2915 -0.2509
 3772SOL     OW14853   0.452   4.457   0.700 -0.0031 -0.2644  0.3750
 3772SOL    HW214854   0.456   4.529   0.636 -3.3158  0.3378  0.6673
 3772SOL    HW314855   0.526   4.474   0.758 -1.1326  3.6101  1.0182
 3772SOL    MW414856   0.462   4.469   0.699 -0.5892  0.3262  0.4984
 3773SOL     OW14857   0.900   1.542   6.171 -0.6205 -0.0034  0.0142
 3773SOL    HW214858   0.853   1.607   6.120 -0.7024  0.9385  1.2506
 3773SOL    HW314859   0.952   1.593   6.233  1.0426 -1.0557 -0.4476
 3773SOL    MW414860   0.901   1.557   6.173 -0.4119 -0.0180  0.1164
 3774SOL     OW14861   1.539   0.075   3.090 -0.5530 -0.5381  0.1041
 3774SOL    HW214862   1.561  -0.012   3.057  0.7011 -0.2807  0.1995
 3774SOL    HW314863   1.624   0.114   3.113 -1.1278  0.5447  0.4639
 3774SOL    MW414864   1.553   0.069   3.088 -0.4633 -0.3612  0.1641
 3775SOL     OW14865   0.270   4.016   0.589  0.0954 -0.2382  0.7135
 3775SOL    HW214866   0.266   4.105   0.626 -1.3960  1.0857 -2.2611
 3775SOL    HW314867   0.362   4.006   0.563 -0.2195  1.8007 -1.6345
 3775SOL    MW414868   0.282   4.027   0.590 -0.1430  0.2055  0.0113
 3776SOL     OW14869   2.295   5.210   2.966 -0.3048 -0.1598 -0.0116
 3776SOL    HW214870   2.344   5.275   2.917  1.4165 -2.6326 -1.7812
 3776SOL    HW314871   2.326   5.219   3.056 -0.4398  1.6822 -0.1118
 3776SOL    MW414872   2.305   5.220   2.972 -0.0955 -0.2430 -0.2583
 3777SOL     OW14873   2.440   0.764   4.161 -0.0132  0.2230 -0.6349
 3777SOL    HW214874   2.485   0.680   4.154  0.2971  0.3264  0.0715
 3777SOL    HW314875   2.393   0.759   4.245 -2.9389 -0.6632 -2.1774
 3777SOL    MW414876   2.440   0.752   4.171 -0.3582  0.1197 -0.7452
 3778SOL     OW14877   1.370   3.754   3.301  0.4591  0.1065  0.1452
 3778SOL    HW214878   1.296   3.735   3.242  0.8274 -0.8937 -0.0078
 3778SOL    HW314879   1.333   3.746   3.389 -0.2037  2.0326  0.1005
 3778SOL    MW414880   1.355   3.750   3.304  0.4203  0.2287  0.1191
 3779SOL     OW14881   1.189   1.207   6.413 -0.3702  0.3778  0.0426
 3779SOL    HW214882   1.232   1.205   6.498  0.1810 -0.0811 -0.2419
 3779SOL    HW314883   1.105   1.163   6.427 -0.2252  0.1916  0.3117
 3779SOL    MW414884   1.183   1.201   6.426 -0.2783  0.2927  0.0406
 3780SOL     OW14885   1.114   5.294   2.332 -0.0306  0.7839 -0.0979
 3780SOL    HW214886   1.115   5.371   2.389  0.1348  1.1058 -0.5300
 3780SOL    HW314887   1.100   5.221   2.392  0.8628  1.0366  0.4575
 3780SOL    MW414888   1.112   5.295   2.348  0.1091  0.8597 -0.0817
 3781SOL     OW14889   2.339   6.317   3.048  0.0368  0.2389  0.5850
 3781SOL    HW214890   2.319   6.231   3.086  0.4327 -0.1631 -0.1017
 3781SOL    HW314891   2.321   6.379   3.119 -2.9667 -0.1236  0.2607
 3781SOL    MW414892   2.334   6.314   3.063 -0.3072  0.1380  0.4516
 3782SOL     OW14893   2.365   3.751   2.461  0.4537 -0.7934 -0.1090
 3782SOL    HW214894   2.368   3.663   2.422  0.2826 -0.8926  0.0969
 3782SOL    HW314895   2.348   3.809   2.387 -2.8005 -1.2493  0.1310
 3782SOL    MW414896   2.363   3.747   2.446  0.0018 -0.8666 -0.0502
 3783SOL     OW14897   3.059   0.793   2.434 -0.0902 -0.5835  0.0609
 3783SOL    HW214898   2.969   0.777   2.406 -0.2924 -0.4251  0.6148
 3783SOL    HW314899   3.087   0.711   2.474  0.0978 -0.7089 -0.3133
 3783SOL    MW414900   3.051   0.780   2.435 -0.0921 -0.5792  0.0846
 3784SOL     OW14901   5.186   4.286   0.272 -0.3185  0.4529 -0.0660
 3784SOL    HW214902   5.244   4.362   0.284 -1.0786  1.2731 -1.3529
 3784SOL    HW314903   5.196   4.261   0.181 -1.3393  0.0757 -0.0957
 3784SOL    MW414904   5.195   4.293   0.262 -0.5535  0.5113 -0.2397
 3785SOL     OW14905   4.304   4.228   4.484 -0.1493 -0.0569 -0.1724
 3785SOL    HW214906   4.309   4.141   4.523 -0.5793  0.4700  1.1148
 3785SOL    HW314907   4.257   4.281   4.549  2.4677  1.8282  0.3583
 3785SOL    MW414908   4.298   4.224   4.498  0.1393  0.2613  0.0675
 3786SOL     OW14909   1.944   5.740   3.090 -0.2494 -0.2220 -0.0012
 3786SOL    HW214910   1.900   5.798   3.028 -2.9542 -1.6138  0.4340
 3786SOL    HW314911   2.036   5.765   3.086 -0.7329  1.5360 -2.5408
 3786SOL    MW414912   1.950   5.751   3.081 -0.6701 -0.1737 -0.2789
 3787SOL     OW14913   2.724   0.644   5.192 -0.7003 -0.0513 -0.8281
 3787SOL    HW214914   2.671   0.571   5.159  2.4994 -2.2096 -1.7466
 3787SOL    HW314915   2.779   0.669   5.117  0.6956  0.9107  0.4687
 3787SOL    MW414916   2.724   0.637   5.177 -0.0940 -0.2092 -0.7782
 3788SOL     OW14917   2.185   3.086   1.877 -0.3033 -0.4658  0.3100
 3788SOL    HW214918   2.231   3.166   1.904 -1.3243  0.8903 -1.6428
 3788SOL    HW314919   2.120   3.071   1.945 -0.0010  0.2939  0.7825
 3788SOL    MW414920   2.182   3.095   1.889 -0.3981 -0.1866  0.1147
 3789SOL     OW14921   1.808   2.210   2.400 -0.2237 -0.1257 -0.7550
 3789SOL    HW214922   1.878   2.146   2.386  0.9988  1.1815 -0.7351
 3789SOL    HW314923   1.832   2.285   2.347 -1.2779  0.6097 -0.2238
 3789SOL    MW414924   1.821   2.211   2.391 -0.2015  0.1438 -0.6823
 3790SOL     OW14925   5.625   2.689   3.130 -0.2007 -0.2839  0.1854
 3790SOL    HW214926   5.618   2.628   3.203 -0.3326  0.2538  0.6300
 3790SOL    HW314927   5.719   2.705   3.121 -0.2216  0.1896  0.7057
 3790SOL    MW414928   5.637   2.683   3.138 -0.2209 -0.1505  0.3127
 3791SOL     OW14929   2.020   3.020   1.663 -0.0786  0.8496  0.0886
 3791SOL    HW214930   2.086   3.069   1.711  0.0919  0.8570 -0.1526
 3791SOL    HW314931   1.977   3.085   1.608  0.7162  0.5878 -0.8621
 3791SOL    MW414932   2.023   3.035   1.662  0.0488  0.8160 -0.0687
 3792SOL     OW14933   5.692   0.265   2.991 -0.2228  0.4722  0.5598
 3792SOL    HW214934   5.600   0.257   3.016 -0.8509  0.7719 -1.5011
 3792SOL    HW314935   5.733   0.186   3.025 -1.6121 -0.5075  0.0299
 3792SOL    MW414936   5.686   0.254   2.999 -0.4890  0.3825  0.2180
 3793SOL     OW14937   5.433   6.427   0.135  0.0207 -0.3101  0.1607
 3793SOL    HW214938   5.356   6.482   0.125 -0.1778 -0.3644  1.3056
 3793SOL    HW314939   5.412   6.346   0.088 -0.3018 -0.0324 -0.1770
 3793SOL    MW414940   5.420   6.424   0.127 -0.0480 -0.2806  0.2672
 3794SOL     OW14941   4.558   5.773   2.400 -0.0662 -0.3097  0.3980
 3794SOL    HW214942   4.567   5.687   2.359 -0.7924 -0.3850  0.3723
 3794SOL    HW314943   4.646   5.809   2.401  0.0039 -0.4151 -0.9842
 3794SOL    MW414944   4.571   5.766   2.395 -0.1527 -0.3335  0.2123
 3795SOL     OW14945   3.396   4.421   1.749  0.4135 -0.1109  0.2226
 3795SOL    HW214946   3.441   4.465   1.677 -2.0075 -0.2940 -1.5369
 3795SOL    HW314947   3.466   4.384   1.802  2.3249  0.0190 -2.0393
 3795SOL    MW414948   3.411   4.422   1.746  0.3463 -0.1179 -0.3080
 3796SOL     OW14949   2.029   2.577   1.587  0.1651 -0.1714 -0.1799
 3796SOL    HW214950   1.939   2.602   1.607 -0.4780 -3.7961  2.5786
 3796SOL    HW314951   2.081   2.613   1.658  0.5167 -0.0151 -0.5117
 3796SOL    MW414952   2.024   2.585   1.599  0.1267 -0.6290  0.1402
 3797SOL     OW14953   2.714   0.281   5.598 -0.4372  0.2813  0.3610
 3797SOL    HW214954   2.735   0.207   5.655  1.2527 -1.3018 -2.1412
 3797SOL    HW314955   2.796   0.330   5.592 -0.8680  0.9704  0.0283
 3797SOL    MW414956   2.727   0.278   5.605 -0.2710  0.1633 -0.0130
 3798SOL     OW14957   5.963   5.311   4.553  0.1064 -0.3872 -0.7109
 3798SOL    HW214958   5.869   5.326   4.562  0.3665  0.7655  0.3059
 3798SOL    HW314959   5.977   5.300   4.459 -1.1756 -1.6091 -0.7935
 3798SOL    MW414960   5.953   5.311   4.542 -0.0285 -0.3963 -0.5876
 3799SOL     OW14961   0.353   0.439   3.698 -0.2094 -0.4292 -0.5541
 3799SOL    HW214962   0.412   0.421   3.625  0.0276  0.4670 -0.6023
 3799SOL    HW314963   0.265   0.432   3.661 -0.0883  0.1080 -0.9508
 3799SOL    MW414964   0.349   0.436   3.684 -0.1621 -0.2401 -0.6128
 3800SOL     OW14965   6.093   5.998   0.378 -0.2722  0.6113 -0.1087
 3800SOL    HW214966   6.016   5.954   0.343  0.7539 -1.1582 -0.3171
 3800SOL    HW314967   6.090   6.086   0.341 -0.0753 -0.6509 -3.4861
 3800SOL    MW414968   6.083   6.004   0.369 -0.1109  0.2113 -0.5818
 3801SOL     OW14969   0.072   2.724   6.324  0.2334  0.1880  0.0871
 3801SOL    HW214970   0.106   2.705   6.237  1.0280 -1.9437  0.7894
 3801SOL    HW314971   0.114   2.806   6.350  0.4796  0.5052 -1.2625
 3801SOL    MW414972   0.082   2.732   6.316  0.3708 -0.0514  0.0017
 3802SOL     OW14973   3.638   1.100   0.722  0.2182 -0.2406 -0.1604
 3802SOL    HW214974   3.566   1.057   0.768  0.2824  0.5879  0.7444
 3802SOL    HW314975   3.596   1.144   0.648 -0.0864 -0.4996 -0.1429
 3802SOL    MW414976   3.623   1.100   0.718  0.1865 -0.1655 -0.0387
 3803SOL     OW14977   2.177   0.667   2.030  0.1066  0.1950 -0.2370
 3803SOL    HW214978   2.234   0.654   2.106 -0.4887 -0.8083  0.0504
 3803SOL    HW314979   2.122   0.589   2.027 -0.5387  0.6628 -1.1374
 3803SOL    MW414980   2.178   0.655   2.040 -0.0571  0.1243 -0.3179
 3804SOL     OW14981   5.092   0.333   0.258  0.2614  0.3003 -0.1277
 3804SOL    HW214982   5.059   0.314   0.346 -2.0719  2.4502 -0.4353
 3804SOL    HW314983   5.186   0.342   0.269 -0.1018  1.8788  2.4530
 3804SOL    MW414984   5.100   0.331   0.271 -0.0944  0.7923  0.1722
 3805SOL     OW14985   6.329   5.630   4.888 -0.3538  0.5685 -0.2416
 3805SOL    HW214986   6.332   5.551   4.835 -1.4681  1.1801 -1.2755
 3805SOL    HW314987   6.240   5.663   4.876 -0.3795  1.1658  1.3836
 3805SOL    MW414988   6.318   5.624   4.879 -0.5042  0.7280 -0.1636
 3806SOL     OW14989   0.547   1.083   1.216  0.1271 -0.2651 -0.1451
 3806SOL    HW214990   0.474   1.074   1.155 -0.2856  0.5465  0.2086
 3806SOL    HW314991   0.591   0.998   1.214 -1.2024 -0.9876  0.1228
 3806SOL    MW414992   0.543   1.071   1.208 -0.1027 -0.2533 -0.0631
 3807SOL     OW14993   3.541   3.138   3.814  0.3017  0.6622  0.0808
 3807SOL    HW214994   3.582   3.075   3.755 -0.5488 -1.5862  1.7743
 3807SOL    HW314995   3.465   3.170   3.766  1.1710  1.0105 -1.0978
 3807SOL    MW414996   3.537   3.134   3.800  0.3042  0.4115  0.1487
 3808SOL     OW14997   5.190   5.812   2.397  0.5445 -0.1570  0.5639
 3808SOL    HW214998   5.227   5.736   2.351 -0.4404 -0.2813 -0.0479
 3808SOL    HW314999   5.110   5.833   2.349  0.4991  0.9170  1.0798
 3808SOL    MW415000   5.184   5.805   2.385  0.4086 -0.0317  0.5513
 3809SOL     OW15001   4.596   3.933   4.057  0.3420  0.6956 -0.7974
 3809SOL    HW215002   4.574   3.973   3.973  2.4665  1.0509 -1.2501
 3809SOL    HW315003   4.688   3.908   4.048  0.2829 -0.3534  1.0177
 3809SOL    MW415004   4.605   3.935   4.044  0.6145  0.6041 -0.6177
 3810SOL     OW15005   5.258   5.935   3.099  0.0924  0.2672  0.1185
 3810SOL    HW215006   5.257   6.030   3.091  0.0607  0.2296 -0.3936
 3810SOL    HW315007   5.229   5.917   3.188  1.5408  0.7879  0.7314
 3810SOL    MW415008   5.254   5.945   3.110  0.2793  0.3310  0.1318
 3811SOL     OW15009   0.919   6.239   4.708 -0.0163 -0.0739  0.3096
 3811SOL    HW215010   0.938   6.146   4.705  0.4894  0.0410 -0.0348
 3811SOL    HW315011   0.885   6.253   4.797  2.2373 -0.1427  1.2424
 3811SOL    MW415012   0.917   6.229   4.720  0.3477 -0.0678  0.3872
 3812SOL     OW15013   6.396   4.732   0.758  0.9077  0.1833 -0.5792
 3812SOL    HW215014   6.455   4.739   0.683  0.8214  3.1791 -0.5009
 3812SOL    HW315015   6.308   4.738   0.720  0.7398 -1.0180 -0.4214
 3812SOL    MW415016   6.392   4.734   0.743  0.8742  0.4201 -0.5481
 3813SOL     OW15017   2.412   6.363   4.039  1.0337 -0.7431  0.0413
 3813SOL    HW215018   2.404   6.299   4.109  2.6001 -0.2180  0.7455
 3813SOL    HW315019   2.479   6.327   3.981  0.7578 -0.5110 -0.4255
 3813SOL    MW415020   2.420   6.350   4.040  1.2039 -0.6432  0.0727
 3814SOL     OW15021   3.960   6.220   2.616 -0.0849  0.3587  0.0061
 3814SOL    HW215022   3.975   6.314   2.601  1.9901  0.0439 -0.1440
 3814SOL    HW315023   4.026   6.177   2.562  0.1740 -1.1505  1.4695
 3814SOL    MW415024   3.971   6.227   2.607  0.2231  0.1181  0.1794
 3815SOL     OW15025   5.938   5.164   3.827 -0.1515 -0.3152 -0.4181
 3815SOL    HW215026   5.861   5.110   3.810  0.0651 -0.5268 -0.7521
 3815SOL    HW315027   5.976   5.179   3.741  0.3363 -0.4547 -0.2320
 3815SOL    MW415028   5.933   5.159   3.814 -0.0586 -0.3615 -0.4376
 3816SOL     OW15029   3.431   5.341   0.655  0.5192 -0.0502  0.0189
 3816SOL    HW215030   3.521   5.309   0.661  0.4405 -0.1497  0.7226
 3816SOL    HW315031   3.433   5.427   0.697  0.3644  0.1150 -0.3089
 3816SOL    MW415032   3.443   5.348   0.661  0.4884 -0.0415  0.0685
 3817SOL     OW15033   5.277   1.516   1.235 -0.2363  0.0983  0.1405
 3817SOL    HW215034   5.270   1.510   1.330 -0.4342  0.6740  0.1701
 3817SOL    HW315035   5.306   1.606   1.219  2.4042 -0.7153 -0.2261
 3817SOL    MW415036   5.280   1.527   1.246  0.0860  0.0669  0.0960
 3818SOL     OW15037   0.756   3.267   1.061  0.0439  0.1918 -0.2404
 3818SOL    HW215038   0.745   3.348   1.011  0.9820  1.4767  1.5123
 3818SOL    HW315039   0.835   3.227   1.023 -0.2961  0.1958 -0.9724
 3818SOL    MW415040   0.765   3.272   1.049  0.1228  0.3619 -0.1057
 3819SOL     OW15041   5.094   2.537   3.993 -0.3499 -0.3447 -0.2145
 3819SOL    HW215042   5.162   2.490   3.944 -0.8242 -0.8199 -0.4156
 3819SOL    HW315043   5.144   2.595   4.051  0.2259  0.2981 -1.3019
 3819SOL    MW415044   5.110   2.539   3.994 -0.3365 -0.3226 -0.3845
 3820SOL     OW15045   5.617   4.948   6.374  0.8734  0.7810  0.5017
 3820SOL    HW215046   5.547   4.922   6.435  2.5682  0.7270  2.5312
 3820SOL    HW315047   5.653   4.865   6.342 -2.0104  0.6922 -3.2701
 3820SOL    MW415048   5.612   4.933   6.378  0.7165  0.7622  0.2718
 3821SOL     OW15049   6.090   5.977   0.671 -0.4510 -0.0944 -0.1542
 3821SOL    HW215050   6.086   5.958   0.577  0.9315  1.1694 -0.5173
 3821SOL    HW315051   6.157   6.045   0.678 -0.9061  0.2074  1.7009
 3821SOL    MW415052   6.098   5.984   0.659 -0.3286  0.1121  0.0427
 3822SOL     OW15053   3.640   2.169   4.540  0.2852 -0.4305 -0.0136
 3822SOL    HW215054   3.683   2.145   4.457  0.5547  0.0404 -0.0114
 3822SOL    HW315055   3.697   2.235   4.578 -0.0528 -0.3526  0.3563
 3822SOL    MW415056   3.653   2.174   4.534  0.2761 -0.3581  0.0355
 3823SOL     OW15057   1.311   5.733   3.271  0.6916  0.2164  0.6695
 3823SOL    HW215058   1.356   5.661   3.315 -1.3140 -0.4788  1.7370
 3823SOL    HW315059   1.351   5.736   3.184 -0.1816 -3.3424 -0.0375
 3823SOL    MW415060   1.322   5.724   3.265  0.3118 -0.3448  0.7171
 3824SOL     OW15061   3.965   5.543   3.172  0.3202  0.2160  0.4886
 3824SOL    HW215062   4.057   5.537   3.149 -0.1351  0.0635 -1.5286
 3824SOL    HW315063   3.925   5.591   3.099 -1.3652 -0.6864  0.7560
 3824SOL    MW415064   3.972   5.548   3.159  0.0377  0.0768  0.2578
 3825SOL     OW15065   0.832   6.246   4.987 -0.2608 -0.3288 -0.1365
 3825SOL    HW215066   0.772   6.284   5.051  0.6296  1.4412 -0.2676
 3825SOL    HW315067   0.918   6.255   5.027  0.0812 -1.3556 -0.6117
 3825SOL    MW415068   0.836   6.252   5.001 -0.0982 -0.2308 -0.2165
 3826SOL     OW15069   0.037   1.207   1.036  0.2739  0.0242  0.6269
 3826SOL    HW215070  -0.017   1.169   0.967 -0.9974  0.7234  1.2051
 3826SOL    HW315071   0.030   1.145   1.109 -2.3753  1.5829  1.8235
 3826SOL    MW415072   0.029   1.194   1.036 -0.2433  0.3221  0.8611
 3827SOL     OW15073   6.063   5.207   3.585  0.3119 -0.5648 -0.0012
 3827SOL    HW215074   6.045   5.299   3.564  0.4904 -0.0585  1.8317
 3827SOL    HW315075   5.996   5.158   3.539 -1.9419  0.7698  1.6417
 3827SOL    MW415076   6.052   5.213   3.576  0.0381 -0.3219  0.4574
 3828SOL     OW15077   4.807   0.644   3.636 -0.5653 -0.0999 -0.0786
 3828SOL    HW215078   4.723   0.611   3.606 -1.5031  0.8146  1.3799
 3828SOL    HW315079   4.792   0.668   3.728  0.9651  1.1429 -0.0992
 3828SOL    MW415080   4.794   0.643   3.644 -0.4871  0.1847  0.1111
 3829SOL     OW15081   0.172   5.312   1.133 -0.5443  0.3846 -0.2801
 3829SOL    HW215082   0.193   5.271   1.049  0.6104 -1.1384  0.6884
 3829SOL    HW315083   0.092   5.269   1.163 -0.2601  0.0180 -0.0363
 3829SOL    MW415084   0.164   5.301   1.126 -0.3544  0.1353 -0.1201
 3830SOL     OW15085   1.124   2.307   0.856 -0.2913  0.0782  0.4060
 3830SOL    HW215086   1.072   2.367   0.910 -1.4318 -0.1672 -0.3827
 3830SOL    HW315087   1.059   2.263   0.801  0.6783 -0.9005  0.0288
 3830SOL    MW415088   1.108   2.309   0.856 -0.3139 -0.0833  0.2522
 3831SOL     OW15089   3.448   3.067   6.163  0.1954  0.3282 -0.6657
 3831SOL    HW215090   3.407   3.023   6.089  0.5858 -2.2788  0.5457
 3831SOL    HW315091   3.542   3.058   6.148  0.2879  0.6534 -0.3097
 3831SOL    MW415092   3.455   3.060   6.151  0.2591  0.0272 -0.4589
 3832SOL     OW15093   3.784   0.441   0.061  0.3590 -0.7214 -0.8991
 3832SOL    HW215094   3.802   0.533   0.042 -0.4337 -0.3536  0.0088
 3832SOL    HW315095   3.693   0.428   0.034  0.6903 -1.4521 -1.7182
 3832SOL    MW415096   3.774   0.451   0.055  0.2981 -0.7693 -0.8874
 3833SOL     OW15097   3.344   1.369   1.573 -0.2642  0.2046 -0.3748
 3833SOL    HW215098   3.438   1.357   1.582 -0.2079  1.5407  1.3156
 3833SOL    HW315099   3.332   1.398   1.482  0.9184 -0.0983 -0.6446
 3833SOL    MW415100   3.355   1.371   1.562 -0.1008  0.3409 -0.1874
 3834SOL     OW15101   0.716   2.335   0.555  0.2270  0.0112 -0.2486
 3834SOL    HW215102   0.626   2.327   0.523  0.2811 -0.1898 -0.3566
 3834SOL    HW315103   0.766   2.369   0.480  0.0662  1.0524  0.1018
 3834SOL    MW415104   0.711   2.338   0.540  0.2129  0.1220 -0.2166
 3835SOL     OW15105   2.335   5.939   2.211 -0.0431 -0.4838  0.0158
 3835SOL    HW215106   2.343   5.960   2.304 -1.0317 -2.1437  0.5215
 3835SOL    HW315107   2.317   6.023   2.169 -0.0510  0.2258  1.3836
 3835SOL    MW415108   2.334   5.953   2.217 -0.1746 -0.6091  0.2630
 3836SOL     OW15109   4.536   5.960   6.118 -0.0561  0.3325 -0.4200
 3836SOL    HW215110   4.575   5.890   6.065  0.4832 -0.3046  0.7774
 3836SOL    HW315111   4.610   5.999   6.164 -0.5372  0.7826 -0.0203
 3836SOL    MW415112   4.551   5.956   6.117 -0.0484  0.3078 -0.2093
 3837SOL     OW15113   4.857   4.621   0.933 -0.0150 -0.4473 -0.3355
 3837SOL    HW215114   4.859   4.691   0.998 -0.3835  1.7437 -2.5488
 3837SOL    HW315115   4.779   4.571   0.954 -1.4143  1.5878 -0.3982
 3837SOL    MW415116   4.847   4.624   0.945 -0.2482  0.1103 -0.6358
 3838SOL     OW15117   0.237   5.795   4.963  0.0910 -0.0857 -0.2594
 3838SOL    HW215118   0.171   5.783   4.895  0.9234 -0.1075 -1.0893
 3838SOL    HW315119   0.189   5.831   5.038 -0.6888  0.9216 -1.2085
 3838SOL    MW415120   0.222   5.798   4.964  0.0979  0.0443 -0.4941
 3839SOL     OW15121   2.249   3.203   3.458  0.0014  0.1076 -0.0547
 3839SOL    HW215122   2.272   3.279   3.511  2.6304 -0.2685 -0.4902
 3839SOL    HW315123   2.292   3.129   3.502  1.1402 -0.4123 -1.8991
 3839SOL    MW415124   2.258   3.203   3.471  0.4985 -0.0106 -0.3555
 3840SOL     OW15125   2.129   6.192   6.361 -0.2815  0.3233  0.3411
 3840SOL    HW215126   2.104   6.126   6.425 -2.3110  0.0653 -0.6250
 3840SOL    HW315127   2.084   6.272   6.391  0.6678  0.8087  0.5026
 3840SOL    MW415128   2.120   6.194   6.373 -0.4240  0.3533  0.2350
 3841SOL     OW15129   3.680   0.719   4.553  0.1607  0.5613 -0.4319
 3841SOL    HW215130   3.626   0.794   4.528 -1.0394 -0.3597 -0.6928
 3841SOL    HW315131   3.731   0.698   4.475 -1.6022 -0.6346 -1.3134
 3841SOL    MW415132   3.680   0.726   4.540 -0.2302  0.2820 -0.5827
 3842SOL     OW15133   1.835   6.115   1.054  0.1558 -0.1053  0.1108
 3842SOL    HW215134   1.747   6.133   1.020  0.3295  0.7435  0.0902
 3842SOL    HW315135   1.827   6.127   1.148  0.1394 -0.5071  0.1622
 3842SOL    MW415136   1.822   6.119   1.062  0.1766 -0.0463  0.1149
 3843SOL     OW15137   0.441   2.049   0.250 -0.4284  0.1813 -0.6329
 3843SOL    HW215138   0.491   2.131   0.242 -0.4994  0.1478 -1.4163
 3843SOL    HW315139   0.354   2.078   0.277 -0.4788  0.3735 -0.9934
 3843SOL    MW415140   0.436   2.064   0.253 -0.4444  0.2023 -0.7838
 3844SOL     OW15141   0.986   0.423   5.790 -0.3672 -0.4605  0.1983
 3844SOL    HW215142   0.928   0.480   5.841  0.2735  0.1362  0.2771
 3844SOL    HW315143   0.970   0.447   5.699 -0.2675 -0.3127  0.2189
 3844SOL    MW415144   0.977   0.433   5.785 -0.2695 -0.3623  0.2115
 3845SOL     OW15145   0.894   0.199   2.688 -0.1623 -0.3726 -0.4978
 3845SOL    HW215146   0.880   0.188   2.594  1.1287  0.9911 -0.8850
 3845SOL    HW315147   0.989   0.207   2.698 -0.0562 -2.7279  1.2250
 3845SOL    MW415148   0.905   0.199   2.677  0.0220 -0.5034 -0.3216
 3846SOL     OW15149   4.013   0.364   5.138 -0.2611 -0.1941  0.0787
 3846SOL    HW215150   3.989   0.338   5.049 -0.7376  0.1639  0.1005
 3846SOL    HW315151   4.009   0.459   5.138  1.2914 -0.1145  0.0593
 3846SOL    MW415152   4.009   0.373   5.127 -0.1191 -0.1363  0.0790
 3847SOL     OW15153   4.541   2.628   1.885 -0.1502 -0.0779 -0.1669
 3847SOL    HW215154   4.551   2.534   1.901  0.7206 -0.0072 -0.2545
 3847SOL    HW315155   4.538   2.636   1.790 -0.3779 -0.0272 -0.1568
 3847SOL    MW415156   4.542   2.617   1.875 -0.0653 -0.0619 -0.1771
 3848SOL     OW15157   2.490   1.956   4.455 -0.2407 -0.0216  0.0576
 3848SOL    HW215158   2.540   1.949   4.536 -1.2883  0.6606  0.7785
 3848SOL    HW315159   2.451   2.043   4.458  0.4634  0.4011 -1.6443
 3848SOL    MW415160   2.492   1.967   4.466 -0.2860  0.1242 -0.0718
 3849SOL     OW15161   4.890   4.581   5.255 -0.2032 -0.2135 -0.1194
 3849SOL    HW215162   4.873   4.585   5.161 -3.0486 -2.1041  0.2086
 3849SOL    HW315163   4.855   4.662   5.290  1.3296  0.7370 -0.6659
 3849SOL    MW415164   4.883   4.592   5.247 -0.3764 -0.3375 -0.1482
 3850SOL     OW15165   0.552   4.186   3.020 -0.1838  0.4837 -0.5022
 3850SOL    HW215166   0.553   4.180   3.116  0.5029 -2.5545 -0.5761
 3850SOL    HW315167   0.470   4.145   2.994  0.4335 -0.3585 -1.2022
 3850SOL    MW415168   0.542   4.180   3.030 -0.0118 -0.0283 -0.6043
 3851SOL     OW15169   1.435   0.855   1.514  0.4072 -0.2718  0.1724
 3851SOL    HW215170   1.339   0.857   1.512  0.4221  0.9092 -0.0834
 3851SOL    HW315171   1.457   0.764   1.496 -0.6762 -0.6531  0.6632
 3851SOL    MW415172   1.425   0.844   1.511  0.2662 -0.1663  0.2034
 3852SOL     OW15173   4.479   2.981   1.379 -0.0793  0.1777  0.6579
 3852SOL    HW215174   4.435   2.922   1.440 -0.0723 -0.1479  0.3545
 3852SOL    HW315175   4.427   2.975   1.299  1.6421 -1.7975 -0.4050
 3852SOL    MW415176   4.466   2.973   1.376  0.1487 -0.1258  0.4776
 3853SOL     OW15177   0.924   0.612   2.072  0.3831 -0.3601 -0.5126
 3853SOL    HW215178   0.921   0.600   1.978  0.2988 -0.0588 -0.5480
 3853SOL    HW315179   1.017   0.613   2.094  0.4433  0.9502 -0.7697
 3853SOL    MW415180   0.936   0.610   2.063  0.3799 -0.1475 -0.5512
 3854SOL     OW15181   6.325   1.712   6.405 -0.5585  0.3158  0.7114
 3854SOL    HW215182   6.300   1.621   6.421  1.0815 -0.6249 -1.5308
 3854SOL    HW315183   6.242   1.758   6.394 -1.4173 -1.0799  1.0723
 3854SOL    MW415184   6.311   1.706   6.406 -0.4554  0.0075  0.4632
 3855SOL     OW15185   3.503   2.831   3.933  0.1795  1.1688 -0.2597
 3855SOL    HW215186   3.525   2.903   3.993 -1.0414  0.6813  0.8308
 3855SOL    HW315187   3.586   2.785   3.921  0.7201  2.0292  0.0267
 3855SOL    MW415188   3.517   2.835   3.940  0.0897  1.2180 -0.0780
 3856SOL     OW15189   0.729   1.496   6.413 -0.1774 -0.1202  0.0476
 3856SOL    HW215190   0.763   1.512   6.325  0.9493  0.4677  0.5715
 3856SOL    HW315191   0.691   1.408   6.408  0.1312 -0.2127 -0.9464
 3856SOL    MW415192   0.729   1.487   6.401  0.0120 -0.0549 -0.0144
 3857SOL     OW15193   0.974   2.237   3.071  0.0940 -0.0003  0.5088
 3857SOL    HW215194   0.930   2.188   3.001 -2.6306  0.5793  1.6912
 3857SOL    HW315195   0.937   2.325   3.065  0.9748  0.4660  1.7025
 3857SOL    MW415196   0.963   2.242   3.061 -0.1493  0.1377  0.8223
 3858SOL     OW15197   2.266   2.461   0.439 -0.0943  0.3839 -0.2230
 3858SOL    HW215198   2.342   2.511   0.410 -0.1203 -0.0050 -1.0101
 3858SOL    HW315199   2.301   2.373   0.456 -0.2897  0.3107 -0.2020
 3858SOL    MW415200   2.281   2.456   0.437 -0.1235  0.3229 -0.3241
 3859SOL     OW15201   1.272   3.463   1.650 -0.1040 -0.0233 -0.9875
 3859SOL    HW215202   1.363   3.488   1.638 -0.1683  0.2310 -0.9540
 3859SOL    HW315203   1.223   3.518   1.589 -0.3420  0.6243 -0.2388
 3859SOL    MW415204   1.277   3.474   1.641 -0.1439  0.0957 -0.8843
 3860SOL     OW15205   5.750   1.315   0.754 -0.1305 -0.8611 -0.0412
 3860SOL    HW215206   5.761   1.220   0.764 -2.1028 -1.1501 -0.2546
 3860SOL    HW315207   5.750   1.349   0.843 -3.2208 -1.6025  0.3581
 3860SOL    MW415208   5.752   1.307   0.767 -0.7984 -0.9970 -0.0167
 3861SOL     OW15209   0.132   0.733   1.741  0.0491  0.2581  0.2763
 3861SOL    HW215210   0.160   0.816   1.780 -2.1764  1.3135 -0.2029
 3861SOL    HW315211   0.159   0.667   1.804  1.1496  1.4013  1.0682
 3861SOL    MW415212   0.139   0.735   1.754 -0.0993  0.5482  0.3176
 3862SOL     OW15213   5.651   2.352   0.519 -0.0766  0.0300  0.5589
 3862SOL    HW215214   5.629   2.445   0.523  1.2426  0.4706 -1.1619
 3862SOL    HW315215   5.580   2.312   0.467  0.6167  0.5533 -0.8271
 3862SOL    MW415216   5.639   2.359   0.513  0.1889  0.1572  0.1490
 3863SOL     OW15217   6.170   5.083   4.290 -0.2761  0.2051  0.5373
 3863SOL    HW215218   6.167   5.149   4.221  0.6297  0.8258  1.0812
 3863SOL    HW315219   6.259   5.049   4.288 -0.5946 -0.6710  0.5801
 3863SOL    MW415220   6.181   5.087   4.281 -0.1986  0.1714  0.6147
 3864SOL     OW15221   4.840   3.967   2.473  0.1017  0.1115 -0.0409
 3864SOL    HW215222   4.747   3.947   2.457 -0.1929  0.2449  1.4076
 3864SOL    HW315223   4.846   4.062   2.464  0.1305  0.0936 -0.2308
 3864SOL    MW415224   4.828   3.977   2.470  0.0666  0.1268  0.1252
 3865SOL     OW15225   3.453   4.867   1.234  0.0092  0.1213 -0.2800
 3865SOL    HW215226   3.424   4.958   1.231  0.5630  0.5185  2.8338
 3865SOL    HW315227   3.397   4.826   1.299  1.5208 -1.0291  0.3752
 3865SOL    MW415228   3.442   4.873   1.242  0.2817  0.0220  0.2173
 3866SOL     OW15229   0.190   2.772   3.693  0.6080  0.2031 -0.3105
 3866SOL    HW215230   0.183   2.853   3.643 -0.5945 -0.2956 -0.9892
 3866SOL    HW315231   0.222   2.708   3.630  0.4855 -0.0987 -0.0667
 3866SOL    MW415232   0.193   2.774   3.678  0.4332  0.0975 -0.3679
 3867SOL     OW15233   3.184   5.930   0.070 -0.3214 -0.4878 -0.6894
 3867SOL    HW215234   3.164   6.021   0.092  1.8416  0.1269 -1.0149
 3867SOL    HW315235   3.203   5.889   0.154 -0.3217 -0.3769 -0.6342
 3867SOL    MW415236   3.184   5.937   0.084 -0.0360 -0.3920 -0.7251
 3868SOL     OW15237   4.988   5.485   1.006  0.1936  0.0367 -0.0771
 3868SOL    HW215238   5.026   5.489   0.918 -1.6207 -0.9599 -0.9707
 3868SOL    HW315239   4.898   5.515   0.995 -0.2673 -0.7268  1.3046
 3868SOL    MW415240   4.981   5.490   0.993 -0.1066 -0.1955 -0.0127
 3869SOL     OW15241   3.491   4.176   1.909  0.2417  0.2595 -0.2198
 3869SOL    HW215242   3.534   4.221   1.982 -0.7358  1.2131 -0.2036
 3869SOL    HW315243   3.432   4.113   1.951  0.9416 -0.3994 -0.2234
 3869SOL    MW415244   3.489   4.174   1.925  0.2051  0.2984 -0.2182
 3870SOL     OW15245   1.278   3.704   2.124 -0.3994 -0.1362  0.1572
 3870SOL    HW215246   1.310   3.793   2.140  1.0870 -0.9893  2.5698
 3870SOL    HW315247   1.199   3.697   2.178 -0.0684 -0.4843  0.6108
 3870SOL    MW415248   1.272   3.715   2.134 -0.1596 -0.2947  0.5353
 3871SOL     OW15249   4.415   6.387   2.480  0.1238  0.0066 -0.2512
 3871SOL    HW215250   4.429   6.313   2.421  0.9774 -0.9970  1.1591
 3871SOL    HW315251   4.503   6.415   2.504 -0.2044  0.1524  0.8270
 3871SOL    MW415252   4.428   6.381   2.475  0.1931 -0.1066  0.0771
 3872SOL     OW15253   0.520   0.305   2.872 -0.0978  0.3633  0.2762
 3872SOL    HW215254   0.504   0.233   2.933 -0.4574  1.8116  1.9749
 3872SOL    HW315255   0.539   0.262   2.788  0.7503 -1.7145  1.4597
 3872SOL    MW415256   0.520   0.290   2.869 -0.0333  0.2803  0.6565
 3873SOL     OW15257   3.915   5.264   1.575  0.1671  0.3783  0.2183
 3873SOL    HW215258   3.955   5.315   1.503  0.0574  0.0224 -0.0952
 3873SOL    HW315259   3.951   5.176   1.564 -1.8563 -0.3734 -1.0169
 3873SOL    MW415260   3.925   5.259   1.564 -0.1143  0.2322  0.0140
 3874SOL     OW15261   4.655   1.324   6.333 -0.1936  0.8946 -0.1366
 3874SOL    HW215262   4.709   1.247   6.321  2.3400  2.5056  0.1604
 3874SOL    HW315263   4.617   1.314   6.421 -1.7176 -0.9801 -0.9481
 3874SOL    MW415264   4.657   1.313   6.343 -0.0604  0.8598 -0.2045
 3875SOL     OW15265   4.708   3.225   3.481 -0.2026  0.3293 -0.0314
 3875SOL    HW215266   4.703   3.313   3.445 -0.0334 -0.2549 -1.5407
 3875SOL    HW315267   4.692   3.167   3.407 -3.1111 -0.9074  1.3961
 3875SOL    MW415268   4.705   3.229   3.467 -0.5640  0.0891 -0.0422
 3876SOL     OW15269   0.326   3.030   1.083 -0.0718 -0.5341  0.2209
 3876SOL    HW215270   0.357   3.114   1.117 -1.5193 -0.4964  1.5727
 3876SOL    HW315271   0.239   3.049   1.047 -0.8066 -1.5694  1.3488
 3876SOL    MW415272   0.318   3.043   1.083 -0.3597 -0.6657  0.5481
 3877SOL     OW15273   4.611   5.952   3.836 -0.0011  0.0252 -0.1658
 3877SOL    HW215274   4.663   5.879   3.871  0.0172  0.1388  0.0440
 3877SOL    HW315275   4.638   6.028   3.888 -1.0090 -0.0801  0.5517
 3877SOL    MW415276   4.621   5.952   3.848 -0.1317  0.0263 -0.0435
 3878SOL     OW15277   1.882   5.682   5.661 -0.5832 -0.3899 -0.7736
 3878SOL    HW215278   1.884   5.718   5.572 -0.5104 -0.2584 -0.7175
 3878SOL    HW315279   1.967   5.640   5.672  1.2710  3.3079  0.8026
 3878SOL    MW415280   1.893   5.681   5.651 -0.3289  0.1154 -0.5583
 3879SOL     OW15281   0.940   4.363   3.026  0.2471 -0.1945  0.0951
 3879SOL    HW215282   1.025   4.340   2.988 -0.3294 -2.3672 -0.0095
 3879SOL    HW315283   0.928   4.300   3.097 -0.4571  1.3160  1.3750
 3879SOL    MW415284   0.950   4.352   3.030  0.0781 -0.2818  0.2501
 3880SOL     OW15285   4.269   4.382   3.227  0.2925 -0.3291  0.2047
 3880SOL    HW215286   4.183   4.420   3.243  0.3167 -0.7016  1.2964
 3880SOL    HW315287   4.330   4.441   3.271  0.3317 -1.5855  1.9109
 3880SOL    MW415288   4.266   4.395   3.235  0.3009 -0.5440  0.5739
 3881SOL     OW15289   2.918   1.637   6.087 -1.0247 -0.1653  0.1246
 3881SOL    HW215290   2.967   1.685   6.154  0.1192  0.2537 -0.9583
 3881SOL    HW315291   2.965   1.553   6.079 -0.3771  0.2850 -1.0011
 3881SOL    MW415292   2.931   1.632   6.095 -0.7884 -0.0506 -0.1668
 3882SOL     OW15293   1.676   0.145   6.184 -0.3875  0.1013  0.1265
 3882SOL    HW215294   1.706   0.065   6.142 -0.3692  1.2664 -2.2564
 3882SOL    HW315295   1.706   0.215   6.126  0.0983  1.9107  2.4152
 3882SOL    MW415296   1.684   0.144   6.171 -0.3210  0.4938  0.1141
 3883SOL     OW15297   3.238   2.404   0.125 -0.9300 -0.5079  0.3208
 3883SOL    HW215298   3.296   2.413   0.202 -0.2430  2.8634 -0.3947
 3883SOL    HW315299   3.158   2.449   0.151 -2.3322 -2.8791  0.3714
 3883SOL    MW415300   3.235   2.411   0.139 -1.0244 -0.3760  0.2331
 3884SOL     OW15301   4.093   4.375   1.641 -0.4015  0.0100 -0.0445
 3884SOL    HW215302   4.137   4.399   1.722  0.5301  1.0452 -0.8383
 3884SOL    HW315303   4.151   4.311   1.600  0.0078  0.8113 -0.7322
 3884SOL    MW415304   4.106   4.369   1.647 -0.2246  0.2523 -0.2399
 3885SOL     OW15305   6.288   3.600   5.484  0.1742 -0.0550  0.3116
 3885SOL    HW215306   6.250   3.534   5.425  0.0888  0.4525 -0.2061
 3885SOL    HW315307   6.279   3.561   5.571 -1.6049  0.0523  0.2280
 3885SOL    MW415308   6.281   3.586   5.487 -0.0718  0.0261  0.2323
 3886SOL     OW15309  -0.008   1.157   4.424 -0.1128 -0.2176 -0.7115
 3886SOL    HW215310   0.001   1.073   4.468 -0.8094  0.4415  0.7454
 3886SOL    HW315311   0.063   1.211   4.459  0.0635 -0.0457 -1.3122
 3886SOL    MW415312   0.003   1.153   4.434 -0.1814 -0.1080 -0.5985
 3887SOL     OW15313   6.105   0.263   1.119 -0.6974 -0.2551 -0.1970
 3887SOL    HW215314   6.070   0.351   1.131  0.6352  0.1898  0.7775
 3887SOL    HW315315   6.043   0.206   1.164 -0.8765  0.3440  0.3289
 3887SOL    MW415316   6.092   0.267   1.127 -0.5452 -0.1174  0.0009
 3888SOL     OW15317   4.970   0.204   1.840 -0.6057  0.1813 -0.3737
 3888SOL    HW215318   4.963   0.173   1.749 -0.8535 -2.0191  0.3235
 3888SOL    HW315319   5.061   0.231   1.848 -0.8743  1.6241 -1.5869
 3888SOL    MW415320   4.981   0.203   1.829 -0.6738  0.0813 -0.4418
 3889SOL     OW15321   0.768   3.342   0.319 -0.4258 -0.3907 -0.1996
 3889SOL    HW215322   0.734   3.278   0.256  0.7544 -0.8118 -0.4372
 3889SOL    HW315323   0.863   3.338   0.307 -0.2548  0.2901  0.8768
 3889SOL    MW415324   0.776   3.333   0.309 -0.2475 -0.3564 -0.0889
 3890SOL     OW15325   0.283   3.958   1.318  0.2989 -0.2164  0.1180
 3890SOL    HW215326   0.224   3.888   1.346  1.6098 -1.5109 -0.2042
 3890SOL    HW315327   0.368   3.934   1.355  0.3720  2.4121  1.8750
 3890SOL    MW415328   0.287   3.945   1.326  0.4815 -0.0404  0.3073
 3891SOL     OW15329   3.791   5.857   2.324  0.0435 -0.2312  0.0582
 3891SOL    HW215330   3.818   5.949   2.321 -0.7643 -0.0094 -1.0235
 3891SOL    HW315331   3.696   5.861   2.332  0.1345 -0.9938  1.9232
 3891SOL    MW415332   3.782   5.870   2.325 -0.0511 -0.3026  0.1615
 3892SOL     OW15333   4.819   4.425   3.804 -0.0875  0.3207  0.6585
 3892SOL    HW215334   4.757   4.454   3.871 -1.7016  0.1815 -0.7107
 3892SOL    HW315335   4.855   4.344   3.838 -0.7638  0.3300  1.4333
 3892SOL    MW415336   4.816   4.418   3.818 -0.3897  0.3035  0.5801
 3893SOL     OW15337   1.853   5.348   3.551  0.1744  0.3584  0.0698
 3893SOL    HW215338   1.872   5.347   3.645  0.9573 -0.3735 -0.0881
 3893SOL    HW315339   1.939   5.345   3.508 -0.1679  0.8222 -0.6773
 3893SOL    MW415340   1.867   5.347   3.558  0.2325  0.3231 -0.0496
 3894SOL     OW15341   5.023   1.289   4.422 -0.6079 -0.1787 -0.4825
 3894SOL    HW215342   5.025   1.360   4.487 -2.4799  0.5087 -1.0888
 3894SOL    HW315343   5.002   1.333   4.339 -1.1804 -1.3638 -0.9917
 3894SOL    MW415344   5.020   1.304   4.420 -0.9305 -0.2444 -0.6297
 3895SOL     OW15345   4.855   4.689   3.115  0.4689 -0.0420 -0.0826
 3895SOL    HW215346   4.775   4.675   3.063  2.0497  1.1538 -3.0888
 3895SOL    HW315347   4.824   4.724   3.198 -2.2468 -2.1787 -0.0607
 3895SOL    MW415348   4.840   4.692   3.119  0.3191 -0.1661 -0.4763
 3896SOL     OW15349   0.712   0.766  -0.005 -0.0697 -0.2369 -0.1157
 3896SOL    HW215350   0.682   0.845   0.039 -0.8091  0.6316 -2.0639
 3896SOL    HW315351   0.693   0.695   0.057 -0.2262  1.0091  1.2912
 3896SOL    MW415352   0.705   0.767   0.009 -0.1879  0.0421 -0.1871
 3897SOL     OW15353   5.952   6.343   0.482  0.6233 -0.2333 -0.2547
 3897SOL    HW215354   6.012   6.295   0.426  2.3402  0.2973  1.0570
 3897SOL    HW315355   5.994   6.345   0.567 -1.1808  0.3324  0.6847
 3897SOL    MW415356   5.965   6.337   0.486  0.6118 -0.0887  0.0423
 3898SOL     OW15357   5.361   0.239   4.897  0.6430  0.3894  0.6834
 3898SOL    HW215358   5.343   0.228   4.804 -1.3337  0.5325  0.9907
 3898SOL    HW315359   5.294   0.301   4.927 -0.1775 -1.2955  2.6123
 3898SOL    MW415360   5.350   0.246   4.889  0.2740  0.1860  0.9784
 3899SOL     OW15361   5.999   6.304   6.032 -0.0867  0.3287 -0.0554
 3899SOL    HW215362   6.041   6.341   6.109  0.1750 -1.3151  0.6440
 3899SOL    HW315363   6.071   6.264   5.982 -0.6910 -2.4432  1.1126
 3899SOL    MW415364   6.014   6.303   6.035 -0.1319 -0.2539  0.1910
 3900SOL     OW15365   1.529   0.720   0.807 -0.1355 -0.1667 -0.3027
 3900SOL    HW215366   1.455   0.714   0.867 -0.2066 -0.1513 -0.3886
 3900SOL    HW315367   1.590   0.652   0.837 -0.6988 -0.9703 -0.9383
 3900SOL    MW415368   1.527   0.710   0.819 -0.2192 -0.2707 -0.3979
 3901SOL     OW15369   2.066   5.370   2.897  1.1156 -0.3426  0.1279
 3901SOL    HW215370   2.003   5.351   2.966  1.6574  0.3603  0.8279
 3901SOL    HW315371   2.144   5.321   2.922  0.9571 -0.9679 -0.5759
 3901SOL    MW415372   2.068   5.361   2.909  1.1662 -0.3324  0.1274
 3902SOL     OW15373   3.717   0.090   5.229  0.2631 -0.3806  0.0477
 3902SOL    HW215374   3.799   0.058   5.267  0.3160  0.5326  0.7456
 3902SOL    HW315375   3.714   0.051   5.142  1.3900 -0.5275  0.0558
 3902SOL    MW415376   3.728   0.081   5.222  0.4187 -0.2795  0.1409
 3903SOL     OW15377   1.634   1.968   0.527 -0.1486 -0.6590 -0.1088
 3903SOL    HW215378   1.549   2.005   0.549  0.6391  2.0629 -1.2656
 3903SOL    HW315379   1.630   1.952   0.433  0.4899 -0.9014 -0.1018
 3903SOL    MW415380   1.622   1.971   0.518  0.0396 -0.3319 -0.2605
 3904SOL     OW15381   5.749   2.374   1.152  0.0824 -0.4616 -0.2809
 3904SOL    HW215382   5.804   2.305   1.189  0.1608  0.5388  1.5946
 3904SOL    HW315383   5.811   2.438   1.117  0.0424 -0.6532 -0.7048
 3904SOL    MW415384   5.765   2.373   1.152  0.0875 -0.3549 -0.0894
 3905SOL     OW15385   5.952   3.600   5.070  0.0233 -0.5733 -0.2148
 3905SOL    HW215386   5.879   3.633   5.018 -0.5001 -1.4436 -0.0527
 3905SOL    HW315387   5.990   3.678   5.111  0.1623  0.0740 -1.5094
 3905SOL    MW415388   5.948   3.614   5.069 -0.0274 -0.6027 -0.3642
 3906SOL     OW15389   5.753   3.440   3.724 -0.1998 -0.0611  0.3014
 3906SOL    HW215390   5.828   3.380   3.730 -0.4292 -0.3021  0.8732
 3906SOL    HW315391   5.705   3.411   3.646  0.6211  0.4795 -0.4159
 3906SOL    MW415392   5.756   3.428   3.715 -0.1218 -0.0215  0.2822
 3907SOL     OW15393   5.898   0.813   6.157  0.9507  0.2194 -0.0001
 3907SOL    HW215394   5.840   0.884   6.129 -1.3544 -1.8873 -0.9381
 3907SOL    HW315395   5.867   0.789   6.244  0.7370 -0.5610 -0.2791
 3907SOL    MW415396   5.886   0.819   6.164  0.6184 -0.1615 -0.1606
 3908SOL     OW15397   4.698   1.178   3.590  0.3590  0.1480 -0.2673
 3908SOL    HW215398   4.626   1.120   3.565  0.4742 -0.5478  0.9228
 3908SOL    HW315399   4.724   1.221   3.509  0.5022 -1.7482 -1.2775
 3908SOL    MW415400   4.692   1.176   3.576  0.3931 -0.1940 -0.2436
 3909SOL     OW15401   4.362   0.950   4.307  0.3250 -0.4215  0.2294
 3909SOL    HW215402   4.328   1.008   4.375  1.8283  0.9775 -0.1495
 3909SOL    HW315403   4.291   0.941   4.244 -0.2781  0.1579  0.8210
 3909SOL    MW415404   4.348   0.956   4.308  0.4437 -0.1605  0.2575
 3910SOL     OW15405   2.581   4.609   3.662 -0.0690 -0.2201 -0.1445
 3910SOL    HW215406   2.535   4.594   3.744 -1.0867 -0.0278 -0.6666
 3910SOL    HW315407   2.580   4.525   3.617 -3.1634  0.5362 -1.7542
 3910SOL    MW415408   2.575   4.596   3.667 -0.6116 -0.0949 -0.4258
 3911SOL     OW15409   1.922   5.604   2.292  0.0617 -0.0156  0.2037
 3911SOL    HW215410   1.835   5.638   2.274 -0.1291 -0.7446 -0.3026
 3911SOL    HW315411   1.980   5.680   2.285  0.3196 -0.3244 -5.3777
 3911SOL    MW415412   1.919   5.619   2.289  0.0705 -0.1526 -0.5995
 3912SOL     OW15413   4.056   3.584   2.528 -0.0949 -0.8277  0.2399
 3912SOL    HW215414   4.137   3.616   2.567 -0.1545 -0.1263 -0.1903
 3912SOL    HW315415   4.001   3.662   2.522 -0.5609 -1.1786 -0.0657
 3912SOL    MW415416   4.059   3.598   2.533 -0.1642 -0.7815  0.1428
 3913SOL     OW15417   4.226   0.754   3.893 -0.1732 -0.0826 -0.2894
 3913SOL    HW215418   4.145   0.792   3.859 -0.4414 -0.4040 -0.0014
 3913SOL    HW315419   4.294   0.817   3.866 -0.5833  0.4786 -0.0335
 3913SOL    MW415420   4.225   0.768   3.885 -0.2627 -0.0509 -0.2176
 3914SOL     OW15421   0.305   1.806   0.513 -0.2689  0.1519  0.5526
 3914SOL    HW215422   0.301   1.738   0.580  1.3857  0.3267  0.8545
 3914SOL    HW315423   0.383   1.786   0.462 -0.8925  0.6572 -0.6528
 3914SOL    MW415424   0.315   1.795   0.515 -0.1329  0.2416  0.4334
 3915SOL     OW15425   6.425   4.771   5.320 -0.4095  0.2241  0.0050
 3915SOL    HW215426   6.408   4.677   5.326  0.0451  0.1967  1.0770
 3915SOL    HW315427   6.348   4.812   5.359  0.0685  0.2283  0.9906
 3915SOL    MW415428   6.413   4.764   5.326 -0.2865  0.2210  0.2764
 3916SOL     OW15429   6.113   3.097   4.296  0.1407  0.1530 -0.3531
 3916SOL    HW215430   6.046   3.054   4.349  0.9878  0.9403  1.4206
 3916SOL    HW315431   6.184   3.032   4.289  0.7459  0.6471  0.9658
 3916SOL    MW415432   6.114   3.083   4.302  0.3323  0.3221  0.0550
 3917SOL     OW15433   6.099   2.116   3.395 -0.1542  0.5791 -0.2397
 3917SOL    HW215434   6.004   2.106   3.388 -0.0570 -0.8625  0.3330
 3917SOL    HW315435   6.130   2.034   3.432  1.5733  0.0974 -2.5317
 3917SOL    MW415436   6.091   2.104   3.399  0.0866  0.3253 -0.4666
 3918SOL     OW15437   0.427   4.084   1.760 -0.3605  0.3812  0.2514
 3918SOL    HW215438   0.406   4.071   1.667 -0.4237 -0.2184  0.3429
 3918SOL    HW315439   0.473   4.167   1.763  0.4550 -0.0273 -0.4424
 3918SOL    MW415440   0.430   4.093   1.748 -0.2612  0.2482  0.1719
 3919SOL     OW15441   0.950   3.201   6.088 -0.1803  0.2340 -0.1804
 3919SOL    HW215442   0.948   3.271   6.024 -0.7950 -0.2255 -0.6756
 3919SOL    HW315443   1.043   3.179   6.097 -0.1849 -0.9933 -2.3889
 3919SOL    MW415444   0.962   3.207   6.081 -0.2620  0.0114 -0.5371
 3920SOL     OW15445   2.325   4.490   1.216  0.8447 -0.1800 -0.0530
 3920SOL    HW215446   2.289   4.401   1.218  2.0302 -0.6888 -0.4918
 3920SOL    HW315447   2.403   4.486   1.272  1.0665  0.5067 -0.3031
 3920SOL    MW415448   2.331   4.478   1.224  1.0304 -0.1565 -0.1439
 3921SOL     OW15449   1.987   0.238   6.111 -0.5241  0.2583  0.4309
 3921SOL    HW215450   2.077   0.268   6.100 -1.0025  1.1194 -1.7028
 3921SOL    HW315451   1.992   0.169   6.176  1.5282  0.9649  1.0895
 3921SOL    MW415452   1.999   0.233   6.118 -0.3164  0.4651  0.2363
 3922SOL     OW15453   1.315   1.602   3.177 -1.0025 -0.2047 -0.3773
 3922SOL    HW215454   1.406   1.574   3.179 -1.2125 -1.1272 -2.0944
 3922SOL    HW315455   1.317   1.692   3.212  0.6800  0.0827 -1.1223
 3922SOL    MW415456   1.327   1.610   3.182 -0.8082 -0.2885 -0.7022
 3923SOL     OW15457   1.745   4.757   1.704 -0.6101 -0.0290  0.0356
 3923SOL    HW215458   1.808   4.740   1.774 -0.3215 -0.9580 -0.4208
 3923SOL    HW315459   1.672   4.697   1.722 -0.8919  0.2937 -0.0198
 3923SOL    MW415460   1.744   4.747   1.716 -0.6092 -0.1090 -0.0319
 3924SOL     OW15461   1.405   1.139   5.417 -0.1165  0.1086 -0.0268
 3924SOL    HW215462   1.452   1.222   5.409 -0.6618  0.7731  2.5283
 3924SOL    HW315463   1.322   1.154   5.370 -0.4689  1.2704  0.9135
 3924SOL    MW415464   1.400   1.152   5.410 -0.2349  0.3496  0.4344
 3925SOL     OW15465   3.994   2.843   2.646 -0.2247 -0.5485  0.2507
 3925SOL    HW215466   4.051   2.766   2.651 -0.8539 -0.9567  1.3953
 3925SOL    HW315467   3.927   2.827   2.712  0.3626  1.5918  1.4350
 3925SOL    MW415468   3.993   2.830   2.655 -0.2302 -0.3200  0.5579
 3926SOL     OW15469   2.551   2.882   6.269 -0.4609 -0.4944 -0.1456
 3926SOL    HW215470   2.517   2.958   6.220 -2.5315 -1.4520 -0.3187
 3926SOL    HW315471   2.562   2.915   6.358  1.0138  0.6178 -0.6883
 3926SOL    MW415472   2.548   2.897   6.274 -0.5395 -0.4740 -0.2401
 3927SOL     OW15473   1.481   1.716   3.879 -0.3967  1.0229 -1.0322
 3927SOL    HW215474   1.436   1.642   3.838 -0.2763  0.8979 -0.9379
 3927SOL    HW315475   1.412   1.781   3.894 -0.4525  1.0489 -1.3850
 3927SOL    MW415476   1.466   1.715   3.875 -0.3882  1.0098 -1.0663
 3928SOL     OW15477   0.700   1.347   2.796 -0.3987 -0.1036  0.3203
 3928SOL    HW215478   0.753   1.274   2.763 -0.8002 -0.0538 -0.4733
 3928SOL    HW315479   0.672   1.393   2.716  0.7596  1.5676  0.8221
 3928SOL    MW415480   0.704   1.344   2.781 -0.2989  0.1235  0.2818
 3929SOL     OW15481   1.431   3.767   1.114  0.4752 -0.2357 -0.3973
 3929SOL    HW215482   1.337   3.751   1.124  0.8141 -2.4062 -0.1476
 3929SOL    HW315483   1.438   3.818   1.033 -0.9481  0.5459 -0.0593
 3929SOL    MW415484   1.419   3.772   1.104  0.3322 -0.4190 -0.3197
 3930SOL     OW15485   3.707   0.005   2.528  0.3497 -0.1411 -0.0397
 3930SOL    HW215486   3.628  -0.048   2.536  0.2599  0.2858  2.9210
 3930SOL    HW315487   3.681   0.078   2.472 -0.3668 -1.6117 -1.7234
 3930SOL    MW415488   3.694   0.008   2.522  0.2434 -0.2788  0.1288
 3931SOL     OW15489   5.454   1.628   0.235  0.3152  0.1711 -0.1941
 3931SOL    HW215490   5.381   1.651   0.178  0.3654 -0.3313 -0.4666
 3931SOL    HW315491   5.532   1.662   0.190  0.2281  0.9350  0.2228
 3931SOL    MW415492   5.455   1.635   0.222  0.3103  0.2056 -0.1751
 3932SOL     OW15493   1.747   1.936   2.251  0.3472  0.1783 -0.3328
 3932SOL    HW215494   1.738   1.920   2.344  0.6963 -1.3968 -0.5527
 3932SOL    HW315495   1.760   1.850   2.212 -0.4141  0.7265 -1.9181
 3932SOL    MW415496   1.747   1.923   2.258  0.2928  0.0428 -0.5710
 3933SOL     OW15497   0.828   3.716   5.725 -0.3624 -0.5023  0.2006
 3933SOL    HW215498   0.874   3.714   5.809  3.6924 -0.9160 -1.8182
 3933SOL    HW315499   0.858   3.638   5.679  0.2756  1.3912 -2.8704
 3933SOL    MW415500   0.838   3.706   5.730  0.2567 -0.3070 -0.4709
 3934SOL     OW15501   4.224   1.207   2.947  0.3830  0.3708  0.0846
 3934SOL    HW215502   4.295   1.268   2.926  1.1920  0.2033  2.1523
 3934SOL    HW315503   4.267   1.133   2.989 -0.9825  0.1440  1.1573
 3934SOL    MW415504   4.239   1.205   2.950  0.3095  0.3188  0.4990
 3935SOL     OW15505   2.527   2.177   5.465  0.1906 -0.2435  0.1657
 3935SOL    HW215506   2.572   2.137   5.390 -0.3168  0.1277 -0.3445
 3935SOL    HW315507   2.588   2.166   5.538  0.9003 -0.1951 -0.4041
 3935SOL    MW415508   2.541   2.170   5.464  0.2173 -0.1882  0.0232
 3936SOL     OW15509   5.887   3.206   3.412  0.1282 -0.5200  0.6460
 3936SOL    HW215510   5.904   3.300   3.409  1.4532 -0.7628 -0.4088
 3936SOL    HW315511   5.872   3.181   3.321  2.1257 -1.6861  0.5776
 3936SOL    MW415512   5.887   3.215   3.400  0.5666 -0.7059  0.4978
 3937SOL     OW15513   3.624   3.348   0.035 -0.0478  0.2271 -0.1214
 3937SOL    HW215514   3.588   3.369  -0.051 -1.6852  0.3347  0.5527
 3937SOL    HW315515   3.652   3.256   0.028 -1.7846 -0.3205 -0.2912
 3937SOL    MW415516   3.623   3.338   0.023 -0.4930  0.1690 -0.0548
 3938SOL     OW15517   5.402   1.612   3.779  0.5265 -0.2435  0.0412
 3938SOL    HW215518   5.453   1.534   3.756 -1.1826 -0.8920 -1.7807
 3938SOL    HW315519   5.404   1.614   3.875  0.9179 -2.3428  0.1320
 3938SOL    MW415520   5.409   1.602   3.789  0.3526 -0.6061 -0.1872
 3939SOL     OW15521   6.199   5.858   4.593 -0.5051  0.0965  0.4023
 3939SOL    HW215522   6.121   5.903   4.627 -0.3614  0.1701  0.6339
 3939SOL    HW315523   6.264   5.865   4.663  0.2346  1.3927 -0.3908
 3939SOL    MW415524   6.197   5.865   4.607 -0.3885  0.2772  0.3282
 3940SOL     OW15525   4.805   4.455   4.196 -0.4353 -0.5968 -0.1399
 3940SOL    HW215526   4.789   4.361   4.196 -0.1372 -0.6500  0.4258
 3940SOL    HW315527   4.790   4.482   4.287  1.0817 -0.3839  0.0783
 3940SOL    MW415528   4.801   4.446   4.208 -0.1958 -0.5758 -0.0365
 3941SOL     OW15529   3.321   3.712   3.862  0.1579  0.0017 -0.3626
 3941SOL    HW215530   3.262   3.637   3.876  1.0179 -0.8946 -1.3730
 3941SOL    HW315531   3.262   3.786   3.846 -0.7155 -0.4208  0.7343
 3941SOL    MW415532   3.305   3.712   3.862  0.1562 -0.1723 -0.3512
 3942SOL     OW15533   2.092   3.812   4.565  0.1998  0.3912  0.4517
 3942SOL    HW215534   2.000   3.787   4.561  0.2641  0.0779  0.9419
 3942SOL    HW315535   2.100   3.864   4.645  0.3820  0.7014  0.2362
 3942SOL    MW415536   2.081   3.815   4.575  0.2323  0.3908  0.4880
 3943SOL     OW15537   5.868   6.058   0.889 -0.5536  0.1286  0.3491
 3943SOL    HW215538   5.904   6.039   0.802 -1.1887  0.7385 -0.0606
 3943SOL    HW315539   5.787   6.008   0.894 -0.4667  0.0147  0.6287
 3943SOL    MW415540   5.862   6.049   0.878 -0.6259  0.1941  0.3319
 3944SOL     OW15541   2.201   4.516   5.833  0.4371 -0.0903  0.1223
 3944SOL    HW215542   2.155   4.588   5.876  0.0282  0.3694 -1.0344
 3944SOL    HW315543   2.224   4.456   5.904 -0.7711  0.3232  0.8994
 3944SOL    MW415544   2.198   4.518   5.848  0.2238  0.0249  0.0723
 3945SOL     OW15545   5.467   3.465   4.810  0.2295 -0.3554  0.4227
 3945SOL    HW215546   5.415   3.472   4.731  0.9649  1.8443  0.0640
 3945SOL    HW315547   5.426   3.394   4.860 -0.8535 -1.1118 -1.4419
 3945SOL    MW415548   5.455   3.456   4.806  0.1837 -0.1650  0.1293
 3946SOL     OW15549   1.326   3.413   3.608  0.0919  0.3398 -0.3308
 3946SOL    HW215550   1.330   3.359   3.529 -3.6681  0.1912 -0.5900
 3946SOL    HW315551   1.303   3.500   3.577 -1.3316  0.3052  0.5269
 3946SOL    MW415552   1.324   3.417   3.593 -0.5920  0.3156 -0.2518
 3947SOL     OW15553   5.809   4.454   5.586  0.1723 -0.1495 -0.0065
 3947SOL    HW215554   5.748   4.395   5.543 -0.0959 -1.0428  1.5233
 3947SOL    HW315555   5.768   4.541   5.580 -0.4139 -0.4555 -0.4809
 3947SOL    MW415556   5.796   4.458   5.579  0.0595 -0.3077  0.1327
 3948SOL     OW15557   5.789   4.582   1.261  0.6662 -0.1024  0.2250
 3948SOL    HW215558   5.824   4.544   1.341 -0.3183 -1.3912  0.0838
 3948SOL    HW315559   5.694   4.572   1.269  0.4031  1.6289 -0.2019
 3948SOL    MW415560   5.781   4.576   1.273  0.5016 -0.0440  0.1501
 3949SOL     OW15561   2.231   4.985   0.971  0.3847  0.1643 -0.3616
 3949SOL    HW215562   2.274   4.979   0.886  2.6930  1.0244  0.6694
 3949SOL    HW315563   2.253   4.903   1.016 -0.9428 -0.3501 -0.5906
 3949SOL    MW415564   2.240   4.974   0.966  0.5141  0.2099 -0.2558
 3950SOL     OW15565   4.164   2.022   2.049  0.1301  0.5019 -0.0116
 3950SOL    HW215566   4.107   2.003   1.975  0.8472  1.0479 -0.7289
 3950SOL    HW315567   4.253   2.018   2.013  0.5342 -0.0415  1.0104
 3950SOL    MW415568   4.168   2.019   2.035  0.2780  0.5022  0.0286
 3951SOL     OW15569   5.356   1.235   6.329  0.7344 -0.0452  0.2306
 3951SOL    HW215570   5.286   1.263   6.388  0.7233  0.2566  0.0756
 3951SOL    HW315571   5.434   1.278   6.362  0.3711  1.8242 -1.1779
 3951SOL    MW415572   5.357   1.245   6.341  0.6850  0.2413  0.0243
 3952SOL     OW15573   4.039   1.961   2.428  0.4033 -0.6598  0.0797
 3952SOL    HW215574   4.016   1.904   2.501  1.5635 -1.2199  0.0222
 3952SOL    HW315575   4.045   1.903   2.353 -0.5822 -0.1140 -0.4396
 3952SOL    MW415576   4.037   1.946   2.428  0.4264 -0.6617  0.0036
 3953SOL     OW15577   6.300   3.086   1.541 -0.3346 -0.4293 -0.1813
 3953SOL    HW215578   6.247   3.072   1.619  0.5288  0.9172  0.6907
 3953SOL    HW315579   6.240   3.073   1.468 -2.2964  2.3842  0.7679
 3953SOL    MW415580   6.285   3.082   1.541 -0.4795  0.1196  0.0590
 3954SOL     OW15581   2.975   5.487   4.889 -0.4307  0.2732 -0.0557
 3954SOL    HW215582   2.968   5.511   4.981 -0.3884  3.7684 -0.8147
 3954SOL    HW315583   3.069   5.471   4.875 -0.7270 -2.9873  0.9616
 3954SOL    MW415584   2.987   5.488   4.899 -0.4642  0.3042 -0.0216
 3955SOL     OW15585   5.771   3.649   2.591 -0.6651  0.4180  0.2637
 3955SOL    HW215586   5.773   3.638   2.686  0.0564 -0.5202  0.1513
 3955SOL    HW315587   5.829   3.722   2.573  0.5393 -0.4730  0.4238
 3955SOL    MW415588   5.779   3.657   2.601 -0.4110  0.1767  0.2700
 3956SOL     OW15589   6.349   1.704   1.039  0.6290 -0.1512 -0.0892
 3956SOL    HW215590   6.367   1.764   1.111  0.0303  0.2683 -0.2820
 3956SOL    HW315591   6.429   1.652   1.031  0.6805 -0.2592  0.9239
 3956SOL    MW415592   6.362   1.705   1.048  0.5568 -0.1101  0.0190
 3957SOL     OW15593   0.958   1.924   6.417  0.0192  0.3139  0.3396
 3957SOL    HW215594   0.987   1.838   6.387 -1.2495  0.3505 -1.0972
 3957SOL    HW315595   0.916   1.907   6.501 -0.4898 -0.5313 -0.0731
 3957SOL    MW415596   0.956   1.910   6.424 -0.2154  0.2072  0.0956
 3958SOL     OW15597   0.666   5.563   1.828  0.0736  0.1470 -0.2845
 3958SOL    HW215598   0.580   5.602   1.843 -0.1748  0.5346 -2.4835
 3958SOL    HW315599   0.724   5.610   1.888 -1.2083 -0.1607  1.2681
 3958SOL    MW415600   0.662   5.574   1.838 -0.1283  0.1575 -0.3698
 3959SOL     OW15601   4.503   4.606   4.580  0.2313  0.0629  0.5413
 3959SOL    HW215602   4.459   4.690   4.592  0.8034  0.6748 -1.2171
 3959SOL    HW315603   4.566   4.622   4.509  0.7697 -1.6988  0.5668
 3959SOL    MW415604   4.505   4.619   4.572  0.3778 -0.0888  0.3127
 3960SOL     OW15605   0.035   1.112   4.744 -0.4244  0.4595  0.8343
 3960SOL    HW215606  -0.037   1.175   4.747 -1.4623 -0.5889 -0.7543
 3960SOL    HW315607   0.103   1.155   4.693 -0.7334  0.6788  0.6052
 3960SOL    MW415608   0.034   1.126   4.738 -0.6021  0.3501  0.5945
 3961SOL     OW15609   2.524   0.442   5.157 -0.1125 -0.4519 -0.0038
 3961SOL    HW215610   2.560   0.354   5.145 -0.6095 -0.6735  0.1134
 3961SOL    HW315611   2.486   0.441   5.245 -0.6873 -0.3225 -0.2463
 3961SOL    MW415612   2.524   0.430   5.167 -0.2539 -0.4641 -0.0203
 3962SOL     OW15613   1.764   6.333   3.999  0.1201 -0.0755 -0.3197
 3962SOL    HW215614   1.678   6.291   3.994  0.5261 -0.7790 -2.8972
 3962SOL    HW315615   1.796   6.311   4.087 -1.8239 -0.7920  0.2609
 3962SOL    MW415616   1.757   6.324   4.010 -0.0828 -0.2629 -0.5832
 3963SOL     OW15617   0.486   2.442   3.506  0.3434 -0.4448  0.0114
 3963SOL    HW215618   0.398   2.468   3.479  0.4904 -0.0350 -0.0730
 3963SOL    HW315619   0.476   2.351   3.534 -0.0191 -0.5540 -0.4436
 3963SOL    MW415620   0.473   2.433   3.506  0.3150 -0.4051 -0.0597
 3964SOL     OW15621   2.832   3.804   1.865 -0.0904 -0.5085 -0.5610
 3964SOL    HW215622   2.879   3.724   1.844 -0.5394 -0.8482 -0.2935
 3964SOL    HW315623   2.846   3.816   1.959  0.8579  0.3130 -0.7864
 3964SOL    MW415624   2.840   3.795   1.875 -0.0245 -0.4450 -0.5555
 3965SOL     OW15625   3.663   3.302   1.437 -0.0292  0.1988 -0.3185
 3965SOL    HW215626   3.680   3.208   1.432 -1.3542 -0.2290  2.0126
 3965SOL    HW315627   3.571   3.312   1.412 -0.0839  0.7872  0.0904
 3965SOL    MW415628   3.653   3.291   1.433 -0.2112  0.2200  0.0430
 3966SOL     OW15629   3.178   6.174   2.017  0.3427 -0.8552  0.0331
 3966SOL    HW215630   3.268   6.201   2.001 -0.0791 -0.1487 -1.2619
 3966SOL    HW315631   3.140   6.164   1.930 -0.9563 -0.7166  0.5698
 3966SOL    MW415632   3.185   6.176   2.004  0.1157 -0.7437 -0.0669
 3967SOL     OW15633   5.686   0.643   1.295 -0.3703  0.1157  0.3708
 3967SOL    HW215634   5.631   0.703   1.245  0.7628  0.8656 -0.0295
 3967SOL    HW315635   5.657   0.653   1.385  0.5237  2.1357  0.4822
 3967SOL    MW415636   5.675   0.652   1.300 -0.1029  0.4812  0.3327
 3968SOL     OW15637   1.882   3.067   2.691  0.1366  0.0164 -0.5769
 3968SOL    HW215638   1.794   3.103   2.700 -0.0611 -0.6938  0.5448
 3968SOL    HW315639   1.923   3.081   2.776  1.7254  1.8137 -1.5583
 3968SOL    MW415640   1.875   3.073   2.704  0.3201  0.1599 -0.5584
 3969SOL     OW15641   1.634   4.989   4.192 -0.3418 -0.0995 -0.1100
 3969SOL    HW215642   1.720   4.951   4.173 -0.0790  1.6309 -2.9525
 3969SOL    HW315643   1.574   4.914   4.190  0.6334 -0.8971 -1.8220
 3969SOL    MW415644   1.638   4.974   4.189 -0.1785  0.0235 -0.7109
 3970SOL     OW15645   5.198   1.643   3.614 -0.7291 -0.0228  0.0047
 3970SOL    HW215646   5.149   1.572   3.655 -0.2617 -0.6936 -0.5590
 3970SOL    HW315647   5.279   1.649   3.665 -0.1697 -0.8247 -0.7592
 3970SOL    MW415648   5.202   1.634   3.626 -0.5936 -0.2171 -0.1705
 3971SOL     OW15649   5.509   5.499   0.821  0.5478  0.1797  0.2660
 3971SOL    HW215650   5.513   5.590   0.794 -0.1626  0.2357  0.3375
 3971SOL    HW315651   5.418   5.485   0.848  0.4036 -0.7863 -0.6330
 3971SOL    MW415652   5.498   5.509   0.821  0.4351  0.0597  0.1568
 3972SOL     OW15653   4.900   5.347   4.020  0.3666 -0.0268 -0.6384
 3972SOL    HW215654   4.811   5.338   4.054  0.6518  0.7099  0.3398
 3972SOL    HW315655   4.906   5.281   3.951 -1.6681  1.4085 -2.2966
 3972SOL    MW415656   4.889   5.337   4.015  0.1357  0.2598 -0.7281
 3973SOL     OW15657   2.810   0.095   4.009 -0.1990  0.4285 -0.6877
 3973SOL    HW215658   2.839   0.004   4.020 -1.3659  0.1159  0.0205
 3973SOL    HW315659   2.827   0.115   3.917  1.4635  0.0078 -0.5062
 3973SOL    MW415660   2.816   0.086   3.999 -0.1336  0.3318 -0.5703
 3974SOL     OW15661   4.272   4.861   5.700  0.3459  0.1208  0.7215
 3974SOL    HW215662   4.192   4.908   5.675  1.3601  1.0978 -0.8733
 3974SOL    HW315663   4.242   4.773   5.724 -1.2841  0.7166  0.9993
 3974SOL    MW415664   4.257   4.855   5.700  0.2647  0.3283  0.5478
 3975SOL     OW15665   0.358   0.902   2.329 -0.1038 -0.2743 -0.2508
 3975SOL    HW215666   0.331   0.811   2.344  2.2003 -0.6983  2.2514
 3975SOL    HW315667   0.357   0.912   2.234 -1.9883 -2.3534 -0.5484
 3975SOL    MW415668   0.354   0.891   2.319 -0.0485 -0.6046  0.0401
 3976SOL     OW15669   0.236   0.151   4.436 -0.1097 -0.7275  0.3825
 3976SOL    HW215670   0.296   0.196   4.377  0.0173 -0.4223  0.7418
 3976SOL    HW315671   0.167   0.117   4.379  0.4204 -1.1116 -0.0320
 3976SOL    MW415672   0.235   0.153   4.421 -0.0230 -0.7379  0.3753
 3977SOL     OW15673   3.169   4.577   3.046 -0.1504  0.0196  0.7692
 3977SOL    HW215674   3.134   4.579   2.957 -1.5043  0.8810  1.3032
 3977SOL    HW315675   3.131   4.498   3.085  0.3577 -0.2983  0.6417
 3977SOL    MW415676   3.159   4.567   3.039 -0.2620  0.0913  0.8228
 3978SOL     OW15677   3.757   4.917   2.616 -0.0492 -0.5926 -0.0813
 3978SOL    HW215678   3.843   4.880   2.599  0.6410 -0.2232  2.3148
 3978SOL    HW315679   3.775   5.004   2.651 -1.5081  0.3388 -1.4846
 3978SOL    MW415680   3.770   4.924   2.618 -0.1507 -0.4210  0.0497
 3979SOL     OW15681   1.667   0.086   2.310 -0.4683 -0.3139 -0.0452
 3979SOL    HW215682   1.593   0.027   2.324 -1.1863  0.7639  0.8553
 3979SOL    HW315683   1.732   0.060   2.375 -0.1137 -1.1435 -0.7157
 3979SOL    MW415684   1.665   0.075   2.320 -0.5162 -0.2811 -0.0148
 3980SOL     OW15685   3.407   2.625   0.837 -0.1921  0.8111  0.2041
 3980SOL    HW215686   3.424   2.709   0.796 -0.6738  1.2529  0.8864
 3980SOL    HW315687   3.415   2.561   0.766 -0.9226  1.5386 -0.5475
 3980SOL    MW415688   3.410   2.628   0.823 -0.3521  0.9654  0.1949
 3981SOL     OW15689   4.433   3.781   5.283 -0.1818 -0.7274  1.1972
 3981SOL    HW215690   4.459   3.773   5.374  0.7821 -0.3754  0.9613
 3981SOL    HW315691   4.514   3.774   5.233 -0.5054  0.5451  0.4396
 3981SOL    MW415692   4.447   3.779   5.288 -0.0973 -0.5131  1.0661
 3982SOL     OW15693   6.127   4.089   4.731 -0.2784 -0.2047 -0.2705
 3982SOL    HW215694   6.209   4.056   4.768 -1.1044 -1.8786  0.1405
 3982SOL    HW315695   6.150   4.175   4.697  1.5647 -0.4750  0.1640
 3982SOL    MW415696   6.141   4.096   4.731 -0.1442 -0.4612 -0.1589
 3983SOL     OW15697   5.094   4.803   4.211  0.2162  0.1936  0.1951
 3983SOL    HW215698   5.040   4.800   4.132  0.3190  2.6803 -0.0490
 3983SOL    HW315699   5.035   4.837   4.278  0.3712 -1.1018  1.0195
 3983SOL    MW415700   5.079   4.807   4.209  0.2502  0.3508  0.2717
 3984SOL     OW15701   4.431   5.423   4.657 -0.2318 -0.6020  0.2202
 3984SOL    HW215702   4.487   5.413   4.580 -1.3456 -1.6841 -0.4812
 3984SOL    HW315703   4.407   5.515   4.657  0.4005 -0.4282 -0.2754
 3984SOL    MW415704   4.435   5.434   4.647 -0.2953 -0.7218  0.0623
 3985SOL     OW15705   4.439   0.876   0.890 -0.5362 -0.0512 -0.2948
 3985SOL    HW215706   4.504   0.829   0.838 -2.0648 -0.4131 -1.9892
 3985SOL    HW315707   4.479   0.961   0.908  0.8968 -0.7325 -0.1694
 3985SOL    MW415708   4.452   0.881   0.885 -0.5488 -0.1888 -0.5018
 3986SOL     OW15709   6.140   3.719   1.964  0.1691 -0.3122 -0.2824
 3986SOL    HW215710   6.140   3.797   1.909 -1.2418  0.5635  0.8435
 3986SOL    HW315711   6.220   3.672   1.942  1.2458  1.6505 -0.7404
 3986SOL    MW415712   6.150   3.723   1.954  0.1250  0.0623 -0.1942
 3987SOL     OW15713   3.261   1.631   3.434 -0.2713  0.3054  0.1726
 3987SOL    HW215714   3.273   1.568   3.505 -1.2543 -0.3281 -0.1987
 3987SOL    HW315715   3.289   1.584   3.355  0.8808  1.0291  0.1385
 3987SOL    MW415716   3.266   1.616   3.433 -0.2490  0.3173  0.1191
 3988SOL     OW15717   5.919   0.738   1.410  0.2418  0.3838  0.7089
 3988SOL    HW215718   5.849   0.685   1.370  0.4043  0.1727  0.7062
 3988SOL    HW315719   5.978   0.757   1.338  0.7702 -0.3715  0.9341
 3988SOL    MW415720   5.917   0.734   1.395  0.3330  0.2563  0.7383
 3989SOL     OW15721   4.136   4.475   2.461 -0.9118  0.2248  0.0964
 3989SOL    HW215722   4.098   4.395   2.426  0.2699 -0.2183 -0.2039
 3989SOL    HW315723   4.140   4.460   2.556  0.0848 -0.4336 -0.0351
 3989SOL    MW415724   4.132   4.463   2.469 -0.6244  0.0795  0.0394
 3990SOL     OW15725   5.354   2.096   4.746  0.0615 -0.4135 -0.3551
 3990SOL    HW215726   5.362   2.105   4.841  0.7843 -1.0980 -0.3385
 3990SOL    HW315727   5.260   2.086   4.731 -0.1418  0.6066  0.1959
 3990SOL    MW415728   5.342   2.096   4.757  0.1300 -0.3692 -0.2802
 3991SOL     OW15729   2.575   3.298   4.885 -0.5621 -0.7783  0.1394
 3991SOL    HW215730   2.647   3.318   4.826 -1.8224  2.5937 -0.4682
 3991SOL    HW315731   2.510   3.254   4.830 -1.3107  1.4305 -0.8236
 3991SOL    MW415732   2.576   3.295   4.870 -0.8272 -0.0420 -0.0678
 3992SOL     OW15733   0.103   5.964   5.621  0.0330  0.0732  0.4248
 3992SOL    HW215734   0.040   5.931   5.685  0.1894  0.6687  0.8926
 3992SOL    HW315735   0.061   6.042   5.584 -0.4179 -0.7260 -0.8157
 3992SOL    MW415736   0.089   5.970   5.625 -0.0059  0.0463  0.3228
 3993SOL     OW15737   5.010   4.127   1.908 -0.0562 -0.0309 -0.2371
 3993SOL    HW215738   4.974   4.113   1.995  1.4486 -1.6110  0.1784
 3993SOL    HW315739   4.935   4.120   1.849 -0.5526 -2.9007  0.6178
 3993SOL    MW415740   4.996   4.124   1.912  0.0768 -0.6180 -0.0695
 3994SOL     OW15741   1.278   5.174   4.758 -0.5795  0.1078  0.1159
 3994SOL    HW215742   1.216   5.106   4.733  0.2090 -1.0414  1.1428
 3994SOL    HW315743   1.339   5.130   4.817  0.1433  1.6398  0.5707
 3994SOL    MW415744   1.278   5.160   4.763 -0.3801  0.1583  0.3114
 3995SOL     OW15745   0.511   4.060   2.146  0.9260 -0.2231 -0.2744
 3995SOL    HW215746   0.547   4.139   2.105  1.2819  0.0474  0.5396
 3995SOL    HW315747   0.417   4.076   2.151  1.0956  0.5634  0.7297
 3995SOL    MW415748   0.503   4.072   2.141  0.9953 -0.0837 -0.0346
 3996SOL     OW15749   2.001   1.921   5.285 -0.7004 -0.1754  0.1959
 3996SOL    HW215750   1.981   1.828   5.289 -1.8536 -0.0111 -0.9564
 3996SOL    HW315751   2.039   1.934   5.198  1.5986  0.0828  1.1762
 3996SOL    MW415752   2.003   1.910   5.274 -0.5492 -0.1197  0.1732
 3997SOL     OW15753   4.189   3.051   2.600  0.2992  0.1345 -0.5696
 3997SOL    HW215754   4.103   3.009   2.606 -0.3762  1.2224 -1.9465
 3997SOL    HW315755   4.243   3.005   2.664 -0.5781 -2.3419 -1.4604
 3997SOL    MW415756   4.185   3.039   2.609  0.0943 -0.0487 -0.8688
 3998SOL     OW15757   1.328   1.936   3.950 -0.1451  0.5394 -0.0263
 3998SOL    HW215758   1.403   1.950   4.007 -1.2717  2.2475  1.1564
 3998SOL    HW315759   1.277   2.017   3.959 -1.3038  0.0913 -2.0436
 3998SOL    MW415760   1.331   1.949   3.959 -0.4466  0.7057 -0.1364
 3999SOL     OW15761   5.638   6.288   5.408 -0.2157 -0.0788  0.0341
 3999SOL    HW215762   5.640   6.329   5.322  0.3442  1.2458  0.6557
 3999SOL    HW315763   5.545   6.284   5.431 -0.3281  0.0469 -0.4018
 3999SOL    MW415764   5.626   6.293   5.400 -0.1567  0.1125  0.0586
 4000SOL     OW15765   3.004   5.191   2.170  0.0061  0.3120 -0.0217
 4000SOL    HW215766   3.060   5.252   2.218 -0.2610 -0.0204  0.7211
 4000SOL    HW315767   2.914   5.218   2.192 -0.1227  0.1542 -0.3380
 4000SOL    MW415768   2.999   5.203   2.179 -0.0461  0.2473  0.0346
 4001SOL     OW15769   0.920   1.223   4.829  0.1884 -0.2243 -0.1411
 4001SOL    HW215770   1.001   1.258   4.868  1.5484 -2.4143 -0.7783
 4001SOL    HW315771   0.904   1.142   4.878 -2.4099  0.7498  0.8057
 4001SOL    MW415772   0.929   1.217   4.841  0.0250 -0.3847 -0.1003
 4002SOL     OW15773   4.150   6.122   3.093 -0.2180 -0.1040 -0.4444
 4002SOL    HW215774   4.110   6.172   3.022 -0.0653  0.1414 -0.3591
 4002SOL    HW315775   4.236   6.096   3.058 -0.3406 -0.3950 -0.5272
 4002SOL    MW415776   4.156   6.126   3.079 -0.2140 -0.1100 -0.4440
 4003SOL     OW15777   5.993   1.784   5.528 -0.6058  0.1100 -0.3417
 4003SOL    HW215778   5.903   1.799   5.557 -1.1475 -0.8875 -1.4112
 4003SOL    HW315779   6.023   1.709   5.579 -0.8289 -0.3284 -0.8392
 4003SOL    MW415780   5.985   1.776   5.538 -0.7067 -0.0794 -0.5484
 4004SOL     OW15781   1.841   1.116   2.704 -0.5448  0.1397  0.3737
 4004SOL    HW215782   1.822   1.030   2.742  1.3472  0.5319  2.5076
 4004SOL    HW315783   1.930   1.107   2.669 -0.5417  1.0547  0.1270
 4004SOL    MW415784   1.851   1.104   2.705 -0.2948  0.3122  0.6227
 4005SOL     OW15785   3.401   5.105   0.852 -0.0616 -0.3860 -0.6832
 4005SOL    HW215786   3.486   5.077   0.884  0.6995  2.8925  0.5039
 4005SOL    HW315787   3.419   5.145   0.767 -0.7748 -1.2947 -1.2955
 4005SOL    MW415788   3.414   5.106   0.845 -0.0552 -0.0733 -0.6074
 4006SOL     OW15789   2.847   1.059   4.205  0.1209  0.2093 -0.4446
 4006SOL    HW215790   2.937   1.087   4.188  0.6068 -0.6178  0.6617
 4006SOL    HW315791   2.829   0.994   4.137 -0.3709  1.7645 -1.8843
 4006SOL    MW415792   2.856   1.054   4.193  0.1201  0.3053 -0.4886
 4007SOL     OW15793   6.302   2.138   0.701 -0.2373  0.3088 -0.5471
 4007SOL    HW215794   6.382   2.158   0.652  0.4446  0.9886  0.7925
 4007SOL    HW315795   6.272   2.054   0.664  1.8819 -0.6961 -0.1407
 4007SOL    MW415796   6.308   2.129   0.689  0.1322  0.2659 -0.3167
 4008SOL     OW15797   5.587   2.417   4.805  0.3187 -0.1301  0.4077
 4008SOL    HW215798   5.516   2.379   4.753 -0.5621 -2.2411  2.9287
 4008SOL    HW315799   5.660   2.356   4.794  0.7655  0.4443  0.1522
 4008SOL    MW415800   5.588   2.404   4.797  0.2614 -0.3329  0.7066
 4009SOL     OW15801   2.253   1.203   3.309 -0.1948  0.1417 -0.0690
 4009SOL    HW215802   2.208   1.120   3.322 -0.1736  0.4186  2.2862
 4009SOL    HW315803   2.216   1.239   3.229 -3.7501  0.0678  1.3744
 4009SOL    MW415804   2.242   1.197   3.300 -0.6611  0.1685  0.4322
 4010SOL     OW15805   6.260   6.105   3.070  0.0220 -0.3066 -0.0276
 4010SOL    HW215806   6.237   6.130   2.981  0.0805  0.6349  0.2067
 4010SOL    HW315807   6.293   6.016   3.063  0.7738  0.0374 -1.0648
 4010SOL    MW415808   6.261   6.097   3.057  0.1289 -0.1370 -0.1335
 4011SOL     OW15809   5.353   0.034   5.929  0.8087  0.3656  0.3027
 4011SOL    HW215810   5.285   0.094   5.960  0.5318 -0.2474  0.9055
 4011SOL    HW315811   5.424   0.046   5.992  1.0786  0.6517 -0.0494
 4011SOL    MW415812   5.354   0.043   5.942  0.8078  0.3225  0.3358
 4012SOL     OW15813   3.447   2.768   4.868 -0.8129 -0.9144  0.1022
 4012SOL    HW215814   3.542   2.768   4.866 -0.8016  0.0949  0.3694
 4012SOL    HW315815   3.421   2.802   4.782 -0.9304 -0.8333  0.1696
 4012SOL    MW415816   3.456   2.772   4.856 -0.8269 -0.7706  0.1463
 4013SOL     OW15817   5.986   3.364   2.033  0.5630  0.5851  0.6263
 4013SOL    HW215818   5.972   3.371   2.128 -0.9392 -0.8908  0.5727
 4013SOL    HW315819   5.928   3.429   1.995  0.1871  0.2945  0.6936
 4013SOL    MW415820   5.976   3.373   2.041  0.3152  0.3521  0.6281
 4014SOL     OW15821   3.696   4.602   1.101 -0.4903  0.5886  0.1058
 4014SOL    HW215822   3.628   4.659   1.065 -1.1383 -0.4862 -0.4123
 4014SOL    HW315823   3.648   4.534   1.148  0.2967  0.9762  1.5604
 4014SOL    MW415824   3.681   4.601   1.103 -0.4720  0.4979  0.2293
 4015SOL     OW15825   6.084   0.501   0.080  0.1001  0.1753  0.6874
 4015SOL    HW215826   6.155   0.443   0.053  2.3973  2.9166  0.3898
 4015SOL    HW315827   6.043   0.529  -0.002  0.1518  0.3355  0.7160
 4015SOL    MW415828   6.088   0.497   0.065  0.4100  0.5581  0.6519
 4016SOL     OW15829   5.837   0.922   1.608  0.5219 -0.9631 -0.0448
 4016SOL    HW215830   5.749   0.945   1.579  0.6382  0.4692  0.6558
 4016SOL    HW315831   5.873   0.869   1.536 -0.7887 -1.3291 -0.4572
 4016SOL    MW415832   5.830   0.918   1.594  0.3643 -0.8224 -0.0068
 4017SOL     OW15833   6.191   5.135   0.334 -0.3577  0.2126 -0.1865
 4017SOL    HW215834   6.146   5.192   0.396 -0.5634 -0.9039  0.7191
 4017SOL    HW315835   6.144   5.146   0.252 -1.7234 -0.2599  0.5172
 4017SOL    MW415836   6.179   5.144   0.331 -0.5650  0.0030  0.0259
 4018SOL     OW15837   4.639   3.659   4.618  0.8090 -0.6038  0.3397
 4018SOL    HW215838   4.675   3.606   4.690  0.9559  0.3989  1.0183
 4018SOL    HW315839   4.705   3.726   4.602 -1.0997  1.9002  2.2739
 4018SOL    MW415840   4.653   3.661   4.625  0.5766 -0.1411  0.6844
 4019SOL     OW15841   5.678   2.706   2.412  0.5024 -0.5767  0.3730
 4019SOL    HW215842   5.759   2.741   2.451 -0.2156  0.4283  1.0210
 4019SOL    HW315843   5.628   2.672   2.487 -0.2924  0.1289  0.1810
 4019SOL    MW415844   5.682   2.706   2.427  0.3028 -0.3510  0.4331
 4020SOL     OW15845   0.895   5.419   4.224 -0.1353 -0.3645  0.6617
 4020SOL    HW215846   0.936   5.494   4.181 -0.1775 -0.7792 -0.1108
 4020SOL    HW315847   0.948   5.404   4.302  1.6674 -1.3567 -0.6795
 4020SOL    MW415848   0.907   5.427   4.229  0.0970 -0.5501  0.3828
 4021SOL     OW15849   3.565   4.190   3.964  0.2183 -0.4914  0.0832
 4021SOL    HW215850   3.598   4.272   3.927  0.4462  0.2807  1.9201
 4021SOL    HW315851   3.567   4.128   3.890  1.1600  0.8226 -1.0413
 4021SOL    MW415852   3.570   4.193   3.949  0.3726 -0.2161  0.1772
 4022SOL     OW15853   2.084   0.971   0.784 -0.3178  0.0483 -0.0318
 4022SOL    HW215854   2.108   0.960   0.876  1.5678 -0.9968 -0.6019
 4022SOL    HW315855   2.078   0.882   0.749  0.1793  0.4452 -1.1942
 4022SOL    MW415856   2.086   0.958   0.792 -0.0035 -0.0373 -0.2604
 4023SOL     OW15857   3.897   5.197   2.738 -0.1045  0.2520 -0.1725
 4023SOL    HW215858   3.817   5.248   2.728 -0.4856 -0.4423 -0.7229
 4023SOL    HW315859   3.933   5.224   2.822 -0.3469  1.3629 -0.4099
 4023SOL    MW415860   3.891   5.207   2.747 -0.1868  0.3070 -0.2765
 4024SOL     OW15861   0.244   6.031   0.520  0.2874  0.1353  0.2296
 4024SOL    HW215862   0.178   5.976   0.561 -0.7809  0.2615 -1.2305
 4024SOL    HW315863   0.320   5.974   0.510 -1.3103 -1.7641 -2.7842
 4024SOL    MW415864   0.245   6.017   0.524 -0.0644 -0.0986 -0.3607
 4025SOL     OW15865   0.583   3.099   2.724  0.2093 -0.1166 -0.1613
 4025SOL    HW215866   0.665   3.092   2.676  0.1876  1.4236 -0.4925
 4025SOL    HW315867   0.558   3.191   2.714 -0.2265  0.0737  2.0880
 4025SOL    MW415868   0.591   3.110   2.716  0.1490  0.1117  0.0918
 4026SOL     OW15869   1.158   2.679   1.063  0.0234  0.1420 -0.3881
 4026SOL    HW215870   1.170   2.589   1.033 -0.0789 -0.0229  0.0569
 4026SOL    HW315871   1.063   2.691   1.064 -0.0621 -0.3385  1.2282
 4026SOL    MW415872   1.147   2.669   1.059 -0.0014  0.0568 -0.1162
 4027SOL     OW15873   4.182   3.840   4.793 -0.0040  0.3849 -0.1158
 4027SOL    HW215874   4.273   3.812   4.786 -0.4912 -2.3762  2.5092
 4027SOL    HW315875   4.139   3.801   4.718  0.6071 -0.0692 -0.2421
 4027SOL    MW415876   4.189   3.831   4.782  0.0124 -0.0393  0.2138
 4028SOL     OW15877   2.318   1.613   1.692  0.1961 -0.4886  0.4813
 4028SOL    HW215878   2.389   1.549   1.686 -0.2152 -0.9649  0.6354
 4028SOL    HW315879   2.334   1.659   1.774  0.1208 -0.8357  0.6882
 4028SOL    MW415880   2.330   1.611   1.702  0.1319 -0.5973  0.5290
 4029SOL     OW15881   3.267   3.393   2.995 -0.1086  0.2149  0.7052
 4029SOL    HW215882   3.274   3.387   3.090  0.0678 -1.1326  0.6261
 4029SOL    HW315883   3.304   3.311   2.963  0.7015  1.0476 -0.5786
 4029SOL    MW415884   3.273   3.381   3.004  0.0216  0.1470  0.5254
 4030SOL     OW15885   5.504   4.031   4.157  0.8394  0.1521 -0.4016
 4030SOL    HW215886   5.423   4.012   4.205 -0.6346  3.5555 -1.2125
 4030SOL    HW315887   5.544   3.945   4.142 -1.8080 -1.5521  1.3769
 4030SOL    MW415888   5.498   4.017   4.161  0.2956  0.3763 -0.2739
 4031SOL     OW15889   4.615   3.950   4.346 -0.0736 -0.1037 -0.2066
 4031SOL    HW215890   4.691   3.965   4.402 -0.0293 -0.5752 -0.1400
 4031SOL    HW315891   4.646   3.888   4.280 -1.3100 -3.1001  1.8242
 4031SOL    MW415892   4.629   3.944   4.345 -0.2309 -0.5612  0.0701
 4032SOL     OW15893   3.155   0.488   3.361 -0.2631  0.0543  0.3732
 4032SOL    HW215894   3.244   0.496   3.395 -0.5527 -0.0021  1.1804
 4032SOL    HW315895   3.127   0.578   3.346 -0.2461  0.0971  0.5964
 4032SOL    MW415896   3.163   0.501   3.364 -0.2990  0.0525  0.5092
 4033SOL     OW15897   4.727   2.471   4.482  0.0492  0.2084 -0.1998
 4033SOL    HW215898   4.793   2.482   4.413 -0.3886 -0.0507 -0.6669
 4033SOL    HW315899   4.692   2.383   4.468 -0.9499  0.6369 -0.4526
 4033SOL    MW415900   4.731   2.461   4.471 -0.1404  0.2307 -0.2948
 4034SOL     OW15901   4.833   5.412   2.245 -0.3439  0.2104  0.1494
 4034SOL    HW215902   4.837   5.361   2.164  1.6274 -1.2779  1.0896
 4034SOL    HW315903   4.922   5.408   2.280 -0.9619  1.4628  2.0259
 4034SOL    MW415904   4.846   5.405   2.239 -0.1654  0.1793  0.5211
 4035SOL     OW15905   3.244   4.602   0.079  0.1489 -0.0855  0.0527
 4035SOL    HW215906   3.303   4.545   0.029 -1.4322 -1.3549 -0.4411
 4035SOL    HW315907   3.186   4.640   0.013 -2.3095 -2.1909  0.8759
 4035SOL    MW415908   3.244   4.600   0.063 -0.3841 -0.5308  0.0962
 4036SOL     OW15909   4.368   1.440   2.630 -0.3940  0.2250  0.4108
 4036SOL    HW215910   4.350   1.510   2.692 -0.6287  0.3335  0.2235
 4036SOL    HW315911   4.379   1.485   2.546 -0.2548  0.0646  0.3416
 4036SOL    MW415912   4.367   1.455   2.627 -0.4066  0.2181  0.3769
 4037SOL     OW15913   2.802   3.206   5.994 -0.7445  0.2463 -0.4451
 4037SOL    HW215914   2.782   3.264   6.068  0.9376 -1.3339  1.3515
 4037SOL    HW315915   2.888   3.168   6.016 -2.1477 -3.6721 -0.9715
 4037SOL    MW415916   2.811   3.209   6.007 -0.7077 -0.4791 -0.2775
 4038SOL     OW15917   3.709   2.193   1.930  0.4628  0.3251 -0.3404
 4038SOL    HW215918   3.662   2.235   2.002  0.4894  0.5509 -0.4522
 4038SOL    HW315919   3.649   2.199   1.855 -0.5212 -1.9402  0.1919
 4038SOL    MW415920   3.695   2.200   1.929  0.3364  0.0560 -0.2849
 4039SOL     OW15921   2.199   0.020   4.282 -0.1116  0.8188 -0.5173
 4039SOL    HW215922   2.188  -0.059   4.336  0.9218  0.8051 -0.3205
 4039SOL    HW315923   2.110   0.042   4.254 -0.5764  0.3995  0.5872
 4039SOL    MW415924   2.185   0.012   4.285 -0.0366  0.7616 -0.3456
 4040SOL     OW15925   5.275   6.214   4.760 -0.4360  0.5526  0.2697
 4040SOL    HW215926   5.325   6.259   4.829  2.6926 -0.4836 -1.1316
 4040SOL    HW315927   5.239   6.136   4.803 -0.5684  1.1544  1.2660
 4040SOL    MW415928   5.277   6.210   4.775 -0.0407  0.4953  0.2163
 4041SOL     OW15929   1.083   3.582   3.972 -0.3463  0.2827 -0.0605
 4041SOL    HW215930   1.088   3.674   4.000 -0.7797  0.1839  0.3374
 4041SOL    HW315931   1.170   3.547   3.992 -0.5838  0.2660  0.9953
 4041SOL    MW415932   1.095   3.590   3.979 -0.4348  0.2675  0.1313
 4042SOL     OW15933   0.163   2.507   5.085 -0.4611  0.5622  0.4543
 4042SOL    HW215934   0.085   2.558   5.106  0.1694  1.0774  1.6839
 4042SOL    HW315935   0.169   2.442   5.155 -0.4490 -0.2590 -0.2972
 4042SOL    MW415936   0.154   2.505   5.097 -0.3763  0.5219  0.5174
 4043SOL     OW15937   4.109   5.443   6.279 -0.0760 -0.1315  0.1885
 4043SOL    HW215938   4.166   5.421   6.353 -0.6876  1.2125  1.0872
 4043SOL    HW315939   4.028   5.473   6.319 -0.8822 -0.5550 -1.0628
 4043SOL    MW415940   4.106   5.444   6.294 -0.2631 -0.0101  0.1419
 4044SOL     OW15941   2.644   4.159   3.942  0.0132  0.1888 -0.4431
 4044SOL    HW215942   2.633   4.078   3.993  0.0282  1.1449  1.1270
 4044SOL    HW315943   2.577   4.154   3.874 -1.9741  0.1928  1.4337
 4044SOL    MW415944   2.634   4.147   3.939 -0.2471  0.3154  0.0117
 4045SOL     OW15945   5.833   1.449   3.181  0.3597  0.1838 -0.4819
 4045SOL    HW215946   5.889   1.520   3.214 -0.8917  1.2651 -0.5938
 4045SOL    HW315947   5.872   1.369   3.217  0.6228  1.0985  1.3660
 4045SOL    MW415948   5.846   1.448   3.190  0.2293  0.4471 -0.2529
 4046SOL     OW15949   2.431   5.345   3.759  0.2269 -0.0190  0.2183
 4046SOL    HW215950   2.431   5.305   3.845 -0.2759  1.6081  1.0137
 4046SOL    HW315951   2.484   5.424   3.768  0.5117 -0.0269 -1.0761
 4046SOL    MW415952   2.438   5.350   3.771  0.1982  0.1947  0.1525
 4047SOL     OW15953   2.284   2.407   4.981 -1.3058  0.6000 -0.3620
 4047SOL    HW215954   2.213   2.371   5.035  0.0232 -0.5712  0.7115
 4047SOL    HW315955   2.297   2.342   4.912 -1.5448  1.0236 -0.8123
 4047SOL    MW415956   2.276   2.393   4.979 -1.1620  0.5014 -0.2797
 4048SOL     OW15957   3.510   2.119   0.296  0.4726 -0.7294 -0.5235
 4048SOL    HW215958   3.596   2.083   0.275 -0.1600 -2.0291 -0.9774
 4048SOL    HW315959   3.497   2.099   0.389  0.4256 -1.0466 -0.5973
 4048SOL    MW415960   3.519   2.112   0.306  0.3829 -0.9428 -0.5931
 4049SOL     OW15961   4.505   4.126   0.392  0.3128  0.3065  0.2911
 4049SOL    HW215962   4.566   4.095   0.324  0.6635 -0.4878  0.9435
 4049SOL    HW315963   4.420   4.126   0.349  0.4142 -0.9020  0.0377
 4049SOL    MW415964   4.502   4.122   0.377  0.3725  0.0422  0.3438
 4050SOL     OW15965   5.331   2.408   2.818 -0.2873  0.1195  0.4679
 4050SOL    HW215966   5.418   2.387   2.784 -0.5119 -1.7891  0.9686
 4050SOL    HW315967   5.347   2.456   2.899  0.3438 -0.9607  1.0084
 4050SOL    MW415968   5.344   2.411   2.824 -0.2337 -0.2748  0.6053
 4051SOL     OW15969   6.338   4.586   1.731 -0.2034  0.1744  0.3469
 4051SOL    HW215970   6.300   4.667   1.763  1.1397  1.7042 -1.6976
 4051SOL    HW315971   6.418   4.575   1.782 -0.1756  0.3676  0.3461
 4051SOL    MW415972   6.343   4.595   1.742 -0.0225  0.4018  0.0771
 4052SOL     OW15973   0.483   6.085   0.265 -0.2298  0.5016 -0.0407
 4052SOL    HW215974   0.475   6.151   0.334 -0.8924 -0.0514  0.4370
 4052SOL    HW315975   0.537   6.126   0.198  2.1638  0.3736  1.6535
 4052SOL    MW415976   0.489   6.099   0.265 -0.0014  0.4117  0.2459
 4053SOL     OW15977   3.563   6.052   0.929 -0.1594 -0.1607  0.3439
 4053SOL    HW215978   3.477   6.074   0.965 -1.3522 -2.2875 -0.9898
 4053SOL    HW315979   3.600   5.990   0.991  0.0041  0.0516  0.4579
 4053SOL    MW415980   3.557   6.047   0.942 -0.2952 -0.4133  0.1830
 4054SOL     OW15981   6.377   3.646   2.583 -0.0524 -0.3496  0.2062
 4054SOL    HW215982   6.445   3.598   2.535 -0.8366 -2.9771  1.5249
 4054SOL    HW315983   6.412   3.735   2.591  1.0336 -0.2768 -3.3033
 4054SOL    MW415984   6.391   3.651   2.578 -0.0126 -0.6867 -0.0829
 4055SOL     OW15985   1.114   5.791   4.561 -0.4960 -0.2694 -0.2054
 4055SOL    HW215986   1.082   5.823   4.477 -0.6897 -1.6066 -0.6681
 4055SOL    HW315987   1.131   5.870   4.612 -1.3667  0.5423 -1.1283
 4055SOL    MW415988   1.112   5.806   4.556 -0.6364 -0.3388 -0.3882
 4056SOL     OW15989   1.269   4.321   1.495  0.5068 -0.0681 -0.3085
 4056SOL    HW215990   1.210   4.290   1.427 -0.8087 -0.0218  0.7757
 4056SOL    HW315991   1.345   4.354   1.447 -0.2240 -0.3600 -1.7275
 4056SOL    MW415992   1.271   4.321   1.480  0.2368 -0.1005 -0.3527
 4057SOL     OW15993   3.839   4.864   1.730  0.1411  0.4096  0.0742
 4057SOL    HW215994   3.788   4.945   1.735  0.4506  0.6083  0.0393
 4057SOL    HW315995   3.872   4.851   1.819 -1.6017 -0.7950  0.6027
 4057SOL    MW415996   3.837   4.873   1.743 -0.0480  0.2769  0.1393
 4058SOL     OW15997   3.864   0.300   2.517 -0.3545 -0.6818  0.0399
 4058SOL    HW215998   3.840   0.341   2.600 -1.9852 -0.5612 -0.4412
 4058SOL    HW315999   3.882   0.208   2.539 -0.0190 -0.4717  0.6314
 4058SOL    MW416000   3.863   0.293   2.531 -0.5254 -0.6381  0.0545
 4059SOL     OW16001   4.531   2.040   3.000 -0.0374  0.1146  0.2176
 4059SOL    HW216002   4.498   1.954   2.972  0.2118 -0.0975  0.5668
 4059SOL    HW316003   4.524   2.039   3.095 -0.9518  0.8682  0.1734
 4059SOL    MW416004   4.526   2.028   3.009 -0.1252  0.1860  0.2579
 4060SOL     OW16005   3.350   3.887   5.655 -0.0564 -0.2646 -0.1431
 4060SOL    HW216006   3.385   3.806   5.692 -0.9740 -0.2382  0.8048
 4060SOL    HW316007   3.375   3.955   5.718  0.1203  0.0965 -0.5946
 4060SOL    MW416008   3.358   3.885   5.668 -0.1542 -0.2134 -0.0776
 4061SOL     OW16009   1.019   1.908   2.718 -0.3862  0.0001 -0.1076
 4061SOL    HW216010   1.111   1.908   2.744  0.1414  0.0695 -1.8322
 4061SOL    HW316011   1.020   1.930   2.625 -2.2190  0.8971  0.0201
 4061SOL    MW416012   1.031   1.911   2.709 -0.5584  0.1276 -0.3183
 4062SOL     OW16013   3.945   2.446   3.303  0.8960 -0.0594  0.0384
 4062SOL    HW216014   3.989   2.528   3.323  0.5584  0.5775 -1.6151
 4062SOL    HW316015   3.877   2.438   3.369  1.8470  0.2424  1.0828
 4062SOL    MW416016   3.942   2.456   3.314  0.9769  0.0644 -0.0419
 4063SOL     OW16017   4.801   5.869   6.378  0.0522 -0.0938  0.0659
 4063SOL    HW216018   4.750   5.944   6.408  1.2537  2.1715 -3.0270
 4063SOL    HW316019   4.891   5.891   6.400  0.3990 -0.7449 -0.6387
 4063SOL    MW416020   4.806   5.882   6.385  0.2565  0.1192 -0.4351
 4064SOL     OW16021   5.251   0.817   3.614  0.5418 -0.0519 -0.3068
 4064SOL    HW216022   5.216   0.792   3.699  1.7322 -0.8726 -0.0385
 4064SOL    HW316023   5.177   0.806   3.554 -0.0508 -0.3579  0.4618
 4064SOL    MW416024   5.236   0.812   3.617  0.6207 -0.2006 -0.1700
 4065SOL     OW16025   3.842   4.556   2.606  0.5192  0.1566 -0.0417
 4065SOL    HW216026   3.824   4.464   2.627  1.2959  0.0155  0.0104
 4065SOL    HW316027   3.785   4.605   2.665 -0.1065 -0.2897 -0.2644
 4065SOL    MW416028   3.832   4.550   2.617  0.5391  0.0791 -0.0642
 4066SOL     OW16029   1.673   5.164   5.000 -0.4726 -0.5821  0.6037
 4066SOL    HW216030   1.690   5.156   5.094 -0.5577 -0.9860  0.5881
 4066SOL    HW316031   1.722   5.091   4.961  0.8261  0.4768  0.1686
 4066SOL    MW416032   1.682   5.153   5.007 -0.3125 -0.4957  0.5442
 4067SOL     OW16033   6.160   2.867   2.600  0.0375  0.5196 -0.0040
 4067SOL    HW216034   6.224   2.909   2.542  1.2340  0.0007  0.8997
 4067SOL    HW316035   6.184   2.898   2.687 -2.1844  1.8779  0.1976
 4067SOL    MW416036   6.172   2.877   2.604 -0.0978  0.6304  0.1418
 4068SOL     OW16037   1.161   1.483   1.944 -0.1009  0.0211  0.4818
 4068SOL    HW216038   1.099   1.442   1.884 -0.5829  0.6451  0.5342
 4068SOL    HW316039   1.215   1.412   1.976  0.0665 -0.3482 -0.5765
 4068SOL    MW416040   1.160   1.468   1.940 -0.1424  0.0547  0.3491
 4069SOL     OW16041   2.712   2.346   4.852  0.4003 -1.2096 -0.1865
 4069SOL    HW216042   2.712   2.273   4.914  1.8419  0.0072  1.3659
 4069SOL    HW316043   2.644   2.405   4.885 -1.1091 -2.0259 -1.7239
 4069SOL    MW416044   2.703   2.344   4.865  0.3914 -1.1568 -0.1845
 4070SOL     OW16045   1.642   5.976   2.700  0.0835  0.6900  0.1491
 4070SOL    HW216046   1.619   5.908   2.636 -0.7060  0.6567  0.4581
 4070SOL    HW316047   1.665   6.052   2.647  0.7306  0.2610 -0.1969
 4070SOL    MW416048   1.642   5.977   2.685  0.0647  0.6290  0.1442
 4071SOL     OW16049   3.410   5.717   1.017 -0.4087  0.4692 -0.0839
 4071SOL    HW216050   3.482   5.772   1.047 -0.4055 -0.3155  1.4200
 4071SOL    HW316051   3.332   5.772   1.027 -0.1277  1.0678 -1.0367
 4071SOL    MW416052   3.409   5.731   1.022 -0.3712  0.4447 -0.0112
 4072SOL     OW16053   3.251   1.064   5.890 -0.3499  0.3238 -0.1045
 4072SOL    HW216054   3.293   1.126   5.950  0.5104 -1.2236  0.9761
 4072SOL    HW316055   3.259   0.979   5.934 -1.5466 -0.5620 -1.4927
 4072SOL    MW416056   3.258   1.061   5.904 -0.3943  0.0027 -0.1451
 4073SOL     OW16057   5.324   0.579   0.008 -0.3324 -0.1328 -0.2226
 4073SOL    HW216058   5.376   0.638  -0.047 -0.2773  0.2723  0.2537
 4073SOL    HW316059   5.369   0.580   0.093 -0.2591 -0.9642 -0.2433
 4073SOL    MW416060   5.337   0.587   0.012 -0.3155 -0.1891 -0.1625
 4074SOL     OW16061   2.210   4.788   1.657  0.1231  0.2750  0.2435
 4074SOL    HW216062   2.229   4.701   1.694 -1.5815  0.5003  1.7889
 4074SOL    HW316063   2.191   4.771   1.565  1.1201 -0.7909  0.2054
 4074SOL    MW416064   2.210   4.774   1.650  0.0297  0.1641  0.4423
 4075SOL     OW16065   5.886   6.189   3.184 -0.6780  0.0181  0.0319
 4075SOL    HW216066   5.865   6.277   3.153  1.7391  0.1111 -1.6696
 4075SOL    HW316067   5.964   6.200   3.239  0.2590 -1.0987 -0.9982
 4075SOL    MW416068   5.894   6.202   3.187 -0.2355 -0.1170 -0.3285
 4076SOL     OW16069   5.484   3.390   5.170  0.2729 -0.0908 -0.4345
 4076SOL    HW216070   5.532   3.427   5.244  1.9487  0.0106 -1.5072
 4076SOL    HW316071   5.551   3.347   5.117 -0.4128  1.8668 -3.1045
 4076SOL    MW416072   5.499   3.390   5.173  0.4035  0.1809 -0.9283
 4077SOL     OW16073   5.336   4.907   3.110 -0.2475  0.0928  0.1645
 4077SOL    HW216074   5.404   4.872   3.052 -0.4370  0.0950 -0.0620
 4077SOL    HW316075   5.291   4.829   3.143  0.9482 -0.0070  1.6689
 4077SOL    MW416076   5.339   4.892   3.107 -0.1148  0.0800  0.3331
 4078SOL     OW16077   0.590   5.355   3.284  0.0194 -0.4558 -0.3331
 4078SOL    HW216078   0.670   5.400   3.257 -0.2398 -0.4354 -1.0705
 4078SOL    HW316079   0.622   5.284   3.341  0.3921  0.9078  1.2382
 4078SOL    MW416080   0.605   5.351   3.288  0.0344 -0.2732 -0.2231
 4079SOL     OW16081   3.715   0.589   5.383  0.4105  0.2745 -0.0241
 4079SOL    HW216082   3.673   0.612   5.300 -0.1878  1.8101  0.6681
 4079SOL    HW316083   3.740   0.497   5.373 -1.0307 -0.0101 -1.3378
 4079SOL    MW416084   3.713   0.580   5.371  0.1414  0.4395 -0.1061
 4080SOL     OW16085   3.287   3.315   3.983 -0.4063 -0.7673 -0.3529
 4080SOL    HW216086   3.246   3.360   3.909 -0.1859  0.3232  0.1625
 4080SOL    HW316087   3.240   3.348   4.060  1.4908  0.6749  0.2772
 4080SOL    MW416088   3.275   3.325   3.983 -0.1269 -0.4332 -0.2018
 4081SOL     OW16089   5.677   1.847   3.502 -0.3627  0.7979 -0.3522
 4081SOL    HW216090   5.641   1.818   3.586  2.1428 -0.7696  0.2638
 4081SOL    HW316091   5.658   1.775   3.441 -1.0265  1.3671 -0.8387
 4081SOL    MW416092   5.669   1.834   3.505 -0.1197  0.6662 -0.3351
 4082SOL     OW16093   1.202   1.988   4.524 -0.6170  0.6047  0.2005
 4082SOL    HW216094   1.117   1.971   4.483 -1.1618 -0.0303  1.5076
 4082SOL    HW316095   1.254   2.032   4.457 -1.8071  0.5328 -0.7919
 4082SOL    MW416096   1.198   1.991   4.510 -0.8459  0.5115  0.2420
 4083SOL     OW16097   1.237   3.802   3.763 -0.2061  0.1278 -0.2047
 4083SOL    HW216098   1.284   3.744   3.823 -0.5351 -1.0434 -1.0295
 4083SOL    HW316099   1.281   3.790   3.679 -0.9344  0.2830 -0.6172
 4083SOL    MW416100   1.249   3.792   3.760 -0.3456 -0.0062 -0.3680
 4084SOL     OW16101   0.638   3.722   4.143  0.5561 -0.0362  0.7003
 4084SOL    HW216102   0.553   3.686   4.167 -0.4682  0.1026 -2.3402
 4084SOL    HW316103   0.676   3.657   4.084  0.6540  1.7192 -1.3006
 4084SOL    MW416104   0.632   3.709   4.138  0.4339  0.2137  0.0351
 4085SOL     OW16105   2.333   5.483   0.913 -0.5113 -0.3279  0.0351
 4085SOL    HW216106   2.405   5.422   0.932  0.0205  0.1633 -0.3896
 4085SOL    HW316107   2.359   5.527   0.832 -1.5551 -0.5492 -0.4455
 4085SOL    MW416108   2.346   5.481   0.904 -0.5788 -0.2923 -0.0844
 4086SOL     OW16109   3.451   0.435   2.625  0.0582 -0.0279 -0.5742
 4086SOL    HW216110   3.387   0.371   2.655 -0.1070  0.0955 -0.6626
 4086SOL    HW316111   3.424   0.456   2.536  0.0209  0.2830 -0.4902
 4086SOL    MW416112   3.439   0.430   2.617  0.0315  0.0294 -0.5748
 4087SOL     OW16113   2.336   6.282   0.878 -0.3729 -0.8344 -0.8728
 4087SOL    HW216114   2.275   6.347   0.913  1.0279 -0.0290  0.1629
 4087SOL    HW316115   2.320   6.204   0.931 -0.1488 -0.4613 -0.2484
 4087SOL    MW416116   2.325   6.280   0.890 -0.1585 -0.6789 -0.6538
 4088SOL     OW16117   1.504   1.756   1.955 -0.2785  0.0852 -0.5305
 4088SOL    HW216118   1.413   1.763   1.927 -1.1663 -1.0882  1.7382
 4088SOL    HW316119   1.499   1.750   2.051  2.0029 -2.0292 -0.4307
 4088SOL    MW416120   1.491   1.756   1.964 -0.0946 -0.3486 -0.2180
 4089SOL     OW16121   3.706   1.065   5.901  0.2140 -0.0251  0.3171
 4089SOL    HW216122   3.762   0.999   5.860  0.8144  0.5959  0.0937
 4089SOL    HW316123   3.626   1.065   5.848  0.8135  0.4711 -0.6217
 4089SOL    MW416124   3.703   1.057   5.888  0.3723  0.1223  0.1637
 4090SOL     OW16125   0.322   5.057   1.682  0.8473 -0.4886 -0.1685
 4090SOL    HW216126   0.285   4.970   1.692  1.1822 -0.7910 -1.3735
 4090SOL    HW316127   0.261   5.104   1.626  1.4144 -0.4402 -0.7599
 4090SOL    MW416128   0.309   5.052   1.676  0.9663 -0.5221 -0.4055
 4091SOL     OW16129   0.764   0.141   0.182  0.1033 -0.1586  0.2702
 4091SOL    HW216130   0.691   0.116   0.239 -1.6593 -0.7726 -2.0948
 4091SOL    HW316131   0.735   0.116   0.094  1.9021  2.3743 -1.1652
 4091SOL    MW416132   0.750   0.134   0.178  0.1081  0.0946 -0.2312
 4092SOL     OW16133   2.531   2.828   4.119  0.1330 -0.0548  0.2236
 4092SOL    HW216134   2.527   2.883   4.198  1.1899  0.3549  0.0097
 4092SOL    HW316135   2.480   2.876   4.054  1.7466  1.1385 -0.2129
 4092SOL    MW416136   2.524   2.842   4.121  0.4853  0.1567  0.1378
 4093SOL     OW16137   5.714   6.403   5.722  0.2586 -0.3669  0.0807
 4093SOL    HW216138   5.769   6.332   5.690 -0.3753 -2.0275  2.4081
 4093SOL    HW316139   5.756   6.433   5.803 -1.0648 -0.1811  0.7438
 4093SOL    MW416140   5.726   6.398   5.728  0.0004 -0.5615  0.4752
 4094SOL     OW16141   0.019   1.282   2.917 -1.0260 -0.5218 -1.0847
 4094SOL    HW216142   0.064   1.203   2.887  2.0772  1.2973 -1.6850
 4094SOL    HW316143   0.075   1.354   2.887 -2.7125  1.8481  1.0392
 4094SOL    MW416144   0.033   1.281   2.909 -0.8391  0.0309 -0.8837
 4095SOL     OW16145   2.115   3.138   0.887  0.0893  0.2723  0.4880
 4095SOL    HW216146   2.199   3.092   0.890 -0.3688 -0.6276 -0.0539
 4095SOL    HW316147   2.056   3.077   0.843 -0.9680  0.7017  1.2693
 4095SOL    MW416148   2.118   3.123   0.882 -0.1106  0.2102  0.5196
 4096SOL     OW16149   2.002   1.965   4.000  0.0775 -0.0569  0.7906
 4096SOL    HW216150   2.094   1.986   4.017 -0.0733  1.7038 -0.2255
 4096SOL    HW316151   2.002   1.872   3.981  1.2359 -0.6560  3.3036
 4096SOL    MW416152   2.014   1.956   3.999  0.2105  0.0964  0.9881
 4097SOL     OW16153   1.294   4.040   6.346 -0.3277  0.4390  0.0537
 4097SOL    HW216154   1.339   3.971   6.298 -1.0051 -0.6131  0.8705
 4097SOL    HW316155   1.330   4.035   6.435 -2.7011 -1.1660  1.0410
 4097SOL    MW416156   1.305   4.030   6.352 -0.7302  0.0884  0.2918
 4098SOL     OW16157   5.237   3.110   2.061  0.2570  0.7831 -0.5119
 4098SOL    HW216158   5.143   3.090   2.059  0.1442  1.2933 -2.0531
 4098SOL    HW316159   5.248   3.170   2.134 -1.0980  2.7971 -1.8785
 4098SOL    MW416160   5.226   3.115   2.070  0.0633  1.1161 -0.8955
 4099SOL     OW16161   5.437   5.642   0.303 -0.1420 -0.0665  0.4133
 4099SOL    HW216162   5.423   5.727   0.262 -2.0446 -0.8423 -0.6732
 4099SOL    HW316163   5.362   5.630   0.361 -1.7535 -2.3241 -1.9064
 4099SOL    MW416164   5.426   5.652   0.305 -0.6057 -0.4667 -0.0361
 4100SOL     OW16165   4.851   2.137   5.872 -0.0838  0.2747  1.0755
 4100SOL    HW216166   4.938   2.169   5.897  0.4160 -0.9936  1.0275
 4100SOL    HW316167   4.834   2.064   5.932  0.0905 -1.2690 -0.6564
 4100SOL    MW416168   4.860   2.132   5.883  0.0052 -0.0963  0.8407
 4101SOL     OW16169   4.332   1.523   0.052 -0.0590 -0.0221  0.6857
 4101SOL    HW216170   4.393   1.533  -0.021 -0.4796 -0.6005  0.2537
 4101SOL    HW316171   4.302   1.433   0.047 -1.2074  0.3450  0.6886
 4101SOL    MW416172   4.336   1.513   0.042 -0.2660 -0.0500  0.6291
 4102SOL     OW16173   1.464   6.257   0.703 -0.1292 -0.1609 -0.2820
 4102SOL    HW216174   1.472   6.179   0.649  0.9783 -0.4850  0.2966
 4102SOL    HW316175   1.555   6.283   0.719 -0.3579 -0.6193  2.1416
 4102SOL    MW416176   1.477   6.250   0.698 -0.0133 -0.2641  0.1141
 4103SOL     OW16177   5.790   0.424   2.773 -0.2988  0.1969  0.6404
 4103SOL    HW216178   5.779   0.402   2.681  0.0821  1.3751  0.2995
 4103SOL    HW316179   5.785   0.340   2.818 -0.0194 -0.4482 -0.4917
 4103SOL    MW416180   5.788   0.410   2.767 -0.2117  0.2672  0.4460
 4104SOL     OW16181   4.739   5.282   4.871  0.4564  0.2292  0.0695
 4104SOL    HW216182   4.758   5.250   4.959  0.0801 -0.2020 -0.0014
 4104SOL    HW316183   4.644   5.278   4.864  0.3152  2.1903  0.3576
 4104SOL    MW416184   4.729   5.277   4.882  0.3881  0.4311  0.0982
 4105SOL     OW16185   4.537   1.632   3.987  0.2849 -0.1087  0.7981
 4105SOL    HW216186   4.455   1.596   4.019  0.5219 -0.9643  0.4698
 4105SOL    HW316187   4.519   1.725   3.973 -1.0700 -0.5401 -0.6813
 4105SOL    MW416188   4.524   1.639   3.989  0.1374 -0.2785  0.5596
 4106SOL     OW16189   2.760   6.243   1.340  0.4546  0.9792  0.8476
 4106SOL    HW216190   2.799   6.306   1.278  0.2633 -0.6045 -0.9661
 4106SOL    HW316191   2.700   6.296   1.392  0.8441  2.4419 -0.1033
 4106SOL    MW416192   2.758   6.258   1.339  0.4807  0.9633  0.4828
 4107SOL     OW16193   1.132   1.771   0.695 -0.2889  0.5889  0.2001
 4107SOL    HW216194   1.217   1.802   0.725  0.4913  0.2681 -1.5339
 4107SOL    HW316195   1.068   1.816   0.750  0.9699  1.6571  0.8198
 4107SOL    MW416196   1.135   1.781   0.706 -0.0199  0.6875  0.0530
 4108SOL     OW16197   0.668   4.519   1.432  0.4397 -0.5583  0.5191
 4108SOL    HW216198   0.582   4.547   1.462  0.4076  0.2696 -0.3050
 4108SOL    HW316199   0.726   4.534   1.507 -0.2190 -1.6927  1.2874
 4108SOL    MW416200   0.665   4.525   1.446  0.3485 -0.5988  0.5118
 4109SOL     OW16201   0.620   1.708   2.284 -0.2541  0.4110  0.4753
 4109SOL    HW216202   0.680   1.713   2.210 -0.6802 -3.2635 -0.3134
 4109SOL    HW316203   0.536   1.682   2.246 -0.4819 -1.6308  2.1591
 4109SOL    MW416204   0.617   1.705   2.269 -0.3404 -0.3432  0.5934
 4110SOL     OW16205   0.329   2.678   2.958 -0.5981 -0.7537 -0.3184
 4110SOL    HW216206   0.402   2.718   2.911 -2.1256  2.4689 -0.2160
 4110SOL    HW316207   0.303   2.603   2.904  1.7911 -1.0892 -1.0974
 4110SOL    MW416208   0.335   2.673   2.945 -0.4844 -0.3728 -0.4077
 4111SOL     OW16209   5.811   1.440   3.567 -0.0300 -0.3964 -0.2043
 4111SOL    HW216210   5.890   1.489   3.589 -0.5346  0.5044 -0.3129
 4111SOL    HW316211   5.826   1.352   3.602  0.9110 -0.1705 -0.0170
 4111SOL    MW416212   5.823   1.435   3.575  0.0276 -0.2477 -0.1939
 4112SOL     OW16213   1.312   4.256   0.573 -0.0249 -0.5078  0.0438
 4112SOL    HW216214   1.281   4.337   0.533 -0.0141 -0.3979  0.2581
 4112SOL    HW316215   1.288   4.188   0.510 -1.9896 -0.6046  0.8057
 4112SOL    MW416216   1.305   4.258   0.560 -0.2827 -0.5061  0.1726
 4113SOL     OW16217   2.174   4.156   5.152 -0.3011  0.2654  0.1496
 4113SOL    HW216218   2.194   4.158   5.246  1.4072  1.2507 -0.1875
 4113SOL    HW316219   2.248   4.111   5.112 -0.6035  0.6011 -0.8264
 4113SOL    MW416220   2.186   4.150   5.159 -0.1156  0.4397 -0.0236
 4114SOL     OW16221   0.676   0.506   0.077  0.7265  0.1983 -0.2627
 4114SOL    HW216222   0.731   0.449   0.131  0.0490 -0.3082 -0.0875
 4114SOL    HW316223   0.677   0.465  -0.009 -1.9446 -1.7111  0.4809
 4114SOL    MW416224   0.684   0.493   0.073  0.2847 -0.1204 -0.1415
 4115SOL     OW16225   2.578   0.829   2.586  0.0235 -0.5224 -0.2961
 4115SOL    HW216226   2.494   0.865   2.614 -0.4741 -0.9599 -1.1982
 4115SOL    HW316227   2.575   0.832   2.491  0.5992 -1.5325 -0.3609
 4115SOL    MW416228   2.567   0.834   2.578  0.0338 -0.7134 -0.4237
 4116SOL     OW16229   0.226   3.083   5.296  0.3643  0.3372 -0.0750
 4116SOL    HW216230   0.255   2.995   5.319 -1.5542 -0.7549 -1.5027
 4116SOL    HW316231   0.171   3.111   5.369 -1.9394 -1.2019 -1.0938
 4116SOL    MW416232   0.222   3.075   5.308 -0.1927 -0.0100 -0.3978
 4117SOL     OW16233   3.925   1.905   1.286 -0.2584  0.7648 -0.3967
 4117SOL    HW216234   3.937   1.847   1.211  2.0208  0.2991  0.2617
 4117SOL    HW316235   3.940   1.849   1.362  0.3911  1.8550  0.2964
 4117SOL    MW416236   3.929   1.890   1.286  0.1280  0.8472 -0.2184
 4118SOL     OW16237   1.178   0.732   1.758 -0.1609 -0.3661  0.1774
 4118SOL    HW216238   1.252   0.680   1.725  0.2752  0.9255 -0.9901
 4118SOL    HW316239   1.215   0.786   1.827  0.1725  0.7006 -0.7934
 4118SOL    MW416240   1.193   0.732   1.762 -0.0594 -0.0549 -0.1047
 4119SOL     OW16241   1.818   1.566   1.721 -0.1454  0.1734  0.3727
 4119SOL    HW216242   1.907   1.601   1.719  0.6438 -1.6660  0.7968
 4119SOL    HW316243   1.829   1.474   1.745 -2.2335  0.0950  1.2849
 4119SOL    MW416244   1.831   1.558   1.724 -0.3168 -0.0797  0.5490
 4120SOL     OW16245   3.805   5.609   2.139 -0.2743  0.1075  0.4774
 4120SOL    HW216246   3.825   5.540   2.202 -1.5860 -0.5464  0.2077
 4120SOL    HW316247   3.770   5.681   2.192 -0.8066 -0.2072  0.5485
 4120SOL    MW416248   3.803   5.610   2.154 -0.5176 -0.0203  0.4512
 4121SOL     OW16249   0.604   1.541   2.987  0.0957  0.1009 -0.0136
 4121SOL    HW216250   0.634   1.456   2.957 -1.7690 -1.1965  1.5486
 4121SOL    HW316251   0.625   1.601   2.915  0.2448 -1.9013 -1.7304
 4121SOL    MW416252   0.611   1.538   2.973 -0.1306 -0.3345 -0.0340
 4122SOL     OW16253   2.318   5.691   6.075 -0.1167  0.1362  0.4269
 4122SOL    HW216254   2.412   5.672   6.069  0.0322  0.9174  0.1224
 4122SOL    HW316255   2.312   5.768   6.131 -0.4712  0.7909 -0.4786
 4122SOL    MW416256   2.330   5.699   6.081 -0.1438  0.3257  0.2673
 4123SOL     OW16257   1.894   2.758   2.766 -0.0289  0.0993 -0.2003
 4123SOL    HW216258   1.891   2.841   2.720 -1.6611  0.3636  0.3371
 4123SOL    HW316259   1.871   2.693   2.700  1.9263 -0.0508 -0.7961
 4123SOL    MW416260   1.891   2.760   2.751  0.0137  0.1144 -0.2080
 4124SOL     OW16261   0.335   2.466   1.539  0.3237 -0.3756 -0.6041
 4124SOL    HW216262   0.374   2.455   1.626  0.2740  1.4336 -0.3336
 4124SOL    HW316263   0.242   2.481   1.555  0.1255 -1.0334 -1.0521
 4124SOL    MW416264   0.328   2.466   1.552  0.2910 -0.2237 -0.6275
 4125SOL     OW16265   4.909   5.821   3.155  0.5856 -0.1858 -0.5038
 4125SOL    HW216266   4.942   5.803   3.067 -0.4660 -0.5027 -0.8556
 4125SOL    HW316267   4.984   5.810   3.212  1.3881  0.4514 -1.4072
 4125SOL    MW416268   4.923   5.817   3.151  0.5527 -0.1436 -0.6694
 4126SOL     OW16269   2.764   3.974   0.257  0.5995  0.0200 -0.1451
 4126SOL    HW216270   2.730   3.895   0.216  0.2830  0.1697 -0.1759
 4126SOL    HW316271   2.689   4.013   0.301 -0.1762  2.1790 -3.0702
 4126SOL    MW416272   2.750   3.969   0.257  0.4554  0.3246 -0.5351
 4127SOL     OW16273   4.701   2.051   2.763 -0.5222  0.3387 -0.3398
 4127SOL    HW216274   4.617   2.031   2.722 -0.8721  0.6504  0.2258
 4127SOL    HW316275   4.701   2.001   2.845  0.7446 -1.3771 -1.3045
 4127SOL    MW416276   4.690   2.042   2.768 -0.4013  0.1535 -0.3924
 4128SOL     OW16277   4.755   6.100   1.291  0.1477 -0.0679  0.4847
 4128SOL    HW216278   4.763   6.195   1.281  0.2670 -0.0407  0.8286
 4128SOL    HW316279   4.807   6.080   1.369 -0.0716 -0.3826  0.5512
 4128SOL    MW416280   4.763   6.110   1.300  0.1345 -0.1058  0.5388
 4129SOL     OW16281   5.399   5.831   3.613 -0.1525 -0.2657  0.2655
 4129SOL    HW216282   5.413   5.841   3.519 -1.5107  3.9111  0.2745
 4129SOL    HW316283   5.479   5.865   3.653 -0.4068 -0.0093  0.5607
 4129SOL    MW416284   5.411   5.837   3.606 -0.3652  0.3192  0.3056
 4130SOL     OW16285   3.095   3.603   0.722  0.3745  0.3275 -0.2419
 4130SOL    HW216286   3.019   3.649   0.758  1.3427  0.2095  2.1275
 4130SOL    HW316287   3.111   3.646   0.638 -0.5570  2.3331  0.5258
 4130SOL    MW416288   3.087   3.615   0.716  0.3794  0.5765  0.1720
 4131SOL     OW16289   1.948   4.966   2.210  0.0200  0.2373 -0.0325
 4131SOL    HW216290   1.886   4.892   2.216  1.5673 -1.1819 -0.7953
 4131SOL    HW316291   1.907   5.027   2.149  0.1110 -1.4977 -1.9216
 4131SOL    MW416292   1.934   4.964   2.203  0.2362 -0.1789 -0.3824
 4132SOL     OW16293   5.348   5.715   6.364 -0.4927 -0.3378  0.4947
 4132SOL    HW216294   5.430   5.743   6.324 -0.3300 -0.8568  0.4644
 4132SOL    HW316295   5.288   5.704   6.290 -0.9983  1.3205  0.6063
 4132SOL    MW416296   5.351   5.717   6.349 -0.5380 -0.1875  0.5054
 4133SOL     OW16297   4.522   5.701   0.809 -0.0842  0.0447  0.0624
 4133SOL    HW216298   4.557   5.733   0.726 -2.7339  2.9979 -0.0645
 4133SOL    HW316299   4.537   5.772   0.871 -0.4487 -1.0814  1.5104
 4133SOL    MW416300   4.529   5.714   0.806 -0.4819  0.2858  0.2367
 4134SOL     OW16301   0.583   5.946   3.611 -0.1126 -0.1489 -0.2743
 4134SOL    HW216302   0.627   5.880   3.665  0.4928 -0.7251 -1.4328
 4134SOL    HW316303   0.510   5.900   3.570  0.1474 -0.0535 -0.8698
 4134SOL    MW416304   0.579   5.932   3.612  0.0016 -0.2124 -0.5057
 4135SOL     OW16305   0.745   4.113   3.864 -0.5183  0.2070  0.1606
 4135SOL    HW216306   0.704   4.199   3.865 -1.3030 -0.0621 -2.4989
 4135SOL    HW316307   0.685   4.056   3.913 -0.8741  0.7869  0.4008
 4135SOL    MW416308   0.732   4.117   3.871 -0.6688  0.2480 -0.1586
 4136SOL     OW16309   2.457   1.850   4.187 -0.2465 -0.0818  0.4944
 4136SOL    HW216310   2.455   1.755   4.197  1.4452 -0.0811  1.0656
 4136SOL    HW316311   2.419   1.884   4.269 -0.3622 -0.2534  0.5112
 4136SOL    MW416312   2.452   1.842   4.199 -0.0385 -0.1043  0.5720
 4137SOL     OW16313   6.419   6.209   5.549 -0.6120  0.7501 -0.2605
 4137SOL    HW216314   6.333   6.171   5.533 -0.3976  0.2589 -0.2705
 4137SOL    HW316315   6.460   6.211   5.462  0.2254 -1.1082  0.0464
 4137SOL    MW416316   6.413   6.205   5.535 -0.4732  0.4402 -0.2213
 4138SOL     OW16317   0.936   0.731   5.046  0.3318  0.2356  0.0385
 4138SOL    HW216318   0.909   0.738   5.138 -0.1473  0.0205 -0.0826
 4138SOL    HW316319   0.887   0.656   5.012  1.6221 -0.5999 -0.0036
 4138SOL    MW416320   0.926   0.722   5.054  0.4388  0.0969  0.0169
 4139SOL     OW16321   0.166   5.486   3.323  0.2955 -0.1110  0.0283
 4139SOL    HW216322   0.088   5.431   3.330  0.7783 -1.0288 -1.4479
 4139SOL    HW316323   0.228   5.449   3.386  0.0710 -0.2822  0.1488
 4139SOL    MW416324   0.164   5.474   3.332  0.3295 -0.2547 -0.1506
 4140SOL     OW16325   5.623   0.415   1.156  0.5641 -0.9556  0.0931
 4140SOL    HW216326   5.645   0.488   1.214 -1.2149 -0.9341  0.8229
 4140SOL    HW316327   5.553   0.449   1.100  1.0936 -1.5014 -0.9287
 4140SOL    MW416328   5.617   0.429   1.156  0.3993 -1.0247  0.0546
 4141SOL     OW16329   5.583   1.616   4.275  0.2231 -0.0234  0.3377
 4141SOL    HW216330   5.598   1.532   4.318  0.5220 -0.3171 -0.3391
 4141SOL    HW316331   5.664   1.665   4.289  0.3493 -0.1481  0.0422
 4141SOL    MW416332   5.595   1.611   4.282  0.2791 -0.0786  0.2094
 4142SOL     OW16333   3.951   2.396   5.216 -0.3433 -0.1654  0.0058
 4142SOL    HW216334   3.984   2.405   5.126  1.1779  0.2553  0.5851
 4142SOL    HW316335   3.876   2.455   5.220 -0.9278 -0.7765 -1.2010
 4142SOL    MW416336   3.945   2.405   5.204 -0.2197 -0.1905 -0.0770
 4143SOL     OW16337   5.499   3.368   2.960 -0.0767 -0.1285 -0.0095
 4143SOL    HW216338   5.476   3.390   2.870  1.7926  3.0099  0.1276
 4143SOL    HW316339   5.572   3.307   2.953  0.8605  1.0288 -0.7224
 4143SOL    MW416340   5.505   3.363   2.947  0.2936  0.4382 -0.0855
 4144SOL     OW16341   2.845   4.151   3.442  0.5330  0.2371  0.1163
 4144SOL    HW216342   2.884   4.072   3.479  0.6377  0.0640 -0.3535
 4144SOL    HW316343   2.868   4.147   3.349  0.2227  0.6302  0.0224
 4144SOL    MW416344   2.853   4.140   3.434  0.5059  0.2661  0.0419
 4145SOL     OW16345   2.769   5.936   2.201  0.6209 -0.5100 -0.1354
 4145SOL    HW216346   2.774   6.023   2.160  3.0932 -0.7932 -0.5967
 4145SOL    HW316347   2.785   5.952   2.294  0.4356 -0.4152 -0.1193
 4145SOL    MW416348   2.772   5.950   2.208  0.9227 -0.5349 -0.1941
 4146SOL     OW16349   0.448   4.490   5.905 -0.5191 -0.0949 -0.0875
 4146SOL    HW216350   0.391   4.489   5.828 -0.1480  1.8187 -0.4277
 4146SOL    HW316351   0.531   4.454   5.874 -0.5315  0.1872 -0.4516
 4146SOL    MW416352   0.451   4.485   5.891 -0.4718  0.1948 -0.1805
 4147SOL     OW16353   1.379   6.377   4.863  0.4101 -0.0165 -0.0542
 4147SOL    HW216354   1.420   6.449   4.816  1.2065 -0.0242  0.6092
 4147SOL    HW316355   1.289   6.407   4.879  0.2387  0.1420 -1.2144
 4147SOL    MW416356   1.372   6.390   4.859  0.4925  0.0034 -0.1197
 4148SOL     OW16357   3.804   6.016   4.383  0.8893  0.2798 -0.2821
 4148SOL    HW216358   3.763   6.007   4.469 -1.1213 -1.3034 -1.3141
 4148SOL    HW316359   3.803   5.928   4.347  0.4273  1.1207 -2.4667
 4148SOL    MW416360   3.799   6.003   4.390  0.5631  0.1819 -0.7065
 4149SOL     OW16361   2.371   0.366   4.931  0.2340 -0.1175  0.1626
 4149SOL    HW216362   2.401   0.414   5.008  1.6727 -1.2996  0.3832
 4149SOL    HW316363   2.276   0.373   4.933  0.3503  1.8636  0.7201
 4149SOL    MW416364   2.363   0.373   4.941  0.4391 -0.0121  0.2653
 4150SOL     OW16365   1.738   2.865   4.456 -0.0440 -0.1822  0.1295
 4150SOL    HW216366   1.789   2.802   4.404  0.1919  1.1521 -1.3307
 4150SOL    HW316367   1.781   2.949   4.440 -2.7867  1.0571 -1.3732
 4150SOL    MW416368   1.750   2.868   4.447 -0.3747  0.1574 -0.2614
 4151SOL     OW16369   4.176   5.077   0.504 -0.1645 -0.1495  0.1266
 4151SOL    HW216370   4.179   5.021   0.581 -0.8827  1.4042  1.3249
 4151SOL    HW316371   4.206   5.162   0.535  2.4080 -0.1511 -1.9851
 4151SOL    MW416372   4.181   5.081   0.518  0.0801  0.0553  0.0061
 4152SOL     OW16373   4.513   4.343   2.819  0.1206  0.1056  0.2214
 4152SOL    HW216374   4.433   4.348   2.871  0.2972 -0.0934  0.5144
 4152SOL    HW316375   4.495   4.396   2.742 -0.6993 -0.8361 -0.2533
 4152SOL    MW416376   4.500   4.351   2.816  0.0358 -0.0449  0.1974
 4153SOL     OW16377   2.712   6.200   2.108  0.7567  0.0596  0.5301
 4153SOL    HW216378   2.636   6.203   2.166  1.7556  0.8328  1.8659
 4153SOL    HW316379   2.678   6.169   2.024 -1.0112  0.3670  1.1029
 4153SOL    MW416380   2.697   6.196   2.105  0.6553  0.2022  0.7819
 4154SOL     OW16381   3.320   4.666   6.196 -0.2743 -0.1414  0.6465
 4154SOL    HW216382   3.231   4.683   6.226 -0.1935 -0.2177  0.9373
 4154SOL    HW316383   3.314   4.665   6.101 -0.3828  0.9227  0.6320
 4154SOL    MW416384   3.307   4.668   6.188 -0.2779 -0.0111  0.6830
 4155SOL     OW16385   5.752   1.274   0.445  0.4817 -0.1084 -0.0737
 4155SOL    HW216386   5.826   1.220   0.417 -0.0559 -1.2405  0.6176
 4155SOL    HW316387   5.758   1.275   0.541 -0.4228 -0.2519 -0.0133
 4155SOL    MW416388   5.763   1.267   0.454  0.2914 -0.2767  0.0254
 4156SOL     OW16389   0.064   0.166   5.987  0.1994 -0.1519 -0.0417
 4156SOL    HW216390   0.111   0.240   6.026  1.0619 -0.2180 -0.9007
 4156SOL    HW316391  -0.014   0.204   5.948  0.3049  0.2015  0.0898
 4156SOL    MW416392   0.060   0.181   5.987  0.3271 -0.1140 -0.1377
 4157SOL     OW16393   3.783   4.759   3.589 -0.3190 -0.6734  0.3647
 4157SOL    HW216394   3.721   4.771   3.518 -1.2012 -1.0341  1.0563
 4157SOL    HW316395   3.823   4.674   3.573 -1.2452 -1.2093  0.8271
 4157SOL    MW416396   3.780   4.750   3.578 -0.5576 -0.7917  0.5170
 4158SOL     OW16397   3.459   0.449   1.603  0.6198  0.0242 -0.5166
 4158SOL    HW216398   3.491   0.483   1.686 -1.2464  1.4503 -0.3218
 4158SOL    HW316399   3.428   0.526   1.556  0.0622 -0.9563 -1.8178
 4158SOL    MW416400   3.459   0.463   1.608  0.3000  0.0830 -0.6625
 4159SOL     OW16401   2.951   5.495   5.170 -0.1784 -0.3502  0.3686
 4159SOL    HW216402   2.917   5.582   5.194 -0.4434  0.0313 -1.2864
 4159SOL    HW316403   2.873   5.439   5.169 -0.2600 -0.2274 -0.1921
 4159SOL    MW416404   2.936   5.499   5.173 -0.2242 -0.2837  0.0763
 4160SOL     OW16405   0.247   4.811   5.370  0.0790  0.1700 -0.1447
 4160SOL    HW216406   0.154   4.808   5.346  0.0444 -0.8132  0.0654
 4160SOL    HW316407   0.250   4.768   5.456  0.4920  1.7511  0.6717
 4160SOL    MW416408   0.235   4.805   5.378  0.1289  0.2489 -0.0093
 4161SOL     OW16409   1.928   6.349   0.941 -0.5228  0.3903 -0.0137
 4161SOL    HW216410   1.884   6.348   0.856  0.8017  0.6279 -0.7287
 4161SOL    HW316411   1.911   6.262   0.978  1.7565 -1.0612 -2.0941
 4161SOL    MW416412   1.920   6.337   0.935 -0.0473  0.2302 -0.3825
 4162SOL     OW16413   0.455   5.736   1.887  0.7312 -0.0854 -1.0235
 4162SOL    HW216414   0.394   5.679   1.933 -0.0126  2.2279  1.0981
 4162SOL    HW316415   0.406   5.768   1.811  0.5404 -0.8888 -1.2401
 4162SOL    MW416416   0.441   5.733   1.883  0.6079  0.1138 -0.7721
 4163SOL     OW16417   0.995   2.562   2.608 -0.6280 -0.0832 -0.5328
 4163SOL    HW216418   0.926   2.541   2.545  0.3074  0.5018 -1.7886
 4163SOL    HW316419   0.995   2.487   2.668 -0.8206 -1.2024 -1.8678
 4163SOL    MW416420   0.986   2.549   2.608 -0.5300 -0.1537 -0.8747
 4164SOL     OW16421   1.673   2.081   2.025  0.4197  0.0764  0.2361
 4164SOL    HW216422   1.719   2.162   2.005  1.5459 -0.4834  0.4748
 4164SOL    HW316423   1.709   2.053   2.109 -0.2658 -0.4572  0.3659
 4164SOL    MW416424   1.684   2.088   2.034  0.4779 -0.0679  0.2847
 4165SOL     OW16425   5.146   4.251   1.029 -0.4628 -0.3569  0.2518
 4165SOL    HW216426   5.102   4.176   0.988  0.3043 -0.1274 -1.0692
 4165SOL    HW316427   5.235   4.220   1.047 -0.8896 -0.5616  2.1313
 4165SOL    MW416428   5.152   4.237   1.026 -0.4179 -0.3536  0.3255
 4166SOL     OW16429   6.406   0.053   3.124 -0.2357 -0.1783  0.1807
 4166SOL    HW216430   6.432  -0.038   3.142 -0.8957 -0.3689  0.1895
 4166SOL    HW316431   6.489   0.101   3.123  0.1959 -0.8958 -0.5191
 4166SOL    MW416432   6.420   0.047   3.126 -0.2658 -0.2981  0.0895
 4167SOL     OW16433   6.008   1.116   0.089 -0.7008  0.0205  0.2634
 4167SOL    HW216434   6.076   1.065   0.045  0.3998  0.7765  1.0513
 4167SOL    HW316435   6.013   1.088   0.181  0.9069  2.4926  1.0163
 4167SOL    MW416436   6.018   1.106   0.096 -0.3435  0.4464  0.4667
 4168SOL     OW16437   4.298   5.694   4.704  0.0123 -0.1934  0.3238
 4168SOL    HW216438   4.379   5.743   4.716  1.0699 -2.2293  2.1048
 4168SOL    HW316439   4.233   5.742   4.754  0.6532  0.2349  0.7560
 4168SOL    MW416440   4.300   5.707   4.712  0.2364 -0.4055  0.6158
 4169SOL     OW16441   3.885   3.258   1.249 -0.2608  0.3878  0.4875
 4169SOL    HW216442   3.931   3.288   1.327  2.5852 -0.1566 -0.8730
 4169SOL    HW316443   3.811   3.319   1.240  0.7802  1.9960  2.1878
 4169SOL    MW416444   3.881   3.270   1.258  0.2520  0.5281  0.5323
 4170SOL     OW16445   4.426   3.478   4.564 -0.4117  0.0348 -0.4335
 4170SOL    HW216446   4.423   3.426   4.644  0.3138  0.1427 -0.3347
 4170SOL    HW316447   4.491   3.546   4.582  1.3680 -1.2005 -1.8602
 4170SOL    MW416448   4.434   3.480   4.577 -0.0812 -0.1139 -0.6087
 4171SOL     OW16449   1.827   3.406   3.514 -0.6903  0.3169  0.0661
 4171SOL    HW216450   1.860   3.437   3.598  0.7271  0.5394 -0.5402
 4171SOL    HW316451   1.763   3.472   3.487 -1.8621 -0.2299  1.3727
 4171SOL    MW416452   1.823   3.419   3.521 -0.6579  0.2741  0.1585
 4172SOL     OW16453   1.768   4.208   3.608 -0.3183 -0.0527 -0.0245
 4172SOL    HW216454   1.763   4.183   3.515 -0.3353 -0.2617  0.0306
 4172SOL    HW316455   1.729   4.295   3.612 -0.6022 -0.1726 -0.1666
 4172SOL    MW416456   1.762   4.216   3.596 -0.3580 -0.0961 -0.0360
 4173SOL     OW16457   1.115   4.402   0.024  0.3549  0.2180  0.3734
 4173SOL    HW216458   1.182   4.451   0.070  0.4167  1.6024 -1.0835
 4173SOL    HW316459   1.158   4.371  -0.056 -0.7359  1.2155 -0.6321
 4173SOL    MW416460   1.129   4.404   0.019  0.2192  0.5322  0.0485
 4174SOL     OW16461   0.820   1.084   2.788 -0.4421 -0.2125 -0.1263
 4174SOL    HW216462   0.873   1.109   2.864 -0.4469  1.5106 -0.6406
 4174SOL    HW316463   0.732   1.072   2.823 -0.0115 -1.7010  0.4985
 4174SOL    MW416464   0.815   1.086   2.803 -0.3859 -0.1815 -0.1117
 4175SOL     OW16465   1.720   1.080   1.989  0.5442 -0.3249 -0.4127
 4175SOL    HW216466   1.746   1.144   1.923  0.0508 -1.7102 -2.0182
 4175SOL    HW316467   1.781   1.007   1.977 -0.8169 -1.4453 -0.7466
 4175SOL    MW416468   1.731   1.079   1.979  0.2995 -0.6555 -0.6686
 4176SOL     OW16469   6.009   3.983   5.950  0.2558  0.5494  0.2090
 4176SOL    HW216470   5.972   3.939   6.026  0.5713 -0.1391 -0.0281
 4176SOL    HW316471   6.103   3.978   5.962  0.3038  0.6490 -0.1056
 4176SOL    MW416472   6.016   3.977   5.961  0.3037  0.4717  0.1362
 4177SOL     OW16473   2.039   3.998   1.327  0.3656  0.0042  0.7085
 4177SOL    HW216474   2.062   3.933   1.393 -0.0291 -1.0914 -0.2106
 4177SOL    HW316475   2.080   3.967   1.246  0.0775  0.8286  0.2314
 4177SOL    MW416476   2.047   3.985   1.325  0.2755 -0.0316  0.5243
 4178SOL     OW16477   1.747   5.122   3.205 -0.1722 -0.2474  0.2133
 4178SOL    HW216478   1.765   5.130   3.298 -2.2344 -1.5223  0.7911
 4178SOL    HW316479   1.800   5.047   3.176 -0.2255 -0.4176  0.5607
 4178SOL    MW416480   1.757   5.113   3.213 -0.4513 -0.4381  0.3354
 4179SOL     OW16481   2.297   4.329   0.383 -1.0947 -0.1652 -0.8208
 4179SOL    HW216482   2.323   4.388   0.454 -1.6150 -1.7297  0.7661
 4179SOL    HW316483   2.203   4.317   0.395 -1.1104 -0.7853 -1.4946
 4179SOL    MW416484   2.288   4.335   0.394 -1.1654 -0.4534 -0.7003
 4180SOL     OW16485  -0.002   5.911   2.966 -0.2564  0.2773  0.1700
 4180SOL    HW216486  -0.005   5.815   2.962  0.8797  0.2505 -0.6238
 4180SOL    HW316487   0.057   5.936   2.894  0.8799  1.4823  1.4552
 4180SOL    MW416488   0.005   5.902   2.956  0.0434  0.4328  0.2349
 4181SOL     OW16489   2.006   5.844   6.296  0.4097  0.0294  0.3444
 4181SOL    HW216490   2.101   5.845   6.288  0.4728  1.2013  0.9905
 4181SOL    HW316491   1.989   5.883   6.381 -0.6744  0.3433 -0.0019
 4181SOL    MW416492   2.016   5.849   6.306  0.2750  0.2254  0.3840
 4182SOL     OW16493   5.158   5.031   0.908 -0.2413 -0.1652  0.1818
 4182SOL    HW216494   5.201   4.945   0.913  0.8455  0.3732  0.4345
 4182SOL    HW316495   5.186   5.076   0.987 -2.0129 -0.1051  0.7944
 4182SOL    MW416496   5.168   5.026   0.919 -0.3317 -0.0862  0.2960
 4183SOL     OW16497   5.235   1.860   5.513  0.2094 -0.2270  0.6425
 4183SOL    HW216498   5.178   1.934   5.535  0.0577 -0.4445  0.9906
 4183SOL    HW316499   5.320   1.883   5.552  0.3202  0.0269  0.2553
 4183SOL    MW416500   5.239   1.873   5.521  0.2040 -0.2222  0.6374
 4184SOL     OW16501   5.621   1.754   3.759 -0.2262  0.3468 -0.3463
 4184SOL    HW216502   5.537   1.709   3.750 -0.2968  0.3631  0.1707
 4184SOL    HW316503   5.613   1.804   3.841 -0.2647  1.5472 -1.0564
 4184SOL    MW416504   5.609   1.755   3.769 -0.2406  0.5073 -0.3718
 4185SOL     OW16505   3.696   6.081   2.604 -0.4023  0.7688 -0.7156
 4185SOL    HW216506   3.775   6.132   2.587 -1.4823  2.2056 -1.6834
 4185SOL    HW316507   3.670   6.106   2.693 -0.0903  0.7619 -0.6230
 4185SOL    MW416508   3.703   6.091   2.614 -0.5036  0.9575 -0.8311
 4186SOL     OW16509   5.502   5.663   2.607  0.6127 -0.0658  0.9720
 4186SOL    HW216510   5.482   5.603   2.535  2.0154  0.0262  0.4859
 4186SOL    HW316511   5.582   5.708   2.580 -0.7643  2.6164  0.9767
 4186SOL    MW416512   5.510   5.661   2.594  0.6161  0.3002  0.9085
 4187SOL     OW16513   5.280   3.531   2.056 -0.2553 -0.4376 -0.1288
 4187SOL    HW216514   5.203   3.588   2.052 -1.0421 -1.4161  0.5686
 4187SOL    HW316515   5.271   3.473   1.981 -0.9512 -1.4447  0.7013
 4187SOL    MW416516   5.268   3.531   2.046 -0.4509 -0.6996  0.0727
 4188SOL     OW16517   6.413   4.725   1.029  0.0822  0.7932  0.0667
 4188SOL    HW216518   6.322   4.703   1.047  0.1093  1.6804  1.4171
 4188SOL    HW316519   6.422   4.716   0.934 -1.4851  1.0209 -0.1262
 4188SOL    MW416520   6.402   4.721   1.019 -0.1210  0.9403  0.2194
 4189SOL     OW16521   0.302   3.761   0.319  0.3883 -0.7078 -0.1813
 4189SOL    HW216522   0.343   3.767   0.233 -0.0601 -2.1658 -0.5275
 4189SOL    HW316523   0.250   3.840   0.326  3.2158  1.2549  0.2937
 4189SOL    MW416524   0.301   3.772   0.308  0.7022 -0.6412 -0.1643
 4190SOL     OW16525   5.777   0.355   2.503  0.1704 -0.3032  0.1959
 4190SOL    HW216526   5.691   0.389   2.480  0.0082 -0.3855  0.6564
 4190SOL    HW316527   5.772   0.261   2.485  0.1860 -0.2981  0.1642
 4190SOL    MW416528   5.765   0.347   2.498  0.1510 -0.3134  0.2525
 4191SOL     OW16529   5.554   1.172   1.757 -0.3144 -0.7475  0.0468
 4191SOL    HW216530   5.608   1.127   1.822 -0.8704  0.1855  1.1985
 4191SOL    HW316531   5.464   1.152   1.782 -0.5453 -1.1705 -1.0403
 4191SOL    MW416532   5.549   1.163   1.769 -0.4182 -0.6802  0.0554
 4192SOL     OW16533   4.917   3.652   2.955  0.6294 -0.1195 -0.5225
 4192SOL    HW216534   4.911   3.648   2.859 -1.5065  1.5472 -0.5152
 4192SOL    HW316535   5.010   3.638   2.973  1.3114  0.7717 -2.9401
 4192SOL    MW416536   4.929   3.650   2.944  0.4376  0.2180 -0.8405
 4193SOL     OW16537   5.657   0.260   2.025  0.5610 -0.0190 -0.3076
 4193SOL    HW216538   5.599   0.291   1.956 -1.0774 -0.4044  0.8544
 4193SOL    HW316539   5.649   0.325   2.095  3.3240  1.1699 -0.9606
 4193SOL    MW416540   5.649   0.272   2.026  0.7094  0.0870 -0.2405
 4194SOL     OW16541   3.653   4.078   5.618 -0.0603  0.1858  0.1381
 4194SOL    HW216542   3.656   4.173   5.613  0.3579  0.1761  0.2312
 4194SOL    HW316543   3.586   4.059   5.684 -0.4015  0.4080 -0.1430
 4194SOL    MW416544   3.644   4.088   5.626 -0.0501  0.2138  0.1133
 4195SOL     OW16545   0.975   2.341   1.785  0.2230  1.0719  0.1720
 4195SOL    HW216546   1.001   2.314   1.873  1.0016  0.3161 -0.2706
 4195SOL    HW316547   0.919   2.269   1.754  0.3306  1.1134 -0.1199
 4195SOL    MW416548   0.971   2.328   1.793  0.3399  0.9777  0.0751
 4196SOL     OW16549   1.754   1.368   2.795  0.1653  0.5970  0.4049
 4196SOL    HW216550   1.663   1.348   2.817  0.4940  0.5431  1.8372
 4196SOL    HW316551   1.793   1.283   2.774 -0.0463  0.5879  0.0405
 4196SOL    MW416552   1.747   1.354   2.795  0.1808  0.5887  0.5458
 4197SOL     OW16553   2.529   6.049   3.668 -0.1634  0.2239 -0.2085
 4197SOL    HW216554   2.487   5.987   3.728  1.6119  0.0540  0.9265
 4197SOL    HW316555   2.470   6.125   3.668 -2.6725 -1.5500 -2.0720
 4197SOL    MW416556   2.515   6.051   3.676 -0.2603 -0.0326 -0.3046
 4198SOL     OW16557   5.391   1.326   1.071 -0.2712  0.1545  0.3437
 4198SOL    HW216558   5.324   1.264   1.101 -0.0148  0.2518  1.1346
 4198SOL    HW316559   5.367   1.409   1.112 -0.2051  0.4181 -0.1395
 4198SOL    MW416560   5.379   1.329   1.080 -0.2286  0.2021  0.3843
 4199SOL     OW16561   3.066   4.228   1.117  0.4573 -0.1470 -0.1412
 4199SOL    HW216562   3.008   4.304   1.114  0.4818 -0.1367 -0.3756
 4199SOL    HW316563   3.085   4.209   1.025  0.6895 -0.2536 -0.0716
 4199SOL    MW416564   3.061   4.236   1.105  0.4911 -0.1597 -0.1629
 4200SOL     OW16565   5.556   6.022   4.909  0.1402 -0.0995 -0.0249
 4200SOL    HW216566   5.633   5.982   4.948  1.3805  3.0029  1.0204
 4200SOL    HW316567   5.547   5.979   4.824  2.3178 -1.3656  0.3125
 4200SOL    MW416568   5.565   6.011   4.903  0.5912  0.1428  0.1576
 4201SOL     OW16569   3.925   5.719   4.899  0.1354 -0.0551 -0.6029
 4201SOL    HW216570   3.917   5.690   4.808  3.6588  1.0651 -1.4395
 4201SOL    HW316571   4.015   5.752   4.905 -0.0180  0.0435  3.2800
 4201SOL    MW416572   3.936   5.720   4.887  0.5800  0.1057 -0.2010
 4202SOL     OW16573   6.191   2.784   3.972  0.3116 -0.0762 -0.0492
 4202SOL    HW216574   6.149   2.849   3.916 -0.2974 -0.5295 -0.1271
 4202SOL    HW316575   6.253   2.738   3.915 -0.1648 -0.4051 -0.3059
 4202SOL    MW416576   6.194   2.787   3.957  0.1684 -0.1794 -0.0933
 4203SOL     OW16577   2.065   2.939   5.387 -0.1038  0.0343 -0.2923
 4203SOL    HW216578   2.097   2.986   5.310 -1.5016  1.0085 -0.3155
 4203SOL    HW316579   2.114   2.857   5.388  0.4321  0.3176 -1.8158
 4203SOL    MW416580   2.075   2.934   5.377 -0.2175  0.2002 -0.4964
 4204SOL     OW16581   0.702   4.116   0.004 -0.1799 -0.0836  0.1545
 4204SOL    HW216582   0.716   4.206  -0.025 -0.3580  0.3296  1.3166
 4204SOL    HW316583   0.734   4.114   0.094 -0.5127 -1.0918  0.2693
 4204SOL    MW416584   0.708   4.128   0.012 -0.2473 -0.1621  0.3230
 4205SOL     OW16585   1.516   5.824   4.642 -0.2861  0.0521  0.6210
 4205SOL    HW216586   1.465   5.835   4.722  0.5784 -1.4063  1.3991
 4205SOL    HW316587   1.470   5.757   4.592  0.4194 -0.6893  0.9561
 4205SOL    MW416588   1.503   5.817   4.646 -0.0790 -0.2381  0.7679
 4206SOL     OW16589   1.366   3.148   0.400 -0.0653  0.3873  0.1388
 4206SOL    HW216590   1.365   3.157   0.496 -0.4610  0.5026  0.1257
 4206SOL    HW316591   1.273   3.145   0.375  0.0355  0.4313 -0.2476
 4206SOL    MW416592   1.353   3.149   0.410 -0.1042  0.4083  0.0861
 4207SOL     OW16593   1.540   1.166   3.501 -0.5421 -0.2556 -0.0938
 4207SOL    HW216594   1.487   1.093   3.532 -0.3441  0.2103  1.4173
 4207SOL    HW316595   1.592   1.130   3.429 -0.1648 -1.6983  0.8656
 4207SOL    MW416596   1.540   1.152   3.495 -0.4662 -0.3845  0.2321
 4208SOL     OW16597   3.069   5.982   6.230  0.4765  0.4071  0.3579
 4208SOL    HW216598   2.983   5.946   6.249  0.4320  0.6442  0.6084
 4208SOL    HW316599   3.129   5.933   6.287  0.2944  1.3869  1.4200
 4208SOL    MW416600   3.066   5.970   6.240  0.4466  0.5676  0.5311
 4209SOL     OW16601   5.995   4.499   2.460  0.3508 -0.0819 -0.3994
 4209SOL    HW216602   5.917   4.550   2.483  0.6413  0.5896 -0.8582
 4209SOL    HW316603   6.053   4.510   2.535 -0.0321 -0.6836 -0.0023
 4209SOL    MW416604   5.992   4.508   2.473  0.3386 -0.0727 -0.4075
 4210SOL     OW16605   1.055   1.897   3.228 -0.1772  0.1141 -0.4747
 4210SOL    HW216606   0.977   1.853   3.193 -0.7355  0.6370  0.0864
 4210SOL    HW316607   1.091   1.835   3.292  0.9327 -0.9123 -2.0146
 4210SOL    MW416608   1.049   1.883   3.232 -0.1044  0.0477 -0.6039
 4211SOL     OW16609   4.759   6.375   5.422 -0.3477 -0.0143 -0.2438
 4211SOL    HW216610   4.673   6.389   5.384 -0.8569 -0.1442  0.8337
 4211SOL    HW316611   4.750   6.401   5.514  0.8336  0.2471 -0.1774
 4211SOL    MW416612   4.747   6.380   5.429 -0.2590  0.0030 -0.0929
 4212SOL     OW16613   1.273   3.210   5.787  0.3215  0.6335 -0.3726
 4212SOL    HW216614   1.207   3.149   5.754 -1.2061  1.6074  0.7104
 4212SOL    HW316615   1.352   3.157   5.797 -0.6758 -0.9324 -0.4093
 4212SOL    MW416616   1.275   3.195   5.784 -0.0116  0.5554 -0.2346
 4213SOL     OW16617   6.179   0.860   2.389  0.0435 -0.3366 -0.0404
 4213SOL    HW216618   6.121   0.930   2.419  1.2480  1.3101 -1.3319
 4213SOL    HW316619   6.119   0.792   2.357 -1.3095  1.6739 -2.2090
 4213SOL    MW416620   6.163   0.861   2.389  0.0239  0.1459 -0.4969
 4214SOL     OW16621   0.917   2.596   5.817  0.1218  0.0822  0.9375
 4214SOL    HW216622   0.899   2.514   5.863  0.6381  0.2481  1.4441
 4214SOL    HW316623   0.897   2.664   5.880 -0.2292  0.3508  0.5421
 4214SOL    MW416624   0.912   2.594   5.831  0.1436  0.1395  0.9522
 4215SOL     OW16625   5.991   1.451   2.086 -0.4281 -0.0286 -0.9676
 4215SOL    HW216626   5.941   1.503   2.023  0.5307 -0.7605 -2.3775
 4215SOL    HW316627   6.040   1.516   2.136 -1.6936  0.6061 -0.5187
 4215SOL    MW416628   5.991   1.466   2.084 -0.4686 -0.0414 -1.0944
 4216SOL     OW16629   5.057   3.760   5.827 -0.4166  0.3105 -0.2697
 4216SOL    HW216630   5.123   3.717   5.773  0.9239  0.5981  1.0628
 4216SOL    HW316631   4.987   3.695   5.837 -0.1307 -0.1745 -1.2960
 4216SOL    MW416632   5.056   3.746   5.821 -0.2020  0.2845 -0.2293
 4217SOL     OW16633   5.751   4.270   1.138  0.2665  0.2291  0.2213
 4217SOL    HW216634   5.817   4.315   1.086  0.6022 -0.9108 -0.3875
 4217SOL    HW316635   5.769   4.177   1.123 -1.1761 -0.1015  0.4296
 4217SOL    MW416636   5.762   4.264   1.129  0.1205  0.0351  0.1684
 4218SOL     OW16637   6.250   1.033   1.954  0.5189  0.1724 -0.0094
 4218SOL    HW216638   6.288   0.968   1.895  0.8847  0.8764 -0.5738
 4218SOL    HW316639   6.305   1.031   2.032 -1.5908 -2.7621  1.5892
 4218SOL    MW416640   6.262   1.024   1.956  0.2888 -0.1219  0.1271
 4219SOL     OW16641   1.592   4.828   0.414  0.1275 -0.4374 -0.0246
 4219SOL    HW216642   1.674   4.871   0.388  0.1982 -0.7524 -0.3316
 4219SOL    HW316643   1.559   4.881   0.487  0.6680 -0.3811  0.1821
 4219SOL    MW416644   1.598   4.841   0.420  0.2082 -0.4716 -0.0378
 4220SOL     OW16645   2.279   0.281   4.371 -0.1986 -0.1747  0.7874
 4220SOL    HW216646   2.241   0.198   4.344  0.2139 -1.1345  2.9458
 4220SOL    HW316647   2.370   0.261   4.391 -0.2833  0.6007  2.0677
 4220SOL    MW416648   2.286   0.268   4.370 -0.1554 -0.1990  1.2411
 4221SOL     OW16649   3.217   2.553   3.532  0.1394  0.0407 -0.2559
 4221SOL    HW216650   3.251   2.573   3.619 -0.6000 -0.6998  0.2199
 4221SOL    HW316651   3.122   2.560   3.541  0.0847  1.4743 -1.4038
 4221SOL    MW416652   3.209   2.557   3.545  0.0346  0.1321 -0.3446
 4222SOL     OW16653   2.624   0.382   4.378  0.8424 -0.2726 -0.9884
 4222SOL    HW216654   2.676   0.376   4.298 -0.6218  0.8415 -2.0873
 4222SOL    HW316655   2.608   0.476   4.389 -1.8840 -0.6131 -1.4050
 4222SOL    MW416656   2.629   0.394   4.369  0.2895 -0.1705 -1.1883
 4223SOL     OW16657   1.347   1.220   2.575 -0.6267  0.2165  0.3289
 4223SOL    HW216658   1.257   1.195   2.553 -0.4966  0.6202 -0.7253
 4223SOL    HW316659   1.364   1.176   2.658 -0.9438 -1.9054 -0.6697
 4223SOL    MW416660   1.337   1.211   2.583 -0.6513 -0.0102  0.0581
 4224SOL     OW16661   4.497   0.953   2.750  0.3939 -0.0880 -0.0103
 4224SOL    HW216662   4.552   1.031   2.762 -0.3706  0.7649 -1.7007
 4224SOL    HW316663   4.465   0.960   2.660 -1.0151 -1.5122  0.3357
 4224SOL    MW416664   4.500   0.965   2.740  0.1071 -0.1634 -0.1876
 4225SOL     OW16665   5.629   4.372   5.132 -0.0098  0.0271  0.5655
 4225SOL    HW216666   5.610   4.284   5.166 -1.4666 -0.3890 -1.1851
 4225SOL    HW316667   5.585   4.431   5.193 -1.7723 -0.6399 -0.0232
 4225SOL    MW416668   5.621   4.368   5.145 -0.4345 -0.1158  0.2568
 4226SOL     OW16669   2.987   2.154   0.629  0.1095  0.4064 -0.0132
 4226SOL    HW216670   3.050   2.173   0.699 -1.0015 -0.2869  1.2178
 4226SOL    HW316671   3.028   2.085   0.578  1.1612  1.2738 -0.3641
 4226SOL    MW416672   3.001   2.148   0.632  0.1017  0.4294  0.1029
 4227SOL     OW16673   3.292   2.837   4.635  0.8462  0.5237 -0.2405
 4227SOL    HW216674   3.281   2.763   4.575  0.1574  1.5793 -1.4762
 4227SOL    HW316675   3.211   2.839   4.686 -0.1153  1.7112 -1.7389
 4227SOL    MW416676   3.279   2.827   4.634  0.6285  0.8197 -0.6012
 4228SOL     OW16677   2.692   3.443   1.783 -0.1391  0.2793  0.0026
 4228SOL    HW216678   2.704   3.451   1.878  1.4789  0.0866 -0.1685
 4228SOL    HW316679   2.715   3.352   1.764 -1.8424 -0.1078 -0.4139
 4228SOL    MW416680   2.696   3.432   1.793 -0.1504  0.2028 -0.0749
 4229SOL     OW16681   2.546   3.427   2.901 -0.2055  0.5290 -0.6193
 4229SOL    HW216682   2.607   3.360   2.868  0.5577 -0.1250  1.9308
 4229SOL    HW316683   2.589   3.510   2.881  0.3252  0.1579 -1.0563
 4229SOL    MW416684   2.560   3.429   2.894 -0.0348  0.3938 -0.3405
 4230SOL     OW16685   4.800   6.294   3.189 -0.2243 -0.4847 -0.7358
 4230SOL    HW216686   4.791   6.201   3.167  1.4733 -0.5776 -1.2168
 4230SOL    HW316687   4.751   6.340   3.121  0.4827 -0.9848 -1.6122
 4230SOL    MW416688   4.793   6.288   3.177  0.0929 -0.5629 -0.9149
 4231SOL     OW16689   1.918   0.697   1.004  0.5433  0.1639 -0.3370
 4231SOL    HW216690   1.873   0.768   0.958  0.1171 -1.5057 -2.6622
 4231SOL    HW316691   1.996   0.681   0.951  0.0751 -1.7897 -0.5092
 4231SOL    MW416692   1.922   0.705   0.991  0.4253 -0.3141 -0.6665
 4232SOL     OW16693   0.309   1.060   1.073  0.1102 -0.7888 -0.0811
 4232SOL    HW216694   0.275   1.150   1.067 -0.2660 -0.5644  3.4330
 4232SOL    HW316695   0.239   1.005   1.039 -1.1123  0.0915  0.9292
 4232SOL    MW416696   0.296   1.065   1.068 -0.1007 -0.6431  0.5158
 4233SOL     OW16697   3.053   1.199   5.133 -0.2450 -0.3751  0.0868
 4233SOL    HW216698   3.146   1.178   5.123  0.0290  1.1042 -1.0327
 4233SOL    HW316699   3.009   1.144   5.069 -0.0638 -0.6710  0.2176
 4233SOL    MW416700   3.060   1.189   5.123 -0.1849 -0.2189 -0.0436
 4234SOL     OW16701   1.385   3.255   2.549  0.1387 -0.1012  0.0457
 4234SOL    HW216702   1.308   3.261   2.492  1.5596  1.0571 -1.9184
 4234SOL    HW316703   1.404   3.346   2.573 -0.1120 -0.5284  1.9926
 4234SOL    MW416704   1.378   3.268   2.544  0.2931 -0.0047  0.0434
 4235SOL     OW16705   3.239   0.135   3.771 -0.1021  0.1079 -0.4380
 4235SOL    HW216706   3.217   0.163   3.682 -1.2002  0.6317 -0.0157
 4235SOL    HW316707   3.165   0.164   3.824  1.1147  0.9508  0.8666
 4235SOL    MW416708   3.226   0.143   3.766 -0.0864  0.2882 -0.2102
 4236SOL     OW16709   5.001   4.557   1.430  0.0569 -0.2539 -0.2240
 4236SOL    HW216710   4.994   4.490   1.498 -1.2707  0.6234  0.5559
 4236SOL    HW316711   5.001   4.508   1.348 -1.5807 -1.2044  0.2893
 4236SOL    MW416712   5.000   4.542   1.428 -0.3343 -0.2635 -0.0534
 4237SOL     OW16713   5.735   5.935   1.470 -0.5611  0.2090  0.1145
 4237SOL    HW216714   5.679   6.001   1.429  0.0626 -0.9001 -2.7798
 4237SOL    HW316715   5.700   5.851   1.439  0.8609 -0.6311  0.6663
 4237SOL    MW416716   5.723   5.933   1.460 -0.2912 -0.0482 -0.1946
 4238SOL     OW16717   0.637   5.266   1.500 -0.3665 -0.1821 -0.0302
 4238SOL    HW216718   0.687   5.348   1.500 -1.6736  0.6442  0.0659
 4238SOL    HW316719   0.693   5.204   1.453  1.0111  0.5286  0.6084
 4238SOL    MW416720   0.651   5.269   1.494 -0.3572  0.0207  0.0667
 4239SOL     OW16721   5.842   0.396   0.172  0.4507 -0.0248  0.5587
 4239SOL    HW216722   5.789   0.390   0.092 -1.6587  0.5364  1.8334
 4239SOL    HW316723   5.923   0.437   0.144 -0.4200  0.6017 -1.2204
 4239SOL    MW416724   5.846   0.401   0.158  0.0575  0.1319  0.4921
 4240SOL     OW16725   1.445   0.671   5.918  0.2341  0.1153  0.1446
 4240SOL    HW216726   1.391   0.610   5.869  2.1172 -0.8172 -0.8578
 4240SOL    HW316727   1.486   0.618   5.986 -0.1821  0.8532  1.0121
 4240SOL    MW416728   1.443   0.656   5.921  0.4276  0.0896  0.1268
 4241SOL     OW16729   0.907   0.094   3.394 -0.0038 -0.2009 -0.1778
 4241SOL    HW216730   1.000   0.091   3.418  0.0676 -0.6633 -0.4905
 4241SOL    HW316731   0.892   0.186   3.370 -0.0785  0.2727  1.5675
 4241SOL    MW416732   0.917   0.106   3.394 -0.0043 -0.1994  0.0112
 4242SOL     OW16733   5.976   4.330   0.897  0.7583 -0.6668 -0.0390
 4242SOL    HW216734   6.013   4.280   0.970  0.6051 -0.9041 -0.1213
 4242SOL    HW316735   6.051   4.356   0.845  0.7076 -2.9289 -1.3630
 4242SOL    MW416736   5.991   4.327   0.900  0.7314 -0.9966 -0.2245
 4243SOL     OW16737   5.382   4.413   0.787  0.1240  0.5982  0.2531
 4243SOL    HW216738   5.417   4.437   0.873  0.5496 -3.6059  1.4610
 4243SOL    HW316739   5.292   4.387   0.805  0.1222 -0.0051 -0.6039
 4243SOL    MW416740   5.375   4.413   0.801  0.1799 -0.0361  0.2994
 4244SOL     OW16741   5.242   0.549   2.871  0.3805 -0.3832  0.3266
 4244SOL    HW216742   5.183   0.482   2.905 -1.3514  0.4873 -0.8333
 4244SOL    HW316743   5.301   0.501   2.811 -1.1507 -0.8428 -0.8772
 4244SOL    MW416744   5.242   0.534   2.867 -0.0500 -0.3289  0.0148
 4245SOL     OW16745   0.959   3.143   3.054  0.1332 -0.1830 -0.0145
 4245SOL    HW216746   0.973   3.051   3.028  0.4331 -0.7263  1.9104
 4245SOL    HW316747   0.929   3.186   2.974  0.3947 -1.8651 -1.0743
 4245SOL    MW416748   0.957   3.136   3.040  0.2073 -0.4766  0.0996
 4246SOL     OW16749   4.275   0.459   5.434  0.1220 -0.8142  0.3297
 4246SOL    HW216750   4.194   0.509   5.437  0.1423 -0.7623  0.0523
 4246SOL    HW316751   4.324   0.497   5.361  1.1001  0.2298  1.4788
 4246SOL    MW416752   4.271   0.471   5.425  0.2537 -0.6696  0.4447
 4247SOL     OW16753   6.078   0.509   2.740  0.2980  0.4887  0.1605
 4247SOL    HW216754   6.035   0.556   2.669  1.1602  0.7453 -0.2087
 4247SOL    HW316755   6.024   0.527   2.818 -0.6393  0.2239 -0.4147
 4247SOL    MW416756   6.065   0.517   2.741  0.2881  0.4876  0.0359
 4248SOL     OW16757   0.619   0.841   0.705  0.4523 -0.4011 -0.2223
 4248SOL    HW216758   0.605   0.917   0.761  0.8449  0.0485 -0.7222
 4248SOL    HW316759   0.693   0.795   0.743  0.8051 -0.0220 -0.4454
 4248SOL    MW416760   0.627   0.845   0.717  0.5506 -0.2917 -0.3177
 4249SOL     OW16761   2.331   3.229   0.196 -0.1557 -0.2644 -0.0663
 4249SOL    HW216762   2.238   3.237   0.216 -0.1290  2.5784 -0.7271
 4249SOL    HW316763   2.335   3.228   0.100  0.5076 -0.1467 -0.0430
 4249SOL    MW416764   2.319   3.230   0.186 -0.0646  0.1262 -0.1504
 4250SOL     OW16765   2.994   1.495   4.080  0.4650 -0.0317  0.4975
 4250SOL    HW216766   3.021   1.580   4.045 -0.6069  0.6434  1.2509
 4250SOL    HW316767   2.960   1.514   4.167  1.1010 -1.3869  1.0631
 4250SOL    MW416768   2.993   1.508   4.087  0.4075 -0.1214  0.6716
 4251SOL     OW16769   5.724   6.169   0.497 -0.1631 -0.1474  0.0703
 4251SOL    HW216770   5.654   6.201   0.440 -0.0158  0.8623  0.4382
 4251SOL    HW316771   5.795   6.231   0.486  1.6312 -2.3899 -2.0396
 4251SOL    MW416772   5.724   6.182   0.488  0.0931 -0.3101 -0.1596
 4252SOL     OW16773   4.712   5.509   5.036 -0.3634  0.2174 -0.0786
 4252SOL    HW216774   4.735   5.453   4.962 -0.1943  0.4769 -0.2210
 4252SOL    HW316775   4.789   5.506   5.093 -0.5974 -0.2017  0.2227
 4252SOL    MW416776   4.725   5.501   5.034 -0.3719  0.1963 -0.0576
 4253SOL     OW16777   4.485   6.206   2.267  0.5343  0.2258  0.1170
 4253SOL    HW216778   4.457   6.281   2.215 -1.2166 -1.7449 -1.9873
 4253SOL    HW316779   4.578   6.196   2.246  0.3028  0.6223 -1.2125
 4253SOL    MW416780   4.494   6.214   2.257  0.2727  0.0181 -0.3360
 4254SOL     OW16781   3.813   3.454   2.191 -0.1045  0.2866 -0.1236
 4254SOL    HW216782   3.782   3.370   2.157 -0.6849  0.3259  0.2966
 4254SOL    HW316783   3.733   3.504   2.209  0.2113  0.5228  0.6364
 4254SOL    MW416784   3.798   3.450   2.189 -0.1394  0.3229  0.0321
 4255SOL     OW16785   2.885   6.231   1.603 -0.0944 -0.0999  0.3396
 4255SOL    HW216786   2.817   6.253   1.539  0.3970 -0.0418 -0.1700
 4255SOL    HW316787   2.873   6.295   1.673 -0.4622  0.0182  0.1710
 4255SOL    MW416788   2.875   6.242   1.604 -0.0781 -0.0767  0.2501
 4256SOL     OW16789   0.499   5.018   3.151 -0.6065 -0.1419 -0.4866
 4256SOL    HW216790   0.487   5.088   3.087  0.3620 -0.9236 -1.5620
 4256SOL    HW316791   0.574   4.968   3.118 -0.6014 -1.0456  0.8325
 4256SOL    MW416792   0.507   5.021   3.138 -0.4781 -0.3642 -0.4545
 4257SOL     OW16793   6.042   4.423   4.304 -0.1134 -0.1709  0.1374
 4257SOL    HW216794   5.951   4.404   4.328 -0.5449  1.3793 -0.1503
 4257SOL    HW316795   6.044   4.410   4.209 -0.4247  1.1495 -0.0690
 4257SOL    MW416796   6.030   4.419   4.294 -0.2114  0.2078  0.0722
 4258SOL     OW16797   3.936   5.696   5.509  0.1002  0.1977  0.2299
 4258SOL    HW216798   3.910   5.671   5.597 -2.1656  0.3750 -0.3350
 4258SOL    HW316799   3.927   5.791   5.506 -2.2864 -0.0015 -0.8554
 4258SOL    MW416800   3.932   5.705   5.520 -0.5136  0.1948  0.0122
 4259SOL     OW16801   5.463   3.665   1.498  0.3867 -0.1567  0.0637
 4259SOL    HW216802   5.458   3.623   1.412 -0.8154 -0.0655  0.0771
 4259SOL    HW316803   5.521   3.740   1.485 -1.6405  1.2624 -1.2925
 4259SOL    MW416804   5.470   3.669   1.485 -0.0393  0.0426 -0.1134
 4260SOL     OW16805   2.764   1.435   3.680  0.0216  0.1577  0.0038
 4260SOL    HW216806   2.744   1.398   3.766 -0.8170  0.6718  0.0455
 4260SOL    HW316807   2.706   1.389   3.620 -0.3485  0.7235 -0.0840
 4260SOL    MW416808   2.754   1.424   3.683 -0.1379  0.3002 -0.0022
 4261SOL     OW16809   4.127   1.491   3.344  0.1604  0.3864  0.0515
 4261SOL    HW216810   4.084   1.456   3.422 -0.5742 -0.2930 -0.6351
 4261SOL    HW316811   4.218   1.506   3.371  0.6474 -2.4681  0.2996
 4261SOL    MW416812   4.134   1.488   3.358  0.1277 -0.0799 -0.0063
 4262SOL     OW16813   4.352   3.984   3.613 -0.1833 -0.1971 -0.1614
 4262SOL    HW216814   4.259   3.968   3.627 -0.7378  1.5071 -1.5615
 4262SOL    HW316815   4.385   4.017   3.696 -0.8540 -0.6678  0.2955
 4262SOL    MW416816   4.344   3.986   3.626 -0.3449 -0.0344 -0.2859
 4263SOL     OW16817   4.771   2.363   5.425 -0.1182 -0.1516 -0.0262
 4263SOL    HW216818   4.750   2.284   5.376  0.0238  0.0368 -0.3913
 4263SOL    HW316819   4.703   2.426   5.401 -0.1285 -0.1045  0.1227
 4263SOL    MW416820   4.759   2.361   5.415 -0.1009 -0.1206 -0.0547
 4264SOL     OW16821   4.836   4.378   0.625 -0.0522 -0.5169  0.2517
 4264SOL    HW216822   4.795   4.295   0.601  0.6784 -1.1249  1.0662
 4264SOL    HW316823   4.805   4.440   0.559 -0.0246 -1.5965 -0.8020
 4264SOL    MW416824   4.826   4.375   0.613  0.0478 -0.7395  0.2201
 4265SOL     OW16825   3.524   5.334   5.939  0.5749 -0.0676 -0.2045
 4265SOL    HW216826   3.542   5.323   6.032  0.6534 -0.9923 -0.3142
 4265SOL    HW316827   3.440   5.290   5.926  1.2301 -1.2004 -0.8126
 4265SOL    MW416828   3.515   5.327   5.950  0.6717 -0.3391 -0.2992
 4266SOL     OW16829   0.912   6.389   5.745 -0.2487 -0.1667  0.5437
 4266SOL    HW216830   0.857   6.373   5.669 -1.7581  1.4024  1.2335
 4266SOL    HW316831   0.991   6.430   5.710 -0.7450  0.1497 -0.2292
 4266SOL    MW416832   0.915   6.392   5.730 -0.5133  0.0820  0.5327
 4267SOL     OW16833   2.823   2.888   4.012 -0.2231 -0.2912 -0.4145
 4267SOL    HW216834   2.730   2.883   4.034 -0.5199 -1.2217 -1.7020
 4267SOL    HW316835   2.852   2.972   4.047 -1.7975  0.4814 -0.8488
 4267SOL    MW416836   2.814   2.898   4.019 -0.4700 -0.3121 -0.6417
 4268SOL     OW16837   4.833   4.098   1.665 -0.0454 -0.5298 -0.1206
 4268SOL    HW216838   4.779   4.175   1.684 -0.8308 -0.4963 -2.2600
 4268SOL    HW316839   4.906   4.133   1.614 -1.3512 -1.3601 -2.6985
 4268SOL    MW416840   4.835   4.113   1.661 -0.3213 -0.6350 -0.7430
 4269SOL     OW16841   2.769   4.567   4.606  0.5303 -0.1955 -0.3308
 4269SOL    HW216842   2.786   4.659   4.625 -0.4249  0.2043 -1.2942
 4269SOL    HW316843   2.851   4.535   4.568  0.5121  0.5608 -1.0337
 4269SOL    MW416844   2.782   4.575   4.604  0.4019 -0.0430 -0.5507
 4270SOL     OW16845   5.013   0.532   1.936 -0.3562  0.7115  0.6223
 4270SOL    HW216846   5.022   0.455   1.992  0.1111  1.4262  1.5360
 4270SOL    HW316847   4.927   0.520   1.894 -0.4384 -0.1327  1.0062
 4270SOL    MW416848   5.003   0.520   1.938 -0.3054  0.6944  0.7935
 4271SOL     OW16849   4.029   0.056   2.582 -0.1875  0.0521  0.0783
 4271SOL    HW216850   4.070   0.078   2.666  0.5189 -1.7431  0.2431
 4271SOL    HW316851   4.099   0.066   2.518 -0.9887  2.4258 -0.5000
 4271SOL    MW416852   4.044   0.060   2.585 -0.2000  0.1285  0.0237
 4272SOL     OW16853   2.180   1.658   3.712  0.2248  0.4974  1.0863
 4272SOL    HW216854   2.117   1.702   3.655  1.0141  0.8611  0.4672
 4272SOL    HW316855   2.138   1.575   3.735 -0.3203  0.5675  0.3703
 4272SOL    MW416856   2.166   1.653   3.707  0.2571  0.5547  0.9101
 4273SOL     OW16857   1.203   1.332   3.116 -0.3613 -0.4953  0.4173
 4273SOL    HW216858   1.251   1.411   3.142  0.2095 -0.8783  0.5561
 4273SOL    HW316859   1.114   1.346   3.149 -0.2686  0.0834  0.4471
 4273SOL    MW416860   1.198   1.345   3.124 -0.2737 -0.4695  0.4396
 4274SOL     OW16861   2.363   6.104   5.904  0.1405 -0.2275  0.2453
 4274SOL    HW216862   2.436   6.066   5.952 -0.1289  0.0465  0.8871
 4274SOL    HW316863   2.292   6.041   5.914  0.0839 -0.1705  0.2062
 4274SOL    MW416864   2.363   6.091   5.911  0.0975 -0.1839  0.3248
 4275SOL     OW16865   4.341   4.929   1.179 -0.7693  0.3254  0.6279
 4275SOL    HW216866   4.325   4.891   1.092 -2.4795  1.0802  0.5742
 4275SOL    HW316867   4.345   4.853   1.237  1.2152 -0.2614 -0.1545
 4275SOL    MW416868   4.340   4.914   1.175 -0.7331  0.3475  0.5176
 4276SOL     OW16869   4.000   0.923   1.196 -0.0718 -0.0128  0.2595
 4276SOL    HW216870   4.066   0.857   1.174 -2.5088 -2.2015 -0.9741
 4276SOL    HW316871   3.964   0.950   1.112  0.2083  2.2798  0.8183
 4276SOL    MW416872   4.004   0.918   1.182 -0.3564  0.0009  0.1704
 4277SOL     OW16873   0.967   4.318   3.662  0.2166 -0.1216  0.0982
 4277SOL    HW216874   0.930   4.274   3.739  0.4153  1.9196  1.4695
 4277SOL    HW316875   1.054   4.347   3.691  0.5172  0.2040 -1.0866
 4277SOL    MW416876   0.974   4.316   3.676  0.2825  0.1907  0.1228
 4278SOL     OW16877   4.818   1.993   1.107  0.5415  0.5297 -0.4549
 4278SOL    HW216878   4.728   2.014   1.079 -0.0802 -0.6340  0.5412
 4278SOL    HW316879   4.872   2.014   1.031 -0.8901 -1.1752 -2.0625
 4278SOL    MW416880   4.813   1.998   1.093  0.2706  0.1512 -0.5356
 4279SOL     OW16881   5.293   6.159   5.177  0.1374 -0.2729  0.2688
 4279SOL    HW216882   5.239   6.101   5.123 -1.8867 -0.5929  2.4926
 4279SOL    HW316883   5.350   6.100   5.226  0.1947 -0.1663  0.3302
 4279SOL    MW416884   5.293   6.144   5.176 -0.1221 -0.3011  0.5703
 4280SOL     OW16885   0.752   1.936   0.642 -0.7933  0.0165  0.1606
 4280SOL    HW216886   0.699   1.939   0.721 -0.2236  2.1597  0.5302
 4280SOL    HW316887   0.831   1.986   0.664  1.5754 -3.1398 -0.2919
 4280SOL    MW416888   0.756   1.943   0.655 -0.4056 -0.1172  0.1497
 4281SOL     OW16889   4.479   3.548   2.395 -0.0155 -0.2972 -0.2453
 4281SOL    HW216890   4.450   3.471   2.443  0.6523 -0.9319 -0.8571
 4281SOL    HW316891   4.565   3.526   2.362  0.4916  0.9757  0.1582
 4281SOL    MW416892   4.486   3.535   2.397  0.1395 -0.2130 -0.2728
 4282SOL     OW16893   5.967   1.157   4.185  0.0852 -0.4157  0.3478
 4282SOL    HW216894   5.952   1.201   4.101 -0.7709  0.2285  0.8293
 4282SOL    HW316895   5.899   1.089   4.189  0.0205 -0.3333  0.6018
 4282SOL    MW416896   5.956   1.154   4.174 -0.0363 -0.3198  0.4449
 4283SOL     OW16897   2.623   1.424   2.001 -0.6796 -0.4145 -0.3169
 4283SOL    HW216898   2.607   1.512   1.966 -0.9462 -0.3421 -0.0235
 4283SOL    HW316899   2.536   1.391   2.024 -0.6253 -0.9328 -0.8344
 4283SOL    MW416900   2.609   1.431   1.999 -0.7076 -0.4733 -0.3465
 4284SOL     OW16901   4.385   6.022   5.639  0.2480 -0.3566  0.1582
 4284SOL    HW216902   4.415   6.041   5.728 -0.9941  0.6407  0.3821
 4284SOL    HW316903   4.320   5.952   5.650  0.8638 -0.9847 -0.0962
 4284SOL    MW416904   4.380   6.015   5.652  0.1654 -0.3079  0.1542
 4285SOL     OW16905   5.689   0.530   3.679 -0.2417 -0.2663  0.4136
 4285SOL    HW216906   5.759   0.586   3.646  1.2812 -0.9137  2.3215
 4285SOL    HW316907   5.676   0.464   3.612  0.6640  0.1409 -0.1761
 4285SOL    MW416908   5.697   0.529   3.666  0.0788 -0.2980  0.5875
 4286SOL     OW16909   3.605   3.037   1.339 -0.1610  0.4403 -0.0791
 4286SOL    HW216910   3.686   2.996   1.308  0.3628  0.5909  1.0375
 4286SOL    HW316911   3.582   3.099   1.270  0.4831  0.1392 -0.5765
 4286SOL    MW416912   3.613   3.040   1.326 -0.0069  0.4204  0.0026
 4287SOL     OW16913   2.752   3.281   0.692 -0.1688  0.0020 -0.2584
 4287SOL    HW216914   2.735   3.258   0.784  0.9265  0.3090  0.0361
 4287SOL    HW316915   2.730   3.201   0.644  0.8407 -0.7436  0.4584
 4287SOL    MW416916   2.747   3.267   0.698  0.1089 -0.0559 -0.1250
 4288SOL     OW16917   1.371   1.606   0.503  0.3644 -0.0503  0.1679
 4288SOL    HW216918   1.317   1.675   0.541  2.4281  1.0972  1.1941
 4288SOL    HW316919   1.345   1.527   0.551 -0.8172  0.3339  0.1907
 4288SOL    MW416920   1.360   1.604   0.515  0.4808  0.1518  0.3063
 4289SOL     OW16921   0.494   4.004   2.587 -0.7968 -0.4630 -0.7444
 4289SOL    HW216922   0.463   4.089   2.555 -0.0333 -0.0802 -0.5009
 4289SOL    HW316923   0.525   3.959   2.509 -0.8763 -0.3789 -0.8253
 4289SOL    MW416924   0.494   4.009   2.573 -0.7065 -0.4014 -0.7230
 4290SOL     OW16925   2.586   4.371   5.980 -0.1760 -0.1231 -0.5061
 4290SOL    HW216926   2.654   4.308   5.957  0.7800  0.6184  0.2199
 4290SOL    HW316927   2.632   4.454   5.990 -1.5165  0.8777 -2.1536
 4290SOL    MW416928   2.601   4.374   5.978 -0.2268  0.1068 -0.6276
 4291SOL     OW16929   3.647   3.289   3.119 -0.1854  0.9283  0.0955
 4291SOL    HW216930   3.568   3.277   3.065  0.1460  2.7181 -0.8336
 4291SOL    HW316931   3.694   3.360   3.077  2.8131 -1.1473 -0.3587
 4291SOL    MW416932   3.643   3.297   3.106  0.2539  0.8906 -0.0870
 4292SOL     OW16933   3.798   3.487   0.842  0.2575  0.0530 -0.2096
 4292SOL    HW216934   3.770   3.502   0.752  0.4275  2.5151  0.0911
 4292SOL    HW316935   3.716   3.482   0.892  0.1424 -1.8259 -0.5184
 4292SOL    MW416936   3.783   3.488   0.837  0.2647  0.1300 -0.2107
 4293SOL     OW16937   0.450   3.749   3.043  0.3850 -0.0141  0.2126
 4293SOL    HW216938   0.484   3.791   2.963  0.2915  1.8878  1.1128
 4293SOL    HW316939   0.438   3.657   3.018 -0.4683  0.6737 -2.2229
 4293SOL    MW416940   0.453   3.742   3.029  0.2601  0.3276  0.0100
 4294SOL     OW16941   1.639   1.648   0.500  0.0395 -0.2200  0.1820
 4294SOL    HW216942   1.633   1.740   0.524 -1.3299  0.4804 -2.4757
 4294SOL    HW316943   1.548   1.619   0.491  0.4345 -1.0803 -1.4675
 4294SOL    MW416944   1.626   1.656   0.502 -0.0891 -0.2411 -0.3862
 4295SOL     OW16945   0.137   1.284   3.168  0.3147 -0.0672 -0.0500
 4295SOL    HW216946   0.199   1.357   3.171 -1.0941  1.1907  2.4615
 4295SOL    HW316947   0.087   1.298   3.088 -1.4731  3.2770  1.4059
 4295SOL    MW416948   0.139   1.296   3.158 -0.1071  0.5400  0.4734
 4296SOL     OW16949   0.310   4.136   2.884  0.3062 -0.3968 -0.4271
 4296SOL    HW216950   0.281   4.056   2.840  0.0699 -1.1962  1.1318
 4296SOL    HW316951   0.235   4.162   2.938  1.3237 -0.7128  1.2167
 4296SOL    MW416952   0.296   4.129   2.885  0.4092 -0.5440 -0.0045
 4297SOL     OW16953   0.784   5.925   5.808  0.2144 -0.2844 -0.1303
 4297SOL    HW216954   0.711   5.949   5.750  0.5770 -0.3515 -0.6239
 4297SOL    HW316955   0.788   5.830   5.803  0.7763 -0.2427 -0.6661
 4297SOL    MW416956   0.775   5.916   5.800  0.3363 -0.2877 -0.2661
 4298SOL     OW16957   5.283   1.560   4.485 -0.2176 -0.3858  0.3239
 4298SOL    HW216958   5.200   1.555   4.532 -0.4130 -0.0746  0.0159
 4298SOL    HW316959   5.288   1.651   4.455  1.1997  0.1888  2.1036
 4298SOL    MW416960   5.273   1.571   4.487 -0.0564 -0.2689  0.5180
 4299SOL     OW16961   5.408   2.633   1.992  0.2102  0.4929 -0.4766
 4299SOL    HW216962   5.385   2.714   2.037 -0.3527  0.1633 -0.1498
 4299SOL    HW316963   5.454   2.661   1.913 -0.9809  1.1824 -0.9542
 4299SOL    MW416964   5.411   2.647   1.987 -0.0212  0.5404 -0.4965
 4300SOL     OW16965   2.760   0.707   6.337 -0.8166 -0.5218  0.2751
 4300SOL    HW216966   2.739   0.614   6.342 -3.4499 -0.0490 -0.4404
 4300SOL    HW316967   2.689   0.751   6.384 -0.7475  1.2423 -1.1508
 4300SOL    MW416968   2.748   0.701   6.344 -1.1549 -0.2267 -0.0074
 4301SOL     OW16969   5.529   4.766   5.863  0.2379 -0.6365 -0.3997
 4301SOL    HW216970   5.540   4.674   5.887 -1.2848 -0.6209  0.5571
 4301SOL    HW316971   5.436   4.774   5.840  0.6005  0.4292 -1.6117
 4301SOL    MW416972   5.518   4.755   5.863  0.0848 -0.4939 -0.4333
 4302SOL     OW16973   3.051   1.409   5.737  0.1237 -0.0810 -0.2854
 4302SOL    HW216974   2.999   1.487   5.718  2.1624  1.3651 -0.2393
 4302SOL    HW316975   3.060   1.408   5.832  1.9114  0.9303 -0.4036
 4302SOL    MW416976   3.045   1.419   5.747  0.6285  0.2432 -0.2949
 4303SOL     OW16977   5.197   4.803   1.981  0.1248  0.5984 -0.1096
 4303SOL    HW216978   5.279   4.827   1.939 -0.1958  0.1813 -1.0261
 4303SOL    HW316979   5.129   4.835   1.921 -0.3440 -0.3622 -0.1175
 4303SOL    MW416980   5.199   4.810   1.967  0.0206  0.4166 -0.2316
 4304SOL     OW16981   1.589   1.452   0.968  0.6134 -0.0311 -0.1531
 4304SOL    HW216982   1.637   1.499   1.036  0.6829  0.3474 -0.4643
 4304SOL    HW316983   1.588   1.361   0.998  0.4220  0.1759  0.4830
 4304SOL    MW416984   1.595   1.446   0.981  0.5973  0.0462 -0.1103
 4305SOL     OW16985   5.565   2.421   3.730 -0.4256  0.1620 -0.0669
 4305SOL    HW216986   5.503   2.392   3.663  1.0783 -0.1848 -1.3988
 4305SOL    HW316987   5.572   2.516   3.716  2.2689 -0.2307 -2.7710
 4305SOL    MW416988   5.558   2.430   3.719  0.1284  0.0644 -0.5994
 4306SOL     OW16989   0.486   2.799   5.420  0.0255 -0.3510  0.0645
 4306SOL    HW216990   0.535   2.720   5.441  0.4532 -0.8829 -2.6114
 4306SOL    HW316991   0.537   2.870   5.461  0.3621 -1.2924  1.3569
 4306SOL    MW416992   0.499   2.798   5.428  0.1263 -0.5454 -0.1180
 4307SOL     OW16993   6.083   4.814   1.780  0.1813  0.2163  0.1633
 4307SOL    HW216994   6.084   4.750   1.852 -0.6966  2.8018  2.6918
 4307SOL    HW316995   6.017   4.781   1.720 -0.7716 -0.9138  1.7283
 4307SOL    MW416996   6.074   4.801   1.782 -0.0603  0.4083  0.7034
 4308SOL     OW16997   5.112   6.295   0.703  0.6145  0.0994 -0.2648
 4308SOL    HW216998   5.079   6.212   0.668 -0.6528  0.8842 -1.0154
 4308SOL    HW316999   5.089   6.293   0.796 -0.9834  0.3172 -0.6308
 4308SOL    MW417000   5.105   6.284   0.711  0.2365  0.2317 -0.4121
 4309SOL     OW17001   0.734   4.906   1.792 -0.0490  0.0591  0.6329
 4309SOL    HW217002   0.708   4.860   1.712  0.1380  0.8478  0.1075
 4309SOL    HW317003   0.699   4.994   1.782  1.0641  0.5444  0.8233
 4309SOL    MW417004   0.726   4.911   1.780  0.1225  0.2272  0.5887
 4310SOL     OW17005   2.543   4.223   1.555  0.2304 -0.1074 -0.6754
 4310SOL    HW217006   2.496   4.168   1.618  0.7122  0.4238  0.1670
 4310SOL    HW317007   2.494   4.213   1.473  0.8208 -2.5018 -0.7944
 4310SOL    MW417008   2.530   4.214   1.553  0.3718 -0.3532 -0.5800
 4311SOL     OW17009   2.984   4.435   6.357 -0.0579  0.1010 -0.1573
 4311SOL    HW217010   2.890   4.428   6.375  0.2392 -0.8387  1.1498
 4311SOL    HW317011   3.026   4.385   6.428  1.4692  1.2459 -0.2081
 4311SOL    MW417012   2.977   4.427   6.369  0.1828  0.1281  0.0084
 4312SOL     OW17013   5.479   4.364   2.776  0.2220 -0.0815 -0.0558
 4312SOL    HW217014   5.515   4.303   2.841  0.8558  0.3686  0.0252
 4312SOL    HW317015   5.542   4.363   2.704 -2.1409 -3.2701 -2.3687
 4312SOL    MW417016   5.492   4.356   2.775 -0.0061 -0.4428 -0.3502
 4313SOL     OW17017   0.724   0.850   2.349 -0.0139  0.4705  0.4901
 4313SOL    HW217018   0.812   0.874   2.318  1.7625 -2.3530  2.8098
 4313SOL    HW317019   0.685   0.802   2.276  1.8068 -1.2008  0.5442
 4313SOL    MW417020   0.731   0.847   2.335  0.4607 -0.1225  0.8033
 4314SOL     OW17021   5.313   0.855   0.257  0.9363  0.4328  0.1579
 4314SOL    HW217022   5.242   0.855   0.192  1.4695 -2.7594 -0.5811
 4314SOL    HW317023   5.380   0.912   0.220  0.1736  0.7023 -0.8498
 4314SOL    MW417024   5.312   0.862   0.244  0.9060  0.0472 -0.0726
 4315SOL     OW17025   4.010   1.126   2.773 -0.4164 -0.3608  0.7568
 4315SOL    HW217026   4.058   1.152   2.695 -0.5921  0.3250  0.8701
 4315SOL    HW317027   4.078   1.114   2.840 -0.1493 -2.0058  0.2520
 4315SOL    MW417028   4.025   1.128   2.772 -0.4044 -0.4873  0.7051
 4316SOL     OW17029   1.909   2.374   2.848  0.0009  0.0248  0.0341
 4316SOL    HW217030   1.997   2.336   2.844  0.2777  0.6967 -0.4333
 4316SOL    HW317031   1.872   2.340   2.930  0.7671 -0.1003  0.3395
 4316SOL    MW417032   1.916   2.364   2.858  0.1385  0.0969  0.0128
 4317SOL     OW17033   5.852   5.483   6.250  0.5882 -0.6212 -0.8787
 4317SOL    HW217034   5.846   5.447   6.339 -0.6016  0.6116 -0.4345
 4317SOL    HW317035   5.800   5.423   6.196  0.3729 -0.7354 -0.5426
 4317SOL    MW417036   5.845   5.470   6.254  0.4028 -0.4736 -0.7757
 4318SOL     OW17037   5.065   2.198   4.533  0.0599 -0.0920 -0.4154
 4318SOL    HW217038   4.974   2.175   4.551 -0.0461  0.7893  0.2715
 4318SOL    HW317039   5.067   2.294   4.538  0.7195  0.0086 -1.9408
 4318SOL    MW417040   5.054   2.208   4.536  0.1329  0.0375 -0.5260
 4319SOL     OW17041   1.948   4.349   2.633  0.2272 -0.1249  0.7001
 4319SOL    HW217042   2.010   4.282   2.606 -0.2597 -0.5446  0.6098
 4319SOL    HW317043   1.961   4.358   2.727 -0.0806 -0.7430  0.8058
 4319SOL    MW417044   1.958   4.341   2.642  0.1223 -0.2618  0.7021
 4320SOL     OW17045   0.400   0.030   3.966 -0.1831 -0.1505  0.1314
 4320SOL    HW217046   0.463   0.080   4.017  1.1303 -0.1483 -1.4198
 4320SOL    HW317047   0.445   0.010   3.884 -1.6957 -1.3950 -0.4605
 4320SOL    MW417048   0.414   0.034   3.962 -0.2094 -0.3144 -0.1513
 4321SOL     OW17049   3.640   0.899   4.928 -0.2322 -0.5240  0.8720
 4321SOL    HW217050   3.696   0.958   4.878 -0.6004 -0.0523  1.0036
 4321SOL    HW317051   3.669   0.909   5.018  1.0518 -2.0755  0.6537
 4321SOL    MW417052   3.651   0.908   4.933 -0.1114 -0.6665  0.8606
 4322SOL     OW17053   0.619   0.415   5.948  0.3029  0.4082 -0.2499
 4322SOL    HW217054   0.525   0.416   5.965 -0.1324  1.2218 -2.4591
 4322SOL    HW317055   0.636   0.327   5.913  0.0393  0.7830 -1.3570
 4322SOL    MW417056   0.609   0.403   5.946  0.2107  0.5650 -0.6875
 4323SOL     OW17057   0.980   5.350   1.581 -0.4948 -0.0920  0.0111
 4323SOL    HW217058   1.015   5.333   1.668  0.8895  0.3845 -0.4229
 4323SOL    HW317059   0.914   5.418   1.594  0.1036  0.3833  0.6261
 4323SOL    MW417060   0.976   5.357   1.594 -0.2332  0.0335  0.0350
 4324SOL     OW17061   0.204   3.025   4.750  0.2039 -0.2083  0.0489
 4324SOL    HW217062   0.260   2.949   4.766 -0.1807 -0.4364  0.3297
 4324SOL    HW317063   0.183   3.058   4.837  0.4280  0.2690 -0.0721
 4324SOL    MW417064   0.209   3.019   4.764  0.1827 -0.1754  0.0700
 4325SOL     OW17065   4.776   2.718   0.780  0.4625  0.1684 -0.7000
 4325SOL    HW217066   4.841   2.753   0.841  1.6185 -0.0971 -1.7322
 4325SOL    HW317067   4.693   2.758   0.807  0.8010 -0.4379  1.4350
 4325SOL    MW417068   4.774   2.728   0.792  0.6597  0.0534 -0.5545
 4326SOL     OW17069   0.542   5.793   5.556  0.0132  0.3699 -0.4855
 4326SOL    HW217070   0.591   5.711   5.557  1.7254  1.3398 -0.8414
 4326SOL    HW317071   0.486   5.789   5.634  1.0225 -0.5667  0.2118
 4326SOL    MW417072   0.541   5.782   5.566  0.3723  0.3743 -0.4405
 4327SOL     OW17073   1.769   0.669   2.068 -0.1751  0.0908 -0.3519
 4327SOL    HW217074   1.819   0.735   2.019 -0.5432  0.8078  0.2315
 4327SOL    HW317075   1.796   0.681   2.159  0.1133 -0.8921 -0.2981
 4327SOL    MW417076   1.779   0.679   2.073 -0.1856  0.0557 -0.2678
 4328SOL     OW17077   3.706   4.067   0.515 -0.7470  0.1556  0.5773
 4328SOL    HW217078   3.717   4.160   0.536 -2.6015  0.2177  1.4081
 4328SOL    HW317079   3.651   4.066   0.438 -0.4132 -0.2653  0.3386
 4328SOL    MW417080   3.700   4.079   0.508 -0.9476  0.1083  0.6555
 4329SOL     OW17081   0.367   5.358   3.467 -0.5820  0.4847 -0.3957
 4329SOL    HW217082   0.450   5.362   3.419  0.2511 -0.1868  0.9136
 4329SOL    HW317083   0.393   5.342   3.558 -2.0730  2.2371  0.4005
 4329SOL    MW417084   0.382   5.356   3.472 -0.6688  0.6273 -0.1179
 4330SOL     OW17085   4.731   5.693   3.922 -0.4845 -0.0913 -0.2774
 4330SOL    HW217086   4.679   5.614   3.910 -0.1124 -0.2872 -0.6109
 4330SOL    HW317087   4.811   5.677   3.873 -0.4779  0.5650 -0.4884
 4330SOL    MW417088   4.735   5.681   3.914 -0.4346 -0.0305 -0.3493
 4331SOL     OW17089   2.596   0.550   4.057  0.3546  0.2222  0.2356
 4331SOL    HW217090   2.546   0.471   4.034  1.2211 -0.9216  2.0659
 4331SOL    HW317091   2.587   0.607   3.980  1.4059 -2.4835 -2.0808
 4331SOL    MW417092   2.588   0.547   4.044  0.6076 -0.2857  0.1715
 4332SOL     OW17093   2.487   4.589   2.867  0.1681 -0.7095 -0.1497
 4332SOL    HW217094   2.574   4.587   2.907 -0.3225  1.7135  1.2261
 4332SOL    HW317095   2.502   4.627   2.781  0.5845 -1.2544 -0.3279
 4332SOL    MW417096   2.501   4.593   2.861  0.1583 -0.4617  0.0083
 4333SOL     OW17097   6.302   0.316   6.379 -0.1199 -0.3077  0.4181
 4333SOL    HW217098   6.289   0.295   6.286 -0.8203  2.4300 -0.1888
 4333SOL    HW317099   6.385   0.364   6.381 -1.4062  2.0667  0.6724
 4333SOL    MW417100   6.311   0.319   6.367 -0.3820  0.3668  0.3716
 4334SOL     OW17101   6.239   4.007   1.770 -0.7903 -0.0244 -0.1082
 4334SOL    HW217102   6.334   3.993   1.774 -0.6522  0.7096 -0.5773
 4334SOL    HW317103   6.206   3.935   1.717 -0.4139  0.0264 -0.4162
 4334SOL    MW417104   6.247   3.996   1.763 -0.7224  0.0792 -0.2107
 4335SOL     OW17105   4.474   2.576   5.846 -0.0115  0.0368  0.3733
 4335SOL    HW217106   4.444   2.486   5.833  0.1443 -0.2196  1.7073
 4335SOL    HW317107   4.552   2.582   5.791  0.6307 -1.0111  1.1240
 4335SOL    MW417108   4.480   2.565   5.837  0.0938 -0.1353  0.6484
 4336SOL     OW17109   5.601   0.437   5.751 -0.2467 -0.3752  0.9561
 4336SOL    HW217110   5.602   0.443   5.655 -0.3390  2.4851  1.0422
 4336SOL    HW317111   5.694   0.436   5.776 -0.2191 -0.0303  0.8695
 4336SOL    MW417112   5.614   0.438   5.741 -0.2552  0.0477  0.9560
 4337SOL     OW17113   1.387   2.034   0.578  0.1939  0.1637 -0.3551
 4337SOL    HW217114   1.416   2.122   0.603 -0.6735  0.9244 -1.9025
 4337SOL    HW317115   1.371   1.990   0.662  3.7484  0.3172  0.5540
 4337SOL    MW417116   1.389   2.040   0.593  0.5485  0.2843 -0.4393
 4338SOL     OW17117   1.339   4.269   3.583  0.0675 -0.0062  0.0444
 4338SOL    HW217118   1.370   4.328   3.514  2.6896 -2.6468 -1.2672
 4338SOL    HW317119   1.298   4.196   3.536 -1.8410  0.0325  1.5274
 4338SOL    MW417120   1.338   4.267   3.568  0.1617 -0.3495  0.0670
 4339SOL     OW17121   0.109   3.443   0.515 -0.2223  0.0891 -0.0827
 4339SOL    HW217122   0.113   3.426   0.609  1.1432  0.4617 -0.0421
 4339SOL    HW317123   0.201   3.457   0.490 -0.6585  0.9093 -1.2986
 4339SOL    MW417124   0.122   3.442   0.524 -0.0997  0.2465 -0.2378
 4340SOL     OW17125   3.045   4.583   1.108  0.4090  0.4440 -0.2743
 4340SOL    HW217126   3.137   4.566   1.086  0.1049 -0.0637 -1.2111
 4340SOL    HW317127   3.000   4.584   1.023 -0.6152 -0.3424  0.2385
 4340SOL    MW417128   3.051   4.581   1.094  0.2338  0.2733 -0.3302
 4341SOL     OW17129   2.948   2.433   4.996  0.3370  0.0298 -0.3024
 4341SOL    HW217130   2.875   2.436   4.934  0.8329 -1.0602 -0.9635
 4341SOL    HW317131   3.018   2.389   4.949  0.1890 -2.4229  1.5481
 4341SOL    MW417132   2.948   2.428   4.982  0.3829 -0.4376 -0.1455
 4342SOL     OW17133   3.370   5.167   1.241  0.0669 -0.2417  0.5522
 4342SOL    HW217134   3.305   5.199   1.304  0.2533 -0.1473  0.7006
 4342SOL    HW317135   3.357   5.219   1.163 -1.1006 -1.3037  0.0079
 4342SOL    MW417136   3.360   5.178   1.239 -0.0626 -0.3694  0.5000
 4343SOL     OW17137   6.213   3.252   6.016 -0.5407 -0.3365 -0.6455
 4343SOL    HW217138   6.261   3.176   6.048  0.2697 -0.0065 -1.0245
 4343SOL    HW317139   6.132   3.216   5.980 -0.7146 -0.8774  0.2667
 4343SOL    MW417140   6.209   3.237   6.015 -0.4567 -0.3644 -0.5751
 4344SOL     OW17141   0.150   6.203   0.706  0.0900 -0.1351 -0.1993
 4344SOL    HW217142   0.055   6.197   0.697  0.1545 -2.2752 -0.0296
 4344SOL    HW317143   0.185   6.154   0.632  1.0733  0.7218 -0.3235
 4344SOL    MW417144   0.142   6.196   0.695  0.2282 -0.3044 -0.1933
 4345SOL     OW17145   0.002   5.086   4.159  0.2956 -0.3111 -0.1015
 4345SOL    HW217146   0.015   5.179   4.181  0.3494 -0.3466  0.0179
 4345SOL    HW317147   0.008   5.041   4.243  0.8261 -0.4826 -0.2252
 4345SOL    MW417148   0.005   5.093   4.173  0.3727 -0.3384 -0.1021
 4346SOL     OW17149   5.181   4.910   4.966  0.7938  0.2653  0.1345
 4346SOL    HW217150   5.248   4.947   5.025 -0.9464  3.3151  0.4059
 4346SOL    HW317151   5.162   4.981   4.905 -1.2317 -1.0018 -0.7885
 4346SOL    MW417152   5.187   4.924   4.966  0.2970  0.5005  0.0485
 4347SOL     OW17153   6.050   6.435   2.249  0.1696 -0.5718  0.4407
 4347SOL    HW217154   6.071   6.499   2.318  1.4653 -0.6062  0.0945
 4347SOL    HW317155   6.002   6.486   2.183  0.6934 -0.0791  0.4308
 4347SOL    MW417156   6.046   6.451   2.250  0.4097 -0.5113  0.3937
 4348SOL     OW17157   4.009   0.039   5.288 -0.2092 -0.0962  0.0775
 4348SOL    HW217158   4.042  -0.006   5.210 -0.3510  2.4729 -1.5934
 4348SOL    HW317159   4.084   0.090   5.320 -0.2232 -0.9247  1.5237
 4348SOL    MW417160   4.023   0.040   5.282 -0.2298  0.1335  0.0478
 4349SOL     OW17161   1.904   1.600   2.444 -0.2338  0.2347  0.7244
 4349SOL    HW217162   1.824   1.572   2.489  0.2987 -0.1783  1.4400
 4349SOL    HW317163   1.939   1.671   2.498 -1.2264  1.8978 -0.7337
 4349SOL    MW417164   1.898   1.605   2.457 -0.2945  0.3996  0.6264
 4350SOL     OW17165   3.075   3.557   1.102  0.4741  0.4244  0.2350
 4350SOL    HW217166   3.073   3.473   1.056 -1.5341  0.1266  0.7774
 4350SOL    HW317167   3.142   3.545   1.170  1.7742  0.0588 -1.0515
 4350SOL    MW417168   3.084   3.544   1.105  0.3806  0.3369  0.1368
 4351SOL     OW17169   4.570   5.442   3.895  0.2248  0.3536 -0.7299
 4351SOL    HW217170   4.582   5.363   3.841  0.2759 -0.4130  0.3782
 4351SOL    HW317171   4.597   5.415   3.983  1.0920  1.8622 -0.4968
 4351SOL    MW417172   4.575   5.428   3.899  0.3460  0.4515 -0.5529
 4352SOL     OW17173   2.437   0.084   1.361  0.1376 -0.2821  0.6343
 4352SOL    HW217174   2.507   0.061   1.422 -0.9338 -0.5484  1.7976
 4352SOL    HW317175   2.417   0.175   1.380 -0.2703 -0.3969  0.7717
 4352SOL    MW417176   2.443   0.093   1.372 -0.0576 -0.3324  0.8059
 4353SOL     OW17177   5.500   2.055   1.431 -0.1147  0.9947 -0.1190
 4353SOL    HW217178   5.478   1.977   1.482 -1.2930  0.8192 -0.8381
 4353SOL    HW317179   5.576   2.029   1.379  0.8871  1.0717  1.2649
 4353SOL    MW417180   5.507   2.041   1.431 -0.1380  0.9817 -0.0313
 4354SOL     OW17181   2.560   5.604   0.101 -0.2517 -0.9234  0.0022
 4354SOL    HW217182   2.593   5.620   0.190 -2.9406  0.2122  0.9010
 4354SOL    HW317183   2.494   5.536   0.113 -0.3276 -1.0670 -1.2037
 4354SOL    MW417184   2.556   5.597   0.115 -0.6165 -0.7925 -0.0383
 4355SOL     OW17185   5.262   5.063   2.429  0.2488  0.2879  0.7586
 4355SOL    HW217186   5.193   5.046   2.493 -0.0365  0.9437  0.6283
 4355SOL    HW317187   5.227   5.032   2.346  0.7496 -0.8767  0.9551
 4355SOL    MW417188   5.248   5.057   2.427  0.2772  0.2207  0.7674
 4356SOL     OW17189   4.616   5.535   5.818  0.2002  0.0707 -0.6634
 4356SOL    HW217190   4.564   5.477   5.874  0.3600  0.0031 -0.5839
 4356SOL    HW317191   4.588   5.623   5.844  0.2236  0.0383 -0.5250
 4356SOL    MW417192   4.605   5.539   5.829  0.2244  0.0575 -0.6347
 4357SOL     OW17193   6.343   3.358   1.504 -0.5463  0.1171  0.5210
 4357SOL    HW217194   6.256   3.398   1.504 -0.3875  0.4959 -0.7302
 4357SOL    HW317195   6.326   3.265   1.518 -1.1189  0.2476  0.7258
 4357SOL    MW417196   6.329   3.351   1.506 -0.6009  0.1843  0.3830
 4358SOL     OW17197   5.704   0.506   3.269 -0.3109  0.2162  0.0265
 4358SOL    HW217198   5.711   0.585   3.322 -0.2328  0.8425 -0.8801
 4358SOL    HW317199   5.641   0.529   3.201 -1.5664 -1.0707  0.6985
 4358SOL    MW417200   5.697   0.519   3.267 -0.4662  0.1291 -0.0045
 4359SOL     OW17201   1.481   4.795   4.622  0.2283 -0.4170 -0.3318
 4359SOL    HW217202   1.411   4.834   4.569  0.4178  0.8834  0.3390
 4359SOL    HW317203   1.435   4.749   4.692  0.0002  0.7502  0.3294
 4359SOL    MW417204   1.466   4.794   4.624  0.2232 -0.0914 -0.1560
 4360SOL     OW17205   3.603   4.336   2.140  0.2589 -0.1010  0.1847
 4360SOL    HW217206   3.691   4.363   2.115  0.2472  1.6713  1.8478
 4360SOL    HW317207   3.614   4.287   2.221 -0.2336 -0.3992  0.0772
 4360SOL    MW417208   3.616   4.333   2.147  0.1924  0.0935  0.3899
 4361SOL     OW17209   4.494   4.309   1.756 -0.6747 -0.1073 -0.2705
 4361SOL    HW217210   4.412   4.349   1.784 -1.2540 -1.7310  0.4993
 4361SOL    HW317211   4.560   4.345   1.816 -0.6507  1.7105 -1.3083
 4361SOL    MW417212   4.492   4.319   1.768 -0.7480 -0.0817 -0.3058
 4362SOL     OW17213   5.627   1.311   3.391 -0.5454  0.3030 -0.3228
 4362SOL    HW217214   5.686   1.236   3.385  0.6493  1.3555 -3.9429
 4362SOL    HW317215   5.682   1.382   3.424  0.0825  1.0359 -2.7669
 4362SOL    MW417216   5.642   1.310   3.395 -0.3050  0.5386 -1.1229
 4363SOL     OW17217   6.109   2.983   5.629  0.3784  0.2160  0.0963
 4363SOL    HW217218   6.099   2.901   5.582 -0.3373  0.5770 -0.4036
 4363SOL    HW317219   6.039   2.982   5.695  1.2286 -0.1824  1.0096
 4363SOL    MW417220   6.098   2.972   5.632  0.3961  0.2111  0.1508
 4364SOL     OW17221   6.093   2.321   0.663  0.3769 -0.1938 -0.3382
 4364SOL    HW217222   6.178   2.277   0.661 -0.5708 -2.1249 -0.6769
 4364SOL    HW317223   6.058   2.303   0.750 -0.4385 -1.0070 -0.8095
 4364SOL    MW417224   6.099   2.313   0.674  0.1443 -0.5558 -0.4450
 4365SOL     OW17225   4.175   2.359   0.653  0.5103 -0.1223  0.0726
 4365SOL    HW217226   4.196   2.379   0.561 -1.9224 -1.3604 -0.8425
 4365SOL    HW317227   4.229   2.284   0.675  0.2483 -0.5622 -0.7605
 4365SOL    MW417228   4.185   2.352   0.644  0.1547 -0.3437 -0.1580
 4366SOL     OW17229   3.908   5.005   4.601 -0.4002 -0.2527  0.1009
 4366SOL    HW217230   3.843   5.000   4.670 -0.4536 -0.3034  0.0473
 4366SOL    HW317231   3.943   4.916   4.594 -2.3273 -0.9576 -1.8023
 4366SOL    MW417232   3.904   4.992   4.609 -0.6615 -0.3524 -0.1572
 4367SOL     OW17233   5.193   3.048   2.445 -0.6601  0.4578  0.1088
 4367SOL    HW217234   5.127   3.017   2.507 -1.3470  0.1720 -0.7349
 4367SOL    HW317235   5.272   2.998   2.467 -1.0677 -0.0820  0.3644
 4367SOL    MW417236   5.195   3.037   2.456 -0.8045  0.3489  0.0312
 4368SOL     OW17237   0.471   5.986   2.002  0.3024  0.4406 -0.0955
 4368SOL    HW217238   0.464   5.898   1.964 -0.0052  0.1544  0.6082
 4368SOL    HW317239   0.427   5.979   2.087  0.2652  1.2808 -0.0408
 4368SOL    MW417240   0.465   5.973   2.008  0.2569  0.5137  0.0046
 4369SOL     OW17241   3.982   3.069   4.274 -0.2348 -0.2140  0.6579
 4369SOL    HW217242   3.978   2.991   4.218  0.5926 -0.2308  0.6085
 4369SOL    HW317243   3.908   3.059   4.333  0.0899 -1.2526  0.9151
 4369SOL    MW417244   3.972   3.057   4.274 -0.0828 -0.3533  0.6853
 4370SOL     OW17245   2.546   4.466   3.365 -0.2899 -0.6236  0.4503
 4370SOL    HW217246   2.623   4.522   3.379 -1.1953  0.4690  1.2632
 4370SOL    HW317247   2.471   4.524   3.379 -1.2877 -2.1199  1.7529
 4370SOL    MW417248   2.546   4.481   3.369 -0.5410 -0.6769  0.7294
 4371SOL     OW17249   5.610   1.506   5.587 -0.1738  0.1842  0.1106
 4371SOL    HW217250   5.675   1.557   5.540  0.4225  0.3939  1.1177
 4371SOL    HW317251   5.621   1.416   5.554  1.0513  0.1029  0.6789
 4371SOL    MW417252   5.620   1.501   5.577  0.0665  0.2012  0.3184
 4372SOL     OW17253   2.554   1.609   4.817 -0.3915 -0.5693 -0.0538
 4372SOL    HW217254   2.501   1.608   4.896 -1.3808  1.4361 -0.6238
 4372SOL    HW317255   2.500   1.565   4.751 -0.9437  0.5111 -0.3565
 4372SOL    MW417256   2.540   1.603   4.818 -0.5949 -0.1622 -0.1690
 4373SOL     OW17257   1.686   0.469   3.259 -0.2416  0.2215  0.2334
 4373SOL    HW217258   1.719   0.380   3.273 -2.5524 -0.6867  0.2956
 4373SOL    HW317259   1.627   0.485   3.333 -0.8434  1.3106 -0.4586
 4373SOL    MW417260   1.683   0.459   3.271 -0.6259  0.2454  0.1503
 4374SOL     OW17261   6.218   1.505   5.894  0.0994 -0.0953  0.4626
 4374SOL    HW217262   6.136   1.531   5.935 -0.2937 -2.3447  1.2080
 4374SOL    HW317263   6.284   1.517   5.962 -0.0428 -0.7988  0.7278
 4374SOL    MW417264   6.216   1.510   5.908  0.0288 -0.4849  0.5959
 4375SOL     OW17265   1.137   0.523   3.248  0.0277  0.5845  0.2018
 4375SOL    HW217266   1.136   0.519   3.344  3.0005  0.5523  0.3424
 4375SOL    HW317267   1.078   0.595   3.226 -1.1082  0.2691  1.9940
 4375SOL    MW417268   1.129   0.532   3.258  0.2700  0.5387  0.4568
 4376SOL     OW17269   2.904   4.074   3.863 -0.3634  0.0968 -0.0643
 4376SOL    HW217270   2.820   4.106   3.894 -0.7497 -0.4365 -0.5500
 4376SOL    HW317271   2.955   4.153   3.844  0.0776  0.4857  2.3619
 4376SOL    MW417272   2.900   4.089   3.865 -0.3562  0.0777  0.1917
 4377SOL     OW17273   0.819   2.503   2.406  0.1823 -0.3178 -0.1873
 4377SOL    HW217274   0.825   2.595   2.380  1.2306 -0.0744  0.8257
 4377SOL    HW317275   0.761   2.504   2.482  1.2689 -0.2772  0.6693
 4377SOL    MW417276   0.812   2.515   2.413  0.4640 -0.2803  0.0594
 4378SOL     OW17277   5.458   1.377   2.053 -0.0588 -0.2076 -0.1318
 4378SOL    HW217278   5.450   1.400   1.960  0.2475  0.7950  0.0744
 4378SOL    HW317279   5.490   1.458   2.095 -2.3222  0.0724  1.2050
 4378SOL    MW417280   5.461   1.391   2.046 -0.3170 -0.0384  0.0718
 4379SOL     OW17281   0.195   0.490   0.495 -0.1583 -0.0204  0.3495
 4379SOL    HW217282   0.109   0.455   0.474 -0.7992  1.8745 -0.3846
 4379SOL    HW317283   0.255   0.448   0.433 -0.5136 -1.4044  0.9178
 4379SOL    MW417284   0.192   0.480   0.484 -0.2897  0.0470  0.3277
 4380SOL     OW17285   2.105   6.084   0.376  0.3221  0.0188 -0.7619
 4380SOL    HW217286   2.110   6.170   0.417  0.2891 -1.0288  1.5494
 4380SOL    HW317287   2.195   6.065   0.350  0.5443  0.2179 -0.1469
 4380SOL    MW417288   2.117   6.093   0.378  0.3470 -0.0931 -0.3758
 4381SOL     OW17289   0.333   4.830   3.021 -0.2466 -0.0740  0.0351
 4381SOL    HW217290   0.378   4.896   3.074  0.9509 -0.0949 -0.8978
 4381SOL    HW317291   0.404   4.779   2.981 -1.1116 -2.2242  1.0564
 4381SOL    MW417292   0.349   4.832   3.022 -0.2027 -0.3605  0.0468
 4382SOL     OW17293   1.810   0.600   1.475 -0.1615  0.1082 -0.0132
 4382SOL    HW217294   1.808   0.694   1.490 -1.5064  0.2482 -0.9005
 4382SOL    HW317295   1.719   0.577   1.452  0.3603 -1.1974 -0.9189
 4382SOL    MW417296   1.798   0.609   1.474 -0.2701 -0.0456 -0.2498
 4383SOL     OW17297   0.380   2.977   6.023 -0.5043  0.1709 -0.4194
 4383SOL    HW217298   0.384   2.916   6.096  0.4597  1.3994  0.5854
 4383SOL    HW317299   0.335   3.053   6.057 -0.3662  0.6206 -1.2105
 4383SOL    MW417300   0.375   2.979   6.037 -0.3589  0.3923 -0.3912
 4384SOL     OW17301   0.671   1.357   4.776 -0.4704  0.3874 -0.2169
 4384SOL    HW217302   0.766   1.342   4.785 -0.7317 -1.6080 -0.2076
 4384SOL    HW317303   0.664   1.446   4.741  1.3060  1.3421  1.6475
 4384SOL    MW417304   0.683   1.366   4.773 -0.2705  0.2501  0.0303
 4385SOL     OW17305   5.122   1.457   5.066 -0.3880 -0.0964  0.9908
 4385SOL    HW217306   5.205   1.409   5.066 -1.3971 -1.9532 -0.0800
 4385SOL    HW317307   5.092   1.454   5.157  0.1607 -0.4440  1.1604
 4385SOL    MW417308   5.129   1.450   5.078 -0.4487 -0.3872  0.8719
 4386SOL     OW17309   2.757   3.365   5.783  0.7863 -0.0039 -0.2893
 4386SOL    HW217310   2.766   3.294   5.718 -0.6890 -1.9155  1.4767
 4386SOL    HW317311   2.782   3.325   5.866  0.0692  1.6125  0.7554
 4386SOL    MW417312   2.762   3.350   5.785  0.4971 -0.0428  0.0816
 4387SOL     OW17313   4.128   3.841   3.956  0.0752 -0.1801  0.1565
 4387SOL    HW217314   4.178   3.883   4.026 -1.7715  2.0230  0.2628
 4387SOL    HW317315   4.051   3.806   4.000  0.6787 -2.1139 -0.2497
 4387SOL    MW417316   4.124   3.842   3.971 -0.0888 -0.1446  0.1169
 4388SOL     OW17317   1.749   1.780   0.105  0.0279 -0.4137  0.8014
 4388SOL    HW217318   1.838   1.808   0.083 -0.1451 -0.7792 -0.4532
 4388SOL    HW317319   1.712   1.854   0.154 -0.4640  1.7735 -2.5070
 4388SOL    MW417320   1.756   1.794   0.108 -0.0598 -0.1734  0.1994
 4389SOL     OW17321   3.164   1.572   0.471  0.8061 -0.3791 -0.6183
 4389SOL    HW217322   3.116   1.643   0.512  1.7269  0.9294 -1.7016
 4389SOL    HW317323   3.097   1.514   0.435  0.0212  0.5640 -0.7182
 4389SOL    MW417324   3.149   1.574   0.471  0.8240 -0.0820 -0.7744
 4390SOL     OW17325   4.918   3.313   1.926  0.5274 -0.3200  0.1438
 4390SOL    HW217326   4.961   3.345   2.005  0.2335 -1.4414  0.7623
 4390SOL    HW317327   4.828   3.295   1.952  0.3552 -0.4607 -0.5152
 4390SOL    MW417328   4.912   3.315   1.940  0.4659 -0.4865  0.1385
 4391SOL     OW17329   4.535   2.559   0.497 -0.8788  0.0695 -0.1308
 4391SOL    HW217330   4.521   2.465   0.504 -1.5036  0.1976  0.6570
 4391SOL    HW317331   4.470   2.597   0.557 -0.3867  0.9822 -0.1500
 4391SOL    MW417332   4.524   2.552   0.506 -0.8963  0.2068 -0.0294
 4392SOL     OW17333   3.106   1.934   0.206  0.0801 -0.6288  0.4213
 4392SOL    HW217334   3.167   1.898   0.142  1.0362  0.5993  0.6078
 4392SOL    HW317335   3.159   1.945   0.285  0.1828  2.2014  0.0592
 4392SOL    MW417336   3.121   1.931   0.208  0.2198 -0.0933  0.3981
 4393SOL     OW17337   3.138   2.515   1.633  0.2229 -0.3027 -0.2506
 4393SOL    HW217338   3.213   2.513   1.693 -0.0781  0.1196  0.1450
 4393SOL    HW317339   3.063   2.529   1.690  0.0623  1.3278 -0.8406
 4393SOL    MW417340   3.138   2.516   1.649  0.1620 -0.0318 -0.2762
 4394SOL     OW17341   1.153   1.234   5.297 -0.0406 -0.1793  0.1669
 4394SOL    HW217342   1.116   1.311   5.341  0.6648  0.6144 -0.5918
 4394SOL    HW317343   1.089   1.165   5.313 -1.3964  0.9178 -0.3085
 4394SOL    MW417344   1.140   1.235   5.305 -0.1264  0.0701  0.0041
 4395SOL     OW17345   0.505   1.027   6.274 -0.1635  0.0134  0.1175
 4395SOL    HW217346   0.438   0.973   6.316 -2.6353  1.8401 -1.2093
 4395SOL    HW317347   0.562   0.964   6.230 -1.2102 -1.6197  0.9691
 4395SOL    MW417348   0.503   1.011   6.274 -0.6277  0.0389  0.0548
 4396SOL     OW17349   3.770   4.210   3.003 -0.1341  0.6668  0.5103
 4396SOL    HW217350   3.845   4.161   3.038 -1.0593 -1.7174 -0.6403
 4396SOL    HW317351   3.693   4.163   3.034 -1.0442 -0.0907 -2.5216
 4396SOL    MW417352   3.770   4.198   3.012 -0.3762  0.2523 -0.0415
 4397SOL     OW17353   1.385   6.188   3.630 -0.3506 -0.4771 -0.1018
 4397SOL    HW217354   1.336   6.140   3.563  1.6849 -1.4961 -0.9523
 4397SOL    HW317355   1.444   6.244   3.581 -0.4929  0.5806  0.8951
 4397SOL    MW417356   1.386   6.189   3.615 -0.1008 -0.4720 -0.0825
 4398SOL     OW17357   5.456   6.067   2.036  0.2383  0.3008 -0.3515
 4398SOL    HW217358   5.534   6.040   2.085 -0.9318 -1.8087  0.4725
 4398SOL    HW317359   5.384   6.055   2.098 -0.8898  1.0612 -1.4741
 4398SOL    MW417360   5.457   6.062   2.051 -0.0649  0.1228 -0.3909
 4399SOL     OW17361   1.830   3.423   3.887 -0.0336  0.0303  0.7259
 4399SOL    HW217362   1.738   3.447   3.882 -0.2306 -0.7816  0.1089
 4399SOL    HW317363   1.831   3.329   3.866  1.1446  0.4691 -1.5858
 4399SOL    MW417364   1.818   3.413   3.883  0.0958 -0.0189  0.3395
 4400SOL     OW17365   0.750   3.541   0.948  0.0994  0.1551  0.1759
 4400SOL    HW217366   0.676   3.563   0.891  0.4916  0.0480 -0.3743
 4400SOL    HW317367   0.817   3.606   0.926  0.0859  0.4114  0.8548
 4400SOL    MW417368   0.749   3.553   0.938  0.1494  0.1748  0.1929
 4401SOL     OW17369   2.167   2.332   6.108 -0.0015  0.0461 -0.0766
 4401SOL    HW217370   2.121   2.396   6.162 -0.5506 -0.5214  0.1445
 4401SOL    HW317371   2.254   2.370   6.094  0.3067  0.0128  1.5597
 4401SOL    MW417372   2.172   2.346   6.113 -0.0333 -0.0331  0.1685
 4402SOL     OW17373   2.284   3.468   4.137  0.4566  0.1895 -0.2015
 4402SOL    HW217374   2.241   3.459   4.222  0.1705  0.5934 -0.2997
 4402SOL    HW317375   2.279   3.380   4.098 -0.3053  0.2346 -0.2206
 4402SOL    MW417376   2.277   3.455   4.143  0.3183  0.2488 -0.2170
 4403SOL     OW17377   4.282   6.394   2.759  0.0063  0.1713 -0.4704
 4403SOL    HW217378   4.276   6.301   2.781 -1.9782  0.4887  0.5260
 4403SOL    HW317379   4.298   6.395   2.664  1.0095 -1.1757 -0.3393
 4403SOL    MW417380   4.283   6.382   2.749 -0.1232  0.0354 -0.3217
 4404SOL     OW17381   0.661   1.728   1.096 -0.4407  0.1473  0.2842
 4404SOL    HW217382   0.748   1.692   1.109 -0.6970 -0.4987  0.2627
 4404SOL    HW317383   0.615   1.708   1.178 -0.8769 -0.4337 -0.0958
 4404SOL    MW417384   0.666   1.721   1.109 -0.5321 -0.0146  0.2313
 4405SOL     OW17385   2.011   1.404   6.281 -0.4308  0.5355 -0.4345
 4405SOL    HW217386   1.974   1.367   6.361 -1.0376  0.3378 -0.7973
 4405SOL    HW317387   2.052   1.330   6.237  0.8648  0.8471  0.2070
 4405SOL    MW417388   2.011   1.389   6.286 -0.3399  0.5505 -0.3978
 4406SOL     OW17389   0.989   4.558   5.130  0.1627  0.1926  0.3048
 4406SOL    HW217390   1.062   4.497   5.143 -0.0830  0.2616  2.3063
 4406SOL    HW317391   0.923   4.506   5.083  0.3316 -0.8027  1.1277
 4406SOL    MW417392   0.990   4.543   5.126  0.1525  0.0704  0.6775
 4407SOL     OW17393   2.360   2.804   4.740  0.1039 -0.4334 -0.6447
 4407SOL    HW217394   2.381   2.812   4.646 -2.4305 -0.1614 -1.2534
 4407SOL    HW317395   2.306   2.725   4.745 -0.5197  0.0522  0.4573
 4407SOL    MW417396   2.356   2.795   4.728 -0.3128 -0.3335 -0.5796
 4408SOL     OW17397   4.011   6.148   5.349  0.0067 -0.1903 -0.2525
 4408SOL    HW217398   3.951   6.170   5.278 -0.5981 -0.9520  0.0096
 4408SOL    HW317399   3.958   6.096   5.410  0.4405  0.6563  0.8851
 4408SOL    MW417400   3.996   6.144   5.348 -0.0159 -0.1791 -0.0678
 4409SOL     OW17401   1.500   1.507   4.183  0.2091 -0.1546 -0.3075
 4409SOL    HW217402   1.436   1.576   4.194  0.8501  0.3472  0.4155
 4409SOL    HW317403   1.474   1.462   4.102 -0.9275  0.1445 -0.1220
 4409SOL    MW417404   1.488   1.510   4.174  0.1437 -0.0489 -0.1876
 4410SOL     OW17405   0.289   5.413   6.422  0.5296 -0.6612  0.2048
 4410SOL    HW217406   0.282   5.423   6.327 -0.4231 -1.9262  0.1141
 4410SOL    HW317407   0.259   5.497   6.457  0.9093 -0.1753 -0.6126
 4410SOL    MW417408   0.284   5.426   6.414  0.4540 -0.7640  0.0850
 4411SOL     OW17409   4.143   5.045   5.347 -0.0031 -0.0960  0.2883
 4411SOL    HW217410   4.065   5.022   5.297  0.1173  0.2670 -0.0724
 4411SOL    HW317411   4.121   5.025   5.437 -0.6042  0.2371  0.2163
 4411SOL    MW417412   4.130   5.040   5.352 -0.0665 -0.0041  0.2312
 4412SOL     OW17413   1.841   0.050   2.538  0.5197  0.2611  0.0805
 4412SOL    HW217414   1.936   0.058   2.546  0.7570 -2.7590  1.8595
 4412SOL    HW317415   1.812   0.021   2.624 -1.8141 -0.4573 -0.8633
 4412SOL    MW417416   1.850   0.047   2.550  0.2431 -0.2321  0.1907
 4413SOL     OW17417   4.231   6.390   1.058  0.1977  0.2770 -0.3123
 4413SOL    HW217418   4.137   6.401   1.043  0.2260  0.2796 -0.4789
 4413SOL    HW317419   4.272   6.413   0.976  0.3424  0.2245 -0.2553
 4413SOL    MW417420   4.224   6.394   1.045  0.2205  0.2705 -0.3267
 4414SOL     OW17421   6.255   1.406   6.309 -0.0276 -0.2155 -0.4611
 4414SOL    HW217422   6.223   1.335   6.253  0.5796 -1.4863  0.7334
 4414SOL    HW317423   6.192   1.411   6.381  0.5399 -0.3252  0.0532
 4414SOL    MW417424   6.243   1.397   6.311  0.1274 -0.3977 -0.2356
 4415SOL     OW17425   2.907   3.662   3.743 -0.2859  0.6020 -0.0152
 4415SOL    HW217426   2.947   3.665   3.830 -1.7990  2.3404  0.7021
 4415SOL    HW317427   2.943   3.738   3.698 -0.5463  0.4952 -0.4113
 4415SOL    MW417428   2.917   3.673   3.748 -0.5199  0.8173  0.0272
 4416SOL     OW17429   4.121   2.984   3.774  0.0640  0.0767 -0.0984
 4416SOL    HW217430   4.037   3.000   3.818  0.0371  1.4223 -0.5798
 4416SOL    HW317431   4.179   3.052   3.808  0.0614  1.1208 -2.0396
 4416SOL    MW417432   4.118   2.995   3.785  0.0601  0.3920 -0.4180
 4417SOL     OW17433   3.776   0.329   1.073 -0.7834  0.5360  0.2108
 4417SOL    HW217434   3.861   0.366   1.049 -0.8499  0.1520 -0.6555
 4417SOL    HW317435   3.796   0.270   1.146 -0.0989 -0.4525 -0.7325
 4417SOL    MW417436   3.790   0.326   1.079 -0.7018  0.3549 -0.0280
 4418SOL     OW17437   3.178   2.977   2.712 -0.1429  0.2971 -0.4428
 4418SOL    HW217438   3.084   2.971   2.730  0.1891 -1.5487  1.0416
 4418SOL    HW317439   3.195   2.910   2.647  0.4467 -0.9486  0.9341
 4418SOL    MW417440   3.168   2.968   2.706 -0.0213 -0.1108 -0.0653
 4419SOL     OW17441   3.755   2.858   0.083 -0.1428  0.3099 -0.2823
 4419SOL    HW217442   3.751   2.792   0.014 -2.9998 -1.3058  1.2341
 4419SOL    HW317443   3.728   2.939   0.040 -2.3642 -0.7480 -1.0579
 4419SOL    MW417444   3.751   2.860   0.068 -0.8128 -0.0429 -0.1845
 4420SOL     OW17445  -0.000   1.684   3.396  0.6097  0.0001 -0.4642
 4420SOL    HW217446   0.075   1.629   3.420  1.4040  1.0591 -0.4404
 4420SOL    HW317447  -0.010   1.671   3.302 -0.0882 -1.2401 -0.2260
 4420SOL    MW417448   0.009   1.675   3.387  0.6224 -0.0238 -0.4296
 4421SOL     OW17449   1.483   5.140   4.364  0.2328  0.6050  0.6245
 4421SOL    HW217450   1.540   5.092   4.304 -1.6100 -0.3630 -0.4466
 4421SOL    HW317451   1.442   5.208   4.310 -0.4989  0.5194  1.0511
 4421SOL    MW417452   1.485   5.143   4.349 -0.1069  0.4660  0.5395
 4422SOL     OW17453   5.123   2.810   2.787 -0.2514 -0.0422 -0.1643
 4422SOL    HW217454   5.213   2.777   2.790  0.2508  0.7695 -3.1312
 4422SOL    HW317455   5.117   2.868   2.863  1.2051 -1.2599  0.9527
 4422SOL    MW417456   5.134   2.813   2.797  0.0070 -0.0958 -0.4084
 4423SOL     OW17457   4.278   6.174   0.120  0.8005  0.5948  0.7706
 4423SOL    HW217458   4.307   6.141   0.205 -0.1630 -2.6132 -0.0079
 4423SOL    HW317459   4.339   6.135   0.057  0.1889  1.1258 -0.1801
 4423SOL    MW417460   4.290   6.165   0.123  0.5926  0.2416  0.5424
 4424SOL     OW17461   5.328   5.416   6.132  0.4264 -0.2523  0.0367
 4424SOL    HW217462   5.364   5.478   6.068  0.0937  0.8603  0.8885
 4424SOL    HW317463   5.401   5.398   6.191  0.5085 -0.6446 -0.1811
 4424SOL    MW417464   5.343   5.422   6.132  0.3933 -0.1573  0.1204
 4425SOL     OW17465   5.627   5.583   4.513 -0.2172 -0.0159 -0.0472
 4425SOL    HW217466   5.544   5.586   4.559 -0.3429  2.4966 -0.2728
 4425SOL    HW317467   5.678   5.654   4.551  1.8662 -1.5098  0.1031
 4425SOL    MW417468   5.623   5.593   4.524  0.0411  0.1185 -0.0572
 4426SOL     OW17469   4.398   0.522   5.185  0.2168  0.3013  0.0421
 4426SOL    HW217470   4.346   0.470   5.124 -1.9714  0.1983  1.8538
 4426SOL    HW317471   4.395   0.611   5.149 -1.5324  0.3567  0.2405
 4426SOL    MW417472   4.391   0.527   5.172 -0.3027  0.2950  0.3073
 4427SOL     OW17473   0.947   1.548   0.131  0.0559  0.2805  0.0643
 4427SOL    HW217474   0.866   1.513   0.095  0.2568 -0.9766  0.7546
 4427SOL    HW317475   0.921   1.628   0.177 -0.7294  0.0824 -0.0296
 4427SOL    MW417476   0.933   1.554   0.133 -0.0212  0.0885  0.1430
 4428SOL     OW17477   0.928   1.013   1.515  0.1387 -0.0313  0.0923
 4428SOL    HW217478   0.966   1.094   1.480 -0.1852 -0.7468 -2.0465
 4428SOL    HW317479   0.999   0.949   1.511 -0.2923 -0.4762 -0.5914
 4428SOL    MW417480   0.942   1.015   1.510  0.0391 -0.1844 -0.2801
 4429SOL     OW17481   4.809   4.694   2.174 -0.0717  0.1949 -0.1099
 4429SOL    HW217482   4.715   4.686   2.187  0.0090 -0.1104  0.3146
 4429SOL    HW317483   4.833   4.772   2.224  0.4589 -1.7552  2.9305
 4429SOL    MW417484   4.800   4.703   2.183  0.0089 -0.1027  0.3472
 4430SOL     OW17485   0.013   3.953   1.103 -0.1223 -0.1733 -0.2291
 4430SOL    HW217486   0.026   4.018   1.171  1.1654  0.5605 -1.1415
 4430SOL    HW317487  -0.031   4.000   1.032 -1.5506 -0.9522  0.0884
 4430SOL    MW417488   0.009   3.968   1.102 -0.1409 -0.1793 -0.3076
 4431SOL     OW17489   3.333   2.387   5.116 -0.2398  0.1806 -0.0839
 4431SOL    HW217490   3.344   2.480   5.138  1.3765 -0.2092  0.9405
 4431SOL    HW317491   3.376   2.377   5.031 -0.7823  0.4415 -0.3926
 4431SOL    MW417492   3.341   2.398   5.107 -0.0981  0.1636  0.0105
 4432SOL     OW17493   0.163   0.430   4.072  0.5478  0.1376 -0.3040
 4432SOL    HW217494   0.125   0.420   4.159 -1.4788 -0.6069 -1.2118
 4432SOL    HW317495   0.151   0.344   4.031  0.0023  0.9248 -1.8661
 4432SOL    MW417496   0.157   0.417   4.078  0.2085  0.1433 -0.6299
 4433SOL     OW17497   3.740   5.113   3.718 -0.1222 -0.3437 -0.2362
 4433SOL    HW217498   3.759   5.087   3.628  0.1843 -0.0985 -0.2448
 4433SOL    HW317499   3.824   5.103   3.764  0.5152  2.3461 -0.6476
 4433SOL    MW417500   3.754   5.108   3.712  0.0024  0.0436 -0.2916
 4434SOL     OW17501   0.233   3.055   2.905  0.0631 -0.1224  0.6159
 4434SOL    HW217502   0.249   3.109   2.827  0.9581 -0.3738  0.6201
 4434SOL    HW317503   0.139   3.063   2.920 -0.1360 -0.1160 -0.5259
 4434SOL    MW417504   0.223   3.063   2.897  0.1549 -0.1547  0.4658
 4435SOL     OW17505   4.433   2.271   4.060 -0.3173 -0.5463  0.0087
 4435SOL    HW217506   4.416   2.305   4.147 -1.5882 -1.2434  0.0539
 4435SOL    HW317507   4.490   2.195   4.074 -0.0694 -0.3284  0.1806
 4435SOL    MW417508   4.439   2.265   4.073 -0.4522 -0.6095  0.0374
 4436SOL     OW17509   3.067   0.397   4.362  0.4305 -0.0642  0.5054
 4436SOL    HW217510   3.025   0.372   4.280 -0.1768  0.6909  0.5741
 4436SOL    HW317511   3.067   0.493   4.361  2.8229  0.0072  0.1668
 4436SOL    MW417512   3.062   0.407   4.351  0.6660  0.0448  0.4698
 4437SOL     OW17513   0.859   2.951   4.967  0.0022 -0.1461 -0.1563
 4437SOL    HW217514   0.781   2.896   4.974  0.7395 -1.1256  0.5072
 4437SOL    HW317515   0.824   3.040   4.960 -1.1741 -0.4374  1.3971
 4437SOL    MW417516   0.844   2.956   4.967 -0.0557 -0.3137  0.1362
 4438SOL     OW17517   2.457   2.237   3.713 -0.8159  0.1252 -0.3905
 4438SOL    HW217518   2.448   2.184   3.634  0.2162 -1.3344  0.4286
 4438SOL    HW317519   2.368   2.270   3.731 -1.3307 -0.7229 -1.3285
 4438SOL    MW417520   2.444   2.235   3.705 -0.7476 -0.1793 -0.4062
 4439SOL     OW17521   6.265   5.663   1.362  0.7445 -0.0802 -0.5100
 4439SOL    HW217522   6.216   5.689   1.440  0.1914  3.2095 -1.7770
 4439SOL    HW317523   6.203   5.612   1.311 -0.5440  1.7192 -0.8482
 4439SOL    MW417524   6.250   5.660   1.366  0.5015  0.5913 -0.7218
 4440SOL     OW17525   5.345   2.195   1.210 -0.2583  0.1213  0.0504
 4440SOL    HW217526   5.382   2.153   1.287  0.3462 -0.4635 -0.5490
 4440SOL    HW317527   5.365   2.288   1.221  1.1192 -0.1349 -0.1004
 4440SOL    MW417528   5.352   2.202   1.222  0.0032  0.0103 -0.0486
 4441SOL     OW17529   3.296   1.358   2.025  0.3182  0.1387 -0.1782
 4441SOL    HW217530   3.313   1.421   1.955  0.4754  1.0189  0.6346
 4441SOL    HW317531   3.250   1.286   1.982 -0.7011  1.2169 -0.9585
 4441SOL    MW417532   3.292   1.357   2.010  0.2045  0.3971 -0.1739
 4442SOL     OW17533   5.694   6.270   2.228 -0.0963 -0.2919 -0.0909
 4442SOL    HW217534   5.675   6.275   2.135  0.0167  0.4965 -0.0791
 4442SOL    HW317535   5.743   6.188   2.239  0.2382 -0.1868 -0.7833
 4442SOL    MW417536   5.698   6.260   2.217 -0.0373 -0.1740 -0.1807
 4443SOL     OW17537   4.647   6.123   2.530 -0.1408  0.3257  0.3598
 4443SOL    HW217538   4.698   6.061   2.477 -0.8489  0.8100 -0.9067
 4443SOL    HW317539   4.677   6.209   2.501  0.7375  0.6288  2.0171
 4443SOL    MW417540   4.658   6.126   2.519 -0.1184  0.4296  0.4113
 4444SOL     OW17541   4.461   5.210   4.824 -0.2475 -0.5060  0.2096
 4444SOL    HW217542   4.449   5.290   4.774 -0.9144 -0.2771  0.7271
 4444SOL    HW317543   4.413   5.224   4.905  1.4853 -0.5438  1.3029
 4444SOL    MW417544   4.453   5.222   4.828 -0.1068 -0.4808  0.4221
 4445SOL     OW17545   6.239   5.072   6.228  0.7273  0.1115 -0.6784
 4445SOL    HW217546   6.174   5.019   6.274  1.9208  0.0491  1.0054
 4445SOL    HW317547   6.323   5.039   6.257  1.5237  1.3068 -1.5092
 4445SOL    MW417548   6.241   5.061   6.238  0.9899  0.2610 -0.5658
 4446SOL     OW17549   0.227   4.000   3.771  0.3325 -0.7315 -0.5363
 4446SOL    HW217550   0.296   4.020   3.707 -0.8558  0.0537 -1.6264
 4446SOL    HW317551   0.154   3.967   3.718 -0.6407 -0.1648  0.4138
 4446SOL    MW417552   0.226   3.998   3.755  0.0473 -0.5531 -0.5548
 4447SOL     OW17553   4.913   6.088   1.518  0.0657  0.0590  0.2039
 4447SOL    HW217554   4.870   6.014   1.561 -0.7475 -0.4145 -1.3242
 4447SOL    HW317555   5.006   6.076   1.538 -0.0895 -1.1933  0.2967
 4447SOL    MW417556   4.919   6.077   1.526 -0.0620 -0.1687  0.0146
 4448SOL     OW17557   1.658   1.374   4.592 -0.6831  0.8915 -0.2130
 4448SOL    HW217558   1.634   1.466   4.593 -0.8722  0.8641 -1.0906
 4448SOL    HW317559   1.654   1.349   4.499  0.5361  0.3037 -0.1350
 4448SOL    MW417560   1.654   1.383   4.580 -0.5472  0.8103 -0.3185
 4449SOL     OW17561   5.764   5.868   5.047 -0.7397  0.1953  0.1370
 4449SOL    HW217562   5.731   5.778   5.043 -0.5897  0.0829  1.1407
 4449SOL    HW317563   5.846   5.861   5.095  0.4597  0.5642 -1.7484
 4449SOL    MW417564   5.770   5.855   5.053 -0.5616  0.2291  0.0206
 4450SOL     OW17565   0.573   4.301   1.967 -0.0293 -0.3534  0.2180
 4450SOL    HW217566   0.520   4.380   1.973  0.4275 -0.1315  1.6862
 4450SOL    HW317567   0.657   4.324   2.008  1.2130 -0.7202 -1.9920
 4450SOL    MW417568   0.577   4.314   1.973  0.1949 -0.3725  0.1201
 4451SOL     OW17569   2.418   1.900   3.019  0.4252  0.0986  0.3898
 4451SOL    HW217570   2.406   1.978   3.072  0.9813  1.4667 -1.3984
 4451SOL    HW317571   2.500   1.915   2.972 -0.0234 -1.0571 -0.8344
 4451SOL    MW417572   2.427   1.912   3.020  0.4394  0.1266 -0.0077
 4452SOL     OW17573   6.163   5.145   4.602 -0.3229  0.5370 -0.4201
 4452SOL    HW217574   6.087   5.203   4.595 -0.5084  0.3034 -0.3667
 4452SOL    HW317575   6.169   5.103   4.516 -0.3116  0.4832 -0.3934
 4452SOL    MW417576   6.154   5.147   4.590 -0.3459  0.4991 -0.4095
 4453SOL     OW17577   0.972   2.062   3.430  0.4283 -0.2172 -0.4743
 4453SOL    HW217578   0.888   2.095   3.396  0.5456  0.9182  0.2957
 4453SOL    HW317579   1.010   2.015   3.356  0.2458  1.3816 -1.6479
 4453SOL    MW417580   0.966   2.060   3.416  0.4197  0.1436 -0.5276
 4454SOL     OW17581   1.292   4.926   4.452  0.2691  0.2063  0.0321
 4454SOL    HW217582   1.321   5.005   4.408  1.1701 -0.6385 -0.9339
 4454SOL    HW317583   1.234   4.957   4.522  0.6611  1.7034 -0.2850
 4454SOL    MW417584   1.288   4.941   4.456  0.4397  0.2924 -0.1372
 4455SOL     OW17585   1.826   0.491   5.120 -0.1528  0.1569 -0.0767
 4455SOL    HW217586   1.823   0.442   5.038 -0.1302 -0.6860  0.4181
 4455SOL    HW317587   1.799   0.429   5.187 -1.1411  1.1085  0.4451
 4455SOL    MW417588   1.822   0.477   5.118 -0.2802  0.1712  0.0574
 4456SOL     OW17589   0.241   6.115   6.326  0.4107  0.2255 -0.7738
 4456SOL    HW217590   0.286   6.043   6.370  0.5652  0.0964 -1.1300
 4456SOL    HW317591   0.239   6.088   6.234 -0.1792  0.3463 -0.8017
 4456SOL    MW417592   0.247   6.102   6.319  0.3532  0.2244 -0.8245
 4457SOL     OW17593   1.033   4.710   1.637  0.1566 -0.1671 -0.0201
 4457SOL    HW217594   1.006   4.737   1.725 -0.4438 -2.7395  0.6496
 4457SOL    HW317595   1.015   4.787   1.582 -0.7178  1.0333  1.8566
 4457SOL    MW417596   1.027   4.724   1.641 -0.0380 -0.3481  0.3159
 4458SOL     OW17597   0.598   3.117   5.871 -0.3015 -0.2420  0.1416
 4458SOL    HW217598   0.528   3.074   5.921 -0.3195 -0.5215 -0.1217
 4458SOL    HW317599   0.672   3.057   5.879 -0.1918 -0.1046  0.1441
 4458SOL    MW417600   0.598   3.103   5.879 -0.2894 -0.2607  0.1072
 4459SOL     OW17601   5.173   5.815   3.790  0.2009 -0.3192  0.0027
 4459SOL    HW217602   5.243   5.836   3.728 -1.2264  0.7285 -1.3389
 4459SOL    HW317603   5.155   5.897   3.835  0.4719 -0.8148  1.0427
 4459SOL    MW417604   5.180   5.828   3.788  0.0484 -0.2463 -0.0371
 4460SOL     OW17605   1.551   4.608   2.370 -0.5284  0.6796  0.0634
 4460SOL    HW217606   1.477   4.554   2.342  1.0596 -1.4995 -0.1984
 4460SOL    HW317607   1.609   4.610   2.294 -0.5474  2.8832  0.0488
 4460SOL    MW417608   1.549   4.601   2.357 -0.3214  0.6829  0.0269
 4461SOL     OW17609   2.485   5.875   0.047  0.3637 -0.7491 -0.4135
 4461SOL    HW217610   2.429   5.903   0.119 -0.9190 -1.1830 -1.2187
 4461SOL    HW317611   2.487   5.779   0.054  2.3105 -0.6882  0.5391
 4461SOL    MW417612   2.478   5.866   0.057  0.4513 -0.7983 -0.3940
 4462SOL     OW17613   0.401   5.998   4.540  0.8470  0.2092  0.1662
 4462SOL    HW217614   0.357   6.074   4.577  1.1041  0.2296  0.4355
 4462SOL    HW317615   0.344   5.924   4.563  0.0412  0.4400 -1.0355
 4462SOL    MW417616   0.387   5.998   4.548  0.7746  0.2423  0.0431
 4463SOL     OW17617   1.798   4.538   4.750 -0.0977  0.9505 -0.7992
 4463SOL    HW217618   1.772   4.456   4.709  1.5937  0.3457 -0.7147
 4463SOL    HW317619   1.783   4.604   4.682  0.8131  0.2299 -1.7252
 4463SOL    MW417620   1.793   4.536   4.736  0.2457  0.7756 -0.9102
 4464SOL     OW17621   0.631   3.646   1.237  0.5573 -0.0652 -0.3107
 4464SOL    HW217622   0.536   3.661   1.235  0.8370  2.2827  0.6974
 4464SOL    HW317623   0.657   3.649   1.145 -0.4366 -1.7033 -0.6791
 4464SOL    MW417624   0.622   3.649   1.224  0.4630  0.0284 -0.2263
 4465SOL     OW17625   2.654   1.054   0.003 -0.2987  0.3770 -0.2535
 4465SOL    HW217626   2.564   1.037  -0.024 -0.5766  2.7386 -1.0381
 4465SOL    HW317627   2.695   1.097  -0.072  1.7479 -1.2461 -0.1694
 4465SOL    MW417628   2.648   1.058  -0.010 -0.0653  0.4745 -0.3459
 4466SOL     OW17629   5.784   0.073   3.803  0.1764  0.2230  0.2509
 4466SOL    HW217630   5.750   0.033   3.723 -0.6044 -0.0875  0.7228
 4466SOL    HW317631   5.745   0.021   3.874  1.3330  0.1197  0.8218
 4466SOL    MW417632   5.774   0.061   3.802  0.2260  0.1684  0.3885
 4467SOL     OW17633   6.256   5.953   1.258 -0.5591  0.2334 -0.2896
 4467SOL    HW217634   6.237   5.859   1.254 -0.4941  0.2542 -2.5986
 4467SOL    HW317635   6.288   5.967   1.347 -0.1834 -2.0125  0.0052
 4467SOL    MW417636   6.258   5.942   1.269 -0.5009 -0.0602 -0.5554
 4468SOL     OW17637   2.464   3.934   1.178 -0.2804  0.2202  0.2116
 4468SOL    HW217638   2.547   3.890   1.160  0.5263  1.9966 -0.6426
 4468SOL    HW317639   2.448   3.990   1.101 -3.1541 -1.2970 -0.4466
 4468SOL    MW417640   2.473   3.936   1.166 -0.5531  0.2544  0.0121
 4469SOL     OW17641   0.420   3.638   2.395  0.4812  0.1932  0.3569
 4469SOL    HW217642   0.473   3.561   2.374  0.0756 -0.4474  1.6110
 4469SOL    HW317643   0.475   3.712   2.369  0.9843 -0.5034 -0.6191
 4469SOL    MW417644   0.434   3.638   2.389  0.4940  0.0168  0.3936
 4470SOL     OW17645   5.807   1.963   3.056  0.0857  0.0628  0.0749
 4470SOL    HW217646   5.895   1.976   3.091  0.4041 -1.0749 -0.2346
 4470SOL    HW317647   5.808   2.006   2.971  0.5403 -0.4142 -0.1706
 4470SOL    MW417648   5.819   1.970   3.049  0.1877 -0.1502  0.0017
 4471SOL     OW17649   1.974   6.209   1.782  0.2765 -0.2866 -0.3127
 4471SOL    HW217650   2.030   6.226   1.706 -3.6993  1.4491 -3.1832
 4471SOL    HW317651   1.997   6.277   1.845  0.6426  1.1091 -1.8897
 4471SOL    MW417652   1.984   6.220   1.780 -0.1998  0.1265 -0.8995
 4472SOL     OW17653   1.406   5.309   3.541 -0.0248 -0.1564  0.2727
 4472SOL    HW217654   1.409   5.214   3.553 -0.0211 -0.4500 -1.7050
 4472SOL    HW317655   1.315   5.333   3.558 -0.0796 -0.5456  0.5400
 4472SOL    MW417656   1.394   5.300   3.545 -0.0316 -0.2465  0.0470
 4473SOL     OW17657   5.903   4.241   3.230  0.5758 -0.3468  0.0011
 4473SOL    HW217658   5.858   4.181   3.289 -0.1283 -0.8986 -1.0530
 4473SOL    HW317659   5.995   4.216   3.235  0.5562 -0.2637  0.9806
 4473SOL    MW417660   5.909   4.230   3.238  0.4803 -0.4087 -0.0087
 4474SOL     OW17661   5.634   5.307   0.619  0.3964 -0.3694 -0.3223
 4474SOL    HW217662   5.714   5.353   0.594  2.0375 -0.7710  3.5476
 4474SOL    HW317663   5.597   5.360   0.690 -0.0553 -2.7062  1.2734
 4474SOL    MW417664   5.639   5.320   0.625  0.5533 -0.7307  0.3988
 4475SOL     OW17665   3.512   3.940   2.844 -0.7077  0.5100 -0.2250
 4475SOL    HW217666   3.527   3.893   2.926 -1.0704  1.4402  0.3927
 4475SOL    HW317667   3.600   3.960   2.812 -0.5410  1.7030  0.8857
 4475SOL    MW417668   3.526   3.936   2.851 -0.7336  0.7901  0.0031
 4476SOL     OW17669   2.612   2.234   2.985 -0.1466 -0.3231 -0.8843
 4476SOL    HW217670   2.690   2.284   2.961  0.1165 -0.1422  0.2885
 4476SOL    HW317671   2.621   2.152   2.936 -0.0818  0.3530 -2.0515
 4476SOL    MW417672   2.623   2.230   2.975 -0.1033 -0.2100 -0.8836
 4477SOL     OW17673   0.454   3.407   1.605  0.2069  0.1786  0.1330
 4477SOL    HW217674   0.393   3.480   1.591  1.7808  1.5634  0.2788
 4477SOL    HW317675   0.463   3.401   1.700  0.3313 -0.0048  0.1103
 4477SOL    MW417676   0.447   3.415   1.615  0.4310  0.3371  0.1493
 4478SOL     OW17677   6.143   2.539   3.704  0.2720 -0.0080 -0.0287
 4478SOL    HW217678   6.135   2.453   3.744 -0.0174 -0.2282 -0.5467
 4478SOL    HW317679   6.205   2.586   3.760  0.6838 -0.6626  0.0798
 4478SOL    MW417680   6.150   2.534   3.716  0.2882 -0.1234 -0.0828
 4479SOL     OW17681   4.419   3.304   0.102 -0.3313  0.0513  0.5954
 4479SOL    HW217682   4.443   3.395   0.120  1.7939 -0.7739  2.3290
 4479SOL    HW317683   4.471   3.252   0.163 -2.8721 -2.2858  0.9669
 4479SOL    MW417684   4.429   3.309   0.112 -0.3861 -0.3660  0.8732
 4480SOL     OW17685   5.614   5.977   3.729 -0.3033  0.9854  0.7011
 4480SOL    HW217686   5.666   6.015   3.800 -0.5399  1.6786  0.5112
 4480SOL    HW317687   5.566   6.051   3.692  0.9234  0.9245 -1.1443
 4480SOL    MW417688   5.614   5.992   3.733 -0.1727  1.0688  0.4325
 4481SOL     OW17689   5.877   3.618   1.913  0.4447  0.4586 -0.4898
 4481SOL    HW217690   5.949   3.669   1.949 -0.0242 -0.1582  1.4637
 4481SOL    HW317691   5.814   3.612   1.985 -1.1576  0.2177 -1.8440
 4481SOL    MW417692   5.878   3.624   1.927  0.1714  0.3454 -0.4107
 4482SOL     OW17693   0.048   5.711   3.391 -0.2593 -0.2136 -0.1485
 4482SOL    HW217694   0.085   5.625   3.372 -3.7799 -1.5809 -1.8339
 4482SOL    HW317695   0.055   5.759   3.308  1.2961  1.0404  0.6638
 4482SOL    MW417696   0.054   5.706   3.377 -0.5186 -0.2286 -0.2637
 4483SOL     OW17697   4.632   1.653   3.347 -0.4946  0.5075 -0.3349
 4483SOL    HW217698   4.684   1.688   3.419  0.8305 -1.6885 -0.1025
 4483SOL    HW317699   4.588   1.577   3.385 -1.0515  0.2651 -1.4379
 4483SOL    MW417700   4.633   1.647   3.361 -0.3932  0.1857 -0.4498
 4484SOL     OW17701   0.131   2.813   0.705  0.0293 -0.1783  0.1341
 4484SOL    HW217702   0.114   2.743   0.768  0.3980  0.9012  1.5076
 4484SOL    HW317703   0.225   2.828   0.711 -0.3734  2.3895  2.1703
 4484SOL    MW417704   0.141   2.806   0.714  0.0248  0.3029  0.5840
 4485SOL     OW17705   3.812   5.757   4.274 -0.2569  0.5777 -0.3560
 4485SOL    HW217706   3.897   5.723   4.247 -0.5702  0.8967 -1.8427
 4485SOL    HW317707   3.762   5.680   4.299  0.3694  0.3612  0.2635
 4485SOL    MW417708   3.817   5.742   4.274 -0.2156  0.5912 -0.4704
 4486SOL     OW17709   5.787   1.555   3.901  0.1523  0.5895  0.2604
 4486SOL    HW217710   5.832   1.623   3.951  0.2689  0.6061  0.1328
 4486SOL    HW317711   5.741   1.602   3.832 -0.7001  0.6509  0.8552
 4486SOL    MW417712   5.787   1.570   3.899  0.0553  0.5998  0.3220
 4487SOL     OW17713   4.756   3.650   1.121  0.0665  0.5742 -0.0610
 4487SOL    HW217714   4.682   3.592   1.137 -0.3062  0.7965 -0.9050
 4487SOL    HW317715   4.780   3.682   1.208 -0.4043 -0.0082  0.2974
 4487SOL    MW417716   4.749   3.647   1.135 -0.0448  0.5267 -0.1250
 4488SOL     OW17717   0.837   3.882   2.583  0.1744  0.4016  0.0547
 4488SOL    HW217718   0.821   3.972   2.612  1.3945  0.9001 -0.7132
 4488SOL    HW317719   0.933   3.876   2.576  0.3881 -1.9365  3.0878
 4488SOL    MW417720   0.848   3.893   2.586  0.3636  0.1588  0.3535
 4489SOL     OW17721   1.559   4.249   5.280  0.4636  0.3618  0.2077
 4489SOL    HW217722   1.527   4.166   5.245  1.5026 -0.8521  1.9520
 4489SOL    HW317723   1.634   4.271   5.224  0.8484 -0.4812  0.3606
 4489SOL    MW417724   1.565   4.241   5.268  0.6514  0.0904  0.4580
 4490SOL     OW17725   4.424   6.376   6.117 -0.7695 -0.4528  0.9504
 4490SOL    HW217726   4.499   6.333   6.159 -0.5209 -1.0938 -0.1174
 4490SOL    HW317727   4.429   6.467   6.146  0.5588 -0.4260  0.7059
 4490SOL    MW417728   4.435   6.382   6.127 -0.5614 -0.5338  0.7772
 4491SOL     OW17729   0.787   0.848   1.793 -0.1195  0.2303 -0.7138
 4491SOL    HW217730   0.797   0.937   1.827  2.1042  0.3656 -1.5536
 4491SOL    HW317731   0.746   0.859   1.708  0.7283  0.5480 -1.0973
 4491SOL    MW417732   0.783   0.861   1.787  0.2858  0.2901 -0.8752
 4492SOL     OW17733   3.731   4.725   2.804 -0.3730  0.2516 -0.2447
 4492SOL    HW217734   3.636   4.713   2.806 -0.3207 -1.4121 -3.0126
 4492SOL    HW317735   3.743   4.811   2.764 -0.7443 -0.0137 -0.9465
 4492SOL    MW417736   3.720   4.735   2.799 -0.4151 -0.0029 -0.7025
 4493SOL     OW17737   4.872   5.806   0.719  0.8453  0.4309  0.5338
 4493SOL    HW217738   4.847   5.758   0.640 -1.9081  1.2828  0.7686
 4493SOL    HW317739   4.967   5.799   0.722  1.0510  0.0662 -2.6651
 4493SOL    MW417740   4.881   5.799   0.709  0.5091  0.4952  0.1427
 4494SOL     OW17741   4.966   0.845   4.507  0.0334  0.8610 -0.3282
 4494SOL    HW217742   5.023   0.915   4.473  0.4222  0.2538 -0.9562
 4494SOL    HW317743   4.996   0.767   4.462  0.7362 -0.0460  1.5966
 4494SOL    MW417744   4.978   0.844   4.496  0.1774  0.6612 -0.1571
 4495SOL     OW17745   6.416   5.858   0.888 -0.2597 -0.3885 -0.1685
 4495SOL    HW217746   6.376   5.943   0.907 -0.8405 -0.4750 -0.9321
 4495SOL    HW317747   6.489   5.852   0.948 -0.2977  0.5942 -0.0024
 4495SOL    MW417748   6.420   5.869   0.898 -0.3413 -0.2702 -0.2473
 4496SOL     OW17749   0.045   6.025   1.898 -0.0025 -0.0896 -0.2895
 4496SOL    HW217750  -0.005   5.973   1.835 -0.9651 -0.9426  1.0989
 4496SOL    HW317751  -0.022   6.058   1.959  1.0405 -1.0106  1.4430
 4496SOL    MW417752   0.029   6.022   1.898  0.0081 -0.3237  0.1223
 4497SOL     OW17753   6.330   0.434   2.632 -0.5007  0.0651 -0.3727
 4497SOL    HW217754   6.250   0.448   2.683  0.0468 -0.9800  0.8422
 4497SOL    HW317755   6.345   0.517   2.588 -1.1178  0.9768  1.0500
 4497SOL    MW417756   6.321   0.447   2.633 -0.5098  0.0475 -0.0247
 4498SOL     OW17757   3.264   6.315   4.879  0.2520 -0.0206  0.2094
 4498SOL    HW217758   3.307   6.230   4.873  1.7853  0.7172  0.0478
 4498SOL    HW317759   3.276   6.342   4.970 -0.8958 -0.2906  0.4541
 4498SOL    MW417760   3.271   6.308   4.890  0.3029  0.0411  0.2203
 4499SOL     OW17761   5.670   2.522   1.372  0.5269  0.2423  0.1787
 4499SOL    HW217762   5.702   2.452   1.315  1.2337 -0.0011  0.8646
 4499SOL    HW317763   5.730   2.522   1.446 -0.7412  0.1346  1.2455
 4499SOL    MW417764   5.682   2.513   1.374  0.4528  0.1959  0.4100
 4500SOL     OW17765   1.352   4.924   2.135 -0.3277  0.2872 -0.1870
 4500SOL    HW217766   1.339   4.986   2.064 -0.2542 -1.0178 -1.3854
 4500SOL    HW317767   1.367   4.840   2.091  0.2746 -0.4515  1.3617
 4500SOL    MW417768   1.352   4.921   2.120 -0.2385  0.0176 -0.1408
 4501SOL     OW17769   0.951   0.672   4.128 -0.3606  0.5949 -0.0215
 4501SOL    HW217770   0.994   0.687   4.044  1.0858  1.9181  0.8918
 4501SOL    HW317771   0.897   0.750   4.142 -1.8463 -0.3202 -0.3983
 4501SOL    MW417772   0.949   0.684   4.119 -0.3658  0.6488  0.0493
 4502SOL     OW17773   3.018   4.710   4.967 -0.2059 -0.3454 -0.3549
 4502SOL    HW217774   3.084   4.698   4.898  0.5614  1.6321 -0.0422
 4502SOL    HW317775   2.962   4.633   4.961  0.4941 -0.7443 -2.4701
 4502SOL    MW417776   3.019   4.698   4.957 -0.0123 -0.1371 -0.5927
 4503SOL     OW17777   4.476   3.241   3.160 -0.0913 -0.3456  0.4785
 4503SOL    HW217778   4.435   3.214   3.078 -1.7311 -1.5685  1.6460
 4503SOL    HW317779   4.557   3.190   3.164  1.2439  1.4017 -1.3890
 4503SOL    MW417780   4.481   3.231   3.150 -0.1315 -0.2764  0.3862
 4504SOL     OW17781   3.812   1.364   0.872 -0.0786 -0.6363  0.1092
 4504SOL    HW217782   3.907   1.357   0.863 -0.2715 -1.7501 -1.4880
 4504SOL    HW317783   3.780   1.372   0.782 -1.5062 -0.2451  0.6261
 4504SOL    MW417784   3.820   1.364   0.859 -0.2924 -0.7316 -0.0333
 4505SOL     OW17785   1.196   2.614   3.012 -0.3033 -0.1904  0.3846
 4505SOL    HW217786   1.286   2.614   3.043 -0.4780 -0.9175  0.9306
 4505SOL    HW317787   1.188   2.694   2.961  1.5583 -1.5458 -2.2996
 4505SOL    MW417788   1.207   2.625   3.009 -0.0807 -0.4652  0.1025
 4506SOL     OW17789   0.317   5.232   4.920  0.8534  0.4897  0.3011
 4506SOL    HW217790   0.255   5.236   4.992  2.0999 -2.5201  1.7173
 4506SOL    HW317791   0.367   5.313   4.926 -0.4035  1.2034  1.5219
 4506SOL    MW417792   0.316   5.243   4.930  0.8520  0.1868  0.6490
 4507SOL     OW17793   2.483   0.790   5.166 -0.3865  0.4174 -0.1461
 4507SOL    HW217794   2.458   0.747   5.248  0.4722  0.8550  0.3581
 4507SOL    HW317795   2.568   0.752   5.144 -0.7869  0.0206 -1.0502
 4507SOL    MW417796   2.491   0.780   5.174 -0.3261  0.4227 -0.1989
 4508SOL     OW17797   1.856   4.518   6.383 -0.1351  0.2352  0.7470
 4508SOL    HW217798   1.877   4.514   6.476  0.7969 -1.8585  0.4975
 4508SOL    HW317799   1.898   4.440   6.345  1.3467  2.1197 -1.8032
 4508SOL    MW417800   1.864   4.507   6.390  0.1834  0.2076  0.3776
 4509SOL     OW17801   5.789   2.220   4.808 -0.3464 -0.2827  0.2449
 4509SOL    HW217802   5.755   2.130   4.812  2.9285 -1.7190 -0.5223
 4509SOL    HW317803   5.833   2.224   4.723  1.7813  1.1658  1.3578
 4509SOL    MW417804   5.790   2.209   4.797  0.3664 -0.2811  0.2905
 4510SOL     OW17805   3.748   1.425   4.351  0.1885  0.0368  0.9536
 4510SOL    HW217806   3.676   1.362   4.354 -0.9655  1.3160  0.6731
 4510SOL    HW317807   3.728   1.481   4.276  2.6173 -0.8825 -0.5401
 4510SOL    MW417808   3.736   1.424   4.341  0.3567  0.0843  0.7195
 4511SOL     OW17809   4.720   3.606   0.670 -0.2392  0.2251 -0.0534
 4511SOL    HW217810   4.785   3.632   0.735 -0.1464 -0.8049  0.2769
 4511SOL    HW317811   4.649   3.669   0.681  0.3988  0.9572  0.0304
 4511SOL    MW417812   4.719   3.618   0.680 -0.1428  0.1858  0.0012
 4512SOL     OW17813   2.688   5.247   0.164 -0.3528  0.0841 -0.1594
 4512SOL    HW217814   2.764   5.217   0.115 -0.3114  0.5592 -0.3845
 4512SOL    HW317815   2.675   5.179   0.231 -0.4211 -0.5755 -0.8309
 4512SOL    MW417816   2.696   5.234   0.167 -0.3563  0.0597 -0.2777
 4513SOL     OW17817   0.397   2.248   4.792  0.5945 -0.3119 -0.6936
 4513SOL    HW217818   0.402   2.220   4.701  0.6314  1.4944 -1.2695
 4513SOL    HW317819   0.472   2.305   4.805  1.5558 -1.8361  0.9849
 4513SOL    MW417820   0.407   2.252   4.782  0.7262 -0.2747 -0.5481
 4514SOL     OW17821   3.843   4.027   4.874 -0.5266 -0.3184 -0.3045
 4514SOL    HW217822   3.853   3.975   4.794 -0.4472 -0.3302 -0.2878
 4514SOL    HW317823   3.919   4.086   4.873 -0.2776 -0.6282 -0.0057
 4514SOL    MW417824   3.855   4.028   4.863 -0.4833 -0.3609 -0.2628
 4515SOL     OW17825   2.916   3.903   2.201 -0.1600  0.0017 -0.5249
 4515SOL    HW217826   2.987   3.845   2.175 -0.9773 -1.7185  0.8911
 4515SOL    HW317827   2.906   3.888   2.295 -1.8782  0.7822 -0.5529
 4515SOL    MW417828   2.924   3.893   2.210 -0.4946 -0.1223 -0.3418
 4516SOL     OW17829   1.205   5.028   0.982 -0.2489  0.3027  0.1737
 4516SOL    HW217830   1.111   5.041   0.997 -0.2747  0.8862 -0.4474
 4516SOL    HW317831   1.212   4.936   0.957 -0.5885  0.1269  0.7024
 4516SOL    MW417832   1.193   5.017   0.980 -0.2971  0.3565  0.1615
 4517SOL     OW17833   4.240   4.426   5.379 -0.2788  0.2526 -0.2648
 4517SOL    HW217834   4.310   4.490   5.368 -0.2583  0.2238 -0.3033
 4517SOL    HW317835   4.182   4.465   5.444 -0.9530  0.9016 -1.2207
 4517SOL    MW417836   4.242   4.440   5.386 -0.3651  0.3345 -0.3960
 4518SOL     OW17837   3.417   3.736   1.178 -0.1249  0.3448 -0.2501
 4518SOL    HW217838   3.360   3.802   1.219 -0.3787  0.2037 -0.3733
 4518SOL    HW317839   3.504   3.777   1.177 -0.4860  1.1391 -1.3419
 4518SOL    MW417840   3.421   3.750   1.183 -0.2060  0.4310 -0.4104
 4519SOL     OW17841   3.422   1.963   3.785  0.1240 -0.4716 -0.1659
 4519SOL    HW217842   3.338   2.003   3.807  0.0493 -0.7771  0.1168
 4519SOL    HW317843   3.468   1.956   3.869 -0.1524 -1.6258 -0.0906
 4519SOL    MW417844   3.417   1.967   3.799  0.0777 -0.6642 -0.1187
 4520SOL     OW17845   0.550   3.720   0.545  0.0654 -0.5425 -0.2894
 4520SOL    HW217846   0.464   3.746   0.513 -1.0156 -2.9784  0.4148
 4520SOL    HW317847   0.611   3.753   0.479 -1.5744 -0.4405 -1.8363
 4520SOL    MW417848   0.547   3.728   0.532 -0.2936 -0.8504 -0.4006
 4521SOL     OW17849   4.442   1.912   3.966 -0.0209 -0.4173  0.3233
 4521SOL    HW217850   4.353   1.898   3.932 -0.0937 -2.3953  1.2383
 4521SOL    HW317851   4.429   1.949   4.053  0.0809 -0.1402  0.2233
 4521SOL    MW417852   4.429   1.915   3.973 -0.0171 -0.6417  0.4309
 4522SOL     OW17853   1.070   1.739   5.933 -0.6939  0.2253  0.4823
 4522SOL    HW217854   1.031   1.661   5.893  2.4714 -0.3378 -1.9200
 4522SOL    HW317855   1.144   1.705   5.983 -2.0832  1.3768  3.5271
 4522SOL    MW417856   1.074   1.724   5.934 -0.4596  0.3029  0.5671
 4523SOL     OW17857   2.611   6.304   3.384 -0.1794  0.2080 -0.0944
 4523SOL    HW217858   2.518   6.323   3.372 -0.4112 -1.0545 -0.4474
 4523SOL    HW317859   2.654   6.352   3.313 -0.7253 -0.4081 -0.8737
 4523SOL    MW417860   2.604   6.313   3.373 -0.2820 -0.0398 -0.2438
 4524SOL     OW17861   6.281   3.432   0.451  0.0501  0.3533 -0.3699
 4524SOL    HW217862   6.374   3.439   0.471  0.0175  0.1917 -0.1569
 4524SOL    HW317863   6.241   3.396   0.531 -0.2270  0.6165 -0.3851
 4524SOL    MW417864   6.288   3.428   0.464  0.0093  0.3667 -0.3438
 4525SOL     OW17865   0.592   5.555   4.468 -0.0063 -0.0802 -0.4251
 4525SOL    HW217866   0.623   5.475   4.426  0.2884  1.0473 -2.4932
 4525SOL    HW317867   0.653   5.571   4.539 -0.3753 -1.9400  0.3696
 4525SOL    MW417868   0.604   5.547   4.472 -0.0161 -0.1768 -0.5931
 4526SOL     OW17869   3.639   2.529   1.817  0.1470 -0.2177 -0.4053
 4526SOL    HW217870   3.631   2.507   1.910  1.8662  2.4406  0.4822
 4526SOL    HW317871   3.714   2.588   1.813  1.0499 -1.3959 -3.7346
 4526SOL    MW417872   3.648   2.534   1.829  0.4930 -0.0224 -0.7275
 4527SOL     OW17873   0.725   4.109   0.952  0.0384 -0.1073 -0.3427
 4527SOL    HW217874   0.716   4.072   0.865 -0.2959  1.6521 -1.0926
 4527SOL    HW317875   0.645   4.158   0.966  0.3354  0.1014  0.7259
 4527SOL    MW417876   0.713   4.111   0.943  0.0334  0.1524 -0.3007
 4528SOL     OW17877   0.756   4.853   2.541 -0.2601 -0.7249 -0.4735
 4528SOL    HW217878   0.696   4.908   2.592  0.2179 -0.8699  0.2670
 4528SOL    HW317879   0.830   4.837   2.600 -0.4087 -2.2137 -0.6539
 4528SOL    MW417880   0.758   4.858   2.556 -0.2167 -0.9404 -0.3996
 4529SOL     OW17881   5.675   1.203   5.241 -0.6127 -0.5318 -0.1613
 4529SOL    HW217882   5.687   1.152   5.321 -1.9341  0.5317  0.7578
 4529SOL    HW317883   5.635   1.141   5.179  1.4942 -1.7002 -0.4591
 4529SOL    MW417884   5.671   1.188   5.244 -0.5091 -0.5456 -0.0793
 4530SOL     OW17885   2.883   5.433   3.267  0.0680 -0.5932  0.3994
 4530SOL    HW217886   2.868   5.527   3.263 -0.6714 -0.7428 -0.8954
 4530SOL    HW317887   2.962   5.424   3.320 -1.0866  0.5992  2.4722
 4530SOL    MW417888   2.892   5.444   3.273 -0.1819 -0.4556  0.5020
 4531SOL     OW17889   4.495   2.138   5.063  0.3583  0.8685  0.0696
 4531SOL    HW217890   4.408   2.170   5.088  1.2283  3.4931 -0.0358
 4531SOL    HW317891   4.541   2.128   5.146  0.2487  0.2568  0.0668
 4531SOL    MW417892   4.489   2.141   5.077  0.4586  1.1341  0.0553
 4532SOL     OW17893   2.761   3.100   4.523 -0.3604  0.1104  0.3716
 4532SOL    HW217894   2.771   3.167   4.591  1.7979 -2.7877  3.2069
 4532SOL    HW317895   2.850   3.074   4.501 -1.0946 -0.8647 -1.7750
 4532SOL    MW417896   2.774   3.105   4.529 -0.1725 -0.4006  0.4624
 4533SOL     OW17897   4.931   1.100   6.064 -0.2529  0.1860 -0.8966
 4533SOL    HW217898   4.864   1.032   6.060 -0.2717  0.1713 -0.3635
 4533SOL    HW317899   4.940   1.119   6.157  1.8696 -1.1749 -0.7644
 4533SOL    MW417900   4.923   1.093   6.076  0.0246  0.0045 -0.8089
 4534SOL     OW17901   0.093   2.315   1.110 -0.3808  0.2124 -0.8827
 4534SOL    HW217902   0.124   2.397   1.071 -0.5739  2.2645  2.8710
 4534SOL    HW317903   0.173   2.265   1.127  0.1185  1.3792  0.3198
 4534SOL    MW417904   0.108   2.319   1.107 -0.3404  0.6371 -0.2288
 4535SOL     OW17905   5.619   0.330   1.555  0.2177 -0.7332  0.3156
 4535SOL    HW217906   5.547   0.360   1.499 -0.8376 -2.1651  0.8413
 4535SOL    HW317907   5.698   0.355   1.508 -0.6027 -2.1941 -2.0248
 4535SOL    MW417908   5.620   0.337   1.542 -0.0298 -1.1148  0.0762
 4536SOL     OW17909   3.593   2.626   3.128  0.3203  0.0581  0.1442
 4536SOL    HW217910   3.555   2.676   3.056  0.3384  1.2777  0.9579
 4536SOL    HW317911   3.617   2.542   3.088 -1.1628  0.0893 -0.8883
 4536SOL    MW417912   3.591   2.621   3.113  0.1270  0.2231  0.1153
 4537SOL     OW17913   4.085   0.666   5.468 -0.2587 -0.3256  0.9222
 4537SOL    HW217914   4.061   0.730   5.401 -1.3852 -2.4655 -0.8193
 4537SOL    HW317915   4.004   0.648   5.515 -0.1732 -1.1346  0.7801
 4537SOL    MW417916   4.071   0.672   5.465 -0.3960 -0.7147  0.6737
 4538SOL     OW17917   0.730   4.023   0.679 -0.1318  0.2820  0.6530
 4538SOL    HW217918   0.659   4.020   0.615  0.6913 -2.8816 -0.3076
 4538SOL    HW317919   0.808   4.041   0.626  0.4284 -1.4530  0.8134
 4538SOL    MW417920   0.731   4.025   0.664  0.0507 -0.3643  0.5474
 4539SOL     OW17921   4.868   2.946   3.948  0.2115  0.1420 -0.7303
 4539SOL    HW217922   4.885   2.881   4.015 -0.1449  1.5957  0.8540
 4539SOL    HW317923   4.788   2.916   3.905  0.8172 -1.1607 -0.9912
 4539SOL    MW417924   4.860   2.934   3.951  0.2444  0.1619 -0.5557
 4540SOL     OW17925   3.875   4.793   4.944  0.6633 -0.0005  0.4120
 4540SOL    HW217926   3.820   4.840   4.881  0.7553  0.1192  0.4219
 4540SOL    HW317927   3.928   4.734   4.890  1.3628  0.7215  0.3033
 4540SOL    MW417928   3.875   4.791   4.928  0.7677  0.1105  0.3990
 4541SOL     OW17929   5.510   3.055   0.060 -0.3312 -0.1124 -0.5306
 4541SOL    HW217930   5.432   3.008   0.029  0.0820  0.4288 -2.5464
 4541SOL    HW317931   5.493   3.146   0.038  0.4165  0.1697  0.0264
 4541SOL    MW417932   5.497   3.061   0.053 -0.1780 -0.0038 -0.7231
 4542SOL     OW17933   3.909   5.392   3.578 -0.1240  0.0458 -0.3274
 4542SOL    HW217934   3.984   5.450   3.564 -0.1745  0.2089  0.0786
 4542SOL    HW317935   3.944   5.320   3.631  0.0119 -0.4568 -1.0843
 4542SOL    MW417936   3.924   5.390   3.583 -0.1127  0.0010 -0.3737
 4543SOL     OW17937   5.730   1.087   5.489  0.4344  0.2030  0.0393
 4543SOL    HW217938   5.655   1.129   5.529 -0.0276 -0.6648  0.1052
 4543SOL    HW317939   5.711   0.993   5.495  0.1413  0.0298 -2.5473
 4543SOL    MW417940   5.718   1.080   5.495  0.3348  0.0656 -0.2933
 4544SOL     OW17941   5.849   4.982   5.936 -0.4469  0.3281  0.7652
 4544SOL    HW217942   5.911   5.052   5.954  0.8896 -0.2902 -1.0843
 4544SOL    HW317943   5.882   4.907   5.986  0.3322  0.0169 -0.1693
 4544SOL    MW417944   5.861   4.981   5.945 -0.1678  0.2055  0.3978
 4545SOL     OW17945   0.648   5.114   3.404 -0.3749  0.0825 -0.1144
 4545SOL    HW217946   0.738   5.083   3.396 -0.4140  0.0890 -0.5854
 4545SOL    HW317947   0.603   5.076   3.329  0.0961  3.1681 -2.1503
 4545SOL    MW417948   0.654   5.105   3.393 -0.3179  0.4904 -0.4451
 4546SOL     OW17949   4.663   3.530   3.767 -0.3629 -0.6732 -0.4186
 4546SOL    HW217950   4.665   3.584   3.846  1.7440 -1.2326 -0.0316
 4546SOL    HW317951   4.618   3.450   3.793 -0.4515 -0.4996 -0.0382
 4546SOL    MW417952   4.657   3.527   3.780 -0.0966 -0.7241 -0.3174
 4547SOL     OW17953   1.587   3.232   5.421 -0.2600 -0.0299 -0.0595
 4547SOL    HW217954   1.506   3.188   5.449 -1.1700  0.3968 -1.8632
 4547SOL    HW317955   1.582   3.319   5.460 -0.3404 -0.2394  0.3969
 4547SOL    MW417956   1.575   3.238   5.430 -0.3907 -0.0012 -0.2373
 4548SOL     OW17957   0.276   6.366   3.644 -0.7965 -0.5089  0.4022
 4548SOL    HW217958   0.272   6.275   3.617 -1.8295 -0.6845  1.1066
 4548SOL    HW317959   0.365   6.377   3.679 -0.2450 -0.8894 -0.8204
 4548SOL    MW417960   0.287   6.356   3.645 -0.8600 -0.5822  0.3339
 4549SOL     OW17961   1.094   0.722   5.406  0.3889  0.4099  0.4278
 4549SOL    HW217962   1.007   0.701   5.372 -0.4009  2.4320  1.0416
 4549SOL    HW317963   1.078   0.760   5.492  1.7191  2.3671 -0.1108
 4549SOL    MW417964   1.081   0.724   5.413  0.4602  0.9349  0.4377
 4550SOL     OW17965   4.635   5.312   2.730 -0.4717  0.1023  0.1228
 4550SOL    HW217966   4.571   5.281   2.793  0.2725 -0.5870  0.5490
 4550SOL    HW317967   4.661   5.234   2.682  0.4491  0.2831  0.3175
 4550SOL    MW417968   4.630   5.298   2.732 -0.2520  0.0352  0.2047
 4551SOL     OW17969   2.444   2.698   3.745  0.4185 -0.3637 -0.6220
 4551SOL    HW217970   2.359   2.697   3.700  0.8382  0.2103 -1.4622
 4551SOL    HW317971   2.432   2.642   3.821 -0.3872 -1.1953 -1.3401
 4551SOL    MW417972   2.431   2.690   3.749  0.3676 -0.3977 -0.8276
 4552SOL     OW17973   6.127   0.632   1.548 -0.2465 -0.3085  0.3529
 4552SOL    HW217974   6.051   0.667   1.502 -0.0832  0.0237  0.3318
 4552SOL    HW317975   6.090   0.574   1.614 -0.6338  1.2490  1.5674
 4552SOL    MW417976   6.112   0.629   1.551 -0.2761 -0.0592  0.5103
 4553SOL     OW17977   0.067   1.212   3.912 -0.5628  0.0840  0.2749
 4553SOL    HW217978   0.078   1.121   3.937 -0.1242  0.1840  0.4503
 4553SOL    HW317979   0.039   1.209   3.821  1.7934 -0.1670 -0.4933
 4553SOL    MW417980   0.065   1.200   3.903 -0.1941  0.0640  0.1967
 4554SOL     OW17981   4.160   1.743   5.341 -0.6254  0.0953  0.1743
 4554SOL    HW217982   4.246   1.735   5.300 -0.0238 -1.2721  1.5916
 4554SOL    HW317983   4.173   1.712   5.430 -1.9775  2.5702  1.3264
 4554SOL    MW417984   4.173   1.738   5.347 -0.7244  0.2414  0.5133
 4555SOL     OW17985   0.167   3.642   6.389 -0.1251  0.3659 -0.0224
 4555SOL    HW217986   0.103   3.657   6.458 -0.8603 -2.3219  0.0065
 4555SOL    HW317987   0.251   3.661   6.429 -0.6937  1.1200  0.8480
 4555SOL    MW417988   0.169   3.646   6.403 -0.2971  0.1108  0.0962
 4556SOL     OW17989   2.842   3.953   1.621 -0.2271 -0.2743 -0.0804
 4556SOL    HW217990   2.828   3.909   1.705 -1.3807 -0.1436 -0.1944
 4556SOL    HW317991   2.767   3.929   1.568 -0.6741  1.4670 -0.3058
 4556SOL    MW417992   2.830   3.944   1.625 -0.4383 -0.0273 -0.1251
 4557SOL     OW17993   0.993   2.130   5.674  0.1824 -0.1668  0.6100
 4557SOL    HW217994   1.029   2.185   5.603 -0.2863 -1.6227 -0.8117
 4557SOL    HW317995   0.956   2.193   5.736 -2.7909  1.1858 -2.2450
 4557SOL    MW417996   0.993   2.146   5.673 -0.2718 -0.1805  0.0458
 4558SOL     OW17997   2.267   5.228   6.367 -0.2002 -0.1205  0.1172
 4558SOL    HW217998   2.240   5.208   6.278 -0.6513 -0.6710  0.3760
 4558SOL    HW317999   2.248   5.321   6.378  0.6008  0.1417 -0.6201
 4558SOL    MW418000   2.261   5.238   6.357 -0.1540 -0.1586  0.0541
 4559SOL     OW18001   2.290   0.131   6.148  0.7892  0.1766 -0.2967
 4559SOL    HW218002   2.360   0.153   6.088  0.1239  0.7798 -0.8736
 4559SOL    HW318003   2.230   0.076   6.097 -0.2966  1.5195 -0.5353
 4559SOL    MW418004   2.291   0.127   6.133  0.5582  0.4334 -0.4043
 4560SOL     OW18005   4.831   3.547   4.123 -0.5139  0.0364 -0.1332
 4560SOL    HW218006   4.827   3.571   4.215 -0.4818 -0.4881  0.0112
 4560SOL    HW318007   4.740   3.528   4.099 -0.5311  0.2383 -0.2260
 4560SOL    MW418008   4.818   3.548   4.132 -0.5119 -0.0061 -0.1264
 4561SOL     OW18009   6.179   0.757   3.796 -0.0786  0.3167  0.2100
 4561SOL    HW218010   6.171   0.786   3.887 -1.9295 -2.1242  0.9299
 4561SOL    HW318011   6.234   0.679   3.800  0.4484  0.6050 -0.8982
 4561SOL    MW418012   6.185   0.751   3.808 -0.2533  0.0327  0.1587
 4562SOL     OW18013   0.264   2.521   0.962 -0.0426 -0.1224  0.5061
 4562SOL    HW218014   0.356   2.541   0.983  0.0008  0.5093 -0.2316
 4562SOL    HW318015   0.267   2.489   0.872 -0.5932  0.3125  0.3312
 4562SOL    MW418016   0.277   2.519   0.953 -0.1095  0.0183  0.3857
 4563SOL     OW18017   0.488   1.184   3.980 -0.3289 -0.2047 -0.5185
 4563SOL    HW218018   0.409   1.135   4.005 -0.3229  0.5430  1.1015
 4563SOL    HW318019   0.471   1.273   4.011  0.8241  0.1495 -0.8687
 4563SOL    MW418020   0.475   1.189   3.988 -0.1760 -0.0593 -0.3510
 4564SOL     OW18021   4.800   3.446   6.228 -0.7042  0.4195  0.0112
 4564SOL    HW218022   4.895   3.432   6.230 -0.6361  0.4572 -1.7795
 4564SOL    HW318023   4.787   3.526   6.278 -0.0860 -0.7998  2.3026
 4564SOL    MW418024   4.811   3.455   6.235 -0.6137  0.2636  0.0773
 4565SOL     OW18025   1.203   1.573   1.213  0.0563 -0.0808  0.2886
 4565SOL    HW218026   1.183   1.487   1.249 -0.1494 -0.0197  0.3243
 4565SOL    HW318027   1.294   1.589   1.237 -0.1138  0.0138  0.8916
 4565SOL    MW418028   1.212   1.564   1.221  0.0067 -0.0603  0.3729
 4566SOL     OW18029   3.832   1.632   0.621  1.1502 -0.0890  0.0609
 4566SOL    HW218030   3.824   1.663   0.711  2.2391  0.2807  0.0438
 4566SOL    HW318031   3.781   1.550   0.620 -2.8763  2.1780 -0.2366
 4566SOL    MW418032   3.824   1.625   0.633  0.7626  0.2589  0.0194
 4567SOL     OW18033   4.205   1.241   3.799 -0.4811  0.4412  0.2491
 4567SOL    HW218034   4.116   1.238   3.766 -0.5039 -0.5568  0.3644
 4567SOL    HW318035   4.204   1.310   3.865 -0.6109  1.9499 -1.2798
 4567SOL    MW418036   4.193   1.249   3.804 -0.5012  0.5086  0.0626
 4568SOL     OW18037   5.084   3.362   3.231  0.7163 -0.3265  0.0608
 4568SOL    HW218038   5.025   3.298   3.270  0.1246  0.3349  0.2572
 4568SOL    HW318039   5.052   3.373   3.141 -0.3134  1.0385  0.5665
 4568SOL    MW418040   5.072   3.355   3.224  0.5024 -0.0591  0.1535
 4569SOL     OW18041   4.368   1.646   1.422 -0.0085 -0.4542  0.0321
 4569SOL    HW218042   4.300   1.618   1.360 -1.3779  3.5487 -0.5301
 4569SOL    HW318043   4.431   1.693   1.368 -0.1636  1.3533  1.3706
 4569SOL    MW418044   4.367   1.648   1.406 -0.2097  0.3124  0.1345
 4570SOL     OW18045   5.691   0.327   3.478  0.0012 -0.3006  0.1562
 4570SOL    HW218046   5.754   0.256   3.472  0.3776  0.0739 -0.4770
 4570SOL    HW318047   5.694   0.369   3.392 -1.6512 -0.7261 -0.1403
 4570SOL    MW418048   5.700   0.323   3.466 -0.1672 -0.3073  0.0336
 4571SOL     OW18049   5.378   0.738   4.913  0.0129 -0.2642  0.4045
 4571SOL    HW218050   5.449   0.681   4.943  0.5022  0.3401  0.4168
 4571SOL    HW318051   5.400   0.756   4.822  0.6068  0.9986  0.7769
 4571SOL    MW418052   5.390   0.733   4.905  0.1558 -0.0178  0.4552
 4572SOL     OW18053   0.192   2.052   3.438 -0.1341 -0.4346 -0.5726
 4572SOL    HW218054   0.270   2.020   3.393 -0.8421 -0.6128 -1.7084
 4572SOL    HW318055   0.192   2.006   3.522  1.5835  0.4256 -0.0403
 4572SOL    MW418056   0.202   2.042   3.443 -0.0009 -0.3447 -0.6522
 4573SOL     OW18057   2.587   3.758   0.570 -0.1709 -0.1272 -0.4227
 4573SOL    HW218058   2.556   3.667   0.577  1.4168 -0.6369  0.3466
 4573SOL    HW318059   2.547   3.802   0.645  0.7427 -0.7248  0.4393
 4573SOL    MW418060   2.577   3.751   0.581  0.1591 -0.2733 -0.2075
 4574SOL     OW18061   1.719   0.255   1.670 -0.1573  0.5971  0.3969
 4574SOL    HW218062   1.746   0.198   1.743  1.1851  0.3534 -0.2449
 4574SOL    HW318063   1.768   0.221   1.595 -2.0386  0.3929 -0.7976
 4574SOL    MW418064   1.729   0.243   1.670 -0.2284  0.5380  0.1546
 4575SOL     OW18065   2.884   3.369   1.248  0.0801 -0.0732  0.6683
 4575SOL    HW218066   2.859   3.453   1.286 -0.4207 -0.2674  0.7761
 4575SOL    HW318067   2.959   3.389   1.192 -0.6060  0.6118 -0.0322
 4575SOL    MW418068   2.890   3.382   1.246 -0.0765 -0.0084  0.5901
 4576SOL     OW18069   2.831   3.937   0.775  0.1165  0.8487 -0.0778
 4576SOL    HW218070   2.820   3.957   0.868 -1.0892  1.3297 -0.3194
 4576SOL    HW318071   2.828   3.841   0.771  1.5403  0.7521  0.5291
 4576SOL    MW418072   2.829   3.927   0.787  0.1453  0.8994 -0.0296
 4577SOL     OW18073   0.300   1.004   1.749  0.2584 -0.3165  0.5669
 4577SOL    HW218074   0.242   0.994   1.674  0.4955  0.5461  0.2611
 4577SOL    HW318075   0.277   1.090   1.785  1.5343  0.1652  0.2737
 4577SOL    MW418076   0.289   1.014   1.744  0.4580 -0.1391  0.4879
 4578SOL     OW18077   5.419   5.798   5.075 -0.1723 -0.0859  0.0579
 4578SOL    HW218078   5.480   5.871   5.090  0.0892 -0.0300 -1.1801
 4578SOL    HW318079   5.391   5.809   4.984 -0.6650 -1.1342  0.0755
 4578SOL    MW418080   5.423   5.809   5.065 -0.2028 -0.2169 -0.1031
 4579SOL     OW18081   2.243   4.493   1.697  0.8931  0.6816 -0.1128
 4579SOL    HW218082   2.333   4.500   1.665  0.6174  1.3890 -0.7634
 4579SOL    HW318083   2.189   4.512   1.621  0.1801  0.0857  0.2273
 4579SOL    MW418084   2.248   4.496   1.683  0.7627  0.6963 -0.1538
 4580SOL     OW18085   4.436   0.971   5.637  0.2751 -0.1064 -0.4370
 4580SOL    HW218086   4.441   1.065   5.617  0.4427 -0.2163 -0.9297
 4580SOL    HW318087   4.343   0.950   5.629  0.0509  0.2809  0.9363
 4580SOL    MW418088   4.424   0.981   5.633  0.2676 -0.0698 -0.3208
 4581SOL     OW18089   1.701   3.228   4.212  1.3277  0.0015  0.4189
 4581SOL    HW218090   1.761   3.302   4.207  0.7631  0.4690  0.5985
 4581SOL    HW318091   1.621   3.263   4.249  1.1130 -0.7355  0.6852
 4581SOL    MW418092   1.699   3.242   4.216  1.2249 -0.0340  0.4778
 4582SOL     OW18093   4.035   5.378   4.763  0.0350  0.0312 -0.1819
 4582SOL    HW218094   4.083   5.407   4.841 -1.2556 -1.0972  1.1033
 4582SOL    HW318095   4.060   5.287   4.752 -1.4885 -0.4870  0.3295
 4582SOL    MW418096   4.044   5.370   4.772 -0.3363 -0.1860  0.0551
 4583SOL     OW18097   5.652   1.229   3.949 -0.6108  0.0573  0.2849
 4583SOL    HW218098   5.652   1.261   4.040  1.3061  0.1924  0.2879
 4583SOL    HW318099   5.702   1.147   3.953 -3.4807 -1.8797 -0.1170
 4583SOL    MW418100   5.659   1.222   3.962 -0.7366 -0.1805  0.2323
 4584SOL     OW18101   2.004   4.320   2.028 -0.7041  0.3473  0.4763
 4584SOL    HW218102   1.965   4.370   2.099 -0.8503 -0.3142  0.8691
 4584SOL    HW318103   2.018   4.233   2.065  0.1399  0.2707  0.0078
 4584SOL    MW418104   2.001   4.315   2.042 -0.6120  0.2499  0.4663
 4585SOL     OW18105   5.506   0.952   3.767  0.0868  0.1029  0.0982
 4585SOL    HW218106   5.432   0.996   3.725  0.7300  0.7452 -0.3697
 4585SOL    HW318107   5.499   0.976   3.860  0.0017  0.5596 -0.0270
 4585SOL    MW418108   5.495   0.961   3.774  0.1605  0.2479  0.0199
 4586SOL     OW18109   2.546   2.880   0.765 -0.0268 -0.3484  0.5269
 4586SOL    HW218110   2.621   2.881   0.825  1.6685 -0.3602 -1.4886
 4586SOL    HW318111   2.561   2.955   0.707 -1.4227 -0.5544 -0.1285
 4586SOL    MW418112   2.558   2.890   0.766  0.0127 -0.3771  0.1745
 4587SOL     OW18113   1.663   0.001   5.491 -0.0208 -0.4834  0.4170
 4587SOL    HW218114   1.736   0.057   5.517 -1.5365  1.6011  0.4322
 4587SOL    HW318115   1.687  -0.030   5.404 -0.2333  2.4360 -0.8013
 4587SOL    MW418116   1.675   0.004   5.483 -0.2489  0.1768  0.2583
 4588SOL     OW18117   0.094   1.695   5.098  0.0369  0.1632  0.1262
 4588SOL    HW218118   0.095   1.788   5.123  1.7922 -0.0080  0.8279
 4588SOL    HW318119   0.087   1.648   5.181  1.3066 -0.3414 -0.0243
 4588SOL    MW418120   0.093   1.701   5.112  0.4360  0.0741  0.1990
 4589SOL     OW18121   2.860   4.623   5.639 -0.5874 -0.0436 -0.0712
 4589SOL    HW218122   2.929   4.558   5.620 -1.1232 -0.4445 -0.6941
 4589SOL    HW318123   2.781   4.586   5.600 -1.1471  0.4569  0.5611
 4589SOL    MW418124   2.859   4.609   5.631 -0.7319 -0.0305 -0.0700
 4590SOL     OW18125   5.092   1.792   2.784 -0.1087  0.1979 -0.6591
 4590SOL    HW218126   5.084   1.699   2.761 -0.8363  0.1708 -0.3331
 4590SOL    HW318127   5.157   1.793   2.855 -1.1482 -0.2526  0.3417
 4590SOL    MW418128   5.099   1.780   2.791 -0.3418  0.1349 -0.4840
 4591SOL     OW18129   2.886   4.844   0.097 -0.4479  0.3542  0.2409
 4591SOL    HW218130   2.845   4.930   0.083 -2.8203 -0.3706  2.0730
 4591SOL    HW318131   2.813   4.786   0.117  1.0781 -2.1706 -1.0493
 4591SOL    MW418132   2.871   4.848   0.098 -0.5596 -0.0746  0.3124
 4592SOL     OW18133   6.064   1.782   0.349  0.0194  0.1726 -0.0618
 4592SOL    HW218134   6.081   1.691   0.373  0.5073  0.0350 -0.8728
 4592SOL    HW318135   5.980   1.803   0.390 -0.5277 -0.9291 -0.5890
 4592SOL    MW418136   6.055   1.773   0.357  0.0116  0.0091 -0.2384
 4593SOL     OW18137   4.325   4.682   1.356 -0.5340  0.1857  0.2740
 4593SOL    HW218138   4.342   4.691   1.449 -0.0134 -1.0880  0.3187
 4593SOL    HW318139   4.235   4.647   1.351 -1.7331  3.0458  0.1662
 4593SOL    MW418140   4.315   4.678   1.368 -0.6235  0.3950  0.2657
 4594SOL     OW18141   4.933   3.449   4.568  0.5963 -0.5451 -0.3748
 4594SOL    HW218142   4.868   3.406   4.622 -1.0079  4.0713  1.9554
 4594SOL    HW318143   4.999   3.481   4.629  2.5751 -1.0634 -2.1101
 4594SOL    MW418144   4.933   3.448   4.583  0.6457 -0.0044 -0.2963
 4595SOL     OW18145   1.984   2.047   4.793 -0.0863  0.2970  0.0478
 4595SOL    HW218146   1.901   2.081   4.827 -0.6767 -0.2469 -0.8269
 4595SOL    HW318147   2.025   2.122   4.750 -1.2255  0.0418 -1.5731
 4595SOL    MW418148   1.979   2.061   4.792 -0.3145  0.1916 -0.2815
 4596SOL     OW18149   3.897   3.475   3.368  0.3342  0.0038  0.2654
 4596SOL    HW218150   3.969   3.449   3.426 -0.1562  1.5233  1.6192
 4596SOL    HW318151   3.937   3.477   3.281  1.3399 -1.3556  0.6471
 4596SOL    MW418152   3.912   3.472   3.364  0.4022  0.0249  0.4944
 4597SOL     OW18153   6.175   5.208   5.053 -0.1218  0.1772  0.5743
 4597SOL    HW218154   6.184   5.128   5.000  0.5027  0.6273 -0.0120
 4597SOL    HW318155   6.083   5.232   5.043 -0.2908 -0.4022  0.6657
 4597SOL    MW418156   6.164   5.200   5.045 -0.0617  0.1601  0.5090
 4598SOL     OW18157   4.524   0.714   1.946  0.7231  0.6214  0.3240
 4598SOL    HW218158   4.432   0.730   1.967  0.9009  1.3221  0.6093
 4598SOL    HW318159   4.545   0.631   1.988  1.4093  2.5155  4.1431
 4598SOL    MW418160   4.515   0.706   1.954  0.8371  0.9637  0.8655
 4599SOL     OW18161   6.328   1.779   1.552  0.1387 -0.0471  0.3581
 4599SOL    HW218162   6.321   1.864   1.597 -0.8620  0.4914 -0.7521
 4599SOL    HW318163   6.334   1.715   1.623 -1.0065  0.8036  1.2690
 4599SOL    MW418164   6.328   1.782   1.568 -0.1444  0.1362  0.3318
 4600SOL     OW18165   1.736   2.900   5.939  0.6258  0.5230 -0.2850
 4600SOL    HW218166   1.800   2.830   5.925 -0.4733 -0.4215 -0.7340
 4600SOL    HW318167   1.764   2.970   5.882  2.0127  0.6488  0.5088
 4600SOL    MW418168   1.748   2.900   5.930  0.6637  0.4150 -0.2395
 4601SOL     OW18169   5.323   5.769   4.813  0.5660  0.1153  0.2384
 4601SOL    HW218170   5.318   5.843   4.753 -0.6703  0.1054  0.2947
 4601SOL    HW318171   5.364   5.699   4.763  0.3128  0.3615 -0.3148
 4601SOL    MW418172   5.328   5.769   4.799  0.3695  0.1465  0.1728
 4602SOL     OW18173   4.957   4.038   5.854  0.8994 -0.4819  0.1014
 4602SOL    HW218174   4.966   3.943   5.859  2.3761 -0.3148  1.1849
 4602SOL    HW318175   4.862   4.053   5.851  0.6626 -2.0020 -0.8591
 4602SOL    MW418176   4.945   4.028   5.855  1.0630 -0.6604  0.1176
 4603SOL     OW18177   3.687   4.615   2.390  0.2450 -0.2759 -0.0745
 4603SOL    HW218178   3.607   4.563   2.391  0.3488 -0.4283  0.4176
 4603SOL    HW318179   3.732   4.592   2.471  0.6484  0.0263 -0.2087
 4603SOL    MW418180   3.682   4.605   2.401  0.3119 -0.2561 -0.0273
 4604SOL     OW18181   1.946   5.898   0.596  0.5137  0.2537  0.0236
 4604SOL    HW218182   2.015   5.835   0.618  1.1182  0.5208 -1.0239
 4604SOL    HW318183   1.993   5.971   0.556 -0.3031  0.8042  0.0669
 4604SOL    MW418184   1.962   5.899   0.594  0.4857  0.3616 -0.1089
 4605SOL     OW18185   1.214   1.396   4.669  0.1204 -0.2426 -0.1509
 4605SOL    HW218186   1.229   1.436   4.584  1.3187 -2.2292 -0.9770
 4605SOL    HW318187   1.291   1.339   4.682 -0.9410 -1.4347  1.3626
 4605SOL    MW418188   1.226   1.394   4.659  0.1384 -0.6620 -0.0602
 4606SOL     OW18189   0.028   3.141   5.091  0.6860  0.4462  0.0176
 4606SOL    HW218190   0.009   3.059   5.047 -1.2785  0.9080 -0.0701
 4606SOL    HW318191   0.101   3.120   5.151  0.7367 -1.1355 -0.5648
 4606SOL    MW418192   0.035   3.127   5.093  0.4335  0.2984 -0.0708
 4607SOL     OW18193   2.611   3.660   3.705 -0.5620 -0.3132 -0.1043
 4607SOL    HW218194   2.570   3.716   3.639 -0.1107 -0.2577 -0.3421
 4607SOL    HW318195   2.701   3.691   3.710 -0.6066 -0.2825  0.5798
 4607SOL    MW418196   2.618   3.671   3.697 -0.5084 -0.3018 -0.0454
 4608SOL     OW18197   6.354   1.409   0.753 -0.1371 -0.1490 -0.2487
 4608SOL    HW218198   6.335   1.448   0.838 -0.6824 -0.2458 -0.3248
 4608SOL    HW318199   6.370   1.317   0.771  0.3148 -0.0603 -0.1799
 4608SOL    MW418200   6.353   1.402   0.767 -0.1494 -0.1501 -0.2497
 4609SOL     OW18201   3.856   3.196   4.083  0.3998  0.3140 -0.4650
 4609SOL    HW218202   3.849   3.118   4.028 -0.3808 -0.2210  0.3572
 4609SOL    HW318203   3.902   3.166   4.162 -0.7426  0.4307  0.2697
 4609SOL    MW418204   3.861   3.182   4.086  0.1461  0.2588 -0.2596
 4610SOL     OW18205   2.221   6.328   2.628  0.7648 -0.0926  0.0600
 4610SOL    HW218206   2.215   6.304   2.536  0.5087 -0.3845  0.1544
 4610SOL    HW318207   2.305   6.292   2.657  0.0984 -1.4405  0.3686
 4610SOL    MW418208   2.232   6.320   2.620  0.6431 -0.3090  0.1132
 4611SOL     OW18209   0.654   4.424   4.192  0.4738  0.0041  0.8475
 4611SOL    HW218210   0.564   4.455   4.182  0.6509  0.5413  0.8702
 4611SOL    HW318211   0.694   4.487   4.252  0.9431 -0.0627  0.6105
 4611SOL    MW418212   0.648   4.437   4.198  0.5591  0.0662  0.8192
 4612SOL     OW18213   3.340   1.344   1.058  0.5015  0.3684  0.4830
 4612SOL    HW218214   3.345   1.433   1.022  1.2185  0.0611 -0.2170
 4612SOL    HW318215   3.431   1.319   1.071  0.3420 -0.5606 -0.0918
 4612SOL    MW418216   3.352   1.353   1.055  0.5751  0.2053  0.3148
 4613SOL     OW18217   3.912   5.091   3.943 -0.5286 -0.4513 -0.2072
 4613SOL    HW218218   3.925   4.998   3.959 -0.0585  0.1346  4.1530
 4613SOL    HW318219   3.935   5.133   4.026 -2.8262  3.3929 -1.2485
 4613SOL    MW418220   3.917   5.085   3.956 -0.7698  0.1332  0.2307
 4614SOL     OW18221   6.238   0.678   4.609  0.7067 -0.6466  0.0292
 4614SOL    HW218222   6.143   0.670   4.597  0.6685  0.7690 -0.8244
 4614SOL    HW318223   6.249   0.693   4.703 -0.0474  0.4781 -0.0351
 4614SOL    MW418224   6.227   0.679   4.620  0.6021 -0.3115 -0.0919
 4615SOL     OW18225   0.590   0.192   4.085  0.9823  0.3364  0.3980
 4615SOL    HW218226   0.552   0.195   4.173  0.7470  0.1011  0.3027
 4615SOL    HW318227   0.555   0.269   4.041  0.4928  0.0386  0.2604
 4615SOL    MW418228   0.580   0.203   4.091  0.8867  0.2661  0.3673
 4616SOL     OW18229   4.633   2.834   3.404  0.4413  0.0414 -0.3295
 4616SOL    HW218230   4.578   2.783   3.464 -1.3496  0.5714 -1.4450
 4616SOL    HW318231   4.710   2.856   3.455  0.6805 -2.6201  0.6290
 4616SOL    MW418232   4.636   2.830   3.418  0.2366 -0.2398 -0.3502
 4617SOL     OW18233   4.396   1.482   3.410 -0.2889 -0.5931 -0.2034
 4617SOL    HW218234   4.383   1.459   3.502  0.1931 -0.2539 -0.0452
 4617SOL    HW318235   4.412   1.398   3.367  0.4510 -0.6627  0.1946
 4617SOL    MW418236   4.397   1.468   3.416 -0.1277 -0.5575 -0.1300
 4618SOL     OW18237   3.533   4.056   1.250 -0.9865  0.0732  0.4633
 4618SOL    HW218238   3.475   4.101   1.189 -0.4940  1.6984  1.1421
 4618SOL    HW318239   3.474   4.007   1.308 -1.5112 -0.4730 -0.5099
 4618SOL    MW418240   3.518   4.055   1.250 -0.9908  0.2155  0.4245
 4619SOL     OW18241   5.301   0.839   1.285 -0.2429  0.6580  0.0913
 4619SOL    HW218242   5.280   0.763   1.231 -2.5316  0.5258  1.0363
 4619SOL    HW318243   5.394   0.856   1.269  0.3244 -2.2810 -0.1816
 4619SOL    MW418244   5.310   0.832   1.276 -0.4700  0.2528  0.1800
 4620SOL     OW18245   4.530   1.659   0.987  0.2721  0.2245  0.3841
 4620SOL    HW218246   4.467   1.608   0.936  1.6965 -1.1893 -0.0579
 4620SOL    HW318247   4.603   1.674   0.926  1.1434  0.2369  1.3929
 4620SOL    MW418248   4.532   1.654   0.972  0.5750  0.0396  0.4589
 4621SOL     OW18249   1.081   5.324   1.842 -0.2763 -0.1395  0.2632
 4621SOL    HW218250   1.106   5.414   1.824 -0.9423 -0.3846 -2.2589
 4621SOL    HW318251   1.016   5.330   1.912 -0.8815  1.4134 -0.3984
 4621SOL    MW418252   1.076   5.337   1.849 -0.4440  0.0330 -0.1568
 4622SOL     OW18253   4.193   3.963   0.515 -0.4888 -0.4550  0.3237
 4622SOL    HW218254   4.111   3.940   0.470  0.0416  0.1771 -1.0374
 4622SOL    HW318255   4.173   4.046   0.558 -0.9426 -0.9556  1.0843
 4622SOL    MW418256   4.179   3.971   0.514 -0.4787 -0.4376  0.2445
 4623SOL     OW18257   2.784   4.777   0.574  0.2563 -0.1905 -0.4634
 4623SOL    HW218258   2.851   4.711   0.559  0.2088 -0.9828  2.2953
 4623SOL    HW318259   2.832   4.860   0.572  0.7384 -0.4758 -1.5773
 4623SOL    MW418260   2.799   4.779   0.572  0.3136 -0.3327 -0.2464
 4624SOL     OW18261   2.647   5.497   6.260  0.3540 -0.5904 -0.0086
 4624SOL    HW218262   2.616   5.518   6.349  0.1839 -1.0863  0.0519
 4624SOL    HW318263   2.742   5.498   6.267  0.3502  0.1282  0.0004
 4624SOL    MW418264   2.655   5.500   6.273  0.3310 -0.5610  0.0006
 4625SOL     OW18265   4.632   0.040   3.035  0.0654 -0.4652 -0.9197
 4625SOL    HW218266   4.538   0.031   3.053  0.1118  0.7722  0.1194
 4625SOL    HW318267   4.638   0.051   2.940 -0.8356 -0.6857 -1.0107
 4625SOL    MW418268   4.620   0.040   3.025 -0.0474 -0.3310 -0.7946
 4626SOL     OW18269   2.051   4.674   0.302 -0.0617 -0.0616 -0.0561
 4626SOL    HW218270   2.085   4.660   0.391  0.1782  0.2440 -0.0995
 4626SOL    HW318271   2.049   4.587   0.263  3.4647  0.1742 -1.0808
 4626SOL    MW418272   2.055   4.661   0.309  0.4352  0.0099 -0.1970
 4627SOL     OW18273   1.668   3.258   2.758 -0.5127 -0.0033  0.3298
 4627SOL    HW218274   1.604   3.319   2.722  0.2728  0.9055  0.4273
 4627SOL    HW318275   1.701   3.300   2.837  3.7982  2.0975 -2.1851
 4627SOL    MW418276   1.664   3.272   2.763  0.1597  0.3938  0.0109
 4628SOL     OW18277   0.818   4.663   5.972 -0.1956 -0.5013  0.0772
 4628SOL    HW218278   0.788   4.689   5.885 -1.5119 -1.4283  0.2216
 4628SOL    HW318279   0.878   4.733   5.999 -0.6682  0.3863 -1.0945
 4628SOL    MW418280   0.822   4.676   5.964 -0.4316 -0.5065 -0.0584
 4629SOL     OW18281   0.663   2.442   5.485 -0.6132  0.7107 -0.2839
 4629SOL    HW218282   0.577   2.423   5.448  1.0622 -2.6018 -3.0448
 4629SOL    HW318283   0.674   2.378   5.555  0.3143 -0.3051 -1.3163
 4629SOL    MW418284   0.653   2.431   5.490 -0.2698  0.1397 -0.7844
 4630SOL     OW18285   1.835   6.033   3.226 -0.2987 -0.1997 -0.2318
 4630SOL    HW218286   1.795   5.992   3.149 -0.0775 -0.9258  0.0269
 4630SOL    HW318287   1.766   6.031   3.292 -0.6778  0.9464 -0.5699
 4630SOL    MW418288   1.821   6.027   3.225 -0.3196 -0.1443 -0.2423
 4631SOL     OW18289   0.035   3.614   3.008 -0.1628 -0.2253  0.1304
 4631SOL    HW218290   0.086   3.537   3.030  0.0696  0.1931  1.1103
 4631SOL    HW318291  -0.035   3.617   3.073  0.4525  0.9538  0.7890
 4631SOL    MW418292   0.032   3.604   3.019 -0.0509 -0.0145  0.3466
 4632SOL     OW18293   4.549   6.304   0.153 -0.5053 -0.4086 -0.8954
 4632SOL    HW218294   4.586   6.223   0.118 -0.9408 -0.2971 -1.6357
 4632SOL    HW318295   4.458   6.284   0.172 -0.3897 -0.3371 -0.2338
 4632SOL    MW418296   4.542   6.291   0.151 -0.5475 -0.3845 -0.9058
 4633SOL     OW18297   5.326   2.858   2.155  0.3456  0.7813  1.1853
 4633SOL    HW218298   5.304   2.939   2.109  0.1619  0.2807  0.3744
 4633SOL    HW318299   5.242   2.823   2.185  0.1546 -0.2504 -0.4300
 4633SOL    MW418300   5.312   2.864   2.153  0.2962  0.5791  0.8652
 4634SOL     OW18301   4.874   3.571   3.380  0.3907 -0.3086  0.0742
 4634SOL    HW218302   4.887   3.524   3.297  0.9160  1.2596 -0.7789
 4634SOL    HW318303   4.961   3.572   3.421  0.3930 -0.0486  0.0641
 4634SOL    MW418304   4.887   3.565   3.374  0.4603 -0.0674 -0.0397
 4635SOL     OW18305   0.517   0.110   0.372 -0.1468 -0.0019 -0.4111
 4635SOL    HW218306   0.506   0.018   0.398  0.3721 -0.0540 -0.3591
 4635SOL    HW318307   0.503   0.159   0.453  1.8840 -0.1901  0.1204
 4635SOL    MW418308   0.514   0.104   0.386  0.1896 -0.0336 -0.3341
 4636SOL     OW18309   1.131   0.056   4.952 -0.0680 -0.1291  0.2366
 4636SOL    HW218310   1.137   0.151   4.954 -1.1391 -0.0590  1.4719
 4636SOL    HW318311   1.104   0.035   4.862  1.3882  0.6202 -0.4022
 4636SOL    MW418312   1.128   0.066   4.940 -0.0172 -0.0210  0.3153
 4637SOL     OW18313   5.102   4.530   4.326 -0.0686 -0.8412 -0.2707
 4637SOL    HW218314   5.079   4.563   4.239 -1.1335  0.1221  0.3543
 4637SOL    HW318315   5.146   4.603   4.368 -0.4244 -0.9691  0.3342
 4637SOL    MW418316   5.105   4.544   4.320 -0.2560 -0.7310 -0.1084
 4638SOL     OW18317   3.472   0.115   5.325 -0.1395 -0.5667 -0.4066
 4638SOL    HW218318   3.562   0.097   5.299  0.1386 -0.5008  0.4797
 4638SOL    HW318319   3.465   0.081   5.415 -0.9897 -0.5632 -0.4605
 4638SOL    MW418320   3.483   0.108   5.334 -0.2150 -0.5575 -0.2968
 4639SOL     OW18321   2.786   2.475   0.384  0.3369  0.3323 -0.2868
 4639SOL    HW218322   2.717   2.427   0.431 -0.5948 -0.5710 -2.4386
 4639SOL    HW318323   2.738   2.541   0.334  1.2837  1.1809 -0.0994
 4639SOL    MW418324   2.770   2.477   0.383  0.3389  0.3251 -0.5459
 4640SOL     OW18325   3.791   6.203   3.080  0.5086  0.4374  0.4762
 4640SOL    HW218326   3.855   6.212   3.009  1.1157  1.0079  1.0880
 4640SOL    HW318327   3.788   6.109   3.097  1.1713  0.4021  0.4287
 4640SOL    MW418328   3.799   6.192   3.073  0.6762  0.5080  0.5507
 4641SOL     OW18329   0.368   3.745   4.298 -0.0572 -0.0245 -0.3209
 4641SOL    HW218330   0.302   3.704   4.242 -0.7741  1.2363 -0.4351
 4641SOL    HW318331   0.318   3.780   4.372  0.5853  0.3388 -0.0466
 4641SOL    MW418332   0.353   3.744   4.300 -0.0670  0.1898 -0.2998
 4642SOL     OW18333   0.055   1.909   3.672 -0.4329  0.6006  0.6865
 4642SOL    HW218334  -0.035   1.930   3.646 -0.7336  1.0631  2.0383
 4642SOL    HW318335   0.056   1.813   3.681 -0.1427  0.3386 -1.5576
 4642SOL    MW418336   0.043   1.899   3.670 -0.4343  0.6271  0.5688
 4643SOL     OW18337   4.682   3.861   5.134 -0.8706 -0.3270  0.3415
 4643SOL    HW218338   4.616   3.921   5.100 -2.6671 -1.9047  0.8904
 4643SOL    HW318339   4.699   3.891   5.223  2.0512  2.3414 -0.9373
 4643SOL    MW418340   4.676   3.873   5.141 -0.7221 -0.1831  0.2452
 4644SOL     OW18341   4.733   2.222   0.331 -0.0076 -0.1267 -0.1048
 4644SOL    HW218342   4.760   2.132   0.348 -2.1410 -0.8077 -0.0628
 4644SOL    HW318343   4.713   2.224   0.238 -0.8974  0.0112  0.0770
 4644SOL    MW418344   4.734   2.210   0.321 -0.4065 -0.1983 -0.0753
 4645SOL     OW18345   2.215   0.122   0.608 -0.0372 -0.2262  0.4439
 4645SOL    HW218346   2.224   0.142   0.515 -0.1604  0.6498  0.6107
 4645SOL    HW318347   2.304   0.121   0.642 -0.0374  0.2726  0.4711
 4645SOL    MW418348   2.228   0.125   0.601 -0.0535 -0.0448  0.4695
 4646SOL     OW18349   4.862   0.375   4.348 -0.5844  0.0586  0.2241
 4646SOL    HW218350   4.784   0.363   4.294  0.1704  0.4472 -1.0015
 4646SOL    HW318351   4.840   0.336   4.432 -1.2143 -2.1246 -0.8863
 4646SOL    MW418352   4.849   0.369   4.352 -0.5679 -0.1782 -0.0841
 4647SOL     OW18353   1.151   4.634   4.585 -0.9976 -0.2257 -0.1912
 4647SOL    HW218354   1.172   4.547   4.550 -2.8081 -0.5360 -0.6046
 4647SOL    HW318355   1.071   4.621   4.635 -1.7523  1.3486 -0.9288
 4647SOL    MW418356   1.144   4.621   4.587 -1.3361 -0.0589 -0.3431
 4648SOL     OW18357   2.573   0.277   2.194  0.2378 -0.5655 -0.3747
 4648SOL    HW218358   2.573   0.198   2.248  1.3170 -0.6888 -0.5303
 4648SOL    HW318359   2.602   0.246   2.108  1.1111  0.0616 -0.3160
 4648SOL    MW418360   2.577   0.262   2.190  0.4954 -0.4991 -0.3875
 4649SOL     OW18361   2.787   4.648   2.617  0.7010 -0.5718 -0.3403
 4649SOL    HW218362   2.863   4.678   2.667  0.6835 -2.2950  0.8111
 4649SOL    HW318363   2.825   4.606   2.540  0.8171  0.2372 -0.7336
 4649SOL    MW418364   2.802   4.647   2.614  0.7140 -0.6924 -0.2403
 4650SOL     OW18365   2.044   6.417   1.943 -0.3448  0.5986 -0.5134
 4650SOL    HW218366   2.037   6.493   1.885 -2.7404  0.2201 -0.7927
 4650SOL    HW318367   1.981   6.434   2.013  1.0069  0.0702  0.8982
 4650SOL    MW418368   2.035   6.429   1.945 -0.4825  0.4790 -0.3640
 4651SOL     OW18369   4.111   1.883   0.569 -0.3229  0.6701 -0.4107
 4651SOL    HW218370   4.179   1.946   0.547  0.5888 -0.2050 -0.1548
 4651SOL    HW318371   4.029   1.932   0.559  0.3202  1.6652 -0.9631
 4651SOL    MW418372   4.109   1.898   0.565 -0.1177  0.6859 -0.4498
 4652SOL     OW18373   4.356   3.338   4.781  0.4030 -0.0378  0.0758
 4652SOL    HW218374   4.270   3.372   4.803  1.0663  2.7502 -1.1626
 4652SOL    HW318375   4.350   3.244   4.798 -2.4101  0.2652  1.3278
 4652SOL    MW418376   4.344   3.331   4.786  0.1194  0.3700  0.0776
 4653SOL     OW18377   0.830   4.985   0.671 -0.0482 -0.4807 -0.0415
 4653SOL    HW218378   0.924   4.994   0.682 -0.1938 -0.4746  1.5013
 4653SOL    HW318379   0.815   4.992   0.577  1.4572 -0.2455 -0.2808
 4653SOL    MW418380   0.840   4.987   0.660  0.1312 -0.4489  0.1305
 4654SOL     OW18381   6.018   6.384   1.842  0.6068  0.4891  0.0494
 4654SOL    HW218382   5.964   6.410   1.768 -2.1393 -1.2265  1.2820
 4654SOL    HW318383   5.988   6.438   1.915  2.2860  1.1630  0.2952
 4654SOL    MW418384   6.007   6.394   1.842  0.4660  0.3516  0.2444
 4655SOL     OW18385   0.172   0.808   3.193  0.4921  0.0335 -0.0274
 4655SOL    HW218386   0.199   0.898   3.174 -1.4627  0.7680  0.4800
 4655SOL    HW318387   0.109   0.786   3.125  0.8057 -0.8999 -0.0354
 4655SOL    MW418388   0.167   0.817   3.182  0.2756  0.0073  0.0385
 4656SOL     OW18389   4.891   2.279   4.188  0.6064 -0.7145  0.3767
 4656SOL    HW218390   4.863   2.234   4.108  1.7761  1.5872 -1.4600
 4656SOL    HW318391   4.978   2.244   4.206  0.4471 -1.0474  0.5154
 4656SOL    MW418392   4.899   2.268   4.180  0.7397 -0.4548  0.1527
 4657SOL     OW18393   5.866   2.155   5.189  0.1191  0.2298  0.0652
 4657SOL    HW218394   5.947   2.151   5.137 -0.3881 -0.0610 -0.7137
 4657SOL    HW318395   5.832   2.066   5.188 -0.4874  0.4596 -0.0539
 4657SOL    MW418396   5.872   2.143   5.182 -0.0279  0.2217 -0.0533
 4658SOL     OW18397   0.256   3.444   2.738 -0.5433  0.2533 -0.2357
 4658SOL    HW218398   0.279   3.537   2.735 -1.9910  0.7122  1.5359
 4658SOL    HW318399   0.161   3.443   2.743 -0.6040 -1.3844 -1.1766
 4658SOL    MW418400   0.247   3.456   2.738 -0.7423  0.0978 -0.1261
 4659SOL     OW18401   4.900   0.695   5.480 -0.6810 -0.1551  0.0363
 4659SOL    HW218402   4.835   0.676   5.413 -0.9828 -2.9661  0.9865
 4659SOL    HW318403   4.850   0.735   5.551 -0.9838 -0.2398 -0.1285
 4659SOL    MW418404   4.885   0.698   5.481 -0.7608 -0.5372  0.1399
 4660SOL     OW18405   3.878   2.596   0.947  0.2437  0.2357  0.1142
 4660SOL    HW218406   3.795   2.625   0.985  0.8581  0.9212  0.9777
 4660SOL    HW318407   3.863   2.503   0.927 -0.4340  0.0915  1.1582
 4660SOL    MW418408   3.865   2.587   0.949  0.2353  0.3071  0.3658
 4661SOL     OW18409   2.367   3.120   4.729  0.1900  0.3015 -0.0603
 4661SOL    HW218410   2.350   3.026   4.736  0.4726  0.3075  0.8211
 4661SOL    HW318411   2.351   3.141   4.637  1.0664 -0.8018 -0.4854
 4661SOL    MW418412   2.363   3.111   4.718  0.3429  0.1567 -0.0001
 4662SOL     OW18413   1.237   3.233   2.029  0.3563  0.4741  0.1545
 4662SOL    HW218414   1.177   3.194   1.964  0.7711 -0.2093  0.1724
 4662SOL    HW318415   1.248   3.323   1.999 -0.6945  0.6236  0.1610
 4662SOL    MW418416   1.231   3.240   2.016  0.2724  0.4036  0.1577
 4663SOL     OW18417   1.516   2.726   2.279 -0.2655 -0.0625  0.1436
 4663SOL    HW218418   1.435   2.703   2.324  0.2332  1.1879  1.7820
 4663SOL    HW318419   1.570   2.767   2.346  1.6018 -0.5343 -0.9963
 4663SOL    MW418420   1.512   2.729   2.294  0.0467  0.0402  0.2094
 4664SOL     OW18421   4.223   1.693   0.374 -0.0574 -0.1527  0.1068
 4664SOL    HW218422   4.200   1.764   0.434 -0.2019  1.2896 -1.6038
 4664SOL    HW318423   4.159   1.624   0.394 -2.4030  1.6404 -0.7182
 4664SOL    MW418424   4.211   1.693   0.385 -0.3859  0.2741 -0.2278
 4665SOL     OW18425   3.774   5.697   0.977  0.2034 -0.3423 -0.1039
 4665SOL    HW218426   3.789   5.716   0.885 -1.0211 -3.1811 -1.0037
 4665SOL    HW318427   3.861   5.680   1.013  0.8063  1.8656 -0.3910
 4665SOL    MW418428   3.788   5.697   0.970  0.1214 -0.4255 -0.2605
 4666SOL     OW18429   5.306   4.771   4.559 -0.7295  0.5266 -0.6105
 4666SOL    HW218430   5.350   4.794   4.641 -1.4135  1.6320 -0.5337
 4666SOL    HW318431   5.353   4.693   4.528  0.4711  0.9420  0.0862
 4666SOL    MW418432   5.318   4.764   4.566 -0.6614  0.7273 -0.5084
 4667SOL     OW18433   5.019   4.559   4.039  0.2151 -0.2605 -0.8537
 4667SOL    HW218434   4.945   4.533   4.094  0.6700  0.3439  0.0931
 4667SOL    HW318435   5.078   4.484   4.040 -0.2537 -0.6392 -1.3806
 4667SOL    MW418436   5.017   4.546   4.047  0.2132 -0.2308 -0.7983
 4668SOL     OW18437   0.288   6.425   0.819  0.2970 -0.8718 -0.0622
 4668SOL    HW218438   0.270   6.518   0.803  0.5113 -0.8732 -0.3332
 4668SOL    HW318439   0.222   6.379   0.768 -1.2260 -0.8719  1.8243
 4668SOL    MW418440   0.277   6.431   0.810  0.1243 -0.8720  0.1509
 4669SOL     OW18441   1.533   4.594   5.998  0.4620  0.2504 -0.5572
 4669SOL    HW218442   1.486   4.512   6.017 -1.6618  1.0280 -2.1080
 4669SOL    HW318443   1.589   4.607   6.074  1.7314 -3.1964 -0.7147
 4669SOL    MW418444   1.534   4.585   6.011  0.3492 -0.1018 -0.7826
 4670SOL     OW18445   5.746   4.281   3.673 -0.2270  0.2049  0.2480
 4670SOL    HW218446   5.805   4.239   3.736  2.4066  1.0172 -1.4860
 4670SOL    HW318447   5.658   4.257   3.702  0.9785 -3.2630  1.5353
 4670SOL    MW418448   5.742   4.272   3.686  0.2795 -0.1455  0.1891
 4671SOL     OW18449   6.114   3.081   3.996 -0.2834 -0.3450  0.1533
 4671SOL    HW218450   6.098   3.095   4.090  0.9314  0.2251  0.2972
 4671SOL    HW318451   6.202   3.115   3.982 -0.4454 -0.4537 -1.2044
 4671SOL    MW418452   6.123   3.087   4.007 -0.1445 -0.2842 -0.0069
 4672SOL     OW18453   6.289   5.617   5.879  0.3842 -0.6690  0.2462
 4672SOL    HW218454   6.274   5.706   5.846 -1.1048 -1.3168 -0.9494
 4672SOL    HW318455   6.370   5.624   5.929  0.3740  1.3334  0.0899
 4672SOL    MW418456   6.297   5.630   5.881  0.1864 -0.4903  0.0678
 4673SOL     OW18457   1.090   6.043   1.239  0.3453  0.2923 -0.5953
 4673SOL    HW218458   1.103   6.076   1.328  0.0896 -0.9873 -0.0642
 4673SOL    HW318459   1.133   5.958   1.238  1.9825  1.0573 -2.2716
 4673SOL    MW418460   1.097   6.036   1.250  0.5276  0.2244 -0.7464
 4674SOL     OW18461   5.518   2.386   6.330  0.0092  0.0457  0.2445
 4674SOL    HW218462   5.594   2.357   6.279  1.0057  1.5326  0.8196
 4674SOL    HW318463   5.469   2.442   6.269 -0.0324 -0.0162  0.2203
 4674SOL    MW418464   5.521   2.389   6.315  0.1352  0.2337  0.3172
 4675SOL     OW18465   0.841   0.514   3.139  0.3879  0.1827 -0.5921
 4675SOL    HW218466   0.828   0.477   3.051 -0.0792 -0.0643 -0.4190
 4675SOL    HW318467   0.766   0.572   3.152  0.9174  0.9066 -0.7054
 4675SOL    MW418468   0.830   0.517   3.129  0.3961  0.2456 -0.5842
 4676SOL     OW18469   2.184   5.682   3.827  0.1532  0.2982 -0.1060
 4676SOL    HW218470   2.213   5.610   3.770 -0.7337 -0.0453 -0.1505
 4676SOL    HW318471   2.184   5.644   3.915  1.1190  0.7037  0.0797
 4676SOL    MW418472   2.188   5.667   3.831  0.1637  0.3064 -0.0873
 4677SOL     OW18473   0.333   1.999   2.814  0.2183 -0.0799  0.2126
 4677SOL    HW218474   0.261   2.023   2.755  0.8069 -0.4099 -0.6483
 4677SOL    HW318475   0.400   2.066   2.799 -0.1800  0.6677  1.5621
 4677SOL    MW418476   0.332   2.011   2.804  0.2434 -0.0248  0.2771
 4678SOL     OW18477   1.602   3.927   2.649  0.0933 -0.1280 -0.0371
 4678SOL    HW218478   1.519   3.923   2.602  0.8448  1.3215 -1.6165
 4678SOL    HW318479   1.618   3.838   2.678 -1.5312 -0.6175 -0.5753
 4678SOL    MW418480   1.593   3.915   2.647 -0.0219 -0.0014 -0.3165
 4679SOL     OW18481   4.550   3.288   3.852  0.0565 -0.6924  0.1678
 4679SOL    HW218482   4.591   3.218   3.801 -0.2902 -0.9044  0.1796
 4679SOL    HW318483   4.580   3.273   3.942  0.0773 -0.7546  0.1504
 4679SOL    MW418484   4.559   3.277   3.857  0.0135 -0.7286  0.1670
 4680SOL     OW18485   5.711   4.266   0.482  0.4105  0.6599 -0.6438
 4680SOL    HW218486   5.800   4.287   0.508  0.3527  1.6829 -1.2421
 4680SOL    HW318487   5.665   4.249   0.565  0.8844  1.2239 -0.2602
 4680SOL    MW418488   5.717   4.266   0.496  0.4654  0.8693 -0.6722
 4681SOL     OW18489   0.969   3.518   3.719  0.8507 -0.2800  0.4868
 4681SOL    HW218490   0.922   3.599   3.739  1.3232  0.3462 -0.8094
 4681SOL    HW318491   0.989   3.480   3.805 -2.5858 -0.9715  1.1295
 4681SOL    MW418492   0.965   3.524   3.733  0.4597 -0.2886  0.4006
 4682SOL     OW18493   5.084   0.306   2.144  0.1165 -0.2014  0.0081
 4682SOL    HW218494   5.021   0.330   2.212 -0.4096  3.1425 -1.4803
 4682SOL    HW318495   5.163   0.355   2.167 -0.0644  0.9594 -1.6739
 4682SOL    MW418496   5.086   0.316   2.156  0.0232  0.3930 -0.4102
 4683SOL     OW18497   5.839   6.211   5.567 -0.2250  0.2039 -0.4393
 4683SOL    HW218498   5.805   6.145   5.626 -0.0357  1.0373  0.6278
 4683SOL    HW318499   5.763   6.238   5.515 -1.2388  1.8438  1.7279
 4683SOL    MW418500   5.824   6.206   5.568 -0.3338  0.5303 -0.0125
 4684SOL     OW18501   2.452   6.018   5.391 -0.2872  0.0568  0.0400
 4684SOL    HW218502   2.407   5.964   5.326 -0.7534 -0.6494  0.9403
 4684SOL    HW318503   2.498   6.084   5.338 -0.4731 -0.6290 -1.0245
 4684SOL    MW418504   2.452   6.019   5.375 -0.3732 -0.1268  0.0183
 4685SOL     OW18505   5.412   2.287   2.541  0.0824  0.6419  0.3097
 4685SOL    HW218506   5.472   2.297   2.467  1.3362  1.1316  1.3511
 4685SOL    HW318507   5.325   2.294   2.503  0.7072  1.3847 -1.0393
 4685SOL    MW418508   5.409   2.289   2.526  0.3302  0.8045  0.2691
 4686SOL     OW18509   4.241   1.870   5.921 -0.6851  0.0905 -0.3760
 4686SOL    HW218510   4.209   1.830   5.840 -1.1333  0.0084 -0.1652
 4686SOL    HW318511   4.211   1.810   5.990  0.1075 -0.0917 -0.1877
 4686SOL    MW418512   4.233   1.857   5.920 -0.6397  0.0557 -0.3234
 4687SOL     OW18513   1.075   1.979   4.811 -0.2189  0.7694  0.0939
 4687SOL    HW218514   1.136   1.907   4.825 -1.1458  0.0577  0.5799
 4687SOL    HW318515   1.023   1.983   4.891 -0.7259  1.4405 -0.2553
 4687SOL    MW418516   1.076   1.970   4.823 -0.4081  0.7641  0.1120
 4688SOL     OW18517   5.736   0.940   3.626 -0.2511  0.4184  0.4588
 4688SOL    HW218518   5.782   0.866   3.666 -0.7405 -0.3009 -0.2725
 4688SOL    HW318519   5.649   0.937   3.664  0.2162  1.6803  1.7185
 4688SOL    MW418520   5.731   0.930   3.636 -0.2540  0.4900  0.5285
 4689SOL     OW18521   2.458   0.900   0.492 -0.0340 -0.5555  0.6811
 4689SOL    HW218522   2.443   0.993   0.480 -2.5051 -1.0662 -0.9237
 4689SOL    HW318523   2.483   0.868   0.406  0.2764 -1.4481  1.0905
 4689SOL    MW418524   2.459   0.908   0.479 -0.3191 -0.7406  0.5234
 4690SOL     OW18525   1.171   0.253   2.740 -0.0860 -0.4511  0.4879
 4690SOL    HW218526   1.213   0.288   2.661  0.5245 -0.6666  0.7109
 4690SOL    HW318527   1.244   0.227   2.796 -0.5048  0.0417  1.2776
 4690SOL    MW418528   1.187   0.254   2.737 -0.0607 -0.4145  0.6215
 4691SOL     OW18529   1.922   0.755   4.102  0.0154  0.3012  0.0886
 4691SOL    HW218530   1.945   0.663   4.110 -2.4651 -0.3053  1.3120
 4691SOL    HW318531   2.006   0.801   4.097  1.3276 -1.9225  0.4530
 4691SOL    MW418532   1.936   0.749   4.102 -0.1387 -0.0722  0.2981
 4692SOL     OW18533   0.195   4.416   5.276  0.6526  0.2664  0.0643
 4692SOL    HW218534   0.194   4.377   5.364 -0.9714  0.6405  0.2414
 4692SOL    HW318535   0.276   4.467   5.274  0.3896  0.8030  1.6038
 4692SOL    MW418536   0.206   4.418   5.287  0.4036  0.3866  0.2908
 4693SOL     OW18537   4.655   1.049   4.310 -0.0745  0.5913  0.6245
 4693SOL    HW218538   4.607   1.089   4.237  1.2428 -0.7050 -1.0163
 4693SOL    HW318539   4.602   0.972   4.333  0.0161  0.4564  0.3821
 4693SOL    MW418540   4.641   1.044   4.303  0.1113  0.4025  0.3760
 4694SOL     OW18541   2.688   1.496   5.245  0.1923  0.4430 -0.3342
 4694SOL    HW218542   2.704   1.425   5.307 -0.2048  1.3432  0.8351
 4694SOL    HW318543   2.624   1.552   5.289 -0.9832  0.5101 -2.0464
 4694SOL    MW418544   2.682   1.494   5.259 -0.0152  0.5706 -0.4058
 4695SOL     OW18545   3.174   5.294   3.808 -0.1150 -0.3286 -0.7749
 4695SOL    HW218546   3.202   5.344   3.731 -1.1835  1.0192 -0.3257
 4695SOL    HW318547   3.169   5.359   3.878 -1.5794 -1.0477 -0.1734
 4695SOL    MW418548   3.177   5.309   3.807 -0.4492 -0.2457 -0.6363
 4696SOL     OW18549   5.071   0.011   1.205  0.3381 -0.3845  0.1632
 4696SOL    HW218550   5.153  -0.021   1.243  0.7683  0.4461 -0.0159
 4696SOL    HW318551   5.071   0.105   1.225 -0.3262 -0.2808 -0.2858
 4696SOL    MW418552   5.082   0.019   1.213  0.3072 -0.2612  0.0803
 4697SOL     OW18553   1.019   0.060   4.668  0.1533  0.0601  0.5070
 4697SOL    HW218554   0.987  -0.030   4.680 -0.2644  0.4604  2.9577
 4697SOL    HW318555   0.941   0.114   4.679  0.5069  0.7755 -0.3862
 4697SOL    MW418556   1.005   0.055   4.671  0.1448  0.2073  0.7125
 4698SOL     OW18557   1.842   1.400   6.033  0.6263 -0.3874 -0.7889
 4698SOL    HW218558   1.904   1.382   6.103  0.3115 -1.2939 -0.7412
 4698SOL    HW318559   1.756   1.390   6.073  0.4429 -0.5994 -1.2275
 4698SOL    MW418560   1.839   1.397   6.048  0.5606 -0.5349 -0.8404
 4699SOL     OW18561   2.253   1.393   4.497 -0.1820  0.4557 -0.1328
 4699SOL    HW218562   2.333   1.344   4.479 -1.4304 -1.9774  0.5003
 4699SOL    HW318563   2.266   1.427   4.586  0.0812 -0.0935  0.0465
 4699SOL    MW418564   2.266   1.391   4.507 -0.3120  0.0622 -0.0256
 4700SOL     OW18565   1.418   5.036   4.981 -0.1934 -0.3155  0.3251
 4700SOL    HW218566   1.437   4.942   4.973  0.4664 -0.3371  1.7032
 4700SOL    HW318567   1.497   5.072   5.022 -1.0003  0.5950  1.1151
 4700SOL    MW418568   1.431   5.028   4.985 -0.2128 -0.1982  0.6112
 4701SOL     OW18569   2.191   6.272   2.345 -0.0343 -0.6357 -0.2083
 4701SOL    HW218570   2.147   6.353   2.318 -0.4700 -0.8321 -0.0988
 4701SOL    HW318571   2.128   6.203   2.326  0.2696 -0.9334 -0.1408
 4701SOL    MW418572   2.177   6.274   2.339 -0.0517 -0.7009 -0.1849
 4702SOL     OW18573   0.087   5.024   3.263 -0.2842 -0.3622  0.1661
 4702SOL    HW218574   0.102   5.071   3.181  1.2768 -1.7918 -0.4237
 4702SOL    HW318575  -0.008   5.021   3.272 -0.4743  0.1028 -1.4348
 4702SOL    MW418576   0.077   5.030   3.254 -0.1033 -0.4895 -0.1229
 4703SOL     OW18577   5.973   4.586   6.118 -0.3448  0.5779  1.0930
 4703SOL    HW218578   5.956   4.590   6.024  1.2415 -1.5564  0.6145
 4703SOL    HW318579   5.917   4.515   6.149 -0.6727  1.1070  1.7296
 4703SOL    MW418580   5.964   4.577   6.110 -0.1787  0.3661  1.1139
 4704SOL     OW18581   1.748   4.994   1.937  0.0266  0.4961 -0.0409
 4704SOL    HW218582   1.730   5.080   1.898  1.4229  0.8321 -0.0023
 4704SOL    HW318583   1.833   4.969   1.901 -0.5494 -1.0809 -0.3753
 4704SOL    MW418584   1.757   5.002   1.927  0.1348  0.3323 -0.0799
 4705SOL     OW18585   3.169   0.897   3.152  0.0977 -0.1135 -0.1065
 4705SOL    HW218586   3.114   0.976   3.149 -0.6301 -0.6168 -2.5910
 4705SOL    HW318587   3.108   0.826   3.171  0.5083 -0.2605  0.6779
 4705SOL    MW418588   3.153   0.898   3.154  0.0559 -0.1993 -0.3308
 4706SOL     OW18589   1.824   4.911   5.680 -0.5249  0.3590 -0.2619
 4706SOL    HW218590   1.742   4.961   5.679 -0.2506  0.8702 -2.7322
 4706SOL    HW318591   1.808   4.837   5.621  0.0537 -0.8633  1.0600
 4706SOL    MW418592   1.811   4.907   5.672 -0.4123  0.2652 -0.4134
 4707SOL     OW18593   3.734   5.881   4.009  0.1702  0.5613  0.5053
 4707SOL    HW218594   3.763   5.972   4.008  3.3596 -0.3209 -0.5150
 4707SOL    HW318595   3.762   5.848   4.095  2.1769 -0.2297 -0.3833
 4707SOL    MW418596   3.741   5.889   4.021  0.8557  0.3405  0.2534
 4708SOL     OW18597   5.028   0.581   4.354 -0.2007  0.7739  0.1955
 4708SOL    HW218598   4.958   0.515   4.360 -0.4072  1.0337  0.7287
 4708SOL    HW318599   5.053   0.581   4.262  0.1698 -0.4276  0.2854
 4708SOL    MW418600   5.022   0.572   4.343 -0.1790  0.6497  0.2777
 4709SOL     OW18601   5.026   0.343   0.964  0.2812 -0.5560  0.5854
 4709SOL    HW218602   5.050   0.275   0.902 -0.8976 -1.2364  0.8575
 4709SOL    HW318603   5.040   0.425   0.916 -0.3702 -1.0607 -0.4962
 4709SOL    MW418604   5.031   0.345   0.949  0.0397 -0.7124  0.4786
 4710SOL     OW18605   2.888   4.013   2.930 -0.6232  0.4554  0.0274
 4710SOL    HW218606   2.799   4.034   2.958 -1.2482 -0.3162 -1.2987
 4710SOL    HW318607   2.899   3.920   2.952 -0.0691  0.5976  0.3635
 4710SOL    MW418608   2.878   4.003   2.937 -0.6325  0.3723 -0.1032
 4711SOL     OW18609   0.283   1.272   5.817  0.8510 -0.1574 -0.0432
 4711SOL    HW218610   0.223   1.251   5.745  0.9700 -2.0202  0.3596
 4711SOL    HW318611   0.357   1.212   5.805  1.0313 -0.2521  1.4146
 4711SOL    MW418612   0.284   1.261   5.806  0.8905 -0.4157  0.2023
 4712SOL     OW18613   1.717   3.243   6.372 -0.0205  0.1996  0.3463
 4712SOL    HW218614   1.638   3.249   6.426  0.4487 -1.2862  1.2657
 4712SOL    HW318615   1.706   3.311   6.305 -1.4939  0.8397  1.1867
 4712SOL    MW418616   1.705   3.253   6.371 -0.1530  0.0880  0.5785
 4713SOL     OW18617   4.987   3.168   2.263  0.2064  0.2632 -0.1281
 4713SOL    HW218618   5.056   3.148   2.327  0.1931  2.2276  0.5914
 4713SOL    HW318619   4.938   3.087   2.255  2.2091 -1.0158 -0.1820
 4713SOL    MW418620   4.990   3.155   2.271  0.4689  0.3536 -0.0403
 4714SOL     OW18621   4.428   6.187   1.111 -0.0297  0.2710  0.3013
 4714SOL    HW218622   4.507   6.228   1.076 -0.4989  2.1193  1.2910
 4714SOL    HW318623   4.358   6.249   1.091 -1.1897 -1.1296 -0.1565
 4714SOL    MW418624   4.429   6.200   1.104 -0.2447  0.3301  0.3715
 4715SOL     OW18625   2.505   3.305   1.416 -0.2898 -0.2655  0.3861
 4715SOL    HW218626   2.429   3.256   1.447  0.0063 -0.2093  1.2454
 4715SOL    HW318627   2.555   3.242   1.364 -1.5589  0.0547 -1.2982
 4715SOL    MW418628   2.502   3.290   1.413 -0.4181 -0.2159  0.2773
 4716SOL     OW18629   3.339   4.829   2.090 -0.0104 -0.1204  0.7929
 4716SOL    HW218630   3.347   4.846   2.184 -2.8852  1.3673  0.8791
 4716SOL    HW318631   3.335   4.916   2.050 -0.7088 -0.7202 -0.5151
 4716SOL    MW418632   3.340   4.843   2.097 -0.4818 -0.0033  0.6317
 4717SOL     OW18633   1.992   4.994   2.754 -0.7369 -0.5150  0.0472
 4717SOL    HW218634   1.945   5.077   2.754 -1.7280 -1.0457  1.2490
 4717SOL    HW318635   2.076   5.013   2.711 -1.0562  1.0245  0.0816
 4717SOL    MW418636   1.997   5.007   2.748 -0.9098 -0.3819  0.2103
 4718SOL     OW18637   1.183   1.712   2.305 -0.4482  0.6526 -0.0787
 4718SOL    HW218638   1.193   1.683   2.396 -0.3975  2.2069  0.4496
 4718SOL    HW318639   1.200   1.806   2.308  1.3771  0.4698 -2.0091
 4718SOL    MW418640   1.187   1.720   2.317 -0.2007  0.8335 -0.2637
 4719SOL     OW18641   3.840   6.023   0.196 -0.0329  0.4622 -0.0471
 4719SOL    HW218642   3.823   6.068   0.279 -0.0081  0.4224 -0.0202
 4719SOL    HW318643   3.885   6.088   0.142 -0.4977  0.6533 -0.2137
 4719SOL    MW418644   3.844   6.037   0.200 -0.0909  0.4822 -0.0655
 4720SOL     OW18645   5.443   5.811   5.859 -0.3707 -0.0157 -0.0882
 4720SOL    HW218646   5.360   5.848   5.890  0.2154 -0.7140  2.5997
 4720SOL    HW318647   5.510   5.870   5.894  0.3245 -0.4038 -0.7467
 4720SOL    MW418648   5.441   5.824   5.868 -0.2017 -0.1590  0.1795
 4721SOL     OW18649   4.817   4.817   5.369  0.2349 -0.1451 -0.7175
 4721SOL    HW218650   4.825   4.878   5.296  0.2062 -0.2280 -0.7901
 4721SOL    HW318651   4.906   4.808   5.403 -0.0505  1.4463  0.5237
 4721SOL    MW418652   4.830   4.824   5.364  0.1934  0.0540 -0.5633
 4722SOL     OW18653   2.404   5.372   2.731  0.5051  0.2967  0.4032
 4722SOL    HW218654   2.322   5.405   2.694 -1.5168 -2.6513  1.8911
 4722SOL    HW318655   2.441   5.318   2.661  0.3347  0.3211  0.2921
 4722SOL    MW418656   2.398   5.370   2.717  0.2159 -0.0890  0.5849
 4723SOL     OW18657   2.340   2.965   3.609  0.2974  0.2086 -0.2242
 4723SOL    HW218658   2.303   2.883   3.575  2.4070 -0.1904 -1.7288
 4723SOL    HW318659   2.435   2.952   3.606  0.6567  1.9338  1.5575
 4723SOL    MW418660   2.347   2.953   3.604  0.6232  0.3836 -0.1876
 4724SOL     OW18661   5.501   0.163   3.561  0.6095 -0.5379  0.6688
 4724SOL    HW218662   5.561   0.223   3.516  0.0529 -0.2495  0.2952
 4724SOL    HW318663   5.494   0.198   3.650  0.5626 -0.2545  0.5542
 4724SOL    MW418664   5.508   0.175   3.567  0.5299 -0.4625  0.6044
 4725SOL     OW18665   2.481   0.426   2.561  0.2159 -0.2937 -0.0660
 4725SOL    HW218666   2.457   0.333   2.554  1.7944 -0.7704  0.5154
 4725SOL    HW318667   2.536   0.442   2.485  1.0761 -0.2164  0.5580
 4725SOL    MW418668   2.485   0.416   2.550  0.5376 -0.3464  0.0930
 4726SOL     OW18669   5.347   2.865   4.851 -0.3143  0.4339 -0.3652
 4726SOL    HW218670   5.402   2.787   4.862  2.3592  2.1704 -0.6655
 4726SOL    HW318671   5.323   2.889   4.940  1.0725  0.7297 -0.0452
 4726SOL    MW418672   5.351   2.858   4.864  0.2214  0.7020 -0.3626
 4727SOL     OW18673   4.339   3.372   5.206 -0.1978  0.6172 -0.0235
 4727SOL    HW218674   4.291   3.290   5.218 -1.5527  1.7013  3.0223
 4727SOL    HW318675   4.271   3.440   5.210  1.2226  2.0512  0.7994
 4727SOL    MW418676   4.323   3.370   5.208 -0.1892  0.9494  0.4869
 4728SOL     OW18677   5.186   3.641   5.459 -0.2703 -0.0475 -0.0978
 4728SOL    HW218678   5.128   3.713   5.435  0.1832  0.2378 -0.3617
 4728SOL    HW318679   5.246   3.679   5.524  0.1851 -0.0855 -0.4878
 4728SOL    MW418680   5.186   3.656   5.464 -0.1504 -0.0149 -0.1841
 4729SOL     OW18681   1.617   3.321   1.856 -0.0229 -0.7889  0.1344
 4729SOL    HW218682   1.624   3.228   1.833  1.4883 -0.5710 -0.4390
 4729SOL    HW318683   1.584   3.322   1.945 -1.4907 -1.8232 -0.3650
 4729SOL    MW418684   1.614   3.309   1.865 -0.0171 -0.8966 -0.0071
 4730SOL     OW18685   2.936   4.114   3.178  0.3547 -0.6443 -0.2581
 4730SOL    HW218686   2.924   4.093   3.086  2.2797  0.2381 -0.7527
 4730SOL    HW318687   3.006   4.055   3.207  0.4114 -0.2694  0.3783
 4730SOL    MW418688   2.944   4.103   3.170  0.6162 -0.4784 -0.2394
 4731SOL     OW18689   2.561   5.621   2.491  0.2352  0.2973 -0.0796
 4731SOL    HW218690   2.580   5.671   2.412 -0.7682 -0.0505 -0.5544
 4731SOL    HW318691   2.472   5.645   2.514 -0.3859 -1.4617 -0.4835
 4731SOL    MW418692   2.552   5.631   2.484  0.0209  0.0193 -0.1955
 4732SOL     OW18693   2.523   1.226   4.791  0.1609 -0.1317 -0.5172
 4732SOL    HW218694   2.611   1.261   4.808 -0.2247  1.0424 -0.8382
 4732SOL    HW318695   2.467   1.269   4.856 -0.4062  0.2559 -1.2444
 4732SOL    MW418696   2.527   1.236   4.801  0.0352  0.0744 -0.6555
 4733SOL     OW18697   3.663   6.082   6.215 -0.0674  0.4848 -0.1516
 4733SOL    HW218698   3.607   6.045   6.284  2.5007  0.0973  1.9019
 4733SOL    HW318699   3.679   6.010   6.155  0.9091 -0.4099  1.1260
 4733SOL    MW418700   3.658   6.068   6.216  0.4003  0.3156  0.2879
 4734SOL     OW18701   6.225   0.066   0.433 -0.1886 -0.1555 -0.4729
 4734SOL    HW218702   6.170   0.132   0.476  0.6605  0.5246 -0.4147
 4734SOL    HW318703   6.272   0.114   0.365  0.3412 -0.7265 -0.5178
 4734SOL    MW418704   6.224   0.081   0.430 -0.0067 -0.1411 -0.4712
 4735SOL     OW18705   2.359   3.818   6.150 -0.5433 -0.5611  0.3231
 4735SOL    HW218706   2.315   3.751   6.203  0.3986 -2.8136 -1.5595
 4735SOL    HW318707   2.295   3.841   6.082 -0.7047  0.1838  0.7121
 4735SOL    MW418708   2.345   3.812   6.148 -0.4403 -0.7600  0.1261
 4736SOL     OW18709   6.029   2.081   0.523  0.3655 -0.0522  0.3350
 4736SOL    HW218710   5.936   2.061   0.528  0.3875 -0.8851 -1.6817
 4736SOL    HW318711   6.040   2.160   0.576 -1.7180  0.8139 -0.4598
 4736SOL    MW418712   6.018   2.089   0.531  0.0935 -0.0478 -0.0359
 4737SOL     OW18713   2.084   5.282   3.421  0.3070  0.0255 -0.1868
 4737SOL    HW218714   2.097   5.197   3.380 -1.0989  0.4659 -1.6298
 4737SOL    HW318715   2.073   5.343   3.348  0.5244  1.3301  0.8235
 4737SOL    MW418716   2.085   5.279   3.406  0.1502  0.2557 -0.2439
 4738SOL     OW18717   4.533   1.956   0.052  0.6355 -0.1427 -0.6790
 4738SOL    HW218718   4.469   1.944  -0.019  0.5142 -0.0064 -0.5914
 4738SOL    HW318719   4.591   1.880   0.044 -0.9138 -1.5360  0.7029
 4738SOL    MW418720   4.532   1.944   0.041  0.4151 -0.3086 -0.4851
 4739SOL     OW18721   2.611   5.545   4.630  0.6933  0.1695 -0.2285
 4739SOL    HW218722   2.646   5.628   4.596 -1.3356  0.5749 -1.5003
 4739SOL    HW318723   2.650   5.537   4.717  2.5455  1.4007 -0.8784
 4739SOL    MW418724   2.621   5.555   4.637  0.6700  0.3854 -0.4821
 4740SOL     OW18725   5.093   3.005   2.993 -0.2630 -0.1312 -0.0540
 4740SOL    HW218726   5.052   3.087   2.967  0.1775  0.7734  1.9188
 4740SOL    HW318727   5.102   3.011   3.088  0.0813 -2.3325  0.1272
 4740SOL    MW418728   5.089   3.016   3.002 -0.1595 -0.3023  0.2302
 4741SOL     OW18729   0.605   5.133   5.956 -0.2130 -0.0143 -0.0977
 4741SOL    HW218730   0.651   5.076   6.016  1.3222  1.5946  0.3193
 4741SOL    HW318731   0.576   5.207   6.010 -0.5482  0.4944 -0.9484
 4741SOL    MW418732   0.607   5.135   5.971 -0.0547  0.2651 -0.1549
 4742SOL     OW18733   2.489   4.223   3.233 -0.0760 -0.2558  0.7162
 4742SOL    HW218734   2.507   4.150   3.293 -0.5970 -0.9652  0.0382
 4742SOL    HW318735   2.503   4.301   3.286 -1.1215 -0.8596  1.9461
 4742SOL    MW418736   2.493   4.223   3.248 -0.2827 -0.4291  0.7890
 4743SOL     OW18737   6.413   4.553   3.774 -0.8946  0.4369  0.3003
 4743SOL    HW218738   6.485   4.549   3.711 -0.3944  0.4502  0.8671
 4743SOL    HW318739   6.363   4.631   3.748 -0.5083  0.6257  0.1178
 4743SOL    MW418740   6.416   4.563   3.762 -0.7776  0.4635  0.3510
 4744SOL     OW18741   0.955   3.022   3.420 -0.0685 -0.0771  0.0264
 4744SOL    HW218742   0.939   3.002   3.328  0.0533  0.0719 -0.0280
 4744SOL    HW318743   0.946   2.938   3.465 -0.1681 -0.1423 -0.1163
 4744SOL    MW418744   0.952   3.008   3.414 -0.0656 -0.0660  0.0004
 4745SOL     OW18745   0.608   5.415   0.060  0.8121 -0.1586 -0.2446
 4745SOL    HW218746   0.513   5.416   0.048  0.5271 -2.3751  1.3499
 4745SOL    HW318747   0.630   5.506   0.082 -1.0515  0.2365  0.1775
 4745SOL    MW418748   0.598   5.427   0.061  0.5286 -0.3989  0.0214
 4746SOL     OW18749  -0.007   3.629   4.593  0.0333  0.3003  0.1339
 4746SOL    HW218750  -0.049   3.663   4.672  0.3357 -1.5215  1.1316
 4746SOL    HW318751  -0.076   3.628   4.527  0.1051  3.1643 -0.1216
 4746SOL    MW418752  -0.021   3.633   4.594  0.0827  0.4378  0.2319
 4747SOL     OW18753   1.099   5.987   5.991  0.0961  0.0601 -0.2128
 4747SOL    HW218754   1.083   5.922   5.923  0.9031 -0.3238 -0.0497
 4747SOL    HW318755   1.043   6.061   5.968 -0.6022 -0.5705 -0.5711
 4747SOL    MW418756   1.090   5.988   5.979  0.1105 -0.0738 -0.2386
 4748SOL     OW18757   0.574   3.632   3.399  0.6423 -0.1643 -0.6031
 4748SOL    HW218758   0.611   3.572   3.465 -0.2730  0.1110  0.1806
 4748SOL    HW318759   0.496   3.668   3.440  0.7711  1.0272 -1.3477
 4748SOL    MW418760   0.569   3.629   3.413  0.5386  0.0293 -0.5980
 4749SOL     OW18761   5.482   2.989   0.330 -0.1737 -0.3094 -0.4584
 4749SOL    HW218762   5.474   3.028   0.243 -2.2130  0.3639 -0.0274
 4749SOL    HW318763   5.474   3.063   0.390 -0.4561 -0.9541  0.3176
 4749SOL    MW418764   5.480   3.004   0.326 -0.4800 -0.3056 -0.2992
 4750SOL     OW18765   2.959   0.156   3.074 -0.5249  0.4422  0.1375
 4750SOL    HW218766   2.956   0.158   2.979 -1.4030 -0.5838  0.1250
 4750SOL    HW318767   2.955   0.248   3.100 -0.0624  0.7414 -0.8119
 4750SOL    MW418768   2.958   0.168   3.065 -0.5798  0.3463  0.0106
 4751SOL     OW18769   3.705   4.982   4.841  0.3001 -0.2630 -0.4060
 4751SOL    HW218770   3.610   4.988   4.836  0.0956  0.0099  2.1484
 4751SOL    HW318771   3.733   5.067   4.875  1.0022 -1.4294  2.2813
 4751SOL    MW418772   3.697   4.994   4.845  0.3657 -0.3809  0.2856
 4752SOL     OW18773   4.026   0.101   2.963  0.0757 -0.3517  0.2771
 4752SOL    HW218774   3.939   0.092   2.923  0.1845 -1.1271  0.2000
 4752SOL    HW318775   4.052   0.191   2.943  0.4590 -0.9248 -2.1136
 4752SOL    MW418776   4.018   0.112   2.955  0.1406 -0.5296 -0.0485
 4753SOL     OW18777   4.794   1.853   2.569 -0.0434 -0.0374  0.2053
 4753SOL    HW218778   4.794   1.919   2.638 -0.8801  0.6217 -0.3936
 4753SOL    HW318779   4.764   1.773   2.612  0.3730  0.1305  0.8087
 4753SOL    MW418780   4.790   1.851   2.583 -0.0988  0.0717  0.2059
 4754SOL     OW18781   3.677   3.263   5.858  0.0761  0.4637 -0.0486
 4754SOL    HW218782   3.598   3.232   5.814  0.8624 -0.8435 -0.5974
 4754SOL    HW318783   3.679   3.215   5.941  1.0620 -0.6778 -0.7010
 4754SOL    MW418784   3.667   3.253   5.863  0.3099  0.1406 -0.2070
 4755SOL     OW18785   5.586   4.645   2.833 -0.4341  0.4528  0.0021
 4755SOL    HW218786   5.577   4.556   2.865 -0.7068  1.0218  1.5829
 4755SOL    HW318787   5.511   4.658   2.775 -1.4986  0.2595  1.2828
 4755SOL    MW418788   5.575   4.635   2.829 -0.6105  0.5024  0.3797
 4756SOL     OW18789   3.218   0.063   5.971 -0.4270  0.0968  0.6785
 4756SOL    HW218790   3.313   0.071   5.960 -0.1026 -2.6695  0.9401
 4756SOL    HW318791   3.182   0.115   5.899  1.2008  1.9912  1.1084
 4756SOL    MW418792   3.226   0.071   5.960 -0.1694 -0.0183  0.7698
 4757SOL     OW18793   4.940   4.996   1.543 -0.4032  0.4936 -0.0137
 4757SOL    HW218794   4.879   4.925   1.524 -0.8242  0.5186  1.1706
 4757SOL    HW318795   4.884   5.072   1.559 -0.0010  0.8251 -0.1617
 4757SOL    MW418796   4.925   4.996   1.542 -0.4057  0.5407  0.1230
 4758SOL     OW18797   6.011   1.197   1.975  0.1836  0.1797 -0.1102
 4758SOL    HW218798   6.011   1.286   2.009  0.5329 -0.3241  1.2862
 4758SOL    HW318799   6.103   1.171   1.975  0.1402 -0.0042 -1.0202
 4758SOL    MW418800   6.023   1.205   1.979  0.2239  0.0890 -0.0460
 4759SOL     OW18801   6.222   4.111   0.309 -0.2598  0.0650  0.0961
 4759SOL    HW218802   6.132   4.130   0.284 -0.1530  0.6382  0.1185
 4759SOL    HW318803   6.262   4.197   0.321 -0.0124 -0.1781  1.1856
 4759SOL    MW418804   6.216   4.125   0.308 -0.2130  0.1086  0.2428
 4760SOL     OW18805   0.700   4.946   4.061 -0.4519 -0.6370  0.0604
 4760SOL    HW218806   0.723   4.927   3.970 -0.3763 -1.7582  0.2927
 4760SOL    HW318807   0.670   5.037   4.060 -0.5624 -0.6692 -1.1065
 4760SOL    MW418808   0.699   4.955   4.049 -0.4565 -0.7892 -0.0629
 4761SOL     OW18809   1.689   2.856   3.359 -0.1825 -0.0342  0.8927
 4761SOL    HW218810   1.660   2.895   3.276  1.2663 -0.1313  0.3102
 4761SOL    HW318811   1.654   2.767   3.356  1.0464 -0.5269 -0.3305
 4761SOL    MW418812   1.681   2.849   3.347  0.1708 -0.1120  0.6545
 4762SOL     OW18813   0.070   0.032   5.650 -0.3745  0.0423 -0.4663
 4762SOL    HW218814   0.054   0.050   5.742  1.0657  0.5005 -0.2946
 4762SOL    HW318815   0.036  -0.057   5.637 -1.4251  0.3079  0.2591
 4762SOL    MW418816   0.063   0.022   5.660 -0.3231  0.1378 -0.3479
 4763SOL     OW18817   0.549   5.406   6.062 -0.0296  0.1781 -0.2138
 4763SOL    HW218818   0.601   5.383   6.138  0.2896 -0.7185 -0.6915
 4763SOL    HW318819   0.613   5.421   5.992 -0.3958 -1.4100 -0.9310
 4763SOL    MW418820   0.564   5.405   6.063 -0.0358 -0.1497 -0.3715
 4764SOL     OW18821   4.066   3.757   1.437  0.5057 -0.1696 -0.5466
 4764SOL    HW218822   4.118   3.734   1.515  1.8979  1.0995 -1.0599
 4764SOL    HW318823   4.036   3.846   1.454 -1.3199 -0.7711 -0.4013
 4764SOL    MW418824   4.069   3.766   1.450  0.4485 -0.0815 -0.5952
 4765SOL     OW18825   1.527   6.339   5.709 -0.0555  0.0805 -0.5560
 4765SOL    HW218826   1.587   6.378   5.645  1.1691 -1.9510 -0.7526
 4765SOL    HW318827   1.582   6.321   5.785 -0.8050 -0.2943 -0.0971
 4765SOL    MW418828   1.543   6.342   5.710  0.0072 -0.2370 -0.5214
 4766SOL     OW18829   0.657   2.522   2.622 -0.2030  0.2424 -0.6199
 4766SOL    HW218830   0.685   2.588   2.685 -1.4195 -0.0062  0.2174
 4766SOL    HW318831   0.650   2.441   2.673 -2.3642  0.2876 -0.7542
 4766SOL    MW418832   0.660   2.520   2.637 -0.6487  0.2156 -0.5271
 4767SOL     OW18833   5.018   3.396   1.645  0.2647 -0.4290 -0.1816
 4767SOL    HW218834   5.006   3.491   1.649 -0.8763 -0.4834 -1.3615
 4767SOL    HW318835   4.960   3.362   1.713 -0.8659 -0.3371 -1.0547
 4767SOL    MW418836   5.009   3.404   1.654 -0.0350 -0.4241 -0.4524
 4768SOL     OW18837   0.423   4.269   2.642 -0.5080  0.0725  0.0464
 4768SOL    HW218838   0.494   4.321   2.678 -0.4958 -0.1213  0.3038
 4768SOL    HW318839   0.390   4.218   2.716  0.4270 -1.3825 -0.5066
 4768SOL    MW418840   0.428   4.269   2.657 -0.3831 -0.1450  0.0074
 4769SOL     OW18841   3.703   6.358   6.165  0.1982 -0.0458 -0.5097
 4769SOL    HW218842   3.719   6.379   6.257  2.5572 -0.7841 -0.6797
 4769SOL    HW318843   3.678   6.266   6.165 -0.4249  0.1217 -0.5639
 4769SOL    MW418844   3.702   6.349   6.177  0.4272 -0.1211 -0.5393
 4770SOL     OW18845   3.589   5.038   2.833  0.0097 -0.1630  0.1386
 4770SOL    HW218846   3.578   5.106   2.766  0.8577  0.5272  0.6819
 4770SOL    HW318847   3.562   5.080   2.915 -1.0379 -1.0057  0.2513
 4770SOL    MW418848   3.584   5.052   2.835 -0.0167 -0.1831  0.2252
 4771SOL     OW18849   0.338   2.836   1.303 -0.0391  0.3091 -0.8397
 4771SOL    HW218850   0.392   2.882   1.368 -1.7224 -0.1858  1.0147
 4771SOL    HW318851   0.354   2.882   1.221  2.7771  0.4991 -0.3053
 4771SOL    MW418852   0.347   2.848   1.301  0.1104  0.2689 -0.5245
 4772SOL     OW18853   1.709   0.556   0.917 -0.1823  0.0084  0.0940
 4772SOL    HW218854   1.776   0.619   0.942  2.2240 -1.9658 -0.9524
 4772SOL    HW318855   1.756   0.489   0.867 -3.1780 -0.8310 -1.9098
 4772SOL    MW418856   1.724   0.556   0.914 -0.2601 -0.3628 -0.3084
 4773SOL     OW18857   3.193   5.323   1.413  0.5930  0.8994 -0.1646
 4773SOL    HW218858   3.234   5.367   1.487  0.7021 -1.6413  1.4160
 4773SOL    HW318859   3.102   5.351   1.414  0.8180  1.6312  0.2978
 4773SOL    MW418860   3.187   5.332   1.423  0.6371  0.6608  0.1049
 4774SOL     OW18861   0.768   4.085   0.277 -0.1090  0.4506  0.0002
 4774SOL    HW218862   0.853   4.128   0.269  0.5422 -0.2156  2.4960
 4774SOL    HW318863   0.706   4.157   0.289  0.1801  0.8986 -1.0669
 4774SOL    MW418864   0.771   4.100   0.277  0.0151  0.4218  0.1887
 4775SOL     OW18865   1.127   1.015   3.429 -0.4261 -0.1568  0.2072
 4775SOL    HW218866   1.054   1.074   3.413 -1.6589 -1.6034  0.2574
 4775SOL    HW318867   1.090   0.944   3.483  0.9227 -1.0926 -0.0326
 4775SOL    MW418868   1.113   1.013   3.434 -0.4108 -0.4711  0.1821
 4776SOL     OW18869   5.964   4.305   2.798 -0.1016 -0.7482 -0.2184
 4776SOL    HW218870   5.910   4.375   2.834  1.1157  0.0426  0.1415
 4776SOL    HW318871   5.940   4.301   2.706  0.4552  0.7919 -0.4553
 4776SOL    MW418872   5.954   4.313   2.791  0.1325 -0.4407 -0.2022
 4777SOL     OW18873   0.675   3.016   3.023 -0.1837 -0.0470  0.6941
 4777SOL    HW218874   0.662   3.106   2.993 -0.1479  0.1260  1.1827
 4777SOL    HW318875   0.591   2.992   3.063 -0.2215 -0.2605  0.4873
 4777SOL    MW418876   0.662   3.024   3.025 -0.1840 -0.0523  0.7313
 4778SOL     OW18877   3.340   0.420   0.997 -0.2379 -0.0889 -0.1534
 4778SOL    HW218878   3.415   0.422   1.056 -1.0245  1.1092  0.8460
 4778SOL    HW318879   3.339   0.507   0.957 -1.0355 -0.1287 -0.2206
 4778SOL    MW418880   3.350   0.432   1.000 -0.4469  0.0639 -0.0304
 4779SOL     OW18881   1.707   0.805   5.922 -0.4329 -0.7025 -0.0756
 4779SOL    HW218882   1.623   0.760   5.909 -0.1212 -0.7539 -2.3889
 4779SOL    HW318883   1.770   0.735   5.935 -0.5375 -0.7303  0.2900
 4779SOL    MW418884   1.704   0.790   5.922 -0.4056 -0.7129 -0.3325
 4780SOL     OW18885   5.610   4.117   5.253  0.0690  0.3508  0.1082
 4780SOL    HW218886   5.702   4.097   5.236  0.1218  0.2613  0.4993
 4780SOL    HW318887   5.562   4.064   5.190  0.1921 -1.1623  1.2596
 4780SOL    MW418888   5.616   4.108   5.242  0.0922  0.1394  0.3117
 4781SOL     OW18889   2.421   3.321   5.646 -0.4688  0.3295 -0.6623
 4781SOL    HW218890   2.510   3.289   5.639 -0.0079  1.5387 -0.5603
 4781SOL    HW318891   2.370   3.245   5.676  0.8119  0.0451  0.9008
 4781SOL    MW418892   2.426   3.307   5.649 -0.2390  0.4515 -0.4426
 4782SOL     OW18893   5.038   0.418   6.183 -0.4547 -0.1405 -0.3582
 4782SOL    HW218894   4.954   0.415   6.138 -0.0962  2.8726 -1.5213
 4782SOL    HW318895   5.017   0.441   6.274 -0.9352 -0.7147 -0.3231
 4782SOL    MW418896   5.024   0.421   6.189 -0.4708  0.1813 -0.5070
 4783SOL     OW18897   1.543   3.684   3.103  0.4049 -0.0760 -0.1467
 4783SOL    HW218898   1.494   3.705   3.183  0.4072 -0.2897 -0.0887
 4783SOL    HW318899   1.544   3.766   3.053  1.3064  0.3529  0.5418
 4783SOL    MW418900   1.537   3.698   3.107  0.5242 -0.0476 -0.0482
 4784SOL     OW18901   5.953   3.297   1.676 -0.1615 -0.8216 -0.1311
 4784SOL    HW218902   5.896   3.328   1.746  0.2626 -0.0295 -0.1201
 4784SOL    HW318903   5.894   3.262   1.610 -0.5695 -1.5154  0.5946
 4784SOL    MW418904   5.938   3.297   1.677 -0.1594 -0.8086 -0.0339
 4785SOL     OW18905   2.873   2.792   6.033  0.0838 -0.3094  0.1414
 4785SOL    HW218906   2.806   2.846   5.991 -1.0312 -0.3870  1.7279
 4785SOL    HW318907   2.826   2.744   6.101  1.6735 -0.7008  1.0195
 4785SOL    MW418908   2.858   2.793   6.036  0.1464 -0.3712  0.4666
 4786SOL     OW18909   1.248   2.105   1.026  0.5370  0.3785 -0.5669
 4786SOL    HW218910   1.194   2.165   0.974  0.1278  0.1460 -0.4140
 4786SOL    HW318911   1.326   2.156   1.047  0.3622  0.7329 -0.7555
 4786SOL    MW418912   1.251   2.120   1.022  0.4600  0.3946 -0.5716
 4787SOL     OW18913   3.464   2.142   2.242 -0.5977  0.0091 -0.5413
 4787SOL    HW218914   3.509   2.223   2.268  1.8622 -0.7157 -2.2190
 4787SOL    HW318915   3.445   2.098   2.325  0.3016  1.1378  0.3049
 4787SOL    MW418916   3.468   2.147   2.256 -0.1545  0.0624 -0.6510
 4788SOL     OW18917   1.383   1.868   3.211  0.6405  0.0455 -0.4816
 4788SOL    HW218918   1.378   1.924   3.134  2.6264 -0.0509 -0.7282
 4788SOL    HW318919   1.380   1.929   3.285  0.9123  0.3309 -0.6999
 4788SOL    MW418920   1.382   1.883   3.211  0.9384  0.0704 -0.5429
 4789SOL     OW18921   1.748   2.335   3.859 -0.3288 -0.4943 -0.0301
 4789SOL    HW218922   1.823   2.279   3.838  0.4029  1.0630 -1.8083
 4789SOL    HW318923   1.675   2.297   3.808 -0.4441 -1.2214  0.6589
 4789SOL    MW418924   1.748   2.322   3.849 -0.2475 -0.3847 -0.1738
 4790SOL     OW18925   4.535   5.848   0.524  0.4341  0.2948  0.3112
 4790SOL    HW218926   4.533   5.795   0.444 -1.5929  0.4577  0.2007
 4790SOL    HW318927   4.585   5.926   0.499 -0.3969  0.4687 -0.8932
 4790SOL    MW418928   4.542   5.851   0.510  0.0571  0.3393  0.1377
 4791SOL     OW18929   5.373   4.303   1.462  0.1426  0.0592  0.1488
 4791SOL    HW218930   5.459   4.270   1.437  0.2494  0.6933 -0.3300
 4791SOL    HW318931   5.366   4.282   1.556  1.9747  2.4159  0.9157
 4791SOL    MW418932   5.383   4.296   1.471  0.3984  0.4538  0.1868
 4792SOL     OW18933   1.557   1.302   4.345 -0.0019  0.2447 -0.1353
 4792SOL    HW218934   1.535   1.382   4.297  0.3274  0.1022 -0.5321
 4792SOL    HW318935   1.478   1.248   4.339  0.5100 -0.3886 -1.8027
 4792SOL    MW418936   1.543   1.305   4.338  0.1091  0.1423 -0.4076
 4793SOL     OW18937   0.670   5.224   5.289  0.1406 -0.7447  0.1639
 4793SOL    HW218938   0.641   5.287   5.224  1.1398  0.3646  0.7556
 4793SOL    HW318939   0.592   5.173   5.310 -0.8083  0.6009  0.0129
 4793SOL    MW418940   0.656   5.225   5.283  0.1472 -0.4208  0.2221
 4794SOL     OW18941   1.461   2.970   5.744  0.1000  0.3500 -0.1347
 4794SOL    HW218942   1.498   2.891   5.704 -0.1214  0.8431 -1.3653
 4794SOL    HW318943   1.531   3.005   5.799  1.9284  1.8009 -3.1587
 4794SOL    MW418944   1.475   2.964   5.746  0.3120  0.6065 -0.6961
 4795SOL     OW18945   3.282   6.309   3.234  0.0363  0.4072 -0.4104
 4795SOL    HW218946   3.274   6.259   3.153  2.0131  0.0876 -0.4404
 4795SOL    HW318947   3.252   6.397   3.211 -1.7764 -0.2527 -0.8083
 4795SOL    MW418948   3.277   6.314   3.221  0.0580  0.2780 -0.4668
 4796SOL     OW18949   1.023   4.927   1.457  0.0329 -0.4211  0.2716
 4796SOL    HW218950   1.080   4.941   1.381 -0.0578 -0.6153  0.1632
 4796SOL    HW318951   0.951   4.988   1.444 -0.6661 -1.3603 -0.5116
 4796SOL    MW418952   1.021   4.937   1.445 -0.0713 -0.5706  0.1539
 4797SOL     OW18953   3.180   2.492   2.296  0.4782 -0.5049 -0.7354
 4797SOL    HW218954   3.181   2.579   2.256 -0.4190  0.9391  2.0885
 4797SOL    HW318955   3.093   2.458   2.276  0.1430  0.0679 -0.2691
 4797SOL    MW418956   3.169   2.499   2.288  0.3156 -0.2388 -0.3013
 4798SOL     OW18957   6.000   5.517   0.305 -0.5115 -0.1109  0.3389
 4798SOL    HW218958   6.090   5.484   0.302 -1.3558 -2.6035 -0.3320
 4798SOL    HW318959   5.988   5.544   0.396  1.0017  0.6658  0.3525
 4798SOL    MW418960   6.010   5.516   0.317 -0.4232 -0.3373  0.2522
 4799SOL     OW18961   1.250   0.093   3.194  0.5485  0.2380 -0.0366
 4799SOL    HW218962   1.217   0.174   3.154  0.3819 -0.0732 -0.5326
 4799SOL    HW318963   1.340   0.087   3.164  0.0834 -0.6041 -1.3462
 4799SOL    MW418964   1.257   0.103   3.185  0.4651  0.0858 -0.2748
 4800SOL     OW18965   1.461   3.695   3.969 -0.0602  0.1922  0.1178
 4800SOL    HW218966   1.461   3.692   4.064  0.6998 -1.9608  0.1041
 4800SOL    HW318967   1.541   3.742   3.946 -0.1811  0.6072  0.5492
 4800SOL    MW418968   1.472   3.701   3.978  0.0241 -0.0371  0.1729
 4801SOL     OW18969   5.634   5.898   2.217  0.2537  0.1004  0.1679
 4801SOL    HW218970   5.629   5.804   2.201 -1.3077  0.3612 -1.1564
 4801SOL    HW318971   5.551   5.920   2.259  0.9524  0.7799  1.2695
 4801SOL    MW418972   5.622   5.889   2.221  0.1399  0.2245  0.1385
 4802SOL     OW18973   3.326   1.868   1.474  0.1948 -0.2755 -0.1962
 4802SOL    HW218974   3.379   1.839   1.400 -0.8514  1.8501 -1.8768
 4802SOL    HW318975   3.388   1.917   1.529  0.5395 -0.0915 -0.7410
 4802SOL    MW418976   3.341   1.871   1.471  0.1022  0.0293 -0.4898
 4803SOL     OW18977   0.342   1.490   3.109  0.0025 -0.0472 -0.2557
 4803SOL    HW218978   0.412   1.465   3.049  0.8302  0.1858  0.5928
 4803SOL    HW318979   0.360   1.582   3.129 -0.8270  0.1504 -0.4031
 4803SOL    MW418980   0.354   1.499   3.104  0.0023  0.0096 -0.1632
 4804SOL     OW18981   4.277   5.591   6.076  0.6565 -0.8645 -0.5068
 4804SOL    HW218982   4.220   5.560   6.147  0.0988  0.2579 -0.4323
 4804SOL    HW318983   4.328   5.515   6.051  0.3425 -1.4671  0.6116
 4804SOL    MW418984   4.276   5.577   6.082  0.5415 -0.7959 -0.3494
 4805SOL     OW18985   2.163   5.046   0.107 -0.0034 -0.4568 -0.3862
 4805SOL    HW218986   2.197   5.101   0.036 -0.1810 -1.4897 -1.3063
 4805SOL    HW318987   2.114   4.976   0.062 -0.7141 -0.7478  0.7854
 4805SOL    MW418988   2.161   5.044   0.092 -0.1206 -0.6315 -0.3530
 4806SOL     OW18989   6.004   2.378   2.278  0.0052  0.2544 -0.0760
 4806SOL    HW218990   6.044   2.455   2.318  0.5377  0.8211 -1.6494
 4806SOL    HW318991   6.065   2.306   2.299 -0.0369  0.4146  0.6284
 4806SOL    MW418992   6.017   2.378   2.286  0.0699  0.3503 -0.1907
 4807SOL     OW18993   0.372   3.328   2.101 -0.4593 -0.2687  0.7411
 4807SOL    HW218994   0.351   3.237   2.123  1.3945 -1.6391 -2.4704
 4807SOL    HW318995   0.387   3.327   2.006  2.2967  2.8060  0.9696
 4807SOL    MW418996   0.371   3.316   2.091  0.1489 -0.0439  0.3476
 4808SOL     OW18997   4.111   0.091   4.280  0.3510 -0.0397 -0.4273
 4808SOL    HW218998   4.078   0.142   4.354  0.3145 -0.8672  0.1428
 4808SOL    HW318999   4.050   0.110   4.209 -0.0916  0.1306 -0.0083
 4808SOL    MW419000   4.099   0.100   4.281  0.2878 -0.1264 -0.2968
 4809SOL     OW19001   0.461   4.977   5.281 -0.0668 -0.2523 -0.4657
 4809SOL    HW219002   0.385   4.928   5.313  0.4133 -1.1891 -0.7354
 4809SOL    HW319003   0.447   4.985   5.187  0.2376 -0.5548 -0.5380
 4809SOL    MW419004   0.449   4.971   5.273  0.0367 -0.4158 -0.5108
 4810SOL     OW19005   0.375   3.879   1.930 -0.4457 -0.2727  0.2379
 4810SOL    HW219006   0.389   3.915   1.842 -0.8915 -2.0195 -0.5968
 4810SOL    HW319007   0.439   3.923   1.984  0.3858  0.2782 -1.1356
 4810SOL    MW419008   0.385   3.890   1.925 -0.3948 -0.4305 -0.0534
 4811SOL     OW19009   6.169   1.140   0.562 -0.1357  0.1196  0.4141
 4811SOL    HW219010   6.235   1.119   0.628  0.1347  1.3138  0.5578
 4811SOL    HW319011   6.137   1.227   0.587  1.2649  1.4417 -1.9831
 4811SOL    MW419012   6.173   1.149   0.574  0.0848  0.4516  0.1168
 4812SOL     OW19013   2.185   4.681   1.393 -0.2580 -0.0473 -0.0483
 4812SOL    HW219014   2.234   4.654   1.316  0.8430  0.6212  0.4050
 4812SOL    HW319015   2.145   4.600   1.425  1.3623 -0.8120  0.1396
 4812SOL    MW419016   2.186   4.667   1.387  0.1010 -0.0600  0.0363
 4813SOL     OW19017   3.216   2.176   3.847 -0.4836 -0.1572 -0.3175
 4813SOL    HW219018   3.299   2.216   3.821 -1.5952  2.9240  0.4462
 4813SOL    HW319019   3.150   2.219   3.793 -2.0350  0.9753  2.2624
 4813SOL    MW419020   3.218   2.187   3.837 -0.8350  0.3988  0.1236
 4814SOL     OW19021   4.984   1.130   3.561  0.1980 -0.5979 -0.3095
 4814SOL    HW219022   4.970   1.222   3.537 -0.0124  0.1321  2.3382
 4814SOL    HW319023   4.899   1.099   3.591  0.6061 -1.1659  0.3006
 4814SOL    MW419024   4.971   1.138   3.562  0.2241 -0.5765  0.1204
 4815SOL     OW19025   5.572   0.802   2.044 -0.0548  0.5379 -0.3170
 4815SOL    HW219026   5.659   0.800   2.004  0.5513  0.9292  0.9239
 4815SOL    HW319027   5.550   0.895   2.052 -0.8286  0.4358 -1.0934
 4815SOL    MW419028   5.581   0.814   2.040 -0.0769  0.5760 -0.2557
 4816SOL     OW19029   4.235   0.374   6.265 -0.1503 -0.0972  0.1221
 4816SOL    HW219030   4.201   0.405   6.349 -0.5363 -0.0470 -0.0492
 4816SOL    HW319031   4.254   0.454   6.216  0.2237 -0.1256  0.2191
 4816SOL    MW419032   4.233   0.389   6.270 -0.1519 -0.0943  0.1123
 4817SOL     OW19033   6.137   4.815   3.575 -0.4733 -0.3053  0.0533
 4817SOL    HW219034   6.172   4.824   3.664 -1.9889  1.1709  0.5464
 4817SOL    HW319035   6.103   4.726   3.572  1.8494 -1.2536  0.0601
 4817SOL    MW419036   6.137   4.805   3.586 -0.3668 -0.2357  0.1193
 4818SOL     OW19037   0.436   2.549   1.301  0.2549  0.3291  0.2025
 4818SOL    HW219038   0.406   2.505   1.381  0.1913 -1.4778 -0.7486
 4818SOL    HW319039   0.378   2.624   1.291  0.1653  0.4975  1.7513
 4818SOL    MW419040   0.424   2.553   1.311  0.2347  0.1130  0.2813
 4819SOL     OW19041   4.070   0.373   2.913 -0.2587 -0.7482 -0.5613
 4819SOL    HW219042   4.131   0.414   2.851  0.6815 -0.1614  0.7144
 4819SOL    HW319043   4.076   0.427   2.992 -2.5250 -0.6111 -0.4110
 4819SOL    MW419044   4.079   0.386   2.915 -0.4337 -0.6527 -0.3731
 4820SOL     OW19045   5.623   2.744   0.376  0.3010 -0.3474  0.3702
 4820SOL    HW219046   5.582   2.830   0.369 -2.0516 -1.4238  0.0342
 4820SOL    HW319047   5.589   2.708   0.458 -0.0349 -1.5719 -0.2874
 4820SOL    MW419048   5.613   2.751   0.386 -0.0537 -0.6510  0.2391
 4821SOL     OW19049   1.409   5.899   6.390  0.2728  0.3378  0.7859
 4821SOL    HW219050   1.486   5.846   6.410  0.5361  0.3207 -0.2332
 4821SOL    HW319051   1.335   5.847   6.421  0.5459 -0.5214  0.0265
 4821SOL    MW419052   1.409   5.885   6.397  0.3436  0.2222  0.5512
 4822SOL     OW19053   1.137   2.164   3.937 -0.5752 -0.1629 -0.5273
 4822SOL    HW219054   1.100   2.172   3.849 -2.7933  2.1227  0.5161
 4822SOL    HW319055   1.203   2.233   3.942 -0.2447 -0.4771 -0.4574
 4822SOL    MW419056   1.141   2.174   3.926 -0.8242  0.0972 -0.3804
 4823SOL     OW19057   1.847   6.296   5.787 -0.3941  0.4709 -0.0068
 4823SOL    HW219058   1.899   6.216   5.794 -1.7424 -0.4552 -0.0851
 4823SOL    HW319059   1.911   6.367   5.789  1.0040 -0.6529 -1.6692
 4823SOL    MW419060   1.862   6.295   5.788 -0.3875  0.2005 -0.2365
 4824SOL     OW19061   2.343   0.357   1.380 -0.0243  0.1820  0.2164
 4824SOL    HW219062   2.288   0.410   1.437  0.7903 -0.8405  2.0166
 4824SOL    HW319063   2.329   0.394   1.292 -1.4874  1.6397  1.0158
 4824SOL    MW419064   2.334   0.369   1.376 -0.1099  0.2394  0.5594
 4825SOL     OW19065   1.363   1.157   6.172 -0.1825 -0.2026  0.2539
 4825SOL    HW219066   1.385   1.069   6.204 -0.2012  0.5126  2.4279
 4825SOL    HW319067   1.286   1.182   6.222  0.0033  1.1743 -0.1131
 4825SOL    MW419068   1.356   1.148   6.183 -0.1605  0.0734  0.4923
 4826SOL     OW19069   2.652   0.545   1.184 -0.0490 -0.1627  0.6105
 4826SOL    HW219070   2.695   0.463   1.159  0.3133  0.1853  0.0849
 4826SOL    HW319071   2.634   0.589   1.101 -1.7095 -0.4288  0.7817
 4826SOL    MW419072   2.655   0.540   1.170 -0.2203 -0.1519  0.5638
 4827SOL     OW19073   5.407   0.285   3.103  0.4808 -0.1738 -0.1772
 4827SOL    HW219074   5.364   0.277   3.188 -0.1275  0.8820 -0.3736
 4827SOL    HW319075   5.337   0.276   3.039  0.7946 -0.0624 -0.5437
 4827SOL    MW419076   5.392   0.283   3.106  0.4420 -0.0198 -0.2515
 4828SOL     OW19077   0.475   2.195   5.210 -0.3110 -0.4289  0.2061
 4828SOL    HW219078   0.498   2.149   5.291 -1.7727  0.2410  1.0430
 4828SOL    HW319079   0.454   2.125   5.148 -0.1757 -0.9371  0.7245
 4828SOL    MW419080   0.475   2.179   5.213 -0.4860 -0.4076  0.3849
 4829SOL     OW19081   4.695   1.384   4.543  0.2391  0.2898  0.1861
 4829SOL    HW219082   4.600   1.380   4.529  0.3793 -1.1623 -0.5561
 4829SOL    HW319083   4.722   1.292   4.551  1.6232  0.6671  0.0851
 4829SOL    MW419084   4.686   1.371   4.542  0.4402  0.1480  0.0749
 4830SOL     OW19085   4.081   0.019   0.024  0.0533 -0.3013 -0.3335
 4830SOL    HW219086   4.110  -0.039  -0.046 -0.9108  0.3818 -1.3357
 4830SOL    HW319087   4.012   0.072  -0.015 -0.4643  0.1645  1.1165
 4830SOL    MW419088   4.076   0.018   0.010 -0.1422 -0.1497 -0.2744
 4831SOL     OW19089   2.896   4.377   3.111 -0.0850  0.5982  0.1029
 4831SOL    HW219090   2.919   4.287   3.133  2.2621  0.8046 -1.1312
 4831SOL    HW319091   2.910   4.426   3.192 -1.1567 -0.0663  0.7188
 4831SOL    MW419092   2.901   4.371   3.124  0.0833  0.5377  0.0214
 4832SOL     OW19093   2.939   3.512   4.905  0.1659  0.3784  0.1048
 4832SOL    HW219094   2.904   3.585   4.855 -0.6882  1.3018  1.9867
 4832SOL    HW319095   3.025   3.541   4.935 -0.3382  0.8018  1.1871
 4832SOL    MW419096   2.946   3.525   4.902 -0.0133  0.5561  0.4959
 4833SOL     OW19097   4.588   5.908   1.202  0.0273 -0.4985  0.4849
 4833SOL    HW219098   4.592   5.919   1.107  2.9366 -2.7270  0.1895
 4833SOL    HW319099   4.659   5.963   1.235 -1.2673  0.6334  1.4776
 4833SOL    MW419100   4.598   5.917   1.194  0.2403 -0.6432  0.5769
 4834SOL     OW19101   2.491   0.312   5.413 -0.0006  0.5098 -0.0769
 4834SOL    HW219102   2.570   0.338   5.461  1.3133  0.9166 -2.2783
 4834SOL    HW319103   2.501   0.218   5.399 -0.1030  0.4895 -0.0134
 4834SOL    MW419104   2.503   0.303   5.417  0.1593  0.5608 -0.3590
 4835SOL     OW19105   4.728   1.645   3.108  0.5369 -0.4393 -0.0461
 4835SOL    HW219106   4.687   1.652   3.194  0.8337  0.9245  0.0001
 4835SOL    HW319107   4.748   1.735   3.083  0.5979 -0.8298 -1.4805
 4835SOL    MW419108   4.725   1.658   3.116  0.5841 -0.3109 -0.2293
 4836SOL     OW19109   1.063   0.728   3.881  0.2230  0.1186  0.3665
 4836SOL    HW219110   1.072   0.746   3.787  0.3891 -0.9793  0.1593
 4836SOL    HW319111   1.115   0.796   3.923 -0.8013  1.3467 -0.2671
 4836SOL    MW419112   1.071   0.740   3.874  0.1098  0.1358  0.2556
 4837SOL     OW19113   2.693   3.245   0.978  0.0930 -0.1888  0.0279
 4837SOL    HW219114   2.600   3.242   0.956 -0.1381  0.6980  0.7755
 4837SOL    HW319115   2.698   3.207   1.066  0.5200 -0.7434 -0.2326
 4837SOL    MW419116   2.682   3.240   0.987  0.1189 -0.1450  0.0922
 4838SOL     OW19117   4.956   5.239   2.706  0.6983  0.4503 -0.1443
 4838SOL    HW219118   5.051   5.228   2.711  0.5190 -0.8867  0.9902
 4838SOL    HW319119   4.940   5.327   2.739  1.6096  1.1114 -1.3877
 4838SOL    MW419120   4.966   5.249   2.711  0.7949  0.3611 -0.1587
 4839SOL     OW19121   1.271   2.291   3.290 -0.0679 -0.0053 -0.2932
 4839SOL    HW219122   1.223   2.226   3.237 -0.5438  0.9240 -1.0435
 4839SOL    HW319123   1.203   2.352   3.319  0.7199  1.9352 -2.2299
 4839SOL    MW419124   1.255   2.290   3.287 -0.0267  0.3733 -0.6477
 4840SOL     OW19125   2.910   3.089   4.158 -0.0176 -0.5907  0.1844
 4840SOL    HW219126   2.996   3.083   4.116  1.3105  1.3015  2.3822
 4840SOL    HW319127   2.916   3.031   4.233 -1.4126 -1.9110 -0.6668
 4840SOL    MW419128   2.922   3.080   4.162 -0.0264 -0.5152  0.3621
 4841SOL     OW19129   3.226   0.125   3.109  0.3670  0.3627  0.0010
 4841SOL    HW219130   3.131   0.137   3.103  0.4761  1.3325  0.0728
 4841SOL    HW319131   3.247   0.065   3.037 -0.2768  0.2675 -0.1136
 4841SOL    MW419132   3.216   0.118   3.099  0.2965  0.4781 -0.0047
 4842SOL     OW19133   3.961   3.058   1.548 -0.2535  0.1462 -0.3848
 4842SOL    HW219134   3.963   2.986   1.485 -0.3697 -0.3782  0.1960
 4842SOL    HW319135   3.889   3.035   1.608  0.0245  0.5012  0.0893
 4842SOL    MW419136   3.951   3.046   1.548 -0.2322  0.1238 -0.2456
 4843SOL     OW19137   5.644   3.836   3.381 -0.1460  0.1443 -0.2184
 4843SOL    HW219138   5.595   3.789   3.449  0.4192 -0.3753 -0.1711
 4843SOL    HW319139   5.576   3.878   3.329 -0.6453 -0.4347 -0.0515
 4843SOL    MW419140   5.628   3.835   3.383 -0.1373 -0.0006 -0.1901
 4844SOL     OW19141   1.224   5.038   5.182  0.0422 -0.7586  0.6322
 4844SOL    HW219142   1.291   5.045   5.114 -1.2313  0.5307 -0.5631
 4844SOL    HW319143   1.159   4.979   5.145 -0.1485 -0.9089  1.1989
 4844SOL    MW419144   1.224   5.031   5.168 -0.1510 -0.6083  0.5493
 4845SOL     OW19145   5.090   5.696   6.237 -0.4563  0.2290 -0.1734
 4845SOL    HW219146   5.048   5.750   6.171  0.3871  1.5000  0.2776
 4845SOL    HW319147   5.026   5.627   6.257 -1.4788  0.9365 -0.9190
 4845SOL    MW419148   5.076   5.694   6.231 -0.4800  0.4900 -0.2123
 4846SOL     OW19149   4.801   6.234   1.883  0.2702 -0.4363 -0.3932
 4846SOL    HW219150   4.783   6.252   1.791  2.3020  0.7265 -0.6176
 4846SOL    HW319151   4.817   6.319   1.922 -0.6654 -0.9086  1.0933
 4846SOL    MW419152   4.801   6.247   1.876  0.4148 -0.3452 -0.2267
 4847SOL     OW19153   0.125   2.080   2.644 -0.2341 -0.6981  0.7557
 4847SOL    HW219154   0.077   2.147   2.692 -0.0209  0.5575 -0.7185
 4847SOL    HW319155   0.184   2.129   2.587 -1.0177 -2.0888 -1.3429
 4847SOL    MW419156   0.126   2.095   2.643 -0.3093 -0.7159  0.2843
 4848SOL     OW19157   2.627   0.649   2.784  0.3090  0.0507 -0.7119
 4848SOL    HW219158   2.599   0.695   2.705 -2.2884 -0.3417 -0.1120
 4848SOL    HW319159   2.546   0.616   2.823  1.3901  0.8778  2.5627
 4848SOL    MW419160   2.613   0.651   2.779  0.1089  0.1081 -0.2007
 4849SOL     OW19161   1.003   2.307   2.759 -0.3935 -0.0051 -0.0301
 4849SOL    HW219162   1.083   2.318   2.812  0.8558  0.4690 -1.9234
 4849SOL    HW319163   1.035   2.274   2.675 -2.1900  0.4518 -0.9299
 4849SOL    MW419164   1.018   2.304   2.755 -0.4657  0.1177 -0.3986
 4850SOL     OW19165   2.845   5.689   3.483 -0.1934  0.0029 -0.1484
 4850SOL    HW219166   2.788   5.624   3.524  0.3076  0.0990  0.7378
 4850SOL    HW319167   2.825   5.770   3.529  0.3408  0.1282 -0.1311
 4850SOL    MW419168   2.835   5.691   3.494 -0.0568  0.0321 -0.0292
 4851SOL     OW19169   0.520   3.128   0.662 -0.2748  0.4991  0.2104
 4851SOL    HW219170   0.551   3.211   0.625 -1.0009  0.2710 -0.9711
 4851SOL    HW319171   0.562   3.123   0.747  1.0223  1.3358 -0.3389
 4851SOL    MW419172   0.530   3.138   0.668 -0.1995  0.5794 -0.0179
 4852SOL     OW19173   2.496   2.143   1.414  0.1144 -0.3563  0.5277
 4852SOL    HW219174   2.558   2.109   1.479  0.0699  2.1420  2.0236
 4852SOL    HW319175   2.411   2.107   1.441  0.1561  0.3528  1.6681
 4852SOL    MW419176   2.493   2.134   1.426  0.1141  0.0669  0.8755
 4853SOL     OW19177   0.075   3.098   0.940 -0.1483 -0.1263  0.1494
 4853SOL    HW219178   0.035   3.039   0.876 -1.5826 -0.6645  1.4798
 4853SOL    HW319179   0.039   3.070   1.024  1.9394  0.3345  1.2711
 4853SOL    MW419180   0.065   3.086   0.943 -0.0621 -0.1365  0.4729
 4854SOL     OW19181   2.116   4.282   4.135 -0.1343  0.8522 -0.0372
 4854SOL    HW219182   2.136   4.189   4.138  0.7795  0.9786 -1.2954
 4854SOL    HW319183   2.086   4.297   4.045 -0.1339  1.7909  0.1084
 4854SOL    MW419184   2.115   4.272   4.123 -0.0137  0.9927 -0.1840
 4855SOL     OW19185   1.000   5.612   4.054  0.2442 -0.3807  0.2540
 4855SOL    HW219186   1.039   5.699   4.061 -0.3787 -0.2026  1.9745
 4855SOL    HW319187   1.069   5.558   4.017  1.0821  0.5718  0.3670
 4855SOL    MW419188   1.014   5.617   4.050  0.2725 -0.2316  0.4959
 4856SOL     OW19189   1.055   1.617   3.941  0.1217  0.4612  0.0829
 4856SOL    HW219190   0.981   1.556   3.950 -0.4238  1.1115  0.1275
 4856SOL    HW319191   1.036   1.685   4.005  2.0081 -0.5595  1.8414
 4856SOL    MW419192   1.043   1.618   3.950  0.2986  0.4123  0.3208
 4857SOL     OW19193   6.367   3.171   3.992  0.6612 -0.1549  0.3667
 4857SOL    HW219194   6.345   3.240   4.054  0.4550 -1.3388  1.6425
 4857SOL    HW319195   6.399   3.099   4.046 -0.3865 -1.5635 -0.8259
 4857SOL    MW419196   6.368   3.171   4.007  0.4957 -0.4969  0.3777
 4858SOL     OW19197   0.285   3.402   1.078 -0.0896 -0.1781  0.0402
 4858SOL    HW219198   0.366   3.357   1.104  0.6550  0.9933 -0.1581
 4858SOL    HW319199   0.215   3.351   1.118  0.7586 -1.1080  0.3830
 4858SOL    MW419200   0.287   3.390   1.087  0.1206 -0.1462  0.0592
 4859SOL     OW19201   4.249   4.394   1.891 -0.1055  0.4931 -0.1944
 4859SOL    HW219202   4.227   4.322   1.951  2.4869  0.0248  0.2990
 4859SOL    HW319203   4.265   4.468   1.949 -0.9723  0.9936 -0.5826
 4859SOL    MW419204   4.248   4.394   1.907  0.1221  0.4974 -0.1806
 4860SOL     OW19205   3.590   5.993   3.168 -0.2921  0.1724  0.3808
 4860SOL    HW219206   3.554   6.052   3.235  0.5846  0.1025  0.9306
 4860SOL    HW319207   3.578   5.905   3.205 -2.1089 -0.0745 -0.6801
 4860SOL    MW419208   3.583   5.989   3.182 -0.4161  0.1306  0.3134
 4861SOL     OW19209   0.416   0.706   4.040 -0.0415 -0.1726  0.1380
 4861SOL    HW219210   0.410   0.749   3.954  2.2581 -1.2339 -0.6414
 4861SOL    HW319211   0.424   0.613   4.019  1.7492 -0.3555  1.3930
 4861SOL    MW419212   0.416   0.699   4.026  0.4982 -0.3368  0.2007
 4862SOL     OW19213   2.932   1.395   3.152  0.0212  0.0755 -0.2309
 4862SOL    HW219214   2.975   1.407   3.236  0.4222  0.9287 -0.5462
 4862SOL    HW319215   2.850   1.443   3.159  0.6435  1.2796 -0.7478
 4862SOL    MW419216   2.927   1.403   3.164  0.1562  0.3469 -0.3407
 4863SOL     OW19217   6.067   3.523   4.602 -0.0241  0.4058  0.2527
 4863SOL    HW219218   6.110   3.578   4.536  0.9890 -0.0843  0.4851
 4863SOL    HW319219   6.097   3.558   4.686 -0.4301  0.3366  0.4267
 4863SOL    MW419220   6.077   3.535   4.605  0.0560  0.3320  0.3063
 4864SOL     OW19221   4.436   5.537   1.509  0.5641  0.4041  0.0301
 4864SOL    HW219222   4.529   5.523   1.487  0.2320 -1.4585 -0.2747
 4864SOL    HW319223   4.409   5.608   1.450  1.3767 -0.1659 -1.0660
 4864SOL    MW419224   4.445   5.545   1.498  0.6275  0.0831 -0.1547
 4865SOL     OW19225   3.875   4.706   2.208  0.8098 -0.2219  0.0458
 4865SOL    HW219226   3.814   4.649   2.254 -1.1317  0.0615 -2.0366
 4865SOL    HW319227   3.886   4.781   2.266 -1.5046  0.1128  0.1235
 4865SOL    MW419228   3.869   4.708   2.222  0.2483 -0.1404 -0.2187
 4866SOL     OW19229   0.485   0.745   3.553  0.0508 -0.2121 -0.3241
 4866SOL    HW219230   0.535   0.814   3.596 -1.3631  1.5011 -1.2538
 4866SOL    HW319231   0.403   0.740   3.603 -0.0409 -0.9202 -0.5289
 4866SOL    MW419232   0.480   0.753   3.566 -0.1478 -0.0795 -0.4738
 4867SOL     OW19233   0.553   6.013   1.619 -0.2524 -0.2822 -0.3270
 4867SOL    HW219234   0.470   6.015   1.668  0.5521  0.0315  1.0800
 4867SOL    HW319235   0.540   5.946   1.552 -1.5804 -0.3607 -0.0176
 4867SOL    MW419236   0.540   6.005   1.617 -0.3215 -0.2512 -0.1006
 4868SOL     OW19237   3.622   1.600   6.419  0.1247  0.1694  0.1480
 4868SOL    HW219238   3.647   1.588   6.511  1.3319  1.2100 -0.0200
 4868SOL    HW319239   3.700   1.572   6.370 -0.8269 -1.2507 -0.6273
 4868SOL    MW419240   3.636   1.594   6.425  0.1584  0.1193  0.0236
 4869SOL     OW19241   6.111   1.797   0.906 -0.3414  0.3041  0.2122
 4869SOL    HW219242   6.197   1.771   0.939  0.6531  1.9124 -0.9666
 4869SOL    HW319243   6.126   1.822   0.815 -2.6736 -2.3390 -1.0524
 4869SOL    MW419244   6.124   1.797   0.899 -0.5179  0.1676 -0.1101
 4870SOL     OW19245   4.838   1.591   3.589 -0.1507  0.3004  0.1754
 4870SOL    HW219246   4.872   1.518   3.536  0.7602 -0.5099  1.8003
 4870SOL    HW319247   4.769   1.551   3.643 -0.5368  0.9351  0.1557
 4870SOL    MW419248   4.833   1.576   3.589 -0.0814  0.2773  0.3872
 4871SOL     OW19249   3.807   2.788   0.753  0.3448 -0.2553  0.1212
 4871SOL    HW219250   3.835   2.714   0.808  3.0759  0.6836  0.1494
 4871SOL    HW319251   3.779   2.855   0.815  0.2265 -0.3761  0.1998
 4871SOL    MW419252   3.807   2.787   0.769  0.6895 -0.1474  0.1353
 4872SOL     OW19253   5.926   3.821   5.286  0.6924 -0.2192  0.1756
 4872SOL    HW219254   5.987   3.829   5.359 -0.5492  1.2860  1.1146
 4872SOL    HW319255   5.845   3.792   5.326  0.3393 -0.6218 -0.8064
 4872SOL    MW419256   5.923   3.819   5.301  0.4820 -0.0737  0.1699
 4873SOL     OW19257   1.873   3.444   4.182 -0.5380  0.1568 -0.0562
 4873SOL    HW219258   1.867   3.449   4.087 -0.5602  0.6017 -0.0350
 4873SOL    HW319259   1.841   3.529   4.212  2.8295  1.4729  0.1892
 4873SOL    MW419260   1.868   3.456   4.173 -0.0966  0.3891 -0.0210
 4874SOL     OW19261   1.236   4.162   5.933 -0.0083 -0.0882  0.2239
 4874SOL    HW219262   1.220   4.150   5.839  1.1669  0.0008 -0.0044
 4874SOL    HW319263   1.269   4.078   5.963  0.2992  0.0886  0.3946
 4874SOL    MW419264   1.238   4.150   5.924  0.1873 -0.0532  0.2163
 4875SOL     OW19265   3.786   2.482   5.713 -0.6100 -0.5313  0.4717
 4875SOL    HW219266   3.779   2.566   5.760  0.4502 -0.4495  0.5046
 4875SOL    HW319267   3.878   2.459   5.719 -0.6411 -1.0252 -0.7167
 4875SOL    MW419268   3.797   2.490   5.720 -0.4743 -0.5857  0.3192
 4876SOL     OW19269   4.227   1.021   0.394 -0.2254 -0.6061  0.3706
 4876SOL    HW219270   4.229   0.998   0.487 -1.3103 -1.9501  0.1109
 4876SOL    HW319271   4.254   1.112   0.390 -0.8677 -0.3115  2.0898
 4876SOL    MW419272   4.230   1.030   0.405 -0.4533 -0.7445  0.5632
 4877SOL     OW19273   2.637   2.142   4.030 -0.4240  0.6898 -0.2924
 4877SOL    HW219274   2.563   2.194   4.059  0.7935  2.2113  0.2548
 4877SOL    HW319275   2.601   2.080   3.966 -2.3912  0.3229  1.1102
 4877SOL    MW419276   2.623   2.140   4.025 -0.5229  0.8421 -0.0351
 4878SOL     OW19277   5.503   2.895   3.830 -0.7984 -0.0698 -0.1579
 4878SOL    HW219278   5.450   2.889   3.910 -1.4451 -0.2513 -0.5906
 4878SOL    HW319279   5.464   2.967   3.781 -0.0799  0.3818 -0.0887
 4878SOL    MW419280   5.491   2.903   3.834 -0.7889 -0.0342 -0.2059
 4879SOL     OW19281   1.926   6.283   5.131 -0.4197 -0.2418  0.1750
 4879SOL    HW219282   1.911   6.321   5.045 -0.3824  0.8106  0.6247
 4879SOL    HW319283   1.936   6.189   5.114  1.5840  0.1681 -1.2175
 4879SOL    MW419284   1.925   6.275   5.117 -0.1504 -0.0489  0.0506
 4880SOL     OW19285   2.880   0.875   1.843  0.2509 -1.2921 -0.4643
 4880SOL    HW219286   2.850   0.787   1.865  2.0368 -1.8795 -0.2212
 4880SOL    HW319287   2.925   0.906   1.922 -1.0369  0.1800 -0.2698
 4880SOL    MW419288   2.882   0.867   1.856  0.3166 -1.1753 -0.4065
 4881SOL     OW19289   1.740   6.082   5.550 -0.0252  0.7772  0.1930
 4881SOL    HW219290   1.821   6.099   5.599 -0.7953  1.1828  1.3513
 4881SOL    HW319291   1.714   6.168   5.517  0.3950  0.5343 -0.8198
 4881SOL    MW419292   1.748   6.096   5.552 -0.0714  0.7987  0.2122
 4882SOL     OW19293   6.189   0.480   0.464  0.9073  0.1727  0.2421
 4882SOL    HW219294   6.239   0.497   0.544  0.8165  0.3995  0.2501
 4882SOL    HW319295   6.126   0.413   0.490  0.5050  0.6487  0.5106
 4882SOL    MW419296   6.188   0.473   0.478  0.8423  0.2654  0.2786
 4883SOL     OW19297   5.842   5.804   4.357  0.2282 -0.1890 -0.6434
 4883SOL    HW219298   5.771   5.869   4.356 -1.6878 -2.0926  1.4870
 4883SOL    HW319299   5.804   5.725   4.320  2.1146 -0.5576 -1.9525
 4883SOL    MW419300   5.828   5.802   4.352  0.2243 -0.4888 -0.5350
 4884SOL     OW19301   3.837   3.494   5.548  0.0333  0.6534 -0.3591
 4884SOL    HW219302   3.881   3.579   5.543  0.5013  0.3638 -2.3747
 4884SOL    HW319303   3.761   3.503   5.489 -1.7407  0.6197  1.7986
 4884SOL    MW419304   3.833   3.506   5.539 -0.1390  0.6107 -0.3403
 4885SOL     OW19305   2.065   4.472   4.758 -0.0521 -0.0585 -0.1955
 4885SOL    HW219306   2.073   4.396   4.701 -2.7821  0.5984 -1.6136
 4885SOL    HW319307   1.975   4.501   4.746 -0.0731  1.4586  2.8155
 4885SOL    MW419308   2.054   4.466   4.749 -0.4151  0.2283  0.0147
 4886SOL     OW19309   4.780   0.479   5.668 -0.0507 -0.3194 -0.4295
 4886SOL    HW219310   4.708   0.489   5.606  0.2610 -1.5004 -1.0119
 4886SOL    HW319311   4.847   0.540   5.638  0.7419 -2.0183 -2.2455
 4886SOL    MW419312   4.779   0.488   5.656  0.0950 -0.6993 -0.7459
 4887SOL     OW19313   5.718   4.016   2.086  0.1758 -0.3245  0.4623
 4887SOL    HW219314   5.723   3.940   2.145  0.9206 -1.6832 -1.2600
 4887SOL    HW319315   5.624   4.030   2.072  0.0232 -2.0383 -0.5046
 4887SOL    MW419316   5.706   4.008   2.092  0.2539 -0.7299  0.1075
 4888SOL     OW19317   5.353   3.376   3.853  0.2366  0.0275  0.4881
 4888SOL    HW219318   5.386   3.294   3.816  0.8585 -0.4669  2.0562
 4888SOL    HW319319   5.431   3.421   3.884 -0.1761  0.9062  0.2874
 4888SOL    MW419320   5.368   3.371   3.852  0.2642  0.0782  0.6685
 4889SOL     OW19321   0.721   5.697   1.078 -0.1322 -0.5818 -0.6209
 4889SOL    HW219322   0.687   5.653   1.000 -2.5600  1.1629 -0.6957
 4889SOL    HW319323   0.693   5.642   1.151 -1.0020 -0.4388 -0.8330
 4889SOL    MW419324   0.713   5.684   1.078 -0.5673 -0.3327 -0.6588
 4890SOL     OW19325   2.362   6.148   5.615  0.3752 -0.5454  0.4029
 4890SOL    HW219326   2.410   6.149   5.698  1.6341 -0.1555 -0.2968
 4890SOL    HW319327   2.410   6.085   5.561 -0.7323 -1.1752  0.1274
 4890SOL    MW419328   2.375   6.140   5.619  0.3952 -0.5771  0.2742
 4891SOL     OW19329   2.609   4.538   5.539 -0.7579 -0.3251  0.1741
 4891SOL    HW219330   2.572   4.561   5.454 -0.9955  0.5350  0.4940
 4891SOL    HW319331   2.556   4.587   5.602 -0.1681 -0.4293  0.7675
 4891SOL    MW419332   2.597   4.547   5.537 -0.7115 -0.2254  0.2946
 4892SOL     OW19333   1.989   1.653   4.752 -0.1211 -0.0471  0.3398
 4892SOL    HW219334   1.909   1.694   4.784 -0.1088  0.1215  0.1549
 4892SOL    HW319335   2.019   1.710   4.681 -0.0268 -0.2967  0.1751
 4892SOL    MW419336   1.982   1.666   4.747 -0.1070 -0.0578  0.2937
 4893SOL     OW19337   6.374   5.358   0.244  0.3832  0.0057 -0.3970
 4893SOL    HW219338   6.314   5.284   0.250 -1.3424  1.2621 -1.1758
 4893SOL    HW319339   6.333   5.417   0.180  1.6915  1.6336  0.1907
 4893SOL    MW419340   6.360   5.356   0.236  0.3281  0.3862 -0.4222
 4894SOL     OW19341   6.139   3.895   2.937 -0.1211  0.5180  0.3165
 4894SOL    HW219342   6.229   3.918   2.959  0.7367 -1.3266 -1.0203
 4894SOL    HW319343   6.118   3.822   2.996 -0.6927  0.8224  0.5015
 4894SOL    MW419344   6.148   3.888   2.948 -0.0833  0.3148  0.1645
 4895SOL     OW19345   5.857   4.974   4.889 -0.6154 -0.0734 -0.1820
 4895SOL    HW219346   5.823   4.952   4.976 -0.4253 -2.0456 -0.5629
 4895SOL    HW319347   5.878   5.067   4.895 -1.9247  0.1655  1.4349
 4895SOL    MW419348   5.856   4.983   4.901 -0.7631 -0.3021 -0.0189
 4896SOL     OW19349   2.282   3.647   5.785 -0.1645  0.0310 -0.2340
 4896SOL    HW219350   2.232   3.565   5.782 -0.8621  0.4264  0.1523
 4896SOL    HW319351   2.373   3.620   5.784 -0.3879 -0.7678  0.2511
 4896SOL    MW419352   2.287   3.633   5.784 -0.2860 -0.0222 -0.1190
 4897SOL     OW19353   3.001   6.133   2.864 -0.8086 -0.3077 -0.0253
 4897SOL    HW219354   2.983   6.063   2.801  1.2926 -1.3206  0.4268
 4897SOL    HW319355   3.011   6.211   2.810  0.0314 -0.9861 -0.8876
 4897SOL    MW419356   3.000   6.134   2.849 -0.4205 -0.5308 -0.0794
 4898SOL     OW19357   5.833   4.122   0.797  0.3391  0.8193  0.1326
 4898SOL    HW219358   5.876   4.202   0.828  0.3333  2.1890 -2.9715
 4898SOL    HW319359   5.752   4.153   0.757 -0.0726 -0.8479 -0.3825
 4898SOL    MW419360   5.828   4.137   0.796  0.2840  0.7801 -0.3449
 4899SOL     OW19361   4.427   1.415   2.964  0.4003 -0.5075 -0.2387
 4899SOL    HW219362   4.457   1.397   3.053  0.2418 -0.9937 -0.2821
 4899SOL    HW319363   4.493   1.474   2.927  0.0945  0.2828  0.4410
 4899SOL    MW419364   4.440   1.421   2.971  0.3391 -0.4674 -0.1548
 4900SOL     OW19365   6.236   4.256   2.301  0.1234 -0.1467 -0.0651
 4900SOL    HW219366   6.301   4.190   2.325  1.3146  0.3783 -1.6323
 4900SOL    HW319367   6.273   4.339   2.330 -0.5338  0.0204  0.3199
 4900SOL    MW419368   6.249   4.258   2.308  0.1938 -0.0554 -0.2211
 4901SOL     OW19369   4.926   6.062   1.065 -0.2927  0.3663  0.0666
 4901SOL    HW219370   4.864   6.005   1.020  1.6929 -1.4402 -0.5456
 4901SOL    HW319371   4.890   6.073   1.153 -0.5155 -2.2823  0.3783
 4901SOL    MW419372   4.913   6.056   1.070 -0.0601 -0.2215  0.0269
 4902SOL     OW19373   2.856   4.951   4.957 -0.0657  0.1079  0.5565
 4902SOL    HW219374   2.923   5.015   4.933 -0.4382  0.1337 -0.4953
 4902SOL    HW319375   2.902   4.867   4.960  0.0998  0.1839  0.2292
 4902SOL    MW419376   2.871   4.948   4.954 -0.0930  0.1214  0.3746
 4903SOL     OW19377   3.685   4.538   4.677  0.1449 -0.0467 -0.2033
 4903SOL    HW219378   3.667   4.623   4.718  2.5829  0.7803 -0.7007
 4903SOL    HW319379   3.737   4.491   4.741  2.2604  0.4676 -1.4558
 4903SOL    MW419380   3.689   4.543   4.691  0.7457  0.1303 -0.4342
 4904SOL     OW19381   1.414   2.575   6.417 -0.0520 -0.0640  0.9947
 4904SOL    HW219382   1.417   2.659   6.371  0.7600 -1.2981 -1.3392
 4904SOL    HW319383   1.468   2.589   6.495  1.0747  1.2433  0.0257
 4904SOL    MW419384   1.422   2.588   6.421  0.2038 -0.0543  0.5589
 4905SOL     OW19385   5.106   5.909   4.679 -0.0750  0.3978  0.6974
 4905SOL    HW219386   5.042   5.977   4.700 -0.3734 -0.3876  2.5222
 4905SOL    HW319387   5.065   5.828   4.709  1.0390 -0.3544  0.2441
 4905SOL    MW419388   5.092   5.907   4.685  0.0326  0.1949  0.8783
 4906SOL     OW19389   6.037   3.694   4.146  0.6165 -0.0468  0.4547
 4906SOL    HW219390   6.045   3.788   4.166 -1.4144 -0.0786  1.6370
 4906SOL    HW319391   6.013   3.691   4.054  3.2047  0.4183 -0.3344
 4906SOL    MW419392   6.035   3.706   4.136  0.6901  0.0103  0.5065
 4907SOL     OW19393   2.035   5.212   5.692 -0.0886 -0.4039 -0.0377
 4907SOL    HW219394   1.967   5.236   5.756 -0.8858 -2.1108 -0.1855
 4907SOL    HW319395   1.995   5.230   5.607  0.5692  0.8512 -0.0967
 4907SOL    MW419396   2.021   5.217   5.689 -0.1070 -0.4635 -0.0650
 4908SOL     OW19397   1.019   3.981   3.807 -0.1972  0.1710  0.3473
 4908SOL    HW219398   0.981   4.024   3.729 -4.5493 -0.7435  1.6827
 4908SOL    HW319399   1.099   3.941   3.775 -1.5232  0.1916 -3.6262
 4908SOL    MW419400   1.024   3.982   3.792 -0.9464  0.0531 -0.0008
 4909SOL     OW19401   1.137   3.065   4.548 -0.3914 -0.4210  0.0304
 4909SOL    HW219402   1.059   3.118   4.565 -1.2469 -1.4125 -0.6993
 4909SOL    HW319403   1.169   3.040   4.635 -0.8533  0.0415  0.3345
 4909SOL    MW419404   1.131   3.069   4.562 -0.5652 -0.4908 -0.0258
 4910SOL     OW19405   6.135   6.188   3.308 -0.0395 -0.1909 -0.3563
 4910SOL    HW219406   6.191   6.255   3.348 -1.0005  1.2362 -1.3466
 4910SOL    HW319407   6.181   6.164   3.228  0.1236 -0.4652 -0.1825
 4910SOL    MW419408   6.149   6.194   3.303 -0.1448 -0.0388 -0.4640
 4911SOL     OW19409   6.187   1.598   4.375  0.3828  0.3038  0.6617
 4911SOL    HW219410   6.154   1.509   4.375 -0.1775  0.5082  0.3070
 4911SOL    HW319411   6.210   1.615   4.283  3.0350 -0.3931  1.1021
 4911SOL    MW419412   6.186   1.589   4.362  0.6588  0.2388  0.6730
 4912SOL     OW19413   5.768   3.055   2.244  0.3192  0.5048  0.2601
 4912SOL    HW219414   5.742   2.966   2.219  1.3167  0.1273  0.4773
 4912SOL    HW319415   5.710   3.113   2.195 -0.1420 -0.2690 -0.1224
 4912SOL    MW419416   5.757   3.051   2.234  0.3900  0.3529  0.2383
 4913SOL     OW19417   3.638   5.874   1.126 -0.2955 -0.1295  0.8700
 4913SOL    HW219418   3.693   5.818   1.072  0.6738  1.6216 -0.0111
 4913SOL    HW319419   3.678   5.870   1.213 -0.3794 -0.9622  0.8806
 4913SOL    MW419420   3.650   5.866   1.130 -0.1787 -0.0083  0.7551
 4914SOL     OW19421   1.863   0.363   3.885  0.3516 -1.0034 -0.8531
 4914SOL    HW219422   1.772   0.393   3.880  0.8463  0.4200 -2.2392
 4914SOL    HW319423   1.856   0.270   3.905 -1.3145 -0.3979  1.8054
 4914SOL    MW419424   1.850   0.355   3.887  0.1971 -0.7357 -0.6853
 4915SOL     OW19425   6.111   6.190   1.424  0.0827 -0.3530 -0.1033
 4915SOL    HW219426   6.185   6.248   1.403 -0.4160  0.0425 -0.8083
 4915SOL    HW319427   6.106   6.130   1.350 -0.3830 -0.3032 -0.1121
 4915SOL    MW419428   6.120   6.190   1.412 -0.0445 -0.2942 -0.1975
 4916SOL     OW19429   6.097   0.732   1.172 -0.2353 -0.6555  0.2593
 4916SOL    HW219430   6.078   0.771   1.086  1.0482 -1.0992 -0.2442
 4916SOL    HW319431   6.191   0.746   1.184 -0.4978 -0.1055  1.8623
 4916SOL    MW419432   6.107   0.739   1.162 -0.1006 -0.6415  0.4044
 4917SOL     OW19433   4.075   2.747   4.789  0.4234 -0.1145 -0.6651
 4917SOL    HW219434   4.053   2.726   4.880  0.8071  2.3368  0.0712
 4917SOL    HW319435   4.169   2.765   4.790  0.5720 -0.7611 -1.7164
 4917SOL    MW419436   4.084   2.746   4.801  0.4936  0.1236 -0.7066
 4918SOL     OW19437   0.781   2.468   3.027  0.5482 -0.2776 -0.0529
 4918SOL    HW219438   0.770   2.539   2.965 -1.5955  0.7042  1.3181
 4918SOL    HW319439   0.694   2.428   3.034  0.6206 -0.1820  2.4321
 4918SOL    MW419440   0.768   2.472   3.020  0.2749 -0.1354  0.4559
 4919SOL     OW19441   4.724   1.664   1.606 -0.2391 -0.0263 -0.0146
 4919SOL    HW219442   4.656   1.717   1.648 -0.0162  0.5345 -0.3458
 4919SOL    HW319443   4.678   1.586   1.576 -0.1095 -1.3165  2.7790
 4919SOL    MW419444   4.709   1.661   1.608 -0.1926 -0.1225  0.3103
 4920SOL     OW19445   4.264   3.970   1.353  0.0985 -0.4512 -0.1690
 4920SOL    HW219446   4.275   4.011   1.439 -0.1922  1.6420 -1.0640
 4920SOL    HW319447   4.172   3.945   1.350  0.0435 -0.2750  0.0278
 4920SOL    MW419448   4.253   3.972   1.364  0.0529 -0.1517 -0.2611
 4921SOL     OW19449   5.435   4.240   6.309  0.3989 -0.1888 -0.4510
 4921SOL    HW219450   5.379   4.299   6.258  0.6405 -0.5698 -1.1750
 4921SOL    HW319451   5.425   4.155   6.266 -0.2851 -0.7888  0.8496
 4921SOL    MW419452   5.426   4.236   6.296  0.3405 -0.3182 -0.3749
 4922SOL     OW19453   5.402   2.912   5.793 -0.1409 -0.4727  0.5142
 4922SOL    HW219454   5.433   2.933   5.705 -0.3487  2.3825  1.0395
 4922SOL    HW319455   5.465   2.848   5.826  0.9535 -0.2578 -1.0611
 4922SOL    MW419456   5.415   2.906   5.786 -0.0240 -0.0676  0.3757
 4923SOL     OW19457   0.283   2.951   6.382  0.0364  0.3825  0.0130
 4923SOL    HW219458   0.226   3.027   6.372 -0.6989 -0.2306 -0.6263
 4923SOL    HW319459   0.330   2.967   6.464  0.5042  1.8954 -0.5187
 4923SOL    MW419460   0.282   2.963   6.392  0.0011  0.5012 -0.1415
 4924SOL     OW19461   0.702   5.997   2.532  0.4662  0.4871 -0.2205
 4924SOL    HW219462   0.688   5.957   2.446  0.8188 -0.1549  0.0139
 4924SOL    HW319463   0.748   6.078   2.513  0.2056  0.5341 -0.6686
 4924SOL    MW419464   0.706   6.002   2.518  0.4783  0.4086 -0.2487
 4925SOL     OW19465   0.906   1.573   5.081 -0.0280 -0.4385 -0.1637
 4925SOL    HW219466   0.958   1.536   5.009  0.5724 -3.3516  1.5857
 4925SOL    HW319467   0.849   1.501   5.109 -0.9001  0.8891  1.6836
 4925SOL    MW419468   0.906   1.559   5.075 -0.0639 -0.6477  0.3108
 4926SOL     OW19469   4.810   5.315   5.400  0.0459 -0.3647 -0.4647
 4926SOL    HW219470   4.744   5.363   5.451  0.8112 -0.4736  0.6594
 4926SOL    HW319471   4.865   5.273   5.465  1.0101 -0.5856 -1.3956
 4926SOL    MW419472   4.808   5.316   5.415  0.2741 -0.4082 -0.4392
 4927SOL     OW19473   4.419   0.378   5.687  0.0920  0.3895  0.0721
 4927SOL    HW219474   4.492   0.324   5.658 -1.1059 -1.2098 -0.1149
 4927SOL    HW319475   4.406   0.441   5.616  1.8601  1.3453  0.5377
 4927SOL    MW419476   4.427   0.379   5.673  0.1672  0.3046  0.1089
 4928SOL     OW19477   2.694   4.966   2.260 -0.0652  0.4880  0.0081
 4928SOL    HW219478   2.639   4.933   2.189  0.5280 -0.5446  0.0089
 4928SOL    HW319479   2.730   4.887   2.301  0.4978  1.1097  0.7360
 4928SOL    MW419480   2.691   4.951   2.256  0.0874  0.4338  0.1042
 4929SOL     OW19481   3.596   1.331   6.199  0.2017  0.1796 -0.0901
 4929SOL    HW219482   3.583   1.340   6.293 -2.2897  1.1356 -0.4499
 4929SOL    HW319483   3.628   1.242   6.187 -1.1939 -0.5903  1.5489
 4929SOL    MW419484   3.598   1.321   6.210 -0.3112  0.2041  0.0787
 4930SOL     OW19485   6.041   3.705   0.674 -0.2765 -0.0863 -0.3098
 4930SOL    HW219486   6.075   3.684   0.587  1.1110  0.5912  0.0468
 4930SOL    HW319487   5.964   3.649   0.683  1.4247 -2.6968 -0.6702
 4930SOL    MW419488   6.035   3.695   0.664  0.1311 -0.3413 -0.3103
 4931SOL     OW19489   6.278   4.485   3.185 -0.4218 -0.3192  0.1029
 4931SOL    HW219490   6.201   4.441   3.220 -0.6637 -1.0421 -1.2542
 4931SOL    HW319491   6.351   4.425   3.203 -0.3533 -0.1429  0.4155
 4931SOL    MW419492   6.278   4.472   3.192 -0.4447 -0.3913 -0.0349
 4932SOL     OW19493   5.415   1.812   4.429 -0.2425  0.1018 -0.4843
 4932SOL    HW219494   5.436   1.750   4.359  0.6822  1.8120 -1.8163
 4932SOL    HW319495   5.423   1.898   4.388  1.8263  1.2742  2.0618
 4932SOL    MW419496   5.419   1.815   4.414  0.1524  0.4821 -0.3241
 4933SOL     OW19497   2.055   0.088   3.400 -0.0104 -0.1543 -0.0161
 4933SOL    HW219498   2.062   0.029   3.474  1.4154  0.4757  0.3766
 4933SOL    HW319499   1.964   0.119   3.402 -0.4901 -1.5431  0.3470
 4933SOL    MW419500   2.044   0.084   3.410  0.1144 -0.2544  0.0836
 4934SOL     OW19501   5.812   3.970   6.385  0.7919  0.0136  0.3766
 4934SOL    HW219502   5.734   3.915   6.376  0.3548  0.1227  2.8633
 4934SOL    HW319503   5.789   4.052   6.342 -0.5404  0.0974  1.2038
 4934SOL    MW419504   5.799   3.973   6.378  0.5584  0.0390  0.8139
 4935SOL     OW19505   1.748   2.080   4.932 -0.1204  0.1689 -0.3628
 4935SOL    HW219506   1.730   2.146   5.000 -0.2443  0.0755 -0.3043
 4935SOL    HW319507   1.690   2.104   4.860  0.6845  0.8367 -0.8194
 4935SOL    MW419508   1.738   2.092   4.932 -0.0305  0.2447 -0.4153
 4936SOL     OW19509   3.733   2.166   1.488  0.5568 -0.1388  0.3166
 4936SOL    HW219510   3.817   2.129   1.516 -0.1616  0.0114  2.9154
 4936SOL    HW319511   3.705   2.110   1.415  3.0466  0.0606 -0.8818
 4936SOL    MW419512   3.740   2.154   1.482  0.7905 -0.0927  0.5014
 4937SOL     OW19513   0.998   5.759   1.185 -0.0805 -0.5637  0.3982
 4937SOL    HW219514   1.079   5.725   1.147 -1.1300 -2.3224 -0.3371
 4937SOL    HW319515   0.930   5.738   1.122 -1.4726 -1.2030  2.0433
 4937SOL    MW419516   1.000   5.752   1.172 -0.4026 -0.8801  0.5183
 4938SOL     OW19517   2.355   6.265   3.674 -0.3614  0.6829 -0.3110
 4938SOL    HW219518   2.286   6.275   3.739  0.0350  1.3133  0.0343
 4938SOL    HW319519   2.403   6.348   3.678  1.5409 -0.4079  0.7838
 4938SOL    MW419520   2.352   6.277   3.683 -0.0581  0.6221 -0.1210
 4939SOL     OW19521   1.712   3.854   3.638  0.1270 -0.0630  0.0314
 4939SOL    HW219522   1.708   3.832   3.731  0.6894 -0.2035  0.0254
 4939SOL    HW319523   1.624   3.885   3.617 -0.1210 -0.4325  0.5105
 4939SOL    MW419524   1.700   3.855   3.647  0.1685 -0.1303  0.0939
 4940SOL     OW19525   0.610   4.370   3.845 -0.3133 -0.3472 -0.6209
 4940SOL    HW219526   0.680   4.421   3.885 -0.3293  1.0226 -2.2401
 4940SOL    HW319527   0.532   4.390   3.897  0.2262 -0.9619  0.4625
 4940SOL    MW419528   0.609   4.379   3.857 -0.2443 -0.2476 -0.6916
 4941SOL     OW19529   1.144   4.168   5.361  0.3267 -0.2470  0.4439
 4941SOL    HW219530   1.075   4.220   5.401  0.0486 -0.1658 -0.1332
 4941SOL    HW319531   1.209   4.157   5.430 -0.8238 -1.3971  1.3845
 4941SOL    MW419532   1.144   4.174   5.375  0.1382 -0.3880  0.4918
 4942SOL     OW19533   5.170   5.875   5.870 -0.5913 -0.3802  0.1058
 4942SOL    HW219534   5.141   5.927   5.794 -1.0357 -0.1074  0.4639
 4942SOL    HW319535   5.176   5.786   5.837 -0.2284 -0.1775 -0.4056
 4942SOL    MW419536   5.167   5.870   5.855 -0.6021 -0.3175  0.0856
 4943SOL     OW19537   1.720   3.003   3.068  0.0445 -0.2866  0.0816
 4943SOL    HW219538   1.808   2.992   3.033  0.2958 -0.5223  0.7589
 4943SOL    HW319539   1.730   3.066   3.140 -0.2889 -0.4924  0.3143
 4943SOL    MW419540   1.733   3.010   3.073  0.0337 -0.3449  0.2017
 4944SOL     OW19541   6.106   0.840   4.052 -0.5913 -0.1136 -0.7116
 4944SOL    HW219542   6.074   0.774   4.113 -0.9583  0.4452 -0.2881
 4944SOL    HW319543   6.173   0.887   4.102 -1.8130  1.2144 -0.2399
 4944SOL    MW419544   6.111   0.838   4.067 -0.8009  0.1353 -0.5935
 4945SOL     OW19545   4.465   1.845   5.646 -0.2442  0.4640  0.2959
 4945SOL    HW219546   4.396   1.779   5.638  0.1323  0.1581 -0.5997
 4945SOL    HW319547   4.418   1.928   5.653 -0.7432  0.3849 -1.4862
 4945SOL    MW419548   4.450   1.847   5.646 -0.2603  0.4132 -0.0574
 4946SOL     OW19549   1.587   1.194   1.043  0.1543  0.1716 -0.1321
 4946SOL    HW219550   1.661   1.149   1.083 -0.2836 -0.2097  0.2557
 4946SOL    HW319551   1.528   1.123   1.014  0.0194  0.4639 -0.5902
 4946SOL    MW419552   1.589   1.178   1.044  0.0787  0.1599 -0.1414
 4947SOL     OW19553   6.327   6.024   4.050  0.0790  0.0588  0.6855
 4947SOL    HW219554   6.237   6.051   4.032  0.7160  0.2073 -2.8485
 4947SOL    HW319555   6.365   6.098   4.098 -1.0368  1.0275  0.1185
 4947SOL    MW419556   6.320   6.037   4.054  0.0158  0.2062  0.1444
 4948SOL     OW19557   0.881   5.262   5.042 -0.1150  0.0910 -0.7847
 4948SOL    HW219558   0.806   5.306   5.003  0.6563  2.3906  0.1132
 4948SOL    HW319559   0.956   5.290   4.988  0.4617  0.3359  0.1126
 4948SOL    MW419560   0.881   5.272   5.030  0.0629  0.4267 -0.5479
 4949SOL     OW19561   3.000   4.323   0.452 -0.5829  0.2129  0.5941
 4949SOL    HW219562   3.010   4.244   0.505  1.4211  1.1735  1.8106
 4949SOL    HW319563   2.916   4.313   0.408 -1.0327 -1.9295  1.8099
 4949SOL    MW419564   2.990   4.311   0.453 -0.3778  0.0569  0.9150
 4950SOL     OW19565   4.520   0.383   0.976 -0.5873  0.0761 -0.2927
 4950SOL    HW219566   4.605   0.418   0.949  0.1242 -0.2556  1.3963
 4950SOL    HW319567   4.535   0.349   1.064 -1.7487 -2.6218 -1.0321
 4950SOL    MW419568   4.533   0.383   0.984 -0.6466 -0.3236 -0.1674
 4951SOL     OW19569   1.302   2.897   2.539  0.8900  0.2221  0.0312
 4951SOL    HW219570   1.249   2.902   2.619  1.1935  1.5117  0.1686
 4951SOL    HW319571   1.377   2.843   2.563  0.2643 -0.5869  0.1956
 4951SOL    MW419572   1.305   2.891   2.553  0.8475  0.2855  0.0710
 4952SOL     OW19573   1.577   3.001   2.822 -0.2876  0.0171  0.6082
 4952SOL    HW219574   1.625   2.987   2.904 -0.3283 -0.1488  0.6036
 4952SOL    HW319575   1.603   3.089   2.795  1.2205 -0.6417 -0.1951
 4952SOL    MW419576   1.587   3.011   2.830 -0.0940 -0.0917  0.5016
 4953SOL     OW19577   3.175   0.432   0.407 -0.1386  0.0947  0.2879
 4953SOL    HW219578   3.224   0.484   0.470  0.3088 -0.0926  0.0988
 4953SOL    HW319579   3.161   0.492   0.333  1.1950 -0.3150 -0.3292
 4953SOL    MW419580   3.179   0.447   0.405  0.0964  0.0159  0.1816
 4954SOL     OW19581   0.035   3.718   6.018 -0.0105  0.1210 -0.5466
 4954SOL    HW219582  -0.032   3.663   6.059 -0.1794 -0.4322 -1.5282
 4954SOL    HW319583   0.056   3.784   6.084 -0.1606 -0.8279  0.4702
 4954SOL    MW419584   0.029   3.719   6.032 -0.0526 -0.0772 -0.5420
 4955SOL     OW19585   3.912   5.788   1.841  0.0139  0.9814 -0.3417
 4955SOL    HW219586   3.934   5.814   1.930  1.4491  0.8569 -0.6410
 4955SOL    HW319587   3.991   5.745   1.808 -0.2733  1.5600 -1.8782
 4955SOL    MW419588   3.925   5.785   1.848  0.1653  1.0413 -0.5839
 4956SOL     OW19589   2.316   1.518   0.976  0.2306  0.2642 -0.0890
 4956SOL    HW219590   2.247   1.544   0.915 -0.0451  1.9198  0.8592
 4956SOL    HW319591   2.365   1.599   0.993  0.9744 -0.3848  1.0418
 4956SOL    MW419592   2.314   1.532   0.970  0.2923  0.3970  0.1853
 4957SOL     OW19593   0.482   1.139   0.411 -0.3076  0.2543  0.7556
 4957SOL    HW219594   0.512   1.210   0.468  0.5300  0.4992  0.0304
 4957SOL    HW319595   0.453   1.183   0.331 -2.1703 -0.0185  1.2144
 4957SOL    MW419596   0.482   1.154   0.408 -0.4428  0.2507  0.7204
 4958SOL     OW19597   1.425   0.869   0.118 -0.3036 -0.4257  0.0646
 4958SOL    HW219598   1.342   0.823   0.131 -0.9619  0.6577 -0.1599
 4958SOL    HW319599   1.435   0.874   0.023  1.0286 -2.2739  0.0722
 4958SOL    MW419600   1.415   0.864   0.107 -0.2147 -0.5266  0.0360
 4959SOL     OW19601   6.011   1.902   4.377 -0.2930 -0.2716 -0.1104
 4959SOL    HW219602   6.097   1.869   4.352 -0.5771  0.0298 -1.5475
 4959SOL    HW319603   6.021   1.928   4.469  1.4244  0.6416 -0.5232
 4959SOL    MW419604   6.023   1.901   4.386 -0.1039 -0.1114 -0.3545
 4960SOL     OW19605   5.266   4.120   0.057  0.7420 -0.0456 -0.1373
 4960SOL    HW219606   5.348   4.094   0.099  1.2345  1.0109 -0.3971
 4960SOL    HW319607   5.292   4.183  -0.010 -0.2015 -0.4000 -0.8678
 4960SOL    MW419608   5.280   4.125   0.054  0.6825  0.0470 -0.2679
 4961SOL     OW19609   5.316   5.439   5.721  0.1508  0.2782 -0.1811
 4961SOL    HW219610   5.393   5.397   5.760  0.6596  1.2301 -0.1131
 4961SOL    HW319611   5.295   5.510   5.781  0.3848  1.1966 -1.1397
 4961SOL    MW419612   5.324   5.443   5.734  0.2488  0.5250 -0.2986
 4962SOL     OW19613   6.416   4.184   6.071 -0.3698 -0.1297 -0.3217
 4962SOL    HW219614   6.349   4.216   6.011 -1.2722 -0.9326  0.2263
 4962SOL    HW319615   6.404   4.235   6.150  0.0098  0.0741 -0.3907
 4962SOL    MW419616   6.406   4.195   6.073 -0.4388 -0.2087 -0.2585
 4963SOL     OW19617   4.745   0.867   4.838 -0.4181 -0.2752 -0.0793
 4963SOL    HW219618   4.776   0.945   4.793 -3.4847  1.1681  0.0034
 4963SOL    HW319619   4.746   0.798   4.772 -1.4630  0.9090 -1.3825
 4963SOL    MW419620   4.749   0.868   4.823 -0.9606  0.0715 -0.2404
 4964SOL     OW19621   1.343   3.246   4.479 -0.5092 -0.2467  0.5679
 4964SOL    HW219622   1.286   3.170   4.470  0.8214 -1.3548  1.1955
 4964SOL    HW319623   1.364   3.249   4.572  0.8761 -0.1893  0.2732
 4964SOL    MW419624   1.338   3.237   4.490 -0.1509 -0.3853  0.6119
 4965SOL     OW19625   0.251   1.687   2.736 -0.0706 -0.1039  0.1517
 4965SOL    HW219626   0.328   1.649   2.693 -0.8189 -0.6927 -0.6997
 4965SOL    HW319627   0.285   1.762   2.784  1.5458 -2.0712  2.2565
 4965SOL    MW419628   0.266   1.692   2.736  0.0439 -0.4412  0.3171
 4966SOL     OW19629   5.087   6.115   4.256  0.1050  0.5858  0.4418
 4966SOL    HW219630   5.140   6.162   4.191 -0.2205  1.8368  1.0536
 4966SOL    HW319631   5.020   6.070   4.205  1.8447 -1.2430 -0.3818
 4966SOL    MW419632   5.085   6.115   4.241  0.2915  0.5095  0.4138
 4967SOL     OW19633   0.628   4.044   5.171  0.1340  0.0365  0.2122
 4967SOL    HW219634   0.589   4.009   5.091 -0.2729  1.2068 -0.1220
 4967SOL    HW319635   0.554   4.068   5.226  0.4068 -0.9830  1.0685
 4967SOL    MW419636   0.613   4.042   5.168  0.1163  0.0564  0.2811
 4968SOL     OW19637   0.626   5.515   2.947  0.4201 -0.1951  0.3089
 4968SOL    HW219638   0.584   5.573   3.011  0.2222  0.9096 -0.7729
 4968SOL    HW319639   0.706   5.485   2.990  1.0814  1.7504  0.5563
 4968SOL    MW419640   0.631   5.519   2.961  0.4812  0.2073  0.1988
 4969SOL     OW19641   4.729   6.027   3.179  0.1905  0.1169 -0.1111
 4969SOL    HW219642   4.784   5.953   3.202  0.5476  0.7837  1.3116
 4969SOL    HW319643   4.656   6.023   3.241 -0.7087 -0.0269 -1.1497
 4969SOL    MW419644   4.726   6.017   3.190  0.1190  0.1859 -0.0604
 4970SOL     OW19645   5.604   0.057   1.520 -0.6947 -0.3430  0.3646
 4970SOL    HW219646   5.616   0.151   1.534 -0.3657 -0.5352  1.4645
 4970SOL    HW319647   5.550   0.052   1.442 -0.0822  0.7448 -0.1652
 4970SOL    MW419648   5.598   0.069   1.512 -0.5704 -0.2249  0.4398
 4971SOL     OW19649   1.111   2.380   4.938  0.4074  0.1220 -0.2530
 4971SOL    HW219650   1.184   2.320   4.920 -0.3872 -0.7741 -0.5793
 4971SOL    HW319651   1.062   2.338   5.008 -0.7417 -0.1585 -1.1895
 4971SOL    MW419652   1.114   2.366   4.945  0.1510 -0.0332 -0.4196
 4972SOL     OW19653   1.766   2.719   4.210  0.3117  0.0856  0.1737
 4972SOL    HW219654   1.813   2.637   4.192  1.6444  0.4675  1.6964
 4972SOL    HW319655   1.806   2.784   4.152  0.3908  0.0311  0.1688
 4972SOL    MW419656   1.777   2.717   4.200  0.4980  0.1288  0.3740
 4973SOL     OW19657   4.898   1.925   0.183  0.2882 -0.3598  0.0096
 4973SOL    HW219658   4.829   1.884   0.132 -0.4877  2.4195 -1.3615
 4973SOL    HW319659   4.907   1.869   0.260 -1.6845 -2.1958 -0.9884
 4973SOL    MW419660   4.890   1.912   0.187 -0.0744 -0.2353 -0.3030
 4974SOL     OW19661   2.062   1.684   1.753  0.1411  0.1682 -0.1877
 4974SOL    HW219662   2.053   1.768   1.708  1.4312 -0.5851 -1.9464
 4974SOL    HW319663   2.144   1.648   1.719 -0.8590 -2.2383 -0.1818
 4974SOL    MW419664   2.072   1.691   1.743  0.1794 -0.2487 -0.4190
 4975SOL     OW19665   6.176   1.231   3.614 -0.3500 -0.8907  0.2418
 4975SOL    HW219666   6.145   1.197   3.530  0.6828 -2.1573  0.3360
 4975SOL    HW319667   6.098   1.233   3.669 -0.9125 -0.6761 -0.5435
 4975SOL    MW419668   6.162   1.227   3.610 -0.2879 -1.0295  0.1506
 4976SOL     OW19669   6.071   3.561   1.300  0.0491 -0.0946 -0.1598
 4976SOL    HW219670   5.995   3.612   1.327 -0.0850 -0.0374 -0.6483
 4976SOL    HW319671   6.138   3.627   1.279  0.0882 -0.1363 -0.1673
 4976SOL    MW419672   6.070   3.576   1.301  0.0366 -0.0926 -0.2253
 4977SOL     OW19673   0.224   5.191   2.384  0.7916 -0.1633  0.1271
 4977SOL    HW219674   0.241   5.225   2.472  1.5389  1.1576 -0.4945
 4977SOL    HW319675   0.221   5.269   2.328 -0.3547 -0.9245 -0.9261
 4977SOL    MW419676   0.226   5.206   2.388  0.7390 -0.0894 -0.0939
 4978SOL     OW19677   4.102   3.950   6.119 -0.4666  0.3892 -0.4797
 4978SOL    HW219678   4.173   3.969   6.180 -1.6176  2.3258  0.3282
 4978SOL    HW319679   4.146   3.939   6.034  0.7106  3.5344 -0.4074
 4978SOL    MW419680   4.117   3.951   6.116 -0.4631  1.0596 -0.3636
 4979SOL     OW19681   3.642   2.439   0.516 -0.4692  0.3244 -0.0790
 4979SOL    HW219682   3.582   2.416   0.445 -0.1236 -1.9074  0.2780
 4979SOL    HW319683   3.654   2.534   0.508 -2.0815  0.4384 -1.6756
 4979SOL    MW419684   3.636   2.448   0.505 -0.6363  0.0450 -0.2425
 4980SOL     OW19685   2.016   3.940   4.840  0.6231 -0.3588 -0.2721
 4980SOL    HW219686   2.018   3.969   4.931  1.2890  0.3307 -0.4983
 4980SOL    HW319687   1.930   3.967   4.809  0.6578  0.0243 -0.0434
 4980SOL    MW419688   2.005   3.947   4.848  0.7155 -0.2173 -0.2717
 4981SOL     OW19689   3.394   0.368   5.576  0.2415  0.1874  0.3446
 4981SOL    HW219690   3.417   0.399   5.489  0.6712 -0.9712  0.0209
 4981SOL    HW319691   3.389   0.447   5.630  0.2607  0.8882 -0.6595
 4981SOL    MW419692   3.396   0.382   5.572  0.3007  0.1270  0.1694
 4982SOL     OW19693   5.457   1.254   1.420  0.2473  0.3944 -0.2367
 4982SOL    HW219694   5.499   1.186   1.473 -2.2042 -0.4958  0.7373
 4982SOL    HW319695   5.413   1.205   1.350 -0.6095  1.0647 -0.1831
 4982SOL    MW419696   5.457   1.239   1.418 -0.1892  0.3654 -0.1011
 4983SOL     OW19697   3.006   4.456   3.755 -0.2449 -0.3464 -0.1999
 4983SOL    HW219698   2.939   4.509   3.799  0.1690 -1.1231  1.4366
 4983SOL    HW319699   3.089   4.487   3.791  0.1458 -0.6940 -0.7881
 4983SOL    MW419700   3.008   4.467   3.765 -0.1388 -0.4948 -0.0616
 4984SOL     OW19701   4.306   4.679   6.134 -0.3724  0.0239  0.1805
 4984SOL    HW219702   4.385   4.716   6.094 -0.6756 -0.1286 -0.5798
 4984SOL    HW319703   4.325   4.585   6.143  0.2320  0.2661  1.7130
 4984SOL    MW419704   4.319   4.671   6.130 -0.3326  0.0357  0.2824
 4985SOL     OW19705   0.042   0.310   2.058  0.3023  0.2477  0.1142
 4985SOL    HW219706   0.048   0.355   1.974  1.7543  0.3880  0.2687
 4985SOL    HW319707   0.031   0.218   2.036 -3.1416  0.6208 -0.2119
 4985SOL    MW419708   0.041   0.304   2.044  0.0395  0.3154  0.0915
 4986SOL     OW19709   5.867   5.782   5.662 -0.3548 -0.1349 -0.6277
 4986SOL    HW219710   5.897   5.810   5.748  0.9678  0.1804 -1.1684
 4986SOL    HW319711   5.807   5.710   5.680  0.2385 -0.3607  0.5379
 4986SOL    MW419712   5.863   5.776   5.675 -0.1020 -0.1231 -0.5452
 4987SOL     OW19713   1.011   2.214   3.691  0.9538  0.0108 -0.1339
 4987SOL    HW219714   1.009   2.167   3.608 -0.7238  0.6533 -0.4881
 4987SOL    HW319715   0.919   2.231   3.713  1.3983  0.8651  1.2751
 4987SOL    MW419716   0.999   2.210   3.683  0.7911  0.2083  0.0053
 4988SOL     OW19717   4.277   3.942   4.148 -0.2074 -0.1369 -0.1694
 4988SOL    HW219718   4.362   3.927   4.108  0.0034  1.3094 -0.3071
 4988SOL    HW319719   4.282   3.898   4.233 -0.1057 -1.8878 -1.0371
 4988SOL    MW419720   4.289   3.934   4.154 -0.1662 -0.1771 -0.3020
 4989SOL     OW19721   1.681   5.620   0.368 -0.3090 -0.3262  0.1737
 4989SOL    HW219722   1.738   5.688   0.330  0.2067 -0.4773  0.6723
 4989SOL    HW319723   1.663   5.561   0.294  1.4841 -1.1592  0.3336
 4989SOL    MW419724   1.686   5.621   0.353 -0.0044 -0.4561  0.2606
 4990SOL     OW19725   5.643   5.961   6.035 -0.1790 -0.1179 -0.5767
 4990SOL    HW219726   5.718   6.014   6.058  0.2301 -0.7262 -0.4741
 4990SOL    HW319727   5.568   6.007   6.073  0.4576 -1.0940  2.0699
 4990SOL    MW419728   5.643   5.974   6.043 -0.0410 -0.3270 -0.2140
 4991SOL     OW19729   1.393   0.058   2.547 -0.1359 -0.5545 -0.8042
 4991SOL    HW219730   1.462   0.123   2.562  0.1136 -0.9074 -0.3817
 4991SOL    HW319731   1.418   0.015   2.465 -0.2151 -0.2230 -1.0008
 4991SOL    MW419732   1.406   0.061   2.538 -0.1134 -0.5573 -0.7744
 4992SOL     OW19733   0.112   3.414   6.241  0.2129 -0.2115 -0.1793
 4992SOL    HW219734   0.136   3.493   6.290 -0.9160  0.2950 -0.4075
 4992SOL    HW319735   0.022   3.430   6.213 -0.5282 -2.1211  0.8927
 4992SOL    MW419736   0.103   3.426   6.244 -0.0338 -0.3966 -0.0680
 4993SOL     OW19737   5.210   5.239   0.064  0.4835 -0.1271 -0.6198
 4993SOL    HW219738   5.297   5.207   0.041  0.9085 -0.4862  1.2629
 4993SOL    HW319739   5.215   5.334   0.054  1.2828 -0.0970 -0.0527
 4993SOL    MW419740   5.222   5.248   0.060  0.6451 -0.1705 -0.2966
 4994SOL     OW19741   4.072   3.304   1.459 -0.3046  0.0160 -0.0687
 4994SOL    HW219742   4.158   3.336   1.485 -0.3717 -0.0657  0.2547
 4994SOL    HW319743   4.073   3.211   1.480 -0.7214  0.1546  0.6148
 4994SOL    MW419744   4.083   3.296   1.465 -0.3684  0.0235  0.0641
 4995SOL     OW19745   1.029   6.364   5.167 -0.8609 -0.6052 -0.0398
 4995SOL    HW219746   1.106   6.371   5.223  0.0067 -2.7043 -0.9027
 4995SOL    HW319747   1.050   6.416   5.090 -0.9457  0.0339  0.3569
 4995SOL    MW419748   1.042   6.372   5.164 -0.7576 -0.7979 -0.1013
 4996SOL     OW19749   4.344   5.643   5.586  0.5355  0.7194 -0.2103
 4996SOL    HW219750   4.309   5.654   5.498  0.2720 -2.2843 -0.6034
 4996SOL    HW319751   4.439   5.653   5.576  0.3443  3.0035 -0.2554
 4996SOL    MW419752   4.352   5.646   5.573  0.4755  0.6245 -0.2681
 4997SOL     OW19753   2.895   2.849   3.061 -0.0374 -0.5864  0.2794
 4997SOL    HW219754   2.858   2.875   3.146 -0.9821 -0.8541 -0.0384
 4997SOL    HW319755   2.866   2.758   3.049 -0.8422 -0.2069 -0.8245
 4997SOL    MW419756   2.886   2.840   3.071 -0.2682 -0.5717  0.0918
 4998SOL     OW19757   3.466   6.124   3.372  0.2831 -0.6385  0.0065
 4998SOL    HW219758   3.413   6.188   3.323  1.5842  0.2121 -0.3535
 4998SOL    HW319759   3.527   6.178   3.422  1.0208 -1.5886  0.1569
 4998SOL    MW419760   3.467   6.140   3.372  0.5521 -0.6516 -0.0212
 4999SOL     OW19761   3.210   5.897   3.181 -0.1186 -0.1486  0.4070
 4999SOL    HW219762   3.299   5.926   3.201 -0.2274  1.2535 -0.9432
 4999SOL    HW319763   3.210   5.804   3.202  1.1649  0.1681  2.0293
 4999SOL    MW419764   3.222   5.889   3.186  0.0364  0.0782  0.4429
 5000SOL     OW19765   5.913   2.260   4.567 -0.3088 -0.5996  0.4713
 5000SOL    HW219766   5.987   2.211   4.532  1.1163  0.5403  1.7886
 5000SOL    HW319767   5.935   2.352   4.552 -2.2088 -0.2470 -0.5338
 5000SOL    MW419768   5.925   2.265   4.561 -0.3715 -0.4027  0.5125
 5001SOL     OW19769   3.667   1.723   0.424 -0.4767 -0.7539 -0.2091
 5001SOL    HW219770   3.717   1.694   0.500 -0.9063 -0.4148  0.2099
 5001SOL    HW319771   3.575   1.719   0.452 -0.5206  3.2401  0.7327
 5001SOL    MW419772   3.661   1.719   0.438 -0.5392 -0.1822 -0.0295
 5002SOL     OW19773   5.048   1.465   4.631 -0.1738  0.8768 -0.5622
 5002SOL    HW219774   4.990   1.537   4.656 -2.0762 -1.1014  1.1405
 5002SOL    HW319775   5.041   1.403   4.703 -0.1919 -1.9223 -2.8033
 5002SOL    MW419776   5.040   1.466   4.644 -0.4272  0.2465 -0.6332
 5003SOL     OW19777   2.857   5.618   4.224 -0.1288  0.5157 -0.3429
 5003SOL    HW219778   2.936   5.611   4.278 -0.9618  2.4718  1.2335
 5003SOL    HW319779   2.789   5.572   4.274 -0.2038 -0.5491 -1.3625
 5003SOL    MW419780   2.858   5.611   4.238 -0.2486  0.6333 -0.2695
 5004SOL     OW19781   6.023   3.648   0.172 -0.1451  0.0386 -0.8853
 5004SOL    HW219782   5.936   3.662   0.210 -0.2262 -0.2611 -0.9596
 5004SOL    HW319783   6.007   3.631   0.079 -0.0256 -0.2403 -0.8556
 5004SOL    MW419784   6.010   3.647   0.165 -0.1401 -0.0378 -0.8912
 5005SOL     OW19785   1.503   5.569   6.362  0.0487  0.9896 -0.0379
 5005SOL    HW219786   1.421   5.568   6.313  0.4108 -2.1475 -0.8424
 5005SOL    HW319787   1.554   5.497   6.324  1.3104 -0.1485  3.4060
 5005SOL    MW419788   1.499   5.559   6.350  0.2630  0.4255  0.3103
 5006SOL     OW19789   3.576   0.663   2.137 -0.5621 -0.0036 -0.0811
 5006SOL    HW219790   3.552   0.610   2.061  0.8728  1.0971 -1.3764
 5006SOL    HW319791   3.669   0.645   2.149 -0.6441  0.2960  1.0589
 5006SOL    MW419792   3.585   0.654   2.128 -0.3836  0.1812 -0.1016
 5007SOL     OW19793   3.970   2.736   5.046  0.3359  0.1382  0.1801
 5007SOL    HW219794   3.909   2.672   5.082  1.4021 -0.8818  0.2166
 5007SOL    HW319795   4.044   2.734   5.106  1.0445  0.2704 -0.6785
 5007SOL    MW419796   3.972   2.727   5.059  0.5701  0.0211  0.0716
 5008SOL     OW19797   2.084   4.140   0.059 -0.0660  0.3739 -0.1220
 5008SOL    HW219798   2.126   4.215   0.101 -0.3766  0.3509  0.2364
 5008SOL    HW319799   2.155   4.077   0.047 -0.0267  0.2449  0.6850
 5008SOL    MW419800   2.099   4.142   0.063 -0.1018  0.3538  0.0318
 5009SOL     OW19801   5.375   5.242   3.285  0.7049  0.0932 -0.3456
 5009SOL    HW219802   5.393   5.335   3.297  2.5745 -0.1793 -0.8631
 5009SOL    HW319803   5.439   5.213   3.221  0.0758 -1.5493 -0.2716
 5009SOL    MW419804   5.386   5.251   3.278  0.8685 -0.1595 -0.4041
 5010SOL     OW19805   5.573   5.339   2.129 -0.1342 -0.4583  0.0789
 5010SOL    HW219806   5.588   5.269   2.067 -0.3233  1.4973 -2.3381
 5010SOL    HW319807   5.606   5.306   2.213  0.1654 -3.1836 -1.0385
 5010SOL    MW419808   5.579   5.326   2.132 -0.1196 -0.5599 -0.3874
 5011SOL     OW19809   2.772   5.438   2.467 -0.1101 -0.0699 -0.7256
 5011SOL    HW219810   2.748   5.413   2.378 -0.5011  0.0034 -0.6426
 5011SOL    HW319811   2.701   5.496   2.495 -1.1889 -1.8606  0.4480
 5011SOL    MW419812   2.759   5.442   2.459 -0.3041 -0.2965 -0.5598
 5012SOL     OW19813   4.857   5.303   0.534 -0.4300 -0.2567  0.9022
 5012SOL    HW219814   4.796   5.272   0.600 -0.8559 -1.9875 -0.2355
 5012SOL    HW319815   4.915   5.228   0.517  0.5252  0.5920  0.2746
 5012SOL    MW419816   4.857   5.289   0.540 -0.3602 -0.3731  0.6693
 5013SOL     OW19817   3.616   2.940   5.243 -0.4363 -0.2407 -0.3364
 5013SOL    HW219818   3.578   2.984   5.166 -0.8681 -0.8696 -0.4947
 5013SOL    HW319819   3.587   2.993   5.317 -2.9138 -1.4785 -0.3100
 5013SOL    MW419820   3.607   2.953   5.242 -0.8201 -0.4870 -0.3538
 5014SOL     OW19821   4.660   4.907   1.352  0.4429 -0.3763  0.0916
 5014SOL    HW219822   4.681   4.854   1.429  1.9191  2.1460  1.5661
 5014SOL    HW319823   4.580   4.954   1.377 -0.0624 -0.8325 -0.6355
 5014SOL    MW419824   4.652   4.906   1.365  0.5710 -0.1037  0.1902
 5015SOL     OW19825   2.801   3.317   4.719  0.1305 -0.2488  0.3158
 5015SOL    HW219826   2.857   3.366   4.779 -0.6314  0.4253  0.5003
 5015SOL    HW319827   2.791   3.374   4.643 -0.7143 -0.1339  0.5040
 5015SOL    MW419828   2.807   3.331   4.717 -0.0815 -0.1447  0.3650
 5016SOL     OW19829   4.365   2.508   2.127  0.0884  0.0430 -0.3578
 5016SOL    HW219830   4.392   2.591   2.087  1.4292 -0.6048 -0.8474
 5016SOL    HW319831   4.288   2.482   2.077  1.7063 -0.7386 -2.6340
 5016SOL    MW419832   4.358   2.516   2.115  0.4788 -0.1456 -0.7227
 5017SOL     OW19833   0.587   6.090   2.948 -0.4286  0.1251 -0.0692
 5017SOL    HW219834   0.547   6.071   3.033 -0.2561  1.5611  0.3475
 5017SOL    HW319835   0.621   6.179   2.956  0.9266 -0.2545 -1.1446
 5017SOL    MW419836   0.586   6.099   2.960 -0.2270  0.2644 -0.1561
 5018SOL     OW19837   4.334   6.334   4.102 -0.4431  0.2461 -0.5864
 5018SOL    HW219838   4.268   6.367   4.163 -0.3981  0.1800 -0.5012
 5018SOL    HW319839   4.285   6.306   4.025 -0.5978 -0.4865 -0.2378
 5018SOL    MW419840   4.319   6.334   4.100 -0.4576  0.1407 -0.5292
 5019SOL     OW19841   3.449   4.768   1.666 -0.6387  0.2818  0.3982
 5019SOL    HW219842   3.491   4.698   1.616 -0.2977  1.5894 -1.2189
 5019SOL    HW319843   3.365   4.730   1.693  0.0591 -1.1693  0.6673
 5019SOL    MW419844   3.444   4.753   1.663 -0.5017  0.2629  0.2204
 5020SOL     OW19845   6.299   4.930   1.625 -0.4435  0.4443 -0.5630
 5020SOL    HW219846   6.230   4.881   1.670 -0.9719 -0.8767 -2.7040
 5020SOL    HW319847   6.252   4.990   1.567  0.2180  2.6322  0.9884
 5020SOL    MW419848   6.284   4.932   1.623 -0.4260  0.5587 -0.6408
 5021SOL     OW19849   1.287   1.884   0.295  0.2600 -0.4778  0.0656
 5021SOL    HW219850   1.262   1.928   0.214  0.3873 -0.7331 -0.1144
 5021SOL    HW319851   1.308   1.955   0.356 -0.8736 -0.2573  0.2218
 5021SOL    MW419852   1.287   1.899   0.293  0.1272 -0.4824  0.0625
 5022SOL     OW19853   2.252   4.489   6.250 -0.1145 -0.1007  0.1403
 5022SOL    HW219854   2.338   4.477   6.290 -1.0231 -0.3800  2.1419
 5022SOL    HW319855   2.237   4.584   6.251  0.6262  0.0613 -1.3254
 5022SOL    MW419856   2.261   4.500   6.255 -0.1366 -0.1161  0.2110
 5023SOL     OW19857   1.698   5.515   1.094 -0.2417  0.1622 -0.6394
 5023SOL    HW219858   1.688   5.473   1.009 -0.0321 -0.1235 -0.5231
 5023SOL    HW319859   1.736   5.448   1.150 -1.4918 -0.0451 -0.0036
 5023SOL    MW419860   1.701   5.501   1.090 -0.3790  0.0972 -0.5402
 5024SOL     OW19861   2.154   4.753   3.618  0.4714 -0.0315  0.4777
 5024SOL    HW219862   2.247   4.775   3.626  0.6823  0.0557 -1.5579
 5024SOL    HW319863   2.152   4.681   3.555 -0.8069 -0.5882  1.1145
 5024SOL    MW419864   2.166   4.747   3.611  0.3306 -0.0934  0.2932
 5025SOL     OW19865   4.741   1.944   3.597 -0.2220 -0.5638  0.7026
 5025SOL    HW219866   4.824   1.906   3.626  0.5365  0.0775 -0.5618
 5025SOL    HW319867   4.763   1.993   3.518 -2.0185 -1.3886 -0.3854
 5025SOL    MW419868   4.755   1.945   3.590 -0.3590 -0.5880  0.3922
 5026SOL     OW19869   3.480   0.991   5.771 -0.1762  0.3965 -0.4446
 5026SOL    HW219870   3.498   1.044   5.693 -0.0435  1.5980  0.3861
 5026SOL    HW319871   3.390   1.013   5.795 -0.0683  0.3624  0.0035
 5026SOL    MW419872   3.471   1.001   5.764 -0.1445  0.5505 -0.2758
 5027SOL     OW19873   0.763   5.523   1.570 -0.2779 -0.2862 -0.6272
 5027SOL    HW219874   0.790   5.600   1.521  0.2953 -0.0580  0.0402
 5027SOL    HW319875   0.735   5.556   1.655  0.4780 -0.8504 -0.1406
 5027SOL    MW419876   0.763   5.537   1.575 -0.1025 -0.3305 -0.4750
 5028SOL     OW19877   0.216   4.770   1.627 -0.0137 -0.4374  0.1037
 5028SOL    HW219878   0.174   4.729   1.702 -0.6425 -0.3057 -0.1688
 5028SOL    HW319879   0.146   4.782   1.563  0.5365 -0.6876 -0.5700
 5028SOL    MW419880   0.202   4.766   1.628 -0.0240 -0.4531 -0.0212
 5029SOL     OW19881   2.887   5.365   0.612 -0.4222  0.2519  0.0652
 5029SOL    HW219882   2.926   5.354   0.525 -0.5256 -0.9412  0.1617
 5029SOL    HW319883   2.934   5.303   0.667 -2.8325 -1.7465  0.0469
 5029SOL    MW419884   2.898   5.355   0.607 -0.7538 -0.1692  0.0755
 5030SOL     OW19885   0.486   0.219   0.008  0.1734  0.2711  0.4440
 5030SOL    HW219886   0.514   0.255  -0.076 -0.1188  1.8539  1.0022
 5030SOL    HW319887   0.391   0.225   0.007 -0.0046 -1.8182 -0.0000
 5030SOL    MW419888   0.477   0.225  -0.003  0.1114  0.2043  0.4591
 5031SOL     OW19889   3.940   1.806   2.654  0.4001  0.8451  0.1350
 5031SOL    HW219890   3.951   1.712   2.667  1.7497  1.1057  1.0733
 5031SOL    HW319891   3.926   1.841   2.742  1.4069  1.6825 -0.0123
 5031SOL    MW419892   3.940   1.799   2.668  0.7110  0.9900  0.2394
 5032SOL     OW19893   3.282   3.356   3.276  0.3550 -0.2808  0.4100
 5032SOL    HW219894   3.258   3.266   3.297 -1.1738 -0.2610 -1.0467
 5032SOL    HW319895   3.263   3.405   3.355  1.3157 -1.2260  1.2653
 5032SOL    MW419896   3.276   3.351   3.289  0.2800 -0.4029  0.3306
 5033SOL     OW19897   3.212   0.255   1.968  0.3195  0.3514  0.6628
 5033SOL    HW219898   3.171   0.285   1.887  0.0521 -2.5991 -0.3840
 5033SOL    HW319899   3.283   0.197   1.939  0.5399 -0.3706  2.5314
 5033SOL    MW419900   3.216   0.252   1.954  0.3133 -0.1332  0.7712
 5034SOL     OW19901   2.702   2.612   2.138 -0.2129  0.2474 -0.6734
 5034SOL    HW219902   2.697   2.573   2.225  0.3033  0.2803 -0.6313
 5034SOL    HW319903   2.611   2.613   2.108 -0.2266 -1.1198 -0.7445
 5034SOL    MW419904   2.689   2.607   2.146 -0.1466  0.0714 -0.6772
 5035SOL     OW19905   2.561   2.452   3.595 -0.1960  0.2060  0.2988
 5035SOL    HW219906   2.520   2.529   3.635 -1.5018 -0.2121 -0.1818
 5035SOL    HW319907   2.528   2.378   3.645 -0.9259 -0.2260 -0.7777
 5035SOL    MW419908   2.551   2.453   3.607 -0.4646  0.0938  0.0934
 5036SOL     OW19909   2.771   5.113   0.585  0.2381 -0.1405 -0.2309
 5036SOL    HW219910   2.798   5.203   0.604  0.3839 -0.5714  1.8767
 5036SOL    HW319911   2.851   5.070   0.555  0.8690 -0.2610  1.5413
 5036SOL    MW419912   2.785   5.119   0.583  0.3406 -0.2133  0.2810
 5037SOL     OW19913   3.362   5.764   5.795 -0.1310 -0.2565 -0.4861
 5037SOL    HW219914   3.293   5.829   5.807 -0.1132 -0.4109  0.6256
 5037SOL    HW319915   3.390   5.774   5.704  0.5830  1.9913 -0.0869
 5037SOL    MW419916   3.357   5.774   5.785 -0.0345  0.0197 -0.2868
 5038SOL     OW19917   5.727   1.499   1.240 -0.3600 -0.3658 -0.7141
 5038SOL    HW219918   5.686   1.468   1.321  0.3408 -0.0810 -0.2448
 5038SOL    HW319919   5.798   1.556   1.270  0.1130 -0.5245 -1.5252
 5038SOL    MW419920   5.731   1.502   1.255 -0.2052 -0.3492 -0.7592
 5039SOL     OW19921   2.213   3.722   2.717 -0.4102 -0.0569  0.0027
 5039SOL    HW219922   2.261   3.730   2.635 -1.2651 -1.5481 -0.6853
 5039SOL    HW319923   2.240   3.637   2.753 -1.6208 -0.3860  0.1788
 5039SOL    MW419924   2.223   3.712   2.711 -0.6827 -0.2970 -0.0648
 5040SOL     OW19925   6.063   2.573   1.320  1.1178  0.3423  0.0242
 5040SOL    HW219926   6.068   2.512   1.247 -1.2008  0.5127 -0.3651
 5040SOL    HW319927   6.053   2.659   1.279 -1.0916  0.3559  0.4208
 5040SOL    MW419928   6.062   2.576   1.305  0.5204  0.3666  0.0252
 5041SOL     OW19929   1.895   3.275   0.537  0.2783 -0.5840  0.1250
 5041SOL    HW219930   1.891   3.180   0.526 -0.3594 -0.4765 -0.6879
 5041SOL    HW319931   1.984   3.292   0.567  0.5920 -1.3817 -0.3162
 5041SOL    MW419932   1.906   3.265   0.539  0.2355 -0.6751 -0.0405
 5042SOL     OW19933   1.453   4.618   1.017 -0.0680 -0.3451 -0.1418
 5042SOL    HW219934   1.448   4.590   1.108  2.2440  0.0893  0.1894
 5042SOL    HW319935   1.509   4.553   0.975 -1.2252 -0.6215 -1.3046
 5042SOL    MW419936   1.460   4.606   1.023  0.0844 -0.3243 -0.2515
 5043SOL     OW19937   4.836   0.298   4.596 -0.7161 -0.0989 -0.4932
 5043SOL    HW219938   4.927   0.328   4.604 -1.2217  1.6513 -1.0603
 5043SOL    HW319939   4.784   0.366   4.636 -1.7490 -1.7889  1.2097
 5043SOL    MW419940   4.841   0.311   4.602 -0.9191 -0.0909 -0.3433
 5044SOL     OW19941   1.622   6.041   0.242  0.0096  0.3613 -0.5444
 5044SOL    HW219942   1.686   5.970   0.248 -1.4338 -1.0151 -0.7544
 5044SOL    HW319943   1.590   6.036   0.152 -0.1400  1.2773 -0.5499
 5044SOL    MW419944   1.626   6.031   0.231 -0.2005  0.3006 -0.5728
 5045SOL     OW19945   1.733   4.040   1.269  0.1773 -0.2065 -0.2033
 5045SOL    HW219946   1.727   4.037   1.174 -1.0905 -0.2117 -0.1487
 5045SOL    HW319947   1.819   4.078   1.287 -0.5429  2.1795 -1.3831
 5045SOL    MW419948   1.743   4.045   1.259 -0.0850  0.1076 -0.3518
 5046SOL     OW19949   0.949   5.391   2.130 -0.0927 -0.4194  0.0467
 5046SOL    HW219950   0.875   5.337   2.102 -1.6508  0.7771  1.6532
 5046SOL    HW319951   0.992   5.339   2.197  0.1567 -0.8360 -0.4237
 5046SOL    MW419952   0.945   5.377   2.135 -0.2653 -0.3165  0.1966
 5047SOL     OW19953   2.176   3.184   5.666  0.4291 -0.1450 -0.2846
 5047SOL    HW219954   2.120   3.199   5.589  0.3225  1.0385 -0.0054
 5047SOL    HW319955   2.139   3.107   5.708 -0.7344  0.3509 -0.3482
 5047SOL    MW419956   2.163   3.176   5.661  0.2615  0.0766 -0.2562
 5048SOL     OW19957   5.337   2.523   6.188  0.0285  0.3546  0.2456
 5048SOL    HW219958   5.339   2.617   6.204  1.6858  0.0842  1.9814
 5048SOL    HW319959   5.262   2.491   6.239  0.7919  0.4917  1.5040
 5048SOL    MW419960   5.327   2.531   6.197  0.3479  0.3370  0.6406
 5049SOL     OW19961   2.004   2.004   2.380 -0.1403 -0.1013  0.1873
 5049SOL    HW219962   2.037   1.977   2.466 -0.3132  0.7763  0.5298
 5049SOL    HW319963   1.925   1.950   2.367  0.7785 -1.4304 -0.1654
 5049SOL    MW419964   1.998   1.993   2.390 -0.0419 -0.1609  0.1860
 5050SOL     OW19965   3.117   2.051   2.175 -0.0449  0.2986  0.0103
 5050SOL    HW219966   3.099   2.005   2.093  2.9882 -0.2397 -0.4849
 5050SOL    HW319967   3.175   2.123   2.150  0.5556  0.4139  1.6174
 5050SOL    MW419968   3.123   2.054   2.161  0.4345  0.2428  0.1570
 5051SOL     OW19969   1.603   6.259   4.659  0.0957  0.3457 -0.3586
 5051SOL    HW219970   1.645   6.175   4.676  0.5052  0.5006 -0.5817
 5051SOL    HW319971   1.538   6.269   4.729  1.2042  0.6285  0.6590
 5051SOL    MW419972   1.600   6.249   4.670  0.2960  0.4034 -0.2538
 5052SOL     OW19973   3.266   3.454   6.285  0.0320  0.4061 -0.3061
 5052SOL    HW219974   3.174   3.452   6.261  0.3820  0.2519 -1.7316
 5052SOL    HW319975   3.274   3.529   6.345 -1.4058 -0.9503  1.7357
 5052SOL    MW419976   3.255   3.464   6.290 -0.1116  0.2068 -0.2248
 5053SOL     OW19977   0.606   6.032   0.860  0.1781  0.0013  0.4678
 5053SOL    HW219978   0.514   6.049   0.841  0.2821 -0.5378 -0.6147
 5053SOL    HW319979   0.612   6.037   0.956 -0.9809  0.0025  0.5592
 5053SOL    MW419980   0.595   6.035   0.870  0.0389 -0.0696  0.3370
 5054SOL     OW19981   2.594   2.422   5.289  0.1921 -0.2084  0.1184
 5054SOL    HW219982   2.618   2.403   5.198 -2.8543  0.2378 -0.9013
 5054SOL    HW319983   2.584   2.337   5.330 -2.1215 -0.6284 -1.1398
 5054SOL    MW419984   2.595   2.409   5.282 -0.5151 -0.2050 -0.1822
 5055SOL     OW19985   3.930   6.104   6.279 -0.5404 -0.1036 -0.3212
 5055SOL    HW219986   3.836   6.106   6.262 -0.7330 -0.6299  0.5641
 5055SOL    HW319987   3.940   6.150   6.363 -0.0704 -0.3896 -0.2134
 5055SOL    MW419988   3.919   6.110   6.288 -0.5038 -0.2108 -0.1902
 5056SOL     OW19989   4.656   6.309   6.226  0.3810  0.2584  0.0504
 5056SOL    HW219990   4.696   6.382   6.179  1.1051  0.2294  0.6002
 5056SOL    HW319991   4.697   6.311   6.313 -0.1400 -0.3434  0.3226
 5056SOL    MW419992   4.666   6.319   6.231  0.4078  0.1752  0.1588
 5057SOL     OW19993   4.358   2.800   4.784  0.2673 -0.2022  0.4040
 5057SOL    HW219994   4.322   2.820   4.698 -2.8399 -3.0582  0.8184
 5057SOL    HW319995   4.324   2.869   4.841 -2.5000 -1.2739  0.2275
 5057SOL    MW419996   4.348   2.812   4.781 -0.5077 -0.7204  0.4354
 5058SOL     OW19997   0.311   2.292   6.018  0.8316  0.6816 -0.6537
 5058SOL    HW219998   0.337   2.374   6.060  0.7047  0.2055  0.3719
 5058SOL    HW319999   0.315   2.227   6.087  0.0923 -0.0236 -1.2487
 5058SOL    MW420000   0.315   2.295   6.032  0.7173  0.5257 -0.5969
 5059SOL     OW20001   5.097   2.242   1.018  0.7392 -0.4094 -0.8228
 5059SOL    HW220002   5.178   2.269   0.974  0.1066 -0.7282 -2.2489
 5059SOL    HW320003   5.125   2.207   1.102  2.1154 -0.8298 -1.4374
 5059SOL    MW420004   5.111   2.241   1.023  0.8373 -0.5070 -1.0920
 5060SOL     OW20005   2.953   4.326   4.582 -0.1261 -0.2604 -0.1025
 5060SOL    HW220006   3.005   4.326   4.662  0.3985 -0.1301 -0.4453
 5060SOL    HW320007   3.014   4.300   4.513 -0.5489 -0.2583 -0.4806
 5060SOL    MW420008   2.968   4.322   4.584 -0.1127 -0.2430 -0.1976
 5061SOL     OW20009   2.284   6.128   5.107  0.4200 -0.0687  0.1605
 5061SOL    HW220010   2.294   6.206   5.053 -0.1874 -0.4523 -0.5164
 5061SOL    HW320011   2.206   6.085   5.073 -0.8551  0.4335  2.2989
 5061SOL    MW420012   2.275   6.133   5.095  0.1717 -0.0530  0.3534
 5062SOL     OW20013   3.738   4.452   3.856  0.1651 -0.1832  0.0408
 5062SOL    HW220014   3.707   4.516   3.920  1.1569 -0.5262  0.8927
 5062SOL    HW320015   3.683   4.467   3.779 -1.4607 -0.1447  1.1433
 5062SOL    MW420016   3.727   4.462   3.854  0.0815 -0.2234  0.2987
 5063SOL     OW20017   1.219   3.649   5.840  0.7183 -0.7884  0.1305
 5063SOL    HW220018   1.201   3.669   5.748  1.0289 -0.7254  0.0845
 5063SOL    HW320019   1.216   3.734   5.884  1.6170 -0.6871  0.0046
 5063SOL    MW420020   1.216   3.663   5.834  0.8778 -0.7667  0.1078
 5064SOL     OW20021   3.038   5.935   5.365 -0.2580  0.3653 -0.2266
 5064SOL    HW220022   3.015   6.025   5.389  0.8043  0.2362  1.4157
 5064SOL    HW320023   3.047   5.889   5.448 -0.5265 -1.2191 -1.0289
 5064SOL    MW420024   3.037   5.941   5.379 -0.1533  0.1392 -0.1158
 5065SOL     OW20025   3.497   3.634   4.595 -0.0585 -0.0964 -0.3034
 5065SOL    HW220026   3.538   3.669   4.675  0.2918  0.7209 -0.8302
 5065SOL    HW320027   3.484   3.710   4.539 -1.1658 -0.5304 -0.6648
 5065SOL    MW420028   3.501   3.649   4.598 -0.1584 -0.0458 -0.4206
 5066SOL     OW20029   0.023   4.267   1.808 -0.1023 -0.5847  0.3471
 5066SOL    HW220030   0.052   4.322   1.735 -0.0465 -2.0308 -0.7722
 5066SOL    HW320031  -0.060   4.230   1.778 -0.7089 -0.2196  1.5460
 5066SOL    MW420032   0.016   4.269   1.794 -0.1750 -0.7274  0.3576
 5067SOL     OW20033   4.621   1.127   2.396  0.0853  0.4554  0.0085
 5067SOL    HW220034   4.676   1.053   2.373 -0.9372  0.6582 -3.5974
 5067SOL    HW320035   4.601   1.170   2.313  0.2041  4.5305  1.8235
 5067SOL    MW420036   4.625   1.123   2.382 -0.0339  1.0198 -0.2278
 5068SOL     OW20037   0.736   1.640   0.648 -0.3233 -0.4008  0.6846
 5068SOL    HW220038   0.665   1.620   0.586  2.1150  0.8811 -2.8237
 5068SOL    HW320039   0.738   1.735   0.651  0.2969 -0.4411  1.9703
 5068SOL    MW420040   0.727   1.650   0.640  0.0802 -0.2370  0.3914
 5069SOL     OW20041   3.009   3.734   4.303  0.7239  0.0344  0.0491
 5069SOL    HW220042   3.074   3.797   4.274  1.5679 -1.1593 -0.7217
 5069SOL    HW320043   3.020   3.730   4.398  1.1575  0.4825  0.0223
 5069SOL    MW420044   3.019   3.742   4.312  0.8925 -0.0640 -0.0561
 5070SOL     OW20045   1.352   1.781   4.626  0.4743 -0.2637  0.2356
 5070SOL    HW220046   1.293   1.851   4.600  1.2387  0.0580 -0.7323
 5070SOL    HW320047   1.325   1.705   4.574  0.5468 -0.2744  0.2123
 5070SOL    MW420048   1.341   1.780   4.616  0.5847 -0.2227  0.1048
 5071SOL     OW20049   1.177   0.544   1.140 -0.0990 -0.9324  0.3686
 5071SOL    HW220050   1.234   0.477   1.179  0.1955 -0.9503 -0.0990
 5071SOL    HW320051   1.132   0.498   1.069 -0.3944 -0.8052  0.4687
 5071SOL    MW420052   1.178   0.529   1.136 -0.0991 -0.9180  0.3201
 5072SOL     OW20053   6.341   4.796   1.961 -0.1082  0.3150  0.2795
 5072SOL    HW220054   6.370   4.880   1.997  3.4326 -0.5530 -0.2404
 5072SOL    HW320055   6.322   4.743   2.038  0.2240  0.7701  0.6862
 5072SOL    MW420056   6.342   4.800   1.976  0.4028  0.2605  0.2646
 5073SOL     OW20057   5.939   4.511   3.267  0.3315  0.1203  0.4942
 5073SOL    HW220058   5.858   4.552   3.298  0.9574  0.6625  1.4906
 5073SOL    HW320059   5.918   4.418   3.259 -0.9662  0.5095 -1.2929
 5073SOL    MW420060   5.925   4.504   3.270  0.2429  0.2432  0.3899
 5074SOL     OW20061   0.180   0.805   5.730  0.1761  0.1832 -0.0158
 5074SOL    HW220062   0.237   0.727   5.729 -1.0619 -0.8108  1.8298
 5074SOL    HW320063   0.106   0.780   5.675  0.8714  1.0146 -1.3927
 5074SOL    MW420064   0.178   0.791   5.722  0.1045  0.1618  0.0461
 5075SOL     OW20065   3.916   0.842   4.295 -0.3721  0.1325  0.4198
 5075SOL    HW220066   3.869   0.762   4.271 -1.1099  0.2361  1.4689
 5075SOL    HW320067   3.977   0.814   4.364  0.2343  0.2529 -0.0516
 5075SOL    MW420068   3.918   0.828   4.301 -0.3895  0.1620  0.4960
 5076SOL     OW20069   3.057   2.827   4.775 -0.2347 -0.2807 -0.2970
 5076SOL    HW220070   3.012   2.805   4.693 -0.7780 -0.5153  0.0548
 5076SOL    HW320071   3.027   2.915   4.796 -1.5453 -0.8944  0.5822
 5076SOL    MW420072   3.047   2.836   4.767 -0.4793 -0.3926 -0.1346
 5077SOL     OW20073   1.663   2.965   0.027  0.3332  0.8105 -0.2699
 5077SOL    HW220074   1.709   3.017  -0.039  0.1778 -0.2680 -1.2596
 5077SOL    HW320075   1.703   2.878   0.021 -1.1615  0.1141 -0.4698
 5077SOL    MW420076   1.675   2.961   0.018  0.1155  0.5763 -0.4269
 5078SOL     OW20077   3.845   3.081   3.410  1.0014 -0.7122  0.5413
 5078SOL    HW220078   3.845   3.173   3.436  2.0405 -0.6934  0.5196
 5078SOL    HW320079   3.858   3.083   3.315 -0.8696 -0.8417  0.2467
 5078SOL    MW420080   3.847   3.093   3.401  0.8916 -0.7268  0.4996
 5079SOL     OW20081   3.979   1.281   1.272 -0.7154 -0.1925 -0.1388
 5079SOL    HW220082   3.947   1.350   1.329  2.9857  0.1297  1.8523
 5079SOL    HW320083   3.952   1.200   1.314  0.1303  0.0557  0.8985
 5079SOL    MW420084   3.971   1.280   1.285 -0.1155 -0.1173  0.2608
 5080SOL     OW20085   3.475   2.576   2.076 -0.4734 -0.4412  0.3612
 5080SOL    HW220086   3.380   2.578   2.067 -0.4817  0.4984  0.5181
 5080SOL    HW320087   3.496   2.657   2.123  0.5316  0.1523 -1.0375
 5080SOL    MW420088   3.465   2.587   2.081 -0.3419 -0.2389  0.1974
 5081SOL     OW20089   6.066   0.084   3.789 -0.1235 -0.4822 -0.1887
 5081SOL    HW220090   6.093   0.158   3.843  0.9229 -1.7909  1.1784
 5081SOL    HW320091   5.973   0.074   3.807  0.1516 -0.7427  1.2447
 5081SOL    MW420092   6.057   0.092   3.799  0.0508 -0.6893  0.1808
 5082SOL     OW20093   1.520   2.168   3.776 -0.0668 -0.2111 -0.0393
 5082SOL    HW220094   1.438   2.212   3.799 -0.6341 -1.1172 -0.2933
 5082SOL    HW320095   1.493   2.086   3.734  0.9246  0.4064 -2.0446
 5082SOL    MW420096   1.506   2.163   3.773 -0.0109 -0.2492 -0.3374
 5083SOL     OW20097   4.645   3.931   3.581 -0.4539 -0.2213 -0.0302
 5083SOL    HW220098   4.691   3.970   3.656  1.2282 -0.7716 -0.7503
 5083SOL    HW320099   4.552   3.939   3.604 -0.0056  0.4281  1.7085
 5083SOL    MW420100   4.638   3.937   3.594 -0.1728 -0.2082  0.1042
 5084SOL     OW20101   5.104   3.047   4.231  0.5121  0.2425 -0.3165
 5084SOL    HW220102   5.179   3.051   4.290  1.3708 -1.9309 -1.1231
 5084SOL    HW320103   5.081   3.138   4.214  1.9427  0.9434  1.2273
 5084SOL    MW420104   5.111   3.059   4.236  0.8141  0.0482 -0.2193
 5085SOL     OW20105   2.409   1.177   2.011 -0.0591  0.0069  0.6463
 5085SOL    HW220106   2.363   1.207   1.933  0.1779  0.9282  0.8474
 5085SOL    HW320107   2.465   1.106   1.981  1.0943  1.2814 -0.3211
 5085SOL    MW420108   2.410   1.171   1.997  0.1244  0.2966  0.5452
 5086SOL     OW20109   3.734   2.803   4.575 -0.0642  0.2103 -0.1410
 5086SOL    HW220110   3.675   2.730   4.555 -0.6835  0.5938  0.2460
 5086SOL    HW320111   3.712   2.870   4.510 -0.7930  0.7465  0.6197
 5086SOL    MW420112   3.723   2.802   4.564 -0.2421  0.3317  0.0104
 5087SOL     OW20113   5.246   3.386   4.303  0.3991  0.6771 -0.0104
 5087SOL    HW220114   5.157   3.357   4.322  0.2803  0.2421 -1.1096
 5087SOL    HW320115   5.300   3.345   4.370 -0.2081  0.8432  0.5895
 5087SOL    MW420116   5.241   3.377   4.314  0.3033  0.6416 -0.0763
 5088SOL     OW20117   5.328   1.468   2.782  0.6041 -0.5815 -0.1693
 5088SOL    HW220118   5.393   1.418   2.831 -1.2619 -0.7077  2.3679
 5088SOL    HW320119   5.256   1.406   2.768 -0.3820  0.4629  0.1363
 5088SOL    MW420120   5.327   1.453   2.786  0.2278 -0.4604  0.2058
 5089SOL     OW20121   0.817   3.378   5.273  0.1607 -0.0526 -0.5681
 5089SOL    HW220122   0.789   3.463   5.306  0.6158  0.5496 -1.6597
 5089SOL    HW320123   0.736   3.334   5.247 -0.0649  0.1185 -0.1456
 5089SOL    MW420124   0.802   3.384   5.274  0.1910  0.0494 -0.6564
 5090SOL     OW20125   5.163   5.753   5.556 -0.4332  0.5484  0.1031
 5090SOL    HW220126   5.181   5.660   5.569 -0.4918  0.5369  0.1038
 5090SOL    HW320127   5.249   5.793   5.545  0.0190  1.1288  4.1067
 5090SOL    MW420128   5.176   5.746   5.556 -0.3813  0.6234  0.6314
 5091SOL     OW20129   5.185   5.436   3.780  0.2834 -0.1742 -0.0200
 5091SOL    HW220130   5.272   5.467   3.753  0.7350 -1.7018 -0.3927
 5091SOL    HW320131   5.203   5.359   3.834 -0.8477 -0.7482 -0.4471
 5091SOL    MW420132   5.199   5.430   3.783  0.1937 -0.4515 -0.1255
 5092SOL     OW20133   5.404   4.587   5.552  0.3340 -0.3299  0.0029
 5092SOL    HW220134   5.470   4.656   5.560 -1.2053  1.1684  0.2328
 5092SOL    HW320135   5.444   4.512   5.596  2.1493  0.3086 -0.4291
 5092SOL    MW420136   5.418   4.586   5.559  0.3704 -0.0480 -0.0238
 5093SOL     OW20137   3.493   2.091   0.592 -0.4377  0.9360  0.1755
 5093SOL    HW220138   3.571   2.055   0.634 -0.5465  0.6424  0.1258
 5093SOL    HW320139   3.446   2.135   0.663 -0.3128  0.9684  0.2387
 5093SOL    MW420140   3.497   2.092   0.607 -0.4356  0.9015  0.1772
 5094SOL     OW20141   6.281   2.458   3.037 -0.6328 -0.2924 -0.0712
 5094SOL    HW220142   6.199   2.501   3.014  0.0976  0.8572 -0.6513
 5094SOL    HW320143   6.258   2.366   3.050 -1.8909 -0.1140 -0.8819
 5094SOL    MW420144   6.267   2.452   3.036 -0.7024 -0.1172 -0.2547
 5095SOL     OW20145   3.482   6.165   2.026 -0.1239 -0.1241 -0.0583
 5095SOL    HW220146   3.507   6.232   1.962 -2.0611 -0.9088 -1.7160
 5095SOL    HW320147   3.540   6.091   2.007  0.3718  0.1905  0.1832
 5095SOL    MW420148   3.493   6.164   2.015 -0.3141 -0.1861 -0.2451
 5096SOL     OW20149   1.961   2.673   1.984  0.0341 -0.0394  0.5856
 5096SOL    HW220150   2.027   2.672   1.915  0.0883  3.1171  0.4827
 5096SOL    HW320151   2.011   2.665   2.065  0.6279  2.4439  0.5155
 5096SOL    MW420152   1.976   2.672   1.986  0.1196  0.7047  0.5628
 5097SOL     OW20153   4.921   2.558   4.294  0.3195  0.2180  0.1732
 5097SOL    HW220154   4.938   2.643   4.252 -0.1890 -0.3429 -1.1949
 5097SOL    HW320155   4.939   2.493   4.226  0.1291 -0.7570  1.0274
 5097SOL    MW420156   4.926   2.561   4.279  0.2273  0.0154  0.1054
 5098SOL     OW20157   0.791   4.994   0.377 -0.5184  0.5991 -0.5949
 5098SOL    HW220158   0.764   5.084   0.393  1.9542  1.2245  0.3842
 5098SOL    HW320159   0.872   5.000   0.327  1.0637 -0.9492  1.6027
 5098SOL    MW420160   0.798   5.007   0.373  0.0166  0.4773 -0.1757
 5099SOL     OW20161   1.120   3.141   5.036 -0.1834  0.3206  0.3777
 5099SOL    HW220162   1.073   3.204   4.982  0.8437  1.3186  0.5942
 5099SOL    HW320163   1.108   3.057   4.992 -1.7566  0.6124  0.1989
 5099SOL    MW420164   1.113   3.138   5.023 -0.2555  0.4908  0.3827
 5100SOL     OW20165   0.523   2.090   2.150  0.0661  0.3221  0.6441
 5100SOL    HW220166   0.493   2.029   2.083 -1.7209 -1.0283  2.5513
 5100SOL    HW320167   0.449   2.149   2.164  0.2316  0.2997  1.7165
 5100SOL    MW420168   0.510   2.090   2.143 -0.1479  0.1410  1.0372
 5101SOL     OW20169   1.630   3.866   4.623  0.3067  0.0189  0.1883
 5101SOL    HW220170   1.547   3.875   4.671  1.1310 -0.8561  1.8699
 5101SOL    HW320171   1.686   3.933   4.660  0.6571 -0.0278 -0.2546
 5101SOL    MW420172   1.626   3.876   4.634  0.4617 -0.1027  0.3517
 5102SOL     OW20173   6.361   5.033   0.550  0.4684  0.1798  0.7539
 5102SOL    HW220174   6.449   5.061   0.523  0.5986 -0.9010 -0.0485
 5102SOL    HW320175   6.304   5.062   0.480  0.2277  0.5769  1.1099
 5102SOL    MW420176   6.365   5.040   0.537  0.4538  0.0896  0.6950
 5103SOL     OW20177   1.876   3.523   5.946  0.0010 -0.4307  0.3884
 5103SOL    HW220178   1.963   3.536   5.984 -0.2768  0.1476  0.8560
 5103SOL    HW320179   1.839   3.611   5.941 -0.9062 -0.7544  1.0602
 5103SOL    MW420180   1.882   3.536   5.950 -0.1553 -0.3971  0.5387
 5104SOL     OW20181   2.923   5.447   6.274 -0.2356 -0.5544 -0.3284
 5104SOL    HW220182   2.893   5.383   6.209  0.1233 -0.3672 -0.6803
 5104SOL    HW320183   2.973   5.511   6.223  0.2095 -0.5105  0.1618
 5104SOL    MW420184   2.925   5.447   6.259 -0.1295 -0.5239 -0.3102
 5105SOL     OW20185   2.395   5.660   0.698 -0.0098  0.2745  0.2414
 5105SOL    HW220186   2.426   5.632   0.612  0.5212 -0.7437  0.7411
 5105SOL    HW320187   2.471   5.701   0.739 -0.0293  0.0290  0.5276
 5105SOL    MW420188   2.409   5.661   0.692  0.0577  0.1078  0.3451
 5106SOL     OW20189   5.278   6.325   2.183 -0.2696 -0.0704  0.1234
 5106SOL    HW220190   5.342   6.370   2.127 -0.2926  0.3463  0.4277
 5106SOL    HW320191   5.326   6.308   2.264 -0.8425  1.1959  0.7584
 5106SOL    MW420192   5.293   6.329   2.186 -0.3482  0.1517  0.2473
 5107SOL     OW20193   3.179   6.332   2.332 -0.4610  0.0849 -0.0570
 5107SOL    HW220194   3.239   6.258   2.327 -0.1644  0.2578  0.7907
 5107SOL    HW320195   3.094   6.295   2.308  0.0107 -0.1019 -1.5281
 5107SOL    MW420196   3.176   6.317   2.329 -0.3596  0.0830 -0.1392
 5108SOL     OW20197   1.693   3.096   0.266 -0.2182 -0.2912  0.1449
 5108SOL    HW220198   1.677   3.061   0.179  0.2479 -0.0436 -0.0427
 5108SOL    HW320199   1.713   3.189   0.251 -1.2278  0.0212  0.6107
 5108SOL    MW420200   1.694   3.104   0.252 -0.2899 -0.2173  0.1816
 5109SOL     OW20201   4.445   5.136   3.483 -0.5757 -0.2267 -0.0410
 5109SOL    HW220202   4.381   5.205   3.463 -0.4799 -0.5537 -1.5866
 5109SOL    HW320203   4.516   5.151   3.421 -0.1935 -1.2508  0.1368
 5109SOL    MW420204   4.446   5.147   3.472 -0.5126 -0.4049 -0.2214
 5110SOL     OW20205   4.756   4.436   1.173 -0.1439 -0.4261 -0.0589
 5110SOL    HW220206   4.741   4.359   1.228  2.0216 -0.2279  0.9223
 5110SOL    HW320207   4.718   4.509   1.223  1.7184 -0.2641  1.2419
 5110SOL    MW420208   4.749   4.436   1.187  0.3875 -0.3786  0.2422
 5111SOL     OW20209   2.606   3.908   1.490 -0.0107 -0.1828 -0.3850
 5111SOL    HW220210   2.587   3.830   1.438  0.3263 -1.4459  1.2941
 5111SOL    HW320211   2.521   3.931   1.529 -0.3145  0.9081 -1.6535
 5111SOL    MW420212   2.592   3.900   1.488 -0.0064 -0.2055 -0.3308
 5112SOL     OW20213   4.410   2.824   4.111  0.6092 -0.1818  0.1960
 5112SOL    HW220214   4.476   2.767   4.150  1.0596  0.1001 -0.1455
 5112SOL    HW320215   4.332   2.811   4.166  0.5489 -1.4869 -0.1650
 5112SOL    MW420216   4.408   2.815   4.123  0.6607 -0.3168  0.1033
 5113SOL     OW20217   2.738   2.612   2.936  0.0352 -0.0481 -0.3309
 5113SOL    HW220218   2.762   2.520   2.927 -0.5655 -0.4062  1.4751
 5113SOL    HW320219   2.742   2.646   2.846  1.1727 -1.5835 -0.9099
 5113SOL    MW420220   2.741   2.604   2.923  0.1060 -0.2979 -0.1690
 5114SOL     OW20221   1.512   3.983   5.250 -0.0091  0.1205  0.5616
 5114SOL    HW220222   1.601   3.962   5.278  0.1914 -1.8919 -1.3372
 5114SOL    HW320223   1.509   3.957   5.158 -2.2776  1.1050  0.2833
 5114SOL    MW420224   1.524   3.977   5.241 -0.2820 -0.0151  0.2744
 5115SOL     OW20225   6.381   0.833   1.235  0.2810 -0.2467 -0.0745
 5115SOL    HW220226   6.431   0.915   1.242 -1.2270  0.7194 -0.0879
 5115SOL    HW320227   6.424   0.786   1.163  2.7300 -0.6672  1.5307
 5115SOL    MW420228   6.394   0.838   1.226  0.4052 -0.1747  0.1355
 5116SOL     OW20229   0.217   5.193   5.406  0.2683 -0.0169  0.1366
 5116SOL    HW220230   0.299   5.149   5.427  0.9003  0.9305 -0.3244
 5116SOL    HW320231   0.238   5.286   5.407 -0.9480  0.2693  0.6257
 5116SOL    MW420232   0.230   5.199   5.409  0.1912  0.1459  0.1403
 5117SOL     OW20233   3.175   3.967   3.879 -0.7834  1.2428  0.2640
 5117SOL    HW220234   3.088   3.997   3.853 -1.7518  0.3914  2.2651
 5117SOL    HW320235   3.220   4.046   3.909 -1.1962  1.5518  0.0752
 5117SOL    MW420236   3.170   3.981   3.880 -0.9657  1.1712  0.5031
 5118SOL     OW20237   5.298   2.940   4.014  0.1818  0.2681 -0.2896
 5118SOL    HW220238   5.254   3.012   4.059 -0.3366  0.8680 -1.6846
 5118SOL    HW320239   5.248   2.929   3.933  0.3428 -1.5789 -0.1717
 5118SOL    MW420240   5.286   2.948   4.009  0.1346  0.1035 -0.4581
 5119SOL     OW20241   0.250   6.045   6.050  0.6657 -0.5788  0.8323
 5119SOL    HW220242   0.266   5.951   6.042  0.0553 -0.8016  2.0588
 5119SOL    HW320243   0.160   6.057   6.021  0.5489 -0.4585  1.2471
 5119SOL    MW420244   0.240   6.034   6.045  0.5697 -0.5923  1.0489
 5120SOL     OW20245   6.426   1.769   3.971  0.1517  0.1144  0.4878
 5120SOL    HW220246   6.451   1.713   3.898  0.2637  0.5014  0.2249
 5120SOL    HW320247   6.489   1.748   4.040  0.2095 -0.0614  0.3822
 5120SOL    MW420248   6.438   1.759   3.971  0.1741  0.1423  0.4391
 5121SOL     OW20249   6.116   1.211   2.295  0.2245  0.3043  0.6568
 5121SOL    HW220250   6.102   1.302   2.321  0.1356  0.5530 -0.2176
 5121SOL    HW320251   6.033   1.186   2.254 -0.1702 -0.5534  1.9208
 5121SOL    MW420252   6.103   1.220   2.293  0.1607  0.2240  0.7082
 5122SOL     OW20253   0.773   4.178   1.242 -0.5534  0.4370  0.1653
 5122SOL    HW220254   0.732   4.127   1.312 -1.6745  2.3211  0.9679
 5122SOL    HW320255   0.797   4.113   1.176 -2.0633 -1.0981  1.0439
 5122SOL    MW420256   0.771   4.163   1.242 -0.9005  0.4830  0.3871
 5123SOL     OW20257   4.345   2.538   0.921  0.4509  0.6639 -0.3120
 5123SOL    HW220258   4.412   2.602   0.944  0.4844  0.1135  1.2585
 5123SOL    HW320259   4.265   2.569   0.964  0.2382  0.1499 -0.3208
 5123SOL    MW420260   4.343   2.550   0.929  0.4273  0.5235 -0.1060
 5124SOL     OW20261   0.594   5.592   0.532 -0.7008  0.0360  0.4287
 5124SOL    HW220262   0.525   5.544   0.485 -0.9474  0.8798 -0.0790
 5124SOL    HW320263   0.675   5.554   0.499 -0.8793  0.3553 -0.4213
 5124SOL    MW420264   0.595   5.580   0.521 -0.7569  0.1894  0.2496
 5125SOL     OW20265   5.073   6.205   1.827  0.2074 -0.7819  0.3446
 5125SOL    HW220266   5.101   6.121   1.864 -2.0760 -2.2281 -0.9657
 5125SOL    HW320267   4.980   6.210   1.847  0.4386  1.8941  1.1040
 5125SOL    MW420268   5.065   6.195   1.835 -0.0634 -0.6196  0.2719
 5126SOL     OW20269   3.772   3.514   2.584 -0.3408 -0.5365  0.2839
 5126SOL    HW220270   3.806   3.558   2.662  2.1432  0.2075 -1.1215
 5126SOL    HW320271   3.694   3.566   2.560 -0.1288  0.2715  1.2667
 5126SOL    MW420272   3.766   3.527   2.591  0.0149 -0.3318  0.2282
 5127SOL     OW20273   4.245   3.156   4.295  0.0136  0.3611  0.0974
 5127SOL    HW220274   4.319   3.118   4.247 -0.4427 -0.1923 -0.1904
 5127SOL    HW320275   4.170   3.100   4.270 -0.4304  0.7107  0.6384
 5127SOL    MW420276   4.245   3.143   4.285 -0.1052  0.3342  0.1308
 5128SOL     OW20277   4.239   5.016   0.249 -0.1531 -0.1063  0.2972
 5128SOL    HW220278   4.221   5.023   0.343 -0.0198  1.5570  0.2310
 5128SOL    HW320279   4.333   5.036   0.241 -0.1293 -0.3920 -0.1840
 5128SOL    MW420280   4.249   5.019   0.261 -0.1324  0.0754  0.2250
 5129SOL     OW20281   2.568   2.625   0.647 -0.5619  0.2120  0.7554
 5129SOL    HW220282   2.559   2.719   0.661  0.4024  0.5078 -0.4706
 5129SOL    HW320283   2.642   2.600   0.703 -1.1405  0.0764  1.4704
 5129SOL    MW420284   2.577   2.634   0.656 -0.5110  0.2331  0.6880
 5130SOL     OW20285   4.365   1.815   2.966  0.3404 -0.4431  0.2716
 5130SOL    HW220286   4.312   1.759   2.909 -0.9984 -0.1484  1.1896
 5130SOL    HW320287   4.343   1.787   3.055  0.9247  0.4085  0.6947
 5130SOL    MW420288   4.355   1.804   2.970  0.2409 -0.2919  0.4486
 5131SOL     OW20289   1.155   5.410   3.603  0.0258 -0.3685  1.0295
 5131SOL    HW220290   1.151   5.456   3.687  3.4120  0.8882  0.6445
 5131SOL    HW320291   1.107   5.466   3.542  0.1443  0.2549  1.5078
 5131SOL    MW420292   1.148   5.423   3.606  0.4882 -0.1204  1.0418
 5132SOL     OW20293   4.679   2.495   1.324  0.4186 -0.3053  0.6551
 5132SOL    HW220294   4.694   2.426   1.261  0.9768  0.9209 -0.6098
 5132SOL    HW320295   4.733   2.568   1.293 -1.9294  1.5083  0.5537
 5132SOL    MW420296   4.688   2.496   1.312  0.1824  0.0957  0.4748
 5133SOL     OW20297   4.011   0.939   3.847 -0.6464 -0.2299 -0.3209
 5133SOL    HW220298   3.940   0.889   3.888 -0.0073  0.9165  2.3749
 5133SOL    HW320299   4.004   1.027   3.885  1.4680  0.2418 -0.9017
 5133SOL    MW420300   4.000   0.944   3.857 -0.2831 -0.0164 -0.0419
 5134SOL     OW20301   0.784   6.135   1.699 -0.0640 -0.1845 -0.3687
 5134SOL    HW220302   0.709   6.089   1.662 -1.5968  0.4669  1.7005
 5134SOL    HW320303   0.855   6.071   1.699 -0.9714 -1.2207 -1.2578
 5134SOL    MW420304   0.784   6.121   1.694 -0.3859 -0.2353 -0.2130
 5135SOL     OW20305   5.556   5.601   2.878 -0.3665 -0.0165  0.1416
 5135SOL    HW220306   5.635   5.650   2.855 -0.6179  0.7161  0.8074
 5135SOL    HW320307   5.511   5.588   2.795  1.1676 -1.7650 -0.4968
 5135SOL    MW420308   5.560   5.606   2.864 -0.1973 -0.1505  0.1452
 5136SOL     OW20309   4.923   4.031   5.560 -0.2143 -0.3463 -0.1087
 5136SOL    HW220310   4.968   3.954   5.528  0.0576 -0.4464  0.4955
 5136SOL    HW320311   4.932   4.027   5.656  0.2426  0.6978 -0.0928
 5136SOL    MW420312   4.930   4.020   5.569 -0.1181 -0.2218 -0.0269
 5137SOL     OW20313   5.502   0.878   5.242  0.1437  0.0025  0.4023
 5137SOL    HW220314   5.461   0.904   5.324  1.3367 -0.9612  1.3499
 5137SOL    HW320315   5.470   0.790   5.225 -0.5580  0.4160 -0.5039
 5137SOL    MW420316   5.493   0.870   5.250  0.2085 -0.0701  0.4078
 5138SOL     OW20317   2.708   5.233   3.421  0.3125 -0.8954 -0.7208
 5138SOL    HW220318   2.729   5.326   3.425 -1.5229 -0.3338 -2.7665
 5138SOL    HW320319   2.682   5.211   3.510  0.0819  0.7140 -0.3645
 5138SOL    MW420320   2.708   5.242   3.433  0.0399 -0.6090 -0.9437
 5139SOL     OW20321   6.317   4.303   4.992  0.4694  0.3973  0.2464
 5139SOL    HW220322   6.289   4.391   5.015 -0.4055  0.4196 -0.8467
 5139SOL    HW320323   6.254   4.245   5.036  1.3032  0.2720  1.3314
 5139SOL    MW420324   6.305   4.307   5.001  0.4639  0.3837  0.2453
 5140SOL     OW20325   0.947   5.484   6.015  0.2451 -0.2642 -0.6973
 5140SOL    HW220326   0.961   5.435   6.096  0.1659  0.5997 -0.1501
 5140SOL    HW320327   1.035   5.504   5.983  0.2712  0.0083 -0.4498
 5140SOL    MW420328   0.961   5.480   6.021  0.2381 -0.1143 -0.5925
 5141SOL     OW20329   4.169   5.429   2.777  0.0114  0.0048 -0.2261
 5141SOL    HW220330   4.127   5.383   2.849  1.1323 -0.4060  0.2003
 5141SOL    HW320331   4.215   5.502   2.820 -0.6609  0.7288 -0.7308
 5141SOL    MW420332   4.170   5.433   2.792  0.0706  0.0461 -0.2364
 5142SOL     OW20333   0.924   4.322   5.399  0.6476  0.0992 -0.0781
 5142SOL    HW220334   0.949   4.342   5.309  1.0421  1.5188  0.3349
 5142SOL    HW320335   0.910   4.407   5.441 -0.3322 -0.5466  0.9884
 5142SOL    MW420336   0.925   4.336   5.393  0.5704  0.2013  0.1171
 5143SOL     OW20337   4.571   4.636   1.278 -0.8036  0.4542  0.2556
 5143SOL    HW220338   4.616   4.716   1.306 -0.6238 -0.3189  2.3963
 5143SOL    HW320339   4.483   4.645   1.313 -0.7563 -0.2848  0.6016
 5143SOL    MW420340   4.566   4.648   1.286 -0.7737  0.2547  0.5837
 5144SOL     OW20341   0.893   5.150   3.803  0.0199 -0.2817 -0.5812
 5144SOL    HW220342   0.845   5.068   3.793 -1.8368  0.5691  0.7112
 5144SOL    HW320343   0.853   5.208   3.738 -0.8840  0.4904  0.6214
 5144SOL    MW420344   0.881   5.147   3.793 -0.3443 -0.0676 -0.2520
 5145SOL     OW20345   1.009   0.602   4.400 -0.0171 -0.6318  0.1273
 5145SOL    HW220346   1.103   0.612   4.386 -0.1481  0.0319 -0.3323
 5145SOL    HW320347   0.969   0.633   4.318 -0.6740  0.0678  0.6936
 5145SOL    MW420348   1.016   0.607   4.387 -0.1210 -0.4519  0.1413
 5146SOL     OW20349   2.646   1.433   2.490  0.2133  0.5945 -0.0994
 5146SOL    HW220350   2.670   1.435   2.583  3.4568  2.2916 -0.8216
 5146SOL    HW320351   2.668   1.344   2.462 -0.6157  0.1278  0.6978
 5146SOL    MW420352   2.652   1.421   2.499  0.5319  0.7569 -0.0895
 5147SOL     OW20353   3.393   6.150   2.278 -0.0945 -0.4574 -0.1895
 5147SOL    HW220354   3.443   6.175   2.200  1.2118  0.3706  0.8901
 5147SOL    HW320355   3.343   6.073   2.250  1.2647 -0.9101 -1.5022
 5147SOL    MW420356   3.393   6.143   2.264  0.2572 -0.4079 -0.2203
 5148SOL     OW20357   0.671   3.155   1.978 -0.3465  0.0958  0.2806
 5148SOL    HW220358   0.730   3.080   1.971 -1.2222 -0.5402 -0.5131
 5148SOL    HW320359   0.641   3.153   2.069  0.3664  0.0660  0.5273
 5148SOL    MW420360   0.675   3.145   1.989 -0.3680  0.0079  0.2084
 5149SOL     OW20361   5.812   5.802   0.042  0.3317  0.3453  0.0459
 5149SOL    HW220362   5.892   5.766   0.003  1.3844  1.1814  1.3459
 5149SOL    HW320363   5.750   5.729   0.042  1.3173 -0.5199 -0.3499
 5149SOL    MW420364   5.815   5.788   0.037  0.6006  0.3415  0.1652
 5150SOL     OW20365   4.325   3.964   1.075  0.3831 -0.2044 -0.0060
 5150SOL    HW220366   4.383   3.888   1.072  0.1265 -0.4320  0.5333
 5150SOL    HW320367   4.288   3.962   1.164  1.2589  1.2132  0.4133
 5150SOL    MW420368   4.328   3.954   1.087  0.4648 -0.0474  0.1205
 5151SOL     OW20369   3.049   3.593   1.532 -0.0716  0.0572  0.3324
 5151SOL    HW220370   3.072   3.682   1.559  1.3334 -0.2157  0.1083
 5151SOL    HW320371   2.964   3.603   1.489 -0.6153  1.0581  1.5695
 5151SOL    MW420372   3.041   3.606   1.530  0.0420  0.1532  0.4660
 5152SOL     OW20373   5.212   5.163   2.714 -0.5076  0.1390  0.3883
 5152SOL    HW220374   5.224   5.190   2.805 -1.1121 -0.6619  0.7207
 5152SOL    HW320375   5.216   5.067   2.716 -1.0556  0.0840 -0.3427
 5152SOL    MW420376   5.214   5.154   2.726 -0.6597  0.0260  0.3357
 5153SOL     OW20377   1.236   1.242   0.885  0.2290 -0.2885 -0.5541
 5153SOL    HW220378   1.306   1.186   0.852 -1.6835 -2.5942 -1.0388
 5153SOL    HW320379   1.238   1.231   0.980 -0.6672 -2.0240 -0.6882
 5153SOL    MW420380   1.245   1.233   0.893 -0.1416 -0.8217 -0.6357
 5154SOL     OW20381   5.426   0.096   5.129  0.1752 -0.0594 -0.6097
 5154SOL    HW220382   5.491   0.033   5.100 -1.1796 -1.2516 -1.1741
 5154SOL    HW320383   5.403   0.144   5.050 -0.8727 -0.8344 -0.7957
 5154SOL    MW420384   5.432   0.094   5.115 -0.1418 -0.3190 -0.7087
 5155SOL     OW20385   1.820   6.037   5.227 -0.4097  0.3897  0.2844
 5155SOL    HW220386   1.739   6.018   5.178  0.5493 -0.0247 -1.2225
 5155SOL    HW320387   1.791   6.089   5.301 -2.1312 -0.1767  0.0699
 5155SOL    MW420388   1.806   6.041   5.230 -0.5103  0.2603  0.0573
 5156SOL     OW20389   0.998   5.923   1.656  0.0303  0.4603 -0.1347
 5156SOL    HW220390   0.980   5.923   1.750 -1.2796  0.6624 -0.3660
 5156SOL    HW320391   0.924   5.877   1.617  0.5905  0.3144 -1.0783
 5156SOL    MW420392   0.986   5.917   1.663 -0.0686  0.4677 -0.2897
 5157SOL     OW20393   3.126   2.059   5.559 -0.6567 -0.3126  0.1328
 5157SOL    HW220394   3.176   2.109   5.624 -2.3460 -0.2458  1.4554
 5157SOL    HW320395   3.133   2.109   5.478  0.4766  0.2589  0.5716
 5157SOL    MW420396   3.134   2.072   5.557 -0.7300 -0.2284  0.3652
 5158SOL     OW20397   5.060   2.310   3.109 -0.0006  0.2999  0.0119
 5158SOL    HW220398   5.114   2.309   3.030 -0.8293  1.0708 -0.5786
 5158SOL    HW320399   5.012   2.393   3.104 -2.0180 -0.8285  0.0051
 5158SOL    MW420400   5.061   2.321   3.098 -0.3761  0.2527 -0.0669
 5159SOL     OW20401   4.304   3.595   3.633  0.1459 -0.1194 -0.0084
 5159SOL    HW220402   4.248   3.528   3.594  0.7725 -0.3631 -0.4985
 5159SOL    HW320403   4.389   3.583   3.591  0.3220  0.8528  0.0445
 5159SOL    MW420404   4.308   3.585   3.622  0.2518 -0.0233 -0.0661
 5160SOL     OW20405   3.829   4.030   1.165 -0.0905 -0.2384 -0.3450
 5160SOL    HW220406   3.851   4.123   1.167  0.1399 -0.2737  2.7200
 5160SOL    HW320407   3.736   4.027   1.187  0.2397 -0.7815  1.0284
 5160SOL    MW420408   3.820   4.042   1.168 -0.0165 -0.3147  0.2406
 5161SOL     OW20409   3.537   0.449   1.189  0.0344 -0.0252  0.0721
 5161SOL    HW220410   3.631   0.448   1.169  0.3613  1.7785  1.3251
 5161SOL    HW320411   3.519   0.364   1.228  0.6092 -1.3248 -2.3152
 5161SOL    MW420412   3.547   0.438   1.191  0.1533  0.0413 -0.0775
 5162SOL     OW20413   6.277   3.951   0.839 -0.7722 -0.1323 -0.2309
 5162SOL    HW220414   6.250   3.991   0.756  0.5427  0.8714 -0.2018
 5162SOL    HW320415   6.363   3.912   0.820 -1.1578 -1.2553  0.2616
 5162SOL    MW420416   6.285   3.951   0.826 -0.6496 -0.1481 -0.1621
 5163SOL     OW20417   4.654   1.158   1.530 -0.6052 -0.6403  0.0826
 5163SOL    HW220418   4.640   1.251   1.513 -0.0231 -0.5249  0.2317
 5163SOL    HW320419   4.653   1.117   1.443 -1.3856 -0.5795  0.0487
 5163SOL    MW420420   4.652   1.165   1.516 -0.6314 -0.6170  0.0978
 5164SOL     OW20421   5.856   1.052   2.209  0.6628  1.2216  0.4628
 5164SOL    HW220422   5.797   1.009   2.270  0.3662  1.6474  0.4840
 5164SOL    HW320423   5.895   0.981   2.158 -0.9939  1.0084 -0.5858
 5164SOL    MW420424   5.853   1.037   2.210  0.4051  1.2497  0.3273
 5165SOL     OW20425   0.796   2.223   2.453 -0.0681 -0.0829  0.1375
 5165SOL    HW220426   0.794   2.305   2.402  1.6632  0.2050  0.4584
 5165SOL    HW320427   0.789   2.154   2.387 -1.4593  0.3046 -0.1478
 5165SOL    MW420428   0.795   2.225   2.438 -0.0232  0.0062  0.1422
 5166SOL     OW20429   3.868   2.068   5.267 -0.8413  0.3557  0.7204
 5166SOL    HW220430   3.829   2.106   5.345 -2.1891  1.8857 -0.6310
 5166SOL    HW320431   3.897   2.143   5.215  0.6395 -0.6406  0.0164
 5166SOL    MW420432   3.867   2.083   5.270 -0.8238  0.4261  0.4492
 5167SOL     OW20433   1.101   4.208   3.966  0.2412  0.0120  0.0315
 5167SOL    HW220434   1.020   4.245   4.002  0.7416  0.6413  0.5374
 5167SOL    HW320435   1.071   4.136   3.910 -0.8623  1.7945 -1.8226
 5167SOL    MW420436   1.086   4.203   3.963  0.1616  0.3302 -0.1464
 5168SOL     OW20437   2.015   5.435   2.104  0.0622  0.1947 -0.5916
 5168SOL    HW220438   1.963   5.355   2.109  0.5965 -0.1647 -0.6715
 5168SOL    HW320439   1.979   5.491   2.173 -1.3393  0.5164 -1.5378
 5168SOL    MW420440   2.003   5.432   2.114 -0.0522  0.1897 -0.7270
 5169SOL     OW20441   5.920   4.249   2.513 -0.0551 -0.0676 -0.4481
 5169SOL    HW220442   5.966   4.188   2.454  2.1520  0.3490  0.7138
 5169SOL    HW320443   5.953   4.335   2.488  0.0583  0.2170  0.6535
 5169SOL    MW420444   5.931   4.252   2.502  0.2511  0.0249 -0.1495
 5170SOL     OW20445   4.485   5.553   5.212 -0.0732 -0.6344 -0.0250
 5170SOL    HW220446   4.420   5.600   5.161  0.4645  1.0903  0.7921
 5170SOL    HW320447   4.553   5.530   5.148 -0.7417 -1.0770 -0.5918
 5170SOL    MW420448   4.486   5.556   5.197 -0.0904 -0.4652  0.0081
 5171SOL     OW20449   2.596   2.681   5.396 -0.0230 -0.1526  0.3988
 5171SOL    HW220450   2.671   2.702   5.340 -0.3420  0.7115  0.2716
 5171SOL    HW320451   2.586   2.586   5.388  1.5770 -0.4188  1.0859
 5171SOL    MW420452   2.605   2.671   5.388  0.1460 -0.0737  0.4727
 5172SOL     OW20453   5.469   3.179   0.556  0.0164  0.3529  0.0272
 5172SOL    HW220454   5.494   3.237   0.485  2.4628 -1.4759 -0.7388
 5172SOL    HW320455   5.531   3.199   0.626 -1.3285  0.9971  1.0834
 5172SOL    MW420456   5.480   3.189   0.556  0.1617  0.1966  0.0655
 5173SOL     OW20457   6.404   3.457   2.780  0.4731  0.0373  0.2214
 5173SOL    HW220458   6.374   3.527   2.722  0.7840 -0.8037 -1.0121
 5173SOL    HW320459   6.413   3.498   2.866 -4.2597  0.3613  0.8112
 5173SOL    MW420460   6.402   3.471   2.784 -0.1103 -0.0309  0.1365
 5174SOL     OW20461   4.559   2.636   1.593 -0.0982 -0.8389 -0.2228
 5174SOL    HW220462   4.624   2.705   1.581 -1.4167  0.4486 -0.2926
 5174SOL    HW320463   4.553   2.592   1.509  1.9692 -2.2190  0.2718
 5174SOL    MW420464   4.567   2.640   1.581  0.0006 -0.8511 -0.1667
 5175SOL     OW20465   2.667   5.806   5.386  0.3486 -0.6854  0.2659
 5175SOL    HW220466   2.733   5.805   5.317  0.7893 -0.1933  0.6669
 5175SOL    HW320467   2.584   5.810   5.340  0.6768  1.7198 -0.2669
 5175SOL    MW420468   2.665   5.806   5.371  0.4500 -0.3031  0.2485
 5176SOL     OW20469   3.542   2.812   2.657  0.3673  0.8658 -0.1283
 5176SOL    HW220470   3.540   2.785   2.749  2.5342 -0.0444 -0.2978
 5176SOL    HW320471   3.570   2.903   2.661 -0.3342  1.0849  0.1175
 5176SOL    MW420472   3.545   2.821   2.670  0.5606  0.7746 -0.1182
 5177SOL     OW20473   5.595   5.776   0.727  0.0644  0.0462 -0.5458
 5177SOL    HW220474   5.658   5.795   0.796  0.4190  0.3729 -0.9562
 5177SOL    HW320475   5.546   5.858   0.716 -2.3629 -0.9637  1.7075
 5177SOL    MW420476   5.597   5.790   0.735 -0.2091 -0.0439 -0.3027
 5178SOL     OW20477   1.790   6.113   1.323  0.1193  0.1861  0.4844
 5178SOL    HW220478   1.828   6.148   1.403  0.0294 -0.1456  0.6749
 5178SOL    HW320479   1.815   6.020   1.324 -2.7474 -0.6700  1.8823
 5178SOL    MW420480   1.799   6.105   1.334 -0.2708  0.0294  0.6939
 5179SOL     OW20481   5.708   4.619   3.396 -0.1142 -0.3904 -0.5141
 5179SOL    HW220482   5.715   4.603   3.491 -0.3592 -1.0626 -0.6053
 5179SOL    HW320483   5.628   4.574   3.370 -0.4404  0.4004 -0.9206
 5179SOL    MW420484   5.698   4.611   3.405 -0.1895 -0.3747 -0.5798
 5180SOL     OW20485   4.197   4.903   5.977 -0.3588  0.0126  0.1426
 5180SOL    HW220486   4.227   4.905   5.886  2.2915  0.9684  0.9444
 5180SOL    HW320487   4.231   4.820   6.011 -2.0562 -0.7409  0.0922
 5180SOL    MW420488   4.205   4.892   5.970 -0.2331  0.0393  0.2417
 5181SOL     OW20489   1.887   0.855   5.455  0.0204  0.8025  0.1114
 5181SOL    HW220490   1.955   0.858   5.521 -0.1680  0.8177  0.3053
 5181SOL    HW320491   1.807   0.877   5.502 -0.2060  0.2306  0.0001
 5181SOL    MW420492   1.885   0.858   5.470 -0.0343  0.7291  0.1223
 5182SOL     OW20493   2.646   3.974   4.150  0.3150 -0.1974 -0.0625
 5182SOL    HW220494   2.574   3.950   4.208  0.3377  0.8044  0.3992
 5182SOL    HW320495   2.717   4.001   4.208  0.2774  0.9851 -0.5301
 5182SOL    MW420496   2.646   3.975   4.165  0.3130  0.0908 -0.0633
 5183SOL     OW20497   5.521   0.478   2.584 -0.6294 -0.0906  0.2696
 5183SOL    HW220498   5.570   0.553   2.617 -2.5894  1.3801  0.0782
 5183SOL    HW320499   5.503   0.426   2.662 -0.0721  0.1585  0.5715
 5183SOL    MW420500   5.525   0.481   2.598 -0.8145  0.1363  0.2842
 5184SOL     OW20501   4.016   0.894   6.118  0.1093 -0.2815 -0.2384
 5184SOL    HW220502   4.096   0.890   6.066  1.5195 -0.3718  1.8332
 5184SOL    HW320503   3.983   0.805   6.119  0.8895 -0.5758  0.2000
 5184SOL    MW420504   4.022   0.882   6.111  0.3983 -0.3323  0.0928
 5185SOL     OW20505   4.836   0.194   0.115 -0.2347 -0.1352 -0.4032
 5185SOL    HW220506   4.890   0.224   0.189 -0.6351  1.3057 -0.6568
 5185SOL    HW320507   4.754   0.167   0.155 -0.9118  1.7965 -0.3751
 5185SOL    MW420508   4.833   0.195   0.130 -0.3769  0.3097 -0.4330
 5186SOL     OW20509   3.198   3.410   5.125 -0.1631 -0.5397 -0.0358
 5186SOL    HW220510   3.161   3.396   5.212  3.4753  0.0815  1.7809
 5186SOL    HW320511   3.205   3.322   5.087 -1.3122 -0.8632  0.4606
 5186SOL    MW420512   3.194   3.397   5.131  0.1653 -0.5004  0.2694
 5187SOL     OW20513   3.074   2.377   4.095 -0.8771 -0.2860 -0.2404
 5187SOL    HW220514   3.028   2.316   4.153  0.2155 -0.2796  0.6605
 5187SOL    HW320515   3.033   2.461   4.113 -1.3527 -0.4910 -0.3546
 5187SOL    MW420516   3.062   2.380   4.105 -0.7957 -0.3122 -0.1366
 5188SOL     OW20517   3.166   6.363   5.468 -0.5706  0.5165 -0.0348
 5188SOL    HW220518   3.141   6.405   5.386  1.3284  0.5082 -0.6740
 5188SOL    HW320519   3.116   6.409   5.535 -1.3374  1.2563 -1.0932
 5188SOL    MW420520   3.156   6.375   5.466 -0.4212  0.6130 -0.2587
 5189SOL     OW20521   3.139   2.483   5.695 -0.4608  0.0135 -0.8193
 5189SOL    HW220522   3.120   2.554   5.634  0.8210 -0.0559 -1.3276
 5189SOL    HW320523   3.063   2.426   5.691 -1.5088  1.3200 -0.4315
 5189SOL    MW420524   3.127   2.485   5.687 -0.4299  0.1767 -0.8352
 5190SOL     OW20525   4.272   2.121   5.969 -0.3867  0.0152 -0.0161
 5190SOL    HW220526   4.265   2.026   5.965  0.3329 -0.0498  0.3275
 5190SOL    HW320527   4.308   2.146   5.883 -2.2669  0.1469 -0.8220
 5190SOL    MW420528   4.276   2.112   5.957 -0.5398  0.0240 -0.0771
 5191SOL     OW20529   0.786   4.658   3.362 -0.4216  0.0655  0.1162
 5191SOL    HW220530   0.698   4.671   3.396 -0.3699  1.1568 -0.1255
 5191SOL    HW320531   0.774   4.647   3.268 -0.4953 -2.2059  0.3299
 5191SOL    MW420532   0.773   4.658   3.354 -0.4245 -0.0902  0.1125
 5192SOL     OW20533   3.847   4.230   5.295  0.1975  0.1479  0.6082
 5192SOL    HW220534   3.904   4.165   5.256 -0.8238 -1.1683  1.2382
 5192SOL    HW320535   3.883   4.246   5.382  0.7610  0.8490  0.2532
 5192SOL    MW420536   3.859   4.224   5.301  0.1371  0.0667  0.6445
 5193SOL     OW20537   2.034   1.760   2.669  0.1817 -0.0612  0.1069
 5193SOL    HW220538   2.125   1.773   2.695 -0.4165  0.9274  1.8448
 5193SOL    HW320539   1.984   1.823   2.721 -1.3061  1.0428 -2.4509
 5193SOL    MW420540   2.039   1.770   2.679 -0.0935  0.2149 -0.0013
 5194SOL     OW20541   4.301   4.109   5.055 -0.6086 -0.1493 -0.2072
 5194SOL    HW220542   4.282   4.061   5.136  0.7825  1.1937  0.9790
 5194SOL    HW320543   4.287   4.201   5.078  2.1004  0.4659 -0.7647
 5194SOL    MW420544   4.296   4.115   5.069 -0.0676  0.1090 -0.1243
 5195SOL     OW20545   5.140   3.100   1.013  0.0686 -0.5831  0.3581
 5195SOL    HW220546   5.103   3.151   1.085  1.9455 -0.2334  1.1231
 5195SOL    HW320547   5.191   3.031   1.056 -0.4310 -1.6169 -0.6630
 5195SOL    MW420548   5.142   3.098   1.028  0.2503 -0.6734  0.3243
 5196SOL     OW20549   3.466   5.048   1.603 -0.7434 -0.5818 -0.2352
 5196SOL    HW220550   3.475   4.953   1.592  0.4955 -0.5384  0.2920
 5196SOL    HW320551   3.371   5.063   1.604 -1.0277 -1.4512 -3.2475
 5196SOL    MW420552   3.455   5.037   1.601 -0.6174 -0.6907 -0.5631
 5197SOL     OW20553   3.629   3.698   1.485 -0.5563 -0.4820  0.4464
 5197SOL    HW220554   3.533   3.698   1.490 -0.6413  1.1977 -0.5582
 5197SOL    HW320555   3.653   3.790   1.477  1.1295 -0.9164  0.0871
 5197SOL    MW420556   3.619   3.710   1.485 -0.3451 -0.3177  0.2664
 5198SOL     OW20557   2.238   1.247   1.122 -0.0987 -0.2731 -0.1389
 5198SOL    HW220558   2.320   1.259   1.170  0.1576 -3.4456  0.4663
 5198SOL    HW320559   2.240   1.313   1.053  2.0409  0.9587  0.9959
 5198SOL    MW420560   2.249   1.257   1.119  0.2174 -0.5292  0.0907
 5199SOL     OW20561   0.971   5.860   4.347  0.1828  0.3680  0.7419
 5199SOL    HW220562   1.032   5.847   4.274  2.1012  1.4400  2.0804
 5199SOL    HW320563   0.957   5.954   4.351 -0.4724  0.2547  1.3123
 5199SOL    MW420564   0.977   5.870   4.338  0.3495  0.4944  0.9937
 5200SOL     OW20565   2.013   0.417   1.987  0.2515 -0.3740  0.4558
 5200SOL    HW220566   1.984   0.409   1.896  1.3381 -4.3704  0.2877
 5200SOL    HW320567   1.955   0.358   2.035  1.0859  0.0114  1.9821
 5200SOL    MW420568   2.001   0.408   1.981  0.5049 -0.8505  0.6350
 5201SOL     OW20569   0.149   4.100   6.399  0.2447  0.4468 -0.1531
 5201SOL    HW220570   0.061   4.117   6.432 -0.0596 -0.4320 -0.4862
 5201SOL    HW320571   0.206   4.145   6.461 -0.4040  0.3988  0.4977
 5201SOL    MW420572   0.145   4.108   6.412  0.1190  0.3245 -0.1112
 5202SOL     OW20573   4.200   1.813   0.102 -0.6762 -0.0444  0.0193
 5202SOL    HW220574   4.282   1.788   0.060 -0.3452  0.9885  0.0202
 5202SOL    HW320575   4.206   1.777   0.190  0.0675  0.5537  0.2275
 5202SOL    MW420576   4.212   1.805   0.108 -0.5344  0.1708  0.0469
 5203SOL     OW20577   6.224   1.212   4.881 -0.5602  0.3890  0.7689
 5203SOL    HW220578   6.240   1.279   4.947 -1.3810 -1.1699  2.6433
 5203SOL    HW320579   6.129   1.215   4.865 -0.5961 -0.2287  0.8077
 5203SOL    MW420580   6.213   1.221   4.888 -0.6732  0.1018  1.0213
 5204SOL     OW20581   2.862   0.682   2.246  0.7607  0.4040  0.0248
 5204SOL    HW220582   2.796   0.621   2.279  0.6374  0.9065  0.7407
 5204SOL    HW320583   2.923   0.627   2.197  0.2172 -0.1734 -0.0230
 5204SOL    MW420584   2.861   0.667   2.244  0.6728  0.3941  0.1129
 5205SOL     OW20585   6.112   3.270   4.878 -0.2407  0.2946  0.1779
 5205SOL    HW220586   6.024   3.295   4.848 -1.5741 -1.1907  2.5562
 5205SOL    HW320587   6.157   3.243   4.798 -3.1509 -2.3174 -0.7923
 5205SOL    MW420588   6.106   3.270   4.864 -0.8006 -0.2460  0.3637
 5206SOL     OW20589   1.315   4.399   0.800  0.1631  0.5885  0.0444
 5206SOL    HW220590   1.235   4.451   0.797  1.0166  1.9046 -0.8335
 5206SOL    HW320591   1.306   4.337   0.727  0.4955  1.6030 -0.8793
 5206SOL    MW420592   1.303   4.397   0.790  0.3196  0.8960 -0.1933
 5207SOL     OW20593   5.443   3.628   6.189  0.2111  0.0833  0.0403
 5207SOL    HW220594   5.375   3.636   6.255 -0.7370  0.5278 -0.9628
 5207SOL    HW320595   5.400   3.588   6.114  0.3450  2.6098 -1.5169
 5207SOL    MW420596   5.429   3.624   6.188  0.1036  0.4753 -0.2975
 5208SOL     OW20597   2.927   4.740   2.242  0.1382  0.2629 -0.1861
 5208SOL    HW220598   2.948   4.759   2.150  0.9445 -0.7170 -0.2208
 5208SOL    HW320599   2.838   4.703   2.238  0.9646 -1.8080 -0.8719
 5208SOL    MW420600   2.918   4.738   2.229  0.3536 -0.1396 -0.2812
 5209SOL     OW20601   4.053   1.281   0.593 -0.0847  0.1701  0.7798
 5209SOL    HW220602   4.031   1.373   0.580  2.3133  0.5561 -1.2773
 5209SOL    HW320603   4.134   1.282   0.643 -0.2475 -0.8482  1.0932
 5209SOL    MW420604   4.061   1.293   0.598  0.2102  0.0867  0.5498
 5210SOL     OW20605   6.275   4.330   4.719  0.3486 -0.1902 -0.1933
 5210SOL    HW220606   6.350   4.286   4.679 -0.5622 -2.0496  0.0357
 5210SOL    HW320607   6.287   4.317   4.813  0.6587  1.1061 -0.0340
 5210SOL    MW420608   6.286   4.322   4.726  0.2693 -0.2645 -0.1421
 5211SOL     OW20609   4.670   4.266   3.620 -0.4146 -0.0369  0.1889
 5211SOL    HW220610   4.681   4.342   3.677  1.4306 -0.4443  0.4249
 5211SOL    HW320611   4.655   4.302   3.533  0.9668  0.6285  0.2026
 5211SOL    MW420612   4.669   4.281   3.616  0.0111 -0.0029  0.2219
 5212SOL     OW20613   4.504   1.533   6.250  0.6612  0.2437 -0.3755
 5212SOL    HW220614   4.563   1.595   6.206  1.6595  0.0932  0.6723
 5212SOL    HW320615   4.560   1.459   6.272  0.2996  0.4335  1.3496
 5212SOL    MW420616   4.520   1.532   6.247  0.7452  0.2489 -0.0097
 5213SOL     OW20617   1.822   3.067   5.662  0.4145 -0.1187  0.3994
 5213SOL    HW220618   1.792   3.022   5.583  2.5496  2.6345 -2.2017
 5213SOL    HW320619   1.761   3.140   5.673  1.9084  1.3464 -0.6815
 5213SOL    MW420620   1.810   3.071   5.653  0.8933  0.4378 -0.0864
 5214SOL     OW20621   6.389   2.573   2.745  0.0795  0.1591 -0.0050
 5214SOL    HW220622   6.433   2.647   2.787  0.6189  0.4308 -0.9987
 5214SOL    HW320623   6.296   2.592   2.753  0.1423 -0.1168  1.6003
 5214SOL    MW420624   6.383   2.586   2.752  0.1590  0.1585  0.0757
 5215SOL     OW20625   1.573   1.122   3.950 -0.4482 -0.1007 -0.0286
 5215SOL    HW220626   1.633   1.126   3.876  1.2106  0.3352  1.2787
 5215SOL    HW320627   1.511   1.194   3.934 -0.3307 -0.2375 -1.1490
 5215SOL    MW420628   1.573   1.132   3.938 -0.2138 -0.0612 -0.0039
 5216SOL     OW20629   4.750   6.019   2.889  0.1531  0.1047  0.0185
 5216SOL    HW220630   4.733   6.111   2.873  1.2784  0.3090 -0.0761
 5216SOL    HW320631   4.741   6.009   2.984  1.4560  0.6354  0.2146
 5216SOL    MW420632   4.747   6.030   2.900  0.4734  0.2016  0.0319
 5217SOL     OW20633   3.399   5.499   4.654 -0.4133 -0.2040 -0.1511
 5217SOL    HW220634   3.455   5.569   4.688  0.1782 -0.7880  0.1137
 5217SOL    HW320635   3.436   5.419   4.692 -0.9905 -0.6711 -0.5578
 5217SOL    MW420636   3.411   5.498   4.663 -0.4114 -0.3426 -0.1698
 5218SOL     OW20637   0.728   5.014   1.417  0.0048 -0.3362  0.0010
 5218SOL    HW220638   0.666   4.958   1.464 -1.5844  0.2771 -1.2609
 5218SOL    HW320639   0.697   5.012   1.326  0.9824  1.1651 -0.3964
 5218SOL    MW420640   0.716   5.006   1.411 -0.0759 -0.0572 -0.2179
 5219SOL     OW20641   1.501   4.333   2.071 -0.8508  0.3290  0.0735
 5219SOL    HW220642   1.577   4.276   2.055 -0.3984  1.0786 -0.5281
 5219SOL    HW320643   1.468   4.352   1.984 -0.3676  1.8108  0.1910
 5219SOL    MW420644   1.507   4.328   2.057 -0.7274  0.6234  0.0096
 5220SOL     OW20645   6.377   4.486   5.319  0.0696 -0.1498  0.4289
 5220SOL    HW220646   6.345   4.526   5.238  0.6039 -0.0670  0.2564
 5220SOL    HW320647   6.468   4.461   5.299  0.1492 -0.2807  0.9478
 5220SOL    MW420648   6.385   4.488   5.305  0.1506 -0.1562  0.4746
 5221SOL     OW20649   0.068   2.529   4.036  0.5987 -0.1267 -0.0819
 5221SOL    HW220650   0.054   2.517   4.130  1.2394  0.5944  0.1102
 5221SOL    HW320651   0.152   2.487   4.019  0.5843 -0.0694 -0.2946
 5221SOL    MW420652   0.077   2.522   4.046  0.6814 -0.0240 -0.0846
 5222SOL     OW20653   2.529   3.469   0.632 -0.2270  1.1356 -0.1159
 5222SOL    HW220654   2.604   3.409   0.630 -2.2473 -1.5815 -0.2804
 5222SOL    HW320655   2.484   3.453   0.550 -2.4960  0.5494  1.1648
 5222SOL    MW420656   2.533   3.459   0.621 -0.7929  0.6998  0.0314
 5223SOL     OW20657   3.294   3.230   2.647  0.0083  0.0649  0.0332
 5223SOL    HW220658   3.254   3.149   2.679  0.2645  0.1157  0.4922
 5223SOL    HW320659   3.350   3.202   2.575  1.7523 -0.5025  1.5045
 5223SOL    MW420660   3.296   3.216   2.642  0.2722 -0.0033  0.2879
 5224SOL     OW20661   5.065   5.519   1.280 -0.6134  0.1798 -0.0165
 5224SOL    HW220662   5.160   5.528   1.292 -0.5801 -0.2352  0.0343
 5224SOL    HW320663   5.054   5.512   1.186 -0.4748 -1.0272  0.0398
 5224SOL    MW420664   5.076   5.519   1.269 -0.5907 -0.0342 -0.0024
 5225SOL     OW20665   0.084   0.479   5.076  0.0808  0.2258  0.3050
 5225SOL    HW220666   0.157   0.470   5.137 -1.1244 -0.3355  1.7213
 5225SOL    HW320667   0.029   0.548   5.114 -0.6541 -0.0844 -0.1736
 5225SOL    MW420668   0.086   0.487   5.089 -0.1752  0.1108  0.4287
 5226SOL     OW20669   4.432   2.752   6.396  0.1098  0.3147  0.0756
 5226SOL    HW220670   4.355   2.714   6.355  0.2659 -0.6793  0.6758
 5226SOL    HW320671   4.446   2.699   6.475  1.0020  0.9084  0.3299
 5226SOL    MW420672   4.424   2.740   6.401  0.2481  0.2619  0.1884
 5227SOL     OW20673   4.685   2.875   0.368  0.0742 -0.2901 -0.3350
 5227SOL    HW220674   4.712   2.962   0.397 -0.7638 -0.3749  0.7766
 5227SOL    HW320675   4.607   2.856   0.420 -0.9233 -0.8862 -1.9781
 5227SOL    MW420676   4.678   2.884   0.379 -0.1679 -0.3799 -0.4051
 5228SOL     OW20677   5.931   0.295   0.862  0.6203  0.0797  0.4403
 5228SOL    HW220678   5.844   0.268   0.831  0.5785  1.6006 -0.8740
 5228SOL    HW320679   5.917   0.382   0.898  1.7759  0.7851 -0.7478
 5228SOL    MW420680   5.917   0.303   0.863  0.7672  0.3734  0.1102
 5229SOL     OW20681   0.595   5.830   4.721 -0.4337  0.2705  0.1807
 5229SOL    HW220682   0.665   5.892   4.743  1.6907 -1.1423 -2.0571
 5229SOL    HW320683   0.532   5.883   4.671  2.0935  0.5754 -3.0661
 5229SOL    MW420684   0.596   5.845   4.717  0.1801  0.1243 -0.5429
 5230SOL     OW20685   3.565   4.317   4.252 -0.2169  0.0408  0.2231
 5230SOL    HW220686   3.556   4.222   4.254  1.1392 -0.1084  1.6073
 5230SOL    HW320687   3.478   4.349   4.232 -0.2221 -1.5323 -2.8648
 5230SOL    MW420688   3.553   4.308   4.250 -0.0387 -0.1864 -0.0017
 5231SOL     OW20689   1.273   5.597   0.609  0.5105  0.5388 -0.4731
 5231SOL    HW220690   1.340   5.532   0.629 -0.3356 -0.2424 -0.0835
 5231SOL    HW320691   1.281   5.663   0.679 -0.3203 -0.5105  0.6513
 5231SOL    MW420692   1.283   5.597   0.621  0.2893  0.2973 -0.2734
 5232SOL     OW20693   6.305   4.152   1.397 -0.0893 -0.2708  0.0656
 5232SOL    HW220694   6.267   4.064   1.400 -2.6549  0.6925 -1.7202
 5232SOL    HW320695   6.271   4.195   1.476  1.6188 -0.9385  1.2496
 5232SOL    MW420696   6.296   4.146   1.408 -0.2024 -0.2318 -0.0138
 5233SOL     OW20697   3.466   2.207   1.348  0.2043 -0.3442  0.2713
 5233SOL    HW220698   3.527   2.151   1.300 -1.0469  1.0650 -3.3890
 5233SOL    HW320699   3.386   2.154   1.356  0.5085 -0.6841  1.0964
 5233SOL    MW420700   3.463   2.192   1.342  0.0793 -0.2031 -0.1028
 5234SOL     OW20701   4.412   1.715   5.224  0.0544 -0.1830 -0.5267
 5234SOL    HW220702   4.415   1.622   5.204  0.0961 -0.1682 -0.5886
 5234SOL    HW320703   4.420   1.759   5.139 -2.6236 -0.1208 -0.8329
 5234SOL    MW420704   4.414   1.709   5.210 -0.2935 -0.1729 -0.5752
 5235SOL     OW20705   6.279   1.768   4.963 -0.1482 -0.3454  0.2117
 5235SOL    HW220706   6.358   1.776   5.015 -1.0835  1.2962  1.4663
 5235SOL    HW320707   6.297   1.696   4.903  2.3773  0.1502  0.2706
 5235SOL    MW420708   6.292   1.760   4.962  0.0616 -0.0634  0.3850
 5236SOL     OW20709   0.182   3.293   5.517 -0.0468 -0.0601  0.5193
 5236SOL    HW220710   0.274   3.270   5.527  0.3659  0.2820 -1.9328
 5236SOL    HW320711   0.177   3.385   5.542  0.5551  0.2796 -0.5532
 5236SOL    MW420712   0.193   3.302   5.522  0.0870  0.0299  0.0543
 5237SOL     OW20713   0.327   2.440   2.551  0.0949 -0.3054 -0.5481
 5237SOL    HW220714   0.334   2.420   2.644 -1.3228 -0.5851 -0.4802
 5237SOL    HW320715   0.340   2.355   2.508  0.8030 -0.1670 -0.6250
 5237SOL    MW420716   0.330   2.426   2.558  0.0012 -0.3240 -0.5493
 5238SOL     OW20717   6.278   2.867   4.246  0.5787  0.2496 -0.5963
 5238SOL    HW220718   6.357   2.921   4.247  0.2297  0.7743 -1.1683
 5238SOL    HW320719   6.256   2.856   4.154  0.4961 -0.6667 -0.4858
 5238SOL    MW420720   6.286   2.872   4.234  0.5217  0.1979 -0.6572
 5239SOL     OW20721   3.101   4.339   4.186  0.3014 -0.0604 -0.2916
 5239SOL    HW220722   3.040   4.409   4.209 -0.2425 -0.7099  0.2772
 5239SOL    HW320723   3.059   4.293   4.114  1.7488  1.6249 -2.3689
 5239SOL    MW420724   3.087   4.342   4.180  0.4206  0.0763 -0.4906
 5240SOL     OW20725   3.279   0.665   4.045 -0.3074 -0.0344 -0.0581
 5240SOL    HW220726   3.187   0.684   4.066 -0.1189 -0.2957  1.0606
 5240SOL    HW320727   3.308   0.740   3.994 -0.6734  0.8789  1.0203
 5240SOL    MW420728   3.270   0.678   4.041 -0.3308  0.0516  0.2318
 5241SOL     OW20729   1.130   5.112   3.531  0.5718 -0.0607 -0.6577
 5241SOL    HW220730   1.061   5.177   3.542 -1.3563 -2.0777 -0.3056
 5241SOL    HW320731   1.134   5.066   3.615 -0.4044 -2.4824 -1.8439
 5241SOL    MW420732   1.122   5.115   3.544  0.1886 -0.6464 -0.7678
 5242SOL     OW20733   1.224   3.674   0.577 -0.3124  0.1694  0.2600
 5242SOL    HW220734   1.177   3.753   0.548 -0.3243  0.6519  1.4985
 5242SOL    HW320735   1.197   3.664   0.669  1.4793  0.0585  0.8041
 5242SOL    MW420736   1.214   3.683   0.585 -0.0776  0.2184  0.4952
 5243SOL     OW20737   0.963   0.899   2.634  0.4769  0.4296  0.6155
 5243SOL    HW220738   0.894   0.948   2.679 -0.7053 -0.3342 -0.3287
 5243SOL    HW320739   0.919   0.857   2.560  1.8602 -0.4746  0.2707
 5243SOL    MW420740   0.948   0.900   2.630  0.5034  0.2095  0.4454
 5244SOL     OW20741   2.477   1.123   5.166  0.2072 -0.1895 -0.5274
 5244SOL    HW220742   2.449   1.032   5.154  1.6104 -0.7787  0.3726
 5244SOL    HW320743   2.431   1.171   5.098 -0.8723 -1.5020 -0.7836
 5244SOL    MW420744   2.467   1.117   5.156  0.2499 -0.4404 -0.4424
 5245SOL     OW20745   1.581   2.794   2.599  0.0142 -0.7592  0.1085
 5245SOL    HW220746   1.642   2.721   2.591 -0.2389 -0.9694  0.0862
 5245SOL    HW320747   1.588   2.821   2.691  3.4922  2.1582 -0.7956
 5245SOL    MW420748   1.590   2.788   2.610  0.4397 -0.4020 -0.0137
 5246SOL     OW20749   4.290   0.653   4.141  0.1182  0.0990  0.1244
 5246SOL    HW220750   4.258   0.674   4.054  0.1069 -0.5251 -0.0235
 5246SOL    HW320751   4.220   0.600   4.180  0.1713  0.2817  0.4760
 5246SOL    MW420752   4.276   0.649   4.135  0.1237  0.0408  0.1513
 5247SOL     OW20753   2.790   4.312   1.461  0.3116 -0.2209  0.2180
 5247SOL    HW220754   2.845   4.348   1.531  1.8959 -0.3705 -0.9132
 5247SOL    HW320755   2.706   4.297   1.504  1.2566 -0.4254  2.1488
 5247SOL    MW420756   2.786   4.314   1.476  0.6453 -0.2676  0.3235
 5248SOL     OW20757   4.654   0.413   3.979 -0.1446 -0.2340 -0.8579
 5248SOL    HW220758   4.615   0.381   3.897  0.1999 -0.9986 -0.7246
 5248SOL    HW320759   4.741   0.374   3.981  0.4134  0.9577 -0.8363
 5248SOL    MW420760   4.660   0.404   3.968 -0.0255 -0.1777 -0.8374
 5249SOL     OW20761   4.852   3.159   5.351 -0.0539  0.8699 -0.3200
 5249SOL    HW220762   4.920   3.224   5.336 -0.3784  0.6140 -3.5164
 5249SOL    HW320763   4.858   3.100   5.276 -1.8720 -0.9137  0.8432
 5249SOL    MW420764   4.862   3.160   5.339 -0.3366  0.6008 -0.5883
 5250SOL     OW20765   4.200   3.629   5.241  0.3159  0.1220  0.2770
 5250SOL    HW220766   4.169   3.656   5.154 -0.2303  1.2685  0.8019
 5250SOL    HW320767   4.279   3.681   5.256 -1.1723  2.1638  1.6175
 5250SOL    MW420768   4.206   3.640   5.231  0.0475  0.5426  0.5231
 5251SOL     OW20769   1.408   4.388   4.978  0.2809  0.3313  0.4733
 5251SOL    HW220770   1.380   4.411   5.067  0.4963  0.6926  0.4472
 5251SOL    HW320771   1.422   4.472   4.935  0.8769  0.1563  0.3194
 5251SOL    MW420772   1.406   4.402   4.984  0.3879  0.3559  0.4495
 5252SOL     OW20773   5.578   2.904   2.939 -0.1597 -0.2273  0.2651
 5252SOL    HW220774   5.575   2.870   3.029  1.4735  1.4112  1.0229
 5252SOL    HW320775   5.505   2.965   2.934  0.3667  0.4785  0.8784
 5252SOL    MW420776   5.568   2.907   2.951  0.1252  0.0820  0.4460
 5253SOL     OW20777   2.496   1.400   1.611  0.0845 -0.2386 -0.0288
 5253SOL    HW220778   2.581   1.358   1.617  0.6033  0.7142 -0.3764
 5253SOL    HW320779   2.436   1.340   1.655  0.8511 -1.1321 -0.1669
 5253SOL    MW420780   2.499   1.387   1.618  0.2541 -0.2308 -0.0929
 5254SOL     OW20781   0.241   1.566   3.481  0.1616  0.4209  0.3550
 5254SOL    HW220782   0.291   1.573   3.562 -0.8707  0.8915  0.9765
 5254SOL    HW320783   0.242   1.473   3.460  1.2856  0.4252  0.3475
 5254SOL    MW420784   0.248   1.555   3.489  0.1737  0.4835  0.4360
 5255SOL     OW20785   2.679   1.197   6.169  0.1505 -0.1190  0.3997
 5255SOL    HW220786   2.688   1.155   6.083  0.2159 -0.3166  0.5031
 5255SOL    HW320787   2.594   1.241   6.165 -0.4941 -1.2796  0.7236
 5255SOL    MW420788   2.669   1.197   6.157  0.0741 -0.2982  0.4561
 5256SOL     OW20789   1.961   4.029   0.302 -0.0791 -0.4825 -0.0837
 5256SOL    HW220790   1.885   4.003   0.354  0.3842 -0.2899  0.7057
 5256SOL    HW320791   1.926   4.046   0.215 -1.3079  1.5213  0.7444
 5256SOL    MW420792   1.947   4.028   0.297 -0.1801 -0.1927  0.1297
 5257SOL     OW20793   1.959   3.458   4.731 -0.0106 -0.1520  0.4182
 5257SOL    HW220794   1.943   3.545   4.769 -2.1922  0.4003 -1.5405
 5257SOL    HW320795   1.955   3.472   4.637 -0.4360 -2.4097  0.0554
 5257SOL    MW420796   1.957   3.472   4.724 -0.3546 -0.3770  0.1119
 5258SOL     OW20797   4.092   2.326   6.009  0.0355  0.5064 -0.3585
 5258SOL    HW220798   4.136   2.241   6.002 -1.2498 -0.1897 -0.4065
 5258SOL    HW320799   4.019   2.310   6.069  0.0035  1.6835 -0.0577
 5258SOL    MW420800   4.088   2.313   6.016 -0.1383  0.5698 -0.3252
 5259SOL     OW20801   5.435   5.897   4.563 -0.0236 -0.0047 -0.0323
 5259SOL    HW220802   5.416   5.840   4.489  0.5671  0.0554 -0.2361
 5259SOL    HW320803   5.480   5.972   4.524  0.0138  0.1737  0.3494
 5259SOL    MW420804   5.439   5.900   4.548  0.0592  0.0268 -0.0088
 5260SOL     OW20805   4.901   4.781   0.117 -0.0846 -0.4204  0.3945
 5260SOL    HW220806   4.913   4.703   0.171 -0.2326 -0.3329  0.5565
 5260SOL    HW320807   4.986   4.795   0.074  0.9792  1.1829  2.8215
 5260SOL    MW420808   4.914   4.772   0.118  0.0362 -0.1973  0.7361
 5261SOL     OW20809   4.056   5.026   1.597 -0.7308 -0.1552 -0.1467
 5261SOL    HW220810   4.038   4.942   1.640  2.8156 -0.5982  0.7744
 5261SOL    HW320811   4.067   5.003   1.505 -0.2979 -0.6479  0.0186
 5261SOL    MW420812   4.055   5.012   1.591 -0.2057 -0.2787 -0.0034
 5262SOL     OW20813   5.446   6.101   1.739  0.4567 -0.5197 -0.0300
 5262SOL    HW220814   5.424   6.113   1.832  2.8022 -0.7665  0.6081
 5262SOL    HW320815   5.507   6.173   1.720  0.7348 -1.0332 -1.1175
 5262SOL    MW420816   5.451   6.112   1.749  0.8029 -0.6200 -0.0893
 5263SOL     OW20817   3.035   2.685   4.175  0.4056  0.0048  0.0239
 5263SOL    HW220818   3.121   2.704   4.137  0.5137 -1.5982 -0.6320
 5263SOL    HW320819   2.984   2.765   4.161  1.2033  0.3091 -1.3582
 5263SOL    MW420820   3.039   2.698   4.168  0.5251 -0.1665 -0.2450
 5264SOL     OW20821   5.032   3.863   0.261  0.1647 -0.2361  0.7404
 5264SOL    HW220822   4.965   3.824   0.317  0.5987  0.5334  1.8326
 5264SOL    HW320823   5.032   3.956   0.286  0.2672  0.1538 -0.6564
 5264SOL    MW420824   5.023   3.871   0.272  0.2355 -0.0832  0.7002
 5265SOL     OW20825   2.318   4.332   6.001  0.4235  0.6776 -0.2236
 5265SOL    HW220826   2.411   4.346   5.984  0.7708 -0.5575  0.5624
 5265SOL    HW320827   2.306   4.364   6.091  0.9655 -2.6105  1.1404
 5265SOL    MW420828   2.329   4.338   6.011  0.5408  0.0808  0.0601
 5266SOL     OW20829   5.868   2.441   5.595  0.1353  0.3138  0.5500
 5266SOL    HW220830   5.784   2.419   5.636  0.6104 -1.6872  0.5719
 5266SOL    HW320831   5.887   2.366   5.538  2.0811  0.5448  0.8284
 5266SOL    MW420832   5.860   2.428   5.593  0.4547  0.0803  0.5897
 5267SOL     OW20833   5.782   0.908   5.150  1.1261 -0.0589 -0.0091
 5267SOL    HW220834   5.712   0.889   5.212  0.2988 -0.4146 -1.0466
 5267SOL    HW320835   5.767   0.850   5.076  1.1121  1.5165 -1.2961
 5267SOL    MW420836   5.771   0.898   5.149  1.0151  0.1021 -0.3157
 5268SOL     OW20837   1.154   0.862   1.521  0.5693  0.3456 -0.6834
 5268SOL    HW220838   1.150   0.819   1.607  1.8685 -0.0835 -0.8049
 5268SOL    HW320839   1.112   0.800   1.461 -0.3798  0.6652 -0.3695
 5268SOL    MW420840   1.148   0.848   1.525  0.6155  0.3311 -0.6580
 5269SOL     OW20841   1.501   2.764   5.522  0.6272  0.0944  0.2331
 5269SOL    HW220842   1.432   2.756   5.457  1.1103  2.3274 -0.6418
 5269SOL    HW320843   1.582   2.747   5.473  0.8185 -1.4226  1.0096
 5269SOL    MW420844   1.503   2.761   5.507  0.7162  0.1889  0.2201
 5270SOL     OW20845   1.508   0.870   0.420 -0.4293  0.2315  0.1779
 5270SOL    HW220846   1.469   0.843   0.337 -3.6629 -2.2390  2.2305
 5270SOL    HW320847   1.459   0.949   0.445 -0.7545 -0.0752  0.5270
 5270SOL    MW420848   1.496   0.877   0.412 -0.8988 -0.1349  0.4948
 5271SOL     OW20849   4.375   5.750   1.314 -0.4026  0.1258 -0.0993
 5271SOL    HW220850   4.295   5.779   1.269 -0.5884 -0.6485 -0.2770
 5271SOL    HW320851   4.444   5.807   1.279 -1.2175  2.4493  1.7937
 5271SOL    MW420852   4.374   5.762   1.303 -0.5346  0.3302  0.1270
 5272SOL     OW20853   2.989   3.422   6.220  0.3574 -0.5049  0.2407
 5272SOL    HW220854   2.987   3.341   6.271  2.2049 -0.4295  0.4795
 5272SOL    HW320855   2.896   3.442   6.203 -0.2435 -1.3989  2.1742
 5272SOL    MW420856   2.976   3.414   6.224  0.5219 -0.6129  0.5273
 5273SOL     OW20857   3.576   1.802   5.933 -0.3302 -0.7867  0.3259
 5273SOL    HW220858   3.556   1.813   5.840 -0.9721  0.5584  0.6053
 5273SOL    HW320859   3.545   1.714   5.954 -1.9229 -0.4045 -0.2985
 5273SOL    MW420860   3.569   1.792   5.923 -0.6251 -0.5588  0.2804
 5274SOL     OW20861   5.470   1.095   2.135 -0.8900 -0.3727  0.2974
 5274SOL    HW220862   5.440   1.083   2.225 -0.3560 -0.3876  0.4722
 5274SOL    HW320863   5.486   1.189   2.127  0.5910 -0.5719  0.7054
 5274SOL    MW420864   5.468   1.106   2.146 -0.6241 -0.4010  0.3743
 5275SOL     OW20865   1.615   3.482   4.503 -0.4666  0.0750 -0.0531
 5275SOL    HW220866   1.585   3.480   4.412 -0.1833  3.6258 -0.3722
 5275SOL    HW320867   1.707   3.456   4.499 -0.0317  1.6680 -1.0589
 5275SOL    MW420868   1.623   3.478   4.491 -0.3718  0.7536 -0.2279
 5276SOL     OW20869   2.265   5.419   4.879 -0.0497  0.0787 -0.2140
 5276SOL    HW220870   2.305   5.460   4.957  1.3565 -1.0631 -0.2797
 5276SOL    HW320871   2.289   5.326   4.887  1.6450  0.1985 -2.8667
 5276SOL    MW420872   2.274   5.412   4.891  0.3594 -0.0561 -0.5727
 5277SOL     OW20873   5.530   4.571   2.254  0.2259  0.4132 -0.4012
 5277SOL    HW220874   5.546   4.481   2.279  2.4081  0.2798 -2.0345
 5277SOL    HW320875   5.471   4.565   2.179 -1.0504  0.4892  0.5560
 5277SOL    MW420876   5.524   4.559   2.248  0.3455  0.4057 -0.4904
 5278SOL     OW20877   3.365   0.678   0.855  0.2168 -0.0354  0.3499
 5278SOL    HW220878   3.296   0.744   0.844 -0.0728 -0.4915 -0.7593
 5278SOL    HW320879   3.442   0.718   0.815 -0.1398 -0.6172 -0.9848
 5278SOL    MW420880   3.366   0.692   0.848  0.1315 -0.1723  0.0275
 5279SOL     OW20881   2.976   0.761   5.822  0.3819 -0.0527 -0.3166
 5279SOL    HW220882   2.949   0.818   5.750  0.9220 -1.1195 -1.3901
 5279SOL    HW320883   2.966   0.815   5.900  2.0608  1.9430 -1.3960
 5279SOL    MW420884   2.971   0.776   5.823  0.6746  0.0699 -0.6007
 5280SOL     OW20885   5.369   4.499   0.293  0.0994 -0.1980 -0.4200
 5280SOL    HW220886   5.430   4.562   0.254  0.2459 -0.9777 -1.5066
 5280SOL    HW320887   5.392   4.497   0.386 -0.4850  1.9725 -0.1848
 5280SOL    MW420888   5.380   4.507   0.300  0.0416 -0.0145 -0.5323
 5281SOL     OW20889   6.056   1.623   3.627  0.0264  0.0175  0.3063
 5281SOL    HW220890   6.095   1.569   3.696  0.1147  0.8755  0.9487
 5281SOL    HW320891   6.046   1.709   3.667  1.1254  0.8391 -1.1023
 5281SOL    MW420892   6.060   1.627   3.641  0.1830  0.2391  0.2052
 5282SOL     OW20893   2.879   1.438   0.145  0.0560 -0.0494  0.1013
 5282SOL    HW220894   2.825   1.516   0.138  0.6775  0.3866  0.1254
 5282SOL    HW320895   2.959   1.460   0.098  0.0238 -0.8644 -0.3590
 5282SOL    MW420896   2.882   1.451   0.138  0.1338 -0.0994  0.0438
 5283SOL     OW20897   5.339   3.670   5.713  0.1536 -0.3035  0.4092
 5283SOL    HW220898   5.412   3.611   5.695 -0.6219 -1.8208  1.9621
 5283SOL    HW320899   5.380   3.752   5.739  1.2623 -0.3186 -1.1742
 5283SOL    MW420900   5.354   3.673   5.714  0.1976 -0.5056  0.4052
 5284SOL     OW20901   3.025   3.682   5.513  0.1250 -1.0936  0.2609
 5284SOL    HW220902   2.975   3.690   5.594  1.9626 -1.7420  1.4913
 5284SOL    HW320903   2.958   3.662   5.447 -1.5258  0.3518  1.3864
 5284SOL    MW420904   3.009   3.681   5.515  0.1497 -0.9885  0.5717
 5285SOL     OW20905   0.920   2.940   3.864 -0.0975  0.1987 -0.0602
 5285SOL    HW220906   1.013   2.927   3.841 -0.2812  2.3379 -2.5435
 5285SOL    HW320907   0.907   2.887   3.942  2.3328 -2.9659 -1.5705
 5285SOL    MW420908   0.931   2.931   3.871  0.1989  0.0634 -0.5871
 5286SOL     OW20909   6.331   5.283   5.991 -0.2032  0.3793 -0.4986
 5286SOL    HW220910   6.346   5.294   5.897 -0.9748 -0.3445 -0.7134
 5286SOL    HW320911   6.237   5.293   6.002 -0.3145 -1.0535 -0.0223
 5286SOL    MW420912   6.321   5.286   5.980 -0.3197  0.0948 -0.4641
 5287SOL     OW20913   3.028   4.864   5.940 -0.1771 -0.3759 -0.5491
 5287SOL    HW220914   3.036   4.921   5.863  1.1179 -0.6455 -0.6404
 5287SOL    HW320915   2.995   4.922   6.009  0.5747  0.3650 -0.7906
 5287SOL    MW420916   3.025   4.879   5.939  0.0930 -0.3137 -0.5930
 5288SOL     OW20917   5.232   1.011   0.485  0.0888 -0.3774 -0.3671
 5288SOL    HW220918   5.285   1.089   0.468 -1.6616  0.8724 -0.3670
 5288SOL    HW320919   5.267   0.945   0.425  2.3230  0.0260  0.3845
 5288SOL    MW420920   5.244   1.013   0.475  0.1527 -0.1593 -0.2679
 5289SOL     OW20921   4.102   2.583   2.677 -0.2904 -0.2459 -0.3796
 5289SOL    HW220922   4.108   2.509   2.615  1.2887 -1.7001  1.3900
 5289SOL    HW320923   4.052   2.548   2.751  1.6288 -0.0377  1.0831
 5289SOL    MW420924   4.096   2.568   2.678  0.1712 -0.4103  0.0469
 5290SOL     OW20925   4.324   4.642   2.006 -0.3052  0.1753  0.3791
 5290SOL    HW220926   4.264   4.636   2.080 -1.0659  0.9621 -0.1374
 5290SOL    HW320927   4.278   4.699   1.944  0.4768 -0.1608 -0.5306
 5290SOL    MW420928   4.310   4.649   2.007 -0.3024  0.2348  0.1909
 5291SOL     OW20929   2.939   5.747   2.445  0.2637  0.1773 -0.2191
 5291SOL    HW220930   2.944   5.706   2.532  3.0409 -0.1340 -0.4452
 5291SOL    HW320931   2.935   5.673   2.385 -0.9075  0.3899 -0.4320
 5291SOL    MW420932   2.939   5.732   2.449  0.4756  0.1643 -0.2770
 5292SOL     OW20933   2.501   5.677   5.768  0.1468 -0.3316  0.1317
 5292SOL    HW220934   2.491   5.588   5.734  0.8416 -0.0873 -0.7291
 5292SOL    HW320935   2.531   5.665   5.858  1.6241 -0.9770 -0.4192
 5292SOL    MW420936   2.503   5.664   5.776  0.4334 -0.3845 -0.0545
 5293SOL     OW20937   5.610   5.220   4.860  0.1743  0.3141 -0.1814
 5293SOL    HW220938   5.539   5.173   4.817  1.5496 -1.9930 -0.0817
 5293SOL    HW320939   5.648   5.275   4.791 -1.8477  1.8577 -0.1490
 5293SOL    MW420940   5.606   5.221   4.845  0.0890  0.2134 -0.1639
 5294SOL     OW20941   1.975   6.165   6.129 -0.2843 -0.0066  0.0082
 5294SOL    HW220942   1.902   6.226   6.146 -0.9287 -1.1253  1.4229
 5294SOL    HW320943   2.017   6.154   6.214 -0.0808 -1.3997 -0.2490
 5294SOL    MW420944   1.971   6.172   6.142 -0.3425 -0.3380  0.1609
 5295SOL     OW20945   3.392   6.191   5.321  0.3569  0.0854 -0.4466
 5295SOL    HW220946   3.382   6.274   5.273 -0.9625  0.0267 -0.2849
 5295SOL    HW320947   3.306   6.174   5.359  0.4721 -1.6126 -0.8736
 5295SOL    MW420948   3.380   6.200   5.320  0.1980 -0.1464 -0.4816
 5296SOL     OW20949   3.912   5.588   4.640  0.5527 -0.7426 -0.2376
 5296SOL    HW220950   3.967   5.653   4.597 -0.9748  2.2184  1.9077
 5296SOL    HW320951   3.975   5.529   4.683  2.0196 -0.1473 -1.4549
 5296SOL    MW420952   3.928   5.589   4.640  0.5447 -0.2734 -0.1152
 5297SOL     OW20953   5.545   4.950   4.333 -0.4577  0.0221  0.0449
 5297SOL    HW220954   5.471   4.946   4.273  0.6344  0.6572 -1.4001
 5297SOL    HW320955   5.607   5.009   4.291  1.4797 -1.5878  0.4957
 5297SOL    MW420956   5.543   4.957   4.319 -0.0580 -0.1065 -0.0863
 5298SOL     OW20957   2.224   0.797   1.659 -0.0292  0.3650  0.5948
 5298SOL    HW220958   2.240   0.870   1.599  0.0267  1.3206  1.7227
 5298SOL    HW320959   2.264   0.825   1.741 -0.3209 -0.7964  1.1550
 5298SOL    MW420960   2.231   0.811   1.662 -0.0603  0.3378  0.8176
 5299SOL     OW20961   0.064   2.804   1.338  0.1148 -0.3767  0.2355
 5299SOL    HW220962   0.034   2.883   1.293 -0.4356 -1.2776 -1.0359
 5299SOL    HW320963   0.160   2.810   1.337  0.0849  0.0045 -0.3443
 5299SOL    MW420964   0.073   2.815   1.332  0.0382 -0.4453 -0.0087
 5300SOL     OW20965   0.856   6.325   2.072 -0.4485  0.1665 -0.6737
 5300SOL    HW220966   0.930   6.306   2.014 -0.9649  0.4839 -1.4576
 5300SOL    HW320967   0.779   6.310   2.017 -0.9660 -0.1414  0.1328
 5300SOL    MW420968   0.856   6.321   2.057 -0.5849  0.1678 -0.6707
 5301SOL     OW20969   1.630   4.069   4.403  0.0923 -0.2928 -0.0998
 5301SOL    HW220970   1.617   3.995   4.463  1.1078 -1.1597 -0.8976
 5301SOL    HW320971   1.716   4.051   4.363 -0.8160 -0.0761 -2.2574
 5301SOL    MW420972   1.640   4.057   4.406  0.1065 -0.3786 -0.4897
 5302SOL     OW20973   4.495   6.226   1.879 -0.1198  0.1852 -0.3751
 5302SOL    HW220974   4.565   6.278   1.838  0.0781  0.7586  0.6556
 5302SOL    HW320975   4.441   6.197   1.806  0.7335  0.4302 -1.1190
 5302SOL    MW420976   4.497   6.229   1.864  0.0189  0.2931 -0.3372
 5303SOL     OW20977   0.425   6.325   4.208 -0.2966  0.1444 -0.0332
 5303SOL    HW220978   0.379   6.357   4.131  0.1800 -2.9430 -1.7710
 5303SOL    HW320979   0.513   6.303   4.176 -0.3721 -2.0913  1.0917
 5303SOL    MW420980   0.431   6.326   4.194 -0.2436 -0.5579 -0.1140
 5304SOL     OW20981   3.877   3.451   3.934 -0.2749 -0.1763  0.1694
 5304SOL    HW220982   3.969   3.470   3.949  0.9518 -2.0087 -3.6644
 5304SOL    HW320983   3.860   3.370   3.982 -0.0275  0.3235  1.1236
 5304SOL    MW420984   3.887   3.443   3.942 -0.0804 -0.3521 -0.2105
 5305SOL     OW20985   2.161   2.115   6.277 -0.2330 -0.6610  0.0600
 5305SOL    HW220986   2.120   2.039   6.237  0.0843 -0.6109 -0.3693
 5305SOL    HW320987   2.162   2.181   6.207  1.4713 -0.9871 -0.2766
 5305SOL    MW420988   2.156   2.114   6.262  0.0337 -0.6974 -0.0410
 5306SOL     OW20989   1.784   0.273   5.286 -0.5043 -0.3153 -0.1339
 5306SOL    HW220990   1.839   0.233   5.219 -0.9909  0.4767 -1.0354
 5306SOL    HW320991   1.800   0.221   5.365 -0.6004 -1.8591 -1.0821
 5306SOL    MW420992   1.793   0.261   5.287 -0.5812 -0.4145 -0.3780
 5307SOL     OW20993   3.430   3.032   3.481  0.1941 -0.3953 -0.7103
 5307SOL    HW220994   3.385   2.979   3.414  2.2875 -0.6492 -2.0063
 5307SOL    HW320995   3.514   2.989   3.492  0.1236 -0.0333  1.7667
 5307SOL    MW420996   3.435   3.019   3.474  0.4610 -0.3811 -0.5545
 5308SOL     OW20997   2.214   5.728   1.030 -0.0311 -0.1136  0.2766
 5308SOL    HW220998   2.175   5.800   0.980  0.7155 -0.1966 -0.4553
 5308SOL    HW320999   2.260   5.675   0.964  0.2819 -0.6922  0.9410
 5308SOL    MW421000   2.215   5.730   1.015  0.1087 -0.2009  0.2677
 5309SOL     OW21001   0.023   0.379   1.782  0.2998  0.0880 -0.1550
 5309SOL    HW221002  -0.048   0.317   1.764 -0.1199  0.3979  0.4094
 5309SOL    HW321003   0.031   0.429   1.701 -0.8222  0.7319  0.1171
 5309SOL    MW421004   0.015   0.377   1.769  0.0964  0.2139 -0.0446
 5310SOL     OW21005   5.456   0.045   5.672  0.1681 -0.2449  0.1085
 5310SOL    HW221006   5.407   0.035   5.754 -0.1886 -0.2614 -0.1056
 5310SOL    HW321007   5.542   0.009   5.692  0.6046  1.1846  0.9591
 5310SOL    MW421008   5.461   0.039   5.686  0.1786 -0.0585  0.1925
 5311SOL     OW21009   3.544   4.504   2.975 -0.2186 -0.1113 -0.1605
 5311SOL    HW221010   3.626   4.472   3.013  0.4508  0.2499 -1.2382
 5311SOL    HW321011   3.532   4.450   2.897 -0.1215  0.9200 -0.9117
 5311SOL    MW421012   3.553   4.492   2.969 -0.1175  0.0724 -0.4018
 5312SOL     OW21013   3.159   1.775   5.501  1.1279  0.3886  0.0925
 5312SOL    HW221014   3.168   1.867   5.476  1.4478 -0.0126 -1.3626
 5312SOL    HW321015   3.108   1.777   5.582  0.3102  1.7893 -0.4216
 5312SOL    MW421016   3.154   1.788   5.508  1.0622  0.5204 -0.1673
 5313SOL     OW21017   3.866   5.075   1.182  0.1991  0.0615  0.2641
 5313SOL    HW221018   3.793   5.091   1.241 -2.8869 -1.1979 -2.8344
 5313SOL    HW321019   3.862   5.147   1.119  1.8998  0.1509  0.2066
 5313SOL    MW421020   3.856   5.087   1.181  0.0163 -0.0929 -0.1523
 5314SOL     OW21021   5.041   0.357   3.793 -0.2296  0.5686 -0.2736
 5314SOL    HW221022   4.955   0.338   3.756 -1.0451  0.9334  1.3293
 5314SOL    HW321023   5.098   0.289   3.758 -1.4392 -0.3962 -0.4345
 5314SOL    MW421024   5.037   0.346   3.784 -0.4968  0.4895 -0.0834
 5315SOL     OW21025   5.019   2.046   3.844 -0.8185  0.2865 -0.3963
 5315SOL    HW221026   4.934   2.087   3.862 -0.8905  0.4180 -0.9886
 5315SOL    HW321027   5.001   1.953   3.837 -0.9131  0.3108 -0.4819
 5315SOL    MW421028   5.006   2.039   3.845 -0.8405  0.3071 -0.4857
 5316SOL     OW21029   1.670   2.574   4.932  0.0268  0.1062  0.3901
 5316SOL    HW221030   1.686   2.493   4.884  0.7454  0.1048  0.6103
 5316SOL    HW321031   1.649   2.638   4.865 -1.6930 -0.5080  0.2958
 5316SOL    MW421032   1.669   2.572   4.917 -0.1053  0.0250  0.4068
 5317SOL     OW21033   5.458   1.951   0.756 -0.0750  0.4908  0.0029
 5317SOL    HW221034   5.527   1.887   0.740 -2.4958 -2.1843 -0.6430
 5317SOL    HW321035   5.474   1.982   0.846  1.4659 -0.6451  0.1620
 5317SOL    MW421036   5.469   1.947   0.766 -0.1911 -0.0120 -0.0613
 5318SOL     OW21037   0.402   5.424   4.624  0.1272 -0.0983 -0.1559
 5318SOL    HW221038   0.458   5.463   4.556  0.3017  1.1407  0.6646
 5318SOL    HW321039   0.456   5.426   4.703 -0.8690  0.5821  0.5185
 5318SOL    MW421040   0.417   5.429   4.625  0.0187  0.1549  0.0413
 5319SOL     OW21041   4.369   5.266   5.076  0.2171 -0.1433 -1.2267
 5319SOL    HW221042   4.444   5.234   5.126  0.0934 -0.8102 -1.4546
 5319SOL    HW321043   4.311   5.304   5.142  1.5084  1.9535 -1.2313
 5319SOL    MW421044   4.371   5.267   5.091  0.3711  0.0454 -1.2573
 5320SOL     OW21045   3.985   5.195   6.280  0.2334  0.5444  0.2217
 5320SOL    HW221046   4.029   5.277   6.259  0.2970  0.4561  0.0035
 5320SOL    HW321047   4.057   5.133   6.296  0.1968  0.7911  1.4679
 5320SOL    MW421048   4.000   5.198   6.279  0.2370  0.5653  0.3573
 5321SOL     OW21049   6.128   2.107   0.019 -0.2288  0.0721  0.0791
 5321SOL    HW221050   6.205   2.161   0.037  0.7114 -1.4987  0.9793
 5321SOL    HW321051   6.059   2.146   0.074  0.2801  0.6752  0.3086
 5321SOL    MW421052   6.129   2.119   0.029 -0.0376 -0.0556  0.2281
 5322SOL     OW21053   2.881   2.298   6.391 -0.5457  0.2406  0.1242
 5322SOL    HW221054   2.911   2.386   6.372  0.8974 -0.2382  0.0759
 5322SOL    HW321055   2.899   2.286   6.485 -0.4500 -0.1011  0.0640
 5322SOL    MW421056   2.887   2.308   6.401 -0.3427  0.1324  0.1099
 5323SOL     OW21057   1.437   2.411   1.950  0.0107 -0.2402 -0.0451
 5323SOL    HW221058   1.522   2.456   1.947  0.3764 -0.7438  1.5892
 5323SOL    HW321059   1.444   2.343   1.883  1.7774 -1.6486  1.4424
 5323SOL    MW421060   1.449   2.408   1.941  0.2920 -0.4925  0.3668
 5324SOL     OW21061   3.016   1.500   2.000 -0.4917  0.5497  0.1187
 5324SOL    HW221062   3.107   1.497   2.031  0.0733  1.3729 -1.3834
 5324SOL    HW321063   2.983   1.585   2.029 -0.9752  0.0412  1.1129
 5324SOL    MW421064   3.023   1.511   2.008 -0.4810  0.5912  0.0517
 5325SOL     OW21065   0.849   4.080   1.663  0.4568  0.4144 -0.5854
 5325SOL    HW221066   0.941   4.063   1.647  0.0383 -0.4503 -2.2760
 5325SOL    HW321067   0.827   4.025   1.738  1.1987  0.2724 -0.4664
 5325SOL    MW421068   0.858   4.070   1.671  0.4995  0.2816 -0.7928
 5326SOL     OW21069   4.006   4.338   3.845 -0.0374 -0.3666  0.6061
 5326SOL    HW221070   4.031   4.313   3.934 -0.9729 -1.7982  0.4983
 5326SOL    HW321071   3.933   4.398   3.856  2.7578  3.3848  0.9016
 5326SOL    MW421072   4.000   4.342   3.858  0.2080 -0.0606  0.6308
 5327SOL     OW21073   6.174   4.117   5.145 -0.2344 -0.2514  0.3885
 5327SOL    HW221074   6.177   4.161   5.230  0.1500  0.9915 -0.2336
 5327SOL    HW321075   6.205   4.028   5.162  0.8352  0.2820  1.3710
 5327SOL    MW421076   6.179   4.111   5.158 -0.0426 -0.0170  0.4360
 5328SOL     OW21077   1.290   0.327   4.254 -0.4320  0.0868  0.2217
 5328SOL    HW221078   1.233   0.319   4.331 -0.1430 -0.3126  0.3986
 5328SOL    HW321079   1.295   0.422   4.238 -2.4921  0.0862 -0.8254
 5328SOL    MW421080   1.283   0.339   4.262 -0.6656  0.0340  0.1069
 5329SOL     OW21081   2.941   2.546   6.306  0.5693 -0.6318  0.4043
 5329SOL    HW221082   2.998   2.569   6.233  0.1052 -0.7040  0.0111
 5329SOL    HW321083   2.853   2.570   6.277  0.1638 -2.1188  0.2908
 5329SOL    MW421084   2.937   2.552   6.293  0.4545 -0.8375  0.3375
 5330SOL     OW21085   3.065   5.424   1.106  0.5336 -0.7298 -0.0573
 5330SOL    HW221086   3.032   5.338   1.131  1.1859 -0.4067  2.1479
 5330SOL    HW321087   3.151   5.406   1.066 -0.0296 -1.1756 -1.1250
 5330SOL    MW421088   3.072   5.410   1.104  0.5453 -0.7460  0.0928
 5331SOL     OW21089   1.682   3.647   2.660  0.2471  0.0875  0.3036
 5331SOL    HW221090   1.774   3.665   2.680  0.0843 -0.5172  1.6929
 5331SOL    HW321091   1.683   3.613   2.570  1.4608 -0.6342  0.5713
 5331SOL    MW421092   1.694   3.645   2.650  0.3858 -0.0875  0.5223
 5332SOL     OW21093   0.162   2.685   2.099  0.1242  0.1301 -0.7691
 5332SOL    HW221094   0.141   2.592   2.097 -0.4087  0.2277  0.0230
 5332SOL    HW321095   0.147   2.715   2.009 -1.3732 -0.2059 -0.6590
 5332SOL    MW421096   0.157   2.677   2.087 -0.1437  0.0986 -0.6501
 5333SOL     OW21097   2.595   0.857   4.808 -0.3831 -0.0366  0.8201
 5333SOL    HW221098   2.653   0.921   4.850  0.4637 -0.5464  0.4512
 5333SOL    HW321099   2.653   0.786   4.781 -0.9294  0.1437 -0.9779
 5333SOL    MW421100   2.610   0.856   4.810 -0.3435 -0.0801  0.5342
 5334SOL     OW21101   1.293   4.665   0.655 -0.7063  1.0802 -0.4624
 5334SOL    HW221102   1.273   4.662   0.749 -1.1039 -1.3625 -0.5796
 5334SOL    HW321103   1.385   4.637   0.650 -1.0676 -0.0496 -0.8879
 5334SOL    MW421104   1.303   4.661   0.667 -0.8064  0.6089 -0.5340
 5335SOL     OW21105   3.303   5.183   5.911  0.0748 -0.0731 -0.1063
 5335SOL    HW221106   3.223   5.222   5.946  0.3861  1.4832 -1.0040
 5335SOL    HW321107   3.290   5.089   5.920 -1.0502  0.1986  1.4733
 5335SOL    MW421108   3.291   5.176   5.917 -0.0325  0.1681 -0.0164
 5336SOL     OW21109   3.694   3.660   3.296 -0.8417  0.5468 -0.3523
 5336SOL    HW221110   3.764   3.609   3.336  0.3538  1.0650 -1.6831
 5336SOL    HW321111   3.619   3.650   3.355  0.6684  0.9250  1.7441
 5336SOL    MW421112   3.693   3.652   3.309 -0.4847  0.6650 -0.2513
 5337SOL     OW21113   2.225   5.548   2.226  0.1642 -0.3234  0.5866
 5337SOL    HW221114   2.184   5.573   2.308  0.7739 -2.6240  1.6609
 5337SOL    HW321115   2.162   5.490   2.184 -0.6374  1.6711 -1.2027
 5337SOL    MW421116   2.212   5.544   2.231  0.1389 -0.3638  0.4923
 5338SOL     OW21117   3.494   5.289   4.794 -0.0980 -0.1510 -0.0191
 5338SOL    HW221118   3.441   5.211   4.810 -1.8156  1.1004  0.6113
 5338SOL    HW321119   3.500   5.332   4.880  1.2396  0.1801 -0.2583
 5338SOL    MW421120   3.488   5.284   4.808 -0.1482  0.0578  0.0325
 5339SOL     OW21121   5.412   4.846   5.366  0.3178  0.5091  0.0152
 5339SOL    HW221122   5.488   4.877   5.414 -0.3182  2.3724 -0.0978
 5339SOL    HW321123   5.337   4.878   5.416 -0.3981 -0.7662 -0.2021
 5339SOL    MW421124   5.412   4.854   5.379  0.1394  0.5867 -0.0284
 5340SOL     OW21125   0.416   5.298   3.060 -0.0884  0.2483  0.6309
 5340SOL    HW221126   0.465   5.323   3.138  0.0609 -0.0269  0.6288
 5340SOL    HW321127   0.482   5.289   2.991 -0.0708 -0.5958  0.7437
 5340SOL    MW421128   0.431   5.300   3.061 -0.0664  0.1006  0.6455
 5341SOL     OW21129   3.914   1.887   5.712 -0.0908 -0.0365 -0.5662
 5341SOL    HW221130   3.982   1.921   5.655  0.9644 -0.4430  0.4131
 5341SOL    HW321131   3.960   1.830   5.774 -0.9813  1.3307  1.4648
 5341SOL    MW421132   3.929   1.884   5.713 -0.0691  0.0903 -0.1690
 5342SOL     OW21133   3.880   5.542   4.031 -0.5339  0.2722 -0.0611
 5342SOL    HW221134   3.877   5.531   3.936  0.2111 -1.9192  0.1079
 5342SOL    HW321135   3.792   5.520   4.060 -2.0543  4.9158 -0.4513
 5342SOL    MW421136   3.868   5.537   4.022 -0.6362  0.5957 -0.0903
 5343SOL     OW21137   5.599   6.140   1.300  0.2020  0.5138  0.4514
 5343SOL    HW221138   5.594   6.049   1.270  1.7286  0.0375  1.5312
 5343SOL    HW321139   5.513   6.157   1.340  0.0575 -0.6063  0.6350
 5343SOL    MW421140   5.587   6.130   1.302  0.3844  0.3032  0.6181
 5344SOL     OW21141   4.888   3.355   0.840 -0.1006  0.0897  0.3269
 5344SOL    HW221142   4.813   3.335   0.895 -0.2312  1.2459  0.6046
 5344SOL    HW321143   4.933   3.272   0.828 -1.0083 -0.4768  0.7815
 5344SOL    MW421144   4.884   3.342   0.846 -0.2376  0.1675  0.4236
 5345SOL     OW21145   2.576   6.364   1.804  0.0182  0.5213  0.3208
 5345SOL    HW221146   2.507   6.422   1.771  0.3027  0.5099 -0.3081
 5345SOL    HW321147   2.538   6.276   1.799 -0.3835  0.6351  1.1969
 5345SOL    MW421148   2.562   6.360   1.799  0.0027  0.5348  0.3534
 5346SOL     OW21149   0.473   0.198   5.477 -0.1705  0.1641 -0.3695
 5346SOL    HW221150   0.454   0.197   5.383 -3.1180 -0.1777  0.1314
 5346SOL    HW321151   0.428   0.275   5.510  1.8618  0.9913  0.6680
 5346SOL    MW421152   0.465   0.208   5.469 -0.2912  0.2281 -0.1665
 5347SOL     OW21153   4.749   6.152   5.792 -0.1583 -1.3585 -0.1398
 5347SOL    HW221154   4.776   6.114   5.709  1.0189  0.0452 -0.4398
 5347SOL    HW321155   4.827   6.147   5.847  0.3340  1.2997 -0.4730
 5347SOL    MW421156   4.763   6.147   5.788  0.0619 -0.8226 -0.2234
 5348SOL     OW21157   4.530   4.897   2.933 -0.6411  0.3412  0.2681
 5348SOL    HW221158   4.595   4.952   2.976 -0.4448  0.8350 -0.6240
 5348SOL    HW321159   4.462   4.883   2.999  0.5599 -0.5708  1.3724
 5348SOL    MW421160   4.530   4.902   2.947 -0.4567  0.2860  0.2961
 5349SOL     OW21161   4.092   1.669   4.498 -0.1952 -0.9685  0.7491
 5349SOL    HW221162   4.048   1.593   4.536  1.1683 -1.6764  1.0004
 5349SOL    HW321163   4.085   1.737   4.564 -0.6450 -1.1585  0.9025
 5349SOL    MW421164   4.085   1.668   4.512 -0.0746 -1.0870  0.8025
 5350SOL     OW21165   5.256   0.226   1.798 -0.0210 -0.4916  0.3006
 5350SOL    HW221166   5.308   0.300   1.831  1.5228 -1.9158  1.2425
 5350SOL    HW321167   5.243   0.245   1.705  1.2651  0.4413  0.2875
 5350SOL    MW421168   5.261   0.238   1.790  0.3524 -0.5564  0.4232
 5351SOL     OW21169   1.192   5.870   2.726  0.4688 -0.0222 -0.2291
 5351SOL    HW221170   1.235   5.788   2.751  0.1719 -0.1786 -0.2291
 5351SOL    HW321171   1.140   5.847   2.648  0.2416  0.1237 -0.1202
 5351SOL    MW421172   1.191   5.856   2.719  0.3997 -0.0236 -0.2148
 5352SOL     OW21173   0.266   5.882   1.710  0.0325  0.3551 -0.4947
 5352SOL    HW221174   0.203   5.810   1.711  0.4286  0.0036  0.0216
 5352SOL    HW321175   0.222   5.953   1.756 -0.9199  0.9583 -2.2460
 5352SOL    MW421176   0.252   5.882   1.716 -0.0409  0.3883 -0.6576
 5353SOL     OW21177   1.952   0.616   4.786 -0.1251  0.4201 -0.3153
 5353SOL    HW221178   1.957   0.659   4.871 -0.8014 -1.1945  0.5845
 5353SOL    HW321179   1.869   0.647   4.748  0.3104  1.3547 -0.5235
 5353SOL    MW421180   1.942   0.626   4.792 -0.1569  0.3304 -0.2240
 5354SOL     OW21181   0.161   0.094   2.857  0.5360 -0.8355  1.2334
 5354SOL    HW221182   0.113   0.018   2.889 -0.0493 -1.8268 -1.7206
 5354SOL    HW321183   0.225   0.058   2.795 -0.5581  1.0831 -1.1803
 5354SOL    MW421184   0.163   0.079   2.853  0.3144 -0.7131  0.5252
 5355SOL     OW21185   0.980   4.123   0.620 -0.6509 -0.2298 -0.0068
 5355SOL    HW221186   0.983   4.202   0.565  0.4345 -0.7055 -0.6687
 5355SOL    HW321187   0.974   4.156   0.709  1.0419  0.6621 -0.1803
 5355SOL    MW421188   0.980   4.138   0.624 -0.2843 -0.1749 -0.1171
 5356SOL     OW21189   1.517   6.030   0.505 -0.4093  0.1496 -0.3091
 5356SOL    HW221190   1.568   6.057   0.429  1.1911 -0.1803  0.6222
 5356SOL    HW321191   1.460   5.961   0.472  0.7727 -0.4950 -1.0642
 5356SOL    MW421192   1.516   6.025   0.490 -0.0422  0.0210 -0.2859
 5357SOL     OW21193   3.032   2.344   0.399 -0.0420 -0.3955 -0.2612
 5357SOL    HW221194   2.949   2.390   0.399  0.5910  0.7773  0.2821
 5357SOL    HW321195   3.028   2.287   0.476 -0.0755  0.1510  0.1404
 5357SOL    MW421196   3.020   2.342   0.409  0.0371 -0.1687 -0.1365
 5358SOL     OW21197   4.397   1.024   3.141 -0.0439 -0.4909 -0.2007
 5358SOL    HW221198   4.321   1.016   3.199 -1.0599  0.8264 -1.2664
 5358SOL    HW321199   4.464   0.970   3.182 -0.4300  0.9689  2.6529
 5358SOL    MW421200   4.396   1.016   3.154 -0.2289 -0.1245  0.0352
 5359SOL     OW21201   4.242   4.594   5.751 -0.1775  0.3533  0.0089
 5359SOL    HW221202   4.173   4.544   5.708 -0.0661 -0.4558  0.7445
 5359SOL    HW321203   4.308   4.529   5.776 -0.1533  0.8137  1.2122
 5359SOL    MW421204   4.242   4.579   5.749 -0.1596  0.3073  0.2647
 5360SOL     OW21205   3.240   2.632   4.423 -0.1132 -0.3120 -0.2183
 5360SOL    HW221206   3.305   2.567   4.395 -0.4328 -0.3176 -0.9637
 5360SOL    HW321207   3.182   2.642   4.347  0.3113  1.3201 -0.3615
 5360SOL    MW421208   3.241   2.625   4.409 -0.0994 -0.0974 -0.3355
 5361SOL     OW21209   5.808   3.578   1.656 -0.9077  0.2625  0.0619
 5361SOL    HW221210   5.848   3.593   1.742 -1.1427 -0.5268  0.3105
 5361SOL    HW321211   5.718   3.554   1.676 -1.0020  0.2266 -0.4150
 5361SOL    MW421212   5.802   3.577   1.670 -0.9511  0.1536  0.0318
 5362SOL     OW21213   5.481   4.495   3.280  0.1311  0.1399 -0.0392
 5362SOL    HW221214   5.429   4.436   3.336 -0.4114  1.1284  0.5366
 5362SOL    HW321215   5.416   4.556   3.244  0.8586  1.3066  0.5774
 5362SOL    MW421216   5.465   4.495   3.283  0.1555  0.4243  0.1182
 5363SOL     OW21217   3.692   0.754   0.757 -0.1578 -0.2223  0.3016
 5363SOL    HW221218   3.740   0.698   0.696 -0.3341  0.5072 -0.5351
 5363SOL    HW321219   3.641   0.812   0.700  1.0251  1.6807  1.1269
 5363SOL    MW421220   3.691   0.754   0.741 -0.0250  0.1250  0.3001
 5364SOL     OW21221   1.696   5.810   4.924  0.2387 -0.2653 -0.7604
 5364SOL    HW221222   1.651   5.754   4.862 -1.6753  0.3599 -0.0153
 5364SOL    HW321223   1.640   5.809   5.002  2.0785 -0.2793  0.6158
 5364SOL    MW421224   1.683   5.803   4.926  0.2289 -0.1846 -0.4805
 5365SOL     OW21225   1.087   1.369   2.734  0.2643  0.0071 -0.1342
 5365SOL    HW221226   1.115   1.322   2.813 -1.6007 -0.2029  0.4718
 5365SOL    HW321227   1.079   1.301   2.667 -1.0711 -0.3555  0.3589
 5365SOL    MW421228   1.090   1.354   2.736 -0.1580 -0.0684  0.0108
 5366SOL     OW21229   4.650   3.619   1.787 -0.2548  0.3722 -0.4340
 5366SOL    HW221230   4.705   3.619   1.865 -0.8680  1.4303  0.0102
 5366SOL    HW321231   4.569   3.662   1.815 -3.1289 -4.6303  0.1816
 5366SOL    MW421232   4.646   3.625   1.801 -0.7149 -0.1482 -0.2941
 5367SOL     OW21233   0.045   0.043   1.922  0.6568  0.2696 -0.2069
 5367SOL    HW221234   0.127   0.063   1.876 -0.4299 -0.2801 -2.5531
 5367SOL    HW321235   0.068  -0.028   1.983  1.8432 -0.1852 -1.1459
 5367SOL    MW421236   0.059   0.036   1.924  0.6699  0.1371 -0.6403
 5368SOL     OW21237   0.905   2.945   2.842  0.1108  0.2235 -0.4218
 5368SOL    HW221238   0.834   2.936   2.905 -1.1023  0.8931 -1.6491
 5368SOL    HW321239   0.862   2.959   2.758  1.6934  0.4214 -1.2494
 5368SOL    MW421240   0.890   2.946   2.840  0.1595  0.3380 -0.6929
 5369SOL     OW21241   5.001   3.961   1.174 -0.2440  0.3599  0.1038
 5369SOL    HW221242   4.952   3.908   1.237  2.3583 -1.2669  0.9184
 5369SOL    HW321243   5.064   4.009   1.228 -0.2597  1.6534 -0.9857
 5369SOL    MW421244   5.003   3.960   1.190  0.0973  0.3159  0.0675
 5370SOL     OW21245   4.316   5.286   1.417  0.0973  0.2899  0.6167
 5370SOL    HW221246   4.366   5.357   1.456  1.1751 -0.5553  0.8214
 5370SOL    HW321247   4.360   5.268   1.334 -0.5786  0.3048  0.2428
 5370SOL    MW421248   4.328   5.293   1.411  0.1503  0.1803  0.5943
 5371SOL     OW21249   4.281   3.240   5.884  0.4116 -0.4549  0.3096
 5371SOL    HW221250   4.309   3.189   5.960 -1.2994 -0.4653  0.9769
 5371SOL    HW321251   4.340   3.212   5.814  2.3994 -0.0314  1.7365
 5371SOL    MW421252   4.293   3.229   5.885  0.4481 -0.4004  0.5859
 5372SOL     OW21253   4.807   0.975   3.255 -0.4244  0.3744  1.1173
 5372SOL    HW221254   4.775   0.942   3.172 -0.2165  1.0458  0.7632
 5372SOL    HW321255   4.820   0.897   3.309 -0.5772 -0.0588  0.5287
 5372SOL    MW421256   4.805   0.961   3.251 -0.4171  0.4058  0.9930
 5373SOL     OW21257   5.990   1.050   2.895 -0.1668 -0.1409 -0.3326
 5373SOL    HW221258   6.072   1.002   2.881  0.6223  1.1292 -0.1996
 5373SOL    HW321259   5.977   1.050   2.989 -0.5916 -0.7515 -0.3828
 5373SOL    MW421260   5.999   1.044   2.905 -0.1187 -0.0538 -0.3217
 5374SOL     OW21261   1.610   1.829   5.191  0.1055  0.2500  0.2622
 5374SOL    HW221262   1.662   1.895   5.236  2.0892 -1.4180  0.5662
 5374SOL    HW321263   1.555   1.879   5.130  1.1249  2.1917  0.8638
 5374SOL    MW421264   1.610   1.844   5.189  0.5017  0.2861  0.3817
 5375SOL     OW21265   0.666   1.626   3.261  0.0799 -0.7617  0.4077
 5375SOL    HW221266   0.583   1.661   3.294  0.4861 -0.4006  1.0715
 5375SOL    HW321267   0.644   1.589   3.175 -0.3247  1.3510 -0.4611
 5375SOL    MW421268   0.652   1.625   3.254  0.0801 -0.4353  0.3806
 5376SOL     OW21269   2.867   1.210   5.650 -0.1707 -0.2848 -0.7407
 5376SOL    HW221270   2.836   1.260   5.574 -0.3062  0.8491  0.0292
 5376SOL    HW321271   2.944   1.258   5.680 -0.3286 -0.5089  0.0395
 5376SOL    MW421272   2.873   1.223   5.644 -0.2094 -0.1647 -0.5362
 5377SOL     OW21273   6.386   0.980   3.309 -0.1887  0.1966 -0.3870
 5377SOL    HW221274   6.387   0.939   3.396  3.1258 -1.9772 -1.2311
 5377SOL    HW321275   6.397   1.073   3.326 -0.9846 -0.0165  1.5359
 5377SOL    MW421276   6.388   0.987   3.323  0.1436 -0.1183 -0.2447
 5378SOL     OW21277   5.027   2.676   1.438 -0.3333 -0.2952 -0.1202
 5378SOL    HW221278   4.957   2.656   1.376 -1.7021  1.7638  0.6484
 5378SOL    HW321279   5.087   2.732   1.388 -2.3521  2.8872  0.7173
 5378SOL    MW421280   5.026   2.681   1.423 -0.7802  0.3963  0.0917
 5379SOL     OW21281   3.946   0.006   1.016 -0.2892 -0.0555 -0.1703
 5379SOL    HW221282   3.936   0.043   0.928 -0.3212  2.4337  0.7862
 5379SOL    HW321283   3.913  -0.084   1.008  0.6013 -0.2447 -2.8835
 5379SOL    MW421284   3.940  -0.001   1.003 -0.1759  0.2479 -0.4021
 5380SOL     OW21285   3.455   5.819   0.615 -0.1817 -0.5712 -0.1251
 5380SOL    HW221286   3.487   5.842   0.527  0.4236  0.7138  0.3982
 5380SOL    HW321287   3.383   5.881   0.631  0.1327 -0.3609  0.5219
 5380SOL    MW421288   3.450   5.830   0.605 -0.0604 -0.3739  0.0293
 5381SOL     OW21289   5.257   3.210   5.238  0.0202 -0.5423  0.2901
 5381SOL    HW221290   5.333   3.246   5.191 -0.3579  2.2870  1.5936
 5381SOL    HW321291   5.189   3.277   5.227 -0.4570 -0.3011  3.7258
 5381SOL    MW421292   5.258   3.224   5.230 -0.0927 -0.1372  0.9154
 5382SOL     OW21293   3.612   3.720   4.828  0.1596 -0.1543 -0.1202
 5382SOL    HW221294   3.558   3.798   4.846  0.9703  0.6567 -1.1097
 5382SOL    HW321295   3.604   3.668   4.908  0.4580  1.4480  1.0165
 5382SOL    MW421296   3.604   3.724   4.841  0.3059  0.1641 -0.1008
 5383SOL     OW21297   0.900   4.463   3.924 -0.8888  0.3653 -0.0291
 5383SOL    HW221298   0.932   4.510   3.847 -0.4657 -0.2065 -0.2111
 5383SOL    HW321299   0.924   4.519   3.998 -1.8786  1.2334 -0.3386
 5383SOL    MW421300   0.907   4.477   3.924 -0.9636  0.4043 -0.0939
 5384SOL     OW21301   1.637   2.147   1.322 -0.5212  0.2692 -0.2211
 5384SOL    HW221302   1.677   2.062   1.303 -1.0185 -0.0523  0.1265
 5384SOL    HW321303   1.613   2.182   1.236  0.5203  0.4833 -0.4367
 5384SOL    MW421304   1.639   2.141   1.308 -0.4494  0.2550 -0.2037
 5385SOL     OW21305   5.867   6.114   6.190 -0.3889  0.3334  0.2280
 5385SOL    HW221306   5.918   6.179   6.141 -1.6100  0.5744 -0.7525
 5385SOL    HW321307   5.933   6.068   6.243  0.7368  1.1803 -0.3771
 5385SOL    MW421308   5.883   6.117   6.191 -0.4015  0.4769  0.0188
 5386SOL     OW21309   1.513   2.366   0.404 -0.3025 -0.4277 -0.7568
 5386SOL    HW221310   1.452   2.438   0.421 -0.9206 -1.0006 -0.5261
 5386SOL    HW321311   1.591   2.409   0.370 -0.2450  0.4586  0.4557
 5386SOL    MW421312   1.515   2.381   0.401 -0.3765 -0.3864 -0.5664
 5387SOL     OW21313   1.512   1.256   1.812  0.6314 -0.7385  0.1591
 5387SOL    HW221314   1.601   1.271   1.844  1.5500 -1.3912 -1.9330
 5387SOL    HW321315   1.507   1.162   1.796 -1.2138 -1.0907  2.2745
 5387SOL    MW421316   1.523   1.246   1.814  0.5092 -0.8711  0.1621
 5388SOL     OW21317   1.092   3.668   4.406 -0.1530  0.3254  0.0785
 5388SOL    HW221318   1.144   3.744   4.382 -0.3282  0.9084  1.4318
 5388SOL    HW321319   1.029   3.658   4.334  0.7518  0.6144 -0.7668
 5388SOL    MW421320   1.090   3.676   4.393 -0.0567  0.4404  0.1455
 5389SOL     OW21321   1.691   1.219   0.741 -0.3347 -0.4123  0.6378
 5389SOL    HW221322   1.702   1.314   0.749 -1.3096 -0.2208 -0.1308
 5389SOL    HW321323   1.735   1.183   0.818 -0.3741  0.6910  1.1955
 5389SOL    MW421324   1.698   1.227   0.752 -0.4686 -0.2415  0.6100
 5390SOL     OW21325   5.459   2.327   3.457  0.4964 -0.4297  0.2688
 5390SOL    HW221326   5.374   2.329   3.412  0.2791 -0.9190  0.6465
 5390SOL    HW321327   5.485   2.235   3.456 -0.2613 -0.7302  2.4913
 5390SOL    MW421328   5.451   2.315   3.451  0.3678 -0.5339  0.6119
 5391SOL     OW21329   0.213   4.161   5.508  0.1261 -0.0926  0.1272
 5391SOL    HW221330   0.263   4.124   5.436 -0.5865 -2.8008  0.9334
 5391SOL    HW321331   0.126   4.122   5.501  0.0474 -0.5094  2.4412
 5391SOL    MW421332   0.208   4.151   5.498  0.0217 -0.5049  0.5389
 5392SOL     OW21333   5.248   3.538   5.207 -0.0095 -0.1309  0.5178
 5392SOL    HW221334   5.240   3.588   5.288  0.5106  0.0753  0.4455
 5392SOL    HW321335   5.334   3.495   5.214 -0.1819 -0.5111  0.3030
 5392SOL    MW421336   5.259   3.539   5.218  0.0364 -0.1539  0.4799
 5393SOL     OW21337   5.226   2.868   1.421 -0.4241 -0.0548 -0.4542
 5393SOL    HW221338   5.277   2.850   1.500 -0.3524  1.7635 -0.0393
 5393SOL    HW321339   5.150   2.917   1.452  0.1994  1.7346 -1.5822
 5393SOL    MW421340   5.223   2.872   1.435 -0.3324  0.4212 -0.5483
 5394SOL     OW21341   5.144   5.133   4.794  0.0938  0.6169 -0.5177
 5394SOL    HW221342   5.238   5.143   4.808  0.3331  2.5549 -2.8768
 5394SOL    HW321343   5.103   5.196   4.853  0.2090 -0.2899  0.5750
 5394SOL    MW421344   5.151   5.142   4.804  0.1406  0.7529 -0.6848
 5395SOL     OW21345   6.285   2.403   5.790  0.4665 -0.5172  0.0322
 5395SOL    HW221346   6.362   2.435   5.743 -0.4867  1.8504 -0.0345
 5395SOL    HW321347   6.305   2.419   5.882  0.2183 -0.2790  0.0439
 5395SOL    MW421348   6.298   2.409   5.796  0.3080 -0.1734  0.0249
 5396SOL     OW21349   2.607   1.183   3.601 -0.0800  0.1642 -0.0945
 5396SOL    HW221350   2.652   1.119   3.656 -1.4505  0.1460  1.0500
 5396SOL    HW321351   2.577   1.132   3.526 -0.0221 -0.2612  0.1638
 5396SOL    MW421352   2.609   1.168   3.599 -0.2532  0.1057  0.0906
 5397SOL     OW21353   2.522   1.069   3.363  0.1856 -0.3943  0.1452
 5397SOL    HW221354   2.446   1.126   3.351  0.3528 -0.2311 -0.1597
 5397SOL    HW321355   2.581   1.093   3.292  0.8700  0.0580  0.8431
 5397SOL    MW421356   2.520   1.080   3.352  0.2979 -0.3131  0.1970
 5398SOL     OW21357   1.174   3.662   3.506 -0.1934  0.1644  0.5045
 5398SOL    HW221358   1.119   3.607   3.562  1.0857 -2.0622 -0.2869
 5398SOL    HW321359   1.118   3.684   3.431 -0.6494 -0.2953  0.7042
 5398SOL    MW421360   1.160   3.657   3.504 -0.0848 -0.1900  0.4265
 5399SOL     OW21361   4.538   4.602   2.170 -0.4109 -0.0868  0.1807
 5399SOL    HW221362   4.499   4.531   2.222 -0.9400 -1.2787 -1.7614
 5399SOL    HW321363   4.469   4.629   2.110  0.7333 -0.0336 -1.1610
 5399SOL    MW421364   4.523   4.596   2.169 -0.3297 -0.2371 -0.2526
 5400SOL     OW21365   5.014   3.062   1.494 -0.3598  0.2332  0.7986
 5400SOL    HW221366   5.029   3.074   1.588  0.1469  1.1053  0.6145
 5400SOL    HW321367   4.924   3.092   1.481 -0.7705 -0.7852  1.1493
 5400SOL    MW421368   5.004   3.067   1.505 -0.3471  0.2139  0.8206
 5401SOL     OW21369   2.468   0.874   6.153 -0.3806 -1.0604  0.2880
 5401SOL    HW221370   2.430   0.953   6.116  1.3410  0.4909  1.6604
 5401SOL    HW321371   2.554   0.866   6.110  0.9684 -0.1226  2.6604
 5401SOL    MW421372   2.475   0.883   6.142  0.0246 -0.7320  0.7820
 5402SOL     OW21373   3.029   5.530   2.298  0.3107 -0.5016  0.0775
 5402SOL    HW221374   3.110   5.479   2.293  0.9747  0.6591 -2.4409
 5402SOL    HW321375   2.962   5.473   2.261  0.3642 -0.7276  0.3231
 5402SOL    MW421376   3.031   5.516   2.292  0.4054 -0.3783 -0.2224
 5403SOL     OW21377   4.940   3.063   4.766 -0.6125 -0.6025  0.2743
 5403SOL    HW221378   4.880   3.135   4.746  0.6055  0.2732 -0.3288
 5403SOL    HW321379   4.933   3.053   4.861  0.0344  1.1074  0.5440
 5403SOL    MW421380   4.931   3.071   4.776 -0.3664 -0.2614  0.2303
 5404SOL     OW21381   3.858   5.840   2.604  0.1466  0.0792  0.2375
 5404SOL    HW221382   3.821   5.923   2.633  2.4328  0.8204  1.2334
 5404SOL    HW321383   3.846   5.840   2.509  1.9594  2.5490 -0.0567
 5404SOL    MW421384   3.851   5.851   2.596  0.6874  0.5029  0.3301
 5405SOL     OW21385   0.193   2.754   3.278  0.0224 -0.3646  0.5478
 5405SOL    HW221386   0.248   2.820   3.237  0.5014 -1.1173 -0.0540
 5405SOL    HW321387   0.172   2.692   3.208 -1.9320  0.0973  0.6777
 5405SOL    MW421388   0.198   2.754   3.264 -0.1723 -0.4030  0.4855
 5406SOL     OW21389   5.050   2.672   5.264  0.0296 -0.7476  0.1401
 5406SOL    HW221390   5.013   2.650   5.178  0.5503 -1.2625  0.0395
 5406SOL    HW321391   5.055   2.767   5.264  0.6570 -0.7670 -0.6799
 5406SOL    MW421392   5.046   2.681   5.252  0.1811 -0.8181  0.0186
 5407SOL     OW21393   3.323   1.022   0.545  0.4981 -0.0731  0.6051
 5407SOL    HW221394   3.238   0.979   0.536  0.1512 -0.0988  3.3359
 5407SOL    HW321395   3.386   0.950   0.546  0.4187 -0.1534  0.2410
 5407SOL    MW421396   3.320   1.006   0.544  0.4418 -0.0871  0.9174
 5408SOL     OW21397   5.402   1.481   4.740 -0.0022 -0.0148 -0.4379
 5408SOL    HW221398   5.367   1.512   4.656  0.1475  1.5553  0.0439
 5408SOL    HW321399   5.389   1.555   4.800 -1.8835 -1.7526  1.4604
 5408SOL    MW421400   5.396   1.495   4.737 -0.2307 -0.0369 -0.1239
 5409SOL     OW21401   5.727   4.408   1.968 -0.1054 -0.2585 -0.3599
 5409SOL    HW221402   5.770   4.369   2.044  0.8449  1.2153 -0.1008
 5409SOL    HW321403   5.723   4.501   1.988 -1.4287 -0.0770 -1.3690
 5409SOL    MW421404   5.733   4.415   1.980 -0.1546 -0.0401 -0.4589
 5410SOL     OW21405   1.161   0.710   0.192 -0.8263  0.6168  0.0511
 5410SOL    HW221406   1.096   0.737   0.127 -1.9971  0.1333  0.9751
 5410SOL    HW321407   1.172   0.616   0.177  1.6962  1.1135 -1.8176
 5410SOL    MW421408   1.154   0.701   0.182 -0.6480  0.6186 -0.0735
 5411SOL     OW21409   0.617   5.081   2.209 -0.4431  0.2403 -0.6183
 5411SOL    HW221410   0.693   5.053   2.260 -0.7907 -2.1968 -1.3080
 5411SOL    HW321411   0.568   5.138   2.268  0.8899  0.2577  0.5301
 5411SOL    MW421412   0.621   5.085   2.224 -0.3131 -0.0789 -0.5578
 5412SOL     OW21413   5.496   3.162   3.348  0.1768 -0.5345  0.0940
 5412SOL    HW221414   5.440   3.210   3.288  1.5726 -0.6068 -1.3296
 5412SOL    HW321415   5.435   3.113   3.404 -1.1801  0.4470 -0.4752
 5412SOL    MW421416   5.480   3.162   3.348  0.1819 -0.4145 -0.1689
 5413SOL     OW21417   2.204   4.191   4.762  0.6032  0.1047 -0.4273
 5413SOL    HW221418   2.147   4.115   4.776 -0.0337  0.3794 -1.4531
 5413SOL    HW321419   2.292   4.159   4.785  0.3558 -0.9538 -0.8631
 5413SOL    MW421420   2.208   4.177   4.767  0.4865  0.0013 -0.6202
 5414SOL     OW21421   4.216   0.807   5.872 -0.1480 -0.4236  0.2406
 5414SOL    HW221422   4.203   0.856   5.791 -1.4334  1.3166  1.4307
 5414SOL    HW321423   4.151   0.737   5.869 -0.1735 -0.3794 -0.2397
 5414SOL    MW421424   4.206   0.805   5.861 -0.3210 -0.1882  0.3342
 5415SOL     OW21425   3.054   1.111   3.528 -0.5677  0.0926 -0.5435
 5415SOL    HW221426   2.993   1.050   3.488  0.3497 -0.1555 -1.6371
 5415SOL    HW321427   3.125   1.056   3.561 -0.7543  0.4024  0.3964
 5415SOL    MW421428   3.056   1.096   3.527 -0.4713  0.1007 -0.5637
 5416SOL     OW21429   4.257   3.438   6.285  0.1323 -0.1427  0.9372
 5416SOL    HW221430   4.201   3.469   6.214  0.2343 -0.8991  0.5152
 5416SOL    HW321431   4.313   3.371   6.244  1.2667  0.5144  1.3726
 5416SOL    MW421432   4.257   3.433   6.270  0.2954 -0.1558  0.9390
 5417SOL     OW21433   5.598   6.214   0.758  0.3816  0.7340 -0.4828
 5417SOL    HW221434   5.655   6.222   0.682  0.2094  2.0706 -0.4819
 5417SOL    HW321435   5.527   6.277   0.742  0.2398  0.8930  0.6945
 5417SOL    MW421436   5.596   6.223   0.746  0.3402  0.9314 -0.3273
 5418SOL     OW21437   4.084   0.785   3.312  0.3559  0.4043  0.6418
 5418SOL    HW221438   4.015   0.757   3.371 -1.1035  0.5700 -0.9262
 5418SOL    HW321439   4.076   0.727   3.236  2.3715  0.0045  0.6703
 5418SOL    MW421440   4.074   0.774   3.310  0.4293  0.3734  0.4386
 5419SOL     OW21441   3.848   0.045   0.735  0.5390 -0.1123  0.2025
 5419SOL    HW221442   3.917   0.095   0.692 -0.6233  0.6667 -0.8291
 5419SOL    HW321443   3.809  -0.007   0.665  0.5454 -1.1057  0.9195
 5419SOL    MW421444   3.852   0.045   0.720  0.3865 -0.1406  0.1610
 5420SOL     OW21445   1.357   2.160   1.405  0.4968  0.0475  0.0080
 5420SOL    HW221446   1.341   2.076   1.448 -1.2557  0.2089 -0.2747
 5420SOL    HW321447   1.451   2.159   1.385  0.6712 -1.4669  0.7736
 5420SOL    MW421448   1.368   2.149   1.408  0.2886 -0.1310  0.0717
 5421SOL     OW21449   3.353   1.880   2.153 -0.1411  0.4586  0.0336
 5421SOL    HW221450   3.286   1.948   2.147 -0.2522  0.3407 -0.0613
 5421SOL    HW321451   3.304   1.799   2.168 -0.2100  0.0035 -2.2583
 5421SOL    MW421452   3.338   1.878   2.154 -0.1648  0.3830 -0.2813
 5422SOL     OW21453   1.508   2.870   0.328 -0.0436  0.3529  0.9599
 5422SOL    HW221454   1.413   2.866   0.337  0.0367  1.2641  2.5258
 5422SOL    HW321455   1.527   2.962   0.311  0.4205 -0.1827 -1.9190
 5422SOL    MW421456   1.498   2.882   0.327  0.0282  0.4025  0.7867
 5423SOL     OW21457   6.169   3.131   0.860 -0.8323  0.0719  0.5231
 5423SOL    HW221458   6.235   3.064   0.847 -0.3555  0.4285  1.0623
 5423SOL    HW321459   6.202   3.207   0.811  0.2553  0.9512  2.5003
 5423SOL    MW421460   6.182   3.132   0.851 -0.6259  0.2350  0.8551
 5424SOL     OW21461   6.106   5.971   2.083 -0.1838 -0.2442  0.1398
 5424SOL    HW221462   6.016   5.974   2.117  0.0745  0.9434  0.7703
 5424SOL    HW321463   6.096   5.989   1.990 -0.7515 -1.9480 -0.1633
 5424SOL    MW421464   6.093   5.974   2.075 -0.2246 -0.3123  0.1830
 5425SOL     OW21465   3.064   5.265   6.023  0.1410  0.2665 -0.1854
 5425SOL    HW221466   3.011   5.280   5.945  1.5903  1.3468 -1.0239
 5425SOL    HW321467   3.022   5.192   6.068 -1.7928  0.8378 -0.9951
 5425SOL    MW421468   3.052   5.258   6.019  0.0771  0.4844 -0.4029
 5426SOL     OW21469   1.902   2.369   5.611  0.0620 -0.0202 -0.1894
 5426SOL    HW221470   1.988   2.328   5.606  1.1745  2.1162  0.3848
 5426SOL    HW321471   1.885   2.379   5.704  0.0356  1.1924 -0.3076
 5426SOL    MW421472   1.911   2.365   5.623  0.2053  0.4217 -0.1292
 5427SOL     OW21473   5.247   5.362   2.532 -0.9481 -0.4308  0.2292
 5427SOL    HW221474   5.253   5.283   2.586 -0.6453  1.4140  3.0955
 5427SOL    HW321475   5.196   5.423   2.585  0.6570  2.0396 -0.8963
 5427SOL    MW421476   5.241   5.359   2.546 -0.6964  0.1385  0.4589
 5428SOL     OW21477   3.601   3.455   6.224  0.0293 -0.2489  0.5297
 5428SOL    HW221478   3.555   3.534   6.252  1.1548  0.7783 -0.4105
 5428SOL    HW321479   3.694   3.479   6.225  0.2468 -0.5767 -2.5957
 5428SOL    MW421480   3.608   3.468   6.228  0.2065 -0.1566 -0.0067
 5429SOL     OW21481   0.885   6.158   0.184  0.1754  0.7809 -0.5120
 5429SOL    HW221482   0.930   6.234   0.148 -0.8579  1.0895 -1.2051
 5429SOL    HW321483   0.872   6.180   0.277  0.3115  1.2354 -0.5960
 5429SOL    MW421484   0.889   6.171   0.192  0.0570  0.8816 -0.6145
 5430SOL     OW21485   6.024   5.670   6.328  0.0018 -0.2350  0.7540
 5430SOL    HW221486   5.978   5.600   6.282  0.9429 -0.6916  0.4839
 5430SOL    HW321487   6.084   5.625   6.388  0.8799  0.3185  0.3191
 5430SOL    MW421488   6.026   5.655   6.330  0.2419 -0.2222  0.6610
 5431SOL     OW21489   2.889   4.406   6.057 -0.3611  0.7125 -0.1791
 5431SOL    HW221490   2.897   4.487   6.006 -0.6345  0.4574 -0.6340
 5431SOL    HW321491   2.909   4.432   6.146 -1.8981  1.6148 -0.0522
 5431SOL    MW421492   2.893   4.420   6.062 -0.6000  0.7979 -0.2223
 5432SOL     OW21493   0.429   4.884   4.508 -0.4511 -0.1572 -0.2648
 5432SOL    HW221494   0.512   4.854   4.545 -0.7146 -0.0083  0.4640
 5432SOL    HW321495   0.420   4.974   4.540 -2.1739 -1.0145  1.9096
 5432SOL    MW421496   0.439   4.892   4.517 -0.7131 -0.2507  0.1182
 5433SOL     OW21497   3.062   0.786   5.240  0.0489 -0.4640 -0.6324
 5433SOL    HW221498   3.080   0.871   5.279 -0.6452 -0.4521 -0.3373
 5433SOL    HW321499   3.149   0.748   5.226  0.3278 -0.4495  0.8857
 5433SOL    MW421500   3.076   0.792   5.243 -0.0059 -0.4605 -0.3932
 5434SOL     OW21501   4.902   0.887   5.073  0.2492  0.3079  0.0690
 5434SOL    HW221502   4.875   0.853   4.988  0.2973  1.3375 -0.3758
 5434SOL    HW321503   4.989   0.850   5.088  0.7051  0.9743 -0.8486
 5434SOL    MW421504   4.910   0.878   5.064  0.3157  0.5317 -0.1107
 5435SOL     OW21505   1.561   3.910   2.916 -0.5644  0.8758 -0.0550
 5435SOL    HW221506   1.652   3.891   2.941 -0.7674  0.6726  0.5264
 5435SOL    HW321507   1.569   3.948   2.828 -0.1668 -2.2357 -1.4890
 5435SOL    MW421508   1.574   3.912   2.907 -0.5387  0.4385 -0.1675
 5436SOL     OW21509   4.508   3.276   6.252 -0.6604 -0.1407  0.0431
 5436SOL    HW221510   4.474   3.273   6.341 -0.7968  1.6655  0.0934
 5436SOL    HW321511   4.571   3.349   6.252 -0.5382 -0.2055 -1.2922
 5436SOL    MW421512   4.512   3.285   6.263 -0.6622  0.0891 -0.1264
 5437SOL     OW21513   0.001   1.199   6.359 -0.2520 -0.3857  0.2422
 5437SOL    HW221514  -0.063   1.266   6.336 -1.3882 -1.2874  0.7354
 5437SOL    HW321515  -0.003   1.192   6.454 -1.1201 -2.0693  0.1176
 5437SOL    MW421516  -0.008   1.207   6.368 -0.5165 -0.7268  0.2908
 5438SOL     OW21517   4.483   1.301   3.209  0.3625  0.3902  0.1278
 5438SOL    HW221518   4.450   1.217   3.175  0.8752  0.1341  0.2473
 5438SOL    HW321519   4.572   1.280   3.240  0.2792  0.8524  0.6762
 5438SOL    MW421520   4.491   1.287   3.208  0.4192  0.4174  0.2160
 5439SOL     OW21521   1.982   5.496   1.343  0.5800 -0.0560  0.4222
 5439SOL    HW221522   1.931   5.422   1.309  0.8353  0.1016 -0.3304
 5439SOL    HW321523   2.043   5.457   1.405  1.9891 -0.7779 -1.3272
 5439SOL    MW421524   1.984   5.481   1.347  0.7996 -0.1304  0.0921
 5440SOL     OW21525   2.065   0.079   2.330  0.5255  0.3048 -0.2387
 5440SOL    HW221526   2.147   0.099   2.285 -0.1189  0.5194 -1.3540
 5440SOL    HW321527   2.025   0.164   2.347  0.3875  0.1882  0.0399
 5440SOL    MW421528   2.070   0.092   2.326  0.4223  0.3177 -0.3491
 5441SOL     OW21529   0.438   4.321   1.577 -0.0409  0.7730  0.2165
 5441SOL    HW221530   0.413   4.339   1.486  1.5523 -0.9590 -0.6204
 5441SOL    HW321531   0.532   4.336   1.580 -0.0821  0.8754  1.6191
 5441SOL    MW421532   0.447   4.325   1.565  0.1639  0.5580  0.2912
 5442SOL     OW21533   0.738   5.403   5.840 -0.2904 -0.0392 -0.3178
 5442SOL    HW221534   0.762   5.346   5.767 -1.3483 -1.1217  0.1408
 5442SOL    HW321535   0.814   5.399   5.899 -0.1914 -0.6754 -0.4766
 5442SOL    MW421536   0.752   5.395   5.838 -0.4169 -0.2660 -0.2782
 5443SOL     OW21537   2.825   3.973   1.053  0.5303  0.5453  0.1488
 5443SOL    HW221538   2.801   4.035   1.122 -0.7241  0.3325 -0.0680
 5443SOL    HW321539   2.917   3.952   1.070  0.2153  0.3724  1.8576
 5443SOL    MW421540   2.834   3.978   1.064  0.3232  0.4944  0.3457
 5444SOL     OW21541   1.172   1.295   5.024 -0.1726 -0.1530  0.0520
 5444SOL    HW221542   1.216   1.378   5.004  0.3804 -0.5282 -0.2864
 5444SOL    HW321543   1.179   1.287   5.119 -1.4782  0.8821  0.2730
 5444SOL    MW421544   1.179   1.305   5.034 -0.2719 -0.0660  0.0365
 5445SOL     OW21545   0.385   5.439   2.786  0.4208 -0.2328  0.3640
 5445SOL    HW221546   0.473   5.439   2.823  0.6641  1.6320 -0.1223
 5445SOL    HW321547   0.387   5.506   2.717 -1.1963 -0.6105 -0.1068
 5445SOL    MW421548   0.397   5.448   2.782  0.2395 -0.0366  0.2377
 5446SOL     OW21549   6.022   5.300   5.331 -0.2913  0.2153  0.2841
 5446SOL    HW221550   5.950   5.237   5.327  0.5613 -0.7410 -2.3632
 5446SOL    HW321551   6.101   5.245   5.339  0.2949  1.1158  0.8140
 5446SOL    MW421552   6.023   5.284   5.331 -0.1015  0.2079  0.0047
 5447SOL     OW21553   4.357   0.017   3.050 -0.3944 -0.4943 -0.2147
 5447SOL    HW221554   4.313   0.022   2.965  0.5069  0.4726 -0.6471
 5447SOL    HW321555   4.329   0.096   3.096  1.7143  0.7581 -0.9439
 5447SOL    MW421556   4.347   0.028   3.045  0.0028 -0.2015 -0.3680
 5448SOL     OW21557   0.154   1.292   3.438  0.0713 -0.8996 -0.0982
 5448SOL    HW221558   0.130   1.293   3.346 -0.7308 -1.5251  0.0854
 5448SOL    HW321559   0.200   1.209   3.450  0.4957 -0.6541 -0.0064
 5448SOL    MW421560   0.157   1.281   3.428  0.0215 -0.9498 -0.0618
 5449SOL     OW21561   3.050   1.764   6.314 -0.4790 -0.0771 -0.8371
 5449SOL    HW221562   3.019   1.854   6.319 -1.8287 -0.3446 -2.9815
 5449SOL    HW321563   3.116   1.765   6.244 -0.7329 -0.8039 -1.0949
 5449SOL    MW421564   3.055   1.776   6.305 -0.6906 -0.2083 -1.1540
 5450SOL     OW21565   0.383   0.191   2.094  0.2584 -0.1772  0.2216
 5450SOL    HW221566   0.341   0.220   2.013  1.3442  2.9088  0.6348
 5450SOL    HW321567   0.371   0.096   2.094 -3.3788  0.0943 -1.4807
 5450SOL    MW421568   0.376   0.182   2.083 -0.0782  0.2658  0.0515
 5451SOL     OW21569   4.813   1.833   2.061  0.4824  0.0917 -0.0946
 5451SOL    HW221570   4.824   1.759   2.002  0.0068  0.8087 -1.0961
 5451SOL    HW321571   4.823   1.795   2.149 -1.1582 -1.4235 -0.5157
 5451SOL    MW421572   4.816   1.818   2.065  0.2032 -0.0136 -0.2823
 5452SOL     OW21573   3.779   1.464   5.036 -0.0191  0.1531  0.1413
 5452SOL    HW221574   3.835   1.409   4.981  0.1584 -1.2576  1.6663
 5452SOL    HW321575   3.691   1.452   4.999  0.3160  0.4977 -0.7985
 5452SOL    MW421576   3.775   1.455   5.024  0.0485  0.0124  0.2185
 5453SOL     OW21577   4.088   0.336   4.060  0.1015  0.1543 -0.1035
 5453SOL    HW221578   4.123   0.277   3.994 -0.1953 -0.1850  0.0386
 5453SOL    HW321579   3.997   0.349   4.035  0.6692  2.2107 -1.3141
 5453SOL    MW421580   4.081   0.330   4.048  0.1372  0.3808 -0.2445
 5454SOL     OW21581   0.643   3.872   1.047  0.4263 -0.2248  0.6943
 5454SOL    HW221582   0.547   3.873   1.055  0.5543 -0.8733  3.2049
 5454SOL    HW321583   0.666   3.963   1.030 -0.6041  0.1194  1.0492
 5454SOL    MW421584   0.633   3.884   1.046  0.3072 -0.2649  1.0724
 5455SOL     OW21585   2.903   4.298   2.632  0.4060 -0.4114 -0.2401
 5455SOL    HW221586   2.981   4.352   2.645  0.8400 -1.3231  1.1995
 5455SOL    HW321587   2.898   4.285   2.537  1.5440  0.3324 -0.4146
 5455SOL    MW421588   2.913   4.303   2.621  0.6134 -0.4335 -0.0732
 5456SOL     OW21589   0.424   4.596   5.305  0.2199  0.3552 -0.0258
 5456SOL    HW221590   0.371   4.675   5.317  1.0540  1.0004 -0.4910
 5456SOL    HW321591   0.490   4.600   5.374  0.8536  0.5723 -0.6334
 5456SOL    MW421592   0.425   4.607   5.316  0.4136  0.4690 -0.1673
 5457SOL     OW21593   5.958   5.405   4.277 -0.6922 -0.1215  0.2932
 5457SOL    HW221594   6.024   5.472   4.259  0.1816 -1.1556 -0.4927
 5457SOL    HW321595   5.968   5.341   4.206 -2.6823 -0.2270  0.0352
 5457SOL    MW421596   5.968   5.405   4.265 -0.8395 -0.2719  0.1555
 5458SOL     OW21597   5.213   4.438   6.281  0.2204  0.0127  0.3072
 5458SOL    HW221598   5.196   4.501   6.350  1.2095 -0.0645  0.6416
 5458SOL    HW321599   5.128   4.396   6.264 -0.2203  0.6962  0.8023
 5458SOL    MW421600   5.199   4.440   6.288  0.2928  0.0927  0.4166
 5459SOL     OW21601   0.789   6.050   2.149 -0.0119 -0.3597 -0.1235
 5459SOL    HW221602   0.743   6.133   2.141  0.5202 -0.1157 -0.7381
 5459SOL    HW321603   0.727   5.992   2.194  0.5223  1.0485  2.6386
 5459SOL    MW421604   0.775   6.053   2.154  0.1288 -0.1417  0.1599
 5460SOL     OW21605   4.641   5.240   1.013  0.0857 -0.3884  0.5610
 5460SOL    HW221606   4.658   5.334   1.014  1.2128 -0.5719  0.0473
 5460SOL    HW321607   4.707   5.202   1.072 -0.6720 -0.8148  1.1525
 5460SOL    MW421608   4.652   5.247   1.020  0.1345 -0.4689  0.5713
 5461SOL     OW21609   1.128   4.482   3.312  0.5275 -0.1730 -0.2968
 5461SOL    HW221610   1.059   4.420   3.290  0.8770 -0.8727  0.5287
 5461SOL    HW321611   1.192   4.473   3.242  1.3999 -2.0294  0.6693
 5461SOL    MW421612   1.127   4.473   3.300  0.6887 -0.5103 -0.0604
 5462SOL     OW21613   1.140   5.424   0.034  0.7427  0.1711 -0.2173
 5462SOL    HW221614   1.114   5.421   0.126 -0.6053  0.0876 -0.5751
 5462SOL    HW321615   1.187   5.506   0.024 -2.1874  1.9778 -0.1896
 5462SOL    MW421616   1.143   5.434   0.045  0.1783  0.3985 -0.2609
 5463SOL     OW21617   1.028   1.509   2.197  0.3394  0.1788 -0.4559
 5463SOL    HW221618   1.101   1.559   2.233  1.0965 -0.0381 -1.6521
 5463SOL    HW321619   1.057   1.483   2.110 -0.7394 -0.8441 -0.5333
 5463SOL    MW421620   1.041   1.512   2.191  0.2969  0.0152 -0.6239
 5464SOL     OW21621   4.336   2.143   0.734 -0.0716 -0.0686 -0.0808
 5464SOL    HW221622   4.417   2.190   0.754  1.2976 -2.0332 -0.7281
 5464SOL    HW321623   4.280   2.158   0.810  0.7841  1.4957  0.2860
 5464SOL    MW421624   4.339   2.151   0.747  0.2219 -0.1214 -0.1179
 5465SOL     OW21625   0.276   2.440   2.837 -0.1564 -0.1162  0.0798
 5465SOL    HW221626   0.313   2.356   2.865  0.2205 -0.9003 -2.5510
 5465SOL    HW321627   0.187   2.419   2.809  0.0395  0.2929 -0.8721
 5465SOL    MW421628   0.269   2.426   2.837 -0.0809 -0.1657 -0.3929
 5466SOL     OW21629   2.494   0.548   5.708  0.3141  0.1484  0.1577
 5466SOL    HW221630   2.409   0.590   5.698  0.2276  0.2910  1.3163
 5466SOL    HW321631   2.557   0.620   5.710  0.2603  0.1868  1.1741
 5466SOL    MW421632   2.491   0.563   5.707  0.2956  0.1723  0.4447
 5467SOL     OW21633   1.196   5.497   3.910 -0.7649 -0.2102  0.0436
 5467SOL    HW221634   1.271   5.438   3.916 -0.6042 -0.0976 -0.7892
 5467SOL    HW321635   1.234   5.582   3.889 -0.9953  0.2100  1.2349
 5467SOL    MW421636   1.211   5.500   3.908 -0.7741 -0.1399  0.0909
 5468SOL     OW21637   2.665   4.091   2.546  0.2590 -0.2365  0.2412
 5468SOL    HW221638   2.573   4.091   2.571  0.7173 -1.7222  2.1464
 5468SOL    HW321639   2.704   4.161   2.600  0.6333 -1.1455  1.1766
 5468SOL    MW421640   2.658   4.100   2.556  0.3689 -0.5525  0.6160
 5469SOL     OW21641   5.929   2.785   4.907  0.3125 -0.6985 -0.2708
 5469SOL    HW221642   5.996   2.850   4.930 -0.5568  0.3935 -0.7334
 5469SOL    HW321643   5.945   2.712   4.967  2.1612 -0.6369 -0.6268
 5469SOL    MW421644   5.940   2.784   4.918  0.4417 -0.5463 -0.3788
 5470SOL     OW21645   2.363   1.092   6.021 -0.0802  0.1429  0.5429
 5470SOL    HW221646   2.270   1.072   6.008  0.0801 -0.9368  0.9455
 5470SOL    HW321647   2.406   1.062   5.941 -0.1855  1.5807 -0.0821
 5470SOL    MW421648   2.356   1.085   6.009 -0.0730  0.1901  0.5136
 5471SOL     OW21649   4.311   4.743   0.299  0.5023  0.1696 -0.1999
 5471SOL    HW221650   4.301   4.832   0.264  0.3425 -0.3363 -1.4981
 5471SOL    HW321651   4.398   4.716   0.271  1.0494  0.3317  1.2353
 5471SOL    MW421652   4.321   4.751   0.291  0.5534  0.1242 -0.1818
 5472SOL     OW21653   3.029   0.985   2.646  0.0335 -0.0880 -0.6807
 5472SOL    HW221654   2.949   1.034   2.659 -0.6233 -1.2378 -0.2085
 5472SOL    HW321655   3.006   0.915   2.584 -0.2015 -2.2388  1.6562
 5472SOL    MW421656   3.016   0.982   2.640 -0.0841 -0.5235 -0.3101
 5473SOL     OW21657   5.875   1.701   2.441  0.6215  0.7105  0.7061
 5473SOL    HW221658   5.785   1.677   2.465  0.8209 -2.4990 -1.1647
 5473SOL    HW321659   5.869   1.724   2.349  1.6302  1.0786  0.7267
 5473SOL    MW421660   5.862   1.700   2.432  0.7809  0.3356  0.4620
 5474SOL     OW21661   1.826   4.069   6.411 -0.4257  0.0805  0.3821
 5474SOL    HW221662   1.912   4.098   6.441 -0.8201  0.5517  1.1095
 5474SOL    HW321663   1.766   4.137   6.441 -1.4391 -1.5562  2.4069
 5474SOL    MW421664   1.829   4.082   6.419 -0.6115 -0.0733  0.7452
 5475SOL     OW21665   5.661   3.967   5.916 -0.0802  0.2867 -0.0159
 5475SOL    HW221666   5.567   3.981   5.901 -0.8154 -1.2098  2.5187
 5475SOL    HW321667   5.665   3.888   5.970  2.6060  0.7177  0.5579
 5475SOL    MW421668   5.649   3.959   5.921  0.1772  0.1461  0.3943
 5476SOL     OW21669   2.835   3.659   0.799  0.1990  0.2845 -0.3749
 5476SOL    HW221670   2.771   3.598   0.761  1.3878 -1.0234 -0.3440
 5476SOL    HW321671   2.829   3.643   0.894 -0.2037  0.9603 -0.2801
 5476SOL    MW421672   2.825   3.648   0.807  0.3027  0.2011 -0.3583
 5477SOL     OW21673   5.081   2.098   4.805 -0.1053  0.0212 -0.3441
 5477SOL    HW221674   5.078   2.167   4.872  2.1602  0.4862 -0.6325
 5477SOL    HW321675   5.043   2.138   4.727  0.0328  0.5297 -0.1542
 5477SOL    MW421676   5.076   2.112   4.804  0.2118  0.1497 -0.3571
 5478SOL     OW21677   1.057   2.712   1.650 -0.3532 -0.2932 -0.2933
 5478SOL    HW221678   1.049   2.640   1.587 -0.0655 -0.7736  0.2097
 5478SOL    HW321679   1.109   2.675   1.722  1.0451  0.8431 -0.6809
 5478SOL    MW421680   1.063   2.697   1.651 -0.1307 -0.2067 -0.2781
 5479SOL     OW21681   3.807   5.200   4.988  0.3655  1.0475 -0.4625
 5479SOL    HW221682   3.899   5.224   4.982  0.3108  1.1320 -1.0494
 5479SOL    HW321683   3.760   5.280   4.962  0.1173  1.0825  0.0721
 5479SOL    MW421684   3.813   5.214   4.984  0.3255  1.0633 -0.4694
 5480SOL     OW21685   3.058   3.140   3.367  0.2936  0.0527  0.0127
 5480SOL    HW221686   3.115   3.074   3.327  2.3430  1.5720  0.2703
 5480SOL    HW321687   3.053   3.114   3.459 -1.4732 -1.4285 -0.4551
 5480SOL    MW421688   3.065   3.128   3.374  0.3309  0.0577 -0.0150
 5481SOL     OW21689   4.413   6.417   3.666 -0.5612  0.3051  0.5056
 5481SOL    HW221690   4.478   6.354   3.697 -0.2694  0.3398 -0.0393
 5481SOL    HW321691   4.330   6.369   3.669 -0.3620 -0.0565  0.2288
 5481SOL    MW421692   4.410   6.403   3.671 -0.4964  0.2619  0.3972
 5482SOL     OW21693   4.033   1.634   5.854 -0.3797 -0.0052 -0.1941
 5482SOL    HW221694   3.955   1.655   5.906  0.0368 -1.6567  1.1751
 5482SOL    HW321695   4.053   1.543   5.875  1.6466  0.2159 -0.8877
 5482SOL    MW421696   4.025   1.625   5.863 -0.0574 -0.1939 -0.1049
 5483SOL     OW21697   3.339   0.403   5.933 -0.5756  0.2203  0.3060
 5483SOL    HW221698   3.278   0.454   5.880 -0.4917  0.7423  0.7022
 5483SOL    HW321699   3.420   0.401   5.882 -0.3471  1.1218  0.6207
 5483SOL    MW421700   3.342   0.410   5.919 -0.5344  0.4081  0.3998
 5484SOL     OW21701   1.580   0.263   2.658  0.5746 -0.3211  0.2445
 5484SOL    HW221702   1.524   0.257   2.736  2.1985 -0.3578  1.4687
 5484SOL    HW321703   1.667   0.239   2.690  1.8241  2.1974 -1.0153
 5484SOL    MW421704   1.584   0.259   2.673  0.9537  0.0064  0.2398
 5485SOL     OW21705   0.029   1.543   5.406 -0.7422 -0.2186 -0.1010
 5485SOL    HW221706   0.072   1.625   5.428  0.7519 -1.4767  2.0686
 5485SOL    HW321707  -0.050   1.568   5.359 -1.4125  2.5314  2.2814
 5485SOL    MW421708   0.024   1.557   5.402 -0.6335 -0.0217  0.4996
 5486SOL     OW21709   1.479   0.342   1.537  0.0785 -0.6157  0.5882
 5486SOL    HW221710   1.448   0.258   1.505  0.6359 -0.7364  0.3496
 5486SOL    HW321711   1.559   0.322   1.584  1.6872  0.0262 -1.6898
 5486SOL    MW421712   1.485   0.329   1.539  0.3643 -0.5469  0.2562
 5487SOL     OW21713   4.058   6.250   4.311 -0.6861 -0.0686 -0.0787
 5487SOL    HW221714   4.027   6.226   4.224  0.1031  1.5110 -0.8195
 5487SOL    HW321715   4.080   6.343   4.305 -1.3412  0.2734  2.0219
 5487SOL    MW421716   4.057   6.259   4.299 -0.6684  0.1849  0.1007
 5488SOL     OW21717   4.532   5.612   0.298  0.1906 -0.4132 -0.0804
 5488SOL    HW221718   4.491   5.561   0.368 -0.6061 -0.6750 -0.7231
 5488SOL    HW321719   4.478   5.595   0.221  0.1914  1.0173 -0.4299
 5488SOL    MW421720   4.520   5.603   0.297  0.0856 -0.2590 -0.2113
 5489SOL     OW21721   1.344   4.366   3.112 -0.3378 -0.3260 -0.2127
 5489SOL    HW221722   1.418   4.319   3.073 -0.0024  0.6402 -0.7869
 5489SOL    HW321723   1.290   4.392   3.036 -2.0374 -2.1858  0.2478
 5489SOL    MW421724   1.346   4.363   3.097 -0.5178 -0.4439 -0.2277
 5490SOL     OW21725   0.883   0.353   4.368 -0.3016  0.3912 -0.4505
 5490SOL    HW221726   0.798   0.392   4.388 -0.3713  0.7514 -1.3968
 5490SOL    HW321727   0.942   0.428   4.359 -0.1459  0.2110 -0.9683
 5490SOL    MW421728   0.879   0.368   4.369 -0.2902  0.4150 -0.6437
 5491SOL     OW21729   4.593   5.042   0.488 -0.2424  0.1731 -0.0249
 5491SOL    HW221730   4.579   5.106   0.558 -0.1363 -0.2886  0.4289
 5491SOL    HW321731   4.604   4.958   0.534  0.6484 -0.0108 -0.5450
 5491SOL    MW421732   4.593   5.039   0.503 -0.1109  0.0880 -0.0337
 5492SOL     OW21733   5.449   0.085   4.255 -0.3170 -0.2011  0.1925
 5492SOL    HW221734   5.516   0.140   4.295 -0.0667 -1.4541  1.5817
 5492SOL    HW321735   5.390   0.062   4.327 -1.0239 -0.8766 -0.5727
 5492SOL    MW421736   5.450   0.090   4.270 -0.3773 -0.4555  0.2748
 5493SOL     OW21737   5.748   5.361   1.234 -0.1404 -0.2723  0.2310
 5493SOL    HW221738   5.705   5.435   1.191 -0.9993 -1.0284 -0.2533
 5493SOL    HW321739   5.794   5.400   1.308 -0.5177  0.7558 -0.0585
 5493SOL    MW421740   5.748   5.376   1.238 -0.3035 -0.2364  0.1289
 5494SOL     OW21741   4.446   1.879   4.998  0.3308  0.5189 -0.2206
 5494SOL    HW221742   4.354   1.893   4.979  0.3269 -0.0007 -0.6028
 5494SOL    HW321743   4.482   1.967   5.010 -0.3569  0.6911  0.6494
 5494SOL    MW421744   4.439   1.892   4.997  0.2395  0.4730 -0.1562
 5495SOL     OW21745   2.016   2.502   6.236 -0.2450  0.2594 -0.1566
 5495SOL    HW221746   2.052   2.554   6.308 -1.7674  1.5575 -0.2722
 5495SOL    HW321747   1.922   2.501   6.253 -0.2848 -2.7353 -0.0397
 5495SOL    MW421748   2.008   2.509   6.248 -0.4511  0.0356 -0.1565
 5496SOL     OW21749   5.614   1.174   1.136  0.0410  0.2129  0.1146
 5496SOL    HW221750   5.689   1.208   1.087  1.2903 -0.5215  1.4075
 5496SOL    HW321751   5.545   1.239   1.124  0.9333  0.9898 -1.0071
 5496SOL    MW421752   5.615   1.187   1.128  0.3236  0.2185  0.1372
 5497SOL     OW21753   2.831   3.514   3.529  0.0994 -0.0282  0.5057
 5497SOL    HW221754   2.865   3.426   3.549  1.7157  0.1471 -1.1123
 5497SOL    HW321755   2.874   3.571   3.592 -0.8408 -0.3607  1.4672
 5497SOL    MW421756   2.842   3.510   3.540  0.1886 -0.0489  0.4191
 5498SOL     OW21757   5.875   2.793   4.619  0.0831 -0.0613  0.4173
 5498SOL    HW221758   5.790   2.750   4.620  0.7165 -1.4584 -1.2350
 5498SOL    HW321759   5.903   2.794   4.711 -1.3073 -0.3969  0.8602
 5498SOL    MW421760   5.868   2.787   4.631 -0.0168 -0.2899  0.2577
 5499SOL     OW21761   5.887   3.368   6.134  0.0889 -0.5847  0.2747
 5499SOL    HW221762   5.794   3.390   6.131  0.2507  0.4803  1.9689
 5499SOL    HW321763   5.926   3.419   6.062 -0.5736 -0.8056 -0.2511
 5499SOL    MW421764   5.880   3.378   6.124  0.0228 -0.4733  0.4288
 5500SOL     OW21765   1.761   0.591   6.274  0.0082  0.0437 -0.0031
 5500SOL    HW221766   1.747   0.685   6.260  1.7734  0.1260 -1.5224
 5500SOL    HW321767   1.728   0.575   6.363 -0.3141  2.0950  0.2938
 5500SOL    MW421768   1.755   0.602   6.284  0.1985  0.3252 -0.1644
 5501SOL     OW21769   0.121   0.503   5.778  0.0440  0.5009  0.0464
 5501SOL    HW221770   0.109   0.501   5.873 -0.0303 -0.3375  0.0329
 5501SOL    HW321771   0.036   0.477   5.742  0.3833 -0.3349 -0.2028
 5501SOL    MW421772   0.109   0.499   5.786  0.0790  0.2800  0.0118
 5502SOL     OW21773   0.761   2.392   4.439  0.2553  0.5070 -0.0562
 5502SOL    HW221774   0.678   2.386   4.486  1.0906 -4.3481  1.2859
 5502SOL    HW321775   0.821   2.434   4.501  0.3097 -2.0900  1.8147
 5502SOL    MW421776   0.758   2.397   4.453  0.3727 -0.4762  0.3677
 5503SOL     OW21777   0.662   1.681   5.626  0.1328  0.2890 -0.1593
 5503SOL    HW221778   0.640   1.765   5.667 -1.8912 -0.1144 -0.3074
 5503SOL    HW321779   0.579   1.648   5.592  0.9519 -1.5788 -0.5007
 5503SOL    MW421780   0.648   1.688   5.627 -0.0261 -0.0106 -0.2239
 5504SOL     OW21781   0.809   1.824   3.117  0.1256 -0.0536  0.7958
 5504SOL    HW221782   0.750   1.759   3.155 -0.7827  1.3902  1.9913
 5504SOL    HW321783   0.753   1.877   3.060  0.6885  0.1385  0.4129
 5504SOL    MW421784   0.793   1.822   3.114  0.0800  0.1622  0.9030
 5505SOL     OW21785   4.137   3.619   0.007 -0.1086  0.8878  0.2673
 5505SOL    HW221786   4.165   3.532  -0.023  1.3400  1.9086 -1.5428
 5505SOL    HW321787   4.041   3.615   0.005 -0.0672 -0.6063  0.0332
 5505SOL    MW421788   4.128   3.607   0.003  0.0880  0.8254 -0.0024
 5506SOL     OW21789   5.988   2.289   6.272  0.0314  0.0939  0.9103
 5506SOL    HW221790   5.939   2.221   6.319  0.1895 -0.3780  0.3997
 5506SOL    HW321791   6.076   2.284   6.308  0.6036 -1.4113 -0.5691
 5506SOL    MW421792   5.993   2.279   6.283  0.1277 -0.1669  0.6477
 5507SOL     OW21793   2.018   0.187   1.742  0.0451 -0.4052  0.2574
 5507SOL    HW221794   1.967   0.264   1.719  0.9742  0.5744  1.4036
 5507SOL    HW321795   2.057   0.160   1.659 -1.8185 -0.8517 -0.5407
 5507SOL    MW421796   2.016   0.193   1.728 -0.0782 -0.3349  0.3033
 5508SOL     OW21797   6.070   2.006   4.086  0.0959  0.3603 -0.1960
 5508SOL    HW221798   6.034   2.088   4.118 -1.2547 -0.0578 -0.5959
 5508SOL    HW321799   6.098   2.026   3.996 -2.0308 -0.0612 -1.0112
 5508SOL    MW421800   6.069   2.019   4.078 -0.3629  0.2495 -0.3563
 5509SOL     OW21801   2.043   4.735   5.915 -0.2532  0.0164  0.1642
 5509SOL    HW221802   2.063   4.822   5.881  0.2471  0.1920  0.8849
 5509SOL    HW321803   2.011   4.687   5.839  0.2211  0.5892 -0.4160
 5509SOL    MW421804   2.042   4.740   5.901 -0.1246  0.1151  0.1828
 5510SOL     OW21805   6.127   2.040   5.443 -0.1978 -0.2112 -0.1737
 5510SOL    HW221806   6.155   2.068   5.530 -0.9258 -1.7882  0.6227
 5510SOL    HW321807   6.080   1.958   5.458 -2.7728  0.8394 -1.7387
 5510SOL    MW421808   6.125   2.032   5.456 -0.6336 -0.2807 -0.2751
 5511SOL     OW21809   2.169   0.632   0.272  0.0730 -0.0478  0.4005
 5511SOL    HW221810   2.156   0.700   0.338  0.6671 -0.6274  1.1342
 5511SOL    HW321811   2.164   0.679   0.189 -1.1254  0.6222  0.8282
 5511SOL    MW421812   2.167   0.648   0.270 -0.0067 -0.0359  0.5537
 5512SOL     OW21813   3.225   1.376   5.306 -0.0045 -0.1725  0.3154
 5512SOL    HW221814   3.297   1.314   5.287 -0.3274 -0.7351  0.9057
 5512SOL    HW321815   3.146   1.321   5.305 -0.7863  0.8004 -2.7591
 5512SOL    MW421816   3.224   1.360   5.303 -0.1502 -0.1184 -0.0124
 5513SOL     OW21817   3.779   6.317   5.640 -0.3072  0.1409 -0.8013
 5513SOL    HW221818   3.871   6.308   5.616  0.1503  1.5906  0.3013
 5513SOL    HW321819   3.732   6.303   5.559  0.9788  1.0993 -1.7566
 5513SOL    MW421820   3.785   6.314   5.626 -0.0772  0.4587 -0.7819
 5514SOL     OW21821   0.388   2.101   6.233 -0.2859 -0.1809 -0.4072
 5514SOL    HW221822   0.471   2.139   6.263 -1.0231  1.3294 -0.1300
 5514SOL    HW321823   0.347   2.068   6.313 -0.4380  0.1131 -0.3600
 5514SOL    MW421824   0.394   2.102   6.248 -0.4032  0.0571 -0.3644
 5515SOL     OW21825   3.324   4.681   5.347 -0.0560 -0.0046 -0.4191
 5515SOL    HW221826   3.320   4.773   5.372 -1.4470 -0.4142  1.0656
 5515SOL    HW321827   3.362   4.681   5.260  0.0319  1.9649 -0.4205
 5515SOL    MW421828   3.329   4.693   5.339 -0.2279  0.2012 -0.2234
 5516SOL     OW21829   2.298   4.717   1.034  0.0769  0.3279  0.4158
 5516SOL    HW221830   2.298   4.628   1.068 -1.8445  0.2296  0.2397
 5516SOL    HW321831   2.384   4.727   0.993  0.8090 -0.9778  1.5672
 5516SOL    MW421832   2.310   4.707   1.033 -0.0800  0.1427  0.5445
 5517SOL     OW21833   1.193   4.685   2.979 -0.7304 -0.4734  0.0970
 5517SOL    HW221834   1.107   4.706   2.942 -1.2662 -2.2823  0.2573
 5517SOL    HW321835   1.229   4.771   3.002 -2.4559  0.3477 -0.0237
 5517SOL    MW421836   1.186   4.699   2.977 -1.0287 -0.6037  0.1022
 5518SOL     OW21837   2.003   2.204   0.068 -0.0134 -0.2502 -0.2291
 5518SOL    HW221838   2.059   2.171  -0.003 -0.8024 -1.0632 -0.4945
 5518SOL    HW321839   2.052   2.278   0.105  1.8323 -1.7138  0.4003
 5518SOL    MW421840   2.017   2.210   0.063  0.1260 -0.5506 -0.1811
 5519SOL     OW21841   3.365   3.569   4.321 -0.6943  0.2626  0.4897
 5519SOL    HW221842   3.401   3.552   4.408 -1.3508 -1.4378  0.4653
 5519SOL    HW321843   3.440   3.566   4.262 -0.5133 -0.5427  0.7635
 5519SOL    MW421844   3.379   3.567   4.324 -0.7570 -0.0680  0.5226
 5520SOL     OW21845   0.283   1.058   3.498 -0.3939 -0.4551 -0.2895
 5520SOL    HW221846   0.319   1.092   3.580 -0.3846  0.7268 -0.7593
 5520SOL    HW321847   0.233   0.981   3.524 -1.9690  0.9548  1.1393
 5520SOL    MW421848   0.281   1.053   3.512 -0.6005 -0.1132 -0.1630
 5521SOL     OW21849   3.538   0.235   4.421 -0.7289 -0.2500  0.2566
 5521SOL    HW221850   3.444   0.243   4.434 -0.9675 -0.7863 -0.9715
 5521SOL    HW321851   3.557   0.143   4.443 -0.4214 -0.0572  0.8301
 5521SOL    MW421852   3.528   0.224   4.426 -0.7198 -0.2953  0.1702
 5522SOL     OW21853   2.438   4.819   3.522 -0.0004  0.1538 -0.3182
 5522SOL    HW221854   2.393   4.757   3.465  1.2451 -0.5672 -0.5592
 5522SOL    HW321855   2.513   4.770   3.557  0.0237  0.9898  0.8873
 5522SOL    MW421856   2.442   4.804   3.519  0.1671  0.1690 -0.1909
 5523SOL     OW21857   2.849   4.025   5.602 -0.0398  0.0834 -0.0537
 5523SOL    HW221858   2.888   4.094   5.549  0.1383 -1.3418 -1.8891
 5523SOL    HW321859   2.922   3.984   5.647  0.3783 -1.1568 -1.7638
 5523SOL    MW421860   2.864   4.029   5.601  0.0389 -0.2683 -0.5215
 5524SOL     OW21861   0.848   0.247   1.516 -0.1141  0.3545 -0.8382
 5524SOL    HW221862   0.929   0.216   1.556 -0.2439 -0.3926 -1.1345
 5524SOL    HW321863   0.799   0.286   1.588 -0.4724 -1.2277 -0.1956
 5524SOL    MW421864   0.852   0.248   1.531 -0.1785  0.0472 -0.7925
 5525SOL     OW21865   6.051   0.908   0.943  0.5092  0.0512 -0.3142
 5525SOL    HW221866   5.966   0.878   0.977  0.0869  1.5140 -0.0036
 5525SOL    HW321867   6.089   0.830   0.903 -0.5871 -0.8562  0.3266
 5525SOL    MW421868   6.045   0.894   0.943  0.3088  0.1245 -0.1887
 5526SOL     OW21869   2.032   4.962   3.876  0.1173 -0.5139  0.1612
 5526SOL    HW221870   2.040   5.030   3.943 -1.3991 -2.5529  2.6190
 5526SOL    HW321871   2.052   4.881   3.923 -1.1285 -2.0723 -1.8423
 5526SOL    MW421872   2.036   4.960   3.891 -0.2472 -0.9885  0.2212
 5527SOL     OW21873   4.107   2.718   1.757  0.3477 -0.1290  0.1171
 5527SOL    HW221874   4.174   2.764   1.806  0.7090 -1.2109  0.6664
 5527SOL    HW321875   4.129   2.734   1.665  1.1402 -0.1882  0.2978
 5527SOL    MW421876   4.118   2.726   1.751  0.4999 -0.2796  0.2134
 5528SOL     OW21877   4.055   5.491   2.020  0.1695  0.9161  0.6305
 5528SOL    HW221878   4.007   5.559   2.067 -2.2858 -0.4084  0.2334
 5528SOL    HW321879   4.107   5.447   2.087  0.8648  2.4031  1.0942
 5528SOL    MW421880   4.055   5.494   2.035 -0.0627  0.9375  0.6393
 5529SOL     OW21881   4.507   5.096   0.221 -0.2168  0.3041 -0.2834
 5529SOL    HW221882   4.537   5.022   0.169 -0.5007  0.5173 -0.7633
 5529SOL    HW321883   4.548   5.084   0.307  2.6548  1.4820 -1.3700
 5529SOL    MW421884   4.516   5.085   0.225  0.1246  0.4876 -0.4901
 5530SOL     OW21885   5.712   0.321   3.917 -0.1558 -0.1024  0.2096
 5530SOL    HW221886   5.729   0.388   3.851 -0.5990 -0.2034 -0.0065
 5530SOL    HW321887   5.738   0.238   3.875 -0.5287 -0.1773  0.1263
 5530SOL    MW421888   5.718   0.319   3.903 -0.2635 -0.1256  0.1701
 5531SOL     OW21889   5.620   3.514   5.392 -0.1246  0.1550 -0.4686
 5531SOL    HW221890   5.627   3.606   5.365 -0.9087 -0.2976 -2.3751
 5531SOL    HW321891   5.701   3.474   5.363 -0.1556  0.0604 -0.4250
 5531SOL    MW421892   5.631   3.521   5.384 -0.2321  0.0828 -0.7144
 5532SOL     OW21893   5.897   4.872   6.186  0.3636  0.3582  0.0020
 5532SOL    HW221894   5.951   4.885   6.264  0.7388  0.5652 -0.2888
 5532SOL    HW321895   5.899   4.777   6.171 -1.8765 -0.0298  1.7713
 5532SOL    MW421896   5.905   4.861   6.194  0.1175  0.3344  0.1971
 5533SOL     OW21897   6.388   1.901   1.222 -0.3146  0.1220  0.6396
 5533SOL    HW221898   6.347   1.958   1.288 -2.0449 -1.4214  0.9703
 5533SOL    HW321899   6.388   1.954   1.142 -2.4455  0.4248  0.7868
 5533SOL    MW421900   6.383   1.916   1.220 -0.8241 -0.0417  0.7026
 5534SOL     OW21901   5.237   1.724   0.105  0.0341  0.1868  0.2955
 5534SOL    HW221902   5.245   1.724   0.009  2.2177  0.7211  0.4233
 5534SOL    HW321903   5.204   1.811   0.126 -2.2940 -0.5368 -0.0099
 5534SOL    MW421904   5.233   1.735   0.095  0.0150  0.1619  0.2720
 5535SOL     OW21905   5.338   2.481   1.548 -0.2915 -0.0643 -0.3072
 5535SOL    HW221906   5.269   2.536   1.585 -0.0496 -0.6902  1.1416
 5535SOL    HW321907   5.313   2.391   1.572  0.9217 -0.3153  0.0886
 5535SOL    MW421908   5.326   2.476   1.556 -0.0995 -0.1800 -0.0639
 5536SOL     OW21909   2.345   4.905   2.345  0.1615  0.0355 -0.3322
 5536SOL    HW221910   2.378   4.906   2.255  0.7934 -1.3940 -0.1474
 5536SOL    HW321911   2.355   4.814   2.373 -2.2187 -0.0754  0.4044
 5536SOL    MW421912   2.351   4.893   2.337 -0.0692 -0.1677 -0.2107
 5537SOL     OW21913   1.580   5.945   0.988  0.1541  0.2053 -0.6397
 5537SOL    HW221914   1.602   5.939   0.895 -0.6319 -0.5624 -0.7910
 5537SOL    HW321915   1.651   5.899   1.032  0.1084 -0.1548 -0.9321
 5537SOL    MW421916   1.592   5.938   0.981  0.0444  0.0565 -0.6982
 5538SOL     OW21917   5.064   5.236   1.320  0.0296  0.0874  0.5249
 5538SOL    HW221918   5.060   5.331   1.314 -0.9797  0.1927  2.2072
 5538SOL    HW321919   5.102   5.219   1.406  0.0257 -1.0223  0.3177
 5538SOL    MW421920   5.069   5.246   1.330 -0.1040 -0.0451  0.7195
 5539SOL     OW21921   4.870   1.648   1.873 -0.7808 -0.2723 -0.7374
 5539SOL    HW221922   4.963   1.671   1.866 -1.0698  0.7378 -1.5271
 5539SOL    HW321923   4.838   1.651   1.783 -1.7897  0.3126 -0.3750
 5539SOL    MW421924   4.878   1.651   1.860 -0.9520 -0.0619 -0.7938
 5540SOL     OW21925   4.288   5.866   1.544  1.1409 -0.0473  0.5817
 5540SOL    HW221926   4.326   5.954   1.535 -1.4473  1.0213 -1.1501
 5540SOL    HW321927   4.315   5.820   1.464  0.1663  0.1864  0.1034
 5540SOL    MW421928   4.297   5.872   1.532  0.6709  0.1246  0.2901
 5541SOL     OW21929   1.939   0.947   1.328  0.4607 -0.2496  1.0066
 5541SOL    HW221930   1.857   0.948   1.379  1.0848  0.4901  2.0484
 5541SOL    HW321931   1.963   0.855   1.322 -0.0858 -0.4146  1.3043
 5541SOL    MW421932   1.931   0.935   1.334  0.4709 -0.1738  1.1834
 5542SOL     OW21933   4.316   0.681   2.559  0.3721 -0.0445  0.1586
 5542SOL    HW221934   4.235   0.665   2.510 -0.7791  1.2806  1.5220
 5542SOL    HW321935   4.375   0.719   2.495  0.2326 -1.7942 -1.0613
 5542SOL    MW421936   4.313   0.684   2.544  0.2018 -0.1005  0.1775
 5543SOL     OW21937   2.866   4.902   5.546 -0.3285 -0.7554  0.8908
 5543SOL    HW221938   2.872   4.893   5.451 -0.8164 -0.2699  0.8086
 5543SOL    HW321939   2.861   4.812   5.578 -1.6117 -0.9029  0.3421
 5543SOL    MW421940   2.866   4.889   5.538 -0.5622 -0.7108  0.8076
 5544SOL     OW21941   5.277   4.972   0.368 -0.2229 -0.2823 -0.6458
 5544SOL    HW221942   5.283   4.917   0.446  3.0527  1.3287  0.4129
 5544SOL    HW321943   5.205   5.032   0.387 -1.1380 -1.5112 -0.0513
 5544SOL    MW421944   5.268   4.973   0.381  0.0886 -0.2319 -0.4277
 5545SOL     OW21945   2.767   4.594   3.872  0.8418 -0.3040  0.0610
 5545SOL    HW221946   2.777   4.666   3.934  2.1937 -0.4780  0.0622
 5545SOL    HW321947   2.738   4.635   3.791 -0.4515 -0.0191  0.6383
 5545SOL    MW421948   2.764   4.609   3.870  0.8495 -0.2894  0.1373
 5546SOL     OW21949   1.433   0.865   2.172  0.1232  0.8325  0.1699
 5546SOL    HW221950   1.391   0.814   2.241 -0.6565  1.1119 -0.0818
 5546SOL    HW321951   1.524   0.838   2.174 -0.3982 -1.1885 -0.4773
 5546SOL    MW421952   1.439   0.855   2.181 -0.0485  0.6027  0.0513
 5547SOL     OW21953   3.180   5.096   4.353  0.0543 -0.5682  0.2380
 5547SOL    HW221954   3.200   5.004   4.337  1.4556 -0.6150  1.9530
 5547SOL    HW321955   3.134   5.097   4.437  1.9090  0.4403  1.2922
 5547SOL    MW421956   3.176   5.084   4.362  0.4839 -0.4413  0.6033
 5548SOL     OW21957   3.664   1.521   3.196 -0.4857 -0.1321 -0.0383
 5548SOL    HW221958   3.711   1.506   3.114  0.0219 -1.7952  0.5146
 5548SOL    HW321959   3.671   1.438   3.243 -1.3991  0.5552  1.3792
 5548SOL    MW421960   3.671   1.508   3.191 -0.5392 -0.2609  0.2217
 5549SOL     OW21961   2.909   5.590   5.779 -0.2385  0.6409 -0.2946
 5549SOL    HW221962   2.882   5.613   5.690 -1.4999  0.4400  0.0191
 5549SOL    HW321963   2.868   5.505   5.796  0.8272  0.1824  0.1286
 5549SOL    MW421964   2.900   5.582   5.769 -0.2643  0.5539 -0.1974
 5550SOL     OW21965   0.750   0.192   5.529  0.1991 -0.2699  0.3245
 5550SOL    HW221966   0.657   0.192   5.507  0.3731 -0.0753 -0.4413
 5550SOL    HW321967   0.791   0.136   5.463  0.7628  0.4652  0.0340
 5550SOL    MW421968   0.743   0.185   5.517  0.2964 -0.1473  0.1852
 5551SOL     OW21969   1.093   3.034   5.658  0.0032  0.1988 -0.3072
 5551SOL    HW221970   1.116   2.944   5.679  0.0095  0.2538 -0.0727
 5551SOL    HW321971   1.018   3.027   5.600  0.5019  0.0197 -0.9417
 5551SOL    MW421972   1.086   3.021   5.653  0.0698  0.1824 -0.3600
 5552SOL     OW21973   1.327   5.498   5.749 -0.0412  0.0866  0.0458
 5552SOL    HW221974   1.238   5.477   5.721  0.4995  0.7094 -2.3921
 5552SOL    HW321975   1.362   5.416   5.784 -1.3395 -0.3120  0.4659
 5552SOL    MW421976   1.320   5.484   5.750 -0.1412  0.1162 -0.2204
 5553SOL     OW21977   3.160   2.865   5.865  0.8559 -0.1045 -0.0006
 5553SOL    HW221978   3.165   2.770   5.874  3.8344  0.0417  1.1035
 5553SOL    HW321979   3.180   2.881   5.772  1.4519 -0.5554  0.0424
 5553SOL    MW421980   3.163   2.855   5.854  1.3275 -0.1447  0.1507
 5554SOL     OW21981   4.824   5.397   3.561 -0.2537 -0.0263  0.0343
 5554SOL    HW221982   4.826   5.476   3.614 -0.3513  1.8216 -2.5436
 5554SOL    HW321983   4.732   5.368   3.564 -0.6597  1.1327 -0.5392
 5554SOL    MW421984   4.812   5.404   3.568 -0.3201  0.3704 -0.3815
 5555SOL     OW21985   1.867   2.287   1.982 -0.3787 -0.2531 -0.0629
 5555SOL    HW221986   1.939   2.298   2.044  0.2344  0.6877 -0.9074
 5555SOL    HW321987   1.905   2.312   1.898 -1.1439 -1.6638 -0.8665
 5555SOL    MW421988   1.882   2.292   1.979 -0.3987 -0.3151 -0.2803
 5556SOL     OW21989   4.250   1.266   0.053  0.4508  0.4835 -0.0099
 5556SOL    HW221990   4.272   1.216  -0.026  2.6276 -0.0263  0.8465
 5556SOL    HW321991   4.193   1.208   0.103 -0.4177  0.5551 -0.8843
 5556SOL    MW421992   4.246   1.252   0.049  0.6234  0.4257 -0.0123
 5557SOL     OW21993   1.077   2.571   1.376  0.3278 -0.2126 -0.2799
 5557SOL    HW221994   1.015   2.612   1.315  1.9569  0.1278 -1.7616
 5557SOL    HW321995   1.126   2.510   1.323  0.2305 -1.6726  1.2187
 5557SOL    MW421996   1.075   2.569   1.361  0.5299 -0.3603 -0.2777
 5558SOL     OW21997   4.026   3.237   1.026 -0.2158 -0.5970  0.0627
 5558SOL    HW221998   3.977   3.266   1.104  1.3390  0.0186  0.8652
 5558SOL    HW321999   4.117   3.255   1.048  0.5976 -3.4614 -0.6083
 5558SOL    MW422000   4.031   3.243   1.039  0.0966 -0.8937  0.0800
 5559SOL     OW22001   2.386   3.817   3.899  0.2310 -0.7367  0.5149
 5559SOL    HW222002   2.310   3.769   3.932 -1.2591 -0.5258 -2.2794
 5559SOL    HW322003   2.450   3.749   3.878 -1.0900 -1.4252 -1.5447
 5559SOL    MW422004   2.384   3.802   3.901 -0.1399 -0.7997 -0.1255
 5560SOL     OW22005   0.336   4.282   4.438 -0.0087 -0.1093 -0.0155
 5560SOL    HW222006   0.370   4.196   4.412 -0.3726 -0.0487 -0.7359
 5560SOL    HW322007   0.361   4.291   4.529 -0.6255 -1.3222  0.3057
 5560SOL    MW422008   0.344   4.272   4.446 -0.1381 -0.2614 -0.0682
 5561SOL     OW22009   6.411   2.890   4.961 -0.3195  0.1335  0.1863
 5561SOL    HW222010   6.322   2.920   4.941 -0.9885 -2.1131 -0.5296
 5561SOL    HW322011   6.444   2.855   4.878  1.0958  0.5489  0.5480
 5561SOL    MW422012   6.404   2.889   4.948 -0.2210 -0.1081  0.1396
 5562SOL     OW22013   3.376   0.832   2.939  1.0588  0.3828 -0.3106
 5562SOL    HW222014   3.301   0.841   2.998  0.1170 -0.8402 -1.2569
 5562SOL    HW322015   3.416   0.919   2.937  1.5164  0.3385  2.5964
 5562SOL    MW422016   3.372   0.845   2.946  0.9949  0.2156 -0.0519
 5563SOL     OW22017   4.902   3.621   0.871 -0.3976  0.1687 -0.2350
 5563SOL    HW222018   4.897   3.527   0.853 -1.8247  0.1872 -0.0047
 5563SOL    HW322019   4.853   3.632   0.952  0.9746  0.9275  0.5228
 5563SOL    MW422020   4.895   3.610   0.879 -0.4048  0.2712 -0.1047
 5564SOL     OW22021   5.435   6.214   4.545 -0.1678  0.0910 -0.0042
 5564SOL    HW222022   5.368   6.212   4.613 -1.4100 -0.3594 -1.1896
 5564SOL    HW322023   5.512   6.252   4.588 -1.6923  2.3391  0.9562
 5564SOL    MW422024   5.437   6.219   4.559 -0.5328  0.3282 -0.0339
 5565SOL     OW22025   0.344   4.224   5.885  0.2292 -0.0740 -0.4855
 5565SOL    HW222026   0.396   4.304   5.888  0.8832 -0.5049  0.5181
 5565SOL    HW322027   0.253   4.253   5.891  0.4523  0.6060 -0.3690
 5565SOL    MW422028   0.339   4.238   5.886  0.3449 -0.0411 -0.3377
 5566SOL     OW22029   0.212   6.375   5.975  0.2830  0.2039 -0.6641
 5566SOL    HW222030   0.281   6.377   5.908 -0.6357 -1.1829 -1.6916
 5566SOL    HW322031   0.177   6.464   5.976  2.3648  1.0877  0.2299
 5566SOL    MW422032   0.217   6.387   5.966  0.4365  0.1376 -0.6818
 5567SOL     OW22033   4.849   5.245   0.135 -0.1747 -0.3884  0.3353
 5567SOL    HW222034   4.858   5.169   0.192 -0.2988 -0.2670  0.5207
 5567SOL    HW322035   4.815   5.314   0.193  0.8693  0.0952  0.4121
 5567SOL    MW422036   4.846   5.244   0.150 -0.0533 -0.3086  0.3699
 5568SOL     OW22037   5.460   6.294   2.411  0.2577  0.0902 -0.6779
 5568SOL    HW222038   5.533   6.296   2.350  1.4487  0.1733  0.6951
 5568SOL    HW322039   5.501   6.289   2.498 -1.3438 -2.1855  0.0721
 5568SOL    MW422040   5.475   6.293   2.415  0.2035 -0.1991 -0.3978
 5569SOL     OW22041   4.136   2.650   5.521 -0.4132  0.5896  0.4391
 5569SOL    HW222042   4.129   2.692   5.606 -1.4037  0.2335  0.5423
 5569SOL    HW322043   4.046   2.635   5.494 -0.0920 -0.4144 -0.1222
 5569SOL    MW422044   4.124   2.654   5.528 -0.5015  0.4102  0.3786
 5570SOL     OW22045   3.729   0.795   1.299 -1.1867  0.2352  0.1260
 5570SOL    HW222046   3.754   0.748   1.378 -1.1432 -0.3719 -0.2385
 5570SOL    HW322047   3.802   0.854   1.282 -1.3775  0.6581  0.7609
 5570SOL    MW422048   3.742   0.796   1.307 -1.2061  0.2109  0.1617
 5571SOL     OW22049   2.700   2.145   5.681 -0.3513 -0.2570 -0.2432
 5571SOL    HW222050   2.668   2.162   5.770 -1.3163  1.2552 -0.8382
 5571SOL    HW322051   2.763   2.073   5.692  0.9835  1.1166  1.9355
 5571SOL    MW422052   2.704   2.137   5.694 -0.3025  0.1237 -0.0342
 5572SOL     OW22053   3.166   1.253   3.304 -0.2177 -0.8997  0.7051
 5572SOL    HW222054   3.127   1.204   3.377 -0.8202 -0.9787  0.3340
 5572SOL    HW322055   3.244   1.293   3.342  0.1222 -1.8919  1.1043
 5572SOL    MW422056   3.171   1.252   3.318 -0.2524 -1.0410  0.7088
 5573SOL     OW22057   0.054   4.291   3.230 -0.6422  0.2201  0.8490
 5573SOL    HW222058   0.109   4.359   3.190 -1.4632  1.4198  1.6936
 5573SOL    HW322059   0.030   4.233   3.157 -0.2730  1.0778  0.0265
 5573SOL    MW422060   0.058   4.292   3.215 -0.7018  0.4915  0.8519
 5574SOL     OW22061   4.575   4.819   0.638  0.5571  0.3069 -0.1561
 5574SOL    HW222062   4.539   4.855   0.719  0.0308  1.7708 -0.9932
 5574SOL    HW322063   4.658   4.779   0.664 -0.2759 -0.5551  1.3334
 5574SOL    MW422064   4.581   4.818   0.652  0.3778  0.3863 -0.0701
 5575SOL     OW22065   5.797   5.398   3.932 -0.2022  0.0442  0.5638
 5575SOL    HW222066   5.856   5.332   3.895  2.0052  1.1982  1.8125
 5575SOL    HW322067   5.745   5.350   3.997  2.0867 -0.3766  2.2051
 5575SOL    MW422068   5.798   5.383   3.936  0.3910  0.1409  0.9451
 5576SOL     OW22069   5.905   4.241   4.840  0.3902  0.2822  0.2303
 5576SOL    HW222070   5.981   4.191   4.809 -0.4117 -0.8791  0.0432
 5576SOL    HW322071   5.933   4.279   4.922  1.4279  0.5166 -0.2154
 5576SOL    MW422072   5.919   4.239   4.846  0.4213  0.1599  0.1468
 5577SOL     OW22073   0.819   3.869   1.860  0.0111  0.1011  0.2399
 5577SOL    HW222074   0.744   3.822   1.823 -0.3159  1.5661 -1.0721
 5577SOL    HW322075   0.895   3.832   1.816  0.1432 -1.5673  1.7559
 5577SOL    MW422076   0.819   3.858   1.850 -0.0146  0.0742  0.2668
 5578SOL     OW22077   5.229   0.952   6.250  0.6462 -0.0580  1.0393
 5578SOL    HW222078   5.284   1.024   6.280  0.0699 -0.5166  3.4134
 5578SOL    HW322079   5.176   0.929   6.326 -1.6728 -0.7182 -0.6565
 5578SOL    MW422080   5.229   0.959   6.264  0.2642 -0.2056  1.1288
 5579SOL     OW22081   5.422   5.921   0.189 -0.2792 -0.3567  0.0610
 5579SOL    HW222082   5.414   5.970   0.271 -0.2484  0.3316 -0.3420
 5579SOL    HW322083   5.333   5.918   0.154  0.1103  1.8109 -1.2742
 5579SOL    MW422084   5.409   5.927   0.195 -0.2238  0.0201 -0.1684
 5580SOL     OW22085   0.436   5.081   0.789 -0.0699  0.1562 -0.4687
 5580SOL    HW222086   0.356   5.117   0.826 -0.6043 -0.8833 -0.5761
 5580SOL    HW322087   0.435   5.108   0.697  0.1397  0.8564 -0.2716
 5580SOL    MW422088   0.425   5.089   0.782 -0.1128  0.1115 -0.4569
 5581SOL     OW22089   5.918   0.494   3.054 -0.0552 -0.4800 -0.4807
 5581SOL    HW222090   5.884   0.584   3.054 -0.1466 -0.5086  0.2624
 5581SOL    HW322091   5.848   0.441   3.016 -0.9682 -0.5722  1.2251
 5581SOL    MW422092   5.904   0.499   3.049 -0.1877 -0.4959 -0.1576
 5582SOL     OW22093   3.428   4.982   4.745  0.0975  0.1915  0.4231
 5582SOL    HW222094   3.482   4.977   4.666  0.0575  0.9406  0.3453
 5582SOL    HW322095   3.416   4.890   4.771  1.2708  0.0054  0.3543
 5582SOL    MW422096   3.433   4.969   4.738  0.2470  0.2658  0.4038
 5583SOL     OW22097   3.581   4.134   0.018 -0.4206 -0.0964  0.0741
 5583SOL    HW222098   3.543   4.209  -0.028  0.2508 -1.3807 -2.8169
 5583SOL    HW322099   3.675   4.150   0.016 -0.2979 -0.8369 -0.2572
 5583SOL    MW422100   3.588   4.146   0.012 -0.3158 -0.3635 -0.3511
 5584SOL     OW22101   5.449   0.642   5.876 -0.2073 -0.4191  0.0788
 5584SOL    HW222102   5.365   0.609   5.908 -0.5848 -0.8935 -1.3143
 5584SOL    HW322103   5.503   0.564   5.866  0.0013 -0.2507 -0.1186
 5584SOL    MW422104   5.445   0.628   5.879 -0.2296 -0.4595 -0.1311
 5585SOL     OW22105   3.433   2.119   3.491  0.4596  0.0939  0.0621
 5585SOL    HW222106   3.359   2.171   3.523 -1.4942 -1.3922 -1.8181
 5585SOL    HW322107   3.424   2.034   3.533  0.5911 -0.3679 -0.8107
 5585SOL    MW422108   3.422   2.115   3.501  0.2192 -0.1631 -0.3011
 5586SOL     OW22109   2.801   5.346   5.438  0.8415  0.1327 -0.2846
 5586SOL    HW222110   2.705   5.352   5.438  0.6317 -1.5986  2.3311
 5586SOL    HW322111   2.831   5.434   5.459 -0.1197  0.7774 -1.4772
 5586SOL    MW422112   2.792   5.359   5.441  0.6870 -0.0107 -0.0968
 5587SOL     OW22113   3.160   5.368   5.325 -0.5358  0.1828 -0.5087
 5587SOL    HW222114   3.095   5.417   5.273 -0.9238  1.6123  1.2305
 5587SOL    HW322115   3.121   5.361   5.412  1.1685  0.0813  0.2768
 5587SOL    MW422116   3.146   5.374   5.329 -0.3621  0.3580 -0.1756
 5588SOL     OW22117   3.221   3.637   0.057 -0.2317 -0.1379  0.9006
 5588SOL    HW222118   3.148   3.624   0.117 -0.5726  0.3237  0.5908
 5588SOL    HW322119   3.279   3.699   0.103 -0.3239 -0.0495  0.8980
 5588SOL    MW422120   3.219   3.644   0.071 -0.2888 -0.0654  0.8594
 5589SOL     OW22121   3.806   5.256   0.927  0.0700 -0.1476  0.0676
 5589SOL    HW222122   3.734   5.319   0.936 -0.5504 -0.9055  0.5697
 5589SOL    HW322123   3.879   5.296   0.975  1.0573  2.0842 -2.9443
 5589SOL    MW422124   3.806   5.270   0.934  0.1184  0.0469 -0.2635
 5590SOL     OW22125   0.139   5.633   0.550  0.4698  0.1527 -0.0143
 5590SOL    HW222126   0.117   5.722   0.575 -0.5542 -0.0981 -0.0115
 5590SOL    HW322127   0.157   5.589   0.634  1.0749  0.3668 -0.0217
 5590SOL    MW422128   0.139   5.639   0.565  0.4145  0.1479 -0.0149
 5591SOL     OW22129   2.673   3.772   2.154  0.6021 -0.0894  0.0261
 5591SOL    HW222130   2.672   3.726   2.238  0.0999  2.0806  1.3028
 5591SOL    HW322131   2.746   3.834   2.162 -0.3256  1.1267 -0.5371
 5591SOL    MW422132   2.683   3.774   2.166  0.4134  0.3573  0.1203
 5592SOL     OW22133   3.149   2.002   3.326  0.1397 -0.4499 -0.4894
 5592SOL    HW222134   3.137   1.972   3.417 -1.9353 -2.7629 -1.4055
 5592SOL    HW322135   3.110   2.089   3.325 -0.6676 -0.7615  0.6730
 5592SOL    MW422136   3.142   2.009   3.338 -0.2406 -0.7962 -0.4569
 5593SOL     OW22137   4.591   4.980   5.448 -0.0778  0.2119  0.1304
 5593SOL    HW222138   4.667   4.924   5.435 -0.7224 -0.6710  0.0825
 5593SOL    HW322139   4.516   4.921   5.440 -0.7218  0.7378  1.7525
 5593SOL    MW422140   4.591   4.965   5.445 -0.2478  0.1648  0.3381
 5594SOL     OW22141   2.586   1.834   1.239 -0.5270  0.6359  0.1924
 5594SOL    HW222142   2.517   1.810   1.301 -0.5095  1.4594  0.5329
 5594SOL    HW322143   2.568   1.925   1.218  0.5731  0.9118  0.4235
 5594SOL    MW422144   2.574   1.843   1.244 -0.3796  0.7810  0.2678
 5595SOL     OW22145   5.887   3.368   3.110  0.0982 -0.5401  0.5804
 5595SOL    HW222146   5.827   3.302   3.075 -0.2470  0.2913 -0.4173
 5595SOL    HW322147   5.839   3.409   3.182 -1.4506  1.6207 -1.5733
 5595SOL    MW422148   5.873   3.365   3.115 -0.1517 -0.1453  0.1646
 5596SOL     OW22149   1.778   0.235   2.861 -0.0534  0.1066  0.7861
 5596SOL    HW222150   1.787   0.330   2.865 -0.6134  0.3887 -2.1691
 5596SOL    HW322151   1.828   0.202   2.935  1.7983  2.6241  0.7589
 5596SOL    MW422152   1.786   0.243   2.871  0.1170  0.4759  0.3926
 5597SOL     OW22153   5.982   2.268   0.895  0.0361  0.6196  0.4124
 5597SOL    HW222154   5.892   2.250   0.920  0.4430 -0.5756  1.1119
 5597SOL    HW322155   6.029   2.186   0.915  0.6473 -0.0440 -3.1130
 5597SOL    MW422156   5.977   2.255   0.901  0.1704  0.3744  0.0395
 5598SOL     OW22157   4.771   2.897   6.266 -0.4231 -0.2287 -0.4537
 5598SOL    HW222158   4.866   2.908   6.272 -0.5974  0.7875  0.9142
 5598SOL    HW322159   4.738   2.921   6.352 -1.8355 -1.8320 -0.4697
 5598SOL    MW422160   4.779   2.901   6.278 -0.6324 -0.3062 -0.2753
 5599SOL     OW22161   0.005   2.855   1.608  0.2927 -0.2134 -0.7803
 5599SOL    HW222162  -0.035   2.937   1.581  1.2524 -0.0539 -1.7424
 5599SOL    HW322163   0.038   2.816   1.528  0.0777 -1.4265 -0.3010
 5599SOL    MW422164   0.004   2.861   1.594  0.3910 -0.3524 -0.8440
 5600SOL     OW22165   1.766   3.320   2.461  0.4923 -0.2105  0.0779
 5600SOL    HW222166   1.697   3.257   2.481 -1.2328  0.0614 -4.0116
 5600SOL    HW322167   1.825   3.274   2.402  0.3711  1.2749 -1.2987
 5600SOL    MW422168   1.764   3.306   2.456  0.2487  0.0214 -0.6433
 5601SOL     OW22169   2.383   4.292   4.083 -0.1841 -0.2378 -0.0665
 5601SOL    HW222170   2.290   4.290   4.108  0.3870 -0.7247  2.2917
 5601SOL    HW322171   2.429   4.310   4.165  1.8791 -0.9872 -1.0008
 5601SOL    MW422172   2.377   4.294   4.097  0.1635 -0.4009  0.1213
 5602SOL     OW22173   3.894   0.981   5.670  0.4349  0.1065 -0.2441
 5602SOL    HW222174   3.872   1.050   5.607  2.4659 -1.0350 -2.3859
 5602SOL    HW322175   3.865   0.900   5.627  1.5504 -0.6693  0.3972
 5602SOL    MW422176   3.888   0.979   5.656  0.8500 -0.1464 -0.4421
 5603SOL     OW22177   2.042   1.665   2.036 -0.3602 -0.0130  0.1627
 5603SOL    HW222178   1.955   1.691   2.067 -0.6807 -1.3831  0.5104
 5603SOL    HW322179   2.044   1.693   1.944  0.2215  3.1978  1.0582
 5603SOL    MW422180   2.031   1.672   2.028 -0.3258  0.2298  0.3268
 5604SOL     OW22181   4.844   4.685   5.664  0.1395 -0.6373 -0.2811
 5604SOL    HW222182   4.784   4.642   5.725  0.1266 -1.3894 -0.8018
 5604SOL    HW322183   4.847   4.776   5.693 -0.8456 -0.7055  0.0696
 5604SOL    MW422184   4.836   4.691   5.676  0.0078 -0.7455 -0.3036
 5605SOL     OW22185   3.985   1.213   4.533  0.1256  0.3116  0.1250
 5605SOL    HW222186   3.986   1.252   4.446 -0.1215  0.9919  0.4198
 5605SOL    HW322187   4.062   1.156   4.535  0.8731  1.2961 -0.0863
 5605SOL    MW422188   3.996   1.211   4.522  0.1916  0.5313  0.1360
 5606SOL     OW22189   3.439   2.403   0.332  0.1495 -0.4267 -0.7598
 5606SOL    HW222190   3.483   2.329   0.290  2.0728 -1.1556  2.2844
 5606SOL    HW322191   3.486   2.480   0.299  1.7305 -0.9859  0.0992
 5606SOL    MW422192   3.451   2.403   0.322  0.6118 -0.5966 -0.2448
 5607SOL     OW22193   1.206   4.016   3.454  0.1956  0.3080  0.6113
 5607SOL    HW222194   1.200   4.055   3.367  1.7658  0.2108  0.4247
 5607SOL    HW322195   1.116   3.991   3.476 -0.7294  3.0718  0.3255
 5607SOL    MW422196   1.194   4.018   3.446  0.2807  0.6598  0.5490
 5608SOL     OW22197   6.051   1.339   4.395 -0.1667 -0.0713 -0.0878
 5608SOL    HW222198   6.119   1.297   4.448 -0.0973  0.1743  0.0163
 5608SOL    HW322199   6.028   1.272   4.330  1.3468  0.4137 -1.1833
 5608SOL    MW422200   6.057   1.324   4.394  0.0421  0.0251 -0.2186
 5609SOL     OW22201   3.375   1.540   3.180  0.1139  0.7966 -0.6031
 5609SOL    HW222202   3.470   1.528   3.175 -0.0664 -0.8016 -0.6299
 5609SOL    HW322203   3.363   1.635   3.174  1.7224  1.0615 -0.2556
 5609SOL    MW422204   3.386   1.551   3.179  0.3023  0.6207 -0.5607
 5610SOL     OW22205   0.204   0.223   2.450 -0.9579 -0.0834 -0.4080
 5610SOL    HW222206   0.207   0.284   2.524  0.0955 -1.2722  0.5766
 5610SOL    HW322207   0.256   0.266   2.382  1.5319 -0.7104  0.9863
 5610SOL    MW422208   0.211   0.237   2.450 -0.4904 -0.3229 -0.0941
 5611SOL     OW22209   5.466   4.023   0.472 -0.0114 -0.4982 -0.4621
 5611SOL    HW222210   5.476   4.041   0.379 -1.7976  0.4265 -0.5000
 5611SOL    HW322211   5.507   4.098   0.516 -0.0454 -0.4578 -0.5001
 5611SOL    MW422212   5.473   4.035   0.466 -0.2515 -0.3708 -0.4721
 5612SOL     OW22213   1.712   1.735   5.488  0.0670  0.2943  0.2621
 5612SOL    HW222214   1.730   1.804   5.552  0.7164  1.3833 -1.0449
 5612SOL    HW322215   1.632   1.763   5.443  0.5928  0.4686 -0.5958
 5612SOL    MW422216   1.704   1.748   5.490  0.2221  0.4610 -0.0236
 5613SOL     OW22217   4.051   5.633   0.981  0.1486 -0.3205 -0.3056
 5613SOL    HW222218   4.030   5.556   1.033  0.0408 -0.2157 -0.1949
 5613SOL    HW322219   4.090   5.598   0.901 -0.6088 -0.5317 -0.5957
 5613SOL    MW422220   4.053   5.618   0.977  0.0344 -0.3345 -0.3293
 5614SOL     OW22221   0.639   3.650   2.602 -0.5485  0.5876  0.4328
 5614SOL    HW222222   0.701   3.724   2.607  1.6281 -1.0993  0.0556
 5614SOL    HW322223   0.572   3.680   2.540  0.1600  2.3198  0.4256
 5614SOL    MW422224   0.639   3.664   2.594 -0.1679  0.5936  0.3821
 5615SOL     OW22225   1.775   1.898   1.226  0.2029  0.3257 -0.3888
 5615SOL    HW222226   1.838   1.890   1.155  0.9875 -1.1842  0.4229
 5615SOL    HW322227   1.828   1.921   1.303 -0.6420  2.0711 -0.2683
 5615SOL    MW422228   1.790   1.900   1.227  0.1949  0.3568 -0.2658
 5616SOL     OW22229   4.396   3.398   5.469 -0.2493 -0.0008 -0.2242
 5616SOL    HW222230   4.352   3.315   5.490  0.9735 -1.0580 -1.6340
 5616SOL    HW322231   4.385   3.407   5.374  0.0338  1.2295 -0.1460
 5616SOL    MW422232   4.388   3.388   5.459 -0.0506  0.0220 -0.3999
 5617SOL     OW22233   2.171   4.069   5.439 -0.1798 -0.9777  0.0575
 5617SOL    HW222234   2.160   4.125   5.517  0.4307  0.0808 -0.5958
 5617SOL    HW322235   2.251   4.020   5.456  0.6608  0.1821 -0.4296
 5617SOL    MW422236   2.180   4.070   5.452  0.0117 -0.6850 -0.0929
 5618SOL     OW22237   2.995   0.152   4.991  0.0956  0.4695  0.0131
 5618SOL    HW222238   2.899   0.160   4.993  0.0977  0.5724 -0.2820
 5618SOL    HW322239   3.014   0.114   4.906  0.1531 -1.8319  0.9722
 5618SOL    MW422240   2.984   0.148   4.980  0.1034  0.1794  0.1007
 5619SOL     OW22241   1.032   0.716   1.323  0.4824  0.2368  0.5730
 5619SOL    HW222242   1.072   0.667   1.250  1.2985  0.3244  0.9514
 5619SOL    HW322243   0.985   0.649   1.373  0.5476  0.0453  0.3813
 5619SOL    MW422244   1.031   0.701   1.320  0.5987  0.2231  0.5976
 5620SOL     OW22245   3.698   4.240   2.415 -0.8051  0.4972 -0.1482
 5620SOL    HW222246   3.790   4.243   2.388 -0.2718 -0.4541  1.4479
 5620SOL    HW322247   3.696   4.288   2.497 -1.6240 -0.0212  0.1380
 5620SOL    MW422248   3.710   4.247   2.422 -0.8428  0.3033  0.1001
 5621SOL     OW22249   6.089   5.181   0.072  0.3259 -0.5422  0.8666
 5621SOL    HW222250   5.994   5.188   0.067  0.4159  0.1521 -0.0366
 5621SOL    HW322251   6.107   5.087   0.065 -0.2232 -0.5655 -0.3064
 5621SOL    MW422252   6.079   5.169   0.071  0.2653 -0.4537  0.5927
 5622SOL     OW22253   2.048   6.012   4.977  0.2876 -0.4107 -0.1991
 5622SOL    HW222254   2.050   5.931   5.028 -1.7615 -0.4053 -0.0166
 5622SOL    HW322255   1.998   5.990   4.899  0.5695  0.4256 -0.6279
 5622SOL    MW422256   2.041   5.999   4.974  0.0544 -0.2996 -0.2316
 5623SOL     OW22257   3.819   1.128   0.127 -0.2123  0.3275  0.4103
 5623SOL    HW222258   3.877   1.117   0.052 -2.6425  1.0769 -1.7451
 5623SOL    HW322259   3.846   1.060   0.189 -0.1746 -2.6028 -2.5510
 5623SOL    MW422260   3.830   1.118   0.125 -0.5280  0.0397 -0.2648
 5624SOL     OW22261   3.217   5.472   4.019 -0.1627 -0.2459 -0.1147
 5624SOL    HW222262   3.313   5.472   4.023 -0.1779  1.1126  1.9479
 5624SOL    HW322263   3.195   5.556   3.977 -0.4434 -0.0146  0.4840
 5624SOL    MW422264   3.227   5.483   4.014 -0.2018 -0.0361  0.2364
 5625SOL     OW22265   3.418   1.311   3.483  0.2066 -0.3394  0.1137
 5625SOL    HW222266   3.504   1.333   3.447  1.1982 -1.0906  1.8839
 5625SOL    HW322267   3.408   1.370   3.558 -1.0863  0.0978 -0.3688
 5625SOL    MW422268   3.428   1.322   3.488  0.1668 -0.3808  0.2836
 5626SOL     OW22269   5.894   2.586   0.010 -0.0120 -0.2688 -0.0914
 5626SOL    HW222270   5.882   2.585  -0.085 -0.0073  0.9304 -0.1129
 5626SOL    HW322271   5.840   2.658   0.041  3.5466  2.5684  0.2747
 5626SOL    MW422272   5.886   2.595   0.001  0.4581  0.2638 -0.0460
 5627SOL     OW22273   3.013   0.225   2.794  0.1862 -0.2348 -0.0400
 5627SOL    HW222274   3.095   0.256   2.755 -0.0058  0.0140 -0.2508
 5627SOL    HW322275   2.955   0.301   2.792 -0.3020 -0.6072 -0.5973
 5627SOL    MW422276   3.016   0.239   2.788  0.0965 -0.2511 -0.1413
 5628SOL     OW22277   5.979   6.074   2.586 -0.0358  0.3262 -0.5611
 5628SOL    HW222278   5.971   5.979   2.589  0.0501  0.3288 -0.2501
 5628SOL    HW322279   6.019   6.092   2.501  1.4307 -0.0250  0.0323
 5628SOL    MW422280   5.983   6.064   2.575  0.1690  0.2802 -0.4418
 5629SOL     OW22281   5.043   1.508   2.752 -0.8962 -0.0548 -0.4140
 5629SOL    HW222282   5.059   1.473   2.839 -0.9253 -0.0666 -0.4135
 5629SOL    HW322283   4.947   1.508   2.743 -0.8768 -0.5837 -0.6578
 5629SOL    MW422284   5.032   1.503   2.762 -0.8975 -0.1261 -0.4461
 5630SOL     OW22285   0.472   5.918   5.074 -0.0349 -0.2047 -0.2779
 5630SOL    HW222286   0.399   5.890   5.019 -0.8136  0.8388  0.1794
 5630SOL    HW322287   0.521   5.981   5.021 -0.6902  0.6741  0.1180
 5630SOL    MW422288   0.469   5.923   5.060 -0.2241  0.0489 -0.1653
 5631SOL     OW22289   4.576   2.984   0.965 -0.1586 -0.3885 -0.4209
 5631SOL    HW222290   4.610   3.072   0.947  0.7471 -0.9393 -1.4966
 5631SOL    HW322291   4.510   2.970   0.897 -1.3901  0.0087  0.6435
 5631SOL    MW422292   4.572   2.994   0.954 -0.2016 -0.4088 -0.4224
 5632SOL     OW22293   2.291   3.156   1.559 -0.2727  0.0254  0.1855
 5632SOL    HW222294   2.220   3.216   1.582  0.4136  0.6112  0.8260
 5632SOL    HW322295   2.248   3.087   1.508 -1.0278  1.1924 -0.8132
 5632SOL    MW422296   2.276   3.155   1.556 -0.2818  0.2567  0.1383
 5633SOL     OW22297   4.136   0.943   4.142  0.1787  0.0208 -0.3481
 5633SOL    HW222298   4.152   0.875   4.076  2.7135 -0.3661  0.5636
 5633SOL    HW322299   4.075   0.903   4.203 -0.2139 -0.5503 -1.0951
 5633SOL    MW422300   4.130   0.929   4.141  0.4613 -0.1056 -0.3264
 5634SOL     OW22301   5.087   4.793   5.426 -0.1008  0.0850 -0.6276
 5634SOL    HW222302   5.064   4.812   5.517  0.1121  0.2621 -0.6105
 5634SOL    HW322303   5.096   4.698   5.422  0.0491  0.0923 -0.4266
 5634SOL    MW422304   5.085   4.783   5.437 -0.0530  0.1093 -0.5989
 5635SOL     OW22305   4.303   6.300   0.562 -0.0014  0.4302 -0.1575
 5635SOL    HW222306   4.347   6.360   0.502 -1.7542  0.6342 -1.3092
 5635SOL    HW322307   4.310   6.342   0.647  0.6449  1.2204 -0.5840
 5635SOL    MW422308   4.310   6.313   0.565 -0.1474  0.5614 -0.3657
 5636SOL     OW22309   3.984   4.970   0.122  0.2187 -0.3335  0.6825
 5636SOL    HW222310   3.966   4.959   0.215  1.3337  0.8762  1.0640
 5636SOL    HW322311   4.078   4.958   0.113  0.2932  0.6999 -0.1107
 5636SOL    MW422312   3.994   4.967   0.133  0.3756 -0.0376  0.6282
 5637SOL     OW22313   2.125   2.609   2.200 -0.1093  0.0496 -0.1606
 5637SOL    HW222314   2.075   2.527   2.207 -0.1516  0.1503  0.8421
 5637SOL    HW322315   2.111   2.653   2.284 -0.1554  1.1336 -0.7298
 5637SOL    MW422316   2.117   2.604   2.212 -0.1209  0.2059 -0.1034
 5638SOL     OW22317   2.130   4.980   5.819  0.5282 -0.1464 -0.0546
 5638SOL    HW222318   2.068   5.022   5.759 -0.5339 -2.5716 -0.7805
 5638SOL    HW322319   2.194   5.048   5.839 -1.1871  1.8320 -0.9712
 5638SOL    MW422320   2.130   4.994   5.814  0.1617 -0.2054 -0.2713
 5639SOL     OW22321   1.044   1.182   2.534  0.4679  0.5229 -0.2567
 5639SOL    HW222322   1.059   1.136   2.452  0.6731  0.3336 -0.1145
 5639SOL    HW322323   0.992   1.121   2.587  0.4513  0.5907 -0.1950
 5639SOL    MW422324   1.039   1.168   2.530  0.4928  0.5069 -0.2298
 5640SOL     OW22325   3.866   4.894   4.273 -0.2610 -0.1237 -0.1138
 5640SOL    HW222326   3.959   4.905   4.293  0.0021  0.0901 -1.3700
 5640SOL    HW322327   3.836   4.827   4.335  0.2406  1.1758  1.6228
 5640SOL    MW422328   3.874   4.887   4.284 -0.1601  0.0759 -0.0504
 5641SOL     OW22329   4.214   4.853   1.838  0.5912  0.3050  0.6889
 5641SOL    HW222330   4.130   4.861   1.883 -0.0752 -1.5615 -0.0945
 5641SOL    HW322331   4.272   4.914   1.884 -0.6786  0.2506  2.4794
 5641SOL    MW422332   4.210   4.862   1.850  0.3357  0.0516  0.8218
 5642SOL     OW22333   0.395   2.084   1.519 -1.0109  0.2165 -0.0182
 5642SOL    HW222334   0.408   1.996   1.485 -0.4121 -0.0530  0.8695
 5642SOL    HW322335   0.431   2.142   1.451  0.3139 -0.3149  0.2087
 5642SOL    MW422336   0.402   2.080   1.505 -0.7571  0.1108  0.1288
 5643SOL     OW22337   2.579   3.664   5.024 -0.2598  0.1553  0.1957
 5643SOL    HW222338   2.527   3.589   5.053 -0.1244  0.2675  0.7511
 5643SOL    HW322339   2.541   3.689   4.940 -1.2521  0.3879  0.7092
 5643SOL    MW422340   2.567   3.657   5.017 -0.3729  0.2008  0.3367
 5644SOL     OW22341   0.620   3.217   6.335  0.4813  0.0805 -0.3691
 5644SOL    HW222342   0.547   3.256   6.286  0.8721  0.3690 -0.7188
 5644SOL    HW322343   0.678   3.290   6.354 -0.8295  0.4806  2.6853
 5644SOL    MW422344   0.618   3.231   6.331  0.3599  0.1714 -0.0122
 5645SOL     OW22345   1.143   3.133   0.246 -0.0077 -0.1307  0.0126
 5645SOL    HW222346   1.070   3.072   0.256  0.3441 -0.3538  1.4282
 5645SOL    HW322347   1.102   3.218   0.231 -0.5010 -0.6739 -1.9263
 5645SOL    MW422348   1.128   3.136   0.245 -0.0264 -0.2318 -0.0565
 5646SOL     OW22349   1.865   3.510   2.122 -0.0651 -0.1278 -0.2056
 5646SOL    HW222350   1.938   3.458   2.155 -0.1069 -0.8131 -1.1282
 5646SOL    HW322351   1.788   3.455   2.137 -0.1854 -0.0851 -0.6409
 5646SOL    MW422352   1.864   3.496   2.128 -0.0865 -0.2125 -0.3848
 5647SOL     OW22353   1.125   1.871   3.659 -0.2828  0.0534 -0.1461
 5647SOL    HW222354   1.216   1.879   3.690 -1.0434  1.5137  1.9171
 5647SOL    HW322355   1.115   1.945   3.598  0.3716 -1.1602 -1.8192
 5647SOL    MW422356   1.136   1.882   3.655 -0.2968  0.0859 -0.0947
 5648SOL     OW22357   1.109   2.775   0.114  0.1899  0.7053  0.0516
 5648SOL    HW222358   1.105   2.760   0.020  0.5345  0.8722  0.0125
 5648SOL    HW322359   1.032   2.829   0.133  0.1976  0.7892 -0.1544
 5648SOL    MW422360   1.098   2.780   0.104  0.2363  0.7384  0.0192
 5649SOL     OW22361   3.675   3.337   4.842  0.7257  0.0410  0.2409
 5649SOL    HW222362   3.601   3.382   4.883  0.3741 -0.8159  0.5686
 5649SOL    HW322363   3.739   3.406   4.827  1.1510  0.3288  2.8279
 5649SOL    MW422364   3.673   3.352   4.846  0.7354 -0.0341  0.6254
 5650SOL     OW22365   4.339   3.072   5.223 -0.1437  0.9206  0.2001
 5650SOL    HW222366   4.274   3.028   5.278  0.1265  0.0785 -0.1403
 5650SOL    HW322367   4.410   3.093   5.284 -0.0188  0.3547  0.2518
 5650SOL    MW422368   4.340   3.069   5.238 -0.0916  0.7348  0.1620
 5651SOL     OW22369   5.569   1.482   1.482 -0.0128 -0.1233 -0.4314
 5651SOL    HW222370   5.516   1.406   1.458 -0.5665 -0.2076  0.9611
 5651SOL    HW322371   5.654   1.445   1.506  0.5029 -0.0498 -2.0329
 5651SOL    MW422372   5.574   1.467   1.482 -0.0178 -0.1247 -0.4589
 5652SOL     OW22373   5.233   0.569   1.695 -0.0284 -0.3921 -0.2821
 5652SOL    HW222374   5.160   0.561   1.757  1.2700 -0.0123  1.3643
 5652SOL    HW322375   5.194   0.613   1.619 -0.9464  2.5087  1.6942
 5652SOL    MW422376   5.218   0.574   1.693  0.0218  0.0407  0.1958
 5653SOL     OW22377   4.895   3.132   5.707 -0.1099 -0.1014  0.6028
 5653SOL    HW222378   4.925   3.167   5.791  0.0566  0.0948  0.4642
 5653SOL    HW322379   4.847   3.205   5.667 -0.3593 -0.2580  0.6143
 5653SOL    MW422380   4.893   3.146   5.713 -0.1209 -0.0962  0.5860
 5654SOL     OW22381   2.241   1.323   2.602 -0.3262 -0.5550  0.3929
 5654SOL    HW222382   2.248   1.334   2.507  0.0924 -1.3050  0.3285
 5654SOL    HW322383   2.184   1.395   2.631  0.4478  0.3590 -0.2812
 5654SOL    MW422384   2.235   1.334   2.594 -0.1688 -0.5334  0.2955
 5655SOL     OW22385   2.792   5.701   3.212 -0.0217  1.1822  0.0683
 5655SOL    HW222386   2.813   5.712   3.305  1.1184  0.1347 -0.0340
 5655SOL    HW322387   2.858   5.753   3.166  0.5963  0.2150 -0.1807
 5655SOL    MW422388   2.804   5.709   3.218  0.2103  0.9164  0.0219
 5656SOL     OW22389   3.084   1.842   4.610 -0.1990 -0.3078 -0.3667
 5656SOL    HW222390   3.143   1.771   4.638 -0.8264 -0.6532  0.1028
 5656SOL    HW322391   3.078   1.832   4.515  0.5023 -0.2610 -0.4233
 5656SOL    MW422392   3.091   1.831   4.601 -0.1892 -0.3472 -0.3122
 5657SOL     OW22393   1.720   3.392   0.243  0.1620 -0.2812 -0.2426
 5657SOL    HW222394   1.645   3.378   0.302  0.4615 -0.4785  0.0933
 5657SOL    HW322395   1.763   3.471   0.277  0.7288 -0.7823  0.2176
 5657SOL    MW422396   1.716   3.401   0.255  0.2763 -0.3733 -0.1375
 5658SOL     OW22397   3.767   5.463   1.678 -0.0411  0.5000  0.1376
 5658SOL    HW222398   3.795   5.389   1.624  0.0539  0.5436  0.1271
 5658SOL    HW322399   3.690   5.498   1.632 -1.6516 -1.1158  1.4373
 5658SOL    MW422400   3.760   5.457   1.664 -0.2410  0.2926  0.3077
 5659SOL     OW22401   5.681   1.308   4.232 -0.8411  0.3137 -0.0070
 5659SOL    HW222402   5.732   1.262   4.299 -0.1006  0.3686 -0.5205
 5659SOL    HW322403   5.595   1.320   4.271 -0.4687  0.1891  0.8692
 5659SOL    MW422404   5.677   1.304   4.246 -0.6943  0.3045  0.0409
 5660SOL     OW22405   1.652   5.542   1.834  0.1991  0.5041  0.2228
 5660SOL    HW222406   1.742   5.569   1.851 -0.2939  2.6876 -0.2676
 5660SOL    HW322407   1.633   5.576   1.746 -1.4222  1.0464  0.7488
 5660SOL    MW422408   1.661   5.550   1.824 -0.0799  0.8637  0.2275
 5661SOL     OW22409   3.833   5.345   1.924  0.6044 -0.4135 -0.8653
 5661SOL    HW222410   3.915   5.387   1.948  0.5235 -0.6891 -0.0990
 5661SOL    HW322411   3.801   5.396   1.849  0.5045  0.9071  0.0375
 5661SOL    MW422412   3.839   5.357   1.917  0.5805 -0.2756 -0.6451
 5662SOL     OW22413   3.335   2.471   1.836  0.0441 -0.0282  0.5061
 5662SOL    HW222414   3.318   2.377   1.840 -0.2449 -0.1190 -1.7193
 5662SOL    HW322415   3.428   2.478   1.813 -0.4917  0.1033 -1.8962
 5662SOL    MW422416   3.345   2.459   1.834 -0.0647 -0.0228 -0.1044
 5663SOL     OW22417   2.586   3.104   1.229  0.0083 -0.0794 -0.3475
 5663SOL    HW222418   2.663   3.049   1.243  1.4393  1.5161 -1.5875
 5663SOL    HW322419   2.516   3.042   1.207  1.6746 -1.4140 -2.2416
 5663SOL    MW422420   2.587   3.089   1.228  0.4169 -0.0450 -0.7610
 5664SOL     OW22421   2.337   5.517   3.055 -0.6215  0.3255 -0.3130
 5664SOL    HW222422   2.406   5.498   3.119  0.3052  0.2304 -1.3200
 5664SOL    HW322423   2.327   5.612   3.059 -2.3253  0.1395  1.7176
 5664SOL    MW422424   2.345   5.527   3.064 -0.7240  0.2884 -0.1780
 5665SOL     OW22425   5.806   0.766   1.866 -0.8936  0.1340  0.8776
 5665SOL    HW222426   5.863   0.826   1.915 -0.4977  1.0239 -0.6108
 5665SOL    HW322427   5.788   0.813   1.784  0.0250 -2.0830 -0.6809
 5665SOL    MW422428   5.811   0.780   1.862 -0.7201 -0.0411  0.4756
 5666SOL     OW22429   0.864   4.176   5.853 -0.0745 -0.1194 -0.2689
 5666SOL    HW222430   0.946   4.225   5.854 -0.7168  0.9800 -0.5277
 5666SOL    HW322431   0.869   4.123   5.773 -0.1876  0.9661 -1.0203
 5666SOL    MW422432   0.876   4.175   5.842 -0.1741  0.1689 -0.4022
 5667SOL     OW22433   2.713   0.753   1.444  0.4207  0.3334  0.6997
 5667SOL    HW222434   2.748   0.699   1.514 -0.2809 -0.6739  0.2920
 5667SOL    HW322435   2.647   0.698   1.401  1.5931  0.4858 -1.4670
 5667SOL    MW422436   2.709   0.739   1.447  0.4828  0.2206  0.3601
 5668SOL     OW22437   6.136   2.605   0.171 -0.2979  0.3707  0.3998
 5668SOL    HW222438   6.046   2.603   0.137  1.0136 -1.0492 -3.5675
 5668SOL    HW322439   6.140   2.530   0.230 -1.4814 -0.1879 -0.1812
 5668SOL    MW422440   6.125   2.595   0.174 -0.2810  0.1096 -0.2003
 5669SOL     OW22441   2.331   5.507   4.626 -0.0194  0.3144  0.1905
 5669SOL    HW222442   2.318   5.473   4.714  1.7779 -0.1275  0.3188
 5669SOL    HW322443   2.425   5.527   4.621 -0.6100  3.5849 -0.4833
 5669SOL    MW422444   2.342   5.505   4.637  0.1398  0.6876  0.1185
 5670SOL     OW22445   5.213   2.180   1.982  0.1034 -0.1856 -0.2444
 5670SOL    HW222446   5.284   2.165   1.919 -0.4192 -1.8927 -0.4712
 5670SOL    HW322447   5.235   2.263   2.023  2.8943 -1.1793  0.5235
 5670SOL    MW422448   5.226   2.189   1.979  0.4027 -0.5419 -0.1730
 5671SOL     OW22449   1.304   4.113   2.796  0.1220 -0.1797  0.2340
 5671SOL    HW222450   1.275   4.021   2.804 -1.0365  0.2338  1.1879
 5671SOL    HW322451   1.347   4.117   2.711  0.5770 -1.7078  0.3536
 5671SOL    MW422452   1.305   4.101   2.786  0.0292 -0.3267  0.3756
 5672SOL     OW22453   0.242   4.745   4.667  0.3670  0.1020  0.1627
 5672SOL    HW222454   0.209   4.671   4.617  0.3115  0.4344 -0.3024
 5672SOL    HW322455   0.306   4.787   4.609  1.7682 -0.6414  1.1229
 5672SOL    MW422456   0.246   4.741   4.652  0.5446  0.0478  0.2280
 5673SOL     OW22457   6.069   5.304   0.549  0.0283 -0.1999 -0.0288
 5673SOL    HW222458   6.000   5.366   0.525 -1.1773 -0.7777  1.7257
 5673SOL    HW322459   6.098   5.332   0.636 -2.1151 -3.2525  1.8522
 5673SOL    MW422460   6.064   5.315   0.557 -0.4135 -0.6789  0.4509
 5674SOL     OW22461   3.954   4.595   2.920  0.1261 -0.2255 -0.4782
 5674SOL    HW222462   3.978   4.544   2.843 -0.3688  0.2883 -0.9852
 5674SOL    HW322463   3.897   4.664   2.886  0.5691  0.5087  0.2298
 5674SOL    MW422464   3.949   4.597   2.905  0.1193 -0.0609 -0.4517
 5675SOL     OW22465   3.621   5.232   5.500  0.5401  0.5553 -0.0975
 5675SOL    HW222466   3.557   5.183   5.552  1.0488 -0.1393 -0.1006
 5675SOL    HW322467   3.703   5.223   5.549  1.0557 -0.2179 -1.0575
 5675SOL    MW422468   3.624   5.224   5.513  0.6753  0.3617 -0.2246
 5676SOL     OW22469   0.014   1.924   5.946  0.3875 -0.6408  0.0490
 5676SOL    HW222470   0.042   1.877   6.025 -0.2397  0.7485  1.1460
 5676SOL    HW322471   0.028   2.016   5.966 -1.8054 -0.0945 -0.5966
 5676SOL    MW422472   0.019   1.930   5.959  0.0154 -0.3854  0.1085
 5677SOL     OW22473   5.705   2.277   4.380 -0.1682 -0.3061 -0.1500
 5677SOL    HW222474   5.708   2.183   4.360 -3.7016 -0.7659  0.6324
 5677SOL    HW322475   5.771   2.289   4.448  0.8537 -2.0784 -0.7642
 5677SOL    MW422476   5.714   2.266   4.386 -0.4996 -0.6006 -0.1278
 5678SOL     OW22477   0.758   1.924   4.695  0.1736  0.2885  0.0989
 5678SOL    HW222478   0.751   1.898   4.787  0.4026 -0.9764 -0.2182
 5678SOL    HW322479   0.852   1.936   4.681  0.3332 -1.3470 -0.4170
 5678SOL    MW422480   0.770   1.922   4.705  0.2249 -0.0942 -0.0110
 5679SOL     OW22481   1.602   0.202   0.699  0.3764  0.3178  0.2857
 5679SOL    HW222482   1.522   0.234   0.742  0.1837 -1.4348  1.3181
 5679SOL    HW322483   1.573   0.172   0.613 -0.0244 -0.0383  0.5426
 5679SOL    MW422484   1.587   0.202   0.694  0.2981  0.0396  0.4558
 5680SOL     OW22485   5.939   1.309   3.967 -0.0783  0.5036 -0.0580
 5680SOL    HW222486   6.020   1.355   3.989 -0.4645  1.5474 -0.7587
 5680SOL    HW322487   5.878   1.378   3.941 -1.2874 -0.2455  0.6935
 5680SOL    MW422488   5.942   1.324   3.966 -0.2888  0.5425 -0.0513
 5681SOL     OW22489   1.402   6.344   2.314 -0.5681  0.4336 -0.0413
 5681SOL    HW222490   1.438   6.301   2.236  0.6473 -1.1011  1.2967
 5681SOL    HW322491   1.309   6.325   2.311 -0.4331 -0.1595 -0.7854
 5681SOL    MW422492   1.395   6.336   2.303 -0.3899  0.1529  0.0371
 5682SOL     OW22493   1.478   5.013   3.467  0.6448  0.3270 -0.6122
 5682SOL    HW222494   1.567   5.018   3.431 -0.1270  1.3029 -2.5737
 5682SOL    HW322495   1.422   5.001   3.390 -0.8370 -2.0140  0.7090
 5682SOL    MW422496   1.482   5.012   3.452  0.3475  0.1469 -0.6967
 5683SOL     OW22497   4.909   6.111   4.721  0.1267  0.4208  0.2696
 5683SOL    HW222498   4.840   6.139   4.660  0.2897  1.2425  0.4430
 5683SOL    HW322499   4.955   6.192   4.742  0.4539  0.0448  1.0125
 5683SOL    MW422500   4.906   6.125   4.716  0.1914  0.4796  0.3905
 5684SOL     OW22501   5.378   3.847   4.599 -0.0419 -0.1134  0.6401
 5684SOL    HW222502   5.431   3.926   4.610  1.0836 -0.8180  0.3851
 5684SOL    HW322503   5.435   3.786   4.553 -1.4000 -0.5848 -0.4592
 5684SOL    MW422504   5.393   3.849   4.595 -0.0726 -0.2686  0.4614
 5685SOL     OW22505   2.326   1.802   2.759 -0.5929  0.4922  0.2648
 5685SOL    HW222506   2.375   1.855   2.696  0.2098 -0.4645  0.0545
 5685SOL    HW322507   2.363   1.827   2.844  0.4807 -0.3963  0.0893
 5685SOL    MW422508   2.338   1.812   2.762 -0.3453  0.2488  0.2139
 5686SOL     OW22509   1.318   0.765   1.005  0.3368 -0.4162 -0.0422
 5686SOL    HW222510   1.256   0.820   0.956  0.6710 -0.4589 -0.5180
 5686SOL    HW322511   1.264   0.694   1.040 -0.6477  1.6105  2.8892
 5686SOL    MW422512   1.302   0.763   1.003  0.2510 -0.1544  0.2818
 5687SOL     OW22513   0.877   1.619   2.598  0.5668 -0.0710  0.2971
 5687SOL    HW222514   0.857   1.548   2.537  1.1210 -1.1739  1.3410
 5687SOL    HW322515   0.973   1.621   2.602  0.5725  1.0760 -0.0816
 5687SOL    MW422516   0.887   1.610   2.590  0.6407 -0.0652  0.3849
 5688SOL     OW22517   0.007   5.840   4.769 -0.0907 -0.0358  0.2666
 5688SOL    HW222518  -0.021   5.768   4.826 -1.3422  0.4065  0.2301
 5688SOL    HW322519   0.070   5.799   4.710 -1.4179 -1.3506 -0.3234
 5688SOL    MW422520   0.011   5.825   4.769 -0.4310 -0.1509  0.1839
 5689SOL     OW22521   5.476   2.236   5.432 -0.5676 -0.0203  0.3709
 5689SOL    HW222522   5.540   2.220   5.501  0.5242 -0.4026 -0.6823
 5689SOL    HW322523   5.392   2.241   5.477  0.1292 -0.0975  1.7289
 5689SOL    MW422524   5.474   2.235   5.447 -0.3316 -0.0809  0.4111
 5690SOL     OW22525   0.066   5.640   6.057  0.9061 -0.4454 -0.3806
 5690SOL    HW222526   0.128   5.569   6.069 -1.0107 -2.2688 -0.5927
 5690SOL    HW322527   0.034   5.660   6.145  1.0750 -0.1774 -0.3778
 5690SOL    MW422528   0.070   5.634   6.070  0.6755 -0.6506 -0.4082
 5691SOL     OW22529   4.894   5.676   5.394  0.3513 -0.0153 -0.3107
 5691SOL    HW222530   4.955   5.750   5.396 -0.5814  0.8326 -1.7581
 5691SOL    HW322531   4.815   5.709   5.436  0.7274 -1.0305  1.3146
 5691SOL    MW422532   4.892   5.690   5.400  0.2779 -0.0374 -0.2873
 5692SOL     OW22533   1.174   6.019   0.952 -0.2864 -0.5530 -0.1956
 5692SOL    HW222534   1.102   5.997   0.892 -0.0069 -0.4172 -0.5859
 5692SOL    HW322535   1.131   6.056   1.029 -0.5319  1.6382 -1.3230
 5692SOL    MW422536   1.159   6.021   0.954 -0.2819 -0.2460 -0.3959
 5693SOL     OW22537   2.007   2.952   0.703 -0.0338  0.0564  0.3626
 5693SOL    HW222538   1.927   2.964   0.651 -0.6825  4.6290  2.0260
 5693SOL    HW322539   2.078   2.972   0.642 -0.2519 -1.4071 -0.4254
 5693SOL    MW422540   2.005   2.956   0.688 -0.1482  0.4666  0.4781
 5694SOL     OW22541   0.445   0.413   3.990 -0.4877  0.3053  0.2052
 5694SOL    HW222542   0.361   0.395   4.031 -1.2759  2.5348 -0.2986
 5694SOL    HW322543   0.434   0.385   3.899 -1.1282  1.7344 -0.1671
 5694SOL    MW422544   0.433   0.407   3.983 -0.6762  0.7880  0.0896
 5695SOL     OW22545   1.001   4.039   4.944  0.2199 -0.4844  0.1236
 5695SOL    HW222546   1.018   3.984   5.021  0.6639 -1.8094 -0.8868
 5695SOL    HW322547   1.073   4.102   4.945  0.8479 -1.1850  0.1936
 5695SOL    MW422548   1.013   4.040   4.955  0.3614 -0.7517 -0.0005
 5696SOL     OW22549   0.527   2.289   3.137 -0.3452 -0.6686  0.1703
 5696SOL    HW222550   0.529   2.257   3.227 -2.1451  0.5913  0.7159
 5696SOL    HW322551   0.492   2.378   3.144  0.3090 -0.2062 -1.7066
 5696SOL    MW422552   0.523   2.296   3.150 -0.4963 -0.4414 -0.0054
 5697SOL     OW22553   4.833   1.537   6.311  0.2293 -0.4319 -0.0012
 5697SOL    HW222554   4.792   1.453   6.330  1.5640 -1.4635 -1.4933
 5697SOL    HW322555   4.793   1.566   6.229  0.1808  0.1312  0.2126
 5697SOL    MW422556   4.823   1.530   6.303  0.3990 -0.4937 -0.1698
 5698SOL     OW22557   2.849   1.306   1.898  0.4406 -0.0568 -0.2532
 5698SOL    HW222558   2.769   1.342   1.937 -0.2946 -1.4036 -0.4385
 5698SOL    HW322559   2.917   1.369   1.920 -0.9885  2.1390 -1.7261
 5698SOL    MW422560   2.847   1.319   1.906  0.1551  0.0552 -0.4720
 5699SOL     OW22561   1.341   1.100   0.431 -0.8118  0.1052  0.6793
 5699SOL    HW222562   1.255   1.059   0.445 -1.8722  1.7109 -0.6974
 5699SOL    HW322563   1.333   1.143   0.346  1.1023  0.9984  0.9010
 5699SOL    MW422564   1.329   1.100   0.422 -0.6992  0.4349  0.5269
 5700SOL     OW22565   2.173   0.050   0.997  0.8911 -0.6686 -0.3926
 5700SOL    HW222566   2.092   0.014   0.959  0.9418 -0.8009 -0.3764
 5700SOL    HW322567   2.157   0.144   1.003 -0.3081 -0.9490  2.0739
 5700SOL    MW422568   2.160   0.058   0.993  0.7396 -0.7230 -0.0650
 5701SOL     OW22569   4.814   1.380   4.975  0.4799 -0.1502 -0.5278
 5701SOL    HW222570   4.857   1.314   5.029  0.0353 -1.9578 -2.2399
 5701SOL    HW322571   4.866   1.460   4.988 -0.0922 -0.2238  3.1015
 5701SOL    MW422572   4.827   1.382   4.983  0.3457 -0.3984 -0.2748
 5702SOL     OW22573   6.157   3.512   1.640 -0.7077  0.7664  0.0409
 5702SOL    HW222574   6.219   3.520   1.713  1.6703 -0.4878 -1.7077
 5702SOL    HW322575   6.099   3.440   1.665 -0.0544  0.4853  0.7858
 5702SOL    MW422576   6.158   3.504   1.653 -0.3078  0.5639 -0.0915
 5703SOL     OW22577   1.160   5.544   1.499 -0.1320  0.1858 -0.0471
 5703SOL    HW222578   1.239   5.490   1.494 -1.1290 -1.2666 -3.3160
 5703SOL    HW322579   1.093   5.486   1.536 -0.1954  0.6303  0.5357
 5703SOL    MW422580   1.161   5.529   1.503 -0.2719  0.0529 -0.4015
 5704SOL     OW22581   5.289   5.935   0.472  0.3944  0.0832 -0.0479
 5704SOL    HW222582   5.349   5.961   0.542 -0.5833  0.1510  0.7881
 5704SOL    HW322583   5.204   5.970   0.499 -0.2221 -0.8526 -0.7070
 5704SOL    MW422584   5.286   5.943   0.485  0.1841 -0.0314 -0.0246
 5705SOL     OW22585   4.304   2.190   3.221  0.4213  0.2536 -0.3828
 5705SOL    HW222586   4.252   2.225   3.293  1.2468  0.1458  0.2809
 5705SOL    HW322587   4.259   2.220   3.142  0.3119  1.6314  0.1750
 5705SOL    MW422588   4.291   2.199   3.220  0.5158  0.4211 -0.2217
 5706SOL     OW22589   1.129   4.748   5.562 -0.0999  0.2036 -0.2422
 5706SOL    HW222590   1.183   4.685   5.608  0.7328  1.8630  1.1501
 5706SOL    HW322591   1.191   4.809   5.522 -0.8615 -0.2148 -2.1646
 5706SOL    MW422592   1.144   4.748   5.563 -0.0905  0.3673 -0.3121
 5707SOL     OW22593   1.415   3.439   4.952  1.0001 -0.3575  0.2157
 5707SOL    HW222594   1.415   3.371   4.885 -0.3233  0.2527 -0.4327
 5707SOL    HW322595   1.477   3.504   4.920  3.1179 -1.6948  1.3639
 5707SOL    MW422596   1.423   3.439   4.939  1.1049 -0.4534  0.2816
 5708SOL     OW22597   2.053   1.158   4.516  0.3810  0.3756  0.2443
 5708SOL    HW222598   1.967   1.196   4.497  0.3845 -0.0318 -0.6392
 5708SOL    HW322599   2.111   1.234   4.521 -0.0239  0.6519  0.8223
 5708SOL    MW422600   2.049   1.173   4.514  0.3280  0.3583  0.2040
 5709SOL     OW22601   5.466   5.437   4.919 -0.0925 -0.7344  0.0027
 5709SOL    HW222602   5.513   5.354   4.927  0.0746 -0.5164  1.7121
 5709SOL    HW322603   5.525   5.502   4.956 -0.6818 -0.0293 -0.2696
 5709SOL    MW422604   5.480   5.435   4.925 -0.1482 -0.6126  0.1923
 5710SOL     OW22605   1.369   1.853   6.079  0.6299  0.4932  0.3867
 5710SOL    HW222606   1.314   1.912   6.027  1.9667  1.0306 -0.4847
 5710SOL    HW322607   1.319   1.771   6.082 -0.0370  0.8248 -0.7291
 5710SOL    MW422608   1.355   1.850   6.072  0.7183  0.6079  0.1245
 5711SOL     OW22609   5.727   2.890   3.976  0.1084  0.1705  0.5745
 5711SOL    HW222610   5.702   2.928   4.060  0.7873  0.8536  0.4787
 5711SOL    HW322611   5.649   2.901   3.920 -0.1355  0.2556  0.9285
 5711SOL    MW422612   5.713   2.896   3.979  0.1658  0.2719  0.6086
 5712SOL     OW22613   2.122   3.425   5.803 -0.0261 -1.6009 -0.8228
 5712SOL    HW222614   2.150   3.347   5.754  0.1532 -1.9105 -0.2370
 5712SOL    HW322615   2.036   3.446   5.767  0.3446 -1.4840 -1.6607
 5712SOL    MW422616   2.114   3.417   5.792  0.0465 -1.6263 -0.8560
 5713SOL     OW22617   0.031   0.990   5.329  0.1044 -0.3030 -0.1454
 5713SOL    HW222618   0.030   0.911   5.382  3.7139 -1.2999 -1.2332
 5713SOL    HW322619  -0.014   0.965   5.248 -1.5498 -0.1732  0.7064
 5713SOL    MW422620   0.025   0.976   5.325  0.3624 -0.4174 -0.1765
 5714SOL     OW22621   2.324   1.948   4.829  0.1187 -0.3215 -0.0339
 5714SOL    HW222622   2.278   1.965   4.912  2.4076  2.7447  0.7969
 5714SOL    HW322623   2.416   1.944   4.853  0.6623 -2.5763 -2.1151
 5714SOL    MW422624   2.330   1.950   4.843  0.4924 -0.2144 -0.1989
 5715SOL     OW22625   3.166   5.267   2.687 -0.1207 -0.4030  0.5329
 5715SOL    HW222626   3.100   5.217   2.735 -1.2643  0.4439 -0.0947
 5715SOL    HW322627   3.120   5.347   2.661  0.9106 -0.1845 -0.6872
 5715SOL    MW422628   3.151   5.271   2.690 -0.1355 -0.2624  0.2891
 5716SOL     OW22629   6.302   3.879   4.366  0.5568  0.1105 -0.1845
 5716SOL    HW222630   6.254   3.945   4.316 -0.4650 -1.7612 -1.7842
 5716SOL    HW322631   6.383   3.866   4.317 -0.5055 -1.8242 -1.5490
 5716SOL    MW422632   6.306   3.886   4.353  0.2819 -0.3917 -0.5756
 5717SOL     OW22633   0.445   3.235   1.854  0.5648  0.1979  0.0150
 5717SOL    HW222634   0.524   3.226   1.907 -1.1996 -2.2035  2.5278
 5717SOL    HW322635   0.430   3.147   1.818 -1.8792  0.0466  1.1677
 5717SOL    MW422636   0.453   3.222   1.856  0.0096 -0.1389  0.4986
 5718SOL     OW22637   4.760   5.130   4.518 -0.3690 -0.3241  0.1794
 5718SOL    HW222638   4.668   5.107   4.532 -0.0273 -2.1838 -0.4531
 5718SOL    HW322639   4.799   5.124   4.605 -1.0001  1.4745  0.6432
 5718SOL    MW422640   4.753   5.126   4.532 -0.4072 -0.3322  0.1572
 5719SOL     OW22641   1.970   0.590   5.492 -0.0896 -0.0052 -0.1500
 5719SOL    HW222642   1.988   0.566   5.401  0.8073  0.9449 -0.2357
 5719SOL    HW322643   1.927   0.675   5.486  0.5348  0.3514  0.3366
 5719SOL    MW422644   1.966   0.598   5.479  0.1111  0.1672 -0.0971
 5720SOL     OW22645   2.467   1.506   3.810  0.2478  0.2596  0.1230
 5720SOL    HW222646   2.454   1.417   3.778  0.0826  0.6126 -0.8262
 5720SOL    HW322647   2.393   1.555   3.775 -0.0591  0.6291  1.2351
 5720SOL    MW422648   2.455   1.501   3.801  0.1855  0.3549  0.1444
 5721SOL     OW22649   4.697   4.014   2.047  0.2961  0.5129 -0.1110
 5721SOL    HW222650   4.655   4.092   2.084  1.1727  1.3370 -0.7932
 5721SOL    HW322651   4.655   4.002   1.962 -0.2141 -0.1005  0.2152
 5721SOL    MW422652   4.686   4.023   2.041  0.3445  0.5407 -0.1580
 5722SOL     OW22653   4.841   4.875   2.655  0.8749 -0.1846  0.4983
 5722SOL    HW222654   4.775   4.940   2.632  2.7836  1.5015 -0.5258
 5722SOL    HW322655   4.883   4.909   2.734  1.8373 -0.1721  0.0057
 5722SOL    MW422656   4.838   4.888   2.662  1.2537  0.0395  0.2982
 5723SOL     OW22657   5.101   4.266   2.951 -0.0373  0.1190  0.5391
 5723SOL    HW222658   5.063   4.240   2.867 -0.0279 -0.7255  0.7922
 5723SOL    HW322659   5.120   4.184   2.995 -1.2987  0.5395  1.9463
 5723SOL    MW422660   5.099   4.252   2.946 -0.2025  0.0631  0.7581
 5724SOL     OW22661   5.459   5.055   2.037 -0.1141 -0.0547  0.3540
 5724SOL    HW222662   5.528   5.100   1.989 -0.4299 -0.2666 -0.3079
 5724SOL    HW322663   5.464   4.964   2.007  0.1001 -0.3289  1.1999
 5724SOL    MW422664   5.469   5.049   2.027 -0.1275 -0.1188  0.3783
 5725SOL     OW22665   0.851   5.707   4.941  0.2171  0.0616  0.3934
 5725SOL    HW222666   0.819   5.730   5.028  0.4428  0.8948  0.2672
 5725SOL    HW322667   0.798   5.632   4.914  1.1324 -1.1754  1.8589
 5725SOL    MW422668   0.840   5.700   4.949  0.3676  0.0083  0.5701
 5726SOL     OW22669   3.079   1.276   1.626  0.1598 -0.0184 -0.2004
 5726SOL    HW222670   3.167   1.303   1.599  0.8351 -1.2552  0.6571
 5726SOL    HW322671   3.091   1.241   1.714 -1.0676 -0.9194 -0.3739
 5726SOL    MW422672   3.093   1.275   1.634  0.0869 -0.3005 -0.1102
 5727SOL     OW22673   0.696   4.709   0.341 -0.2273  0.2146  0.3875
 5727SOL    HW222674   0.726   4.796   0.369  0.7350 -0.5274  1.7541
 5727SOL    HW322675   0.617   4.694   0.392 -0.7733  0.5463 -0.3429
 5727SOL    MW422676   0.690   4.719   0.352 -0.1724  0.1604  0.4715
 5728SOL     OW22677   2.893   2.360   5.706 -0.7180  0.4456 -0.3965
 5728SOL    HW222678   2.850   2.397   5.783  0.2998 -1.0753  0.9825
 5728SOL    HW322679   2.834   2.290   5.677 -0.1627 -0.3295  0.2862
 5728SOL    MW422680   2.880   2.355   5.712 -0.5105  0.1427 -0.1245
 5729SOL     OW22681   0.046   0.451   1.514  0.1782 -0.3302 -0.0280
 5729SOL    HW222682  -0.032   0.408   1.480 -0.7170  0.3101  1.1339
 5729SOL    HW322683   0.021   0.543   1.521  0.5606 -0.3127  1.5882
 5729SOL    MW422684   0.033   0.458   1.511  0.1106 -0.2434  0.3385
 5730SOL     OW22685   0.157   0.638   4.865 -0.4335  0.0558  0.4996
 5730SOL    HW222686   0.126   0.724   4.894 -0.5518  0.4024 -0.6312
 5730SOL    HW322687   0.126   0.578   4.933 -0.3161  0.8995  1.3201
 5730SOL    MW422688   0.149   0.641   4.878 -0.4336  0.2129  0.4587
 5731SOL     OW22689   1.425   1.511   0.205 -0.0488  0.0309 -0.0597
 5731SOL    HW222690   1.513   1.547   0.214 -0.5595  1.4322 -0.4705
 5731SOL    HW322691   1.373   1.554   0.273 -0.4348 -0.7692  0.1698
 5731SOL    MW422692   1.429   1.521   0.215 -0.1671  0.1102 -0.0836
 5732SOL     OW22693   2.961   6.120   3.421  0.2420 -0.1067  0.4013
 5732SOL    HW222694   2.947   6.210   3.451  0.1512 -0.0876  0.3029
 5732SOL    HW322695   2.875   6.091   3.391 -0.1078 -0.8118  1.9898
 5732SOL    MW422696   2.948   6.128   3.421  0.1839 -0.1972  0.5979
 5733SOL     OW22697   5.251   4.645   3.188 -0.0064 -0.1638  0.0324
 5733SOL    HW222698   5.198   4.657   3.267 -1.3336  3.0951 -1.1796
 5733SOL    HW322699   5.207   4.574   3.141 -0.4885 -0.6822  1.2198
 5733SOL    MW422700   5.238   4.637   3.192 -0.2451  0.1977  0.0292
 5734SOL     OW22701   0.145   3.203  -0.009 -0.3911  0.2754  0.0366
 5734SOL    HW222702   0.053   3.204   0.018 -0.5861  2.0053 -0.5225
 5734SOL    HW322703   0.152   3.274  -0.073  1.0078 -0.8393 -1.1389
 5734SOL    MW422704   0.134   3.213  -0.014 -0.2322  0.3565 -0.1923
 5735SOL     OW22705   0.515   4.814   0.773  0.3962  0.1543  0.5561
 5735SOL    HW222706   0.437   4.771   0.808  0.3569  0.1473  0.4585
 5735SOL    HW322707   0.497   4.907   0.781  0.4370  0.1535  0.6657
 5735SOL    MW422708   0.503   4.820   0.779  0.3964  0.1533  0.5577
 5736SOL     OW22709   2.200   0.295   5.404  0.5175  0.1494  0.0305
 5736SOL    HW222710   2.291   0.325   5.397  0.5769  0.5205  1.8133
 5736SOL    HW322711   2.148   0.371   5.380  0.6645  0.0549 -0.6114
 5736SOL    MW422712   2.205   0.309   5.400  0.5447  0.1859  0.1810
 5737SOL     OW22713   0.768   1.310   5.125  0.8418  0.1382 -0.5490
 5737SOL    HW222714   0.816   1.295   5.043  1.3687  0.7430 -0.3611
 5737SOL    HW322715   0.787   1.234   5.179  0.5163 -0.2498 -0.9791
 5737SOL    MW422716   0.776   1.298   5.121  0.8684  0.1668 -0.5810
 5738SOL     OW22717   0.442   3.484   5.786 -0.0210 -0.5078  0.4490
 5738SOL    HW222718   0.476   3.563   5.743  1.7769 -2.3210 -1.6856
 5738SOL    HW322719   0.384   3.518   5.854 -0.6911  2.6317 -1.4531
 5738SOL    MW422720   0.439   3.499   5.789  0.1278 -0.3328 -0.0836
 5739SOL     OW22721   2.082   3.601   3.595  0.1324 -0.1677 -0.9367
 5739SOL    HW222722   2.037   3.620   3.678  0.8308  1.6975 -0.9385
 5739SOL    HW322723   2.157   3.548   3.620 -0.4308 -0.8067 -0.5668
 5739SOL    MW422724   2.086   3.596   3.609  0.1503 -0.0060 -0.8881
 5740SOL     OW22725   0.322   1.160   5.042  0.0754 -0.2462  0.4053
 5740SOL    HW222726   0.377   1.142   5.119 -0.9017 -0.8350  0.9853
 5740SOL    HW322727   0.256   1.091   5.044  0.4945 -0.7338 -1.4248
 5740SOL    MW422728   0.321   1.148   5.053  0.0018 -0.3882  0.2403
 5741SOL     OW22729   4.609   5.981   4.342  0.2148  0.5550  0.1888
 5741SOL    HW222730   4.666   5.946   4.410  0.8411 -0.4754 -0.8278
 5741SOL    HW322731   4.589   5.906   4.286 -2.9869  0.6395  1.0099
 5741SOL    MW422732   4.614   5.967   4.344 -0.1250  0.4302  0.1630
 5742SOL     OW22733   5.801   2.529   1.618  0.1088 -0.1830 -0.0432
 5742SOL    HW222734   5.885   2.574   1.628  0.3339 -0.4616 -0.6388
 5742SOL    HW322735   5.824   2.436   1.619  0.2475 -0.3022 -3.3258
 5742SOL    MW422736   5.815   2.523   1.620  0.1568 -0.2355 -0.5549
 5743SOL     OW22737   0.439   2.204   0.887  0.5583  0.5451 -0.0704
 5743SOL    HW222738   0.532   2.205   0.909  1.2396  1.2807 -2.5802
 5743SOL    HW322739   0.435   2.151   0.807 -1.4789 -0.9309  0.9083
 5743SOL    MW422740   0.451   2.197   0.879  0.3794  0.4474 -0.2724
 5744SOL     OW22741   5.525   5.246   3.064 -0.1051 -0.0047 -0.1639
 5744SOL    HW222742   5.585   5.317   3.087 -0.0838 -0.4832  1.4543
 5744SOL    HW322743   5.446   5.289   3.034 -1.1686  0.9089  3.4262
 5744SOL    MW422744   5.523   5.261   3.063 -0.2426  0.0527  0.5232
 5745SOL     OW22745   4.140   4.152   4.245  0.3359  0.4422 -0.2185
 5745SOL    HW222746   4.192   4.186   4.317  0.4275 -0.3803  0.1146
 5745SOL    HW322747   4.188   4.075   4.214 -0.5375 -0.1953 -0.0550
 5745SOL    MW422748   4.153   4.146   4.250  0.2327  0.2495 -0.1530
 5746SOL     OW22749   1.743   2.068   4.033 -0.0212  0.3242 -0.4366
 5746SOL    HW222750   1.737   2.129   3.960 -1.4438  0.8724  0.0984
 5746SOL    HW322751   1.836   2.046   4.039 -0.0674 -1.2460 -3.6048
 5746SOL    MW422752   1.754   2.073   4.024 -0.2150  0.1894 -0.7840
 5747SOL     OW22753   4.132   5.343   5.269  0.0456 -0.1136 -0.0721
 5747SOL    HW222754   4.057   5.397   5.293 -0.2656 -0.2232 -0.7653
 5747SOL    HW322755   4.119   5.260   5.316  0.2085  0.1973  0.5198
 5747SOL    MW422756   4.121   5.339   5.278  0.0260 -0.0870 -0.0854
 5748SOL     OW22757   1.763   6.397   2.808 -0.1612 -0.4006 -0.1567
 5748SOL    HW222758   1.757   6.490   2.829  1.0405  0.1090 -1.7914
 5748SOL    HW322759   1.672   6.367   2.802 -0.5564  0.6230  0.5424
 5748SOL    MW422760   1.750   6.405   2.810 -0.0548 -0.1983 -0.2801
 5749SOL     OW22761   6.118   1.510   0.425 -0.0347  0.1065  0.2890
 5749SOL    HW222762   6.086   1.464   0.503  1.9919  0.4572  1.4079
 5749SOL    HW322763   6.211   1.522   0.441  0.9288 -1.5799 -3.1153
 5749SOL    MW422764   6.126   1.505   0.438  0.3598 -0.0697 -0.0125
 5750SOL     OW22765   2.742   1.347   4.955  0.6251 -0.4189 -0.2492
 5750SOL    HW222766   2.742   1.417   5.020 -1.1318 -0.4109 -0.2170
 5750SOL    HW322767   2.826   1.356   4.910 -0.4382  3.2065 -1.8272
 5750SOL    MW422768   2.753   1.357   4.958  0.2530  0.0605 -0.4532
 5751SOL     OW22769   2.009   1.472   2.736  0.4052 -0.3131  0.1462
 5751SOL    HW222770   1.920   1.445   2.715  0.6424  0.3853 -2.1513
 5751SOL    HW322771   2.006   1.568   2.736  1.3316 -0.2374 -1.2294
 5751SOL    MW422772   1.997   1.481   2.733  0.5587 -0.2110 -0.3384
 5752SOL     OW22773   4.350   5.948   4.490  0.4380 -0.2325 -0.2958
 5752SOL    HW222774   4.256   5.943   4.505  0.3902  1.7851  0.3102
 5752SOL    HW322775   4.359   5.973   4.398  0.4520 -1.6958 -0.7198
 5752SOL    MW422776   4.339   5.951   4.480  0.4336 -0.1594 -0.2718
 5753SOL     OW22777   1.943   6.048   5.743  0.5526  0.4802 -0.0889
 5753SOL    HW222778   1.903   5.997   5.813  0.8803 -0.7790 -0.7998
 5753SOL    HW322779   2.023   6.001   5.721 -0.0825  0.2258 -2.0526
 5753SOL    MW422780   1.948   6.035   5.749  0.5120  0.2805 -0.4418
 5754SOL     OW22781   3.887   5.458   0.024 -0.5350  0.3331 -0.6966
 5754SOL    HW222782   3.794   5.473   0.039 -1.0276 -0.9737 -2.1881
 5754SOL    HW322783   3.916   5.405   0.098 -1.0202  0.5427 -0.3557
 5754SOL    MW422784   3.879   5.453   0.035 -0.6640  0.1883 -0.8484
 5755SOL     OW22785   0.621   1.113   4.271 -0.0106  0.3574 -0.0907
 5755SOL    HW222786   0.531   1.100   4.301  0.1189 -1.6274 -0.4606
 5755SOL    HW322787   0.669   1.136   4.351 -0.4943 -0.5084  0.4705
 5755SOL    MW422788   0.615   1.114   4.286 -0.0574 -0.0187 -0.0654
 5756SOL     OW22789   5.174   2.705   0.895 -0.4964  0.6020  0.2279
 5756SOL    HW222790   5.126   2.645   0.838 -1.9433  3.3926 -1.7375
 5756SOL    HW322791   5.231   2.754   0.836  1.6449  0.3289  1.9454
 5756SOL    MW422792   5.175   2.704   0.880 -0.4048  0.9341  0.1952
 5757SOL     OW22793   2.893   1.830   0.361 -0.3430 -0.5035 -0.1728
 5757SOL    HW222794   2.953   1.873   0.300 -0.0751  1.8895  1.6158
 5757SOL    HW322795   2.808   1.871   0.344 -0.7613 -1.4709 -0.4617
 5757SOL    MW422796   2.889   1.841   0.351 -0.3628 -0.3154  0.0251
 5758SOL     OW22797   2.610   2.279   6.388  0.1728  0.0066  0.7416
 5758SOL    HW222798   2.703   2.291   6.407  0.3958  1.8529 -1.2016
 5758SOL    HW322799   2.566   2.299   6.470  1.4472 -0.3304  1.5376
 5758SOL    MW422800   2.617   2.283   6.401  0.3704  0.2057  0.5902
 5759SOL     OW22801   4.625   2.143   1.692  0.0888  0.9104  0.3428
 5759SOL    HW222802   4.563   2.159   1.763 -1.3470 -3.2890  0.2705
 5759SOL    HW322803   4.573   2.099   1.625  2.7425 -1.2614 -0.4424
 5759SOL    MW422804   4.610   2.140   1.693  0.2495  0.0698  0.2296
 5760SOL     OW22805   1.969   5.143   2.479  0.2934 -1.2491 -0.1748
 5760SOL    HW222806   1.887   5.121   2.434  0.5851 -1.4821 -0.6022
 5760SOL    HW322807   1.941   5.186   2.559 -0.2367 -0.7863 -0.6008
 5760SOL    MW422808   1.954   5.146   2.483  0.2619 -1.2188 -0.2874
 5761SOL     OW22809   4.961   2.012   0.880 -0.5536 -0.2568  0.0173
 5761SOL    HW222810   5.026   1.951   0.916  1.4315  0.0259 -2.7428
 5761SOL    HW322811   4.987   2.098   0.914  0.1135 -0.2459 -0.5011
 5761SOL    MW422812   4.973   2.016   0.889 -0.2037 -0.2180 -0.4153
 5762SOL     OW22813   0.832   6.150   1.158  0.2449 -0.3396  0.6237
 5762SOL    HW222814   0.911   6.137   1.211  1.2564  0.1445 -0.6950
 5762SOL    HW322815   0.850   6.230   1.108 -0.2419 -1.2579 -1.1307
 5762SOL    MW422816   0.845   6.159   1.158  0.3141 -0.3969  0.2183
 5763SOL     OW22817   1.241   4.842   3.946  0.1295  0.4237  0.3873
 5763SOL    HW222818   1.208   4.907   3.884  1.2175  0.6255 -0.0004
 5763SOL    HW322819   1.334   4.833   3.924  0.0415 -1.1281  0.5501
 5763SOL    MW422820   1.249   4.849   3.935  0.2614  0.2456  0.3577
 5764SOL     OW22821   2.215   3.096   3.184  0.4759  0.2078 -0.1769
 5764SOL    HW222822   2.242   3.116   3.274 -0.5060 -1.4188  0.5141
 5764SOL    HW322823   2.149   3.162   3.164 -1.1939 -0.9369  1.2858
 5764SOL    MW422824   2.210   3.107   3.193  0.1261 -0.1578  0.1072
 5765SOL     OW22825   5.208   4.044   0.823  0.3640  0.0248 -0.4377
 5765SOL    HW222826   5.166   4.120   0.783  0.5852  0.6943  0.5772
 5765SOL    HW322827   5.149   3.971   0.802  0.0334  0.4968 -1.2278
 5765SOL    MW422828   5.195   4.045   0.815  0.3496  0.1754 -0.4081
 5766SOL     OW22829   2.827   5.909   4.192  0.0300  0.3389  0.0177
 5766SOL    HW222830   2.920   5.926   4.176  0.3620 -0.7323  0.7105
 5766SOL    HW322831   2.824   5.819   4.224 -1.3445  0.0325 -0.8762
 5766SOL    MW422832   2.839   5.899   4.194 -0.1075  0.1571 -0.0088
 5767SOL     OW22833   5.617   5.027   5.794 -0.6907  0.2035 -0.1347
 5767SOL    HW222834   5.556   4.959   5.824 -0.2814  0.9405  2.6864
 5767SOL    HW322835   5.691   5.020   5.854  0.0359  2.1468 -0.7246
 5767SOL    MW422836   5.619   5.017   5.806 -0.5408  0.5571  0.1596
 5768SOL     OW22837   5.570   0.899   1.229  0.1520  0.4119 -0.1238
 5768SOL    HW222838   5.603   0.958   1.298  1.7065  0.5248 -0.9074
 5768SOL    HW322839   5.559   0.956   1.153 -0.5565  0.0915 -0.2665
 5768SOL    MW422840   5.573   0.915   1.228  0.2636  0.3846 -0.2460
 5769SOL     OW22841   1.501   3.780   5.956 -0.3764  0.3166  0.4526
 5769SOL    HW222842   1.477   3.829   6.034 -0.3895  1.3034 -0.1496
 5769SOL    HW322843   1.438   3.809   5.890 -0.1175 -0.2021 -0.0269
 5769SOL    MW422844   1.490   3.791   5.957 -0.3440  0.3783  0.3099
 5770SOL     OW22845   4.899   1.842   4.265  0.3233  0.2019 -0.3771
 5770SOL    HW222846   4.812   1.882   4.272 -0.1542 -0.5354 -1.6872
 5770SOL    HW322847   4.899   1.801   4.179  2.2622  0.7981 -0.6893
 5770SOL    MW422848   4.887   1.842   4.255  0.5161  0.1833 -0.5912
 5771SOL     OW22849   0.619   2.833   4.014 -0.4864 -0.0147  0.1246
 5771SOL    HW222850   0.577   2.917   3.996  1.3921  1.3976  1.8551
 5771SOL    HW322851   0.554   2.784   4.065 -0.0942  2.2439  3.0733
 5771SOL    MW422852   0.605   2.838   4.018 -0.1868  0.4696  0.7420
 5772SOL     OW22853   4.597   5.805   5.902 -0.4088 -0.1415 -0.4905
 5772SOL    HW222854   4.547   5.878   5.866 -0.4235 -1.0979 -2.5371
 5772SOL    HW322855   4.677   5.803   5.851 -0.3197 -1.4268 -0.3241
 5772SOL    MW422856   4.601   5.814   5.891 -0.3990 -0.4372 -0.7386
 5773SOL     OW22857   0.400   3.801   5.182  0.0136  0.5612 -0.0915
 5773SOL    HW222858   0.335   3.774   5.116  0.8145 -0.0031 -0.6704
 5773SOL    HW322859   0.475   3.829   5.130  0.5986  0.2546  0.5853
 5773SOL    MW422860   0.401   3.801   5.166  0.1965  0.4463 -0.0786
 5774SOL     OW22861   1.212   0.938   4.307  0.6187 -0.3683  0.3315
 5774SOL    HW222862   1.118   0.938   4.325  0.6826 -0.6596  0.6679
 5774SOL    HW322863   1.236   0.846   4.301  0.8960 -0.2963  0.3178
 5774SOL    MW422864   1.203   0.926   4.308  0.6638 -0.3972  0.3741
 5775SOL     OW22865   1.831   2.861   2.301  0.3035  0.6319 -0.1792
 5775SOL    HW222866   1.893   2.894   2.366 -0.6901 -0.5957  1.4689
 5775SOL    HW322867   1.773   2.936   2.284  0.5967  0.9764  0.3142
 5775SOL    MW422868   1.831   2.875   2.307  0.2111  0.5154  0.1034
 5776SOL     OW22869   1.146   4.924   5.956  0.0942  0.6100  0.0496
 5776SOL    HW222870   1.223   4.885   5.914  0.2001 -0.3186  1.0431
 5776SOL    HW322871   1.073   4.904   5.897  0.3930  0.2227 -0.1931
 5776SOL    MW422872   1.147   4.916   5.943  0.1476  0.4364  0.1486
 5777SOL     OW22873   1.472   0.025   1.774 -0.1890  0.0154 -0.4781
 5777SOL    HW222874   1.458   0.098   1.834 -0.0024  0.4070 -0.9048
 5777SOL    HW322875   1.561  -0.005   1.793 -1.1921 -1.9083  1.6237
 5777SOL    MW422876   1.482   0.030   1.784 -0.2968 -0.1867 -0.2571
 5778SOL     OW22877   1.306   1.124   5.885 -0.0313 -0.3550 -0.1420
 5778SOL    HW222878   1.327   1.125   5.979  2.9898 -1.1912 -0.6802
 5778SOL    HW322879   1.391   1.138   5.842 -1.0296 -1.7150 -2.7652
 5778SOL    MW422880   1.320   1.126   5.892  0.2356 -0.6448 -0.5591
 5779SOL     OW22881   6.136   3.529   2.499 -0.2492 -0.1398  0.5138
 5779SOL    HW222882   6.220   3.574   2.506  0.7465 -1.8535  0.1920
 5779SOL    HW322883   6.070   3.597   2.514  1.1831  1.2949  0.4739
 5779SOL    MW422884   6.138   3.544   2.502  0.0712 -0.1766  0.4661
 5780SOL     OW22885   3.426   3.440   2.025  0.2060 -0.3125 -0.0341
 5780SOL    HW222886   3.478   3.448   1.945  0.1115  0.2979 -0.0462
 5780SOL    HW322887   3.352   3.384   2.001 -1.0961  1.7127 -1.0674
 5780SOL    MW422888   3.423   3.434   2.011  0.0217  0.0352 -0.1720
 5781SOL     OW22889   5.514   0.913   5.918 -0.7038  0.0612  0.2342
 5781SOL    HW222890   5.475   0.826   5.912 -0.1207 -0.3321  1.6258
 5781SOL    HW322891   5.443   0.969   5.947 -0.6843 -0.3022  1.0084
 5781SOL    MW422892   5.500   0.909   5.921 -0.6243 -0.0386  0.5199
 5782SOL     OW22893   2.536   4.017   5.922  0.3106  0.4183  0.0151
 5782SOL    HW222894   2.452   3.989   5.887  0.3644 -0.3060  0.4591
 5782SOL    HW322895   2.517   4.045   6.012  0.0437  2.9303 -0.7369
 5782SOL    MW422896   2.523   4.017   5.930  0.2825  0.6542 -0.0255
 5783SOL     OW22897   0.769   2.140   4.317  0.7406  0.3686 -0.2542
 5783SOL    HW222898   0.766   2.230   4.349  0.3742  0.6804 -1.1393
 5783SOL    HW322899   0.822   2.145   4.238  2.6657 -0.5947  0.9014
 5783SOL    MW422900   0.776   2.153   4.311  0.9462  0.2826 -0.2185
 5784SOL     OW22901   6.143   3.410   3.667 -0.6016  0.1139  0.2500
 5784SOL    HW222902   6.194   3.442   3.741 -0.6970  0.0548  0.3392
 5784SOL    HW322903   6.155   3.315   3.668 -1.3986  0.0152  0.7678
 5784SOL    MW422904   6.152   3.402   3.677 -0.7194  0.0931  0.3301
 5785SOL     OW22905   3.688   4.089   3.409 -0.1124  0.0831  0.1667
 5785SOL    HW222906   3.650   4.080   3.321 -0.1291  2.7604 -0.1969
 5785SOL    HW322907   3.613   4.099   3.467 -0.1028 -1.7383  0.5383
 5785SOL    MW422908   3.673   4.089   3.405 -0.1133  0.1960  0.1677
 5786SOL     OW22909   5.843   1.000   3.955 -0.4788  0.3125 -0.0448
 5786SOL    HW222910   5.923   0.966   3.994 -1.4985 -0.4600  1.4682
 5786SOL    HW322911   5.798   0.923   3.922 -1.0607  0.6215  0.0155
 5786SOL    MW422912   5.848   0.986   3.956 -0.6901  0.2514  0.1627
 5787SOL     OW22913   0.425   4.727   3.767  0.1884 -0.3032 -0.0783
 5787SOL    HW222914   0.362   4.674   3.718 -0.8285 -0.1209  1.0042
 5787SOL    HW322915   0.461   4.667   3.832 -0.0175  0.0055  0.3192
 5787SOL    MW422916   0.422   4.712   3.769  0.0271 -0.2384  0.1170
 5788SOL     OW22917   3.491   3.690   5.796  0.0147  0.1404 -0.0313
 5788SOL    HW222918   3.439   3.654   5.868 -0.0642 -0.4080 -0.3558
 5788SOL    HW322919   3.571   3.723   5.838  0.6005 -1.4378  0.1508
 5788SOL    MW422920   3.495   3.689   5.811  0.0816 -0.1401 -0.0501
 5789SOL     OW22921   1.179   3.447   4.584 -0.0581 -0.2226 -0.8657
 5789SOL    HW222922   1.121   3.488   4.521 -0.8984 -0.5165 -0.3071
 5789SOL    HW322923   1.224   3.378   4.535  0.5653  0.6518 -1.5397
 5789SOL    MW422924   1.177   3.443   4.569 -0.0867 -0.1460 -0.8809
 5790SOL     OW22925   1.265   4.929   1.716 -0.4618  0.0114  0.3820
 5790SOL    HW222926   1.208   4.986   1.664 -1.3426 -0.1306  1.1612
 5790SOL    HW322927   1.285   4.856   1.658  0.4808  0.9666 -0.5478
 5790SOL    MW422928   1.260   4.927   1.701 -0.4536  0.1187  0.3621
 5791SOL     OW22929   0.503   2.637   2.353  0.4741 -1.0057  0.0443
 5791SOL    HW222930   0.587   2.681   2.361 -1.8742  3.7502  2.8773
 5791SOL    HW322931   0.487   2.599   2.440 -1.1624  0.1864  0.3105
 5791SOL    MW422932   0.512   2.638   2.366 -0.0517 -0.2209  0.4532
 5792SOL     OW22933   6.218   4.314   3.895 -0.2861  0.4645  0.0433
 5792SOL    HW222934   6.252   4.349   3.813 -1.6257 -0.4548 -0.9379
 5792SOL    HW322935   6.287   4.257   3.928 -0.7620 -1.2957 -1.8523
 5792SOL    MW422936   6.231   4.311   3.889 -0.5256  0.1110 -0.3363
 5793SOL     OW22937   1.671   2.152   2.740  0.2313  0.3946  0.0471
 5793SOL    HW222938   1.620   2.149   2.660  0.2066 -0.1404  0.0737
 5793SOL    HW322939   1.761   2.135   2.712  0.0803 -0.8306  0.2335
 5793SOL    MW422940   1.676   2.149   2.726  0.2081  0.1624  0.0752
 5794SOL     OW22941   6.393   3.076   3.463 -0.0609 -0.2488 -0.0192
 5794SOL    HW222942   6.400   2.983   3.441 -0.4263  0.1225 -1.8918
 5794SOL    HW322943   6.312   3.082   3.514  0.0710 -0.9738  0.2990
 5794SOL    MW422944   6.383   3.064   3.467 -0.0917 -0.2955 -0.2243
 5795SOL     OW22945   2.438   1.645   2.450 -0.0881  0.0459 -0.3712
 5795SOL    HW222946   2.365   1.607   2.401 -2.7769  1.5262  2.1075
 5795SOL    HW322947   2.476   1.572   2.498 -2.3026 -0.3215  0.9642
 5795SOL    MW422948   2.433   1.631   2.450 -0.7350  0.1927  0.1320
 5796SOL     OW22949   3.263   5.669   4.419  0.7529 -0.4099 -0.5524
 5796SOL    HW222950   3.201   5.599   4.399 -0.2745  0.1515  0.5251
 5796SOL    HW322951   3.301   5.644   4.503 -0.4112  0.8118  0.3751
 5796SOL    MW422952   3.260   5.656   4.427  0.4637 -0.1747 -0.2879
 5797SOL     OW22953   5.665   4.365   2.582  0.3889 -0.5655 -0.0186
 5797SOL    HW222954   5.740   4.307   2.567 -0.3367 -1.4497 -0.2993
 5797SOL    HW322955   5.609   4.352   2.506 -0.2768 -0.2571  0.4126
 5797SOL    MW422956   5.668   4.356   2.570  0.2053 -0.6415  0.0013
 5798SOL     OW22957   3.623   1.961   5.181  0.4846  0.5414 -0.0995
 5798SOL    HW222958   3.597   2.022   5.111  1.1461  1.7430  0.6584
 5798SOL    HW322959   3.707   1.996   5.212  0.3582 -0.1663  1.0755
 5798SOL    MW422960   3.631   1.974   5.176  0.5552  0.6065  0.1555
 5799SOL     OW22961   4.067   1.227   0.989  0.5566  0.1621 -0.4660
 5799SOL    HW222962   4.158   1.247   1.010  0.2897 -0.6164  1.7095
 5799SOL    HW322963   4.023   1.225   1.074 -1.3241 -0.3447 -1.3977
 5799SOL    MW422964   4.073   1.230   1.003  0.2732 -0.0075 -0.3019
 5800SOL     OW22965   2.592   4.010   3.372  0.0389 -0.1371 -0.4140
 5800SOL    HW222966   2.645   3.963   3.307  0.6551  0.5772 -0.4515
 5800SOL    HW322967   2.653   4.075   3.409 -0.3704 -0.3960  0.7288
 5800SOL    MW422968   2.607   4.012   3.368  0.0662 -0.0770 -0.2681
 5801SOL     OW22969   5.426   2.249   0.354  0.2529 -0.0123  0.4169
 5801SOL    HW222970   5.464   2.244   0.267 -1.1187  0.0843 -0.2110
 5801SOL    HW322971   5.376   2.167   0.363 -0.7148  0.5731  0.5563
 5801SOL    MW422972   5.424   2.237   0.344 -0.0558  0.0777  0.3524
 5802SOL     OW22973   4.815   4.715   3.729  0.0064 -0.0427 -0.1394
 5802SOL    HW222974   4.729   4.727   3.770  0.5793  1.6884  0.6861
 5802SOL    HW322975   4.843   4.628   3.756 -0.5346  0.2603  1.5184
 5802SOL    MW422976   4.808   4.705   3.738  0.0106  0.2257  0.1882
 5803SOL     OW22977   2.977   4.580   0.581  0.1598  0.1421  0.2557
 5803SOL    HW222978   2.967   4.502   0.526 -0.1593 -1.1723  2.0987
 5803SOL    HW322979   3.069   4.605   0.571  0.1659 -0.2108 -0.6598
 5803SOL    MW422980   2.988   4.573   0.572  0.1185 -0.0779  0.3781
 5804SOL     OW22981   5.611   2.551   3.372 -0.1993 -0.2371 -0.2059
 5804SOL    HW222982   5.702   2.532   3.393 -0.2024  0.6849  0.6867
 5804SOL    HW322983   5.564   2.470   3.394  0.1680 -0.1390  1.0015
 5804SOL    MW422984   5.617   2.537   3.377 -0.1513 -0.1025  0.0712
 5805SOL     OW22985   1.092   3.053   1.291  0.1669  0.2320 -0.6092
 5805SOL    HW222986   1.123   3.143   1.307 -0.8574  0.3903  0.7224
 5805SOL    HW322987   1.128   3.003   1.364 -0.2760 -0.1762 -0.6695
 5805SOL    MW422988   1.100   3.058   1.303 -0.0267  0.1990 -0.4415
 5806SOL     OW22989   5.093   3.676   0.598 -0.4084 -0.3615  0.2636
 5806SOL    HW222990   5.031   3.743   0.628  0.8439  0.0258  2.1589
 5806SOL    HW322991   5.140   3.651   0.677  0.3376 -2.2609 -0.7314
 5806SOL    MW422992   5.091   3.682   0.612 -0.1447 -0.5610  0.3824
 5807SOL     OW22993   5.355   1.849   1.551 -0.2965 -0.3346  0.1670
 5807SOL    HW222994   5.270   1.894   1.548 -0.0816  0.0793  0.1776
 5807SOL    HW322995   5.360   1.812   1.639 -0.3778 -0.1868  0.2339
 5807SOL    MW422996   5.344   1.850   1.562 -0.2789 -0.2605  0.1772
 5808SOL     OW22997   2.244   5.563   4.081  0.9842  0.2033  0.1857
 5808SOL    HW222998   2.332   5.566   4.045  1.3234 -2.2922  0.5966
 5808SOL    HW322999   2.256   5.555   4.176  0.1520  4.0989  0.7826
 5808SOL    MW423000   2.257   5.562   4.089  0.9192  0.3880  0.3186
 5809SOL     OW23001   4.202   0.244   4.748  0.7976  0.2657  0.2546
 5809SOL    HW223002   4.209   0.297   4.827  0.9958 -2.5578  2.2780
 5809SOL    HW323003   4.269   0.176   4.759  1.7536  0.5006 -3.0212
 5809SOL    MW423004   4.212   0.242   4.760  0.9499 -0.0758  0.0893
 5810SOL     OW23005   4.669   4.462   1.965 -0.1027 -0.4523  0.1093
 5810SOL    HW223006   4.638   4.506   2.045  0.5947  0.2767 -0.0137
 5810SOL    HW323007   4.763   4.454   1.977  0.4772  2.3093 -1.8660
 5810SOL    MW423008   4.677   4.467   1.977  0.0658  0.0082 -0.1675
 5811SOL     OW23009   5.559   3.058   4.986  0.3397  0.1947 -0.0623
 5811SOL    HW223010   5.634   3.105   5.023  0.4540  0.5310 -0.7098
 5811SOL    HW323011   5.583   2.966   4.994 -0.0959  0.2035  1.6661
 5811SOL    MW423012   5.572   3.052   4.992  0.2973  0.2402  0.0803
 5812SOL     OW23013   2.507   2.287   2.178 -0.3385  0.3085  0.7333
 5812SOL    HW223014   2.494   2.306   2.271 -0.1861  0.2273  0.7722
 5812SOL    HW323015   2.439   2.222   2.157  0.7170 -1.0114  1.2268
 5812SOL    MW423016   2.496   2.281   2.187 -0.1791  0.1236  0.8036
 5813SOL     OW23017   5.810   2.327   2.496 -0.0764 -0.0558 -0.4613
 5813SOL    HW223018   5.881   2.339   2.433  0.2519 -0.5282 -0.1889
 5813SOL    HW323019   5.823   2.396   2.560  0.0442 -0.0400 -0.5013
 5813SOL    MW423020   5.821   2.338   2.496 -0.0172 -0.1160 -0.4306
 5814SOL     OW23021   5.098   0.175   6.033  0.3644  0.3897  0.2656
 5814SOL    HW223022   5.106   0.251   6.090  1.2727  0.1134  0.5164
 5814SOL    HW323023   5.086   0.101   6.093 -1.2866  0.3985  0.0081
 5814SOL    MW423024   5.097   0.175   6.049  0.2664  0.3544  0.2648
 5815SOL     OW23025   5.946   5.871   2.983 -0.1749 -0.2772 -0.1088
 5815SOL    HW223026   6.029   5.856   3.030  0.0908 -1.2544 -0.8624
 5815SOL    HW323027   5.956   5.959   2.946  0.2307 -0.1027  0.3829
 5815SOL    MW423028   5.958   5.881   2.985 -0.0863 -0.3831 -0.1433
 5816SOL     OW23029   0.865   1.623   1.576  0.2142  0.1340 -0.1147
 5816SOL    HW223030   0.890   1.571   1.653 -0.0534  1.2968  0.7877
 5816SOL    HW323031   0.818   1.562   1.519  0.3469 -0.7268  0.6835
 5816SOL    MW423032   0.862   1.608   1.579  0.1964  0.1738  0.1097
 5817SOL     OW23033   5.979   1.157   1.708  0.7847 -0.9070  0.4746
 5817SOL    HW223034   5.984   1.160   1.803  1.1537 -0.1224  0.4328
 5817SOL    HW323035   5.927   1.078   1.689 -0.9240 -0.0506  1.3785
 5817SOL    MW423036   5.973   1.147   1.718  0.6080 -0.6905  0.5884
 5818SOL     OW23037   5.739   0.758   3.395 -0.5866  0.1949 -0.5547
 5818SOL    HW223038   5.762   0.802   3.477 -0.0498 -0.0095 -0.5916
 5818SOL    HW323039   5.646   0.777   3.383 -0.4922  0.8507 -0.2853
 5818SOL    MW423040   5.730   0.766   3.404 -0.5033  0.2545 -0.5241
 5819SOL     OW23041   3.599   5.599   2.390 -0.0933  0.9956  0.1190
 5819SOL    HW223042   3.563   5.687   2.393 -2.5975  0.0572 -0.2230
 5819SOL    HW323043   3.565   5.562   2.308 -2.7298 -1.6549  2.2214
 5819SOL    MW423044   3.590   5.606   2.379 -0.7715  0.5221  0.3513
 5820SOL     OW23045   2.943   2.323   1.064  0.2285  0.1968  0.3995
 5820SOL    HW223046   3.032   2.355   1.077  0.1708  0.9460 -0.9030
 5820SOL    HW323047   2.952   2.249   1.004 -0.0073  0.0803  0.5060
 5820SOL    MW423048   2.956   2.317   1.058  0.1898  0.2803  0.2417
 5821SOL     OW23049   4.844   1.124   4.800  0.2355 -0.0885 -0.2603
 5821SOL    HW223050   4.835   1.128   4.705  1.3532  0.6375 -0.3515
 5821SOL    HW323051   4.761   1.159   4.833 -0.7782 -1.7432 -0.9261
 5821SOL    MW423052   4.832   1.129   4.792  0.2492 -0.2111 -0.3602
 5822SOL     OW23053   2.917   0.598   2.952 -0.6387  0.2730  1.0945
 5822SOL    HW223054   2.858   0.548   2.894 -0.6413  1.0452  0.4091
 5822SOL    HW323055   2.945   0.672   2.898  0.3514  0.3360  1.6823
 5822SOL    MW423056   2.913   0.601   2.937 -0.5084  0.3832  1.0816
 5823SOL     OW23057   0.378   1.949   5.977 -0.3129 -0.3201 -0.5457
 5823SOL    HW223058   0.284   1.953   5.963 -0.2499  1.5071 -0.7651
 5823SOL    HW323059   0.392   1.997   6.058  0.4791 -0.0102 -0.8546
 5823SOL    MW423060   0.368   1.956   5.986 -0.2001 -0.0381 -0.6154
 5824SOL     OW23061   1.393   4.194   4.017 -0.5188 -0.1616 -0.1679
 5824SOL    HW223062   1.301   4.184   3.992 -0.5377 -0.4732  0.0275
 5824SOL    HW323063   1.443   4.161   3.942 -0.5689 -0.3505 -0.1177
 5824SOL    MW423064   1.388   4.189   4.004 -0.5279 -0.2277 -0.1355
 5825SOL     OW23065   3.304   3.177   5.479 -0.1262  0.3848  0.2673
 5825SOL    HW223066   3.254   3.259   5.478 -0.6982  0.0547  1.1071
 5825SOL    HW323067   3.386   3.200   5.436 -0.2774  1.4048  0.4745
 5825SOL    MW423068   3.308   3.191   5.473 -0.2216  0.4759  0.4055
 5826SOL     OW23069   4.972   3.216   3.456  0.0232 -0.2265 -0.8512
 5826SOL    HW223070   5.009   3.197   3.542  0.2105  0.1908 -0.8405
 5826SOL    HW323071   4.878   3.229   3.473  0.4770  2.8607 -0.2150
 5826SOL    MW423072   4.964   3.215   3.469  0.1078  0.2359 -0.7658
 5827SOL     OW23073   5.194   2.715   0.142 -0.1630 -0.7632  0.0280
 5827SOL    HW223074   5.119   2.722   0.199 -1.2926 -1.2096 -1.3426
 5827SOL    HW323075   5.198   2.622   0.118 -0.2408 -0.4516 -1.2608
 5827SOL    MW423076   5.185   2.704   0.146 -0.3223 -0.7810 -0.3229
 5828SOL     OW23077   3.119   4.365   0.196 -0.1636 -0.1993  0.9409
 5828SOL    HW223078   3.088   4.362   0.286  1.3626  0.2695  1.5130
 5828SOL    HW323079   3.139   4.458   0.180  0.0866 -0.3531  0.3161
 5828SOL    MW423080   3.118   4.377   0.206  0.0708 -0.1578  0.9339
 5829SOL     OW23081   5.344   4.324   3.463 -0.4155 -0.1421  0.0128
 5829SOL    HW223082   5.250   4.310   3.453 -0.4723 -2.5192  2.5215
 5829SOL    HW323083   5.385   4.246   3.425  0.4736  0.3668 -0.1092
 5829SOL    MW423084   5.337   4.312   3.457 -0.3056 -0.3886  0.3277
 5830SOL     OW23085   1.959   2.708   3.384 -0.0472 -0.3785 -0.6583
 5830SOL    HW223086   1.864   2.692   3.382 -0.4139  1.5110 -0.4523
 5830SOL    HW323087   1.970   2.778   3.448  1.5821 -0.9968 -0.2195
 5830SOL    MW423088   1.948   2.715   3.392  0.1194 -0.2108 -0.5732
 5831SOL     OW23089   4.482   5.090   4.563 -0.9570 -0.0590 -0.2558
 5831SOL    HW223090   4.410   5.115   4.506 -1.0457 -1.6621 -0.8817
 5831SOL    HW323091   4.460   5.129   4.648 -1.1626  1.7670 -1.1106
 5831SOL    MW423092   4.469   5.098   4.567 -0.9958 -0.0296 -0.4512
 5832SOL     OW23093   4.389   0.048   4.382  0.6265  0.1342  0.2004
 5832SOL    HW223094   4.452   0.102   4.335 -0.0366  1.4739  0.7920
 5832SOL    HW323095   4.304   0.090   4.364  0.0242 -1.0056  0.2794
 5832SOL    MW423096   4.386   0.061   4.373  0.4596  0.1606  0.2889
 5833SOL     OW23097   4.371   5.373   5.414 -0.3798  0.4394  0.3069
 5833SOL    HW223098   4.276   5.383   5.410 -0.4133  0.5246  1.0501
 5833SOL    HW323099   4.405   5.430   5.345 -0.8566  0.5803  0.1844
 5833SOL    MW423100   4.363   5.382   5.405 -0.4471  0.4693  0.3888
 5834SOL     OW23101   4.071   5.706   5.958  0.6157 -0.3568 -0.3908
 5834SOL    HW223102   4.039   5.764   6.027 -0.2636 -0.3574 -0.7893
 5834SOL    HW323103   4.150   5.668   5.995 -0.1090 -0.7456  0.8385
 5834SOL    MW423104   4.077   5.709   5.972  0.4041 -0.4082 -0.2812
 5835SOL     OW23105   0.101   5.087   0.187  0.0276 -0.4224 -0.4919
 5835SOL    HW223106   0.161   5.098   0.113 -1.6408 -0.6994 -1.9714
 5835SOL    HW323107   0.063   5.174   0.200 -0.0732 -0.4892 -0.3294
 5835SOL    MW423108   0.104   5.100   0.179 -0.2058 -0.4678 -0.6657
 5836SOL     OW23109   2.139   5.377   2.613  0.0235  0.1091 -0.3448
 5836SOL    HW223110   2.111   5.362   2.704 -0.2445  1.4415 -0.1833
 5836SOL    HW323111   2.160   5.290   2.580  0.8249 -0.3447  1.2187
 5836SOL    MW423112   2.138   5.364   2.621  0.0939  0.2250 -0.1172
 5837SOL     OW23113   3.492   4.456   0.604  0.0069 -0.5525 -0.7937
 5837SOL    HW223114   3.447   4.375   0.628 -1.4548  0.3688 -0.3191
 5837SOL    HW323115   3.505   4.502   0.687 -1.2226  0.7137 -1.2655
 5837SOL    MW423116   3.488   4.452   0.618 -0.3481 -0.2639 -0.7934
 5838SOL     OW23117   3.581   0.188   0.378  0.1167 -0.1741 -0.1933
 5838SOL    HW223118   3.512   0.217   0.319 -0.1741 -0.3353  0.0708
 5838SOL    HW323119   3.602   0.099   0.349  0.9177  0.2332 -0.9185
 5838SOL    MW423120   3.575   0.180   0.366  0.1840 -0.1417 -0.2542
 5839SOL     OW23121   1.419   0.125   6.018 -0.1617 -0.7590 -0.2257
 5839SOL    HW223122   1.501   0.086   6.047  0.3640  1.2009  1.1030
 5839SOL    HW323123   1.391   0.179   6.092 -1.7835 -0.0837 -1.2851
 5839SOL    MW423124   1.426   0.127   6.032 -0.3063 -0.4113 -0.1901
 5840SOL     OW23125   0.167   2.112   1.655 -0.6213  0.3468  0.2467
 5840SOL    HW223126   0.199   2.138   1.741 -0.0915  3.6701 -0.8065
 5840SOL    HW323127   0.243   2.117   1.598 -1.0860 -1.2521 -0.5925
 5840SOL    MW423128   0.181   2.116   1.659 -0.6127  0.5743 -0.0030
 5841SOL     OW23129   3.991   5.126   2.284 -0.1451 -0.5850 -0.4571
 5841SOL    HW223130   4.045   5.157   2.357  0.3629  1.3965 -1.6034
 5841SOL    HW323131   3.902   5.126   2.317  0.1642 -0.4225  0.3865
 5841SOL    MW423132   3.987   5.130   2.298 -0.0373 -0.3022 -0.4970
 5842SOL     OW23133   2.569   3.538   4.170 -0.4551 -0.1670  0.2028
 5842SOL    HW223134   2.610   3.614   4.131 -0.4326 -0.3581 -0.1511
 5842SOL    HW323135   2.476   3.547   4.149 -0.2213 -1.1771 -1.4766
 5842SOL    MW423136   2.562   3.549   4.162 -0.4213 -0.3255 -0.0655
 5843SOL     OW23137   4.113   1.954   5.522 -0.5681 -0.2794 -0.1128
 5843SOL    HW223138   4.115   1.884   5.457  3.8342  0.6815 -1.3284
 5843SOL    HW323139   4.088   2.032   5.471 -1.5022 -0.2394  0.3810
 5843SOL    MW423140   4.110   1.955   5.507 -0.1105 -0.1474 -0.2081
 5844SOL     OW23141   3.095   3.432   2.032 -0.6337 -0.2520 -0.1072
 5844SOL    HW223142   3.143   3.350   2.018 -1.1290 -0.9217  1.8507
 5844SOL    HW323143   3.060   3.453   1.946 -1.8090 -2.9673 -0.4074
 5844SOL    MW423144   3.097   3.424   2.019 -0.8541 -0.6986  0.1115
 5845SOL     OW23145   0.096   1.845   0.820  0.1513 -0.6699 -0.6501
 5845SOL    HW223146   0.059   1.851   0.732 -2.4718 -1.0382  0.3387
 5845SOL    HW323147   0.122   1.753   0.829 -2.5373 -1.4381 -0.0197
 5845SOL    MW423148   0.095   1.833   0.809 -0.5495 -0.8198 -0.4365
 5846SOL     OW23149   1.077   6.049   5.184  0.5930  0.7344 -0.4804
 5846SOL    HW223150   0.987   6.035   5.213  0.6733  1.0093 -0.0834
 5846SOL    HW323151   1.114   6.109   5.249  1.3509 -0.1068 -0.1120
 5846SOL    MW423152   1.070   6.055   5.196  0.7036  0.6597 -0.3794
 5847SOL     OW23153   5.424   3.003   2.610  0.4819 -0.0003 -0.1804
 5847SOL    HW223154   5.517   3.020   2.596 -0.0971  1.2961 -3.1140
 5847SOL    HW323155   5.404   3.046   2.693  2.2125  0.9578 -0.2119
 5847SOL    MW423156   5.433   3.011   2.619  0.6338  0.2971 -0.5716
 5848SOL     OW23157   0.048   1.435   2.353  0.0739 -0.1621  0.2078
 5848SOL    HW223158  -0.005   1.485   2.416 -0.5092  0.4058 -0.7116
 5848SOL    HW323159  -0.017   1.392   2.297  0.5866  0.3394 -0.7787
 5848SOL    MW423160   0.032   1.436   2.354  0.0646 -0.0210 -0.0436
 5849SOL     OW23161   4.484   2.680   5.116  1.0474  0.1525  0.2806
 5849SOL    HW223162   4.505   2.773   5.107  1.4353  0.0693  0.3254
 5849SOL    HW323163   4.522   2.639   5.038  1.6981 -0.1052  0.7237
 5849SOL    MW423164   4.492   2.687   5.105  1.1845  0.1075  0.3450
 5850SOL     OW23165   6.298   5.897   1.750  0.1692  0.1168  0.4206
 5850SOL    HW223166   6.263   5.986   1.741  1.7142  0.8905  1.5696
 5850SOL    HW323167   6.241   5.855   1.814  0.9542  1.1965  1.9022
 5850SOL    MW423168   6.286   5.903   1.757  0.4766  0.3613  0.7676
 5851SOL     OW23169   6.323   0.342   1.273 -0.2101  0.1431  0.2336
 5851SOL    HW223170   6.245   0.317   1.222  0.4739 -1.4377 -0.0918
 5851SOL    HW323171   6.379   0.387   1.210  0.4725 -1.4832 -0.3741
 5851SOL    MW423172   6.320   0.345   1.258 -0.0298 -0.2801  0.1105
 5852SOL     OW23173   2.206   6.395   0.219  0.3354 -0.5400 -0.1826
 5852SOL    HW223174   2.237   6.479   0.252 -1.0212  0.2372 -0.7485
 5852SOL    HW323175   2.125   6.379   0.267  1.3438 -2.3132  1.0059
 5852SOL    MW423176   2.199   6.404   0.229  0.2894 -0.6714 -0.1005
 5853SOL     OW23177   0.831   2.474   3.937 -0.2192 -0.4112 -0.0988
 5853SOL    HW223178   0.821   2.558   3.892 -0.2909 -1.5505 -2.3535
 5853SOL    HW323179   0.759   2.470   3.999  0.0670  1.3721  0.3871
 5853SOL    MW423180   0.821   2.484   3.939 -0.1909 -0.3263 -0.3322
 5854SOL     OW23181   4.151   1.963   4.972 -0.5540  0.4003  0.4232
 5854SOL    HW223182   4.085   1.922   5.028 -0.0996 -0.0764  0.6118
 5854SOL    HW323183   4.106   1.977   4.889 -1.0279  0.4844  0.6936
 5854SOL    MW423184   4.136   1.959   4.968 -0.5566  0.3485  0.4837
 5855SOL     OW23185   2.620   2.226   3.293 -0.1536 -0.4348  0.0786
 5855SOL    HW223186   2.638   2.210   3.200 -0.0137  0.8043 -0.1189
 5855SOL    HW323187   2.707   2.241   3.331 -0.1937 -1.1149  0.4566
 5855SOL    MW423188   2.634   2.226   3.286 -0.1405 -0.3610  0.1024
 5856SOL     OW23189   0.613   1.420   0.283 -1.1390 -0.0026 -0.3437
 5856SOL    HW223190   0.696   1.372   0.274 -0.7774  0.7265 -0.9979
 5856SOL    HW323191   0.557   1.383   0.215 -0.4443  1.3132 -1.6943
 5856SOL    MW423192   0.617   1.408   0.273 -0.9996  0.2672 -0.6082
 5857SOL     OW23193   2.569   3.630   4.455  0.3844 -0.0489 -0.5812
 5857SOL    HW223194   2.562   3.596   4.366  1.0274  2.0823 -1.5108
 5857SOL    HW323195   2.479   3.630   4.489 -0.1268  0.6448 -1.8699
 5857SOL    MW423196   2.556   3.626   4.448  0.4018  0.3238 -0.8739
 5858SOL     OW23197   2.173   5.487   0.399  0.5377 -0.1195 -0.4209
 5858SOL    HW223198   2.161   5.582   0.401 -0.4439 -0.2494 -0.0614
 5858SOL    HW323199   2.085   5.451   0.391  0.9725 -0.9795 -1.5357
 5858SOL    MW423200   2.160   5.495   0.398  0.4656 -0.2501 -0.5205
 5859SOL     OW23201   4.253   3.205   3.321  0.2049 -0.6348  0.3643
 5859SOL    HW223202   4.325   3.251   3.277 -0.5106 -0.9084 -1.1335
 5859SOL    HW323203   4.286   3.116   3.334  0.6234 -0.4108  0.9397
 5859SOL    MW423204   4.267   3.199   3.317  0.1657 -0.6414  0.2426
 5860SOL     OW23205   1.788   1.201   2.237 -0.0465  0.4760  0.3856
 5860SOL    HW223206   1.753   1.163   2.156 -0.9662  0.3327  0.8290
 5860SOL    HW323207   1.710   1.229   2.286  0.5406  1.3657  0.8313
 5860SOL    MW423208   1.773   1.200   2.233 -0.0904  0.5745  0.5029
 5861SOL     OW23209   2.673   5.997   1.878  0.4191 -0.3010 -0.3366
 5861SOL    HW223210   2.680   5.908   1.912  0.6870 -0.5647 -1.0571
 5861SOL    HW323211   2.693   5.988   1.784 -0.4597  0.3713 -0.5988
 5861SOL    MW423212   2.677   5.984   1.870  0.3385 -0.2471 -0.4663
 5862SOL     OW23213   3.461   3.518   3.650 -0.5206 -0.2004  0.0216
 5862SOL    HW223214   3.387   3.544   3.704  0.2112 -0.4861  1.1858
 5862SOL    HW323215   3.444   3.426   3.628 -2.1860  0.6040 -2.5792
 5862SOL    MW423216   3.449   3.509   3.654 -0.6438 -0.1320 -0.1680
 5863SOL     OW23217   3.388   2.411   4.327 -0.2507 -0.2734 -0.4129
 5863SOL    HW223218   3.344   2.326   4.320 -1.7837  0.6330 -2.2764
 5863SOL    HW323219   3.469   2.391   4.376 -1.2237 -2.5252  0.4250
 5863SOL    MW423220   3.393   2.397   4.333 -0.5813 -0.4509 -0.5482
 5864SOL     OW23221   3.108   4.337   5.070 -0.4944 -0.3664 -0.0341
 5864SOL    HW223222   3.055   4.416   5.080  0.6981  0.3314  1.1622
 5864SOL    HW323223   3.099   4.292   5.154  0.5602 -0.3659  0.0953
 5864SOL    MW423224   3.100   4.342   5.082 -0.1980 -0.2743  0.1408
 5865SOL     OW23225   5.824   3.341   0.213  0.2668  0.0588  0.2369
 5865SOL    HW223226   5.897   3.313   0.157  0.9492  1.2521  0.4855
 5865SOL    HW323227   5.780   3.410   0.162 -0.4821 -0.4131  0.2360
 5865SOL    MW423228   5.828   3.347   0.199  0.2580  0.1540  0.2696
 5866SOL     OW23229   3.252   3.856   4.228 -0.1026  0.4399  0.3078
 5866SOL    HW223230   3.276   3.780   4.280 -1.0204  0.4603  0.7755
 5866SOL    HW323231   3.319   3.860   4.159  1.2486  0.5304  1.5875
 5866SOL    MW423232   3.264   3.847   4.225 -0.0454  0.4546  0.5383
 5867SOL     OW23233   4.720   3.551   2.237  0.2225 -0.2893 -0.2042
 5867SOL    HW223234   4.658   3.518   2.172  0.9401  0.4489 -1.3209
 5867SOL    HW323235   4.804   3.511   2.213  1.2437  2.5160 -1.9378
 5867SOL    MW423236   4.723   3.542   2.225  0.4519  0.1782 -0.5803
 5868SOL     OW23237   0.306   0.700   3.769  0.0349  0.0666 -0.0670
 5868SOL    HW223238   0.213   0.692   3.793  0.2919 -0.1919  0.8607
 5868SOL    HW323239   0.331   0.612   3.740 -0.3059  0.4042 -1.4519
 5868SOL    MW423240   0.297   0.687   3.768  0.0239  0.0770 -0.1274
 5869SOL     OW23241   1.993   4.959   3.105 -0.0348 -0.2148 -0.0006
 5869SOL    HW223242   2.042   4.967   3.187 -2.4213 -1.9620  1.7553
 5869SOL    HW323243   2.053   4.989   3.037  2.9580 -1.0304  2.0946
 5869SOL    MW423244   2.007   4.964   3.107  0.0452 -0.5529  0.5075
 5870SOL     OW23245   5.389   4.904   0.127  0.3059  0.2729  0.5452
 5870SOL    HW223246   5.355   4.927   0.214  0.3404 -0.9645  0.8973
 5870SOL    HW323247   5.455   4.837   0.144 -0.5799 -0.9114 -0.5235
 5870SOL    MW423248   5.393   4.898   0.141  0.1936 -0.0466  0.4507
 5871SOL     OW23249   3.677   3.969   1.512  0.6119  0.4889  0.5418
 5871SOL    HW223250   3.680   4.047   1.457  0.6587  0.1809  0.0990
 5871SOL    HW323251   3.691   4.001   1.601 -0.0755  1.0681  0.4502
 5871SOL    MW423252   3.679   3.983   1.517  0.5274  0.5247  0.4713
 5872SOL     OW23253   5.939   1.257   5.124 -0.0891  0.0672  0.3880
 5872SOL    HW223254   6.004   1.189   5.139 -0.4384 -0.6188 -1.0291
 5872SOL    HW323255   5.860   1.226   5.167 -0.4665 -0.8239 -0.8970
 5872SOL    MW423256   5.937   1.244   5.131 -0.1850 -0.1409  0.0315
 5873SOL     OW23257   5.328   1.713   2.942 -0.0040 -0.1162  0.0600
 5873SOL    HW223258   5.322   1.626   2.903  1.5006  0.8336 -2.5862
 5873SOL    HW323259   5.414   1.715   2.984  1.4598  0.9586 -2.6775
 5873SOL    MW423260   5.339   1.702   2.942  0.3876  0.1509 -0.6503
 5874SOL     OW23261   3.877   2.164   5.701  0.0507 -0.2272  0.2121
 5874SOL    HW223262   3.821   2.173   5.624 -0.2912 -0.6677  0.4021
 5874SOL    HW323263   3.879   2.070   5.718  1.4484 -0.2975 -0.2192
 5874SOL    MW423264   3.870   2.153   5.693  0.1900 -0.2946  0.1803
 5875SOL     OW23265   4.173   4.648   2.232 -0.2608  0.1976  0.6145
 5875SOL    HW223266   4.155   4.739   2.256  3.6781  0.9832  1.2668
 5875SOL    HW323267   4.156   4.598   2.312 -0.5931  0.6650  0.8410
 5875SOL    MW423268   4.168   4.653   2.246  0.2150  0.3629  0.7305
 5876SOL     OW23269   3.806   3.781   0.651 -0.5839  0.8483 -0.2038
 5876SOL    HW223270   3.884   3.804   0.701 -0.8053  0.5431  0.2967
 5876SOL    HW323271   3.737   3.774   0.717 -0.5960 -0.9226 -0.3422
 5876SOL    MW423272   3.807   3.783   0.666 -0.6147  0.5744 -0.1560
 5877SOL     OW23273   2.346   2.941   5.036  0.0515  0.1481  0.0333
 5877SOL    HW223274   2.328   2.912   4.947 -0.1966 -0.7309  0.3528
 5877SOL    HW323275   2.366   2.860   5.083  1.2127  0.7047  0.5366
 5877SOL    MW423276   2.346   2.926   5.031  0.1720  0.1055  0.1418
 5878SOL     OW23277   5.526   3.328   1.561  0.2443 -0.4651  0.2448
 5878SOL    HW223278   5.507   3.358   1.472  0.8123 -0.7321  0.0254
 5878SOL    HW323279   5.444   3.288   1.591  0.1167 -0.5879 -0.2506
 5878SOL    MW423280   5.512   3.327   1.553  0.3024 -0.5165  0.1505
 5879SOL     OW23281   1.411   2.922   3.254 -0.1531 -0.0140  0.2913
 5879SOL    HW223282   1.385   2.963   3.171  1.0612  1.0022  0.3708
 5879SOL    HW323283   1.356   2.963   3.320 -1.4751 -1.1872 -0.0372
 5879SOL    MW423284   1.400   2.933   3.252 -0.1673 -0.0347  0.2585
 5880SOL     OW23285   0.898   0.406   5.516  0.0704  0.1318  0.4410
 5880SOL    HW223286   0.916   0.421   5.424 -1.0517  1.7119  0.4405
 5880SOL    HW323287   0.847   0.325   5.519  1.1568 -0.5960 -0.1776
 5880SOL    MW423288   0.894   0.397   5.505  0.0657  0.2443  0.3593
 5881SOL     OW23289   1.576   0.334   3.942  0.2328 -0.0521  0.1423
 5881SOL    HW223290   1.563   0.285   3.860 -0.4157 -0.5670  0.5413
 5881SOL    HW323291   1.635   0.279   3.994 -0.5302 -0.4501  0.6084
 5881SOL    MW423292   1.582   0.320   3.938  0.0466 -0.1725  0.2564
 5882SOL     OW23293   1.464   5.669   5.568 -0.4033 -0.0368 -0.0319
 5882SOL    HW223294   1.446   5.588   5.617 -2.4603  0.2591 -0.2330
 5882SOL    HW323295   1.378   5.708   5.553  0.5708  2.9512  1.3056
 5882SOL    MW423296   1.451   5.663   5.573 -0.5462  0.3964  0.1180
 5883SOL     OW23297   0.642   2.923   1.281  0.4732 -0.5918  0.5277
 5883SOL    HW223298   0.654   2.835   1.316  1.3023  0.1793  2.3056
 5883SOL    HW323299   0.717   2.936   1.223  0.7806 -0.7728  0.8804
 5883SOL    MW423300   0.654   2.913   1.278  0.6232 -0.5139  0.8088
 5884SOL     OW23301   3.743   5.212   2.398 -0.3102  0.3915 -0.6092
 5884SOL    HW223302   3.707   5.201   2.310 -0.2349  0.4626 -0.6494
 5884SOL    HW323303   3.787   5.297   2.395  1.6615 -0.5685 -1.1995
 5884SOL    MW423304   3.744   5.222   2.386 -0.0401  0.2742 -0.6924
 5885SOL     OW23305   4.578   0.247   3.340  0.3583 -0.4618 -0.1731
 5885SOL    HW223306   4.492   0.257   3.299  1.3919 -0.7881 -2.5941
 5885SOL    HW323307   4.585   0.153   3.358 -0.0322 -0.3414  0.6456
 5885SOL    MW423308   4.567   0.236   3.337  0.4432 -0.4890 -0.3845
 5886SOL     OW23309   1.070   2.607   3.751  0.0340 -1.0680 -0.6213
 5886SOL    HW223310   1.124   2.531   3.729  0.1084 -0.5189 -2.4904
 5886SOL    HW323311   1.065   2.606   3.846  2.2075 -1.9217 -0.4679
 5886SOL    MW423312   1.076   2.597   3.761  0.3306 -1.1082 -0.8477
 5887SOL     OW23313   0.161   0.733   4.187  0.1401  0.3345  0.1884
 5887SOL    HW223314   0.244   0.715   4.145  1.3236 -0.0892  2.5356
 5887SOL    HW323315   0.130   0.648   4.218 -0.9204  0.5635 -0.1854
 5887SOL    MW423316   0.168   0.719   4.186  0.1563  0.3088  0.4488
 5888SOL     OW23317   0.001   4.804   1.431  0.3228  0.0488 -0.0476
 5888SOL    HW223318   0.042   4.874   1.381  0.3449  0.0241 -0.0640
 5888SOL    HW323319  -0.050   4.849   1.499  0.0203  0.0941 -0.3039
 5888SOL    MW423320  -0.001   4.819   1.434  0.2858  0.0515 -0.0836
 5889SOL     OW23321   4.991   1.403   1.509 -0.5494  0.4213 -0.2609
 5889SOL    HW223322   5.081   1.383   1.534 -0.7533 -1.2952 -0.7442
 5889SOL    HW323323   4.939   1.376   1.584 -0.7840 -0.4495 -0.7116
 5889SOL    MW423324   4.996   1.396   1.522 -0.6073  0.0799 -0.3841
 5890SOL     OW23325   2.474   0.018   5.478  0.6740 -0.0422 -0.3143
 5890SOL    HW223326   2.472  -0.044   5.406  0.8142  1.0160 -1.2689
 5890SOL    HW323327   2.386   0.015   5.516  0.5208 -0.4233 -0.7011
 5890SOL    MW423328   2.462   0.010   5.473  0.6723  0.0471 -0.4913
 5891SOL     OW23329   5.230   3.283   0.651  0.1485 -0.1779  0.8295
 5891SOL    HW223330   5.258   3.367   0.688 -0.3954  1.2244 -1.6757
 5891SOL    HW323331   5.307   3.252   0.603  0.9043 -2.0438  3.0928
 5891SOL    MW423332   5.244   3.290   0.649  0.1765 -0.2391  0.7976
 5892SOL     OW23333   4.872   3.073   0.170  0.3668  0.0508 -0.1720
 5892SOL    HW223334   4.814   3.002   0.140  1.3054 -0.4807 -0.7730
 5892SOL    HW323335   4.905   3.042   0.255 -2.1756  1.4911  1.4837
 5892SOL    MW423336   4.868   3.059   0.178  0.1552  0.1707 -0.0329
 5893SOL     OW23337   0.349   4.781   4.231 -0.2830  0.2039 -0.1607
 5893SOL    HW223338   0.416   4.764   4.165 -0.2750  0.6809 -0.2805
 5893SOL    HW323339   0.394   4.830   4.300 -0.4219  0.2117 -0.0738
 5893SOL    MW423340   0.364   4.785   4.232 -0.3003  0.2679 -0.1650
 5894SOL     OW23341   0.183   4.928   1.200 -0.1083  0.0710  0.0890
 5894SOL    HW223342   0.274   4.927   1.230 -0.1223  0.9105  0.1846
 5894SOL    HW323343   0.182   4.872   1.123  0.1916 -1.1011  0.9088
 5894SOL    MW423344   0.195   4.920   1.194 -0.0706  0.0271  0.2098
 5895SOL     OW23345   6.382   0.728   1.493 -0.4647  0.3365  0.6906
 5895SOL    HW223346   6.378   0.758   1.403  0.9673  0.5121  0.6731
 5895SOL    HW323347   6.290   0.720   1.520 -0.8974  0.4332 -0.7163
 5895SOL    MW423348   6.369   0.731   1.485 -0.3329  0.3725  0.5027
 5896SOL     OW23349   4.690   3.339   5.994 -0.1757  0.2106  0.1703
 5896SOL    HW223350   4.711   3.246   5.986  0.5737  0.3415  0.5036
 5896SOL    HW323351   4.735   3.367   6.073 -0.7951  0.7533  0.3387
 5896SOL    MW423352   4.699   3.330   6.003 -0.1586  0.2994  0.2365
 5897SOL     OW23353   0.618   2.784   3.307  0.0442  0.3776  0.1045
 5897SOL    HW223354   0.561   2.850   3.346  0.3011  0.3223  0.5727
 5897SOL    HW323355   0.637   2.723   3.378 -1.1207 -0.8525 -0.5947
 5897SOL    MW423356   0.613   2.785   3.321 -0.0756  0.2080  0.0740
 5898SOL     OW23357   0.018   1.236   1.899  0.6032  0.0148 -0.1182
 5898SOL    HW223358  -0.018   1.281   1.976 -0.0527 -0.0738 -0.3683
 5898SOL    HW323359  -0.041   1.162   1.885  0.4335  0.3138 -1.0010
 5898SOL    MW423360   0.005   1.232   1.907  0.4943  0.0425 -0.2677
 5899SOL     OW23361   4.724   6.295   1.626 -0.0870 -0.2926 -0.0068
 5899SOL    HW223362   4.794   6.243   1.588 -1.3801 -2.1534  0.0028
 5899SOL    HW323363   4.706   6.362   1.561  0.2820 -1.1151 -0.9866
 5899SOL    MW423364   4.731   6.297   1.613 -0.2090 -0.6467 -0.1348
 5900SOL     OW23365   1.017   1.579   0.927 -0.6013 -0.4554  0.1962
 5900SOL    HW223366   1.070   1.572   0.848  0.1725 -1.3207  0.7659
 5900SOL    HW323367   0.978   1.492   0.937 -1.1135 -0.1982  0.4803
 5900SOL    MW423368   1.019   1.566   0.918 -0.5668 -0.5356  0.3089
 5901SOL     OW23369   0.010   3.997   3.568  0.2762 -0.0598 -0.0173
 5901SOL    HW223370   0.012   4.090   3.589 -0.4721 -0.0796  0.1533
 5901SOL    HW323371   0.037   3.993   3.476 -1.1237  0.4809 -0.4870
 5901SOL    MW423372   0.014   4.009   3.558 -0.0072  0.0090 -0.0567
 5902SOL     OW23373   4.819   0.438   6.017 -0.0538 -0.3959  0.2357
 5902SOL    HW223374   4.843   0.361   5.966  1.2900 -0.0676  0.3473
 5902SOL    HW323375   4.743   0.474   5.970 -0.0526 -1.1966 -0.4018
 5902SOL    MW423376   4.812   0.433   6.004  0.1236 -0.4582  0.1663
 5903SOL     OW23377   0.658   6.167   4.500 -0.6456  0.1254  0.1442
 5903SOL    HW223378   0.746   6.142   4.471 -0.8754 -1.3546  0.6398
 5903SOL    HW323379   0.600   6.140   4.430 -0.7954  0.2793  0.2078
 5903SOL    MW423380   0.662   6.160   4.487 -0.6957 -0.0496  0.2180
 5904SOL     OW23381   4.839   5.002   0.326  0.5643 -0.3833 -0.4801
 5904SOL    HW223382   4.753   4.998   0.368  1.2564 -1.9825  0.9187
 5904SOL    HW323383   4.833   4.940   0.253  0.5219 -0.4949 -0.3825
 5904SOL    MW423384   4.827   4.994   0.322  0.6500 -0.6090 -0.2827
 5905SOL     OW23385   6.185   0.305   3.952 -0.5675  0.5285 -0.0434
 5905SOL    HW223386   6.122   0.371   3.980 -0.5385  0.2112  0.7852
 5905SOL    HW323387   6.262   0.355   3.924 -0.5900  0.8564  0.4648
 5905SOL    MW423388   6.187   0.320   3.952 -0.5666  0.5299  0.1330
 5906SOL     OW23389   3.151   1.435   2.401 -0.5717  0.7367  0.4085
 5906SOL    HW223390   3.158   1.521   2.360 -0.3576  0.8367  0.6536
 5906SOL    HW323391   3.233   1.424   2.449 -0.0173 -0.1586 -0.6829
 5906SOL    MW423392   3.162   1.445   2.402 -0.4703  0.6318  0.2969
 5907SOL     OW23393   5.875   3.171   2.766  0.2984 -0.1036 -0.1398
 5907SOL    HW223394   5.942   3.238   2.751  0.2574 -0.0122  0.0832
 5907SOL    HW323395   5.915   3.110   2.828 -0.1768  0.4792  0.7574
 5907SOL    MW423396   5.889   3.172   2.772  0.2303 -0.0147  0.0080
 5908SOL     OW23397   1.732   1.093   4.440  0.0652 -0.2871  0.5333
 5908SOL    HW223398   1.714   1.103   4.534 -0.3065  0.3353  0.4074
 5908SOL    HW323399   1.674   1.157   4.398  0.2076 -0.5780 -0.1254
 5908SOL    MW423400   1.722   1.103   4.447  0.0350 -0.2434  0.4298
 5909SOL     OW23401   3.622   0.651   5.137  0.4358 -0.5477 -0.4229
 5909SOL    HW223402   3.580   0.588   5.079 -2.0802 -1.5338  2.2860
 5909SOL    HW323403   3.552   0.711   5.163  1.8739  0.9047  0.3123
 5909SOL    MW423404   3.607   0.651   5.133  0.2936 -0.4862  0.0315
 5910SOL     OW23405   1.412   5.302   3.988  0.5267 -0.1836  0.5971
 5910SOL    HW223406   1.489   5.244   3.988 -0.1471 -1.2360 -1.9212
 5910SOL    HW323407   1.437   5.374   3.930  0.0928  0.1759  0.8599
 5910SOL    MW423408   1.426   5.304   3.980  0.3806 -0.2750  0.2996
 5911SOL     OW23409   0.679   4.104   4.662 -0.3634 -0.4979 -0.4175
 5911SOL    HW223410   0.616   4.177   4.658 -2.4747 -2.1765  0.2069
 5911SOL    HW323411   0.666   4.066   4.749  1.9678 -0.5994 -0.0559
 5911SOL    MW423412   0.669   4.109   4.673 -0.3344 -0.7328 -0.2874
 5912SOL     OW23413   0.373   4.352   1.300  0.0778  0.0466 -0.5317
 5912SOL    HW223414   0.368   4.445   1.276 -0.1652  0.3490  0.6134
 5912SOL    HW323415   0.284   4.329   1.325  0.1449 -0.4880 -0.7779
 5912SOL    MW423416   0.361   4.361   1.301  0.0546  0.0160 -0.4131
 5913SOL     OW23417   3.553   5.335   6.213 -0.2234 -0.3676  0.2411
 5913SOL    HW223418   3.501   5.371   6.285 -0.8468 -1.0212  0.1258
 5913SOL    HW323419   3.593   5.257   6.250  1.1554  0.4268  0.5002
 5913SOL    MW423420   3.551   5.330   6.227 -0.1238 -0.3490  0.2601
 5914SOL     OW23421   2.523   4.615   5.294 -0.6203 -0.2132 -0.1166
 5914SOL    HW223422   2.443   4.658   5.325  0.4994  1.1275  1.0501
 5914SOL    HW323423   2.492   4.545   5.237 -2.5828  1.1321 -0.8172
 5914SOL    MW423424   2.508   4.611   5.291 -0.7315  0.1412 -0.0551
 5915SOL     OW23425   4.186   4.900   0.698  0.5039 -0.0888  0.4642
 5915SOL    HW223426   4.205   4.816   0.656  0.7329  0.0313  0.3288
 5915SOL    HW323427   4.213   4.888   0.789  1.3361  0.1179  0.2473
 5915SOL    MW423428   4.192   4.887   0.705  0.6439 -0.0457  0.4177
 5916SOL     OW23429   2.259   2.496   2.848  0.5772  0.2982 -0.5071
 5916SOL    HW223430   2.206   2.548   2.907  1.5975 -0.3682  1.0844
 5916SOL    HW323431   2.342   2.543   2.842  1.2244 -0.6867  0.3123
 5916SOL    MW423432   2.263   2.509   2.855  0.7972  0.0803 -0.1890
 5917SOL     OW23433   0.638   5.326   4.289 -0.0275 -0.3077 -0.8220
 5917SOL    HW223434   0.722   5.369   4.272 -0.0106 -0.7859 -2.0667
 5917SOL    HW323435   0.603   5.308   4.202 -1.5617  0.1274 -0.3256
 5917SOL    MW423436   0.645   5.329   4.275 -0.2277 -0.3134 -0.9207
 5918SOL     OW23437   2.246   0.618   3.595 -0.6790 -0.1252  0.2432
 5918SOL    HW223438   2.172   0.668   3.629 -1.1897 -0.0317 -0.9851
 5918SOL    HW323439   2.288   0.676   3.532  1.6342  0.5913  2.2344
 5918SOL    MW423440   2.242   0.632   3.591 -0.4412 -0.0183  0.3439
 5919SOL     OW23441   6.092   0.362   1.958  0.4469  0.0864  0.6003
 5919SOL    HW223442   6.028   0.401   1.898  0.0319 -0.0602  0.9370
 5919SOL    HW323443   6.140   0.299   1.904 -1.0614 -1.2904  0.7812
 5919SOL    MW423444   6.090   0.359   1.943  0.1931 -0.1146  0.6686
 5920SOL     OW23445   2.748   5.905   0.133  0.3706  0.0110  0.0689
 5920SOL    HW223446   2.747   5.986   0.183  0.7433  0.7345 -1.0590
 5920SOL    HW323447   2.656   5.886   0.116  0.1697 -0.7281  1.7233
 5920SOL    MW423448   2.736   5.913   0.138  0.3933  0.0090  0.1384
 5921SOL     OW23449   1.029   4.678   3.779 -0.5770  0.4250  0.4504
 5921SOL    HW223450   1.057   4.734   3.850 -0.2787  0.2627  0.4600
 5921SOL    HW323451   1.094   4.608   3.775 -0.2232  0.7956 -0.4155
 5921SOL    MW423452   1.041   4.676   3.788 -0.4910  0.4525  0.3374
 5922SOL     OW23453   1.889   5.744   3.371  0.3393  0.3123 -0.3182
 5922SOL    HW223454   1.940   5.743   3.290 -0.0257  1.5602 -0.5836
 5922SOL    HW323455   1.822   5.678   3.358 -0.0382  0.8536 -1.2650
 5922SOL    MW423456   1.887   5.735   3.359  0.2414  0.5484 -0.4782
 5923SOL     OW23457   4.048   4.511   5.559 -0.0104 -0.2948  0.4676
 5923SOL    HW223458   3.993   4.432   5.563 -0.8124  0.1131 -1.5624
 5923SOL    HW323459   3.986   4.583   5.557  0.5999  0.2300 -0.6903
 5923SOL    MW423460   4.033   4.510   5.559 -0.0357 -0.1717  0.0470
 5924SOL     OW23461   4.779   3.420   5.657 -0.4003 -0.0030 -0.1834
 5924SOL    HW223462   4.718   3.473   5.605  1.0665  0.0538 -1.9584
 5924SOL    HW323463   4.864   3.436   5.617  1.1121  1.0426  3.0870
 5924SOL    MW423464   4.782   3.429   5.645 -0.0072  0.1425  0.0139
 5925SOL     OW23465   0.068   4.972   2.297  0.3289  0.3805 -0.1591
 5925SOL    HW223466   0.126   5.041   2.330 -2.0573  1.8866  1.2188
 5925SOL    HW323467   0.027   5.010   2.220  0.0253 -0.0257 -0.1991
 5925SOL    MW423468   0.070   4.986   2.291 -0.0260  0.5256  0.0174
 5926SOL     OW23469   0.217   2.475   6.372  0.0473 -0.0766 -0.8682
 5926SOL    HW223470   0.159   2.404   6.399 -0.5485  0.0320 -1.8069
 5926SOL    HW323471   0.160   2.552   6.368  0.9547  0.8035  1.5278
 5926SOL    MW423472   0.202   2.476   6.375  0.0884  0.0539 -0.6759
 5927SOL     OW23473   4.068   6.141   0.781 -1.4732 -0.4192  0.0942
 5927SOL    HW223474   3.996   6.121   0.842 -1.1205  0.3878  0.7886
 5927SOL    HW323475   4.145   6.102   0.822 -1.5782 -1.8837 -0.9794
 5927SOL    MW423476   4.068   6.133   0.794 -1.4405 -0.5060  0.0442
 5928SOL     OW23477   3.206   4.791   3.611 -0.4978  1.0473  0.4871
 5928SOL    HW223478   3.179   4.837   3.532 -0.3797  0.4787  0.1069
 5928SOL    HW323479   3.258   4.855   3.659 -0.8904  1.5199  0.2881
 5928SOL    MW423480   3.209   4.806   3.607 -0.5340  1.0346  0.4106
 5929SOL     OW23481   3.532   4.552   1.499  0.0996  0.3149 -0.1710
 5929SOL    HW223482   3.608   4.599   1.466 -0.3158  0.9217 -0.2881
 5929SOL    HW323483   3.474   4.543   1.423 -0.7113  1.4106  0.2886
 5929SOL    MW423484   3.534   4.557   1.485 -0.0622  0.5395 -0.1258
 5930SOL     OW23485   5.034   6.123   2.835  0.0706  0.0796  0.2522
 5930SOL    HW223486   5.070   6.124   2.924 -2.2506  0.8528  1.2702
 5930SOL    HW323487   4.946   6.086   2.846 -0.7143  1.2973 -1.5309
 5930SOL    MW423488   5.027   6.118   2.848 -0.3392  0.3423  0.1513
 5931SOL     OW23489   0.658   0.459   5.326 -0.3068  0.7066 -0.5221
 5931SOL    HW223490   0.660   0.424   5.415  2.0585  0.9550 -0.4144
 5931SOL    HW323491   0.700   0.392   5.272  0.4589  1.5624 -1.0229
 5931SOL    MW423492   0.664   0.446   5.330  0.1063  0.8523 -0.5739
 5932SOL     OW23493   1.088   3.437   2.952  0.2610  0.1512  0.0316
 5932SOL    HW223494   1.082   3.395   3.038  1.4741 -0.3328 -0.1085
 5932SOL    HW323495   1.152   3.385   2.904 -2.2817 -1.2479 -2.1268
 5932SOL    MW423496   1.095   3.425   2.957  0.0856 -0.0972 -0.2717
 5933SOL     OW23497   0.584   3.442   2.302  0.2039  0.0614 -0.2207
 5933SOL    HW223498   0.642   3.375   2.337  1.0504 -0.1744 -1.9633
 5933SOL    HW323499   0.516   3.393   2.255 -0.3441  0.3845  0.2275
 5933SOL    MW423500   0.583   3.427   2.300  0.2433  0.0730 -0.3915
 5934SOL     OW23501   4.335   5.041   2.256  0.5781  0.4344 -0.6613
 5934SOL    HW223502   4.286   4.988   2.319  0.2004  1.0391 -0.4357
 5934SOL    HW323503   4.329   4.992   2.174 -1.4184  1.0323 -0.9396
 5934SOL    MW423504   4.328   5.027   2.253  0.2648  0.5931 -0.6683
 5935SOL     OW23505   4.488   2.801   2.169 -0.1649 -0.4461 -0.6355
 5935SOL    HW223506   4.553   2.871   2.176 -0.4619 -0.3165  1.1509
 5935SOL    HW323507   4.539   2.720   2.166  0.1193 -0.3029  0.0869
 5935SOL    MW423508   4.503   2.800   2.169 -0.1666 -0.4101 -0.3045
 5936SOL     OW23509   0.846   0.041   1.249  0.6939 -0.2652 -0.5970
 5936SOL    HW223510   0.829  -0.020   1.321 -0.5882  1.2215  0.4360
 5936SOL    HW323511   0.907   0.105   1.286 -1.0032  1.2842 -0.2897
 5936SOL    MW423512   0.852   0.041   1.264  0.3008  0.1354 -0.4202
 5937SOL     OW23513   1.995   0.071   6.364  0.1383 -0.5813  0.0842
 5937SOL    HW223514   2.074   0.116   6.393 -0.3472  0.1518  0.2960
 5937SOL    HW323515   1.934   0.079   6.437 -0.5941  0.0271 -0.5760
 5937SOL    MW423516   1.997   0.078   6.377 -0.0224 -0.4043  0.0250
 5938SOL     OW23517   2.551   5.777   2.212  0.3291 -0.0545 -0.7735
 5938SOL    HW223518   2.627   5.835   2.205  0.5874 -0.2297  0.2718
 5938SOL    HW323519   2.476   5.835   2.206  0.5620  0.2100 -1.1389
 5938SOL    MW423520   2.551   5.792   2.211  0.3939 -0.0427 -0.6838
 5939SOL     OW23521   2.956   3.063   0.884  0.3670 -0.2120 -0.3418
 5939SOL    HW223522   2.970   3.154   0.910  0.6978 -0.4677  0.3814
 5939SOL    HW323523   2.994   3.011   0.955 -1.8661 -0.9490  0.3952
 5939SOL    MW423524   2.963   3.068   0.896  0.1160 -0.3430 -0.1492
 5940SOL     OW23525   1.709   6.074   3.478 -0.0327 -0.0391 -0.1924
 5940SOL    HW223526   1.718   5.994   3.530 -1.3386 -1.5284 -2.1180
 5940SOL    HW323527   1.748   6.143   3.533 -1.1395 -1.5156  2.6486
 5940SOL    MW423528   1.715   6.073   3.492 -0.3510 -0.4304 -0.0716
 5941SOL     OW23529   4.356   2.879   4.521  0.1995  0.2071  0.9842
 5941SOL    HW223530   4.345   2.974   4.534  1.9492  0.9520 -2.1544
 5941SOL    HW323531   4.448   2.868   4.498 -0.7856 -1.5894 -2.9193
 5941SOL    MW423532   4.367   2.890   4.520  0.3003  0.0684  0.0551
 5942SOL     OW23533   1.115   6.431   2.597 -0.4678 -0.1938 -0.0106
 5942SOL    HW223534   1.065   6.478   2.531 -0.5692 -1.7485 -1.0897
 5942SOL    HW323535   1.203   6.468   2.592 -0.6777  0.2526 -0.4503
 5942SOL    MW423536   1.120   6.442   2.588 -0.5089 -0.3401 -0.2110
 5943SOL     OW23537   5.653   0.764   2.610  0.2503  0.1492  0.3001
 5943SOL    HW223538   5.647   0.809   2.694 -0.3490 -0.2687  0.4836
 5943SOL    HW323539   5.739   0.722   2.612  0.5105  0.6754  0.4278
 5943SOL    MW423540   5.664   0.764   2.621  0.2056  0.1635  0.3412
 5944SOL     OW23541   5.998   4.281   0.540  0.2557  0.7452 -0.3822
 5944SOL    HW223542   6.068   4.221   0.563  1.0900  0.9195 -2.2959
 5944SOL    HW323543   6.033   4.368   0.560 -1.2617  0.7355  3.2138
 5944SOL    MW423544   6.011   4.285   0.546  0.1656  0.7669 -0.1602
 5945SOL     OW23545   1.698   4.879   2.934 -0.1976  0.1909 -0.3094
 5945SOL    HW223546   1.639   4.806   2.918 -0.8519  0.6459 -0.0321
 5945SOL    HW323547   1.778   4.855   2.889 -0.1552 -1.0109  0.3570
 5945SOL    MW423548   1.700   4.866   2.926 -0.2784  0.0924 -0.1849
 5946SOL     OW23549   6.210   5.358   6.269 -0.3523  0.1327  0.3387
 5946SOL    HW223550   6.222   5.263   6.268  1.3470  0.3009 -1.0976
 5946SOL    HW323551   6.197   5.380   6.361  0.3517 -1.3675  0.8238
 5946SOL    MW423552   6.210   5.348   6.281 -0.0352 -0.0430  0.2132
 5947SOL     OW23553   4.792   4.792   4.800 -0.3756  0.5479  0.7356
 5947SOL    HW223554   4.823   4.881   4.783 -1.2517  1.2736  2.6516
 5947SOL    HW323555   4.697   4.801   4.810 -0.7182 -0.9178 -0.7539
 5947SOL    MW423556   4.783   4.805   4.799 -0.5364  0.4503  0.7919
 5948SOL     OW23557   4.580   4.865   0.094 -0.0765 -0.0655  0.8070
 5948SOL    HW223558   4.500   4.837   0.050 -1.4865  0.2011  3.0604
 5948SOL    HW323559   4.616   4.785   0.132  0.4289 -0.0781  0.3308
 5948SOL    MW423560   4.574   4.851   0.093 -0.1959 -0.0320  1.0415
 5949SOL     OW23561   4.260   1.181   2.174  0.5790  0.1181  0.0752
 5949SOL    HW223562   4.283   1.174   2.081  1.3225 -0.7447  0.3018
 5949SOL    HW323563   4.243   1.091   2.201 -1.2625  0.5336  0.3997
 5949SOL    MW423564   4.261   1.168   2.165  0.4342  0.0590  0.1479
 5950SOL     OW23565   6.274   3.624   3.210 -0.3875 -0.5507  0.5719
 5950SOL    HW223566   6.207   3.571   3.167 -1.0846 -0.1466  1.1240
 5950SOL    HW323567   6.283   3.585   3.297 -1.5920  0.7485  1.3343
 5950SOL    MW423568   6.267   3.612   3.216 -0.6384 -0.3259  0.7453
 5951SOL     OW23569   4.536   1.786   1.240 -0.2431 -0.3112 -0.1428
 5951SOL    HW223570   4.520   1.733   1.162  0.7995 -0.0676 -0.5400
 5951SOL    HW323571   4.474   1.859   1.232 -0.5193 -0.5768 -0.4532
 5951SOL    MW423572   4.526   1.789   1.229 -0.1420 -0.3141 -0.2362
 5952SOL     OW23573   3.798   1.539   6.190  0.0430  0.0528 -0.5200
 5952SOL    HW223574   3.730   1.476   6.168  0.7002 -0.7990 -0.2088
 5952SOL    HW323575   3.871   1.485   6.221  0.2297  1.0169  0.8312
 5952SOL    MW423576   3.799   1.524   6.191  0.1544  0.0676 -0.3007
 5953SOL     OW23577   3.470   2.895   0.763  0.9316 -0.6356  0.5270
 5953SOL    HW223578   3.536   2.956   0.730  1.2714 -0.3324  1.6942
 5953SOL    HW323579   3.416   2.874   0.687  1.8764 -0.2486 -0.2711
 5953SOL    MW423580   3.472   2.901   0.749  1.1011 -0.5445  0.5757
 5954SOL     OW23581   2.177   0.855   0.457  0.2522 -0.2129  0.0732
 5954SOL    HW223582   2.265   0.869   0.491  0.4927 -0.5800 -0.3877
 5954SOL    HW323583   2.129   0.818   0.531  0.8506 -1.2867 -0.0498
 5954SOL    MW423584   2.182   0.852   0.471  0.3629 -0.4030 -0.0038
 5955SOL     OW23585   4.404   6.250   3.240  0.3044 -0.1343 -0.4417
 5955SOL    HW223586   4.390   6.331   3.192  0.1985  0.0787 -0.0501
 5955SOL    HW323587   4.380   6.181   3.178  0.7123  0.1199 -0.8862
 5955SOL    MW423588   4.399   6.251   3.225  0.3443 -0.0727 -0.4487
 5956SOL     OW23589   0.232   2.567   3.501  0.0173  0.0355  0.9015
 5956SOL    HW223590   0.237   2.629   3.428  1.5636  0.4017  1.2898
 5956SOL    HW323591   0.138   2.547   3.508 -0.0928 -0.8405 -1.8587
 5956SOL    MW423592   0.220   2.573   3.492  0.2068 -0.0318  0.5886
 5957SOL     OW23593   5.921   4.850   4.513 -0.6593 -0.1218  0.1649
 5957SOL    HW223594   5.957   4.795   4.582  0.4995 -0.8620 -0.9924
 5957SOL    HW323595   5.923   4.938   4.550 -1.0913 -0.6254  1.4670
 5957SOL    MW423596   5.926   4.854   4.527 -0.5634 -0.2859  0.1840
 5958SOL     OW23597   5.755   1.707   2.826  0.5881  0.5217  0.3157
 5958SOL    HW223598   5.850   1.717   2.832  0.7826 -0.7770 -0.3313
 5958SOL    HW323599   5.723   1.734   2.912  1.5973  0.3360  0.7633
 5958SOL    MW423600   5.764   1.712   2.838  0.7469  0.3258  0.2894
 5959SOL     OW23601   4.988   1.377   2.037  0.0713  0.2627 -0.0406
 5959SOL    HW223602   4.922   1.429   2.082  0.7584  1.2661 -0.1505
 5959SOL    HW323603   4.974   1.287   2.068 -1.8621  0.2980 -0.7011
 5959SOL    MW423604   4.978   1.372   2.047 -0.0931  0.3998 -0.1422
 5960SOL     OW23605   0.128   4.656   1.869  0.2137 -0.5300  0.0707
 5960SOL    HW223606   0.042   4.697   1.875 -0.0446 -0.8290 -1.1957
 5960SOL    HW323607   0.187   4.716   1.914 -0.1329  1.3004 -1.7465
 5960SOL    MW423608   0.124   4.669   1.876  0.1339 -0.3279 -0.3361
 5961SOL     OW23609   0.551   1.614   3.961 -1.3369  0.1354  0.0176
 5961SOL    HW223610   0.629   1.645   4.008 -0.3688 -0.6916 -0.9971
 5961SOL    HW323611   0.493   1.689   3.959 -1.3746  0.2563  2.4175
 5961SOL    MW423612   0.554   1.628   3.967 -1.2141  0.0422  0.2004
 5962SOL     OW23613   5.243   0.342   1.545  0.4138 -0.2116  0.0280
 5962SOL    HW223614   5.258   0.418   1.601  0.6863 -0.7732  0.7412
 5962SOL    HW323615   5.304   0.353   1.472 -0.7735  1.1305 -0.8112
 5962SOL    MW423616   5.253   0.353   1.543  0.2931 -0.1086  0.0114
 5963SOL     OW23617   5.314   2.665   5.641  0.1740 -0.3086 -0.2991
 5963SOL    HW223618   5.366   2.735   5.681  1.0429 -0.9453 -0.3074
 5963SOL    HW323619   5.330   2.673   5.547  1.7529 -1.6538 -0.1802
 5963SOL    MW423620   5.323   2.676   5.634  0.4970 -0.5701 -0.2845
 5964SOL     OW23621   4.474   1.011   5.060  0.0131  0.2498 -0.0241
 5964SOL    HW223622   4.483   0.921   5.029  2.8800 -0.2479  1.8116
 5964SOL    HW323623   4.414   1.005   5.134  0.0066 -0.1125 -0.0583
 5964SOL    MW423624   4.467   0.999   5.066  0.3905  0.1363  0.2136
 5965SOL     OW23625   4.628   4.883   3.924 -0.6391  0.1758 -0.4710
 5965SOL    HW223626   4.610   4.959   3.868 -0.7189  0.2480 -0.3484
 5965SOL    HW323627   4.541   4.852   3.951 -0.5912  0.3932 -0.0526
 5965SOL    MW423628   4.614   4.889   3.920 -0.6433  0.2140 -0.3996
 5966SOL     OW23629   0.711   3.665   5.256 -0.4523 -0.1372  0.0819
 5966SOL    HW223630   0.719   3.655   5.161  0.5366 -1.0788  0.2461
 5966SOL    HW323631   0.729   3.758   5.271  1.5373 -0.3831 -0.4757
 5966SOL    MW423632   0.714   3.676   5.245 -0.0593 -0.2939  0.0300
 5967SOL     OW23633   4.929   0.831   3.459 -0.2139 -0.5524 -0.6618
 5967SOL    HW223634   4.976   0.896   3.511  0.7240 -0.2761 -1.8372
 5967SOL    HW323635   4.868   0.792   3.522  1.7711 -1.1630  1.0036
 5967SOL    MW423636   4.927   0.835   3.474  0.1718 -0.5965 -0.5971
 5968SOL     OW23637   6.154   4.051   0.613 -0.6569  0.3803 -0.4740
 5968SOL    HW223638   6.217   4.058   0.542 -1.3836  0.0586 -1.1542
 5968SOL    HW323639   6.084   3.996   0.579 -1.1501  0.4490  0.3893
 5968SOL    MW423640   6.153   4.045   0.599 -0.8178  0.3469 -0.4498
 5969SOL     OW23641   5.369   3.886   1.672  0.5338 -0.0576  0.1898
 5969SOL    HW223642   5.303   3.831   1.630 -1.1703  2.2477 -0.3088
 5969SOL    HW323643   5.334   3.903   1.759  0.2212  1.5233 -0.2224
 5969SOL    MW423644   5.356   3.881   1.678  0.2677  0.4551  0.0697
 5970SOL     OW23645   4.028   1.347   6.224  0.2361 -0.1208 -0.2016
 5970SOL    HW223646   4.026   1.403   6.302 -0.7806  0.0798 -0.3563
 5970SOL    HW323647   4.058   1.262   6.256 -0.8002 -0.2302  0.5423
 5970SOL    MW423648   4.032   1.343   6.239 -0.0348 -0.1088 -0.1239
 5971SOL     OW23649   5.752   2.083   4.075 -0.9834  0.0063  0.1187
 5971SOL    HW223650   5.671   2.130   4.055 -0.7969  0.6948  0.8964
 5971SOL    HW323651   5.745   2.062   4.169 -0.6466 -0.7123 -0.0032
 5971SOL    MW423652   5.741   2.086   4.085 -0.9143  0.0023  0.2052
 5972SOL     OW23653   5.324   0.830   3.035 -0.0535  0.3976  0.6884
 5972SOL    HW223654   5.317   0.738   3.008  1.0985  0.5674 -0.2562
 5972SOL    HW323655   5.235   0.854   3.061 -0.4113 -0.9175  0.7366
 5972SOL    MW423656   5.311   0.821   3.035  0.0513  0.2465  0.5701
 5973SOL     OW23657   4.201   0.159   6.092 -0.3954  0.3877 -0.4904
 5973SOL    HW223658   4.221   0.201   6.008  1.5568 -0.7824 -0.6559
 5973SOL    HW323659   4.214   0.229   6.157  1.5328  0.4141 -0.8716
 5973SOL    MW423660   4.205   0.174   6.090  0.1165  0.2368 -0.5625
 5974SOL     OW23661   4.853   4.027   0.932  0.5585 -0.3272  0.7459
 5974SOL    HW223662   4.842   4.121   0.917 -0.9687 -0.5566  0.2419
 5974SOL    HW323663   4.861   4.019   1.027  0.1959  0.2770  0.8340
 5974SOL    MW423664   4.853   4.038   0.943  0.3092 -0.2777  0.6910
 5975SOL     OW23665   2.028   1.810   0.553  0.1107  0.0817 -0.8442
 5975SOL    HW223666   1.954   1.751   0.540 -0.1265  0.4760 -1.3422
 5975SOL    HW323667   1.992   1.883   0.604  0.3493 -0.1043 -0.4098
 5975SOL    MW423668   2.013   1.812   0.558  0.1109  0.1092 -0.8526
 5976SOL     OW23669   5.614   5.957   4.308 -0.0685 -0.0047  0.1112
 5976SOL    HW223670   5.574   6.043   4.293 -0.4982 -0.0052  1.1884
 5976SOL    HW323671   5.602   5.910   4.226 -2.2520  0.0106  0.3683
 5976SOL    MW423672   5.607   5.962   4.295 -0.4133 -0.0028  0.2872
 5977SOL     OW23673   5.117   2.516   0.706 -0.4112 -0.1346  1.0743
 5977SOL    HW223674   5.054   2.465   0.655 -1.0636 -0.3111  2.0261
 5977SOL    HW323675   5.180   2.549   0.641 -1.9198  0.7229 -0.0194
 5977SOL    MW423676   5.117   2.514   0.691 -0.6963 -0.0447  1.0556
 5978SOL     OW23677   0.875   2.036   2.924  0.1853 -1.1694 -0.0829
 5978SOL    HW223678   0.888   1.968   2.990  1.0635 -1.5575 -0.6459
 5978SOL    HW323679   0.910   1.999   2.844  1.5171  0.2737 -0.2146
 5978SOL    MW423680   0.881   2.022   2.922  0.4769 -1.0302 -0.1746
 5979SOL     OW23681   5.933   2.255   1.679 -0.4505  0.6636 -0.0061
 5979SOL    HW223682   6.026   2.245   1.698 -0.4152 -0.3226 -0.6134
 5979SOL    HW323683   5.912   2.180   1.623 -1.3260  1.5737 -0.9227
 5979SOL    MW423684   5.943   2.244   1.674 -0.5614  0.6535 -0.2072
 5980SOL     OW23685   4.929   2.867   0.987  0.3122 -0.4887 -0.0962
 5980SOL    HW223686   5.024   2.858   0.985  0.2862 -0.9341  0.3924
 5980SOL    HW323687   4.914   2.949   1.032  0.4559 -0.8926  0.7122
 5980SOL    MW423688   4.940   2.876   0.993  0.3277 -0.6007  0.0749
 5981SOL     OW23689   0.361   3.689   2.673  0.2440 -0.7158  0.0961
 5981SOL    HW223690   0.363   3.682   2.577 -0.1962  0.2373  0.0071
 5981SOL    HW323691   0.450   3.717   2.696  0.0890 -0.0419 -0.1157
 5981SOL    MW423692   0.373   3.692   2.663  0.1655 -0.5012  0.0564
 5982SOL     OW23693   3.704   5.298   0.359  0.5105  0.3471 -0.0164
 5982SOL    HW223694   3.696   5.281   0.452 -0.1907  0.7724  0.0088
 5982SOL    HW323695   3.717   5.393   0.353 -0.3242  0.4429 -0.3914
 5982SOL    MW423696   3.705   5.309   0.370  0.3079  0.4158 -0.0626
 5983SOL     OW23697   6.351   1.366   5.073  0.6470  0.1266 -0.1130
 5983SOL    HW223698   6.440   1.397   5.056  0.6611 -0.6042 -1.5150
 5983SOL    HW323699   6.307   1.442   5.111  2.1574  0.1572  1.7327
 5983SOL    MW423700   6.357   1.380   5.076  0.8482  0.0342 -0.0545
 5984SOL     OW23701   4.653   6.278   3.728 -0.0132  0.1785 -0.2468
 5984SOL    HW223702   4.734   6.302   3.684  0.3088 -0.3787  0.0222
 5984SOL    HW323703   4.679   6.260   3.819 -0.6084  0.9815  0.0906
 5984SOL    MW423704   4.667   6.279   3.734 -0.0493  0.2109 -0.1668
 5985SOL     OW23705   1.851   6.260   3.638 -0.0716  0.1062 -0.2088
 5985SOL    HW223706   1.941   6.244   3.608 -0.4750 -0.4805 -1.1526
 5985SOL    HW323707   1.862   6.297   3.725  1.0316 -3.0927  1.1603
 5985SOL    MW423708   1.865   6.263   3.645  0.0207 -0.3933 -0.1527
 5986SOL     OW23709   3.485   0.496   0.280 -0.5397 -0.5105  0.2155
 5986SOL    HW223710   3.434   0.416   0.265  0.1303 -1.3590  2.2269
 5986SOL    HW323711   3.482   0.510   0.374  1.0181  0.7326  0.1236
 5986SOL    MW423712   3.478   0.488   0.290 -0.2457 -0.4584  0.4687
 5987SOL     OW23713   1.229   3.010   3.447  0.5029  0.1072  0.3278
 5987SOL    HW223714   1.146   3.010   3.401  0.0211  0.2889  1.1690
 5987SOL    HW323715   1.234   2.923   3.488  1.0701 -0.1692 -0.3005
 5987SOL    MW423716   1.219   2.998   3.447  0.5141  0.0947  0.3559
 5988SOL     OW23717   1.712   4.129   1.945  0.4470  0.2049 -0.5207
 5988SOL    HW223718   1.716   4.167   1.857 -2.7627 -0.6667 -1.1816
 5988SOL    HW323719   1.708   4.034   1.929 -0.5030  0.0503  0.5138
 5988SOL    MW423720   1.712   4.121   1.931 -0.1018  0.0695 -0.4714
 5989SOL     OW23721   2.900   3.953   2.472 -0.6331 -0.6096 -0.1882
 5989SOL    HW223722   2.955   3.921   2.543  0.7905  0.5693 -0.7061
 5989SOL    HW323723   2.831   4.002   2.516  0.0973 -0.0896  0.4098
 5989SOL    MW423724   2.898   3.955   2.487 -0.3489 -0.3854 -0.1777
 5990SOL     OW23725   5.854   5.163   1.070  0.1864 -0.3073  0.3622
 5990SOL    HW223726   5.787   5.195   1.129 -1.5267 -2.3469 -0.3428
 5990SOL    HW323727   5.894   5.089   1.117  1.3294  0.3116  0.3980
 5990SOL    MW423728   5.851   5.157   1.084  0.1112 -0.4947  0.2739
 5991SOL     OW23729   2.199   4.150   0.850  0.8357  0.4185  0.2375
 5991SOL    HW223730   2.197   4.096   0.772  0.0647 -0.2752  0.7306
 5991SOL    HW323731   2.115   4.136   0.893  0.5017  2.1897  0.2623
 5991SOL    MW423732   2.188   4.141   0.846  0.6899  0.5606  0.3058
 5992SOL     OW23733   1.408   4.044   4.246 -0.3794  0.1416 -0.3564
 5992SOL    HW223734   1.494   4.065   4.282 -0.1407  0.2781 -1.0079
 5992SOL    HW323735   1.398   4.100   4.170 -2.0595  1.8848  1.0238
 5992SOL    MW423736   1.418   4.054   4.241 -0.5696  0.3896 -0.2603
 5993SOL     OW23737   0.620   4.703   5.755 -0.3555 -0.2467  0.1493
 5993SOL    HW223738   0.539   4.658   5.779 -1.1674  1.3503  0.5493
 5993SOL    HW323739   0.595   4.794   5.746  1.4461  0.3270  0.4951
 5993SOL    MW423740   0.606   4.709   5.757 -0.2249  0.0397  0.2477
 5994SOL     OW23741   0.907   5.003   3.349  0.3036  0.5372 -0.4029
 5994SOL    HW223742   0.943   4.967   3.430  0.0801 -0.6151 -0.8019
 5994SOL    HW323743   0.948   5.090   3.341 -0.1207  0.9198  1.2373
 5994SOL    MW423744   0.917   5.010   3.358  0.2182  0.4357 -0.2391
 5995SOL     OW23745   5.520   1.040   0.167 -0.9993 -0.0483  0.3158
 5995SOL    HW223746   5.601   1.023   0.119 -1.2550 -0.9174  0.1741
 5995SOL    HW323747   5.530   1.129   0.200 -0.7275  0.5100 -1.1812
 5995SOL    MW423748   5.532   1.050   0.165 -0.9971 -0.0893  0.0996
 5996SOL     OW23749   5.521   3.912   5.056  0.1050 -0.1286 -0.1573
 5996SOL    HW223750   5.479   3.836   5.015  0.9188 -0.6415 -0.0647
 5996SOL    HW323751   5.585   3.942   4.991 -0.0755  0.3529 -0.1106
 5996SOL    MW423752   5.524   3.906   5.042  0.1885 -0.1328 -0.1389
 5997SOL     OW23753   4.772   1.604   2.673  0.2805 -0.2314  0.0593
 5997SOL    HW223754   4.750   1.538   2.607  0.6358  0.2480 -0.5314
 5997SOL    HW323755   4.698   1.601   2.734 -0.3130 -0.2755 -0.6582
 5997SOL    MW423756   4.759   1.595   2.673  0.2491 -0.1740 -0.1133
 5998SOL     OW23757   4.257   0.253   2.586  0.1657  0.0374 -0.2701
 5998SOL    HW223758   4.210   0.288   2.510  0.3671 -1.4402 -1.1098
 5998SOL    HW323759   4.347   0.245   2.556  0.3389 -0.1228  0.2924
 5998SOL    MW423760   4.263   0.257   2.572  0.2152 -0.1787 -0.3067
 5999SOL     OW23761   5.382   0.586   5.202  0.2284 -0.1142  0.2712
 5999SOL    HW223762   5.315   0.585   5.270  1.0626 -0.5802  1.1180
 5999SOL    HW323763   5.438   0.511   5.223  0.9902  0.2466 -0.4290
 5999SOL    MW423764   5.381   0.576   5.214  0.4390 -0.1281  0.2906
 6000SOL     OW23765   5.120   5.901   1.872  0.1651 -0.5411  0.2280
 6000SOL    HW223766   5.211   5.873   1.865  0.1655 -0.4710 -0.0619
 6000SOL    HW323767   5.107   5.919   1.965  0.3557 -0.8554  0.3172
 6000SOL    MW423768   5.130   5.900   1.883  0.1903 -0.5733  0.2015
 6001SOL     OW23769   5.230   3.277   4.575  0.1284  0.1235 -0.2560
 6001SOL    HW223770   5.179   3.349   4.612 -0.4589 -0.9768  1.1721
 6001SOL    HW323771   5.190   3.198   4.610  1.4086 -0.8802 -0.9361
 6001SOL    MW423772   5.218   3.276   4.585  0.2198 -0.1541 -0.1573
 6002SOL     OW23773   4.896   1.360   5.677  0.0297  0.3750 -0.0290
 6002SOL    HW223774   4.896   1.337   5.584 -0.8595 -1.3874  0.3599
 6002SOL    HW323775   4.850   1.444   5.682  0.6747  0.8154 -1.2378
 6002SOL    MW423776   4.890   1.368   5.665 -0.0025  0.2006 -0.1371
 6003SOL     OW23777   4.111   2.954   6.218 -0.3126  0.1903  0.3211
 6003SOL    HW223778   4.201   2.952   6.186 -0.8210  0.0753 -1.1702
 6003SOL    HW323779   4.120   2.950   6.313  1.2563  0.2849  0.2125
 6003SOL    MW423780   4.124   2.954   6.226 -0.1726  0.1876  0.1100
 6004SOL     OW23781   4.920   5.963   4.116  0.0200  0.3368 -0.8381
 6004SOL    HW223782   4.898   5.892   4.175  1.4064 -0.4215 -1.1797
 6004SOL    HW323783   4.999   5.933   4.071 -0.4318  1.3073 -2.3507
 6004SOL    MW423784   4.928   5.950   4.118  0.1433  0.3648 -1.0827
 6005SOL     OW23785   1.448   3.316   1.178 -0.4695 -0.4685 -0.1472
 6005SOL    HW223786   1.414   3.248   1.120 -1.0331 -0.2430 -0.0819
 6005SOL    HW323787   1.493   3.377   1.119  0.0292 -0.8850 -0.2077
 6005SOL    MW423788   1.450   3.315   1.162 -0.4781 -0.4937 -0.1465
 6006SOL     OW23789   2.308   0.548   3.917  0.0981  0.2680  0.2715
 6006SOL    HW223790   2.310   0.560   4.012 -1.0137  0.1281  0.3235
 6006SOL    HW323791   2.370   0.612   3.883 -1.6078  2.3495  0.9122
 6006SOL    MW423792   2.317   0.558   3.925 -0.2737  0.5242  0.3629
 6007SOL     OW23793   0.245   6.082   3.547 -0.6675  0.2144 -0.7674
 6007SOL    HW223794   0.284   6.009   3.498 -0.0797 -0.2411  0.3176
 6007SOL    HW323795   0.220   6.043   3.631  2.1851  1.7642  0.9648
 6007SOL    MW423796   0.247   6.067   3.552 -0.2136  0.3588 -0.3957
 6008SOL     OW23797   4.439   3.444   0.909  0.1165 -0.0796 -0.1121
 6008SOL    HW223798   4.454   3.532   0.873  0.2426 -0.2021 -0.3654
 6008SOL    HW323799   4.409   3.393   0.834 -0.9384 -0.0046  0.2537
 6008SOL    MW423800   4.437   3.449   0.894 -0.0061 -0.0859 -0.0973
 6009SOL     OW23801   5.107   6.431   6.221 -0.2031  0.5602  0.1352
 6009SOL    HW223802   5.041   6.420   6.289  1.7278  1.5437  2.3145
 6009SOL    HW323803   5.165   6.355   6.232  1.5950  2.0275  1.4551
 6009SOL    MW423804   5.106   6.419   6.231  0.2889  0.8836  0.5969
 6010SOL     OW23805   1.836   2.862   1.791  0.1088 -0.0022 -0.4018
 6010SOL    HW223806   1.872   2.819   1.868  1.4249 -0.7303 -1.3934
 6010SOL    HW323807   1.907   2.918   1.759 -0.1415 -0.3003 -1.5315
 6010SOL    MW423808   1.850   2.864   1.797  0.2494 -0.1376 -0.6817
 6011SOL     OW23809   1.209   3.418   5.971  0.7683  0.0841 -0.0892
 6011SOL    HW223810   1.230   3.360   5.898 -0.3780 -0.1674 -0.2313
 6011SOL    HW323811   1.210   3.506   5.932 -3.0932 -0.2313 -1.2981
 6011SOL    MW423812   1.212   3.422   5.956  0.1076  0.0093 -0.2674
 6012SOL     OW23813   2.095   6.229   4.406 -0.1989  0.2938  0.0064
 6012SOL    HW223814   2.011   6.244   4.362 -0.8668  1.7520  1.6638
 6012SOL    HW323815   2.090   6.137   4.434 -1.1160  0.2747 -0.1692
 6012SOL    MW423816   2.083   6.219   4.404 -0.4080  0.4836  0.2019
 6013SOL     OW23817   5.454   1.513   0.848  0.4277 -0.2446 -0.4468
 6013SOL    HW223818   5.459   1.424   0.884  1.1153  0.3585  1.0623
 6013SOL    HW323819   5.362   1.538   0.861  0.3429 -0.5583 -0.4143
 6013SOL    MW423820   5.442   1.504   0.855  0.5072 -0.2064 -0.2434
 6014SOL     OW23821   1.584   3.646   6.296  0.5366  0.0479 -0.1416
 6014SOL    HW223822   1.636   3.700   6.355 -2.6783  2.0865  1.0042
 6014SOL    HW323823   1.550   3.575   6.351 -0.8893  0.8487  0.0355
 6014SOL    MW423824   1.587   3.644   6.311 -0.0757  0.4225  0.0329
 6015SOL     OW23825   2.592   5.718   3.022  0.8867 -1.1717 -0.0817
 6015SOL    HW223826   2.573   5.640   2.970 -0.1146 -1.2677  0.4123
 6015SOL    HW323827   2.639   5.684   3.099  0.7753 -1.2427 -0.0446
 6015SOL    MW423828   2.596   5.703   3.025  0.7399 -1.1937 -0.0116
 6016SOL     OW23829   5.559   0.424   2.218 -0.4201  0.6017 -0.1568
 6016SOL    HW223830   5.478   0.468   2.191 -1.1516  0.0372  1.0504
 6016SOL    HW323831   5.530   0.344   2.262  0.8909 -1.2165 -2.4119
 6016SOL    MW423832   5.545   0.420   2.221 -0.3437  0.2873 -0.2951
 6017SOL     OW23833   0.154   1.869   2.351  0.7910 -0.5471  0.7667
 6017SOL    HW223834   0.143   1.960   2.325  1.8494 -0.4737  0.5581
 6017SOL    HW323835   0.104   1.861   2.433  0.5046  0.1513  0.6629
 6017SOL    MW423836   0.146   1.880   2.358  0.8929 -0.4453  0.7255
 6018SOL     OW23837   5.864   3.930   1.686  0.3810  0.3411  0.0396
 6018SOL    HW223838   5.791   3.887   1.729 -0.7081  2.0322 -0.0315
 6018SOL    HW323839   5.923   3.859   1.661 -0.8125 -0.9806  0.8721
 6018SOL    MW423840   5.862   3.915   1.689  0.0799  0.3899  0.1401
 6019SOL     OW23841   2.432   2.180   1.799  0.5340  0.0511 -0.0628
 6019SOL    HW223842   2.371   2.223   1.739 -0.4943  0.3560  1.1684
 6019SOL    HW323843   2.454   2.097   1.755 -2.8597 -1.3262  0.5878
 6019SOL    MW423844   2.427   2.175   1.785 -0.0494 -0.0904  0.1854
 6020SOL     OW23845   0.124   4.660   0.468  0.3887  0.4183  0.3205
 6020SOL    HW223846   0.036   4.692   0.447 -0.4427 -1.7668  0.1979
 6020SOL    HW323847   0.180   4.737   0.461 -1.2167  1.5099 -1.4337
 6020SOL    MW423848   0.120   4.674   0.464  0.0672  0.2740  0.0729
 6021SOL     OW23849   1.551   6.061   3.805  0.1446  0.0468  0.5670
 6021SOL    HW223850   1.516   6.063   3.716 -0.4336 -1.3570  0.7358
 6021SOL    HW323851   1.542   6.152   3.836  1.8474  0.9353 -1.3224
 6021SOL    MW423852   1.545   6.074   3.797  0.2929 -0.0212  0.3400
 6022SOL     OW23853   1.551   1.257   1.378  0.0489  0.9445  0.2726
 6022SOL    HW223854   1.476   1.268   1.436 -0.1989  2.6913 -0.3313
 6022SOL    HW323855   1.624   1.297   1.426  0.1525  1.0751  0.0086
 6022SOL    MW423856   1.551   1.264   1.392  0.0299  1.1922  0.1581
 6023SOL     OW23857   2.161   5.974   1.759  0.0679  0.7086  0.4222
 6023SOL    HW223858   2.156   5.980   1.664 -0.5992 -2.3695  0.1807
 6023SOL    HW323859   2.094   6.036   1.790  0.2162  1.6734 -1.0589
 6023SOL    MW423860   2.151   5.983   1.751 -0.0006  0.4298  0.1949
 6024SOL     OW23861   4.021   2.212   1.548  0.4194  0.5763  0.6839
 6024SOL    HW223862   4.074   2.286   1.518  1.4935  0.2754  1.7761
 6024SOL    HW323863   3.978   2.244   1.628 -0.0636  0.4019  0.5012
 6024SOL    MW423864   4.022   2.226   1.554  0.4974  0.5136  0.8039
 6025SOL     OW23865   0.809   1.055   3.450  0.4119  0.4549 -0.0326
 6025SOL    HW223866   0.745   1.013   3.507 -0.8070  1.4293 -0.6510
 6025SOL    HW323867   0.791   1.019   3.363  1.5720 -0.2308 -0.0193
 6025SOL    MW423868   0.798   1.045   3.446  0.4041  0.4930 -0.1125
 6026SOL     OW23869   0.160   0.368   6.159 -0.1149  0.3060  0.7703
 6026SOL    HW223870   0.093   0.431   6.133  0.1780  0.3041 -0.0108
 6026SOL    HW323871   0.238   0.395   6.111 -0.1346 -0.9771 -0.0478
 6026SOL    MW423872   0.161   0.380   6.149 -0.0789  0.1365  0.5593
 6027SOL     OW23873   1.308   5.508   0.983  0.4148 -0.5900  0.1615
 6027SOL    HW223874   1.227   5.498   1.032  0.8439 -0.0955  0.9933
 6027SOL    HW323875   1.375   5.521   1.050  0.8576  1.2064 -0.5589
 6027SOL    MW423876   1.306   5.509   0.998  0.5298 -0.2877  0.1762
 6028SOL     OW23877   4.470   1.806   1.631  0.1021  0.3474  0.1781
 6028SOL    HW223878   4.470   1.887   1.579 -0.6418  0.0515 -0.2870
 6028SOL    HW323879   4.435   1.739   1.572  2.1359 -0.6661  0.0392
 6028SOL    MW423880   4.465   1.808   1.616  0.2723  0.1747  0.0984
 6029SOL     OW23881   0.079   4.366   5.786 -0.2715 -0.8233 -0.0676
 6029SOL    HW223882  -0.006   4.321   5.780 -0.9156  0.3104  0.2794
 6029SOL    HW323883   0.066   4.434   5.852 -0.2511  1.8115 -2.5995
 6029SOL    MW423884   0.066   4.369   5.794 -0.3538 -0.3261 -0.3559
 6030SOL     OW23885   3.485   4.734   0.989  0.8955  0.6965  0.0966
 6030SOL    HW223886   3.430   4.768   0.918  0.2499  0.5358  0.5120
 6030SOL    HW323887   3.457   4.784   1.066  1.9090  1.1931  0.1582
 6030SOL    MW423888   3.474   4.745   0.990  0.9440  0.7408  0.1595
 6031SOL     OW23889   0.555   5.077   6.349 -0.1867 -0.5281 -0.0449
 6031SOL    HW223890   0.564   5.053   6.441  0.6410  1.8266  0.5736
 6031SOL    HW323891   0.599   5.007   6.301  0.9462 -0.9107  1.4766
 6031SOL    MW423892   0.562   5.065   6.355  0.0720 -0.2679  0.2374
 6032SOL     OW23893   0.549   6.018   4.239  0.0907  0.3371 -0.6716
 6032SOL    HW223894   0.617   5.959   4.271 -1.7128 -2.0555 -0.9113
 6032SOL    HW323895   0.592   6.073   4.174  1.7098 -1.3514 -1.0944
 6032SOL    MW423896   0.563   6.017   4.235  0.0663 -0.2014 -0.7590
 6033SOL     OW23897   4.368   1.956   6.268 -0.2602 -0.0164 -0.0475
 6033SOL    HW223898   4.301   2.017   6.299  0.1746  1.2636 -1.4540
 6033SOL    HW323899   4.319   1.880   6.237 -0.9929  0.4393 -0.0423
 6033SOL    MW423900   4.353   1.954   6.268 -0.2995  0.2126 -0.2324
 6034SOL     OW23901   3.203   4.199   4.407  0.0622 -0.4392  0.4077
 6034SOL    HW223902   3.175   4.221   4.318  0.5728  0.4410  0.4552
 6034SOL    HW323903   3.157   4.117   4.426 -0.6803 -0.2237 -0.3607
 6034SOL    MW423904   3.193   4.191   4.397  0.0316 -0.2947  0.3126
 6035SOL     OW23905   3.380   0.252   0.197  0.1203 -0.3274  0.1526
 6035SOL    HW223906   3.304   0.225   0.249 -0.5191  0.0911 -0.5517
 6035SOL    HW323907   3.361   0.219   0.109  0.6445 -0.0110 -0.0799
 6035SOL    MW423908   3.367   0.244   0.192  0.1051 -0.2305  0.0290
 6036SOL     OW23909   1.336   3.215   4.780  0.5722  0.2489  0.8180
 6036SOL    HW223910   1.356   3.139   4.833 -1.4664 -0.1402  1.1042
 6036SOL    HW323911   1.245   3.237   4.802  0.0109  0.7349 -1.6874
 6036SOL    MW423912   1.327   3.208   4.790  0.2292  0.2617  0.5252
 6037SOL     OW23913   5.189   4.040   1.401 -0.4482  0.5180 -0.0928
 6037SOL    HW223914   5.167   4.098   1.474  0.2499  0.7829 -0.0808
 6037SOL    HW323915   5.277   4.067   1.375  0.1816 -0.9748  0.3489
 6037SOL    MW423916   5.198   4.051   1.407 -0.2730  0.3560 -0.0329
 6038SOL     OW23917   3.871   3.133   2.758  0.0853 -0.1043  0.2773
 6038SOL    HW223918   3.810   3.206   2.766  1.1347  1.0010 -1.1858
 6038SOL    HW323919   3.848   3.092   2.675 -0.2723 -1.2675  0.9251
 6038SOL    MW423920   3.860   3.137   2.748  0.1765 -0.1119  0.1697
 6039SOL     OW23921   0.730   2.256   2.730  0.1059  0.5744  0.4887
 6039SOL    HW223922   0.818   2.263   2.766  0.9897  0.5172 -1.5359
 6039SOL    HW323923   0.743   2.245   2.636 -1.9841 -1.4484  0.3255
 6039SOL    MW423924   0.743   2.255   2.723 -0.0532  0.3000  0.2000
 6040SOL     OW23925   0.949   5.957   1.934 -0.0881  0.3048  0.4966
 6040SOL    HW223926   1.036   5.994   1.952  0.0647  1.4118 -2.1023
 6040SOL    HW323927   0.899   5.974   2.013  1.8738  0.1914  1.8325
 6040SOL    MW423928   0.954   5.964   1.947  0.1909  0.4359  0.3300
 6041SOL     OW23929   4.823   0.892   1.078 -0.1048  0.5096  0.2022
 6041SOL    HW223930   4.863   0.870   0.994 -0.1562 -0.6289  0.4694
 6041SOL    HW323931   4.778   0.813   1.105 -2.4391  1.6893 -0.0074
 6041SOL    MW423932   4.823   0.879   1.070 -0.4195  0.5150  0.2098
 6042SOL     OW23933   4.148   4.496   0.876 -0.5494 -0.1612 -0.4079
 6042SOL    HW223934   4.165   4.446   0.956 -1.8298 -0.5803 -0.3700
 6042SOL    HW323935   4.207   4.457   0.811  1.6488  1.2086  0.6525
 6042SOL    MW423936   4.158   4.484   0.878 -0.4283 -0.0357 -0.2630
 6043SOL     OW23937   6.426   4.069   2.357  0.1485  0.3653 -0.2262
 6043SOL    HW223938   6.442   4.031   2.271  1.2093 -1.1133  0.5733
 6043SOL    HW323939   6.507   4.115   2.378  0.3218 -0.2096  0.4193
 6043SOL    MW423940   6.439   4.070   2.348  0.3113  0.0944 -0.0356
 6044SOL     OW23941   2.116   2.208   0.745  0.0387  0.0880 -0.4896
 6044SOL    HW223942   2.114   2.301   0.724 -2.9721  0.0314 -0.8752
 6044SOL    HW323943   2.105   2.205   0.840 -1.7233  0.1403 -0.6692
 6044SOL    MW423944   2.115   2.220   0.755 -0.5910  0.0874 -0.5642
 6045SOL     OW23945   4.702   5.418   6.217  0.6547  0.4656 -0.2044
 6045SOL    HW223946   4.690   5.513   6.214 -0.8244  0.2971 -0.6432
 6045SOL    HW323947   4.760   5.398   6.143 -0.4245  0.8731 -1.1954
 6045SOL    MW423948   4.708   5.428   6.207  0.3172  0.4971 -0.3931
 6046SOL     OW23949   1.305   1.711   4.178 -0.7008 -0.3013 -0.3903
 6046SOL    HW223950   1.329   1.749   4.093  0.4934  2.5460  1.0684
 6046SOL    HW323951   1.218   1.746   4.196 -0.6984 -0.3963 -0.1891
 6046SOL    MW423952   1.297   1.721   4.169 -0.5430  0.0618 -0.1713
 6047SOL     OW23953   3.352   5.404   5.679  0.2730 -0.8228 -0.0933
 6047SOL    HW223954   3.394   5.468   5.622  1.2520 -0.7619  0.6826
 6047SOL    HW323955   3.294   5.455   5.735  1.6831 -0.4954  1.0966
 6047SOL    MW423956   3.350   5.419   5.679  0.5882 -0.7716  0.1661
 6048SOL     OW23957   2.445   5.893   1.548  0.3690 -0.3959  0.6761
 6048SOL    HW223958   2.425   5.873   1.639  0.7317 -0.6599  0.6988
 6048SOL    HW323959   2.401   5.977   1.532  1.1959  0.1953  1.4049
 6048SOL    MW423960   2.437   5.902   1.558  0.5260 -0.3527  0.7753
 6049SOL     OW23961   3.689   6.426   1.926 -0.3761 -0.3710 -0.9500
 6049SOL    HW223962   3.671   6.494   1.862  1.3883  1.6027  0.5008
 6049SOL    HW323963   3.749   6.366   1.881  0.8347  0.9731 -1.2198
 6049SOL    MW423964   3.695   6.427   1.912  0.0165  0.0667 -0.7942
 6050SOL     OW23965   5.077   2.042   5.652  0.3852 -0.4567  0.3804
 6050SOL    HW223966   5.091   2.050   5.746  0.5748  2.2483  0.2193
 6050SOL    HW323967   4.987   2.009   5.644  0.2804 -0.4767  1.5096
 6050SOL    MW423968   5.067   2.039   5.663  0.3964 -0.1025  0.5081
 6051SOL     OW23969   6.087   1.443   2.416  0.4580 -0.0982  0.0411
 6051SOL    HW223970   6.023   1.510   2.441  0.9729  0.5316 -0.3139
 6051SOL    HW323971   6.132   1.422   2.498  0.3529  0.0475  0.1382
 6051SOL    MW423972   6.085   1.449   2.430  0.5121  0.0041  0.0071
 6052SOL     OW23973   4.949   4.400   2.005  0.3525 -0.0457 -0.3413
 6052SOL    HW223974   4.929   4.398   2.099 -2.4113  0.4020 -0.8558
 6052SOL    HW323975   4.986   4.314   1.986  0.3186 -0.3768  1.0157
 6052SOL    MW423976   4.951   4.388   2.015 -0.0166 -0.0303 -0.2301
 6053SOL     OW23977   5.187   4.877   2.663 -0.4179 -0.6181 -0.2425
 6053SOL    HW223978   5.268   4.828   2.657  0.1088  0.2807 -0.6854
 6053SOL    HW323979   5.131   4.824   2.720  0.9320 -0.6155  1.1480
 6053SOL    MW423980   5.190   4.864   2.670 -0.1703 -0.4991 -0.1175
 6054SOL     OW23981   4.031   6.021   5.081 -0.1860 -0.0122 -0.2906
 6054SOL    HW223982   4.086   6.026   5.159 -0.4205 -0.3113 -0.1055
 6054SOL    HW323983   4.088   5.986   5.013  0.1646  0.7345 -0.3934
 6054SOL    MW423984   4.046   6.017   5.082 -0.1707  0.0468 -0.2798
 6055SOL     OW23985   5.022   5.252   5.921  0.1592 -0.3646  0.5769
 6055SOL    HW223986   5.067   5.304   5.988  0.5747  0.5638 -0.3942
 6055SOL    HW323987   5.084   5.183   5.899  1.6412  1.4879 -1.4776
 6055SOL    MW423988   5.036   5.250   5.927  0.4096  0.0023  0.1777
 6056SOL     OW23989   1.769   3.478   1.437  0.1762  0.5909 -0.0039
 6056SOL    HW223990   1.859   3.472   1.405  0.2525  0.8982  0.1456
 6056SOL    HW323991   1.741   3.566   1.412 -0.1356  0.4438 -0.1817
 6056SOL    MW423992   1.777   3.489   1.429  0.1451  0.6120 -0.0076
 6057SOL     OW23993   3.591   3.077   5.494 -0.2614 -0.7528  0.4683
 6057SOL    HW223994   3.531   3.098   5.566  1.7348 -0.0189  2.0104
 6057SOL    HW323995   3.673   3.119   5.518  0.4049 -0.1407 -2.4808
 6057SOL    MW423996   3.594   3.086   5.507  0.0899 -0.5752  0.2827
 6058SOL     OW23997   4.632   4.684   1.747  0.3561 -0.4183  0.0824
 6058SOL    HW223998   4.595   4.620   1.807  1.2958 -1.7903 -0.7350
 6058SOL    HW323999   4.684   4.742   1.803  0.8918 -1.4293  0.6697
 6058SOL    MW424000   4.634   4.683   1.763  0.5508 -0.7327  0.0521
 6059SOL     OW24001   3.351   4.154   0.737  0.0152 -0.7284  0.0230
 6059SOL    HW224002   3.300   4.134   0.816 -0.3049 -1.3961 -0.3490
 6059SOL    HW324003   3.322   4.090   0.672  1.9756 -1.7700  0.0730
 6059SOL    MW424004   3.341   4.142   0.739  0.2316 -0.9539 -0.0195
 6060SOL     OW24005   0.031   1.542   4.479  0.2133  0.3983 -0.5061
 6060SOL    HW224006   0.084   1.578   4.550  1.3080  1.0277 -1.6111
 6060SOL    HW324007  -0.038   1.606   4.465  0.5533  0.7359 -0.6411
 6060SOL    MW424008   0.029   1.555   4.486  0.4026  0.5259 -0.6697
 6061SOL     OW24009   2.696   6.336   3.670 -0.2604 -0.3822 -0.2104
 6061SOL    HW224010   2.660   6.425   3.673 -0.8467 -0.6235  1.8984
 6061SOL    HW324011   2.655   6.295   3.594 -1.6790  0.4946  0.0481
 6061SOL    MW424012   2.686   6.342   3.661 -0.5249 -0.2984  0.1019
 6062SOL     OW24013   4.939   5.485   5.196  0.1516  0.1336 -0.3469
 6062SOL    HW224014   4.911   5.415   5.254 -1.1232  1.2325  0.4195
 6062SOL    HW324015   4.952   5.561   5.254  3.1806  0.1693 -0.8782
 6062SOL    MW424016   4.937   5.486   5.211  0.3830  0.2833 -0.3158
 6063SOL     OW24017   6.249   6.156   2.774 -0.4686  0.0059 -0.6338
 6063SOL    HW224018   6.265   6.250   2.779 -1.0743  0.0445  1.1039
 6063SOL    HW324019   6.154   6.147   2.788 -0.3947 -0.8712 -0.6263
 6063SOL    MW424020   6.238   6.167   2.776 -0.5388 -0.1047 -0.4035
 6064SOL     OW24021   6.319   5.418   5.711  0.0225  0.1270 -0.1506
 6064SOL    HW224022   6.269   5.431   5.630  0.7491 -0.8453 -0.7801
 6064SOL    HW324023   6.294   5.492   5.767 -2.1567 -0.3765 -0.3924
 6064SOL    MW424024   6.309   5.430   5.707 -0.1691 -0.0677 -0.2656
 6065SOL     OW24025   3.266   2.246   6.317  0.9148  0.2284  0.2465
 6065SOL    HW224026   3.240   2.295   6.395  3.3119  2.0512  0.0166
 6065SOL    HW324027   3.254   2.308   6.245  1.4503 -0.4457 -0.4358
 6065SOL    MW424028   3.261   2.260   6.318  1.3017  0.3800  0.1262
 6066SOL     OW24029   0.029   3.336   3.337  0.1333  0.2523 -0.7166
 6066SOL    HW224030  -0.006   3.258   3.380  1.5661  1.0440  2.1120
 6066SOL    HW324031  -0.005   3.409   3.388  1.6841  1.2779 -1.0905
 6066SOL    MW424032   0.020   3.335   3.349  0.5270  0.4921 -0.3927
 6067SOL     OW24033   2.417   3.716   1.344  0.0076  0.1510 -0.1570
 6067SOL    HW224034   2.441   3.637   1.297  1.9937  0.7196 -0.2089
 6067SOL    HW324035   2.450   3.787   1.290 -0.0183  0.9231  0.8091
 6067SOL    MW424036   2.425   3.715   1.331  0.2662  0.3279 -0.0364
 6068SOL     OW24037   4.829   4.724   0.669  0.0413 -0.1620 -0.0226
 6068SOL    HW224038   4.825   4.687   0.757 -0.0268  0.7800  0.3758
 6068SOL    HW324039   4.874   4.808   0.680  0.2937 -0.1676 -0.9318
 6068SOL    MW424040   4.834   4.730   0.682  0.0656 -0.0384 -0.0900
 6069SOL     OW24041   0.416   2.953   1.794 -0.4839  0.2220 -0.9324
 6069SOL    HW224042   0.415   2.946   1.698  0.0501 -2.9107 -0.8184
 6069SOL    HW324043   0.492   2.901   1.821 -1.4906 -0.2290  1.2552
 6069SOL    MW424044   0.426   2.945   1.785 -0.5463 -0.2508 -0.6287
 6070SOL     OW24045   2.237   4.219   2.216 -0.7041 -0.2653 -0.2937
 6070SOL    HW224046   2.292   4.143   2.233 -1.5116 -0.4361  1.8520
 6070SOL    HW324047   2.297   4.286   2.184  0.6796 -0.6376  1.4074
 6070SOL    MW424048   2.252   4.218   2.214 -0.6281 -0.3370  0.2139
 6071SOL     OW24049   1.416   0.548   4.071 -0.0574 -0.1376 -0.0776
 6071SOL    HW224050   1.470   0.470   4.056 -0.0328 -0.0362 -0.5143
 6071SOL    HW324051   1.407   0.589   3.985 -1.3467 -0.4838 -0.1244
 6071SOL    MW424052   1.422   0.543   4.058 -0.2242 -0.1699 -0.1414
 6072SOL     OW24053   4.861   1.292   5.426  0.1650  0.0443 -0.1507
 6072SOL    HW224054   4.898   1.360   5.369 -0.4104 -0.7902 -1.5827
 6072SOL    HW324055   4.926   1.222   5.424  0.7448  0.4906  1.3047
 6072SOL    MW424056   4.874   1.292   5.418  0.1656 -0.0069 -0.1476
 6073SOL     OW24057   5.028   3.289   2.947 -0.2445 -0.3316  0.3777
 6073SOL    HW224058   4.944   3.307   2.905 -0.9337  0.5351  2.0252
 6073SOL    HW324059   5.092   3.294   2.876 -1.4448  0.2679 -0.6962
 6073SOL    MW424060   5.025   3.292   2.932 -0.4938 -0.1382  0.4534
 6074SOL     OW24061   1.746   1.932   6.125 -0.0833  0.2443 -0.1150
 6074SOL    HW224062   1.696   2.012   6.106 -0.4306 -0.0554 -0.4699
 6074SOL    HW324063   1.758   1.890   6.039  0.1380 -0.0625  0.0644
 6074SOL    MW424064   1.741   1.937   6.111 -0.0999  0.1643 -0.1381
 6075SOL     OW24065   2.034   3.224   0.249  0.4743 -0.3640  0.1138
 6075SOL    HW224066   1.991   3.251   0.331  2.9888  2.6322  0.6547
 6075SOL    HW324067   1.980   3.263   0.180 -0.1013 -0.4811  0.4861
 6075SOL    MW424068   2.021   3.233   0.251  0.7301  0.0158  0.2343
 6076SOL     OW24069   2.693   2.026   2.611 -0.3530 -0.5891 -0.0786
 6076SOL    HW224070   2.764   1.978   2.569 -0.2557  0.0802 -0.6936
 6076SOL    HW324071   2.703   2.116   2.579  0.4888  0.2432  2.3060
 6076SOL    MW424072   2.704   2.031   2.601 -0.2291 -0.3910  0.1549
 6077SOL     OW24073   1.810   3.187   5.268  0.0420  0.3284 -0.5041
 6077SOL    HW224074   1.733   3.201   5.323 -1.0225  0.1563 -1.9124
 6077SOL    HW324075   1.832   3.273   5.233  0.0328  0.2465 -0.7110
 6077SOL    MW424076   1.803   3.200   5.271 -0.0997  0.2949 -0.7172
 6078SOL     OW24077   5.495   2.021   2.528  0.1280 -0.2479  0.5233
 6078SOL    HW224078   5.475   1.982   2.613 -2.7465 -0.7247 -0.2596
 6078SOL    HW324079   5.452   2.107   2.531  1.1408  0.2859  0.0197
 6078SOL    MW424080   5.487   2.027   2.540 -0.1176 -0.2404  0.3535
 6079SOL     OW24081   3.307   1.591   0.944  0.7814 -0.1778  0.5350
 6079SOL    HW224082   3.243   1.602   0.873  1.1930 -0.0832  0.1751
 6079SOL    HW324083   3.257   1.610   1.023  0.0279 -1.3700  0.3768
 6079SOL    MW424084   3.292   1.595   0.945  0.7363 -0.3226  0.4667
 6080SOL     OW24085   4.835   3.992   3.796 -0.8248  0.2499  0.3325
 6080SOL    HW224086   4.888   3.943   3.732 -1.2132  0.6959 -0.3345
 6080SOL    HW324087   4.829   3.933   3.871 -0.1997 -0.2047  0.0369
 6080SOL    MW424088   4.842   3.978   3.798 -0.7936  0.2488  0.2055
 6081SOL     OW24089   5.680   5.593   2.177 -0.1931  0.2910  0.2537
 6081SOL    HW224090   5.759   5.565   2.223  1.8002  2.0919 -1.8491
 6081SOL    HW324091   5.632   5.512   2.161  1.6785 -0.9929  0.7914
 6081SOL    MW424092   5.684   5.579   2.181  0.3168  0.3592  0.0472
 6082SOL     OW24093   1.374   0.083   1.506 -0.3306  0.1466 -0.3024
 6082SOL    HW224094   1.378   0.044   1.594  0.8866  0.5989 -0.1282
 6082SOL    HW324095   1.441   0.036   1.456  0.8196  1.6100 -0.2293
 6082SOL    MW424096   1.384   0.072   1.511 -0.0183  0.3994 -0.2698
 6083SOL     OW24097   0.067   0.972   1.536 -0.2133 -0.3681 -0.0488
 6083SOL    HW224098   0.001   1.040   1.549  0.0419 -0.6392  3.7505
 6083SOL    HW324099   0.019   0.889   1.546  0.6107 -0.5875  4.3036
 6083SOL    MW424100   0.052   0.970   1.539 -0.0709 -0.4328  1.0267
 6084SOL     OW24101   6.162   1.458   4.026 -0.1145 -0.1208  0.0988
 6084SOL    HW224102   6.236   1.423   4.075  0.6939  2.5348  0.9960
 6084SOL    HW324103   6.155   1.549   4.056 -0.5895  1.2269 -3.5150
 6084SOL    MW424104   6.171   1.466   4.036 -0.0705  0.4074 -0.2596
 6085SOL     OW24105   1.495   2.367   2.231  0.4693  0.1982  0.0028
 6085SOL    HW224106   1.501   2.275   2.257 -0.1232  0.1179 -0.1459
 6085SOL    HW324107   1.473   2.364   2.138  0.3858  0.4934  0.0140
 6085SOL    MW424108   1.493   2.354   2.222  0.3801  0.2266 -0.0154
 6086SOL     OW24109   0.301   5.632   2.579 -0.2808  0.3842 -0.8464
 6086SOL    HW224110   0.213   5.609   2.609  0.4075  0.3027  1.2805
 6086SOL    HW324111   0.308   5.726   2.596  0.1692  0.3130 -0.6298
 6086SOL    MW424112   0.290   5.641   2.585 -0.1306  0.3641 -0.5372
 6087SOL     OW24113   4.631   0.746   0.732 -0.0768 -0.2652 -0.3980
 6087SOL    HW224114   4.656   0.818   0.673  1.1993 -2.2389 -2.4203
 6087SOL    HW324115   4.571   0.693   0.681 -0.8937 -0.7550  1.0144
 6087SOL    MW424116   4.627   0.749   0.718 -0.0162 -0.5903 -0.4785
 6088SOL     OW24117   2.489   1.388   4.067 -0.0404 -0.5997 -0.4315
 6088SOL    HW224118   2.413   1.333   4.052 -1.2275  0.9552 -0.4151
 6088SOL    HW324119   2.496   1.441   3.987 -0.1848  0.6205  0.3444
 6088SOL    MW424120   2.480   1.388   4.054 -0.2161 -0.2336 -0.3270
 6089SOL     OW24121   1.687   0.846   6.200 -0.4069  0.7710 -0.4214
 6089SOL    HW224122   1.714   0.848   6.108  1.2648  2.5532  0.0364
 6089SOL    HW324123   1.737   0.917   6.241 -1.0803  0.0011  1.8824
 6089SOL    MW424124   1.697   0.856   6.193 -0.2752  0.9045 -0.0570
 6090SOL     OW24125   2.937   5.732   0.606 -0.0927 -0.2025 -0.1165
 6090SOL    HW224126   2.918   5.765   0.518  0.3721 -1.4155 -0.6863
 6090SOL    HW324127   2.939   5.637   0.597  0.3421 -0.3363  1.1303
 6090SOL    MW424128   2.935   5.724   0.593  0.0260 -0.3802 -0.0271
 6091SOL     OW24129   4.795   5.625   1.648 -0.2909  0.2924 -0.0308
 6091SOL    HW224130   4.890   5.619   1.658 -0.3574 -2.5770 -0.2042
 6091SOL    HW324131   4.760   5.592   1.731 -1.0732 -1.1229 -0.8857
 6091SOL    MW424132   4.803   5.620   1.661 -0.4029 -0.2729 -0.1665
 6092SOL     OW24133   6.229   0.193   5.857 -0.1390 -0.0296 -0.1343
 6092SOL    HW224134   6.191   0.208   5.944  0.3085 -3.5649  0.8167
 6092SOL    HW324135   6.154   0.179   5.800 -0.4253 -0.9652  0.4455
 6092SOL    MW424136   6.214   0.193   5.861 -0.1178 -0.6195  0.0677
 6093SOL     OW24137   2.096   1.402   1.928  0.0007  0.1073  0.3678
 6093SOL    HW224138   2.086   1.485   1.975  1.8356  0.1860  0.6801
 6093SOL    HW324139   2.097   1.427   1.835 -0.6204  0.2909  0.4076
 6093SOL    MW424140   2.095   1.417   1.922  0.1608  0.1419  0.4143
 6094SOL     OW24141   6.400   1.111   0.780  0.1916  0.1053 -0.4333
 6094SOL    HW224142   6.400   1.021   0.814 -0.7891  0.4508  0.5368
 6094SOL    HW324143   6.492   1.130   0.763  0.3850 -1.1901 -0.9611
 6094SOL    MW424144   6.412   1.101   0.782  0.0877 -0.0200 -0.3749
 6095SOL     OW24145   2.725   5.313   4.823  0.0750 -0.0637 -0.2519
 6095SOL    HW224146   2.670   5.235   4.824  1.7090 -1.2437 -0.1279
 6095SOL    HW324147   2.799   5.291   4.879  0.7338  1.4699 -0.4760
 6095SOL    MW424148   2.727   5.300   4.831  0.3775 -0.0171 -0.2651
 6096SOL     OW24149   2.532   2.579   4.249  0.2984 -0.5192  0.4940
 6096SOL    HW224150   2.521   2.646   4.183  0.9602 -0.7780  0.1189
 6096SOL    HW324151   2.626   2.570   4.260  0.2608 -2.1080 -0.2168
 6096SOL    MW424152   2.543   2.586   4.242  0.3808 -0.7630  0.3508
 6097SOL     OW24153   0.808   5.828   3.841 -0.2410  0.3443  0.1681
 6097SOL    HW224154   0.851   5.909   3.869  0.4950  0.4589 -1.2228
 6097SOL    HW324155   0.748   5.808   3.912  2.6762 -0.2790  2.6873
 6097SOL    MW424156   0.806   5.836   3.854  0.2410  0.2772  0.3169
 6098SOL     OW24157   2.365   2.855   1.856 -0.2203 -0.2798  0.2763
 6098SOL    HW224158   2.397   2.851   1.946 -0.7821  1.1892  0.5709
 6098SOL    HW324159   2.308   2.932   1.855 -0.6618 -0.6074 -1.1995
 6098SOL    MW424160   2.362   2.865   1.868 -0.3527 -0.1292  0.1204
 6099SOL     OW24161   3.856   3.194   0.816 -0.2220 -0.3419  1.0306
 6099SOL    HW224162   3.935   3.192   0.870 -0.4805 -0.2034  1.4173
 6099SOL    HW324163   3.818   3.280   0.832 -0.6044 -0.5136  1.0673
 6099SOL    MW424164   3.862   3.205   0.825 -0.3066 -0.3463  1.0864
 6100SOL     OW24165   4.047   4.193   0.630  0.6102  0.0459 -0.5543
 6100SOL    HW224166   4.127   4.235   0.663  1.4413 -0.5605 -1.6915
 6100SOL    HW324167   3.991   4.185   0.706  2.3374 -1.0857  0.6829
 6100SOL    MW424168   4.050   4.197   0.644  0.9477 -0.1834 -0.5411
 6101SOL     OW24169   4.080   4.143   3.385  0.0293 -0.0215 -0.2487
 6101SOL    HW224170   3.991   4.152   3.419 -0.6649 -0.9642 -1.7149
 6101SOL    HW324171   4.106   4.054   3.407  0.2357 -0.0623 -0.6416
 6101SOL    MW424172   4.071   4.133   3.392 -0.0351 -0.1513 -0.4940
 6102SOL     OW24173   0.813   4.984   5.046 -0.1294  0.1784  0.2580
 6102SOL    HW224174   0.726   4.966   5.084 -0.5638  0.2385 -0.6830
 6102SOL    HW324175   0.829   5.076   5.067 -0.0338  0.0126  0.9330
 6102SOL    MW424176   0.803   4.994   5.054 -0.1741  0.1644  0.2229
 6103SOL     OW24177   3.058   0.368   0.967 -0.2206  0.1891 -0.0638
 6103SOL    HW224178   3.152   0.383   0.976  0.2508 -2.4058  0.1489
 6103SOL    HW324179   3.049   0.315   0.888 -1.0752 -2.2232  1.5158
 6103SOL    MW424180   3.069   0.363   0.958 -0.2711 -0.4715  0.1727
 6104SOL     OW24181   5.348   0.632   5.593  0.1291 -0.5170  0.0650
 6104SOL    HW224182   5.400   0.668   5.665  0.0666  0.4599 -0.3629
 6104SOL    HW324183   5.267   0.602   5.635 -0.4960  1.3002  0.2458
 6104SOL    MW424184   5.344   0.633   5.608  0.0384 -0.1484  0.0324
 6105SOL     OW24185   3.529   5.623   2.962  0.4547 -0.0260  0.6482
 6105SOL    HW224186   3.571   5.538   2.973 -0.3493 -0.9234 -2.2800
 6105SOL    HW324187   3.439   5.602   2.936  0.2617  1.6760 -0.2096
 6105SOL    MW424188   3.522   5.609   2.960  0.3232  0.0801  0.1487
 6106SOL     OW24189   3.627   0.875   6.258 -1.0828  0.1532  0.3867
 6106SOL    HW224190   3.692   0.829   6.311 -1.6504 -0.3154  0.6876
 6106SOL    HW324191   3.672   0.955   6.229 -0.1374 -0.5087 -0.0129
 6106SOL    MW424192   3.642   0.880   6.261 -1.0330  0.0041  0.3737
 6107SOL     OW24193   4.758   2.804   1.966  0.1192 -0.8076 -0.0570
 6107SOL    HW224194   4.684   2.747   1.945 -0.1199 -0.5585  0.1005
 6107SOL    HW324195   4.834   2.746   1.963 -0.4419 -2.0055  3.6299
 6107SOL    MW424196   4.758   2.789   1.963  0.0136 -0.9327  0.4502
 6108SOL     OW24197   6.203   1.374   2.690 -0.3531 -0.0891 -0.1920
 6108SOL    HW224198   6.285   1.324   2.699  1.3900  2.8083  1.5032
 6108SOL    HW324199   6.147   1.341   2.759  0.1180 -0.8224 -0.1499
 6108SOL    MW424200   6.207   1.363   2.700 -0.0609  0.1965  0.0372
 6109SOL     OW24201   1.257   1.893   1.560  0.5707 -0.4588 -0.0629
 6109SOL    HW224202   1.259   1.853   1.647 -1.3512  1.2016  0.8277
 6109SOL    HW324203   1.225   1.823   1.502 -0.9964 -0.7819  1.1276
 6109SOL    MW424204   1.253   1.878   1.563  0.1104 -0.2824  0.2117
 6110SOL     OW24205   5.208   2.343   3.337  0.4895 -0.6279  0.1048
 6110SOL    HW224206   5.203   2.439   3.336 -0.4040 -0.6660 -0.2136
 6110SOL    HW324207   5.153   2.315   3.263  4.1409 -1.2878 -2.6355
 6110SOL    MW424208   5.200   2.352   3.327  0.8534 -0.7200 -0.2987
 6111SOL     OW24209   0.925   3.644   2.979  0.3058 -0.2187 -0.6391
 6111SOL    HW224210   0.842   3.617   3.019  0.8702  0.0274  0.7614
 6111SOL    HW324211   0.971   3.562   2.961  1.3736 -0.3366  2.1941
 6111SOL    MW424212   0.920   3.630   2.982  0.5211 -0.2018 -0.0805
 6112SOL     OW24213   4.540   0.292   0.578  0.2213  0.5725  0.3596
 6112SOL    HW224214   4.491   0.342   0.513  1.3475  0.9433 -0.2368
 6112SOL    HW324215   4.479   0.280   0.651 -1.6325 -1.2719 -1.3798
 6112SOL    MW424216   4.525   0.297   0.579  0.1253  0.3781  0.0514
 6113SOL     OW24217   6.234   1.062   4.227 -0.1932  0.5908 -0.2938
 6113SOL    HW224218   6.265   1.072   4.317 -0.9715  0.9900 -0.0557
 6113SOL    HW324219   6.144   1.096   4.229 -0.3982  0.1217 -1.1084
 6113SOL    MW424220   6.226   1.068   4.239 -0.3230  0.5816 -0.3699
 6114SOL     OW24221   6.058   0.248   0.564 -0.5316  0.1850  0.0233
 6114SOL    HW224222   6.084   0.273   0.652  0.2402  1.2624 -0.4844
 6114SOL    HW324223   5.962   0.254   0.564 -0.5123  0.5503  0.6764
 6114SOL    MW424224   6.049   0.252   0.575 -0.4272  0.3754  0.0425
 6115SOL     OW24225   2.433   6.125   1.802 -0.1140  0.1477  0.0762
 6115SOL    HW224226   2.495   6.064   1.843  1.0202  0.8155 -0.5784
 6115SOL    HW324227   2.375   6.070   1.750  0.4898 -0.4275  0.0029
 6115SOL    MW424228   2.434   6.110   1.801  0.1153  0.1599 -0.0198
 6116SOL     OW24229   5.969   2.382   1.979  0.0813 -1.0223 -0.4656
 6116SOL    HW224230   5.902   2.327   1.939 -0.1009 -0.8875 -0.3462
 6116SOL    HW324231   5.974   2.353   2.070  0.3520 -1.1911 -0.5333
 6116SOL    MW424232   5.961   2.371   1.985  0.0930 -1.0268 -0.4588
 6117SOL     OW24233   0.875   2.321   5.919  0.0941 -0.0319  0.9042
 6117SOL    HW224234   0.907   2.249   5.974  0.1114 -0.6176  0.1453
 6117SOL    HW324235   0.800   2.356   5.968  0.2878 -0.3499  1.4419
 6117SOL    MW424236   0.869   2.316   5.933  0.1219 -0.1511  0.8750
 6118SOL     OW24237   1.126   5.462   1.202 -0.5589  0.0630 -0.8356
 6118SOL    HW224238   1.133   5.526   1.273  0.1914  1.8516 -2.4241
 6118SOL    HW324239   1.073   5.391   1.239 -0.0872  0.8371  1.5256
 6118SOL    MW424240   1.120   5.461   1.217 -0.3977  0.4011 -0.7336
 6119SOL     OW24241   0.239   0.989   0.407 -0.4840 -0.2376  0.1315
 6119SOL    HW224242   0.222   1.014   0.316 -2.0374  1.0469  0.7349
 6119SOL    HW324243   0.330   1.011   0.421  0.1762 -1.6647 -1.4634
 6119SOL    MW424244   0.249   0.995   0.397 -0.6019 -0.2564  0.0007
 6120SOL     OW24245   0.858   3.787   3.735 -0.5528  0.2995 -0.0518
 6120SOL    HW224246   0.782   3.837   3.704  0.8592  0.6929 -3.2283
 6120SOL    HW324247   0.912   3.852   3.781 -0.4182  0.8756 -1.0125
 6120SOL    MW424248   0.855   3.802   3.737 -0.3487  0.4274 -0.5976
 6121SOL     OW24249   1.475   1.547   1.291  0.0302 -0.1262  0.8468
 6121SOL    HW224250   1.490   1.455   1.274  2.5734  0.4973 -0.8488
 6121SOL    HW324251   1.508   1.561   1.380  0.3116 -0.7114  0.8383
 6121SOL    MW424252   1.481   1.537   1.300  0.4029 -0.1211  0.6220
 6122SOL     OW24253   5.375   0.028   3.341  0.7997 -0.1607 -0.2108
 6122SOL    HW224254   5.452  -0.013   3.381 -0.0440 -0.9661  0.6541
 6122SOL    HW324255   5.364   0.110   3.389 -0.9710 -1.6996  2.2921
 6122SOL    MW424256   5.384   0.033   3.353  0.4547 -0.4700  0.2335
 6123SOL     OW24257   0.246   1.593   0.753  0.6646  0.5014 -0.7287
 6123SOL    HW224258   0.247   1.518   0.692  0.8516 -1.0137  1.0467
 6123SOL    HW324259   0.338   1.614   0.766  0.7928 -0.8995  0.9719
 6123SOL    MW424260   0.258   1.586   0.747  0.7062  0.1167 -0.2701
 6124SOL     OW24261   2.084   5.955   4.378  0.1894  0.3732  0.0109
 6124SOL    HW224262   2.092   5.932   4.286 -1.4301 -0.0269 -0.0649
 6124SOL    HW324263   2.140   5.892   4.424  0.5594  0.2086 -0.6560
 6124SOL    MW424264   2.092   5.944   4.372  0.0245  0.2987 -0.0871
 6125SOL     OW24265   0.548   5.099   0.218  0.5094 -0.0410  0.0726
 6125SOL    HW224266   0.603   5.022   0.205 -0.8285 -0.7411 -1.8951
 6125SOL    HW324267   0.608   5.173   0.215  1.5685 -0.8812 -0.1169
 6125SOL    MW424268   0.563   5.098   0.216  0.4726 -0.2442 -0.2120
 6126SOL     OW24269   1.287   2.639   1.855 -0.3532 -0.2034  0.6621
 6126SOL    HW224270   1.336   2.559   1.873 -0.9047 -1.4176 -2.5823
 6126SOL    HW324271   1.336   2.683   1.785 -1.0107  1.3853  1.1489
 6126SOL    MW424272   1.300   2.635   1.848 -0.5127 -0.1540  0.2983
 6127SOL     OW24273   2.668   3.294   2.406  0.3294  0.1120 -0.2540
 6127SOL    HW224274   2.677   3.203   2.380 -0.1298  0.1033 -0.3865
 6127SOL    HW324275   2.706   3.344   2.334 -1.4426  0.1126 -1.2220
 6127SOL    MW424276   2.674   3.289   2.393  0.0350  0.1109 -0.3992
 6128SOL     OW24277   5.633   4.377   3.044 -0.5092  0.1733 -0.1651
 6128SOL    HW224278   5.578   4.425   3.106 -1.7417  0.2055 -1.2552
 6128SOL    HW324279   5.691   4.325   3.100 -1.7785 -0.0281  1.0252
 6128SOL    MW424280   5.634   4.377   3.060 -0.8393  0.1510 -0.1519
 6129SOL     OW24281   5.047   2.742   5.764  0.6450 -0.1305 -0.8398
 6129SOL    HW224282   5.037   2.659   5.810 -0.0121  0.2450 -0.2854
 6129SOL    HW324283   5.131   2.734   5.718  0.5775 -1.1061 -0.8210
 6129SOL    MW424284   5.057   2.730   5.764  0.5494 -0.2097 -0.7641
 6130SOL     OW24285   5.905   1.198   3.697 -0.1432  0.1099 -0.3727
 6130SOL    HW224286   5.902   1.105   3.674 -0.8603  0.1203 -0.3543
 6130SOL    HW324287   5.905   1.198   3.793  1.3409  0.1044 -0.3442
 6130SOL    MW424288   5.904   1.186   3.707 -0.0420  0.1106 -0.3665
 6131SOL     OW24289   3.457   0.336   0.748 -0.2731  0.0675  0.6497
 6131SOL    HW224290   3.413   0.349   0.833 -0.6783 -1.0654  0.6258
 6131SOL    HW324291   3.550   0.341   0.768 -0.2604 -2.5844  1.6417
 6131SOL    MW424292   3.463   0.339   0.762 -0.3249 -0.4319  0.7774
 6132SOL     OW24293   3.258   0.406   3.101  0.2482 -0.4706  0.0869
 6132SOL    HW224294   3.273   0.313   3.117 -0.4494 -0.3560  1.5689
 6132SOL    HW324295   3.212   0.437   3.179 -0.7518  0.8255 -0.9642
 6132SOL    MW424296   3.254   0.398   3.114  0.0242 -0.2845  0.1438
 6133SOL     OW24297   5.515   5.869   1.207  0.1804  0.0787  0.0010
 6133SOL    HW224298   5.490   5.784   1.243  0.4774 -0.1251 -0.2677
 6133SOL    HW324299   5.441   5.895   1.153 -0.0100  0.1002  0.2722
 6133SOL    MW424300   5.502   5.861   1.204  0.1945  0.0546  0.0013
 6134SOL     OW24301   2.089   2.622   0.034  0.3251  0.0538  0.0200
 6134SOL    HW224302   2.127   2.709   0.047 -1.0503  0.5054  1.3527
 6134SOL    HW324303   2.159   2.561   0.058  1.5078  0.7414 -1.5159
 6134SOL    MW424304   2.103   2.626   0.039  0.2997  0.2041 -0.0068
 6135SOL     OW24305   5.289   0.573   1.180  0.1236 -0.5780  0.6806
 6135SOL    HW224306   5.341   0.544   1.105 -1.2059 -3.4925  0.7288
 6135SOL    HW324307   5.202   0.590   1.144  0.5441  2.5752  0.8811
 6135SOL    MW424308   5.284   0.572   1.166  0.0037 -0.5465  0.7134
 6136SOL     OW24309   4.196   4.373   1.112  0.0145 -0.6693  0.5731
 6136SOL    HW224310   4.182   4.436   1.182  0.1804 -0.5501  0.5005
 6136SOL    HW324311   4.115   4.323   1.107 -0.3693 -0.0105  0.1738
 6136SOL    MW424312   4.184   4.375   1.121 -0.0143 -0.5667  0.5108
 6137SOL     OW24313   6.283   3.034   2.407 -0.2809  0.3081 -0.5198
 6137SOL    HW224314   6.194   3.067   2.393  0.2127  1.6520 -0.7029
 6137SOL    HW324315   6.294   2.965   2.343 -1.9365 -1.4547  0.9662
 6137SOL    MW424316   6.273   3.030   2.397 -0.4342  0.2529 -0.3479
 6138SOL     OW24317   2.516   0.194   3.070 -0.0132 -0.0950  0.7510
 6138SOL    HW224318   2.544   0.207   2.979 -1.0208 -0.3468  0.3871
 6138SOL    HW324319   2.576   0.127   3.104  1.2794  1.0099  0.7311
 6138SOL    MW424320   2.528   0.187   3.063  0.0244  0.0176  0.7004
 6139SOL     OW24321   3.166   2.002   5.934  0.4574 -0.4406 -0.3457
 6139SOL    HW224322   3.216   1.961   6.004  0.1426 -0.8344 -0.3436
 6139SOL    HW324323   3.232   2.040   5.876  0.6910  2.6147  1.7173
 6139SOL    MW424324   3.181   2.002   5.935  0.4467 -0.0895 -0.0733
 6140SOL     OW24325   1.237   1.133   2.854 -0.1782 -0.9020  0.1726
 6140SOL    HW224326   1.308   1.180   2.897 -1.2855  0.7680  0.2481
 6140SOL    HW324327   1.161   1.147   2.909 -1.9886  2.4474 -2.7660
 6140SOL    MW424328   1.236   1.141   2.867 -0.5632 -0.2398 -0.2052
 6141SOL     OW24329   1.842   3.720   1.646 -0.2831  0.7564  0.1754
 6141SOL    HW224330   1.797   3.703   1.563 -0.3013  1.8082 -0.0489
 6141SOL    HW324331   1.851   3.634   1.687 -1.4535  0.3805 -0.3139
 6141SOL    MW424332   1.837   3.706   1.641 -0.4399  0.8456  0.0813
 6142SOL     OW24333   3.346   6.428   1.124 -0.0095  0.5353 -0.3441
 6142SOL    HW224334   3.387   6.351   1.085  1.0623  0.4009  0.9583
 6142SOL    HW324335   3.420   6.481   1.154 -0.7603  0.5723  1.5619
 6142SOL    MW424336   3.361   6.425   1.123  0.0328  0.5225  0.0792
 6143SOL     OW24337   4.503   4.614   3.231  0.0641 -0.9229  0.1885
 6143SOL    HW224338   4.553   4.539   3.264  0.4413 -0.6483  0.2455
 6143SOL    HW324339   4.523   4.618   3.138  0.2902 -0.7017  0.2468
 6143SOL    MW424340   4.512   4.605   3.223  0.1437 -0.8575  0.2037
 6144SOL     OW24341   5.273   6.216   5.875 -0.1084 -0.3359 -0.1949
 6144SOL    HW224342   5.261   6.311   5.877  0.5369 -0.2595  1.7145
 6144SOL    HW324343   5.187   6.181   5.900 -0.0082 -0.2126  0.3279
 6144SOL    MW424344   5.260   6.224   5.879 -0.0100 -0.3096  0.1260
 6145SOL     OW24345   0.134   1.734   4.205 -0.5793  0.0404  0.2104
 6145SOL    HW224346   0.220   1.770   4.227 -0.5774  0.3209 -0.2242
 6145SOL    HW324347   0.141   1.640   4.222  0.6800 -0.4072 -2.3162
 6145SOL    MW424348   0.146   1.727   4.210 -0.4129  0.0184 -0.1803
 6146SOL     OW24349   0.829   5.428   3.155 -0.6416  0.5097  0.2302
 6146SOL    HW224350   0.864   5.376   3.082 -1.8175 -0.2135  0.1627
 6146SOL    HW324351   0.882   5.508   3.154  0.2848 -0.0837 -0.5377
 6146SOL    MW424352   0.841   5.432   3.145 -0.6745  0.3360  0.1199
 6147SOL     OW24353   2.867   5.795   5.194  0.3861  0.4301  0.0522
 6147SOL    HW224354   2.864   5.843   5.112  0.2203  1.1687  0.4819
 6147SOL    HW324355   2.930   5.843   5.248 -1.8777  1.9103  1.5482
 6147SOL    MW424356   2.875   5.808   5.190  0.0656  0.7228  0.3063
 6148SOL     OW24357   1.426   0.275   2.887 -0.2678 -0.1377 -0.4244
 6148SOL    HW224358   1.473   0.206   2.932 -0.3145  0.0874 -0.0268
 6148SOL    HW324359   1.455   0.356   2.930 -1.2075 -0.0122  0.0095
 6148SOL    MW424360   1.436   0.277   2.899 -0.3979 -0.0914 -0.3147
 6149SOL     OW24361   2.520   4.391   4.676  0.7841  0.0306  0.0766
 6149SOL    HW224362   2.596   4.446   4.658  0.8995  0.6174  2.1551
 6149SOL    HW324363   2.491   4.417   4.763 -1.3946 -0.6834 -0.3733
 6149SOL    MW424364   2.526   4.401   4.685  0.5119  0.0138  0.2915
 6150SOL     OW24365   5.262   5.771   4.044 -0.0019 -0.1877  0.2409
 6150SOL    HW224366   5.218   5.703   4.095  0.9962 -0.8656  0.2248
 6150SOL    HW324367   5.223   5.765   3.957 -0.3122 -0.3679  0.3909
 6150SOL    MW424368   5.251   5.761   4.039  0.0889 -0.3009  0.2586
 6151SOL     OW24369   2.759   1.644   0.803 -0.0234  0.2946 -0.7642
 6151SOL    HW224370   2.807   1.674   0.880 -0.1411 -0.6795 -0.3026
 6151SOL    HW324371   2.768   1.716   0.740  1.6266  0.3497 -0.5158
 6151SOL    MW424372   2.766   1.657   0.805  0.1787  0.1733 -0.6705
 6152SOL     OW24373   3.962   0.354   5.405  0.1682 -0.2795  0.4524
 6152SOL    HW224374   4.043   0.311   5.432  0.0457 -0.8188 -0.0283
 6152SOL    HW324375   3.973   0.368   5.311 -0.8552 -1.5769  0.1217
 6152SOL    MW424376   3.974   0.350   5.396  0.0170 -0.5218  0.3454
 6153SOL     OW24377   3.929   6.098   5.931  0.2707  0.1458  0.0583
 6153SOL    HW224378   3.880   6.165   5.978  0.4538  0.1535  0.2408
 6153SOL    HW324379   4.009   6.086   5.982 -1.0811 -2.4025  1.7958
 6153SOL    MW424380   3.933   6.105   5.944  0.1165 -0.1894  0.3116
 6154SOL     OW24381   5.544   1.360   0.259 -0.3850 -0.1679 -0.3066
 6154SOL    HW224382   5.527   1.453   0.271 -1.1709 -0.4518  1.0116
 6154SOL    HW324383   5.608   1.338   0.326 -0.8491 -0.7437 -0.0407
 6154SOL    MW424384   5.550   1.369   0.269 -0.5500 -0.2813 -0.0976
 6155SOL     OW24385   0.400   0.688   5.008  0.0905  0.2551 -0.1773
 6155SOL    HW224386   0.415   0.594   5.005  0.5563  0.3026  0.4455
 6155SOL    HW324387   0.318   0.701   4.961 -0.0674 -0.4822 -0.1093
 6155SOL    MW424388   0.391   0.677   5.002  0.1311  0.1641 -0.0862
 6156SOL     OW24389   4.200   2.035   1.667 -0.2735 -0.2638  0.0091
 6156SOL    HW224390   4.239   2.101   1.725 -0.2557  0.7979 -1.1684
 6156SOL    HW324391   4.122   2.077   1.631 -0.0319 -0.7164 -1.0891
 6156SOL    MW424392   4.195   2.049   1.670 -0.2393 -0.1834 -0.2911
 6157SOL     OW24393   2.631   0.779   3.587  0.3983  0.2480 -0.3913
 6157SOL    HW224394   2.702   0.716   3.579 -0.3392 -0.5916 -0.3674
 6157SOL    HW324395   2.577   0.765   3.509 -2.1054 -2.1174  1.5730
 6157SOL    MW424396   2.633   0.769   3.576 -0.0294 -0.1749 -0.1290
 6158SOL     OW24397   4.416   5.003   1.477  0.4030 -0.0765  0.2574
 6158SOL    HW224398   4.384   4.934   1.535 -1.0124 -0.3658 -0.8118
 6158SOL    HW324399   4.340   5.061   1.464  1.0374  0.6503 -0.3487
 6158SOL    MW424400   4.402   5.002   1.483  0.3000 -0.0188  0.0363
 6159SOL     OW24401   2.974   0.929   4.441 -0.7626 -0.0645  0.1317
 6159SOL    HW224402   2.903   0.907   4.502 -0.8052 -2.4312 -0.6508
 6159SOL    HW324403   2.930   0.973   4.368 -1.2463 -0.3673  0.2325
 6159SOL    MW424404   2.958   0.932   4.439 -0.8320 -0.4167  0.0417
 6160SOL     OW24405   1.571   0.854   1.079 -0.1724 -0.1448 -0.2560
 6160SOL    HW224406   1.503   0.818   1.022  0.1164 -0.3744 -0.4579
 6160SOL    HW324407   1.524   0.879   1.159 -0.6271  0.4368 -0.6910
 6160SOL    MW424408   1.556   0.853   1.082 -0.1943 -0.0983 -0.3401
 6161SOL     OW24409   3.004   3.995   4.114  0.2137  0.4997 -0.0191
 6161SOL    HW224410   3.089   3.965   4.082 -0.5254  0.3260 -1.9758
 6161SOL    HW324411   2.957   4.023   4.035 -1.4854  0.7402  1.0190
 6161SOL    MW424412   3.009   3.995   4.099 -0.1080  0.5085 -0.1403
 6162SOL     OW24413   6.033   4.764   1.399 -0.0764  0.8753  0.0796
 6162SOL    HW224414   5.955   4.737   1.447 -0.1708  0.7060 -0.1681
 6162SOL    HW324415   6.001   4.793   1.314  0.0218  1.7915  0.3473
 6162SOL    MW424416   6.019   4.764   1.394 -0.0759  0.9738  0.0823
 6163SOL     OW24417   2.893   5.869   4.928 -0.4853  0.0474 -0.0047
 6163SOL    HW224418   2.837   5.915   4.865 -1.6532 -0.7014  0.4573
 6163SOL    HW324419   2.961   5.828   4.874 -0.5820  0.6732 -0.6118
 6163SOL    MW424420   2.895   5.870   4.912 -0.6522  0.0312 -0.0238
 6164SOL     OW24421   5.763   2.014   4.356  0.3953 -0.1157 -0.0574
 6164SOL    HW224422   5.721   1.977   4.434  1.7687 -3.9596 -0.9174
 6164SOL    HW324423   5.857   1.997   4.369  0.9384  1.5259 -1.4342
 6164SOL    MW424424   5.770   2.007   4.368  0.6481 -0.4063 -0.3526
 6165SOL     OW24425   5.092   0.567   4.092  0.7752  0.1334 -0.0041
 6165SOL    HW224426   5.180   0.555   4.055  1.1290 -1.1682  1.2066
 6165SOL    HW324427   5.042   0.493   4.059  0.4872  0.1598  0.3763
 6165SOL    MW424428   5.097   0.556   4.083  0.7839 -0.0348  0.2059
 6166SOL     OW24429   3.503   2.371   2.703 -0.3942  0.2392  0.0737
 6166SOL    HW224430   3.487   2.343   2.613  1.8114  0.1780 -0.3454
 6166SOL    HW324431   3.430   2.430   2.723 -1.1177 -0.0447 -1.6056
 6166SOL    MW424432   3.491   2.375   2.694 -0.1987  0.1937 -0.2032
 6167SOL     OW24433   2.723   0.649   4.408  0.2514 -0.2924 -0.3451
 6167SOL    HW224434   2.806   0.642   4.455 -0.1947 -0.2006  0.4705
 6167SOL    HW324435   2.702   0.743   4.410 -0.4137 -0.4405  0.4332
 6167SOL    MW424436   2.731   0.661   4.414  0.1048 -0.2998 -0.1348
 6168SOL     OW24437   5.216   3.750   2.765 -0.4290  0.4322 -0.5648
 6168SOL    HW224438   5.237   3.695   2.689 -1.0528 -0.2536 -0.2571
 6168SOL    HW324439   5.141   3.802   2.738  0.3025  1.3264 -0.9345
 6168SOL    MW424440   5.209   3.749   2.752 -0.4148  0.4597 -0.5730
 6169SOL     OW24441   5.684   6.328   5.136  0.5131 -0.2728  0.4914
 6169SOL    HW224442   5.740   6.250   5.136  0.1923 -0.5147 -0.3699
 6169SOL    HW324443   5.609   6.303   5.081 -0.1504  0.2525  1.1301
 6169SOL    MW424444   5.681   6.314   5.129  0.3833 -0.2354  0.4620
 6170SOL     OW24445   0.821   1.469   3.872 -0.2615 -0.1770 -0.1202
 6170SOL    HW224446   0.735   1.490   3.907 -0.7830 -1.4114 -0.6367
 6170SOL    HW324447   0.816   1.377   3.847  0.7106  0.1324 -1.5969
 6170SOL    MW424448   0.809   1.460   3.873 -0.2021 -0.2991 -0.3832
 6171SOL     OW24449   2.451   4.062   6.206 -0.6454 -0.0938  0.3371
 6171SOL    HW224450   2.399   3.983   6.192  0.6162 -0.8381 -0.4578
 6171SOL    HW324451   2.521   4.035   6.266 -0.8904  0.7517  1.0221
 6171SOL    MW424452   2.453   4.048   6.212 -0.5113 -0.0804  0.3226
 6172SOL     OW24453   0.895   2.856   5.236  0.2070  0.3494  0.2109
 6172SOL    HW224454   0.899   2.910   5.157 -0.8760 -0.4867 -0.4420
 6172SOL    HW324455   0.987   2.836   5.256  0.4841  0.3452 -0.9948
 6172SOL    MW424456   0.908   2.860   5.229  0.1007  0.2385 -0.0343
 6173SOL     OW24457   2.728   2.875   0.972 -0.8790  0.0228 -0.1045
 6173SOL    HW224458   2.786   2.949   0.987 -0.5787  0.0101 -1.1267
 6173SOL    HW324459   2.757   2.809   1.035  0.9021 -0.3560 -1.2680
 6173SOL    MW424460   2.740   2.876   0.983 -0.6044 -0.0289 -0.3929
 6174SOL     OW24461   0.563   1.323   0.740  0.0762  0.0085 -0.4408
 6174SOL    HW224462   0.554   1.369   0.657 -3.0960 -0.8094 -0.6839
 6174SOL    HW324463   0.533   1.386   0.806  1.3209  0.2056 -0.0346
 6174SOL    MW424464   0.558   1.337   0.738 -0.1781 -0.0734 -0.4193
 6175SOL     OW24465   2.433   1.829   6.124 -0.1054  0.2426  0.5889
 6175SOL    HW224466   2.520   1.802   6.156  1.2611  2.2808 -1.1555
 6175SOL    HW324467   2.422   1.918   6.158 -1.2387  0.2484  0.2311
 6175SOL    MW424468   2.443   1.837   6.133 -0.0746  0.5123  0.3116
 6176SOL     OW24469   1.055   4.882   1.903  0.4360  0.3357  1.1376
 6176SOL    HW224470   1.142   4.893   1.864  0.2595 -0.4108  0.5169
 6176SOL    HW324471   1.011   4.965   1.885 -0.1327 -0.4524 -1.5680
 6176SOL    MW424472   1.061   4.895   1.895  0.3377  0.1333  0.6987
 6177SOL     OW24473   3.250   2.666   3.284 -0.2291  0.1973  1.4218
 6177SOL    HW224474   3.214   2.634   3.366 -1.2878  0.3260  1.0226
 6177SOL    HW324475   3.295   2.591   3.246 -1.7721 -0.5567  1.0026
 6177SOL    MW424476   3.251   2.652   3.290 -0.5724  0.1148  1.3138
 6178SOL     OW24477   6.111   0.207   3.531  0.1153 -0.1564  0.6044
 6178SOL    HW224478   6.075   0.171   3.613  0.2689 -0.6141  0.4748
 6178SOL    HW324479   6.053   0.280   3.510  0.3446  0.2642  1.3700
 6178SOL    MW424480   6.099   0.212   3.539  0.1658 -0.1613  0.6883
 6179SOL     OW24481   0.019   0.678   2.993 -0.0098  0.2465  0.3960
 6179SOL    HW224482  -0.034   0.710   2.919 -0.8643 -0.5638  0.6453
 6179SOL    HW324483   0.109   0.687   2.963 -0.3660 -1.3111 -1.2897
 6179SOL    MW424484   0.024   0.684   2.979 -0.1696 -0.0659  0.2065
 6180SOL     OW24485   2.022   0.746   0.649 -0.0710  0.2541  0.3985
 6180SOL    HW224486   1.936   0.753   0.608  0.1090 -0.8651 -0.2292
 6180SOL    HW324487   2.035   0.652   0.661  0.9742  0.4204  0.6748
 6180SOL    MW424488   2.012   0.734   0.645  0.0907  0.1284  0.3521
 6181SOL     OW24489   6.010   3.776   5.776  0.1173 -0.0325  0.1015
 6181SOL    HW224490   6.066   3.799   5.702 -0.6524  1.3248 -0.0842
 6181SOL    HW324491   6.009   3.854   5.831 -1.8495  0.1075 -0.0670
 6181SOL    MW424492   6.017   3.789   5.774 -0.2437  0.1650  0.0548
 6182SOL     OW24493   4.286   0.725   2.063 -0.1108  0.1889 -0.4137
 6182SOL    HW224494   4.260   0.782   2.135  1.1532  0.3512 -0.0535
 6182SOL    HW324495   4.223   0.653   2.065 -1.5997  1.4436 -0.7424
 6182SOL    MW424496   4.274   0.723   2.073 -0.1405  0.3759 -0.4096
 6183SOL     OW24497   4.728   5.680   1.259  0.7428  0.1607  0.4243
 6183SOL    HW224498   4.814   5.719   1.278  0.4234  1.3378 -0.4825
 6183SOL    HW324499   4.667   5.753   1.262 -0.0464 -0.4552 -0.2262
 6183SOL    MW424500   4.732   5.695   1.262  0.5965  0.2347  0.2188
 6184SOL     OW24501   6.235   4.566   2.602 -0.3140 -0.0068  0.1616
 6184SOL    HW224502   6.269   4.553   2.691 -0.6236 -0.6587  0.1916
 6184SOL    HW324503   6.228   4.661   2.593 -2.3008  0.0580  1.6262
 6184SOL    MW424504   6.238   4.577   2.613 -0.6170 -0.0843  0.3588
 6185SOL     OW24505   1.863   5.856   1.645  0.1137  0.0031  0.1212
 6185SOL    HW224506   1.875   5.763   1.626  0.5320 -0.1210  0.9542
 6185SOL    HW324507   1.771   5.874   1.626  0.1585 -0.4504 -0.5567
 6185SOL    MW424508   1.853   5.846   1.640  0.1748 -0.0731  0.1417
 6186SOL     OW24509   1.479   2.478   2.498  0.5178  0.2594  0.1124
 6186SOL    HW224510   1.494   2.486   2.404  0.6351  1.4155  0.2180
 6186SOL    HW324511   1.396   2.524   2.513  1.4016  1.6669  0.8259
 6186SOL    MW424512   1.470   2.485   2.487  0.6499  0.5976  0.2205
 6187SOL     OW24513   3.922   4.496   0.704  0.2668  0.3379 -0.1113
 6187SOL    HW224514   3.850   4.467   0.760  0.1999  0.0934 -0.3205
 6187SOL    HW324515   3.998   4.496   0.762  0.4325 -1.0460 -0.2746
 6187SOL    MW424516   3.923   4.492   0.719  0.2799  0.1230 -0.1604
 6188SOL     OW24517   0.623   4.444   0.934 -0.7196  0.4523  0.0964
 6188SOL    HW224518   0.682   4.456   1.008 -1.0258  0.1101  0.3960
 6188SOL    HW324519   0.561   4.377   0.962 -0.8056  0.2795 -0.4873
 6188SOL    MW424520   0.623   4.437   0.947 -0.7713  0.3843  0.0589
 6189SOL     OW24521   3.972   4.354   6.280  0.1160 -0.1218  0.0215
 6189SOL    HW224522   3.938   4.285   6.337 -2.2771 -0.1831 -1.3262
 6189SOL    HW324523   3.954   4.436   6.327  0.7265 -0.2919  0.5594
 6189SOL    MW424524   3.965   4.356   6.294 -0.1192 -0.1523 -0.0854
 6190SOL     OW24525   0.242   5.439   6.100  0.2335 -0.0600  0.0461
 6190SOL    HW224526   0.208   5.350   6.094 -0.4852  0.1780  0.4444
 6190SOL    HW324527   0.337   5.429   6.094  0.1495 -0.8328 -0.0948
 6190SOL    MW424528   0.250   5.426   6.098  0.1276 -0.1306  0.0800
 6191SOL     OW24529   0.846   5.762   1.450 -0.2388  0.3038  0.1758
 6191SOL    HW224530   0.759   5.802   1.445 -0.0644  0.6379 -0.2384
 6191SOL    HW324531   0.891   5.793   1.372 -0.1128 -0.7428 -0.1733
 6191SOL    MW424532   0.840   5.772   1.439 -0.1992  0.2098  0.0751
 6192SOL     OW24533   1.796   2.575   2.582  0.0120  0.1840 -0.3001
 6192SOL    HW224534   1.731   2.512   2.610  0.4036  0.1517  0.5552
 6192SOL    HW324535   1.794   2.570   2.486  0.1754 -1.2547 -0.2495
 6192SOL    MW424536   1.787   2.566   2.573  0.0852 -0.0101 -0.1806
 6193SOL     OW24537   3.935   2.725   2.084 -0.0535  0.5303  0.0819
 6193SOL    HW224538   3.938   2.631   2.098  0.8652  0.3498 -1.1657
 6193SOL    HW324539   3.886   2.735   2.002  2.3637  0.9110 -1.3978
 6193SOL    MW424540   3.929   2.714   2.075  0.3866  0.5567 -0.2779
 6194SOL     OW24541   1.966   4.376   2.905  0.0787 -0.8939  0.0713
 6194SOL    HW224542   2.045   4.419   2.938 -1.2228 -0.1808  2.4722
 6194SOL    HW324543   1.969   4.288   2.943 -0.5873 -0.6350  0.7551
 6194SOL    MW424544   1.977   4.370   2.915 -0.1809 -0.7657  0.4783
 6195SOL     OW24545   0.491   3.236   1.177 -0.1020  0.7334 -0.0886
 6195SOL    HW224546   0.519   3.188   1.255 -1.1972  0.6099  0.2552
 6195SOL    HW324547   0.572   3.260   1.132  0.4787 -1.3849 -0.2551
 6195SOL    MW424548   0.505   3.233   1.181 -0.1699  0.4376 -0.0652
 6196SOL     OW24549   2.702   0.883   4.020 -0.3378  0.6158 -0.2734
 6196SOL    HW224550   2.703   0.938   3.941  0.3559 -0.2721 -0.8986
 6196SOL    HW324551   2.632   0.820   4.004  2.0926 -1.8953 -1.8778
 6196SOL    MW424552   2.693   0.882   4.007  0.0744  0.1674 -0.5676
 6197SOL     OW24553   0.541   1.446   5.001 -0.2134 -0.8748 -0.4443
 6197SOL    HW224554   0.580   1.423   4.917 -0.6044  0.5915 -1.0589
 6197SOL    HW324555   0.585   1.389   5.064  0.3399 -1.7502 -1.5922
 6197SOL    MW424556   0.552   1.436   4.999 -0.1920 -0.7968 -0.6769
 6198SOL     OW24557   1.305   0.684   2.592 -0.1497  0.0689  0.2442
 6198SOL    HW224558   1.393   0.720   2.583 -1.3236  2.8913 -1.4221
 6198SOL    HW324559   1.260   0.746   2.649 -1.3576 -0.6818  0.1323
 6198SOL    MW424560   1.311   0.697   2.598 -0.4639  0.3422  0.0096
 6199SOL     OW24561   0.538   6.399   3.716 -0.4735 -0.0990 -0.0424
 6199SOL    HW224562   0.613   6.436   3.670 -1.1097  0.4971 -0.6178
 6199SOL    HW324563   0.572   6.319   3.757  0.0867 -0.7783 -1.7270
 6199SOL    MW424564   0.552   6.393   3.716 -0.4835 -0.1100 -0.3406
 6200SOL     OW24565   2.773   4.151   1.823  0.2047 -0.6139  0.0539
 6200SOL    HW224566   2.806   4.105   1.746 -0.8391 -1.4900  0.1039
 6200SOL    HW324567   2.702   4.095   1.855 -2.0902  1.6894 -0.6791
 6200SOL    MW424568   2.768   4.137   1.817 -0.2358 -0.4256 -0.0362
 6201SOL     OW24569   3.081   3.894   5.727  0.5954 -0.1716  0.1553
 6201SOL    HW224570   3.090   3.913   5.821  0.2447 -0.6684  0.2945
 6201SOL    HW324571   3.169   3.905   5.692  0.2900  2.6374  0.0316
 6201SOL    MW424572   3.094   3.898   5.735  0.5088  0.1335  0.1573
 6202SOL     OW24573   2.221   4.120   3.303  0.0858 -0.5537  0.3864
 6202SOL    HW224574   2.308   4.149   3.275  1.1798 -1.1600  2.9213
 6202SOL    HW324575   2.213   4.031   3.269 -0.9599  0.5546 -2.5897
 6202SOL    MW424576   2.231   4.112   3.295  0.0922 -0.4875  0.3282
 6203SOL     OW24577   3.338   2.064   4.833  0.3578  0.1321 -0.5213
 6203SOL    HW224578   3.350   2.054   4.739  1.4023 -2.8236 -0.1828
 6203SOL    HW324579   3.426   2.079   4.867  0.3088 -0.9570  0.1390
 6203SOL    MW424580   3.351   2.065   4.825  0.4892 -0.4016 -0.3895
 6204SOL     OW24581   1.771   3.689   4.304 -0.5579  0.0019 -0.0551
 6204SOL    HW224582   1.825   3.768   4.292 -2.5781  1.5950  0.7050
 6204SOL    HW324583   1.682   3.717   4.283 -1.0919 -2.6948 -1.8633
 6204SOL    MW424584   1.766   3.703   4.300 -0.8949 -0.1437 -0.1934
 6205SOL     OW24585   2.983   4.264   2.021  0.3003 -0.2583  0.4154
 6205SOL    HW224586   2.924   4.192   1.999 -1.3893  0.3839  2.4921
 6205SOL    HW324587   2.996   4.256   2.116  1.7737  0.9598  0.3553
 6205SOL    MW424588   2.977   4.253   2.031  0.2718 -0.0129  0.6814
 6206SOL     OW24589   4.810   4.804   6.090 -0.9276 -0.3441 -0.1947
 6206SOL    HW224590   4.898   4.830   6.118 -0.7594 -0.1017 -0.8973
 6206SOL    HW324591   4.751   4.861   6.139 -0.7656 -1.3123  1.1594
 6206SOL    MW424592   4.814   4.815   6.100 -0.8841 -0.4398 -0.1087
 6207SOL     OW24593   1.571   0.457   1.121 -0.6067 -0.0789  0.0926
 6207SOL    HW224594   1.629   0.425   1.190 -1.5286 -0.1117  0.8711
 6207SOL    HW324595   1.630   0.497   1.058  0.3628 -1.1282  0.2915
 6207SOL    MW424596   1.586   0.458   1.122 -0.6004 -0.2217  0.2216
 6208SOL     OW24597   0.868   1.379   2.408 -0.0295 -0.1092 -0.3514
 6208SOL    HW224598   0.920   1.416   2.336 -0.8025 -1.0959 -1.4635
 6208SOL    HW324599   0.931   1.327   2.458  0.7348  1.4222  0.3292
 6208SOL    MW424600   0.883   1.377   2.405 -0.0306 -0.0373 -0.4083
 6209SOL     OW24601   4.074   0.124   3.532 -0.0978 -0.0997  0.2459
 6209SOL    HW224602   4.087   0.033   3.559  2.7450  0.1643  0.0753
 6209SOL    HW324603   4.047   0.118   3.441  0.7221 -0.7871  0.0283
 6209SOL    MW424604   4.072   0.111   3.524  0.3855 -0.1556  0.1947
 6210SOL     OW24605   1.109   4.024   1.604 -0.4218  0.0785 -0.2055
 6210SOL    HW224606   1.125   4.073   1.523 -0.0628 -0.1377 -0.2681
 6210SOL    HW324607   1.148   3.938   1.588  0.3357  0.2851  0.4867
 6210SOL    MW424608   1.116   4.019   1.591 -0.2745  0.0773 -0.1225
 6211SOL     OW24609   0.594   3.862   6.342 -0.1871 -0.2875  0.1909
 6211SOL    HW224610   0.619   3.943   6.387  0.6429 -0.6692  0.4326
 6211SOL    HW324611   0.583   3.888   6.251  1.1960 -0.0976  0.0473
 6211SOL    MW424612   0.596   3.876   6.336  0.1049 -0.3128  0.2038
 6212SOL     OW24613   1.915   5.584   1.861  0.2400 -0.3733  0.2740
 6212SOL    HW224614   1.963   5.536   1.929 -1.3160 -0.7530  1.1568
 6212SOL    HW324615   1.926   5.676   1.884  1.0158 -0.4237  0.1249
 6212SOL    MW424616   1.922   5.589   1.873  0.1370 -0.4300  0.3708
 6213SOL     OW24617   3.060   5.898   3.815 -0.2124  0.7871  0.0579
 6213SOL    HW224618   3.012   5.829   3.860 -0.5822  1.5790  0.8941
 6213SOL    HW324619   3.047   5.976   3.868  1.0905  1.2731 -0.2947
 6213SOL    MW424620   3.052   5.899   3.828 -0.0893  0.9557  0.1217
 6214SOL     OW24621   2.567   3.578   5.843  0.3731 -0.6603  0.2136
 6214SOL    HW224622   2.597   3.606   5.929  1.9681  0.7678 -0.7361
 6214SOL    HW324623   2.624   3.504   5.821  0.9364 -0.1264 -0.1693
 6214SOL    MW424624   2.578   3.571   5.851  0.6578 -0.4014  0.0377
 6215SOL     OW24625   0.319   2.285   5.754  0.5827  0.1487 -0.5169
 6215SOL    HW224626   0.302   2.280   5.848 -0.3590  1.4845 -0.5927
 6215SOL    HW324627   0.274   2.209   5.717 -2.3185  1.6405 -0.2910
 6215SOL    MW424628   0.311   2.274   5.761  0.0756  0.5218 -0.4971
 6216SOL     OW24629   4.350   5.062   1.968 -0.5231  0.6641  0.1299
 6216SOL    HW224630   4.437   5.075   1.931 -0.0657 -0.4164  0.7880
 6216SOL    HW324631   4.292   5.114   1.912  0.4553  0.9141 -0.6780
 6216SOL    MW424632   4.354   5.071   1.956 -0.3336  0.5545  0.1101
 6217SOL     OW24633   3.610   1.262   1.019  0.4021  0.5200 -0.3815
 6217SOL    HW224634   3.651   1.254   1.105 -1.2602 -0.0760  0.4122
 6217SOL    HW324635   3.681   1.287   0.960  1.3757  2.0787  1.3567
 6217SOL    MW424636   3.625   1.264   1.023  0.3112  0.6470 -0.0474
 6218SOL     OW24637   4.030   2.846   2.366 -0.4017  0.1345 -0.5862
 6218SOL    HW224638   4.123   2.826   2.357 -0.8846 -1.8743 -1.6016
 6218SOL    HW324639   4.019   2.865   2.459  1.4119  2.9681 -0.8106
 6218SOL    MW424640   4.041   2.846   2.377 -0.2261  0.2433 -0.7498
 6219SOL     OW24641   5.522   6.324   0.380  0.1672  0.0718  0.3795
 6219SOL    HW224642   5.478   6.350   0.299 -0.8446 -2.5044  0.0248
 6219SOL    HW324643   5.459   6.342   0.449  0.8818  1.8884  0.6361
 6219SOL    MW424644   5.508   6.330   0.379  0.1279 -0.0284  0.3666
 6220SOL     OW24645   0.971   1.163   0.789  0.0726 -0.4767  0.2591
 6220SOL    HW224646   1.058   1.196   0.814  0.4472 -1.4628  0.3246
 6220SOL    HW324647   0.968   1.172   0.694  0.7076 -1.4342  0.1221
 6220SOL    MW424648   0.982   1.168   0.780  0.2058 -0.7331  0.2497
 6221SOL     OW24649   2.952   6.164   5.501  0.4059 -0.0030 -0.3130
 6221SOL    HW224650   3.026   6.223   5.512  0.0694  0.2270  0.9789
 6221SOL    HW324651   2.877   6.222   5.485 -0.2024  0.1197  2.4216
 6221SOL    MW424652   2.952   6.180   5.501  0.2812  0.0435  0.2182
 6222SOL     OW24653   0.308   4.663   0.894 -0.3080 -0.0016  0.0486
 6222SOL    HW224654   0.321   4.675   0.988 -2.3330 -0.2052  0.4129
 6222SOL    HW324655   0.320   4.569   0.881  0.6424  0.1224 -0.0394
 6222SOL    MW424656   0.311   4.652   0.905 -0.4498 -0.0121  0.0850
 6223SOL     OW24657   0.753   3.196   4.933  0.3754  0.6020  0.4265
 6223SOL    HW224658   0.664   3.230   4.918  0.5264  1.2217  0.8731
 6223SOL    HW324659   0.806   3.275   4.944  0.8917  0.2250  0.6470
 6223SOL    MW424660   0.748   3.211   4.933  0.4634  0.6340  0.5146
 6224SOL     OW24661   3.052   4.293   3.530  0.5414 -0.0609  0.2041
 6224SOL    HW224662   2.967   4.251   3.515  0.4660  0.5249 -1.2114
 6224SOL    HW324663   3.038   4.348   3.607 -0.4363  0.1635 -0.1163
 6224SOL    MW424664   3.039   4.295   3.538  0.4025  0.0460 -0.0249
 6225SOL     OW24665   6.043   1.888   1.755  0.3601  0.1788  0.0350
 6225SOL    HW224666   6.134   1.914   1.770  0.3527  0.9908 -1.1727
 6225SOL    HW324667   5.992   1.963   1.784  0.1755  0.3670 -0.7439
 6225SOL    MW424668   6.049   1.901   1.761  0.3348  0.3107 -0.2271
 6226SOL     OW24669   5.284   4.778   5.758  0.4064 -0.4691 -0.1658
 6226SOL    HW224670   5.229   4.735   5.824 -0.2145 -0.2805 -0.5514
 6226SOL    HW324671   5.298   4.710   5.692  2.2333 -1.1211  0.8233
 6226SOL    MW424672   5.278   4.763   5.758  0.5655 -0.5302 -0.0861
 6227SOL     OW24673   3.246   4.674   5.927 -0.2192 -0.1590  0.1785
 6227SOL    HW224674   3.165   4.721   5.945  0.6518  0.8755  1.5712
 6227SOL    HW324675   3.238   4.647   5.835 -2.2171 -0.2909  0.3468
 6227SOL    MW424676   3.234   4.677   5.917 -0.3679 -0.0399  0.3844
 6228SOL     OW24677   6.235   5.560   1.968 -0.3824 -0.9742 -0.5252
 6228SOL    HW224678   6.198   5.591   2.050  0.0924 -0.0966 -0.6315
 6228SOL    HW324679   6.194   5.475   1.954 -1.7955 -0.3690 -0.2670
 6228SOL    MW424680   6.225   5.553   1.977 -0.5062 -0.7785 -0.5052
 6229SOL     OW24681   3.943   6.188   4.701  0.1241 -0.0099  0.3172
 6229SOL    HW224682   3.896   6.139   4.769 -0.7738  0.4376  0.0454
 6229SOL    HW324683   3.983   6.121   4.646 -1.3585 -0.4887 -0.2391
 6229SOL    MW424684   3.942   6.173   4.703 -0.1900 -0.0140  0.2079
 6230SOL     OW24685   6.374   1.641   5.672  0.4749  0.4839  0.6959
 6230SOL    HW224686   6.326   1.593   5.740 -0.3022  0.2584  0.0024
 6230SOL    HW324687   6.359   1.591   5.592 -0.6248  2.0282 -0.1202
 6230SOL    MW424688   6.366   1.628   5.671  0.2273  0.6579  0.4967
 6231SOL     OW24689   5.713   3.691   6.045 -0.2155  0.0173  0.3417
 6231SOL    HW224690   5.778   3.645   6.098  0.1035  0.2572  0.1563
 6231SOL    HW324691   5.630   3.672   6.089 -0.0727 -0.6092  0.3611
 6231SOL    MW424692   5.710   3.682   6.058 -0.1546 -0.0337  0.3198
 6232SOL     OW24693   5.828   2.315   3.700  0.1340  0.1450 -0.7022
 6232SOL    HW224694   5.740   2.347   3.719  0.4644  0.9829 -0.5185
 6232SOL    HW324695   5.863   2.379   3.638  0.9429  0.3421 -0.0590
 6232SOL    MW424696   5.821   2.328   3.694  0.2843  0.2815 -0.5931
 6233SOL     OW24697   2.391   5.021   0.262  0.0963 -0.3677  0.1335
 6233SOL    HW224698   2.447   5.019   0.184 -0.2726  1.7200 -0.2573
 6233SOL    HW324699   2.305   5.048   0.229 -0.1563  0.2220  1.2151
 6233SOL    MW424700   2.387   5.024   0.247  0.0143 -0.0144  0.2246
 6234SOL     OW24701   3.700   1.985   0.735 -0.0853 -0.4365 -0.6685
 6234SOL    HW224702   3.752   2.047   0.786  0.1602 -0.1635 -1.2480
 6234SOL    HW324703   3.680   1.914   0.797 -0.1817  0.1077 -0.0641
 6234SOL    MW424704   3.704   1.984   0.750 -0.0656 -0.3287 -0.6652
 6235SOL     OW24705   4.353   4.178   3.433 -0.2246 -0.2737 -0.4409
 6235SOL    HW224706   4.371   4.107   3.494  0.3403  0.8080  0.7039
 6235SOL    HW324707   4.259   4.175   3.418 -0.5875  0.2097  1.5155
 6235SOL    MW424708   4.343   4.168   3.439 -0.1980 -0.0672 -0.0317
 6236SOL     OW24709   3.272   0.238   2.656  0.1618  0.1573  0.1337
 6236SOL    HW224710   3.286   0.176   2.728  0.7304 -0.2947 -0.3636
 6236SOL    HW324711   3.288   0.187   2.577 -1.5196  0.3572 -0.3747
 6236SOL    MW424712   3.276   0.223   2.655  0.0150  0.1240  0.0010
 6237SOL     OW24713   3.486   0.080   4.784 -0.3324 -0.3702  0.0787
 6237SOL    HW224714   3.538   0.160   4.779 -1.6597  0.4387 -2.6080
 6237SOL    HW324715   3.432   0.092   4.863 -0.9194  1.6927 -0.5630
 6237SOL    MW424716   3.486   0.092   4.794 -0.5850  0.0087 -0.3605
 6238SOL     OW24717   1.360   1.904   0.834  0.6767 -0.1685  0.4374
 6238SOL    HW224718   1.359   1.821   0.882 -0.0727 -0.2742  0.2485
 6238SOL    HW324719   1.319   1.967   0.894  0.2132 -0.1877  0.1445
 6238SOL    MW424720   1.354   1.902   0.849  0.5167 -0.1850  0.3738
 6239SOL     OW24721   1.982   3.252   2.274  1.1707 -0.2609  0.0052
 6239SOL    HW224722   2.066   3.297   2.261  1.4692 -0.4274  1.2277
 6239SOL    HW324723   1.981   3.183   2.208  2.4748 -0.9062  0.6153
 6239SOL    MW424724   1.993   3.249   2.264  1.3822 -0.3680  0.2470
 6240SOL     OW24725   3.599   6.294   1.472 -0.3096  0.2809 -0.4801
 6240SOL    HW224726   3.595   6.274   1.378  0.7602 -0.5699 -0.3633
 6240SOL    HW324727   3.693   6.304   1.490 -0.4416 -0.3770  0.6543
 6240SOL    MW424728   3.611   6.293   1.462 -0.1859  0.0819 -0.3150
 6241SOL     OW24729   4.606   6.104   3.455  0.0903 -0.5702  0.4643
 6241SOL    HW224730   4.545   6.168   3.418 -0.1510 -0.2845  1.3390
 6241SOL    HW324731   4.639   6.145   3.535  0.1696 -1.4037  0.8675
 6241SOL    MW424732   4.602   6.118   3.461  0.0689 -0.6425  0.6329
 6242SOL     OW24733   4.255   5.292   3.376 -0.2985 -0.2557 -0.2243
 6242SOL    HW224734   4.301   5.320   3.297 -0.1496 -0.5232 -0.2367
 6242SOL    HW324735   4.186   5.233   3.344  0.3987 -1.1742 -0.0891
 6242SOL    MW424736   4.252   5.288   3.361 -0.1869 -0.4122 -0.2081
 6243SOL     OW24737   1.409   1.045   4.451 -0.0017 -0.3657 -0.0393
 6243SOL    HW224738   1.323   1.027   4.412  0.4268 -0.2769 -1.0371
 6243SOL    HW324739   1.389   1.072   4.541 -0.8901 -2.6222  0.5139
 6243SOL    MW424740   1.395   1.046   4.458 -0.0624 -0.6517 -0.0980
 6244SOL     OW24741   3.572   4.869   4.165  0.0490  0.8686  0.0865
 6244SOL    HW224742   3.661   4.873   4.201 -0.3805 -0.9620  1.5128
 6244SOL    HW324743   3.568   4.941   4.102  2.6440  0.7893 -0.2750
 6244SOL    MW424744   3.583   4.879   4.162  0.3347  0.6166  0.2270
 6245SOL     OW24745   1.943   6.236   2.949 -0.2650 -0.2099 -0.1538
 6245SOL    HW224746   1.953   6.271   3.037  1.1547 -0.7883 -0.0611
 6245SOL    HW324747   1.902   6.307   2.899  0.7906  0.8910  0.4825
 6245SOL    MW424748   1.939   6.250   2.954  0.0616 -0.1410 -0.0576
 6246SOL     OW24749   2.483   0.380   3.296  0.0988  0.2253 -0.2100
 6246SOL    HW224750   2.432   0.323   3.354 -0.4862 -1.1784 -2.0007
 6246SOL    HW324751   2.506   0.323   3.222  0.2883  2.0900 -1.6455
 6246SOL    MW424752   2.479   0.365   3.294  0.0466  0.2861 -0.6357
 6247SOL     OW24753   2.278   0.915   1.886  0.0500  0.2856 -0.1149
 6247SOL    HW224754   2.352   0.930   1.945  0.0308  2.5955 -0.5772
 6247SOL    HW324755   2.232   0.839   1.923  2.8509 -1.5196 -0.0760
 6247SOL    MW424756   2.282   0.907   1.899  0.4170  0.3522 -0.1707
 6248SOL     OW24757   3.875   0.693   1.028  0.2748 -0.0383  0.2570
 6248SOL    HW224758   3.857   0.688   1.122 -0.9014 -0.2022  0.0403
 6248SOL    HW324759   3.791   0.719   0.989  1.1936  1.8178 -0.5941
 6248SOL    MW424760   3.861   0.695   1.036  0.2408  0.1850  0.1162
 6249SOL     OW24761   3.490   5.393   3.269  0.3124  0.1974 -0.3371
 6249SOL    HW224762   3.427   5.335   3.226 -0.4435  0.0139  0.9455
 6249SOL    HW324763   3.573   5.376   3.225 -0.3414 -0.2378 -1.4481
 6249SOL    MW424764   3.493   5.383   3.257  0.1264  0.1158 -0.3144
 6250SOL     OW24765   1.489   0.757   1.884  0.0283 -0.2309 -0.8769
 6250SOL    HW224766   1.468   0.669   1.852 -1.4100  0.0749 -0.8309
 6250SOL    HW324767   1.473   0.753   1.978  2.0935 -0.5033 -0.4975
 6250SOL    MW424768   1.484   0.745   1.892  0.1110 -0.2265 -0.8208
 6251SOL     OW24769   5.126   2.119   3.589 -0.4749  0.1771  0.2682
 6251SOL    HW224770   5.064   2.181   3.550 -0.3649  0.6122  0.7677
 6251SOL    HW324771   5.104   2.119   3.682 -0.2169 -0.2444  0.3313
 6251SOL    MW424772   5.115   2.127   3.596 -0.4264  0.1789  0.3424
 6252SOL     OW24773   6.143   3.066   1.291 -0.0145  0.1230  0.0288
 6252SOL    HW224774   6.082   2.993   1.287  2.2250 -2.3205  3.9574
 6252SOL    HW324775   6.087   3.143   1.302 -2.4424 -1.6443  0.8911
 6252SOL    MW424776   6.127   3.067   1.292 -0.0393 -0.4326  0.6609
 6253SOL     OW24777   5.083   2.266   5.947  0.8802  0.9476  0.2893
 6253SOL    HW224778   5.158   2.326   5.946  1.1319  0.6421 -0.8831
 6253SOL    HW324779   5.092   2.217   6.029  2.5049  0.2736 -0.2522
 6253SOL    MW424780   5.094   2.267   5.957  1.1278  0.8184  0.0632
 6254SOL     OW24781   4.440   3.083   4.124 -0.5653 -0.2606  0.6333
 6254SOL    HW224782   4.444   2.988   4.115 -0.7578 -0.2400  0.3161
 6254SOL    HW324783   4.382   3.112   4.054  0.1718  0.1753  0.1901
 6254SOL    MW424784   4.432   3.075   4.114 -0.4934 -0.2003  0.5330
 6255SOL     OW24785   5.025   6.066   6.418  0.6599  0.5885  0.3540
 6255SOL    HW224786   5.086   6.004   6.459  0.8525  0.7511  0.3163
 6255SOL    HW324787   4.988   6.114   6.492 -0.6364 -0.5863  0.5227
 6255SOL    MW424788   5.029   6.064   6.433  0.5143  0.4549  0.3713
 6256SOL     OW24789   4.245   3.817   4.395  0.1215  0.1124  0.0269
 6256SOL    HW224790   4.278   3.730   4.370  0.8902  0.1959  0.6929
 6256SOL    HW324791   4.311   3.850   4.456 -0.6347  0.7793  0.4964
 6256SOL    MW424792   4.258   3.810   4.400  0.1231  0.2114  0.1767
 6257SOL     OW24793   5.618   5.285   4.115  0.4152  0.3062 -0.3108
 6257SOL    HW224794   5.552   5.354   4.121 -1.5627 -1.5485  0.4928
 6257SOL    HW324795   5.580   5.221   4.056  2.6651  0.3028 -1.8775
 6257SOL    MW424796   5.604   5.286   4.108  0.4511  0.0610 -0.4115
 6258SOL     OW24797   1.099   5.061   0.667 -0.1349  0.3586  0.4577
 6258SOL    HW224798   1.118   5.144   0.623  1.1125 -0.1586 -0.0421
 6258SOL    HW324799   1.125   5.075   0.758  0.1406  0.4958  0.3582
 6258SOL    MW424800   1.105   5.073   0.673  0.0660  0.3085  0.3786
 6259SOL     OW24801   2.246   0.671   5.718  0.5638 -0.4509  0.6190
 6259SOL    HW224802   2.260   0.665   5.812 -0.6633 -1.0258  0.7891
 6259SOL    HW324803   2.169   0.617   5.702  0.7987 -0.4203 -0.7311
 6259SOL    MW424804   2.238   0.663   5.728  0.4329 -0.5227  0.4633
 6260SOL     OW24805   5.461   0.667   1.823  0.4046  0.2657 -0.3928
 6260SOL    HW224806   5.368   0.655   1.806  0.4491 -0.5132 -0.1285
 6260SOL    HW324807   5.465   0.705   1.911  0.3856 -1.6054  0.4645
 6260SOL    MW424808   5.449   0.671   1.833  0.4079 -0.0840 -0.2449
 6261SOL     OW24809   1.254   0.164   0.617 -1.2770  0.2470  0.0843
 6261SOL    HW224810   1.241   0.181   0.710  0.1631 -1.8790  0.7582
 6261SOL    HW324811   1.165   0.158   0.581 -1.8695  0.3225  1.4814
 6261SOL    MW424812   1.241   0.165   0.624 -1.1651 -0.0235  0.3576
 6262SOL     OW24813   4.849   3.842   3.408 -0.0161  0.3943 -0.5765
 6262SOL    HW224814   4.756   3.857   3.427 -0.5266 -0.7523 -2.0070
 6262SOL    HW324815   4.855   3.748   3.391  1.0901  0.7172 -2.1607
 6262SOL    MW424816   4.837   3.832   3.408  0.0625  0.2856 -0.9742
 6263SOL     OW24817   4.541   4.365   0.067  0.8822  0.3483  0.0383
 6263SOL    HW224818   4.630   4.343   0.039 -0.1917 -1.6466 -2.1839
 6263SOL    HW324819   4.494   4.383  -0.015 -0.9481  0.6021  1.0868
 6263SOL    MW424820   4.546   4.365   0.052  0.4990  0.1186 -0.1166
 6264SOL     OW24821   2.033   4.281   0.371  0.1910  0.1700 -0.3572
 6264SOL    HW224822   2.029   4.192   0.336 -0.5837  0.1437 -0.2218
 6264SOL    HW324823   1.984   4.276   0.453  1.6707  0.3130  0.5843
 6264SOL    MW424824   2.026   4.268   0.378  0.2840  0.1854 -0.2151
 6265SOL     OW24825   1.314   4.625   6.183  0.2166  0.0580  0.3372
 6265SOL    HW224826   1.337   4.642   6.092 -0.3994 -0.4887  0.0655
 6265SOL    HW324827   1.398   4.619   6.229  0.5372  0.1077 -0.2382
 6265SOL    MW424828   1.328   4.626   6.177  0.1776 -0.0076  0.2255
 6266SOL     OW24829   0.914   2.462   4.664  0.0495 -0.2990 -0.2204
 6266SOL    HW224830   0.963   2.545   4.669  0.0726 -0.2240 -1.5399
 6266SOL    HW324831   0.980   2.397   4.640  0.0540 -0.7474  0.9399
 6266SOL    MW424832   0.929   2.465   4.662  0.0531 -0.3483 -0.2414
 6267SOL     OW24833   0.851   2.314   0.262 -0.0484 -0.5448 -0.0278
 6267SOL    HW224834   0.918   2.250   0.285 -0.3792 -1.0159 -0.3723
 6267SOL    HW324835   0.886   2.360   0.186 -0.4360 -1.2929 -0.6627
 6267SOL    MW424836   0.864   2.312   0.255 -0.1432 -0.7056 -0.1570
 6268SOL     OW24837   3.253   0.192   3.493 -0.2834  0.4869  0.0991
 6268SOL    HW224838   3.277   0.104   3.463  0.7280  0.4098  1.0434
 6268SOL    HW324839   3.326   0.247   3.465 -0.6100  0.9050  0.0671
 6268SOL    MW424840   3.266   0.188   3.485 -0.1930  0.5319  0.2195
 6269SOL     OW24841   3.374   5.760   2.005  0.1305  0.1624 -0.4447
 6269SOL    HW224842   3.319   5.686   1.980 -0.4505  0.4466 -0.0234
 6269SOL    HW324843   3.421   5.783   1.925 -0.3308 -0.1105 -0.7968
 6269SOL    MW424844   3.373   5.754   1.991 -0.0070  0.1639 -0.4356
 6270SOL     OW24845   6.397   3.723   0.100  0.0831 -0.0401 -0.2963
 6270SOL    HW224846   6.396   3.756   0.190  0.0982  0.1854 -0.3777
 6270SOL    HW324847   6.372   3.631   0.107  1.9868 -0.5696  0.1729
 6270SOL    MW424848   6.394   3.715   0.113  0.3363 -0.0802 -0.2452
 6271SOL     OW24849   2.841   0.589   3.601  0.2410  0.1163 -0.2820
 6271SOL    HW224850   2.807   0.530   3.668 -0.6551 -0.7154 -1.4289
 6271SOL    HW324851   2.845   0.536   3.521  2.6617  0.6581 -0.6180
 6271SOL    MW424852   2.837   0.575   3.599  0.4421  0.0781 -0.4777
 6272SOL     OW24853   0.042   4.039   2.068  0.3878 -0.1389 -0.4957
 6272SOL    HW224854   0.004   4.121   2.037 -0.6702 -1.0114 -1.6172
 6272SOL    HW324855   0.131   4.062   2.095  0.2670  1.2784 -1.2252
 6272SOL    MW424856   0.048   4.053   2.067  0.2323 -0.0670 -0.7399
 6273SOL     OW24857   1.188   2.910   3.776 -0.0175  0.1958 -0.7803
 6273SOL    HW224858   1.164   2.822   3.747 -0.4175 -0.1892  0.6020
 6273SOL    HW324859   1.253   2.895   3.845  0.1025  0.9950 -0.7131
 6273SOL    MW424860   1.194   2.897   3.781 -0.0545  0.2504 -0.5890
 6274SOL     OW24861   4.787   5.217   1.603  0.0746  0.1961  0.1325
 6274SOL    HW224862   4.750   5.282   1.543 -0.6626 -0.4540 -0.1368
 6274SOL    HW324863   4.717   5.199   1.665  1.5049  2.4952  2.6458
 6274SOL    MW424864   4.773   5.223   1.603  0.1660  0.4137  0.4286
 6275SOL     OW24865   6.288   4.778   3.144 -0.3417 -0.3786  0.3171
 6275SOL    HW224866   6.265   4.686   3.157  0.5891 -0.5550  0.8603
 6275SOL    HW324867   6.377   4.775   3.109 -0.8726  0.2832 -1.1732
 6275SOL    MW424868   6.297   4.765   3.141 -0.2889 -0.3146  0.1921
 6276SOL     OW24869   1.704   0.356   4.379 -0.0355 -0.8878 -0.3040
 6276SOL    HW224870   1.798   0.371   4.368 -0.3613  0.1737 -2.1555
 6276SOL    HW324871   1.664   0.437   4.349 -1.5979 -1.8670 -0.9561
 6276SOL    MW424872   1.711   0.369   4.374 -0.2846 -0.8769 -0.6343
 6277SOL     OW24873   4.930   2.497   5.833 -0.0578 -0.2145  0.2945
 6277SOL    HW224874   4.972   2.422   5.791  1.4443  0.8759 -0.2566
 6277SOL    HW324875   4.857   2.519   5.775  0.0686 -0.6648 -0.0422
 6277SOL    MW424876   4.926   2.490   5.820  0.1571 -0.1300  0.1774
 6278SOL     OW24877   3.845   5.219   4.356  0.4753  0.2465 -0.3357
 6278SOL    HW224878   3.816   5.247   4.443  1.2573  1.7148 -0.5248
 6278SOL    HW324879   3.861   5.125   4.365  1.8125  0.5968  1.4783
 6278SOL    MW424880   3.843   5.210   4.368  0.7549  0.4864 -0.1213
 6279SOL     OW24881   0.625   3.015   5.524 -0.1359 -0.3866 -0.5489
 6279SOL    HW224882   0.716   3.013   5.493 -0.1496 -0.8766 -0.5578
 6279SOL    HW324883   0.630   2.983   5.614 -0.1599  0.5897 -0.1849
 6279SOL    MW424884   0.638   3.010   5.532 -0.1409 -0.3224 -0.5021
 6280SOL     OW24885   3.697   5.150   6.366  0.2623 -0.4034  0.1753
 6280SOL    HW224886   3.784   5.187   6.381 -0.2744  0.3537  1.7068
 6280SOL    HW324887   3.659   5.142   6.454 -0.2379 -3.2291 -0.1946
 6280SOL    MW424888   3.703   5.154   6.380  0.1255 -0.6764  0.3286
 6281SOL     OW24889   4.154   2.003   2.848  0.0802  0.2615 -0.0881
 6281SOL    HW224890   4.165   1.939   2.918  0.6017 -0.3316 -0.6976
 6281SOL    HW324891   4.116   2.080   2.891 -0.7430 -0.5193  0.6208
 6281SOL    MW424892   4.150   2.005   2.863  0.0404  0.0802 -0.0750
 6282SOL     OW24893   2.477   1.902   1.737 -0.4346  0.2639 -0.3270
 6282SOL    HW224894   2.553   1.922   1.683 -0.4270 -0.0857 -0.4479
 6282SOL    HW324895   2.505   1.828   1.792 -0.2941  0.9024  0.4742
 6282SOL    MW424896   2.491   1.895   1.738 -0.4150  0.3020 -0.2373
 6283SOL     OW24897   4.955   2.560   2.336 -0.6185  0.0110  0.5781
 6283SOL    HW224898   4.859   2.559   2.329 -0.5670 -1.4318 -0.2401
 6283SOL    HW324899   4.976   2.489   2.397 -0.1205  1.4740  2.2024
 6283SOL    MW424900   4.945   2.551   2.343 -0.5460  0.0137  0.6844
 6284SOL     OW24901   4.781   5.424   3.169 -0.1923  0.3810  0.2012
 6284SOL    HW224902   4.758   5.499   3.225 -1.5240  3.0509 -3.5254
 6284SOL    HW324903   4.872   5.439   3.146  0.1234 -0.2891  0.9684
 6284SOL    MW424904   4.790   5.436   3.173 -0.3264  0.6448 -0.1893
 6285SOL     OW24905   2.790   1.073   4.651 -0.0795  0.4229  0.1626
 6285SOL    HW224906   2.696   1.059   4.636 -0.3163  0.4620  1.4719
 6285SOL    HW324907   2.813   1.144   4.592 -0.2604 -1.2599 -2.0780
 6285SOL    MW424908   2.781   1.080   4.641 -0.1346  0.2061  0.0397
 6286SOL     OW24909   2.388   4.819   2.677  0.8335  0.3466 -0.3607
 6286SOL    HW224910   2.404   4.868   2.758  1.1728  0.0548 -0.2514
 6286SOL    HW324911   2.468   4.829   2.626  0.2804  1.3014 -1.0677
 6286SOL    MW424912   2.401   4.827   2.681  0.8053  0.4341 -0.4396
 6287SOL     OW24913   2.252   2.756   6.245 -0.0828 -0.1103  0.3950
 6287SOL    HW224914   2.290   2.773   6.159  0.8680 -0.7369  0.6857
 6287SOL    HW324915   2.158   2.774   6.233 -0.1280 -1.1438 -1.0273
 6287SOL    MW424916   2.245   2.761   6.232  0.0367 -0.3293  0.2457
 6288SOL     OW24917   4.350   3.240   0.717 -0.1229  0.4553 -0.2837
 6288SOL    HW224918   4.295   3.257   0.641 -1.3108  0.3507  0.5146
 6288SOL    HW324919   4.439   3.234   0.683 -0.8838 -2.5112 -2.1068
 6288SOL    MW424920   4.354   3.242   0.703 -0.3800  0.0501 -0.4189
 6289SOL     OW24921   1.573   5.580   5.336  0.5360 -0.3929  0.0393
 6289SOL    HW224922   1.555   5.486   5.333  1.7468 -0.7452  1.8091
 6289SOL    HW324923   1.537   5.608   5.421  2.0632  0.2635  0.5034
 6289SOL    MW424924   1.566   5.571   5.347  0.8972 -0.3527  0.3340
 6290SOL     OW24925   2.817   2.541   4.268  0.0055  0.2599  0.2178
 6290SOL    HW224926   2.885   2.605   4.246  1.2990 -1.5313 -1.3891
 6290SOL    HW324927   2.847   2.501   4.349 -1.3439  2.2989  1.8195
 6290SOL    MW424928   2.830   2.544   4.276 -0.0019  0.2926  0.2171
 6291SOL     OW24929   1.347   1.526   4.976 -0.1713 -0.1954 -0.3929
 6291SOL    HW224930   1.386   1.548   5.061 -1.1210 -2.8273  0.8102
 6291SOL    HW324931   1.419   1.488   4.926  0.1146  0.2876 -0.3611
 6291SOL    MW424932   1.362   1.524   4.981 -0.2589 -0.4789 -0.2300
 6292SOL     OW24933   6.217   2.124   1.386 -0.4462 -0.3202  0.3713
 6292SOL    HW224934   6.253   2.116   1.474  1.1559 -2.1421 -0.3739
 6292SOL    HW324935   6.248   2.209   1.354  0.2812 -0.3336  1.0154
 6292SOL    MW424936   6.226   2.134   1.393 -0.1388 -0.5624  0.3580
 6293SOL     OW24937   2.679   4.689   0.265  0.8291  0.9740  0.1943
 6293SOL    HW224938   2.693   4.600   0.297 -0.8528  1.1008  1.4206
 6293SOL    HW324939   2.661   4.740   0.343  1.4407  2.3496 -0.5328
 6293SOL    MW424940   2.678   4.684   0.279  0.6879  1.1723  0.2602
 6294SOL     OW24941   1.209   6.386   6.028  0.8146  0.1736  0.0446
 6294SOL    HW224942   1.287   6.442   6.028  1.1760 -0.2810 -1.7825
 6294SOL    HW324943   1.209   6.344   5.942 -0.4152 -1.2956  0.7066
 6294SOL    MW424944   1.219   6.388   6.017  0.7000 -0.0802 -0.1091
 6295SOL     OW24945   6.373   4.632   2.188  0.3376 -0.5654  0.4381
 6295SOL    HW224946   6.449   4.690   2.192  0.1116 -0.2231 -0.0049
 6295SOL    HW324947   6.403   4.557   2.137  0.2231 -0.1625 -0.2460
 6295SOL    MW424948   6.387   4.630   2.181  0.2927 -0.4671  0.2894
 6296SOL     OW24949   0.229   1.283   1.503 -0.1783  0.2712 -0.1128
 6296SOL    HW224950   0.255   1.194   1.479 -0.5202 -0.3594  1.6914
 6296SOL    HW324951   0.135   1.287   1.486 -0.1783  0.2504 -0.1173
 6296SOL    MW424952   0.220   1.272   1.498 -0.2234  0.1852  0.1247
 6297SOL     OW24953   1.715   4.100   0.998 -0.0851  0.0197 -0.6413
 6297SOL    HW224954   1.657   4.069   0.929  1.3967 -2.7887 -0.7470
 6297SOL    HW324955   1.803   4.077   0.968  0.8269  1.1829  0.9902
 6297SOL    MW424956   1.719   4.093   0.985  0.2307 -0.1974 -0.4400
 6298SOL     OW24957   5.978   0.465   4.047 -0.2858 -0.4650  0.2798
 6298SOL    HW224958   5.924   0.511   4.112 -0.8336  1.8294 -1.6309
 6298SOL    HW324959   5.919   0.401   4.008 -0.3406 -0.9303  1.1055
 6298SOL    MW424960   5.963   0.463   4.051 -0.3653 -0.2237  0.1367
 6299SOL     OW24961   3.872   3.922   5.696  0.2263 -0.2043  0.3689
 6299SOL    HW224962   3.810   3.982   5.655  0.8872  0.4250  0.2607
 6299SOL    HW324963   3.917   3.880   5.623  0.5385  0.0057  0.4322
 6299SOL    MW424964   3.870   3.925   5.681  0.3547 -0.0936  0.3630
 6300SOL     OW24965   0.931   0.607   1.796 -0.1801  0.5994 -0.2238
 6300SOL    HW224966   0.877   0.685   1.784  0.8861  1.0825 -2.6528
 6300SOL    HW324967   1.021   0.641   1.798  0.2186 -0.4459  0.0457
 6300SOL    MW424968   0.936   0.622   1.794  0.0132  0.5252 -0.5088
 6301SOL     OW24969   2.182   0.240   4.033  0.4687 -0.0399 -0.3339
 6301SOL    HW224970   2.232   0.188   4.096  0.9175  0.6359 -0.1165
 6301SOL    HW324971   2.097   0.196   4.027  0.3004  0.0529  0.9903
 6301SOL    MW424972   2.177   0.227   4.041  0.5057  0.0615 -0.1305
 6302SOL     OW24973   3.321   4.296   3.653 -0.1461  0.1750 -0.5197
 6302SOL    HW224974   3.357   4.367   3.600 -1.1551  1.0736 -0.0311
 6302SOL    HW324975   3.236   4.277   3.613 -0.8430  0.7461  0.6428
 6302SOL    MW424976   3.315   4.303   3.641 -0.3712  0.3689 -0.3019
 6303SOL     OW24977   5.113   1.992   1.411  0.2278 -0.2251 -0.6276
 6303SOL    HW224978   5.059   1.985   1.491  1.1567  2.0609  0.2793
 6303SOL    HW324979   5.067   2.055   1.357  1.7190  1.5018  0.0119
 6303SOL    MW424980   5.100   1.999   1.415  0.5471  0.3044 -0.4236
 6304SOL     OW24981   2.230   2.713   3.553  0.5459  0.2792  0.3234
 6304SOL    HW224982   2.239   2.651   3.480  1.0034 -0.1624  0.7440
 6304SOL    HW324983   2.152   2.682   3.600 -0.3621  1.1829 -0.5540
 6304SOL    MW424984   2.221   2.701   3.550  0.4865  0.3401  0.2631
 6305SOL     OW24985   5.566   2.380   0.925 -0.0131 -0.0906  0.0636
 6305SOL    HW224986   5.619   2.459   0.915 -0.3503  0.1115 -0.1719
 6305SOL    HW324987   5.592   2.343   1.009 -0.3517  0.6531  0.5028
 6305SOL    MW424988   5.577   2.385   0.935 -0.1022  0.0342  0.0905
 6306SOL     OW24989   1.597   1.921   4.494  0.1668  0.6694 -0.4551
 6306SOL    HW224990   1.515   1.906   4.447  0.1520  0.1185 -0.2545
 6306SOL    HW324991   1.649   1.843   4.477  0.1898  0.4995  0.3820
 6306SOL    MW424992   1.593   1.909   4.486  0.1679  0.5743 -0.3182
 6307SOL     OW24993   6.424   2.417   4.565  0.1290  0.3947 -0.4190
 6307SOL    HW224994   6.474   2.389   4.642  1.0957 -1.4901 -1.6788
 6307SOL    HW324995   6.353   2.470   4.601  0.0444 -1.1449  1.8390
 6307SOL    MW424996   6.421   2.421   4.580  0.2454 -0.0571 -0.2873
 6308SOL     OW24997   1.080   3.552   0.096 -0.0327  0.3305 -0.0543
 6308SOL    HW224998   1.166   3.514   0.078  0.6712  1.7417  0.2491
 6308SOL    HW324999   1.019   3.498   0.044  1.1393 -0.0265 -1.1116
 6308SOL    MW425000   1.083   3.540   0.086  0.2148  0.4696 -0.1538
 6309SOL     OW25001   0.172   4.011   0.315 -0.1709 -0.5994  0.2039
 6309SOL    HW225002   0.190   4.019   0.409  0.6658  0.2700 -0.0112
 6309SOL    HW325003   0.085   3.971   0.310 -0.5342  0.0087  1.3605
 6309SOL    MW425004   0.163   4.007   0.327 -0.1084 -0.4044  0.3281
 6310SOL     OW25005   6.344   3.566   1.860 -0.1097  0.5382 -0.1244
 6310SOL    HW225006   6.428   3.604   1.886  1.3747 -1.5341 -1.5467
 6310SOL    HW325007   6.348   3.476   1.892 -1.4156  0.1521 -0.9683
 6310SOL    MW425008   6.356   3.559   1.868 -0.0862  0.2139 -0.4234
 6311SOL     OW25009   2.119   4.990   3.344 -0.1444 -0.4389 -0.3409
 6311SOL    HW225010   2.049   4.963   3.404 -0.6257  1.9669  0.2588
 6311SOL    HW325011   2.194   5.009   3.401 -0.9144  2.8847 -0.2265
 6311SOL    MW425012   2.120   4.989   3.359 -0.3095  0.3170 -0.2467
 6312SOL     OW25013   3.328   5.871   2.555  0.3927 -0.1442 -0.4597
 6312SOL    HW225014   3.249   5.896   2.506 -0.1474 -1.4147 -0.2757
 6312SOL    HW325015   3.334   5.936   2.625 -2.0580 -1.5033  1.1608
 6312SOL    MW425016   3.318   5.883   2.557 -0.0019 -0.4911 -0.2216
 6313SOL     OW25017   4.399   3.681   1.896 -0.2873  0.1109  0.0155
 6313SOL    HW225018   4.444   3.618   1.951  0.8770  0.5019 -0.4606
 6313SOL    HW325019   4.383   3.756   1.953 -0.6386 -0.1505  0.2681
 6313SOL    MW425020   4.403   3.683   1.911 -0.1800  0.1280 -0.0140
 6314SOL     OW25021   5.515   4.045   0.189 -0.0767 -0.0995 -0.2159
 6314SOL    HW225022   5.468   3.964   0.204  1.0244 -0.6672  0.2927
 6314SOL    HW325023   5.607   4.023   0.206  0.5429  0.6565 -2.3078
 6314SOL    MW425024   5.521   4.032   0.193  0.1503 -0.0747 -0.4248
 6315SOL     OW25025   2.202   5.099   3.706  0.2578  0.1887  0.2145
 6315SOL    HW225026   2.171   5.189   3.696  1.5966  0.8437  1.6882
 6315SOL    HW325027   2.130   5.053   3.749 -0.8836  0.2272 -1.5563
 6315SOL    MW425028   2.188   5.105   3.710  0.2839  0.2802  0.1753
 6316SOL     OW25029   6.001   3.352   4.220  0.0359 -0.3644  0.0379
 6316SOL    HW225030   6.039   3.274   4.259 -1.1939 -0.3815  1.3013
 6316SOL    HW325031   5.979   3.408   4.294 -1.6465 -0.0305 -0.6512
 6316SOL    MW425032   6.003   3.349   4.235 -0.3483 -0.3226  0.1137
 6317SOL     OW25033   3.088   5.798   5.608 -0.3451 -0.1955 -0.3263
 6317SOL    HW225034   3.181   5.806   5.587 -0.6785  1.9831 -1.2710
 6317SOL    HW325035   3.076   5.853   5.686 -0.8176 -0.5701 -0.1258
 6317SOL    MW425036   3.098   5.806   5.616 -0.4514  0.0425 -0.4245
 6318SOL     OW25037   6.312   3.903   3.232  0.2844  0.1366  0.1631
 6318SOL    HW225038   6.367   3.907   3.154 -1.4395 -2.9152 -1.3876
 6318SOL    HW325039   6.298   3.810   3.248 -2.9245  0.7021  1.5390
 6318SOL    MW425040   6.317   3.891   3.224 -0.3665 -0.1914  0.1400
 6319SOL     OW25041   6.400   5.116   3.887  0.4779  0.4102  0.0281
 6319SOL    HW225042   6.450   5.193   3.862 -0.2111  0.9637  0.3191
 6319SOL    HW325043   6.430   5.094   3.975 -0.8809  1.7109  0.8699
 6319SOL    MW425044   6.410   5.123   3.895  0.2077  0.6549  0.1775
 6320SOL     OW25045   4.144   6.294   3.624  0.6238  0.2307  0.0948
 6320SOL    HW225046   4.156   6.305   3.530 -0.5656  0.7993 -0.0046
 6320SOL    HW325047   4.075   6.229   3.633  0.1476  0.7887  0.5634
 6320SOL    MW425048   4.137   6.287   3.613  0.4041  0.3794  0.1435
 6321SOL     OW25049   4.706   5.509   1.892  0.4484 -0.6538  0.8788
 6321SOL    HW225050   4.760   5.555   1.957  0.0045  0.2834  0.5995
 6321SOL    HW325051   4.620   5.502   1.932 -0.3356  1.5130 -0.2324
 6321SOL    MW425052   4.702   5.514   1.906  0.2864 -0.2443  0.6954
 6322SOL     OW25053   5.833   5.684   2.810 -0.2301 -0.3549 -0.0047
 6322SOL    HW225054   5.888   5.606   2.821  1.6598  1.0311  0.9492
 6322SOL    HW325055   5.871   5.749   2.869 -0.9499  1.7193 -1.7034
 6322SOL    MW425056   5.845   5.682   2.819 -0.0758  0.1016 -0.1029
 6323SOL     OW25057   5.561   1.790   4.675  0.0747  0.1912  0.1921
 6323SOL    HW225058   5.496   1.784   4.604  0.3732  2.3024 -0.3525
 6323SOL    HW325059   5.510   1.816   4.752  0.0504  0.1904  0.1762
 6323SOL    MW425060   5.545   1.793   4.676  0.1109  0.4696  0.1182
 6324SOL     OW25061   0.071   5.335   4.286  0.4076 -0.0054 -0.4828
 6324SOL    HW225062   0.023   5.311   4.365  0.6451 -0.2468 -0.4121
 6324SOL    HW325063   0.058   5.430   4.277  1.5525  0.2808  0.6325
 6324SOL    MW425064   0.063   5.344   4.295  0.5900  0.0005 -0.3263
 6325SOL     OW25065   4.730   5.023   3.076 -0.5482 -0.5700  0.5174
 6325SOL    HW225066   4.756   4.968   3.150  0.8194 -0.8991 -0.1842
 6325SOL    HW325067   4.699   5.105   3.117  1.0288 -0.4019  1.4366
 6325SOL    MW425068   4.729   5.027   3.091 -0.1597 -0.5912  0.5461
 6326SOL     OW25069   1.257   1.982   0.032 -0.6951  0.1892  0.0888
 6326SOL    HW225070   1.218   1.904  -0.007 -0.4606  0.0115  0.2128
 6326SOL    HW325071   1.349   1.979   0.004 -0.5352  0.0843  0.6238
 6326SOL    MW425072   1.264   1.972   0.023 -0.6430  0.1519  0.1757
 6327SOL     OW25073   6.173   1.133   1.053 -0.5555  0.4904 -0.2757
 6327SOL    HW225074   6.139   1.049   1.021 -0.2582 -0.0015  0.6583
 6327SOL    HW325075   6.198   1.115   1.143  3.1781  0.5264 -1.1605
 6327SOL    MW425076   6.172   1.120   1.061 -0.0236  0.4303 -0.2692
 6328SOL     OW25077   5.912   5.572   2.365  0.0818  0.5079  0.4043
 6328SOL    HW225078   5.893   5.661   2.396 -0.1306  0.1284  1.3815
 6328SOL    HW325079   6.000   5.578   2.327  1.0136  0.6520  2.4908
 6328SOL    MW425080   5.921   5.585   2.364  0.1767  0.4769  0.8085
 6329SOL     OW25081   3.470   1.402   3.913  0.1701 -0.3002 -0.0297
 6329SOL    HW225082   3.389   1.355   3.936  0.7375 -0.3814  1.9815
 6329SOL    HW325083   3.469   1.479   3.969 -0.0093  1.4064 -2.2461
 6329SOL    MW425084   3.459   1.406   3.924  0.2213 -0.0858 -0.0568
 6330SOL     OW25085   0.256   5.109   3.511 -0.2111  0.1448  0.2752
 6330SOL    HW225086   0.289   5.186   3.465 -2.0460  1.1601  0.5757
 6330SOL    HW325087   0.191   5.072   3.451 -0.9027  0.1112  1.0280
 6330SOL    MW425088   0.252   5.114   3.497 -0.5444  0.2743  0.4142
 6331SOL     OW25089   0.329   5.145   4.596 -0.2774 -0.5070  0.0708
 6331SOL    HW225090   0.362   5.156   4.685 -1.0192  0.5462  0.2414
 6331SOL    HW325091   0.353   5.226   4.551  1.4209 -1.6339 -1.1604
 6331SOL    MW425092   0.337   5.157   4.602 -0.1512 -0.5167 -0.0691
 6332SOL     OW25093   5.455   5.235   3.588  0.1087  0.3204 -0.3988
 6332SOL    HW225094   5.522   5.290   3.546 -0.7789  0.6033 -1.4929
 6332SOL    HW325095   5.421   5.289   3.659 -0.6208  1.1326 -1.3460
 6332SOL    MW425096   5.459   5.249   3.591 -0.1047  0.4649 -0.6681
 6333SOL     OW25097   4.128   3.405   4.963 -0.4494  0.0108  0.2973
 6333SOL    HW225098   4.113   3.346   5.038  1.4234 -0.5006  0.3349
 6333SOL    HW325099   4.110   3.492   4.998 -0.7085 -0.3146  1.0152
 6333SOL    MW425100   4.124   3.408   4.978 -0.2365 -0.0996  0.3970
 6334SOL     OW25101   5.737   5.571   4.232 -0.1109 -0.2751  0.4432
 6334SOL    HW225102   5.803   5.502   4.244  0.1663 -0.0031  0.5079
 6334SOL    HW325103   5.677   5.561   4.306  1.8106  1.6451  2.4271
 6334SOL    MW425104   5.738   5.561   4.244  0.1792  0.0141  0.7135
 6335SOL     OW25105   5.042   3.599   0.085 -0.3548 -0.3727  0.1813
 6335SOL    HW225106   5.045   3.596   0.181 -2.2248 -1.2153  0.2518
 6335SOL    HW325107   4.965   3.653   0.065 -1.1650 -1.8274 -0.8015
 6335SOL    MW425108   5.032   3.606   0.095 -0.7084 -0.6758  0.0609
 6336SOL     OW25109   2.076   1.847   1.290  1.0143  0.2452 -0.2766
 6336SOL    HW225110   2.081   1.822   1.198 -1.1842  1.1209 -0.6917
 6336SOL    HW325111   2.019   1.780   1.330  0.7269  0.7012  0.0956
 6336SOL    MW425112   2.069   1.835   1.283  0.6864  0.4209 -0.2822
 6337SOL     OW25113   4.393   6.021   3.046  0.0590  0.0469 -0.6001
 6337SOL    HW225114   4.409   6.033   2.952  0.1596 -1.5746 -0.8195
 6337SOL    HW325115   4.386   5.926   3.057 -1.2009  0.2703  0.8378
 6337SOL    MW425116   4.394   6.010   3.035 -0.0939 -0.1376 -0.4394
 6338SOL     OW25117   5.055   4.991   5.222  0.6048  0.1204  0.1273
 6338SOL    HW225118   5.091   4.934   5.290  3.8236  0.8503 -0.8001
 6338SOL    HW325119   5.084   4.951   5.140 -1.3147  0.4806 -0.8009
 6338SOL    MW425120   5.063   4.978   5.220  0.7763  0.2642 -0.1175
 6339SOL     OW25121   5.199   1.837   0.668  0.3832 -0.1731  0.2359
 6339SOL    HW225122   5.186   1.876   0.581  0.3740 -2.5247 -0.8929
 6339SOL    HW325123   5.281   1.875   0.699  0.3745  0.7345 -0.7958
 6339SOL    MW425124   5.209   1.847   0.660  0.3809 -0.3636 -0.0492
 6340SOL     OW25125   3.238   3.543   1.310 -0.0149 -0.1257 -0.1676
 6340SOL    HW225126   3.295   3.620   1.307  0.0122 -0.1645 -1.5865
 6340SOL    HW325127   3.183   3.556   1.387 -0.0567  1.3683 -0.4211
 6340SOL    MW425128   3.238   3.555   1.320 -0.0168  0.0663 -0.3883
 6341SOL     OW25129   3.872   4.171   0.844 -0.0852  0.0649 -0.8803
 6341SOL    HW225130   3.913   4.088   0.865  0.1861  0.5360  0.5436
 6341SOL    HW325131   3.788   4.147   0.805 -0.3146 -0.8754  0.1477
 6341SOL    MW425132   3.867   4.157   0.842 -0.0797  0.0030 -0.5568
 6342SOL     OW25133   0.198   4.330   0.697 -0.0484 -0.0085 -0.2342
 6342SOL    HW225134   0.276   4.383   0.711  0.3636 -0.4585 -0.8216
 6342SOL    HW325135   0.154   4.371   0.622 -0.5880  0.4754  0.3306
 6342SOL    MW425136   0.202   4.343   0.689 -0.0652 -0.0040 -0.2372
 6343SOL     OW25137   0.109   6.131   5.298 -0.0005  0.0987 -0.8449
 6343SOL    HW225138   0.101   6.190   5.223 -0.6198 -1.0714 -1.7479
 6343SOL    HW325139   0.073   6.048   5.266  0.0712 -0.5320  0.6450
 6343SOL    MW425140   0.103   6.127   5.284 -0.0728 -0.1389 -0.7674
 6344SOL     OW25141   2.429   1.916   5.319 -0.2817  0.1269 -0.0164
 6344SOL    HW225142   2.367   1.975   5.361  0.3633  0.6592  0.2065
 6344SOL    HW325143   2.433   1.945   5.228 -0.8010 -0.2840 -0.1726
 6344SOL    MW425144   2.422   1.927   5.312 -0.2651  0.1429 -0.0076
 6345SOL     OW25145   5.722   4.225   6.276  0.0277 -0.1896  0.2424
 6345SOL    HW225146   5.627   4.233   6.277 -0.0977 -0.6405 -2.0988
 6345SOL    HW325147   5.745   4.231   6.183  2.2591 -0.3933  0.7346
 6345SOL    MW425148   5.713   4.227   6.264  0.3056 -0.2760 -0.0016
 6346SOL     OW25149   0.627   0.541   0.939  0.7447 -0.0090 -0.1389
 6346SOL    HW225150   0.586   0.470   0.987 -0.4592  1.4466  1.0764
 6346SOL    HW325151   0.575   0.549   0.859  0.8378 -0.4231 -0.2436
 6346SOL    MW425152   0.615   0.533   0.935  0.5982  0.1284  0.0076
 6347SOL     OW25153   2.747   1.311   5.425 -0.1441  0.4719 -0.3730
 6347SOL    HW225154   2.772   1.236   5.371  1.9439  0.2676  0.7440
 6347SOL    HW325155   2.664   1.286   5.464  0.8348 -1.6363  0.5402
 6347SOL    MW425156   2.739   1.298   5.423  0.2605  0.1668 -0.1051
 6348SOL     OW25157   5.228   6.411   5.285  0.4300  0.7712  0.1241
 6348SOL    HW225158   5.227   6.317   5.267 -0.1077  0.9829 -1.0106
 6348SOL    HW325159   5.287   6.448   5.219  0.4758  1.2655  0.4360
 6348SOL    MW425160   5.236   6.403   5.274  0.3651  0.8643  0.0155
 6349SOL     OW25161   1.190   5.491   2.534  0.3584 -0.2231 -0.1436
 6349SOL    HW225162   1.260   5.555   2.523 -0.1853  0.3871 -0.0367
 6349SOL    HW325163   1.191   5.470   2.627 -1.0323  1.4301  0.2710
 6349SOL    MW425164   1.200   5.496   2.545  0.1032  0.0755 -0.0748
 6350SOL     OW25165   0.859   0.831   0.872  0.5849  0.1599  0.5276
 6350SOL    HW225166   0.946   0.845   0.834  0.0213  0.7568 -0.6021
 6350SOL    HW325167   0.875   0.777   0.949  2.0093  0.6594  0.6142
 6350SOL    MW425168   0.872   0.826   0.877  0.6984  0.3045  0.3900
 6351SOL     OW25169   3.272   6.259   0.778 -0.5933  0.2615 -0.1242
 6351SOL    HW225170   3.179   6.270   0.797 -0.6230 -2.0296  1.6170
 6351SOL    HW325171   3.311   6.344   0.797 -2.2401  1.0878 -0.2617
 6351SOL    MW425172   3.265   6.271   0.783 -0.8145  0.0682  0.0873
 6352SOL     OW25173   1.744   5.134   5.268 -0.3524  0.3468  0.3905
 6352SOL    HW225174   1.798   5.080   5.326  0.0689 -1.2516 -1.4099
 6352SOL    HW325175   1.800   5.207   5.244  0.8134 -0.9175 -0.8742
 6352SOL    MW425176   1.758   5.137   5.272 -0.1430 -0.0309 -0.0139
 6353SOL     OW25177   1.356   0.047   0.020  0.0836  0.0128  0.4466
 6353SOL    HW225178   1.430   0.108   0.019 -2.1792  3.0191 -0.3332
 6353SOL    HW325179   1.374  -0.015  -0.050  1.0064  1.9209 -1.1136
 6353SOL    MW425180   1.368   0.047   0.011 -0.0932  0.6612  0.1378
 6354SOL     OW25181   0.904   1.677   5.502 -0.7834  0.3395 -0.3219
 6354SOL    HW225182   0.962   1.726   5.561  0.2532 -0.1242 -0.9311
 6354SOL    HW325183   0.822   1.669   5.550  0.3158 -0.8294  1.4740
 6354SOL    MW425184   0.901   1.682   5.516 -0.5016  0.1241 -0.1653
 6355SOL     OW25185   1.976   2.144   3.787 -0.0198  0.2128 -0.1413
 6355SOL    HW225186   2.050   2.204   3.784 -0.3291  0.6597  0.8707
 6355SOL    HW325187   2.000   2.078   3.852  0.0749 -0.4523 -0.8308
 6355SOL    MW425188   1.989   2.143   3.795 -0.0481  0.1840 -0.0987
 6356SOL     OW25189   2.783   0.404   2.747  0.2300 -0.4693 -0.2890
 6356SOL    HW225190   2.815   0.414   2.657 -1.6106 -0.7570 -1.0183
 6356SOL    HW325191   2.715   0.471   2.755 -1.5295 -2.2173 -0.0526
 6356SOL    MW425192   2.778   0.414   2.736 -0.2450 -0.7379 -0.3540
 6357SOL     OW25193   2.466   2.654   2.941  0.1986 -0.2956  0.1197
 6357SOL    HW225194   2.557   2.627   2.932 -0.3138 -1.4877 -2.4852
 6357SOL    HW325195   2.455   2.673   3.034  2.8150 -1.1089  0.6619
 6357SOL    MW425196   2.476   2.653   2.952  0.4762 -0.5602 -0.1525
 6358SOL     OW25197   2.049   0.688   1.294  0.4033 -0.5708 -0.0724
 6358SOL    HW225198   2.012   0.686   1.206  0.9959 -0.0103 -0.3482
 6358SOL    HW325199   2.039   0.599   1.327 -0.6012 -0.5854 -0.3727
 6358SOL    MW425200   2.043   0.676   1.287  0.3489 -0.4988 -0.1484
 6359SOL     OW25201   3.067   3.599   5.964 -0.3551 -0.2206  0.2423
 6359SOL    HW225202   3.070   3.679   6.017  1.2824 -0.5222  0.6490
 6359SOL    HW325203   2.996   3.615   5.901 -0.4154  1.3252  0.6600
 6359SOL    MW425204   3.058   3.612   5.963 -0.1470 -0.0565  0.3510
 6360SOL     OW25205   6.285   3.596   3.828  0.3644 -0.0829  0.1541
 6360SOL    HW225206   6.380   3.585   3.817 -0.0795 -3.3653 -1.9305
 6360SOL    HW325207   6.261   3.663   3.764  1.2872  1.2810  1.1769
 6360SOL    MW425208   6.294   3.604   3.818  0.4276 -0.3360  0.0140
 6361SOL     OW25209   5.525   2.601   1.736 -0.3869 -0.2755  0.0964
 6361SOL    HW225210   5.466   2.546   1.684  0.1862 -0.1526 -0.6979
 6361SOL    HW325211   5.609   2.597   1.690  0.5954 -1.4418  1.8774
 6361SOL    MW425212   5.528   2.593   1.723 -0.1817 -0.4132  0.2266
 6362SOL     OW25213   3.898   0.475   4.678  0.1048 -0.0500  0.1701
 6362SOL    HW225214   3.870   0.554   4.725  1.5281 -1.0062  2.8424
 6362SOL    HW325215   3.945   0.424   4.744  1.5392 -1.9223 -2.1597
 6362SOL    MW425216   3.900   0.479   4.693  0.4818 -0.4232  0.2153
 6363SOL     OW25217   3.961   3.279   3.714 -0.1118  0.4002  0.2324
 6363SOL    HW225218   3.877   3.284   3.669 -0.4150  1.1976  0.8488
 6363SOL    HW325219   3.954   3.343   3.785  0.9770  0.4108  0.3571
 6363SOL    MW425220   3.949   3.288   3.717 -0.0082  0.5068  0.3302
 6364SOL     OW25221   5.389   3.112   1.308  0.7559 -0.0290  0.4850
 6364SOL    HW225222   5.387   3.068   1.223  0.5013  2.3630 -0.8641
 6364SOL    HW325223   5.352   3.049   1.369 -2.1609 -0.7478 -1.7858
 6364SOL    MW425224   5.384   3.098   1.305  0.3375  0.1917  0.0074
 6365SOL     OW25225   2.922   5.098   3.760  0.5292  0.2132 -0.2295
 6365SOL    HW225226   2.905   5.133   3.847 -0.4005 -1.5861  0.3498
 6365SOL    HW325227   2.944   5.006   3.774 -2.4716 -0.9215 -2.0419
 6365SOL    MW425228   2.923   5.091   3.773  0.0106 -0.1739 -0.3922
 6366SOL     OW25229   5.308   0.634   2.474  0.1950  0.2385  0.2897
 6366SOL    HW225230   5.388   0.600   2.515  1.3199  0.9756 -1.1925
 6366SOL    HW325231   5.310   0.728   2.492  0.0750  0.3758 -0.3704
 6366SOL    MW425232   5.319   0.642   2.482  0.3276  0.3539  0.0070
 6367SOL     OW25233   5.047   3.414   5.539  0.4976  0.2381 -0.1014
 6367SOL    HW225234   5.094   3.367   5.608 -3.1032  0.5909  2.9361
 6367SOL    HW325235   5.097   3.495   5.526  0.1871  1.2823  3.9556
 6367SOL    MW425236   5.060   3.418   5.546 -0.0185  0.4224  0.8347
 6368SOL     OW25237   6.097   6.111   1.828 -0.2191  0.3465  0.0444
 6368SOL    HW225238   6.033   6.090   1.760  1.5099 -1.4064 -1.1244
 6368SOL    HW325239   6.094   6.207   1.835 -1.2549  0.4749 -1.6564
 6368SOL    MW425240   6.088   6.121   1.820 -0.1276  0.1321 -0.3342
 6369SOL     OW25241   3.552   4.473   5.844 -0.0822 -0.1276 -0.4714
 6369SOL    HW225242   3.514   4.561   5.843  0.0128 -0.0884 -0.8726
 6369SOL    HW325243   3.622   4.479   5.909 -0.8359 -0.2402  0.3719
 6369SOL    MW425244   3.556   4.486   5.853 -0.1691 -0.1373 -0.4131
 6370SOL     OW25245   6.161   0.363   3.061 -0.2956  0.2597 -0.8836
 6370SOL    HW225246   6.153   0.301   3.134 -0.3662 -0.3878 -1.4325
 6370SOL    HW325247   6.080   0.413   3.062 -0.0625  0.6327 -0.1760
 6370SOL    MW425248   6.150   0.361   3.071 -0.2741  0.2235 -0.8626
 6371SOL     OW25249   1.580   2.726   1.027  0.6323 -0.1347 -0.1579
 6371SOL    HW225250   1.511   2.756   1.086  1.1194  0.7434 -0.0055
 6371SOL    HW325251   1.551   2.753   0.940  0.6793  0.0490 -0.1179
 6371SOL    MW425252   1.567   2.733   1.023  0.7028  0.0054 -0.1325
 6372SOL     OW25253   5.644   1.715   0.863  0.0983 -0.3127  0.0089
 6372SOL    HW225254   5.722   1.679   0.905 -0.1752 -1.1379 -0.1780
 6372SOL    HW325255   5.585   1.640   0.853  0.8959 -0.6479 -3.6067
 6372SOL    MW425256   5.646   1.700   0.868  0.1675 -0.4658 -0.4928
 6373SOL     OW25257   2.708   4.192   2.264  0.4339  0.0386  0.3904
 6373SOL    HW225258   2.799   4.206   2.290  0.1765 -0.0160  1.3481
 6373SOL    HW325259   2.676   4.124   2.324 -0.3541  0.3480  0.3321
 6373SOL    MW425260   2.715   4.185   2.275  0.2960  0.0722  0.5091
 6374SOL     OW25261   3.166   0.146   4.184 -0.1993 -0.0153 -0.1106
 6374SOL    HW225262   3.168   0.198   4.265 -1.4455 -2.0395  1.3158
 6374SOL    HW325263   3.244   0.174   4.136 -0.4415  2.6161  0.8736
 6374SOL    MW425264   3.177   0.156   4.189 -0.3957  0.0648  0.2074
 6375SOL     OW25265   4.823   2.911   2.209  0.3375 -0.1017  0.3190
 6375SOL    HW225266   4.906   2.862   2.200  1.4937  1.6529  0.9286
 6375SOL    HW325267   4.781   2.903   2.124  1.0268 -1.2058  0.0592
 6375SOL    MW425268   4.829   2.903   2.197  0.5810 -0.0159  0.3651
 6376SOL     OW25269   0.212   4.598   4.921  0.1866  0.2483 -0.6696
 6376SOL    HW225270   0.236   4.662   4.854  2.2497  1.2546  0.9273
 6376SOL    HW325271   0.176   4.651   4.992  1.1136 -0.4393  0.3314
 6376SOL    MW425272   0.210   4.614   4.921  0.5811  0.2904 -0.3268
 6377SOL     OW25273   4.882   4.652   2.494 -0.0154 -0.3573 -0.7003
 6377SOL    HW225274   4.881   4.600   2.575 -0.1497 -0.3969 -0.7267
 6377SOL    HW325275   4.876   4.743   2.524 -0.0678 -0.3718 -0.6667
 6377SOL    MW425276   4.881   4.657   2.509 -0.0400 -0.3644 -0.6994
 6378SOL     OW25277   1.359   1.678   6.375 -0.3014 -0.1419  0.3344
 6378SOL    HW225278   1.360   1.624   6.454 -0.6243 -0.1895  0.3084
 6378SOL    HW325279   1.451   1.701   6.361 -0.2735  0.1228  0.9000
 6378SOL    MW425280   1.371   1.674   6.384 -0.3403 -0.1132  0.4056
 6379SOL     OW25281   6.177   2.247   1.835  0.5503 -0.0862 -0.5538
 6379SOL    HW225282   6.104   2.290   1.879  1.1740  0.6128 -0.1777
 6379SOL    HW325283   6.204   2.178   1.895 -0.2014 -0.7669 -0.9813
 6379SOL    MW425284   6.171   2.244   1.849  0.5334 -0.0838 -0.5605
 6380SOL     OW25285   1.057   2.166   6.043 -0.1923  0.0842  0.1214
 6380SOL    HW225286   1.134   2.160   5.986 -0.3458  3.3046 -0.6150
 6380SOL    HW325287   1.093   2.167   6.132  0.3500 -0.9840 -0.0589
 6380SOL    MW425288   1.072   2.165   6.047 -0.1410  0.3681  0.0005
 6381SOL     OW25289   1.936   4.707   2.791 -0.0326 -0.0211  0.7267
 6381SOL    HW225290   1.961   4.800   2.786  0.4075 -0.2090 -1.3155
 6381SOL    HW325291   2.015   4.660   2.765 -0.4108 -0.9740  1.2624
 6381SOL    MW425292   1.950   4.713   2.787 -0.0244 -0.1716  0.5279
 6382SOL     OW25293   3.212   2.409   1.128 -0.4258 -0.2201 -0.5750
 6382SOL    HW225294   3.202   2.355   1.206 -0.1914  1.2629  0.5083
 6382SOL    HW325295   3.258   2.352   1.066  0.8065 -0.9335  0.9125
 6382SOL    MW425296   3.217   2.394   1.130 -0.2323 -0.1186 -0.2358
 6383SOL     OW25297   6.395   1.572   3.136 -0.2727  0.4564  0.6805
 6383SOL    HW225298   6.434   1.590   3.051 -1.5250  0.6103  0.1065
 6383SOL    HW325299   6.364   1.481   3.129  0.5499  0.1096  1.3611
 6383SOL    MW425300   6.396   1.562   3.124 -0.3294  0.4309  0.6946
 6384SOL     OW25301   1.161   6.295   1.974  0.6093 -0.0564  0.2959
 6384SOL    HW225302   1.248   6.295   1.933  0.4924  0.5829  0.0270
 6384SOL    HW325303   1.162   6.371   2.032 -0.2771  0.8954 -0.8640
 6384SOL    MW425304   1.172   6.305   1.976  0.4769  0.1535  0.1074
 6385SOL     OW25305   4.789   3.737   2.043  0.7863 -0.3235  0.0822
 6385SOL    HW225306   4.765   3.699   2.127  1.0892  1.2404  0.9193
 6385SOL    HW325307   4.773   3.831   2.054  0.7317 -0.1031 -1.6461
 6385SOL    MW425308   4.784   3.745   2.056  0.8191 -0.0881 -0.0354
 6386SOL     OW25309   1.465   4.777   1.279 -0.0617 -0.0044  0.6783
 6386SOL    HW225310   1.516   4.850   1.316 -0.1661 -0.8179  2.5319
 6386SOL    HW325311   1.530   4.708   1.264 -0.0000  0.3576 -0.8641
 6386SOL    MW425312   1.481   4.778   1.282 -0.0673 -0.0639  0.7194
 6387SOL     OW25313   1.607   1.142   0.117 -0.4412 -0.1874 -0.4794
 6387SOL    HW225314   1.657   1.176   0.191 -0.4999 -0.8656 -0.1197
 6387SOL    HW325315   1.579   1.055   0.145 -0.5362 -0.4187 -1.2640
 6387SOL    MW425316   1.610   1.135   0.130 -0.4615 -0.3074 -0.5355
 6388SOL     OW25317   1.484   3.934   0.912  0.4275  0.0009 -0.1329
 6388SOL    HW225318   1.400   3.941   0.867 -0.5497 -0.8411  1.4590
 6388SOL    HW325319   1.542   3.893   0.849 -0.9514 -1.3858 -0.5681
 6388SOL    MW425320   1.480   3.930   0.898  0.1166 -0.2931  0.0197
 6389SOL     OW25321   4.747   2.439   0.721 -0.0097  0.1984  0.1179
 6389SOL    HW225322   4.782   2.412   0.637 -3.0030 -0.3696 -1.0754
 6389SOL    HW325323   4.745   2.535   0.716  1.7723  0.2975  0.4843
 6389SOL    MW425324   4.751   2.448   0.709 -0.1695  0.1366  0.0088
 6390SOL     OW25325   3.833   1.330   2.747  0.3002  0.6153  0.3509
 6390SOL    HW225326   3.766   1.294   2.690 -0.2333  1.8529  0.1725
 6390SOL    HW325327   3.898   1.260   2.755 -0.6971 -0.3675  0.0291
 6390SOL    MW425328   3.833   1.316   2.741  0.0982  0.6489  0.2849
 6391SOL     OW25329   0.825   4.383   2.060 -0.2991  0.0202 -0.0959
 6391SOL    HW225330   0.892   4.401   1.994  0.7467 -3.0221 -0.0516
 6391SOL    HW325331   0.859   4.307   2.108 -2.5971  0.0154  1.7084
 6391SOL    MW425332   0.839   4.375   2.058 -0.4643 -0.3818  0.1480
 6392SOL     OW25333   1.555   0.918   4.266  0.2566 -0.5416 -0.1288
 6392SOL    HW225334   1.508   0.963   4.337  0.4668  0.3171 -0.5236
 6392SOL    HW325335   1.645   0.912   4.298 -0.1117 -2.4141  0.7375
 6392SOL    MW425336   1.560   0.923   4.280  0.2357 -0.6754 -0.0666
 6393SOL     OW25337   5.895   1.184   6.092 -0.2584  0.4408 -0.3677
 6393SOL    HW225338   5.886   1.232   6.010 -1.3616  0.5180 -0.2170
 6393SOL    HW325339   5.843   1.104   6.079  0.7597 -0.2504 -0.2676
 6393SOL    MW425340   5.887   1.180   6.080 -0.2696  0.3598 -0.3346
 6394SOL     OW25341   0.735   1.711   2.801 -0.4252  0.2598  0.1725
 6394SOL    HW225342   0.794   1.677   2.733 -0.9058  0.1416 -0.1901
 6394SOL    HW325343   0.716   1.800   2.772 -0.9954  0.0533 -0.0893
 6394SOL    MW425344   0.741   1.718   2.788 -0.5638  0.2169  0.0901
 6395SOL     OW25345   3.215   1.290   3.934  0.2257 -0.3624  0.4633
 6395SOL    HW225346   3.173   1.351   3.994 -0.9303 -0.3924 -0.2936
 6395SOL    HW325347   3.156   1.215   3.930  0.7463 -0.7622 -0.0007
 6395SOL    MW425348   3.202   1.288   3.941  0.1419 -0.4191  0.3022
 6396SOL     OW25349   1.081   5.691   2.216 -0.2955  0.3922 -0.3911
 6396SOL    HW225350   0.999   5.669   2.173 -0.3547 -0.8855  0.3358
 6396SOL    HW325351   1.146   5.634   2.174 -0.0827  0.2419  0.1297
 6396SOL    MW425352   1.079   5.680   2.205 -0.2753  0.2038 -0.2265
 6397SOL     OW25353   6.244   4.527   6.117  0.5198  0.5111  0.2303
 6397SOL    HW225354   6.284   4.484   6.193 -1.3877 -0.0882  0.9449
 6397SOL    HW325355   6.151   4.534   6.139  0.4199  3.2672 -0.7039
 6397SOL    MW425356   6.237   4.523   6.130  0.2549  0.7956  0.2013
 6398SOL     OW25357   4.853   3.075   0.490  0.3283  0.5070  0.3850
 6398SOL    HW225358   4.878   2.996   0.537 -0.4992  0.1796  0.2906
 6398SOL    HW325359   4.888   3.147   0.542 -0.8898  0.1712  1.7314
 6398SOL    MW425360   4.861   3.074   0.503  0.0584  0.4195  0.5502
 6399SOL     OW25361   2.870   0.967   3.387 -0.0479  0.0689 -0.4193
 6399SOL    HW225362   2.781   0.981   3.421 -0.5922 -0.5010 -1.5554
 6399SOL    HW325363   2.865   0.992   3.295  0.6731 -0.9974 -0.7708
 6399SOL    MW425364   2.858   0.972   3.379 -0.0246 -0.1470 -0.6156
 6400SOL     OW25365   3.334   6.128   1.038  0.1889  0.1791  0.4221
 6400SOL    HW225366   3.277   6.051   1.042  0.6833 -0.1776  0.7042
 6400SOL    HW325367   3.302   6.178   0.963  0.0699 -0.4685  0.0352
 6400SOL    MW425368   3.322   6.125   1.029  0.2384  0.0466  0.4083
 6401SOL     OW25369   0.992   1.132   2.982  0.1087  0.1112  0.0336
 6401SOL    HW225370   0.939   1.069   3.032 -1.9245  1.4216 -0.3427
 6401SOL    HW325371   0.972   1.217   3.022  1.6290  0.7054 -0.4211
 6401SOL    MW425372   0.982   1.135   2.994  0.0411  0.3625 -0.0760
 6402SOL     OW25373   5.701   0.721   3.942 -0.4701  0.2117  0.3352
 6402SOL    HW225374   5.614   0.694   3.912 -0.3522 -0.0893  0.2588
 6402SOL    HW325375   5.695   0.715   4.038 -0.6813  0.6596  0.3536
 6402SOL    MW425376   5.688   0.716   3.951 -0.4824  0.2311  0.3275
 6403SOL     OW25377   3.587   2.374   5.219 -0.6380  0.3311 -0.4026
 6403SOL    HW225378   3.495   2.390   5.197 -0.4848  0.6701 -0.8065
 6403SOL    HW325379   3.583   2.326   5.302 -1.1648  0.8473 -0.1166
 6403SOL    MW425380   3.574   2.370   5.227 -0.6873  0.4439 -0.4181
 6404SOL     OW25381   5.359   2.356   4.643  0.0566 -0.1300 -0.3198
 6404SOL    HW225382   5.376   2.316   4.558 -0.1010  0.0765 -0.4498
 6404SOL    HW325383   5.346   2.283   4.703  0.9880 -0.2867 -0.3032
 6404SOL    MW425384   5.360   2.341   4.640  0.1587 -0.1234 -0.3348
 6405SOL     OW25385   2.338   1.942   0.626  0.0456  0.1680  0.1156
 6405SOL    HW225386   2.347   1.901   0.540  2.0218 -0.6599  0.6676
 6405SOL    HW325387   2.282   1.882   0.675 -1.4380  0.8505 -0.6677
 6405SOL    MW425388   2.332   1.929   0.621  0.1106  0.1488  0.0851
 6406SOL     OW25389   4.253   0.345   5.022 -0.6602  0.1252  0.2600
 6406SOL    HW225390   4.173   0.341   5.076 -0.8335 -1.3128 -0.0554
 6406SOL    HW325391   4.310   0.278   5.059  1.2205  2.3452  1.6473
 6406SOL    MW425392   4.250   0.336   5.034 -0.4349  0.2284  0.4014
 6407SOL     OW25393   5.318   2.145   0.637  0.6357  0.0999 -0.2209
 6407SOL    HW225394   5.296   2.215   0.698 -1.6574 -0.3454 -0.4617
 6407SOL    HW325395   5.377   2.089   0.686  1.4412  1.4638  0.4322
 6407SOL    MW425396   5.323   2.147   0.652  0.4395  0.2211 -0.1665
 6408SOL     OW25397   5.153   2.434   5.385  0.8257  0.5716  0.2727
 6408SOL    HW225398   5.111   2.519   5.373 -0.6959 -0.0617  0.8315
 6408SOL    HW325399   5.093   2.386   5.443  0.5390 -1.6425 -1.7252
 6408SOL    MW425400   5.139   2.439   5.391  0.5871  0.1959  0.0828
 6409SOL     OW25401   5.646   4.066   3.115  0.1956 -0.0601 -0.0082
 6409SOL    HW225402   5.590   4.103   3.047 -0.3153 -1.8680 -0.6354
 6409SOL    HW325403   5.732   4.058   3.073 -0.2942 -1.8880 -0.7834
 6409SOL    MW425404   5.650   4.070   3.100  0.0636 -0.5398 -0.1932
 6410SOL     OW25405   1.113   0.946   1.963  0.0901  0.0556  0.1587
 6410SOL    HW225406   1.189   1.001   1.981  0.6414 -0.2673 -1.1183
 6410SOL    HW325407   1.066   0.943   2.047  0.9306  1.0820  0.6973
 6410SOL    MW425408   1.117   0.953   1.976  0.2738  0.1484  0.0613
 6411SOL     OW25409   2.595   3.772   0.116  0.3162 -0.0152  0.3579
 6411SOL    HW225410   2.654   3.715   0.067 -0.9234 -0.4180 -0.7183
 6411SOL    HW325411   2.599   3.856   0.070 -0.4616 -0.2487 -0.1646
 6411SOL    MW425412   2.603   3.775   0.103  0.0500 -0.0992  0.1470
 6412SOL     OW25413   1.253   1.770   4.879 -0.4474  0.2097 -0.0203
 6412SOL    HW225414   1.273   1.687   4.923  2.2253  1.2638  0.9683
 6412SOL    HW325415   1.292   1.760   4.792  0.6334  0.6793  0.3892
 6412SOL    MW425416   1.261   1.758   4.873  0.0479  0.4108  0.1641
 6413SOL     OW25417   1.599   0.551   2.718  0.5718  0.4151  0.6520
 6413SOL    HW225418   1.597   0.463   2.680  2.5519  0.2259  0.9186
 6413SOL    HW325419   1.582   0.537   2.811  1.6340  0.2026  0.8282
 6413SOL    MW425420   1.596   0.537   2.725  0.9732  0.3621  0.7105
 6414SOL     OW25421   2.298   1.894   3.728  0.2625 -0.4507 -0.1932
 6414SOL    HW225422   2.270   1.804   3.746 -0.5482  0.0591  1.3037
 6414SOL    HW325423   2.238   1.924   3.660 -2.3052  0.2424  2.1666
 6414SOL    MW425424   2.286   1.886   3.722 -0.1833 -0.2920  0.3156
 6415SOL     OW25425   2.466   4.112   0.950 -0.1433  0.1227 -0.9481
 6415SOL    HW225426   2.386   4.117   0.897 -0.8804  0.5321  0.1719
 6415SOL    HW325427   2.498   4.202   0.955  0.4449 -0.0513 -1.4556
 6415SOL    MW425428   2.460   4.124   0.944 -0.1630  0.1538 -0.8673
 6416SOL     OW25429   0.196   1.650   4.667  0.7176  1.2085 -0.0637
 6416SOL    HW225430   0.223   1.619   4.753 -1.0532  1.1518  0.5083
 6416SOL    HW325431   0.185   1.744   4.677  0.9904  1.2781 -0.3788
 6416SOL    MW425432   0.198   1.658   4.680  0.5200  1.2102 -0.0298
 6417SOL     OW25433   0.383   4.835   0.106  0.1895 -0.1310 -0.4004
 6417SOL    HW225434   0.479   4.837   0.105  0.1900  2.3935 -0.2652
 6417SOL    HW325435   0.361   4.756   0.056  2.3053 -1.8776  1.1970
 6417SOL    MW425436   0.393   4.825   0.099  0.4687 -0.0284 -0.1718
 6418SOL     OW25437   4.211   0.174   0.218  0.5035 -0.2816 -0.2841
 6418SOL    HW225438   4.173   0.124   0.145 -0.6563  1.1242 -0.6774
 6418SOL    HW325439   4.303   0.148   0.219  0.2396 -1.3568 -1.3704
 6418SOL    MW425440   4.218   0.164   0.209  0.3157 -0.2380 -0.4793
 6419SOL     OW25441   3.790   1.066   4.767  0.0359  0.9495 -0.1315
 6419SOL    HW225442   3.853   1.024   4.709  0.7246  0.8052  0.7069
 6419SOL    HW325443   3.834   1.145   4.798 -1.0735  2.0849 -1.3302
 6419SOL    MW425444   3.804   1.071   4.764 -0.0196  1.0803 -0.1791
 6420SOL     OW25445   3.285   5.818   5.200 -0.0733 -0.5210 -0.0709
 6420SOL    HW225446   3.215   5.854   5.254 -0.2523 -0.1055 -0.5603
 6420SOL    HW325447   3.251   5.735   5.168  0.0666 -0.8066  0.5166
 6420SOL    MW425448   3.271   5.812   5.203 -0.0785 -0.5039 -0.0579
 6421SOL     OW25449   4.303   4.677   2.725  0.6171  0.0890 -0.2380
 6421SOL    HW225450   4.371   4.735   2.691  2.7171 -0.1694  3.0823
 6421SOL    HW325451   4.277   4.716   2.808  1.5110 -3.1534  1.7370
 6421SOL    MW425452   4.308   4.690   2.731  1.0121 -0.3729  0.4606
 6422SOL     OW25453   3.224   1.649   1.239  0.2938  0.0123 -0.2412
 6422SOL    HW225454   3.229   1.557   1.266 -0.8720 -0.5987 -1.9619
 6422SOL    HW325455   3.154   1.685   1.294  2.1231  0.5032  1.9407
 6422SOL    MW425456   3.215   1.641   1.250  0.3813 -0.0036 -0.1804
 6423SOL     OW25457   3.201   2.728   2.067 -0.5508 -0.1879  0.2899
 6423SOL    HW225458   3.125   2.764   2.112 -0.2241  0.3043  0.4568
 6423SOL    HW325459   3.200   2.770   1.981  0.1653  0.7081  0.6921
 6423SOL    MW425460   3.191   2.738   2.061 -0.4132 -0.0047  0.3650
 6424SOL     OW25461   0.535   4.014   0.477 -0.0222  0.4550  1.1713
 6424SOL    HW225462   0.601   3.979   0.416 -0.7661 -1.6604  1.4839
 6424SOL    HW325463   0.508   4.097   0.438 -0.1621 -0.6097 -1.2023
 6424SOL    MW425464   0.541   4.020   0.463 -0.1388  0.0355  0.8994
 6425SOL     OW25465   2.642   4.592   4.328  0.1127 -0.1455  0.7684
 6425SOL    HW225466   2.692   4.564   4.405 -2.0248 -0.3836  2.1704
 6425SOL    HW325467   2.596   4.514   4.299 -0.4644  0.3403  0.3492
 6425SOL    MW425468   2.642   4.578   4.334 -0.2454 -0.1128  0.8981
 6426SOL     OW25469   4.820   4.255   2.480  0.0415  0.4767  0.5984
 6426SOL    HW225470   4.760   4.324   2.509 -0.3289 -0.4162  2.0756
 6426SOL    HW325471   4.888   4.301   2.433  0.7563  2.1333  3.0385
 6426SOL    MW425472   4.821   4.270   2.478  0.0869  0.5775  1.1153
 6427SOL     OW25473   3.437   4.717   4.827 -0.3254  0.2947 -0.0911
 6427SOL    HW225474   3.445   4.703   4.922 -1.2674  0.0003 -0.0456
 6427SOL    HW325475   3.353   4.679   4.804 -0.3347  0.8193 -0.9702
 6427SOL    MW425476   3.427   4.710   4.837 -0.4509  0.3251 -0.2011
 6428SOL     OW25477   3.774   0.832   0.425  0.2404 -0.1920  0.4583
 6428SOL    HW225478   3.841   0.766   0.407 -0.5126 -0.4620 -1.6375
 6428SOL    HW325479   3.816   0.893   0.486  2.3234 -0.4478 -0.6349
 6428SOL    MW425480   3.788   0.831   0.431  0.4159 -0.2613  0.0375
 6429SOL     OW25481   4.489   2.241   2.375 -0.2272  0.3938 -0.1232
 6429SOL    HW225482   4.395   2.221   2.380 -0.6310  2.0666 -0.1222
 6429SOL    HW325483   4.532   2.156   2.365 -1.8631 -0.2929 -1.9792
 6429SOL    MW425484   4.482   2.227   2.375 -0.4963  0.5239 -0.3680
 6430SOL     OW25485   0.523   0.521   1.665  0.2578 -0.1282  0.0347
 6430SOL    HW225486   0.579   0.449   1.694 -0.7059 -0.8065  0.2465
 6430SOL    HW325487   0.446   0.478   1.627  0.2904  0.7780 -1.1091
 6430SOL    MW425488   0.521   0.506   1.663  0.1350 -0.0981 -0.0883
 6431SOL     OW25489   5.315   5.124   5.432 -0.6137  0.0013 -0.2542
 6431SOL    HW225490   5.399   5.160   5.405 -1.2410 -0.0586 -2.4738
 6431SOL    HW325491   5.263   5.200   5.457 -0.2105  0.1183  0.2401
 6431SOL    MW425492   5.319   5.139   5.432 -0.6433  0.0088 -0.4818
 6432SOL     OW25493   6.317   4.033   5.682 -0.3281 -0.1842 -0.2170
 6432SOL    HW225494   6.338   3.999   5.768  0.0809  0.0477 -0.2237
 6432SOL    HW325495   6.248   4.098   5.698 -0.2842 -0.1731 -0.0748
 6432SOL    MW425496   6.310   4.037   5.695 -0.2683 -0.1522 -0.1991
 6433SOL     OW25497   0.911   0.673   0.637  0.2509 -0.2300 -0.2967
 6433SOL    HW225498   0.911   0.732   0.712 -0.1579 -1.6721  0.8988
 6433SOL    HW325499   0.959   0.720   0.569  0.5448  1.1699  0.8342
 6433SOL    MW425500   0.917   0.687   0.638  0.2357 -0.2356  0.0102
 6434SOL     OW25501   5.811   1.927   0.225  0.5614 -0.3996  0.0632
 6434SOL    HW225502   5.843   2.018   0.224  3.6698 -1.3696 -0.6403
 6434SOL    HW325503   5.832   1.896   0.313  0.3649 -0.7072  0.0019
 6434SOL    MW425504   5.818   1.935   0.236  0.9456 -0.5682 -0.0377
 6435SOL     OW25505   0.179   3.793   2.364  0.0574 -0.6161  0.4833
 6435SOL    HW225506   0.250   3.729   2.363  0.5038 -0.1792 -1.5327
 6435SOL    HW325507   0.100   3.742   2.348  0.2964 -0.7964 -0.1599
 6435SOL    MW425508   0.178   3.778   2.362  0.1478 -0.5823  0.1325
 6436SOL     OW25509   0.757   4.903   3.099  0.2602 -0.2222 -0.2281
 6436SOL    HW225510   0.788   4.915   3.188  0.8485 -1.6573 -0.2197
 6436SOL    HW325511   0.836   4.904   3.045  0.0383 -0.7619 -0.5701
 6436SOL    MW425512   0.771   4.905   3.103  0.3086 -0.4827 -0.2721
 6437SOL     OW25513   4.300   1.286   4.226 -0.1940  0.5629 -0.0285
 6437SOL    HW225514   4.206   1.280   4.240 -0.2928 -0.7574 -1.0391
 6437SOL    HW325515   4.335   1.314   4.311 -1.1700 -2.5767  1.5840
 6437SOL    MW425516   4.292   1.289   4.239 -0.3358 -0.0255  0.0509
 6438SOL     OW25517   5.057   1.468   3.759 -0.1534 -0.0522  0.0763
 6438SOL    HW225518   4.975   1.441   3.720  0.9504 -0.5210 -2.0355
 6438SOL    HW325519   5.101   1.386   3.782 -0.8658  0.2005  2.6511
 6438SOL    MW425520   5.052   1.454   3.757 -0.1018 -0.0807  0.1374
 6439SOL     OW25521   2.173   3.856   0.368  0.4840  0.3899  0.0391
 6439SOL    HW225522   2.094   3.901   0.339  0.2671 -0.3568 -0.5678
 6439SOL    HW325523   2.245   3.912   0.338  0.2074  0.8239  0.1677
 6439SOL    MW425524   2.172   3.869   0.361  0.4189  0.3486 -0.0240
 6440SOL     OW25525   1.423   4.301   6.312 -0.2077 -0.0885  0.0020
 6440SOL    HW225526   1.507   4.285   6.353  0.4524 -1.6322 -1.7947
 6440SOL    HW325527   1.379   4.216   6.312 -0.1550 -0.1866 -2.3778
 6440SOL    MW425528   1.428   4.288   6.317 -0.1137 -0.3051 -0.5490
 6441SOL     OW25529   1.486   1.264   2.855  0.1590  0.0951 -0.2723
 6441SOL    HW225530   1.515   1.251   2.945  0.6781  0.5138 -0.3685
 6441SOL    HW325531   1.472   1.359   2.849 -0.9854 -0.0659 -0.3112
 6441SOL    MW425532   1.488   1.275   2.866  0.0765  0.1291 -0.2901
 6442SOL     OW25533   2.120   2.966   0.246 -0.2453 -0.4301  0.1213
 6442SOL    HW225534   2.191   2.958   0.182  2.5003  2.2691  2.5385
 6442SOL    HW325535   2.064   3.036   0.211  0.5423  0.1648  0.0193
 6442SOL    MW425536   2.122   2.974   0.233  0.2209  0.0045  0.4267
 6443SOL     OW25537   2.819   1.743   1.943  0.1124  0.2794  0.4726
 6443SOL    HW225538   2.819   1.828   1.900  0.9971  0.9682  1.7561
 6443SOL    HW325539   2.833   1.763   2.036 -0.6787 -1.2029  0.9474
 6443SOL    MW425540   2.821   1.757   1.950  0.1247  0.1747  0.7046
 6444SOL     OW25541   4.528   4.095   3.821 -0.2494 -0.7366  0.0865
 6444SOL    HW225542   4.586   4.149   3.766  0.9943 -1.0281  1.0664
 6444SOL    HW325543   4.500   4.154   3.891 -0.8758 -0.6938 -0.1952
 6444SOL    MW425544   4.532   4.110   3.823 -0.1679 -0.7694  0.1786
 6445SOL     OW25545   4.835   5.129   5.082  0.1912 -0.4620 -0.3193
 6445SOL    HW225546   4.752   5.083   5.096 -0.8656  1.3610 -0.3634
 6445SOL    HW325547   4.896   5.088   5.143 -1.2224 -0.5764  1.0619
 6445SOL    MW425548   4.832   5.117   5.092 -0.1347 -0.2366 -0.1428
 6446SOL     OW25549   4.418   4.206   1.240  0.2218 -0.3288 -0.5019
 6446SOL    HW225550   4.341   4.247   1.199 -0.9319 -0.9066  1.0093
 6446SOL    HW325551   4.417   4.116   1.207 -1.5130 -1.2138  1.6822
 6446SOL    MW425552   4.407   4.200   1.230 -0.1593 -0.5218 -0.0143
 6447SOL     OW25553   1.096   4.105   1.079 -0.5831  0.2197 -0.1571
 6447SOL    HW225554   1.029   4.037   1.075 -2.4400  1.8831  0.9356
 6447SOL    HW325555   1.060   4.177   1.027  0.3652  1.1446  0.4270
 6447SOL    MW425556   1.083   4.106   1.071 -0.7030  0.5612  0.0641
 6448SOL     OW25557   4.803   3.679   2.680 -0.1960 -0.1695  0.1647
 6448SOL    HW225558   4.847   3.606   2.636 -1.3324  0.0613 -1.4455
 6448SOL    HW325559   4.845   3.757   2.645 -1.9846  0.0631 -1.6205
 6448SOL    MW425560   4.814   3.680   2.669 -0.5819 -0.1084 -0.2832
 6449SOL     OW25561   4.163   5.993   0.520  0.0923  0.0505 -0.3903
 6449SOL    HW225562   4.238   6.038   0.481 -0.3166  1.4677  0.3848
 6449SOL    HW325563   4.147   6.040   0.602 -1.4839 -0.4028 -0.4121
 6449SOL    MW425564   4.171   6.005   0.526 -0.1696  0.1777 -0.2909
 6450SOL     OW25565   0.266   1.395   0.543  0.7894 -1.2779  0.1491
 6450SOL    HW225566   0.215   1.396   0.462 -1.4523  0.5044  1.4474
 6450SOL    HW325567   0.245   1.311   0.584 -1.2269 -0.6014  0.6393
 6450SOL    MW425568   0.256   1.384   0.538  0.2276 -0.9535  0.3850
 6451SOL     OW25569   3.177   3.158   0.554  0.4209 -0.0906 -0.2332
 6451SOL    HW225570   3.129   3.179   0.634 -0.5611 -0.5125 -0.6933
 6451SOL    HW325571   3.254   3.214   0.556  0.1419  0.2687  0.7564
 6451SOL    MW425572   3.181   3.168   0.565  0.2546 -0.0988 -0.1633
 6452SOL     OW25573   2.377   4.290   2.985  0.1346  0.3497  0.0011
 6452SOL    HW225574   2.347   4.200   2.995  1.5142 -0.3739 -1.7829
 6452SOL    HW325575   2.444   4.302   3.052  0.9505 -0.4476 -0.6558
 6452SOL    MW425576   2.382   4.280   2.995  0.4243  0.1491 -0.3210
 6453SOL     OW25577   6.320   5.967   4.381 -0.2631 -0.4538 -0.4747
 6453SOL    HW225578   6.262   5.933   4.313  1.4184 -0.9550 -1.7453
 6453SOL    HW325579   6.294   5.920   4.461 -0.7440 -1.6415 -1.2996
 6453SOL    MW425580   6.309   5.956   4.383 -0.1047 -0.6766 -0.7512
 6454SOL     OW25581   6.399   1.548   6.097 -0.1147  0.0273 -0.1726
 6454SOL    HW225582   6.372   1.519   6.184 -1.3222  0.8777 -0.2345
 6454SOL    HW325583   6.466   1.484   6.070 -0.0886 -0.5430  1.1523
 6454SOL    MW425584   6.404   1.535   6.105 -0.2706  0.0642 -0.0060
 6455SOL     OW25585   3.826   0.711   4.859 -0.0033  0.1270  0.1169
 6455SOL    HW225586   3.749   0.768   4.855  0.1689  0.3398 -0.1191
 6455SOL    HW325587   3.899   0.768   4.837  0.6105  0.6628  3.1077
 6455SOL    MW425588   3.825   0.726   4.856  0.1004  0.2258  0.4803
 6456SOL     OW25589   0.374   4.478   3.924 -0.2168 -0.1694  0.0099
 6456SOL    HW225590   0.299   4.424   3.898 -0.8302  1.2145 -1.1915
 6456SOL    HW325591   0.370   4.477   4.020 -0.5460 -1.7537  0.0206
 6456SOL    MW425592   0.363   4.471   3.934 -0.3412 -0.1959 -0.1472
 6457SOL     OW25593   4.001   2.175   4.186 -0.2646  0.3607 -0.1896
 6457SOL    HW225594   3.907   2.180   4.172 -0.2185 -0.2969 -0.8137
 6457SOL    HW325595   4.028   2.095   4.140  0.4890  0.1549  0.5792
 6457SOL    MW425596   3.992   2.165   4.178 -0.1591  0.2468 -0.1705
 6458SOL     OW25597   1.875   3.987   4.288 -0.4033 -0.2561  0.1917
 6458SOL    HW225598   1.865   4.022   4.200  2.2311 -0.3380 -0.2347
 6458SOL    HW325599   1.963   4.013   4.314 -0.9832 -0.5276  2.6859
 6458SOL    MW425600   1.885   3.995   4.280 -0.1322 -0.3028  0.4645
 6459SOL     OW25601   2.747   1.724   4.455  0.0185  0.0088 -0.2112
 6459SOL    HW225602   2.661   1.685   4.471  1.1050 -2.7569 -0.5537
 6459SOL    HW325603   2.745   1.750   4.363 -0.3694 -0.3582 -0.3111
 6459SOL    MW425604   2.735   1.722   4.445  0.1107 -0.4045 -0.2695
 6460SOL     OW25605   4.616   4.649   2.651  0.3046  0.6416 -0.1463
 6460SOL    HW225606   4.708   4.657   2.674  0.6340 -0.1059 -1.1449
 6460SOL    HW325607   4.598   4.725   2.596 -0.5499  2.5788  2.5381
 6460SOL    MW425608   4.626   4.660   2.647  0.2353  0.7986  0.0761
 6461SOL     OW25609   2.972   5.159   1.032  0.3222  0.7939 -0.2652
 6461SOL    HW225610   2.888   5.127   0.998  0.1488  1.4269 -0.4421
 6461SOL    HW325611   3.032   5.086   1.019 -0.3879  0.0276  0.6316
 6461SOL    MW425612   2.969   5.145   1.026  0.2057  0.7763 -0.1702
 6462SOL     OW25613   5.771   0.294   0.528 -0.1749 -0.6187  0.2682
 6462SOL    HW225614   5.725   0.255   0.602 -1.3063 -0.6595 -0.4365
 6462SOL    HW325615   5.759   0.232   0.456  1.4655 -0.8985  0.1933
 6462SOL    MW425616   5.764   0.281   0.528 -0.1078 -0.6610  0.1654
 6463SOL     OW25617   3.984   3.985   5.242  0.0176 -0.2265  0.3096
 6463SOL    HW225618   3.961   3.917   5.179  0.6290  1.2478 -1.5952
 6463SOL    HW325619   4.078   3.976   5.254  0.1050  0.2795  0.0327
 6463SOL    MW425620   3.993   3.975   5.235  0.1098  0.0348  0.0218
 6464SOL     OW25621   1.441   3.186   0.106 -0.0442 -0.2485  0.3375
 6464SOL    HW225622   1.359   3.166   0.061 -1.5129  2.9884  1.3235
 6464SOL    HW325623   1.426   3.159   0.196  0.6746 -1.2348  0.1798
 6464SOL    MW425624   1.428   3.179   0.112 -0.1432  0.0485  0.4468
 6465SOL     OW25625   2.302   5.140   4.947  0.1923  0.1796 -0.2522
 6465SOL    HW225626   2.394   5.128   4.974  0.4525 -1.1625 -1.5556
 6465SOL    HW325627   2.254   5.077   5.002 -0.1723  1.7513  1.3154
 6465SOL    MW425628   2.308   5.130   4.958  0.1785  0.2099 -0.2173
 6466SOL     OW25629   4.101   5.229   3.763  0.3782  0.8552  0.2292
 6466SOL    HW225630   4.169   5.280   3.805  0.3317 -0.6484  2.2780
 6466SOL    HW325631   4.051   5.190   3.835 -1.0074 -0.2127 -1.2127
 6466SOL    MW425632   4.103   5.230   3.778  0.1892  0.5159  0.3093
 6467SOL     OW25633   1.058   5.532   5.368  0.0094  0.3316  0.4440
 6467SOL    HW225634   1.089   5.459   5.315  0.7845  0.5306  0.6033
 6467SOL    HW325635   0.964   5.536   5.352  0.2034  0.2964 -0.8058
 6467SOL    MW425636   1.050   5.523   5.359  0.1372  0.3532  0.3001
 6468SOL     OW25637   3.250   1.109   4.817 -0.2071 -0.0381 -0.1018
 6468SOL    HW225638   3.276   1.187   4.865 -0.1700 -0.1713  0.0933
 6468SOL    HW325639   3.164   1.086   4.852 -1.0469  0.9559 -1.4057
 6468SOL    MW425640   3.242   1.116   4.828 -0.3130  0.0754 -0.2481
 6469SOL     OW25641   4.687   4.681   4.400 -0.6085 -0.4905 -0.4022
 6469SOL    HW225642   4.744   4.632   4.460 -1.5210 -1.4148 -0.2498
 6469SOL    HW325643   4.739   4.756   4.374 -0.9383  1.3067  3.3759
 6469SOL    MW425644   4.701   4.684   4.405 -0.7724 -0.3753  0.1164
 6470SOL     OW25645   4.875   5.659   0.483  0.4671  0.3804 -0.0687
 6470SOL    HW225646   4.819   5.591   0.447 -1.1701 -0.3317  3.4978
 6470SOL    HW325647   4.854   5.737   0.431  1.9579 -1.4608 -3.8426
 6470SOL    MW425648   4.865   5.660   0.471  0.4478  0.0436 -0.0961
 6471SOL     OW25649   2.571   1.375   0.426 -0.3252  0.2163  0.1561
 6471SOL    HW225650   2.581   1.366   0.332  1.9313  0.6009  0.3143
 6471SOL    HW325651   2.571   1.469   0.442 -1.0300  0.1624  0.5361
 6471SOL    MW425652   2.572   1.386   0.416 -0.1204  0.2599  0.2271
 6472SOL     OW25653   5.419   5.065   4.741 -0.1462  0.8166 -0.1021
 6472SOL    HW225654   5.475   4.988   4.734 -0.1043  0.8134  0.2716
 6472SOL    HW325655   5.410   5.096   4.651  1.6112  1.6390 -0.0343
 6472SOL    MW425656   5.426   5.059   4.728  0.0912  0.9247 -0.0439
 6473SOL     OW25657   0.421   3.328   6.176 -0.4265 -0.5394  0.1512
 6473SOL    HW225658   0.406   3.415   6.211  0.3191 -0.4764  0.3126
 6473SOL    HW325659   0.487   3.340   6.108 -0.4215 -0.9552  0.0774
 6473SOL    MW425660   0.428   3.341   6.171 -0.3275 -0.5860  0.1628
 6474SOL     OW25661   3.703   5.007   2.066 -0.2522  0.1821  0.4165
 6474SOL    HW225662   3.679   4.958   2.145  0.6605 -1.9729 -0.5936
 6474SOL    HW325663   3.667   4.956   1.994  0.4279  1.1901 -0.6706
 6474SOL    MW425664   3.695   4.994   2.067 -0.0420  0.0308  0.1398
 6475SOL     OW25665   4.704   1.750   0.015 -0.0897  0.1523  0.1827
 6475SOL    HW225666   4.669   1.700   0.088 -0.0387  1.1688  0.9339
 6475SOL    HW325667   4.764   1.691  -0.029 -1.0208 -0.8649  0.2449
 6475SOL    MW425668   4.707   1.736   0.019 -0.2058  0.1523  0.2900
 6476SOL     OW25669   2.929   0.482   5.615 -0.3889 -0.3679  0.4607
 6476SOL    HW225670   2.884   0.507   5.696  1.6557  2.7300  0.8203
 6476SOL    HW325671   2.915   0.556   5.556  0.1890 -1.4806 -1.1289
 6476SOL    MW425672   2.922   0.495   5.618 -0.0429 -0.1060  0.2984
 6477SOL     OW25673   2.415   3.470   2.363  0.5541  0.2562 -0.0196
 6477SOL    HW225674   2.428   3.376   2.378  0.6477  0.3429  0.4716
 6477SOL    HW325675   2.502   3.508   2.370  0.7999  0.1483 -2.0789
 6477SOL    MW425676   2.428   3.463   2.366  0.5988  0.2534 -0.2265
 6478SOL     OW25677   2.746   0.019   5.700 -0.2341  0.3900  0.2754
 6478SOL    HW225678   2.661   0.004   5.742 -0.7740 -0.4953 -1.0781
 6478SOL    HW325679   2.807  -0.039   5.746 -1.0354 -1.3837 -0.7991
 6478SOL    MW425680   2.743   0.010   5.712 -0.4111  0.0392 -0.0449
 6479SOL     OW25681   2.573   5.881   4.938 -0.0645  0.5156 -0.5243
 6479SOL    HW225682   2.617   5.801   4.966 -0.2545  0.6294  0.1177
 6479SOL    HW325683   2.503   5.851   4.880  0.7938  0.3279 -1.4851
 6479SOL    MW425684   2.569   5.866   4.934  0.0237  0.5059 -0.5664
 6480SOL     OW25685   3.690   1.466   5.607  0.0173  0.1436 -0.6467
 6480SOL    HW225686   3.681   1.557   5.636  0.9599  0.5122 -1.4724
 6480SOL    HW325687   3.706   1.417   5.688  0.8206  0.9010 -0.3316
 6480SOL    MW425688   3.691   1.472   5.622  0.2476  0.2922 -0.7140
 6481SOL     OW25689   1.142   4.777   4.212 -0.6845 -0.1963 -0.3312
 6481SOL    HW225690   1.215   4.793   4.273 -1.5233  1.0746  0.3894
 6481SOL    HW325691   1.178   4.795   4.126 -0.6289  2.4897  0.1730
 6481SOL    MW425692   1.156   4.781   4.209 -0.7878  0.3258 -0.1696
 6482SOL     OW25693   5.286   2.345   0.861  0.2127  0.0942 -0.6316
 6482SOL    HW225694   5.373   2.371   0.891 -0.4704  2.4647 -0.4990
 6482SOL    HW325695   5.252   2.423   0.817 -1.3413 -1.2078 -1.8575
 6482SOL    MW425696   5.293   2.359   0.859 -0.0825  0.2351 -0.7759
 6483SOL     OW25697   2.069   3.817   2.291 -0.4388  0.1339  0.2373
 6483SOL    HW225698   2.042   3.733   2.328 -1.1463  0.7438  1.1244
 6483SOL    HW325699   2.021   3.883   2.341 -1.4006  1.0105 -1.7228
 6483SOL    MW425700   2.059   3.815   2.303 -0.6590  0.3300  0.0957
 6484SOL     OW25701   3.993   3.020   4.798  0.2142 -0.9418  0.5744
 6484SOL    HW225702   3.918   3.025   4.858  1.0263 -0.8049  1.6168
 6484SOL    HW325703   4.020   2.928   4.800 -0.9499 -1.3526 -1.1295
 6484SOL    MW425704   3.987   3.009   4.806  0.1678 -0.9779  0.4872
 6485SOL     OW25705   1.418   1.201   4.708  0.1401 -0.1099  0.2615
 6485SOL    HW225706   1.429   1.149   4.788  0.2343 -0.0604  0.2808
 6485SOL    HW325707   1.507   1.223   4.681  0.2355 -1.7679 -0.9558
 6485SOL    MW425708   1.431   1.197   4.715  0.1651 -0.3221  0.1034
 6486SOL     OW25709   0.611   1.943   5.322  0.5413 -0.1882  0.3347
 6486SOL    HW225710   0.704   1.921   5.311  0.7524  1.0880 -0.6719
 6486SOL    HW325711   0.611   2.014   5.387  0.5655  1.5917 -1.5005
 6486SOL    MW425712   0.623   1.950   5.329  0.5723  0.2150 -0.0403
 6487SOL     OW25713   5.681   3.028   3.209 -0.0579 -0.3151  0.8969
 6487SOL    HW225714   5.613   3.085   3.247 -1.9267 -0.6500 -1.6854
 6487SOL    HW325715   5.661   2.941   3.244 -1.6268 -0.5847 -0.5648
 6487SOL    MW425716   5.669   3.024   3.219 -0.5114 -0.3948  0.3634
 6488SOL     OW25717   2.628   2.962   3.516  0.2642  0.2096  0.0380
 6488SOL    HW225718   2.645   2.925   3.430 -0.2768 -0.7739  0.3364
 6488SOL    HW325719   2.689   2.917   3.574  0.1029  0.3055  0.2861
 6488SOL    MW425720   2.638   2.951   3.513  0.1715  0.0925  0.1101
 6489SOL     OW25721   5.801   0.156   5.478 -0.4818 -0.1498  1.0377
 6489SOL    HW225722   5.775   0.083   5.533  0.2865 -1.4280 -0.2466
 6489SOL    HW325723   5.828   0.116   5.395  0.9799  1.4885  0.6687
 6489SOL    MW425724   5.801   0.141   5.474 -0.1876 -0.1023  0.8196
 6490SOL     OW25725   1.062   3.352   3.225  0.2329  0.0908  0.2677
 6490SOL    HW225726   1.020   3.266   3.219  0.6641 -0.1393  0.4260
 6490SOL    HW325727   0.995   3.409   3.262 -0.6156  0.2361 -1.4039
 6490SOL    MW425728   1.048   3.348   3.229  0.1779  0.0796  0.0680
 6491SOL     OW25729   2.871   4.485   1.670 -1.2243  0.3592  0.1042
 6491SOL    HW225730   2.806   4.465   1.737 -0.7233 -0.1030  0.4694
 6491SOL    HW325731   2.949   4.436   1.698 -0.6388  1.1160 -0.1781
 6491SOL    MW425732   2.873   4.476   1.683 -1.0810  0.3980  0.1151
 6492SOL     OW25733   4.137   5.125   4.966 -0.5404 -0.0956  0.1986
 6492SOL    HW225734   4.184   5.183   5.025 -1.7884  1.1397  0.0421
 6492SOL    HW325735   4.074   5.079   5.022 -1.3689  0.6958 -0.0477
 6492SOL    MW425736   4.135   5.127   4.981 -0.8144  0.1718  0.1454
 6493SOL     OW25737   3.335   4.139   5.195 -0.3046 -0.1916 -0.5945
 6493SOL    HW225738   3.423   4.106   5.213 -0.5145 -0.6849 -0.4719
 6493SOL    HW325739   3.348   4.205   5.127  0.3524  0.8911  0.5386
 6493SOL    MW425740   3.348   4.143   5.188 -0.2456 -0.1138 -0.4288
 6494SOL     OW25741   3.898   5.456   5.392  0.3880  0.0724 -0.1312
 6494SOL    HW225742   3.813   5.487   5.361  0.8632  0.5144 -1.0338
 6494SOL    HW325743   3.938   5.533   5.433  0.6952  0.0906 -0.4631
 6494SOL    MW425744   3.892   5.470   5.393  0.4912  0.1331 -0.2941
 6495SOL     OW25745   2.421   2.254   2.457  0.2571 -0.0148  0.1208
 6495SOL    HW225746   2.407   2.163   2.482 -0.0865 -0.5230 -1.7669
 6495SOL    HW325747   2.460   2.295   2.534 -4.5222 -0.3415  3.1341
 6495SOL    MW425748   2.424   2.248   2.470 -0.4188 -0.1249  0.2693
 6496SOL     OW25749   5.508   4.127   3.340 -0.1185  0.3314  0.2048
 6496SOL    HW225750   5.584   4.110   3.395  0.1047 -0.8742 -0.4506
 6496SOL    HW325751   5.536   4.104   3.251 -1.0010  0.6314 -0.1674
 6496SOL    MW425752   5.522   4.122   3.335 -0.2055  0.2119  0.0692
 6497SOL     OW25753   1.529   3.504   5.830 -0.2624 -0.1957 -0.0324
 6497SOL    HW225754   1.438   3.477   5.825 -0.7373  1.3945 -0.4657
 6497SOL    HW325755   1.527   3.588   5.875  0.6373  1.3582 -2.7403
 6497SOL    MW425756   1.517   3.511   5.836 -0.2063  0.2191 -0.4468
 6498SOL     OW25757   0.567   4.233   2.348  0.2398 -0.3920 -0.0632
 6498SOL    HW225758   0.538   4.176   2.277 -0.1228  0.6863 -0.8188
 6498SOL    HW325759   0.496   4.297   2.357  0.4384 -0.3120  1.0538
 6498SOL    MW425760   0.554   4.234   2.339  0.2182 -0.2392 -0.0155
 6499SOL     OW25761   6.221   2.273   4.400  0.2324 -0.1016  0.2575
 6499SOL    HW225762   6.267   2.199   4.359  2.3500  1.3276 -0.1358
 6499SOL    HW325763   6.286   2.310   4.460  0.1216  2.8240 -1.2707
 6499SOL    MW425764   6.236   2.268   4.403  0.4972  0.4730  0.0040
 6500SOL     OW25765   1.757   2.156   4.334 -0.8069 -0.4918 -0.0679
 6500SOL    HW225766   1.711   2.149   4.251  0.0559  0.5480 -0.6491
 6500SOL    HW325767   1.741   2.071   4.377 -1.8330 -0.7825 -0.9682
 6500SOL    MW425768   1.749   2.144   4.329 -0.8284 -0.3929 -0.2634
 6501SOL     OW25769   4.785   1.919   1.745 -0.5861 -0.0340  0.0803
 6501SOL    HW225770   4.775   1.917   1.840 -1.9663  1.3925  0.0203
 6501SOL    HW325771   4.712   1.973   1.715  0.5342  0.5682 -1.7013
 6501SOL    MW425772   4.774   1.926   1.753 -0.6204  0.2337 -0.1627
 6502SOL     OW25773   1.609   2.442   2.759  0.1279  0.4867  0.3428
 6502SOL    HW225774   1.644   2.354   2.773 -1.1075 -0.2390 -0.9675
 6502SOL    HW325775   1.535   2.430   2.700 -0.9455  2.2557  1.2653
 6502SOL    MW425776   1.604   2.429   2.753 -0.1767  0.6244  0.2916
 6503SOL     OW25777   4.805   4.923   4.338 -0.5609  0.0514  0.1119
 6503SOL    HW225778   4.740   4.945   4.271 -0.4191 -0.4723 -0.2127
 6503SOL    HW325779   4.785   4.979   4.412 -0.4765  0.9316 -0.5214
 6503SOL    MW425780   4.794   4.933   4.339 -0.5311  0.0984 -0.0145
 6504SOL     OW25781   2.179   3.957   0.636 -0.2214  0.5576 -0.5196
 6504SOL    HW225782   2.170   3.886   0.699 -1.3413  1.7811  0.7653
 6504SOL    HW325783   2.151   3.919   0.553  1.1405 -1.0402 -0.3043
 6504SOL    MW425784   2.174   3.943   0.633 -0.1894  0.5082 -0.3217
 6505SOL     OW25785   0.135   3.382   3.093  0.2990 -0.2116  0.0822
 6505SOL    HW225786   0.103   3.395   3.183 -0.0665 -0.0829 -0.0631
 6505SOL    HW325787   0.105   3.294   3.070  1.1240 -0.5810  0.3840
 6505SOL    MW425788   0.127   3.372   3.102  0.3596 -0.2434  0.1028
 6506SOL     OW25789   4.037   3.392   5.359 -0.2388 -0.3489  0.6711
 6506SOL    HW225790   3.960   3.409   5.413 -0.2401 -0.7929  0.8153
 6506SOL    HW325791   4.079   3.477   5.349 -0.1300 -0.2892  1.5433
 6506SOL    MW425792   4.032   3.405   5.365 -0.2246 -0.3996  0.8052
 6507SOL     OW25793   5.076   4.920   6.153 -0.0068 -0.3210 -0.5912
 6507SOL    HW225794   5.089   4.980   6.080  1.7763 -0.5717 -0.5377
 6507SOL    HW325795   5.063   4.977   6.229 -1.3501 -0.0585 -0.9950
 6507SOL    MW425796   5.076   4.935   6.154  0.0512 -0.3194 -0.6374
 6508SOL     OW25797   0.678   0.830   2.964 -0.5635  0.4185  0.0502
 6508SOL    HW225798   0.644   0.751   3.008  1.4850 -0.4139  0.2327
 6508SOL    HW325799   0.766   0.805   2.935 -0.5266  2.1084 -1.4264
 6508SOL    MW425800   0.685   0.816   2.966 -0.2884  0.5317 -0.1205
 6509SOL     OW25801   1.162   6.248   0.601  0.4618  0.4830  0.2665
 6509SOL    HW225802   1.234   6.262   0.663  0.9956  1.0682 -0.4739
 6509SOL    HW325803   1.200   6.266   0.515 -0.9375  2.2774 -0.0316
 6509SOL    MW425804   1.177   6.252   0.598  0.3476  0.7969  0.1295
 6510SOL     OW25805   0.509   2.842   1.038 -0.3127 -0.2381  0.6309
 6510SOL    HW225806   0.540   2.882   1.119  0.6755  1.7642 -0.6467
 6510SOL    HW325807   0.423   2.883   1.022 -0.4709 -0.5695  0.6141
 6510SOL    MW425808   0.501   2.853   1.046 -0.2032 -0.0177  0.4601
 6511SOL     OW25809   3.230   4.674   0.522 -0.0614  0.0126  0.2825
 6511SOL    HW225810   3.306   4.645   0.472 -1.2866 -1.6841 -0.7281
 6511SOL    HW325811   3.203   4.756   0.480  0.8674  0.3211  0.2818
 6511SOL    MW425812   3.236   4.681   0.510 -0.1005 -0.1706  0.1491
 6512SOL     OW25813   4.261   0.503   2.746  0.3041  0.5254  0.4145
 6512SOL    HW225814   4.257   0.429   2.686  1.2494  0.4519  0.4234
 6512SOL    HW325815   4.285   0.577   2.691 -0.4113  0.7760  0.4419
 6512SOL    MW425816   4.264   0.503   2.731  0.3344  0.5488  0.4193
 6513SOL     OW25817   1.188   4.547   5.742  0.1118 -0.4100  0.6275
 6513SOL    HW225818   1.118   4.527   5.804 -1.1295 -1.9145 -1.1421
 6513SOL    HW325819   1.240   4.467   5.737  0.4141 -0.1846  0.0050
 6513SOL    MW425820   1.186   4.534   5.749 -0.0121 -0.5788  0.3119
 6514SOL     OW25821   2.254   4.934   4.760  0.1308 -0.2487  0.6055
 6514SOL    HW225822   2.223   4.974   4.679 -0.7068 -0.1187  0.9849
 6514SOL    HW325823   2.252   5.005   4.825 -2.0211 -1.0115  1.4518
 6514SOL    MW425824   2.249   4.949   4.758 -0.2637 -0.3322  0.7672
 6515SOL     OW25825   5.206   4.270   4.656 -0.2092 -0.4859 -0.2789
 6515SOL    HW225826   5.169   4.183   4.668  2.2262 -1.5187  0.4340
 6515SOL    HW325827   5.299   4.259   4.674  0.2905  2.1560 -0.8007
 6515SOL    MW425828   5.213   4.257   4.660  0.1781 -0.2736 -0.2537
 6516SOL     OW25829   2.714   5.083   3.171  0.0282 -0.2898 -0.4437
 6516SOL    HW225830   2.703   5.141   3.096  2.6679  0.2911 -0.4982
 6516SOL    HW325831   2.710   5.142   3.247 -0.9750 -0.6222 -0.2299
 6516SOL    MW425832   2.712   5.098   3.171  0.2441 -0.2570 -0.4227
 6517SOL     OW25833   2.987   1.393   4.810  0.3847  0.4690  0.3913
 6517SOL    HW225834   3.047   1.428   4.876  1.7052  1.8618 -1.4242
 6517SOL    HW325835   2.953   1.471   4.766 -1.0095 -0.3956 -0.1091
 6517SOL    MW425836   2.991   1.408   4.813  0.3750  0.5387  0.0858
 6518SOL     OW25837   0.781   5.256   0.214 -0.3710 -0.6847  0.0034
 6518SOL    HW225838   0.798   5.194   0.142 -1.3690 -0.4223 -0.4788
 6518SOL    HW325839   0.732   5.327   0.173  0.1417  0.0944  0.7022
 6518SOL    MW425840   0.777   5.257   0.199 -0.4350 -0.5473  0.0319
 6519SOL     OW25841   6.307   5.309   2.177  0.2181 -0.1675  0.3294
 6519SOL    HW225842   6.217   5.290   2.204 -0.2364  0.1324 -0.9159
 6519SOL    HW325843   6.341   5.366   2.246 -0.9910  0.7953  0.1584
 6519SOL    MW425844   6.300   5.314   2.190 -0.0014 -0.0009  0.1425
 6520SOL     OW25845   1.541   6.126   6.014 -0.6506  0.5568 -0.1164
 6520SOL    HW225846   1.474   6.063   6.038  0.3020 -0.5573 -0.3009
 6520SOL    HW325847   1.571   6.099   5.928  0.7051  0.4349  0.3688
 6520SOL    MW425848   1.536   6.114   6.006 -0.3460  0.3937 -0.0767
 6521SOL     OW25849   2.787   0.958   2.230  0.0387 -0.3117  0.2368
 6521SOL    HW225850   2.830   0.993   2.152  0.0681  0.0003  0.3913
 6521SOL    HW325851   2.836   0.878   2.250  1.2275  0.5767  1.0131
 6521SOL    MW425852   2.799   0.952   2.222  0.1994 -0.1533  0.3596
 6522SOL     OW25853   4.635   6.164   0.786 -0.4794 -0.0599 -0.4968
 6522SOL    HW225854   4.547   6.130   0.767 -0.7295  1.5071 -2.4582
 6522SOL    HW325855   4.620   6.244   0.836 -0.2038  0.2592 -0.9129
 6522SOL    MW425856   4.621   6.170   0.790 -0.4760  0.1890 -0.8105
 6523SOL     OW25857   1.476   5.611   1.200 -0.9874 -0.7517 -0.0870
 6523SOL    HW225858   1.455   5.531   1.248 -0.6814 -0.6812  0.1737
 6523SOL    HW325859   1.559   5.591   1.156 -0.8975 -0.5703 -0.0005
 6523SOL    MW425860   1.484   5.598   1.201 -0.9352 -0.7185 -0.0412
 6524SOL     OW25861   5.817   0.822   2.855 -0.0945 -0.5277  0.2990
 6524SOL    HW225862   5.912   0.817   2.849 -0.1319  0.0955 -1.1802
 6524SOL    HW325863   5.799   0.910   2.888 -0.1744 -0.4233 -0.0211
 6524SOL    MW425864   5.827   0.833   2.858 -0.1100 -0.4317  0.0616
 6525SOL     OW25865   0.733   2.056   1.256 -0.2556 -0.4036  0.1956
 6525SOL    HW225866   0.798   2.115   1.220 -0.4222 -0.7382 -0.6837
 6525SOL    HW325867   0.658   2.112   1.276  0.1093 -0.0994  0.7314
 6525SOL    MW425868   0.731   2.071   1.254 -0.2294 -0.4076  0.1503
 6526SOL     OW25869   1.051   4.973   0.236 -0.3280 -0.3540  0.0007
 6526SOL    HW225870   1.032   5.007   0.149 -0.6601 -2.1550 -0.6678
 6526SOL    HW325871   1.128   5.023   0.265 -2.0743  2.4760  0.0526
 6526SOL    MW425872   1.059   4.984   0.229 -0.6022 -0.2182 -0.0806
 6527SOL     OW25873   3.626   0.996   3.757 -0.1495 -0.4322  0.7694
 6527SOL    HW225874   3.622   0.966   3.666 -2.0924 -0.0936  0.7014
 6527SOL    HW325875   3.684   0.934   3.801  1.5655 -0.0915 -0.8614
 6527SOL    MW425876   3.633   0.984   3.751 -0.1795 -0.3426  0.5453
 6528SOL     OW25877   1.745   4.140   3.335  0.1885  0.1223 -0.4050
 6528SOL    HW225878   1.741   4.232   3.309  1.2568  0.3873  0.3150
 6528SOL    HW325879   1.656   4.107   3.318 -0.2817  1.3403 -0.4375
 6528SOL    MW425880   1.732   4.148   3.329  0.2674  0.3179 -0.3143
 6529SOL     OW25881   5.484   4.013   0.886 -0.4389  0.1712 -0.2643
 6529SOL    HW225882   5.524   3.969   0.810 -1.3360 -1.9118  0.3838
 6529SOL    HW325883   5.392   4.021   0.864 -0.7717 -0.7599  0.7086
 6529SOL    MW425884   5.477   4.008   0.873 -0.6012 -0.2265 -0.0504
 6530SOL     OW25885   0.866   0.510   2.616 -0.0693 -0.1544 -0.0795
 6530SOL    HW225886   0.850   0.459   2.695 -3.7684  1.0733  0.1428
 6530SOL    HW325887   0.811   0.588   2.626  0.5719  0.8515 -3.1468
 6530SOL    MW425888   0.857   0.514   2.628 -0.4728  0.1403 -0.4548
 6531SOL     OW25889   2.565   6.221   4.351 -0.2470 -0.1664 -0.4822
 6531SOL    HW225890   2.509   6.185   4.282 -1.4147  1.2516 -0.3501
 6531SOL    HW325891   2.529   6.308   4.367  1.7758  0.6573 -0.0759
 6531SOL    MW425892   2.553   6.228   4.344 -0.1342  0.1294 -0.4112
 6532SOL     OW25893   3.700   3.109   6.077  0.5937  0.3325  0.5613
 6532SOL    HW225894   3.761   3.168   6.123  0.1773  1.0241  0.2468
 6532SOL    HW325895   3.757   3.043   6.038  0.9411 -0.4499  2.2927
 6532SOL    MW425896   3.716   3.108   6.078  0.5846  0.3205  0.7482
 6533SOL     OW25897   2.549   5.311   0.488 -0.4235  0.2893 -0.2504
 6533SOL    HW225898   2.639   5.287   0.466 -1.2939 -2.0595 -1.5906
 6533SOL    HW325899   2.527   5.254   0.562 -1.4674 -0.7471 -1.3222
 6533SOL    MW425900   2.558   5.301   0.495 -0.6761 -0.1573 -0.5686
 6534SOL     OW25901   1.554   2.475   5.162 -0.3910 -0.3639  0.1129
 6534SOL    HW225902   1.461   2.492   5.150 -0.7137 -2.3557 -0.6004
 6534SOL    HW325903   1.593   2.491   5.076 -0.2654 -0.5689  0.1297
 6534SOL    MW425904   1.547   2.479   5.150 -0.4170 -0.6537  0.0210
 6535SOL     OW25905   0.765   6.247   2.433  0.2346 -0.2595 -0.0463
 6535SOL    HW225906   0.726   6.284   2.512 -0.6927  2.9721 -1.8412
 6535SOL    HW325907   0.692   6.210   2.384  0.5589 -0.7824 -0.1478
 6535SOL    MW425908   0.751   6.247   2.437  0.1551  0.0979 -0.2965
 6536SOL     OW25909   2.447   2.107   3.468  0.1222 -0.3183  0.6416
 6536SOL    HW225910   2.449   2.023   3.422  0.7079  0.5216 -0.9495
 6536SOL    HW325911   2.510   2.162   3.421  0.5151  0.7175  2.2684
 6536SOL    MW425912   2.455   2.103   3.456  0.2513 -0.0708  0.6464
 6537SOL     OW25913   5.202   4.119   5.730 -0.3632  0.1988 -0.2265
 6537SOL    HW225914   5.118   4.098   5.771 -2.1582  1.1765 -3.0960
 6537SOL    HW325915   5.207   4.214   5.733  0.8961  0.1434  0.2421
 6537SOL    MW425916   5.192   4.129   5.736 -0.4339  0.3205 -0.5433
 6538SOL     OW25917   6.119   4.825   0.693  0.1435 -0.0819  0.3559
 6538SOL    HW225918   6.080   4.900   0.647 -0.8029 -0.2387  0.8770
 6538SOL    HW325919   6.052   4.757   0.688  0.7283 -0.6769  0.4768
 6538SOL    MW425920   6.105   4.826   0.686  0.0958 -0.1811  0.4406
 6539SOL     OW25921   2.176   2.665   1.801  0.6070 -0.0927  0.0398
 6539SOL    HW225922   2.216   2.594   1.851 -2.9662 -1.3667  1.4464
 6539SOL    HW325923   2.237   2.738   1.809  2.8632 -1.9987  1.3818
 6539SOL    MW425924   2.189   2.666   1.809  0.4332 -0.5123  0.4025
 6540SOL     OW25925   3.310   0.908   1.132  0.7809 -0.2282 -0.6893
 6540SOL    HW225926   3.368   0.832   1.143  2.8411  0.9674 -2.5220
 6540SOL    HW325927   3.357   0.966   1.073 -1.5649  1.6720 -0.8487
 6540SOL    MW425928   3.324   0.905   1.126  0.7433  0.1802 -0.9521
 6541SOL     OW25929   5.177   4.685   1.601  0.8284  0.3081  0.1545
 6541SOL    HW225930   5.120   4.654   1.672 -1.3479  1.8903 -0.8060
 6541SOL    HW325931   5.131   4.659   1.521  2.9675 -0.9427 -0.7479
 6541SOL    MW425932   5.163   4.677   1.600  0.8235  0.3518 -0.0913
 6542SOL     OW25933   2.930   3.201   5.606 -0.0885  0.3404 -0.6599
 6542SOL    HW225934   2.911   3.108   5.622  2.0667  0.2990  2.5976
 6542SOL    HW325935   2.901   3.216   5.516 -1.5054 -3.1963 -0.9558
 6542SOL    MW425936   2.924   3.191   5.596  0.0089 -0.1317 -0.2692
 6543SOL     OW25937   4.099   0.957   0.153 -0.4043  0.2293 -0.1187
 6543SOL    HW225938   4.059   0.870   0.160 -2.2096  1.1282  2.4318
 6543SOL    HW325939   4.127   0.977   0.243 -0.2084  2.3610 -0.6013
 6543SOL    MW425940   4.098   0.948   0.166 -0.6167  0.6291  0.1541
 6544SOL     OW25941   4.837   5.816   2.694 -0.5266  0.2434 -0.2176
 6544SOL    HW225942   4.845   5.721   2.708 -1.6421 -0.1403 -1.8861
 6544SOL    HW325943   4.838   5.853   2.782  0.9188 -1.2061  0.4461
 6544SOL    MW425944   4.838   5.808   2.708 -0.4831  0.0015 -0.3501
 6545SOL     OW25945   4.981   2.968   2.608 -0.8628 -0.3355 -0.5145
 6545SOL    HW225946   5.028   2.925   2.680  2.4237  2.1789 -0.9466
 6545SOL    HW325947   4.935   2.896   2.563  0.3524 -2.5813  1.5743
 6545SOL    MW425948   4.981   2.953   2.612 -0.2689 -0.3000 -0.2959
 6546SOL     OW25949   4.429   2.057   1.513 -0.2536  0.1087 -0.3896
 6546SOL    HW225950   4.415   2.043   1.419 -0.8197 -2.4701  0.0077
 6546SOL    HW325951   4.341   2.057   1.550 -0.1114  2.2664  0.0726
 6546SOL    MW425952   4.416   2.055   1.505 -0.3095  0.0531 -0.2762
 6547SOL     OW25953   1.399   0.746   5.107  0.0829 -0.0459  0.6812
 6547SOL    HW225954   1.433   0.708   5.026  0.6467 -0.1164  0.9456
 6547SOL    HW325955   1.477   0.765   5.159 -0.1313  2.1813  0.2679
 6547SOL    MW425956   1.414   0.743   5.103  0.1290  0.2387  0.6615
 6548SOL     OW25957   5.560   3.107   5.586 -0.2453  0.3749 -0.3746
 6548SOL    HW225958   5.479   3.083   5.541  0.8179  0.4633 -2.4546
 6548SOL    HW325959   5.548   3.199   5.610 -0.0492  0.9664 -2.4187
 6548SOL    MW425960   5.548   3.116   5.583 -0.0791  0.4646 -0.9187
 6549SOL     OW25961   4.691   1.076   2.017  0.6284 -0.0023  0.5331
 6549SOL    HW225962   4.646   1.004   2.062  1.6799 -1.6409 -0.9058
 6549SOL    HW325963   4.650   1.155   2.052 -2.1147 -1.3279  0.6490
 6549SOL    MW425964   4.679   1.077   2.027  0.4052 -0.3934  0.3586
 6550SOL     OW25965   3.391   5.115   5.630 -0.4165  0.0684 -0.2020
 6550SOL    HW225966   3.390   5.059   5.708 -0.6187 -0.4883 -0.5942
 6550SOL    HW325967   3.359   5.200   5.661  0.7742  0.2393  0.5899
 6550SOL    MW425968   3.386   5.119   5.645 -0.2861  0.0175 -0.1493
 6551SOL     OW25969   2.782   2.748   0.190 -0.3041 -0.1727  0.0973
 6551SOL    HW225970   2.845   2.813   0.160 -0.7351 -0.1743 -0.8426
 6551SOL    HW325971   2.794   2.746   0.285 -0.1772  1.1676  0.1389
 6551SOL    MW425972   2.792   2.756   0.199 -0.3442  0.0039 -0.0212
 6552SOL     OW25973   1.498   2.662   4.183 -0.5391 -0.1985 -0.0826
 6552SOL    HW225974   1.437   2.728   4.216 -0.7245 -0.1827 -0.4625
 6552SOL    HW325975   1.583   2.705   4.184 -0.3548 -0.5416  1.4268
 6552SOL    MW425976   1.501   2.676   4.188 -0.5392 -0.2416  0.0664
 6553SOL     OW25977   2.994   4.658   2.826  0.2812  0.1738 -0.2105
 6553SOL    HW225978   3.013   4.747   2.853  3.7545 -0.6389  0.5096
 6553SOL    HW325979   2.911   4.636   2.870  0.3914  2.3548  1.2221
 6553SOL    MW425980   2.985   4.667   2.835  0.7540  0.3543  0.0736
 6554SOL     OW25981   0.043   2.179   5.978 -0.0552 -0.0066  0.0461
 6554SOL    HW225982   0.129   2.218   5.992 -0.5893  1.2210 -0.0070
 6554SOL    HW325983  -0.018   2.236   6.026 -0.8056 -1.0690  0.4036
 6554SOL    MW425984   0.046   2.192   5.986 -0.2247  0.0152  0.0863
 6555SOL     OW25985   3.210   1.076   4.540  0.2685 -0.0505  0.1357
 6555SOL    HW225986   3.133   1.020   4.550  0.1469  0.3082  1.4460
 6555SOL    HW325987   3.240   1.090   4.630  0.3118  1.9512 -0.1588
 6555SOL    MW425988   3.204   1.070   4.553  0.2581  0.2609  0.2697
 6556SOL     OW25989   0.923   4.034   3.543  0.1270 -0.1544  0.6149
 6556SOL    HW225990   0.926   4.130   3.542 -0.0736 -0.0071  3.5982
 6556SOL    HW325991   0.829   4.014   3.540  0.1905 -0.3466 -0.8318
 6556SOL    MW425992   0.911   4.044   3.543  0.1089 -0.1604  0.8177
 6557SOL     OW25993   5.271   5.431   5.313  0.0083 -0.0895 -0.4490
 6557SOL    HW225994   5.220   5.418   5.392 -1.9467  0.6212 -1.5257
 6557SOL    HW325995   5.251   5.355   5.258  2.0960 -1.0824  0.0402
 6557SOL    MW425996   5.262   5.419   5.316  0.0258 -0.1267 -0.5266
 6558SOL     OW25997   2.707   0.095   2.004  0.1491  0.0800  0.4642
 6558SOL    HW225998   2.725   0.159   1.935 -0.3537  0.0279  0.2823
 6558SOL    HW325999   2.674   0.018   1.958 -0.3536  0.1069  0.7709
 6558SOL    MW426000   2.705   0.093   1.989  0.0164  0.0767  0.4806
 6559SOL     OW26001   5.340   2.768   5.364 -0.2561  0.1622 -0.1519
 6559SOL    HW226002   5.341   2.689   5.311  0.6347 -0.2408  0.4530
 6559SOL    HW326003   5.294   2.833   5.310 -1.4653 -0.8935 -0.4464
 6559SOL    MW426004   5.334   2.766   5.350 -0.2981 -0.0303 -0.1110
 6560SOL     OW26005   0.969   3.184   0.877 -0.8083 -0.5072 -0.0342
 6560SOL    HW226006   0.984   3.091   0.860 -2.0702 -0.6578 -0.4765
 6560SOL    HW326007   0.971   3.224   0.790  1.5321  0.2149  0.2850
 6560SOL    MW426008   0.971   3.177   0.863 -0.6660 -0.4318 -0.0504
 6561SOL     OW26009   1.567   5.659   0.824 -0.6398  0.1461  0.1784
 6561SOL    HW226010   1.479   5.696   0.831 -0.9398 -0.1976 -1.4911
 6561SOL    HW326011   1.623   5.733   0.800 -0.6251  0.1785  0.3086
 6561SOL    MW426012   1.563   5.674   0.822 -0.6774  0.1050 -0.0246
 6562SOL     OW26013   5.292   5.436   1.013 -0.2178 -0.3333 -0.1208
 6562SOL    HW226014   5.276   5.530   1.002 -1.0505 -0.4473  0.0622
 6562SOL    HW326015   5.213   5.395   0.979 -0.5905 -0.9020  1.3889
 6562SOL    MW426016   5.280   5.443   1.007 -0.3768 -0.4234  0.1026
 6563SOL     OW26017   5.502   5.991   5.311  0.1308  0.0707  0.5966
 6563SOL    HW226018   5.592   6.005   5.339  0.6519 -1.8768  0.1202
 6563SOL    HW326019   5.458   5.957   5.389 -0.0598  0.5297  0.6904
 6563SOL    MW426020   5.508   5.988   5.325  0.1744 -0.1257  0.5461
 6564SOL     OW26021   0.895   5.910   6.171 -0.0331 -0.1247  0.6685
 6564SOL    HW226022   0.821   5.970   6.166 -1.1304 -1.4139  0.7361
 6564SOL    HW326023   0.946   5.928   6.091 -1.1497 -0.1190 -0.0612
 6564SOL    MW426024   0.892   5.920   6.160 -0.3252 -0.2940  0.5811
 6565SOL     OW26025   2.110   1.397   3.812 -0.4492  0.1772  0.1296
 6565SOL    HW226026   2.062   1.382   3.894  0.6544  0.5743  0.8825
 6565SOL    HW326027   2.181   1.332   3.814  0.4821  1.1557  0.2455
 6565SOL    MW426028   2.113   1.386   3.823 -0.1807  0.3587  0.2443
 6566SOL     OW26029   1.047   4.174   1.349 -0.3944  0.1218  0.4795
 6566SOL    HW226030   1.077   4.129   1.270  0.8884  0.3547  0.8024
 6566SOL    HW326031   0.952   4.173   1.343 -0.3678 -1.4205 -0.1907
 6566SOL    MW426032   1.039   4.168   1.337 -0.2216 -0.0510  0.4337
 6567SOL     OW26033   4.406   5.215   1.153  0.1888 -0.0033  0.2794
 6567SOL    HW226034   4.387   5.122   1.158  0.2580 -0.0747 -0.5912
 6567SOL    HW326035   4.494   5.220   1.114 -0.2713  0.4289 -0.7594
 6567SOL    MW426036   4.415   5.204   1.148  0.1372  0.0443  0.0275
 6568SOL     OW26037   0.431   1.868   3.952  0.7634  0.4197  0.4663
 6568SOL    HW226038   0.411   1.899   4.041  1.5693  0.6820  0.5698
 6568SOL    HW326039   0.503   1.924   3.923 -0.1477  0.9929 -0.7518
 6568SOL    MW426040   0.438   1.879   3.960  0.7495  0.5299  0.3193
 6569SOL     OW26041   2.931   2.045   6.308  0.0681 -0.4965 -0.0400
 6569SOL    HW226042   2.929   2.040   6.213 -0.6163 -2.4929  0.0225
 6569SOL    HW326043   2.920   2.138   6.328  1.1145  0.0757 -1.8905
 6569SOL    MW426044   2.929   2.056   6.298  0.1159 -0.6844 -0.2759
 6570SOL     OW26045   5.396   5.006   5.154 -0.0637  0.2777 -0.0848
 6570SOL    HW226046   5.351   5.088   5.175 -0.0611  0.4384 -0.6859
 6570SOL    HW326047   5.378   4.949   5.229 -0.5966  0.6113  0.0470
 6570SOL    MW426048   5.388   5.009   5.167 -0.1337  0.3430 -0.1467
 6571SOL     OW26049   3.667   4.266   4.922 -0.2157  0.2886  0.2351
 6571SOL    HW226050   3.590   4.293   4.873 -1.9950 -0.9003  2.1953
 6571SOL    HW326051   3.674   4.172   4.906 -0.0453  0.1267  1.1744
 6571SOL    MW426052   3.658   4.257   4.913 -0.4280  0.1104  0.6176
 6572SOL     OW26053   0.161   3.611   4.133  0.5412  0.0409 -0.0596
 6572SOL    HW226054   0.167   3.579   4.043 -0.1208  0.7566 -0.3720
 6572SOL    HW326055   0.082   3.666   4.134  1.3355  1.2202  0.5847
 6572SOL    MW426056   0.151   3.614   4.121  0.5586  0.2909 -0.0158
 6573SOL     OW26057   4.317   1.110   6.255 -0.1081  0.5118 -0.5031
 6573SOL    HW226058   4.303   1.018   6.277  0.5102  0.3845 -0.6045
 6573SOL    HW326059   4.318   1.112   6.160 -0.9668  0.7654 -0.5093
 6573SOL    MW426060   4.315   1.098   6.246 -0.1398  0.5285 -0.5173
 6574SOL     OW26061   2.716   4.744   4.113 -0.3403  0.2912  0.0418
 6574SOL    HW226062   2.691   4.691   4.189 -0.0988  0.6043  0.3464
 6574SOL    HW326063   2.643   4.806   4.103  0.1733  1.0406  0.7753
 6574SOL    MW426064   2.703   4.745   4.122 -0.2407  0.4314  0.1788
 6575SOL     OW26065   1.153   3.952   4.669  0.5217  0.1629 -0.3306
 6575SOL    HW226066   1.154   3.882   4.735  1.4410  0.5304  0.0563
 6575SOL    HW326067   1.175   3.909   4.587 -0.2042 -0.2214 -0.3359
 6575SOL    MW426068   1.156   3.937   4.667  0.5472  0.1607 -0.2803
 6576SOL     OW26069   4.207   3.203   5.478  0.3451 -0.2003  0.8875
 6576SOL    HW226070   4.155   3.122   5.474  2.2392 -1.4155 -2.1467
 6576SOL    HW326071   4.159   3.265   5.423  0.9938 -0.6373 -0.1859
 6576SOL    MW426072   4.194   3.200   5.470  0.6806 -0.4183  0.3456
 6577SOL     OW26073   5.833   2.518   2.688  0.1657  0.4279 -0.4323
 6577SOL    HW226074   5.795   2.472   2.763  1.7376  1.7608  1.2820
 6577SOL    HW326075   5.800   2.607   2.694 -1.1397  0.1520 -2.4689
 6577SOL    MW426076   5.824   2.524   2.698  0.2009  0.5674 -0.4748
 6578SOL     OW26077   0.420   0.736   2.635  0.5492  0.0432  0.6376
 6578SOL    HW226078   0.387   0.691   2.713 -1.6318 -0.4326 -0.5075
 6578SOL    HW326079   0.394   0.827   2.647 -0.9163 -0.2574 -0.0743
 6578SOL    MW426080   0.412   0.742   2.647  0.0681 -0.0592  0.3926
 6579SOL     OW26081   3.364   1.981   6.338  0.4782 -0.0976 -0.1102
 6579SOL    HW226082   3.447   1.976   6.290  0.1901 -0.7626 -0.5460
 6579SOL    HW326083   3.324   2.063   6.308  0.9827  0.2439  0.1236
 6579SOL    MW426084   3.370   1.991   6.328  0.5067 -0.1403 -0.1368
 6580SOL     OW26085   2.877   3.731   6.165 -0.3039 -0.2114  0.3268
 6580SOL    HW226086   2.969   3.735   6.194 -0.1194 -1.4185 -0.0375
 6580SOL    HW326087   2.835   3.805   6.209  1.2806  1.6830 -1.1546
 6580SOL    MW426088   2.884   3.741   6.175 -0.0705 -0.1207  0.0833
 6581SOL     OW26089   1.444   0.218   1.065 -0.0709 -0.4464 -0.3123
 6581SOL    HW226090   1.408   0.225   0.976 -0.8319  0.0631  0.0201
 6581SOL    HW326091   1.486   0.302   1.080 -0.4741 -0.3023  0.0279
 6581SOL    MW426092   1.445   0.230   1.055 -0.2245 -0.3602 -0.2236
 6582SOL     OW26093   3.088   5.302   5.596  0.0012  0.1184 -0.0311
 6582SOL    HW226094   3.019   5.323   5.659  0.4662  1.7174  0.0072
 6582SOL    HW326095   3.169   5.320   5.643  0.5281 -2.5587  0.2074
 6582SOL    MW426096   3.089   5.307   5.610  0.1321 -0.0238  0.0054
 6583SOL     OW26097   1.055   4.004   2.993 -0.1927  0.0516 -0.0656
 6583SOL    HW226098   0.991   4.030   2.926 -0.2132  2.4913  0.7803
 6583SOL    HW326099   1.108   3.937   2.951 -1.3170  0.2394 -1.9060
 6583SOL    MW426100   1.053   3.999   2.978 -0.3438  0.3982 -0.1968
 6584SOL     OW26101   1.720   3.722   5.601 -0.4615  0.3326 -0.2807
 6584SOL    HW226102   1.690   3.677   5.522  0.6705  1.0352 -1.1581
 6584SOL    HW326103   1.785   3.785   5.569  2.3585 -1.4516  1.4707
 6584SOL    MW426104   1.725   3.724   5.586  0.0599  0.1899 -0.1654
 6585SOL     OW26105   3.133   0.286   5.529  0.2739 -0.0746 -0.3728
 6585SOL    HW226106   3.220   0.326   5.540  0.0624  0.0080  1.3281
 6585SOL    HW326107   3.072   0.358   5.539 -0.0280  0.3394 -4.0105
 6585SOL    MW426108   3.137   0.301   5.532  0.2061 -0.0091 -0.6283
 6586SOL     OW26109   2.000   2.771   0.397  0.3971  0.8747  0.0938
 6586SOL    HW226110   2.033   2.836   0.335  2.0311 -0.0315 -0.0518
 6586SOL    HW326111   1.968   2.700   0.341 -0.0181  0.9244  0.2682
 6586SOL    MW426112   2.001   2.770   0.382  0.5579  0.7617  0.0976
 6587SOL     OW26113   0.955   1.573   2.919  0.0712  0.5228 -0.2142
 6587SOL    HW226114   0.899   1.647   2.942 -0.2480 -0.0588  0.9514
 6587SOL    HW326115   0.910   1.529   2.848  0.7944  2.0406 -1.6914
 6587SOL    MW426116   0.942   1.577   2.913  0.1245  0.6463 -0.2553
 6588SOL     OW26117   6.000   1.616   6.045  0.5663 -0.1061  0.3817
 6588SOL    HW226118   6.049   1.698   6.047  0.2973  0.0812 -0.4907
 6588SOL    HW326119   5.951   1.616   6.127 -0.0071  0.9672  0.0571
 6588SOL    MW426120   6.000   1.627   6.056  0.4551  0.0602  0.2238
 6589SOL     OW26121   0.296   4.399   3.494  0.0496 -0.1481 -0.1765
 6589SOL    HW226122   0.291   4.422   3.401 -0.1554 -0.0375 -0.1390
 6589SOL    HW326123   0.389   4.386   3.510 -0.0788 -2.5759 -0.9964
 6589SOL    MW426124   0.308   4.400   3.484  0.0056 -0.4538 -0.2797
 6590SOL     OW26125   4.652   5.074   2.614  0.0264  0.3383 -0.2426
 6590SOL    HW226126   4.639   5.095   2.521 -0.0882 -2.6345 -1.0152
 6590SOL    HW326127   4.577   5.018   2.636  1.4915 -1.3405  0.7665
 6590SOL    MW426128   4.641   5.069   2.604  0.2046 -0.2754 -0.2114
 6591SOL     OW26129   2.954   2.562   3.599 -0.1125 -0.6728  0.3232
 6591SOL    HW226130   2.929   2.470   3.590 -0.1594 -0.7414  1.1002
 6591SOL    HW326131   2.921   2.588   3.685  0.6308 -0.1701  0.4691
 6591SOL    MW426132   2.946   2.553   3.609 -0.0206 -0.6155  0.4450
 6592SOL     OW26133   2.472   5.566   0.415  0.8726 -0.2688  0.6959
 6592SOL    HW226134   2.396   5.543   0.362 -0.8583  0.8029  2.5372
 6592SOL    HW326135   2.503   5.483   0.450 -1.1021 -0.5895  1.9085
 6592SOL    MW426136   2.466   5.552   0.413  0.3837 -0.1697  1.0988
 6593SOL     OW26137   2.384   0.694   0.709 -0.1617 -0.7093  0.1414
 6593SOL    HW226138   2.349   0.640   0.638 -1.3215  0.3049 -0.0879
 6593SOL    HW326139   2.435   0.762   0.665  0.6864 -1.1706  0.3915
 6593SOL    MW426140   2.386   0.696   0.694 -0.2028 -0.6364  0.1442
 6594SOL     OW26141   4.086   3.510   3.175 -0.1498  0.0660 -0.2021
 6594SOL    HW226142   4.080   3.604   3.189  3.0641  0.2386  0.8657
 6594SOL    HW326143   4.123   3.502   3.087  1.8869 -0.0073  0.6021
 6594SOL    MW426144   4.090   3.521   3.165  0.5429  0.0791  0.0449
 6595SOL     OW26145   1.748   5.264   1.869  0.2492 -0.0004 -0.3238
 6595SOL    HW226146   1.695   5.341   1.852  0.0440 -0.0857 -0.0838
 6595SOL    HW326147   1.815   5.264   1.800 -0.7010 -0.4752 -1.2837
 6595SOL    MW426148   1.750   5.274   1.858  0.0967 -0.0743 -0.4188
 6596SOL     OW26149   2.691   2.288   1.686  0.2021 -0.2155 -0.3035
 6596SOL    HW226150   2.618   2.243   1.729 -0.0085  0.6849  0.3031
 6596SOL    HW326151   2.762   2.286   1.751 -0.0968  1.0923  0.0951
 6596SOL    MW426152   2.691   2.281   1.701  0.1349  0.0758 -0.1709
 6597SOL     OW26153   2.786   0.225   6.135 -0.1715  0.2923  0.4345
 6597SOL    HW226154   2.719   0.237   6.068 -0.3231 -0.4274  0.4439
 6597SOL    HW326155   2.778   0.301   6.192 -1.1135  0.1227  0.5441
 6597SOL    MW426156   2.776   0.237   6.134 -0.3158  0.1750  0.4502
 6598SOL     OW26157   5.571   2.495   5.611 -0.5448  0.2940 -0.7133
 6598SOL    HW226158   5.486   2.454   5.630 -0.5534  1.0215  0.9802
 6598SOL    HW326159   5.566   2.581   5.653  1.5630 -0.2058  0.6914
 6598SOL    MW426160   5.559   2.501   5.619 -0.2678  0.3241 -0.3045
 6599SOL     OW26161   6.106   3.844   4.628  0.1345  0.0893  0.2374
 6599SOL    HW226162   6.141   3.842   4.539  0.0783 -0.3223  0.2197
 6599SOL    HW326163   6.120   3.934   4.658  0.0059  0.2742 -0.2438
 6599SOL    MW426164   6.113   3.855   4.620  0.1101  0.0594  0.1716
 6600SOL     OW26165   2.224   4.618   4.515  0.2109 -0.7854  0.5217
 6600SOL    HW226166   2.203   4.607   4.423  1.4704 -1.9872  0.3461
 6600SOL    HW326167   2.147   4.662   4.552 -0.2886 -0.2473 -1.0847
 6600SOL    MW426168   2.211   4.622   4.508  0.3112 -0.8730  0.2866
 6601SOL     OW26169   3.309   4.262   1.385  0.4643  0.5371 -0.7387
 6601SOL    HW226170   3.369   4.223   1.449  0.8823  2.0114 -0.1890
 6601SOL    HW326171   3.224   4.262   1.428  0.8545  2.0781  0.1242
 6601SOL    MW426172   3.306   4.257   1.399  0.5709  0.9349 -0.5523
 6602SOL     OW26173   2.332   4.337   2.723 -0.2465  0.3610 -0.5131
 6602SOL    HW226174   2.409   4.392   2.709 -0.4769  0.7288 -0.3636
 6602SOL    HW326175   2.326   4.327   2.818  0.3751 -0.7722 -0.5772
 6602SOL    MW426176   2.341   4.343   2.734 -0.1949  0.2600 -0.5018
 6603SOL     OW26177   1.830   2.778   1.128 -0.2576 -0.2915 -0.3086
 6603SOL    HW226178   1.740   2.769   1.096 -0.4791 -0.6632  0.3943
 6603SOL    HW326179   1.821   2.821   1.213  0.3154  0.5890 -0.6737
 6603SOL    MW426180   1.817   2.782   1.135 -0.2112 -0.2243 -0.2640
 6604SOL     OW26181   2.633   0.780   5.729  0.4537 -0.7629  0.6992
 6604SOL    HW226182   2.581   0.858   5.750 -0.8037 -0.1962 -3.5227
 6604SOL    HW326183   2.715   0.815   5.694  2.0166 -1.5897  3.2685
 6604SOL    MW426184   2.637   0.795   5.727  0.4940 -0.7972  0.4812
 6605SOL     OW26185   4.538   4.334   0.978  0.1580  0.2114  0.6029
 6605SOL    HW226186   4.625   4.315   0.942 -0.1776 -1.2258  0.5059
 6605SOL    HW326187   4.542   4.302   1.068 -0.9102 -1.9003 -0.0364
 6605SOL    MW426188   4.550   4.327   0.985 -0.0272 -0.2568  0.5058
 6606SOL     OW26189   1.254   2.850   0.388 -0.1917  0.3068  0.4768
 6606SOL    HW226190   1.261   2.762   0.423 -0.3119 -0.5387 -1.5081
 6606SOL    HW326191   1.201   2.841   0.310 -1.0734  2.3223  0.7618
 6606SOL    MW426192   1.248   2.837   0.383 -0.3239  0.4612  0.2525
 6607SOL     OW26193   2.900   3.157   6.326 -0.1013 -0.3163 -0.6287
 6607SOL    HW226194   2.930   3.102   6.398 -1.6488 -0.0969  0.2210
 6607SOL    HW326195   2.906   3.101   6.248 -0.6682 -1.3458  0.0489
 6607SOL    MW426196   2.905   3.142   6.325 -0.3803 -0.4232 -0.4272
 6608SOL     OW26197   6.293   4.879   2.681  0.0181 -0.5904 -0.2772
 6608SOL    HW226198   6.240   4.879   2.761  0.2743  2.5956  0.0103
 6608SOL    HW326199   6.377   4.844   2.709 -0.8133 -2.3999  0.0814
 6608SOL    MW426200   6.297   4.875   2.695 -0.0578 -0.4088 -0.1920
 6609SOL     OW26201   3.594   4.224   6.047  0.2800  0.4832  0.9701
 6609SOL    HW226202   3.671   4.167   6.050  0.0513 -0.0333 -1.1418
 6609SOL    HW326203   3.624   4.308   6.081  2.0278  0.5107 -0.5048
 6609SOL    MW426204   3.608   4.228   6.052  0.4804  0.4187  0.4969
 6610SOL     OW26205   0.451   2.998   1.516  0.5572 -0.2835 -0.5455
 6610SOL    HW226206   0.403   3.080   1.503  1.5259  0.2395 -0.9545
 6610SOL    HW326207   0.538   3.026   1.546  0.0897 -1.2643  1.9467
 6610SOL    MW426208   0.456   3.012   1.518  0.6233 -0.3439 -0.2706
 6611SOL     OW26209   1.441   2.085   2.187 -0.2116  0.3613  0.5774
 6611SOL    HW226210   1.512   2.052   2.132  0.3609  0.6270  1.1445
 6611SOL    HW326211   1.456   2.043   2.272 -0.2685  1.0275  0.9217
 6611SOL    MW426212   1.452   2.075   2.191 -0.1436  0.4842  0.6977
 6612SOL     OW26213   1.904   1.030   0.107 -0.7192 -0.1664 -0.1924
 6612SOL    HW226214   1.996   1.034   0.134 -0.6443 -0.9754 -0.2793
 6612SOL    HW326215   1.876   0.943   0.136 -1.6799  0.3714  0.5321
 6612SOL    MW426216   1.913   1.019   0.115 -0.8360 -0.2022 -0.1083
 6613SOL     OW26217   3.244   3.708   2.792  0.1133  0.1351 -0.4114
 6613SOL    HW226218   3.158   3.736   2.761  0.5515  0.1972 -1.5833
 6613SOL    HW326219   3.307   3.758   2.740  0.8706 -1.0067 -0.6241
 6613SOL    MW426220   3.241   3.718   2.781  0.2710 -0.0074 -0.5941
 6614SOL     OW26221   4.364   4.418   6.064  0.5759 -0.0264 -0.0548
 6614SOL    HW226222   4.294   4.355   6.046 -0.5551  0.9916  0.6020
 6614SOL    HW326223   4.431   4.367   6.108  1.1236 -1.4276 -2.3776
 6614SOL    MW426224   4.363   4.403   6.068  0.4989 -0.0770 -0.2746
 6615SOL     OW26225   0.826   3.873   4.802 -0.1451 -0.3249 -0.3681
 6615SOL    HW226226   0.895   3.928   4.839 -0.3614 -0.2355 -0.0964
 6615SOL    HW326227   0.855   3.854   4.713 -0.7769  1.4515 -0.9859
 6615SOL    MW426228   0.839   3.878   4.795 -0.2570 -0.0787 -0.4138
 6616SOL     OW26229   0.752   0.458   0.514 -0.2343  0.2194 -0.0207
 6616SOL    HW226230   0.809   0.437   0.439  0.0000 -2.2883  0.7844
 6616SOL    HW326231   0.794   0.534   0.555  1.9686 -0.8811 -0.0924
 6616SOL    MW426232   0.765   0.465   0.509  0.0872 -0.2566  0.0761
 6617SOL     OW26233   5.037   1.300   2.395  0.7263 -0.3961  0.1145
 6617SOL    HW226234   5.096   1.295   2.320 -0.3800 -0.5463 -0.7772
 6617SOL    HW326235   5.051   1.387   2.431  1.8247 -0.6006  0.2197
 6617SOL    MW426236   5.047   1.311   2.389  0.7252 -0.4429  0.0107
 6618SOL     OW26237   6.337   1.022   5.060 -0.4134  0.4760 -0.0400
 6618SOL    HW226238   6.256   1.000   5.106 -1.3892  0.6429 -1.6040
 6618SOL    HW326239   6.311   1.087   4.995  0.7855 -0.2303 -1.2661
 6618SOL    MW426240   6.323   1.028   5.058 -0.3839  0.4049 -0.4081
 6619SOL     OW26241   3.617   0.076   4.158  0.1167  0.7464  0.6390
 6619SOL    HW226242   3.580   0.003   4.107 -0.7248  0.7882  1.1677
 6619SOL    HW326243   3.596   0.054   4.249 -1.5418  2.3857  0.7136
 6619SOL    MW426244   3.609   0.063   4.163 -0.2131  0.9682  0.7186
 6620SOL     OW26245   0.178   2.818   1.848  0.2635  0.1133  0.3255
 6620SOL    HW226246   0.263   2.855   1.823  0.1473  0.8567  1.0066
 6620SOL    HW326247   0.132   2.806   1.764  1.0854 -0.4363 -0.0566
 6620SOL    MW426248   0.183   2.821   1.833  0.3566  0.1389  0.3649
 6621SOL     OW26249   3.926   3.821   2.492 -0.2211  0.0927 -0.5310
 6621SOL    HW226250   3.887   3.845   2.408 -0.4294 -0.3382 -0.5630
 6621SOL    HW326251   4.002   3.879   2.502  0.4094 -0.5356 -1.5004
 6621SOL    MW426252   3.931   3.832   2.483 -0.1654 -0.0470 -0.6631
 6622SOL     OW26253   3.539   1.459   4.844  0.6766 -0.6401  0.1237
 6622SOL    HW226254   3.519   1.548   4.871 -1.5995 -1.2010  0.4928
 6622SOL    HW326255   3.583   1.469   4.759 -1.4436  0.7990 -0.8886
 6622SOL    MW426256   3.542   1.472   4.836  0.0966 -0.5243  0.0389
 6623SOL     OW26257   6.308   2.069   1.647  0.1986 -0.2739 -0.2752
 6623SOL    HW226258   6.403   2.080   1.654  0.1160 -0.2204  1.0601
 6623SOL    HW326259   6.272   2.143   1.697 -0.6398  1.3668 -3.0733
 6623SOL    MW426260   6.316   2.080   1.655  0.0771 -0.0504 -0.4682
 6624SOL     OW26261   5.179   1.640   0.881  0.1903 -0.4108 -0.2802
 6624SOL    HW226262   5.186   1.685   0.797 -0.1799 -0.3809 -0.2954
 6624SOL    HW326263   5.096   1.593   0.877 -0.2570  0.2875  0.4038
 6624SOL    MW426264   5.169   1.640   0.870  0.0824 -0.3147 -0.1919
 6625SOL     OW26265   1.729   0.012   1.889  0.6721  0.6377  0.2992
 6625SOL    HW226266   1.669  -0.043   1.938 -2.1220  2.7057 -0.5268
 6625SOL    HW326267   1.763   0.074   1.954 -0.5551  1.3891  0.2535
 6625SOL    MW426268   1.725   0.013   1.904  0.1415  1.0097  0.1842
 6626SOL     OW26269   4.729   5.690   3.593  0.1821  0.1299 -0.3825
 6626SOL    HW226270   4.649   5.699   3.645 -0.6800 -0.6076 -1.5177
 6626SOL    HW326271   4.700   5.645   3.513  1.5843  0.5877 -1.1782
 6626SOL    MW426272   4.715   5.685   3.589  0.2533  0.0930 -0.6373
 6627SOL     OW26273   4.866   3.804   4.014  0.0104 -0.0788 -0.1646
 6627SOL    HW226274   4.959   3.820   4.029  0.1934 -1.6013  0.5818
 6627SOL    HW326275   4.844   3.733   4.075 -0.8734 -1.8866 -2.4049
 6627SOL    MW426276   4.875   3.797   4.024 -0.0820 -0.5182 -0.3617
 6628SOL     OW26277   4.001   4.534   3.282 -0.2864 -0.2190 -0.0582
 6628SOL    HW226278   3.990   4.516   3.376  0.7829 -0.8974 -0.0403
 6628SOL    HW326279   3.929   4.489   3.240 -0.3767 -0.5011  0.3926
 6628SOL    MW426280   3.990   4.526   3.289 -0.1573 -0.3458  0.0037
 6629SOL     OW26281   0.537   6.337   1.199  0.2817  0.4488 -0.6609
 6629SOL    HW226282   0.584   6.418   1.221  0.3429  0.1992  0.1539
 6629SOL    HW326283   0.593   6.294   1.135  0.1373  1.1620 -1.2869
 6629SOL    MW426284   0.551   6.342   1.193  0.2707  0.5100 -0.6360
 6630SOL     OW26285   1.905   4.690   3.109 -0.6126  0.3201  0.3243
 6630SOL    HW226286   1.950   4.775   3.115  1.0651 -0.5114  0.2016
 6630SOL    HW326287   1.913   4.665   3.017  0.8190 -0.9165  0.7389
 6630SOL    MW426288   1.912   4.698   3.098 -0.2023  0.0473  0.3628
 6631SOL     OW26289   1.969   0.363   4.361 -0.5771 -0.3789  0.3013
 6631SOL    HW226290   2.018   0.389   4.439  1.7130  0.3854 -1.2876
 6631SOL    HW326291   2.006   0.416   4.291 -4.1415  0.6999 -0.9951
 6631SOL    MW426292   1.980   0.374   4.362 -0.7452 -0.1357 -0.0794
 6632SOL     OW26293   3.114   3.865   1.574 -0.0750 -0.1398  0.2925
 6632SOL    HW226294   3.034   3.909   1.549  0.1860  0.7837  1.0364
 6632SOL    HW326295   3.122   3.880   1.668 -0.4436 -2.5332  0.7887
 6632SOL    MW426296   3.105   3.873   1.583 -0.0892 -0.3337  0.4561
 6633SOL     OW26297   1.198   2.409   3.596 -0.2116 -0.1750 -0.6086
 6633SOL    HW226298   1.142   2.344   3.638 -0.8730  1.5025  1.2494
 6633SOL    HW326299   1.155   2.427   3.513 -2.3588  0.8353  0.6371
 6633SOL    MW426300   1.185   2.403   3.591 -0.5822  0.1796 -0.1991
 6634SOL     OW26301   3.173   3.996   5.430 -0.4047  0.3868  0.1962
 6634SOL    HW226302   3.249   3.986   5.488  0.2129 -0.9229 -0.7803
 6634SOL    HW326303   3.120   3.919   5.447 -0.3833  0.1636 -0.7319
 6634SOL    MW426304   3.176   3.985   5.440 -0.3204  0.1845 -0.0551
 6635SOL     OW26305   1.791   0.076   0.146 -0.2766  0.1222  0.2608
 6635SOL    HW226306   1.729   0.135   0.102 -2.7486 -1.6598  1.1080
 6635SOL    HW326307   1.819   0.123   0.223 -1.3941  0.6331  0.3772
 6635SOL    MW426308   1.786   0.090   0.150 -0.7502 -0.0455  0.3879
 6636SOL     OW26309   0.588   5.505   5.538  0.1287  0.0463  0.5054
 6636SOL    HW226310   0.573   5.462   5.622 -0.5822 -0.9820 -0.1302
 6636SOL    HW326311   0.541   5.451   5.474  1.5496  0.1924 -0.7130
 6636SOL    MW426312   0.580   5.492   5.540  0.2224 -0.0701  0.2608
 6637SOL     OW26313   3.200   0.827   1.956  0.6533  0.4961 -0.3637
 6637SOL    HW226314   3.278   0.873   1.926  0.1023  1.4393 -0.4146
 6637SOL    HW326315   3.214   0.814   2.050  0.4049  1.6693 -0.1454
 6637SOL    MW426316   3.212   0.831   1.964  0.5478  0.7753 -0.3416
 6638SOL     OW26317   4.535   0.146   0.098 -0.1646  0.2848 -0.3664
 6638SOL    HW226318   4.500   0.157   0.009  2.0207 -0.8234 -1.4281
 6638SOL    HW326319   4.546   0.052   0.108  0.8801  0.4956  0.5771
 6638SOL    MW426320   4.532   0.135   0.087  0.2616  0.1664 -0.3820
 6639SOL     OW26321   3.728   1.350   5.880 -0.0668  0.5146  0.0873
 6639SOL    HW226322   3.814   1.361   5.921  1.0513 -0.7753 -1.7733
 6639SOL    HW326323   3.717   1.256   5.873 -1.3125  0.6815 -0.3980
 6639SOL    MW426324   3.738   1.339   5.885 -0.0836  0.3665 -0.2222
 6640SOL     OW26325   0.654   4.373   5.782 -0.3394 -0.4166 -0.2966
 6640SOL    HW226326   0.623   4.343   5.697  0.9208 -0.3583 -0.7969
 6640SOL    HW326327   0.747   4.351   5.783  0.4777  2.5627 -0.3107
 6640SOL    MW426328   0.662   4.366   5.771 -0.0653 -0.0159 -0.3645
 6641SOL     OW26329   2.197   0.404   0.904 -0.4424 -0.1441  0.0482
 6641SOL    HW226330   2.275   0.363   0.867  0.9961  1.8129  0.7048
 6641SOL    HW326331   2.187   0.485   0.855 -0.6390  0.7604  1.5014
 6641SOL    MW426332   2.206   0.409   0.893 -0.2786  0.2334  0.3265
 6642SOL     OW26333   5.756   3.983   0.319  0.0071  0.1784 -0.1764
 6642SOL    HW226334   5.791   4.012   0.403 -0.4194  2.5967 -0.7751
 6642SOL    HW326335   5.829   3.994   0.258  0.2682 -1.4267 -0.2034
 6642SOL    MW426336   5.770   3.988   0.322 -0.0147  0.2857 -0.2589
 6643SOL     OW26337   0.347   3.349   5.263 -0.0270 -0.5917  0.0908
 6643SOL    HW226338   0.289   3.273   5.269 -1.1589  0.1695 -0.7593
 6643SOL    HW326339   0.312   3.412   5.325 -2.5808  1.3764 -3.0285
 6643SOL    MW426340   0.335   3.347   5.272 -0.5133 -0.2316 -0.4329
 6644SOL     OW26341   2.532   0.864   2.302  0.2272 -0.3412  0.7940
 6644SOL    HW226342   2.610   0.895   2.257  0.4086 -0.6037  0.9260
 6644SOL    HW326343   2.467   0.933   2.288 -0.2208 -1.1063 -1.2179
 6644SOL    MW426344   2.533   0.877   2.294  0.1920 -0.4768  0.5460
 6645SOL     OW26345   4.101   0.406   0.774  0.1948 -0.4168 -0.0609
 6645SOL    HW226346   4.096   0.328   0.719  1.1792 -0.1760 -0.5113
 6645SOL    HW326347   4.121   0.477   0.713  0.1874  0.0421  0.4662
 6645SOL    MW426348   4.103   0.405   0.759  0.3237 -0.3245 -0.0508
 6646SOL     OW26349   0.721   0.486   2.188  0.0539 -0.1733 -0.3815
 6646SOL    HW226350   0.811   0.496   2.159 -0.1664 -1.2046 -1.5226
 6646SOL    HW326351   0.680   0.570   2.168  0.6815  0.1984 -0.1284
 6646SOL    MW426352   0.727   0.499   2.182  0.1076 -0.2603 -0.4986
 6647SOL     OW26353   5.472   0.328   5.277 -0.3460  0.1727 -0.3678
 6647SOL    HW226354   5.421   0.318   5.357 -0.5928  3.6691  0.0338
 6647SOL    HW326355   5.457   0.246   5.229 -2.8870 -0.6442  1.6189
 6647SOL    MW426356   5.464   0.316   5.281 -0.7138  0.5262 -0.0527
 6648SOL     OW26357   0.385   5.750   5.311  0.0328  0.5293 -0.3145
 6648SOL    HW226358   0.424   5.772   5.396 -1.4047  0.2275  0.4489
 6648SOL    HW326359   0.417   5.818   5.251  2.9479 -0.5170 -0.1342
 6648SOL    MW426360   0.395   5.762   5.314  0.2278  0.3514 -0.1900
 6649SOL     OW26361   3.627   5.090   0.208  0.0564 -0.2219 -0.2910
 6649SOL    HW226362   3.644   5.144   0.285  2.9875 -1.6002  0.1844
 6649SOL    HW326363   3.624   5.000   0.242 -2.0877 -0.6515 -1.3978
 6649SOL    MW426364   3.629   5.085   0.223  0.1602 -0.4604 -0.3743
 6650SOL     OW26365   2.144   5.193   2.225 -0.5271 -0.1840 -0.3281
 6650SOL    HW226366   2.051   5.184   2.243 -0.8656  0.4243 -1.6744
 6650SOL    HW326367   2.152   5.183   2.130  1.0711 -2.4825 -0.0394
 6650SOL    MW426368   2.133   5.191   2.215 -0.3609 -0.4070 -0.4676
 6651SOL     OW26369   5.432   1.343   2.551  0.2243  0.2472  0.5526
 6651SOL    HW226370   5.526   1.351   2.567  0.2393 -0.1271  0.6618
 6651SOL    HW326371   5.392   1.356   2.638  0.2942 -1.5865  0.9034
 6651SOL    MW426372   5.439   1.346   2.565  0.2355 -0.0441  0.6133
 6652SOL     OW26373   6.129   3.545   4.862  0.6044  0.2706 -0.3397
 6652SOL    HW226374   6.067   3.563   4.932  1.5504  2.3688  0.0734
 6652SOL    HW326375   6.158   3.455   4.876  0.0120  0.3263  1.3471
 6652SOL    MW426376   6.125   3.536   4.873  0.6510  0.5548 -0.0626
 6653SOL     OW26377   3.697   5.583   0.365  0.3687  0.7422  0.2959
 6653SOL    HW226378   3.674   5.655   0.306 -0.4004 -0.3801 -0.8128
 6653SOL    HW326379   3.792   5.589   0.375  0.6500  0.3857 -1.8483
 6653SOL    MW426380   3.706   5.593   0.359  0.3043  0.5471 -0.1332
 6654SOL     OW26381   2.379   1.363   6.382  0.2803  0.6153  0.0658
 6654SOL    HW226382   2.446   1.341   6.447 -0.5190 -1.7364  0.1696
 6654SOL    HW326383   2.302   1.384   6.434  0.1384  0.5170 -0.1049
 6654SOL    MW426384   2.378   1.363   6.398  0.1561  0.2920  0.0570
 6655SOL     OW26385   3.111   1.721   3.983 -0.3098 -0.3238  0.0683
 6655SOL    HW226386   3.130   1.749   3.894 -3.7926  0.3522 -0.6008
 6655SOL    HW326387   3.105   1.803   4.033 -0.8390 -0.5133  0.3280
 6655SOL    MW426388   3.112   1.735   3.978 -0.8391 -0.2596  0.0143
 6656SOL     OW26389   0.356   0.484   3.112  0.3792  0.0568 -0.2801
 6656SOL    HW226390   0.334   0.390   3.114  1.3787 -0.2390 -1.7916
 6656SOL    HW326391   0.341   0.510   3.022  0.7468  1.2075 -0.0204
 6656SOL    MW426392   0.351   0.475   3.101  0.5596  0.1696 -0.4453
 6657SOL     OW26393  -0.011   2.501   0.461  0.7860  0.4540 -0.1334
 6657SOL    HW226394  -0.012   2.565   0.390 -1.2965  0.1345 -0.4440
 6657SOL    HW326395  -0.034   2.552   0.539 -2.0207  0.0162 -0.5534
 6657SOL    MW426396  -0.014   2.516   0.462  0.1409  0.3541 -0.2298
 6658SOL     OW26397   5.132   0.760   3.861  0.1034 -0.2214  0.1460
 6658SOL    HW226398   5.053   0.807   3.887  0.3059  0.6096 -0.7068
 6658SOL    HW326399   5.116   0.670   3.889 -0.3225  0.3199  1.7483
 6658SOL    MW426400   5.119   0.754   3.868  0.0739 -0.0403  0.2449
 6659SOL     OW26401   5.077   0.482   3.288 -0.4335  0.1406  0.3272
 6659SOL    HW226402   5.039   0.559   3.246  1.4652 -0.3774 -2.6220
 6659SOL    HW326403   5.075   0.502   3.381 -1.1720  3.1980 -0.2344
 6659SOL    MW426404   5.072   0.495   3.294 -0.2805  0.4757 -0.1360
 6660SOL     OW26405   3.762   0.047   2.817 -0.5388  0.0329  0.3797
 6660SOL    HW226406   3.742   0.138   2.795 -0.5464  0.2030  1.0655
 6660SOL    HW326407   3.763   0.001   2.732 -0.6508  0.6439  0.0428
 6660SOL    MW426408   3.759   0.053   2.803 -0.5546  0.1359  0.4257
 6661SOL     OW26409   0.378   1.432   4.101 -0.1439 -0.3915 -0.4887
 6661SOL    HW226410   0.310   1.452   4.165  0.9688 -0.1488  0.6651
 6661SOL    HW326411   0.427   1.514   4.092 -0.0263 -0.5468 -1.3333
 6661SOL    MW426412   0.376   1.446   4.109  0.0184 -0.3800 -0.4479
 6662SOL     OW26413   4.300   3.179   3.915 -0.0704 -0.6387 -0.5592
 6662SOL    HW226414   4.236   3.249   3.931 -0.5564 -1.0580 -0.6477
 6662SOL    HW326415   4.373   3.224   3.872 -0.3538 -0.1716 -0.5687
 6662SOL    MW426416   4.301   3.194   3.912 -0.1719 -0.6324 -0.5721
 6663SOL     OW26417   2.799   2.121   3.599  1.1568 -0.1395  1.0295
 6663SOL    HW226418   2.712   2.102   3.631  1.6715  0.9450  3.2795
 6663SOL    HW326419   2.843   2.036   3.595 -0.1761 -0.8162 -0.9665
 6663SOL    MW426420   2.794   2.108   3.603  1.0488 -0.0857  1.0630
 6664SOL     OW26421   3.430   2.921   5.919  0.2448 -0.2285 -0.0533
 6664SOL    HW226422   3.466   2.842   5.960  0.4129 -0.4587 -0.6322
 6664SOL    HW326423   3.343   2.895   5.890 -0.1776  0.1548  0.8106
 6664SOL    MW426424   3.423   2.907   5.921  0.2113 -0.2083 -0.0157
 6665SOL     OW26425   3.842   0.651   5.631 -0.0499  0.2161 -0.0401
 6665SOL    HW226426   3.771   0.675   5.690 -0.4914  1.5434 -1.0434
 6665SOL    HW326427   3.798   0.632   5.548  0.6979  0.3248 -0.4736
 6665SOL    MW426428   3.827   0.652   5.628 -0.0095  0.4055 -0.2297
 6666SOL     OW26429   4.601   4.362   5.010 -0.4444 -0.4473  0.3478
 6666SOL    HW226430   4.511   4.384   4.986 -0.4670 -0.6943  0.2072
 6666SOL    HW326431   4.592   4.288   5.070 -0.3164 -0.7112  0.0433
 6666SOL    MW426432   4.588   4.355   5.015 -0.4305 -0.5147  0.2890
 6667SOL     OW26433   2.340   3.193   4.428  0.0904  0.4144  0.2051
 6667SOL    HW226434   2.413   3.199   4.366 -0.1622 -0.9590 -0.2620
 6667SOL    HW326435   2.292   3.276   4.417  0.3954  0.4450 -0.9948
 6667SOL    MW426436   2.343   3.205   4.418  0.0973  0.2372 -0.0148
 6668SOL     OW26437   0.719   5.271   2.028  0.0426  0.4745  0.7140
 6668SOL    HW226438   0.690   5.226   1.949 -2.6201  1.3596  1.0528
 6668SOL    HW326439   0.706   5.207   2.098 -0.8946  0.7755  0.8282
 6668SOL    MW426440   0.713   5.257   2.027 -0.4324  0.6310  0.7738
 6669SOL     OW26441   6.149   1.802   2.471 -0.3748  0.2172 -0.2925
 6669SOL    HW226442   6.199   1.740   2.524 -0.3040 -0.8101 -1.5126
 6669SOL    HW326443   6.057   1.778   2.486 -0.5026  1.4142  1.1096
 6669SOL    MW426444   6.143   1.791   2.480 -0.3823  0.2396 -0.2685
 6670SOL     OW26445   2.656   6.042   6.285 -0.2206 -0.1011 -0.3041
 6670SOL    HW226446   2.563   6.034   6.303  0.1293  0.8444  2.3740
 6670SOL    HW326447   2.692   5.955   6.303 -0.3645 -0.0372  0.3012
 6670SOL    MW426448   2.649   6.030   6.290 -0.1934  0.0321  0.1291
 6671SOL     OW26449   5.281   6.437   4.459 -0.3977 -0.1389  0.8283
 6671SOL    HW226450   5.191   6.408   4.440  0.1369 -0.6652 -1.2549
 6671SOL    HW326451   5.325   6.358   4.491 -0.0846 -0.5511 -0.5402
 6671SOL    MW426452   5.275   6.423   4.460 -0.2859 -0.2627  0.3729
 6672SOL     OW26453   6.203   2.926   0.514 -0.6358  0.2475  0.4302
 6672SOL    HW226454   6.195   2.831   0.516 -0.6337  0.1327 -2.0743
 6672SOL    HW326455   6.113   2.957   0.505 -0.4848  0.3552 -0.8190
 6672SOL    MW426456   6.190   2.918   0.513 -0.6156  0.2466 -0.0650
 6673SOL     OW26457   1.409   1.370   3.957  0.2474  0.2329 -0.7833
 6673SOL    HW226458   1.326   1.378   4.005 -1.1734 -0.0022 -3.0388
 6673SOL    HW326459   1.392   1.414   3.873  3.1832  2.2312 -0.4752
 6673SOL    MW426460   1.396   1.377   3.952  0.4473  0.4655 -1.0402
 6674SOL     OW26461   2.233   0.715   5.074  0.1040  0.3190  0.2533
 6674SOL    HW226462   2.204   0.774   5.004 -0.8005 -0.4554 -0.0396
 6674SOL    HW326463   2.327   0.730   5.080  0.4718 -0.6287 -2.1521
 6674SOL    MW426464   2.242   0.725   5.065  0.0332  0.0918 -0.1027
 6675SOL     OW26465   2.410   2.438   1.370  0.5295  0.4820 -0.0634
 6675SOL    HW226466   2.446   2.354   1.401  1.1597  0.5001 -0.7248
 6675SOL    HW326467   2.449   2.503   1.428  1.5881  0.4994 -0.7575
 6675SOL    MW426468   2.420   2.435   1.382  0.7523  0.4867 -0.2422
 6676SOL     OW26469   3.839   1.173   5.486 -0.3178  0.6898 -0.3997
 6676SOL    HW226470   3.844   1.123   5.404 -1.7241  0.1783 -0.2058
 6676SOL    HW326471   3.843   1.265   5.458 -2.0340  0.5729 -1.2224
 6676SOL    MW426472   3.840   1.179   5.471 -0.7298  0.6069 -0.4827
 6677SOL     OW26473   1.833   4.296   1.409  0.1811  0.1978 -0.6021
 6677SOL    HW226474   1.866   4.247   1.485  2.0673  1.8563 -0.2703
 6677SOL    HW326475   1.738   4.285   1.414  0.4443 -2.8465 -0.2180
 6677SOL    MW426476   1.825   4.288   1.420  0.4647  0.0150 -0.5076
 6678SOL     OW26477   1.356   1.638   0.939  0.9031 -0.2076 -0.8089
 6678SOL    HW226478   1.437   1.592   0.960 -0.7076 -3.0580 -0.3947
 6678SOL    HW326479   1.302   1.630   1.017 -0.1533  0.8589 -1.3862
 6678SOL    MW426480   1.360   1.631   0.952  0.5512 -0.4430 -0.8304
 6679SOL     OW26481   1.127   0.444   0.575  0.2325 -0.1420  0.3786
 6679SOL    HW226482   1.212   0.403   0.589 -0.5196 -1.6483  0.7776
 6679SOL    HW326483   1.102   0.478   0.662 -0.1491 -0.8830  0.5651
 6679SOL    MW426484   1.135   0.443   0.589  0.0829 -0.4385  0.4559
 6680SOL     OW26485   6.125   3.815   5.508 -0.0238 -0.5404  0.2329
 6680SOL    HW226486   6.171   3.896   5.532  0.0518 -1.3951  3.5800
 6680SOL    HW326487   6.194   3.757   5.475  0.2002  0.2039 -0.6300
 6680SOL    MW426488   6.140   3.818   5.507  0.0158 -0.5550  0.5606
 6681SOL     OW26489   3.695   5.620   6.177  0.4791  0.0364  0.2675
 6681SOL    HW226490   3.642   5.548   6.143  0.2825  0.3861 -0.1753
 6681SOL    HW326491   3.773   5.577   6.211 -0.0543 -0.4796  0.8754
 6681SOL    MW426492   3.698   5.605   6.177  0.3828  0.0144  0.2893
 6682SOL     OW26493   2.198   2.031   5.444 -0.9055  0.0320  0.5604
 6682SOL    HW226494   2.244   1.964   5.495  1.3022  0.0846 -1.1941
 6682SOL    HW326495   2.129   1.983   5.398  0.1299 -0.9335 -0.0435
 6682SOL    MW426496   2.195   2.016   5.445 -0.4776 -0.0884  0.2492
 6683SOL     OW26497   0.319   3.466   5.026  0.2647 -0.5788  0.2775
 6683SOL    HW226498   0.296   3.559   5.023  1.5110 -0.2711 -0.1926
 6683SOL    HW326499   0.337   3.449   5.119 -0.8281 -0.5966  0.5077
 6683SOL    MW426500   0.318   3.476   5.038  0.2850 -0.5406  0.2458
 6684SOL     OW26501   6.152   4.543   0.494 -0.3503  0.0735  0.4119
 6684SOL    HW226502   6.097   4.584   0.560  0.5188 -1.8317  2.4481
 6684SOL    HW326503   6.212   4.612   0.466  0.0271  0.6498  2.5061
 6684SOL    MW426504   6.152   4.557   0.499 -0.1858 -0.1018  0.9569
 6685SOL     OW26505   1.832   5.355   3.051 -0.1807  0.4537  0.3381
 6685SOL    HW226506   1.820   5.406   3.132  0.4972  1.0169  0.0909
 6685SOL    HW326507   1.800   5.267   3.074  0.3232  0.5089  1.3317
 6685SOL    MW426508   1.826   5.350   3.065 -0.0247  0.5353  0.4366
 6686SOL     OW26509   2.713   5.076   6.274  0.1928 -0.0475 -0.1909
 6686SOL    HW226510   2.693   5.153   6.221  0.3313 -0.5592 -0.9927
 6686SOL    HW326511   2.637   5.067   6.332  0.9621  1.7593  1.2234
 6686SOL    MW426512   2.700   5.085   6.275  0.3126  0.1234 -0.1101
 6687SOL     OW26513   0.130   4.814   5.082  0.0810 -0.4642  0.3074
 6687SOL    HW226514   0.073   4.809   5.158  2.1039  0.0186  1.9384
 6687SOL    HW326515   0.076   4.853   5.013 -1.6920 -0.5851  1.5762
 6687SOL    MW426516   0.116   4.818   5.083  0.1140 -0.4165  0.6900
 6688SOL     OW26517   2.284   2.473   4.408 -0.3439  0.3646 -0.1102
 6688SOL    HW226518   2.339   2.533   4.357 -0.6356  0.3303 -0.4704
 6688SOL    HW326519   2.202   2.469   4.359 -0.3330 -0.3186 -0.0864
 6688SOL    MW426520   2.281   2.480   4.395 -0.3810  0.2700 -0.1546
 6689SOL     OW26521   6.232   3.318   1.938  0.6177 -0.8538 -0.2297
 6689SOL    HW226522   6.276   3.260   2.000  0.6420 -2.2974 -1.5367
 6689SOL    HW326523   6.144   3.330   1.974  0.2049 -2.7192 -0.5093
 6689SOL    MW426524   6.226   3.312   1.951  0.5665 -1.2904 -0.4390
 6690SOL     OW26525   3.678   3.793   0.878 -0.2158 -0.3621 -0.5337
 6690SOL    HW226526   3.687   3.888   0.867 -2.3837 -0.0653 -0.1448
 6690SOL    HW326527   3.584   3.777   0.872  0.1497 -2.6030 -1.3350
 6690SOL    MW426528   3.667   3.804   0.876 -0.4536 -0.6186 -0.5881
 6691SOL     OW26529   4.904   4.038   3.214 -0.6958  0.1383 -0.1812
 6691SOL    HW226530   4.880   3.975   3.282 -0.2260  0.7088  0.5282
 6691SOL    HW326531   4.889   3.991   3.131  1.1031 -1.4627  0.3421
 6691SOL    MW426532   4.899   4.023   3.212 -0.3964  0.0023 -0.0185
 6692SOL     OW26533   5.562   1.445   1.782  0.5161  0.4239 -0.0164
 6692SOL    HW226534   5.566   1.349   1.782 -1.6297  0.2878  0.4813
 6692SOL    HW326535   5.545   1.468   1.690 -1.0223  0.1696  0.1828
 6692SOL    MW426536   5.560   1.435   1.770  0.0300  0.3724  0.0756
 6693SOL     OW26537   3.700   4.257   1.442  0.0776 -0.0053 -0.1237
 6693SOL    HW226538   3.623   4.285   1.491  1.2807 -1.2165  2.7543
 6693SOL    HW326539   3.762   4.330   1.450  0.0695  0.0306 -0.3783
 6693SOL    MW426540   3.698   4.270   1.450  0.2353 -0.1604  0.2224
 6694SOL     OW26541   5.367   0.995   2.805 -0.5247 -0.3574  0.2365
 6694SOL    HW226542   5.463   0.999   2.803 -0.5342  0.8009  1.2689
 6694SOL    HW326543   5.346   0.942   2.881 -0.7206 -0.8109 -0.1238
 6694SOL    MW426544   5.377   0.988   2.815 -0.5518 -0.2644  0.3252
 6695SOL     OW26545   0.590   0.617   3.151  0.2889 -0.1749  0.0361
 6695SOL    HW226546   0.540   0.692   3.184  0.1299 -0.0274 -0.5360
 6695SOL    HW326547   0.527   0.545   3.153  0.1487 -0.0684 -0.3447
 6695SOL    MW426548   0.575   0.617   3.156  0.2494 -0.1414 -0.0896
 6696SOL     OW26549   0.303   3.612   1.517 -0.0862  0.3968 -0.1917
 6696SOL    HW226550   0.212   3.595   1.542  0.1320 -1.0397 -0.2917
 6696SOL    HW326551   0.302   3.611   1.421 -0.0575  0.9822 -0.2029
 6696SOL    MW426552   0.291   3.610   1.507 -0.0536  0.2845 -0.2064
 6697SOL     OW26553   3.244   4.309   2.850 -0.0658 -0.5225  0.6355
 6697SOL    HW226554   3.198   4.375   2.798 -0.5231 -0.4742  1.0877
 6697SOL    HW326555   3.186   4.232   2.848  0.7221 -1.1066 -0.3469
 6697SOL    MW426556   3.230   4.307   2.843 -0.0222 -0.5932  0.5656
 6698SOL     OW26557   0.591   6.145   3.818  0.4651 -0.0065 -0.6652
 6698SOL    HW226558   0.509   6.115   3.858  1.3399 -0.0366  1.2468
 6698SOL    HW326559   0.606   6.085   3.745 -1.6396  0.5657 -1.6292
 6698SOL    MW426560   0.582   6.133   3.814  0.3028  0.0650 -0.5401
 6699SOL     OW26561   0.239   0.131   3.461 -0.4136 -0.4534  0.1036
 6699SOL    HW226562   0.259   0.055   3.517 -1.2754  0.9896  2.5058
 6699SOL    HW326563   0.323   0.154   3.422  0.6581 -0.5133  2.1999
 6699SOL    MW426564   0.253   0.124   3.463 -0.3859 -0.2709  0.6971
 6700SOL     OW26565   6.399   2.361   1.340 -0.1998 -0.0704 -0.7735
 6700SOL    HW226566   6.342   2.429   1.303 -1.0779 -0.4796 -0.2193
 6700SOL    HW326567   6.449   2.328   1.265  0.4384  1.3540 -1.0042
 6700SOL    MW426568   6.398   2.366   1.325 -0.2314  0.0635 -0.7308
 6701SOL     OW26569   4.569   5.784   4.681  0.2475  0.0823 -0.4544
 6701SOL    HW226570   4.537   5.874   4.680  0.1683  0.0546 -0.2651
 6701SOL    HW326571   4.603   5.770   4.769 -0.3116 -0.2759 -0.2916
 6701SOL    MW426572   4.570   5.794   4.692  0.1633  0.0314 -0.4079
 6702SOL     OW26573   2.505   4.900   4.059 -0.2946 -0.3924  0.1245
 6702SOL    HW226574   2.435   4.835   4.048 -0.9225  0.1966  0.5425
 6702SOL    HW326575   2.510   4.946   3.975 -1.7122  0.8147  0.6594
 6702SOL    MW426576   2.496   4.898   4.047 -0.5644 -0.1555  0.2502
 6703SOL     OW26577   3.722   2.766   4.854 -0.2288 -0.1693 -0.5267
 6703SOL    HW226578   3.730   2.817   4.774 -0.2811 -1.6954 -1.5661
 6703SOL    HW326579   3.771   2.814   4.920 -1.9897  2.2693 -0.8609
 6703SOL    MW426580   3.729   2.779   4.852 -0.4680 -0.0489 -0.7079
 6704SOL     OW26581   2.470   3.150   6.224  0.7722  0.9516 -0.0690
 6704SOL    HW226582   2.462   3.219   6.158 -0.0288  2.9978  2.0167
 6704SOL    HW326583   2.489   3.197   6.306 -1.6400 -1.0848  1.8320
 6704SOL    MW426584   2.471   3.165   6.226  0.3482  0.9529  0.4570
 6705SOL     OW26585   2.268   2.505   5.307  0.1451 -0.0507 -0.1990
 6705SOL    HW226586   2.294   2.413   5.298  1.2863  0.0810  1.3880
 6705SOL    HW326587   2.173   2.502   5.318  0.0994 -0.9882 -0.7192
 6705SOL    MW426588   2.259   2.492   5.307  0.2896 -0.1570 -0.0582
 6706SOL     OW26589   6.046   4.714   4.718 -0.0602 -0.3968 -0.9800
 6706SOL    HW226590   6.121   4.734   4.663  0.0979 -2.4236 -1.6079
 6706SOL    HW326591   6.024   4.623   4.696 -1.4409 -0.5104  0.6353
 6706SOL    MW426592   6.053   4.704   4.708 -0.2215 -0.6792 -0.8497
 6707SOL     OW26593   0.084   3.833   0.783 -0.0471 -0.0215 -0.2256
 6707SOL    HW226594   0.138   3.764   0.821 -1.0500 -0.4087  0.5667
 6707SOL    HW326595   0.146   3.894   0.744  0.9607 -0.3669  0.7895
 6707SOL    MW426596   0.099   3.832   0.783 -0.0465 -0.1182  0.0129
 6708SOL     OW26597   6.141   5.724   0.745 -0.2670  0.2724  0.0339
 6708SOL    HW226598   6.130   5.819   0.738  1.6069  0.5151 -0.1554
 6708SOL    HW326599   6.183   5.699   0.662 -1.7982 -0.9302 -0.4314
 6708SOL    MW426600   6.145   5.733   0.733 -0.2218  0.1457 -0.0525
 6709SOL     OW26601   2.430   4.023   4.834  0.2666 -0.5769  0.7789
 6709SOL    HW226602   2.508   4.043   4.782 -0.8495  0.2848 -0.6330
 6709SOL    HW326603   2.457   4.040   4.924  1.0447  2.1911  0.1320
 6709SOL    MW426604   2.444   4.028   4.839  0.2220 -0.0980  0.5073
 6710SOL     OW26605   1.707   3.123   3.964  0.4574  0.2697 -0.6982
 6710SOL    HW226606   1.693   3.166   4.049  1.7377 -1.4409  0.4240
 6710SOL    HW326607   1.619   3.116   3.927 -0.1313  1.0166  0.4811
 6710SOL    MW426608   1.693   3.128   3.970  0.5487  0.1425 -0.3945
 6711SOL     OW26609   1.148   3.373   2.424 -0.5412  0.2116  0.1377
 6711SOL    HW226610   1.089   3.403   2.493 -0.4532 -0.2822  0.4295
 6711SOL    HW326611   1.091   3.322   2.365 -0.1570 -1.4498  1.1625
 6711SOL    MW426612   1.132   3.370   2.425 -0.4789 -0.0728  0.3114
 6712SOL     OW26613   2.921   1.185   0.877 -0.6297 -0.1657 -0.4565
 6712SOL    HW226614   2.898   1.264   0.828 -1.1561 -0.0813 -0.0827
 6712SOL    HW326615   2.904   1.113   0.817  0.7400  0.0319 -1.1397
 6712SOL    MW426616   2.916   1.186   0.863 -0.5185 -0.1285 -0.4974
 6713SOL     OW26617   3.979   2.685   4.493 -0.1861  0.0807 -0.0620
 6713SOL    HW226618   3.900   2.738   4.500 -1.2090 -1.4691  0.8102
 6713SOL    HW326619   4.008   2.672   4.583 -0.0890 -0.9720 -0.2229
 6713SOL    MW426620   3.972   2.690   4.506 -0.3083 -0.2626  0.0318
 6714SOL     OW26621   2.948   6.389   2.702  0.1741  0.6209  1.1056
 6714SOL    HW226622   2.981   6.471   2.738 -0.1383  0.8513  0.8752
 6714SOL    HW326623   2.930   6.409   2.610  0.9839  0.0424  0.7981
 6714SOL    MW426624   2.950   6.402   2.694  0.2398  0.5750  1.0346
 6715SOL     OW26625   6.377   5.621   5.153  0.2593 -0.3326  0.5299
 6715SOL    HW226626   6.355   5.534   5.187  2.0320 -0.9179  0.2502
 6715SOL    HW326627   6.353   5.617   5.061  2.1990 -1.2686  0.0139
 6715SOL    MW426628   6.371   5.609   5.146  0.7491 -0.5333  0.4249
 6716SOL     OW26629   2.352   2.470   3.924  0.5232  0.4377  0.1182
 6716SOL    HW226630   2.398   2.440   4.002  0.5120  0.6264  0.1972
 6716SOL    HW326631   2.261   2.479   3.952  0.4222 -0.0010 -0.0561
 6716SOL    MW426632   2.346   2.467   3.938  0.5084  0.4047  0.1056
 6717SOL     OW26633   4.874   0.081   4.950  0.2153 -0.2982  0.4189
 6717SOL    HW226634   4.939   0.019   4.916 -0.3141 -0.2480 -0.7343
 6717SOL    HW326635   4.800   0.075   4.889 -0.1807  0.8839  0.7448
 6717SOL    MW426636   4.872   0.072   4.938  0.0932 -0.1356  0.3098
 6718SOL     OW26637   2.244   0.239   6.391  0.3520 -0.0058 -0.1865
 6718SOL    HW226638   2.264   0.212   6.302  0.5603 -0.2252 -0.0760
 6718SOL    HW326639   2.221   0.332   6.384 -0.4519 -0.2302 -0.5747
 6718SOL    MW426640   2.244   0.248   6.379  0.2734 -0.0643 -0.2231
 6719SOL     OW26641   4.773   6.262   2.765  0.2661 -0.3590  0.0223
 6719SOL    HW226642   4.749   6.230   2.678 -0.6909  0.4175 -0.0143
 6719SOL    HW326643   4.868   6.261   2.765  0.2793 -0.6625 -0.9291
 6719SOL    MW426644   4.782   6.258   2.753  0.1416 -0.2966 -0.1081
 6720SOL     OW26645   1.444   1.062   0.820 -0.0518  0.9640 -0.2990
 6720SOL    HW226646   1.520   1.120   0.823 -0.8415  2.0493 -0.4341
 6720SOL    HW326647   1.479   0.977   0.793  1.0949  1.4503 -0.4047
 6720SOL    MW426648   1.459   1.059   0.817 -0.0047  1.1714 -0.3308
 6721SOL     OW26649   1.206   3.496   1.901 -0.2023  0.5361 -0.0322
 6721SOL    HW226650   1.242   3.496   1.813  0.8310  2.5246  0.3436
 6721SOL    HW326651   1.261   3.557   1.950 -1.9892  1.0432  1.4629
 6721SOL    MW426652   1.218   3.504   1.896 -0.3018  0.8654  0.2147
 6722SOL     OW26653   2.778   3.609   6.411  0.7585  0.2337  0.2508
 6722SOL    HW226654   2.798   3.517   6.428  0.3885  0.1181  0.0706
 6722SOL    HW326655   2.821   3.628   6.327 -0.4680 -0.2142 -0.4952
 6722SOL    MW426656   2.787   3.599   6.402  0.5479  0.1593  0.1286
 6723SOL     OW26657   1.390   3.015   5.228  0.0688 -0.2710  0.0216
 6723SOL    HW226658   1.367   3.103   5.198  0.2269 -0.9430 -2.2673
 6723SOL    HW326659   1.393   3.022   5.323 -2.7859  1.5032  0.0984
 6723SOL    MW426660   1.387   3.028   5.237 -0.2870 -0.1256 -0.2702
 6724SOL     OW26661   6.022   3.512   0.925 -0.4988 -0.1657 -0.0352
 6724SOL    HW226662   6.054   3.600   0.946  0.2268 -0.4567  0.1343
 6724SOL    HW326663   6.077   3.454   0.978  1.4389 -0.9319 -2.6535
 6724SOL    MW426664   6.034   3.516   0.934 -0.1474 -0.3052 -0.3583
 6725SOL     OW26665   1.662   5.080   2.436  0.1735  0.1091 -0.5294
 6725SOL    HW226666   1.647   5.035   2.353 -0.1788  0.1575 -0.4923
 6725SOL    HW326667   1.600   5.039   2.497  1.1924 -0.7011 -0.0078
 6725SOL    MW426668   1.652   5.068   2.433  0.2615  0.0086 -0.4557
 6726SOL     OW26669   0.871   3.768   0.783 -0.1351  0.2280 -0.1243
 6726SOL    HW226670   0.827   3.845   0.747 -0.0045  0.2710 -0.1951
 6726SOL    HW326671   0.860   3.701   0.716  1.4366  0.7545 -0.9523
 6726SOL    MW426672   0.864   3.769   0.769  0.0895  0.3032 -0.2429
 6727SOL     OW26673   5.802   6.041   4.642 -0.3391 -0.6385  0.0509
 6727SOL    HW226674   5.753   6.122   4.630  0.0899 -0.4996 -0.8197
 6727SOL    HW326675   5.868   6.042   4.573  0.1781 -1.3546  0.5127
 6727SOL    MW426676   5.805   6.052   4.632 -0.2143 -0.7147 -0.0030
 6728SOL     OW26677   2.769   2.251   0.781 -0.1558 -0.4117  0.2602
 6728SOL    HW226678   2.791   2.344   0.785 -2.2197  0.1255  0.2542
 6728SOL    HW326679   2.831   2.214   0.718  1.2711  0.7615  0.9312
 6728SOL    MW426680   2.780   2.258   0.773 -0.2398 -0.1861  0.3479
 6729SOL     OW26681   0.130   1.851   2.968  0.7595  0.2061  0.2186
 6729SOL    HW226682   0.039   1.877   2.955 -0.0999 -2.0193  1.3641
 6729SOL    HW326683   0.176   1.933   2.984 -0.9923  1.3970 -0.5413
 6729SOL    MW426684   0.124   1.865   2.968  0.4150  0.0696  0.2695
 6730SOL     OW26685   0.947   1.096   5.417 -0.0326  0.1222 -0.2181
 6730SOL    HW226686   0.909   1.008   5.420  1.1254 -0.3797  0.4242
 6730SOL    HW326687   0.976   1.112   5.507  1.5711  0.3379 -0.7433
 6730SOL    MW426688   0.946   1.087   5.429  0.3318  0.0844 -0.2026
 6731SOL     OW26689   3.367   4.194   1.093 -0.2383  0.1974 -0.7032
 6731SOL    HW226690   3.285   4.173   1.138 -0.7991 -0.9708 -2.1541
 6731SOL    HW326691   3.349   4.276   1.048 -0.5943  0.0002 -0.9327
 6731SOL    MW426692   3.354   4.202   1.093 -0.3593  0.0172 -0.9249
 6732SOL     OW26693   2.706   6.066   3.315 -0.2057  0.3024  0.2617
 6732SOL    HW226694   2.730   6.083   3.223 -0.3046 -0.5457  0.0744
 6732SOL    HW326695   2.654   6.142   3.340  0.1680  0.7438 -0.2548
 6732SOL    MW426696   2.703   6.079   3.306 -0.1695  0.2488  0.1688
 6733SOL     OW26697   5.080   3.319   3.927  0.0236 -0.2967 -0.0482
 6733SOL    HW226698   5.174   3.332   3.939 -0.2696  2.9902 -0.3794
 6733SOL    HW326699   5.073   3.271   3.844  1.3880 -2.0571  0.7963
 6733SOL    MW426700   5.091   3.314   3.918  0.1649 -0.0953  0.0195
 6734SOL     OW26701   1.563   3.480   1.636  0.1735 -0.5191  0.1669
 6734SOL    HW226702   1.622   3.455   1.565 -1.3609 -3.3479 -0.2595
 6734SOL    HW326703   1.592   3.428   1.711 -1.2192 -1.3376  0.1686
 6734SOL    MW426704   1.575   3.470   1.636 -0.2127 -1.0003  0.1109
 6735SOL     OW26705   6.103   1.863   1.426  0.1448 -0.9940  0.0358
 6735SOL    HW226706   6.169   1.813   1.473  0.3012  0.1526  1.1028
 6735SOL    HW326707   6.150   1.941   1.395 -0.9530  0.7006  2.2470
 6735SOL    MW426708   6.118   1.867   1.428  0.0206 -0.6191  0.4683
 6736SOL     OW26709   1.068   1.672   6.359  0.3455  0.1108 -0.5158
 6736SOL    HW226710   1.050   1.614   6.432 -2.2171  0.7955 -0.5298
 6736SOL    HW326711   1.164   1.672   6.352  0.5836 -1.2142  1.7777
 6736SOL    MW426712   1.078   1.664   6.368  0.0388  0.0264 -0.2150
 6737SOL     OW26713   0.371   1.685   5.926  0.0784 -0.0009 -0.0620
 6737SOL    HW226714   0.311   1.667   5.854 -2.0497  1.1438  1.3280
 6737SOL    HW326715   0.380   1.780   5.927  1.3418 -0.0994  0.2619
 6737SOL    MW426716   0.365   1.695   5.917 -0.0357  0.1372  0.1641
 6738SOL     OW26717   3.725   0.606   3.981  0.2702 -0.1712 -0.1664
 6738SOL    HW226718   3.785   0.585   3.910  1.3063 -0.8833  0.8731
 6738SOL    HW326719   3.664   0.531   3.985  1.3810 -1.0674  0.8617
 6738SOL    MW426720   3.725   0.593   3.972  0.5534 -0.3834  0.1064
 6739SOL     OW26721   2.876   2.176   1.505  0.0973 -0.8338  0.1195
 6739SOL    HW226722   2.802   2.213   1.553  1.1025  0.6371  0.6342
 6739SOL    HW326723   2.853   2.186   1.413  0.6046  1.9275  0.1892
 6739SOL    MW426724   2.863   2.182   1.499  0.2968 -0.2754  0.1966
 6740SOL     OW26725   4.741   1.095   1.245 -0.2118  0.0684  0.5464
 6740SOL    HW226726   4.772   1.032   1.180 -1.7933 -1.7851  1.4605
 6740SOL    HW326727   4.819   1.143   1.272  0.6213  0.2947 -2.0295
 6740SOL    MW426728   4.755   1.093   1.240 -0.3105 -0.1463  0.3271
 6741SOL     OW26729   1.645   3.215   4.930  0.1043  0.0145  0.0800
 6741SOL    HW226730   1.709   3.228   4.860 -0.9306  0.3461 -0.8486
 6741SOL    HW326731   1.603   3.132   4.909 -1.2276  0.8047 -0.5742
 6741SOL    MW426732   1.648   3.206   4.918 -0.2080  0.1625 -0.1288
 6742SOL     OW26733   3.497   6.250   2.514  0.3055 -0.3855  0.0450
 6742SOL    HW226734   3.546   6.174   2.546 -1.4374 -1.0277  1.3406
 6742SOL    HW326735   3.489   6.235   2.420  1.1130 -1.1223  0.0813
 6742SOL    MW426736   3.502   6.238   2.506  0.1821 -0.5674  0.2207
 6743SOL     OW26737   3.869   3.874   2.963  0.7142  0.3851  0.3544
 6743SOL    HW226738   3.865   3.793   2.911  0.0814  0.4175  0.3525
 6743SOL    HW326739   3.914   3.848   3.044 -0.1734 -0.1544  0.6874
 6743SOL    MW426740   3.875   3.860   2.967  0.5136  0.3182  0.3981
 6744SOL     OW26741   5.550   0.731   1.524 -0.3723  0.3237 -0.5945
 6744SOL    HW226742   5.542   0.713   1.618  0.4774 -0.5246 -0.6630
 6744SOL    HW326743   5.474   0.688   1.485  0.1869 -0.8101 -0.4619
 6744SOL    MW426744   5.539   0.723   1.531 -0.1865  0.0622 -0.5861
 6745SOL     OW26745   2.623   5.251   1.783 -0.3054  0.3808  0.1706
 6745SOL    HW226746   2.596   5.308   1.712  1.0348  0.2461 -0.4800
 6745SOL    HW326747   2.637   5.166   1.742  1.1580  0.4690  0.4218
 6745SOL    MW426748   2.621   5.247   1.769  0.0645  0.3747  0.1179
 6746SOL     OW26749   6.402   4.691   4.846 -0.0838  0.5936 -0.2611
 6746SOL    HW226750   6.375   4.730   4.762 -0.3220  1.7847  0.3395
 6746SOL    HW326751   6.483   4.645   4.826 -0.2066  0.7495 -1.1786
 6746SOL    MW426752   6.409   4.690   4.832 -0.1314  0.7713 -0.3029
 6747SOL     OW26753   0.568   5.828   1.382  0.3548  0.1647  0.0838
 6747SOL    HW226754   0.509   5.754   1.367  1.0619 -0.6457  1.1122
 6747SOL    HW326755   0.579   5.868   1.296 -1.1605 -0.0583 -0.2374
 6747SOL    MW426756   0.562   5.823   1.369  0.2482  0.0283  0.1771
 6748SOL     OW26757   5.721   1.857   5.498 -0.0326  0.7962  0.3017
 6748SOL    HW226758   5.639   1.813   5.478  0.1467  0.2202  0.7976
 6748SOL    HW326759   5.757   1.882   5.413 -0.1399 -0.0196  0.0140
 6748SOL    MW426760   5.715   1.855   5.484 -0.0231  0.6126  0.3292
 6749SOL     OW26761   3.511   0.065   6.015 -0.7082  0.0739 -0.0670
 6749SOL    HW226762   3.535   0.010   5.941 -1.7136 -0.7647  0.2001
 6749SOL    HW326763   3.553   0.024   6.090 -1.6626 -0.4993  0.1696
 6749SOL    MW426764   3.519   0.052   6.015 -0.9668 -0.1123 -0.0005
 6750SOL     OW26765   4.274   4.332   2.967 -0.3403 -0.0302  0.0572
 6750SOL    HW226766   4.301   4.353   3.056  2.6643 -0.6546 -0.6035
 6750SOL    HW326767   4.273   4.236   2.963 -0.6458 -0.0125 -0.5257
 6750SOL    MW426768   4.278   4.322   2.978  0.0158 -0.1103 -0.1069
 6751SOL     OW26769   4.077   3.395   5.997 -0.1156 -0.1414  0.2273
 6751SOL    HW226770   4.152   3.348   5.961  0.6327  1.3481 -0.2513
 6751SOL    HW326771   4.031   3.429   5.921 -0.7145 -0.1816  0.5604
 6751SOL    MW426772   4.081   3.393   5.982 -0.0959  0.0498  0.2081
 6752SOL     OW26773   1.768   0.663   3.087 -0.4300  0.2128 -0.7951
 6752SOL    HW226774   1.758   0.604   3.161 -0.5723  0.6343 -0.4709
 6752SOL    HW326775   1.814   0.612   3.021 -1.3122 -0.5375 -0.8531
 6752SOL    MW426776   1.773   0.649   3.088 -0.5652  0.1695 -0.7600
 6753SOL     OW26777   3.596   3.994   2.384  0.1334  0.2463 -0.0644
 6753SOL    HW226778   3.504   3.976   2.404  0.3047  0.1160  0.6301
 6753SOL    HW326779   3.609   4.085   2.410  0.1570  0.3304 -0.3564
 6753SOL    MW426780   3.585   4.003   2.390  0.1591  0.2402 -0.0113
 6754SOL     OW26781   6.172   0.847   6.187 -0.5350  0.6347 -0.2544
 6754SOL    HW226782   6.078   0.857   6.174 -0.7762  0.6412  1.2319
 6754SOL    HW326783   6.191   0.898   6.266  0.6767  0.4607 -0.4087
 6754SOL    MW426784   6.162   0.855   6.196 -0.4070  0.6126 -0.0787
 6755SOL     OW26785   3.967   1.812   6.383 -0.0339 -0.1817 -0.5007
 6755SOL    HW226786   3.950   1.891   6.332  0.7873  1.7793  2.0587
 6755SOL    HW326787   4.046   1.832   6.433  0.6793 -2.9669 -0.3231
 6755SOL    MW426788   3.975   1.825   6.383  0.1686 -0.2904 -0.1396
 6756SOL     OW26789   6.147   3.113   1.768  0.0861 -0.1673  0.3210
 6756SOL    HW226790   6.186   3.197   1.795  0.4310 -0.6935  1.5248
 6756SOL    HW326791   6.058   3.135   1.743  0.9839  1.0248 -2.2162
 6756SOL    MW426792   6.141   3.127   1.768  0.2501 -0.0794  0.1451
 6757SOL     OW26793   1.062   4.824   5.058  0.0335 -0.0221 -0.2147
 6757SOL    HW226794   1.051   4.731   5.076  0.7418  0.1266  1.1778
 6757SOL    HW326795   0.976   4.863   5.072 -0.2647 -0.4593 -0.8106
 6757SOL    MW426796   1.049   4.817   5.062  0.0876 -0.0602 -0.1096
 6758SOL     OW26797   1.910   0.334   0.889 -0.5890 -0.0444 -0.1809
 6758SOL    HW226798   2.004   0.353   0.887 -0.9449  1.8122 -0.7332
 6758SOL    HW326799   1.891   0.301   0.801 -0.2534 -1.6556  0.3172
 6758SOL    MW426800   1.920   0.332   0.877 -0.5917 -0.0120 -0.1881
 6759SOL     OW26801   2.755   4.159   5.194 -0.3802 -0.0467  0.7247
 6759SOL    HW226802   2.805   4.077   5.185  0.1530  0.5175 -3.1342
 6759SOL    HW326803   2.817   4.220   5.234  1.4812  0.0527 -2.0185
 6759SOL    MW426804   2.770   4.156   5.198 -0.0643  0.0408 -0.1463
 6760SOL     OW26805   3.622   2.348   1.070  0.0060  0.5395 -0.0579
 6760SOL    HW226806   3.649   2.348   1.162 -0.5318  1.3523  0.1134
 6760SOL    HW326807   3.621   2.441   1.046 -0.4771  0.3732 -0.6980
 6760SOL    MW426808   3.626   2.360   1.079 -0.1287  0.6248 -0.1198
 6761SOL     OW26809   1.599   5.316   2.549  0.1089  0.1799  0.4236
 6761SOL    HW226810   1.614   5.222   2.552 -0.7332  0.0597  1.3793
 6761SOL    HW326811   1.681   5.354   2.581  0.5948 -0.1926 -0.3321
 6761SOL    MW426812   1.612   5.309   2.553  0.0619  0.1149  0.4500
 6762SOL     OW26813   1.682   5.930   0.713  0.2578  0.0916 -0.3451
 6762SOL    HW226814   1.624   5.959   0.643  1.1815  1.5885 -0.5402
 6762SOL    HW326815   1.769   5.930   0.673  0.4106 -2.3364 -0.1358
 6762SOL    MW426816   1.686   5.934   0.698  0.3998 -0.0312 -0.3432
 6763SOL     OW26817   4.593   4.145   5.188  0.7348 -0.0187  0.5151
 6763SOL    HW226818   4.588   4.128   5.282  0.6261 -1.3677  0.2905
 6763SOL    HW326819   4.518   4.098   5.151  0.4025  1.0339 -0.1853
 6763SOL    MW426820   4.583   4.136   5.195  0.6766 -0.0578  0.3931
 6764SOL     OW26821   0.731   3.083   1.522  0.2766  0.1633  0.6951
 6764SOL    HW226822   0.800   3.138   1.485  0.9393 -0.5360  0.8908
 6764SOL    HW326823   0.711   3.020   1.453  1.0065 -0.6846  1.2478
 6764SOL    MW426824   0.737   3.082   1.508  0.4603 -0.0408  0.7938
 6765SOL     OW26825   3.025   6.146   5.150  0.7560  0.4027  0.2123
 6765SOL    HW226826   3.025   6.238   5.176 -0.0957  0.1262  1.2810
 6765SOL    HW326827   2.932   6.127   5.132  0.8505 -0.3991  0.5710
 6765SOL    MW426828   3.013   6.156   5.151  0.6561  0.2604  0.4006
 6766SOL     OW26829   3.202   2.071   1.339  0.6240 -0.5214  0.0449
 6766SOL    HW226830   3.236   2.007   1.402 -2.7702 -3.2820 -0.6153
 6766SOL    HW326831   3.173   2.144   1.394  0.8533 -1.3519  1.3354
 6766SOL    MW426832   3.203   2.072   1.355  0.2064 -0.9952  0.1281
 6767SOL     OW26833   5.003   0.494   5.146  0.3130 -0.0254  0.0338
 6767SOL    HW226834   4.955   0.412   5.138 -0.7954  0.6224 -0.0964
 6767SOL    HW326835   5.062   0.480   5.221 -1.6816 -0.0857  1.6876
 6767SOL    MW426836   5.005   0.481   5.155 -0.0964  0.0521  0.2348
 6768SOL     OW26837   2.550   4.525   1.370  0.0599  0.2733  0.3257
 6768SOL    HW226838   2.566   4.618   1.385 -0.2602  0.2547  0.7996
 6768SOL    HW326839   2.636   4.490   1.347 -0.1569  1.0513 -1.9458
 6768SOL    MW426840   2.564   4.532   1.369 -0.0109  0.3735  0.0885
 6769SOL     OW26841   3.558   5.697   3.668 -0.3312 -0.6677 -0.2354
 6769SOL    HW226842   3.532   5.631   3.604 -1.6243  0.4145 -0.8759
 6769SOL    HW326843   3.526   5.779   3.632  1.5897  0.3991  0.3348
 6769SOL    MW426844   3.551   5.699   3.655 -0.2484 -0.3841 -0.2447
 6770SOL     OW26845   4.517   1.155   1.809  0.1549  0.0844  0.6333
 6770SOL    HW226846   4.516   1.126   1.718 -1.1041 -2.6950  1.4240
 6770SOL    HW326847   4.583   1.099   1.851  1.1338  1.7196  1.3774
 6770SOL    MW426848   4.526   1.144   1.803  0.1179 -0.0666  0.8358
 6771SOL     OW26849   5.443   1.093   2.411 -0.1927 -0.2075 -0.5494
 6771SOL    HW226850   5.436   1.178   2.454 -2.6746 -0.5984  0.0095
 6771SOL    HW326851   5.371   1.042   2.449  0.2924 -2.0482 -1.9752
 6771SOL    MW426852   5.432   1.097   2.422 -0.4561 -0.5019 -0.6638
 6772SOL     OW26853   1.055   2.111   1.527  0.2485  0.3492 -0.1313
 6772SOL    HW226854   0.984   2.100   1.591  0.2145  0.5567 -0.1321
 6772SOL    HW326855   1.110   2.033   1.539  0.9797  1.0058  1.0862
 6772SOL    MW426856   1.053   2.099   1.537  0.3405  0.4632  0.0292
 6773SOL     OW26857   2.388   5.891   1.205 -0.0155  0.4595  0.1649
 6773SOL    HW226858   2.360   5.845   1.126 -0.3807  2.5490 -1.0043
 6773SOL    HW326859   2.475   5.855   1.224 -0.1442 -0.4662 -0.8789
 6773SOL    MW426860   2.396   5.880   1.197 -0.0807  0.6131 -0.1271
 6774SOL     OW26861   3.619   4.798   0.212  0.0690  0.3506  0.8143
 6774SOL    HW226862   3.584   4.777   0.125 -0.1341  1.0776  0.7121
 6774SOL    HW326863   3.569   4.742   0.272 -1.5236  1.6002  0.7024
 6774SOL    MW426864   3.608   4.788   0.208 -0.1679  0.6114  0.7861
 6775SOL     OW26865   1.421   4.248   1.032  0.3685  0.3854  0.5507
 6775SOL    HW226866   1.412   4.160   0.995 -1.4278 -0.6358  3.1583
 6775SOL    HW326867   1.368   4.304   0.975  0.5782 -0.4108 -0.4478
 6775SOL    MW426868   1.413   4.244   1.019  0.1591  0.1456  0.7630
 6776SOL     OW26869   5.009   5.125   4.302 -0.9401  0.8916 -0.6548
 6776SOL    HW226870   4.938   5.070   4.268 -0.4286  0.2605 -0.7054
 6776SOL    HW326871   5.038   5.079   4.381 -0.5989  1.1637 -0.6234
 6776SOL    MW426872   5.003   5.111   4.308 -0.8276  0.8442 -0.6573
 6777SOL     OW26873   3.381   1.601   5.700  0.3703  0.1492  0.2551
 6777SOL    HW226874   3.351   1.516   5.669  0.3782 -0.2111  1.1981
 6777SOL    HW326875   3.319   1.664   5.664  0.5465 -0.2237 -0.7027
 6777SOL    MW426876   3.369   1.598   5.691  0.3946  0.0525  0.2532
 6778SOL     OW26877   2.393   3.451   0.378 -0.0737 -0.2484 -0.5470
 6778SOL    HW226878   2.398   3.525   0.317 -2.2137 -0.3172 -0.8704
 6778SOL    HW326879   2.394   3.374   0.321  0.0625 -0.4004 -0.3388
 6778SOL    MW426880   2.394   3.451   0.362 -0.3381 -0.2775 -0.5622
 6779SOL     OW26881   5.480   4.353   5.730  0.2960  0.0551  0.7905
 6779SOL    HW226882   5.527   4.381   5.809 -1.0262  0.1311  1.5722
 6779SOL    HW326883   5.540   4.292   5.687  0.6775 -0.7371  2.3545
 6779SOL    MW426884   5.494   4.349   5.735  0.1719 -0.0394  1.1000
 6780SOL     OW26885   6.339   0.777   2.769 -0.0647 -0.0738 -0.6130
 6780SOL    HW226886   6.330   0.868   2.740  1.1048  0.2454 -0.0055
 6780SOL    HW326887   6.328   0.725   2.689  0.8596  0.6872 -1.2452
 6780SOL    MW426888   6.336   0.782   2.755  0.2116  0.0687 -0.6163
 6781SOL     OW26889   3.786   1.742   4.981  0.1385 -0.0093 -0.6757
 6781SOL    HW226890   3.794   1.648   4.996  0.2296  0.1421  0.2287
 6781SOL    HW326891   3.859   1.781   5.028 -1.1291  0.6952  0.8231
 6781SOL    MW426892   3.796   1.735   4.989 -0.0167  0.1036 -0.3586
 6782SOL     OW26893   4.602   2.850   3.866 -0.2699  0.4521  0.2142
 6782SOL    HW226894   4.630   2.772   3.914  1.2412  0.5319 -0.4747
 6782SOL    HW326895   4.511   2.863   3.892 -0.5531 -1.5089  0.3854
 6782SOL    MW426896   4.594   2.842   3.876 -0.1079  0.2039  0.1459
 6783SOL     OW26897   3.730   5.941   5.791 -0.2212  0.2666  0.3390
 6783SOL    HW226898   3.795   5.988   5.843  1.3328 -1.4913  0.0740
 6783SOL    HW326899   3.763   5.851   5.787 -0.8044  0.1009 -2.8420
 6783SOL    MW426900   3.743   5.935   5.798 -0.0931  0.0128 -0.1156
 6784SOL     OW26901   1.467   3.489   2.693  0.2991  0.1426  0.1324
 6784SOL    HW226902   1.468   3.478   2.788  1.5054 -1.4502 -0.0322
 6784SOL    HW326903   1.550   3.534   2.674  1.5496 -2.2446 -0.3979
 6784SOL    MW426904   1.478   3.494   2.703  0.6232 -0.3825  0.0407
 6785SOL     OW26905   2.494   5.919   0.885 -0.1140 -0.0421  0.2461
 6785SOL    HW226906   2.565   5.976   0.916  0.8680  0.1162 -2.1094
 6785SOL    HW326907   2.418   5.945   0.938  0.6214  2.5684  0.1581
 6785SOL    MW426908   2.493   5.930   0.896  0.1126  0.3232 -0.0763
 6786SOL     OW26909   1.408   0.527   1.774 -0.0940  0.7218  0.1102
 6786SOL    HW226910   1.450   0.503   1.692  0.3562  0.2725  0.4656
 6786SOL    HW326911   1.356   0.450   1.798  0.8620  0.3004  0.9363
 6786SOL    MW426912   1.406   0.514   1.766  0.0915  0.6069  0.2661
 6787SOL     OW26913   0.664   4.933   6.147 -0.6006  0.2299  0.7262
 6787SOL    HW226914   0.736   4.871   6.157 -1.2584 -0.6576  0.1591
 6787SOL    HW326915   0.589   4.879   6.120 -1.6529  1.0257  1.9349
 6787SOL    MW426916   0.664   4.918   6.144 -0.8262  0.2178  0.8108
 6788SOL     OW26917   4.069   2.806   0.655  0.4368 -0.1430  0.2910
 6788SOL    HW226918   3.992   2.813   0.712  2.0668  0.3702  2.5588
 6788SOL    HW326919   4.077   2.893   0.614 -0.8109 -0.5525 -0.9103
 6788SOL    MW426920   4.060   2.818   0.657  0.4872 -0.1293  0.4317
 6789SOL     OW26921   3.418   0.432   5.310 -0.0052  0.0636  0.5238
 6789SOL    HW226922   3.502   0.413   5.269 -0.0427  1.4849 -0.2810
 6789SOL    HW326923   3.368   0.350   5.301  0.9363 -0.4832  0.1413
 6789SOL    MW426924   3.422   0.418   5.303  0.1141  0.1790  0.3672
 6790SOL     OW26925   2.393   1.946   0.085  0.1435 -0.6350  0.6355
 6790SOL    HW226926   2.450   1.956   0.010 -2.6963  2.4257 -1.4475
 6790SOL    HW326927   2.308   1.923   0.048 -1.7374  2.3940  2.5846
 6790SOL    MW426928   2.389   1.945   0.070 -0.4793  0.1685  0.6178
 6791SOL     OW26929   1.221   5.787   5.566 -0.3080 -0.6896  0.4131
 6791SOL    HW226930   1.257   5.865   5.608  1.4154 -2.2356  2.0198
 6791SOL    HW326931   1.211   5.812   5.474 -1.5122  1.9342  1.1685
 6791SOL    MW426932   1.225   5.800   5.559 -0.2395 -0.5474  0.7247
 6792SOL     OW26933   5.612   4.504   5.953  0.3774 -0.1803  0.3671
 6792SOL    HW226934   5.532   4.502   6.006  0.0929 -0.2561 -0.0618
 6792SOL    HW326935   5.658   4.423   5.974 -0.3730 -0.8414 -0.4759
 6792SOL    MW426936   5.608   4.493   5.963  0.2409 -0.2775  0.1993
 6793SOL     OW26937   2.334   1.233   1.732  0.3131  0.1570 -0.1724
 6793SOL    HW226938   2.338   1.145   1.693  1.5368  1.0095 -2.1591
 6793SOL    HW326939   2.255   1.272   1.695 -0.3255 -0.1454  0.8479
 6793SOL    MW426940   2.324   1.226   1.722  0.3903  0.2295 -0.2999
 6794SOL     OW26941   3.041   4.106   1.391  0.2420 -0.3681  0.7423
 6794SOL    HW226942   3.072   4.121   1.301  2.7702  0.3601  1.6710
 6794SOL    HW326943   2.946   4.099   1.382  0.3026  0.8948 -1.8483
 6794SOL    MW426944   3.032   4.107   1.378  0.5836 -0.1054  0.5231
 6795SOL     OW26945   4.047   2.039   4.430 -0.4142  0.5152  0.2562
 6795SOL    HW226946   4.009   1.954   4.406 -0.7413  0.8034 -0.2685
 6795SOL    HW326947   4.043   2.090   4.349  0.2607  0.8549  0.4387
 6795SOL    MW426948   4.041   2.034   4.416 -0.3683  0.5980  0.2111
 6796SOL     OW26949   0.833   0.965   3.168  0.5571  0.4374  0.4191
 6796SOL    HW226950   0.891   0.896   3.198  0.5426  0.5311  0.6625
 6796SOL    HW326951   0.774   0.922   3.106  0.3399  0.1614  0.8170
 6796SOL    MW426952   0.833   0.950   3.164  0.5265  0.4134  0.5037
 6797SOL     OW26953   2.339   0.330   1.746 -0.4417 -0.5283  0.0154
 6797SOL    HW226954   2.297   0.328   1.832 -2.1461  0.2366 -0.7330
 6797SOL    HW326955   2.289   0.396   1.697 -2.4534 -3.8469 -2.9426
 6797SOL    MW426956   2.327   0.339   1.751 -0.9320 -0.8652 -0.4737
 6798SOL     OW26957   4.083   5.621   0.153 -0.2188  0.0943  0.6817
 6798SOL    HW226958   4.123   5.687   0.097 -1.4848  0.3950  0.1213
 6798SOL    HW326959   4.013   5.582   0.100  0.6697 -1.9252  0.8702
 6798SOL    MW426960   4.079   5.624   0.139 -0.2686 -0.1325  0.6326
 6799SOL     OW26961   5.869   5.695   3.182  0.1032  0.2274  0.4501
 6799SOL    HW226962   5.779   5.724   3.196 -0.7637 -1.0692 -1.9591
 6799SOL    HW326963   5.901   5.750   3.111 -0.3615 -2.0962 -1.7066
 6799SOL    MW426964   5.861   5.706   3.174 -0.0725 -0.2502 -0.1523
 6800SOL     OW26965   0.550   4.667   6.085 -0.0542  0.0145 -0.3203
 6800SOL    HW226966   0.625   4.679   6.027  0.3741  1.2107  0.4422
 6800SOL    HW326967   0.489   4.614   6.034  0.9551 -0.2986 -1.2638
 6800SOL    MW426968   0.552   4.661   6.071  0.1355  0.1310 -0.3442
 6801SOL     OW26969   1.458   2.403   3.109  0.3121 -0.8272  0.3263
 6801SOL    HW226970   1.469   2.496   3.129 -1.1919 -0.7705  1.0487
 6801SOL    HW326971   1.404   2.370   3.180 -0.4256 -1.9253 -0.7058
 6801SOL    MW426972   1.452   2.411   3.121  0.0163 -0.9646  0.2854
 6802SOL     OW26973   5.434   2.106   6.176  0.1695 -0.3460  0.1838
 6802SOL    HW226974   5.411   2.058   6.256 -0.0059  0.3989  0.5828
 6802SOL    HW326975   5.524   2.135   6.191  1.3775 -3.0091 -1.2555
 6802SOL    MW426976   5.443   2.103   6.189  0.3057 -0.5991  0.0465
 6803SOL     OW26977   2.361   5.884   3.829 -1.1224  0.1972  0.0322
 6803SOL    HW226978   2.423   5.897   3.901 -2.0710 -0.0603  0.9067
 6803SOL    HW326979   2.325   5.797   3.844 -0.4336 -0.3916 -1.4698
 6803SOL    MW426980   2.365   5.874   3.840 -1.1567  0.0856 -0.0506
 6804SOL     OW26981   2.308   2.862   0.067  0.4012 -0.2980 -0.4775
 6804SOL    HW226982   2.307   2.848  -0.028  0.3114  2.1092 -0.9045
 6804SOL    HW326983   2.399   2.888   0.086  0.3069 -0.3335  0.0266
 6804SOL    MW426984   2.320   2.863   0.057  0.3769  0.0149 -0.4673
 6805SOL     OW26985   3.319   3.231   4.447  0.0189 -0.1822 -0.3388
 6805SOL    HW226986   3.309   3.256   4.538  0.8934 -1.8514  0.2695
 6805SOL    HW326987   3.410   3.253   4.426  1.0154 -3.1512  0.4082
 6805SOL    MW426988   3.330   3.237   4.456  0.2657 -0.7941 -0.1600
 6806SOL     OW26989   5.909   3.085   0.748  0.3739 -0.6084  0.1765
 6806SOL    HW226990   5.932   3.066   0.657  1.9543  0.0449  0.4269
 6806SOL    HW326991   5.991   3.111   0.790 -0.3538 -0.7201  1.7587
 6806SOL    MW426992   5.922   3.086   0.742  0.4864 -0.5369  0.4183
 6807SOL     OW26993   6.183   2.970   5.226  0.1004 -0.2903  0.0318
 6807SOL    HW226994   6.259   2.936   5.275 -0.8346 -0.3569  1.5122
 6807SOL    HW326995   6.108   2.928   5.268 -0.7829 -0.0255 -1.2425
 6807SOL    MW426996   6.183   2.960   5.238 -0.1395 -0.2641  0.0590
 6808SOL     OW26997   2.791   1.971   2.345 -0.1148 -0.4475 -0.3015
 6808SOL    HW226998   2.798   2.043   2.282  0.2564  1.7806  2.1296
 6808SOL    HW326999   2.707   1.930   2.325 -0.2293  0.4859 -1.9308
 6808SOL    MW427000   2.781   1.975   2.334 -0.0810 -0.0304 -0.1957
 6809SOL     OW27001   1.724   4.405   3.279  0.2619  0.0913  0.1967
 6809SOL    HW227002   1.718   4.412   3.184 -1.9012  1.3001  0.3612
 6809SOL    HW327003   1.799   4.459   3.303  0.6094  0.0468 -0.7835
 6809SOL    MW427004   1.733   4.413   3.270  0.0224  0.2449  0.0891
 6810SOL     OW27005   3.377   2.935   2.350  0.0099 -0.0032  0.2964
 6810SOL    HW227006   3.317   2.879   2.399 -1.0208  0.9037  0.1056
 6810SOL    HW327007   3.407   2.999   2.414 -0.9475  0.8769 -0.1108
 6810SOL    MW427008   3.373   2.936   2.365 -0.2524  0.2326  0.2175
 6811SOL     OW27009   3.826   4.374   0.266  0.6281  0.5410  0.5498
 6811SOL    HW227010   3.787   4.372   0.353  0.6119  1.9671  0.6028
 6811SOL    HW327011   3.840   4.467   0.248  0.4836  0.2902 -1.0318
 6811SOL    MW427012   3.822   4.386   0.275  0.6069  0.6961  0.3481
 6812SOL     OW27013   4.652   5.236   3.323 -0.0556 -0.0033  0.4894
 6812SOL    HW227014   4.721   5.184   3.365 -0.4986 -1.1350 -0.1329
 6812SOL    HW327015   4.697   5.314   3.291  1.3052 -1.4324 -1.2890
 6812SOL    MW427016   4.667   5.239   3.325  0.0655 -0.3412  0.1727
 6813SOL     OW27017   6.377   5.267   2.552  0.0971 -0.0597  0.0518
 6813SOL    HW227018   6.358   5.183   2.510  0.2946 -0.0713 -0.0190
 6813SOL    HW327019   6.296   5.291   2.597 -0.0881 -0.0946 -0.2575
 6813SOL    MW427020   6.364   5.259   2.552  0.0987 -0.0659  0.0017
 6814SOL     OW27021   0.366   0.748   0.598 -0.0343  0.2746 -0.4594
 6814SOL    HW227022   0.410   0.691   0.536 -0.1655  0.5450 -0.8045
 6814SOL    HW327023   0.437   0.789   0.648  0.0695 -3.0068  2.4416
 6814SOL    MW427024   0.381   0.746   0.597 -0.0379 -0.1227 -0.1221
 6815SOL     OW27025   2.392   5.765   1.795 -0.3449 -0.8189 -0.0249
 6815SOL    HW227026   2.317   5.783   1.851 -1.1107 -2.4340 -0.4667
 6815SOL    HW327027   2.453   5.715   1.850  1.3556  2.0797  0.9226
 6815SOL    MW427028   2.390   5.761   1.809 -0.2216 -0.6495  0.0418
 6816SOL     OW27029   3.282   1.071   1.383 -0.9543 -0.0577 -0.1605
 6816SOL    HW227030   3.287   1.003   1.315 -0.1389 -0.0876 -0.0787
 6816SOL    HW327031   3.189   1.089   1.392 -1.2426 -1.5931  0.2299
 6816SOL    MW427032   3.271   1.064   1.375 -0.8848 -0.2642 -0.0982
 6817SOL     OW27033   0.614   3.226   4.405 -0.1249  0.1578 -0.0509
 6817SOL    HW227034   0.598   3.198   4.495 -0.2112 -0.0267 -0.1243
 6817SOL    HW327035   0.567   3.309   4.398 -1.6129 -0.6897 -0.4607
 6817SOL    MW427036   0.605   3.233   4.416 -0.3326  0.0216 -0.1147
 6818SOL     OW27037   0.227   1.147   0.641 -0.6606 -0.0766  0.2855
 6818SOL    HW227038   0.297   1.119   0.700 -0.5783  0.8648  0.6614
 6818SOL    HW327039   0.220   1.077   0.577  1.3751  0.2785 -0.4028
 6818SOL    MW427040   0.235   1.134   0.641 -0.3811  0.0944  0.2442
 6819SOL     OW27041   1.236   5.913   0.329  0.0596 -0.6412 -0.4668
 6819SOL    HW227042   1.177   5.875   0.264 -0.3480  0.4246 -0.7495
 6819SOL    HW327043   1.296   5.842   0.352 -1.2599 -1.7264 -0.2488
 6819SOL    MW427044   1.236   5.899   0.324 -0.1683 -0.6438 -0.4753
 6820SOL     OW27045   2.547   4.409   2.177  0.0918 -0.1949 -0.4171
 6820SOL    HW227046   2.591   4.419   2.092 -1.2991  1.1437 -1.0202
 6820SOL    HW327047   2.575   4.322   2.207  2.5371  0.2710 -1.0754
 6820SOL    MW427048   2.557   4.399   2.170  0.2309  0.0432 -0.5835
 6821SOL     OW27049   2.649   1.202   0.635 -0.3210 -0.1627 -0.7270
 6821SOL    HW227050   2.594   1.239   0.566 -0.6919 -1.2323 -1.0178
 6821SOL    HW327051   2.712   1.272   0.654 -0.4290  0.2846 -1.8978
 6821SOL    MW427052   2.650   1.216   0.628 -0.3842 -0.2448 -0.9198
 6822SOL     OW27053   0.884   2.947   1.140 -0.2691 -0.0811  0.2190
 6822SOL    HW227054   0.911   2.966   1.050 -1.7345 -1.9793 -0.7092
 6822SOL    HW327055   0.957   2.977   1.194  1.4449 -0.4778 -1.7347
 6822SOL    MW427056   0.897   2.954   1.135 -0.2363 -0.3838 -0.1612
 6823SOL     OW27057   0.245   5.190   3.821  0.5296 -0.3477 -0.2002
 6823SOL    HW227058   0.319   5.243   3.791  0.3253 -0.1329 -0.3316
 6823SOL    HW327059   0.225   5.133   3.747  0.7279 -0.5883 -0.0710
 6823SOL    MW427060   0.252   5.190   3.808  0.5288 -0.3511 -0.2005
 6824SOL     OW27061   0.481   0.082   3.027 -0.3827  0.0138  0.1354
 6824SOL    HW227062   0.414   0.034   3.076  1.4180 -0.9496  1.7916
 6824SOL    HW327063   0.551   0.018   3.013  0.5646  1.2041 -0.7775
 6824SOL    MW427064   0.481   0.067   3.032 -0.0201  0.0437  0.2335
 6825SOL     OW27065   0.972   5.323   3.369 -0.1715 -0.5054 -0.1763
 6825SOL    HW227066   0.923   5.358   3.295 -1.5006 -0.7885  0.5432
 6825SOL    HW327067   1.062   5.354   3.355 -0.0302 -1.7813 -2.6782
 6825SOL    MW427068   0.978   5.331   3.357 -0.3282 -0.7111 -0.4115
 6826SOL     OW27069   3.299   3.950   2.676  0.3392  0.1350  0.1019
 6826SOL    HW227070   3.225   4.000   2.710 -1.5039 -1.2509 -1.6208
 6826SOL    HW327071   3.373   3.974   2.732 -1.4174  1.5029  1.9492
 6826SOL    MW427072   3.299   3.960   2.688 -0.1357  0.1326  0.1183
 6827SOL     OW27073   6.034   1.653   2.791  0.3709  0.1234  0.3937
 6827SOL    HW227074   6.073   1.663   2.878 -0.1104 -0.0532  0.6384
 6827SOL    HW327075   6.025   1.558   2.779  1.3433  0.1024 -0.2718
 6827SOL    MW427076   6.038   1.642   2.801  0.4357  0.0973  0.3382
 6828SOL     OW27077   6.181   0.104   0.894  0.0266 -0.1460  0.0480
 6828SOL    HW227078   6.115   0.163   0.930 -0.0247  0.0712 -0.3910
 6828SOL    HW327079   6.195   0.039   0.963 -0.8376 -0.3501  0.0450
 6828SOL    MW427080   6.174   0.103   0.908 -0.0942 -0.1443 -0.0103
 6829SOL     OW27081   1.998   1.240   3.604 -0.0809  0.2820 -0.2837
 6829SOL    HW227082   1.910   1.207   3.621  0.7699 -1.7958  0.3884
 6829SOL    HW327083   2.020   1.293   3.681 -0.9423  1.3586 -0.7454
 6829SOL    MW427084   1.990   1.243   3.616 -0.0823  0.1499 -0.2559
 6830SOL     OW27085   4.049   0.174   0.634 -0.8481 -0.3180 -0.0769
 6830SOL    HW227086   4.069   0.237   0.565 -0.5143 -0.3405 -0.0031
 6830SOL    HW327087   4.112   0.103   0.621  0.3971  0.4822  1.3120
 6830SOL    MW427088   4.060   0.173   0.623 -0.6398 -0.2154  0.1161
 6831SOL     OW27089   5.134   1.298   6.121 -0.1836 -0.3927  0.0316
 6831SOL    HW227090   5.113   1.210   6.092  1.8255 -1.0351  0.3481
 6831SOL    HW327091   5.202   1.286   6.187  2.2916  1.4508 -1.9704
 6831SOL    MW427092   5.140   1.285   6.126  0.4081 -0.2342 -0.1908
 6832SOL     OW27093   1.639   2.973   5.145  0.5173 -0.2404  0.2117
 6832SOL    HW227094   1.688   3.054   5.159  0.2441  0.3456 -1.9672
 6832SOL    HW327095   1.549   2.995   5.172  0.3442  0.3603 -0.7919
 6832SOL    MW427096   1.633   2.986   5.151  0.4584 -0.0838 -0.2082
 6833SOL     OW27097   2.188   3.418   2.184 -0.3547  0.7876  0.4757
 6833SOL    HW227098   2.257   3.449   2.243 -0.2535  0.2503  0.6446
 6833SOL    HW327099   2.229   3.419   2.097 -0.0928  0.3574  0.5914
 6833SOL    MW427100   2.202   3.422   2.180 -0.3068  0.6600  0.5132
 6834SOL     OW27101   6.278   4.858   5.984 -0.9161  0.3031 -0.6394
 6834SOL    HW227102   6.256   4.922   5.916 -1.3064  1.5790  0.6402
 6834SOL    HW327103   6.274   4.907   6.066 -1.5861 -1.4558  0.4458
 6834SOL    MW427104   6.275   4.873   5.986 -1.0560  0.2394 -0.3274
 6835SOL     OW27105   2.263   4.000   3.568  0.0256 -0.1949 -0.1331
 6835SOL    HW227106   2.241   4.045   3.486 -0.2577  1.9064  1.0294
 6835SOL    HW327107   2.180   3.966   3.600  0.0135 -0.3552 -0.3310
 6835SOL    MW427108   2.249   4.001   3.561 -0.0134  0.0612 -0.0059
 6836SOL     OW27109   4.374   5.472   0.471  0.0003  0.0562  0.0449
 6836SOL    HW227110   4.311   5.412   0.431  0.4922 -1.0926  0.9532
 6836SOL    HW327111   4.328   5.509   0.546  0.0559  0.0234  0.0944
 6836SOL    MW427112   4.360   5.469   0.475  0.0725 -0.0997  0.1713
 6837SOL     OW27113   0.826   1.000   4.976 -0.1426 -0.6396  0.3077
 6837SOL    HW227114   0.738   0.964   4.964 -0.1443 -0.0848 -1.5738
 6837SOL    HW327115   0.883   0.923   4.980 -0.5460 -0.9509  0.0883
 6837SOL    MW427116   0.822   0.985   4.975 -0.1961 -0.6075  0.0305
 6838SOL     OW27117   1.097   2.495   0.620 -0.3500 -0.2493 -0.1288
 6838SOL    HW227118   1.120   2.423   0.680  0.2314 -0.4694 -0.6135
 6838SOL    HW327119   1.140   2.572   0.658 -0.1741 -0.3433 -0.1358
 6838SOL    MW427120   1.106   2.495   0.633 -0.2501 -0.2907 -0.1937
 6839SOL     OW27121   2.047   6.357   0.516  0.0334  0.1742  0.6724
 6839SOL    HW227122   2.053   6.292   0.586 -2.0575  1.1922  1.9144
 6839SOL    HW327123   2.094   6.433   0.550  0.5570  0.0730  0.1825
 6839SOL    MW427124   2.054   6.358   0.530 -0.1734  0.2951  0.7716
 6840SOL     OW27125   2.801   2.775   0.497 -0.1079  0.2128  0.1968
 6840SOL    HW227126   2.874   2.833   0.520  0.5854 -0.0322 -1.2156
 6840SOL    HW327127   2.823   2.691   0.538  0.8246 -0.0695 -0.8096
 6840SOL    MW427128   2.814   2.772   0.505  0.1066  0.1432 -0.1223
 6841SOL     OW27129   0.882   3.197   4.571 -0.1416 -0.0101  0.4642
 6841SOL    HW227130   0.794   3.159   4.573 -0.2814 -0.5471 -4.1616
 6841SOL    HW327131   0.868   3.288   4.545  0.5732 -0.5122 -1.9406
 6841SOL    MW427132   0.868   3.204   4.567 -0.0657 -0.1472 -0.4634
 6842SOL     OW27133   5.443   2.839   1.611 -0.2915  0.5326 -0.4016
 6842SOL    HW227134   5.531   2.874   1.595 -0.3472  1.0724  0.4479
 6842SOL    HW327135   5.457   2.745   1.624  0.3511  0.8302  1.1599
 6842SOL    MW427136   5.456   2.831   1.610 -0.2141  0.6431 -0.0835
 6843SOL     OW27137   6.139   2.671   2.320 -0.0182  1.0610 -0.1221
 6843SOL    HW227138   6.212   2.732   2.317 -0.1344  1.4058  2.3539
 6843SOL    HW327139   6.068   2.715   2.273  0.2173  2.3755  0.7310
 6843SOL    MW427140   6.139   2.685   2.313 -0.0025  1.2799  0.3171
 6844SOL     OW27141   1.258   2.371   2.905 -0.3121  0.3163 -0.6050
 6844SOL    HW227142   1.225   2.459   2.921 -1.7242 -0.2312 -0.3054
 6844SOL    HW327143   1.313   2.351   2.981 -0.4119  0.7498 -0.4183
 6844SOL    MW427144   1.261   2.380   2.917 -0.5116  0.3013 -0.5408
 6845SOL     OW27145   5.262   0.263   2.509 -0.5292  0.3360  0.4265
 6845SOL    HW227146   5.206   0.185   2.511  0.8535 -0.7289 -0.5347
 6845SOL    HW327147   5.331   0.242   2.446  1.6438  1.0945  2.3877
 6845SOL    MW427148   5.264   0.250   2.501 -0.0600  0.2956  0.5584
 6846SOL     OW27149   5.451   2.026   4.241 -0.2024 -0.3155  0.3232
 6846SOL    HW227150   5.431   2.097   4.302 -0.2767 -1.5123  1.7799
 6846SOL    HW327151   5.379   2.024   4.179 -2.1783 -1.4378  2.5105
 6846SOL    MW427152   5.439   2.035   4.241 -0.4729 -0.6215  0.8040
 6847SOL     OW27153   3.415   5.307   2.867  0.3892 -0.4678  0.2326
 6847SOL    HW227154   3.358   5.255   2.810  0.5006 -0.1482 -0.1769
 6847SOL    HW327155   3.368   5.389   2.879  0.6538 -0.2956  0.0912
 6847SOL    MW427156   3.401   5.311   2.861  0.4388 -0.4029  0.1599
 6848SOL     OW27157   5.523   5.202   0.905 -0.0716  0.2878 -0.8929
 6848SOL    HW227158   5.511   5.127   0.963 -0.7073  1.4746  0.5974
 6848SOL    HW327159   5.450   5.261   0.927 -0.0752  0.9718 -2.6137
 6848SOL    MW427160   5.512   5.200   0.916 -0.1559  0.5346 -0.9233
 6849SOL     OW27161   6.359   2.423   6.055  0.2745  0.3794 -0.0223
 6849SOL    HW227162   6.360   2.516   6.033  1.7186  0.3429 -0.2086
 6849SOL    HW327163   6.322   2.420   6.143 -1.3402  0.9531 -0.6580
 6849SOL    MW427164   6.355   2.435   6.064  0.2520  0.4503 -0.1307
 6850SOL     OW27165   1.715   0.787   2.342  0.7713 -0.0076 -0.0170
 6850SOL    HW227166   1.675   0.801   2.428 -0.7898  0.6900 -0.8067
 6850SOL    HW327167   1.733   0.694   2.339  2.2693  0.1724  1.6300
 6850SOL    MW427168   1.712   0.777   2.353  0.7630  0.1082  0.0961
 6851SOL     OW27169   4.398   3.024   6.356 -0.8571  0.0524 -0.1625
 6851SOL    HW227170   4.369   3.058   6.441  0.7317 -0.4395  0.6155
 6851SOL    HW327171   4.417   2.932   6.373 -0.5090 -0.0410 -1.0474
 6851SOL    MW427172   4.396   3.016   6.370 -0.6015 -0.0248 -0.1766
 6852SOL     OW27173   1.828   1.969   1.488 -0.2786  0.4290  0.3443
 6852SOL    HW227174   1.782   2.049   1.513 -0.8282 -0.2340  1.5621
 6852SOL    HW327175   1.760   1.901   1.492  0.2857 -0.1734 -0.1906
 6852SOL    MW427176   1.813   1.970   1.492 -0.2767  0.2620  0.4344
 6853SOL     OW27177   2.200   0.742   0.019  0.0992  0.0376  0.3467
 6853SOL    HW227178   2.183   0.831  -0.011  0.2773 -0.3400 -0.9599
 6853SOL    HW327179   2.296   0.735   0.018  0.1543  0.2500  1.7997
 6853SOL    MW427180   2.211   0.753   0.015  0.1300  0.0158  0.3660
 6854SOL     OW27181   5.167   1.200   3.794  0.5608  0.5347  0.2265
 6854SOL    HW227182   5.251   1.203   3.747  1.6978  1.1857  2.1613
 6854SOL    HW327183   5.105   1.165   3.731  2.3995 -0.4406 -1.1352
 6854SOL    MW427184   5.170   1.195   3.780  0.9534  0.4919  0.3021
 6855SOL     OW27185   4.846   2.540   0.033 -0.4901  0.0660 -0.4327
 6855SOL    HW227186   4.830   2.564   0.124  1.7772 -0.6664  0.2426
 6855SOL    HW327187   4.760   2.518  -0.002 -1.1521 -2.5550  2.4065
 6855SOL    MW427188   4.833   2.541   0.040 -0.2783 -0.3764  0.0310
 6856SOL     OW27189   3.546   3.441   0.996 -0.0404  0.1960  0.3924
 6856SOL    HW227190   3.458   3.477   0.988 -0.7020 -1.4853 -0.3631
 6856SOL    HW327191   3.580   3.477   1.078 -1.4334  0.8652  0.6952
 6856SOL    MW427192   3.539   3.450   1.006 -0.3115  0.0624  0.3327
 6857SOL     OW27193   4.502   4.195   4.260 -0.0488 -0.4378 -0.0458
 6857SOL    HW227194   4.445   4.240   4.322  1.1563  1.5701 -0.3219
 6857SOL    HW327195   4.513   4.107   4.296 -1.2825 -0.0624  1.3117
 6857SOL    MW427196   4.496   4.189   4.273 -0.0525 -0.1233  0.0969
 6858SOL     OW27197   3.444   5.029   3.459  0.0675  0.5498  0.3143
 6858SOL    HW227198   3.366   5.010   3.407  0.1087 -1.2678  0.8408
 6858SOL    HW327199   3.411   5.058   3.544 -0.0196  0.7261  0.2211
 6858SOL    MW427200   3.430   5.030   3.463  0.0614  0.3333  0.3715
 6859SOL     OW27201   5.139   1.741   1.882 -0.0628  0.3889  0.3555
 6859SOL    HW227202   5.231   1.730   1.857 -0.4270 -0.5367 -0.6929
 6859SOL    HW327203   5.100   1.789   1.809 -0.9148 -1.3930 -0.4349
 6859SOL    MW427204   5.146   1.746   1.869 -0.2233  0.0317  0.1129
 6860SOL     OW27205   3.582   2.090   4.926  0.4254 -0.0818 -0.5770
 6860SOL    HW227206   3.625   2.172   4.950  1.7041 -0.7133 -0.6005
 6860SOL    HW327207   3.636   2.054   4.855  0.1743 -1.1711 -0.2423
 6860SOL    MW427208   3.595   2.096   4.920  0.5610 -0.3088 -0.5360
 6861SOL     OW27209   3.593   2.805   2.227  0.0931  0.2065  0.2409
 6861SOL    HW227210   3.617   2.736   2.289  0.9971 -0.5176 -0.8632
 6861SOL    HW327211   3.520   2.851   2.268  0.3870 -0.5222  1.6291
 6861SOL    MW427212   3.587   2.802   2.240  0.2512  0.0148  0.2784
 6862SOL     OW27213   6.086   5.764   1.864  0.4528  0.2119  0.0611
 6862SOL    HW227214   5.995   5.750   1.891  0.7401 -1.8801  0.1025
 6862SOL    HW327215   6.134   5.693   1.905  1.8774  0.4293 -1.1733
 6862SOL    MW427216   6.080   5.753   1.873  0.6786 -0.0354 -0.0963
 6863SOL     OW27217   2.380   2.200   0.469 -0.0307  0.5214 -0.0243
 6863SOL    HW227218   2.342   2.121   0.506  1.6521  0.2391  1.1998
 6863SOL    HW327219   2.397   2.178   0.377 -0.0657 -0.3533  0.1755
 6863SOL    MW427220   2.377   2.187   0.461  0.1867  0.3687  0.1636
 6864SOL     OW27221   0.786   1.627   4.149  0.1786 -0.5276 -0.2499
 6864SOL    HW227222   0.719   1.668   4.204  1.5824  1.6312 -0.0319
 6864SOL    HW327223   0.770   1.533   4.158 -0.6089 -0.2228  2.6497
 6864SOL    MW427224   0.775   1.620   4.158  0.2599 -0.2026  0.1615
 6865SOL     OW27225   1.305   1.572   6.063  0.0526  0.1902 -0.4325
 6865SOL    HW227226   1.392   1.550   6.097 -0.1533  0.9664  0.6335
 6865SOL    HW327227   1.269   1.489   6.032  1.3055 -0.0796 -1.2245
 6865SOL    MW427228   1.312   1.558   6.063  0.1908  0.2570 -0.3963
 6866SOL     OW27229   1.925   1.244   0.925  0.0563  0.1184  0.1590
 6866SOL    HW227230   1.898   1.325   0.968 -0.8921 -0.1273  0.0650
 6866SOL    HW327231   1.912   1.176   0.991  1.5385  0.1134  0.4787
 6866SOL    MW427232   1.920   1.246   0.940  0.1267  0.0853  0.1888
 6867SOL     OW27233   4.762   3.260   4.694 -0.3584  0.1430  0.6199
 6867SOL    HW227234   4.693   3.252   4.760 -0.0550  1.8664  1.2011
 6867SOL    HW327235   4.715   3.262   4.611 -0.9932  0.9021  0.9856
 6867SOL    MW427236   4.746   3.259   4.692 -0.4021  0.4705  0.7448
 6868SOL     OW27237   0.042   2.755   4.466  0.0512  0.1852 -0.4102
 6868SOL    HW227238  -0.043   2.792   4.491  1.3008  1.1896  2.9477
 6868SOL    HW327239   0.093   2.831   4.438  0.7035  0.0558  0.4014
 6868SOL    MW427240   0.037   2.770   4.466  0.3021  0.3006  0.1399
 6869SOL     OW27241   2.903   3.315   3.203  0.3551 -0.2359  0.3383
 6869SOL    HW227242   2.956   3.260   3.261 -0.3489  1.3560  2.6181
 6869SOL    HW327243   2.824   3.264   3.188  1.4994 -1.6496 -1.2066
 6869SOL    MW427244   2.900   3.301   3.209  0.4132 -0.2124  0.4353
 6870SOL     OW27245   1.140   3.725   0.869 -0.3744  0.0229 -0.4565
 6870SOL    HW227246   1.181   3.809   0.847  1.6182 -1.3548 -2.4949
 6870SOL    HW327247   1.051   3.732   0.834 -0.6369  1.6427  0.4185
 6870SOL    MW427248   1.134   3.737   0.861 -0.1462  0.0549 -0.6100
 6871SOL     OW27249   2.715   5.636   1.464 -0.1073  0.0048  0.6976
 6871SOL    HW227250   2.714   5.708   1.527  0.4052 -1.7952  2.9314
 6871SOL    HW327251   2.689   5.675   1.381 -0.5990  2.5719  1.9726
 6871SOL    MW427252   2.712   5.650   1.462 -0.1045  0.1060  1.1605
 6872SOL     OW27253   6.091   6.423   2.985  0.6428 -0.1550  0.4637
 6872SOL    HW227254   6.105   6.468   2.902 -0.8644  4.9447  2.5483
 6872SOL    HW327255   6.169   6.444   3.037  0.2122 -0.6131  1.3137
 6872SOL    MW427256   6.103   6.432   2.981  0.3871  0.4574  0.8509
 6873SOL     OW27257   1.158   5.787   5.284 -0.5928  0.2364  0.1431
 6873SOL    HW227258   1.101   5.716   5.314 -1.9667  1.1602 -0.1572
 6873SOL    HW327259   1.098   5.859   5.266  0.3865  0.4774 -2.6049
 6873SOL    MW427260   1.142   5.787   5.286 -0.6449  0.3901 -0.2591
 6874SOL     OW27261   1.304   6.209   4.655 -0.4100  0.0775 -0.4154
 6874SOL    HW227262   1.295   6.268   4.580  1.6800 -0.4026 -1.0935
 6874SOL    HW327263   1.342   6.264   4.724 -2.6675  0.6133  0.4832
 6874SOL    MW427264   1.308   6.224   4.654 -0.4321  0.0848 -0.3863
 6875SOL     OW27265   0.197   4.400   0.378 -0.2170  0.2591  0.0828
 6875SOL    HW227266   0.189   4.494   0.393  1.6753  0.6677 -1.1285
 6875SOL    HW327267   0.107   4.371   0.359 -0.9778  1.6098  1.4472
 6875SOL    MW427268   0.184   4.408   0.377 -0.0677  0.4912  0.1030
 6876SOL     OW27269   4.093   2.412   3.931  0.3054  0.2140 -0.1386
 6876SOL    HW227270   4.074   2.420   4.024 -0.6731 -2.0252 -0.0878
 6876SOL    HW327271   4.140   2.329   3.922 -1.5159 -0.7298 -1.8495
 6876SOL    MW427272   4.097   2.402   3.942 -0.0640 -0.2060 -0.3576
 6877SOL     OW27273   3.651   2.998   2.858  0.5390  0.1585 -0.2479
 6877SOL    HW227274   3.675   3.001   2.951 -2.5269  2.4247  0.6540
 6877SOL    HW327275   3.725   3.037   2.813  1.7362 -0.1422  1.3629
 6877SOL    MW427276   3.664   3.004   2.865  0.2925  0.4178  0.0836
 6878SOL     OW27277   0.976   6.189   3.050  0.1520  0.5731 -0.4576
 6878SOL    HW227278   1.068   6.173   3.028 -0.0688  2.0423 -2.7160
 6878SOL    HW327279   0.930   6.111   3.019  0.4517  0.4909 -0.7015
 6878SOL    MW427280   0.982   6.176   3.043  0.1624  0.7561 -0.7877
 6879SOL     OW27281   0.387   1.532   4.505 -0.2215 -0.8886 -0.0808
 6879SOL    HW227282   0.326   1.462   4.482 -2.0922  0.6098  0.0994
 6879SOL    HW327283   0.338   1.588   4.565  1.2949  0.4919 -0.0518
 6879SOL    MW427284   0.373   1.530   4.510 -0.2683 -0.5088 -0.0532
 6880SOL     OW27285   1.078   5.783   5.794 -0.3900  0.2113 -0.3082
 6880SOL    HW227286   0.989   5.749   5.781 -0.3865 -0.0299  0.2420
 6880SOL    HW327287   1.127   5.753   5.718 -0.5792 -0.3749 -0.2046
 6880SOL    MW427288   1.073   5.774   5.782 -0.4145  0.1021 -0.2219
 6881SOL     OW27289   3.459   6.166   0.200 -0.2865  0.4342  0.4739
 6881SOL    HW227290   3.491   6.109   0.130 -0.8543 -2.6261  2.4705
 6881SOL    HW327291   3.381   6.207   0.164 -0.4087 -0.8338 -0.7984
 6881SOL    MW427292   3.453   6.164   0.186 -0.3775 -0.1368  0.5695
 6882SOL     OW27293   1.481   3.887   6.195  0.7013  0.1690 -0.3384
 6882SOL    HW227294   1.498   3.811   6.251 -0.3545  1.3133  1.6529
 6882SOL    HW327295   1.567   3.924   6.178  1.0675 -0.3755  0.2810
 6882SOL    MW427296   1.495   3.882   6.200  0.6103  0.2481  0.0061
 6883SOL     OW27297   4.699   0.968   5.224  0.5629  0.1168 -0.5904
 6883SOL    HW227298   4.766   0.920   5.175 -1.4721 -1.6034 -1.8482
 6883SOL    HW327299   4.632   0.988   5.159 -0.9794  0.1954  0.9545
 6883SOL    MW427300   4.699   0.964   5.209  0.0909 -0.0998 -0.5525
 6884SOL     OW27301   4.450   0.183   5.159  0.2363 -0.5543  0.4509
 6884SOL    HW227302   4.417   0.102   5.198  0.8843 -0.8887  0.3360
 6884SOL    HW327303   4.480   0.235   5.234  2.0093 -1.4362  0.4201
 6884SOL    MW427304   4.450   0.179   5.174  0.5557 -0.7148  0.4317
 6885SOL     OW27305   6.032   0.955   5.713  0.7594 -0.2090 -0.2402
 6885SOL    HW227306   6.049   0.924   5.623 -0.8377 -0.0564 -0.6275
 6885SOL    HW327307   5.937   0.954   5.720  0.8760 -0.4554  1.5610
 6885SOL    MW427308   6.022   0.951   5.702  0.5641 -0.2214 -0.0537
 6886SOL     OW27309   2.946   2.166   4.273 -0.1094 -0.0527 -0.1521
 6886SOL    HW227310   2.864   2.128   4.303 -0.0146 -0.0725  0.0847
 6886SOL    HW327311   3.009   2.145   4.342 -0.2843  1.4536  0.5264
 6886SOL    MW427312   2.943   2.158   4.286 -0.1199  0.1434 -0.0313
 6887SOL     OW27313   5.101   2.066   2.201  0.3600 -0.1581  0.0411
 6887SOL    HW227314   5.139   2.107   2.124 -0.3478 -1.1289 -0.8568
 6887SOL    HW327315   5.007   2.074   2.189  0.2396  0.1611  1.0859
 6887SOL    MW427316   5.094   2.072   2.190  0.2507 -0.2441  0.0604
 6888SOL     OW27317   4.657   5.654   4.430 -0.2540  0.2030  0.6176
 6888SOL    HW227318   4.569   5.660   4.392 -0.7490  0.4719  1.7446
 6888SOL    HW327319   4.643   5.670   4.524  0.8283 -1.0190  1.0211
 6888SOL    MW427320   4.643   5.657   4.438 -0.1765  0.0773  0.8195
 6889SOL     OW27321   2.602   3.087   5.066 -0.3266  0.0803 -0.0665
 6889SOL    HW227322   2.609   3.142   4.988  1.1282 -0.2172 -0.1759
 6889SOL    HW327323   2.510   3.061   5.069 -0.4356  0.1930 -1.6177
 6889SOL    MW427324   2.591   3.091   5.056 -0.1491  0.0559 -0.2856
 6890SOL     OW27325   1.395   2.631   1.265  0.0232  0.5543 -0.2324
 6890SOL    HW227326   1.302   2.650   1.257  0.1197  0.5127 -1.7674
 6890SOL    HW327327   1.403   2.586   1.349 -1.6558 -1.2087 -0.9450
 6890SOL    MW427328   1.384   2.628   1.275 -0.1855  0.3162 -0.5290
 6891SOL     OW27329   1.060   5.814   2.482 -0.0255 -0.6008  0.1073
 6891SOL    HW227330   1.020   5.898   2.462 -1.3179 -1.0418  0.7316
 6891SOL    HW327331   1.058   5.766   2.399  1.8680  0.3967 -0.5705
 6891SOL    MW427332   1.054   5.819   2.469  0.0538 -0.5274  0.1002
 6892SOL     OW27333   1.842   2.989   0.482  0.1291  0.6691 -0.2081
 6892SOL    HW227334   1.794   3.020   0.405  1.0171  0.5441 -0.8185
 6892SOL    HW327335   1.886   2.910   0.453  1.0673  1.0231  0.2190
 6892SOL    MW427336   1.841   2.983   0.468  0.3701  0.6993 -0.2322
 6893SOL     OW27337   2.839   1.249   4.445 -0.4725 -0.3892  0.1989
 6893SOL    HW227338   2.922   1.281   4.481 -0.4433 -1.3313  1.0189
 6893SOL    HW327339   2.864   1.178   4.386 -0.6630 -0.4694  0.2120
 6893SOL    MW427340   2.853   1.244   4.442 -0.4938 -0.5241  0.3088
 6894SOL     OW27341   1.130   6.431   4.203 -0.4230  0.0770 -0.2816
 6894SOL    HW227342   1.067   6.448   4.273 -0.0643 -0.4250  0.1677
 6894SOL    HW327343   1.110   6.342   4.174  1.2558 -0.8049  1.1291
 6894SOL    MW427344   1.119   6.421   4.208 -0.1542 -0.1056 -0.0362
 6895SOL     OW27345   0.776   4.578   1.781  0.3820 -0.1780 -0.0367
 6895SOL    HW227346   0.751   4.489   1.759  0.1053 -0.3730  0.9947
 6895SOL    HW327347   0.705   4.609   1.838  0.4525  0.7143 -0.4156
 6895SOL    MW427348   0.763   4.571   1.786  0.3548 -0.0860  0.0494
 6896SOL     OW27349   5.371   3.313   2.209 -0.2604 -0.3017  0.4501
 6896SOL    HW227350   5.437   3.269   2.155 -0.7961 -0.8744  0.2544
 6896SOL    HW327351   5.346   3.390   2.159  0.1027 -0.1895  0.4329
 6896SOL    MW427352   5.377   3.318   2.196 -0.2832 -0.3625  0.4220
 6897SOL     OW27353   5.116   5.535   2.719 -0.0672  0.2477  0.4173
 6897SOL    HW227354   5.144   5.626   2.710 -3.1000  1.1062 -1.6232
 6897SOL    HW327355   5.036   5.539   2.772 -2.0629 -0.7224 -2.3122
 6897SOL    MW427356   5.110   5.548   2.725 -0.7307  0.2329 -0.2121
 6898SOL     OW27357   5.010   4.933   1.830  0.1230 -0.0921 -0.1018
 6898SOL    HW227358   4.989   4.919   1.738 -0.3379 -1.1207  0.1476
 6898SOL    HW327359   5.023   5.027   1.838 -0.6248  0.1025 -1.0500
 6898SOL    MW427360   5.009   4.943   1.819 -0.0365 -0.2021 -0.1940
 6899SOL     OW27361   0.381   2.537   6.138 -0.5780  0.0801 -0.3460
 6899SOL    HW227362   0.416   2.624   6.160 -1.7045  0.8645 -1.5275
 6899SOL    HW327363   0.329   2.513   6.215  0.7193 -0.1178  0.4988
 6899SOL    MW427364   0.379   2.545   6.151 -0.5554  0.1575 -0.3905
 6900SOL     OW27365   4.851   6.075   3.666 -0.6636 -0.0678  0.1004
 6900SOL    HW227366   4.886   6.003   3.613 -0.4333  1.0380 -1.2900
 6900SOL    HW327367   4.787   6.033   3.724  0.4875 -1.5981  0.3192
 6900SOL    MW427368   4.847   6.060   3.667 -0.4813 -0.1238 -0.0542
 6901SOL     OW27369   2.956   6.112   4.559 -0.1347 -0.0675  0.2021
 6901SOL    HW227370   2.927   6.144   4.473  1.2031  0.4832 -0.0606
 6901SOL    HW327371   3.027   6.170   4.584 -1.2884  0.5557  2.2900
 6901SOL    MW427372   2.961   6.124   4.551 -0.1104  0.0874  0.4429
 6902SOL     OW27373   4.265   2.522   5.038 -0.4201 -0.6326 -0.0089
 6902SOL    HW227374   4.333   2.585   5.062 -1.2491  0.2419  0.1249
 6902SOL    HW327375   4.280   2.447   5.096 -0.2501  0.0096  0.7944
 6902SOL    MW427376   4.276   2.520   5.049 -0.5071 -0.4325  0.1148
 6903SOL     OW27377   1.668   1.502   2.023 -0.4292 -0.4485  0.2623
 6903SOL    HW227378   1.622   1.453   2.090 -1.1332  1.2882  1.1270
 6903SOL    HW327379   1.599   1.549   1.976  0.1367 -0.9134 -1.0820
 6903SOL    MW427380   1.653   1.502   2.026 -0.4474 -0.2807  0.1990
 6904SOL     OW27381   1.586   5.885   1.583  0.3761 -0.4726 -0.1832
 6904SOL    HW227382   1.537   5.803   1.571 -1.3809  0.3058  1.1456
 6904SOL    HW327383   1.526   5.953   1.553  1.4774  0.4029 -0.4433
 6904SOL    MW427384   1.572   5.883   1.577  0.2896 -0.2544 -0.0422
 6905SOL     OW27385   2.756   1.214   5.889 -0.3038  0.2048  0.2090
 6905SOL    HW227386   2.739   1.307   5.904 -2.0138  0.0504 -0.4984
 6905SOL    HW327387   2.791   1.211   5.800  0.1025  0.1926  0.3661
 6905SOL    MW427388   2.759   1.226   5.879 -0.4758  0.1829  0.1364
 6906SOL     OW27389   6.387   5.077   2.060  0.6702 -0.0989 -0.3309
 6906SOL    HW227390   6.364   5.164   2.091  0.3552 -0.2723 -0.0610
 6906SOL    HW327391   6.420   5.090   1.971  1.2804  0.3685 -0.0409
 6906SOL    MW427392   6.388   5.090   2.052  0.7092 -0.0601 -0.2570
 6907SOL     OW27393   5.611   2.822   5.361 -0.1616  0.1049 -0.3689
 6907SOL    HW227394   5.609   2.781   5.275 -0.0292 -1.9682  0.5398
 6907SOL    HW327395   5.519   2.823   5.390 -0.2209  0.8972 -0.5591
 6907SOL    MW427396   5.599   2.817   5.354 -0.1519 -0.0641 -0.2741
 6908SOL     OW27397   2.254   0.432   6.057  0.4079  0.2874  0.2328
 6908SOL    HW227398   2.233   0.524   6.043 -2.3825 -0.3997 -1.0031
 6908SOL    HW327399   2.303   0.430   6.139  0.6222  2.8489  0.2447
 6908SOL    MW427400   2.257   0.444   6.066  0.0680  0.5347  0.0713
 6909SOL     OW27401   4.418   5.791   2.152 -0.2476 -0.2252  0.4554
 6909SOL    HW227402   4.419   5.885   2.133 -1.8649  0.3055  2.6369
 6909SOL    HW327403   4.457   5.784   2.239  2.5573 -1.9964 -0.7749
 6909SOL    MW427404   4.423   5.802   2.161 -0.0909 -0.3889  0.5809
 6910SOL     OW27405   5.678   1.060   4.763 -0.1482 -0.3249 -0.1597
 6910SOL    HW227406   5.764   1.097   4.744 -0.1743 -0.8791 -1.4217
 6910SOL    HW327407   5.634   1.127   4.816  0.8188  0.2242 -0.0239
 6910SOL    MW427408   5.684   1.074   4.768 -0.0241 -0.3256 -0.3083
 6911SOL     OW27409   0.342   2.173   2.480 -0.2431  0.7121 -0.1800
 6911SOL    HW227410   0.385   2.088   2.471  0.1763  1.0513 -1.7253
 6911SOL    HW327411   0.333   2.205   2.390 -0.3673  2.3142  0.3633
 6911SOL    MW427412   0.347   2.166   2.467 -0.2041  0.9682 -0.3122
 6912SOL     OW27413   2.878   0.185   3.748 -0.7099  0.3062  0.1310
 6912SOL    HW227414   2.828   0.265   3.763 -0.3512  0.8151 -1.1999
 6912SOL    HW327415   2.915   0.197   3.660  0.6704 -0.6139  0.5562
 6912SOL    MW427416   2.876   0.197   3.738 -0.4805  0.2519  0.0115
 6913SOL     OW27417   3.486   1.005   0.285 -0.5195 -0.3344  0.3219
 6913SOL    HW227418   3.497   0.914   0.256  1.8633 -0.0479  0.1757
 6913SOL    HW327419   3.405   1.004   0.337 -0.3812 -2.5852  0.5858
 6913SOL    MW427420   3.477   0.993   0.288 -0.1869 -0.5935  0.3375
 6914SOL     OW27421   2.376   2.869   1.170 -0.3320  0.2754  0.5983
 6914SOL    HW227422   2.288   2.836   1.154 -0.1435  0.0714 -0.0736
 6914SOL    HW327423   2.433   2.792   1.158 -0.0291  0.4982  0.5873
 6914SOL    MW427424   2.372   2.854   1.166 -0.2671  0.2779  0.5082
 6915SOL     OW27425   3.334   4.459   2.150 -0.1251 -0.2875 -0.2427
 6915SOL    HW227426   3.400   4.391   2.135  1.2473  0.7258  0.9034
 6915SOL    HW327427   3.347   4.520   2.077 -1.4119 -1.2337 -1.3175
 6915SOL    MW427428   3.345   4.458   2.138 -0.1138 -0.2787 -0.2333
 6916SOL     OW27429   1.007   6.039   0.486 -0.2976 -0.9419 -0.2636
 6916SOL    HW227430   1.065   5.983   0.435 -0.3460 -0.4447 -0.8802
 6916SOL    HW327431   1.066   6.101   0.529 -0.3711 -0.2237 -1.1549
 6916SOL    MW427432   1.022   6.040   0.485 -0.3137 -0.7815 -0.4626
 6917SOL     OW27433   3.996   6.204   0.096 -0.3969 -0.6208  0.2164
 6917SOL    HW227434   4.082   6.164   0.086 -0.8415 -1.5517 -0.0510
 6917SOL    HW327435   4.010   6.297   0.078  0.2827 -0.9861 -1.2839
 6917SOL    MW427436   4.009   6.211   0.092 -0.3659 -0.7918 -0.0169
 6918SOL     OW27437   4.164   5.851   1.173  0.4843  0.3955 -0.3666
 6918SOL    HW227438   4.203   5.909   1.108  2.0613 -0.1206  0.0793
 6918SOL    HW327439   4.131   5.777   1.123  0.1920  0.7710 -0.7372
 6918SOL    MW427440   4.165   5.849   1.158  0.6538  0.3769 -0.3567
 6919SOL     OW27441   1.969   0.276   3.636 -0.3497 -0.2698 -0.5444
 6919SOL    HW227442   1.903   0.307   3.698 -1.4337 -0.3116 -1.6339
 6919SOL    HW327443   2.052   0.289   3.681 -0.9550  1.5623  0.1525
 6919SOL    MW427444   1.971   0.282   3.650 -0.5726 -0.0336 -0.5962
 6920SOL     OW27445   5.851   0.349   1.398 -0.0347  0.0281 -0.2230
 6920SOL    HW227446   5.849   0.260   1.363 -0.1504 -0.8777  1.9256
 6920SOL    HW327447   5.879   0.403   1.325 -0.1239 -1.7475 -1.6365
 6920SOL    MW427448   5.854   0.344   1.384 -0.0618 -0.3257 -0.1260
 6921SOL     OW27449   0.688   0.130   5.882 -0.0234 -0.3224 -0.1250
 6921SOL    HW227450   0.761   0.096   5.830  0.2734  1.4697 -0.9463
 6921SOL    HW327451   0.707   0.102   5.972  0.5790 -1.6255 -0.6387
 6921SOL    MW427452   0.700   0.122   5.887  0.0952 -0.2579 -0.3012
 6922SOL     OW27453   5.209   4.391   5.742 -0.3622  0.2880  0.1076
 6922SOL    HW227454   5.164   4.439   5.672  1.1987  0.6863 -0.6613
 6922SOL    HW327455   5.300   4.418   5.734  0.1327 -0.9893  1.2123
 6922SOL    MW427456   5.215   4.401   5.732 -0.0910  0.1720  0.1519
 6923SOL     OW27457   1.630   1.966   5.756 -0.0659 -0.2914  0.7920
 6923SOL    HW227458   1.606   1.889   5.807 -2.1157  0.0913  0.4986
 6923SOL    HW327459   1.654   2.032   5.821 -1.6476 -0.1312  1.2428
 6923SOL    MW427460   1.630   1.965   5.771 -0.5450 -0.2198  0.8128
 6924SOL     OW27461   3.044   5.659   0.954 -0.0614 -0.0118 -0.1737
 6924SOL    HW227462   3.071   5.625   0.869  0.0187  1.0772 -0.5964
 6924SOL    HW327463   3.048   5.583   1.012 -0.3118 -0.8135 -1.1781
 6924SOL    MW427464   3.048   5.645   0.951 -0.0839  0.0261 -0.3620
 6925SOL     OW27465   1.538   4.134   3.749  0.3938 -0.0617  0.1023
 6925SOL    HW227466   1.626   4.155   3.717  0.2024  0.4098 -0.1239
 6925SOL    HW327467   1.480   4.187   3.695 -0.1046 -1.0898 -0.4033
 6925SOL    MW427468   1.542   4.144   3.738  0.3028 -0.1352  0.0057
 6926SOL     OW27469   3.492   3.476   5.620  0.1502 -0.4923  0.1450
 6926SOL    HW227470   3.451   3.433   5.695  0.0973  0.5102  0.7148
 6926SOL    HW327471   3.523   3.560   5.655 -0.8261  0.4655 -1.2062
 6926SOL    MW427472   3.491   3.482   5.635  0.0144 -0.2337  0.0419
 6927SOL     OW27473   4.572   0.025   2.755  0.0142 -0.1541  0.4730
 6927SOL    HW227474   4.481   0.000   2.770  0.5633 -1.6636  1.6648
 6927SOL    HW327475   4.620  -0.058   2.757  1.2746  0.4553 -1.5360
 6927SOL    MW427476   4.566   0.011   2.757  0.2529 -0.2728  0.3652
 6928SOL     OW27477   3.268   2.011   1.057 -0.4867 -0.3783 -0.1851
 6928SOL    HW227478   3.248   2.013   1.150  3.5127 -2.3904  0.9503
 6928SOL    HW327479   3.312   2.094   1.039 -0.5223 -0.3362 -0.0755
 6928SOL    MW427480   3.271   2.022   1.067  0.0363 -0.6382 -0.0209
 6929SOL     OW27481   0.555   3.865   6.050  0.9571  0.3325  0.2310
 6929SOL    HW227482   0.461   3.879   6.062 -0.0641 -2.6203 -2.8042
 6929SOL    HW327483   0.585   3.941   5.999 -0.1247  0.6173  0.0009
 6929SOL    MW427484   0.547   3.877   6.045  0.6796 -0.0195 -0.1998
 6930SOL     OW27485   3.643   1.749   0.865 -0.0470  0.0220  0.0819
 6930SOL    HW227486   3.555   1.786   0.861 -0.8830 -1.9346 -1.3485
 6930SOL    HW327487   3.648   1.706   0.951  0.1261  1.4411  0.8128
 6930SOL    MW427488   3.632   1.748   0.876 -0.1345 -0.0489 -0.0104
 6931SOL     OW27489   1.951   4.706   5.234  0.3525  0.5472 -0.2490
 6931SOL    HW227490   1.956   4.786   5.287 -0.1290 -0.1568  0.9174
 6931SOL    HW327491   1.858   4.695   5.216  0.3233 -0.1671  0.2887
 6931SOL    MW427492   1.940   4.715   5.239  0.2852  0.3601 -0.0241
 6932SOL     OW27493   4.028   1.365   3.119 -0.0061 -0.1896 -0.4729
 6932SOL    HW227494   4.072   1.418   3.185 -1.7895  1.4252 -0.4891
 6932SOL    HW327495   4.098   1.314   3.078  1.7134  1.7085 -0.0393
 6932SOL    MW427496   4.043   1.365   3.122 -0.0145  0.2739 -0.4178
 6933SOL     OW27497   4.325   3.785   3.361  0.1171  0.0294  0.2142
 6933SOL    HW227498   4.303   3.766   3.452 -0.3641  1.5057  0.4255
 6933SOL    HW327499   4.419   3.806   3.363  0.3863 -1.1004  0.1588
 6933SOL    MW427500   4.335   3.785   3.373  0.0891  0.0751  0.2347
 6934SOL     OW27501   1.680   4.744   5.167 -0.5582 -0.1360 -0.0630
 6934SOL    HW227502   1.657   4.677   5.104 -1.1502 -0.7488  0.7743
 6934SOL    HW327503   1.598   4.762   5.214  0.0315 -0.3226  1.0901
 6934SOL    MW427504   1.666   4.738   5.165 -0.5585 -0.2414  0.1996
 6935SOL     OW27505   2.752   6.127   3.030 -0.1044 -0.3731  0.7648
 6935SOL    HW227506   2.722   6.200   2.976  1.5464  1.5243  2.2511
 6935SOL    HW327507   2.822   6.086   2.979 -1.8747 -1.8036 -0.6276
 6935SOL    MW427508   2.757   6.132   3.016 -0.1202 -0.3115  0.7772
 6936SOL     OW27509   5.137   1.771   2.199  0.4929 -0.6650 -0.3173
 6936SOL    HW227510   5.148   1.866   2.195  0.6097 -0.6315  0.6760
 6936SOL    HW327511   5.138   1.743   2.107  0.4458  0.2907 -0.6170
 6936SOL    MW427512   5.139   1.780   2.186  0.5021 -0.5345 -0.2258
 6937SOL     OW27513   5.922   2.860   2.465 -0.0022 -0.2659 -0.1523
 6937SOL    HW227514   5.955   2.841   2.377  0.6005  0.9443 -0.2121
 6937SOL    HW327515   6.000   2.858   2.520  0.0395  1.4478 -0.0927
 6937SOL    MW427516   5.937   2.857   2.460  0.0828  0.1199 -0.1523
 6938SOL     OW27517   2.831   3.647   0.441 -0.4065  0.4111  0.3615
 6938SOL    HW227518   2.764   3.703   0.480 -0.0585  0.0964  1.4635
 6938SOL    HW327519   2.913   3.694   0.457 -0.2038  0.0026  0.5372
 6938SOL    MW427520   2.833   3.660   0.449 -0.3338  0.3157  0.5301
 6939SOL     OW27521   1.476   6.240   3.355  0.4219  0.7005  0.3326
 6939SOL    HW227522   1.489   6.147   3.375 -1.8075  0.3563  0.4739
 6939SOL    HW327523   1.399   6.241   3.297  1.5177  2.3420 -1.1866
 6939SOL    MW427524   1.467   6.228   3.350  0.2723  0.8716  0.1508
 6940SOL     OW27525   6.128   4.502   1.319 -0.2536 -0.2653 -0.1256
 6940SOL    HW227526   6.104   4.591   1.346 -0.8516  0.0410 -1.5929
 6940SOL    HW327527   6.049   4.450   1.333 -0.4665 -0.1731 -0.9281
 6940SOL    MW427528   6.115   4.507   1.324 -0.3606 -0.2127 -0.4251
 6941SOL     OW27529   2.147   4.584   4.229 -0.1091  0.1117  1.0055
 6941SOL    HW227530   2.133   4.494   4.198 -0.1224 -0.0024  1.3465
 6941SOL    HW327531   2.187   4.628   4.154  1.1300 -0.5105  1.2789
 6941SOL    MW427532   2.150   4.578   4.215  0.0527  0.0145  1.0866
 6942SOL     OW27533   3.531   3.267   4.091  0.3411 -0.1056  0.1300
 6942SOL    HW227534   3.449   3.288   4.048  0.8847 -0.3049 -1.0331
 6942SOL    HW327535   3.579   3.213   4.028  0.4915 -1.8195  1.6133
 6942SOL    MW427536   3.527   3.262   4.077  0.4327 -0.3580  0.1723
 6943SOL     OW27537   0.044   1.626   3.727  0.2522 -0.0359 -0.3121
 6943SOL    HW227538  -0.025   1.561   3.741  0.7527 -0.3962  0.5979
 6943SOL    HW327539   0.125   1.581   3.752  0.5474  1.0904  0.8641
 6943SOL    MW427540   0.046   1.612   3.732  0.3572  0.0651 -0.0368
 6944SOL     OW27541   4.264   2.790   5.769 -0.3621 -0.2740  0.3364
 6944SOL    HW227542   4.304   2.714   5.812 -0.7355 -0.9149 -0.4378
 6944SOL    HW327543   4.329   2.819   5.706  0.4797  1.1009  1.7717
 6944SOL    MW427544   4.278   2.784   5.767 -0.3003 -0.1772  0.4236
 6945SOL     OW27545   0.299   4.446   5.647  0.0394  0.1171  0.8954
 6945SOL    HW227546   0.342   4.373   5.603  0.7669  0.5242  0.9134
 6945SOL    HW327547   0.215   4.411   5.676 -0.3658 -0.2369 -0.6095
 6945SOL    MW427548   0.293   4.432   5.645  0.0819  0.1241  0.6992
 6946SOL     OW27549   3.684   5.081   1.778  0.5076  0.1616 -0.1579
 6946SOL    HW227550   3.729   5.160   1.747 -0.6960  1.1053  0.4065
 6946SOL    HW327551   3.602   5.080   1.729  0.9908 -1.3850 -0.9794
 6946SOL    MW427552   3.679   5.092   1.767  0.4126  0.0820 -0.1919
 6947SOL     OW27553   3.469   4.376   6.353  0.4369  0.5060  0.4434
 6947SOL    HW227554   3.395   4.404   6.299  1.2179  0.3989 -0.7105
 6947SOL    HW327555   3.542   4.430   6.323  1.0230  0.0205  0.9812
 6947SOL    MW427556   3.468   4.387   6.342  0.6173  0.4278  0.3621
 6948SOL     OW27557   0.645   0.030   4.445 -0.3508  0.1658  0.0214
 6948SOL    HW227558   0.731   0.017   4.406 -0.8175 -0.2961 -0.8931
 6948SOL    HW327559   0.617  -0.058   4.471 -0.6303  0.2844  0.1351
 6948SOL    MW427560   0.653   0.016   4.443 -0.4492  0.1205 -0.0842
 6949SOL     OW27561   5.331   1.794   1.247  0.0066 -0.1529 -0.1800
 6949SOL    HW227562   5.426   1.794   1.236 -0.0914 -1.0373 -1.1907
 6949SOL    HW327563   5.317   1.831   1.334  1.2379  0.5794 -0.2712
 6949SOL    MW427564   5.342   1.799   1.257  0.1561 -0.1730 -0.3254
 6950SOL     OW27565   0.381   5.592   0.931 -0.4110 -0.3533  0.4782
 6950SOL    HW227566   0.322   5.663   0.956  0.3546  0.1958  0.7559
 6950SOL    HW327567   0.393   5.542   1.012 -0.5497 -0.5069  0.4044
 6950SOL    MW427568   0.374   5.595   0.945 -0.3283 -0.3011  0.5051
 6951SOL     OW27569   0.263   3.618   0.885 -0.1713 -0.1014 -0.0018
 6951SOL    HW227570   0.277   3.555   0.955 -0.9486 -0.1642  0.1137
 6951SOL    HW327571   0.348   3.628   0.843  0.5277  0.6678  1.5519
 6951SOL    MW427572   0.276   3.611   0.889 -0.1816 -0.0082  0.2184
 6952SOL     OW27573   0.341   2.446   3.945 -0.0206  0.1090  0.0863
 6952SOL    HW227574   0.329   2.372   3.886 -1.8688  0.0056  0.5271
 6952SOL    HW327575   0.358   2.521   3.888 -1.8039  0.0115 -0.6094
 6952SOL    MW427576   0.342   2.446   3.930 -0.4997  0.0825  0.0527
 6953SOL     OW27577   1.244   1.041   4.979 -0.6001  0.3070  0.3228
 6953SOL    HW227578   1.214   1.132   4.987  0.0464  0.4477  1.4039
 6953SOL    HW327579   1.216   1.000   5.061 -0.8171 -0.4591 -0.1253
 6953SOL    MW427580   1.236   1.047   4.991 -0.5434  0.2244  0.4063
 6954SOL     OW27581   6.014   2.636   4.127  0.0826 -0.4255  0.2512
 6954SOL    HW227582   6.051   2.691   4.058 -1.5926 -0.8156 -1.0164
 6954SOL    HW327583   5.954   2.693   4.174  0.3811 -0.4636  0.6867
 6954SOL    MW427584   6.011   2.651   4.124 -0.0990 -0.4820  0.1414
 6955SOL     OW27585   4.504   3.467   5.007  0.3200  0.0454  0.4968
 6955SOL    HW227586   4.455   3.449   4.926  1.3449 -0.3481 -0.0609
 6955SOL    HW327587   4.445   3.440   5.077 -0.5198  0.2187 -0.1282
 6955SOL    MW427588   4.490   3.461   5.005  0.3444  0.0164  0.3408
 6956SOL     OW27589   1.414   4.523   3.908 -0.1728 -0.0757 -0.2462
 6956SOL    HW227590   1.405   4.618   3.900 -0.5530 -0.0943 -0.0561
 6956SOL    HW327591   1.338   4.488   3.861  0.9719 -0.3390 -1.9622
 6956SOL    MW427592   1.402   4.531   3.901 -0.0719 -0.1129 -0.4475
 6957SOL     OW27593   3.886   2.371   0.742 -0.0573 -0.2475  0.6738
 6957SOL    HW227594   3.976   2.359   0.714 -0.3063 -1.4839  0.3773
 6957SOL    HW327595   3.833   2.347   0.666 -0.6499  0.8404  0.7079
 6957SOL    MW427596   3.891   2.366   0.728 -0.1684 -0.2671  0.6392
 6958SOL     OW27597   4.212   1.159   4.877  0.1069  0.2807  0.5701
 6958SOL    HW227598   4.232   1.067   4.861 -1.6717 -0.4981  2.3663
 6958SOL    HW327599   4.207   1.198   4.790  1.2224 -1.2132 -0.2191
 6958SOL    MW427600   4.214   1.152   4.864  0.0194 -0.0192  0.7029
 6959SOL     OW27601   0.923   2.725   2.129  0.2712  0.5235  0.2239
 6959SOL    HW227602   1.013   2.693   2.140  0.7065  1.2577 -1.0046
 6959SOL    HW327603   0.892   2.681   2.049 -0.0132  1.2207 -0.0576
 6959SOL    MW427604   0.931   2.715   2.120  0.2911  0.7124  0.0246
 6960SOL     OW27605   2.863   5.625   5.520 -0.1401  0.2863 -0.5664
 6960SOL    HW227606   2.938   5.679   5.545 -1.5675  2.1187 -0.0291
 6960SOL    HW327607   2.800   5.686   5.482 -2.3697 -0.7107  1.2309
 6960SOL    MW427608   2.865   5.640   5.518 -0.6226  0.3965 -0.2584
 6961SOL     OW27609   3.274   2.265   2.079 -0.1677  0.3074 -0.1115
 6961SOL    HW227610   3.339   2.227   2.137 -1.9167 -0.7667  1.2646
 6961SOL    HW327611   3.241   2.342   2.125 -1.1730 -0.2275  0.0890
 6961SOL    MW427612   3.278   2.270   2.093 -0.5311  0.0951  0.0965
 6962SOL     OW27613   1.484   0.722   3.703 -0.1239 -0.7745 -0.5329
 6962SOL    HW227614   1.399   0.683   3.723 -0.8326  0.6321 -0.6991
 6962SOL    HW327615   1.467   0.816   3.695  1.4519 -0.4531 -0.5473
 6962SOL    MW427616   1.471   0.729   3.704 -0.0095 -0.5465 -0.5567
 6963SOL     OW27617   0.604   1.946   4.453  0.1175 -0.0200 -0.5373
 6963SOL    HW227618   0.662   2.014   4.419  0.4345  0.8220  1.5271
 6963SOL    HW327619   0.641   1.924   4.538 -1.4929 -0.8842 -0.0167
 6963SOL    MW427620   0.617   1.952   4.460 -0.0531 -0.0229 -0.1962
 6964SOL     OW27621   6.234   2.396   6.310 -0.5542 -0.2396  0.3061
 6964SOL    HW227622   6.313   2.364   6.354  0.4020 -0.2727 -1.3278
 6964SOL    HW327623   6.235   2.490   6.322 -0.2521 -0.2408  0.2922
 6964SOL    MW427624   6.244   2.404   6.317 -0.3882 -0.2441  0.0887
 6965SOL     OW27625   3.958   6.096   3.687 -0.3113  0.0679 -0.2257
 6965SOL    HW227626   3.921   6.084   3.599 -1.3626  0.2149  0.1828
 6965SOL    HW327627   3.951   6.010   3.728  2.2521 -0.6041 -1.0118
 6965SOL    MW427628   3.953   6.083   3.680 -0.1118 -0.0014 -0.2756
 6966SOL     OW27629   3.630   4.919   2.369  0.2399 -0.5382  0.3070
 6966SOL    HW227630   3.678   4.940   2.449 -1.4810  0.2945  1.1608
 6966SOL    HW327631   3.641   4.824   2.360  0.2959 -0.6866  1.6543
 6966SOL    MW427632   3.638   4.909   2.379  0.0202 -0.4479  0.5974
 6967SOL     OW27633   1.242   4.557   2.735 -0.1903 -0.2356  0.0053
 6967SOL    HW227634   1.238   4.598   2.821 -0.6009  0.3958 -0.3120
 6967SOL    HW327635   1.206   4.622   2.675 -1.0723 -1.1372 -0.4743
 6967SOL    MW427636   1.236   4.571   2.739 -0.3608 -0.2712 -0.0999
 6968SOL     OW27637   3.497   0.794   0.524  0.6310 -0.4822  0.2097
 6968SOL    HW227638   3.488   0.703   0.550 -0.3662 -0.1910  0.9739
 6968SOL    HW327639   3.585   0.801   0.487  0.5248 -1.8532 -0.3154
 6968SOL    MW427640   3.507   0.783   0.523  0.4854 -0.6247  0.2412
 6969SOL     OW27641   3.775   2.246   0.138  0.0426 -0.9013  0.2184
 6969SOL    HW227642   3.691   2.248   0.093  0.0555  1.3064  0.1913
 6969SOL    HW327643   3.804   2.337   0.140  2.5741 -1.6083 -0.0026
 6969SOL    MW427644   3.768   2.258   0.133  0.3783 -0.7033  0.1857
 6970SOL     OW27645   6.013   4.630   4.976  0.0375  0.2802 -0.0985
 6970SOL    HW227646   6.030   4.656   4.885  1.5956  0.2038  0.1538
 6970SOL    HW327647   5.943   4.689   5.004 -1.0201 -0.2054 -1.5663
 6970SOL    MW427648   6.006   4.642   4.968  0.1035  0.2061 -0.2589
 6971SOL     OW27649   1.901   4.859   0.005 -0.4034  0.2528 -0.2055
 6971SOL    HW227650   1.882   4.839   0.096 -0.8810 -0.5424 -0.4689
 6971SOL    HW327651   1.818   4.843  -0.041  0.2777 -1.0564 -1.0385
 6971SOL    MW427652   1.888   4.854   0.011 -0.3766 -0.0248 -0.3502
 6972SOL     OW27653   2.318   3.942   2.223 -0.1370 -0.0333  0.2951
 6972SOL    HW227654   2.327   3.903   2.137 -1.1965 -0.3370  0.3052
 6972SOL    HW327655   2.225   3.931   2.245 -0.2536  1.5659  0.7406
 6972SOL    MW427656   2.307   3.935   2.215 -0.2922  0.1377  0.3552
 6973SOL     OW27657   5.774   6.384   0.927 -0.3265 -0.4487  0.7523
 6973SOL    HW227658   5.723   6.318   0.880 -0.8990  0.4033  0.1512
 6973SOL    HW327659   5.785   6.347   1.015  0.6798 -2.0267  0.0214
 6973SOL    MW427660   5.769   6.370   0.933 -0.2692 -0.5445  0.5766
 6974SOL     OW27661   3.874   5.520   5.076  0.2944 -0.2051 -0.2294
 6974SOL    HW227662   3.813   5.542   5.146 -0.7665  0.0889 -1.2237
 6974SOL    HW327663   3.863   5.589   5.011  1.2863 -0.4513 -0.6839
 6974SOL    MW427664   3.864   5.532   5.076  0.2853 -0.1988 -0.4206
 6975SOL     OW27665   4.047   3.234   2.077 -0.0814  0.3195  0.0932
 6975SOL    HW227666   4.110   3.287   2.127 -1.4696  0.1447  2.1676
 6975SOL    HW327667   4.076   3.144   2.090  0.7845  0.3960 -1.2444
 6975SOL    MW427668   4.059   3.229   2.086 -0.1503  0.3065  0.1904
 6976SOL     OW27669   1.101   0.987   0.531  0.3951  0.0470  0.2102
 6976SOL    HW227670   1.039   1.029   0.471 -0.7399  0.7224  1.7865
 6976SOL    HW327671   1.105   0.896   0.501  0.5000  0.5440 -1.3624
 6976SOL    MW427672   1.093   0.980   0.519  0.2592  0.2017  0.2107
 6977SOL     OW27673   3.427   3.434   6.001  0.1062  0.5603 -0.0944
 6977SOL    HW227674   3.358   3.373   6.027 -0.5432  1.9243  1.5964
 6977SOL    HW327675   3.497   3.417   6.064 -0.3219  1.9329  0.7813
 6977SOL    MW427676   3.427   3.423   6.013 -0.0360  0.9214  0.2442
 6978SOL     OW27677   1.459   5.282   5.869  0.7244  0.1183  0.2445
 6978SOL    HW227678   1.384   5.257   5.923 -0.5117  1.2803 -0.8305
 6978SOL    HW327679   1.509   5.343   5.924  1.6020 -1.5921  1.4170
 6978SOL    MW427680   1.455   5.287   5.883  0.6771  0.0460  0.2574
 6979SOL     OW27681   6.253   3.780   3.603 -0.0096 -0.1330  0.6380
 6979SOL    HW227682   6.326   3.841   3.589 -0.0061 -0.2122  0.3234
 6979SOL    HW327683   6.184   3.811   3.544 -0.0580 -0.3512  0.5815
 6979SOL    MW427684   6.254   3.792   3.594 -0.0155 -0.1722  0.5890
 6980SOL     OW27685   6.320   5.339   3.601 -0.3671 -0.0442 -0.4468
 6980SOL    HW227686   6.349   5.341   3.692  0.0237 -2.5019 -0.4420
 6980SOL    HW327687   6.245   5.280   3.601 -0.6582  0.2985 -1.6417
 6980SOL    MW427688   6.314   5.331   3.613 -0.3540 -0.3233 -0.6038
 6981SOL     OW27689   4.933   0.436   1.376 -0.9240 -0.0498  0.0595
 6981SOL    HW227690   4.867   0.460   1.441  0.5152 -3.4146  3.1262
 6981SOL    HW327691   4.884   0.422   1.295 -3.5106  0.3600  1.4655
 6981SOL    MW427692   4.918   0.437   1.374 -1.0754 -0.4397  0.6497
 6982SOL     OW27693   1.436   0.246   5.763  0.4401 -0.4231  0.0859
 6982SOL    HW227694   1.387   0.328   5.776 -2.0220 -1.3898 -2.2974
 6982SOL    HW327695   1.434   0.204   5.849 -0.6527  0.7731  0.6865
 6982SOL    MW427696   1.429   0.251   5.776 -0.0289 -0.3928 -0.1493
 6983SOL     OW27697   5.710   1.562   4.599  0.2999 -0.4093 -0.0468
 6983SOL    HW227698   5.655   1.630   4.637 -1.1818 -0.2939 -2.1875
 6983SOL    HW327699   5.757   1.605   4.528 -1.4827 -1.7328 -2.1564
 6983SOL    MW427700   5.709   1.577   4.595 -0.1308 -0.5687 -0.6076
 6984SOL     OW27701   5.948   4.619   0.687 -0.3942  0.4784  0.5069
 6984SOL    HW227702   5.921   4.558   0.755 -0.1976 -0.3937 -0.1735
 6984SOL    HW327703   5.868   4.638   0.638 -0.2087 -0.3576 -0.1441
 6984SOL    MW427704   5.934   4.614   0.689 -0.3438  0.2530  0.3313
 6985SOL     OW27705   2.376   1.419   3.442  0.5327  0.2165  0.4648
 6985SOL    HW227706   2.321   1.497   3.431  3.1814  1.9341 -2.5564
 6985SOL    HW327707   2.331   1.351   3.393 -0.0702  0.8968  0.0435
 6985SOL    MW427708   2.363   1.421   3.434  0.8026  0.5329  0.0106
 6986SOL     OW27709   2.664   3.092   3.091  0.3150  0.0985 -0.2720
 6986SOL    HW227710   2.718   3.042   3.152  3.4434  1.9154 -1.3455
 6986SOL    HW327711   2.619   3.157   3.146 -0.8988 -1.4412  0.6361
 6986SOL    MW427712   2.665   3.094   3.106  0.5676  0.1351 -0.2938
 6987SOL     OW27713   0.800   5.618   2.273 -0.0254  0.2107 -0.3500
 6987SOL    HW227714   0.791   5.650   2.184 -1.2148  0.0753 -0.2836
 6987SOL    HW327715   0.833   5.528   2.264 -0.6191  0.0260 -0.6648
 6987SOL    MW427716   0.803   5.610   2.260 -0.2607  0.1684 -0.3828
 6988SOL     OW27717   1.054   3.304   4.790  0.3487 -0.2754 -0.7250
 6988SOL    HW227718   1.090   3.356   4.719 -0.6462  1.7866  0.1836
 6988SOL    HW327719   0.967   3.277   4.760 -0.0867  0.6268 -0.3332
 6988SOL    MW427720   1.047   3.307   4.777  0.1600  0.1157 -0.5534
 6989SOL     OW27721   4.161   5.712   5.357  0.6294 -0.1284  0.4260
 6989SOL    HW227722   4.182   5.804   5.367  2.1119 -0.4943  0.8602
 6989SOL    HW327723   4.078   5.701   5.405 -0.3439  1.2295 -0.8495
 6989SOL    MW427724   4.153   5.722   5.365  0.6965  0.0025  0.3150
 6990SOL     OW27725   3.396   4.896   3.060  0.1316  0.8608 -0.3724
 6990SOL    HW227726   3.311   4.856   3.078  0.4797  0.1239 -0.3278
 6990SOL    HW327727   3.459   4.843   3.109  0.8159  0.3053 -1.7799
 6990SOL    MW427728   3.393   4.884   3.069  0.2678  0.6903 -0.5522
 6991SOL     OW27729   0.908   0.029   1.776 -0.2730  0.4910 -0.1768
 6991SOL    HW227730   0.979   0.046   1.715  0.3640  0.0332  0.4137
 6991SOL    HW327731   0.830   0.018   1.721  0.6460 -2.0841 -1.1150
 6991SOL    MW427732   0.907   0.030   1.761 -0.0677  0.0908 -0.2227
 6992SOL     OW27733   3.304   3.688   5.145  0.7457 -0.1724 -0.3829
 6992SOL    HW227734   3.269   3.601   5.126 -2.2174  0.5175  1.2349
 6992SOL    HW327735   3.307   3.691   5.241  2.9962  0.7653 -0.4289
 6992SOL    MW427736   3.299   3.677   5.155  0.6517  0.0423 -0.1755
 6993SOL     OW27737   3.106   4.279   1.585 -0.6255  0.4577 -0.1396
 6993SOL    HW227738   3.151   4.236   1.658  0.7836  0.4214 -0.9948
 6993SOL    HW327739   3.062   4.208   1.539 -2.2620  0.5842  1.1254
 6993SOL    MW427740   3.106   4.264   1.589 -0.6555  0.4696 -0.0855
 6994SOL     OW27741   3.846   3.811   5.077  0.4041  0.1064  0.5390
 6994SOL    HW227742   3.773   3.761   5.114  0.2246  1.8194  2.7336
 6994SOL    HW327743   3.804   3.883   5.030  0.6746  0.1365  0.3408
 6994SOL    MW427744   3.831   3.814   5.076  0.4161  0.3364  0.8024
 6995SOL     OW27745   1.199   2.313   4.339 -0.2460 -0.3969  0.3029
 6995SOL    HW227746   1.139   2.336   4.268 -0.1939  1.5250  0.8319
 6995SOL    HW327747   1.219   2.397   4.381  1.3605 -1.2413  1.2869
 6995SOL    MW427748   1.194   2.327   4.335 -0.0271 -0.2547  0.5025
 6996SOL     OW27749   3.452   2.650   5.537 -0.0242  0.1870  0.0410
 6996SOL    HW227750   3.420   2.679   5.452 -0.8228 -1.4202 -0.2459
 6996SOL    HW327751   3.519   2.585   5.517  1.0810  1.1062  0.6566
 6996SOL    MW427752   3.457   2.645   5.523  0.0163  0.0962  0.0843
 6997SOL     OW27753   5.205   3.763   1.487 -0.0725  0.4574  0.7816
 6997SOL    HW227754   5.210   3.853   1.456 -0.2912  1.0766  2.4603
 6997SOL    HW327755   5.296   3.733   1.487 -0.2333 -0.9531 -4.0348
 6997SOL    MW427756   5.218   3.771   1.483 -0.1226  0.3530  0.3676
 6998SOL     OW27757   6.017   5.461   2.886 -0.0929 -0.3762 -0.2140
 6998SOL    HW227758   6.039   5.485   2.976 -1.6915  2.0204 -0.3841
 6998SOL    HW327759   5.957   5.387   2.895 -2.4286  1.5209  0.9234
 6998SOL    MW427760   6.012   5.454   2.899 -0.6120  0.1903 -0.0864
 6999SOL     OW27761   2.937   5.414   1.438 -0.4848  0.0904  0.0634
 6999SOL    HW227762   2.875   5.486   1.428 -1.0026 -0.3198  0.2465
 6999SOL    HW327763   2.882   5.338   1.456 -0.1052 -0.7760 -2.1607
 6999SOL    MW427764   2.922   5.413   1.439 -0.5030 -0.0780 -0.2059
 7000SOL     OW27765   4.685   2.601   2.271  0.2463 -0.3475  0.1355
 7000SOL    HW227766   4.660   2.592   2.363  0.9353 -2.0416  0.1838
 7000SOL    HW327767   4.662   2.516   2.232  3.4065 -1.0888 -0.3967
 7000SOL    MW427768   4.678   2.588   2.278  0.7542 -0.6688  0.0716
 7001SOL     OW27769   4.955   3.143   5.992  0.5464  0.2971  0.3019
 7001SOL    HW227770   4.879   3.106   6.037  0.4030  0.6700  0.3748
 7001SOL    HW327771   5.020   3.073   5.991  0.3792  0.1366  0.6763
 7001SOL    MW427772   4.953   3.129   5.998  0.5054  0.3251  0.3609
 7002SOL     OW27773   1.707   0.135   4.087 -0.3146 -0.1647 -0.2078
 7002SOL    HW227774   1.696   0.048   4.049 -1.5139 -0.2354  0.2559
 7002SOL    HW327775   1.640   0.141   4.155  1.3680  0.1680  1.5384
 7002SOL    MW427776   1.697   0.125   4.091 -0.2509 -0.1301  0.0838
 7003SOL     OW27777   1.750   1.267   4.097 -0.4280 -0.7992  0.1591
 7003SOL    HW227778   1.687   1.217   4.045 -1.1111 -0.0391  0.2193
 7003SOL    HW327779   1.710   1.272   4.184  0.0060 -0.8158  0.3596
 7003SOL    MW427780   1.736   1.261   4.102 -0.4609 -0.7011  0.1935
 7004SOL     OW27781   3.087   6.077   1.749  0.1819  0.3048 -0.0482
 7004SOL    HW227782   3.155   6.061   1.683 -2.4225 -2.5281 -2.3319
 7004SOL    HW327783   3.023   6.132   1.703 -1.4137 -1.2493  0.2208
 7004SOL    MW427784   3.088   6.082   1.734 -0.3722 -0.2740 -0.3140
 7005SOL     OW27785   3.448   1.647   5.264 -0.1584 -0.0042 -0.2979
 7005SOL    HW227786   3.468   1.678   5.175 -0.5096  0.2007 -0.3049
 7005SOL    HW327787   3.355   1.664   5.275 -0.1603 -0.2235  0.0364
 7005SOL    MW427788   3.439   1.653   5.254 -0.2050 -0.0061 -0.2547
 7006SOL     OW27789   3.367   5.148   3.700 -0.5329 -0.2499 -0.4818
 7006SOL    HW227790   3.431   5.217   3.719  1.6689 -2.0037 -1.0550
 7006SOL    HW327791   3.293   5.167   3.757  0.6076  1.7386  0.4273
 7006SOL    MW427792   3.366   5.160   3.710 -0.0920 -0.2190 -0.4375
 7007SOL     OW27793   2.173   5.746   1.358 -0.2871 -0.2784 -0.4745
 7007SOL    HW227794   2.247   5.788   1.314  1.1925 -0.9683  1.2154
 7007SOL    HW327795   2.175   5.656   1.325 -0.5870 -0.2167 -0.6641
 7007SOL    MW427796   2.183   5.739   1.348 -0.1315 -0.3612 -0.2765
 7008SOL     OW27797   0.412   0.971   2.036 -0.0118  0.3142 -0.2392
 7008SOL    HW227798   0.424   0.925   1.953 -1.4967  0.0706 -0.3445
 7008SOL    HW327799   0.369   1.053   2.013  0.7843  0.8570  0.1666
 7008SOL    MW427800   0.408   0.975   2.022 -0.1027  0.3537 -0.1996
 7009SOL     OW27801   1.765   0.866   0.810  0.5993 -0.4929  0.0172
 7009SOL    HW227802   1.675   0.835   0.808  0.4548 -0.0920  0.1099
 7009SOL    HW327803   1.781   0.900   0.722  1.1448 -1.8842 -0.4416
 7009SOL    MW427804   1.755   0.867   0.798  0.6522 -0.6236 -0.0311
 7010SOL     OW27805   0.855   4.432   6.298  0.2181  0.2261 -1.1566
 7010SOL    HW227806   0.930   4.446   6.356  0.9827  0.6327 -2.2271
 7010SOL    HW327807   0.871   4.348   6.257 -1.2163 -0.9388  0.4987
 7010SOL    MW427808   0.867   4.423   6.300  0.1297  0.1260 -1.0795
 7011SOL     OW27809   5.171   3.617   3.012 -0.0952 -0.1309 -0.3635
 7011SOL    HW227810   5.217   3.655   3.087 -1.8712 -0.3556  0.8865
 7011SOL    HW327811   5.223   3.644   2.936  0.8105  1.5468  0.7979
 7011SOL    MW427812   5.184   3.626   3.012 -0.2100  0.0608 -0.0454
 7012SOL     OW27813   2.005   5.424   4.056 -0.3575  0.0572  0.1819
 7012SOL    HW227814   1.940   5.485   4.093 -1.7936 -0.0076 -2.0781
 7012SOL    HW327815   2.089   5.470   4.068 -1.2462  1.9260 -0.2803
 7012SOL    MW427816   2.008   5.438   4.062 -0.6642  0.2952 -0.1773
 7013SOL     OW27817   2.456   4.771   4.408 -0.2039  0.2895 -0.0905
 7013SOL    HW227818   2.534   4.725   4.377 -0.6153  0.8334 -2.0647
 7013SOL    HW327819   2.394   4.701   4.429 -0.1872 -0.1099 -1.2973
 7013SOL    MW427820   2.458   4.756   4.407 -0.2560  0.3085 -0.5102
 7014SOL     OW27821   1.527   1.974   1.802 -0.3707  0.3459  0.8954
 7014SOL    HW227822   1.512   1.888   1.841  0.5975  0.3179  1.2219
 7014SOL    HW327823   1.583   2.020   1.865  0.2835  0.7053  0.0649
 7014SOL    MW427824   1.532   1.969   1.816 -0.1567  0.3896  0.8289
 7015SOL     OW27825   2.899   4.919   5.273  0.2854  0.1075  0.4360
 7015SOL    HW227826   2.986   4.960   5.269  0.5449 -0.4699  0.0456
 7015SOL    HW327827   2.870   4.916   5.182  0.6551 -1.3803  0.3423
 7015SOL    MW427828   2.907   4.924   5.261  0.3684 -0.1650  0.3722
 7016SOL     OW27829   5.898   3.071   1.978 -0.3836 -0.5940 -0.2838
 7016SOL    HW227830   5.890   3.048   2.070 -0.6377 -1.5845 -0.5303
 7016SOL    HW327831   5.925   3.163   1.977 -0.1301 -0.6510  0.7686
 7016SOL    MW427832   5.900   3.080   1.990 -0.3837 -0.7322 -0.1774
 7017SOL     OW27833   0.496   2.216   3.658  0.1330 -0.2780 -0.5880
 7017SOL    HW227834   0.544   2.155   3.602 -0.1600 -1.1859  0.1442
 7017SOL    HW327835   0.410   2.176   3.670 -0.0755  0.2941 -0.1217
 7017SOL    MW427836   0.491   2.203   3.652  0.0668 -0.3223 -0.4298
 7018SOL     OW27837   5.920   5.349   3.233 -0.6697 -0.3208 -0.0200
 7018SOL    HW227838   5.851   5.320   3.294 -0.2132 -2.3092 -0.3796
 7018SOL    HW327839   5.887   5.324   3.147  1.2207 -3.0888 -0.0748
 7018SOL    MW427840   5.906   5.341   3.230 -0.3601 -0.9483 -0.0747
 7019SOL     OW27841   5.146   4.505   5.219  0.0791  0.2059 -0.2392
 7019SOL    HW227842   5.062   4.549   5.206  1.3984  2.6680 -1.0822
 7019SOL    HW327843   5.147   4.436   5.152 -2.0010 -1.2083  1.0490
 7019SOL    MW427844   5.135   4.501   5.208 -0.0213  0.3441 -0.1805
 7020SOL     OW27845   5.451   3.756   3.919  0.1492 -0.5214 -0.0498
 7020SOL    HW227846   5.514   3.787   3.854  0.3371  0.3225  0.5279
 7020SOL    HW327847   5.501   3.695   3.974  0.0906 -0.9296 -0.4386
 7020SOL    MW427848   5.466   3.752   3.917  0.1663 -0.4639 -0.0249
 7021SOL     OW27849   3.895   3.898   1.981 -0.0209 -0.5991 -0.0298
 7021SOL    HW227850   3.899   3.802   1.985  0.9451 -0.5306  1.2300
 7021SOL    HW327851   3.987   3.925   1.975 -0.3179  0.1977 -3.9371
 7021SOL    MW427852   3.908   3.889   1.981  0.0674 -0.4850 -0.3791
 7022SOL     OW27853   5.548   5.306   5.789  0.5782  0.0556  0.7065
 7022SOL    HW227854   5.536   5.213   5.808 -0.4358  0.0637  0.1946
 7022SOL    HW327855   5.622   5.309   5.729  1.0128 -0.3656  1.2222
 7022SOL    MW427856   5.556   5.294   5.783  0.5018  0.0011  0.7070
 7023SOL     OW27857   5.800   6.279   2.690 -0.0588 -0.1292 -0.2184
 7023SOL    HW227858   5.857   6.212   2.653  1.3497  1.2758 -0.6763
 7023SOL    HW327859   5.855   6.356   2.699 -1.6324  0.9951  0.2903
 7023SOL    MW427860   5.815   6.280   2.686 -0.0806  0.2045 -0.2117
 7024SOL     OW27861   2.362   4.655  -0.003  0.1316 -0.3784 -0.0546
 7024SOL    HW227862   2.425   4.705  -0.055 -0.8043  0.1427 -0.7052
 7024SOL    HW327863   2.366   4.695   0.084 -0.1888  0.4608 -0.4205
 7024SOL    MW427864   2.371   4.667   0.002 -0.0341 -0.1990 -0.1888
 7025SOL     OW27865   5.481   3.752   2.379 -0.4059  0.4878  0.0806
 7025SOL    HW227866   5.573   3.762   2.355 -0.8153  2.9778 -0.8339
 7025SOL    HW327867   5.433   3.768   2.298 -1.6890  2.3900  1.1276
 7025SOL    MW427868   5.487   3.756   2.365 -0.6292  1.0673  0.0981
 7026SOL     OW27869   1.803   0.526   2.364  0.6874  0.2084  0.1911
 7026SOL    HW227870   1.882   0.471   2.360  1.0299  0.7039  0.0909
 7026SOL    HW327871   1.732   0.464   2.383  1.0167 -0.3133 -0.2424
 7026SOL    MW427872   1.804   0.511   2.366  0.7760  0.2050  0.1207
 7027SOL     OW27873   0.002   6.277   0.117  0.4722 -0.1263  0.2180
 7027SOL    HW227874   0.059   6.336   0.166 -0.3093  0.1146  0.8480
 7027SOL    HW327875   0.048   6.193   0.118  1.3228  0.3119 -0.2099
 7027SOL    MW427876   0.016   6.274   0.123  0.4813 -0.0367  0.2447
 7028SOL     OW27877   2.287   0.539   0.514 -0.0475 -0.2096  1.1494
 7028SOL    HW227878   2.363   0.483   0.499 -0.3874 -0.1867 -1.0724
 7028SOL    HW327879   2.264   0.571   0.426 -1.8904  0.7268  1.9268
 7028SOL    MW427880   2.294   0.536   0.500 -0.3355 -0.0831  0.9588
 7029SOL     OW27881   6.263   1.461   3.744  0.0955  0.1010 -0.5335
 7029SOL    HW227882   6.240   1.386   3.690 -0.0496 -0.2082 -0.0542
 7029SOL    HW327883   6.229   1.439   3.831  2.1310 -0.3164  0.1883
 7029SOL    MW427884   6.255   1.448   3.749  0.3449  0.0051 -0.3750
 7030SOL     OW27885   4.215   5.158   4.425 -0.3520  0.3623 -0.0920
 7030SOL    HW227886   4.165   5.145   4.506 -0.9184  0.2988 -0.4456
 7030SOL    HW327887   4.236   5.251   4.425  0.2612  0.2292  0.4750
 7030SOL    MW427888   4.211   5.169   4.436 -0.3458  0.3363 -0.0638
 7031SOL     OW27889   6.049   1.000   5.189  0.0492  0.2864 -0.3124
 7031SOL    HW227890   5.964   0.956   5.183  0.3629 -0.5675  1.0376
 7031SOL    HW327891   6.064   1.008   5.283  1.4451  0.4733 -0.5415
 7031SOL    MW427892   6.040   0.995   5.201  0.2747  0.1984 -0.1645
 7032SOL     OW27893   5.726   1.969   1.272 -1.0698  0.1937  0.2412
 7032SOL    HW227894   5.799   2.028   1.253 -1.6398  0.2348 -1.9905
 7032SOL    HW327895   5.760   1.881   1.253 -1.4939  0.1832 -0.4851
 7032SOL    MW427896   5.740   1.965   1.267 -1.2010  0.1978 -0.1491
 7033SOL     OW27897   4.932   6.390  -0.008  0.8354 -0.3444 -0.6358
 7033SOL    HW227898   4.899   6.323   0.052  0.1518 -2.4611 -3.2030
 7033SOL    HW327899   4.893   6.471   0.023 -0.1931 -1.4655  1.2181
 7033SOL    MW427900   4.923   6.392   0.004  0.6095 -0.7716 -0.7299
 7034SOL     OW27901   1.820   1.499   5.621 -0.6997  0.0076  0.5328
 7034SOL    HW227902   1.788   1.577   5.576 -0.7571 -0.5980 -0.5060
 7034SOL    HW327903   1.907   1.484   5.583 -1.1890 -1.1306 -0.1948
 7034SOL    MW427904   1.827   1.507   5.610 -0.7718 -0.2225  0.2997
 7035SOL     OW27905   4.003   1.712   3.214 -0.4384  0.2243 -0.1932
 7035SOL    HW227906   4.052   1.639   3.253  0.8134  0.0918 -1.9202
 7035SOL    HW327907   4.060   1.788   3.226 -0.5533  0.3995 -0.7541
 7035SOL    MW427908   4.017   1.713   3.221 -0.2884  0.2300 -0.4951
 7036SOL     OW27909   1.464   5.752   3.056 -0.0118 -0.0185  0.0676
 7036SOL    HW227910   1.467   5.839   3.015 -1.1085 -0.3396 -0.7415
 7036SOL    HW327911   1.552   5.717   3.045  0.4123  0.9422  0.2979
 7036SOL    MW427912   1.476   5.759   3.049 -0.1005  0.0659 -0.0087
 7037SOL     OW27913   1.285   2.660   4.830 -0.5835  0.3374 -0.3709
 7037SOL    HW227914   1.314   2.642   4.919 -0.6242 -2.4398 -0.8110
 7037SOL    HW327915   1.231   2.584   4.807  0.0044  0.6236 -2.9872
 7037SOL    MW427916   1.282   2.648   4.839 -0.5113  0.0088 -0.7742
 7038SOL     OW27917   1.429   2.795   1.671  0.3516  0.0510 -0.1163
 7038SOL    HW227918   1.498   2.857   1.696  0.2654 -0.3498  1.1847
 7038SOL    HW327919   1.362   2.849   1.629  1.3853  0.4599 -1.3035
 7038SOL    MW427920   1.429   2.810   1.669  0.4766  0.0520 -0.1013
 7039SOL     OW27921   3.736   3.051   4.893 -0.0687  0.2989 -0.4983
 7039SOL    HW227922   3.679   3.031   4.819  1.1535 -2.8715 -0.7417
 7039SOL    HW327923   3.731   3.146   4.902 -2.3607  0.5278 -2.8981
 7039SOL    MW427924   3.728   3.061   4.884 -0.2098 -0.0892 -0.8470
 7040SOL     OW27925   1.897   2.721   0.860  0.1893 -0.4192 -0.1384
 7040SOL    HW227926   1.890   2.755   0.949  0.3582 -0.4785 -0.1024
 7040SOL    HW327927   1.933   2.794   0.810  0.5954 -0.5606 -0.0519
 7040SOL    MW427928   1.900   2.735   0.865  0.2652 -0.4457 -0.1222
 7041SOL     OW27929   3.766   1.103   6.204  0.2004  0.0181  0.1981
 7041SOL    HW227930   3.778   1.096   6.110 -0.8337  0.9452 -0.0305
 7041SOL    HW327931   3.846   1.144   6.236  1.1408 -1.5474 -0.0624
 7041SOL    MW427932   3.778   1.108   6.196  0.1880 -0.0662  0.1336
 7042SOL     OW27933   0.983   0.760  -0.007 -0.0401  0.1341  0.3435
 7042SOL    HW227934   1.019   0.698  -0.072 -0.2598  1.2011 -0.8278
 7042SOL    HW327935   0.889   0.744  -0.009 -0.0176 -0.0717  0.6860
 7042SOL    MW427936   0.975   0.749  -0.016 -0.0661  0.2477  0.2341
 7043SOL     OW27937   5.782   6.232   1.926  0.3162  0.1358  0.0859
 7043SOL    HW227938   5.742   6.262   1.845  0.1661  1.0566  0.4776
 7043SOL    HW327939   5.870   6.272   1.926  0.5993 -0.4812  0.0197
 7043SOL    MW427940   5.789   6.241   1.916  0.3337  0.1759  0.1289
 7044SOL     OW27941   5.689   3.252   0.766  0.3745 -0.0301  0.1397
 7044SOL    HW227942   5.768   3.198   0.764 -0.6373 -1.5905 -2.4682
 7044SOL    HW327943   5.625   3.200   0.813  0.0512 -0.1017 -0.3736
 7044SOL    MW427944   5.691   3.238   0.772  0.1983 -0.2454 -0.2721
 7045SOL     OW27945   0.358   0.431   5.959 -0.3887 -0.4012 -0.0794
 7045SOL    HW227946   0.370   0.525   5.970 -0.7492 -0.4058  0.4077
 7045SOL    HW327947   0.334   0.420   5.867 -0.8920  0.0435 -0.0037
 7045SOL    MW427948   0.356   0.442   5.948 -0.5027 -0.3431 -0.0052
 7046SOL     OW27949   1.811   5.236   1.485  0.3578  0.0059 -0.3869
 7046SOL    HW227950   1.733   5.241   1.540  1.0922  3.5787  0.5545
 7046SOL    HW327951   1.884   5.230   1.547  0.9799 -0.7804 -1.1674
 7046SOL    MW427952   1.811   5.236   1.501  0.5368  0.3736 -0.3657
 7047SOL     OW27953   5.924   2.231   5.447 -0.0487  0.1562 -0.3376
 7047SOL    HW227954   5.998   2.171   5.461 -0.9522 -0.8083  0.4896
 7047SOL    HW327955   5.892   2.210   5.359  0.9460  0.9398 -0.9166
 7047SOL    MW427956   5.930   2.220   5.437 -0.0366  0.1323 -0.3049
 7048SOL     OW27957   5.852   1.598   5.412  0.4219 -0.0984  0.3382
 7048SOL    HW227958   5.913   1.671   5.418  0.4022 -0.1231  0.8840
 7048SOL    HW327959   5.769   1.639   5.385  0.8908 -0.1862 -1.3200
 7048SOL    MW427960   5.849   1.613   5.409  0.4812 -0.1132  0.1914
 7049SOL     OW27961   1.406   1.130   3.099  0.1497 -0.2571 -0.3284
 7049SOL    HW227962   1.469   1.116   3.169  0.7870  0.3976 -0.7667
 7049SOL    HW327963   1.349   1.200   3.131 -0.0933 -0.5519 -0.1117
 7049SOL    MW427964   1.406   1.137   3.112  0.2018 -0.2096 -0.3576
 7050SOL     OW27965   5.154   3.978   2.366 -0.3552 -0.2237 -0.5878
 7050SOL    HW227966   5.127   3.886   2.355  0.9647 -0.5683 -1.1196
 7050SOL    HW327967   5.222   3.975   2.432 -1.6336  0.6563  0.8245
 7050SOL    MW427968   5.159   3.965   2.373 -0.3497 -0.1530 -0.4717
 7051SOL     OW27969   3.722   0.264   6.016  0.8392  0.0763 -0.1825
 7051SOL    HW227970   3.655   0.197   6.029  0.6313  0.4174  0.5231
 7051SOL    HW327971   3.804   0.221   6.039  0.9691 -0.5496 -1.6806
 7051SOL    MW427972   3.724   0.250   6.020  0.8289  0.0387 -0.2871
 7052SOL     OW27973   3.557   1.780   4.297 -0.0294 -0.1255 -0.7548
 7052SOL    HW227974   3.607   1.717   4.245  1.4933  0.8684 -0.5602
 7052SOL    HW327975   3.608   1.861   4.292 -0.5347  0.3676  1.1853
 7052SOL    MW427976   3.570   1.782   4.289  0.1048  0.0707 -0.4732
 7053SOL     OW27977   3.152   0.493   2.826  0.2734 -0.6822 -0.2711
 7053SOL    HW227978   3.218   0.477   2.893 -0.4200 -0.1139  0.5714
 7053SOL    HW327979   3.096   0.562   2.863 -0.4809 -0.7784 -1.1815
 7053SOL    MW427980   3.153   0.500   2.840  0.0824 -0.6199 -0.2801
 7054SOL     OW27981   2.909   0.325   0.637  0.1377 -0.3609  0.4516
 7054SOL    HW227982   2.967   0.252   0.660  1.6720  1.0467  1.2255
 7054SOL    HW327983   2.863   0.294   0.559 -1.7134 -3.4123  2.5114
 7054SOL    MW427984   2.910   0.311   0.630  0.0959 -0.5778  0.8255
 7055SOL     OW27985   4.675   5.524   1.014  0.3183  0.0272  0.5076
 7055SOL    HW227986   4.691   5.567   1.098 -2.8144  1.5607  0.4545
 7055SOL    HW327987   4.632   5.590   0.960 -0.2819 -1.7373 -1.3306
 7055SOL    MW427988   4.671   5.538   1.018 -0.1742 -0.0033  0.2581
 7056SOL     OW27989   1.085   0.120   0.022  0.7603 -0.1474  0.2100
 7056SOL    HW227990   1.049   0.031   0.014 -1.4011  0.6416  0.5639
 7056SOL    HW327991   1.179   0.109   0.009  0.5553 -2.4999  0.3124
 7056SOL    MW427992   1.093   0.107   0.020  0.4481 -0.3537  0.2702
 7057SOL     OW27993   1.256   1.970   2.830 -0.5714 -0.2274  0.3767
 7057SOL    HW227994   1.199   1.996   2.903 -0.8801  1.1314 -0.3103
 7057SOL    HW327995   1.278   2.052   2.787  2.2059 -0.6713  0.7868
 7057SOL    MW427996   1.251   1.984   2.834 -0.2457 -0.1067  0.3402
 7058SOL     OW27997   4.890   3.183   4.071 -0.0393  0.0732 -0.0518
 7058SOL    HW227998   4.883   3.100   4.023  0.8908 -1.0059  1.5814
 7058SOL    HW327999   4.956   3.233   4.022 -0.1486 -0.3944 -0.6947
 7058SOL    MW428000   4.898   3.179   4.058  0.0690 -0.1309  0.0789
 7059SOL     OW28001   0.500   3.391   2.657  0.4294 -0.3648 -0.1302
 7059SOL    HW228002   0.416   3.421   2.692  0.3176  0.2725 -0.9190
 7059SOL    HW328003   0.554   3.471   2.652  0.6375 -0.5442 -0.8460
 7059SOL    MW428004   0.496   3.406   2.661  0.4421 -0.3044 -0.3287
 7060SOL     OW28005   1.444   3.149   3.875  0.0201  0.8010 -0.0607
 7060SOL    HW228006   1.440   3.244   3.886  0.8125  0.6222  2.6001
 7060SOL    HW328007   1.378   3.129   3.809 -0.9224  3.0986  0.1108
 7060SOL    MW428008   1.435   3.159   3.868  0.0003  1.0806  0.3130
 7061SOL     OW28009   0.142   1.415   0.302 -0.5753 -0.0241  0.2219
 7061SOL    HW228010   0.171   1.444   0.216 -0.7922 -0.7231 -0.0931
 7061SOL    HW328011   0.072   1.353   0.284  0.1189 -1.0214  0.8596
 7061SOL    MW428012   0.136   1.411   0.288 -0.5123 -0.2479  0.2644
 7062SOL     OW28013   1.410   1.371   1.578 -0.5132  0.1510 -0.4339
 7062SOL    HW228014   1.436   1.319   1.654 -1.8876  0.3393  0.1869
 7062SOL    HW328015   1.475   1.441   1.574 -0.5417  0.2590  0.7055
 7062SOL    MW428016   1.422   1.373   1.588 -0.6983  0.1901 -0.2017
 7063SOL     OW28017   4.523   0.752   4.979 -0.4459 -0.0953  0.2534
 7063SOL    HW228018   4.609   0.770   4.939 -0.1254  0.5990  1.2003
 7063SOL    HW328019   4.483   0.688   4.921  0.4811 -0.0063 -0.5274
 7063SOL    MW428020   4.529   0.746   4.966 -0.2813  0.0080  0.2753
 7064SOL     OW28021   2.003   1.301   4.934 -0.0870 -1.0997  0.4790
 7064SOL    HW228022   1.977   1.211   4.915 -0.1581 -0.9527 -0.1576
 7064SOL    HW328023   1.973   1.351   4.858 -0.1373 -0.5218  0.8721
 7064SOL    MW428024   1.996   1.296   4.921 -0.1030 -1.0040  0.4468
 7065SOL     OW28025   6.156   3.132   3.615  0.0579  0.1825 -0.1468
 7065SOL    HW228026   6.138   3.052   3.665 -0.4008  0.4238  0.0856
 7065SOL    HW328027   6.083   3.138   3.553  0.1273  0.3851 -0.2100
 7065SOL    MW428028   6.144   3.122   3.613  0.0066  0.2410 -0.1245
 7066SOL     OW28029   6.057   1.070   2.528  0.2884 -0.3342  0.2308
 7066SOL    HW228030   5.966   1.075   2.557  1.6126 -0.2066  5.2194
 7066SOL    HW328031   6.060   1.127   2.451 -3.7184 -0.1236 -0.0010
 7066SOL    MW428032   6.045   1.078   2.522 -0.0655 -0.2896  0.8584
 7067SOL     OW28033   1.250   1.657   2.903 -0.0443  0.4412 -0.3352
 7067SOL    HW228034   1.157   1.639   2.891 -0.3790  1.3863  0.6018
 7067SOL    HW328035   1.262   1.655   2.998  1.1346 -0.7566 -0.4863
 7067SOL    MW428036   1.239   1.655   2.914  0.0671  0.4079 -0.2315
 7068SOL     OW28037   0.362   3.864   4.781 -0.5087 -0.1332 -0.7309
 7068SOL    HW228038   0.351   3.959   4.781  0.7575  0.0867  1.0999
 7068SOL    HW328039   0.322   3.834   4.700 -1.2202  1.9267 -1.1915
 7068SOL    MW428040   0.356   3.873   4.770 -0.4355  0.1676 -0.5501
 7069SOL     OW28041   5.893   2.738   0.330 -0.2571  0.1428 -0.4828
 7069SOL    HW228042   5.906   2.657   0.379  0.6646  1.3554  1.3876
 7069SOL    HW328043   5.798   2.753   0.334 -0.3667 -0.5604 -0.3768
 7069SOL    MW428044   5.882   2.729   0.337 -0.1500  0.2100 -0.2220
 7070SOL     OW28045   4.880   2.417   0.990  0.7586 -0.0575 -0.2088
 7070SOL    HW228046   4.862   2.410   0.896 -0.4168 -1.6820  0.0813
 7070SOL    HW328047   4.952   2.356   1.005 -1.1213 -2.3081  0.3613
 7070SOL    MW428048   4.887   2.408   0.980  0.3555 -0.5688 -0.0953
 7071SOL     OW28049   6.260   3.411   4.139 -0.6249  0.0109  0.2616
 7071SOL    HW228050   6.165   3.403   4.132 -1.0024  1.8984  2.2135
 7071SOL    HW328051   6.281   3.489   4.087 -0.0631 -0.6730 -0.5547
 7071SOL    MW428052   6.250   3.420   4.131 -0.6006  0.1697  0.4114
 7072SOL     OW28053   2.331   6.007   0.255 -0.1027 -0.5064 -0.0748
 7072SOL    HW228054   2.390   6.003   0.330 -0.0362 -1.1220 -0.1527
 7072SOL    HW328055   2.357   6.086   0.207  0.3487 -0.5208  0.1441
 7072SOL    MW428056   2.342   6.017   0.258 -0.0344 -0.5895 -0.0562
 7073SOL     OW28057   1.734   1.531   3.478 -0.5537  0.1104 -0.2708
 7073SOL    HW228058   1.805   1.590   3.503 -1.0949  1.5730 -1.9295
 7073SOL    HW328059   1.699   1.499   3.561  0.2015  1.6093  0.6847
 7073SOL    MW428060   1.739   1.535   3.492 -0.5254  0.5011 -0.3636
 7074SOL     OW28061   5.533   5.054   3.997 -0.6774  0.1910 -0.3879
 7074SOL    HW228062   5.454   5.008   4.024 -1.0137 -0.1453 -1.8867
 7074SOL    HW328063   5.598   4.985   3.985  0.0051  0.4968  1.2264
 7074SOL    MW428064   5.531   5.039   3.999 -0.6317  0.1870 -0.3727
 7075SOL     OW28065   5.944   2.147   1.217 -0.3339 -0.7438 -0.7451
 7075SOL    HW228066   5.999   2.165   1.294  0.6149 -2.0994 -1.0766
 7075SOL    HW328067   6.000   2.097   1.158 -1.0352  0.3164 -2.3747
 7075SOL    MW428068   5.959   2.143   1.220 -0.3012 -0.7828 -1.0038
 7076SOL     OW28069   2.218   5.052   2.592 -0.0791  0.1172  0.0417
 7076SOL    HW228070   2.297   5.094   2.559 -0.1844 -0.5251 -1.0862
 7076SOL    HW328071   2.241   4.959   2.599  0.3777  0.3652  3.1757
 7076SOL    MW428072   2.232   5.045   2.589 -0.0327  0.0652  0.3064
 7077SOL     OW28073   0.605   5.749   4.029  0.1376 -0.0796 -0.1541
 7077SOL    HW228074   0.624   5.757   4.123  0.9809 -2.4245 -0.0549
 7077SOL    HW328075   0.510   5.755   4.023  0.1143  0.6502  0.7820
 7077SOL    MW428076   0.595   5.751   4.041  0.2458 -0.2927 -0.0175
 7078SOL     OW28077   2.094   6.364   3.189  0.1235  0.0332 -0.1018
 7078SOL    HW228078   2.082   6.416   3.268 -2.4930  0.2334 -0.5470
 7078SOL    HW328079   2.084   6.273   3.219  0.1963  0.0412 -0.0520
 7078SOL    MW428080   2.091   6.359   3.203 -0.2121  0.0606 -0.1540
 7079SOL     OW28081   6.306   4.154   0.046  0.0239  0.0364  0.4637
 7079SOL    HW228082   6.271   4.071   0.015  0.1025 -0.0372  0.5707
 7079SOL    HW328083   6.280   4.159   0.138 -0.5285  0.4288  0.2867
 7079SOL    MW428084   6.298   4.144   0.054 -0.0386  0.0784  0.4545
 7080SOL     OW28085   2.561   2.926   0.133 -0.0038  0.6714 -0.0166
 7080SOL    HW228086   2.566   2.997   0.197  0.7111  1.1508 -0.5868
 7080SOL    HW328087   2.616   2.857   0.169 -0.0473  0.7203  0.1455
 7080SOL    MW428088   2.569   2.926   0.146  0.0848  0.7411 -0.0705
 7081SOL     OW28089   4.681   5.688   6.190 -0.2782 -0.5337 -0.0799
 7081SOL    HW228090   4.590   5.717   6.200 -0.3620 -0.8796  0.1922
 7081SOL    HW328091   4.730   5.746   6.248  0.0562  1.3989 -2.1556
 7081SOL    MW428092   4.675   5.700   6.199 -0.2451 -0.3244 -0.3178
 7082SOL     OW28093   3.120   3.148   3.748 -0.0879  0.1216 -0.2517
 7082SOL    HW228094   3.039   3.198   3.757 -0.7437 -1.0592  0.5679
 7082SOL    HW328095   3.095   3.070   3.698  0.5826 -0.1891 -0.1175
 7082SOL    MW428096   3.106   3.144   3.742 -0.0860 -0.0752 -0.1259
 7083SOL     OW28097   0.507   4.700   0.517  1.0117  0.1265  0.0326
 7083SOL    HW228098   0.524   4.750   0.597 -0.9793  1.4485 -0.3180
 7083SOL    HW328099   0.431   4.743   0.478 -0.2153 -2.6123 -0.7882
 7083SOL    MW428100   0.500   4.712   0.523  0.5871 -0.0604 -0.1219
 7084SOL     OW28101   2.275   1.082   4.817 -0.2685  0.7631  0.4013
 7084SOL    HW228102   2.363   1.112   4.793  0.7436 -0.9145  1.8090
 7084SOL    HW328103   2.216   1.139   4.768  1.5521  3.4353  1.0813
 7084SOL    MW428104   2.279   1.094   4.808  0.1052  0.8943  0.6768
 7085SOL     OW28105   3.737   1.964   0.303 -0.0938  0.4891 -0.3461
 7085SOL    HW228106   3.710   1.885   0.350  0.2660  0.6597  0.1523
 7085SOL    HW328107   3.778   1.931   0.223  2.2766  0.0427  0.9728
 7085SOL    MW428108   3.739   1.949   0.298  0.2664  0.4527 -0.1063
 7086SOL     OW28109   2.343   1.372   6.089  0.2055 -0.3854  0.1808
 7086SOL    HW228110   2.349   1.284   6.053 -3.0645 -1.2088  1.3456
 7086SOL    HW328111   2.345   1.359   6.184  1.7692  1.0682  0.4046
 7086SOL    MW428112   2.344   1.359   6.097 -0.0196 -0.3022  0.3640
 7087SOL     OW28113   5.246   0.801   6.030  0.0858 -0.1991  0.1578
 7087SOL    HW228114   5.173   0.741   6.045 -0.0339  0.0879  0.7789
 7087SOL    HW328115   5.243   0.861   6.105  0.3829  0.4012 -0.3064
 7087SOL    MW428116   5.236   0.801   6.042  0.1092 -0.0820  0.1785
 7088SOL     OW28117   1.642   3.173   3.536  0.0988 -0.1440 -0.2312
 7088SOL    HW228118   1.700   3.223   3.593 -1.3019  1.0241  0.2204
 7088SOL    HW328119   1.638   3.086   3.576 -0.6413  0.5664  1.3562
 7088SOL    MW428120   1.649   3.168   3.549 -0.1836  0.1038  0.0378
 7089SOL     OW28121   2.383   2.011   1.093 -0.1069 -0.1691 -0.4046
 7089SOL    HW228122   2.298   1.971   1.078 -0.6466  1.3236 -1.5087
 7089SOL    HW328123   2.419   2.025   1.006  0.6719  0.4510  0.0013
 7089SOL    MW428124   2.377   2.008   1.080 -0.0753  0.1097 -0.4967
 7090SOL     OW28125   5.598   3.796   5.308  0.0229 -0.1065 -0.1692
 7090SOL    HW228126   5.568   3.856   5.377 -2.8739 -2.0050  0.4337
 7090SOL    HW328127   5.587   3.845   5.227 -0.1512  0.9233  0.4606
 7090SOL    MW428128   5.592   3.810   5.307 -0.3823 -0.2211 -0.0066
 7091SOL     OW28129   1.545   5.107   0.626 -0.3660 -0.3986 -0.9368
 7091SOL    HW228130   1.495   5.186   0.604  0.0487  0.5008  1.0799
 7091SOL    HW328131   1.478   5.042   0.647 -0.7055 -0.4018 -1.9689
 7091SOL    MW428132   1.530   5.109   0.626 -0.3561 -0.2804 -0.8069
 7092SOL     OW28133   0.713   1.194   6.099  0.2255 -1.2312 -0.1747
 7092SOL    HW228134   0.645   1.252   6.132 -1.1604 -2.1036 -1.3978
 7092SOL    HW328135   0.777   1.253   6.059 -0.2715 -0.4532  0.1546
 7092SOL    MW428136   0.713   1.209   6.098 -0.0229 -1.2437 -0.2926
 7093SOL     OW28137   4.112   3.680   6.114 -0.3934 -0.2272  0.1997
 7093SOL    HW228138   4.093   3.773   6.127 -1.5080 -0.5699  1.1923
 7093SOL    HW328139   4.029   3.636   6.129  0.5746 -1.5849  1.9718
 7093SOL    MW428140   4.099   3.687   6.118 -0.4128 -0.4516  0.5644
 7094SOL     OW28141   2.615   0.725   3.070  0.1355  0.8565  0.4579
 7094SOL    HW228142   2.521   0.710   3.073  0.3207 -0.6503 -0.2885
 7094SOL    HW328143   2.644   0.684   2.989  1.7936 -1.0654  1.9037
 7094SOL    MW428144   2.607   0.718   3.060  0.3787  0.4042  0.5502
 7095SOL     OW28145   2.148   2.221   5.678  0.0962 -0.1757  0.3205
 7095SOL    HW228146   2.099   2.171   5.744 -1.7538 -0.6503 -1.2888
 7095SOL    HW328147   2.176   2.154   5.615  0.8131  0.4002  0.0239
 7095SOL    MW428148   2.145   2.205   5.678 -0.0533 -0.1624  0.0690
 7096SOL     OW28149   1.934   2.554   0.248 -0.2661  0.3199  0.1479
 7096SOL    HW228150   1.983   2.483   0.290 -2.0824 -0.9647  0.2497
 7096SOL    HW328151   1.977   2.566   0.163  0.2419 -0.7514  0.2336
 7096SOL    MW428152   1.946   2.546   0.242 -0.4387  0.0091  0.1726
 7097SOL     OW28153   2.834   0.490   5.886 -0.5318 -0.1364 -0.0491
 7097SOL    HW228154   2.874   0.572   5.914  0.0275  0.0344 -1.2652
 7097SOL    HW328155   2.740   0.501   5.903 -0.4564  0.7484 -0.2024
 7097SOL    MW428156   2.827   0.502   5.892 -0.4480  0.0028 -0.2298
 7098SOL     OW28157   3.207   2.276   3.541 -0.3563  0.1961  0.1022
 7098SOL    HW228158   3.180   2.260   3.451 -0.2186  0.1359  0.0722
 7098SOL    HW328159   3.184   2.368   3.556 -0.0190  0.3171 -0.1212
 7098SOL    MW428160   3.200   2.286   3.531 -0.2936  0.2042  0.0688
 7099SOL     OW28161   4.077   0.706   4.467  0.3544  0.1162  0.0371
 7099SOL    HW228162   4.172   0.717   4.467  0.3161  0.9943  2.3765
 7099SOL    HW328163   4.063   0.623   4.421  2.3273 -0.4908  0.4274
 7099SOL    MW428164   4.088   0.696   4.461  0.6097  0.1520  0.3973
 7100SOL     OW28165   1.959   5.704   4.935 -0.5495 -0.6442 -0.0732
 7100SOL    HW228166   1.950   5.614   4.904 -0.5175 -1.1914  1.4326
 7100SOL    HW328167   1.869   5.737   4.939 -0.6285 -0.8850  0.1449
 7100SOL    MW428168   1.946   5.697   4.932 -0.5557 -0.7482  0.1543
 7101SOL     OW28169   3.540   1.230   2.090  0.2655  0.0068  0.3067
 7101SOL    HW228170   3.526   1.138   2.112 -0.7001 -0.0551 -0.5063
 7101SOL    HW328171   3.453   1.269   2.090  0.5890  0.7622 -0.0728
 7101SOL    MW428172   3.527   1.223   2.093  0.1808  0.0983  0.1493
 7102SOL     OW28173   3.228   5.043   6.301 -0.4058  0.0990 -0.8183
 7102SOL    HW228174   3.308   5.028   6.251  0.9644  1.5891  0.7889
 7102SOL    HW328175   3.241   5.128   6.343 -2.7466  0.2801 -0.3107
 7102SOL    MW428176   3.240   5.052   6.300 -0.5339  0.3195 -0.5393
 7103SOL     OW28177   3.626   6.368   0.288  0.1260  0.0381 -0.3818
 7103SOL    HW228178   3.563   6.304   0.255  0.4775 -0.5616  0.0742
 7103SOL    HW328179   3.691   6.315   0.334  0.8152  0.6664 -0.6139
 7103SOL    MW428180   3.626   6.352   0.290  0.2633  0.0419 -0.3523
 7104SOL     OW28181   0.673   0.958   0.434 -0.1225 -0.0012  0.8140
 7104SOL    HW228182   0.652   0.927   0.522 -0.5936  0.3199  0.8177
 7104SOL    HW328183   0.601   1.017   0.411  0.4308  0.5842  0.5489
 7104SOL    MW428184   0.661   0.962   0.442 -0.1117  0.1184  0.7795
 7105SOL     OW28185   0.536   4.859   1.563 -0.1267 -0.3182 -0.4621
 7105SOL    HW228186   0.473   4.917   1.605 -0.0841 -0.4195 -0.2592
 7105SOL    HW328187   0.498   4.772   1.571 -0.3389 -0.2842 -1.0407
 7105SOL    MW428188   0.522   4.855   1.570 -0.1491 -0.3270 -0.5117
 7106SOL     OW28189   3.159   1.700   2.266  0.1634  0.2920 -0.4383
 7106SOL    HW228190   3.073   1.737   2.247  0.1587 -0.2478 -1.5157
 7106SOL    HW328191   3.182   1.737   2.352 -0.1291  2.2575 -1.1448
 7106SOL    MW428192   3.151   1.710   2.275  0.1242  0.4801 -0.6736
 7107SOL     OW28193   2.199   1.535   1.370  0.0490 -0.2246  0.3757
 7107SOL    HW228194   2.262   1.606   1.380  1.0871 -1.1131  0.4117
 7107SOL    HW328195   2.253   1.456   1.369 -1.0601 -1.0006  0.1810
 7107SOL    MW428196   2.214   1.534   1.371  0.0396 -0.4442  0.3548
 7108SOL     OW28197   0.700   4.516   4.679  0.0301 -0.3944 -0.4230
 7108SOL    HW228198   0.745   4.477   4.755 -3.1922 -1.7827  0.9720
 7108SOL    HW328199   0.719   4.610   4.686  0.6527 -0.6067  1.5307
 7108SOL    MW428200   0.708   4.523   4.690 -0.3129 -0.6056  0.0188
 7109SOL     OW28201   0.140   2.543   5.421  0.3099  0.0739  0.2108
 7109SOL    HW228202   0.087   2.467   5.398  1.5255 -0.5172 -0.7487
 7109SOL    HW328203   0.141   2.543   5.517  1.2062 -1.8075  0.2554
 7109SOL    MW428204   0.133   2.533   5.431  0.5885 -0.2523  0.0901
 7110SOL     OW28205   2.527   1.466   0.784  0.4431  0.0269 -0.1050
 7110SOL    HW228206   2.456   1.462   0.848  0.2027 -0.8007 -0.4154
 7110SOL    HW328207   2.576   1.545   0.808 -0.1079  0.1655  0.6037
 7110SOL    MW428208   2.524   1.476   0.795  0.3387 -0.0640 -0.0525
 7111SOL     OW28209   0.954   5.108   6.425 -0.1924  0.2543 -0.0177
 7111SOL    HW228210   0.968   5.023   6.384  3.3663  0.5044  0.4361
 7111SOL    HW328211   0.993   5.171   6.365 -0.8626  1.3730  0.6738
 7111SOL    MW428212   0.961   5.105   6.412  0.1887  0.4349  0.1334
 7112SOL     OW28213   1.520   1.740   5.867  0.2304  0.3324  0.5108
 7112SOL    HW228214   1.600   1.703   5.903 -0.5524 -1.8176  0.1903
 7112SOL    HW328215   1.466   1.759   5.944  0.7349  1.0836  0.6903
 7112SOL    MW428216   1.523   1.737   5.882  0.1937  0.1478  0.4922
 7113SOL     OW28217   5.110   6.225   5.602  0.4857 -0.7961 -0.1301
 7113SOL    HW228218   5.197   6.228   5.562  0.7374 -1.7505  0.3101
 7113SOL    HW328219   5.095   6.132   5.618 -0.8373 -0.6872 -0.6611
 7113SOL    MW428220   5.120   6.213   5.599  0.3443 -0.9077 -0.1421
 7114SOL     OW28221   4.057   2.915   0.080 -0.7470  0.2391  0.8953
 7114SOL    HW228222   3.964   2.919   0.101 -0.7921 -1.2112  1.1066
 7114SOL    HW328223   4.093   2.852   0.142 -0.0576 -0.8436 -0.5408
 7114SOL    MW428224   4.049   2.907   0.091 -0.6620 -0.0951  0.7337
 7115SOL     OW28225   2.748   4.418   1.924 -0.1507 -0.3520  0.0461
 7115SOL    HW228226   2.743   4.329   1.888  0.5572 -0.3275 -0.1413
 7115SOL    HW328227   2.836   4.423   1.962 -0.2019  0.2530  0.0924
 7115SOL    MW428228   2.759   4.407   1.924 -0.0640 -0.2689  0.0275
 7116SOL     OW28229   0.098   5.650   3.672  0.1781  0.3433 -0.1767
 7116SOL    HW228230   0.062   5.662   3.584 -1.4701 -0.4207  0.3626
 7116SOL    HW328231   0.045   5.708   3.727 -0.3873 -0.9516  0.6691
 7116SOL    MW428232   0.086   5.659   3.667 -0.1140  0.0716  0.0061
 7117SOL     OW28233   6.112   2.606   2.715  0.2967 -0.6203 -0.0144
 7117SOL    HW228234   6.026   2.577   2.685  0.3128 -1.7903  0.9732
 7117SOL    HW328235   6.118   2.697   2.687 -2.1068  0.1330  1.6345
 7117SOL    MW428236   6.101   2.614   2.707 -0.0183 -0.6753  0.3335
 7118SOL     OW28237   0.977   1.392   1.765 -0.2253  0.2683 -0.3872
 7118SOL    HW228238   1.011   1.403   1.676  0.1792 -1.1092 -0.4339
 7118SOL    HW328239   0.969   1.297   1.775 -2.0152  0.4721  0.4021
 7118SOL    MW428240   0.981   1.381   1.755 -0.4081  0.1135 -0.2892
 7119SOL     OW28241   3.654   5.829   2.817 -0.2507  0.3458 -0.5738
 7119SOL    HW228242   3.589   5.765   2.849  0.1552  0.3607  0.3035
 7119SOL    HW328243   3.665   5.807   2.725 -1.4386  0.2857 -0.7212
 7119SOL    MW428244   3.647   5.817   2.809 -0.3539  0.3398 -0.4775
 7120SOL     OW28245   2.339   1.198   0.453  0.1462 -0.4312 -0.2028
 7120SOL    HW228246   2.411   1.240   0.406  0.5091 -0.8474 -0.0179
 7120SOL    HW328247   2.264   1.256   0.437  0.9002  0.9579  1.0464
 7120SOL    MW428248   2.339   1.212   0.444  0.2936 -0.3028 -0.0136
 7121SOL     OW28249   6.031   2.545   2.964 -0.2086 -0.0370  0.0586
 7121SOL    HW228250   5.987   2.460   2.960 -1.3897  0.4955  1.2132
 7121SOL    HW328251   6.052   2.565   2.873 -1.0059 -1.0046 -0.3621
 7121SOL    MW428252   6.028   2.536   2.952 -0.4697 -0.0944  0.1554
 7122SOL     OW28253   3.708   1.974   4.711 -0.4471 -0.2675 -0.2190
 7122SOL    HW228254   3.711   2.047   4.649  0.1516 -0.3838 -0.3324
 7122SOL    HW328255   3.656   1.907   4.666 -0.2118 -0.2634 -0.5066
 7122SOL    MW428256   3.701   1.975   4.697 -0.3371 -0.2823 -0.2719
 7123SOL     OW28257   5.210   4.348   4.066 -0.2163 -0.1766  0.1767
 7123SOL    HW228258   5.171   4.262   4.081 -1.0011  0.1818  0.2241
 7123SOL    HW328259   5.288   4.330   4.014 -1.4041 -0.7431 -1.4913
 7123SOL    MW428260   5.215   4.334   4.061 -0.4766 -0.2040 -0.0371
 7124SOL     OW28261   0.059   2.728   4.751  0.3847  0.0933 -0.7556
 7124SOL    HW228262   0.141   2.683   4.771 -0.0494  0.0190  1.0010
 7124SOL    HW328263   0.065   2.747   4.657  1.9534 -0.8082 -0.8804
 7124SOL    MW428264   0.071   2.725   4.741  0.5344 -0.0355 -0.5403
 7125SOL     OW28265   2.478   3.879   4.334  0.2520 -0.0630  0.0110
 7125SOL    HW228266   2.538   3.828   4.389  1.2559 -0.4827 -1.4110
 7125SOL    HW328267   2.471   3.964   4.378  0.7097 -0.5194  0.9870
 7125SOL    MW428268   2.485   3.884   4.347  0.4448 -0.1786 -0.0478
 7126SOL     OW28269   0.190   5.093   0.471  0.6334  0.1089  1.0420
 7126SOL    HW228270   0.279   5.128   0.474  0.9059 -0.1721 -1.4159
 7126SOL    HW328271   0.164   5.103   0.379 -1.4043 -0.9677  1.4508
 7126SOL    MW428272   0.198   5.099   0.459  0.4005 -0.0702  0.7716
 7127SOL     OW28273   6.230   3.890   1.403  0.1820  0.6915 -0.5968
 7127SOL    HW228274   6.309   3.855   1.361  0.3746  1.6463 -1.0691
 7127SOL    HW328275   6.168   3.901   1.331  0.7469  2.9871 -0.8086
 7127SOL    MW428276   6.232   3.887   1.388  0.2820  1.1204 -0.6871
 7128SOL     OW28277   5.006   6.309   0.969 -0.4844 -0.1175  0.9870
 7128SOL    HW228278   4.985   6.221   1.000 -1.0657 -0.1984  0.3996
 7128SOL    HW328279   5.018   6.360   1.048  2.7906 -1.3401  1.4276
 7128SOL    MW428280   5.005   6.304   0.983 -0.1290 -0.2895  0.9676
 7129SOL     OW28281   3.703   1.754   5.615  0.1656  0.1262 -0.1905
 7129SOL    HW228282   3.717   1.723   5.525  1.2931 -0.2890  0.1151
 7129SOL    HW328283   3.786   1.795   5.639  0.1560 -0.5075  0.9592
 7129SOL    MW428284   3.716   1.755   5.606  0.3131 -0.0122  0.0015
 7130SOL     OW28285   2.809   0.439   6.315  0.0817  0.2170 -0.4830
 7130SOL    HW228286   2.894   0.462   6.354 -0.0409  0.0249 -0.0900
 7130SOL    HW328287   2.755   0.415   6.390 -1.1427  2.8383 -0.4174
 7130SOL    MW428288   2.813   0.439   6.330 -0.0960  0.5375 -0.4225
 7131SOL     OW28289   1.308   0.418   2.483  1.0171 -0.3941  0.0251
 7131SOL    HW228290   1.225   0.457   2.453  1.2668 -0.5868 -0.9657
 7131SOL    HW328291   1.346   0.485   2.540  0.7118  0.1885 -0.4310
 7131SOL    MW428292   1.302   0.432   2.487  1.0098 -0.3427 -0.1658
 7132SOL     OW28293   4.969   4.286   6.263 -0.5238 -0.0080 -0.0062
 7132SOL    HW228294   4.905   4.254   6.199  0.8257  0.5489 -1.7256
 7132SOL    HW328295   4.916   4.313   6.338 -2.2594  0.0624 -1.1891
 7132SOL    MW428296   4.953   4.285   6.265 -0.5748  0.0748 -0.3892
 7133SOL     OW28297   4.598   6.409   3.390  0.1801  0.4778  0.2580
 7133SOL    HW228298   4.525   6.349   3.375  0.6499  0.1069 -0.6522
 7133SOL    HW328299   4.661   6.388   3.320 -0.0366  2.6246 -0.6665
 7133SOL    MW428300   4.597   6.398   3.379  0.2135  0.7121  0.0159
 7134SOL     OW28301   4.851   4.488   4.517  0.0105  0.0767 -0.7993
 7134SOL    HW228302   4.867   4.464   4.609 -0.2935 -2.4971 -1.3339
 7134SOL    HW328303   4.934   4.528   4.489 -0.1027  1.4810  0.7267
 7134SOL    MW428304   4.864   4.490   4.526 -0.0445 -0.0776 -0.6685
 7135SOL     OW28305   4.871   1.409   3.167 -0.0473 -0.2525 -0.4904
 7135SOL    HW228306   4.836   1.494   3.141  1.0258 -0.4408 -2.7535
 7135SOL    HW328307   4.924   1.381   3.093 -1.2227 -3.4186 -0.2991
 7135SOL    MW428308   4.873   1.416   3.154 -0.0608 -0.6951 -0.7637
 7136SOL     OW28309   3.981   0.886   4.668 -0.6950  0.1845 -0.1449
 7136SOL    HW228310   4.007   0.818   4.606 -2.7573 -0.7522 -0.0767
 7136SOL    HW328311   4.049   0.883   4.736  0.3127 -0.4218 -1.1377
 7136SOL    MW428312   3.994   0.876   4.669 -0.8341 -0.0191 -0.2669
 7137SOL     OW28313   2.768   1.808   5.492  0.1115  0.5115 -0.6689
 7137SOL    HW228314   2.681   1.846   5.498  0.5605  1.5162 -0.3278
 7137SOL    HW328315   2.823   1.863   5.548  1.1141  0.3416 -1.4484
 7137SOL    MW428316   2.764   1.820   5.500  0.3030  0.6216 -0.7267
 7138SOL     OW28317   0.942   0.245   1.949  0.3989  0.1319  0.1233
 7138SOL    HW228318   0.933   0.168   1.894 -0.4400  0.6823 -0.5285
 7138SOL    HW328319   0.853   0.276   1.963  0.7585  1.3203 -0.0993
 7138SOL    MW428320   0.929   0.239   1.944  0.3357  0.3613  0.0080
 7139SOL     OW28321   1.200   0.337   1.855 -0.2898  0.3938 -0.4591
 7139SOL    HW228322   1.270   0.284   1.892 -0.1375  0.2779 -0.9107
 7139SOL    HW328323   1.125   0.321   1.912 -0.7018 -1.5164 -1.4611
 7139SOL    MW428324   1.199   0.328   1.867 -0.3241  0.1265 -0.6509
 7140SOL     OW28325   2.368   4.596   2.371  0.0202  0.0766 -0.6692
 7140SOL    HW228326   2.291   4.562   2.417 -0.1314 -0.4040 -1.2653
 7140SOL    HW328327   2.349   4.581   2.279 -0.2905  2.2819 -1.0155
 7140SOL    MW428328   2.355   4.590   2.365 -0.0408  0.3042 -0.7936
 7141SOL     OW28329   0.203   2.197   3.801  0.2528 -0.0100 -0.2063
 7141SOL    HW228330   0.190   2.145   3.880  0.4578 -2.1474 -1.5157
 7141SOL    HW328331   0.115   2.211   3.766  0.0708  1.7595  0.8385
 7141SOL    MW428332   0.190   2.192   3.807  0.2558 -0.0585 -0.2412
 7142SOL     OW28333   6.325   2.932   0.763 -0.1718 -0.2869  0.1810
 7142SOL    HW228334   6.405   2.882   0.746  0.5299  0.7967  0.2038
 7142SOL    HW328335   6.283   2.940   0.677 -0.0388 -0.5058  0.0957
 7142SOL    MW428336   6.330   2.926   0.749 -0.0617 -0.1728  0.1728
 7143SOL     OW28337   3.418   2.552   6.392  0.1448  0.4348 -0.0178
 7143SOL    HW228338   3.389   2.531   6.304  0.9884 -2.2469  0.2610
 7143SOL    HW328339   3.355   2.508   6.449 -0.4188  2.1700  0.7736
 7143SOL    MW428340   3.406   2.544   6.388  0.1817  0.3099  0.1234
 7144SOL     OW28341   0.848   2.375   1.448  0.3225  0.0659  0.8294
 7144SOL    HW228342   0.865   2.296   1.396 -1.7810  0.2473 -0.2518
 7144SOL    HW328343   0.927   2.428   1.437  0.5103 -0.5208 -1.0910
 7144SOL    MW428344   0.861   2.372   1.440  0.0697  0.0124  0.4333
 7145SOL     OW28345   2.129   1.388   0.804  0.0979  0.0279  0.3258
 7145SOL    HW228346   2.041   1.358   0.827 -0.5146  0.2179 -1.6210
 7145SOL    HW328347   2.182   1.308   0.798  0.1321 -0.0743  1.6432
 7145SOL    MW428348   2.125   1.374   0.806  0.0216  0.0395  0.2428
 7146SOL     OW28349   3.905   6.371   4.514 -0.0242 -0.3265  0.2882
 7146SOL    HW228350   3.920   6.317   4.591 -0.0065 -0.0403  0.4861
 7146SOL    HW328351   3.951   6.326   4.443  1.3400  0.2754  0.7769
 7146SOL    MW428352   3.913   6.358   4.514  0.1581 -0.2093  0.3788
 7147SOL     OW28353   5.520   2.523   0.197 -0.2310 -0.3046  0.0486
 7147SOL    HW228354   5.550   2.602   0.241 -1.1295 -0.5246  1.0859
 7147SOL    HW328355   5.532   2.542   0.104  0.0317  0.8522  0.3017
 7147SOL    MW428356   5.526   2.536   0.190 -0.3149 -0.1810  0.2189
 7148SOL     OW28357   1.509   0.763   3.349 -0.8213 -0.1362 -0.1789
 7148SOL    HW228358   1.588   0.799   3.389 -0.6847 -0.4482 -0.1641
 7148SOL    HW328359   1.516   0.786   3.256 -1.6624  1.5226  0.1450
 7148SOL    MW428360   1.520   0.770   3.342 -0.9143  0.0415 -0.1343
 7149SOL     OW28361   3.800   2.764   2.850  0.0217 -0.3568  0.3280
 7149SOL    HW228362   3.736   2.835   2.847  0.2395 -0.1727 -0.0463
 7149SOL    HW328363   3.759   2.692   2.802 -0.3961 -0.6541  1.1132
 7149SOL    MW428364   3.786   2.763   2.843 -0.0047 -0.3717  0.3822
 7150SOL     OW28365   3.573   3.348   3.381  0.6240  0.3179 -0.3017
 7150SOL    HW228366   3.478   3.343   3.378  0.5416 -0.9154  1.9324
 7150SOL    HW328367   3.602   3.319   3.295 -1.0046 -0.0533 -0.7538
 7150SOL    MW428368   3.565   3.344   3.370  0.3982  0.1062 -0.0666
 7151SOL     OW28369   6.316   4.365   0.338  0.0829  0.4147 -0.0147
 7151SOL    HW228370   6.274   4.404   0.414  0.8569 -0.5155  0.9197
 7151SOL    HW328371   6.315   4.434   0.271 -0.1476  1.4156  1.0045
 7151SOL    MW428372   6.311   4.380   0.339  0.1546  0.4240  0.2431
 7152SOL     OW28373   5.184   5.260   4.012  0.2877 -0.2252 -0.2664
 7152SOL    HW228374   5.096   5.296   4.023  0.3796 -0.0561 -0.0818
 7152SOL    HW328375   5.170   5.167   3.994  0.1087 -0.3679  0.5916
 7152SOL    MW428376   5.171   5.253   4.011  0.2762 -0.2217 -0.1288
 7153SOL     OW28377   4.257   4.085   0.279  0.1488  0.8315 -0.0675
 7153SOL    HW228378   4.195   4.155   0.296 -0.3871  0.3309  0.0395
 7153SOL    HW328379   4.241   4.020   0.347 -1.0526 -0.5347 -1.5646
 7153SOL    MW428380   4.247   4.085   0.290 -0.0804  0.5852 -0.2509
 7154SOL     OW28381   3.718   4.799   1.296 -0.7197  0.5313 -0.3210
 7154SOL    HW228382   3.734   4.737   1.225  0.0095 -2.4000  2.1822
 7154SOL    HW328383   3.633   4.838   1.275 -0.2536  0.2925 -3.0498
 7154SOL    MW428384   3.709   4.796   1.284 -0.5620  0.1131 -0.3507
 7155SOL     OW28385   2.575   3.708   1.790  0.2686 -0.5939  0.3343
 7155SOL    HW228386   2.656   3.756   1.808 -0.0815  0.1195  0.0710
 7155SOL    HW328387   2.603   3.626   1.750  0.8136  0.1090 -0.7598
 7155SOL    MW428388   2.589   3.704   1.787  0.2943 -0.4070  0.1552
 7156SOL     OW28389   1.519   5.519   4.439 -0.0002 -0.4509 -0.1338
 7156SOL    HW228390   1.610   5.492   4.451  0.2592 -0.7606 -2.4209
 7156SOL    HW328391   1.474   5.483   4.515  1.8967  0.5148  1.5723
 7156SOL    MW428392   1.525   5.511   4.450  0.2843 -0.3643 -0.2105
 7157SOL     OW28393   6.195   5.353   0.817 -0.0130 -0.5465  0.2261
 7157SOL    HW228394   6.254   5.280   0.834  0.3662 -0.1987  0.3974
 7157SOL    HW328395   6.249   5.431   0.825 -0.4658 -0.2303  0.2727
 7157SOL    MW428396   6.210   5.353   0.820 -0.0227 -0.4589  0.2548
 7158SOL     OW28397   5.539   5.427   5.372 -0.0503  0.5268 -0.4516
 7158SOL    HW228398   5.558   5.485   5.446  1.4971 -1.7999  1.1277
 7158SOL    HW328399   5.448   5.447   5.349 -0.0424  2.5231  0.9204
 7158SOL    MW428400   5.529   5.437   5.379  0.1549  0.4832 -0.0623
 7159SOL     OW28401   6.348   0.356   5.471 -0.4253 -0.1198 -0.1248
 7159SOL    HW228402   6.325   0.429   5.412  1.0432  0.6287  0.1740
 7159SOL    HW328403   6.304   0.377   5.553  0.1453  0.5657  0.0204
 7159SOL    MW428404   6.339   0.369   5.474 -0.1563  0.0694 -0.0662
 7160SOL     OW28405   2.463   2.334   4.170 -0.8310 -0.7369 -0.7889
 7160SOL    HW228406   2.495   2.420   4.199 -0.3991 -1.1565  0.0048
 7160SOL    HW328407   2.440   2.288   4.251 -0.0566 -1.7622 -1.1337
 7160SOL    MW428408   2.464   2.339   4.185 -0.6719 -0.9276 -0.7297
 7161SOL     OW28409   5.390   0.986   4.456 -0.3102 -0.1190  0.1372
 7161SOL    HW228410   5.390   1.051   4.526  0.9010  0.3063 -0.2428
 7161SOL    HW328411   5.306   1.000   4.411 -0.1540  1.0534  0.1785
 7161SOL    MW428412   5.379   0.996   4.459 -0.1298  0.0918  0.0925
 7162SOL     OW28413   6.268   5.411   1.185 -0.1336 -0.0076  0.0097
 7162SOL    HW228414   6.185   5.399   1.138 -0.1182 -1.8677  0.3694
 7162SOL    HW328415   6.325   5.454   1.122 -0.5495 -1.1807 -1.2272
 7162SOL    MW428416   6.264   5.415   1.171 -0.1864 -0.4078 -0.1060
 7163SOL     OW28417   0.848   3.477   3.357  0.0051 -0.5552 -0.0087
 7163SOL    HW228418   0.870   3.568   3.378  0.3350 -0.6887  0.2309
 7163SOL    HW328419   0.847   3.432   3.442  0.2314 -0.8580 -0.1651
 7163SOL    MW428420   0.850   3.483   3.371  0.0785 -0.6128  0.0023
 7164SOL     OW28421   6.238   1.339   3.082  0.6050  0.1862 -0.2867
 7164SOL    HW228422   6.293   1.291   3.020 -0.5758  1.2155 -2.2022
 7164SOL    HW328423   6.151   1.337   3.043 -0.1023  1.2156  1.1677
 7164SOL    MW428424   6.234   1.332   3.069  0.3558  0.4578 -0.3475
 7165SOL     OW28425   0.250   2.904   3.968 -0.0247 -0.5839 -0.0395
 7165SOL    HW228426   0.324   2.955   3.936 -1.0014  1.0951  0.2997
 7165SOL    HW328427   0.215   2.861   3.890 -0.5677  1.0969 -0.7496
 7165SOL    MW428428   0.255   2.905   3.953 -0.2252 -0.1406 -0.0884
 7166SOL     OW28429   5.320   1.770   4.049  0.1575  0.2223 -0.6902
 7166SOL    HW228430   5.274   1.854   4.057  0.0373  0.1582 -0.7106
 7166SOL    HW328431   5.277   1.713   4.113  0.7830  0.4138 -0.0870
 7166SOL    MW428432   5.308   1.773   4.059  0.2242  0.2391 -0.6133
 7167SOL     OW28433   2.191   5.945   5.629  1.0211 -0.1383 -0.3513
 7167SOL    HW228434   2.204   5.909   5.716 -0.4524  1.8953  0.8140
 7167SOL    HW328435   2.253   6.017   5.623  2.1766 -1.1803 -1.6442
 7167SOL    MW428436   2.201   5.950   5.640  0.9792 -0.0075 -0.3682
 7168SOL     OW28437   4.637   3.177   0.266  0.0470 -0.0716  0.2249
 7168SOL    HW228438   4.722   3.138   0.247  0.3910  0.8612 -0.2380
 7168SOL    HW328439   4.656   3.270   0.281 -0.8357  0.0737  0.5161
 7168SOL    MW428440   4.650   3.184   0.265 -0.0240  0.0706  0.2022
 7169SOL     OW28441   3.085   0.199   6.183 -0.3961  0.9792  0.6032
 7169SOL    HW228442   3.137   0.153   6.117 -1.4985  1.3656 -0.5874
 7169SOL    HW328443   3.134   0.189   6.264 -1.4897 -4.0693  0.9577
 7169SOL    MW428444   3.098   0.192   6.185 -0.6859  0.3641  0.4929
 7170SOL     OW28445   1.952   5.042   1.071  0.0829 -0.0396  0.8834
 7170SOL    HW228446   1.904   4.968   1.109  1.4523 -1.5646 -0.2160
 7170SOL    HW328447   2.044   5.020   1.084  0.5962 -0.0413 -2.1149
 7170SOL    MW428448   1.958   5.029   1.078  0.3313 -0.2410  0.3427
 7171SOL     OW28449   2.941   2.398   2.216 -0.6577  0.0244 -0.1364
 7171SOL    HW228450   2.932   2.428   2.126  1.3382  2.1624  0.2831
 7171SOL    HW328451   2.892   2.461   2.268 -2.2951 -1.5299  0.3005
 7171SOL    MW428452   2.933   2.410   2.211 -0.6104  0.1014 -0.0234
 7172SOL     OW28453   6.068   0.205   2.442 -0.6837 -0.0500  0.8253
 7172SOL    HW228454   6.163   0.205   2.456 -0.2365 -1.4554 -1.6067
 7172SOL    HW328455   6.050   0.288   2.397 -0.6304  0.2278  1.3089
 7172SOL    MW428456   6.078   0.216   2.438 -0.6177 -0.1988  0.5682
 7173SOL     OW28457   0.254   1.375   6.305  0.6331  0.2672 -0.8057
 7173SOL    HW228458   0.201   1.304   6.341  1.5669  0.0815  0.2642
 7173SOL    HW328459   0.223   1.453   6.351  1.8359  0.0280  0.4909
 7173SOL    MW428460   0.243   1.376   6.316  0.9150  0.2111 -0.4935
 7174SOL     OW28461   0.447   1.172   3.704  0.2250 -0.2780 -0.1125
 7174SOL    HW228462   0.487   1.251   3.666  0.7938 -0.2454  0.5328
 7174SOL    HW328463   0.475   1.173   3.796 -1.2328 -0.2819  0.3565
 7174SOL    MW428464   0.456   1.183   3.711  0.1077 -0.2742  0.0345
 7175SOL     OW28465   6.136   5.337   2.654 -0.2535  0.9389  0.0709
 7175SOL    HW228466   6.129   5.376   2.742 -0.1337  0.7419  0.1688
 7175SOL    HW328467   6.048   5.346   2.617 -0.1050  1.7446 -0.0991
 7175SOL    MW428468   6.124   5.343   2.661 -0.2181  1.0192  0.0614
 7176SOL     OW28469   5.303   4.220   2.257  0.3477  0.1429  0.4648
 7176SOL    HW228470   5.337   4.219   2.347  1.9228 -1.5305 -0.0733
 7176SOL    HW328471   5.243   4.146   2.253 -0.4110  0.7572  0.3663
 7176SOL    MW428472   5.300   4.210   2.269  0.4554  0.0031  0.3808
 7177SOL     OW28473   0.481   2.242   2.878 -0.0367 -1.2423  0.3905
 7177SOL    HW228474   0.564   2.258   2.832 -0.4045  3.2300  0.7555
 7177SOL    HW328475   0.502   2.255   2.970 -1.0757  0.3835  0.4593
 7177SOL    MW428476   0.495   2.246   2.884 -0.2223 -0.4377  0.4478
 7178SOL     OW28477   4.731   4.897   3.324 -0.0541 -0.3922  0.3201
 7178SOL    HW228478   4.776   4.960   3.380 -0.4300 -1.0656  1.4146
 7178SOL    HW328479   4.670   4.851   3.383  0.0871 -1.6580 -0.4677
 7178SOL    MW428480   4.729   4.899   3.339 -0.0851 -0.6481  0.3605
 7179SOL     OW28481   0.021   5.871   0.608  0.0686 -0.1915  0.5815
 7179SOL    HW228482  -0.042   5.923   0.559  0.4378  1.5124  1.8229
 7179SOL    HW328483  -0.008   5.877   0.699  1.6301  0.1025  1.0990
 7179SOL    MW428484   0.009   5.879   0.614  0.3234  0.0721  0.8136
 7180SOL     OW28485   3.115   2.011   4.068 -0.0583 -0.5795  0.3981
 7180SOL    HW228486   3.185   2.076   4.062  0.4917 -1.2091 -0.2643
 7180SOL    HW328487   3.054   2.047   4.132  0.3813  0.4475  0.2644
 7180SOL    MW428488   3.116   2.024   4.075  0.0723 -0.5271  0.2931
 7181SOL     OW28489   6.361   3.021   6.109  0.6874 -0.1052 -0.1907
 7181SOL    HW228490   6.311   3.041   6.188 -1.7130 -2.2109 -1.0059
 7181SOL    HW328491   6.444   3.066   6.121 -0.4859  1.6566  2.3881
 7181SOL    MW428492   6.365   3.029   6.121  0.2159 -0.1506  0.0420
 7182SOL     OW28493   6.006   0.790   4.322  0.5917 -0.1733 -0.2383
 7182SOL    HW228494   5.956   0.762   4.398 -2.7244 -0.1805 -2.2289
 7182SOL    HW328495   6.045   0.873   4.348  0.3261 -0.6020  1.7158
 7182SOL    MW428496   6.004   0.797   4.335  0.1191 -0.2308 -0.2431
 7183SOL     OW28497   4.719   2.194   4.388  0.2790 -0.4566 -0.3089
 7183SOL    HW228498   4.783   2.223   4.323  0.5805  0.1197  0.2265
 7183SOL    HW328499   4.694   2.106   4.360  2.4957 -1.3632  0.3290
 7183SOL    MW428500   4.724   2.186   4.376  0.6113 -0.5002 -0.1541
 7184SOL     OW28501   6.377   2.210   3.724 -0.2635  0.3787  0.2198
 7184SOL    HW228502   6.294   2.252   3.745 -0.2655 -0.0336  1.0845
 7184SOL    HW328503   6.381   2.211   3.628 -0.8299  1.2268  0.1959
 7184SOL    MW428504   6.367   2.215   3.714 -0.3385  0.4362  0.3307
 7185SOL     OW28505   2.177   2.844   4.437  0.6013  0.0095  0.1819
 7185SOL    HW228506   2.271   2.828   4.449  0.2191 -2.2215  0.5119
 7185SOL    HW328507   2.152   2.897   4.513  1.8173  1.9114 -0.6470
 7185SOL    MW428508   2.186   2.849   4.449  0.7113 -0.0339  0.1161
 7186SOL     OW28509   5.393   5.131   6.029  0.1597  0.6579  0.0845
 7186SOL    HW228510   5.386   5.226   6.039  1.6738  0.7472  0.5908
 7186SOL    HW328511   5.479   5.110   6.065  0.0255 -0.8548 -0.4230
 7186SOL    MW428512   5.404   5.141   6.035  0.3417  0.4701  0.0844
 7187SOL     OW28513   0.015   0.696   5.413 -0.2855 -0.6949 -0.2213
 7187SOL    HW228514   0.096   0.645   5.406  0.3481  0.0757  1.0547
 7187SOL    HW328515  -0.010   0.713   5.322  1.4435 -0.2794 -0.6618
 7187SOL    MW428516   0.023   0.692   5.400  0.0262 -0.5384 -0.1111
 7188SOL     OW28517   3.411   0.855   4.785  0.2848  0.5435  0.1596
 7188SOL    HW228518   3.495   0.865   4.831  0.3489  2.1013 -0.2599
 7188SOL    HW328519   3.359   0.931   4.812 -1.0948 -0.5000  0.5642
 7188SOL    MW428520   3.415   0.866   4.795  0.1112  0.6114  0.1576
 7189SOL     OW28521   5.440   5.536   3.316 -0.0269  0.2097 -0.0379
 7189SOL    HW228522   5.452   5.596   3.242  0.8466 -0.0275 -0.1015
 7189SOL    HW328523   5.502   5.566   3.382 -0.0118 -0.2510  0.1651
 7189SOL    MW428524   5.450   5.548   3.315  0.0904  0.1176 -0.0195
 7190SOL     OW28525   2.048   2.574   4.549  0.3742  0.9016  0.1761
 7190SOL    HW228526   2.094   2.647   4.506  2.3028 -0.0384  0.5172
 7190SOL    HW328527   2.101   2.555   4.627 -0.8252 -0.0279  0.7968
 7190SOL    MW428528   2.061   2.581   4.554  0.4704  0.6549  0.3030
 7191SOL     OW28529   5.042   5.489   3.084  0.1070  0.3116  0.1506
 7191SOL    HW228530   5.074   5.575   3.055  1.0455 -0.4352 -1.1250
 7191SOL    HW328531   5.084   5.476   3.169  0.0899  1.0344  0.2808
 7191SOL    MW428532   5.052   5.499   3.091  0.2285  0.3084 -0.0005
 7192SOL     OW28533   6.357   0.076   5.239 -0.1526 -0.0897 -0.3849
 7192SOL    HW228534   6.335   0.155   5.191 -0.1271 -0.3049 -0.7524
 7192SOL    HW328535   6.427   0.101   5.298  0.4796 -0.0588 -1.1443
 7192SOL    MW428536   6.363   0.090   5.241 -0.0658 -0.1140 -0.5336
 7193SOL     OW28537   2.842   4.290   5.512  0.4375  0.1949  0.1034
 7193SOL    HW228538   2.770   4.300   5.575  0.2932  0.3270 -0.0796
 7193SOL    HW328539   2.823   4.355   5.444  1.9117  1.8168  1.1434
 7193SOL    MW428540   2.830   4.300   5.511  0.6130  0.4263  0.2164
 7194SOL     OW28541   4.587   6.238   4.255  0.0734  0.0836  0.0239
 7194SOL    HW228542   4.502   6.257   4.215 -1.5401  0.1148  3.1328
 7194SOL    HW328543   4.586   6.143   4.268 -0.0397  0.2140  1.0798
 7194SOL    MW428544   4.575   6.228   4.252 -0.1544  0.1049  0.5734
 7195SOL     OW28545   1.071   1.835   5.652  0.4554 -0.3333 -0.0127
 7195SOL    HW228546   1.066   1.929   5.666  2.5120 -0.2861  0.7527
 7195SOL    HW328547   1.117   1.801   5.730  0.4743 -1.8556 -0.6426
 7195SOL    MW428548   1.076   1.843   5.664  0.7292 -0.5280  0.0052
 7196SOL     OW28549   3.578   6.137   4.848  0.0739 -0.8512 -0.1846
 7196SOL    HW228550   3.532   6.086   4.915  1.3898  0.3521  1.7438
 7196SOL    HW328551   3.670   6.117   4.862  0.5531  1.2334 -0.0282
 7196SOL    MW428552   3.584   6.128   4.859  0.3107 -0.4174  0.0905
 7197SOL     OW28553   2.664   5.474   3.597  0.6817 -0.2652  0.3825
 7197SOL    HW228554   2.600   5.517   3.542  0.9067  0.0401  0.3523
 7197SOL    HW328555   2.681   5.537   3.668 -0.0526 -0.8946  1.1409
 7197SOL    MW428556   2.658   5.488   3.599  0.6145 -0.3080  0.4786
 7198SOL     OW28557   2.177   6.292   3.892 -0.0399  0.6047 -0.1245
 7198SOL    HW228558   2.235   6.330   3.958  0.1594  1.3017 -0.7017
 7198SOL    HW328559   2.131   6.222   3.940 -0.7018  1.8037  1.0569
 7198SOL    MW428560   2.179   6.288   3.907 -0.1010  0.8548 -0.0448
 7199SOL     OW28561   4.197   5.470   2.419 -0.3002  0.0791 -0.1240
 7199SOL    HW228562   4.279   5.462   2.468  0.7013  1.3763 -1.4819
 7199SOL    HW328563   4.217   5.430   2.334 -1.1831  0.1394 -0.3671
 7199SOL    MW428564   4.210   5.464   2.414 -0.2845  0.2582 -0.3352
 7200SOL     OW28565   0.202   0.259   0.752  0.1802  0.2268 -0.3093
 7200SOL    HW228566   0.132   0.222   0.698 -0.4573  0.8967  0.0323
 7200SOL    HW328567   0.279   0.258   0.695  0.0276 -1.0110 -0.5143
 7200SOL    MW428568   0.203   0.254   0.737  0.0760  0.1518 -0.2913
 7201SOL     OW28569   0.381   5.853   2.253 -0.0371 -0.3145  0.0757
 7201SOL    HW228570   0.382   5.759   2.236  0.8567 -0.3187  0.0804
 7201SOL    HW328571   0.402   5.861   2.346  2.6063 -0.0482 -0.4652
 7201SOL    MW428572   0.384   5.842   2.263  0.4296 -0.2799  0.0050
 7202SOL     OW28573   2.209   5.326   0.641 -0.3086  0.5102 -0.2842
 7202SOL    HW228574   2.151   5.359   0.709  0.6372  3.1018 -0.6320
 7202SOL    HW328575   2.188   5.380   0.564  1.4650  0.4625 -0.8367
 7202SOL    MW428576   2.198   5.338   0.640  0.0502  0.8458 -0.4030
 7203SOL     OW28577   5.654   3.125   5.926 -0.0533 -0.3468 -0.0173
 7203SOL    HW228578   5.693   3.190   5.867 -0.2549 -1.0031 -0.9022
 7203SOL    HW328579   5.665   3.042   5.880 -0.0968 -0.8969  0.9503
 7203SOL    MW428580   5.660   3.123   5.912 -0.0857 -0.5060 -0.0063
 7204SOL     OW28581   2.716   1.819   6.164  0.2718 -0.2324 -0.3226
 7204SOL    HW228582   2.777   1.757   6.123 -0.6189 -0.4095 -1.4317
 7204SOL    HW328583   2.735   1.902   6.121  1.3686  0.2668  1.0632
 7204SOL    MW428584   2.727   1.821   6.153  0.2990 -0.1899 -0.2861
 7205SOL     OW28585   2.319   4.922   6.094  0.1140 -0.8188  0.3937
 7205SOL    HW228586   2.250   4.871   6.138 -0.5640  0.7352  1.2250
 7205SOL    HW328587   2.322   4.887   6.005 -1.3749 -1.3007  0.5024
 7205SOL    MW428588   2.310   4.911   6.088 -0.1719 -0.6773  0.5177
 7206SOL     OW28589   1.312   5.996   5.032 -0.3202 -0.6864 -0.0390
 7206SOL    HW228590   1.230   6.006   5.080 -0.3340 -0.4080 -0.1166
 7206SOL    HW328591   1.354   5.920   5.071 -1.6239 -2.1808 -1.4275
 7206SOL    MW428592   1.307   5.988   5.043 -0.4940 -0.8468 -0.2324
 7207SOL     OW28593   6.422   2.349   5.258  0.1512 -0.2739  0.4560
 7207SOL    HW228594   6.420   2.259   5.292 -0.1118  0.0604  1.3453
 7207SOL    HW328595   6.331   2.378   5.263  0.3728  0.3371  0.9780
 7207SOL    MW428596   6.410   2.341   5.263  0.1457 -0.1492  0.6422
 7208SOL     OW28597   1.490   2.799   6.038  0.5001 -0.0498  0.1098
 7208SOL    HW228598   1.563   2.836   5.988  0.2968  1.5465  0.9284
 7208SOL    HW328599   1.507   2.705   6.039  2.5499  0.2740  0.2724
 7208SOL    MW428600   1.502   2.791   6.031  0.7437  0.2035  0.2392
 7209SOL     OW28601   5.605   3.338   6.117 -0.0651 -0.1722  0.4541
 7209SOL    HW228602   5.601   3.268   6.052  0.4568  0.1608  0.0608
 7209SOL    HW328603   5.520   3.382   6.109  0.6535  1.0319 -1.3420
 7209SOL    MW428604   5.593   3.335   6.107  0.0986  0.0306  0.1652
 7210SOL     OW28605   5.920   4.057   2.965  0.1115  0.1107  0.0042
 7210SOL    HW228606   6.004   4.013   2.968  1.1359  1.9639  0.1168
 7210SOL    HW328607   5.934   4.132   2.907 -1.2263  0.9176  0.6547
 7210SOL    MW428608   5.933   4.061   2.958  0.0701  0.4616  0.1049
 7211SOL     OW28609   3.234   2.933   3.247  0.0435  0.3158 -0.0679
 7211SOL    HW228610   3.240   2.839   3.265 -0.3132  0.3067  0.0014
 7211SOL    HW328611   3.250   2.941   3.153 -0.7073  0.1105 -0.2163
 7211SOL    MW428612   3.237   2.922   3.237 -0.1026  0.2875 -0.0783
 7212SOL     OW28613   2.772   2.383   4.014 -0.1433  0.7676 -0.0457
 7212SOL    HW228614   2.798   2.398   4.105 -0.7097  1.6338 -0.0156
 7212SOL    HW328615   2.734   2.295   4.013  2.1276 -0.2930  0.0417
 7212SOL    MW428616   2.771   2.373   4.026  0.0816  0.7419 -0.0302
 7213SOL     OW28617   6.413   0.192   3.471  0.4093  0.0273  0.2437
 7213SOL    HW228618   6.386   0.265   3.415 -1.8002 -0.7806  0.1671
 7213SOL    HW328619   6.500   0.168   3.439 -0.7067 -0.3132 -2.8142
 7213SOL    MW428620   6.421   0.199   3.460 -0.0295 -0.1242 -0.1698
 7214SOL     OW28621   1.375   4.090   2.065 -0.1923  0.6389  0.4237
 7214SOL    HW228622   1.430   4.168   2.069 -0.8150  1.0930  0.3773
 7214SOL    HW328623   1.358   4.076   1.972  1.8181 -0.9479  0.2268
 7214SOL    MW428624   1.380   4.098   2.053 -0.0092  0.4894  0.3916
 7215SOL     OW28625   4.048   6.064   1.849 -0.4304 -0.2298 -0.8164
 7215SOL    HW228626   4.042   6.025   1.936  1.5238 -0.7604 -0.8795
 7215SOL    HW328627   4.041   5.990   1.788 -0.8790  0.0371 -1.1059
 7215SOL    MW428628   4.046   6.049   1.852 -0.2318 -0.2646 -0.8629
 7216SOL     OW28629   2.896   4.840   4.555 -0.2609  0.0658  0.2555
 7216SOL    HW228630   2.966   4.778   4.532 -0.5626 -0.1418 -0.1123
 7216SOL    HW328631   2.942   4.913   4.596  0.2216  0.0941 -0.3101
 7216SOL    MW428632   2.912   4.842   4.557 -0.2370  0.0422  0.1324
 7217SOL     OW28633   4.295   1.629   5.584 -0.3210 -0.0853 -0.5148
 7217SOL    HW228634   4.301   1.573   5.507 -0.6185 -0.3865 -0.3192
 7217SOL    HW328635   4.274   1.570   5.655  0.2508  0.1516 -0.1433
 7217SOL    MW428636   4.293   1.614   5.583 -0.2848 -0.0938 -0.4400
 7218SOL     OW28637   2.262   2.766   0.487  0.4686  0.1878 -0.2086
 7218SOL    HW228638   2.261   2.861   0.493 -0.7863  0.3121 -1.6661
 7218SOL    HW328639   2.170   2.741   0.484  0.7792 -1.0727  0.0645
 7218SOL    MW428640   2.250   2.775   0.488  0.3440  0.0379 -0.3648
 7219SOL     OW28641   2.379   1.592   4.239  0.3849 -0.8226 -0.2503
 7219SOL    HW228642   2.395   1.504   4.204 -0.3482  0.3424 -4.0227
 7219SOL    HW328643   2.288   1.610   4.215  0.5651  1.0142  0.3016
 7219SOL    MW428644   2.369   1.583   4.231  0.3120 -0.4265 -0.6752
 7220SOL     OW28645   0.683   6.230   4.083 -0.5798  0.4795 -0.2253
 7220SOL    HW228646   0.682   6.207   3.990 -0.2512  0.8754 -0.3264
 7220SOL    HW328647   0.742   6.304   4.090 -3.5545  3.0774 -0.3325
 7220SOL    MW428648   0.690   6.237   4.072 -0.9289  0.8745 -0.2528
 7221SOL     OW28649   1.791   2.031   3.616  0.5780 -0.1682 -0.6237
 7221SOL    HW228650   1.860   2.065   3.674 -0.1186 -0.5840  0.4785
 7221SOL    HW328651   1.751   1.960   3.666 -0.0154 -0.5710 -1.6538
 7221SOL    MW428652   1.795   2.026   3.630  0.4078 -0.2762 -0.6142
 7222SOL     OW28653   3.096   0.509   6.384  0.4387 -0.3299  0.0667
 7222SOL    HW228654   3.082   0.502   6.290  0.9112 -2.1101  0.0924
 7222SOL    HW328655   3.188   0.536   6.393 -0.0105  1.3018  0.0272
 7222SOL    MW428656   3.107   0.511   6.373  0.4417 -0.3495  0.0649
 7223SOL     OW28657   1.743   1.539   0.252  0.0894 -0.0918  0.1816
 7223SOL    HW228658   1.702   1.571   0.332  0.8065 -0.3318  0.6551
 7223SOL    HW328659   1.765   1.618   0.203  1.4636  0.1519  1.1466
 7223SOL    MW428660   1.741   1.554   0.256  0.3653 -0.0913  0.3714
 7224SOL     OW28661   0.640   2.563   0.710  0.4356  0.2738  0.4996
 7224SOL    HW228662   0.620   2.556   0.803  1.6008  2.6608  0.9897
 7224SOL    HW328663   0.674   2.477   0.686 -0.7161 -0.6630  2.0215
 7224SOL    MW428664   0.642   2.551   0.719  0.4374  0.4651  0.7650
 7225SOL     OW28665   4.010   1.533   2.687 -0.6989 -0.0622 -0.2500
 7225SOL    HW228666   3.942   1.466   2.695 -1.1308  0.2393 -1.2892
 7225SOL    HW328667   4.037   1.530   2.595  2.1868 -1.5996  0.5252
 7225SOL    MW428668   4.005   1.524   2.676 -0.3751 -0.2253 -0.2848
 7226SOL     OW28669   5.445   5.493   2.364 -0.5534 -0.0597  0.0408
 7226SOL    HW228670   5.508   5.421   2.373  0.2694  0.6114 -0.2467
 7226SOL    HW328671   5.362   5.456   2.393 -0.1422 -1.1327 -0.1211
 7226SOL    MW428672   5.443   5.479   2.369 -0.3906 -0.1128 -0.0185
 7227SOL     OW28673   5.782   2.047   2.549 -0.2063 -0.3511 -0.0161
 7227SOL    HW228674   5.698   2.010   2.522 -0.5485  0.2335  0.2282
 7227SOL    HW328675   5.774   2.140   2.532  0.4975 -0.3236 -0.2370
 7227SOL    MW428676   5.770   2.054   2.543 -0.1586 -0.2704 -0.0130
 7228SOL     OW28677   5.574   4.258   2.345  0.0797  0.1784  0.0360
 7228SOL    HW228678   5.639   4.267   2.275  0.1984 -0.8860  0.0004
 7228SOL    HW328679   5.603   4.182   2.395 -1.4618 -0.6984 -0.3391
 7228SOL    MW428680   5.586   4.249   2.342 -0.1080 -0.0777 -0.0182
 7229SOL     OW28681   0.958   0.180   2.419 -0.4876 -0.8488  0.0061
 7229SOL    HW228682   0.890   0.148   2.359 -1.2710 -0.2434  0.5463
 7229SOL    HW328683   0.981   0.266   2.383  0.6119 -1.4034 -0.6531
 7229SOL    MW428684   0.952   0.187   2.406 -0.4459 -0.8421 -0.0096
 7230SOL     OW28685   4.216   1.747   6.179 -0.2747  0.4512 -0.0019
 7230SOL    HW228686   4.134   1.755   6.228  0.6544 -0.5576  1.8245
 7230SOL    HW328687   4.232   1.653   6.174  1.3745  0.6509  0.8209
 7230SOL    MW428688   4.207   1.736   6.185  0.0655  0.3445  0.3476
 7231SOL     OW28689   2.678   0.211   5.092 -0.4187 -0.0591 -0.1855
 7231SOL    HW228690   2.697   0.265   5.015 -0.8801  1.3961  0.6608
 7231SOL    HW328691   2.614   0.147   5.063 -0.6734  0.5473 -0.9856
 7231SOL    MW428692   2.672   0.210   5.078 -0.5132  0.2129 -0.1794
 7232SOL     OW28693   4.605   1.435   1.533 -0.3766 -0.4365  0.0438
 7232SOL    HW228694   4.510   1.419   1.530 -0.7641  1.0816  2.1891
 7232SOL    HW328695   4.627   1.430   1.626  1.4470  0.3447 -0.3103
 7232SOL    MW428696   4.595   1.432   1.545 -0.1871 -0.1331  0.2801
 7233SOL     OW28697   6.219   2.233   2.384  0.2285  0.4863  0.0383
 7233SOL    HW228698   6.283   2.304   2.382  0.9578 -0.1005  1.5155
 7233SOL    HW328699   6.214   2.208   2.476 -2.4988  0.8257  0.0499
 7233SOL    MW428700   6.227   2.239   2.396 -0.0351  0.4536  0.2348
 7234SOL     OW28701   2.748   2.568   3.791  0.1859 -0.3748 -0.2804
 7234SOL    HW228702   2.742   2.518   3.873  1.0798 -0.8155 -0.4659
 7234SOL    HW328703   2.704   2.513   3.726  2.2201 -1.5539 -0.7429
 7234SOL    MW428704   2.742   2.554   3.793  0.5722 -0.5885 -0.3659
 7235SOL     OW28705   5.162   5.406   4.576 -0.0832 -0.2382  0.4466
 7235SOL    HW228706   5.091   5.354   4.614 -0.4830 -0.0206  0.0118
 7235SOL    HW328707   5.158   5.386   4.482 -0.3384  0.6801  0.2512
 7235SOL    MW428708   5.152   5.396   4.568 -0.1696 -0.0883  0.3635
 7236SOL     OW28709   0.130   1.996   5.125  0.4236  0.5309  0.0087
 7236SOL    HW228710   0.065   2.013   5.057  0.4030 -0.0115 -0.1107
 7236SOL    HW328711   0.214   2.006   5.081  0.4086 -0.8269 -0.3611
 7236SOL    MW428712   0.132   2.000   5.111  0.4189  0.2802 -0.0558
 7237SOL     OW28713   2.593   2.624   1.848 -0.0089  0.2023  0.4097
 7237SOL    HW228714   2.510   2.584   1.874 -1.0976  2.3971  0.5242
 7237SOL    HW328715   2.607   2.595   1.758 -1.8971  1.2627 -0.2721
 7237SOL    MW428716   2.584   2.614   1.840 -0.4017  0.6318  0.3349
 7238SOL     OW28717   6.079   1.360   0.930 -0.1197  0.3688 -0.5802
 7238SOL    HW228718   6.125   1.287   0.970 -0.9277  1.0830  1.8492
 7238SOL    HW328719   6.089   1.432   0.993 -2.8665  1.0961 -0.8457
 7238SOL    MW428720   6.086   1.360   0.944 -0.5887  0.5590 -0.2947
 7239SOL     OW28721   0.469   5.351   3.717  0.5676 -0.2605  0.3799
 7239SOL    HW228722   0.479   5.386   3.805  0.5206 -3.1985  1.6808
 7239SOL    HW328723   0.557   5.325   3.691  0.9545  2.4331 -1.4158
 7239SOL    MW428724   0.482   5.352   3.725  0.6124 -0.2927  0.3146
 7240SOL     OW28725   0.274   0.639   2.406 -0.6138 -0.6608  0.4360
 7240SOL    HW228726   0.326   0.655   2.485 -0.1390 -0.7854  0.1515
 7240SOL    HW328727   0.309   0.557   2.370 -0.3599 -0.2481 -0.2757
 7240SOL    MW428728   0.285   0.630   2.412 -0.5177 -0.6228  0.3045
 7241SOL     OW28729   3.076   0.671   4.364  0.0331 -0.2614 -0.3172
 7241SOL    HW228730   3.161   0.657   4.405 -0.6589 -1.0734  0.9007
 7241SOL    HW328731   3.045   0.755   4.398  0.7818  0.5621 -1.5871
 7241SOL    MW428732   3.083   0.680   4.374  0.0405 -0.2599 -0.3240
 7242SOL     OW28733   1.844   3.670   4.584 -0.6580 -0.2759  0.1743
 7242SOL    HW228734   1.773   3.727   4.612 -1.2814  0.1238 -2.0159
 7242SOL    HW328735   1.825   3.652   4.492 -0.3431 -3.8285  0.6537
 7242SOL    MW428736   1.832   3.675   4.576 -0.6987 -0.6919 -0.0515
 7243SOL     OW28737   1.144   2.765   5.757  0.5552  0.2206 -0.2076
 7243SOL    HW228738   1.156   2.805   5.843  0.5112 -1.5965  0.6976
 7243SOL    HW328739   1.061   2.718   5.764  0.5247  0.1034 -1.2566
 7243SOL    MW428740   1.135   2.764   5.769  0.5454 -0.0346 -0.2266
 7244SOL     OW28741   0.067   0.486   4.323  0.3262 -0.1134  0.7640
 7244SOL    HW228742   0.080   0.510   4.415  1.5950  0.1079  0.5396
 7244SOL    HW328743  -0.026   0.505   4.307  0.6558  2.2709  1.3001
 7244SOL    MW428744   0.056   0.492   4.333  0.5371  0.2303  0.8051
 7245SOL     OW28745   1.257   5.943   1.897 -0.5678 -0.4171  0.0962
 7245SOL    HW228746   1.297   6.026   1.872 -1.3237 -0.3156 -0.7980
 7245SOL    HW328747   1.251   5.893   1.816 -1.2428 -0.8627  0.4079
 7245SOL    MW428748   1.261   5.947   1.883 -0.7566 -0.4625  0.0194
 7246SOL     OW28749   4.724   5.652   3.297 -0.8598 -0.7854 -0.1127
 7246SOL    HW228750   4.786   5.719   3.267 -0.0528 -0.1648  2.7025
 7246SOL    HW328751   4.639   5.682   3.265 -0.1012 -0.2248 -1.7252
 7246SOL    MW428752   4.721   5.665   3.289 -0.6532 -0.6295  0.0460
 7247SOL     OW28753   3.741   4.021   1.775  0.2885  0.3687 -0.5342
 7247SOL    HW228754   3.751   4.113   1.801 -1.3249  0.4419 -0.0754
 7247SOL    HW328755   3.788   3.972   1.842  1.6283  0.8582 -1.0800
 7247SOL    MW428756   3.749   4.027   1.787  0.2524  0.4430 -0.5457
 7248SOL     OW28757   1.868   6.381   2.181  0.6012 -0.5637 -0.1583
 7248SOL    HW228758   1.779   6.406   2.205  0.9369  0.5639 -0.0537
 7248SOL    HW328759   1.923   6.423   2.247  1.2105 -1.3823 -0.1327
 7248SOL    MW428760   1.863   6.390   2.193  0.7259 -0.5230 -0.1411
 7249SOL     OW28761   4.896   0.472   2.709 -0.1875  0.0190 -0.3722
 7249SOL    HW228762   4.913   0.536   2.779 -0.5420 -0.6662  0.3463
 7249SOL    HW328763   4.945   0.507   2.634 -0.0724  0.9435  0.1086
 7249SOL    MW428764   4.905   0.485   2.708 -0.2191  0.0506 -0.2140
 7250SOL     OW28765   1.998   5.998   0.113 -0.0726 -0.2562 -0.4157
 7250SOL    HW228766   2.028   6.045   0.191  1.0941  0.9631 -1.5322
 7250SOL    HW328767   1.925   6.050   0.080  0.4091  0.0828 -0.9598
 7250SOL    MW428768   1.993   6.011   0.119  0.1449 -0.0506 -0.6348
 7251SOL     OW28769   1.331   3.450   0.080  0.0495  0.4412 -0.3162
 7251SOL    HW228770   1.342   3.481   0.169  0.8988 -0.0220 -0.2510
 7251SOL    HW328771   1.372   3.364   0.079 -1.8369 -0.5201 -0.6052
 7251SOL    MW428772   1.338   3.443   0.091 -0.0873  0.2532 -0.3457
 7252SOL     OW28773   0.500   6.234   4.711 -0.5572  0.1691 -0.4213
 7252SOL    HW228774   0.442   6.292   4.662  0.5003  1.6449 -0.0035
 7252SOL    HW328775   0.554   6.192   4.645 -0.4561  0.6571 -0.6501
 7252SOL    MW428776   0.499   6.236   4.696 -0.4043  0.4282 -0.3963
 7253SOL     OW28777   4.382   6.279   5.461  0.5221 -0.8703  0.1676
 7253SOL    HW228778   4.369   6.206   5.521  1.2964 -0.4029  0.9282
 7253SOL    HW328779   4.369   6.357   5.515  2.1506 -0.4308 -0.0370
 7253SOL    MW428780   4.378   6.280   5.476  0.8391 -0.7507  0.2410
 7254SOL     OW28781   3.930   2.709   3.096 -0.5667  0.3417  0.0679
 7254SOL    HW228782   3.860   2.692   3.159  0.5740  0.0195  1.2924
 7254SOL    HW328783   3.885   2.724   3.013 -2.1692  1.8344  1.1531
 7254SOL    MW428784   3.915   2.709   3.093 -0.6276  0.4961  0.3726
 7255SOL     OW28785   4.178   1.545   1.211 -0.9963  0.4031  0.4098
 7255SOL    HW228786   4.231   1.475   1.174 -1.4334  0.3804 -0.1929
 7255SOL    HW328787   4.089   1.510   1.211 -1.0524  0.5192  1.2063
 7255SOL    MW428788   4.173   1.531   1.206 -1.0614  0.4154  0.4354
 7256SOL     OW28789   2.685   5.197   2.903  0.6702  0.1768 -0.2540
 7256SOL    HW228790   2.607   5.143   2.915 -0.4198  1.4652 -1.1645
 7256SOL    HW328791   2.695   5.203   2.808  0.6665  1.6598 -0.1858
 7256SOL    MW428792   2.676   5.191   2.892  0.5259  0.5424 -0.3651
 7257SOL     OW28793   0.344   4.826   5.849 -0.1388 -0.1047  0.1267
 7257SOL    HW228794   0.268   4.884   5.858  0.7688  1.1476 -0.0677
 7257SOL    HW328795   0.410   4.879   5.805  0.8378 -1.2008  0.2212
 7257SOL    MW428796   0.343   4.840   5.844  0.1098 -0.0841  0.1135
 7258SOL     OW28797   0.659   2.887   0.576  0.0872 -0.2487  0.1402
 7258SOL    HW228798   0.629   2.862   0.489 -0.3198 -0.2135  0.2660
 7258SOL    HW328799   0.595   2.953   0.605  1.2041  1.0642 -0.2494
 7258SOL    MW428800   0.646   2.893   0.569  0.1809 -0.0708  0.1054
 7259SOL     OW28801   6.047   2.583   5.785  0.0542  0.5430  0.3610
 7259SOL    HW228802   5.975   2.543   5.736 -0.7342  1.9992  0.2679
 7259SOL    HW328803   6.125   2.534   5.759 -0.8016 -0.6841  0.0078
 7259SOL    MW428804   6.048   2.571   5.775 -0.1627  0.5732  0.3021
 7260SOL     OW28805   5.655   4.313   1.397  0.2482  0.1613  0.5868
 7260SOL    HW228806   5.691   4.302   1.309 -0.4273 -0.3105  0.3573
 7260SOL    HW328807   5.672   4.229   1.440 -0.9551 -0.2491  0.3186
 7260SOL    MW428808   5.662   4.300   1.391  0.0003  0.0449  0.5211
 7261SOL     OW28809   2.314   0.834   1.296  0.6422 -0.7045 -0.0078
 7261SOL    HW228810   2.235   0.783   1.280 -0.9964  1.0879  1.8133
 7261SOL    HW328811   2.372   0.773   1.342 -1.5815 -0.8520  2.8923
 7261SOL    MW428812   2.311   0.819   1.300  0.1326 -0.4875  0.6151
 7262SOL     OW28813   0.516   0.935   4.907  0.3370  0.3287 -0.4841
 7262SOL    HW228814   0.450   0.997   4.877  1.0464  0.7328 -1.2630
 7262SOL    HW328815   0.467   0.868   4.954 -0.5725  0.8528 -0.6646
 7262SOL    MW428816   0.501   0.934   4.909  0.3106  0.4512 -0.6107
 7263SOL     OW28817   5.146   4.134   6.112  0.2959 -0.7500 -0.7111
 7263SOL    HW228818   5.142   4.044   6.079 -2.7249 -0.5029 -1.2830
 7263SOL    HW328819   5.094   4.133   6.192  1.4030  0.2479  0.0565
 7263SOL    MW428820   5.138   4.122   6.118  0.0434 -0.5858 -0.6853
 7264SOL     OW28821   2.665   4.142   4.757 -0.4736  0.0171 -0.6309
 7264SOL    HW228822   2.649   4.191   4.676  0.9276  0.7959 -0.4766
 7264SOL    HW328823   2.639   4.202   4.827 -1.4499 -0.5610 -0.4783
 7264SOL    MW428824   2.660   4.157   4.756 -0.4175  0.0436 -0.5904
 7265SOL     OW28825   3.748   6.420   4.983 -0.1476  0.0606  0.5791
 7265SOL    HW228826   3.797   6.498   4.957 -0.8294  0.1457 -0.5299
 7265SOL    HW328827   3.679   6.412   4.917 -0.4719 -1.1303  1.0347
 7265SOL    MW428828   3.745   6.429   4.971 -0.2803 -0.0853  0.4929
 7266SOL     OW28829   4.079   5.750   0.614  0.4003  0.2512 -0.7931
 7266SOL    HW228830   4.117   5.831   0.582  1.0657  0.6724  0.9630
 7266SOL    HW328831   3.999   5.776   0.659  0.4009 -0.1011 -0.5762
 7266SOL    MW428832   4.074   5.764   0.616  0.4882  0.2603 -0.5328
 7267SOL     OW28833   3.476   1.502   0.722  0.2711 -0.3006 -0.1598
 7267SOL    HW228834   3.421   1.424   0.717  0.2568 -0.3317  0.3593
 7267SOL    HW328835   3.502   1.506   0.814  0.3482  0.2553 -0.2045
 7267SOL    MW428836   3.472   1.492   0.734  0.2794 -0.2313 -0.0972
 7268SOL     OW28837   4.261   3.968   6.340 -0.7518  0.0896 -0.1631
 7268SOL    HW228838   4.333   4.018   6.379 -1.3687  0.2670  0.7783
 7268SOL    HW328839   4.302   3.888   6.308  0.2840  1.1817 -1.7718
 7268SOL    MW428840   4.276   3.964   6.341 -0.6965  0.2571 -0.2511
 7269SOL     OW28841   3.365   1.520   1.813 -0.7324  0.0998  0.2646
 7269SOL    HW228842   3.318   1.593   1.773 -0.2596  0.4805  0.3924
 7269SOL    HW328843   3.369   1.454   1.744  0.4441  0.9141 -0.4943
 7269SOL    MW428844   3.360   1.521   1.798 -0.5148  0.2575  0.1813
 7270SOL     OW28845   5.703   5.327   6.038 -0.2747  0.1006 -0.3727
 7270SOL    HW228846   5.699   5.250   6.095  0.4885 -0.6668 -1.3021
 7270SOL    HW328847   5.669   5.296   5.954 -1.2446  1.1712 -0.4002
 7270SOL    MW428848   5.698   5.313   6.034 -0.3019  0.1406 -0.4990
 7271SOL     OW28849   2.324   5.540   1.238  0.4221 -0.1021 -0.3295
 7271SOL    HW228850   2.305   5.542   1.144 -0.8436  0.6685 -0.0855
 7271SOL    HW328851   2.394   5.476   1.247  1.6288  0.9090 -1.9770
 7271SOL    MW428852   2.331   5.532   1.227  0.4143  0.1330 -0.5147
 7272SOL     OW28853   1.517   1.688   3.565  0.3807  0.3373 -1.1327
 7272SOL    HW228854   1.430   1.651   3.552  0.4298 -0.2241 -0.0261
 7272SOL    HW328855   1.570   1.649   3.496  0.1585 -0.7692 -0.6944
 7272SOL    MW428856   1.513   1.678   3.554  0.3579  0.1173 -0.9288
 7273SOL     OW28857   0.010   1.912   4.395  0.6397 -0.5960  0.1835
 7273SOL    HW228858   0.032   1.843   4.334  0.5151  0.3342 -0.9577
 7273SOL    HW328859  -0.016   1.986   4.339  1.2968  0.5515  1.3260
 7273SOL    MW428860   0.009   1.913   4.380  0.7100 -0.3219  0.1837
 7274SOL     OW28861   4.468   0.261   5.945  0.0138  0.1724  0.2001
 7274SOL    HW228862   4.437   0.318   5.875 -1.5001 -0.0724  0.6433
 7274SOL    HW328863   4.489   0.179   5.902 -1.0158 -0.0108  0.0337
 7274SOL    MW428864   4.467   0.258   5.930 -0.3218  0.1159  0.2366
 7275SOL     OW28865   0.850   4.211   4.112  0.3287  0.0152 -0.5887
 7275SOL    HW228866   0.795   4.169   4.046  0.5665 -0.4104 -0.5179
 7275SOL    HW328867   0.791   4.273   4.156  0.3891  1.0020 -1.8185
 7275SOL    MW428868   0.835   4.214   4.109  0.3680  0.0893 -0.7416
 7276SOL     OW28869   4.954   5.083   2.486 -0.4751  0.0605  0.0462
 7276SOL    HW228870   4.937   5.156   2.546  0.1092 -1.2804  1.9231
 7276SOL    HW328871   4.944   5.005   2.540 -1.5878 -1.3290 -2.0120
 7276SOL    MW428872   4.950   5.082   2.501 -0.5448 -0.2998  0.0223
 7277SOL     OW28873   4.292   3.232   0.381 -0.9374 -0.3975 -0.3717
 7277SOL    HW228874   4.356   3.175   0.337 -0.1820  0.9023 -0.9992
 7277SOL    HW328875   4.336   3.317   0.387 -1.7526 -0.0508  1.2182
 7277SOL    MW428876   4.307   3.236   0.376 -0.9453 -0.1803 -0.2447
 7278SOL     OW28877   3.947   5.945   3.145 -0.1399 -0.1828  0.1752
 7278SOL    HW228878   3.936   5.954   3.240 -0.2694 -1.9422  0.3723
 7278SOL    HW328879   4.022   5.999   3.124  0.6830 -0.7419  1.5105
 7278SOL    MW428880   3.955   5.953   3.155 -0.0484 -0.4887  0.3774
 7279SOL     OW28881   0.884   3.314   1.860  0.0479  0.2945  0.0781
 7279SOL    HW228882   0.818   3.252   1.890  0.7993 -0.5331  0.0362
 7279SOL    HW328883   0.914   3.357   1.940  0.5258 -0.3938  0.2717
 7279SOL    MW428884   0.879   3.312   1.874  0.2101  0.0945  0.0981
 7280SOL     OW28885   2.835   0.891   0.281 -0.4846  0.0732 -0.0864
 7280SOL    HW228886   2.883   0.906   0.199 -1.3258  0.2898 -0.5561
 7280SOL    HW328887   2.898   0.847   0.338 -0.3600 -1.5597 -1.3999
 7280SOL    MW428888   2.850   0.887   0.278 -0.5792 -0.1137 -0.3217
 7281SOL     OW28889   1.562   1.406   5.599  0.1400 -0.5509  0.6830
 7281SOL    HW228890   1.565   1.397   5.503 -0.9685  0.4703  0.5242
 7281SOL    HW328891   1.648   1.439   5.623 -0.8424  3.5245 -0.5446
 7281SOL    MW428892   1.574   1.409   5.589 -0.1359  0.1216  0.5001
 7282SOL     OW28893   1.002   1.476   0.567 -0.0725  0.2674 -0.6362
 7282SOL    HW228894   0.942   1.536   0.612 -1.6875 -1.8980  0.2866
 7282SOL    HW328895   1.084   1.483   0.616 -0.5163  1.0339  0.0251
 7282SOL    MW428896   1.005   1.485   0.579 -0.3441  0.0828 -0.4272
 7283SOL     OW28897   2.252   3.607   1.543 -0.2089 -0.2400 -0.2275
 7283SOL    HW228898   2.333   3.628   1.496 -0.2630 -2.4235 -1.4398
 7283SOL    HW328899   2.188   3.668   1.508  0.3751 -0.0685 -1.0489
 7283SOL    MW428900   2.255   3.617   1.532 -0.1390 -0.5054 -0.4959
 7284SOL     OW28901   3.375   4.615   3.887 -0.2242 -0.4638 -0.4091
 7284SOL    HW228902   3.406   4.569   3.809 -0.4610 -0.8558 -0.2799
 7284SOL    HW328903   3.406   4.705   3.877  0.9142 -0.8271 -0.3004
 7284SOL    MW428904   3.383   4.621   3.875 -0.1052 -0.5634 -0.3777
 7285SOL     OW28905   6.413   4.889   3.701 -0.4200 -0.2363  0.5278
 7285SOL    HW228906   6.394   4.974   3.739  2.2272  1.3764 -1.4376
 7285SOL    HW328907   6.483   4.853   3.756 -0.1350 -0.2016  0.1950
 7285SOL    MW428908   6.420   4.895   3.713 -0.0332 -0.0189  0.2246
 7286SOL     OW28909   1.517   1.001   1.754 -0.2653 -0.1176  0.2026
 7286SOL    HW228910   1.516   0.917   1.800 -0.4890  0.1238  0.6412
 7286SOL    HW328911   1.478   0.983   1.669 -2.0389 -0.0682  0.9731
 7286SOL    MW428912   1.512   0.987   1.749 -0.5288 -0.0793  0.3621
 7287SOL     OW28913   6.254   6.326   3.877 -0.1098  0.3238  0.1515
 7287SOL    HW228914   6.324   6.369   3.827  1.5049 -0.5837  1.5263
 7287SOL    HW328915   6.178   6.383   3.864  1.5340  2.8518  0.7221
 7287SOL    MW428916   6.253   6.340   3.868  0.3201  0.5376  0.4082
 7288SOL     OW28917   3.479   1.023   3.469 -0.0853 -0.0352  0.4962
 7288SOL    HW228918   3.482   1.117   3.487  3.0833 -0.2323  1.7562
 7288SOL    HW328919   3.400   0.993   3.514 -1.1469  1.9786  0.1187
 7288SOL    MW428920   3.469   1.032   3.477  0.1927  0.2045  0.6126
 7289SOL     OW28921   4.219   2.165   2.434 -0.5319 -0.3754 -0.1600
 7289SOL    HW228922   4.146   2.104   2.441 -1.6907  0.9139 -0.5639
 7289SOL    HW328923   4.178   2.252   2.430  0.7546  0.2382 -3.7681
 7289SOL    MW428924   4.204   2.169   2.434 -0.5151 -0.1243 -0.6893
 7290SOL     OW28925   5.820   5.132   0.782  0.1544  0.6469 -0.2415
 7290SOL    HW228926   5.759   5.198   0.750  1.7394  2.1258 -0.3316
 7290SOL    HW328927   5.833   5.155   0.874 -1.4839 -1.3296  0.5623
 7290SOL    MW428928   5.814   5.144   0.790  0.1473  0.5813 -0.1474
 7291SOL     OW28929   2.653   6.231   4.846  0.6646 -0.0463  0.3142
 7291SOL    HW228930   2.678   6.156   4.792  1.1805 -0.0970  0.6183
 7291SOL    HW328931   2.699   6.306   4.807  1.7680 -0.2342  1.2090
 7291SOL    MW428932   2.663   6.231   4.834  0.8782 -0.0778  0.4724
 7292SOL     OW28933   2.706   1.909  -0.011 -0.0424 -0.5678 -0.1158
 7292SOL    HW228934   2.690   1.860  -0.092  0.6287 -2.7023  0.9624
 7292SOL    HW328935   2.776   1.970  -0.034  0.2412 -1.2372 -1.1136
 7292SOL    MW428936   2.713   1.911  -0.025  0.0835 -0.9377 -0.1052
 7293SOL     OW28937   1.388   6.045   1.450  0.3005 -0.5059 -0.3370
 7293SOL    HW228938   1.399   5.989   1.373 -1.1813 -0.0780 -0.8910
 7293SOL    HW328939   1.428   6.128   1.426 -2.3050  0.4521 -1.6434
 7293SOL    MW428940   1.395   6.048   1.437 -0.2388 -0.3230 -0.5825
 7294SOL     OW28941   2.811   2.619   2.651  0.2137 -0.1882 -0.3793
 7294SOL    HW228942   2.866   2.548   2.685  1.0373  0.2984 -0.6506
 7294SOL    HW328943   2.874   2.684   2.618 -0.4663  1.2056  0.9399
 7294SOL    MW428944   2.827   2.619   2.651  0.2327  0.0599 -0.2411
 7295SOL     OW28945   3.374   0.289   2.190 -0.1278 -0.1530 -0.1667
 7295SOL    HW228946   3.456   0.284   2.141  0.6631  0.1465  1.0737
 7295SOL    HW328947   3.306   0.266   2.126  0.7021  1.5942 -1.7525
 7295SOL    MW428948   3.376   0.285   2.175  0.0861  0.1170 -0.2123
 7296SOL     OW28949   2.126   3.125   4.000 -0.2110 -0.6302  0.2298
 7296SOL    HW228950   2.209   3.171   4.008 -0.0194 -0.8907 -0.2497
 7296SOL    HW328951   2.107   3.095   4.089 -0.2541  0.2232  0.5167
 7296SOL    MW428952   2.134   3.127   4.013 -0.1914 -0.5520  0.2044
 7297SOL     OW28953   1.905   1.004   3.195 -0.0583  1.2201 -0.4303
 7297SOL    HW228954   1.959   0.998   3.274 -1.7739  0.3889  0.7358
 7297SOL    HW328955   1.959   0.964   3.126 -0.3092 -2.6658  1.3475
 7297SOL    MW428956   1.919   0.998   3.196 -0.3177  0.5977 -0.0419
 7298SOL     OW28957   0.937   2.493   0.959 -0.8957 -0.0576 -0.9490
 7298SOL    HW228958   0.896   2.557   0.901 -3.5515 -0.6194  0.1307
 7298SOL    HW328959   0.899   2.511   1.045  0.9860 -0.8682  0.1125
 7298SOL    MW428960   0.927   2.504   0.963 -0.9978 -0.2387 -0.6665
 7299SOL     OW28961   4.857   1.576   4.338 -0.0372  0.5593 -0.1846
 7299SOL    HW228962   4.876   1.668   4.319 -1.5865  0.7021 -1.2265
 7299SOL    HW328963   4.840   1.573   4.432 -0.3280  1.4065 -0.2079
 7299SOL    MW428964   4.857   1.588   4.348 -0.2800  0.6899 -0.3251
 7300SOL     OW28965   4.789   4.323   2.920  0.4391  0.2654  0.1535
 7300SOL    HW228966   4.818   4.233   2.908  0.2046 -0.2250  2.7175
 7300SOL    HW328967   4.697   4.322   2.894  0.4498 -0.2220  0.1237
 7300SOL    MW428968   4.781   4.311   2.915  0.4095  0.1364  0.4878
 7301SOL     OW28969   0.024   2.097   2.285  0.3346 -0.2587 -0.2747
 7301SOL    HW228970  -0.038   2.137   2.346  1.2671 -0.0968  0.5966
 7301SOL    HW328971  -0.028   2.078   2.207 -0.4882  1.2166 -0.1262
 7301SOL    MW428972   0.009   2.100   2.283  0.3491 -0.0427 -0.1401
 7302SOL     OW28973   3.191   5.075   1.597  0.3496  0.0743 -0.5069
 7302SOL    HW228974   3.186   5.154   1.651 -0.8991  0.8460 -1.6985
 7302SOL    HW328975   3.154   5.100   1.513  1.8320 -1.2167 -1.6261
 7302SOL    MW428976   3.186   5.088   1.593  0.3805  0.0058 -0.8118
 7303SOL     OW28977   4.264   5.560   0.713 -0.2035  0.0790  0.2932
 7303SOL    HW228978   4.206   5.633   0.696 -1.2476 -0.9451 -0.7193
 7303SOL    HW328979   4.342   5.600   0.752 -1.4359  1.5083  1.4167
 7303SOL    MW428980   4.267   5.575   0.716 -0.5038  0.1324  0.3079
 7304SOL     OW28981   4.877   5.442   4.661  0.4205  0.2870 -0.1308
 7304SOL    HW228982   4.890   5.410   4.572  0.7910  0.8664 -0.2899
 7304SOL    HW328983   4.804   5.389   4.695 -0.4567  0.8010 -1.1447
 7304SOL    MW428984   4.869   5.431   4.654  0.3536  0.4312 -0.2855
 7305SOL     OW28985   0.689   3.333   5.545 -0.0493  0.0689  0.0844
 7305SOL    HW228986   0.618   3.295   5.597 -0.4352  0.6191 -0.0279
 7305SOL    HW328987   0.690   3.282   5.464 -1.0047  0.6975 -0.3499
 7305SOL    MW428988   0.679   3.321   5.541 -0.2263  0.2244  0.0123
 7306SOL     OW28989   0.970   5.260   1.304 -0.1921 -0.1064  0.2092
 7306SOL    HW228990   0.876   5.277   1.306  0.1462  2.0967  1.6956
 7306SOL    HW328991   0.997   5.265   1.396  1.6896  1.6640 -0.3620
 7306SOL    MW428992   0.961   5.263   1.317  0.1008  0.4179  0.3300
 7307SOL     OW28993   5.404   4.750   4.825 -0.0113 -0.7521  0.8742
 7307SOL    HW228994   5.345   4.675   4.811 -0.7406  0.3294 -2.7358
 7307SOL    HW328995   5.361   4.801   4.894 -1.8758 -1.4365  0.3017
 7307SOL    MW428996   5.390   4.746   4.832 -0.3535 -0.6997  0.3224
 7308SOL     OW28997   1.506   1.011   2.765  0.2571 -0.5141  0.2167
 7308SOL    HW228998   1.439   0.966   2.817  2.0117 -2.7482  0.7164
 7308SOL    HW328999   1.510   1.098   2.803 -0.1098 -1.3583  2.3811
 7308SOL    MW429000   1.497   1.016   2.777  0.4402 -0.9202  0.5682
 7309SOL     OW29001   4.858   4.936   2.277 -0.0168 -0.3174  0.0339
 7309SOL    HW229002   4.883   4.993   2.350  1.8340  0.5796 -1.2258
 7309SOL    HW329003   4.794   4.987   2.228 -1.2075 -0.8919  0.9486
 7309SOL    MW429004   4.853   4.950   2.280  0.0703 -0.2749 -0.0117
 7310SOL     OW29005   3.422   0.257   4.126  0.3321 -0.1403  0.2821
 7310SOL    HW229006   3.477   0.190   4.166 -1.0471 -1.3056  0.3252
 7310SOL    HW329007   3.436   0.336   4.179  1.0096 -0.7516  1.0285
 7310SOL    MW429008   3.431   0.259   4.138  0.2395 -0.3747  0.3863
 7311SOL     OW29009   0.674   1.945   0.070  0.6092  0.0178  0.2591
 7311SOL    HW229010   0.690   1.858   0.107  1.9509  0.1040 -0.0802
 7311SOL    HW329011   0.614   1.987   0.131  1.6998 -0.3396  1.6131
 7311SOL    MW429012   0.668   1.939   0.083  0.9301 -0.0180  0.3930
 7312SOL     OW29013   4.277   4.057   3.023  0.1511 -0.3556 -0.3523
 7312SOL    HW229014   4.359   4.065   3.071  0.3967 -2.3760 -0.3454
 7312SOL    HW329015   4.282   3.971   2.982 -2.0605 -0.6308 -0.1567
 7312SOL    MW429016   4.289   4.047   3.024 -0.1083 -0.6585 -0.3256
 7313SOL     OW29017   1.336   5.140   1.969  0.0307  0.4105 -0.4006
 7313SOL    HW229018   1.276   5.179   1.905 -0.4988  0.8789  0.3647
 7313SOL    HW329019   1.348   5.209   2.035  0.5825 -0.0602 -0.0023
 7313SOL    MW429020   1.330   5.154   1.969  0.0336  0.4102 -0.2471
 7314SOL     OW29021   5.195   1.222   2.735 -0.3430  0.2674  0.6403
 7314SOL    HW229022   5.120   1.178   2.696  0.6893 -1.6515  0.6873
 7314SOL    HW329023   5.245   1.152   2.778  1.4969  1.4384  0.5444
 7314SOL    MW429024   5.192   1.207   2.735  0.0360  0.1687  0.6338
 7315SOL     OW29025   3.712   0.317   2.734 -0.0887 -0.3653 -0.2013
 7315SOL    HW229026   3.712   0.361   2.819 -0.0465 -1.9367  0.6410
 7315SOL    HW329027   3.629   0.344   2.693  0.0778  0.7203  0.1559
 7315SOL    MW429028   3.701   0.326   2.740 -0.0611 -0.4294 -0.0430
 7316SOL     OW29029   4.559   5.340   3.637 -0.0036 -0.1769  0.2177
 7316SOL    HW229030   4.510   5.268   3.599  0.6613  0.0224 -1.0564
 7316SOL    HW329031   4.512   5.418   3.611  0.2029 -0.0605  0.1902
 7316SOL    MW429032   4.547   5.341   3.629  0.1114 -0.1352  0.0460
 7317SOL     OW29033   4.165   2.135   6.341 -0.4778 -0.2150 -0.5541
 7317SOL    HW229034   4.109   2.208   6.315 -0.3567  0.5228  1.1399
 7317SOL    HW329035   4.149   2.123   6.435  0.9085 -1.1231 -0.3895
 7317SOL    MW429036   4.156   2.143   6.350 -0.2790 -0.2374 -0.3089
 7318SOL     OW29037   2.508   0.505   2.044 -0.2842 -0.2697  0.0332
 7318SOL    HW229038   2.479   0.576   2.101  0.5951  0.6614 -0.6483
 7318SOL    HW329039   2.539   0.437   2.104  1.5182  1.0749  0.7019
 7318SOL    MW429040   2.508   0.505   2.060  0.0696  0.0306  0.0315
 7319SOL     OW29041   4.623   1.943   4.300  0.5726 -0.3286 -0.1567
 7319SOL    HW229042   4.533   1.964   4.277  0.3157 -0.7472  0.4387
 7319SOL    HW329043   4.616   1.876   4.368  1.3337 -0.5632 -0.2893
 7319SOL    MW429044   4.610   1.937   4.306  0.6391 -0.4148 -0.0956
 7320SOL     OW29045   6.316   4.531   0.122  0.4909 -0.0354 -0.4205
 7320SOL    HW229046   6.389   4.492   0.075  0.5623  1.0622 -1.2609
 7320SOL    HW329047   6.318   4.623   0.097 -1.7119 -0.1250 -1.1669
 7320SOL    MW429048   6.326   4.538   0.113  0.2097  0.0976 -0.6299
 7321SOL     OW29049   4.498   4.120   3.180  0.0509  0.0324  0.1053
 7321SOL    HW229050   4.452   4.138   3.262  1.5283 -1.3493  1.3110
 7321SOL    HW329051   4.586   4.155   3.193 -0.1258  1.2220 -1.5511
 7321SOL    MW429052   4.503   4.127   3.193  0.2225  0.0070  0.0458
 7322SOL     OW29053   5.926   2.290   4.217 -0.3388 -0.4108  0.0308
 7322SOL    HW229054   5.883   2.327   4.139  0.1021  2.0752  0.8853
 7322SOL    HW329055   5.855   2.280   4.280 -0.2509  0.4386  0.2838
 7322SOL    MW429056   5.911   2.294   4.215 -0.2690  0.0293  0.1769
 7323SOL     OW29057   2.444   2.822   3.217  0.3519  0.2075  0.5245
 7323SOL    HW229058   2.441   2.749   3.280 -1.4074  1.0009  1.4084
 7323SOL    HW329059   2.353   2.840   3.197  0.6266  3.2140  1.5678
 7323SOL    MW429060   2.432   2.814   3.223  0.1561  0.7088  0.7788
 7324SOL     OW29061   4.455   4.108   0.072  0.3001 -0.1757  0.5354
 7324SOL    HW229062   4.374   4.096   0.122  0.8568 -0.7180  1.3339
 7324SOL    HW329063   4.475   4.201   0.081 -0.2442 -0.0322  0.3140
 7324SOL    MW429064   4.447   4.119   0.080  0.3018 -0.2283  0.6115
 7325SOL     OW29065   1.376   2.115   4.351  0.0191  0.4897  0.4142
 7325SOL    HW229066   1.411   2.089   4.265  1.4402  0.4965  0.9649
 7325SOL    HW329067   1.338   2.201   4.336  4.0991  2.5875  0.5839
 7325SOL    MW429068   1.376   2.123   4.337  0.7449  0.7674  0.5093
 7326SOL     OW29069   2.709   5.918   1.613 -0.3368  0.3332 -0.1364
 7326SOL    HW229070   2.764   5.947   1.541 -0.5198  0.2832 -0.2972
 7326SOL    HW329071   2.621   5.911   1.576 -0.0737 -1.8378 -0.5218
 7326SOL    MW429072   2.705   5.921   1.599 -0.3262  0.0402 -0.2085
 7327SOL     OW29073   1.590   0.465   4.649  0.0206 -0.2390 -0.3442
 7327SOL    HW229074   1.629   0.392   4.603  1.2462  0.5425 -0.5840
 7327SOL    HW329075   1.604   0.540   4.591 -1.3988  0.1652 -0.2029
 7327SOL    MW429076   1.597   0.465   4.635 -0.0049 -0.0826 -0.3572
 7328SOL     OW29077   1.418   2.606   3.720  0.3755 -0.4479  0.2858
 7328SOL    HW229078   1.342   2.588   3.664  1.5785  1.1455 -2.0521
 7328SOL    HW329079   1.493   2.581   3.666  1.7175  3.4453  0.0968
 7328SOL    MW429080   1.418   2.600   3.705  0.7113  0.2760 -0.0476
 7329SOL     OW29081   6.160   2.879   3.317 -0.2017  0.1641  0.6145
 7329SOL    HW229082   6.239   2.844   3.357  0.8970  0.5110 -1.1466
 7329SOL    HW329083   6.187   2.963   3.279 -1.2041 -0.0609 -0.6732
 7329SOL    MW429084   6.174   2.886   3.318 -0.1890  0.1802  0.2122
 7330SOL     OW29085   4.520   4.795   4.865 -0.8947 -0.5752 -0.2913
 7330SOL    HW229086   4.502   4.870   4.922 -0.3442  1.2691 -2.3785
 7330SOL    HW329087   4.540   4.723   4.925 -2.4780  0.6324  1.8360
 7330SOL    MW429088   4.521   4.796   4.880 -1.0310 -0.1726 -0.2860
 7331SOL     OW29089   3.736   0.306   0.802 -0.7881 -0.0886  0.4527
 7331SOL    HW229090   3.755   0.303   0.896 -0.5615  0.6199  0.4344
 7331SOL    HW329091   3.759   0.219   0.770 -2.0050 -0.7358  1.2646
 7331SOL    MW429092   3.742   0.294   0.810 -0.9187 -0.0805  0.5574
 7332SOL     OW29093   3.149   0.564   2.559  0.2039  0.5507  0.1143
 7332SOL    HW229094   3.190   0.538   2.641  0.9829  0.9931 -0.1165
 7332SOL    HW329095   3.213   0.541   2.492 -1.0991 -1.3064 -0.5489
 7332SOL    MW429096   3.163   0.558   2.561  0.1348  0.3641 -0.0036
 7333SOL     OW29097   2.009   6.077   4.023  0.2455  0.5784 -0.4731
 7333SOL    HW229098   1.918   6.081   4.053  0.3074  0.8316 -0.3182
 7333SOL    HW329099   2.003   6.041   3.935 -0.1109  1.6577 -0.9138
 7333SOL    MW429100   1.996   6.073   4.015  0.2066  0.7542 -0.5108
 7334SOL     OW29101   1.935   0.257   0.342 -0.1335  0.1026 -0.3408
 7334SOL    HW229102   1.942   0.343   0.300 -2.2995 -0.6515 -2.4672
 7334SOL    HW329103   1.881   0.271   0.419  0.5191  0.8346 -0.0073
 7334SOL    MW429104   1.929   0.270   0.346 -0.3331  0.0997 -0.5773
 7335SOL     OW29105   6.372   6.106   0.473  0.2939  0.2891 -0.2155
 7335SOL    HW229106   6.286   6.108   0.430 -0.1738 -0.5401  0.6536
 7335SOL    HW329107   6.425   6.167   0.421 -1.5235  2.8848  0.7285
 7335SOL    MW429108   6.367   6.114   0.460 -0.0076  0.5221  0.0237
 7336SOL     OW29109   1.399   4.062   4.710 -0.2399 -0.6669  0.0007
 7336SOL    HW229110   1.312   4.047   4.673 -0.1399  0.1695 -0.5936
 7336SOL    HW329111   1.421   4.152   4.686  1.0779 -1.0866 -0.4444
 7336SOL    MW429112   1.390   4.072   4.702 -0.0528 -0.6120 -0.1364
 7337SOL     OW29113   3.754   1.842   2.439  0.2581  0.3493 -0.5804
 7337SOL    HW229114   3.806   1.833   2.519  0.6342 -1.7987 -1.0009
 7337SOL    HW329115   3.713   1.928   2.446  2.6034  1.4625  0.5271
 7337SOL    MW429116   3.756   1.852   2.450  0.6172  0.2128 -0.4897
 7338SOL     OW29117   1.185   0.750   6.134  0.4931  0.0935  0.4848
 7338SOL    HW229118   1.164   0.657   6.141  0.1068  0.1422 -0.0019
 7338SOL    HW329119   1.221   0.761   6.046  2.5343  0.0300  1.2558
 7338SOL    MW429120   1.187   0.739   6.123  0.7115  0.0915  0.5223
 7339SOL     OW29121   4.873   1.749   2.333  0.3004  0.6873 -0.0060
 7339SOL    HW229122   4.840   1.776   2.419  1.9287  0.7008  0.6485
 7339SOL    HW329123   4.965   1.774   2.334  0.9421 -1.4885 -0.8296
 7339SOL    MW429124   4.880   1.756   2.345  0.5999  0.4020 -0.0283
 7340SOL     OW29125   1.363   5.215   1.231 -0.4809 -0.0328 -0.2785
 7340SOL    HW229126   1.404   5.218   1.145  0.4086  0.1174  0.1376
 7340SOL    HW329127   1.269   5.217   1.213 -0.2990  1.0074 -1.2142
 7340SOL    MW429128   1.356   5.216   1.217 -0.3395  0.1242 -0.3471
 7341SOL     OW29129   1.769   2.565   3.691 -0.8992 -0.0058 -0.1646
 7341SOL    HW229130   1.789   2.485   3.740 -0.1545  1.4946  2.1594
 7341SOL    HW329131   1.716   2.617   3.752 -1.6032  1.1674 -1.7217
 7341SOL    MW429132   1.764   2.562   3.706 -0.8939  0.3469 -0.0634
 7342SOL     OW29133   4.131   5.138   4.691  0.1422 -0.1018  0.2587
 7342SOL    HW229134   4.042   5.108   4.675 -0.3376  0.8038  1.1204
 7342SOL    HW329135   4.148   5.117   4.782  0.5891  0.2760  0.2693
 7342SOL    MW429136   4.122   5.132   4.701  0.1378  0.0675  0.3738
 7343SOL     OW29137   5.244   5.326   2.979 -0.7133 -0.2638 -0.5810
 7343SOL    HW229138   5.212   5.255   3.034  1.3254 -1.0729 -0.3698
 7343SOL    HW329139   5.169   5.385   2.970 -2.3166 -2.1933 -0.3845
 7343SOL    MW429140   5.230   5.325   2.985 -0.6558 -0.6251 -0.5272
 7344SOL     OW29141   6.299   1.540   1.726 -0.2644 -0.5506 -0.5676
 7344SOL    HW229142   6.242   1.473   1.688  0.1464 -0.0278 -2.2087
 7344SOL    HW329143   6.285   1.533   1.820 -2.2490 -1.1469 -0.8590
 7344SOL    MW429144   6.289   1.530   1.733 -0.4721 -0.5603 -0.8225
 7345SOL     OW29145   2.416   4.646   5.713 -0.4335  0.4675 -0.9472
 7345SOL    HW229146   2.353   4.588   5.756  0.3039 -0.8461 -1.5587
 7345SOL    HW329147   2.432   4.716   5.777 -0.0662 -0.9306  0.5698
 7345SOL    MW429148   2.410   4.648   5.727 -0.2877  0.1098 -0.8278
 7346SOL     OW29149   2.926   2.986   0.116 -0.8516 -0.0078 -0.2191
 7346SOL    HW229150   3.019   2.964   0.104 -1.1780 -1.4788 -0.1551
 7346SOL    HW329151   2.924   3.035   0.198 -0.1899 -0.3015 -0.0175
 7346SOL    MW429152   2.938   2.990   0.125 -0.8074 -0.2406 -0.1841
 7347SOL     OW29153   3.938   5.577   2.600 -0.0522  0.4662  0.0609
 7347SOL    HW229154   4.023   5.567   2.644 -0.6231  0.5150  1.2119
 7347SOL    HW329155   3.911   5.667   2.621 -0.0295  0.7292 -0.9822
 7347SOL    MW429156   3.946   5.588   2.609 -0.1245  0.5073  0.0751
 7348SOL     OW29157   3.306   5.814   4.781  0.2349  0.2635 -0.1611
 7348SOL    HW229158   3.218   5.783   4.762  0.3848  0.1972 -0.7845
 7348SOL    HW329159   3.294   5.882   4.847 -0.1718 -0.4930  0.5583
 7348SOL    MW429160   3.293   5.819   4.787  0.2010  0.1550 -0.1484
 7349SOL     OW29161   6.005   0.849   2.048 -0.2699 -0.1550  0.1563
 7349SOL    HW229162   6.091   0.880   2.018 -0.4135  1.0338  0.9327
 7349SOL    HW329163   6.025   0.786   2.117 -0.0206  0.3234  0.5252
 7349SOL    MW429164   6.019   0.845   2.053 -0.2559  0.0650  0.3074
 7350SOL     OW29165   5.015   6.359   4.723  0.2300 -0.6710  0.2543
 7350SOL    HW229166   5.006   6.346   4.628  1.2706  1.3391 -0.1895
 7350SOL    HW329167   5.109   6.359   4.738  0.1538  0.8984  0.9497
 7350SOL    MW429168   5.026   6.357   4.712  0.3573 -0.1987  0.2875
 7351SOL     OW29169   5.193   4.191   3.772 -0.4228  0.5182 -0.5791
 7351SOL    HW229170   5.265   4.250   3.795 -0.0771  0.0576 -0.4573
 7351SOL    HW329171   5.117   4.225   3.819  0.2356 -0.3112  1.1743
 7351SOL    MW429172   5.192   4.203   3.781 -0.2903  0.3480 -0.3317
 7352SOL     OW29173   0.972   5.960   5.557 -0.4509 -0.6972 -0.6052
 7352SOL    HW229174   0.903   5.960   5.623 -0.9752  2.7753 -0.9341
 7352SOL    HW329175   1.040   5.903   5.593 -0.2973  1.6518  3.4818
 7352SOL    MW429176   0.972   5.953   5.571 -0.4998  0.0709 -0.1094
 7353SOL     OW29177   1.753   2.055   5.303  0.1105  0.2522 -0.0157
 7353SOL    HW229178   1.845   2.038   5.283  0.4077  0.9765  0.6762
 7353SOL    HW329179   1.750   2.064   5.398 -0.7892 -0.3842  0.0279
 7353SOL    MW429180   1.764   2.054   5.313  0.0310  0.2638  0.0814
 7354SOL     OW29181   3.377   0.876   5.474  0.2958  0.0858 -0.1907
 7354SOL    HW229182   3.392   0.813   5.545 -1.0171 -0.0774 -0.0372
 7354SOL    HW329183   3.302   0.928   5.503  1.7529  2.2290  0.0056
 7354SOL    MW429184   3.369   0.875   5.487  0.3148  0.3470 -0.1445
 7355SOL     OW29185   0.790   2.990   2.585 -0.3753 -0.8678 -0.2277
 7355SOL    HW229186   0.834   3.048   2.523 -1.5115  0.1158 -0.1506
 7355SOL    HW329187   0.765   2.914   2.534 -1.0437 -0.1941 -0.9253
 7355SOL    MW429188   0.793   2.988   2.570 -0.6134 -0.6491 -0.3096
 7356SOL     OW29189   1.696   4.433   3.006  0.3165 -0.2808  0.4951
 7356SOL    HW229190   1.784   4.417   2.973  0.3078  0.9259 -0.1765
 7356SOL    HW329191   1.642   4.365   2.966  0.1748  1.5193 -2.7015
 7356SOL    MW429192   1.700   4.422   2.997  0.2967  0.1159 -0.0152
 7357SOL     OW29193   6.337   0.202   2.509 -0.3728 -0.3510 -0.5050
 7357SOL    HW229194   6.411   0.205   2.448 -0.2620 -0.4340 -0.3737
 7357SOL    HW329195   6.332   0.290   2.546 -0.8463 -0.1099 -1.1166
 7357SOL    MW429196   6.346   0.214   2.506 -0.4207 -0.3301 -0.5683
 7358SOL     OW29197   5.919   4.983   4.221 -0.5197 -0.1215  0.0778
 7358SOL    HW229198   5.866   5.041   4.277 -1.3998 -0.1729 -0.6831
 7358SOL    HW329199   6.009   5.009   4.240 -0.8045  0.0698  1.2961
 7358SOL    MW429200   5.924   4.994   4.231 -0.6734 -0.1030  0.1381
 7359SOL     OW29201   1.367   5.327   2.182 -0.2828  0.7024 -0.1842
 7359SOL    HW229202   1.301   5.303   2.247 -0.2337  1.7353  0.2503
 7359SOL    HW329203   1.451   5.320   2.228 -0.2095  0.9422 -0.2796
 7359SOL    MW429204   1.369   5.323   2.197 -0.2666  0.8703 -0.1395
 7360SOL     OW29205   2.710   0.581   0.611  0.9346 -0.0351  0.2015
 7360SOL    HW229206   2.798   0.553   0.634  0.1787 -0.9516  2.2604
 7360SOL    HW329207   2.703   0.670   0.645  1.6702  0.8315 -1.7744
 7360SOL    MW429208   2.720   0.589   0.619  0.9319 -0.0417  0.2124
 7361SOL     OW29209   5.290   3.098   5.483  0.0268 -0.3668  0.1402
 7361SOL    HW229210   5.266   3.163   5.549 -2.4141 -0.9813 -0.0316
 7361SOL    HW329211   5.277   3.143   5.399 -1.9267 -1.0477  0.0123
 7361SOL    MW429212   5.285   3.112   5.481 -0.5530 -0.5377  0.1007
 7362SOL     OW29213   6.046   6.014   4.784  0.1596  0.3570  0.4058
 7362SOL    HW229214   5.957   6.025   4.751 -0.6133  1.3869  2.6252
 7362SOL    HW329215   6.066   6.098   4.825  0.6340 -1.0724  3.3440
 7362SOL    MW429216   6.037   6.027   4.785  0.1202  0.3043  1.0863
 7363SOL     OW29217   4.881   1.703   4.617  0.1143 -0.5419 -0.1246
 7363SOL    HW229218   4.947   1.752   4.569 -0.1420  1.3628  1.3055
 7363SOL    HW329219   4.798   1.735   4.582 -0.0694 -1.6138 -0.6926
 7363SOL    MW429220   4.879   1.714   4.606  0.0562 -0.4320 -0.0109
 7364SOL     OW29221   3.286   4.206   3.962  0.6125  0.0742 -0.1897
 7364SOL    HW229222   3.272   4.277   3.900  0.5202 -1.0672 -1.5166
 7364SOL    HW329223   3.380   4.190   3.958  0.3007 -1.6098 -1.9156
 7364SOL    MW429224   3.297   4.213   3.953  0.5591 -0.2986 -0.5925
 7365SOL     OW29225   1.843   4.552   3.730 -0.4799 -0.0500 -0.4411
 7365SOL    HW229226   1.823   4.617   3.662 -0.8542 -0.4174 -0.6912
 7365SOL    HW329227   1.772   4.488   3.723 -0.6542  0.0333  0.4618
 7365SOL    MW429228   1.831   4.552   3.720 -0.5523 -0.0875 -0.3550
 7366SOL     OW29229   1.294   5.671   0.130 -0.4128  0.2381  0.2184
 7366SOL    HW229230   1.343   5.670   0.212 -0.4817  2.2960  0.3459
 7366SOL    HW329231   1.353   5.632   0.065  0.7099  1.0635  0.7151
 7366SOL    MW429232   1.308   5.666   0.132 -0.2737  0.6185  0.3007
 7367SOL     OW29233   2.123   5.534   3.237  0.5310  0.8656 -0.0617
 7367SOL    HW229234   2.195   5.527   3.174 -0.9104 -0.2128 -1.7159
 7367SOL    HW329235   2.060   5.592   3.195 -0.5114  0.0476  0.3021
 7367SOL    MW429236   2.124   5.540   3.223  0.2033  0.6154 -0.2320
 7368SOL     OW29237   1.795   1.631   5.101  0.4330  0.1094 -0.3633
 7368SOL    HW229238   1.721   1.687   5.124  0.8441  1.2691 -1.7322
 7368SOL    HW329239   1.760   1.542   5.103 -0.2822  0.3780  1.6743
 7368SOL    MW429240   1.781   1.626   5.104  0.3929  0.2979 -0.2751
 7369SOL     OW29241   0.705   6.272   0.881  0.0305 -0.0107 -0.0006
 7369SOL    HW229242   0.676   6.183   0.863 -0.4946  0.2433 -0.4601
 7369SOL    HW329243   0.789   6.280   0.835 -0.3647  0.0167 -0.7309
 7369SOL    MW429244   0.712   6.262   0.872 -0.0909  0.0264 -0.1576
 7370SOL     OW29245   5.137   1.276   5.778  0.5339  0.5959 -0.4025
 7370SOL    HW229246   5.139   1.191   5.821  0.2211  0.1110 -1.3187
 7370SOL    HW329247   5.061   1.272   5.720  0.8851  1.2602 -0.9279
 7370SOL    MW429248   5.127   1.264   5.776  0.5390  0.6196 -0.5927
 7371SOL     OW29249   5.925   4.820   0.208 -0.3756 -0.1131 -0.2382
 7371SOL    HW229250   5.898   4.729   0.225 -0.4665 -0.2199 -0.9098
 7371SOL    HW329251   5.842   4.868   0.199 -0.3432 -0.1550 -0.8277
 7371SOL    MW429252   5.910   4.814   0.209 -0.3833 -0.1327 -0.4046
 7372SOL     OW29253   2.066   2.622   3.030  0.1887 -0.3284  0.1538
 7372SOL    HW229254   1.999   2.662   2.975 -2.0086 -1.1576  2.0378
 7372SOL    HW329255   2.099   2.694   3.084  0.7741  0.0618 -0.7069
 7372SOL    MW429256   2.062   2.637   3.030 -0.0239 -0.3863  0.2888
 7373SOL     OW29257   1.322   5.702   3.780 -0.2528  0.1455 -0.6801
 7373SOL    HW229258   1.398   5.646   3.765 -0.1094 -0.0755  0.7149
 7373SOL    HW329259   1.352   5.769   3.841 -1.0949  0.2026 -0.3051
 7373SOL    MW429260   1.336   5.703   3.786 -0.3450  0.1239 -0.4465
 7374SOL     OW29261   4.524   2.330   0.841 -0.4337  0.5563  0.5220
 7374SOL    HW229262   4.598   2.371   0.796 -0.3595  0.4400  0.5346
 7374SOL    HW329263   4.459   2.399   0.850 -0.3442  0.6476  0.4686
 7374SOL    MW429264   4.525   2.344   0.837 -0.4121  0.5530  0.5166
 7375SOL     OW29265   5.867   1.713   1.929 -0.2622  0.0472 -0.4955
 7375SOL    HW229266   5.915   1.777   1.876 -0.8404  0.2074 -0.8338
 7375SOL    HW329267   5.824   1.656   1.865  1.1928 -1.4426 -0.2238
 7375SOL    MW429268   5.867   1.714   1.914 -0.1465 -0.1283 -0.5043
 7376SOL     OW29269   5.994   6.118   1.132 -0.1207 -0.1073 -0.5433
 7376SOL    HW229270   6.067   6.180   1.136  1.4635 -1.8564 -0.5751
 7376SOL    HW329271   5.972   6.112   1.039 -0.6359  0.7592 -0.4869
 7376SOL    MW429272   6.001   6.125   1.120  0.0204 -0.2238 -0.5400
 7377SOL     OW29273   0.551   0.278   0.609 -0.3009 -0.0561 -0.2505
 7377SOL    HW229274   0.637   0.300   0.573 -1.5728  0.5484 -3.2824
 7377SOL    HW329275   0.562   0.191   0.648  2.1586  0.9918  1.5630
 7377SOL    MW429276   0.563   0.269   0.609 -0.1442  0.1619 -0.4112
 7378SOL     OW29277   2.973   2.833   5.322  0.3291  0.2406  0.0025
 7378SOL    HW229278   3.019   2.916   5.318  1.3895 -0.3182  0.2372
 7378SOL    HW329279   2.987   2.793   5.237  2.0849 -0.8437  0.7473
 7378SOL    MW429280   2.981   2.839   5.311  0.7007  0.0239  0.1317
 7379SOL     OW29281   0.996   3.506   1.294 -0.2658  0.1030  0.3962
 7379SOL    HW229282   0.963   3.574   1.354 -0.1081  0.1613  0.4167
 7379SOL    HW329283   0.925   3.441   1.291 -0.2864  0.1128  0.6260
 7379SOL    MW429284   0.982   3.506   1.302 -0.2477  0.1120  0.4293
 7380SOL     OW29285   4.571   5.520   2.302 -0.1721  0.2056 -0.1161
 7380SOL    HW229286   4.526   5.520   2.217  0.5191 -0.8503 -0.4957
 7380SOL    HW329287   4.648   5.465   2.289 -0.6457 -0.9195  1.5054
 7380SOL    MW429288   4.575   5.513   2.289 -0.1434 -0.0821  0.0478
 7381SOL     OW29289   0.145   0.787   3.491 -0.3711 -0.3352  0.0998
 7381SOL    HW229290   0.053   0.806   3.509 -0.5297 -1.0432  0.0635
 7381SOL    HW329291   0.154   0.801   3.397 -0.5224 -0.5551  0.0497
 7381SOL    MW429292   0.134   0.791   3.481 -0.4120 -0.4576  0.0884
 7382SOL     OW29293   1.852   5.220   2.125 -0.3134 -0.3455  0.3256
 7382SOL    HW229294   1.769   5.234   2.170 -1.3449 -2.3513 -0.8002
 7382SOL    HW329295   1.833   5.241   2.033  1.0970  1.4137  0.3933
 7382SOL    MW429296   1.838   5.224   2.119 -0.2634 -0.3780  0.1860
 7383SOL     OW29297   4.675   3.223   4.423 -0.6933  0.4028 -0.3534
 7383SOL    HW229298   4.749   3.165   4.407 -0.4942  0.0293  1.7312
 7383SOL    HW329299   4.642   3.244   4.335  0.0009 -1.8265 -1.2143
 7383SOL    MW429300   4.680   3.218   4.409 -0.5755  0.0594 -0.1920
 7384SOL     OW29301   0.609   2.457   4.119  0.4469  0.5732  0.3494
 7384SOL    HW229302   0.533   2.491   4.072  1.1901 -0.0327 -1.3753
 7384SOL    HW329303   0.613   2.510   4.199 -1.3745  1.0607  0.1567
 7384SOL    MW429304   0.599   2.469   4.123  0.3047  0.5576  0.0964
 7385SOL     OW29305   5.104   0.360   3.026 -0.2247  0.1571  0.2055
 7385SOL    HW229306   5.060   0.276   3.038  1.1894 -0.7715 -0.8052
 7385SOL    HW329307   5.116   0.393   3.115  1.3711 -1.9177  0.8456
 7385SOL    MW429308   5.100   0.354   3.040  0.1724 -0.2392  0.1566
 7386SOL     OW29309   5.725   6.046   3.980 -0.7376  0.1116  0.0131
 7386SOL    HW229310   5.756   6.102   4.051  1.2988 -0.0263 -0.6829
 7386SOL    HW329311   5.693   5.967   4.023 -1.1323  0.7280  0.8605
 7386SOL    MW429312   5.725   6.043   3.995 -0.5210  0.1747  0.0331
 7387SOL     OW29313   5.699   2.919   1.581  0.8058 -0.2716  0.0452
 7387SOL    HW229314   5.773   2.887   1.631  0.4685 -1.8186 -0.3927
 7387SOL    HW329315   5.711   2.882   1.494  2.0929  3.3886 -1.5690
 7387SOL    MW429316   5.710   2.910   1.576  0.9311  0.0072 -0.2256
 7388SOL     OW29317   5.095   5.330   3.534 -0.8266 -0.4964  0.3030
 7388SOL    HW229318   5.000   5.321   3.527 -0.9260  0.7544 -0.2033
 7388SOL    HW329319   5.109   5.374   3.618 -0.6999 -0.6741  0.3746
 7388SOL    MW429320   5.084   5.335   3.544 -0.8230 -0.3548  0.2456
 7389SOL     OW29321   4.495   4.430   5.789  0.0545 -0.2551  0.2613
 7389SOL    HW229322   4.542   4.511   5.805 -0.3927  0.0044  0.2657
 7389SOL    HW329323   4.467   4.399   5.875  2.6956 -1.9433  0.6114
 7389SOL    MW429324   4.497   4.437   5.802  0.3440 -0.4436  0.3081
 7390SOL     OW29325   0.156   3.523   5.684 -0.2257  0.0244  0.0949
 7390SOL    HW229326   0.245   3.528   5.718 -0.0267 -1.3582 -0.1799
 7390SOL    HW329327   0.143   3.607   5.640  0.6173  0.5878  0.8770
 7390SOL    MW429328   0.166   3.535   5.683 -0.0882 -0.0837  0.1618
 7391SOL     OW29329   5.253   1.020   2.005 -0.2432 -0.1030  0.1596
 7391SOL    HW229330   5.327   1.048   2.058 -0.1551  0.1875 -0.1159
 7391SOL    HW329331   5.176   1.051   2.052 -0.2710 -1.4832  1.1121
 7391SOL    MW429332   5.253   1.028   2.018 -0.2352 -0.2468  0.2489
 7392SOL     OW29333   0.980   0.176   0.566 -0.1306 -0.0352  0.3543
 7392SOL    HW229334   0.986   0.158   0.472  1.3933  1.0814  0.1878
 7392SOL    HW329335   0.986   0.272   0.572  0.0350 -0.1036  1.6048
 7392SOL    MW429336   0.981   0.187   0.554  0.0923  0.1031  0.4973
 7393SOL     OW29337   5.647   3.686   5.718 -0.2326 -0.4573  0.3235
 7393SOL    HW229338   5.693   3.724   5.793 -0.8991 -0.4762  0.7621
 7393SOL    HW329339   5.715   3.648   5.664  0.1829 -1.7215  1.6521
 7393SOL    MW429340   5.662   3.686   5.721 -0.2657 -0.6266  0.5567
 7394SOL     OW29341   6.225   1.715   4.618 -0.7160 -0.3445 -0.3841
 7394SOL    HW229342   6.190   1.657   4.686  0.5735 -0.2124  0.4259
 7394SOL    HW329343   6.181   1.688   4.538 -1.3817 -1.3145  0.2942
 7394SOL    MW429344   6.215   1.704   4.616 -0.6337 -0.4550 -0.1877
 7395SOL     OW29345   2.540   5.852   0.418 -0.6340 -0.1091  0.0291
 7395SOL    HW229346   2.504   5.764   0.430  0.9613 -0.5278  2.2234
 7395SOL    HW329347   2.600   5.865   0.491 -0.8564  2.8621 -0.1679
 7395SOL    MW429348   2.543   5.842   0.429 -0.4529  0.2277  0.2926
 7396SOL     OW29349   5.956   3.056   0.479  0.3136 -0.1334 -0.3004
 7396SOL    HW229350   5.910   3.012   0.407 -3.1868 -0.2949  1.8439
 7396SOL    HW329351   5.969   3.146   0.448 -0.4111 -0.3899 -1.4090
 7396SOL    MW429352   5.952   3.062   0.465 -0.2439 -0.1886 -0.1638
 7397SOL     OW29353   4.175   4.338   4.718  0.0948  0.0694  0.4555
 7397SOL    HW229354   4.164   4.263   4.776  0.4072 -0.0551  0.3538
 7397SOL    HW329355   4.119   4.406   4.756  0.8788  0.2384  1.3466
 7397SOL    MW429356   4.166   4.337   4.731  0.2395  0.0753  0.5597
 7398SOL     OW29357   1.830   0.853   2.824 -0.1530 -0.0872 -0.2236
 7398SOL    HW229358   1.783   0.817   2.900  0.9145 -1.2480 -0.0588
 7398SOL    HW329359   1.816   0.788   2.755 -1.2695  1.0547 -1.1106
 7398SOL    MW429360   1.822   0.839   2.825 -0.1595 -0.0897 -0.3189
 7399SOL     OW29361   1.335   3.268   3.140 -0.4793  0.1046 -0.0872
 7399SOL    HW229362   1.373   3.247   3.225  1.9586 -2.0762 -1.5508
 7399SOL    HW329363   1.243   3.288   3.159 -0.2858 -1.2513  2.9399
 7399SOL    MW429364   1.328   3.268   3.154 -0.1321 -0.3621  0.1191
 7400SOL     OW29365   3.805   6.174   1.753  0.2329 -0.2247 -0.0171
 7400SOL    HW229366   3.830   6.234   1.684 -1.3799  0.9642  0.3761
 7400SOL    HW329367   3.888   6.142   1.789  1.1275  1.4461 -0.5161
 7400SOL    MW429368   3.820   6.178   1.749  0.1382  0.1526 -0.0311
 7401SOL     OW29369   0.428   2.030   3.245 -0.1541  0.3915 -0.3172
 7401SOL    HW229370   0.486   2.002   3.317 -1.5118 -1.3785  0.1596
 7401SOL    HW329371   0.483   2.024   3.167  0.7783  0.3605  0.3183
 7401SOL    MW429372   0.443   2.026   3.244 -0.2102  0.1539 -0.1705
 7402SOL     OW29373   0.770   5.455   4.701  0.1477  0.0104 -0.6871
 7402SOL    HW229374   0.837   5.388   4.686  0.3159  0.2342 -0.9602
 7402SOL    HW329375   0.816   5.538   4.684  0.7782  0.4232  2.3944
 7402SOL    MW429376   0.785   5.457   4.697  0.2531  0.0944 -0.3165
 7403SOL     OW29377   1.209   2.078   3.100 -0.4796  0.9711  0.3488
 7403SOL    HW229378   1.138   2.142   3.089 -0.1204  1.2965 -0.1282
 7403SOL    HW329379   1.169   2.006   3.148 -1.3738  0.7649 -0.6696
 7403SOL    MW429380   1.194   2.077   3.105 -0.5501  0.9868  0.1515
 7404SOL     OW29381   3.619   6.116   2.881  0.3190  0.4250  0.2793
 7404SOL    HW229382   3.600   6.022   2.888 -1.9944  0.8858  0.8487
 7404SOL    HW329383   3.672   6.135   2.958  1.8245 -0.5781 -0.4393
 7404SOL    MW429384   3.624   6.106   2.892  0.2125  0.3534  0.2596
 7405SOL     OW29385   1.209   2.722   0.766 -0.2197 -0.2452 -0.7768
 7405SOL    HW229386   1.189   2.804   0.721 -1.2809 -0.2382 -0.3031
 7405SOL    HW329387   1.194   2.740   0.859  1.5750 -0.3773 -0.4227
 7405SOL    MW429388   1.205   2.735   0.772 -0.1229 -0.2617 -0.6676
 7406SOL     OW29389   4.338   3.818   5.540  0.5219 -0.4292 -0.5408
 7406SOL    HW229390   4.284   3.740   5.534  1.0700 -0.7945 -0.8419
 7406SOL    HW329391   4.277   3.889   5.560  0.1944 -1.1695  1.2602
 7406SOL    MW429392   4.323   3.817   5.542  0.5510 -0.5751 -0.3429
 7407SOL     OW29393   3.105   6.186   0.203 -0.2545  0.7422  0.2990
 7407SOL    HW229394   3.075   6.248   0.137 -0.8827 -0.4911 -0.6298
 7407SOL    HW329395   3.032   6.178   0.264 -1.4218 -1.2235 -1.2061
 7407SOL    MW429396   3.092   6.193   0.203 -0.4914  0.3201 -0.0221
 7408SOL     OW29397   1.221   5.605   5.976 -0.2062 -0.2695 -0.4385
 7408SOL    HW229398   1.273   5.564   5.907  0.0313 -2.3978  0.8708
 7408SOL    HW329399   1.185   5.684   5.937  2.6476  0.4217 -1.9328
 7408SOL    MW429400   1.223   5.610   5.962  0.2017 -0.4591 -0.4629
 7409SOL     OW29401   1.176   6.401   1.332 -0.1001 -0.1218  0.2902
 7409SOL    HW229402   1.222   6.433   1.409 -1.1005  0.1835  0.7874
 7409SOL    HW329403   1.147   6.313   1.356  0.9839 -0.6683 -0.3554
 7409SOL    MW429404   1.178   6.394   1.345 -0.0891 -0.1537  0.2706
 7410SOL     OW29405   2.791   5.264   5.175  0.0010  0.2257  0.1849
 7410SOL    HW229406   2.792   5.267   5.270  0.9452  2.7657  0.1550
 7410SOL    HW329407   2.708   5.221   5.153  0.0963 -1.0768  2.1034
 7410SOL    MW429408   2.781   5.259   5.184  0.1381  0.3890  0.4341
 7411SOL     OW29409   6.016   3.814   3.889  0.0274  0.1666  0.0560
 7411SOL    HW229410   6.076   3.879   3.855 -2.8133  1.9711 -1.9309
 7411SOL    HW329411   5.937   3.864   3.912 -1.8221 -2.3856 -0.3259
 7411SOL    MW429412   6.014   3.829   3.888 -0.5914  0.0679 -0.2565
 7412SOL     OW29413   3.690   3.662   3.767 -0.2757 -0.2190  0.7121
 7412SOL    HW229414   3.614   3.617   3.730 -0.5633 -0.6520  1.7776
 7412SOL    HW329415   3.726   3.600   3.831 -0.7254  1.0653  2.2824
 7412SOL    MW429416   3.685   3.648   3.771 -0.3730 -0.1067  1.0599
 7413SOL     OW29417   5.774   4.003   1.092 -0.0832  0.0182 -0.1725
 7413SOL    HW229418   5.758   4.007   0.998  0.8005 -2.6171 -0.5145
 7413SOL    HW329419   5.710   3.940   1.125  1.9984 -1.9980  0.2751
 7413SOL    MW429420   5.763   3.995   1.084  0.3081 -0.5955 -0.1586
 7414SOL     OW29421   0.910   5.943   4.775  0.3780 -0.0546 -0.3351
 7414SOL    HW229422   0.897   5.874   4.841  0.2103 -0.9486 -1.2709
 7414SOL    HW329423   1.004   5.954   4.769  0.3756  0.4999  0.5129
 7414SOL    MW429424   0.920   5.935   4.783  0.3556 -0.0993 -0.3467
 7415SOL     OW29425   0.358   2.090   0.610  0.3489 -1.0697 -0.0004
 7415SOL    HW229426   0.274   2.060   0.643  0.1772  1.1308  1.8635
 7415SOL    HW329427   0.389   2.019   0.555 -2.3504 -2.2810 -0.1261
 7415SOL    MW429428   0.351   2.077   0.607 -0.0299 -0.9392  0.2290
 7416SOL     OW29429   5.711   3.189   4.565 -0.3828 -0.2931 -0.7728
 7416SOL    HW229430   5.675   3.106   4.597  1.2264 -1.6168 -2.1754
 7416SOL    HW329431   5.655   3.213   4.492 -0.9803 -0.0010 -0.2330
 7416SOL    MW429432   5.699   3.181   4.560 -0.2493 -0.4292 -0.8867
 7417SOL     OW29433   3.318   2.650   1.333  0.1822  0.2651 -0.1157
 7417SOL    HW229434   3.248   2.629   1.270 -0.1122 -0.8233  0.5422
 7417SOL    HW329435   3.273   2.663   1.416  0.5992  1.4162 -0.0606
 7417SOL    MW429436   3.303   2.649   1.335  0.1984  0.2734 -0.0216
 7418SOL     OW29437   0.463   2.776   6.231 -0.0850 -0.5268 -0.4349
 7418SOL    HW229438   0.545   2.784   6.280 -0.8504 -1.6136  1.1225
 7418SOL    HW329439   0.401   2.832   6.278 -1.0640 -2.2695  0.4805
 7418SOL    MW429440   0.465   2.784   6.244 -0.3151 -0.9001 -0.1086
 7419SOL     OW29441   1.488   0.398   5.286 -0.2359 -0.0526  0.4684
 7419SOL    HW229442   1.578   0.415   5.312  0.0452 -0.1645 -0.3818
 7419SOL    HW329443   1.448   0.353   5.361 -0.1917  1.7944  1.6571
 7419SOL    MW429444   1.494   0.394   5.299 -0.1930  0.1763  0.5130
 7420SOL     OW29445   4.135   3.577   1.241  0.0636 -0.1407  0.3851
 7420SOL    HW229446   4.094   3.623   1.167 -1.1606 -0.8198  0.6226
 7420SOL    HW329447   4.115   3.631   1.317 -0.8796 -0.7331  0.5780
 7420SOL    MW429448   4.127   3.590   1.241 -0.2224 -0.3084  0.4419
 7421SOL     OW29449   1.873   5.166   6.411  0.2015  0.1037  0.5695
 7421SOL    HW229450   1.885   5.156   6.317 -0.0220 -0.3424  0.5864
 7421SOL    HW329451   1.877   5.077   6.446  0.7497  0.3026  1.0406
 7421SOL    MW429452   1.875   5.153   6.403  0.2443  0.0711  0.6339
 7422SOL     OW29453   4.740   2.279   1.179 -0.1986  0.0829 -0.4032
 7422SOL    HW229454   4.773   2.321   1.100  2.9555  0.1201  0.7926
 7422SOL    HW329455   4.677   2.214   1.147 -2.0718  2.7354 -2.5660
 7422SOL    MW429456   4.736   2.276   1.164 -0.0296  0.4378 -0.5308
 7423SOL     OW29457   0.612   5.186   2.879  0.1673  0.4249 -0.0581
 7423SOL    HW229458   0.597   5.108   2.825  1.9571  0.4550 -0.6816
 7423SOL    HW329459   0.658   5.247   2.822 -2.9387  2.8685 -0.2265
 7423SOL    MW429460   0.616   5.183   2.864 -0.0063  0.7513 -0.1625
 7424SOL     OW29461   2.865   4.471   4.976 -0.0410  0.1777  0.1705
 7424SOL    HW229462   2.786   4.497   4.928 -1.3560  0.2321  2.2706
 7424SOL    HW329463   2.833   4.441   5.061  2.2116  0.1604  1.0748
 7424SOL    MW429464   2.851   4.471   4.981  0.0827  0.1826  0.5669
 7425SOL     OW29465   1.318   4.744   5.008 -0.1008  0.0069  0.2951
 7425SOL    HW229466   1.336   4.723   5.099 -2.5757 -0.5845  0.7305
 7425SOL    HW329467   1.231   4.785   5.010 -0.3541 -0.3157 -1.8369
 7425SOL    MW429468   1.309   4.747   5.020 -0.4607 -0.1137  0.0713
 7426SOL     OW29469   0.219   6.033   1.164  0.6093  0.0158  0.5006
 7426SOL    HW229470   0.246   6.005   1.251 -1.5659  2.7539  2.2400
 7426SOL    HW329471   0.253   6.122   1.156 -2.2230  1.1776  0.2007
 7426SOL    MW429472   0.227   6.041   1.175 -0.0514  0.5303  0.6905
 7427SOL     OW29473   2.198   0.731   0.923 -0.0041  0.2959  0.6997
 7427SOL    HW229474   2.245   0.705   0.843 -2.7485 -0.8048 -0.6842
 7427SOL    HW329475   2.245   0.808   0.954  1.8590  0.0919 -1.3237
 7427SOL    MW429476   2.211   0.737   0.916 -0.1204  0.1237  0.2502
 7428SOL     OW29477   2.970   1.056   4.893 -0.2216 -0.1145 -0.2715
 7428SOL    HW229478   2.918   1.083   4.817 -2.0270  2.2647  1.6508
 7428SOL    HW329479   2.940   0.967   4.912  0.6184 -0.9652 -2.5277
 7428SOL    MW429480   2.959   1.048   4.886 -0.3490  0.0871 -0.3156
 7429SOL     OW29481   6.301   2.051   2.026 -0.0023  0.1827 -0.1639
 7429SOL    HW229482   6.337   1.985   1.966  0.8730 -0.8125  1.3809
 7429SOL    HW329483   6.252   2.000   2.090 -0.8545  1.2109  0.0202
 7429SOL    MW429484   6.300   2.035   2.027  0.0008  0.1870  0.0642
 7430SOL     OW29485   2.046   3.705   1.912  0.3447 -0.0246  0.3693
 7430SOL    HW229486   2.098   3.772   1.866  0.1455  0.3096  0.6263
 7430SOL    HW329487   2.074   3.713   2.003 -0.3035  0.2956  0.5417
 7430SOL    MW429488   2.057   3.715   1.918  0.2329  0.0618  0.4260
 7431SOL     OW29489   4.140   4.658   4.327 -0.5168 -0.2622  0.5866
 7431SOL    HW229490   4.093   4.607   4.261 -0.5810 -0.9583  1.1520
 7431SOL    HW329491   4.232   4.646   4.306 -0.5583  1.0466 -0.4809
 7431SOL    MW429492   4.146   4.649   4.316 -0.5308 -0.1813  0.5203
 7432SOL     OW29493   2.014   1.203   1.341 -0.0054  0.2537 -0.1295
 7432SOL    HW229494   2.071   1.210   1.264  0.9616 -0.2484  0.5111
 7432SOL    HW329495   2.001   1.109   1.352 -1.4352  0.3813 -0.5805
 7432SOL    MW429496   2.020   1.192   1.332 -0.0665  0.2043 -0.1045
 7433SOL     OW29497   5.756   2.111   0.616  0.2042 -0.0153 -0.2085
 7433SOL    HW229498   5.730   2.202   0.605  1.3320  0.4931  1.0056
 7433SOL    HW329499   5.757   2.098   0.711  1.8232 -0.7284 -0.2863
 7433SOL    MW429500   5.753   2.121   0.627  0.5666 -0.0423 -0.0586
 7434SOL     OW29501   3.631   2.711   0.536 -0.0008  0.1013  0.1090
 7434SOL    HW229502   3.665   2.774   0.473 -1.9648  2.3458  1.1564
 7434SOL    HW329503   3.680   2.727   0.617 -1.4833  1.3833  0.7997
 7434SOL    MW429504   3.642   2.721   0.539 -0.4555  0.5666  0.3383
 7435SOL     OW29505   5.879   2.873   1.778 -0.4853  0.4598  0.2393
 7435SOL    HW229506   5.884   2.945   1.841  3.9426  0.1499  0.5708
 7435SOL    HW329507   5.872   2.794   1.832 -0.9429  0.4204  0.1202
 7435SOL    MW429508   5.879   2.872   1.794  0.0386  0.4137  0.2673
 7436SOL     OW29509   3.649   0.439   2.376 -0.4766  0.1041  0.0958
 7436SOL    HW229510   3.708   0.389   2.433 -0.5554 -0.7632 -0.5661
 7436SOL    HW329511   3.707   0.482   2.313 -0.5061 -0.2917 -0.2039
 7436SOL    MW429512   3.664   0.438   2.375 -0.4909 -0.0626 -0.0311
 7437SOL     OW29513   5.990   0.473   5.547 -0.0656  0.0765  0.3154
 7437SOL    HW229514   5.989   0.462   5.642 -0.0025 -0.5859  0.2433
 7437SOL    HW329515   6.005   0.566   5.534 -0.3187  0.2137  0.9588
 7437SOL    MW429516   5.992   0.484   5.558 -0.0907  0.0072  0.3908
 7438SOL     OW29517   2.072   3.822   1.539 -0.1831 -0.1945  0.4091
 7438SOL    HW229518   1.990   3.794   1.578  0.6579 -3.0968  0.3317
 7438SOL    HW329519   2.131   3.834   1.614 -0.1450 -0.1033  0.3642
 7438SOL    MW429520   2.069   3.820   1.554 -0.0671 -0.5654  0.3930
 7439SOL     OW29521   0.788   5.566   5.376 -0.3470  0.1435  0.1696
 7439SOL    HW229522   0.721   5.541   5.440 -1.6382  0.8863 -0.8265
 7439SOL    HW329523   0.741   5.569   5.293  0.4980  2.4646 -0.3005
 7439SOL    MW429524   0.773   5.563   5.374 -0.4059  0.5478 -0.0238
 7440SOL     OW29525   5.121   5.716   0.679  0.3063 -0.0356  0.5110
 7440SOL    HW229526   5.148   5.626   0.658  1.0629 -0.0263  1.3765
 7440SOL    HW329527   5.177   5.771   0.624 -0.3418 -0.0880 -0.2170
 7440SOL    MW429528   5.132   5.711   0.669  0.3206 -0.0413  0.5291
 7441SOL     OW29529   6.135   2.414   5.292 -0.6820  0.5537  0.0818
 7441SOL    HW229530   6.075   2.369   5.351 -0.0750  0.9640  1.0246
 7441SOL    HW329531   6.078   2.470   5.239 -1.2497  0.0426  0.1376
 7441SOL    MW429532   6.119   2.415   5.293 -0.6768  0.5404  0.2136
 7442SOL     OW29533   0.739   4.918   3.765 -0.7316  0.3562 -0.0525
 7442SOL    HW229534   0.654   4.947   3.733 -1.3827 -1.2446  0.1480
 7442SOL    HW329535   0.788   4.896   3.686 -0.0996  2.2131 -0.2319
 7442SOL    MW429536   0.734   4.919   3.750 -0.7341  0.3900 -0.0497
 7443SOL     OW29537   5.454   6.144   6.112 -0.0662 -0.7622  0.0194
 7443SOL    HW229538   5.418   6.207   6.050 -1.2172 -2.7895 -1.4781
 7443SOL    HW329539   5.380   6.119   6.167  0.3660 -0.8543  0.5717
 7443SOL    MW429540   5.440   6.149   6.111 -0.1610 -1.0418 -0.1053
 7444SOL     OW29541   2.740   0.278   1.104 -0.0073  0.5923 -0.2195
 7444SOL    HW229542   2.671   0.213   1.109 -0.3322  0.9579  0.1570
 7444SOL    HW329543   2.743   0.303   1.012 -1.1331  1.3600 -0.0799
 7444SOL    MW429544   2.731   0.273   1.093 -0.1987  0.7418 -0.1514
 7445SOL     OW29545   3.388   1.971   5.348  0.3026 -0.4518 -0.1863
 7445SOL    HW229546   3.317   1.994   5.288  0.3654 -0.6991 -0.3613
 7445SOL    HW329547   3.466   1.965   5.292  0.5302  0.1474  0.0577
 7445SOL    MW429548   3.389   1.973   5.332  0.3409 -0.4053 -0.1772
 7446SOL     OW29549   4.328   0.656   3.056  0.3548  0.1052  0.8473
 7446SOL    HW229550   4.235   0.651   3.077  0.1376  0.3550 -0.0211
 7446SOL    HW329551   4.367   0.698   3.132 -0.1381 -0.5792  1.4971
 7446SOL    MW429552   4.321   0.661   3.069  0.2611  0.0479  0.8184
 7447SOL     OW29553   3.513   5.689   4.933 -0.1592  0.0697  0.4222
 7447SOL    HW229554   3.565   5.690   4.853  1.7082 -0.4233  1.5610
 7447SOL    HW329555   3.425   5.711   4.905  0.7958  1.7874 -1.5131
 7447SOL    MW429556   3.509   5.692   4.919  0.2131  0.2313  0.3171
 7448SOL     OW29557   2.989   5.202   4.968  0.0680 -0.1394 -0.9222
 7448SOL    HW229558   2.939   5.221   5.047  0.5165 -1.2612 -0.3428
 7448SOL    HW329559   2.995   5.286   4.922 -0.6541  0.4136 -0.0344
 7448SOL    MW429560   2.984   5.215   4.972  0.0319 -0.2145 -0.7286
 7449SOL     OW29561   1.603   3.077   2.497  0.1736  0.4472 -0.1195
 7449SOL    HW229562   1.519   3.120   2.512 -0.9034 -1.1604 -1.2079
 7449SOL    HW329563   1.590   2.989   2.532  0.7089 -0.4422 -2.0237
 7449SOL    MW429564   1.590   3.071   2.504  0.1022  0.1178 -0.5144
 7450SOL     OW29565   0.430   5.461   1.165 -0.5620  0.2402 -0.2145
 7450SOL    HW229566   0.360   5.404   1.196  1.0513 -0.8444  1.6870
 7450SOL    HW329567   0.444   5.523   1.236  1.0976 -0.2635 -0.0628
 7450SOL    MW429568   0.423   5.462   1.179 -0.1302  0.0307  0.0564
 7451SOL     OW29569   2.023   1.474   4.342  0.2112 -0.0730 -0.2765
 7451SOL    HW229570   2.088   1.443   4.405  0.1224 -1.4676 -0.8333
 7451SOL    HW329571   1.955   1.515   4.395  0.8357  0.1006  0.4088
 7451SOL    MW429572   2.023   1.476   4.357  0.2819 -0.2341 -0.2595
 7452SOL     OW29573   5.752   0.063   0.351  0.5115 -0.4296  0.0748
 7452SOL    HW229574   5.834   0.015   0.354  0.1679 -1.3458 -2.4645
 7452SOL    HW329575   5.685  -0.003   0.333 -0.3190  0.6461 -1.0510
 7452SOL    MW429576   5.754   0.048   0.349  0.3566 -0.4085 -0.4088
 7453SOL     OW29577   3.257   5.517   2.921  0.3376 -0.2495 -0.3806
 7453SOL    HW229578   3.227   5.558   2.840  2.2593  1.8750 -0.1192
 7453SOL    HW329579   3.177   5.488   2.964 -0.9447  0.9642 -1.8139
 7453SOL    MW429580   3.243   5.519   2.916  0.4220  0.1909 -0.5352
 7454SOL     OW29581   2.815   4.576   1.282  0.8047  0.2075  0.3750
 7454SOL    HW229582   2.899   4.584   1.236  1.1095  2.1603  1.1718
 7454SOL    HW329583   2.837   4.540   1.367  0.7931  0.4168  0.4668
 7454SOL    MW429584   2.829   4.573   1.287  0.8434  0.4928  0.4922
 7455SOL     OW29585   3.614   1.532   1.281 -1.1745  0.1518 -0.2703
 7455SOL    HW229586   3.659   1.522   1.197 -2.4564  1.2007 -1.1276
 7455SOL    HW329587   3.570   1.448   1.294  0.6011 -0.7354  0.3730
 7455SOL    MW429588   3.614   1.519   1.272 -1.1093  0.1731 -0.2985
 7456SOL     OW29589   0.402   4.033   3.550  0.1269 -0.1959  0.1195
 7456SOL    HW229590   0.449   4.115   3.566  0.0073 -0.0487 -0.2712
 7456SOL    HW329591   0.340   4.054   3.480  1.2363 -1.0419 -1.1764
 7456SOL    MW429592   0.400   4.047   3.543  0.2575 -0.2881 -0.1030
 7457SOL     OW29593   1.740   4.019   6.145 -0.3776  0.1308 -0.3284
 7457SOL    HW229594   1.788   4.049   6.222  1.2699 -0.9532 -0.8750
 7457SOL    HW329595   1.787   3.940   6.116 -2.5469 -1.0532 -0.8779
 7457SOL    MW429596   1.753   4.012   6.151 -0.4464 -0.1685 -0.4730
 7458SOL     OW29597   4.307   3.962   1.712 -0.1585  0.3608  0.7532
 7458SOL    HW229598   4.279   3.871   1.701 -0.3550  0.5474 -0.4218
 7458SOL    HW329599   4.227   4.009   1.736 -0.0613  0.2380  1.3375
 7458SOL    MW429600   4.293   3.956   1.714 -0.1716  0.3692  0.6753
 7459SOL     OW29601   2.156   3.083   5.173  0.0175  0.2855  0.2689
 7459SOL    HW229602   2.146   3.176   5.156  0.3280  0.3232  0.2787
 7459SOL    HW329603   2.215   3.052   5.104  0.3575  0.2079  0.5907
 7459SOL    MW429604   2.163   3.091   5.162  0.1033  0.2803  0.3127
 7460SOL     OW29605   0.578   3.980   4.039 -0.0402 -0.2423 -0.3760
 7460SOL    HW229606   0.608   3.895   4.070 -0.3597 -0.7471 -1.4040
 7460SOL    HW329607   0.553   4.028   4.118  0.9418 -0.7802  0.2834
 7460SOL    MW429608   0.579   3.975   4.053  0.0472 -0.3798 -0.4246
 7461SOL     OW29609   2.713   1.098   2.673 -0.2376  0.1726 -0.4047
 7461SOL    HW229610   2.661   1.017   2.670 -1.0381  0.5102  2.3042
 7461SOL    HW329611   2.649   1.167   2.689  0.8622  0.7427  1.8932
 7461SOL    MW429612   2.698   1.096   2.674 -0.1981  0.2924  0.2559
 7462SOL     OW29613   0.648   4.447   2.682  0.4156 -0.1357  0.3355
 7462SOL    HW229614   0.712   4.394   2.635  0.2193 -0.1095  0.0400
 7462SOL    HW329615   0.628   4.520   2.623 -0.7514 -0.7600 -0.0698
 7462SOL    MW429616   0.654   4.450   2.668  0.2358 -0.2146  0.2431
 7463SOL     OW29617   1.195   0.729   2.337  0.2738  0.8155  0.1898
 7463SOL    HW229618   1.167   0.819   2.356 -1.8792  0.0184  1.0977
 7463SOL    HW329619   1.229   0.697   2.420  0.0845  0.4547  0.1272
 7463SOL    MW429620   1.196   0.737   2.350 -0.0352  0.6627  0.3013
 7464SOL     OW29621   0.709   3.530   3.106  0.0024  0.3875 -0.3463
 7464SOL    HW229622   0.722   3.521   3.200  1.3252 -2.1962 -0.6794
 7464SOL    HW329623   0.614   3.532   3.095 -0.1715  0.6033  1.0355
 7464SOL    MW429624   0.698   3.529   3.117  0.1540  0.0751 -0.2079
 7465SOL     OW29625   3.420   3.904   4.455 -0.3793 -0.1965  0.0807
 7465SOL    HW229626   3.359   3.928   4.385 -0.1455 -1.3785 -0.5550
 7465SOL    HW329627   3.493   3.965   4.446  0.0000 -0.8049 -1.2179
 7465SOL    MW429628   3.422   3.915   4.445 -0.2984 -0.4327 -0.1745
 7466SOL     OW29629   4.972   5.851   3.547 -0.2413 -0.4844  0.1990
 7466SOL    HW229630   4.899   5.790   3.552 -0.9395  0.3306  0.1021
 7466SOL    HW329631   5.020   5.838   3.629 -1.3268 -0.0005  0.9316
 7466SOL    MW429632   4.969   5.842   3.559 -0.4766 -0.3130  0.2829
 7467SOL     OW29633   1.889   2.898   4.030 -0.2523  0.0253 -0.0847
 7467SOL    HW229634   1.835   2.863   3.960  1.4403 -0.6424 -1.1101
 7467SOL    HW329635   1.856   2.987   4.044 -2.2690 -0.6990  0.0745
 7467SOL    MW429636   1.878   2.905   4.023 -0.2950 -0.1584 -0.1990
 7468SOL     OW29637   2.120   1.959   5.029 -0.3191 -0.2330 -0.4847
 7468SOL    HW229638   2.073   1.976   4.947 -0.6349  0.3838 -0.1817
 7468SOL    HW329639   2.132   1.864   5.030 -2.2215 -0.5052 -0.2203
 7468SOL    MW429640   2.115   1.948   5.018 -0.6118 -0.1875 -0.4098
 7469SOL     OW29641   3.518   3.086   1.941  0.3015  0.0954  0.1690
 7469SOL    HW229642   3.607   3.117   1.957 -0.4494  2.3376  0.3124
 7469SOL    HW329643   3.462   3.146   1.990 -1.2964 -1.5509  0.4627
 7469SOL    MW429644   3.522   3.098   1.949 -0.0084  0.1740  0.2266
 7470SOL     OW29645   5.214   5.315   0.337  0.1926  1.2188  0.1222
 7470SOL    HW229646   5.206   5.283   0.247  0.8088  2.5404 -0.4327
 7470SOL    HW329647   5.302   5.289   0.364  0.7547  2.5056 -0.3864
 7470SOL    MW429648   5.224   5.307   0.329  0.3481  1.5629 -0.0181
 7471SOL     OW29649   2.981   1.539   4.365 -0.5956 -0.1465  0.0928
 7471SOL    HW229650   2.922   1.600   4.408 -0.8411 -0.3394  0.0340
 7471SOL    HW329651   3.014   1.483   4.435 -0.5510 -0.0944  0.1133
 7471SOL    MW429652   2.977   1.540   4.380 -0.6221 -0.1651  0.0878
 7472SOL     OW29653   5.642   5.781   4.067 -0.2937  0.3862  0.1522
 7472SOL    HW229654   5.652   5.720   4.140 -0.2066  1.0599  0.7109
 7472SOL    HW329655   5.589   5.734   4.003 -2.0242  0.4677  1.4634
 7472SOL    MW429656   5.636   5.767   4.068 -0.5105  0.4858  0.3989
 7473SOL     OW29657   3.540   1.933   4.038 -0.4751  0.9480 -0.3786
 7473SOL    HW229658   3.615   1.894   3.994 -0.4704 -1.5113  1.5383
 7473SOL    HW329659   3.558   2.027   4.039  1.7910  0.5803 -1.3717
 7473SOL    MW429660   3.552   1.940   4.033 -0.1755  0.5750 -0.2567
 7474SOL     OW29661   1.194   0.167   0.889 -0.2110  0.0103  0.0466
 7474SOL    HW229662   1.122   0.214   0.931  0.5878  1.0467  0.2776
 7474SOL    HW329663   1.174   0.074   0.904 -1.0287  0.3124  0.8825
 7474SOL    MW429664   1.182   0.161   0.897 -0.2135  0.1869  0.1874
 7475SOL     OW29665   2.716   1.579   2.247  0.4620  0.3309 -0.5569
 7475SOL    HW229666   2.703   1.535   2.331 -0.3856  0.1452 -0.7681
 7475SOL    HW329667   2.714   1.508   2.183  0.5227  0.5282 -0.7771
 7475SOL    MW429668   2.714   1.563   2.250  0.3582  0.3325 -0.6138
 7476SOL     OW29669   0.786   0.528   4.891 -0.5733  0.3474 -0.7389
 7476SOL    HW229670   0.746   0.598   4.839 -0.7064  0.5610 -0.3561
 7476SOL    HW329671   0.864   0.503   4.841 -0.2206  1.1511 -0.6108
 7476SOL    MW429672   0.791   0.534   4.877 -0.5443  0.4816 -0.6715
 7477SOL     OW29673   1.583   5.720   6.070 -0.2871 -0.2527 -0.2758
 7477SOL    HW229674   1.606   5.718   5.977  0.7474 -0.6472 -0.0289
 7477SOL    HW329675   1.518   5.790   6.078  0.9347  1.0174 -1.0093
 7477SOL    MW429676   1.577   5.729   6.059  0.0106 -0.1372 -0.3400
 7478SOL     OW29677   2.314   0.951   3.841 -0.3480  0.0004  0.5104
 7478SOL    HW229678   2.307   1.043   3.869  1.3904  0.6971 -1.1173
 7478SOL    HW329679   2.245   0.942   3.775 -0.1160  0.3390  0.2151
 7478SOL    MW429680   2.304   0.962   3.836 -0.0881  0.1370  0.2567
 7479SOL     OW29681   2.196   4.421   0.767  0.2180  0.0518 -0.3734
 7479SOL    HW229682   2.199   4.334   0.807  0.8104  0.3807  0.3359
 7479SOL    HW329683   2.108   4.453   0.787  0.3926  0.0759  0.4184
 7479SOL    MW429684   2.185   4.414   0.775  0.3192  0.0984 -0.1753
 7480SOL     OW29685   2.058   2.998   4.627 -0.0031  0.3974  0.1257
 7480SOL    HW229686   2.062   3.009   4.722  1.3989  0.2035  0.1149
 7480SOL    HW329687   1.974   3.037   4.602 -0.5865  0.0719  1.4820
 7480SOL    MW429688   2.048   3.005   4.636  0.1049  0.3289  0.3032
 7481SOL     OW29689   5.756   0.902   5.759  0.5169  0.0249  0.1082
 7481SOL    HW229690   5.686   0.922   5.822  1.1176  0.0278  0.7915
 7481SOL    HW329691   5.710   0.867   5.683 -0.2907  0.7564  0.2366
 7481SOL    MW429692   5.740   0.900   5.758  0.4896  0.1218  0.2153
 7482SOL     OW29693   1.547   0.210   3.689  0.2069 -0.5618  0.0638
 7482SOL    HW229694   1.556   0.120   3.657 -1.4289 -1.8743  2.9534
 7482SOL    HW329695   1.468   0.243   3.646 -0.8266 -1.5819  1.1209
 7482SOL    MW429696   1.538   0.203   3.679 -0.1453 -0.8696  0.5845
 7483SOL     OW29697  -0.009   3.008   1.979  0.0283 -0.2587 -0.1314
 7483SOL    HW229698  -0.097   2.971   1.972 -0.6109  1.4475 -2.0985
 7483SOL    HW329699   0.044   2.954   1.920  0.1290 -0.7324  0.3787
 7483SOL    MW429700  -0.013   2.996   1.971 -0.0427 -0.0961 -0.3236
 7484SOL     OW29701   5.290   0.515   2.221 -0.4924 -0.3169  0.3457
 7484SOL    HW229702   5.249   0.565   2.150 -0.3219 -1.3033 -0.4713
 7484SOL    HW329703   5.299   0.578   2.292 -1.2634  0.5320 -0.2784
 7484SOL    MW429704   5.286   0.530   2.221 -0.5717 -0.3351  0.1556
 7485SOL     OW29705   4.171   3.940   2.482  0.5411  0.3064 -0.3767
 7485SOL    HW229706   4.168   4.001   2.556  1.4847  1.4268 -1.2080
 7485SOL    HW329707   4.216   3.863   2.516 -0.3604  0.1845  0.6038
 7485SOL    MW429708   4.176   3.938   2.496  0.5467  0.4382 -0.3570
 7486SOL     OW29709   5.846   3.800   4.720  0.2650 -0.1740  0.3569
 7486SOL    HW229710   5.934   3.829   4.694 -0.2046  0.2340 -0.8138
 7486SOL    HW329711   5.815   3.869   4.779  0.1969  0.3880 -0.3256
 7486SOL    MW429712   5.854   3.813   4.724  0.1940 -0.0460  0.1124
 7487SOL     OW29713   3.140   3.035   2.227  0.8666  0.0833 -0.7511
 7487SOL    HW229714   3.218   3.018   2.280  0.9782 -0.8093 -1.1721
 7487SOL    HW329715   3.070   2.987   2.272  0.9266 -0.5355 -1.2894
 7487SOL    MW429716   3.141   3.026   2.240  0.8892 -0.1161 -0.8777
 7488SOL     OW29717   4.522   2.443   3.275 -0.0430  0.0551 -0.4494
 7488SOL    HW229718   4.446   2.460   3.330  1.9904  0.1667  2.5394
 7488SOL    HW329719   4.499   2.364   3.226 -1.7429 -0.4393  1.0342
 7488SOL    MW429720   4.509   2.435   3.275  0.0010  0.0046  0.1407
 7489SOL     OW29721   2.154   4.968   1.376  0.0664 -0.0240 -0.2250
 7489SOL    HW229722   2.157   4.876   1.349 -0.5139 -0.3066  0.6352
 7489SOL    HW329723   2.089   4.971   1.446 -0.8831  1.2762 -1.1046
 7489SOL    MW429724   2.145   4.956   1.381 -0.1354  0.1103 -0.2276
 7490SOL     OW29725   2.748   1.148   5.177  0.3705  0.2680 -0.0055
 7490SOL    HW229726   2.653   1.136   5.175  0.6189 -1.9475 -1.3305
 7490SOL    HW329727   2.766   1.209   5.105 -0.0597  1.0334  0.5211
 7490SOL    MW429728   2.738   1.154   5.167  0.3465  0.0767 -0.1108
 7491SOL     OW29729   5.863   1.811   4.763  0.2546  0.1867  0.4644
 7491SOL    HW229730   5.847   1.720   4.790  1.0941 -0.5429 -1.3600
 7491SOL    HW329731   5.777   1.845   4.740  0.0630 -0.5139  0.1143
 7491SOL    MW429732   5.850   1.803   4.764  0.3401 -0.0020  0.1775
 7492SOL     OW29733   0.284   1.045   3.139 -0.3950  0.4123  0.3142
 7492SOL    HW229734   0.369   1.063   3.180 -0.6165 -0.7724  1.3837
 7492SOL    HW329735   0.229   1.120   3.162 -0.4800 -0.1740  2.1904
 7492SOL    MW429736   0.288   1.057   3.147 -0.4355  0.1786  0.7029
 7493SOL     OW29737   2.957   5.740   2.083  0.0807  0.1407  0.1244
 7493SOL    HW229738   2.990   5.687   2.156  1.2852  0.2017 -0.3547
 7493SOL    HW329739   2.908   5.811   2.125 -0.7862 -0.8312  0.8031
 7493SOL    MW429740   2.955   5.742   2.098  0.1252  0.0205  0.1507
 7494SOL     OW29741   0.924   3.755   3.429  0.0636  0.4507  0.2075
 7494SOL    HW229742   0.921   3.839   3.383 -1.2909  0.3386  0.0686
 7494SOL    HW329743   0.915   3.778   3.522  2.0675  0.6180  0.4043
 7494SOL    MW429744   0.923   3.769   3.435  0.1493  0.4580  0.2152
 7495SOL     OW29745   1.434   4.745   3.548 -0.1170  0.4378  0.1495
 7495SOL    HW229746   1.431   4.838   3.524 -1.1296  0.2154 -0.6342
 7495SOL    HW329747   1.349   4.710   3.522 -0.2217 -0.4520  1.5885
 7495SOL    MW429748   1.423   4.753   3.541 -0.2644  0.2911  0.2360
 7496SOL     OW29749   4.956   2.858   0.613 -0.1952 -0.1620  0.0371
 7496SOL    HW229750   4.999   2.925   0.667 -0.6951 -1.3265  1.9819
 7496SOL    HW329751   4.885   2.826   0.668 -2.5404  0.4919 -2.4234
 7496SOL    MW429752   4.952   2.863   0.628 -0.5706 -0.2294 -0.0309
 7497SOL     OW29753   4.406   2.583   1.343  0.0870 -0.6065 -0.0453
 7497SOL    HW229754   4.363   2.632   1.272  1.7459  2.3708  0.8014
 7497SOL    HW329755   4.481   2.540   1.301  0.1946 -0.0980 -0.3871
 7497SOL    MW429756   4.410   2.584   1.328  0.3201 -0.1466  0.0213
 7498SOL     OW29757   1.506   0.849   3.970  0.3787  0.2387 -0.3842
 7498SOL    HW229758   1.533   0.940   3.957 -0.1505  0.4287 -0.1797
 7498SOL    HW329759   1.517   0.834   4.064  1.0816 -0.1162 -0.5142
 7498SOL    MW429760   1.511   0.859   3.981  0.4016  0.2170 -0.3743
 7499SOL     OW29761   6.225   4.306   1.660 -0.0059 -0.1491 -0.0154
 7499SOL    HW229762   6.166   4.317   1.735 -0.3416 -3.4399  0.3257
 7499SOL    HW329763   6.268   4.391   1.651 -1.4417  0.9660  2.6121
 7499SOL    MW429764   6.222   4.319   1.668 -0.2396 -0.4361  0.3763
 7500SOL     OW29765   4.493   0.995   3.555 -0.3959  0.4903 -0.1057
 7500SOL    HW229766   4.445   0.915   3.535  0.8152 -0.9916  2.4005
 7500SOL    HW329767   4.481   1.006   3.650  1.4799  1.8952  0.0111
 7500SOL    MW429768   4.485   0.986   3.565  0.0114  0.4801  0.2404
 7501SOL     OW29769   1.675   5.176   3.969 -0.4212  0.1868 -0.2762
 7501SOL    HW229770   1.640   5.135   3.890 -1.9882  0.4885  0.2266
 7501SOL    HW329771   1.674   5.106   4.035 -1.6348  0.6016  0.1684
 7501SOL    MW429772   1.670   5.161   3.967 -0.7881  0.2813 -0.1512
 7502SOL     OW29773   1.327   4.926   0.590  0.1855 -0.4311 -0.3640
 7502SOL    HW229774   1.242   4.961   0.620  0.1538  0.5512 -1.5188
 7502SOL    HW329775   1.320   4.832   0.603  0.2971 -0.1035  2.9530
 7502SOL    MW429776   1.315   4.918   0.595  0.1960 -0.2583 -0.0787
 7503SOL     OW29777   5.096   4.249   4.383 -0.4277  0.1818  0.0601
 7503SOL    HW229778   5.139   4.265   4.467 -0.2958  0.3869 -0.0458
 7503SOL    HW329779   5.088   4.335   4.343  1.1780 -0.0991 -0.9544
 7503SOL    MW429780   5.100   4.262   4.389 -0.1985  0.1718 -0.0877
 7504SOL     OW29781   5.986   5.584   5.094  0.3226 -0.0736 -0.3009
 7504SOL    HW229782   5.963   5.499   5.057  1.1599 -0.0239 -0.9760
 7504SOL    HW329783   6.010   5.638   5.018  1.9247  0.0789  0.2658
 7504SOL    MW429784   5.986   5.580   5.079  0.6444 -0.0469 -0.3152
 7505SOL     OW29785   1.286   6.425   4.453  0.0928  0.7040  0.3930
 7505SOL    HW229786   1.339   6.504   4.439  0.9832  0.2031  0.8739
 7505SOL    HW329787   1.254   6.402   4.366  0.2836  1.2821  0.1677
 7505SOL    MW429788   1.289   6.432   4.440  0.2354  0.7142  0.4267
 7506SOL     OW29789   3.305   1.652   4.649 -0.1891  0.4174 -0.0994
 7506SOL    HW229790   3.262   1.577   4.688  0.0796  0.4736  0.3124
 7506SOL    HW329791   3.313   1.630   4.556  2.7507 -1.4939  0.4853
 7506SOL    MW429792   3.301   1.640   4.642  0.2342  0.1727  0.0321
 7507SOL     OW29793   2.716   2.302   6.117  0.1915  0.1561  0.1209
 7507SOL    HW229794   2.637   2.268   6.075 -0.2837 -0.2244  1.2814
 7507SOL    HW329795   2.694   2.304   6.211  0.8676  1.8908  0.2831
 7507SOL    MW429796   2.702   2.298   6.124  0.2180  0.3348  0.2954
 7508SOL     OW29797   0.082   6.239   4.536  0.1798 -0.1880 -0.0971
 7508SOL    HW229798   0.054   6.232   4.445 -0.1059 -0.9048  0.0363
 7508SOL    HW329799   0.168   6.279   4.532 -0.7039  1.7968 -0.5427
 7508SOL    MW429800   0.089   6.243   4.524  0.0255 -0.0207 -0.1383
 7509SOL     OW29801   2.112   0.959   3.634  0.0102 -0.6849  0.6251
 7509SOL    HW229802   2.026   0.917   3.627 -0.1393 -0.0719 -2.3797
 7509SOL    HW329803   2.093   1.053   3.632  0.7453 -0.5470 -0.3861
 7509SOL    MW429804   2.098   0.966   3.633  0.0875 -0.5858  0.0953
 7510SOL     OW29805   3.771   3.226   2.064 -0.5151  0.0283 -0.6993
 7510SOL    HW229806   3.789   3.143   2.109  0.2767 -0.0539 -1.1505
 7510SOL    HW329807   3.856   3.253   2.029 -0.4342  1.8017  0.7189
 7510SOL    MW429808   3.785   3.218   2.065 -0.3999  0.2514 -0.5717
 7511SOL     OW29809   3.946   3.626   2.001  1.1939  0.3167 -0.3305
 7511SOL    HW229810   3.969   3.566   1.930  0.0399 -0.1381 -0.3437
 7511SOL    HW329811   3.905   3.570   2.067 -1.4261  1.2636 -1.0341
 7511SOL    MW429812   3.943   3.611   2.001  0.6959  0.3817 -0.4251
 7512SOL     OW29813   2.835   5.959   1.361  0.0556  0.1619  0.5299
 7512SOL    HW229814   2.930   5.957   1.374  0.3005 -0.5866 -1.0368
 7512SOL    HW329815   2.817   6.048   1.332  0.3423  0.2214  0.5264
 7512SOL    MW429816   2.845   5.971   1.359  0.1258  0.0710  0.3227
 7513SOL     OW29817   6.335   2.923   5.781  0.6352 -0.0493  0.3231
 7513SOL    HW229818   6.320   2.881   5.866 -0.2645  0.2052  0.3041
 7513SOL    HW329819   6.247   2.929   5.742  1.0991 -0.6820 -0.8747
 7513SOL    MW429820   6.321   2.918   5.787  0.5777 -0.0992  0.1625
 7514SOL     OW29821   0.909   1.915   4.412 -0.2110 -0.8753  1.0719
 7514SOL    HW229822   0.879   2.002   4.384  1.0893 -0.6428  0.3245
 7514SOL    HW329823   0.924   1.867   4.331  1.7138 -0.8541  1.3575
 7514SOL    MW429824   0.907   1.920   4.398  0.2145 -0.8419  1.0109
 7515SOL     OW29825   1.934   1.130   0.629 -0.4371  0.0763  0.3687
 7515SOL    HW229826   1.862   1.174   0.674 -0.9458 -0.9685  0.6080
 7515SOL    HW329827   1.964   1.063   0.690 -0.5778 -0.8007 -0.4868
 7515SOL    MW429828   1.928   1.127   0.643 -0.5228 -0.1773  0.2874
 7516SOL     OW29829   0.022   1.811   0.541  0.1568 -0.6329  0.3850
 7516SOL    HW229830   0.111   1.826   0.512 -0.7265  1.3558 -1.5228
 7516SOL    HW329831   0.006   1.718   0.521  0.6550 -0.1502 -2.7441
 7516SOL    MW429832   0.031   1.800   0.534  0.1060 -0.3068 -0.2796
 7517SOL     OW29833   5.075   0.408   4.703  0.5387 -0.2504 -0.2670
 7517SOL    HW229834   5.138   0.345   4.669  2.5258  1.5185 -0.0883
 7517SOL    HW329835   5.104   0.426   4.792 -0.0106  0.8411 -0.2944
 7517SOL    MW429836   5.087   0.402   4.710  0.7284  0.1270 -0.2470
 7518SOL     OW29837   0.738   3.300   2.943  0.2771 -0.3135  0.8371
 7518SOL    HW229838   0.726   3.389   2.975  2.5614  0.4186 -0.1442
 7518SOL    HW329839   0.759   3.310   2.850 -2.5177 -2.1226 -0.1470
 7518SOL    MW429840   0.739   3.313   2.935  0.2097 -0.4556  0.5778
 7519SOL     OW29841   3.129   1.565   4.979 -0.3861  0.1419  0.6201
 7519SOL    HW229842   3.160   1.654   4.964  2.4389 -0.3230  2.8603
 7519SOL    HW329843   3.116   1.560   5.074  0.6458 -2.1126  0.7024
 7519SOL    MW429844   3.131   1.576   4.990  0.1228 -0.2169  0.9266
 7520SOL     OW29845   6.167   3.371   3.132  0.0754 -0.7793 -0.0164
 7520SOL    HW229846   6.072   3.358   3.126 -0.1337  0.7662 -0.6067
 7520SOL    HW329847   6.201   3.287   3.162 -1.6833 -0.7858  2.1885
 7520SOL    MW429848   6.159   3.358   3.135 -0.1842 -0.5763  0.1966
 7521SOL     OW29849   4.925   0.662   4.733  0.3068 -0.5202  0.2167
 7521SOL    HW229850   4.960   0.723   4.669  0.9482  1.0738  1.9840
 7521SOL    HW329851   4.974   0.581   4.718  1.3233  0.2004 -0.5004
 7521SOL    MW429852   4.936   0.659   4.723  0.5255 -0.2148  0.3552
 7522SOL     OW29853   5.803   0.836   4.887  0.4944  0.0543  0.2740
 7522SOL    HW229854   5.739   0.771   4.859 -1.4099  0.5796  2.9992
 7522SOL    HW329855   5.758   0.920   4.877  1.8801  0.7391 -0.5216
 7522SOL    MW429856   5.789   0.838   4.882  0.4260  0.2139  0.5285
 7523SOL     OW29857   6.357   2.468   1.816  0.3928  0.1237  0.2245
 7523SOL    HW229858   6.419   2.448   1.746  0.3082  1.8497 -0.3764
 7523SOL    HW329859   6.290   2.400   1.808 -0.0320  0.7135 -1.9086
 7523SOL    MW429860   6.356   2.456   1.806  0.3256  0.4292 -0.1362
 7524SOL     OW29861   0.488   2.849   2.769 -0.3300 -0.3969  0.0555
 7524SOL    HW229862   0.513   2.941   2.760 -1.0512 -0.3982 -2.9893
 7524SOL    HW329863   0.424   2.834   2.699 -1.5673 -2.8028  1.5495
 7524SOL    MW429864   0.483   2.859   2.758 -0.5884 -0.7145 -0.1491
 7525SOL     OW29865   0.348   1.026   1.433 -0.0050  0.1193 -0.4593
 7525SOL    HW229866   0.335   0.934   1.454  1.0152  0.4777  2.1972
 7525SOL    HW329867   0.424   1.026   1.374  1.1000 -0.6893  0.8946
 7525SOL    MW429868   0.356   1.014   1.428  0.2754  0.0599  0.0698
 7526SOL     OW29869   3.078   0.088   5.691 -0.2566 -0.1955  0.0543
 7526SOL    HW229870   3.021   0.127   5.756 -0.0441  0.2453 -0.0237
 7526SOL    HW329871   3.109   0.161   5.638 -0.1285 -0.5044 -0.3069
 7526SOL    MW429872   3.075   0.103   5.692 -0.2116 -0.1781 -0.0037
 7527SOL     OW29873   3.305   5.160   2.490 -0.1439  0.0401 -0.6148
 7527SOL    HW229874   3.393   5.168   2.528 -0.3319 -1.2863  0.2049
 7527SOL    HW329875   3.247   5.198   2.556 -0.4146 -1.6997  0.2219
 7527SOL    MW429876   3.309   5.166   2.504 -0.2044 -0.3645 -0.3962
 7528SOL     OW29877   6.190   6.270   4.851 -0.1267 -0.1766 -0.5536
 7528SOL    HW229878   6.172   6.314   4.767  0.9887  0.0641 -0.6775
 7528SOL    HW329879   6.271   6.223   4.836  0.4409  0.4102  0.5921
 7528SOL    MW429880   6.198   6.270   4.838  0.0953 -0.0675 -0.4188
 7529SOL     OW29881   4.151   2.410   4.820  0.2270 -0.1340  0.1692
 7529SOL    HW229882   4.192   2.446   4.899 -0.3426  0.5805  0.1457
 7529SOL    HW329883   4.107   2.331   4.850 -1.2377  0.9085  0.8921
 7529SOL    MW429884   4.151   2.405   4.835 -0.0414  0.0978  0.2615
 7530SOL     OW29885   1.453   4.212   2.570 -0.0311 -0.8687 -0.3514
 7530SOL    HW229886   1.523   4.273   2.592 -0.8843 -0.2556  0.7605
 7530SOL    HW329887   1.399   4.259   2.506 -0.8592 -0.3029  0.7319
 7530SOL    MW429888   1.455   4.227   2.565 -0.2529 -0.7131 -0.0617
 7531SOL     OW29889   0.209   3.755   4.983 -0.3425  0.5493 -0.0412
 7531SOL    HW229890   0.148   3.827   5.002 -0.8527  0.0989  0.0707
 7531SOL    HW329891   0.267   3.790   4.916 -0.0781  1.3328  0.5723
 7531SOL    MW429892   0.208   3.769   4.977 -0.3750  0.5933  0.0545
 7532SOL     OW29893   2.509   1.692   5.614 -0.1503 -0.6416  0.5031
 7532SOL    HW229894   2.495   1.624   5.680 -0.7219 -0.4515  0.5897
 7532SOL    HW329895   2.445   1.760   5.637  0.3155 -0.1414  0.3314
 7532SOL    MW429896   2.499   1.692   5.626 -0.1642 -0.5505  0.4919
 7533SOL     OW29897   1.194   4.389   3.786  0.3056 -0.7764 -0.1449
 7533SOL    HW229898   1.178   4.324   3.854 -0.3411 -0.3763  0.0931
 7533SOL    HW329899   1.248   4.344   3.722  0.9956 -1.1338  0.6664
 7533SOL    MW429900   1.199   4.375   3.787  0.3113 -0.7708 -0.0065
 7534SOL     OW29901   4.474   3.192   5.688 -0.0047  0.1755  0.2415
 7534SOL    HW229902   4.480   3.098   5.704 -1.0664 -0.6750 -3.3905
 7534SOL    HW329903   4.564   3.223   5.693  0.3064 -0.8464  2.0646
 7534SOL    MW429904   4.486   3.184   5.691 -0.1037 -0.0716  0.0029
 7535SOL     OW29905   5.736   3.267   5.083 -0.2021 -0.1790 -0.3188
 7535SOL    HW229906   5.766   3.279   4.993  0.6920 -0.1099 -0.0215
 7535SOL    HW329907   5.781   3.334   5.133 -0.2665 -0.5651  0.2731
 7535SOL    MW429908   5.746   3.277   5.078 -0.0927 -0.2208 -0.2015
 7536SOL     OW29909   0.088   3.032   5.574  0.2167 -0.2715  0.5002
 7536SOL    HW229910   0.023   3.018   5.643 -0.0142 -0.9789  0.1459
 7536SOL    HW329911   0.112   3.124   5.583 -0.8891  0.0304  0.6080
 7536SOL    MW429912   0.082   3.043   5.584  0.0404 -0.3250  0.4677
 7537SOL     OW29913   5.030   4.337   3.423  0.7073  0.3079 -0.2509
 7537SOL    HW229914   5.043   4.356   3.330  2.4840  0.7883  0.0649
 7537SOL    HW329915   4.990   4.250   3.424  0.2299  0.4887 -1.4593
 7537SOL    MW429916   5.026   4.328   3.411  0.8787  0.3951 -0.3687
 7538SOL     OW29917   4.733   5.750   4.909  0.4222 -0.0114  0.4337
 7538SOL    HW229918   4.813   5.737   4.857 -1.5329 -1.5779 -2.4815
 7538SOL    HW329919   4.725   5.671   4.962  0.6833  0.0184  0.5167
 7538SOL    MW429920   4.742   5.738   4.909  0.1987 -0.2142  0.0601
 7539SOL     OW29921   4.839   2.418   1.829  0.5674 -0.0859  0.0534
 7539SOL    HW229922   4.801   2.406   1.742 -0.4799 -0.4129  0.5431
 7539SOL    HW329923   4.894   2.341   1.842 -0.2806 -0.6835  0.1821
 7539SOL    MW429924   4.841   2.407   1.819  0.3173 -0.2079  0.1350
 7540SOL     OW29925   0.919   3.899   1.131 -0.0071  0.5267  0.0738
 7540SOL    HW229926   0.959   3.844   1.198  0.4183  2.4011  1.4546
 7540SOL    HW329927   0.830   3.864   1.122 -0.0188  0.1039  1.5162
 7540SOL    MW429928   0.912   3.887   1.139  0.0474  0.7182  0.4463
 7541SOL     OW29929   4.376   0.385   4.029  0.6235 -0.0207  0.4684
 7541SOL    HW229930   4.287   0.407   4.054  0.3128 -1.9578  1.2296
 7541SOL    HW329931   4.431   0.447   4.077 -0.2911  1.2539 -0.0927
 7541SOL    MW429932   4.372   0.396   4.039  0.4618 -0.1081  0.4948
 7542SOL     OW29933   1.109   1.121   4.553  0.2906  0.1063 -0.5358
 7542SOL    HW229934   1.135   1.193   4.609  1.6997  0.4177 -1.5151
 7542SOL    HW329935   1.096   1.047   4.612  2.5325  0.2080  0.1786
 7542SOL    MW429936   1.111   1.121   4.568  0.7723  0.1608 -0.5708
 7543SOL     OW29937   1.666   4.521   5.746 -0.3094  0.2412  0.1431
 7543SOL    HW229938   1.633   4.546   5.832  0.8473 -0.7534  0.8984
 7543SOL    HW329939   1.755   4.556   5.743  0.8883 -2.5412  0.7216
 7543SOL    MW429940   1.673   4.529   5.757  0.0012 -0.2571  0.3191
 7544SOL     OW29941   4.795   4.250   4.375  0.4109  0.1144 -0.3296
 7544SOL    HW229942   4.707   4.266   4.409  0.4049 -2.4664  1.1286
 7544SOL    HW329943   4.847   4.325   4.406 -1.1038  1.4095 -0.7726
 7544SOL    MW429944   4.790   4.262   4.383  0.2102 -0.0553 -0.1957
 7545SOL     OW29945   4.545   3.554   0.153  0.3576  0.0857 -0.5631
 7545SOL    HW229946   4.517   3.605   0.229 -1.9837  0.3154 -1.4960
 7545SOL    HW329947   4.569   3.619   0.087 -2.8633  0.1376 -1.8381
 7545SOL    MW429948   4.545   3.569   0.154 -0.3763  0.1228 -0.8544
 7546SOL     OW29949   4.649   4.538   3.992 -0.0858 -0.1204 -0.0202
 7546SOL    HW229950   4.709   4.535   4.067  0.8777 -0.9612 -0.8046
 7546SOL    HW329951   4.592   4.462   4.004 -0.0131 -0.1832 -0.0746
 7546SOL    MW429952   4.650   4.528   4.004  0.0509 -0.2396 -0.1308
 7547SOL     OW29953   4.328   6.072   2.084 -0.8638  0.4445  0.7423
 7547SOL    HW229954   4.345   6.129   2.009  2.2735 -2.0531 -0.6760
 7547SOL    HW329955   4.385   6.105   2.153  1.5314 -1.2067 -0.3194
 7547SOL    MW429956   4.338   6.084   2.083 -0.1339 -0.1029  0.4151
 7548SOL     OW29957   5.071   1.863   4.495 -0.1847  0.4831  0.4424
 7548SOL    HW229958   5.109   1.950   4.488 -1.8426  1.2145  0.2666
 7548SOL    HW329959   5.055   1.836   4.405  2.4957 -1.0585  0.3181
 7548SOL    MW429960   5.074   1.871   4.482 -0.0498  0.3762  0.4028
 7549SOL     OW29961   0.927   2.021   4.055 -0.1731  0.1216  1.0882
 7549SOL    HW229962   0.997   2.072   4.014  0.6122 -1.8179 -0.1149
 7549SOL    HW329963   0.869   1.997   3.982  0.8242 -2.7187  1.1026
 7549SOL    MW429964   0.929   2.025   4.040  0.0621 -0.5090  0.9314
 7550SOL     OW29965   5.827   5.744   3.695 -0.4252 -0.0151 -0.1382
 7550SOL    HW229966   5.873   5.765   3.614  1.3027  1.1647  1.0603
 7550SOL    HW329967   5.762   5.814   3.706  0.0598  0.4233 -0.0045
 7550SOL    MW429968   5.825   5.756   3.686 -0.1332  0.1984  0.0376
 7551SOL     OW29969   4.883   2.544   3.092 -0.4606 -0.2093  0.2033
 7551SOL    HW229970   4.852   2.628   3.059 -0.5901 -0.1398  0.4977
 7551SOL    HW329971   4.816   2.481   3.064 -0.2926 -0.2370 -0.1378
 7551SOL    MW429972   4.870   2.547   3.084 -0.4555 -0.2038  0.1971
 7552SOL     OW29973   6.300   0.983   5.776  0.7545  0.2324  0.6432
 7552SOL    HW229974   6.287   1.071   5.811 -0.0468  0.1149  0.6725
 7552SOL    HW329975   6.213   0.942   5.782  0.2691  0.5618 -2.4638
 7552SOL    MW429976   6.287   0.989   5.781  0.5848  0.2604  0.2371
 7553SOL     OW29977   1.799   3.598   1.088  0.2394 -0.3033  0.1576
 7553SOL    HW229978   1.836   3.510   1.082  0.1191 -0.4802  1.5439
 7553SOL    HW329979   1.809   3.621   1.181  1.2275  1.5679 -0.3559
 7553SOL    MW429980   1.805   3.590   1.100  0.3539 -0.0798  0.2728
 7554SOL     OW29981   4.955   4.415   2.291  0.2120  0.1641 -0.4037
 7554SOL    HW229982   4.913   4.498   2.313  0.1601  0.5444 -1.8380
 7554SOL    HW329983   5.040   4.439   2.253  1.3258 -0.5568  1.4576
 7554SOL    MW429984   4.961   4.429   2.289  0.3521  0.1191 -0.3473
 7555SOL     OW29985   2.755   4.594   2.960 -0.1593 -0.0702  0.5761
 7555SOL    HW229986   2.797   4.534   3.023  1.4361 -0.2543 -0.6168
 7555SOL    HW329987   2.751   4.677   3.007 -0.4697 -0.5849  1.5007
 7555SOL    MW429988   2.760   4.597   2.975  0.0102 -0.1624  0.5407
 7556SOL     OW29989   4.808   1.498   2.201  0.8411  0.3821 -0.3391
 7556SOL    HW229990   4.838   1.574   2.251  0.9877 -0.5626  1.0825
 7556SOL    HW329991   4.744   1.533   2.139 -0.6753  1.4017  1.6929
 7556SOL    MW429992   4.804   1.513   2.200  0.6604  0.3920  0.1166
 7557SOL     OW29993   4.018   5.291   4.138  0.0225 -0.1477  1.0007
 7557SOL    HW229994   3.987   5.370   4.094 -0.9333 -0.7679  0.5211
 7557SOL    HW329995   3.968   5.287   4.219 -0.1075 -0.3811  0.9114
 7557SOL    MW429996   4.007   5.301   4.143 -0.1208 -0.2603  0.9256
 7558SOL     OW29997   3.210   3.523   3.486  0.0877 -0.0257 -0.1626
 7558SOL    HW229998   3.285   3.582   3.487 -0.3363  0.5358  1.1909
 7558SOL    HW329999   3.155   3.555   3.414  0.6815  0.1547 -0.5390
 7558SOL    MW430000   3.213   3.535   3.476  0.1101  0.0722 -0.0337
 7559SOL     OW30001   5.215   2.037   4.048 -0.2039  0.0291 -0.1151
 7559SOL    HW230002   5.156   2.035   3.972  0.5864  0.5260 -0.7538
 7559SOL    HW330003   5.178   2.105   4.105  0.3937  1.1978 -1.0682
 7559SOL    MW430004   5.202   2.046   4.045 -0.0208  0.2489 -0.3251
 7560SOL     OW30005   5.604   1.335  -0.004 -0.5325 -0.2028 -0.1127
 7560SOL    HW230006   5.576   1.356   0.085 -1.4788 -1.4962 -0.0725
 7560SOL    HW330007   5.636   1.245   0.001  0.1978 -0.0092 -0.9218
 7560SOL    MW430008   5.604   1.326   0.008 -0.5610 -0.3479 -0.2141
 7561SOL     OW30009   5.825   2.295   3.198 -0.3646 -0.3453 -0.0937
 7561SOL    HW230010   5.832   2.226   3.264 -0.1939 -0.6722 -0.4546
 7561SOL    HW330011   5.731   2.304   3.183 -0.7088  1.8592  2.4287
 7561SOL    MW430012   5.813   2.287   3.205 -0.3875 -0.0975  0.1915
 7562SOL     OW30013   2.054   2.095   3.300  0.4524 -0.3257 -0.5031
 7562SOL    HW230014   1.969   2.138   3.290  0.8329  0.1897 -1.6105
 7562SOL    HW330015   2.106   2.156   3.352  0.1232 -0.6992  0.2879
 7562SOL    MW430016   2.049   2.108   3.306  0.4592 -0.3070 -0.5448
 7563SOL     OW30017   5.588   5.550   1.084  0.0584  0.1592 -0.0600
 7563SOL    HW230018   5.561   5.509   1.001  0.3648 -1.5797  0.6685
 7563SOL    HW330019   5.628   5.632   1.057 -1.2146  0.3537 -1.5344
 7563SOL    MW430020   5.590   5.555   1.069 -0.0691 -0.0446 -0.1584
 7564SOL     OW30021   4.533   3.457   2.775 -0.2998  0.2294 -0.0824
 7564SOL    HW230022   4.491   3.463   2.861  1.3643  0.0392  0.7849
 7564SOL    HW330023   4.548   3.548   2.750  0.0374  0.2691  0.2590
 7564SOL    MW430024   4.530   3.470   2.783 -0.0357  0.2096  0.0771
 7565SOL     OW30025   6.119   1.866   6.289 -1.2870 -0.5378 -0.3954
 7565SOL    HW230026   6.119   1.935   6.355  0.3996 -2.0031  1.2577
 7565SOL    HW330027   6.037   1.818   6.304 -1.0284 -0.7155  0.5166
 7565SOL    MW430028   6.108   1.868   6.300 -1.0303 -0.7546 -0.0569
 7566SOL     OW30029   1.929   4.085   1.594  0.1511  0.0410  0.5994
 7566SOL    HW230030   1.847   4.037   1.602  1.7103 -2.6399  2.3767
 7566SOL    HW330031   1.968   4.053   1.512 -0.0639  0.4094  0.3547
 7566SOL    MW430032   1.923   4.074   1.584  0.3285 -0.2641  0.8016
 7567SOL     OW30033   5.305   6.272   0.955 -0.7022  0.0457  0.5730
 7567SOL    HW230034   5.213   6.294   0.964 -0.8786 -1.4888  4.0059
 7567SOL    HW330035   5.349   6.324   1.023  0.8710  0.0110 -0.3541
 7567SOL    MW430036   5.299   6.282   0.965 -0.5179 -0.1613  0.9036
 7568SOL     OW30037   6.285   6.401   3.518 -0.1863  0.2097 -0.0254
 7568SOL    HW230038   6.311   6.492   3.504 -0.4934  0.3848  0.5015
 7568SOL    HW330039   6.206   6.407   3.572  0.2369 -0.3901  0.6871
 7568SOL    MW430040   6.278   6.414   3.523 -0.1710  0.1537  0.1381
 7569SOL     OW30041   5.334   6.181   1.351  0.4637 -0.1650 -0.9001
 7569SOL    HW230042   5.285   6.224   1.420  3.3098  1.2050  0.4465
 7569SOL    HW330043   5.294   6.094   1.343 -0.9818  0.2263  1.3162
 7569SOL    MW430044   5.322   6.175   1.359  0.6485  0.0674 -0.4300
 7570SOL     OW30045   4.543   5.888   0.212 -0.1143 -0.0721 -0.2197
 7570SOL    HW230046   4.504   5.818   0.159 -0.1811 -2.2138  2.4269
 7570SOL    HW330047   4.608   5.844   0.265  0.5039  2.0971  0.9267
 7570SOL    MW430048   4.546   5.873   0.212 -0.0416 -0.0684  0.2807
 7571SOL     OW30049   1.168   2.368   5.837 -0.2197 -0.2153  0.1361
 7571SOL    HW230050   1.174   2.389   5.744  2.0468 -0.7985  0.0987
 7571SOL    HW330051   1.074   2.364   5.855 -0.7133 -1.0000 -2.3185
 7571SOL    MW430052   1.156   2.370   5.827  0.0142 -0.3958 -0.1927
 7572SOL     OW30053   1.814   3.699   3.237  0.3474  0.2620  0.5870
 7572SOL    HW230054   1.841   3.783   3.275 -0.1975  0.2234  1.0850
 7572SOL    HW330055   1.746   3.722   3.174  1.4327  0.3496 -0.5917
 7572SOL    MW430056   1.809   3.713   3.234  0.4187  0.2684  0.4972
 7573SOL     OW30057   3.219   2.670   6.216 -0.1351 -0.4312  0.5912
 7573SOL    HW230058   3.201   2.687   6.123  0.2463  0.4180  0.6596
 7573SOL    HW330059   3.202   2.754   6.259 -0.2417 -0.8013  1.2830
 7573SOL    MW430060   3.215   2.684   6.209 -0.0988 -0.3680  0.6915
 7574SOL     OW30061   1.677   1.760   2.819 -0.0486 -0.0669  0.3868
 7574SOL    HW230062   1.724   1.715   2.889  1.0000  0.6517  0.1666
 7574SOL    HW330063   1.629   1.830   2.864  1.7266  1.2792  0.2683
 7574SOL    MW430064   1.677   1.763   2.834  0.3240  0.2055  0.3421
 7575SOL     OW30065   1.751   0.337   5.995 -0.7828 -0.0383  0.1942
 7575SOL    HW230066   1.844   0.322   6.006 -0.7104  0.3515  0.1365
 7575SOL    HW330067   1.739   0.349   5.901 -1.0036 -0.7895  0.1198
 7575SOL    MW430068   1.761   0.337   5.984 -0.8024 -0.0860  0.1768
 7576SOL     OW30069   3.029   2.707   5.044  0.6994  0.2000 -0.0258
 7576SOL    HW230070   3.006   2.615   5.030 -0.3710  0.6116 -1.1237
 7576SOL    HW330071   3.037   2.744   4.956 -0.0631  1.4367  0.4010
 7576SOL    MW430072   3.027   2.700   5.031  0.4575  0.4174 -0.1143
 7577SOL     OW30073   1.651   4.542   4.971  0.3392  0.2648 -0.3772
 7577SOL    HW230074   1.700   4.529   4.890  1.8820  1.0766  0.3770
 7577SOL    HW330075   1.663   4.461   5.020  0.0229  0.0517 -0.6537
 7577SOL    MW430076   1.659   4.530   4.967  0.5010  0.3438 -0.3141
 7578SOL     OW30077   2.302   3.619   4.541  0.1832  0.5175  0.2075
 7578SOL    HW230078   2.232   3.685   4.538  0.4902  0.7906 -1.4408
 7578SOL    HW330079   2.312   3.600   4.635 -0.6841  1.9763  0.6292
 7578SOL    MW430080   2.294   3.625   4.553  0.1092  0.7460  0.0457
 7579SOL     OW30081   5.593   2.640   4.392  0.0774  0.3947 -0.2687
 7579SOL    HW230082   5.617   2.589   4.314  1.3071  2.7714 -1.5374
 7579SOL    HW330083   5.499   2.628   4.400  0.3744 -2.7117  0.0480
 7579SOL    MW430084   5.584   2.631   4.383  0.2788  0.2984 -0.3943
 7580SOL     OW30085   1.676   4.290   1.715  1.2001  0.0466 -0.3927
 7580SOL    HW230086   1.679   4.225   1.644 -1.0964  0.6227 -1.1042
 7580SOL    HW330087   1.585   4.286   1.746  0.8993  3.0444 -0.6411
 7580SOL    MW430088   1.664   4.281   1.710  0.8574  0.5181 -0.5193
 7581SOL     OW30089   0.138   2.053   4.050  0.3173 -0.5247 -0.6840
 7581SOL    HW230090   0.148   1.966   4.013  0.4041 -1.7556  2.0171
 7581SOL    HW330091   0.215   2.065   4.105  0.8543  1.7443 -1.8128
 7581SOL    MW430092   0.149   2.043   4.053  0.3996 -0.3878 -0.4765
 7582SOL     OW30093   5.490   1.304   5.810 -0.0474  0.0297 -0.4754
 7582SOL    HW230094   5.448   1.369   5.868  1.8518 -0.4885  1.6256
 7582SOL    HW330095   5.578   1.294   5.846  0.5309 -1.8975 -2.2716
 7582SOL    MW430096   5.496   1.312   5.823  0.2795 -0.2929 -0.4352
 7583SOL     OW30097   5.753   3.871   2.338  0.4167 -0.1464 -0.5407
 7583SOL    HW230098   5.838   3.849   2.377 -0.2580 -0.8071  0.6124
 7583SOL    HW330099   5.707   3.919   2.407 -0.4510 -0.5183 -0.8559
 7583SOL    MW430100   5.758   3.874   2.352  0.2132 -0.2826 -0.4301
 7584SOL     OW30101   3.010   3.054   6.091  0.0715 -0.0321 -0.2626
 7584SOL    HW230102   3.081   3.119   6.093 -0.4156  0.4898  1.4511
 7584SOL    HW330103   3.037   2.992   6.023  2.2788  0.0375  0.4714
 7584SOL    MW430104   3.023   3.054   6.082  0.2985  0.0460  0.0604
 7585SOL     OW30105   5.545   6.356   1.773  0.3415  0.1259 -0.2934
 7585SOL    HW230106   5.451   6.376   1.764  0.4060  0.7092  0.2824
 7585SOL    HW330107   5.586   6.407   1.703  0.2768  0.2223 -0.2612
 7585SOL    MW430108   5.538   6.365   1.762  0.3415  0.2156 -0.2132
 7586SOL     OW30109   3.937   3.312   2.453 -0.7111  0.1767 -0.1222
 7586SOL    HW230110   3.918   3.398   2.490  0.1865 -0.1647  1.1733
 7586SOL    HW330111   3.913   3.320   2.360 -0.3023  1.9241 -0.0988
 7586SOL    MW430112   3.931   3.324   2.446 -0.5387  0.3622  0.0518
 7587SOL     OW30113   0.089   4.688   2.972 -0.2381 -0.3341 -0.4633
 7587SOL    HW230114   0.172   4.727   3.002 -0.5006  0.2174 -0.4336
 7587SOL    HW330115   0.094   4.691   2.877 -0.3615  0.0187 -0.4627
 7587SOL    MW430116   0.101   4.694   2.964 -0.2890 -0.2148 -0.4593
 7588SOL     OW30117   2.969   5.677   3.956 -0.1435  0.1007 -0.5984
 7588SOL    HW230118   2.935   5.685   4.045 -1.3358  2.3739 -1.1675
 7588SOL    HW330119   2.974   5.583   3.940 -0.6583 -0.3530  1.5669
 7588SOL    MW430120   2.965   5.666   3.966 -0.3687  0.3408 -0.3878
 7589SOL     OW30121   2.499   1.272   2.704 -0.4702  0.0001  0.3140
 7589SOL    HW230122   2.415   1.278   2.659 -0.5401 -1.2782  0.2562
 7589SOL    HW330123   2.518   1.363   2.730 -2.7735  0.1010  1.9744
 7589SOL    MW430124   2.490   1.285   2.702 -0.7833 -0.1553  0.5255
 7590SOL     OW30125   0.436   1.742   5.414 -0.1503 -0.1779  0.3702
 7590SOL    HW230126   0.496   1.815   5.397 -0.1794 -0.1845  0.2395
 7590SOL    HW330127   0.488   1.664   5.397 -0.3222 -0.1782 -0.1682
 7590SOL    MW430128   0.451   1.741   5.409 -0.1768 -0.1788  0.2820
 7591SOL     OW30129   0.248   1.903   1.233 -0.4228 -0.0608 -0.2793
 7591SOL    HW230130   0.282   1.877   1.318  0.6524 -1.2847 -1.0356
 7591SOL    HW330131   0.153   1.895   1.241 -0.3512  0.2023  0.9051
 7591SOL    MW430132   0.240   1.899   1.245 -0.2715 -0.1876 -0.2228
 7592SOL     OW30133   0.657   2.643  -0.013  0.2077  0.8176  0.4353
 7592SOL    HW230134   0.570   2.611   0.014 -0.4443  0.4505 -1.9130
 7592SOL    HW330135   0.700   2.667   0.070 -0.9305 -1.9267  1.9518
 7592SOL    MW430136   0.651   2.642   0.002 -0.0285  0.4071  0.3256
 7593SOL     OW30137   3.372   2.127   4.571 -0.4189 -0.3255  0.1086
 7593SOL    HW230138   3.368   2.068   4.496  2.1515 -0.7276  0.2069
 7593SOL    HW330139   3.462   2.158   4.573 -1.0780  1.7353  1.5159
 7593SOL    MW430140   3.383   2.123   4.562 -0.1667 -0.1067  0.3072
 7594SOL     OW30141   4.431   0.653   1.071  0.3649 -0.0341  0.4281
 7594SOL    HW230142   4.437   0.564   1.039  1.5868  0.3251 -0.3997
 7594SOL    HW330143   4.411   0.706   0.994 -1.7270  0.2955  1.1227
 7594SOL    MW430144   4.429   0.649   1.057  0.2501  0.0568  0.4105
 7595SOL     OW30145   1.557   0.484   0.318 -0.4595 -0.2304 -0.8095
 7595SOL    HW230146   1.555   0.540   0.241 -0.5212  0.9039 -0.0102
 7595SOL    HW330147   1.519   0.401   0.289 -1.4124  0.5066 -1.7486
 7595SOL    MW430148   1.552   0.480   0.304 -0.5934  0.0165 -0.8279
 7596SOL     OW30149   3.338   5.193   3.110  0.0441 -0.3962  0.1167
 7596SOL    HW230150   3.347   5.098   3.102 -0.0257 -0.4857  1.0267
 7596SOL    HW330151   3.361   5.227   3.023  0.2159 -1.2320 -0.1691
 7596SOL    MW430152   3.343   5.185   3.098  0.0576 -0.5183  0.1991
 7597SOL     OW30153   0.053   0.052   1.599  0.2568 -0.2413 -0.0786
 7597SOL    HW230154   0.136   0.007   1.611  0.7348  0.8082  0.7294
 7597SOL    HW330155   0.053   0.078   1.507  0.6838 -0.5086 -0.1569
 7597SOL    MW430156   0.064   0.050   1.588  0.3762 -0.1381  0.0177
 7598SOL     OW30157   5.635   5.235   0.196 -0.1102 -0.2661  0.2971
 7598SOL    HW230158   5.576   5.217   0.123  0.5854 -0.3142 -0.2715
 7598SOL    HW330159   5.579   5.236   0.273 -0.5009 -3.1025  0.1594
 7598SOL    MW430160   5.620   5.233   0.196 -0.0699 -0.6467  0.2039
 7599SOL     OW30161   5.815   1.325   1.023  0.0342 -0.3693  0.2653
 7599SOL    HW230162   5.906   1.340   0.998 -0.0387  0.6835  0.5812
 7599SOL    HW330163   5.793   1.399   1.080 -1.0954 -0.4758 -0.0014
 7599SOL    MW430164   5.824   1.337   1.027 -0.1244 -0.2444  0.2718
 7600SOL     OW30165   2.831   0.244   1.810 -0.6480 -0.0177  0.5634
 7600SOL    HW230166   2.753   0.292   1.782 -0.9478 -1.2151 -0.7495
 7600SOL    HW330167   2.892   0.312   1.840 -0.7852  1.2730 -1.8683
 7600SOL    MW430168   2.829   0.259   1.811 -0.7057 -0.0054  0.0694
 7601SOL     OW30169   3.202   1.401   6.233 -0.1801  0.7176 -0.2378
 7601SOL    HW230170   3.278   1.458   6.231 -0.1311  0.6367 -0.9016
 7601SOL    HW330171   3.163   1.416   6.320  1.2350 -0.1151  0.5757
 7601SOL    MW430172   3.207   1.411   6.244  0.0131  0.5971 -0.2181
 7602SOL     OW30173   0.870   2.242   5.389  0.1945  0.1534  0.0648
 7602SOL    HW230174   0.821   2.323   5.387  1.0338  0.7218  1.2509
 7602SOL    HW330175   0.807   2.177   5.421 -0.3557  0.4201 -0.4588
 7602SOL    MW430176   0.855   2.244   5.393  0.2326  0.2636  0.1522
 7603SOL     OW30177   0.521   2.600   5.080  0.2829  0.3720  0.3534
 7603SOL    HW230178   0.454   2.564   5.138 -0.1352 -0.3803 -0.5602
 7603SOL    HW330179   0.601   2.603   5.133  0.1616 -1.2536  0.6739
 7603SOL    MW430180   0.523   2.596   5.095  0.2117  0.0582  0.2752
 7604SOL     OW30181   0.508   0.755   1.842 -0.5649  0.0142 -0.6064
 7604SOL    HW230182   0.600   0.781   1.846 -0.6285  0.2229 -0.4909
 7604SOL    HW330183   0.505   0.689   1.773 -0.1949 -0.5396 -0.1067
 7604SOL    MW430184   0.520   0.750   1.833 -0.5245 -0.0313 -0.5252
 7605SOL     OW30185   2.484   6.222   2.248  0.0364  0.0775  0.2278
 7605SOL    HW230186   2.429   6.200   2.322 -0.6931 -2.1100 -0.8793
 7605SOL    HW330187   2.431   6.280   2.194 -0.4784 -0.5004  0.1047
 7605SOL    MW430188   2.470   6.227   2.250 -0.1278 -0.2874  0.0655
 7606SOL     OW30189   2.909   1.947   5.695 -0.3969 -0.0655  0.2075
 7606SOL    HW230190   2.943   1.881   5.756 -0.8090  1.0133  1.6801
 7606SOL    HW330191   2.987   1.986   5.656 -0.0786 -0.1784  0.7109
 7606SOL    MW430192   2.924   1.943   5.698 -0.4093  0.0620  0.4682
 7607SOL     OW30193   0.486   4.324   4.673  0.1222  0.8248  0.1294
 7607SOL    HW230194   0.558   4.385   4.659 -0.9163  1.8071 -1.2607
 7607SOL    HW330195   0.451   4.347   4.759  1.9707 -0.2575  1.2235
 7607SOL    MW430196   0.491   4.335   4.683  0.2291  0.8116  0.0903
 7608SOL     OW30197   1.714   6.099   4.908  0.7651  0.4326  1.0880
 7608SOL    HW230198   1.631   6.115   4.952  0.6724  0.4698  0.9027
 7608SOL    HW330199   1.709   6.009   4.876  0.9351  0.3211  1.3746
 7608SOL    MW430200   1.703   6.090   4.909  0.7753  0.4228  1.1014
 7609SOL     OW30201   5.422   5.841   5.538 -0.1103 -0.2513  0.1913
 7609SOL    HW230202   5.493   5.777   5.543 -0.3831 -0.6176 -0.5661
 7609SOL    HW330203   5.445   5.907   5.604  0.6747 -0.6199  0.2992
 7609SOL    MW430204   5.434   5.842   5.548 -0.0427 -0.3483  0.1056
 7610SOL     OW30205   0.086   4.695   4.244 -0.0752  0.0091  0.0462
 7610SOL    HW230206   0.171   4.730   4.217  1.0106 -1.9073  0.7916
 7610SOL    HW330207   0.058   4.640   4.172 -0.1808 -0.1860  0.2343
 7610SOL    MW430208   0.093   4.692   4.231  0.0542 -0.2695  0.1693
 7611SOL     OW30209   2.160   4.483   3.090  0.0395  0.3308 -0.3419
 7611SOL    HW230210   2.220   4.411   3.071 -0.8934 -0.1431 -1.6929
 7611SOL    HW330211   2.211   4.562   3.077  1.0962 -0.0436  1.1984
 7611SOL    MW430212   2.174   4.484   3.086  0.0559  0.2189 -0.3170
 7612SOL     OW30213   1.023   5.200   4.092 -0.1641  0.3084 -0.0834
 7612SOL    HW230214   0.968   5.212   4.014  0.5518  2.8861 -0.2784
 7612SOL    HW330215   0.992   5.267   4.153 -0.2540 -1.2358  1.6338
 7612SOL    MW430216   1.011   5.211   4.089 -0.0815  0.4447  0.1174
 7613SOL     OW30217   6.124   1.394   0.160  0.5551  0.1467 -0.0821
 7613SOL    HW230218   6.071   1.315   0.151  0.7635  0.0768 -0.8063
 7613SOL    HW330219   6.116   1.419   0.252  1.3072 -1.2985  0.4065
 7613SOL    MW430220   6.116   1.387   0.171  0.6818 -0.0532 -0.1131
 7614SOL     OW30221   4.788   2.072   3.366 -0.1847  0.2844  0.4503
 7614SOL    HW230222   4.705   2.038   3.334 -0.8891  2.3056  0.0123
 7614SOL    HW330223   4.848   2.062   3.292 -0.9564  1.9047 -0.4466
 7614SOL    MW430224   4.785   2.066   3.352 -0.3795  0.7648  0.2741
 7615SOL     OW30225   4.521   6.060   4.676 -0.0244 -0.0124 -0.5732
 7615SOL    HW230226   4.470   6.074   4.756  0.2266 -2.0388  0.0216
 7615SOL    HW330227   4.459   6.025   4.613  0.0961  0.0585 -0.7312
 7615SOL    MW430228   4.506   6.057   4.678  0.0246 -0.2704 -0.5156
 7616SOL     OW30229   4.105   4.317   6.032 -0.4765 -0.3271  0.2559
 7616SOL    HW230230   4.100   4.401   5.986  0.9895 -0.7199 -0.6728
 7616SOL    HW330231   4.074   4.336   6.120 -0.5038  1.1109 -0.0394
 7616SOL    MW430232   4.100   4.330   6.037 -0.2867 -0.1892  0.0944
 7617SOL     OW30233   5.813   6.302   0.107 -0.0761 -0.4087  0.2678
 7617SOL    HW230234   5.788   6.212   0.126 -0.6702 -0.8741 -2.3787
 7617SOL    HW330235   5.746   6.334   0.047  2.3807  0.2963 -2.3426
 7617SOL    MW430236   5.801   6.294   0.102  0.1697 -0.3771 -0.4258
 7618SOL     OW30237   6.378   0.717   5.128  0.5978 -0.0143 -0.1300
 7618SOL    HW230238   6.365   0.753   5.041  1.4282  0.2324 -0.1580
 7618SOL    HW330239   6.291   0.689   5.156  0.3465 -0.2008 -1.0825
 7618SOL    MW430240   6.365   0.718   5.120  0.6742 -0.0064 -0.2593
 7619SOL     OW30241   2.628   2.314   1.035  0.3493 -0.5858 -0.2441
 7619SOL    HW230242   2.551   2.286   0.986 -0.0001  0.2846 -0.2029
 7619SOL    HW330243   2.702   2.282   0.984 -0.0227 -0.4817 -0.8563
 7619SOL    MW430244   2.627   2.306   1.022  0.2542 -0.4572 -0.3195
 7620SOL     OW30245   4.566   2.113   1.038 -0.4655  0.2198  0.4217
 7620SOL    HW230246   4.514   2.044   0.997  0.4876 -0.2771  0.0010
 7620SOL    HW330247   4.555   2.189   0.981  0.5261 -0.3500 -0.5816
 7620SOL    MW430248   4.558   2.114   1.025 -0.2089  0.0791  0.2338
 7621SOL     OW30249   4.174   2.678   3.923  0.8712 -0.7586  0.0795
 7621SOL    HW230250   4.198   2.705   3.835 -0.4500  0.5070  0.0848
 7621SOL    HW330251   4.140   2.589   3.913 -0.9096  0.0056 -0.9863
 7621SOL    MW430252   4.173   2.670   3.910  0.4620 -0.4908 -0.0604
 7622SOL     OW30253   4.331   6.016   3.759  0.1441  0.0356  0.2026
 7622SOL    HW230254   4.317   6.032   3.665  3.1439 -0.5123 -0.4436
 7622SOL    HW330255   4.422   5.989   3.765 -1.0995 -4.8394  2.6422
 7622SOL    MW430256   4.341   6.014   3.747  0.3758 -0.6799  0.4392
 7623SOL     OW30257   4.405   5.400   1.786  0.1005 -0.2144  0.2265
 7623SOL    HW230258   4.439   5.445   1.709  0.4446  1.9470  1.5720
 7623SOL    HW330259   4.316   5.376   1.762 -0.3784  1.9044 -0.3214
 7623SOL    MW430260   4.398   5.403   1.772  0.0827  0.3503  0.3318
 7624SOL     OW30261   3.476   0.561   1.883  0.1468 -0.5457  0.0538
 7624SOL    HW230262   3.518   0.628   1.830 -0.4493  0.2808  0.5911
 7624SOL    HW330263   3.382   0.572   1.866 -0.0619 -0.2365  1.2678
 7624SOL    MW430264   3.469   0.571   1.874  0.0406 -0.3958  0.2848
 7625SOL     OW30265   4.483   6.092   5.880 -0.1228 -0.4829 -0.3546
 7625SOL    HW230266   4.564   6.129   5.847 -0.2355  0.5570  0.4823
 7625SOL    HW330267   4.507   6.050   5.962 -0.5975  0.7444  0.4327
 7625SOL    MW430268   4.497   6.091   5.886 -0.2003 -0.1838 -0.1403
 7626SOL     OW30269   2.978   5.064   6.161 -0.1196  0.2427 -0.2841
 7626SOL    HW230270   3.044   5.009   6.205 -0.1353 -0.3293 -0.9564
 7626SOL    HW330271   2.897   5.048   6.210  0.0973  0.4545  0.1492
 7626SOL    MW430272   2.976   5.055   6.174 -0.0931  0.1952 -0.3157
 7627SOL     OW30273   0.378   1.363   0.998 -0.1261 -0.3542 -0.2091
 7627SOL    HW230274   0.328   1.379   1.078  1.8064 -1.2792  1.2488
 7627SOL    HW330275   0.401   1.451   0.966  1.0480  0.0520  1.5852
 7627SOL    MW430276   0.374   1.377   1.004  0.2838 -0.4226  0.2200
 7628SOL     OW30277   4.707   6.167   3.972  0.3856  0.5097  0.3492
 7628SOL    HW230278   4.673   6.209   4.052  0.5472 -0.7299  1.1001
 7628SOL    HW330279   4.785   6.119   4.001  1.0757  0.9146 -0.7812
 7628SOL    MW430280   4.713   6.166   3.987  0.4979  0.3996  0.2992
 7629SOL     OW30281   1.873   0.745   5.033 -0.6088  0.7102 -0.8111
 7629SOL    HW230282   1.958   0.749   5.077 -0.8483  1.3826 -0.4119
 7629SOL    HW330283   1.832   0.665   5.067 -0.3997  0.7254 -0.5225
 7629SOL    MW430284   1.879   0.735   5.043 -0.6128  0.8009 -0.7204
 7630SOL     OW30285   0.045   0.067   4.251  0.1326  0.0528  0.0191
 7630SOL    HW230286   0.073   0.059   4.160 -1.1188 -1.1581 -0.2804
 7630SOL    HW330287  -0.049   0.081   4.246  0.0944  0.2478  1.1247
 7630SOL    MW430288   0.037   0.068   4.238 -0.0376 -0.0812  0.1254
 7631SOL     OW30289   4.093   0.441   4.340  0.1430  0.6808  0.0748
 7631SOL    HW230290   4.097   0.403   4.252 -1.7295  1.2779 -0.3200
 7631SOL    HW330291   4.013   0.405   4.378 -0.7082  2.7134  0.3701
 7631SOL    MW430292   4.083   0.431   4.333 -0.2163  1.0278  0.0617
 7632SOL     OW30293   4.679   4.234   1.354 -0.4115  0.0485 -0.2398
 7632SOL    HW230294   4.686   4.140   1.366  1.4923 -0.7302 -5.1674
 7632SOL    HW330295   4.596   4.247   1.308 -0.8959  0.9552  0.8126
 7632SOL    MW430296   4.669   4.224   1.350 -0.2242  0.0654 -0.7510
 7633SOL     OW30297   5.473   0.189   2.333 -0.0641 -0.3282  0.6165
 7633SOL    HW230298   5.469   0.161   2.241  1.1872  1.9364 -0.2034
 7633SOL    HW330299   5.549   0.143   2.369  0.7790  0.4271 -0.1482
 7633SOL    MW430300   5.482   0.179   2.326  0.2122  0.0702  0.4074
 7634SOL     OW30301   1.816   2.700   6.417  0.7129  0.1567 -0.4356
 7634SOL    HW230302   1.905   2.663   6.416  0.6310 -0.0565  0.0778
 7634SOL    HW330303   1.771   2.655   6.345  0.9925  0.2009 -0.6423
 7634SOL    MW430304   1.822   2.689   6.407  0.7390  0.1344 -0.3951
 7635SOL     OW30305   2.931   4.546   4.252  0.5573 -0.3127 -0.5513
 7635SOL    HW230306   2.973   4.591   4.178  1.7834  0.9028  0.8152
 7635SOL    HW330307   2.863   4.492   4.212  1.3801  0.0722 -2.5846
 7635SOL    MW430308   2.927   4.545   4.237  0.8277 -0.1015 -0.6393
 7636SOL     OW30309   5.385   0.039   2.818 -0.5086  0.4237 -0.4020
 7636SOL    HW230310   5.293   0.041   2.793 -0.1060  1.7728 -1.9430
 7636SOL    HW330311   5.423  -0.032   2.766 -0.2421  1.3772 -1.5441
 7636SOL    MW430312   5.378   0.030   2.808 -0.4203  0.7275 -0.7560
 7637SOL     OW30313   0.043   4.219   2.951  0.3195  0.2024 -0.2368
 7637SOL    HW230314  -0.051   4.207   2.940  0.0284  1.6781  0.4158
 7637SOL    HW330315   0.064   4.297   2.900  0.8121  1.0217  1.1389
 7637SOL    MW430316   0.034   4.228   2.943  0.3461  0.5052  0.0308
 7638SOL     OW30317   0.119   4.789   2.700 -0.0611 -0.0195 -0.0290
 7638SOL    HW230318   0.158   4.861   2.750 -0.1469 -1.1743  1.8010
 7638SOL    HW330319   0.172   4.784   2.620  0.1954  1.7868 -0.0166
 7638SOL    MW430320   0.131   4.798   2.696 -0.0386  0.0664  0.2141
 7639SOL     OW30321   3.065   0.488   2.143  0.0882  0.1984  0.1673
 7639SOL    HW230322   3.152   0.460   2.113  0.9441  2.0691  0.7547
 7639SOL    HW330323   3.041   0.423   2.210  0.9756 -0.4079 -0.0892
 7639SOL    MW430324   3.073   0.475   2.148  0.3182  0.3652  0.2110
 7640SOL     OW30325   1.675   6.392   4.416 -0.3064 -0.2450  0.0508
 7640SOL    HW230326   1.647   6.483   4.424 -0.0431 -0.2549  1.2527
 7640SOL    HW330327   1.659   6.354   4.502 -1.4283 -1.6438 -0.7222
 7640SOL    MW430328   1.669   6.399   4.428 -0.4197 -0.4309  0.1074
 7641SOL     OW30329   5.332   3.281   3.167 -0.0445 -0.6487  0.5638
 7641SOL    HW230330   5.248   3.317   3.196 -0.7545 -1.3678 -0.5078
 7641SOL    HW330331   5.357   3.337   3.094  1.5158  0.8879  2.1793
 7641SOL    MW430332   5.324   3.293   3.161  0.0677 -0.5409  0.6356
 7642SOL     OW30333   2.376   3.492   6.233 -0.1610  0.1832  0.5498
 7642SOL    HW230334   2.369   3.428   6.162 -1.7264  0.4052  0.4677
 7642SOL    HW330335   2.448   3.549   6.208 -2.1082  1.6818 -2.0926
 7642SOL    MW430336   2.385   3.491   6.221 -0.6244  0.4102  0.1903
 7643SOL     OW30337   0.011   3.958   5.447 -0.0147 -0.5993 -0.4674
 7643SOL    HW230338  -0.044   3.977   5.523  0.9930  0.0762  0.1125
 7643SOL    HW330339   0.077   3.897   5.480  0.8621  0.2526 -0.5948
 7643SOL    MW430340   0.012   3.952   5.462  0.2339 -0.3978 -0.4077
 7644SOL     OW30341   4.641   2.126   5.307  0.3939 -0.2392 -0.1437
 7644SOL    HW230342   4.717   2.091   5.260 -0.4114 -0.6128 -1.2005
 7644SOL    HW330343   4.601   2.050   5.349 -0.9634 -0.5180 -1.8754
 7644SOL    MW430344   4.646   2.111   5.307  0.1086 -0.3253 -0.5116
 7645SOL     OW30345   5.248   5.293   4.310  0.1706 -0.1477 -0.3938
 7645SOL    HW230346   5.188   5.221   4.291 -0.7965  0.8108 -1.0515
 7645SOL    HW330347   5.294   5.309   4.228  0.6421 -0.2322 -0.1516
 7645SOL    MW430348   5.246   5.286   4.297  0.1052 -0.0324 -0.4486
 7646SOL     OW30349   6.249   6.223   4.401  0.0367  0.7564  0.2907
 7646SOL    HW230350   6.258   6.273   4.320 -2.3895  1.4115  0.3414
 7646SOL    HW330351   6.285   6.136   4.380 -0.5746  0.8952 -1.5083
 7646SOL    MW430352   6.255   6.218   4.388 -0.3641  0.8611  0.0601
 7647SOL     OW30353   5.237   2.147   2.876  0.7647 -0.5546 -0.1892
 7647SOL    HW230354   5.167   2.149   2.811  0.8987  0.1748 -0.3163
 7647SOL    HW330355   5.286   2.228   2.862  2.1109 -1.4109 -0.6220
 7647SOL    MW430356   5.235   2.158   2.866  0.9600 -0.5713 -0.2631
 7648SOL     OW30357   5.976   3.389   2.320 -0.0844  0.2317 -0.0368
 7648SOL    HW230358   5.889   3.413   2.353 -0.0692  0.7650 -0.3707
 7648SOL    HW330359   6.037   3.439   2.374 -0.0392  0.7499 -0.5599
 7648SOL    MW430360   5.973   3.399   2.332 -0.0764  0.3704 -0.1498
 7649SOL     OW30361   1.002   2.385   0.019 -0.0550  0.8368  0.5136
 7649SOL    HW230362   0.961   2.443  -0.045 -0.2650  0.9326  0.7321
 7649SOL    HW330363   1.067   2.440   0.063  0.8657  0.4836 -0.3578
 7649SOL    MW430364   1.005   2.400   0.016  0.0388  0.8029  0.4275
 7650SOL     OW30365   0.140   0.368   2.725 -0.6331  0.1775  0.1301
 7650SOL    HW230366   0.052   0.405   2.723 -0.8680 -0.2744  1.1985
 7650SOL    HW330367   0.131   0.287   2.775  0.6863  1.0532  1.9344
 7650SOL    MW430368   0.128   0.362   2.731 -0.4900  0.2334  0.5091
 7651SOL     OW30369   3.803   3.584   4.322 -0.2180  0.0912  0.2495
 7651SOL    HW230370   3.763   3.671   4.330 -2.7843 -0.9925  0.3109
 7651SOL    HW330371   3.798   3.547   4.410  0.4430 -0.2975  0.1277
 7651SOL    MW430372   3.797   3.590   4.335 -0.4694 -0.1031  0.2415
 7652SOL     OW30373   6.166   5.816   3.119  0.2244  0.0519  0.3221
 7652SOL    HW230374   6.174   5.723   3.141  0.6573  0.3308  1.4127
 7652SOL    HW330375   6.188   5.862   3.201 -0.6686  1.1018 -0.0122
 7652SOL    MW430376   6.170   5.810   3.133  0.1637  0.2272  0.4218
 7653SOL     OW30377   3.180   3.929   5.104  0.1352  0.2601 -0.1102
 7653SOL    HW230378   3.231   4.002   5.137  0.5542 -0.8909  1.9590
 7653SOL    HW330379   3.234   3.852   5.122 -1.0868 -0.7332 -0.5352
 7653SOL    MW430380   3.194   3.928   5.110  0.0292 -0.0228  0.1067
 7654SOL     OW30381   5.402   5.523   4.663  0.3682  0.9351 -0.2941
 7654SOL    HW230382   5.320   5.481   4.635  0.1686  1.5733 -0.7047
 7654SOL    HW330383   5.422   5.483   4.747  2.4485 -3.1504 -2.4162
 7654SOL    MW430384   5.394   5.512   4.670  0.6164  0.4803 -0.6282
 7655SOL     OW30385   6.008   3.499   5.912  0.3353 -0.4865  0.2848
 7655SOL    HW230386   6.016   3.588   5.878  0.8998 -0.6882 -0.1127
 7655SOL    HW330387   6.089   3.455   5.886 -0.5678 -1.5621 -0.8427
 7655SOL    MW430388   6.020   3.505   5.905  0.2906 -0.6550  0.0836
 7656SOL     OW30389   5.633   4.673   6.313 -0.3074 -0.0082 -0.0078
 7656SOL    HW230390   5.556   4.627   6.280  0.8849 -1.6026 -0.6999
 7656SOL    HW330391   5.701   4.606   6.318  1.1385  1.4109  0.2915
 7656SOL    MW430392   5.632   4.658   6.309  0.0407 -0.0313 -0.0596
 7657SOL     OW30393   3.486   3.013   5.003 -0.3993  0.3997 -0.3445
 7657SOL    HW230394   3.459   2.938   4.949 -0.1591 -0.2491  0.4244
 7657SOL    HW330395   3.569   3.041   4.965 -1.0159  0.9856 -1.3181
 7657SOL    MW430396   3.493   3.006   4.991 -0.4490  0.3914 -0.3715
 7658SOL     OW30397   3.901   1.232   3.693 -0.3040  0.1852  1.0561
 7658SOL    HW230398   3.874   1.301   3.633 -1.2349  0.2228  1.4970
 7658SOL    HW330399   3.857   1.253   3.775  0.3746 -0.2648  1.5447
 7658SOL    MW430400   3.891   1.244   3.696 -0.3373  0.1308  1.1787
 7659SOL     OW30401   3.113   0.665   3.655  0.4523  0.1517  0.1305
 7659SOL    HW230402   3.044   0.612   3.616  0.2127  0.2350  0.4362
 7659SOL    HW330403   3.164   0.604   3.707  0.8460  0.0177 -0.4036
 7659SOL    MW430404   3.111   0.650   3.657  0.4726  0.1450  0.1004
 7660SOL     OW30405   5.805   1.067   1.323 -0.0603 -0.0544 -0.5093
 7660SOL    HW230406   5.739   1.104   1.264  0.5266  0.1396 -1.0600
 7660SOL    HW330407   5.839   0.990   1.277  1.0943  0.6516 -0.8861
 7660SOL    MW430408   5.801   1.062   1.309  0.1694  0.0643 -0.6317
 7661SOL     OW30409   0.294   0.634   6.264 -0.2230 -0.1047 -0.1196
 7661SOL    HW230410   0.340   0.677   6.192 -0.0184 -1.2005 -0.6749
 7661SOL    HW330411   0.202   0.660   6.252 -0.1430 -0.0239 -0.5931
 7661SOL    MW430412   0.288   0.643   6.253 -0.1855 -0.2386 -0.2553
 7662SOL     OW30413   2.388   5.225   3.226  0.1596  0.3127 -0.6367
 7662SOL    HW230414   2.367   5.189   3.312  0.7364 -0.2753 -0.7360
 7662SOL    HW330415   2.465   5.280   3.241  1.4618 -1.3145 -1.0914
 7662SOL    MW430416   2.395   5.227   3.239  0.4075  0.0204 -0.7098
 7663SOL     OW30417   4.763   5.902   1.671 -0.2544  0.9612  0.3295
 7663SOL    HW230418   4.712   5.922   1.749 -1.9585  0.6306 -0.6362
 7663SOL    HW330419   4.781   5.808   1.677  1.8809  1.3918  1.5502
 7663SOL    MW430420   4.758   5.892   1.682 -0.1975  0.9744  0.3632
 7664SOL     OW30421   5.592   3.832   6.322  0.3600 -0.4996 -0.4459
 7664SOL    HW230422   5.549   3.902   6.273 -1.9700  0.2375  2.3707
 7664SOL    HW330423   5.550   3.751   6.292 -0.2750 -0.1815 -0.4227
 7664SOL    MW430424   5.581   3.831   6.312 -0.0312 -0.3604 -0.0712
 7665SOL     OW30425   2.281   4.380   3.669  0.0117  0.4326 -0.1605
 7665SOL    HW230426   2.226   4.345   3.739  2.0326 -0.9828  0.8162
 7665SOL    HW330427   2.362   4.407   3.713  0.1243  2.5595 -1.5193
 7665SOL    MW430428   2.285   4.379   3.684  0.2932  0.5264 -0.2109
 7666SOL     OW30429   0.458   1.263   2.453  0.4153  0.2695 -0.0094
 7666SOL    HW230430   0.490   1.245   2.364  1.0783  0.3837  0.2035
 7666SOL    HW330431   0.523   1.323   2.490 -0.0820  0.5536  0.4089
 7666SOL    MW430432   0.471   1.269   2.446  0.4371  0.3221  0.0739
 7667SOL     OW30433   0.873   3.498   1.634 -0.1377 -0.3146 -0.0064
 7667SOL    HW230434   0.870   3.442   1.711 -1.4077 -0.5086 -0.1809
 7667SOL    HW330435   0.841   3.443   1.563 -2.4525  0.8679  0.0084
 7667SOL    MW430436   0.868   3.483   1.635 -0.6106 -0.1842 -0.0275
 7668SOL     OW30437   2.820   1.595   4.708 -0.0104  0.3328 -0.1740
 7668SOL    HW230438   2.733   1.609   4.744  0.5336 -0.7331  1.7024
 7668SOL    HW330439   2.815   1.629   4.619 -2.4639 -0.1273 -0.2820
 7668SOL    MW430440   2.808   1.601   4.701 -0.2623  0.1315  0.0594
 7669SOL     OW30441   5.259   2.639   3.679 -0.4659  0.4919 -0.5192
 7669SOL    HW230442   5.208   2.561   3.657  0.8410 -0.0442 -1.7354
 7669SOL    HW330443   5.295   2.620   3.766 -0.5276 -0.0538 -0.6128
 7669SOL    MW430444   5.257   2.626   3.688 -0.3016  0.3492 -0.6920
 7670SOL     OW30445   5.701   3.995   4.855 -0.4007  0.2130  0.3280
 7670SOL    HW230446   5.655   4.022   4.775 -1.1302  1.4584  1.1356
 7670SOL    HW330447   5.765   4.065   4.870  0.3870 -0.4975  0.3200
 7670SOL    MW430448   5.704   4.008   4.846 -0.3930  0.2836  0.4335
 7671SOL     OW30449   4.014   6.255   2.896 -0.3990 -0.4177  0.0676
 7671SOL    HW230450   4.046   6.342   2.921 -3.1014 -0.1113  3.0577
 7671SOL    HW330451   4.030   6.250   2.802  2.0375  2.2951  0.1924
 7671SOL    MW430452   4.020   6.266   2.887 -0.4341 -0.0193  0.4786
 7672SOL     OW30453   4.005   2.867   3.546  0.0921 -0.3785  0.3790
 7672SOL    HW230454   4.046   2.905   3.624 -0.0836 -0.9789  0.7792
 7672SOL    HW330455   3.964   2.941   3.501 -0.8804 -0.1868  1.5255
 7672SOL    MW430456   4.005   2.882   3.551 -0.0594 -0.4324  0.5831
 7673SOL     OW30457   4.534   3.804   0.025 -0.0627  0.5643  0.1354
 7673SOL    HW230458   4.498   3.758  -0.051 -1.5353 -0.7725  1.5509
 7673SOL    HW330459   4.457   3.838   0.071  0.8774  2.6025  0.3020
 7673SOL    MW430460   4.519   3.803   0.021 -0.1329  0.6568  0.3441
 7674SOL     OW30461   2.609   1.318   0.108  0.3811 -0.2349  0.3380
 7674SOL    HW230462   2.622   1.225   0.088 -2.1161  0.0392 -3.7043
 7674SOL    HW330463   2.695   1.357   0.097  1.1716 -1.8024  0.5538
 7674SOL    MW430464   2.622   1.311   0.104  0.1559 -0.4055 -0.1669
 7675SOL     OW30465   3.647   2.823   5.661  0.3200 -0.4205  0.6584
 7675SOL    HW230466   3.664   2.912   5.628  0.2068 -0.0300  1.6423
 7675SOL    HW330467   3.572   2.793   5.610  1.2289 -0.5100 -0.6867
 7675SOL    MW430468   3.639   2.831   5.650  0.4250 -0.3808  0.6107
 7676SOL     OW30469   0.062   5.815   3.977 -0.0415  0.2035 -0.0646
 7676SOL    HW230470  -0.004   5.884   3.991  0.6042  0.6135  1.1505
 7676SOL    HW330471   0.042   5.749   4.043 -0.8549 -0.9694 -1.4379
 7676SOL    MW430472   0.051   5.816   3.988 -0.0636  0.1028 -0.0855
 7677SOL     OW30473   5.162   6.195   3.076  0.0511  0.0815 -0.1581
 7677SOL    HW230474   5.112   6.241   3.144 -1.1150 -0.2318 -0.7717
 7677SOL    HW330475   5.240   6.249   3.063  0.3757  0.0707  1.5170
 7677SOL    MW430476   5.165   6.209   3.083 -0.0599  0.0387 -0.0181
 7678SOL     OW30477   1.390   4.005   1.785 -0.1135 -0.7253 -0.5309
 7678SOL    HW230478   1.296   3.994   1.770 -0.2460 -1.0021  0.4502
 7678SOL    HW330479   1.431   3.939   1.728 -0.5608 -1.2729 -0.2275
 7678SOL    MW430480   1.383   3.995   1.775 -0.1900 -0.8340 -0.3614
 7679SOL     OW30481   1.969   3.062   2.959 -0.8849 -0.1288  0.2286
 7679SOL    HW230482   2.058   3.034   2.939 -0.5819  0.6907  0.4137
 7679SOL    HW330483   1.979   3.149   2.998 -1.7261 -0.2283  0.6889
 7679SOL    MW430484   1.982   3.070   2.962 -0.9559 -0.0338  0.3138
 7680SOL     OW30485   5.670   5.310   4.568 -0.5857 -0.1747  0.0319
 7680SOL    HW230486   5.583   5.272   4.560 -1.7405  2.2412  0.4708
 7680SOL    HW330487   5.656   5.404   4.567  1.9395  0.2965  1.0959
 7680SOL    MW430488   5.657   5.317   4.567 -0.4049  0.2062  0.2302
 7681SOL     OW30489   4.586   3.379   0.625  0.2732 -0.0682  0.0722
 7681SOL    HW230490   4.628   3.444   0.681  0.2561 -0.3308  0.3999
 7681SOL    HW330491   4.643   3.372   0.548  2.1090 -2.0144  1.4677
 7681SOL    MW430492   4.599   3.386   0.622  0.5132 -0.3596  0.2996
 7682SOL     OW30493   1.024   4.199   4.599  0.0656 -0.4766 -0.1875
 7682SOL    HW230494   1.045   4.106   4.610  1.3474 -0.1678  0.2404
 7682SOL    HW330495   0.929   4.204   4.611 -0.1738 -1.8671 -1.2749
 7682SOL    MW430496   1.014   4.188   4.602  0.2031 -0.6193 -0.2745
 7683SOL     OW30497   0.510   1.333   3.334 -0.1351 -0.3846 -0.1325
 7683SOL    HW230498   0.532   1.243   3.308 -0.9054 -0.4416 -0.6421
 7683SOL    HW330499   0.490   1.377   3.252  1.2762  0.5665  0.0125
 7683SOL    MW430500   0.510   1.327   3.320 -0.0506 -0.2666 -0.1806
 7684SOL     OW30501   4.337   3.146   4.559  0.2458 -0.2879  0.6241
 7684SOL    HW230502   4.296   3.152   4.472 -0.6808 -2.4040  0.8487
 7684SOL    HW330503   4.401   3.217   4.560 -0.8293  0.8072 -1.1723
 7684SOL    MW430504   4.340   3.156   4.547 -0.0183 -0.4226  0.4167
 7685SOL     OW30505   6.235   3.165   4.608  0.0156 -0.2680 -0.0920
 7685SOL    HW230506   6.291   3.225   4.657 -1.0176  1.1132 -0.5084
 7685SOL    HW330507   6.252   3.186   4.516 -0.2602 -0.7162 -0.2498
 7685SOL    MW430508   6.244   3.176   4.602 -0.1571 -0.1449 -0.1678
 7686SOL     OW30509   6.003   0.661   2.275  0.0712 -0.2399  0.2528
 7686SOL    HW230510   6.046   0.576   2.267 -1.4347 -0.8766 -1.6656
 7686SOL    HW330511   5.916   0.648   2.239 -0.4690  1.9497  0.6102
 7686SOL    MW430512   5.997   0.648   2.269 -0.1987 -0.0350  0.0469
 7687SOL     OW30513   4.279   3.116   2.299  0.3111  0.0745  0.1187
 7687SOL    HW230514   4.247   3.047   2.242  1.4356  0.9374 -1.6365
 7687SOL    HW330515   4.248   3.092   2.386 -0.1974 -2.0663 -0.6083
 7687SOL    MW430516   4.271   3.104   2.303  0.3924 -0.0941 -0.2088
 7688SOL     OW30517   5.439   6.159   0.018 -0.3185  0.2618  0.2409
 7688SOL    HW230518   5.505   6.152  -0.051 -1.1425  1.1889 -0.6822
 7688SOL    HW330519   5.450   6.079   0.070  1.3111  0.2568 -0.0663
 7688SOL    MW430520   5.449   6.147   0.015 -0.2122  0.3834  0.0785
 7689SOL     OW30521   5.422   5.540   3.641 -0.3451 -0.5224  0.1884
 7689SOL    HW230522   5.492   5.561   3.703 -1.3558 -0.6763  1.4239
 7689SOL    HW330523   5.381   5.625   3.622  0.3034 -0.4011 -0.7114
 7689SOL    MW430524   5.425   5.554   3.647 -0.3929 -0.5267  0.2327
 7690SOL     OW30525   3.929   5.420   0.618 -0.1247  0.5114 -0.1779
 7690SOL    HW230526   4.000   5.359   0.632 -0.1293  0.2167 -1.3284
 7690SOL    HW330527   3.954   5.469   0.540 -0.6745  1.1619  0.0367
 7690SOL    MW430528   3.941   5.419   0.610 -0.1978  0.5584 -0.3014
 7691SOL     OW30529   3.362   3.262   3.610  0.7461 -0.1292 -0.0647
 7691SOL    HW230530   3.271   3.248   3.635  0.6860  1.6163  0.8682
 7691SOL    HW330531   3.385   3.186   3.557 -1.7656  0.2354 -1.8022
 7691SOL    MW430532   3.353   3.250   3.606  0.4068  0.1492 -0.1708
 7692SOL     OW30533   4.883   5.046   4.760 -0.2881 -0.0644 -0.4067
 7692SOL    HW230534   4.975   5.071   4.767 -0.2672 -0.2032 -0.1505
 7692SOL    HW330535   4.837   5.109   4.816 -0.3993  0.2532 -0.8442
 7692SOL    MW430536   4.889   5.058   4.768 -0.3000 -0.0408 -0.4306
 7693SOL     OW30537   3.895   4.444   1.484  0.2132  0.8905 -0.0090
 7693SOL    HW230538   3.957   4.420   1.552 -0.4347 -0.4249  0.1480
 7693SOL    HW330539   3.842   4.514   1.524  1.1575  1.5897  0.0676
 7693SOL    MW430540   3.896   4.450   1.498  0.2523  0.8092  0.0218
 7694SOL     OW30541   1.964   2.976   3.563 -0.1231 -0.1742 -0.4604
 7694SOL    HW230542   1.961   3.052   3.505 -0.0361  0.5411  0.4515
 7694SOL    HW330543   1.974   3.013   3.651 -1.7700 -1.1424  0.1906
 7694SOL    MW430544   1.965   2.991   3.567 -0.3289 -0.2076 -0.2542
 7695SOL     OW30545   3.134   2.691   3.033 -0.2842 -0.1837 -0.2464
 7695SOL    HW230546   3.067   2.760   3.033 -0.0169  0.0964  0.8689
 7695SOL    HW330547   3.170   2.693   3.122  0.9685 -0.5637 -0.7283
 7695SOL    MW430548   3.130   2.701   3.045 -0.0837 -0.1969 -0.1628
 7696SOL     OW30549   2.012   3.889   3.607 -0.2995 -0.5577  0.3435
 7696SOL    HW230550   2.042   3.798   3.603 -0.9387 -0.7304 -0.9844
 7696SOL    HW330551   1.918   3.882   3.627 -0.7928 -0.3053 -1.6821
 7696SOL    MW430552   2.003   3.876   3.609 -0.4489 -0.5472 -0.0990
 7697SOL     OW30553   6.184   5.654   3.773 -0.5819  0.5128 -0.2764
 7697SOL    HW230554   6.092   5.655   3.799 -0.9231  1.0004 -1.4362
 7697SOL    HW330555   6.228   5.601   3.840 -1.7233  0.1594  0.2063
 7697SOL    MW430556   6.178   5.648   3.785 -0.7775  0.5305 -0.3657
 7698SOL     OW30557   5.139   5.295   5.526  0.2128 -0.4281 -0.5637
 7698SOL    HW230558   5.054   5.270   5.564  0.2564 -1.3619 -1.0340
 7698SOL    HW330559   5.186   5.337   5.598 -0.6900  0.2134 -0.3277
 7698SOL    MW430560   5.134   5.297   5.541  0.0995 -0.4667 -0.5946
 7699SOL     OW30561   5.245   2.197   1.588  0.8354  0.5905 -0.0002
 7699SOL    HW230562   5.168   2.254   1.589  0.2159 -0.2278  0.8311
 7699SOL    HW330563   5.239   2.151   1.504  1.2037  1.5475 -0.5639
 7699SOL    MW430564   5.234   2.198   1.577  0.8023  0.6088  0.0351
 7700SOL     OW30565   5.738   4.244   5.987 -0.2996 -0.0175 -0.0472
 7700SOL    HW230566   5.701   4.175   5.931 -1.9935 -0.6361  1.7204
 7700SOL    HW330567   5.818   4.271   5.942 -0.9068 -1.3768 -2.0776
 7700SOL    MW430568   5.744   4.238   5.974 -0.6032 -0.2785 -0.0819
 7701SOL     OW30569   4.603   1.785   4.517 -0.4524 -0.4478 -0.6195
 7701SOL    HW230570   4.600   1.841   4.595 -0.7950  1.0819 -1.6924
 7701SOL    HW330571   4.523   1.732   4.523  0.2499 -1.4363  0.7937
 7701SOL    MW430572   4.592   1.785   4.528 -0.4049 -0.3764 -0.5746
 7702SOL     OW30573   0.090   2.730   1.038  0.6271 -0.0391  0.0894
 7702SOL    HW230574   0.168   2.675   1.032  0.9622  0.5660 -1.4700
 7702SOL    HW330575   0.085   2.754   1.131  2.9508  0.8202  0.0579
 7702SOL    MW430576   0.100   2.726   1.050  0.9779  0.1541 -0.1205
 7703SOL     OW30577   4.429   1.393   4.442  0.3384  0.0098  0.6141
 7703SOL    HW230578   4.472   1.449   4.378  1.0572 -1.3201 -0.1059
 7703SOL    HW330579   4.402   1.452   4.512  2.0523  1.0849  0.4019
 7703SOL    MW430580   4.431   1.408   4.443  0.6594 -0.0238  0.4911
 7704SOL     OW30581   2.157   2.323   2.438  0.0012 -0.5263 -0.0495
 7704SOL    HW230582   2.110   2.373   2.505  0.0397  1.6564 -1.5640
 7704SOL    HW330583   2.248   2.323   2.468 -0.0129  0.2538  0.0068
 7704SOL    MW430584   2.163   2.330   2.451  0.0045 -0.1354 -0.2419
 7705SOL     OW30585   1.672   1.557   2.564 -0.6259  0.6276  0.2375
 7705SOL    HW230586   1.664   1.648   2.594  0.7945  0.8916 -0.0930
 7705SOL    HW330587   1.670   1.505   2.644 -0.1308  1.0735  0.5503
 7705SOL    MW430588   1.671   1.562   2.579 -0.3732  0.7213  0.2352
 7706SOL     OW30589   5.042   5.310   4.967  0.2107 -0.3487 -0.0873
 7706SOL    HW230590   4.951   5.310   4.996  0.3734 -0.8348  0.4322
 7706SOL    HW330591   5.073   5.399   4.984 -0.0903 -0.2563 -0.0229
 7706SOL    MW430592   5.034   5.322   4.973  0.1924 -0.4006 -0.0102
 7707SOL     OW30593   4.211   4.979   3.686 -0.2337 -0.3198 -0.3280
 7707SOL    HW230594   4.260   4.970   3.604 -1.8705 -1.0517 -1.2964
 7707SOL    HW330595   4.177   5.069   3.684  0.5944  0.0059  0.0732
 7707SOL    MW430596   4.213   4.990   3.675 -0.3404 -0.3734 -0.4028
 7708SOL     OW30597   2.047   3.466   1.358 -0.2934 -0.5945  0.0423
 7708SOL    HW230598   2.126   3.498   1.401 -1.6864  3.1920  0.1627
 7708SOL    HW330599   2.073   3.384   1.316  3.6493  0.4721  0.0842
 7708SOL    MW430600   2.061   3.459   1.358  0.0430  0.0458  0.0637
 7709SOL     OW30601   5.105   2.198   5.265  0.1032 -0.0701  0.3378
 7709SOL    HW230602   5.079   2.229   5.178 -0.3744 -0.8203  0.2047
 7709SOL    HW330603   5.131   2.277   5.312  0.5500  0.3234 -0.5471
 7709SOL    MW430604   5.105   2.212   5.260  0.0991 -0.1172  0.2035
 7710SOL     OW30605   6.314   0.806   1.796  0.2770  0.4605 -0.2270
 7710SOL    HW230606   6.387   0.776   1.743 -0.2009  0.1334 -0.7049
 7710SOL    HW330607   6.292   0.731   1.851  0.8438  0.8331  0.5274
 7710SOL    MW430608   6.320   0.792   1.797  0.2887  0.4665 -0.1905
 7711SOL     OW30609   1.203   2.492   0.164 -0.1464  0.2597 -0.2029
 7711SOL    HW230610   1.267   2.529   0.103  0.2013 -0.9172 -0.5748
 7711SOL    HW330611   1.237   2.405   0.184  0.7850  1.2151  3.1300
 7711SOL    MW430612   1.216   2.486   0.159  0.0224  0.2305  0.1878
 7712SOL     OW30613   4.371   0.988   2.476 -1.0958  0.2315  0.5544
 7712SOL    HW230614   4.454   1.033   2.456 -0.1084 -0.4781  2.6708
 7712SOL    HW330615   4.321   1.053   2.525 -1.5669  0.4643 -0.2219
 7712SOL    MW430616   4.376   1.003   2.480 -1.0277  0.1686  0.7312
 7713SOL     OW30617   3.552   2.599   2.429 -0.0111  0.6183 -0.6230
 7713SOL    HW230618   3.545   2.676   2.486  2.5831  2.3255 -2.3582
 7713SOL    HW330619   3.643   2.569   2.441 -0.1885 -0.5480 -1.9505
 7713SOL    MW430620   3.563   2.605   2.438  0.3077  0.6897 -1.0271
 7714SOL     OW30621   3.905   3.458   0.013 -0.3907 -0.2563 -0.2709
 7714SOL    HW230622   3.822   3.452   0.059 -0.3071  0.3618 -0.0237
 7714SOL    HW330623   3.968   3.415   0.071 -0.4324 -0.2097 -0.1905
 7714SOL    MW430624   3.903   3.452   0.027 -0.3851 -0.1686 -0.2276
 7715SOL     OW30625   1.428   3.802   1.381  0.3240  0.4012 -0.0590
 7715SOL    HW230626   1.436   3.897   1.385  1.4515  0.3168 -0.0167
 7715SOL    HW330627   1.421   3.783   1.287 -1.5727  0.6235  0.0015
 7715SOL    MW430628   1.428   3.812   1.369  0.2225  0.4194 -0.0455
 7716SOL     OW30629   2.502   2.854   1.486 -0.0269  0.3905  0.4929
 7716SOL    HW230630   2.419   2.875   1.444 -0.0386 -0.5036  0.0538
 7716SOL    HW330631   2.508   2.916   1.559  0.0461  2.0678 -0.8664
 7716SOL    MW430632   2.492   2.865   1.490 -0.0189  0.4939  0.2556
 7717SOL     OW30633   4.333   3.653   3.920  0.2737 -0.0866 -0.3537
 7717SOL    HW230634   4.312   3.621   3.832  1.0960  0.7613 -0.8736
 7717SOL    HW330635   4.275   3.729   3.932 -1.1501 -1.2700  0.5855
 7717SOL    MW430636   4.322   3.659   3.910  0.1943 -0.1308 -0.2984
 7718SOL     OW30637   3.448   4.069   3.558  0.1403  0.3657 -0.1122
 7718SOL    HW230638   3.486   4.028   3.636 -1.9055 -3.0140 -0.6956
 7718SOL    HW330639   3.400   4.145   3.592 -1.9328 -1.8167  2.2358
 7718SOL    MW430640   3.447   4.074   3.573 -0.4031 -0.3681  0.1206
 7719SOL     OW30641   6.280   1.009   0.333  0.2840 -0.5637 -0.0338
 7719SOL    HW230642   6.251   0.924   0.299 -1.6010  0.4999 -1.2469
 7719SOL    HW330643   6.213   1.032   0.398  1.8221 -0.8314  1.7247
 7719SOL    MW430644   6.267   1.001   0.337  0.2382 -0.4587  0.0382
 7720SOL     OW30645   1.183   5.992   4.768  0.0593  0.7393  0.5351
 7720SOL    HW230646   1.222   6.074   4.737  0.2403  0.4481 -0.0214
 7720SOL    HW330647   1.217   5.983   4.858  1.3356  0.4726  0.0534
 7720SOL    MW430648   1.193   6.002   4.776  0.2516  0.6657  0.3982
 7721SOL     OW30649   4.766   0.628   5.255  0.6739  0.3887 -0.3853
 7721SOL    HW230650   4.738   0.690   5.187  2.3666  0.0954 -1.4146
 7721SOL    HW330651   4.837   0.579   5.214 -0.6776 -2.3480  0.3374
 7721SOL    MW430652   4.771   0.630   5.240  0.7189 -0.0110 -0.4258
 7722SOL     OW30653   3.082   1.913   3.578  0.0060 -0.4783 -0.3417
 7722SOL    HW230654   3.057   1.969   3.651  0.8554  0.7931 -0.9894
 7722SOL    HW330655   3.143   1.850   3.615  1.1731  0.7421 -0.1065
 7722SOL    MW430656   3.087   1.912   3.592  0.2720 -0.1495 -0.3961
 7723SOL     OW30657   2.049   1.360   5.506 -0.9036  0.3245  0.2115
 7723SOL    HW230658   2.002   1.282   5.476  0.1463 -0.8283  1.4599
 7723SOL    HW330659   2.094   1.393   5.429  1.4470 -2.3529  0.2906
 7723SOL    MW430660   2.048   1.354   5.492 -0.4549 -0.1809  0.3867
 7724SOL     OW30661   5.413   4.207   5.959 -0.4989  0.5621  0.1159
 7724SOL    HW230662   5.323   4.221   5.991 -0.0670  4.6251  0.0473
 7724SOL    HW330663   5.414   4.248   5.873  1.7706  2.2470  0.8379
 7724SOL    MW430664   5.401   4.214   5.952 -0.1425  1.3204  0.2021
 7725SOL     OW30665   1.663   0.513   5.493 -0.2655  0.5582  0.0427
 7725SOL    HW230666   1.598   0.581   5.511  0.3021  0.7856  1.4030
 7725SOL    HW330667   1.742   0.561   5.470  0.2619  0.4216  1.4370
 7725SOL    MW430668   1.665   0.528   5.492 -0.1210  0.5702  0.4061
 7726SOL     OW30669   3.252   0.783   2.232 -0.0309 -0.4796  0.0176
 7726SOL    HW230670   3.290   0.870   2.248  0.3480 -0.9538  1.8498
 7726SOL    HW330671   3.171   0.783   2.283  0.3410 -1.4471  0.6287
 7726SOL    MW430672   3.246   0.795   2.241  0.0682 -0.6698  0.3399
 7727SOL     OW30673   0.702   6.096   3.410  0.1743  0.0521  0.0750
 7727SOL    HW230674   0.658   6.050   3.482 -0.9414  0.2091 -0.4865
 7727SOL    HW330675   0.758   6.030   3.370 -2.7161 -1.4474 -1.8383
 7727SOL    MW430676   0.704   6.081   3.414 -0.3542 -0.1250 -0.2515
 7728SOL     OW30677   0.160   5.826   3.152 -0.3787  0.4369  0.7365
 7728SOL    HW230678   0.176   5.746   3.103 -0.1239  0.9888 -0.1025
 7728SOL    HW330679   0.111   5.882   3.092 -1.5003  0.5138  1.6797
 7728SOL    MW430680   0.155   5.823   3.138 -0.4930  0.5199  0.7502
 7729SOL     OW30681   1.724   4.734   5.479  0.5875 -0.2331 -0.1900
 7729SOL    HW230682   1.635   4.758   5.507  1.0820  0.9776  0.3979
 7729SOL    HW330683   1.740   4.788   5.402  0.7508 -0.5949 -0.4126
 7729SOL    MW430684   1.714   4.744   5.472  0.6743 -0.1211 -0.1418
 7730SOL     OW30685   5.506   1.071   5.029  0.6929 -0.1724 -0.2595
 7730SOL    HW230686   5.521   0.985   5.067  3.0909  0.2506 -0.1313
 7730SOL    HW330687   5.439   1.056   4.962 -0.1682 -1.7823  0.8999
 7730SOL    MW430688   5.499   1.058   5.025  0.8957 -0.3290 -0.0896
 7731SOL     OW30689   5.732   0.071   2.404  0.2830 -0.1908  0.0395
 7731SOL    HW230690   5.727  -0.001   2.341 -0.4470  1.0101 -1.3381
 7731SOL    HW330691   5.746   0.028   2.488  3.4969 -1.8032 -1.1302
 7731SOL    MW430692   5.733   0.056   2.407  0.6107 -0.2451 -0.2965
 7732SOL     OW30693   2.402   0.286   5.704  0.2293 -0.0054 -0.1143
 7732SOL    HW230694   2.442   0.372   5.691  0.0929  0.0500 -0.1767
 7732SOL    HW330695   2.427   0.235   5.627 -1.2285  0.5716 -1.0029
 7732SOL    MW430696   2.410   0.290   5.692  0.0189  0.0781 -0.2398
 7733SOL     OW30697   2.344   1.246   3.696 -0.1115  0.4923 -0.3866
 7733SOL    HW230698   2.322   1.289   3.613 -1.3820  0.8194  0.1011
 7733SOL    HW330699   2.430   1.207   3.680  0.3002  1.7323 -1.4028
 7733SOL    MW430700   2.352   1.246   3.683 -0.2248  0.6990 -0.4563
 7734SOL     OW30701   6.163   2.139   5.115 -0.1176  0.5579  0.1082
 7734SOL    HW230702   6.144   2.150   5.021 -2.6967  2.2413  0.7104
 7734SOL    HW330703   6.195   2.225   5.143 -0.7490  0.5103  1.0236
 7734SOL    MW430704   6.165   2.152   5.106 -0.5411  0.7737  0.3084
 7735SOL     OW30705   0.938   5.308   2.924  0.1289 -0.7726 -0.4484
 7735SOL    HW230706   0.965   5.220   2.952  1.1558 -0.7345 -1.2628
 7735SOL    HW330707   0.891   5.293   2.841 -1.3852 -0.7192  0.3634
 7735SOL    MW430708   0.935   5.294   2.917  0.0646 -0.7605 -0.4488
 7736SOL     OW30709   2.107   1.343   1.620  0.2339 -0.0239 -0.0658
 7736SOL    HW230710   2.140   1.408   1.557  0.9002 -0.6647 -0.3909
 7736SOL    HW330711   2.052   1.285   1.568  0.1843 -0.1182  0.0918
 7736SOL    MW430712   2.104   1.344   1.605  0.3153 -0.1209 -0.0879
 7737SOL     OW30713   2.691   3.770   1.203  0.0668 -0.1814  0.3660
 7737SOL    HW230714   2.765   3.822   1.170  0.1582 -0.1283  0.6518
 7737SOL    HW330715   2.683   3.698   1.140  0.8351 -0.6002  0.7248
 7737SOL    MW430716   2.700   3.767   1.190  0.1802 -0.2297  0.4510
 7738SOL     OW30717   3.934   3.171   6.242 -0.2516 -0.4469 -0.1330
 7738SOL    HW230718   3.985   3.208   6.314  0.0689  1.8039 -1.4436
 7738SOL    HW330719   3.996   3.113   6.196  0.4890  0.5549 -0.4189
 7738SOL    MW430720   3.949   3.168   6.245 -0.1116 -0.0178 -0.3437
 7739SOL     OW30721   0.019   5.607   2.948 -0.1194 -0.4225 -0.1758
 7739SOL    HW230722   0.100   5.572   2.983  0.2508 -1.1217 -1.6465
 7739SOL    HW330723  -0.024   5.531   2.907 -0.2444  0.4199 -1.6859
 7739SOL    MW430724   0.024   5.592   2.947 -0.0870 -0.4036 -0.5691
 7740SOL     OW30725   3.997   3.255   0.330 -0.0851 -0.6142  0.1524
 7740SOL    HW230726   4.068   3.222   0.275 -0.3730 -1.8224  0.4806
 7740SOL    HW330727   4.037   3.265   0.417  0.4823  1.6894 -0.3095
 7740SOL    MW430728   4.012   3.252   0.334 -0.0482 -0.4697  0.1348
 7741SOL     OW30729   2.185   0.044   2.880 -0.1223 -0.0354  0.2617
 7741SOL    HW230730   2.168  -0.002   2.797 -1.1776 -0.2421  0.5892
 7741SOL    HW330731   2.236  -0.019   2.931 -1.3085 -0.7562  0.5923
 7741SOL    MW430732   2.190   0.029   2.876 -0.4181 -0.1578  0.3485
 7742SOL     OW30733   5.686   2.202   6.153  0.1249 -0.4200 -0.4385
 7742SOL    HW230734   5.742   2.164   6.220  0.1559  2.5445  1.3965
 7742SOL    HW330735   5.731   2.182   6.070  2.6049 -0.2605  0.7710
 7742SOL    MW430736   5.700   2.194   6.151  0.4562 -0.0079 -0.0368
 7743SOL     OW30737   3.381   2.248   0.950 -0.6408  0.3259  0.0450
 7743SOL    HW230738   3.450   2.284   1.006 -0.4246  1.8260 -1.1315
 7743SOL    HW330739   3.396   2.288   0.865 -1.4026 -1.3573 -0.9218
 7743SOL    MW430740   3.392   2.258   0.946 -0.7128  0.3017 -0.2378
 7744SOL     OW30741   6.092   5.512   4.693  0.4315  0.1153 -0.1663
 7744SOL    HW230742   6.043   5.460   4.629  0.1740  0.4417 -0.2391
 7744SOL    HW330743   6.157   5.451   4.728 -0.4718 -0.5295  0.4299
 7744SOL    MW430744   6.094   5.497   4.689  0.2783  0.0733 -0.0973
 7745SOL     OW30745   2.197   1.594   3.330 -0.1728 -0.7849 -0.1056
 7745SOL    HW230746   2.163   1.673   3.372  0.6614 -1.0304  1.0891
 7745SOL    HW330747   2.119   1.540   3.315 -1.0238  0.9258 -2.5967
 7745SOL    MW430748   2.182   1.597   3.334 -0.1750 -0.5916 -0.2766
 7746SOL     OW30749   2.543   6.206   0.460  0.0515  0.1008  0.5029
 7746SOL    HW230750   2.568   6.254   0.539  1.4425  1.6266 -0.7796
 7746SOL    HW330751   2.533   6.274   0.393 -2.1567 -1.0370 -0.4234
 7746SOL    MW430752   2.545   6.221   0.462 -0.0563  0.1520  0.2115
 7747SOL     OW30753   0.372   4.487   4.222 -0.1407  0.3531  0.7893
 7747SOL    HW230754   0.346   4.563   4.273  0.0198 -0.2478  1.7988
 7747SOL    HW330755   0.361   4.413   4.282 -1.4935 -0.5937 -0.5487
 7747SOL    MW430756   0.367   4.487   4.237 -0.2980  0.1489  0.7459
 7748SOL     OW30757   2.100   5.151   4.057  0.2514 -0.0466 -0.1338
 7748SOL    HW230758   2.055   5.236   4.048 -1.1164 -0.5730  1.1594
 7748SOL    HW330759   2.155   5.162   4.135  2.3517  0.5341 -1.6114
 7748SOL    MW430760   2.101   5.164   4.066  0.3481 -0.0394 -0.1581
 7749SOL     OW30761   2.955   0.878   0.032  0.3942  0.2434 -0.1320
 7749SOL    HW230762   3.029   0.826   0.064 -0.2968 -0.4562  0.3501
 7749SOL    HW330763   2.909   0.820  -0.028 -1.2974 -0.3419  1.6093
 7749SOL    MW430764   2.959   0.864   0.028  0.0799  0.0738  0.1614
 7750SOL     OW30765   0.075   2.555   2.500  0.3307  0.0492  0.0379
 7750SOL    HW230766   0.150   2.496   2.503  0.8997  0.6926 -0.9293
 7750SOL    HW330767   0.045   2.561   2.590  1.9077  0.3696  0.5640
 7750SOL    MW430768   0.081   2.548   2.512  0.6139  0.1764 -0.0203
 7751SOL     OW30769   3.554   4.032   4.183 -0.5015  0.0034  1.0337
 7751SOL    HW230770   3.571   4.084   4.104  1.4203  0.5140  1.7061
 7751SOL    HW330771   3.532   3.945   4.151  1.4310 -0.1193 -0.1112
 7751SOL    MW430772   3.554   4.028   4.168  0.0070  0.0546  0.9713
 7752SOL     OW30773   0.698   5.745   5.155  0.5449  0.6598 -0.4060
 7752SOL    HW230774   0.752   5.807   5.203  0.9577 -0.0180  0.0173
 7752SOL    HW330775   0.630   5.799   5.115  0.9772  1.4001 -0.1637
 7752SOL    MW430776   0.696   5.760   5.156  0.6564  0.6680 -0.3182
 7753SOL     OW30777   4.609   4.624   2.972 -0.0967  0.4225  0.5771
 7753SOL    HW230778   4.579   4.702   2.925 -1.1138 -0.0170  0.4668
 7753SOL    HW330779   4.586   4.551   2.914 -0.2117 -0.0389  1.1905
 7753SOL    MW430780   4.602   4.624   2.958 -0.2461  0.3036  0.6435
 7754SOL     OW30781   1.825   0.837   4.355  0.2101  0.5780  0.4382
 7754SOL    HW230782   1.872   0.815   4.275 -1.2158  1.5616 -0.7179
 7754SOL    HW330783   1.849   0.929   4.372  1.0173  0.1809  1.5313
 7754SOL    MW430784   1.834   0.847   4.347  0.1285  0.6554  0.4299
 7755SOL     OW30785   6.189   5.167   2.936 -0.1406  0.0458 -0.4189
 7755SOL    HW230786   6.206   5.075   2.915  0.8703 -0.0809  0.8439
 7755SOL    HW330787   6.166   5.166   3.029 -0.2406  1.0623 -0.4277
 7755SOL    MW430788   6.189   5.155   2.946 -0.0204  0.1632 -0.2534
 7756SOL     OW30789   1.070   2.698   3.248  0.4201  0.3034  0.6860
 7756SOL    HW230790   0.986   2.740   3.228  0.5050  0.5398  0.8194
 7756SOL    HW330791   1.117   2.700   3.165  0.2178 -0.0050  0.5631
 7756SOL    MW430792   1.065   2.704   3.235  0.4046  0.2939  0.6873
 7757SOL     OW30793   0.692   3.573   2.055  0.0091 -0.1378  0.1465
 7757SOL    HW230794   0.625   3.564   1.987  0.3226 -0.8150 -0.0893
 7757SOL    HW330795   0.657   3.524   2.129 -1.2507  2.2468  1.2339
 7757SOL    MW430796   0.679   3.565   2.056 -0.1158  0.0875  0.2589
 7758SOL     OW30797   0.851   0.376   0.256  0.1704 -0.1806 -0.2606
 7758SOL    HW230798   0.822   0.285   0.247  0.5571 -0.1985 -1.5288
 7758SOL    HW330799   0.943   0.370   0.280 -0.6580 -0.1212  3.6274
 7758SOL    MW430800   0.859   0.363   0.258  0.1121 -0.1751  0.0851
 7759SOL     OW30801   6.162   4.164   3.240 -0.3595  0.2056 -0.6588
 7759SOL    HW230802   6.214   4.083   3.240  0.3703  0.6730 -0.4130
 7759SOL    HW330803   6.184   4.208   3.321 -2.8020 -0.6095  0.5656
 7759SOL    MW430804   6.172   4.159   3.250 -0.5854  0.1597 -0.4648
 7760SOL     OW30805   3.639   5.112   1.331  0.0910  0.0951 -1.2053
 7760SOL    HW230806   3.615   5.074   1.415  1.2425 -0.5901 -1.1629
 7760SOL    HW330807   3.558   5.153   1.299 -0.4086  0.2102  0.1332
 7760SOL    MW430808   3.625   5.113   1.338  0.1770  0.0199 -1.0231
 7761SOL     OW30809   0.168   3.072   3.619 -0.4778 -0.8533 -0.0434
 7761SOL    HW230810   0.230   3.119   3.564  1.1048 -0.7774  1.7101
 7761SOL    HW330811   0.088   3.069   3.568  0.3904  0.7537 -1.5931
 7761SOL    MW430812   0.166   3.078   3.605 -0.1544 -0.6313 -0.0165
 7762SOL     OW30813   2.327   4.716   3.073  0.3680 -0.3889 -0.4501
 7762SOL    HW230814   2.372   4.790   3.115 -0.4136  1.0756 -2.0816
 7762SOL    HW330815   2.389   4.683   3.009  0.5277 -0.8437 -0.0673
 7762SOL    MW430816   2.341   4.721   3.070  0.2860 -0.2557 -0.6148
 7763SOL     OW30817   1.974   5.866   5.398  0.4997  0.3268  0.1587
 7763SOL    HW230818   2.054   5.905   5.434 -0.8781  2.5530  1.0108
 7763SOL    HW330819   1.934   5.937   5.348 -0.4953 -1.0397 -1.0444
 7763SOL    MW430820   1.979   5.881   5.396  0.1867  0.4402  0.1124
 7764SOL     OW30821   6.118   5.474   5.514  0.2342  0.5568  0.6188
 7764SOL    HW230822   6.058   5.548   5.520 -0.3421  0.1366  0.1244
 7764SOL    HW330823   6.082   5.419   5.444  0.3431 -0.4742  1.3491
 7764SOL    MW430824   6.106   5.476   5.505  0.1725  0.3654  0.6499
 7765SOL     OW30825   0.784   1.911   3.594  0.1275  0.2814 -0.4055
 7765SOL    HW230826   0.817   1.939   3.509  3.3498  0.8147  0.8632
 7765SOL    HW330827   0.826   1.826   3.610  2.0744  1.5297  1.8055
 7765SOL    MW430828   0.794   1.903   3.585  0.8095  0.5165  0.0536
 7766SOL     OW30829   2.413   0.678   5.396 -0.3060 -0.2977  0.0308
 7766SOL    HW230830   2.352   0.737   5.440 -2.3675 -1.4365 -1.0918
 7766SOL    HW330831   2.456   0.631   5.467  0.2993  1.4908  0.8908
 7766SOL    MW430832   2.410   0.679   5.411 -0.4981 -0.2120 -0.0038
 7767SOL     OW30833   2.213   1.273   5.720 -0.3728 -0.3508  0.3503
 7767SOL    HW230834   2.171   1.315   5.645 -0.6853  1.7472  1.6100
 7767SOL    HW330835   2.303   1.308   5.720 -0.5762  0.2106  1.3122
 7767SOL    MW430836   2.220   1.283   5.710 -0.4409  0.0000  0.6434
 7768SOL     OW30837   0.432   5.370   5.762 -0.1506  0.2258  0.3009
 7768SOL    HW230838   0.351   5.403   5.724  0.0623  1.5763  0.9593
 7768SOL    HW330839   0.432   5.404   5.852  1.8022  1.4901 -0.1120
 7768SOL    MW430840   0.422   5.379   5.769  0.1351  0.5708  0.3333
 7769SOL     OW30841   0.549   3.756   5.762 -0.4872  0.2327 -0.2858
 7769SOL    HW230842   0.639   3.765   5.731 -0.5630  1.3627 -0.2188
 7769SOL    HW330843   0.533   3.835   5.812 -2.2573  1.1827 -2.1781
 7769SOL    MW430844   0.558   3.768   5.764 -0.7308  0.5071 -0.5267
 7770SOL     OW30845   2.935   0.956   0.702  0.4447  0.3090 -1.1371
 7770SOL    HW230846   2.945   1.007   0.621 -1.2567  3.6783  0.5573
 7770SOL    HW330847   2.846   0.922   0.698  0.1549  0.9597 -0.4974
 7770SOL    MW430848   2.924   0.958   0.691  0.1820  0.8394 -0.8292
 7771SOL     OW30849   3.020   0.444   4.943  0.4657  0.2605 -0.3093
 7771SOL    HW230850   3.031   0.458   5.036  0.6141  1.7489 -0.5303
 7771SOL    HW330851   3.019   0.349   4.933 -0.7745  0.0587  1.3409
 7771SOL    MW430852   3.021   0.433   4.954  0.3217  0.4303 -0.1208
 7772SOL     OW30853   5.361   4.821   6.132  0.4137 -0.2893 -0.2215
 7772SOL    HW230854   5.287   4.880   6.143 -0.8143 -1.5026 -1.4982
 7772SOL    HW330855   5.438   4.877   6.135 -0.7189  1.5202 -2.1411
 7772SOL    MW430856   5.361   4.836   6.134  0.1023 -0.2106 -0.6432
 7773SOL     OW30857   6.007   5.590   1.242 -0.0482  0.2608 -0.4585
 7773SOL    HW230858   5.972   5.677   1.222 -0.1896  0.3620  0.1943
 7773SOL    HW330859   6.008   5.544   1.158 -1.7113  0.2683 -0.5139
 7773SOL    MW430860   6.003   5.596   1.228 -0.2863  0.2752 -0.3797
 7774SOL     OW30861   5.273   4.298   2.589 -0.2210 -0.8464 -0.2181
 7774SOL    HW230862   5.250   4.388   2.566  0.8604 -0.7485 -1.0111
 7774SOL    HW330863   5.347   4.308   2.649 -0.0304 -1.2083 -0.3944
 7774SOL    MW430864   5.280   4.311   2.594 -0.0532 -0.8813 -0.3460
 7775SOL     OW30865   4.182   5.760   2.546  0.5839 -0.1721 -0.4089
 7775SOL    HW230866   4.141   5.693   2.491 -3.5698 -1.0472  3.1413
 7775SOL    HW330867   4.261   5.719   2.580  0.8357 -1.2676 -2.2376
 7775SOL    MW430868   4.187   5.746   2.543  0.0691 -0.4321 -0.1818
 7776SOL     OW30869   1.746   1.889   2.520  0.7028  0.7454  0.6833
 7776SOL    HW230870   1.663   1.860   2.558  1.3278 -1.6543  0.4116
 7776SOL    HW330871   1.793   1.931   2.592 -0.0601  0.6024  1.2703
 7776SOL    MW430872   1.741   1.891   2.535  0.6846  0.4100  0.7249
 7777SOL     OW30873   2.988   4.970   1.416  0.4584 -0.0583 -0.2464
 7777SOL    HW230874   2.954   4.903   1.474 -1.3402  2.2779  1.5937
 7777SOL    HW330875   2.922   4.978   1.347  0.9278 -0.4974 -0.7586
 7777SOL    MW430876   2.975   4.962   1.414  0.2830  0.1920 -0.0712
 7778SOL     OW30877   4.579   4.173   2.230  1.2138  0.1720  0.8105
 7778SOL    HW230878   4.589   4.240   2.298 -1.2563  0.0476  1.4230
 7778SOL    HW330879   4.543   4.097   2.277 -1.7876  0.4999 -0.7191
 7778SOL    MW430880   4.575   4.172   2.245  0.4919  0.1988  0.6895
 7779SOL     OW30881   0.548   4.274   3.599  0.5283 -0.2125  0.1408
 7779SOL    HW230882   0.625   4.305   3.551 -0.1937 -1.3671 -1.9077
 7779SOL    HW330883   0.564   4.299   3.690  3.0843  0.0154 -0.3062
 7779SOL    MW430884   0.560   4.281   3.605  0.7702 -0.3348 -0.1884
 7780SOL     OW30885   0.482   5.708   6.209  0.4355 -0.0094  0.4734
 7780SOL    HW230886   0.419   5.709   6.137 -0.0430 -1.8522  0.8289
 7780SOL    HW330887   0.566   5.728   6.168 -0.2635  1.9739 -0.0858
 7780SOL    MW430888   0.485   5.711   6.194  0.2801  0.0091  0.4465
 7781SOL     OW30889   0.556   3.103   3.430 -0.0379  0.2931  0.1430
 7781SOL    HW230890   0.606   3.059   3.499  1.0119 -0.1320 -0.8755
 7781SOL    HW330891   0.620   3.121   3.361 -1.4453 -1.1160 -1.6100
 7781SOL    MW430892   0.571   3.100   3.430 -0.0851  0.0511 -0.2227
 7782SOL     OW30893   3.740   2.987   0.965  0.4655 -0.5296 -0.2392
 7782SOL    HW230894   3.783   2.994   1.051 -2.1885 -1.3213  1.2811
 7782SOL    HW330895   3.780   3.056   0.913  1.2186  0.9218  2.0955
 7782SOL    MW430896   3.751   2.997   0.970  0.2147 -0.4426  0.2694
 7783SOL     OW30897   1.000   6.308   6.373  0.1066 -0.5550 -0.4487
 7783SOL    HW230898   0.970   6.318   6.283  1.3581 -1.6272 -1.0163
 7783SOL    HW330899   1.055   6.229   6.372  3.2284  1.4259  0.3978
 7783SOL    MW430900   1.004   6.299   6.361  0.6836 -0.4351 -0.4119
 7784SOL     OW30901   2.954   5.868   0.356 -0.3657 -0.6910 -0.2831
 7784SOL    HW230902   2.956   5.963   0.349  2.8311 -0.6929 -0.6784
 7784SOL    HW330903   2.884   5.841   0.297 -1.9526  1.3900  0.5081
 7784SOL    MW430904   2.945   5.877   0.348 -0.1533 -0.4167 -0.2309
 7785SOL     OW30905   5.128   2.803   4.486  0.3195  0.0865  0.0489
 7785SOL    HW230906   5.035   2.809   4.509  0.7231  1.0345  1.5054
 7785SOL    HW330907   5.156   2.893   4.475  1.2104 -0.1669  0.1804
 7785SOL    MW430908   5.119   2.815   4.487  0.4903  0.1781  0.2584
 7786SOL     OW30909   0.643   3.847   3.207 -1.0101 -0.0757  0.5115
 7786SOL    HW230910   0.627   3.789   3.282  1.6223 -0.4546  0.8629
 7786SOL    HW330911   0.590   3.810   3.137 -0.3720 -2.2085  1.0674
 7786SOL    MW430912   0.634   3.835   3.208 -0.5786 -0.4071  0.6312
 7787SOL     OW30913   0.746   2.260   3.768 -0.3145 -0.4664 -0.1418
 7787SOL    HW230914   0.655   2.277   3.746  0.2536  3.2597 -0.2003
 7787SOL    HW330915   0.768   2.325   3.835  2.5726 -0.4328 -0.9622
 7787SOL    MW430916   0.737   2.271   3.774  0.1414  0.0296 -0.2577
 7788SOL     OW30917   0.966   3.471   2.067 -0.3046 -0.5277 -0.1381
 7788SOL    HW230918   1.017   3.521   2.003  0.8288 -1.0584  0.3258
 7788SOL    HW330919   0.889   3.525   2.082  1.3018  1.6079  1.0458
 7788SOL    MW430920   0.963   3.485   2.060  0.0568 -0.3160  0.0793
 7789SOL     OW30921   4.978   3.292   4.335 -0.2991 -0.3354  0.2145
 7789SOL    HW230922   4.936   3.329   4.412 -1.8607 -0.5130 -0.5155
 7789SOL    HW330923   4.918   3.311   4.263  1.8336  1.1938 -1.2672
 7789SOL    MW430924   4.965   3.299   4.336 -0.2237 -0.1571 -0.0773
 7790SOL     OW30925   1.104   0.469   6.153  0.4083 -1.0960 -0.6602
 7790SOL    HW230926   1.083   0.393   6.099  1.2683 -0.9177 -1.2668
 7790SOL    HW330927   1.053   0.456   6.233  1.5345 -3.0036 -0.1860
 7790SOL    MW430928   1.095   0.457   6.156  0.6703 -1.3241 -0.6777
 7791SOL     OW30929   6.207   3.101   3.142 -0.1743  0.4040  0.2682
 7791SOL    HW230930   6.267   3.120   3.069  0.7524  0.5585  1.0480
 7791SOL    HW330931   6.121   3.094   3.101 -0.1869  3.5284 -0.5097
 7791SOL    MW430932   6.204   3.103   3.127 -0.0537  0.8366  0.2684
 7792SOL     OW30933   0.615   0.729   2.116 -0.3035  0.1779 -0.3588
 7792SOL    HW230934   0.602   0.693   2.029  0.4669 -0.1902 -0.3364
 7792SOL    HW330935   0.555   0.803   2.122 -0.9560 -0.3073 -0.8931
 7792SOL    MW430936   0.606   0.734   2.105 -0.2880  0.0653 -0.4263
 7793SOL     OW30937   4.991   4.983   5.621  0.0627  0.1190  0.5836
 7793SOL    HW230938   5.049   5.058   5.631 -0.3946  0.5320  0.2228
 7793SOL    HW330939   4.928   4.991   5.693  1.0498 -0.9052  1.6048
 7793SOL    MW430940   4.990   4.994   5.632  0.1326  0.0384  0.6708
 7794SOL     OW30941   3.430   4.356   4.491 -0.2298  0.0663  0.2546
 7794SOL    HW230942   3.491   4.340   4.419 -0.4481  0.1430  0.0518
 7794SOL    HW330943   3.352   4.305   4.469  0.2933 -1.2273  1.2475
 7794SOL    MW430944   3.427   4.347   4.479 -0.1896 -0.0942  0.3588
 7795SOL     OW30945   1.594   1.558   1.534 -0.2886 -0.4232  0.3015
 7795SOL    HW230946   1.573   1.649   1.557 -2.1099 -0.7821  0.2425
 7795SOL    HW330947   1.666   1.535   1.593  1.4210  1.5480 -0.8604
 7795SOL    MW430948   1.601   1.567   1.545 -0.3033 -0.2105  0.1404
 7796SOL     OW30949   1.224   4.348   4.486 -0.1117 -0.1149 -0.2912
 7796SOL    HW230950   1.164   4.294   4.536 -1.3662  1.3046 -0.2137
 7796SOL    HW330951   1.198   4.336   4.395  0.3419 -0.4926 -0.3780
 7796SOL    MW430952   1.213   4.339   4.481 -0.2174  0.0225 -0.2924
 7797SOL     OW30953   2.445   0.248   0.178 -0.1989 -0.4344  0.1366
 7797SOL    HW230954   2.452   0.169   0.231 -3.6445  0.4138  2.1899
 7797SOL    HW330955   2.398   0.220   0.099 -0.2537 -0.6983  0.2602
 7797SOL    MW430956   2.439   0.234   0.175 -0.6608 -0.3573  0.4238
 7798SOL     OW30957   1.115   0.035   5.585  0.0162 -0.7253 -0.1095
 7798SOL    HW230958   1.126   0.107   5.524 -0.7079 -0.4201  0.1156
 7798SOL    HW330959   1.076  -0.036   5.533  1.9104 -1.4502 -0.6573
 7798SOL    MW430960   1.111   0.035   5.570  0.1706 -0.7807 -0.1521
 7799SOL     OW30961   0.663   5.227   3.996  0.0262 -0.1956  0.1580
 7799SOL    HW230962   0.655   5.194   3.907 -0.0699  0.4383 -0.0742
 7799SOL    HW330963   0.703   5.313   3.987 -1.9850  0.8478  0.5183
 7799SOL    MW430964   0.667   5.234   3.983 -0.2518  0.0257  0.1749
 7800SOL     OW30965   1.864   5.507   2.553  0.2552  0.1724  0.7208
 7800SOL    HW230966   1.928   5.453   2.598  0.8090 -0.3571 -0.6506
 7800SOL    HW330967   1.914   5.553   2.485 -0.4008  1.5964  1.1640
 7800SOL    MW430968   1.879   5.506   2.550  0.2417  0.2905  0.5983
 7801SOL     OW30969   3.274   5.188   4.980  0.9551 -0.6455 -0.8165
 7801SOL    HW230970   3.183   5.190   5.011  1.6076  0.5079  1.1600
 7801SOL    HW330971   3.313   5.112   5.022  1.1132 -0.7174 -1.0858
 7801SOL    MW430972   3.267   5.179   4.989  1.0620 -0.5028 -0.5912
 7802SOL     OW30973   1.876   0.132   3.111 -0.9840  0.1091 -0.0336
 7802SOL    HW230974   1.943   0.064   3.121 -1.0202 -0.0602 -0.8789
 7802SOL    HW330975   1.889   0.189   3.187  0.2909  0.2238 -0.3079
 7802SOL    MW430976   1.886   0.131   3.122 -0.8206  0.1019 -0.1813
 7803SOL     OW30977   3.435   3.271   5.247 -0.0868 -0.3681 -0.0108
 7803SOL    HW230978   3.369   3.339   5.236  1.4508  0.8370 -2.9163
 7803SOL    HW330979   3.398   3.193   5.206 -0.0683  0.0418 -0.8095
 7803SOL    MW430980   3.422   3.269   5.240  0.1185 -0.1550 -0.4995
 7804SOL     OW30981   4.792   4.739   1.525  0.4378  0.1469  0.5555
 7804SOL    HW230982   4.855   4.668   1.516 -0.0252 -0.4833  2.0324
 7804SOL    HW330983   4.721   4.702   1.578 -0.7340  1.1279 -0.2475
 7804SOL    MW430984   4.791   4.725   1.531  0.2221  0.1932  0.6444
 7805SOL     OW30985   4.293   1.262   0.744  0.2527 -0.3665  0.2894
 7805SOL    HW230986   4.270   1.170   0.759  2.9480 -0.8137  2.7620
 7805SOL    HW330987   4.347   1.261   0.666  1.3278 -1.1652  1.0075
 7805SOL    MW430988   4.297   1.250   0.736  0.7502 -0.5309  0.7104
 7806SOL     OW30989   1.449   4.323   6.026 -0.7470  0.0946 -0.3269
 7806SOL    HW230990   1.392   4.274   5.966  0.2927 -1.9268  0.2479
 7806SOL    HW330991   1.431   4.286   6.112  0.0363  0.7898  0.1476
 7806SOL    MW430992   1.439   4.311   6.029 -0.5065 -0.0804 -0.1885
 7807SOL     OW30993   5.064   3.084   0.750 -0.4228 -0.7112 -0.4885
 7807SOL    HW230994   5.145   3.123   0.717 -1.3215  2.4385  0.6725
 7807SOL    HW330995   5.079   3.072   0.843 -0.3891 -2.8014 -0.7148
 7807SOL    MW430996   5.076   3.087   0.758 -0.5369 -0.5714 -0.3652
 7808SOL     OW30997   3.262   4.128   0.248 -0.5079 -0.4427 -0.1990
 7808SOL    HW230998   3.190   4.066   0.257  0.2106 -1.4838 -1.2223
 7808SOL    HW330999   3.221   4.211   0.226 -1.4202 -0.8710 -0.1465
 7808SOL    MW431000   3.247   4.131   0.246 -0.5335 -0.6366 -0.3271
 7809SOL     OW31001   0.364   4.050   5.293  0.7389  0.7718 -0.2087
 7809SOL    HW231002   0.341   3.984   5.228  0.0516  1.8724 -1.1262
 7809SOL    HW331003   0.412   4.002   5.361  0.3187 -0.6370 -0.8788
 7809SOL    MW431004   0.367   4.035   5.294  0.5928  0.7311 -0.4181
 7810SOL     OW31005   1.488   6.276   3.966 -0.3625 -0.1258 -0.0347
 7810SOL    HW231006   1.426   6.348   3.955  0.3991  0.4522 -0.6729
 7810SOL    HW331007   1.473   6.245   4.055 -1.9505 -0.3776 -0.3592
 7810SOL    MW431008   1.477   6.281   3.976 -0.4716 -0.0828 -0.1617
 7811SOL     OW31009   1.694   3.427   5.131  0.9966 -0.2384 -0.5876
 7811SOL    HW231010   1.636   3.363   5.090 -0.9083  0.8475  0.2733
 7811SOL    HW331011   1.685   3.506   5.077  1.3020  0.0934 -0.1668
 7811SOL    MW431012   1.685   3.429   5.118  0.7856 -0.0513 -0.4185
 7812SOL     OW31013   4.206   1.199   5.797  0.2530  0.2556 -0.8609
 7812SOL    HW231014   4.202   1.187   5.702  0.3117  0.6156 -0.9084
 7812SOL    HW331015   4.258   1.279   5.809  1.0674 -0.3191 -0.4921
 7812SOL    MW431016   4.212   1.208   5.786  0.3682  0.2273 -0.8185
 7813SOL     OW31017   1.469   5.051   2.687  0.4347  0.0516  0.2697
 7813SOL    HW231018   1.386   5.084   2.654 -0.6731 -1.4404  1.4517
 7813SOL    HW331019   1.469   4.958   2.664  0.7230 -0.4777  2.2490
 7813SOL    MW431020   1.458   5.043   2.679  0.3265 -0.2151  0.6868
 7814SOL     OW31021   4.587   0.232   4.285  0.5768 -0.1940  0.6023
 7814SOL    HW231022   4.581   0.213   4.191 -1.2339 -1.0415  0.8456
 7814SOL    HW331023   4.554   0.321   4.294  1.2932  0.0992  0.3844
 7814SOL    MW431024   4.582   0.241   4.274  0.4324 -0.2672  0.6057
 7815SOL     OW31025   5.684   5.163   1.917 -0.0728  0.3684 -0.2534
 7815SOL    HW231026   5.711   5.071   1.908 -0.4402  0.2534 -0.1966
 7815SOL    HW331027   5.762   5.208   1.950 -0.1216 -0.0671  0.4664
 7815SOL    MW431028   5.698   5.157   1.920 -0.1277  0.2958 -0.1509
 7816SOL     OW31029   0.999   3.211   3.907  0.0356 -0.2538  0.1835
 7816SOL    HW231030   0.962   3.123   3.908 -3.1806  0.9334  1.0157
 7816SOL    HW331031   1.066   3.209   3.838 -2.1913 -2.5379 -2.1503
 7816SOL    MW431032   1.003   3.199   3.898 -0.6825 -0.3986 -0.0146
 7817SOL     OW31033   0.353   6.392   6.223 -0.6088 -0.0696 -0.4862
 7817SOL    HW231034   0.337   6.317   6.280 -0.8986 -0.2570 -0.8104
 7817SOL    HW331035   0.304   6.373   6.143  1.1225 -0.5981 -1.4747
 7817SOL    MW431036   0.345   6.380   6.220 -0.4186 -0.1640 -0.6594
 7818SOL     OW31037   3.230   0.861   0.150 -0.3407  0.3887 -0.0543
 7818SOL    HW231038   3.281   0.855   0.069  0.5852  0.0598  0.5462
 7818SOL    HW331039   3.215   0.955   0.162 -3.6936  0.3569 -2.5473
 7818SOL    MW431040   3.234   0.872   0.141 -0.6609  0.3411 -0.3040
 7819SOL     OW31041   1.192   4.341   2.514  0.0336 -0.1037  0.4475
 7819SOL    HW231042   1.221   4.391   2.438 -0.2261  1.4175  1.3060
 7819SOL    HW331043   1.210   4.399   2.589 -1.2594 -0.8648  1.3843
 7819SOL    MW431044   1.198   4.355   2.514 -0.1713 -0.0034  0.6843
 7820SOL     OW31045   5.928   3.955   4.369  0.1789 -0.2752  0.6242
 7820SOL    HW231046   5.916   3.884   4.432  2.0831  0.7636  2.2632
 7820SOL    HW331047   5.851   4.011   4.382 -1.9751 -2.4922 -1.5227
 7820SOL    MW431048   5.916   3.953   4.379  0.1459 -0.4306  0.5572
 7821SOL     OW31049   3.808   0.631   1.522 -0.0253  0.2914  0.1612
 7821SOL    HW231050   3.772   0.543   1.517  0.0278  0.3063 -0.5935
 7821SOL    HW331051   3.896   0.622   1.485 -0.3094  0.8095 -0.6637
 7821SOL    MW431052   3.815   0.618   1.516 -0.0558  0.3617 -0.0472
 7822SOL     OW31053   3.121   1.182   4.249 -0.0827  0.7065  0.2671
 7822SOL    HW231054   3.160   1.179   4.337  3.8323 -1.2992 -1.3109
 7822SOL    HW331055   3.134   1.273   4.220  3.6684  0.1864 -0.1165
 7822SOL    MW431056   3.128   1.194   4.257  0.9287  0.3732  0.0083
 7823SOL     OW31057   5.149   5.857   4.391 -0.1267 -0.1560 -0.2563
 7823SOL    HW231058   5.147   5.866   4.487  0.1092 -1.3144 -0.1278
 7823SOL    HW331059   5.147   5.947   4.359 -1.0517  0.2322  0.8178
 7823SOL    MW431060   5.149   5.870   4.400 -0.2176 -0.2576 -0.0977
 7824SOL     OW31061   0.248   5.658   0.140 -0.2192 -0.2875 -0.3657
 7824SOL    HW231062   0.300   5.640   0.218 -1.3598 -1.6470  0.1146
 7824SOL    HW331063   0.303   5.716   0.087  1.0526 -0.2965  0.9002
 7824SOL    MW431064   0.262   5.664   0.143 -0.2019 -0.4681 -0.1353
 7825SOL     OW31065   1.579   0.355   2.347  0.0719  0.0687 -0.1584
 7825SOL    HW231066   1.498   0.369   2.395  0.5426  1.2613  0.3476
 7825SOL    HW331067   1.593   0.260   2.348 -0.7651 -0.0509  0.6540
 7825SOL    MW431068   1.570   0.344   2.353  0.0236  0.2103  0.0156
 7826SOL     OW31069   1.117   0.873   0.785 -0.4184 -0.1648  0.6181
 7826SOL    HW231070   1.151   0.889   0.697 -0.5125 -0.4683  0.5233
 7826SOL    HW331071   1.102   0.960   0.822  0.8313 -0.0080  0.8117
 7826SOL    MW431072   1.120   0.886   0.778 -0.2659 -0.1842  0.6312
 7827SOL     OW31073   4.488   2.037   0.303  0.7305 -0.2031  1.0652
 7827SOL    HW231074   4.529   1.971   0.359  2.0006  0.5864  1.0930
 7827SOL    HW331075   4.517   2.014   0.214  0.2739 -0.3271  0.9465
 7827SOL    MW431076   4.497   2.025   0.298  0.8378 -0.1153  1.0532
 7828SOL     OW31077   2.710   5.688   3.781 -0.1145  0.1903 -0.2104
 7828SOL    HW231078   2.723   5.772   3.736 -0.3827  1.0037  1.1706
 7828SOL    HW331079   2.797   5.666   3.814 -0.2557  0.5011  0.3803
 7828SOL    MW431080   2.723   5.696   3.779 -0.1685  0.3386  0.0498
 7829SOL     OW31081   2.371   4.013   0.289  0.4670  0.0429 -0.0637
 7829SOL    HW231082   2.353   3.990   0.198  1.8939  0.8211 -0.5631
 7829SOL    HW331083   2.354   4.107   0.295  0.7993  0.0794  0.3682
 7829SOL    MW431084   2.366   4.022   0.278  0.6991  0.1504 -0.0726
 7830SOL     OW31085   2.510   0.028   0.343  0.0927 -0.0645 -0.3384
 7830SOL    HW231086   2.588   0.084   0.349  0.4340 -0.5754  0.0399
 7830SOL    HW331087   2.471   0.031   0.430  1.1891 -1.9451  0.2568
 7830SOL    MW431088   2.515   0.036   0.355  0.2824 -0.3800 -0.2100
 7831SOL     OW31089   5.896   2.752   3.095  0.2233 -0.0622 -0.1767
 7831SOL    HW231090   5.926   2.668   3.060  0.1361  0.5531 -1.8318
 7831SOL    HW331091   5.930   2.754   3.184 -0.3782 -2.1606  0.1691
 7831SOL    MW431092   5.905   2.741   3.102  0.1325 -0.2579 -0.3495
 7832SOL     OW31093   2.085   1.114   1.898  0.2286  0.6958  0.3181
 7832SOL    HW231094   2.115   1.193   1.943 -1.2893  1.4346  0.1117
 7832SOL    HW331095   2.159   1.054   1.902  1.6368  2.3418 -0.0369
 7832SOL    MW431096   2.098   1.116   1.904  0.2141  1.0104  0.2440
 7833SOL     OW31097   3.471   1.051   0.931  0.6405 -0.0651  0.3453
 7833SOL    HW231098   3.533   1.117   0.964 -0.6743  0.3547  2.1012
 7833SOL    HW331099   3.402   1.102   0.889  0.3871 -0.4208  0.3280
 7833SOL    MW431100   3.470   1.067   0.930  0.4336 -0.0567  0.5747
 7834SOL     OW31101   2.181   6.364   6.008  0.6881 -0.8216  0.0777
 7834SOL    HW231102   2.121   6.296   6.040 -1.0595  1.6431  2.5261
 7834SOL    HW331103   2.139   6.399   5.930 -0.4414 -0.0103  1.0238
 7834SOL    MW431104   2.168   6.359   6.002  0.3085 -0.3894  0.5256
 7835SOL     OW31105   2.859   4.652   5.911  0.1231  0.4375  0.6257
 7835SOL    HW231106   2.863   4.631   5.818  0.5945 -1.3317  0.9879
 7835SOL    HW331107   2.909   4.733   5.920  1.8674 -0.4584 -0.4219
 7835SOL    MW431108   2.866   4.660   5.900  0.4154  0.0858  0.5353
 7836SOL     OW31109   2.862   1.986   3.231 -0.0688  0.0715  0.2914
 7836SOL    HW231110   2.820   1.921   3.288 -1.7768  1.2959  0.5212
 7836SOL    HW331111   2.951   1.994   3.265 -0.4961 -0.5588  1.6455
 7836SOL    MW431112   2.868   1.978   3.243 -0.3506  0.1499  0.5003
 7837SOL     OW31113   3.470   3.178   2.469 -0.4703  0.3950 -0.1874
 7837SOL    HW231114   3.458   3.258   2.419  0.0104  0.5178 -0.1156
 7837SOL    HW331115   3.565   3.170   2.478 -0.5304  0.0359  0.1561
 7837SOL    MW431116   3.481   3.187   2.464 -0.4148  0.3638 -0.1326
 7838SOL     OW31117   4.227   2.063   3.591 -0.0848  0.0348 -0.2537
 7838SOL    HW231118   4.175   2.137   3.557  0.8950  1.4110  1.0943
 7838SOL    HW331119   4.315   2.099   3.602  0.3812 -1.3035  0.5873
 7838SOL    MW431120   4.231   2.078   3.588  0.1059  0.0398  0.0351
 7839SOL     OW31121   4.018   1.326   4.268  1.1486 -0.2890 -0.2223
 7839SOL    HW231122   3.940   1.379   4.286  1.7280  0.4043  0.2643
 7839SOL    HW331123   3.989   1.264   4.201  0.6528  1.1190 -1.3691
 7839SOL    MW431124   4.004   1.325   4.261  1.1596 -0.0118 -0.3094
 7840SOL     OW31125   2.157   4.252   1.320  0.0658  0.0901  0.9691
 7840SOL    HW231126   2.114   4.168   1.303 -0.5009  0.5011  0.2824
 7840SOL    HW331127   2.144   4.268   1.413  0.1785 -0.5843  1.1015
 7840SOL    MW431128   2.150   4.243   1.330  0.0059  0.0553  0.8960
 7841SOL     OW31129   2.510   0.114   1.095  0.0196  0.0759 -0.3010
 7841SOL    HW231130   2.474   0.086   1.179 -2.7556 -0.9952 -1.7326
 7841SOL    HW331131   2.548   0.034   1.058  2.0460  0.7301  0.2431
 7841SOL    MW431132   2.511   0.099   1.101 -0.0792  0.0209 -0.4181
 7842SOL     OW31133   4.637   3.427   3.318  0.6699 -0.2055  0.1906
 7842SOL    HW231134   4.622   3.508   3.367  1.0858 -0.6899  1.1343
 7842SOL    HW331135   4.549   3.395   3.298  0.4390 -0.8854  2.1111
 7842SOL    MW431136   4.623   3.434   3.322  0.6943 -0.3591  0.5685
 7843SOL     OW31137   0.269   5.032   4.076  0.3334  0.4530 -0.3791
 7843SOL    HW231138   0.178   5.033   4.106  0.3472 -1.0716 -0.1968
 7843SOL    HW331139   0.267   5.078   3.992 -0.8216 -0.4642 -0.8874
 7843SOL    MW431140   0.257   5.038   4.069  0.1828  0.1309 -0.4221
 7844SOL     OW31141   0.133   4.770   3.368 -0.1752 -0.3734  0.1366
 7844SOL    HW231142   0.043   4.737   3.369  0.2121 -1.6360 -1.5661
 7844SOL    HW331143   0.125   4.863   3.348 -1.0903 -0.6026 -0.6152
 7844SOL    MW431144   0.120   4.778   3.365 -0.2448 -0.5703 -0.1872
 7845SOL     OW31145   1.509   2.220   0.047  0.5890  0.2275 -0.0792
 7845SOL    HW231146   1.506   2.163  -0.030  1.1685  0.1809 -0.0710
 7845SOL    HW331147   1.590   2.271   0.036  0.6367  0.2687  0.4655
 7845SOL    MW431148   1.520   2.219   0.035  0.6717  0.2268 -0.0063
 7846SOL     OW31149   4.142   2.278   3.428 -0.7290 -0.7912  0.8513
 7846SOL    HW231150   4.074   2.303   3.366 -2.2389 -2.2764  1.8220
 7846SOL    HW331151   4.187   2.359   3.449  0.6127 -0.3639 -2.9833
 7846SOL    MW431152   4.139   2.292   3.423 -0.7512 -0.9308  0.4734
 7847SOL     OW31153   5.535   1.599   6.131  0.1723 -0.0034  0.0222
 7847SOL    HW231154   5.567   1.643   6.052  1.2559 -0.2932  0.2875
 7847SOL    HW331155   5.604   1.537   6.155 -0.6675 -0.7857  0.5197
 7847SOL    MW431156   5.548   1.597   6.124  0.2045 -0.1448  0.1228
 7848SOL     OW31157   2.354   5.990   0.643 -0.5287  0.1356 -0.0389
 7848SOL    HW231158   2.382   5.929   0.575 -2.3296 -0.0357 -0.6891
 7848SOL    HW331159   2.403   5.963   0.721  0.0607 -0.9568 -0.7623
 7848SOL    MW431160   2.364   5.978   0.645 -0.6886 -0.0311 -0.2201
 7849SOL     OW31161   0.697   4.008   1.446 -0.0550  0.4735  0.4375
 7849SOL    HW231162   0.747   4.038   1.523 -0.0000  2.8320 -0.4243
 7849SOL    HW331163   0.626   3.956   1.482 -0.5315  2.2129  2.2198
 7849SOL    MW431164   0.694   4.005   1.461 -0.1106  1.0142  0.5590
 7850SOL     OW31165   2.097   6.108   3.280 -0.6191 -0.1068  0.0938
 7850SOL    HW231166   2.010   6.075   3.257 -0.0828 -0.2783 -1.7853
 7850SOL    HW331167   2.156   6.035   3.262  0.0039  0.1899  0.8440
 7850SOL    MW431168   2.094   6.094   3.275 -0.4662 -0.0903 -0.0551
 7851SOL     OW31169   2.005   0.482   4.098  0.2019 -0.2314 -0.4094
 7851SOL    HW231170   2.090   0.436   4.095  0.4849  0.3108 -3.1796
 7851SOL    HW331171   1.957   0.448   4.023 -0.5059  2.2301 -1.1529
 7851SOL    MW431172   2.010   0.471   4.088  0.1459  0.1649 -0.8730
 7852SOL     OW31173   0.176   5.470   0.756 -0.5476  0.0390 -0.2397
 7852SOL    HW231174   0.245   5.511   0.808  0.1401 -0.6854 -0.5532
 7852SOL    HW331175   0.094   5.500   0.796 -0.0419 -0.3324  1.1327
 7852SOL    MW431176   0.174   5.479   0.768 -0.3901 -0.1056 -0.1000
 7853SOL     OW31177   5.845   3.477   0.655  0.3900  0.8258 -0.2825
 7853SOL    HW231178   5.882   3.437   0.576 -2.5878  0.9264 -1.8436
 7853SOL    HW331179   5.799   3.405   0.698  1.9799  0.7780  1.4483
 7853SOL    MW431180   5.844   3.462   0.650  0.2069  0.8328 -0.2601
 7854SOL     OW31181   2.131   5.784   5.191 -0.2816  0.2617  0.3712
 7854SOL    HW231182   2.118   5.695   5.157 -0.3836  0.9094 -1.4235
 7854SOL    HW331183   2.050   5.804   5.238 -0.3383 -0.5219  0.6075
 7854SOL    MW431184   2.118   5.775   5.192 -0.3025  0.2438  0.1656
 7855SOL     OW31185   5.287   3.537   0.762 -0.0805  0.5527 -0.3397
 7855SOL    HW231186   5.250   3.535   0.850 -0.3008 -1.1480 -0.4337
 7855SOL    HW331187   5.373   3.577   0.773  0.8073 -1.5621  1.0743
 7855SOL    MW431188   5.294   3.542   0.775  0.0076  0.0493 -0.1656
 7856SOL     OW31189   2.365   6.172   6.183  0.4879  0.0969  0.0885
 7856SOL    HW231190   2.348   6.176   6.089 -0.2591  2.1414  0.2749
 7856SOL    HW331191   2.295   6.224   6.223  0.4046 -1.2656  1.8518
 7856SOL    MW431192   2.353   6.179   6.176  0.3783  0.1869  0.3458
 7857SOL     OW31193   5.343   3.224   4.100 -0.0871 -0.4114  0.1254
 7857SOL    HW231194   5.312   3.285   4.167 -3.3785 -1.1607 -0.4925
 7857SOL    HW331195   5.355   3.277   4.022 -0.8445 -0.1902  0.1467
 7857SOL    MW431196   5.340   3.239   4.099 -0.6213 -0.4811  0.0467
 7858SOL     OW31197   4.950   5.560   5.656 -0.1179  0.1236  0.2416
 7858SOL    HW231198   4.913   5.473   5.674  0.5053 -0.3319 -0.6047
 7858SOL    HW331199   4.914   5.583   5.571 -0.2934  0.7171  0.4742
 7858SOL    MW431200   4.940   5.551   5.647 -0.0588  0.1418  0.1606
 7859SOL     OW31201   4.909   2.084   0.590 -0.0572  0.0232 -0.2460
 7859SOL    HW231202   4.944   2.043   0.669  0.0107  0.2824 -0.1399
 7859SOL    HW331203   4.815   2.062   0.592 -0.4251  1.4897  0.8516
 7859SOL    MW431204   4.901   2.076   0.601 -0.0968  0.2509 -0.0872
 7860SOL     OW31205   6.368   3.699   1.185  0.0685 -0.4906  0.0631
 7860SOL    HW231206   6.423   3.775   1.165  0.1031 -0.1023  1.5020
 7860SOL    HW331207   6.399   3.630   1.126  0.4891  0.4029 -0.7933
 7860SOL    MW431208   6.379   3.700   1.174  0.1285 -0.3215  0.1400
 7861SOL     OW31209   1.013   5.232   5.295  0.2682 -0.3932  0.2366
 7861SOL    HW231210   1.087   5.195   5.247  0.2509  0.4092 -0.4328
 7861SOL    HW331211   0.949   5.254   5.227  0.3101  0.9178  0.5944
 7861SOL    MW431212   1.014   5.230   5.279  0.2714 -0.1144  0.1955
 7862SOL     OW31213   0.212   6.429   0.218 -0.1068 -0.2614 -0.2940
 7862SOL    HW231214   0.167   6.497   0.167  0.1858  0.3314  0.2245
 7862SOL    HW331215   0.292   6.411   0.169  0.2501  0.4208  0.0306
 7862SOL    MW431216   0.217   6.436   0.204 -0.0211 -0.0932 -0.1828
 7863SOL     OW31217   6.222   0.988   6.410  0.1530 -0.3858 -0.3731
 7863SOL    HW231218   6.263   1.057   6.358  2.1501  0.2752  1.8738
 7863SOL    HW331219   6.295   0.943   6.452 -1.2902 -1.5991  0.9643
 7863SOL    MW431220   6.237   0.991   6.409  0.2261 -0.4587  0.0998
 7864SOL     OW31221   3.488   3.176   1.674 -0.1636 -0.0710 -0.1336
 7864SOL    HW231222   3.472   3.094   1.628 -0.0469  0.7024 -1.6131
 7864SOL    HW331223   3.491   3.152   1.766  1.8938 -2.0704 -0.6397
 7864SOL    MW431224   3.487   3.162   1.680  0.1232 -0.2328 -0.3956
 7865SOL     OW31225   6.286   0.740   4.857 -0.3757 -0.3987 -0.4508
 7865SOL    HW231226   6.273   0.830   4.825 -1.7722 -0.2746  0.3966
 7865SOL    HW331227   6.199   0.710   4.879  0.2231 -1.5548  0.4187
 7865SOL    MW431228   6.273   0.748   4.856 -0.4810 -0.5348 -0.2243
 7866SOL     OW31229   6.345   6.114   1.047 -0.3248  0.3440 -0.1963
 7866SOL    HW231230   6.322   6.077   1.132 -0.4535 -1.0490 -0.8122
 7866SOL    HW331231   6.432   6.151   1.059 -0.8799  1.3634  0.8832
 7866SOL    MW431232   6.353   6.114   1.060 -0.4150  0.2947 -0.1351
 7867SOL     OW31233   3.155   4.820   1.220  0.1312 -0.0214  0.0024
 7867SOL    HW231234   3.086   4.867   1.267 -0.6661 -1.6087  0.4939
 7867SOL    HW331235   3.142   4.729   1.245 -0.4876 -1.0134 -3.4598
 7867SOL    MW431236   3.144   4.814   1.230 -0.0557 -0.3617 -0.3895
 7868SOL     OW31237   2.098   3.077   4.277  0.2730  1.0014 -0.1495
 7868SOL    HW231238   2.174   3.115   4.320 -0.1116  1.2042  0.3592
 7868SOL    HW331239   2.100   2.984   4.299  0.4168  0.9902 -0.2089
 7868SOL    MW431240   2.108   3.070   4.285  0.2412  1.0266 -0.0902
 7869SOL     OW31241   2.903   1.331   6.239  0.1768 -0.1626 -0.5876
 7869SOL    HW231242   2.835   1.267   6.217  0.5259 -0.0959 -1.9162
 7869SOL    HW331243   2.973   1.278   6.278  0.0774 -0.4592 -0.8096
 7869SOL    MW431244   2.903   1.315   6.242  0.2098 -0.1929 -0.7922
 7870SOL     OW31245   2.529   2.010   0.830  0.7333 -0.0920  0.2463
 7870SOL    HW231246   2.516   2.103   0.811  0.8017 -0.2561 -0.6612
 7870SOL    HW331247   2.486   1.965   0.757  1.2740 -0.7553  0.3297
 7870SOL    MW431248   2.521   2.016   0.818  0.8136 -0.2012  0.1376
 7871SOL     OW31249   2.135   1.823   1.002  0.1861  0.4588  0.0349
 7871SOL    HW231250   2.057   1.862   0.961 -0.2651 -0.0451  0.4066
 7871SOL    HW331251   2.181   1.780   0.930 -1.0991 -1.2420  0.1737
 7871SOL    MW431252   2.131   1.823   0.987 -0.0430  0.1679  0.1022
 7872SOL     OW31253   5.684   3.121   3.611 -0.8688  0.4536 -0.3176
 7872SOL    HW231254   5.746   3.105   3.682 -1.5015 -0.0951  0.1265
 7872SOL    HW331255   5.739   3.139   3.535 -0.1768  0.6588  0.2192
 7872SOL    MW431256   5.700   3.121   3.610 -0.8610  0.4082 -0.1882
 7873SOL     OW31257   5.738   4.684   0.512 -0.2608  0.4399  0.1042
 7873SOL    HW231258   5.786   4.647   0.438  1.0883  1.4249  0.4428
 7873SOL    HW331259   5.658   4.632   0.517  0.8110 -1.3575 -0.4129
 7873SOL    MW431260   5.734   4.672   0.503  0.0586  0.3327  0.0807
 7874SOL     OW31261   3.886   3.777   4.099 -0.1524 -0.1185  0.1455
 7874SOL    HW231262   3.822   3.791   4.169  0.4236 -1.3083  0.9453
 7874SOL    HW331263   3.864   3.691   4.064 -0.6823  0.6224 -1.4476
 7874SOL    MW431264   3.875   3.767   4.103 -0.1463 -0.1778  0.0408
 7875SOL     OW31265   5.109   3.998   4.613 -0.2237 -0.3572 -0.0464
 7875SOL    HW231266   5.015   4.013   4.601 -0.1421  2.5099  1.9166
 7875SOL    HW331267   5.114   3.924   4.673 -1.1729 -0.9669 -0.6849
 7875SOL    MW431268   5.097   3.990   4.619 -0.3382 -0.0593  0.1283
 7876SOL     OW31269   3.712   4.712   4.434 -0.2049  0.7953 -0.2654
 7876SOL    HW231270   3.622   4.685   4.414 -1.4268  2.2842  2.5453
 7876SOL    HW331271   3.744   4.645   4.494  0.2024  0.7383 -0.5508
 7876SOL    MW431272   3.704   4.700   4.439 -0.3124  0.9842  0.0677
 7877SOL     OW31273   0.581   1.032   1.682  0.0799  0.4953 -0.4355
 7877SOL    HW231274   0.501   1.000   1.723 -0.8412  0.9543 -1.8046
 7877SOL    HW331275   0.576   1.000   1.592  2.2006 -0.7891 -0.1730
 7877SOL    MW431276   0.570   1.023   1.675  0.2382  0.3864 -0.5815
 7878SOL     OW31277   0.474   4.025   4.332  0.7563 -0.2504  1.0757
 7878SOL    HW231278   0.566   4.036   4.357  1.0030 -1.2827  0.6523
 7878SOL    HW331279   0.457   3.932   4.342  0.3173 -0.3989 -0.8014
 7878SOL    MW431280   0.484   4.014   4.337  0.7309 -0.4062  0.7722
 7879SOL     OW31281   2.902   5.277   4.602 -1.2189  0.1496  0.0690
 7879SOL    HW231282   2.839   5.255   4.534 -2.2385  1.2796  0.6018
 7879SOL    HW331283   2.849   5.286   4.681 -0.2023 -0.1047  0.7950
 7879SOL    MW431284   2.887   5.275   4.603 -1.2193  0.2651  0.2351
 7880SOL     OW31285   4.325   0.225   3.523 -0.3412 -0.2577  0.2903
 7880SOL    HW231286   4.390   0.155   3.530 -0.1652 -0.0119  1.3344
 7880SOL    HW331287   4.241   0.179   3.531 -0.2638 -0.4627 -0.0460
 7880SOL    MW431288   4.322   0.209   3.525 -0.3078 -0.2523  0.3837
 7881SOL     OW31289   1.468   0.147   4.707  0.1383 -0.0574  0.3577
 7881SOL    HW231290   1.456   0.214   4.775 -0.4039  0.5753 -0.3395
 7881SOL    HW331291   1.563   0.132   4.705  0.1984  0.2188  0.9758
 7881SOL    MW431292   1.479   0.154   4.715  0.0747  0.0625  0.3473
 7882SOL     OW31293   4.600   5.089   2.321  0.0111 -0.3443 -0.1161
 7882SOL    HW231294   4.506   5.070   2.321 -0.0604 -0.0254  0.5637
 7882SOL    HW331295   4.623   5.099   2.228 -0.4982 -1.0227 -0.3200
 7882SOL    MW431296   4.591   5.088   2.309 -0.0655 -0.3918 -0.0533
 7883SOL     OW31297   3.912   0.671   1.902  0.4179 -0.1781  0.3092
 7883SOL    HW231298   3.904   0.756   1.945 -0.5434  0.2203 -0.5946
 7883SOL    HW331299   3.996   0.674   1.857  1.2510 -0.4511  1.7754
 7883SOL    MW431300   3.922   0.682   1.902  0.4010 -0.1615  0.3834
 7884SOL     OW31301   5.454   4.093   2.878  1.1318  0.6603  0.4055
 7884SOL    HW231302   5.477   4.014   2.830  0.0686 -0.7917  2.1515
 7884SOL    HW331303   5.364   4.078   2.907  1.6405  1.5064  2.6368
 7884SOL    MW431304   5.445   4.081   2.875  1.0586  0.5803  0.9302
 7885SOL     OW31305   1.457   2.834   0.801 -0.0543 -0.1764  0.4749
 7885SOL    HW231306   1.499   2.857   0.718  0.6112 -0.4458  0.7283
 7885SOL    HW331307   1.378   2.787   0.776 -2.1791  3.3203 -0.1161
 7885SOL    MW431308   1.452   2.831   0.787 -0.2468  0.2494  0.4304
 7886SOL     OW31309   3.478   5.380   4.013  0.0506 -0.1337  0.0289
 7886SOL    HW231310   3.545   5.425   4.065 -0.0867 -0.1618  0.2312
 7886SOL    HW331311   3.477   5.290   4.046 -0.1932 -0.0946  0.1381
 7886SOL    MW431312   3.487   5.374   4.024  0.0003 -0.1322  0.0700
 7887SOL     OW31313   2.151   5.469   5.944  0.5965  0.2000 -0.1444
 7887SOL    HW231314   2.186   5.558   5.952 -0.0466  0.5522 -1.0110
 7887SOL    HW331315   2.123   5.446   6.032  0.8405  0.8334  0.1038
 7887SOL    MW431316   2.152   5.478   5.957  0.5438  0.3300 -0.2260
 7888SOL     OW31317   1.002   3.241   2.217  0.0517  0.2152 -0.4152
 7888SOL    HW231318   0.987   3.319   2.164 -1.5908 -0.1978 -0.6400
 7888SOL    HW331319   1.081   3.202   2.181  0.2167  1.1340 -1.0948
 7888SOL    MW431320   1.010   3.246   2.205 -0.1432  0.2819 -0.5346
 7889SOL     OW31321   1.041   2.881   2.399  0.0595  0.2950 -0.3480
 7889SOL    HW231322   1.064   2.870   2.307  1.7001 -1.1438  0.1928
 7889SOL    HW331323   1.117   2.924   2.438 -0.5064  0.6323  0.4118
 7889SOL    MW431324   1.054   2.885   2.392  0.2013  0.1497 -0.1764
 7890SOL     OW31325   3.189   3.278   6.022 -1.1522 -0.3441 -0.0815
 7890SOL    HW231326   3.125   3.348   6.031 -1.6631 -0.6947 -0.9088
 7890SOL    HW331327   3.212   3.279   5.929 -1.1272 -1.2383 -0.0886
 7890SOL    MW431328   3.184   3.288   6.011 -1.2163 -0.5084 -0.1916
 7891SOL     OW31329   4.111   2.245   5.398  0.2092  0.2308  0.2582
 7891SOL    HW231330   4.045   2.301   5.357  1.3215  2.0885  0.8921
 7891SOL    HW331331   4.161   2.304   5.455  1.6478 -1.3526  0.7232
 7891SOL    MW431332   4.109   2.260   5.400  0.5458  0.2670  0.4032
 7892SOL     OW31333   4.849   1.854   2.959 -0.0700  0.2002 -0.5495
 7892SOL    HW231334   4.888   1.902   3.032 -0.3302 -0.3791 -0.0234
 7892SOL    HW331335   4.920   1.845   2.896  0.6251 -0.7033  0.3333
 7892SOL    MW431336   4.864   1.859   2.960 -0.0127  0.0045 -0.3636
 7893SOL     OW31337   1.791   4.063   4.766  0.6530 -0.5351 -0.1862
 7893SOL    HW231338   1.781   4.141   4.712  1.3473 -0.2168  0.1342
 7893SOL    HW331339   1.731   4.077   4.840  0.0578 -0.7543 -0.6206
 7893SOL    MW431340   1.781   4.075   4.769  0.6661 -0.5220 -0.2012
 7894SOL     OW31341   4.078   3.446   4.247 -0.2134 -0.4344 -0.2900
 7894SOL    HW231342   4.008   3.510   4.264  1.3722  1.4273 -0.4301
 7894SOL    HW331343   4.047   3.366   4.290 -1.7953  0.7154  0.8764
 7894SOL    MW431344   4.064   3.444   4.255 -0.2129 -0.0371 -0.1546
 7895SOL     OW31345   5.212   1.360   2.188  0.0007  0.1768 -0.0645
 7895SOL    HW231346   5.138   1.386   2.132  0.1195  0.6151 -0.0162
 7895SOL    HW331347   5.288   1.365   2.130 -0.2866 -2.7267 -0.8686
 7895SOL    MW431348   5.212   1.364   2.173 -0.0216 -0.1485 -0.1642
 7896SOL     OW31349   0.658   5.860   2.297  0.4039 -0.2117 -0.0169
 7896SOL    HW231350   0.573   5.872   2.253  0.3468  0.6156  0.2987
 7896SOL    HW331351   0.669   5.765   2.302  1.1260 -0.4214 -3.1680
 7896SOL    MW431352   0.648   5.849   2.292  0.4916 -0.1302 -0.3910
 7897SOL     OW31353   5.272   0.487   6.005 -0.0189  0.0401  0.1368
 7897SOL    HW231354   5.318   0.403   6.014 -1.3400 -0.9684 -1.8655
 7897SOL    HW331355   5.199   0.481   6.066  1.0909  0.7144  1.6247
 7897SOL    MW431356   5.269   0.475   6.014 -0.0468 -0.0040  0.0689
 7898SOL     OW31357   4.962   1.784   3.754 -0.0933 -0.8427  0.1232
 7898SOL    HW231358   4.911   1.724   3.699 -3.3102  2.9376 -1.4989
 7898SOL    HW331359   5.045   1.793   3.708 -0.1604 -2.6907 -0.4646
 7898SOL    MW431360   4.966   1.777   3.741 -0.5266 -0.5877 -0.1684
 7899SOL     OW31361   2.858   3.619   5.758 -0.4214  0.0150  0.4823
 7899SOL    HW231362   2.830   3.527   5.768 -2.4281  0.3136 -1.5681
 7899SOL    HW331363   2.786   3.670   5.795 -0.9030  0.7667 -1.3690
 7899SOL    MW431364   2.845   3.613   5.764 -0.7497  0.1536 -0.0324
 7900SOL     OW31365   1.464   3.939   3.537 -0.3602  0.0889  0.0744
 7900SOL    HW231366   1.377   3.960   3.502  1.1525  1.9143 -3.1170
 7900SOL    HW331367   1.480   4.006   3.603 -0.1133  2.0811 -1.8639
 7900SOL    MW431368   1.454   3.951   3.541 -0.1280  0.5926 -0.6024
 7901SOL     OW31369   5.828   4.945   2.619 -0.3943 -0.0214  0.3672
 7901SOL    HW231370   5.748   4.966   2.668 -0.8369 -0.8412  0.0215
 7901SOL    HW331371   5.884   4.901   2.683 -0.3912  0.1640  0.4945
 7901SOL    MW431372   5.825   4.942   2.634 -0.4523 -0.1051  0.3384
 7902SOL     OW31373   2.438   2.938   2.127 -0.2432 -0.2035  0.0991
 7902SOL    HW231374   2.516   2.990   2.107  0.2408 -0.3342  1.5237
 7902SOL    HW331375   2.465   2.881   2.199 -2.0281  0.7450  1.6324
 7902SOL    MW431376   2.452   2.938   2.134 -0.4148 -0.0956  0.4893
 7903SOL     OW31377   3.713   4.692   5.144 -0.2314  0.2356 -0.0353
 7903SOL    HW231378   3.726   4.599   5.162 -0.2757 -0.0066 -1.1382
 7903SOL    HW331379   3.779   4.712   5.077 -2.2948  0.1664 -2.2204
 7903SOL    MW431380   3.723   4.682   5.137 -0.5095  0.1945 -0.4691
 7904SOL     OW31381   0.137   4.397   1.610 -0.8377  0.0509 -0.0907
 7904SOL    HW231382   0.143   4.327   1.545  1.1184  0.9857 -0.9942
 7904SOL    HW331383   0.086   4.465   1.567 -0.1106  0.4002 -0.4177
 7904SOL    MW431384   0.131   4.397   1.596 -0.4837  0.2203 -0.2530
 7905SOL     OW31385   3.382   0.560   6.414 -0.5695  0.1599 -0.4970
 7905SOL    HW231386   3.397   0.634   6.355  2.8888  0.2723  0.3311
 7905SOL    HW331387   3.408   0.593   6.500  0.1643 -1.7426  0.0462
 7905SOL    MW431388   3.387   0.574   6.417 -0.0164 -0.0763 -0.3161
 7906SOL     OW31389   2.178   0.041   5.543 -0.9678 -0.3097  0.8604
 7906SOL    HW231390   2.109   0.001   5.490 -1.6544 -1.7652  2.7286
 7906SOL    HW331391   2.181   0.131   5.513  0.0211 -1.4276 -2.9338
 7906SOL    MW431392   2.169   0.047   5.532 -0.9279 -0.6492  0.6063
 7907SOL     OW31393   3.888   6.154   1.000 -0.0691  0.0187  0.2044
 7907SOL    HW231394   3.798   6.126   0.986  0.0249  0.0526 -0.4746
 7907SOL    HW331395   3.906   6.129   1.091 -0.3629 -1.0803 -0.0228
 7907SOL    MW431396   3.878   6.147   1.010 -0.0955 -0.1218  0.0848
 7908SOL     OW31397   2.683   5.431   1.021 -0.1310  0.4552 -0.5989
 7908SOL    HW231398   2.652   5.424   1.111 -3.8642 -2.1416 -1.8236
 7908SOL    HW331399   2.708   5.523   1.011 -3.2548  1.7806  2.0926
 7908SOL    MW431400   2.682   5.442   1.031 -1.0357  0.2875 -0.4054
 7909SOL     OW31401   2.353   3.181   2.468 -0.0812 -0.3880  0.2192
 7909SOL    HW231402   2.287   3.156   2.402 -0.6788 -1.4437  1.1808
 7909SOL    HW331403   2.304   3.184   2.550  0.7666  0.4022  0.7148
 7909SOL    MW431404   2.338   3.179   2.470 -0.0482 -0.4230  0.4115
 7910SOL     OW31405   0.643   0.274   2.027  0.5421 -0.0213 -0.1467
 7910SOL    HW231406   0.561   0.234   2.055 -0.1019  1.6488  0.4463
 7910SOL    HW331407   0.657   0.347   2.088  1.8364  0.4600 -0.9729
 7910SOL    MW431408   0.634   0.279   2.038  0.6279  0.2625 -0.1775
 7911SOL     OW31409   2.196   2.913   1.465  0.4930 -0.3007  0.5784
 7911SOL    HW231410   2.121   2.920   1.524  0.6084 -0.1733  0.7084
 7911SOL    HW331411   2.168   2.850   1.398 -0.5003  1.2362 -0.5121
 7911SOL    MW431412   2.182   2.906   1.464  0.3771 -0.0811  0.4517
 7912SOL     OW31413   4.174   3.285   1.834  0.1988 -0.2639  0.2770
 7912SOL    HW231414   4.141   3.265   1.922 -1.5935  1.9796  0.2128
 7912SOL    HW331415   4.190   3.199   1.794 -2.5867 -1.4991  1.5149
 7912SOL    MW431416   4.172   3.271   1.840 -0.4052 -0.1309  0.4319
 7913SOL     OW31417   6.198   3.927   6.382  0.3816 -0.0747  0.0838
 7913SOL    HW231418   6.154   3.930   6.467 -0.0990 -1.0407 -0.1239
 7913SOL    HW331419   6.268   3.863   6.393 -0.9196 -1.7010 -0.8053
 7913SOL    MW431420   6.202   3.919   6.395  0.1465 -0.4167 -0.0609
 7914SOL     OW31421   6.292   3.593   0.764  0.1764 -0.1798  0.1776
 7914SOL    HW231422   6.360   3.652   0.733  0.6374 -0.7794  0.0387
 7914SOL    HW331423   6.211   3.644   0.754  0.1661 -0.5705 -2.7788
 7914SOL    MW431424   6.290   3.608   0.758  0.2359 -0.3104 -0.2308
 7915SOL     OW31425   5.306   3.835   0.224 -0.3397 -0.2501  0.6456
 7915SOL    HW231426   5.328   3.781   0.300 -0.7913  0.5649  1.3685
 7915SOL    HW331427   5.217   3.866   0.241 -0.5318 -0.2396 -0.3307
 7915SOL    MW431428   5.297   3.832   0.236 -0.4246 -0.1412  0.6122
 7916SOL     OW31429   0.495   2.435   1.794 -0.6336 -0.0841 -0.1258
 7916SOL    HW231430   0.574   2.459   1.746 -0.9812  2.6659  0.4762
 7916SOL    HW331431   0.508   2.472   1.882 -1.5660 -1.7518  0.7711
 7916SOL    MW431432   0.507   2.443   1.800 -0.8025  0.0587  0.0720
 7917SOL     OW31433   0.527   6.181   2.320  0.0166 -0.1883  0.2390
 7917SOL    HW231434   0.453   6.165   2.378  0.0888  0.0552  0.4022
 7917SOL    HW331435   0.494   6.245   2.256 -0.1818 -0.7513 -0.2292
 7917SOL    MW431436   0.513   6.188   2.319 -0.0000 -0.2305  0.1987
 7918SOL     OW31437   1.786   0.785   3.385 -0.2960  0.0493  0.1555
 7918SOL    HW231438   1.777   0.690   3.383 -1.7703  0.1688 -0.9481
 7918SOL    HW331439   1.865   0.803   3.334  0.1986 -0.5987  0.6871
 7918SOL    MW431440   1.795   0.775   3.378 -0.4253 -0.0204  0.0800
 7919SOL     OW31441   5.967   1.835   3.384 -0.2083  0.4375  0.1330
 7919SOL    HW231442   5.896   1.804   3.440 -1.0780  0.3447 -0.9735
 7919SOL    HW331443   6.002   1.755   3.345  1.5286  0.3201  1.7731
 7919SOL    MW431444   5.962   1.820   3.386 -0.0939  0.4097  0.2034
 7920SOL     OW31445   5.027   1.676   1.415 -0.0818 -0.2100 -0.6067
 7920SOL    HW231446   5.118   1.656   1.434 -0.3735 -1.1697 -0.1894
 7920SOL    HW331447   4.983   1.591   1.411 -0.4979  0.0283 -3.3621
 7920SOL    MW431448   5.033   1.662   1.417 -0.1752 -0.3052 -0.9152
 7921SOL     OW31449   5.265   4.178   5.309  0.5025 -0.1372  0.5008
 7921SOL    HW231450   5.182   4.212   5.343 -0.4018 -1.5175 -0.2088
 7921SOL    HW331451   5.321   4.255   5.300 -1.3451  1.1507 -0.7708
 7921SOL    MW431452   5.261   4.193   5.312  0.1394 -0.1494  0.2394
 7922SOL     OW31453   4.770   5.456   0.311 -0.2724 -0.2817 -0.6042
 7922SOL    HW231454   4.767   5.404   0.391 -0.6836  0.1304 -0.3450
 7922SOL    HW331455   4.686   5.502   0.309  0.1056  0.4230 -0.7910
 7922SOL    MW431456   4.758   5.455   0.321 -0.2768 -0.1344 -0.5947
 7923SOL     OW31457   3.752   3.775   1.135  0.1540 -0.0535 -0.0144
 7923SOL    HW231458   3.715   3.770   1.047 -1.6916  0.6361  0.6511
 7923SOL    HW331459   3.793   3.861   1.139  0.8799 -0.3718 -0.4057
 7923SOL    MW431460   3.752   3.786   1.124  0.0062 -0.0045  0.0218
 7924SOL     OW31461   0.056   5.559   1.109 -0.2766 -0.0414  0.2734
 7924SOL    HW231462   0.105   5.478   1.124 -1.4326 -0.7865  0.1114
 7924SOL    HW331463   0.079   5.614   1.184  0.9640 -0.2859  0.0935
 7924SOL    MW431464   0.065   5.556   1.121 -0.2654 -0.1720  0.2283
 7925SOL     OW31465   2.291   5.682   2.604  0.5464 -0.0883  0.3851
 7925SOL    HW231466   2.257   5.662   2.691  2.7396  2.3546  1.9640
 7925SOL    HW331467   2.214   5.685   2.548 -0.9242 -2.0245  2.1290
 7925SOL    MW431468   2.277   5.679   2.608  0.6417 -0.0214  0.8235
 7926SOL     OW31469   4.140   3.533   2.896  0.2423  0.1802 -0.2948
 7926SOL    HW231470   4.227   3.563   2.868 -0.3234  0.7928 -1.4515
 7926SOL    HW331471   4.125   3.453   2.846 -0.7502  1.2489 -1.7877
 7926SOL    MW431472   4.150   3.527   2.886  0.0367  0.4020 -0.6444
 7927SOL     OW31473   1.179   4.583   2.045 -0.2680 -0.1964  0.4829
 7927SOL    HW231474   1.141   4.663   2.082  0.0498  0.1702  0.0307
 7927SOL    HW331475   1.117   4.558   1.977  0.0360  0.1217  0.0824
 7927SOL    MW431476   1.166   4.591   2.041 -0.1859 -0.1060  0.3704
 7928SOL     OW31477   2.138   0.950   3.349  0.3639  0.2479  0.4136
 7928SOL    HW231478   2.209   0.896   3.315  0.8784  0.1748  1.5587
 7928SOL    HW331479   2.150   0.949   3.444  0.1431  2.0346  0.4916
 7928SOL    MW431480   2.149   0.943   3.357  0.4026  0.4740  0.5750
 7929SOL     OW31481   6.424   1.367   1.469  0.6744 -0.4709  0.3296
 7929SOL    HW231482   6.450   1.457   1.448 -0.7635 -0.2924 -0.8327
 7929SOL    HW331483   6.395   1.372   1.561  0.4689  0.2965  0.2314
 7929SOL    MW431484   6.423   1.380   1.479  0.4576 -0.3461  0.1633
 7930SOL     OW31485   3.731   6.170   4.012 -0.6294 -0.3911  0.0743
 7930SOL    HW231486   3.678   6.153   4.090 -2.0463  1.3388 -0.4444
 7930SOL    HW331487   3.801   6.228   4.041 -0.5139 -0.6253  0.2652
 7930SOL    MW431488   3.733   6.175   4.026 -0.8011 -0.1938  0.0310
 7931SOL     OW31489   4.810   3.741   0.421 -0.4116 -0.0177 -0.3168
 7931SOL    HW231490   4.792   3.658   0.466 -0.5427  0.5872  0.7694
 7931SOL    HW331491   4.822   3.804   0.491  0.5343  0.7231 -1.1211
 7931SOL    MW431492   4.809   3.738   0.436 -0.3041  0.1598 -0.2796
 7932SOL     OW31493   1.011   1.515   4.824 -0.0555 -0.3097 -0.0763
 7932SOL    HW231494   1.016   1.598   4.776 -0.6043  0.5058  1.2374
 7932SOL    HW331495   1.077   1.460   4.782  1.2489  1.2270 -0.1482
 7932SOL    MW431496   1.021   1.519   4.812  0.0442  0.0006  0.0875
 7933SOL     OW31497   2.982   0.723   6.160  0.3578 -0.4325 -0.4298
 7933SOL    HW231498   2.899   0.718   6.208  0.0573  1.8310 -0.6064
 7933SOL    HW331499   3.007   0.631   6.145 -1.2961 -1.1683  0.9934
 7933SOL    MW431500   2.974   0.710   6.165  0.1000 -0.2309 -0.2653
 7934SOL     OW31501   4.991   2.623   4.964  0.4212 -0.2116  0.1246
 7934SOL    HW231502   4.905   2.597   4.930 -0.0445 -1.0100  1.7957
 7934SOL    HW331503   5.053   2.593   4.897 -0.4634 -1.5504 -0.1357
 7934SOL    MW431504   4.988   2.615   4.950  0.2430 -0.4935  0.3108
 7935SOL     OW31505   2.030   3.030   4.914 -0.1945 -0.3188  0.3839
 7935SOL    HW231506   2.041   2.937   4.935 -0.7707  0.1361  3.1821
 7935SOL    HW331507   2.043   3.074   4.998  0.7366  2.2169 -1.0157
 7935SOL    MW431508   2.033   3.023   4.928 -0.1477  0.0758  0.5684
 7936SOL     OW31509   3.810   5.555   3.763  0.1723  0.3187 -0.2767
 7936SOL    HW231510   3.724   5.587   3.738 -0.1554 -1.3532 -1.4425
 7936SOL    HW331511   3.832   5.491   3.696  1.4161 -0.7942  1.1363
 7936SOL    MW431512   3.802   5.551   3.751  0.2931 -0.0487 -0.2441
 7937SOL     OW31513   4.334   5.088   4.132  0.3566 -0.1935 -0.0727
 7937SOL    HW231514   4.308   5.177   4.108 -0.2788 -0.1923  0.5743
 7937SOL    HW331515   4.270   5.062   4.197  2.7460  0.3222  2.6950
 7937SOL    MW431516   4.322   5.097   4.137  0.5880 -0.1253  0.3778
 7938SOL     OW31517   3.356   4.524   1.299 -0.0834  0.1173 -0.2125
 7938SOL    HW231518   3.282   4.573   1.336  0.9780  1.2464  0.4558
 7938SOL    HW331519   3.344   4.435   1.332 -1.4734  0.1251 -0.6198
 7938SOL    MW431520   3.344   4.518   1.308 -0.1267  0.2673 -0.1781
 7939SOL     OW31521   1.561   0.627   0.093  0.0631 -0.1671 -0.5528
 7939SOL    HW231522   1.493   0.564   0.067  0.1950 -1.1413  1.3264
 7939SOL    HW331523   1.518   0.712   0.086 -1.1130 -0.7043 -0.2044
 7939SOL    MW431524   1.546   0.630   0.088 -0.0747 -0.3665 -0.2589
 7940SOL     OW31525   5.051   3.501   0.383 -0.1774 -0.4347 -0.5668
 7940SOL    HW231526   5.034   3.431   0.446  0.6822 -0.5118 -0.4100
 7940SOL    HW331527   5.048   3.581   0.435 -1.7294 -0.2744 -0.8441
 7940SOL    MW431528   5.048   3.502   0.398 -0.2687 -0.4237 -0.5827
 7941SOL     OW31529   4.165   0.596   4.789  0.2075  0.5406  0.0415
 7941SOL    HW231530   4.107   0.561   4.721 -0.2940  0.9398  0.2666
 7941SOL    HW331531   4.245   0.544   4.780 -0.3089 -0.2567 -0.0359
 7941SOL    MW431532   4.168   0.584   4.779  0.0732  0.4881  0.0610
 7942SOL     OW31533   3.256   4.829   4.467 -0.8350 -0.0573  0.2561
 7942SOL    HW231534   3.321   4.759   4.466 -3.1335 -2.4637  3.1364
 7942SOL    HW331535   3.285   4.887   4.538 -0.1007  0.8023 -0.7087
 7942SOL    MW431536   3.269   4.828   4.476 -1.0414 -0.2614  0.5088
 7943SOL     OW31537   6.058   2.897   3.760 -0.0206  0.3234 -0.0579
 7943SOL    HW231538   6.004   2.969   3.792 -0.5862  0.3369 -0.9939
 7943SOL    HW331539   5.996   2.839   3.715  0.4284 -0.7277  0.6272
 7943SOL    MW431540   6.043   2.899   3.758 -0.0360  0.1865 -0.0910
 7944SOL     OW31541   6.388   2.666   3.833 -0.3014 -0.2694  0.1675
 7944SOL    HW231542   6.428   2.618   3.906 -1.8911  0.7226  1.7864
 7944SOL    HW331543   6.461   2.708   3.788  0.6626  0.0398  1.9303
 7944SOL    MW431544   6.403   2.665   3.837 -0.3839 -0.0977  0.6136
 7945SOL     OW31545   2.163   1.806   6.396 -0.3973  0.5031 -0.1954
 7945SOL    HW231546   2.092   1.840   6.451  1.5176  0.6589  2.3594
 7945SOL    HW331547   2.142   1.713   6.384 -2.3094  1.0469 -1.7630
 7945SOL    MW431548   2.151   1.798   6.401 -0.3969  0.5954 -0.0652
 7946SOL     OW31549   5.136   2.928   1.744 -0.1792 -0.6447  0.2921
 7946SOL    HW231550   5.195   3.002   1.734 -1.0882 -0.1349 -1.8496
 7946SOL    HW331551   5.067   2.960   1.802  0.0822 -0.2453  0.3865
 7946SOL    MW431552   5.134   2.942   1.751 -0.2647 -0.5248  0.0220
 7947SOL     OW31553   6.352   2.476   2.294 -0.2839 -0.3520 -0.1786
 7947SOL    HW231554   6.275   2.533   2.303  1.0071  1.2363  1.2952
 7947SOL    HW331555   6.412   2.505   2.362  1.6998 -1.4770 -1.3656
 7947SOL    MW431556   6.350   2.487   2.304  0.1481 -0.2909 -0.1407
 7948SOL     OW31557   3.998   2.832   1.397 -0.4349 -0.5067 -0.5231
 7948SOL    HW231558   4.091   2.830   1.374 -0.5537  0.9150 -1.2499
 7948SOL    HW331559   3.980   2.744   1.430  1.1798 -0.7864 -0.2865
 7948SOL    MW431560   4.008   2.820   1.398 -0.2375 -0.3560 -0.5877
 7949SOL     OW31561   4.623   5.151   5.693 -0.1159  0.4289 -1.0772
 7949SOL    HW231562   4.628   5.080   5.629  0.8732 -0.1544 -0.3700
 7949SOL    HW331563   4.614   5.230   5.639  3.4804  0.2910 -2.1901
 7949SOL    MW431564   4.623   5.152   5.677  0.4891  0.3338 -1.1307
 7950SOL     OW31565   2.136   6.264   3.513  0.0745 -0.1288  0.6088
 7950SOL    HW231566   2.219   6.253   3.559 -0.0833 -1.8560  0.5681
 7950SOL    HW331567   2.138   6.196   3.446 -1.0189  0.3627  0.0624
 7950SOL    MW431568   2.147   6.253   3.510 -0.0906 -0.2918  0.5313
 7951SOL     OW31569   4.777   2.266   4.882  0.0664 -0.2181 -0.1454
 7951SOL    HW231570   4.735   2.204   4.941 -0.2337  1.2028  1.1833
 7951SOL    HW331571   4.802   2.213   4.806  0.5822 -2.1193  1.2817
 7951SOL    MW431572   4.775   2.251   4.879  0.0948 -0.2814  0.2182
 7952SOL     OW31573   1.528   3.827   0.230  0.1574 -0.0018  0.1108
 7952SOL    HW231574   1.592   3.815   0.159  0.1496  0.7591 -0.0267
 7952SOL    HW331575   1.472   3.898   0.200 -2.2835 -2.1565 -0.8784
 7952SOL    MW431576   1.529   3.835   0.216 -0.1657 -0.1857 -0.0378
 7953SOL     OW31577   5.080   4.755   3.373 -0.4037  0.3820 -0.2984
 7953SOL    HW231578   4.991   4.720   3.381 -0.0689 -0.4138  0.0147
 7953SOL    HW331579   5.112   4.761   3.463 -0.7247  2.2514 -0.2751
 7953SOL    MW431580   5.072   4.751   3.386 -0.4019  0.5237 -0.2540
 7954SOL     OW31581   6.150   3.749   0.991 -0.3628 -0.1517  0.0500
 7954SOL    HW231582   6.216   3.731   1.059  1.8444 -1.4129 -2.2685
 7954SOL    HW331583   6.197   3.802   0.927 -2.3321  0.8296 -0.6390
 7954SOL    MW431584   6.165   3.754   0.992 -0.3314 -0.1886 -0.3468
 7955SOL     OW31585   2.735   6.011   4.690  0.0317 -1.0664 -0.1448
 7955SOL    HW231586   2.809   6.046   4.639 -0.5227  0.9747  0.3413
 7955SOL    HW331587   2.664   6.004   4.627 -0.2465  0.0949  0.0080
 7955SOL    MW431588   2.736   6.015   4.675 -0.0782 -0.6439 -0.0605
 7956SOL     OW31589   0.322   6.236   2.801  0.1423 -0.1380  0.4371
 7956SOL    HW231590   0.341   6.296   2.730 -1.7105 -0.7436 -0.6375
 7956SOL    HW331591   0.408   6.201   2.827  0.8619  0.0190 -1.5748
 7956SOL    MW431592   0.336   6.239   2.795 -0.0072 -0.1972  0.0299
 7957SOL     OW31593   0.272   4.130   4.817  0.3900  0.2931 -0.2692
 7957SOL    HW231594   0.223   4.173   4.747 -0.7987 -0.9785 -0.2594
 7957SOL    HW331595   0.217   4.142   4.895  0.4185 -0.5416 -0.1082
 7957SOL    MW431596   0.258   4.137   4.818  0.2369  0.0152 -0.2467
 7958SOL     OW31597   0.301   1.983   0.031 -0.1061  0.4196  0.3440
 7958SOL    HW231598   0.226   1.925   0.045  0.5141 -0.9450 -1.5716
 7958SOL    HW331599   0.331   2.004   0.120 -2.1473  0.2182  1.1233
 7958SOL    MW431600   0.295   1.978   0.045 -0.2936  0.2130  0.1941
 7959SOL     OW31601   6.200   0.194   4.220 -0.4474  0.0745 -0.7121
 7959SOL    HW231602   6.129   0.130   4.213 -0.4424  0.1833 -1.9654
 7959SOL    HW331603   6.212   0.227   4.131  1.0136  0.2408 -0.4871
 7959SOL    MW431604   6.193   0.190   4.208 -0.2540  0.1108 -0.8477
 7960SOL     OW31605   4.612   0.618   2.966  0.0695  0.1399  0.4670
 7960SOL    HW231606   4.537   0.615   3.026  0.1417  1.8385  0.6681
 7960SOL    HW331607   4.665   0.543   2.991 -1.2401 -0.7440  0.7261
 7960SOL    MW431608   4.609   0.607   2.977 -0.0937  0.2474  0.5277
 7961SOL     OW31609   6.188   2.406   0.368 -0.1818 -0.5014  0.1042
 7961SOL    HW231610   6.275   2.442   0.385 -0.1440  0.2358 -1.5787
 7961SOL    HW331611   6.131   2.449   0.432  0.8651 -2.0841  2.2553
 7961SOL    MW431612   6.192   2.416   0.379 -0.0387 -0.6130  0.1660
 7962SOL     OW31613   4.087   4.560   1.301 -0.8024  0.5636  0.0642
 7962SOL    HW231614   4.036   4.606   1.234 -1.7600 -0.3060  0.1745
 7962SOL    HW331615   4.022   4.515   1.355  0.1002 -1.4530 -0.4287
 7962SOL    MW431616   4.072   4.560   1.299 -0.8097  0.1828  0.0137
 7963SOL     OW31617   5.552   5.449   6.313 -0.0799  0.7043 -0.6979
 7963SOL    HW231618   5.568   5.521   6.252  1.7480  0.7241 -0.2449
 7963SOL    HW331619   5.580   5.483   6.398 -2.3029  0.5695  0.1478
 7963SOL    MW431620   5.558   5.463   6.316 -0.1321  0.6891 -0.5265
 7964SOL     OW31621   2.506   5.377   5.412  0.4507 -0.1230 -0.4134
 7964SOL    HW231622   2.494   5.435   5.338  1.8181  0.8896  0.1208
 7964SOL    HW331623   2.463   5.295   5.386 -1.1036  0.9484 -1.3573
 7964SOL    MW431624   2.498   5.374   5.399  0.4260  0.1520 -0.4674
 7965SOL     OW31625   3.394   3.629   0.618  0.3667  0.3116  0.6506
 7965SOL    HW231626   3.342   3.585   0.551  0.1280  0.8306  0.4885
 7965SOL    HW331627   3.478   3.583   0.618  1.0024  1.3890 -1.2148
 7965SOL    MW431628   3.398   3.617   0.610  0.4191  0.5222  0.3831
 7966SOL     OW31629   5.524   6.105   2.980 -0.0872 -0.3829  0.3597
 7966SOL    HW231630   5.527   6.198   2.962  1.6435 -0.8023 -2.0051
 7966SOL    HW331631   5.501   6.099   3.073 -1.5412  2.3137  0.2569
 7966SOL    MW431632   5.522   6.116   2.990 -0.0507 -0.0825  0.0341
 7967SOL     OW31633   6.015   3.928   0.137 -0.1410 -0.1204  0.4683
 7967SOL    HW231634   5.956   3.928   0.061 -0.9998  1.3773  1.0781
 7967SOL    HW331635   6.032   3.836   0.155 -0.2236 -0.5071 -1.3018
 7967SOL    MW431636   6.009   3.916   0.129 -0.2652  0.0262  0.3152
 7968SOL     OW31637   4.595   3.341   1.656 -0.5056  0.5009 -0.2362
 7968SOL    HW231638   4.591   3.418   1.712 -1.0753  0.2174  0.1160
 7968SOL    HW331639   4.508   3.336   1.615 -0.0385  0.8154 -1.2905
 7968SOL    MW431640   4.583   3.350   1.658 -0.5191  0.5050 -0.3289
 7969SOL     OW31641   3.582   0.321   2.004 -0.0737  0.2575  0.0449
 7969SOL    HW231642   3.617   0.281   1.925  0.2593 -1.4646  1.0011
 7969SOL    HW331643   3.549   0.406   1.976  1.2412  0.2476 -1.6570
 7969SOL    MW431644   3.582   0.327   1.990  0.1437  0.0290 -0.0535
 7970SOL     OW31645   4.315   3.556   4.320 -0.1790  0.1038  0.1205
 7970SOL    HW231646   4.338   3.511   4.402  0.8432  0.7211  0.1998
 7970SOL    HW331647   4.237   3.511   4.289 -1.6460  0.9260  2.3269
 7970SOL    MW431648   4.308   3.544   4.327 -0.2377  0.2937  0.4221
 7971SOL     OW31649   5.364   3.679   0.455  0.3266  0.0457  0.1346
 7971SOL    HW231650   5.320   3.627   0.523 -0.4434  2.1364  1.3479
 7971SOL    HW331651   5.454   3.647   0.454  0.4978  0.2571  2.5538
 7971SOL    MW431652   5.370   3.668   0.464  0.2476  0.3495  0.6139
 7972SOL     OW31653   0.378   0.705   1.493  0.2238 -0.1442  0.1129
 7972SOL    HW231654   0.312   0.677   1.557 -0.6658  1.8006  0.1281
 7972SOL    HW331655   0.462   0.692   1.538 -0.1813 -1.6591  0.4971
 7972SOL    MW431656   0.380   0.699   1.508  0.0530 -0.0875  0.1656
 7973SOL     OW31657   3.736   5.766   3.437  0.3792 -0.0303  0.6904
 7973SOL    HW231658   3.656   5.777   3.386 -0.0732  1.1596  1.6115
 7973SOL    HW331659   3.707   5.731   3.522  0.8963 -0.0829  0.8534
 7973SOL    MW431660   3.722   5.763   3.442  0.3878  0.1198  0.8334
 7974SOL     OW31661   6.302   1.974   2.898  0.0591  0.1642 -0.1857
 7974SOL    HW231662   6.264   2.038   2.959 -0.6049  0.4564 -0.8859
 7974SOL    HW331663   6.252   1.986   2.817  2.0846  0.9987 -1.3551
 7974SOL    MW431664   6.290   1.984   2.895  0.2387  0.3129 -0.4323
 7975SOL     OW31665   6.005   3.305   1.328 -0.1256  0.2417  0.0712
 7975SOL    HW231666   6.029   3.397   1.327  0.0887  0.1820 -0.5454
 7975SOL    HW331667   5.920   3.303   1.372 -0.4126  0.7997 -0.4433
 7975SOL    MW431668   5.997   3.317   1.334 -0.1352  0.3075 -0.0781
 7976SOL     OW31669   4.933   5.222   3.768 -0.0481 -0.1499 -0.1449
 7976SOL    HW231670   4.890   5.280   3.705  0.3323  0.2250 -0.0628
 7976SOL    HW331671   4.890   5.137   3.756 -2.1305  0.6208  1.2210
 7976SOL    MW431672   4.921   5.218   3.758 -0.2727  0.0013  0.0461
 7977SOL     OW31673   3.213   3.485   2.611  0.0891  0.0600  0.0763
 7977SOL    HW231674   3.228   3.544   2.685  1.1542 -0.8736  0.6371
 7977SOL    HW331675   3.244   3.400   2.641 -1.6556 -0.8858 -0.6099
 7977SOL    MW431676   3.219   3.481   2.625 -0.0006 -0.1880  0.0597
 7978SOL     OW31677   4.559   2.656   4.264  0.2884 -0.5950  0.5303
 7978SOL    HW231678   4.560   2.714   4.341 -1.5684 -0.8793  0.8208
 7978SOL    HW331679   4.622   2.588   4.286  0.8501  0.1010  1.1676
 7978SOL    MW431680   4.567   2.655   4.277  0.1176 -0.5407  0.6527
 7979SOL     OW31681   5.465   0.658   3.808  0.4558 -0.1718 -0.2008
 7979SOL    HW231682   5.459   0.744   3.767 -2.7360  0.3095  1.0365
 7979SOL    HW331683   5.543   0.618   3.767  1.6381  2.9506 -1.3334
 7979SOL    MW431684   5.475   0.664   3.797  0.1907  0.3036 -0.1870
 7980SOL     OW31685   0.284   3.262   4.047  0.3344 -0.2301  0.1990
 7980SOL    HW231686   0.226   3.254   3.972  0.1399 -2.0847  0.5009
 7980SOL    HW331687   0.372   3.265   4.009  0.1648  0.3858 -0.1577
 7980SOL    MW431688   0.288   3.261   4.032  0.2864 -0.3935  0.1918
 7981SOL     OW31689   4.639   1.051   5.916 -0.0204  0.0227 -0.3406
 7981SOL    HW231690   4.689   0.974   5.943  0.6846  0.7116  0.3808
 7981SOL    HW331691   4.548   1.027   5.932  0.1415 -0.8941 -0.7370
 7981SOL    MW431692   4.634   1.037   5.922  0.0940 -0.0074 -0.2978
 7982SOL     OW31693   4.311   1.557   0.861 -0.1151  0.0813 -0.1306
 7982SOL    HW231694   4.296   1.582   0.770  2.3025  0.6448 -0.4367
 7982SOL    HW331695   4.299   1.462   0.862  0.0585  0.0376 -1.0917
 7982SOL    MW431696   4.308   1.548   0.849  0.2267  0.1499 -0.2978
 7983SOL     OW31697   2.151   0.446   3.131 -0.0857 -0.1118  0.2796
 7983SOL    HW231698   2.110   0.461   3.216 -1.1112  0.1471 -0.2408
 7983SOL    HW331699   2.197   0.363   3.141  0.7886  0.4875  1.4295
 7983SOL    MW431700   2.151   0.437   3.144 -0.1056  0.0014  0.3626
 7984SOL     OW31701   3.958   2.601   6.142  0.3759  0.0123 -0.1587
 7984SOL    HW231702   3.945   2.644   6.058 -1.2773 -0.3741 -0.1220
 7984SOL    HW331703   4.053   2.600   6.153  0.5453  2.4371 -0.7783
 7984SOL    MW431704   3.969   2.607   6.132  0.1801  0.2812 -0.2356
 7985SOL     OW31705   2.643   5.246   2.274 -0.1535 -0.1035 -0.3978
 7985SOL    HW231706   2.551   5.272   2.268 -0.5709 -1.4280 -0.1526
 7985SOL    HW331707   2.642   5.151   2.259  1.0169 -0.3395  0.7898
 7985SOL    MW431708   2.631   5.237   2.272 -0.0541 -0.3094 -0.2088
 7986SOL     OW31709   2.961   1.533   1.670 -0.4981  0.5052 -0.4580
 7986SOL    HW231710   2.987   1.444   1.650 -0.3115  0.6223 -0.7315
 7986SOL    HW331711   2.986   1.546   1.762 -1.8988 -0.2278  0.0633
 7986SOL    MW431712   2.968   1.523   1.680 -0.6583  0.4240 -0.4253
 7987SOL     OW31713   0.427   5.873   6.406 -0.0376 -0.4450 -0.0495
 7987SOL    HW231714   0.440   5.813   6.333  0.4428  0.4912 -0.7501
 7987SOL    HW331715   0.511   5.872   6.452  0.5113  0.8354 -0.9587
 7987SOL    MW431716   0.440   5.865   6.403  0.0982 -0.1525 -0.2619
 7988SOL     OW31717   2.410   3.179   5.298 -0.3173  0.3396  0.3786
 7988SOL    HW231718   2.386   3.134   5.380 -2.4158  1.4840  0.4545
 7988SOL    HW331719   2.328   3.190   5.252  0.5941  1.3319 -1.0807
 7988SOL    MW431720   2.396   3.174   5.303 -0.4739  0.6215  0.1961
 7989SOL     OW31721   4.728   5.854   2.104  0.7607  0.2366 -0.0426
 7989SOL    HW231722   4.800   5.794   2.085  1.3442  0.6818  0.7098
 7989SOL    HW331723   4.666   5.802   2.156  1.1721  0.2280  0.4446
 7989SOL    MW431724   4.729   5.839   2.108  0.8920  0.2942  0.1210
 7990SOL     OW31725   6.200   2.088   2.625 -0.0966  0.4678  0.0008
 7990SOL    HW231726   6.205   2.011   2.568  1.3463  1.3872 -1.1711
 7990SOL    HW331727   6.122   2.072   2.679  0.8639 -2.4035  0.7068
 7990SOL    MW431728   6.190   2.075   2.624  0.2205  0.2103 -0.0607
 7991SOL     OW31729   3.072   4.239   5.341  0.5381  0.2788 -0.1899
 7991SOL    HW231730   3.137   4.293   5.386  1.8178 -1.5493  0.2673
 7991SOL    HW331731   3.109   4.151   5.342 -0.9455 -0.4238 -1.9169
 7991SOL    MW431732   3.085   4.234   5.347  0.5112 -0.0551 -0.3574
 7992SOL     OW31733   4.655   0.234   5.621 -0.8523  0.3456 -0.0002
 7992SOL    HW231734   4.729   0.291   5.640 -1.9010  2.3413 -1.4871
 7992SOL    HW331735   4.664   0.160   5.682  2.2064  0.5977 -0.0149
 7992SOL    MW431736   4.666   0.231   5.632 -0.5871  0.6421 -0.1983
 7993SOL     OW31737   3.362   1.236   6.083 -0.0580 -0.3440 -0.5430
 7993SOL    HW231738   3.452   1.255   6.109 -0.7281  1.4303  0.7329
 7993SOL    HW331739   3.308   1.280   6.149 -1.8685 -1.4025 -1.2361
 7993SOL    MW431740   3.367   1.245   6.095 -0.3853 -0.2495 -0.4661
 7994SOL     OW31741   0.613   3.395   5.983 -0.3513  0.1494 -0.3213
 7994SOL    HW231742   0.561   3.433   5.912  0.1901 -1.5071 -1.6909
 7994SOL    HW331743   0.656   3.320   5.943 -1.3615 -1.9310  2.1675
 7994SOL    MW431744   0.612   3.390   5.968 -0.4132 -0.3436 -0.1736
 7995SOL     OW31745   1.693   4.323   4.124 -0.1328 -0.7792 -0.3663
 7995SOL    HW231746   1.602   4.332   4.151 -0.2645  3.0322 -1.4652
 7995SOL    HW331747   1.739   4.291   4.201 -2.1203 -0.8402  0.8370
 7995SOL    MW431748   1.687   4.320   4.138 -0.4124 -0.2844 -0.3525
 7996SOL     OW31749   1.927   1.610   1.391  0.4706  0.0132  0.0276
 7996SOL    HW231750   1.886   1.611   1.304 -0.3340  0.0423  0.4001
 7996SOL    HW331751   2.015   1.575   1.375  1.6206  3.1340 -1.3464
 7996SOL    MW431752   1.933   1.606   1.377  0.5162  0.4288 -0.1045
 7997SOL     OW31753   1.887   2.410   4.809 -0.5953  0.6553 -0.1612
 7997SOL    HW231754   1.860   2.499   4.785  1.7042  1.4152 -0.1856
 7997SOL    HW331755   1.892   2.411   4.905 -1.2818  0.2926 -0.1110
 7997SOL    MW431756   1.884   2.422   4.819 -0.3825  0.7077 -0.1578
 7998SOL     OW31757   3.559   2.641   0.232  0.4742  0.3262 -0.4769
 7998SOL    HW231758   3.544   2.735   0.243 -0.2864  0.2730 -0.9259
 7998SOL    HW331759   3.524   2.622   0.144  0.6363 -0.3658 -0.3962
 7998SOL    MW431760   3.552   2.650   0.222  0.3952  0.2279 -0.5255
 7999SOL     OW31761   3.455   4.603   0.333 -0.2654  0.0379 -0.2656
 7999SOL    HW231762   3.473   4.527   0.388  1.3439  0.1902 -0.5318
 7999SOL    HW331763   3.388   4.573   0.272 -0.5915 -0.7546  0.4542
 7999SOL    MW431764   3.448   4.589   0.333 -0.0961 -0.0465 -0.2058
 8000SOL     OW31765   3.784   0.494   0.580  0.0679  0.3663 -0.0421
 8000SOL    HW231766   3.740   0.447   0.509 -0.3508 -0.4236  0.7315
 8000SOL    HW331767   3.785   0.433   0.653  1.4435  0.7861  0.3190
 8000SOL    MW431768   3.778   0.480   0.580  0.1942  0.3174  0.1076
 8001SOL     OW31769   0.334   0.192   5.234  0.1814 -0.1372  0.2097
 8001SOL    HW231770   0.319   0.112   5.185 -0.5995 -0.3414  0.7576
 8001SOL    HW331771   0.259   0.198   5.294 -0.5874  1.7965 -0.8666
 8001SOL    MW431772   0.322   0.183   5.236 -0.0231  0.0910  0.1400
 8002SOL     OW31773   1.210   4.941   3.324  0.5810  0.0079 -0.4105
 8002SOL    HW231774   1.197   4.858   3.369 -0.0309 -0.2962 -1.1343
 8002SOL    HW331775   1.175   5.007   3.384  0.1829 -0.3513 -0.2463
 8002SOL    MW431776   1.204   4.939   3.338  0.4477 -0.0796 -0.4844
 8003SOL     OW31777   2.222   5.792   3.094 -0.2944 -0.2054  0.8447
 8003SOL    HW231778   2.258   5.825   3.176 -0.7791 -1.0348  1.4028
 8003SOL    HW331779   2.251   5.855   3.028 -0.6961  0.9880  1.7798
 8003SOL    MW431780   2.231   5.805   3.096 -0.4114 -0.1574  1.0417
 8004SOL     OW31781   2.573   3.333   6.423 -0.3544  0.4003  0.4984
 8004SOL    HW231782   2.651   3.310   6.472 -0.7372  0.1209  0.9840
 8004SOL    HW331783   2.527   3.397   6.477  0.2995  1.7478 -0.4833
 8004SOL    MW431784   2.577   3.339   6.436 -0.3186  0.5412  0.4329
 8005SOL     OW31785   6.244   1.578   5.251  0.1445  0.6800 -0.5273
 8005SOL    HW231786   6.182   1.516   5.289 -1.0260 -0.0976 -3.4597
 8005SOL    HW331787   6.193   1.657   5.236  0.6572  1.0629 -0.3088
 8005SOL    MW431788   6.229   1.581   5.254  0.0578  0.6279 -0.8854
 8006SOL     OW31789   2.686   0.842   5.986  0.8282 -0.0031  0.4945
 8006SOL    HW231790   2.679   0.821   5.893  0.6611  0.3733  0.4196
 8006SOL    HW331791   2.768   0.890   5.994 -0.1015  1.6927  0.2046
 8006SOL    MW431792   2.696   0.845   5.975  0.6835  0.2703  0.4464
 8007SOL     OW31793   0.371   4.429   2.277  0.0232  0.5964 -0.0517
 8007SOL    HW231794   0.306   4.383   2.224  0.3705  1.6430 -1.4418
 8007SOL    HW331795   0.322   4.463   2.351 -0.9013  0.8626 -0.7757
 8007SOL    MW431796   0.356   4.427   2.280 -0.0529  0.7696 -0.3306
 8008SOL     OW31797   0.847   5.537   0.427  0.1577  0.3082  0.0819
 8008SOL    HW231798   0.916   5.491   0.379 -0.4648 -1.6805  0.9962
 8008SOL    HW331799   0.894   5.599   0.483  1.3364 -1.5635  1.2992
 8008SOL    MW431800   0.862   5.539   0.428  0.2311 -0.2011  0.3631
 8009SOL     OW31801   2.927   2.327   5.265  0.3835  0.2652  0.1950
 8009SOL    HW231802   2.907   2.412   5.303 -2.5901 -0.3191  0.1534
 8009SOL    HW331803   2.919   2.341   5.170 -0.5516 -0.1196  0.2053
 8009SOL    MW431804   2.923   2.340   5.257 -0.1322  0.1374  0.1909
 8010SOL     OW31805   5.674   0.475   5.436 -0.0687 -0.4315 -0.3518
 8010SOL    HW231806   5.757   0.431   5.454  0.1897  0.0549 -0.3454
 8010SOL    HW331807   5.614   0.404   5.410  0.3641 -0.7748 -0.4190
 8010SOL    MW431808   5.677   0.460   5.435  0.0225 -0.4126 -0.3599
 8011SOL     OW31809   3.168   4.955   3.386 -0.1136  0.0800 -0.0567
 8011SOL    HW231810   3.146   4.926   3.297  0.1319 -1.3079  0.3201
 8011SOL    HW331811   3.094   5.009   3.412 -1.6487 -1.9496  0.0005
 8011SOL    MW431812   3.156   4.958   3.377 -0.2838 -0.3709  0.0005
 8012SOL     OW31813   6.116   5.361   1.798 -0.3063  0.1734 -0.0049
 8012SOL    HW231814   6.181   5.401   1.740  0.2090  1.3716  1.3420
 8012SOL    HW331815   6.146   5.270   1.807 -0.4487 -0.0621 -1.6435
 8012SOL    MW431816   6.129   5.354   1.792 -0.2571  0.3004 -0.0434
 8013SOL     OW31817   4.166   2.287   2.969  0.0245 -0.5040 -0.3236
 8013SOL    HW231818   4.232   2.326   2.911  1.9982  0.1165  2.1249
 8013SOL    HW331819   4.096   2.351   2.972 -0.9725 -1.3209 -3.2509
 8013SOL    MW431820   4.166   2.301   2.962  0.1534 -0.5299 -0.3867
 8014SOL     OW31821   2.661   2.259   0.522 -0.2454  0.1940  0.1325
 8014SOL    HW231822   2.581   2.209   0.507  0.0086 -0.2148  0.1345
 8014SOL    HW331823   2.667   2.266   0.617 -0.4541  0.5103  0.1228
 8014SOL    MW431824   2.651   2.253   0.532 -0.2394  0.1818  0.1315
 8015SOL     OW31825   6.137   6.165   5.522  0.2852 -0.4535  0.2292
 8015SOL    HW231826   6.046   6.196   5.516  0.5791  0.1865 -4.4625
 8015SOL    HW331827   6.129   6.070   5.527 -0.7126 -0.4453 -0.7206
 8015SOL    MW431828   6.124   6.156   5.522  0.1924 -0.3680 -0.5151
 8016SOL     OW31829   2.536   1.196   1.206 -0.4155  0.1065  0.8190
 8016SOL    HW231830   2.607   1.142   1.242 -1.5845 -1.9141  0.2475
 8016SOL    HW331831   2.535   1.175   1.113 -1.2817  0.6930  0.6871
 8016SOL    MW431832   2.546   1.186   1.198 -0.6840 -0.0827  0.7262
 8017SOL     OW31833   6.392   4.346   6.292 -0.0264  0.6194 -0.4258
 8017SOL    HW231834   6.346   4.292   6.357  0.0504  0.8825 -0.1510
 8017SOL    HW331835   6.464   4.386   6.341 -0.1822  1.1030 -0.5863
 8017SOL    MW431836   6.396   4.344   6.307 -0.0369  0.7179 -0.4107
 8018SOL     OW31837   2.162   4.106   6.175  0.5356  0.2993  0.1861
 8018SOL    HW231838   2.215   4.087   6.252  0.2591 -0.0650  0.2931
 8018SOL    HW331839   2.224   4.138   6.110  1.0710 -1.1124 -0.0499
 8018SOL    MW431840   2.177   4.107   6.177  0.5698  0.0650  0.1691
 8019SOL     OW31841   3.374   4.253   5.454  0.1530 -0.1184 -0.4093
 8019SOL    HW231842   3.404   4.332   5.410 -0.3139  0.0006 -0.5210
 8019SOL    HW331843   3.331   4.202   5.385  1.3076 -0.9314 -0.5606
 8019SOL    MW431844   3.372   4.256   5.439  0.2437 -0.2100 -0.4440
 8020SOL     OW31845   2.132   4.065   4.328  0.0770 -0.6872 -0.8843
 8020SOL    HW231846   2.201   4.121   4.364  0.0242 -1.7455  1.0108
 8020SOL    HW331847   2.179   4.000   4.276  0.5359 -1.2108  0.1363
 8020SOL    MW431848   2.147   4.063   4.326  0.1306 -0.8959 -0.4996
 8021SOL     OW31849   1.196   3.389   0.518  0.2667 -0.5286 -0.6603
 8021SOL    HW231850   1.226   3.480   0.516 -0.6530 -0.0355  2.7080
 8021SOL    HW331851   1.262   3.343   0.569 -0.5812 -1.1754 -0.1233
 8021SOL    MW431852   1.209   3.395   0.524  0.0335 -0.5489 -0.1451
 8022SOL     OW31853   6.373   5.350   1.622  0.3739 -0.5229 -0.9932
 8022SOL    HW231854   6.300   5.370   1.563 -0.4945  0.0812  0.2339
 8022SOL    HW331855   6.449   5.340   1.564 -0.9321 -2.6564 -2.4614
 8022SOL    MW431856   6.373   5.351   1.606  0.0871 -0.7247 -1.0250
 8023SOL     OW31857   1.687   0.898   5.642 -0.0063 -0.0035 -0.2786
 8023SOL    HW231858   1.731   0.869   5.722  0.8350  1.3689 -0.2064
 8023SOL    HW331859   1.655   0.986   5.663 -0.2619  0.1533 -1.2747
 8023SOL    MW431860   1.689   0.906   5.655  0.0709  0.1983 -0.4005
 8024SOL     OW31861   4.226   0.916   2.244  0.1609 -0.1582  0.0213
 8024SOL    HW231862   4.258   0.929   2.334 -1.2514 -0.2860  0.5683
 8024SOL    HW331863   4.132   0.899   2.254  0.0444 -0.5320 -1.4629
 8024SOL    MW431864   4.218   0.916   2.257 -0.0408 -0.2244 -0.1024
 8025SOL     OW31865   0.718   0.543   4.128 -0.3498  0.4231 -0.1283
 8025SOL    HW231866   0.699   0.493   4.048 -0.0370 -1.5262  0.9347
 8025SOL    HW331867   0.810   0.567   4.120  0.1043 -1.0794  0.2727
 8025SOL    MW431868   0.728   0.539   4.116 -0.2486 -0.0323  0.0648
 8026SOL     OW31869   2.520   4.490   1.628  0.4137 -0.3225 -0.6744
 8026SOL    HW231870   2.524   4.503   1.534  1.8416 -0.1095 -0.6117
 8026SOL    HW331871   2.523   4.395   1.640  0.3991 -0.3424 -0.8382
 8026SOL    MW431872   2.521   4.479   1.617  0.6002 -0.2970 -0.6877
 8027SOL     OW31873   4.472   4.097   2.628  0.4264 -0.4185 -0.3175
 8027SOL    HW231874   4.497   4.189   2.621  0.7938 -0.4257  0.7068
 8027SOL    HW331875   4.392   4.097   2.680 -0.4174 -0.5799 -1.5801
 8027SOL    MW431876   4.465   4.109   2.634  0.3635 -0.4407 -0.3489
 8028SOL     OW31877   3.076   4.495   2.311 -0.1941 -0.0289 -0.2217
 8028SOL    HW231878   3.157   4.498   2.260  0.1784  0.2299  0.3781
 8028SOL    HW331879   3.031   4.577   2.290  0.2072  0.3172  0.2711
 8028SOL    MW431880   3.081   4.506   2.301 -0.0920  0.0509 -0.0776
 8029SOL     OW31881   3.703   4.616   4.086 -0.8295  0.0542  0.5321
 8029SOL    HW231882   3.677   4.555   4.154 -1.7770  0.3201  0.4260
 8029SOL    HW331883   3.662   4.699   4.111 -2.1851 -0.1221 -0.9405
 8029SOL    MW431884   3.694   4.619   4.098 -1.1334  0.0661  0.3238
 8030SOL     OW31885   6.409   4.696   5.798 -0.4879  0.6296 -0.1431
 8030SOL    HW231886   6.474   4.714   5.731  1.2937  0.3062  1.4160
 8030SOL    HW331887   6.402   4.777   5.848 -2.4816  1.1667 -1.1987
 8030SOL    MW431888   6.417   4.709   5.796 -0.5159  0.6578 -0.0766
 8031SOL     OW31889   2.869   1.514   0.424 -0.2874  0.0042 -0.4186
 8031SOL    HW231890   2.850   1.463   0.346 -0.4793 -1.5834  0.6165
 8031SOL    HW331891   2.886   1.603   0.392 -2.4430 -0.0933 -2.0537
 8031SOL    MW431892   2.869   1.519   0.410 -0.5972 -0.2181 -0.4977
 8032SOL     OW31893   1.513   0.092   0.449  0.6837  0.2539 -0.5821
 8032SOL    HW231894   1.586   0.030   0.439  0.5593 -0.6132  2.7810
 8032SOL    HW331895   1.460   0.056   0.520  0.0008  3.6483  0.8447
 8032SOL    MW431896   1.516   0.079   0.457  0.5772  0.5874  0.0499
 8033SOL     OW31897   6.411   0.112   0.664 -0.1598  0.9439  0.1187
 8033SOL    HW231898   6.342   0.101   0.598 -1.1635  1.2565  1.0866
 8033SOL    HW331899   6.367   0.097   0.748  0.8270  1.6868  0.7945
 8033SOL    MW431900   6.396   0.109   0.666 -0.1620  1.0831  0.3356
 8034SOL     OW31901   5.114   5.020   3.332 -0.2939  0.0451  0.1376
 8034SOL    HW231902   5.121   5.047   3.240 -1.2379  1.9269  0.5580
 8034SOL    HW331903   5.105   4.925   3.328 -2.3118  0.2180 -1.8794
 8034SOL    MW431904   5.114   5.011   3.319 -0.6847  0.3162 -0.0730
 8035SOL     OW31905   2.239   5.493   4.338  0.3083  0.1886 -0.2719
 8035SOL    HW231906   2.147   5.498   4.364  0.1299 -0.6296 -0.6936
 8035SOL    HW331907   2.285   5.478   4.420 -0.0870 -0.7821 -0.2111
 8035SOL    MW431908   2.233   5.491   4.352  0.2326 -0.0474 -0.3195
 8036SOL     OW31909   3.909   1.157   3.266  0.5550 -0.8740  0.0841
 8036SOL    HW231910   3.992   1.111   3.277  0.3061 -1.3695 -0.0952
 8036SOL    HW331911   3.932   1.239   3.222  1.0292 -0.7232  0.6061
 8036SOL    MW431912   3.923   1.162   3.262  0.5847 -0.9195  0.1293
 8037SOL     OW31913   4.988   1.195   1.332 -0.3406  0.7412  0.6111
 8037SOL    HW231914   4.997   1.120   1.390  0.3890  0.4984  0.1893
 8037SOL    HW331915   4.996   1.272   1.389 -0.8728  0.5069  1.0078
 8037SOL    MW431916   4.990   1.196   1.347 -0.3146  0.6782  0.6078
 8038SOL     OW31917   4.851   4.260   5.177 -0.4898  0.1682 -0.2524
 8038SOL    HW231918   4.763   4.223   5.186 -0.6177  0.7243  1.0659
 8038SOL    HW331919   4.841   4.352   5.201  0.7984 -0.2223  2.1110
 8038SOL    MW431920   4.838   4.268   5.181 -0.3367  0.1901  0.2334
 8039SOL     OW31921   1.613   1.356   3.086 -0.5019 -0.6067  0.3245
 8039SOL    HW231922   1.577   1.364   3.174  0.4253  0.5432  0.6169
 8039SOL    HW331923   1.699   1.315   3.099 -0.2634 -0.2153 -0.0190
 8039SOL    MW431924   1.620   1.351   3.099 -0.3481 -0.4034  0.3178
 8040SOL     OW31925   4.111   2.127   0.909  0.6167 -0.1889  0.6152
 8040SOL    HW231926   4.017   2.143   0.904  0.5099 -0.4494  1.5008
 8040SOL    HW331927   4.122   2.038   0.876  0.4010 -0.5569  1.4986
 8040SOL    MW431928   4.100   2.117   0.904  0.5742 -0.2718  0.8486
 8041SOL     OW31929   3.701   5.123   5.982 -0.6174 -0.4378  0.0008
 8041SOL    HW231930   3.648   5.197   5.952  0.3193  0.7486  1.1597
 8041SOL    HW331931   3.787   5.136   5.943 -0.1951 -0.4225  0.9106
 8041SOL    MW431932   3.705   5.134   5.973 -0.4381 -0.2792  0.2737
 8042SOL     OW31933   2.000   5.083   5.077  0.8230 -0.2289  0.4760
 8042SOL    HW231934   1.969   5.137   5.004 -1.6846 -2.6690 -0.4740
 8042SOL    HW331935   2.012   4.996   5.038  1.5612 -1.1049  2.5475
 8042SOL    MW431936   1.997   5.079   5.062  0.5895 -0.6664  0.6239
 8043SOL     OW31937   5.057   4.268   1.567 -0.2819  0.5777  0.5777
 8043SOL    HW231938   5.124   4.271   1.635  0.6858 -0.9711 -0.2536
 8043SOL    HW331939   5.099   4.303   1.489 -1.0984  1.4932  0.5265
 8043SOL    MW431940   5.071   4.273   1.565 -0.2620  0.4941  0.4613
 8044SOL     OW31941   0.188   0.235   3.096 -0.3815  0.3729 -0.2866
 8044SOL    HW231942   0.115   0.297   3.097 -0.5127  0.2312  0.9026
 8044SOL    HW331943   0.188   0.199   3.008 -0.1977  2.1735 -1.0726
 8044SOL    MW431944   0.179   0.239   3.085 -0.3745  0.5917 -0.2334
 8045SOL     OW31945   0.209   0.170   6.372  0.2897 -0.2036 -0.7014
 8045SOL    HW231946   0.186   0.237   6.308 -1.0546 -0.0049 -0.0261
 8045SOL    HW331947   0.262   0.108   6.322  1.6543  1.3709 -1.3203
 8045SOL    MW431948   0.213   0.171   6.357  0.2924  0.0304 -0.6939
 8046SOL     OW31949   1.600   3.363   2.135 -0.1009  0.3218  0.5004
 8046SOL    HW231950   1.512   3.383   2.166 -1.0945 -0.4547 -1.6097
 8046SOL    HW331951   1.623   3.280   2.176 -1.4784 -0.8025 -0.8959
 8046SOL    MW431952   1.592   3.355   2.144 -0.4138  0.0710  0.0378
 8047SOL     OW31953   0.420   0.900   5.652  0.0979 -0.1058  0.0144
 8047SOL    HW231954   0.437   0.894   5.558  0.6385  0.4891  0.0627
 8047SOL    HW331955   0.326   0.886   5.661  0.1552 -0.8957 -0.5390
 8047SOL    MW431956   0.410   0.897   5.641  0.1768 -0.1315 -0.0523
 8048SOL     OW31957   0.706   6.365   2.969 -0.7160 -0.1753 -0.2347
 8048SOL    HW231958   0.765   6.400   3.036 -0.9558 -0.1892 -0.0136
 8048SOL    HW331959   0.757   6.370   2.888 -1.1735  1.9164 -0.4686
 8048SOL    MW431960   0.721   6.371   2.967 -0.8080  0.0989 -0.2364
 8049SOL     OW31961   5.443   4.457   4.950 -0.2476 -0.2124  0.3766
 8049SOL    HW231962   5.365   4.405   4.967  0.7836 -1.6732  0.7974
 8049SOL    HW331963   5.509   4.423   5.012  0.7804  0.8433 -0.0981
 8049SOL    MW431964   5.442   4.446   4.961  0.0241 -0.2659  0.3695
 8050SOL     OW31965   3.311   0.123   2.409  0.1995 -0.1681  0.1335
 8050SOL    HW231966   3.334   0.177   2.334  0.6429 -1.2535 -0.5300
 8050SOL    HW331967   3.297   0.035   2.373  0.3355 -0.6914  1.3026
 8050SOL    MW431968   3.312   0.118   2.395  0.2760 -0.3803  0.2002
 8051SOL     OW31969   3.967   4.267   2.334 -0.0962 -0.2341  0.1451
 8051SOL    HW231970   3.995   4.191   2.283 -1.1607  0.0779 -0.9466
 8051SOL    HW331971   3.953   4.336   2.270 -1.2269  0.2514  0.8695
 8051SOL    MW431972   3.969   4.266   2.319 -0.3858 -0.1289  0.0967
 8052SOL     OW31973   1.152   0.431   0.302  0.8520  0.2985 -0.4385
 8052SOL    HW231974   1.163   0.440   0.396  0.9086  1.5577 -0.5427
 8052SOL    HW331975   1.188   0.345   0.281 -1.1881 -1.0081  0.9893
 8052SOL    MW431976   1.158   0.421   0.311  0.5903  0.2922 -0.2639
 8053SOL     OW31977   5.681   0.794   5.519  0.3829  0.0537 -0.0724
 8053SOL    HW231978   5.692   0.710   5.475  0.8351  0.5912 -1.0116
 8053SOL    HW331979   5.591   0.821   5.498  1.0100  0.9318 -1.8393
 8053SOL    MW431980   5.671   0.787   5.510  0.5253  0.2405 -0.4294
 8054SOL     OW31981   2.624   6.224   3.929  0.6453  0.3350 -0.2125
 8054SOL    HW231982   2.715   6.247   3.950  1.0645 -1.4207  0.1206
 8054SOL    HW331983   2.617   6.234   3.834  2.0472 -2.0446 -0.6579
 8054SOL    MW431984   2.635   6.228   3.920  0.8855 -0.2106 -0.2273
 8055SOL     OW31985   4.046   0.458   1.044 -0.3531 -0.3456  0.1325
 8055SOL    HW231986   3.993   0.535   1.023 -0.7318 -0.2966  1.1978
 8055SOL    HW331987   4.080   0.428   0.960  0.6619  1.5876 -0.1820
 8055SOL    MW431988   4.043   0.464   1.030 -0.2692 -0.0840  0.2316
 8056SOL     OW31989   2.796   2.604   1.099  0.3358  0.0351 -0.2300
 8056SOL    HW231990   2.711   2.618   1.140 -0.4325 -1.2133 -1.3053
 8056SOL    HW331991   2.810   2.509   1.105  1.1197  0.0874 -1.0582
 8056SOL    MW431992   2.787   2.593   1.105  0.3378 -0.1227 -0.4812
 8057SOL     OW31993   3.088   3.738   0.491 -0.2619  0.5568 -0.2707
 8057SOL    HW231994   3.131   3.689   0.421  0.1253  0.0657  0.2944
 8057SOL    HW331995   3.153   3.802   0.520  0.2011 -0.3524  0.7532
 8057SOL    MW431996   3.102   3.740   0.486 -0.1498  0.3721 -0.0611
 8058SOL     OW31997   5.229   1.252   1.595 -0.0932  0.3084  0.3714
 8058SOL    HW231998   5.243   1.171   1.645 -2.8101 -1.4355 -1.4506
 8058SOL    HW331999   5.299   1.252   1.530 -0.8286 -1.3631 -0.4745
 8058SOL    MW432000   5.240   1.241   1.593 -0.5487 -0.1422  0.0194
 8059SOL     OW32001   4.032   4.613   4.812  0.3759  0.4831 -0.0136
 8059SOL    HW232002   3.975   4.538   4.793  0.7865  0.3603 -0.8177
 8059SOL    HW332003   4.047   4.653   4.727  1.3969  0.5765  0.1991
 8059SOL    MW432004   4.027   4.608   4.798  0.5648  0.4792 -0.0916
 8060SOL     OW32005   4.233   0.872   4.821  0.6495 -0.2500 -0.3174
 8060SOL    HW232006   4.314   0.888   4.772  1.0998  0.7494  0.7071
 8060SOL    HW332007   4.224   0.777   4.821 -0.3895 -0.3220 -3.9074
 8060SOL    MW432008   4.242   0.862   4.814  0.5719 -0.1276 -0.6559
 8061SOL     OW32009   4.372   4.415   0.316 -0.1473  0.3434 -0.0367
 8061SOL    HW232010   4.416   4.361   0.250  0.1907 -0.3782  0.7721
 8061SOL    HW332011   4.280   4.387   0.312 -0.4324  1.3150 -1.1855
 8061SOL    MW432012   4.365   4.404   0.306 -0.1403  0.3764 -0.0815
 8062SOL     OW32013   1.592   1.705   1.110  0.3104  0.0908  0.6294
 8062SOL    HW232014   1.658   1.757   1.156  2.0229 -1.7862  0.4356
 8062SOL    HW332015   1.549   1.655   1.179 -0.5850  0.9322  0.6968
 8062SOL    MW432016   1.595   1.705   1.125  0.4182 -0.0459  0.6127
 8063SOL     OW32017   5.563   0.244   0.113 -0.6285  0.0694 -0.0375
 8063SOL    HW232018   5.630   0.247   0.182  2.0314  1.0919 -2.4260
 8063SOL    HW332019   5.534   0.153   0.111  2.0493 -0.8703  0.0084
 8063SOL    MW432020   5.568   0.232   0.122  0.0757  0.0803 -0.3466
 8064SOL     OW32021   3.118   2.325   1.444  0.1418 -0.0737 -0.3792
 8064SOL    HW232022   3.145   2.397   1.500  1.0211 -0.8259  0.1875
 8064SOL    HW332023   3.036   2.293   1.484 -0.0382  0.3544 -0.4048
 8064SOL    MW432024   3.111   2.330   1.457  0.2341 -0.1165 -0.3078
 8065SOL     OW32025   4.816   1.958   5.646  0.3415  0.1797  0.0809
 8065SOL    HW232026   4.733   1.955   5.598  0.5336  0.9503 -0.3270
 8065SOL    HW332027   4.798   2.017   5.720  0.2897 -0.3308  0.4807
 8065SOL    MW432028   4.802   1.966   5.649  0.3600  0.2141  0.0798
 8066SOL     OW32029   2.754   1.252   1.653  0.2320 -0.3853 -0.0462
 8066SOL    HW232030   2.791   1.278   1.738 -1.6243  1.4283  0.2740
 8066SOL    HW332031   2.727   1.161   1.666  1.9708 -0.8561  0.5605
 8066SOL    MW432032   2.756   1.243   1.666  0.2165 -0.2081  0.0761
 8067SOL     OW32033   4.582   0.600   5.968 -0.7223 -0.0826  0.2324
 8067SOL    HW232034   4.496   0.562   5.986 -0.6817 -0.4541 -0.3309
 8067SOL    HW332035   4.573   0.639   5.881  0.2865 -2.0459 -0.8384
 8067SOL    MW432036   4.570   0.600   5.959 -0.5838 -0.3906  0.0168
 8068SOL     OW32037   0.610   0.151   2.645 -0.4597 -0.4201 -0.6868
 8068SOL    HW232038   0.617   0.188   2.557 -0.6580  1.9605  0.2208
 8068SOL    HW332039   0.701   0.145   2.675 -0.4205 -0.7802 -0.8730
 8068SOL    MW432040   0.623   0.155   2.637 -0.4807 -0.1535 -0.5916
 8069SOL     OW32041   0.048   4.117   4.045 -0.1483  0.6238  0.2839
 8069SOL    HW232042   0.074   4.177   4.115  2.1880  0.2037 -0.1448
 8069SOL    HW332043   0.091   4.152   3.967 -1.4289  0.1966 -0.6397
 8069SOL    MW432044   0.057   4.129   4.044 -0.0090  0.5120  0.1054
 8070SOL     OW32045   3.530   3.700   2.628  0.4298 -0.5248  0.4534
 8070SOL    HW232046   3.481   3.712   2.546  0.3144 -3.5737 -0.0595
 8070SOL    HW332047   3.571   3.784   2.644 -3.9371  1.9480  0.2939
 8070SOL    MW432048   3.529   3.712   2.619 -0.1616 -0.6008  0.3647
 8071SOL     OW32049   3.377   4.913   5.887  0.0028  0.0609  0.7163
 8071SOL    HW232050   3.329   4.833   5.908  0.2136 -0.1857  0.2672
 8071SOL    HW332051   3.460   4.883   5.852 -0.3905  0.4387 -0.6314
 8071SOL    MW432052   3.381   4.898   5.885 -0.0213  0.0782  0.4792
 8072SOL     OW32053   2.409   3.780   2.012 -0.0012 -0.6213 -0.1978
 8072SOL    HW232054   2.485   3.783   2.070  0.0071  0.1195 -0.2466
 8072SOL    HW332055   2.440   3.732   1.935  0.7506  0.6349 -0.6953
 8072SOL    MW432056   2.424   3.774   2.009  0.0991 -0.3578 -0.2699
 8073SOL     OW32057   4.715   0.486   4.736  0.3241 -0.5104  0.0346
 8073SOL    HW232058   4.779   0.551   4.766  0.7541 -0.8637 -0.1266
 8073SOL    HW332059   4.690   0.439   4.816 -0.5023  0.2922  0.2756
 8073SOL    MW432060   4.720   0.489   4.751  0.2718 -0.4511  0.0451
 8074SOL     OW32061   4.268   3.737   2.654  0.2734 -0.0423 -0.3155
 8074SOL    HW232062   4.243   3.772   2.739  0.7672 -0.5458  0.0455
 8074SOL    HW332063   4.364   3.744   2.652  0.2115  0.8484 -1.2229
 8074SOL    MW432064   4.278   3.743   2.665  0.3304  0.0088 -0.3875
 8075SOL     OW32065   2.790   3.354   0.370 -0.2586  0.1382  0.0194
 8075SOL    HW232066   2.818   3.361   0.278 -2.0481  0.4027 -0.5453
 8075SOL    HW332067   2.806   3.440   0.406  0.5212  0.0147 -0.0183
 8075SOL    MW432068   2.796   3.366   0.362 -0.3918  0.1568 -0.0601
 8076SOL     OW32069   5.524   2.581   2.600  0.4767  0.3133 -0.1103
 8076SOL    HW232070   5.491   2.619   2.681  0.8809  0.2373  0.0919
 8076SOL    HW332071   5.454   2.524   2.569  1.2178 -1.5600  1.4579
 8076SOL    MW432072   5.511   2.578   2.606  0.6278  0.0561  0.1233
 8077SOL     OW32073   4.604   5.718   5.438 -0.0562 -0.1427 -0.1206
 8077SOL    HW232074   4.580   5.684   5.352 -0.1065  0.9952 -0.5727
 8077SOL    HW332075   4.609   5.813   5.426  0.2528  0.0074  1.0554
 8077SOL    MW432076   4.602   5.726   5.425 -0.0220  0.0272 -0.0251
 8078SOL     OW32077   0.193   3.165   6.092  0.1748  0.5233 -0.7328
 8078SOL    HW232078   0.148   3.195   6.013 -3.2625 -0.6493  0.5475
 8078SOL    HW332079   0.202   3.244   6.146 -1.1081  0.7085 -0.7521
 8078SOL    MW432080   0.188   3.179   6.089 -0.4480  0.3930 -0.5664
 8079SOL     OW32081   4.344   4.789   6.383 -0.2793 -0.8796 -0.4118
 8079SOL    HW232082   4.288   4.727   6.430 -1.0413 -0.0090 -0.1404
 8079SOL    HW332083   4.354   4.752   6.295 -2.3804 -0.4048 -0.8871
 8079SOL    MW432084   4.338   4.776   6.378 -0.6571 -0.7021 -0.4387
 8080SOL     OW32085   2.203   3.328   4.843 -0.2481 -0.3131 -0.1256
 8080SOL    HW232086   2.124   3.355   4.795 -0.4902  0.2250  0.5482
 8080SOL    HW332087   2.222   3.240   4.811 -0.9550 -0.3335 -0.5182
 8080SOL    MW432088   2.195   3.320   4.832 -0.3733 -0.2448 -0.0885
 8081SOL     OW32089   5.589   1.821   4.036 -0.1227  0.3248  0.4004
 8081SOL    HW232090   5.616   1.881   4.105 -1.2371 -0.6423  1.7171
 8081SOL    HW332091   5.503   1.789   4.064 -0.2975 -0.6268 -1.1011
 8081SOL    MW432092   5.581   1.825   4.049 -0.2928  0.0717  0.3760
 8082SOL     OW32093   6.244   2.874   4.575  0.2251  0.2441 -0.4650
 8082SOL    HW232094   6.271   2.960   4.607  0.2949  0.3214 -0.7310
 8082SOL    HW332095   6.158   2.889   4.536  0.4310  0.2820 -0.9103
 8082SOL    MW432096   6.236   2.887   4.574  0.2615  0.2593 -0.5589
 8083SOL     OW32097   1.961   0.494   0.180 -0.0993  0.4585 -0.0634
 8083SOL    HW232098   1.994   0.477   0.092  0.6153  1.5572 -0.0296
 8083SOL    HW332099   2.040   0.513   0.232 -0.6592  1.9291  0.2982
 8083SOL    MW432100   1.976   0.495   0.175 -0.0789  0.7975 -0.0112
 8084SOL     OW32101   4.619   0.329   5.349  0.1569  0.0087  0.7217
 8084SOL    HW232102   4.622   0.275   5.428  0.1729 -1.9436 -0.5542
 8084SOL    HW332103   4.688   0.294   5.294  0.0236  1.2234 -0.2568
 8084SOL    MW432104   4.629   0.317   5.352  0.1414 -0.0886  0.4243
 8085SOL     OW32105   6.155   6.375   5.116  0.0634  0.7801 -0.0890
 8085SOL    HW232106   6.244   6.396   5.143  0.2769 -0.9100  0.6729
 8085SOL    HW332107   6.164   6.347   5.025  0.6572 -1.1070  0.4953
 8085SOL    MW432108   6.168   6.374   5.108  0.1699  0.3081  0.0886
 8086SOL     OW32109   0.647   0.814   6.164  0.0707  1.2767 -0.1853
 8086SOL    HW232110   0.723   0.840   6.112  0.6453  0.9449  0.4590
 8086SOL    HW332111   0.683   0.798   6.252 -0.5805  0.2142 -0.0882
 8086SOL    MW432112   0.662   0.815   6.169  0.0606  1.0928 -0.0875
 8087SOL     OW32113   4.031   0.073   3.234  0.3623 -0.4943 -0.2031
 8087SOL    HW232114   4.029   0.089   3.140 -0.9794  1.0026  0.0492
 8087SOL    HW332115   3.943   0.042   3.255  0.4920 -0.3137  0.6355
 8087SOL    MW432116   4.019   0.071   3.224  0.2024 -0.2730 -0.0592
 8088SOL     OW32117   5.657   4.212   5.548 -0.2340  0.9833 -0.0532
 8088SOL    HW232118   5.645   4.186   5.456 -0.5604  0.5593  0.1102
 8088SOL    HW332119   5.709   4.141   5.586 -0.1903  1.1082  0.1204
 8088SOL    MW432120   5.663   4.199   5.541 -0.2713  0.9439 -0.0087
 8089SOL     OW32121   5.764   0.202   4.170  0.4244 -0.2830  0.4540
 8089SOL    HW232122   5.737   0.269   4.107  0.5699  0.1065  0.7978
 8089SOL    HW332123   5.722   0.228   4.252  1.0519 -0.2177  0.7597
 8089SOL    MW432124   5.755   0.214   4.172  0.5264 -0.2230  0.5397
 8090SOL     OW32125   1.513   4.205   2.946  0.3477  0.1690  0.9525
 8090SOL    HW232126   1.434   4.180   2.896 -0.2357  0.5333  1.6791
 8090SOL    HW332127   1.540   4.124   2.988  0.3200  0.0586  0.7630
 8090SOL    MW432128   1.506   4.191   2.945  0.2671  0.2025  1.0234
 8091SOL     OW32129   0.960   5.041   1.095  0.3232  0.4940 -0.3955
 8091SOL    HW232130   0.958   5.109   1.162  0.9966  0.1782 -0.0357
 8091SOL    HW332131   0.869   5.014   1.085  0.1428  0.9502 -0.0184
 8091SOL    MW432132   0.948   5.046   1.103  0.3882  0.5125 -0.2982
 8092SOL     OW32133   4.812   0.912   2.401 -0.3298  0.3414  0.3328
 8092SOL    HW232134   4.775   0.869   2.478 -2.9420  0.4417 -0.7583
 8092SOL    HW332135   4.805   0.847   2.331 -1.0290  1.3106 -0.5332
 8092SOL    MW432136   4.806   0.898   2.402 -0.7667  0.4825  0.0746
 8093SOL     OW32137   6.077   5.901   4.248  0.2703  0.2012  0.0580
 8093SOL    HW232138   6.000   5.856   4.282  1.0986 -1.3082  0.0080
 8093SOL    HW332139   6.051   5.930   4.161 -0.1310 -0.6215 -0.1032
 8093SOL    MW432140   6.063   5.899   4.241  0.3266 -0.1065  0.0302
 8094SOL     OW32141   2.930   2.013   1.262  0.1906 -0.5985 -0.0377
 8094SOL    HW232142   3.014   2.029   1.305 -0.1066  1.1761 -0.0370
 8094SOL    HW332143   2.931   2.071   1.185 -0.8362 -0.9105 -0.3040
 8094SOL    MW432144   2.941   2.023   1.257  0.0159 -0.4055 -0.0728
 8095SOL     OW32145   6.304   0.446   0.937  0.3765 -0.3918  0.4798
 8095SOL    HW232146   6.362   0.467   1.010 -0.1742 -1.6086  1.3129
 8095SOL    HW332147   6.250   0.373   0.970 -1.2713  0.3661 -0.4184
 8095SOL    MW432148   6.304   0.439   0.951  0.0864 -0.4523  0.4712
 8096SOL     OW32149   4.532   1.287   0.159  0.3708 -0.2922  0.3003
 8096SOL    HW232150   4.562   1.345   0.229 -0.0879  0.6670 -0.2754
 8096SOL    HW332151   4.436   1.293   0.163  0.3281 -0.8255  0.0788
 8096SOL    MW432152   4.523   1.296   0.169  0.3046 -0.2360  0.1951
 8097SOL     OW32153   1.593   3.074   1.513  0.2942  0.0352  0.0349
 8097SOL    HW232154   1.500   3.091   1.527 -0.2134 -2.7319  0.6054
 8097SOL    HW332155   1.614   3.119   1.431 -1.2673  1.4747  0.3675
 8097SOL    MW432156   1.584   3.082   1.504  0.0212 -0.1400  0.1540
 8098SOL     OW32157   2.692   1.015   3.135 -0.2286 -0.3492 -0.1105
 8098SOL    HW232158   2.633   1.057   3.073 -0.0032  0.5086  0.2468
 8098SOL    HW332159   2.691   0.922   3.110  2.3806  0.3618 -3.4786
 8098SOL    MW432160   2.684   1.008   3.124  0.1454 -0.1422 -0.5078
 8099SOL     OW32161   4.013   1.371   5.924 -0.1183 -0.0225 -0.1409
 8099SOL    HW232162   4.051   1.290   5.891  1.4415  0.8690 -0.6262
 8099SOL    HW332163   4.024   1.365   6.019  1.1963  0.1753 -0.2637
 8099SOL    MW432164   4.020   1.360   5.932  0.2609  0.1212 -0.2212
 8100SOL     OW32165   0.918   2.976   0.278 -0.4634  0.8265  0.0415
 8100SOL    HW232166   0.856   3.026   0.224 -0.5411 -0.0159 -0.6810
 8100SOL    HW332167   0.894   2.997   0.368 -1.2368  1.2000 -0.2441
 8100SOL    MW432168   0.906   2.985   0.283 -0.5757  0.7647 -0.0915
 8101SOL     OW32169   2.884   6.271   4.029  0.1786 -0.4350  0.0746
 8101SOL    HW232170   2.968   6.231   4.009 -0.0435 -0.9481  0.1609
 8101SOL    HW332171   2.864   6.243   4.119 -1.7023 -3.1979 -1.0740
 8101SOL    MW432172   2.892   6.262   4.038 -0.0989 -0.8673 -0.0656
 8102SOL     OW32173   6.255   4.986   2.428 -0.0830 -0.5212  0.3402
 8102SOL    HW232174   6.262   4.947   2.516 -0.6551 -1.6177 -0.0771
 8102SOL    HW332175   6.330   4.949   2.381 -0.5713 -1.0628 -0.0289
 8102SOL    MW432176   6.266   4.976   2.433 -0.2229 -0.7373  0.2364
 8103SOL     OW32177   0.380   0.376   0.287  0.0058 -0.1822 -0.5463
 8103SOL    HW232178   0.385   0.411   0.199  1.5698  1.5500  0.1640
 8103SOL    HW332179   0.431   0.295   0.284 -0.5281 -0.4983 -1.3729
 8103SOL    MW432180   0.387   0.370   0.275  0.1417  0.0046 -0.5617
 8104SOL     OW32181   3.958   1.501   4.663  0.2005 -0.0465  0.1493
 8104SOL    HW232182   3.975   1.570   4.727  0.3982 -1.5443  1.7959
 8104SOL    HW332183   3.862   1.494   4.660  0.1852 -1.2974  1.8747
 8104SOL    MW432184   3.947   1.509   4.671  0.2246 -0.4092  0.5942
 8105SOL     OW32185   5.538   2.202   0.105  0.2296  0.7614 -0.5929
 8105SOL    HW232186   5.496   2.264   0.045 -1.0218  1.0257  0.5005
 8105SOL    HW332187   5.485   2.123   0.099  0.9647  0.2870 -0.9125
 8105SOL    MW432188   5.525   2.200   0.097  0.1614  0.7336 -0.4908
 8106SOL     OW32189   0.246   2.800   5.309  0.1628 -0.6450 -0.5207
 8106SOL    HW232190   0.337   2.785   5.334  0.8220  1.4303 -1.4505
 8106SOL    HW332191   0.210   2.712   5.298  1.3911 -1.5571  1.9671
 8106SOL    MW432192   0.253   2.786   5.311  0.4118 -0.4915 -0.3151
 8107SOL     OW32193   2.897   0.408   4.608  0.1882 -0.3589  0.2589
 8107SOL    HW232194   2.820   0.351   4.602 -1.0797  1.4035 -1.3237
 8107SOL    HW332195   2.933   0.407   4.519  0.1906  1.1921  0.2260
 8107SOL    MW432196   2.892   0.400   4.595  0.0212  0.0783  0.0458
 8108SOL     OW32197   0.653   0.291   2.377 -0.4177 -0.4704  0.4029
 8108SOL    HW232198   0.667   0.215   2.321  0.5483 -0.8131  1.0906
 8108SOL    HW332199   0.688   0.365   2.328 -0.9639 -0.5225 -0.0802
 8108SOL    MW432200   0.659   0.291   2.363 -0.3623 -0.5225  0.4299
 8109SOL     OW32201   3.049   4.924   4.028 -0.4954  0.0396 -0.1245
 8109SOL    HW232202   3.001   4.956   4.104  0.8912  0.5891  0.5621
 8109SOL    HW332203   3.140   4.948   4.045 -0.1800  0.4317 -2.0956
 8109SOL    MW432204   3.055   4.931   4.040 -0.2709  0.1639 -0.2940
 8110SOL     OW32205   4.903   0.016   3.637 -0.0552 -0.1191  0.0698
 8110SOL    HW232206   4.843   0.090   3.647  1.0508  0.9815 -1.2408
 8110SOL    HW332207   4.985   0.054   3.607  1.5073 -1.5390  2.2134
 8110SOL    MW432208   4.906   0.031   3.635  0.2969 -0.1612  0.1797
 8111SOL     OW32209   1.458   4.073   1.420  0.2390 -0.1023 -0.5823
 8111SOL    HW232210   1.503   4.102   1.341 -1.2538  0.3366 -1.3108
 8111SOL    HW332211   1.437   4.153   1.467  0.3866 -0.3094 -0.1579
 8111SOL    MW432212   1.461   4.087   1.416  0.0615 -0.0717 -0.6224
 8112SOL     OW32213   4.765   0.533   6.414  0.1166 -0.1810 -0.5832
 8112SOL    HW232214   4.745   0.455   6.361 -0.9632  1.2031 -2.3065
 8112SOL    HW332215   4.852   0.516   6.450  0.0117 -2.0740 -1.1003
 8112SOL    MW432216   4.774   0.520   6.412 -0.0397 -0.2482 -0.8788
 8113SOL     OW32217   4.959   3.028   1.933 -0.0995 -0.3367 -0.5947
 8113SOL    HW232218   4.874   2.987   1.949  0.1243 -0.0263  1.9055
 8113SOL    HW332219   4.944   3.121   1.951  0.6423 -0.1911 -0.6878
 8113SOL    MW432220   4.946   3.035   1.938  0.0279 -0.2765 -0.2771
 8114SOL     OW32221   2.608   4.864   2.513 -0.1519 -0.2637 -0.2256
 8114SOL    HW232222   2.599   4.959   2.516 -1.1696 -0.3698  0.6293
 8114SOL    HW332223   2.697   4.847   2.545  0.9647  0.4998 -2.7075
 8114SOL    MW432224   2.619   4.874   2.518 -0.1388 -0.1769 -0.4402
 8115SOL     OW32225   5.326   5.697   2.176 -0.3923  0.3313 -0.0728
 8115SOL    HW232226   5.385   5.631   2.214  0.2918  0.5572 -0.7024
 8115SOL    HW332227   5.271   5.648   2.115  0.4686  0.3943 -0.9333
 8115SOL    MW432228   5.327   5.682   2.173 -0.1884  0.3694 -0.2694
 8116SOL     OW32229   3.081   1.632   3.040 -0.1017 -0.3660 -0.0828
 8116SOL    HW232230   3.158   1.660   3.091 -0.2488 -1.4810  0.7872
 8116SOL    HW332231   3.056   1.549   3.079 -0.7683 -0.8193 -1.4296
 8116SOL    MW432232   3.088   1.625   3.052 -0.2091 -0.5729 -0.1457
 8117SOL     OW32233   6.388   3.577   5.155 -0.1078 -0.2168  0.0805
 8117SOL    HW232234   6.457   3.583   5.221 -1.7949 -0.0660  1.9382
 8117SOL    HW332235   6.423   3.517   5.089  1.6423 -0.4173  1.1347
 8117SOL    MW432236   6.401   3.570   5.155 -0.0995 -0.2233  0.4647
 8118SOL     OW32237   2.250   4.051   3.006 -0.5843  0.4348  0.3538
 8118SOL    HW232238   2.164   4.088   2.990 -0.1440  1.7979  0.9589
 8118SOL    HW332239   2.235   3.979   3.068 -1.5586 -1.0267 -1.4935
 8118SOL    MW432240   2.237   4.046   3.012 -0.6548  0.4218  0.1899
 8119SOL     OW32241   5.292   5.114   1.130  0.3385  1.2944 -0.1549
 8119SOL    HW232242   5.229   5.138   1.198  0.0732  0.9839 -0.2851
 8119SOL    HW332243   5.312   5.022   1.148 -0.7976  0.7897 -1.2996
 8119SOL    MW432244   5.286   5.105   1.141  0.1536  1.1869 -0.3231
 8120SOL     OW32245   1.953   3.612   0.096 -0.7872  0.3773 -0.1917
 8120SOL    HW232246   1.928   3.596   0.187 -1.3838 -0.6502 -0.5214
 8120SOL    HW332247   1.958   3.525   0.056 -0.1414  0.7847 -1.0480
 8120SOL    MW432248   1.951   3.598   0.103 -0.7807  0.2955 -0.3481
 8121SOL     OW32249   0.120   5.253   5.145  0.0071 -0.5365 -0.1562
 8121SOL    HW232250   0.042   5.293   5.184 -0.3026 -0.8701 -0.4195
 8121SOL    HW332251   0.161   5.205   5.217  0.2277  0.0258  0.0939
 8121SOL    MW432252   0.115   5.252   5.160 -0.0047 -0.5064 -0.1580
 8122SOL     OW32253   1.837   2.673   4.700 -0.0425 -0.4570 -0.1371
 8122SOL    HW232254   1.907   2.637   4.646  0.6419  1.3834 -0.5744
 8122SOL    HW332255   1.797   2.740   4.644 -0.5968  0.1382  0.9413
 8122SOL    MW432256   1.841   2.677   4.685 -0.0253 -0.1357 -0.0525
 8123SOL     OW32257   3.378   5.215   0.208  0.1017  0.5125  0.0421
 8123SOL    HW232258   3.400   5.301   0.244  1.8382  0.5141 -0.9079
 8123SOL    HW332259   3.459   5.165   0.216 -0.0665 -0.1421 -1.9186
 8123SOL    MW432260   3.392   5.220   0.214  0.3086  0.4264 -0.3420
 8124SOL     OW32261   5.786   4.110   3.456 -0.2953  0.2620 -0.1118
 8124SOL    HW232262   5.779   4.158   3.538  1.2828 -1.1297  0.8970
 8124SOL    HW332263   5.771   4.018   3.480  0.4854 -0.2138 -1.3129
 8124SOL    MW432264   5.783   4.104   3.470  0.0159  0.0156 -0.1372
 8125SOL     OW32265   3.297   4.973   2.708  0.0570  0.1064 -0.5919
 8125SOL    HW232266   3.377   4.943   2.752  0.0513 -1.1596 -1.4174
 8125SOL    HW332267   3.324   4.986   2.617 -0.7537 -0.6609 -0.9486
 8125SOL    MW432268   3.311   4.971   2.702 -0.0507 -0.1619 -0.7479
 8126SOL     OW32269   1.120   2.361   5.539 -0.0739  0.2620  0.2805
 8126SOL    HW232270   1.039   2.404   5.512  0.8882  0.8988 -1.8181
 8126SOL    HW332271   1.174   2.360   5.460  1.2884 -1.7543  1.1561
 8126SOL    MW432272   1.116   2.367   5.525  0.2328  0.0800  0.1192
 8127SOL     OW32273   0.382   2.047   4.993  0.3253  0.2147 -0.4665
 8127SOL    HW232274   0.378   2.100   4.914 -1.9142 -0.8426 -1.1265
 8127SOL    HW332275   0.420   1.964   4.964  1.8029  0.6573  0.1177
 8127SOL    MW432276   0.387   2.043   4.979  0.2247  0.1336 -0.4765
 8128SOL     OW32277   1.963   3.687   4.913 -0.0403  0.2709  1.1085
 8128SOL    HW232278   1.965   3.773   4.872  1.3661  0.4664  1.5297
 8128SOL    HW332279   1.993   3.702   5.003  3.0893 -1.0014  0.3978
 8128SOL    MW432280   1.967   3.700   4.920  0.5582  0.1289  1.0703
 8129SOL     OW32281   4.167   0.912   5.609 -0.3295  0.2277  0.1605
 8129SOL    HW232282   4.159   0.832   5.557  1.0500  1.0184 -1.3694
 8129SOL    HW332283   4.077   0.943   5.618 -1.0119 -2.0094  1.7239
 8129SOL    MW432284   4.154   0.906   5.603 -0.2375  0.0369  0.1649
 8130SOL     OW32285   0.468   3.473   4.403  0.3134 -0.3325 -0.1174
 8130SOL    HW232286   0.391   3.436   4.361  0.4755  0.1450 -0.8632
 8130SOL    HW332287   0.458   3.568   4.392 -0.1200 -0.1194  1.7978
 8130SOL    MW432288   0.457   3.481   4.396  0.2776 -0.2414  0.0369
 8131SOL     OW32289   0.655   3.051   0.890  0.7313 -0.3921 -0.2952
 8131SOL    HW232290   0.605   2.990   0.944  1.0565  1.3054  2.1320
 8131SOL    HW332291   0.692   3.113   0.953  0.7501  2.0718 -2.5452
 8131SOL    MW432292   0.654   3.051   0.906  0.7767  0.1569 -0.2718
 8132SOL     OW32293   4.555   1.772   5.911 -0.5258  0.5886  0.4656
 8132SOL    HW232294   4.480   1.794   5.967 -0.5493  0.5951  0.4321
 8132SOL    HW332295   4.518   1.770   5.823 -0.6706 -0.2784  0.5401
 8132SOL    MW432296   4.540   1.775   5.907 -0.5480  0.4751  0.4710
 8133SOL     OW32297   2.852   1.850   4.179  0.2691  0.1494  0.6394
 8133SOL    HW232298   2.821   1.826   4.091  1.1966  0.7238  0.1400
 8133SOL    HW332299   2.795   1.923   4.205  0.2225  0.2161  0.3589
 8133SOL    MW432300   2.840   1.856   4.171  0.3854  0.2340  0.5365
 8134SOL     OW32301   2.930   3.195   1.464  0.6058 -0.3056 -0.0412
 8134SOL    HW232302   2.947   3.110   1.423  0.2244  0.0930 -1.0777
 8134SOL    HW332303   2.925   3.256   1.390 -1.3509  0.2588  0.4870
 8134SOL    MW432304   2.932   3.192   1.449  0.2973 -0.1785 -0.1082
 8135SOL     OW32305   0.160   1.649   2.169 -0.1063 -0.0995 -0.5507
 8135SOL    HW232306   0.166   1.715   2.238 -1.6656 -0.2348 -0.2504
 8135SOL    HW332307   0.146   1.567   2.216 -0.0034 -0.3770 -0.9974
 8135SOL    MW432308   0.159   1.647   2.185 -0.2985 -0.1540 -0.5701
 8136SOL     OW32309   5.576   1.736   1.153 -0.2485 -0.2955 -0.4006
 8136SOL    HW232310   5.598   1.752   1.061 -2.3273 -0.0129 -0.8858
 8136SOL    HW332311   5.616   1.651   1.173  0.8301 -0.0307 -1.3289
 8136SOL    MW432312   5.584   1.727   1.144 -0.3804 -0.2233 -0.5871
 8137SOL     OW32313   5.727   6.153   3.459 -0.2919  0.0330  0.5177
 8137SOL    HW232314   5.733   6.161   3.364  1.0665  0.7152  0.6270
 8137SOL    HW332315   5.812   6.116   3.485 -0.1708  0.9897  1.5659
 8137SOL    MW432316   5.739   6.149   3.450 -0.0967  0.2493  0.6704
 8138SOL     OW32317   2.115   5.900   3.544  0.0694  0.0848 -0.4096
 8138SOL    HW232318   2.109   5.905   3.639 -0.1702  1.7607 -0.4713
 8138SOL    HW332319   2.027   5.923   3.513  0.2102 -0.1891 -1.0356
 8138SOL    MW432320   2.103   5.904   3.552  0.0564  0.2698 -0.5004
 8139SOL     OW32321   0.577   1.503   5.969 -0.5235  0.2769  0.0756
 8139SOL    HW232322   0.657   1.556   5.975 -0.3423  0.2529 -1.5735
 8139SOL    HW332323   0.509   1.565   5.942 -0.5817 -0.0877 -0.6383
 8139SOL    MW432324   0.579   1.519   5.966 -0.5073  0.2257 -0.2362
 8140SOL     OW32325   2.111   4.746   2.054  0.5983 -0.8804 -0.4565
 8140SOL    HW232326   2.081   4.794   2.131 -1.3733  0.0452 -1.7184
 8140SOL    HW332327   2.205   4.731   2.070  0.4573  0.0943  1.6576
 8140SOL    MW432328   2.120   4.750   2.066  0.3196 -0.6297 -0.3440
 8141SOL     OW32329   3.170   1.854   4.947 -0.1093 -0.0900  0.6946
 8141SOL    HW232330   3.161   1.911   5.023 -1.0454  1.0521 -0.2219
 8141SOL    HW332331   3.219   1.907   4.883  2.4500 -1.7427  1.1595
 8141SOL    MW432332   3.176   1.869   4.948  0.1049 -0.1573  0.6350
 8142SOL     OW32333   6.174   0.662   5.869 -0.1476 -0.0276  0.6650
 8142SOL    HW232334   6.207   0.732   5.925 -0.7998  0.8597 -0.0301
 8142SOL    HW332335   6.079   0.675   5.867 -0.3127 -1.1025  0.7415
 8142SOL    MW432336   6.166   0.673   5.876 -0.2554 -0.0524  0.5834
 8143SOL     OW32337   6.330   4.519   2.862  0.4507 -0.7545 -0.3318
 8143SOL    HW232338   6.268   4.468   2.913 -0.5774 -0.1997 -1.0018
 8143SOL    HW332339   6.377   4.571   2.927 -1.3976  0.5402  0.0288
 8143SOL    MW432340   6.328   4.519   2.877  0.0712 -0.5105 -0.3726
 8144SOL     OW32341   1.430   4.639   3.138 -0.1659  0.0660 -0.8870
 8144SOL    HW232342   1.339   4.663   3.120 -0.5691 -0.2334  0.5941
 8144SOL    HW332343   1.431   4.543   3.129 -0.4485 -0.1255  0.8054
 8144SOL    MW432344   1.418   4.629   3.135 -0.2564  0.0012 -0.4683
 8145SOL     OW32345   4.371   2.948   3.351  0.4629  0.0747  0.0731
 8145SOL    HW232346   4.329   2.888   3.289 -1.5312  1.6773 -0.2278
 8145SOL    HW332347   4.465   2.933   3.338  0.0644 -1.8106 -1.1091
 8145SOL    MW432348   4.378   2.938   3.341  0.1472  0.0374 -0.1226
 8146SOL     OW32349   3.181   5.559   5.849  0.0756 -0.1914 -0.1022
 8146SOL    HW232350   3.230   5.637   5.823  1.0511 -0.5141  0.7106
 8146SOL    HW332351   3.089   5.581   5.832  0.3301  1.1431  0.1622
 8146SOL    MW432352   3.175   5.572   5.843  0.2379 -0.0579  0.0399
 8147SOL     OW32353   3.831   3.768   0.001  0.0019  0.0872 -0.2143
 8147SOL    HW232354   3.749   3.765   0.052 -0.3303  0.6383 -0.7089
 8147SOL    HW332355   3.802   3.769  -0.090  0.5876 -0.5455 -0.4119
 8147SOL    MW432356   3.816   3.768  -0.004  0.0354  0.0764 -0.3056
 8148SOL     OW32357  -0.001   5.005   4.909 -0.1280 -0.1630 -0.3974
 8148SOL    HW232358   0.010   5.100   4.902  0.3467 -0.2880 -1.5266
 8148SOL    HW332359  -0.094   4.990   4.889 -0.4029  0.1221  0.6038
 8148SOL    MW432360  -0.012   5.016   4.905 -0.1017 -0.1418 -0.4143
 8149SOL     OW32361   3.089   4.909   0.964  0.6724  0.1962  0.4381
 8149SOL    HW232362   3.134   4.894   1.046  1.2103 -0.1687  0.0833
 8149SOL    HW332363   3.155   4.894   0.896  0.3249  0.8073 -0.0523
 8149SOL    MW432364   3.104   4.905   0.966  0.6975  0.2287  0.3266
 8150SOL     OW32365   3.864   4.257   4.534  0.2237  0.0195 -0.6119
 8150SOL    HW232366   3.908   4.174   4.516  2.0035  0.3724  1.7788
 8150SOL    HW332367   3.852   4.297   4.447  0.2524 -2.2324 -1.7198
 8150SOL    MW432368   3.868   4.251   4.520  0.4623 -0.2311 -0.4426
 8151SOL     OW32369   6.004   5.489   3.588 -0.5376 -0.2034  0.2660
 8151SOL    HW232370   6.066   5.515   3.656 -1.1969 -0.3517  0.9388
 8151SOL    HW332371   5.989   5.569   3.538  1.8336 -0.6196 -1.2931
 8151SOL    MW432372   6.010   5.503   3.591 -0.3118 -0.2779  0.1491
 8152SOL     OW32373   4.417   5.664   2.644  0.4017 -0.1823 -0.3403
 8152SOL    HW232374   4.429   5.570   2.631  0.2434 -0.1401 -0.8258
 8152SOL    HW332375   4.481   5.704   2.585  1.2111  0.0104  0.6625
 8152SOL    MW432376   4.427   5.657   2.634  0.4876 -0.1513 -0.2720
 8153SOL     OW32377   0.612   2.847   4.966  0.4428  0.8594 -0.1378
 8153SOL    HW232378   0.539   2.905   4.989  1.2334  1.3324  1.3199
 8153SOL    HW332379   0.591   2.764   5.008  0.1521  0.6179 -0.7577
 8153SOL    MW432380   0.600   2.844   4.975  0.5088  0.8899 -0.0273
 8154SOL     OW32381   4.574   3.851   3.275  0.2210 -0.1359 -0.0753
 8154SOL    HW232382   4.615   3.794   3.210  1.6097 -0.3508  0.9681
 8154SOL    HW332383   4.547   3.928   3.225  0.6848 -0.5749 -1.0245
 8154SOL    MW432384   4.576   3.854   3.260  0.4654 -0.2222 -0.0629
 8155SOL     OW32385   5.548   5.009   2.300 -0.1119  0.4990  0.3434
 8155SOL    HW232386   5.537   5.012   2.205 -1.4149  1.3980  0.4882
 8155SOL    HW332387   5.464   5.042   2.334 -0.3371 -1.4324  1.8266
 8155SOL    MW432388   5.535   5.014   2.292 -0.3135  0.3628  0.5582
 8156SOL     OW32389   2.490   0.091   3.685  0.1043 -0.4167  0.6942
 8156SOL    HW232390   2.426   0.131   3.626  0.8317 -1.0030 -0.5343
 8156SOL    HW332391   2.486   0.144   3.764 -0.9774  0.3359  0.1569
 8156SOL    MW432392   2.481   0.103   3.687  0.0576 -0.3947  0.4613
 8157SOL     OW32393   3.614   1.647   1.766 -0.7253 -0.5165  0.0884
 8157SOL    HW232394   3.653   1.593   1.698 -0.3256 -1.7096  1.2166
 8157SOL    HW332395   3.530   1.604   1.785 -1.5734  0.7037 -0.7060
 8157SOL    MW432396   3.608   1.634   1.760 -0.7844 -0.5129  0.1324
 8158SOL     OW32397   5.237   1.336   5.520  0.1829  0.0016 -0.1188
 8158SOL    HW232398   5.231   1.325   5.615  0.3904  0.6662 -0.0248
 8158SOL    HW332399   5.182   1.266   5.485 -1.3114  0.7855  0.5279
 8158SOL    MW432400   5.229   1.325   5.528  0.0131  0.1927 -0.0211
 8159SOL     OW32401   4.148   0.116   2.093 -0.5161  0.9038 -0.5898
 8159SOL    HW232402   4.157   0.117   2.189 -0.2513  1.1306 -0.6154
 8159SOL    HW332403   4.055   0.098   2.078 -0.5841  0.9975 -0.2888
 8159SOL    MW432404   4.137   0.114   2.104 -0.4901  0.9461 -0.5535
 8160SOL     OW32405   4.758   3.621   5.032 -0.2547 -0.1269  0.4553
 8160SOL    HW232406   4.727   3.702   5.072 -0.7978 -0.2062  0.2049
 8160SOL    HW332407   4.681   3.565   5.026 -0.3377  0.1131 -1.2614
 8160SOL    MW432408   4.744   3.624   5.036 -0.3373 -0.1057  0.1958
 8161SOL     OW32409   5.170   0.144   3.592  0.2619 -0.6561 -0.3100
 8161SOL    HW232410   5.202   0.199   3.520 -0.4491  0.6073  0.3214
 8161SOL    HW332411   5.249   0.103   3.628  0.7394 -0.4668 -1.1145
 8161SOL    MW432412   5.185   0.146   3.587  0.2311 -0.4645 -0.3329
 8162SOL     OW32413   5.071   2.410   3.600 -0.7186  0.3355  0.5887
 8162SOL    HW232414   4.978   2.388   3.607 -1.4157  2.8957  0.3469
 8162SOL    HW332415   5.092   2.396   3.508 -1.5441  1.9759  0.1162
 8162SOL    MW432416   5.061   2.405   3.589 -0.9195  0.8898  0.4944
 8163SOL     OW32417   1.602   2.853   0.575 -0.2992  0.4839  0.0631
 8163SOL    HW232418   1.688   2.894   0.563 -0.4504  1.6744  2.4199
 8163SOL    HW332419   1.557   2.867   0.492  1.2716  1.1269 -0.7153
 8163SOL    MW432420   1.608   2.860   0.562 -0.1119  0.7258  0.2714
 8164SOL     OW32421   5.467   2.642   4.942 -0.0679 -0.1406  0.1457
 8164SOL    HW232422   5.423   2.609   5.021 -1.2909 -1.2337 -0.9436
 8164SOL    HW332423   5.480   2.564   4.888  0.5943  0.6182 -0.8096
 8164SOL    MW432424   5.463   2.627   4.946 -0.1419 -0.1847 -0.1241
 8165SOL     OW32425   4.469   5.382   5.982  0.1648 -0.4120 -0.5179
 8165SOL    HW232426   4.423   5.317   5.929  1.6751 -2.4572  0.5550
 8165SOL    HW332427   4.493   5.335   6.062  2.4471  1.0800 -0.2464
 8165SOL    MW432428   4.466   5.367   5.985  0.6652 -0.4850 -0.3405
 8166SOL     OW32429   2.448   1.406   3.081  0.5110 -0.4990  0.0010
 8166SOL    HW232430   2.523   1.446   3.125  0.8201 -0.7234 -0.3139
 8166SOL    HW332431   2.414   1.474   3.023  1.9132 -1.0857 -1.6250
 8166SOL    MW432432   2.454   1.420   3.079  0.7368 -0.6060 -0.2551
 8167SOL     OW32433   1.159   3.701   3.138 -0.1570  0.0879  0.8004
 8167SOL    HW232434   1.079   3.746   3.110  1.4253  1.7601 -1.4161
 8167SOL    HW332435   1.170   3.631   3.074  0.2632  0.0122  0.9556
 8167SOL    MW432436   1.150   3.698   3.126  0.1072  0.2985  0.5285
 8168SOL     OW32437   0.951   3.992   5.647  0.1470 -0.0286  0.0914
 8168SOL    HW232438   0.899   3.990   5.567 -0.8986  0.9567  0.7292
 8168SOL    HW332439   0.937   3.906   5.687  0.2267 -0.3179 -0.4890
 8168SOL    MW432440   0.943   3.980   5.641  0.0195  0.0632  0.0990
 8169SOL     OW32441   4.875   2.287   2.858  0.0617 -0.7284 -0.8026
 8169SOL    HW232442   4.894   2.222   2.790 -1.4314 -1.0863 -0.9016
 8169SOL    HW332443   4.933   2.360   2.837  0.7263 -1.4468 -1.5451
 8169SOL    MW432444   4.885   2.288   2.846 -0.0476 -0.8704 -0.9136
 8170SOL     OW32445   0.163   0.268   4.664 -0.4456  0.2328 -0.5352
 8170SOL    HW232446   0.108   0.345   4.652 -1.1999 -0.2046  0.0414
 8170SOL    HW332447   0.194   0.247   4.576 -2.2680 -0.2938 -1.0748
 8170SOL    MW432448   0.160   0.276   4.651 -0.7856  0.1056 -0.5303
 8171SOL     OW32449   1.937   3.094   1.349  0.1098 -0.5514  0.4817
 8171SOL    HW232450   1.925   3.006   1.385  0.6528 -1.0878 -0.6166
 8171SOL    HW332451   1.856   3.111   1.301 -0.4255 -0.0142  1.5203
 8171SOL    MW432452   1.925   3.085   1.348  0.1108 -0.5513  0.4738
 8172SOL     OW32453   4.353   0.435   0.406  0.5423 -0.2722 -0.1290
 8172SOL    HW232454   4.263   0.401   0.397 -0.2359  1.7221 -0.2312
 8172SOL    HW332455   4.392   0.422   0.320  0.1893 -0.6752 -0.2325
 8172SOL    MW432456   4.346   0.428   0.394  0.3930 -0.0622 -0.1562
 8173SOL     OW32457   3.901   3.501   6.187 -0.3690  0.0369 -0.0659
 8173SOL    HW232458   3.920   3.423   6.135 -0.0415 -0.5700  0.9382
 8173SOL    HW332459   3.890   3.468   6.276 -1.7585  0.9385  0.1285
 8173SOL    MW432460   3.902   3.486   6.192 -0.5091  0.0758  0.0922
 8174SOL     OW32461   3.871   4.660   0.252  0.5510 -0.2101  0.3561
 8174SOL    HW232462   3.911   4.662   0.165  0.4930  1.7838  0.3321
 8174SOL    HW332463   3.788   4.706   0.242 -0.2851 -1.4805  1.1172
 8174SOL    MW432464   3.866   4.667   0.239  0.4330 -0.1146  0.4533
 8175SOL     OW32465   4.635   3.190   4.937 -0.0966  0.0253 -0.2930
 8175SOL    HW232466   4.584   3.258   4.981 -1.3388 -1.2132  0.2584
 8175SOL    HW332467   4.721   3.195   4.977 -0.3372  0.8948  0.1496
 8175SOL    MW432468   4.639   3.200   4.948 -0.2922 -0.0234 -0.1619
 8176SOL     OW32469   1.495   3.403   0.399 -0.0223  0.1891 -0.1701
 8176SOL    HW232470   1.442   3.327   0.379 -0.8803  0.5423  0.6930
 8176SOL    HW332471   1.444   3.478   0.367  0.6398  0.4341 -0.6811
 8176SOL    MW432472   1.482   3.403   0.392 -0.0481  0.2680 -0.1237
 8177SOL     OW32473   4.254   4.657   4.992  0.3145  0.1504  0.3224
 8177SOL    HW232474   4.316   4.628   4.925  0.5764  0.8929  0.2385
 8177SOL    HW332475   4.168   4.648   4.950  0.5149  1.2199 -0.3647
 8177SOL    MW432476   4.251   4.652   4.978  0.3755  0.3895  0.2206
 8178SOL     OW32477   4.730   1.227   3.313  0.4274 -0.2724 -0.1877
 8178SOL    HW232478   4.794   1.274   3.259  1.6521  0.0622  1.4551
 8178SOL    HW332479   4.748   1.135   3.296  0.3928 -0.1702 -0.7977
 8178SOL    MW432480   4.741   1.221   3.303  0.5844 -0.2148 -0.0514
 8179SOL     OW32481   1.204   2.849   6.013 -0.1930  0.5452 -0.0189
 8179SOL    HW232482   1.297   2.827   6.007 -0.5101 -0.9088  0.0992
 8179SOL    HW332483   1.176   2.812   6.096 -1.5220 -1.6862 -1.3493
 8179SOL    MW432484   1.212   2.841   6.023 -0.4102  0.0590 -0.1788
 8180SOL     OW32485   5.240   4.475   2.196  0.0890 -0.2439  0.2648
 8180SOL    HW232486   5.217   4.457   2.105  0.4395 -0.4865  0.2211
 8180SOL    HW332487   5.276   4.392   2.228 -0.9365 -0.4601  0.9158
 8180SOL    MW432488   5.242   4.462   2.188 -0.0001 -0.3044  0.3450
 8181SOL     OW32489   1.054   2.261   5.191  0.2085  0.0616 -0.0975
 8181SOL    HW232490   1.132   2.215   5.221 -1.5722 -2.1326  1.4667
 8181SOL    HW332491   0.994   2.259   5.266 -1.8203  0.5355 -1.6155
 8181SOL    MW432492   1.056   2.255   5.205 -0.2941 -0.1654 -0.0914
 8182SOL     OW32493   3.165   3.273   1.606 -0.0707  0.3466 -0.2089
 8182SOL    HW232494   3.086   3.254   1.556 -0.8378  0.9253  0.7526
 8182SOL    HW332495   3.173   3.199   1.667 -1.2152  1.4045  1.2906
 8182SOL    MW432496   3.156   3.261   1.607 -0.3229  0.5625  0.1158
 8183SOL     OW32497   6.127   0.565   6.203 -0.1981 -0.4371  0.1463
 8183SOL    HW232498   6.168   0.649   6.225  0.0452 -0.4637 -0.2094
 8183SOL    HW332499   6.091   0.578   6.115  1.9590 -1.4582 -0.9598
 8183SOL    MW432500   6.128   0.578   6.195  0.1186 -0.5753 -0.0466
 8184SOL     OW32501   2.167   5.381   3.706 -0.0797 -0.5150  0.0902
 8184SOL    HW232502   2.165   5.425   3.621 -2.4876 -0.7013 -0.0107
 8184SOL    HW332503   2.261   5.374   3.727  0.5190  0.7713 -1.8730
 8184SOL    MW432504   2.179   5.386   3.697 -0.3184 -0.3699 -0.1822
 8185SOL     OW32505   1.101   0.924   4.753 -0.7824  0.3152  0.0219
 8185SOL    HW232506   1.115   0.829   4.754 -0.3871  0.3776  0.2013
 8185SOL    HW332507   1.155   0.957   4.824  0.1510  0.8284 -0.9186
 8185SOL    MW432508   1.110   0.916   4.762 -0.6071  0.3912 -0.0786
 8186SOL     OW32509   1.903   1.855   5.704  0.1263 -0.1973 -0.4936
 8186SOL    HW232510   1.933   1.944   5.680  1.2918 -0.3609  0.2753
 8186SOL    HW332511   1.984   1.807   5.720 -0.5488 -0.6818  1.6988
 8186SOL    MW432512   1.918   1.861   5.703  0.1910 -0.2828 -0.1029
 8187SOL     OW32513   5.975   3.152   5.882 -0.1718 -0.2694 -0.1232
 8187SOL    HW232514   5.913   3.220   5.854  1.0098  0.9748  0.1670
 8187SOL    HW332515   5.928   3.103   5.950 -0.9588  0.4215 -0.1526
 8187SOL    MW432516   5.960   3.154   5.887 -0.1197 -0.0141 -0.0888
 8188SOL     OW32517   5.643   5.593   0.111 -0.0681 -0.5411  0.1466
 8188SOL    HW232518   5.695   5.523   0.152  0.4252 -0.0447  0.3846
 8188SOL    HW332519   5.561   5.594   0.160  0.0701 -0.7114  0.3841
 8188SOL    MW432520   5.639   5.584   0.123  0.0153 -0.4981  0.2093
 8189SOL     OW32521   0.471   6.292   0.479  0.3070  0.2001 -0.4111
 8189SOL    HW232522   0.382   6.318   0.502  0.3111 -0.0990 -0.0433
 8189SOL    HW332523   0.523   6.318   0.555  0.7414  1.4881 -1.1240
 8189SOL    MW432524   0.466   6.299   0.492  0.3649  0.3306 -0.4567
 8190SOL     OW32525   1.207   2.884   2.146  0.4476 -0.2516 -0.1285
 8190SOL    HW232526   1.225   2.790   2.152  0.0302 -0.3323 -0.1095
 8190SOL    HW332527   1.293   2.924   2.134  0.7118 -0.5679  0.6595
 8190SOL    MW432528   1.221   2.877   2.145  0.4274 -0.3040 -0.0220
 8191SOL     OW32529   1.508   2.990   4.878  0.4713 -0.0607 -0.2034
 8191SOL    HW232530   1.509   2.909   4.828  0.2809 -0.6228  0.6741
 8191SOL    HW332531   1.550   2.968   4.961  2.1019  1.2118 -0.6327
 8191SOL    MW432532   1.514   2.977   4.882  0.6613  0.0330 -0.1443
 8192SOL     OW32533   5.044   2.749   6.156 -0.1679  0.0505 -0.4335
 8192SOL    HW232534   4.954   2.716   6.158 -1.2240  2.6982  1.8903
 8192SOL    HW332535   5.095   2.685   6.206 -1.5706  0.4208  1.5570
 8192SOL    MW432536   5.039   2.736   6.163 -0.4923  0.4487  0.1357
 8193SOL     OW32537   3.624   5.553   1.903 -0.3927 -0.1664 -0.1544
 8193SOL    HW232538   3.655   5.528   1.816  1.0721 -0.5641  0.4466
 8193SOL    HW332539   3.698   5.597   1.944 -0.3658 -1.6569  1.5674
 8193SOL    MW432540   3.638   5.556   1.897 -0.1959 -0.4155  0.1520
 8194SOL     OW32541   5.904   4.722   2.809  0.3778 -0.4974  0.5543
 8194SOL    HW232542   5.856   4.696   2.730  4.6393 -0.1520 -2.5589
 8194SOL    HW332543   5.881   4.657   2.874 -4.3052 -0.1473 -0.3816
 8194SOL    MW432544   5.895   4.710   2.807  0.3222 -0.4056  0.0201
 8195SOL     OW32545   6.115   1.076   1.334 -0.0120 -0.1089  0.4477
 8195SOL    HW232546   6.019   1.072   1.333  0.0143 -0.7726  0.1135
 8195SOL    HW332547   6.139   1.037   1.418  0.0387 -2.2152 -0.4875
 8195SOL    MW432548   6.105   1.071   1.345 -0.0019 -0.4744  0.2802
 8196SOL     OW32549   1.718   5.961   4.008 -0.3414  0.0734 -0.0925
 8196SOL    HW232550   1.692   5.988   3.919  2.3879 -0.0489 -1.0058
 8196SOL    HW332551   1.708   5.866   4.008 -1.5171  0.1782  0.1870
 8196SOL    MW432552   1.713   5.952   3.996 -0.1364  0.0711 -0.1761
 8197SOL     OW32553   2.222   1.590   2.294 -0.4434  0.7417 -0.3363
 8197SOL    HW232554   2.141   1.621   2.253 -0.3878 -0.9440 -1.7882
 8197SOL    HW332555   2.210   1.496   2.303  1.8117  0.2831 -1.6450
 8197SOL    MW432556   2.210   1.582   2.290 -0.1385  0.4588 -0.7006
 8198SOL     OW32557   0.339   3.746   3.510  0.3326  0.2780 -0.2836
 8198SOL    HW232558   0.328   3.841   3.519 -0.3793  0.3082 -1.2819
 8198SOL    HW332559   0.355   3.715   3.599  1.2962  1.4165 -0.0369
 8198SOL    MW432560   0.340   3.754   3.523  0.3658  0.4322 -0.3827
 8199SOL     OW32561   3.466   2.188   6.022 -0.3627  0.5841  0.9010
 8199SOL    HW232562   3.402   2.256   6.045 -2.5374 -0.8970 -0.4409
 8199SOL    HW332563   3.543   2.238   5.994 -1.6571  2.5137  0.5357
 8199SOL    MW432564   3.468   2.204   6.021 -0.8204  0.6433  0.6758
 8200SOL     OW32565   2.555   5.104   1.214  0.1544  0.4014 -0.0162
 8200SOL    HW232566   2.503   5.055   1.277 -0.4845  2.0489  0.7923
 8200SOL    HW332567   2.560   5.192   1.250  1.8384  0.7960 -1.0713
 8200SOL    MW432568   2.549   5.109   1.227  0.2923  0.6708 -0.0487
 8201SOL     OW32569   6.306   5.916   5.753  0.7465  0.1239  0.2213
 8201SOL    HW232570   6.267   5.992   5.796 -0.3677 -0.1828 -0.1967
 8201SOL    HW332571   6.250   5.901   5.676  2.1542  0.1214 -0.8458
 8201SOL    MW432572   6.293   5.924   5.748  0.7852  0.0831  0.0254
 8202SOL     OW32573   2.568   4.817   5.085 -0.5808  0.4687  0.2980
 8202SOL    HW232574   2.578   4.751   5.153 -1.6477  0.0053  0.0230
 8202SOL    HW332575   2.598   4.774   5.005  0.5487  0.9684  0.4387
 8202SOL    MW432576   2.573   4.803   5.084 -0.5725  0.4735  0.2803
 8203SOL     OW32577   4.974   1.504   0.768 -0.3021 -0.4810  0.2761
 8203SOL    HW232578   4.880   1.511   0.783 -0.4135  0.4475 -0.7470
 8203SOL    HW332579   4.990   1.558   0.690  1.7557  3.4925  3.0754
 8203SOL    MW432580   4.964   1.512   0.760 -0.0453  0.1657  0.5105
 8204SOL     OW32581   4.710   5.918   0.932 -0.6486 -0.4406  0.8573
 8204SOL    HW232582   4.764   5.872   0.869 -0.3972 -1.1889  1.6068
 8204SOL    HW332583   4.694   6.004   0.892  0.5049 -0.4628  0.3200
 8204SOL    MW432584   4.715   5.924   0.918 -0.4632 -0.5423  0.8853
 8205SOL     OW32585   2.038   5.374   5.436  0.5233 -0.5301  0.3128
 8205SOL    HW232586   2.077   5.416   5.513  1.6556  1.2556 -1.1461
 8205SOL    HW332587   1.952   5.416   5.427  0.6515 -0.2806  0.2484
 8205SOL    MW432588   2.031   5.385   5.445  0.6896 -0.2616  0.1119
 8206SOL     OW32589   0.794   1.475   4.474 -0.0160  0.1362  0.1299
 8206SOL    HW232590   0.709   1.501   4.509 -0.7638 -1.4670 -0.4244
 8206SOL    HW332591   0.800   1.381   4.491  2.1233  0.3787  1.0970
 8206SOL    MW432592   0.784   1.466   4.481  0.1676 -0.0434  0.1844
 8207SOL     OW32593   2.346   2.994   0.912  0.7612 -0.1333 -0.0058
 8207SOL    HW232594   2.427   2.967   0.868  0.7481 -1.0450  0.5153
 8207SOL    HW332595   2.348   2.948   0.995  0.5685  1.2292  0.7812
 8207SOL    MW432596   2.357   2.985   0.917  0.7341 -0.0738  0.1668
 8208SOL     OW32597   4.794   6.073   6.156  0.1735  0.1848  0.5462
 8208SOL    HW232598   4.805   6.027   6.239 -0.9762  1.7979  1.6603
 8208SOL    HW332599   4.737   6.147   6.177 -1.6280 -0.3228 -2.0341
 8208SOL    MW432600   4.788   6.077   6.170 -0.2158  0.3307  0.3528
 8209SOL     OW32601   4.711   0.638   1.169  0.3058  0.1906 -0.0459
 8209SOL    HW232602   4.750   0.574   1.110  0.3609 -0.1894  0.3951
 8209SOL    HW332603   4.622   0.649   1.136  0.6952  0.8651 -0.8945
 8209SOL    MW432604   4.704   0.631   1.157  0.3644  0.2294 -0.0997
 8210SOL     OW32605   2.581   5.646   6.039  0.4778  0.8213 -0.5306
 8210SOL    HW232606   2.632   5.727   6.043  3.3169 -0.5942 -3.4759
 8210SOL    HW332607   2.617   5.593   6.110 -1.5116  2.0678  1.5220
 8210SOL    MW432608   2.593   5.650   6.049  0.5899  0.7990 -0.6484
 8211SOL     OW32609   3.330   4.934   4.058  0.3093 -0.9029 -0.1468
 8211SOL    HW232610   3.374   4.924   3.974  0.5374  0.0857 -0.1569
 8211SOL    HW332611   3.399   4.924   4.123  0.5418  0.3639 -0.1557
 8211SOL    MW432612   3.345   4.932   4.056  0.3701 -0.6054 -0.1493
 8212SOL     OW32613   2.802   1.331   3.940 -0.2348  0.3023 -0.0044
 8212SOL    HW232614   2.718   1.352   3.982 -0.9625  1.5046 -1.9224
 8212SOL    HW332615   2.866   1.384   3.987 -0.5716 -0.4424  1.3320
 8212SOL    MW432616   2.799   1.341   3.952 -0.3752  0.3627 -0.0812
 8213SOL     OW32617   5.031   2.315   4.985 -0.2415  0.1239  0.2210
 8213SOL    HW232618   4.937   2.302   4.990 -0.3041  0.7316  0.8649
 8213SOL    HW332619   5.043   2.409   4.997  0.4780 -0.0081  0.6078
 8213SOL    MW432620   5.020   2.326   4.987 -0.1548  0.1866  0.3570
 8214SOL     OW32621   1.770   1.611   3.048 -0.2950  0.0356 -0.5825
 8214SOL    HW232622   1.706   1.639   3.113  0.1929 -1.5601  0.6573
 8214SOL    HW332623   1.740   1.524   3.021  0.2639  0.1120 -1.4785
 8214SOL    MW432624   1.758   1.603   3.053 -0.1569 -0.1648 -0.5372
 8215SOL     OW32625   3.126   3.385   5.414 -0.5256 -0.1805  0.2933
 8215SOL    HW232626   3.033   3.399   5.432 -0.6212  1.6850 -1.2586
 8215SOL    HW332627   3.166   3.471   5.428  0.7102 -0.6121 -0.4661
 8215SOL    MW432628   3.119   3.399   5.418 -0.3752  0.0087 -0.0116
 8216SOL     OW32629   4.703   0.086   4.721  0.0858  0.1288  0.0241
 8216SOL    HW232630   4.758   0.151   4.678  0.5687  0.2338  0.7775
 8216SOL    HW332631   4.710   0.008   4.666  1.2876  0.0250  0.2992
 8216SOL    MW432632   4.711   0.084   4.708  0.3081  0.1289  0.1598
 8217SOL     OW32633   4.670   2.598   3.963  0.5911  0.9519 -0.0963
 8217SOL    HW232634   4.668   2.592   4.058  1.9415 -2.3858 -0.1420
 8217SOL    HW332635   4.584   2.568   3.935  1.0191 -0.5619  0.1019
 8217SOL    MW432636   4.659   2.593   3.972  0.8257  0.3118 -0.0762
 8218SOL     OW32637   4.476   2.661   3.563  0.4410  0.4858  0.3524
 8218SOL    HW232638   4.422   2.733   3.597 -0.1083  0.5732 -0.6813
 8218SOL    HW332639   4.532   2.637   3.637 -0.5459  0.8419  1.2515
 8218SOL    MW432640   4.476   2.667   3.578  0.2383  0.5443  0.3346
 8219SOL     OW32641   4.946   5.092   6.345 -0.2341 -0.4750  1.1881
 8219SOL    HW232642   4.985   5.168   6.302 -0.8584 -1.2969 -0.9586
 8219SOL    HW332643   4.893   5.129   6.415  0.6819  0.9528  1.1800
 8219SOL    MW432644   4.944   5.107   6.348 -0.1956 -0.3951  0.9038
 8220SOL     OW32645   0.627   1.339   5.750  0.2824  0.2282 -0.1516
 8220SOL    HW232646   0.592   1.256   5.783 -2.5052  0.8033 -1.4268
 8220SOL    HW332647   0.612   1.402   5.821  1.3528 -0.0660  0.3654
 8220SOL    MW432648   0.620   1.336   5.764  0.0558  0.2653 -0.2516
 8221SOL     OW32649   4.318   3.327   1.608 -0.4188 -0.0687 -0.1566
 8221SOL    HW232650   4.285   3.365   1.689  0.4559  0.5538 -0.0710
 8221SOL    HW332651   4.296   3.234   1.614  1.1304 -0.3802  1.5954
 8221SOL    MW432652   4.311   3.320   1.619 -0.0990 -0.0277  0.0859
 8222SOL     OW32653   6.239   5.765   0.292 -0.2318  0.0234  0.4424
 8222SOL    HW232654   6.184   5.842   0.305  1.1162  1.2810 -0.9938
 8222SOL    HW332655   6.323   5.800   0.265  0.3984 -1.9711 -0.3370
 8222SOL    MW432656   6.243   5.780   0.290  0.0292 -0.0738  0.1501
 8223SOL     OW32657   6.198   4.517   1.037  0.0800  0.0857  0.3398
 8223SOL    HW232658   6.122   4.563   1.003  1.1011  1.2234 -0.4700
 8223SOL    HW332659   6.179   4.503   1.130 -1.5211 -0.5369 -0.0515
 8223SOL    MW432660   6.186   4.521   1.045  0.0034  0.1537  0.1813
 8224SOL     OW32661   4.589   0.428   2.020 -0.6168 -0.1121  0.1984
 8224SOL    HW232662   4.501   0.390   2.029 -1.6220  2.1451  0.5354
 8224SOL    HW332663   4.623   0.432   2.109 -0.5523 -0.1296  0.1746
 8224SOL    MW432664   4.582   0.423   2.033 -0.7409  0.1834  0.2397
 8225SOL     OW32665   3.408   2.355   2.438 -0.1000 -0.2154  0.4653
 8225SOL    HW232666   3.447   2.442   2.428  0.2885 -0.3794  0.5310
 8225SOL    HW332667   3.315   2.367   2.417 -0.1565  0.3220  1.0046
 8225SOL    MW432668   3.401   2.368   2.434 -0.0562 -0.1662  0.5452
 8226SOL     OW32669   6.104   4.581   2.214  0.2108  0.2394 -0.1420
 8226SOL    HW232670   6.198   4.598   2.207 -0.0615  2.7578  1.0083
 8226SOL    HW332671   6.090   4.556   2.305  0.0133 -2.7245 -0.8903
 8226SOL    MW432672   6.114   4.580   2.225  0.1488  0.1806 -0.0890
 8227SOL     OW32673   6.266   2.358   4.085  0.0382  0.1682 -0.4482
 8227SOL    HW232674   6.283   2.282   4.140 -1.7786  0.2717  0.3577
 8227SOL    HW332675   6.349   2.378   4.043  1.1807 -0.7004  1.3016
 8227SOL    MW432676   6.279   2.351   4.086 -0.0508  0.0673 -0.1110
 8228SOL     OW32677   0.547   1.066   3.218 -0.7586 -0.0069  0.6931
 8228SOL    HW232678   0.532   0.989   3.273 -1.0322 -2.0997 -2.0813
 8228SOL    HW332679   0.636   1.055   3.185 -0.5257  1.3017  0.8333
 8228SOL    MW432680   0.557   1.054   3.221 -0.7640 -0.1104  0.3455
 8229SOL     OW32681   5.753   2.135   2.806  0.0896 -0.0717  0.2784
 8229SOL    HW232682   5.778   2.100   2.720  0.7891  0.3219  0.3137
 8229SOL    HW332683   5.667   2.096   2.824 -0.2801  0.2119 -0.8161
 8229SOL    MW432684   5.745   2.125   2.797  0.1331  0.0176  0.1386
 8230SOL     OW32685   3.855   4.193   0.062 -1.0641  0.5024 -0.6558
 8230SOL    HW232686   3.891   4.108   0.089 -1.7813  0.2084 -0.6112
 8230SOL    HW332687   3.844   4.241   0.144  1.0040  1.3359 -0.8016
 8230SOL    MW432688   3.858   4.188   0.076 -0.8859  0.5736 -0.6691
 8231SOL     OW32689   1.418   2.797   3.939 -0.4398 -0.0794  0.2804
 8231SOL    HW232690   1.403   2.736   3.866 -1.4262 -0.6298  0.9125
 8231SOL    HW332691   1.442   2.741   4.013 -1.4463  0.2560  0.8972
 8231SOL    MW432692   1.419   2.782   3.939 -0.7027 -0.1078  0.4452
 8232SOL     OW32693   1.748   2.617   1.650 -0.2468  0.1499 -0.1413
 8232SOL    HW232694   1.784   2.704   1.670  0.0628 -0.1585  0.6793
 8232SOL    HW332695   1.748   2.571   1.734 -0.4747 -0.6270 -0.5564
 8232SOL    MW432696   1.753   2.623   1.664 -0.2360  0.0067 -0.0878
 8233SOL     OW32697   1.299   6.254   2.906 -0.1899  0.7039 -0.2043
 8233SOL    HW232698   1.231   6.319   2.894 -0.0379  0.8639 -0.2081
 8233SOL    HW332699   1.380   6.299   2.884  0.1556  1.1487  1.7378
 8233SOL    MW432700   1.301   6.268   2.902 -0.1243  0.7837  0.0514
 8234SOL     OW32701   4.440   0.668   0.539  0.4408  0.0295 -0.1003
 8234SOL    HW232702   4.443   0.732   0.468 -1.4299 -0.1108 -0.3578
 8234SOL    HW332703   4.421   0.585   0.495  2.5252 -0.6992  0.2642
 8234SOL    MW432704   4.438   0.665   0.524  0.4690 -0.0851 -0.0862
 8235SOL     OW32705   2.703   4.449   0.038  0.7602 -0.1048  0.0293
 8235SOL    HW232706   2.643   4.448  -0.036  0.0396  1.3343  0.5548
 8235SOL    HW332707   2.689   4.534   0.080  1.8174 -0.4989  1.2781
 8235SOL    MW432708   2.693   4.460   0.034  0.8046  0.0331  0.2634
 8236SOL     OW32709   0.959   2.775   3.535 -0.4381  0.0291 -0.0484
 8236SOL    HW232710   0.993   2.726   3.460  1.2597  0.7507  0.2179
 8236SOL    HW332711   0.982   2.721   3.611 -0.8536  0.0137  0.0724
 8236SOL    MW432712   0.966   2.761   3.535 -0.2689  0.1223  0.0027
 8237SOL     OW32713   6.390   3.167   2.923  0.1976  0.2322 -0.4081
 8237SOL    HW232714   6.402   3.262   2.913 -2.5771  0.7899  0.7783
 8237SOL    HW332715   6.351   3.139   2.840 -2.5768  0.8963  0.5982
 8237SOL    MW432716   6.387   3.176   2.910 -0.5345  0.3934 -0.1188
 8238SOL     OW32717   0.033   0.117   1.327  0.3049 -0.5338  0.4628
 8238SOL    HW232718  -0.006   0.201   1.301 -0.9103 -0.7530  1.4855
 8238SOL    HW332719   0.126   0.127   1.307  0.5077  1.7090  2.1683
 8238SOL    MW432720   0.040   0.130   1.321  0.1713 -0.2668  0.8227
 8239SOL     OW32721   0.749   1.202   4.525 -0.0385  0.7017  0.0522
 8239SOL    HW232722   0.800   1.128   4.556 -0.3638  0.3129 -0.3224
 8239SOL    HW332723   0.695   1.228   4.599 -0.3216  0.2120  0.0166
 8239SOL    MW432724   0.748   1.196   4.539 -0.1188  0.5858 -0.0019
 8240SOL     OW32725   4.891   0.776   2.149 -0.0216 -0.3992 -0.6744
 8240SOL    HW232726   4.985   0.794   2.148 -0.3254  1.4577 -0.1634
 8240SOL    HW332727   4.863   0.782   2.058  0.0772  0.8474 -0.6350
 8240SOL    MW432728   4.899   0.779   2.137 -0.0486  0.0102 -0.6018
 8241SOL     OW32729   2.930   5.947   2.668 -0.1921 -0.0682 -0.4802
 8241SOL    HW232730   2.844   5.940   2.626  0.5133 -1.5423 -1.7659
 8241SOL    HW332731   2.990   5.966   2.596  0.6678  0.2133  0.2977
 8241SOL    MW432732   2.926   5.949   2.653  0.0144 -0.2255 -0.5472
 8242SOL     OW32733   4.972   3.312   0.560 -1.0318 -0.3509 -0.5465
 8242SOL    HW232734   4.936   3.377   0.621  1.1343  0.9116 -0.5249
 8242SOL    HW332735   5.055   3.285   0.599 -0.4948 -0.9261 -2.0066
 8242SOL    MW432736   4.978   3.317   0.573 -0.6752 -0.2602 -0.7363
 8243SOL     OW32737   5.839   5.605   5.396 -0.1105 -0.0641 -0.2243
 8243SOL    HW232738   5.872   5.587   5.308  0.1708  1.8219 -0.5378
 8243SOL    HW332739   5.788   5.685   5.387  1.0537  0.9315  1.5854
 8243SOL    MW432740   5.836   5.613   5.383  0.0802  0.3161 -0.0269
 8244SOL     OW32741   5.762   4.434   4.431 -0.6433  0.3191  0.5798
 8244SOL    HW232742   5.696   4.502   4.416 -0.3559  0.5657  0.4235
 8244SOL    HW332743   5.810   4.463   4.508 -0.9711 -0.0604  0.9302
 8244SOL    MW432744   5.760   4.447   4.439 -0.6486  0.3015  0.6054
 8245SOL     OW32745   2.543   1.678   1.911 -0.0063 -0.0897 -0.4338
 8245SOL    HW232746   2.500   1.715   1.989  0.6315 -1.0275  0.3928
 8245SOL    HW332747   2.635   1.703   1.920  0.2906 -1.1616 -0.2551
 8245SOL    MW432748   2.549   1.686   1.923  0.1170 -0.3549 -0.3011
 8246SOL     OW32749   3.360   0.653   5.659  0.2702  0.1737 -0.1147
 8246SOL    HW232750   3.291   0.606   5.705 -0.6251  1.5765  0.0587
 8246SOL    HW332751   3.418   0.685   5.728 -0.6077  1.5588  0.0220
 8246SOL    MW432752   3.358   0.651   5.674  0.0362  0.5415 -0.0738
 8247SOL     OW32753   6.421   2.083   6.230 -0.7816  0.1993  0.4827
 8247SOL    HW232754   6.330   2.086   6.202 -1.3247 -0.3742  2.0304
 8247SOL    HW332755   6.472   2.086   6.150 -2.2148 -2.3867 -0.6404
 8247SOL    MW432756   6.416   2.084   6.216 -1.0423 -0.2175  0.5388
 8248SOL     OW32757   6.096   1.400   1.604 -0.4987  0.1227 -0.0455
 8248SOL    HW232758   6.068   1.398   1.513  0.4555  0.1303 -0.3524
 8248SOL    HW332759   6.059   1.320   1.642 -1.3050  0.3635 -0.3043
 8248SOL    MW432760   6.088   1.389   1.597 -0.4792  0.1554 -0.1201
 8249SOL     OW32761   5.421   0.234   0.917 -0.1097  0.6706  0.1461
 8249SOL    HW232762   5.493   0.204   0.973  1.2643  0.4545 -1.6564
 8249SOL    HW332763   5.422   0.329   0.926 -1.9331  0.5523  2.8124
 8249SOL    MW432764   5.430   0.243   0.926 -0.1690  0.6265  0.2600
 8250SOL     OW32765   4.572   3.620   3.517 -0.0271  0.0009  0.5893
 8250SOL    HW232766   4.609   3.581   3.597  2.7503  1.7160  0.2614
 8250SOL    HW332767   4.605   3.710   3.517 -1.9466  0.7766 -1.3102
 8250SOL    MW432768   4.581   3.627   3.528  0.0861  0.3296  0.2954
 8251SOL     OW32769   2.769   2.492   5.943 -0.0332  0.8234 -0.4590
 8251SOL    HW232770   2.746   2.421   6.003  1.3312  0.4469 -0.3442
 8251SOL    HW332771   2.696   2.553   5.949  0.2985  1.0789  2.0150
 8251SOL    MW432772   2.757   2.491   5.952  0.1906  0.8074 -0.1175
 8252SOL     OW32773   3.335   1.083   5.225 -0.3444 -0.6084 -0.2608
 8252SOL    HW232774   3.419   1.110   5.190 -0.7771  0.6262 -0.4027
 8252SOL    HW332775   3.354   1.051   5.314  0.2297 -0.0956 -0.2002
 8252SOL    MW432776   3.348   1.082   5.232 -0.3257 -0.3779 -0.2716
 8253SOL     OW32777   1.161   3.657   5.209 -0.5420 -0.6222 -0.0276
 8253SOL    HW232778   1.225   3.606   5.258 -0.4404  1.0971  1.8105
 8253SOL    HW332779   1.151   3.612   5.126  0.0512 -3.1719  1.1912
 8253SOL    MW432780   1.168   3.644   5.205 -0.4504 -0.7317  0.3758
 8254SOL     OW32781   0.975   5.122   2.543 -0.2278  0.1155 -0.0078
 8254SOL    HW232782   0.931   5.063   2.481  0.6851  0.0114 -0.5783
 8254SOL    HW332783   0.903   5.167   2.588 -0.9562  1.0787 -2.0004
 8254SOL    MW432784   0.959   5.120   2.540 -0.2035  0.2288 -0.3460
 8255SOL     OW32785   2.080   1.099   2.571  0.2310 -0.3394 -0.5409
 8255SOL    HW232786   2.118   1.186   2.581  0.5305 -0.5522  0.2349
 8255SOL    HW332787   2.038   1.101   2.484  0.2925  0.5449 -0.5596
 8255SOL    MW432788   2.079   1.110   2.561  0.2786 -0.2508 -0.4410
 8256SOL     OW32789   3.559   5.732   3.222  0.3357  0.0940  0.6005
 8256SOL    HW232790   3.563   5.706   3.130 -2.0096  2.9287 -0.4817
 8256SOL    HW332791   3.484   5.683   3.257 -1.0245  1.5912 -0.0826
 8256SOL    MW432792   3.549   5.722   3.214 -0.1532  0.6655  0.3676
 8257SOL     OW32793   4.871   3.584   5.282 -0.7022  0.1895 -0.2306
 8257SOL    HW232794   4.801   3.593   5.347 -2.3704 -2.0118 -1.5641
 8257SOL    HW332795   4.825   3.575   5.199  1.1181 -1.8124 -1.1218
 8257SOL    MW432796   4.856   3.584   5.280 -0.6821 -0.3650 -0.5241
 8258SOL     OW32797   1.096   2.406   2.291 -0.3965 -0.2288 -0.1283
 8258SOL    HW232798   1.154   2.475   2.324 -0.9233 -1.3399  3.6180
 8258SOL    HW332799   1.011   2.449   2.283 -0.1357  0.2044 -0.6840
 8258SOL    MW432800   1.092   2.421   2.294 -0.4316 -0.3182  0.2927
 8259SOL     OW32801   1.613   3.526   5.386 -0.2984  0.4192  0.3086
 8259SOL    HW232802   1.629   3.485   5.301 -0.4567  0.4537  0.2610
 8259SOL    HW332803   1.518   3.535   5.390 -0.3385 -0.1888  0.7801
 8259SOL    MW432804   1.603   3.522   5.375 -0.3246  0.3436  0.3645
 8260SOL     OW32805   1.945   5.846   1.908  0.4290 -0.2407  0.2471
 8260SOL    HW232806   1.926   5.852   1.814  2.2853  1.2153 -0.0874
 8260SOL    HW332807   2.040   5.852   1.914  0.3213  0.1986  2.2613
 8260SOL    MW432808   1.955   5.848   1.897  0.6597  0.0093  0.4687
 8261SOL     OW32809   0.659   1.339   1.185 -0.5649 -0.5361  0.1641
 8261SOL    HW232810   0.681   1.337   1.091 -2.0356  0.8016 -0.2576
 8261SOL    HW332811   0.617   1.254   1.201 -1.3617 -0.3280 -0.7047
 8261SOL    MW432812   0.657   1.327   1.174 -0.8640 -0.3321 -0.0061
 8262SOL     OW32813   0.841   5.689   4.590  0.0568 -0.1222  0.0039
 8262SOL    HW232814   0.784   5.757   4.625 -0.4370 -0.2161 -0.5965
 8262SOL    HW332815   0.913   5.736   4.548  0.2038  0.0056  0.3971
 8262SOL    MW432816   0.843   5.704   4.589  0.0111 -0.1177 -0.0235
 8263SOL     OW32817   1.209   5.932   2.164  0.4922  0.0763  0.2662
 8263SOL    HW232818   1.239   5.922   2.073 -1.1957  1.7655 -0.5521
 8263SOL    HW332819   1.150   5.858   2.178  1.6046 -0.8123  0.3994
 8263SOL    MW432820   1.205   5.921   2.154  0.4163  0.1819  0.1758
 8264SOL     OW32821   3.561   0.129   1.502 -0.4740  0.1416  0.4696
 8264SOL    HW232822   3.578   0.035   1.498 -1.7178 -0.1761  1.7018
 8264SOL    HW332823   3.466   0.135   1.514 -0.5305  1.5912 -0.4943
 8264SOL    MW432824   3.551   0.117   1.503 -0.6455  0.2909  0.5050
 8265SOL     OW32825   2.994   1.099   3.947 -0.1381  0.4304 -0.0836
 8265SOL    HW232826   2.932   1.158   3.904  0.1833 -0.3626 -1.7203
 8265SOL    HW332827   2.994   1.020   3.892  1.7356  0.1128  0.3160
 8265SOL    MW432828   2.986   1.096   3.934  0.1515  0.2839 -0.2469
 8266SOL     OW32829   4.559   5.990   5.425 -0.9322 -0.0071  0.3493
 8266SOL    HW232830   4.493   5.988   5.495 -1.6593 -0.4190 -0.3376
 8266SOL    HW332831   4.631   6.042   5.462 -2.1793  1.5809  0.6407
 8266SOL    MW432832   4.560   5.997   5.439 -1.1927  0.1481  0.2971
 8267SOL     OW32833   3.513   4.054   0.292  0.0537  0.0486 -0.0736
 8267SOL    HW232834   3.543   4.070   0.202  1.7499  2.7499  0.8506
 8267SOL    HW332835   3.436   4.109   0.301  0.3856  0.4432  0.3667
 8267SOL    MW432836   3.507   4.064   0.281  0.3213  0.4570  0.1064
 8268SOL     OW32837   2.592   5.946   4.012 -0.3835 -0.0024  0.1452
 8268SOL    HW232838   2.621   6.029   3.975  0.2536 -0.7871 -1.1586
 8268SOL    HW332839   2.664   5.919   4.069  0.0909 -0.4218 -0.6504
 8268SOL    MW432840   2.605   5.953   4.015 -0.2369 -0.1613 -0.1318
 8269SOL     OW32841   5.418   5.987   0.738 -0.3258 -0.2772  0.2453
 8269SOL    HW232842   5.480   6.060   0.737 -0.0356 -0.4789 -1.9352
 8269SOL    HW332843   5.392   5.979   0.830  0.7934  1.5642  0.7850
 8269SOL    MW432844   5.423   5.996   0.750 -0.1399 -0.0609  0.0288
 8270SOL     OW32845   0.753   2.041   5.553 -0.2793 -0.6028 -0.6015
 8270SOL    HW232846   0.836   2.060   5.597 -1.1847  0.0936  0.9019
 8270SOL    HW332847   0.693   2.018   5.624 -1.6691 -0.0361 -1.5422
 8270SOL    MW432848   0.756   2.040   5.568 -0.5822 -0.4362 -0.5273
 8271SOL     OW32849   6.248   5.684   5.390 -0.3622  0.0724  0.1741
 8271SOL    HW232850   6.267   5.689   5.297  0.4479  1.8224  0.3842
 8271SOL    HW332851   6.222   5.593   5.405  0.2538 -0.4314 -1.5960
 8271SOL    MW432852   6.247   5.673   5.380 -0.1740  0.2368 -0.0317
 8272SOL     OW32853   3.180   2.795   1.805 -0.0400  0.3592  0.0878
 8272SOL    HW232854   3.274   2.813   1.808  0.2003 -0.8385  0.3045
 8272SOL    HW332855   3.159   2.793   1.712  0.5260 -1.0820 -0.0374
 8272SOL    MW432856   3.190   2.797   1.793  0.0664  0.0110  0.0998
 8273SOL     OW32857   6.152   5.079   1.858 -0.2760 -0.6972  0.5075
 8273SOL    HW232858   6.246   5.065   1.865  0.0197 -0.4686 -1.9858
 8273SOL    HW332859   6.117   4.991   1.839 -0.5224 -0.7296  1.1114
 8273SOL    MW432860   6.160   5.065   1.856 -0.2695 -0.6713  0.2582
 8274SOL     OW32861   1.723   3.820   0.017  0.0331  0.0526  0.1106
 8274SOL    HW232862   1.801   3.766   0.029  0.0764 -0.5623 -2.3957
 8274SOL    HW332863   1.756   3.908   0.001  0.1041  0.2213  1.1656
 8274SOL    MW432864   1.737   3.824   0.016  0.0482 -0.0063 -0.0809
 8275SOL     OW32865   3.200   5.605   0.455  0.1875  0.3768  0.2373
 8275SOL    HW232866   3.180   5.573   0.543 -0.4427 -0.1218 -0.0742
 8275SOL    HW332867   3.279   5.558   0.430  0.5147  0.7083  0.6293
 8275SOL    MW432868   3.208   5.594   0.463  0.1475  0.3548  0.2479
 8276SOL     OW32869   0.760   0.050   2.267  0.2038 -0.4339 -0.2877
 8276SOL    HW232870   0.777  -0.021   2.329 -0.8672 -0.0779  0.4511
 8276SOL    HW332871   0.804   0.023   2.187  1.0486 -1.2353  0.4184
 8276SOL    MW432872   0.768   0.037   2.265  0.1739 -0.4926 -0.0970
 8277SOL     OW32873   1.778   5.649   6.312 -0.4120  0.1169  0.3230
 8277SOL    HW232874   1.854   5.704   6.292  1.0828 -2.3954 -1.4495
 8277SOL    HW332875   1.720   5.661   6.238  0.3470 -1.2973 -0.5426
 8277SOL    MW432876   1.781   5.658   6.300 -0.1146 -0.4012 -0.0250
 8278SOL     OW32877   3.519   4.454   5.375 -0.0968 -0.5597  0.0343
 8278SOL    HW232878   3.464   4.531   5.360 -2.2406 -2.0214 -0.1565
 8278SOL    HW332879   3.571   4.445   5.295 -1.0058 -0.2005 -0.6102
 8278SOL    MW432880   3.519   4.463   5.363 -0.4996 -0.7051 -0.0759
 8279SOL     OW32881   5.744   0.589   0.629  0.1078 -0.4597  0.5713
 8279SOL    HW232882   5.767   0.503   0.595  0.0886 -0.1221 -0.3374
 8279SOL    HW332883   5.670   0.573   0.687  0.5218 -1.1320  0.9204
 8279SOL    MW432884   5.737   0.576   0.632  0.1599 -0.5038  0.4975
 8280SOL     OW32885   2.279   0.508   4.197  0.3354 -0.5588 -1.1626
 8280SOL    HW232886   2.264   0.580   4.258  0.1281 -0.2194 -1.6085
 8280SOL    HW332887   2.299   0.433   4.253  0.8215 -0.0953 -0.6998
 8280SOL    MW432888   2.279   0.507   4.212  0.3722 -0.4528 -1.1603
 8281SOL     OW32889   1.490   3.756   4.266  0.3895 -0.5557  0.3303
 8281SOL    HW232890   1.447   3.842   4.265 -0.1864 -0.8409 -0.6320
 8281SOL    HW332891   1.446   3.708   4.336  1.4092  0.2430  1.5923
 8281SOL    MW432892   1.479   3.761   4.275  0.4481 -0.4879  0.3699
 8282SOL     OW32893   1.836   4.549   4.011  0.0857 -0.8311 -0.2534
 8282SOL    HW232894   1.774   4.481   4.038 -0.0542 -0.4267  0.4324
 8282SOL    HW332895   1.823   4.555   3.916 -1.9083  0.2107  0.0327
 8282SOL    MW432896   1.826   4.541   4.002 -0.1958 -0.6403 -0.1252
 8283SOL     OW32897   0.060   0.526   4.608  0.1943  0.4639  0.0541
 8283SOL    HW232898  -0.025   0.571   4.611  0.2868  0.6216  0.4226
 8283SOL    HW332899   0.109   0.563   4.682  0.4372  0.0846  0.0864
 8283SOL    MW432900   0.055   0.537   4.618  0.2386  0.4346  0.1070
 8284SOL     OW32901   1.998   3.916   5.784  0.2525 -0.3596  0.3855
 8284SOL    HW232902   1.946   3.997   5.778 -1.3725 -1.2146  1.7889
 8284SOL    HW332903   1.985   3.873   5.700 -0.3900  0.0101  0.2860
 8284SOL    MW432904   1.989   3.921   5.772 -0.0466 -0.4237  0.5575
 8285SOL     OW32905   3.486   1.315   4.401  0.1396 -0.1214 -0.1268
 8285SOL    HW232906   3.454   1.242   4.349 -3.1049  0.4894  0.7899
 8285SOL    HW332907   3.555   1.277   4.455  0.8966 -1.6484 -2.0184
 8285SOL    MW432908   3.491   1.300   4.401 -0.1886 -0.2423 -0.2554
 8286SOL     OW32909   6.288   5.625   0.521 -0.3386 -0.0346 -0.0930
 8286SOL    HW232910   6.378   5.597   0.506 -0.5189  0.0503 -1.4524
 8286SOL    HW332911   6.273   5.693   0.456 -1.1854  0.4279  0.5540
 8286SOL    MW432912   6.298   5.631   0.511 -0.4741  0.0377 -0.1870
 8287SOL     OW32913   2.868   0.945   5.628  0.7281  0.2604 -0.2472
 8287SOL    HW232914   2.859   0.919   5.537 -0.1267  0.8140 -0.3290
 8287SOL    HW332915   2.883   1.039   5.625 -0.5145  0.4878  0.2254
 8287SOL    MW432916   2.869   0.954   5.616  0.4514  0.3635 -0.1956
 8288SOL     OW32917   0.744   3.457   6.379  0.0603  0.1617 -0.2684
 8288SOL    HW232918   0.719   3.514   6.306 -0.4712  0.7075  0.3216
 8288SOL    HW332919   0.755   3.517   6.453 -1.5717 -0.5849  0.6427
 8288SOL    MW432920   0.742   3.472   6.379 -0.2252  0.1352 -0.0703
 8289SOL     OW32921   2.959   3.556   1.797 -0.4631  0.0865  0.2395
 8289SOL    HW232922   3.012   3.570   1.718 -1.0185 -0.7173 -0.2893
 8289SOL    HW332923   2.889   3.497   1.769 -1.2548  0.5849  1.0922
 8289SOL    MW432924   2.957   3.550   1.783 -0.6409  0.0462  0.2823
 8290SOL     OW32925   3.015   2.600   1.286 -0.3156 -0.0237 -0.0272
 8290SOL    HW232926   2.950   2.609   1.217  0.4152  0.8294 -0.6084
 8290SOL    HW332927   2.994   2.515   1.326 -0.7646 -0.5198 -1.2595
 8290SOL    MW432928   3.003   2.590   1.283 -0.2784  0.0234 -0.2665
 8291SOL     OW32929   2.355   2.220   4.761 -0.2443  0.2714  0.1710
 8291SOL    HW232930   2.355   2.128   4.785 -0.0643  0.2708  0.1726
 8291SOL    HW332931   2.278   2.231   4.705  0.5195 -0.1873 -1.0016
 8291SOL    MW432932   2.345   2.210   4.757 -0.1198  0.2108  0.0165
 8292SOL     OW32933   1.202   6.374   3.766  0.1431 -0.5032 -0.2163
 8292SOL    HW232934   1.159   6.430   3.701 -0.2075  1.0669  1.2910
 8292SOL    HW332935   1.250   6.310   3.714  0.3401  1.0268 -2.0381
 8292SOL    MW432936   1.202   6.373   3.751  0.1229 -0.0941 -0.2578
 8293SOL     OW32937   1.195   3.986   0.855 -0.1911  0.1330 -0.5289
 8293SOL    HW232938   1.163   4.025   0.936 -2.0960 -1.2684 -0.5228
 8293SOL    HW332939   1.150   4.033   0.786 -1.9544 -1.4347 -0.5444
 8293SOL    MW432940   1.185   3.997   0.857 -0.6751 -0.2587 -0.5302
 8294SOL     OW32941   1.390   1.864   1.235  0.4340  0.0678  0.7160
 8294SOL    HW232942   1.399   1.959   1.242 -1.3149  0.2260  1.4836
 8294SOL    HW332943   1.463   1.837   1.180  0.6969  1.9106  0.0710
 8294SOL    MW432944   1.401   1.873   1.229  0.2379  0.3318  0.7322
 8295SOL     OW32945   1.666   5.329   0.868 -0.5012  0.0624  0.3521
 8295SOL    HW232946   1.622   5.378   0.799 -0.7207 -0.4020  0.1563
 8295SOL    HW332947   1.597   5.275   0.907 -0.1934 -0.3455  0.3349
 8295SOL    MW432948   1.651   5.328   0.864 -0.4895 -0.0527  0.3240
 8296SOL     OW32949   5.390   2.334   5.979 -0.1907 -0.3296 -0.0648
 8296SOL    HW232950   5.390   2.421   6.017 -0.5072 -0.3229 -0.0776
 8296SOL    HW332951   5.425   2.277   6.048 -0.0766 -0.2093 -0.0235
 8296SOL    MW432952   5.395   2.338   5.993 -0.2174 -0.3129 -0.0610
 8297SOL     OW32953   5.926   0.796   0.625 -0.1155  0.4283 -0.4443
 8297SOL    HW232954   6.003   0.764   0.673 -0.1380  3.1193  1.6262
 8297SOL    HW332955   5.860   0.728   0.638  0.7536 -0.1997  1.0200
 8297SOL    MW432956   5.928   0.783   0.633 -0.0038  0.7005  0.0221
 8298SOL     OW32957   0.819   2.115   1.716  0.1686 -0.3495 -0.1171
 8298SOL    HW232958   0.817   2.022   1.738  1.7971 -0.5742 -0.7297
 8298SOL    HW332959   0.734   2.148   1.742 -0.2894 -1.9261  0.5043
 8298SOL    MW432960   0.808   2.107   1.722  0.3231 -0.5871 -0.1159
 8299SOL     OW32961   0.481   0.232   4.323 -0.1762 -0.4276  0.1972
 8299SOL    HW232962   0.506   0.315   4.365 -0.7215  0.0139 -0.3421
 8299SOL    HW332963   0.531   0.165   4.371 -2.4543 -0.2283  3.1361
 8299SOL    MW432964   0.491   0.234   4.335 -0.5487 -0.3430  0.5138
 8300SOL     OW32965   0.374   5.430   1.567 -0.0688 -0.1220 -0.2502
 8300SOL    HW232966   0.362   5.467   1.655  1.4457 -0.1185 -0.0200
 8300SOL    HW332967   0.461   5.391   1.570 -0.3746 -0.9281 -1.4823
 8300SOL    MW432968   0.384   5.430   1.579  0.0906 -0.2279 -0.3824
 8301SOL     OW32969   5.181   3.459   1.003  0.0860  0.0186 -0.1541
 8301SOL    HW232970   5.173   3.484   1.096  0.1390  0.1346 -0.1805
 8301SOL    HW332971   5.094   3.426   0.980 -0.1859  0.8301 -0.3084
 8301SOL    MW432972   5.168   3.458   1.012  0.0571  0.1410 -0.1780
 8302SOL     OW32973   3.554   2.719   4.262  0.3393  0.0142 -0.3066
 8302SOL    HW232974   3.539   2.652   4.329 -0.9582 -0.0450 -0.6329
 8302SOL    HW332975   3.645   2.705   4.234  0.7490 -0.2620  1.0964
 8302SOL    MW432976   3.564   2.708   4.267  0.2222 -0.0300 -0.1646
 8303SOL     OW32977   2.216   5.195   6.084 -0.2091 -0.1771 -0.1606
 8303SOL    HW232978   2.259   5.110   6.092  1.1280  0.6143  2.0398
 8303SOL    HW332979   2.123   5.175   6.084  0.0919 -1.6735 -0.3754
 8303SOL    MW432980   2.210   5.181   6.085  0.0071 -0.2702  0.1014
 8304SOL     OW32981   1.342   5.876   1.217  0.8635  0.5553  0.4477
 8304SOL    HW232982   1.372   5.785   1.220 -0.1566  0.2009  0.4433
 8304SOL    HW332983   1.393   5.916   1.147  2.1951  0.3225  1.2446
 8304SOL    MW432984   1.353   5.869   1.208  0.9046  0.4778  0.5523
 8305SOL     OW32985   2.447   2.884   2.791  0.2700 -0.6991  0.0095
 8305SOL    HW232986   2.378   2.940   2.827  0.0728  0.0063 -1.4060
 8305SOL    HW332987   2.463   2.819   2.859  1.2447  1.6428  2.2241
 8305SOL    MW432988   2.440   2.883   2.805  0.3726 -0.2970  0.1150
 8306SOL     OW32989   5.586   2.964   4.655  0.7723 -0.1704 -0.6498
 8306SOL    HW232990   5.594   2.873   4.682 -1.2287 -0.7190 -1.7270
 8306SOL    HW332991   5.501   2.992   4.688  1.7952  1.6950  0.6096
 8306SOL    MW432992   5.576   2.956   4.663  0.6433  0.0033 -0.6257
 8307SOL     OW32993   2.711   2.660   6.225 -0.1627  0.1083 -1.1546
 8307SOL    HW232994   2.680   2.748   6.247 -0.5809 -0.3835  0.3195
 8307SOL    HW332995   2.632   2.606   6.223  0.2537 -0.5433 -0.4286
 8307SOL    MW432996   2.697   2.665   6.227 -0.1629 -0.0426 -0.8644
 8308SOL     OW32997   2.783   4.834   3.083 -0.4524 -0.4563 -0.3569
 8308SOL    HW232998   2.817   4.805   3.168  2.1306 -0.2515 -1.2311
 8308SOL    HW332999   2.761   4.926   3.097  2.2407  0.2896 -0.4030
 8308SOL    MW433000   2.785   4.842   3.096  0.2437 -0.3309 -0.4784
 8309SOL     OW33001   5.035   2.354   1.510  0.0075 -0.4672 -0.1205
 8309SOL    HW233002   5.048   2.442   1.476  1.5034 -0.1632  1.1349
 8309SOL    HW333003   4.941   2.348   1.526 -0.0178  1.2195  0.5765
 8309SOL    MW433004   5.025   2.365   1.507  0.2016 -0.2046  0.1371
 8310SOL     OW33005   1.873   5.626   4.197 -0.5562 -0.3282 -0.3253
 8310SOL    HW233006   1.950   5.671   4.161 -0.7102 -0.9419 -1.4980
 8310SOL    HW333007   1.896   5.607   4.288 -0.0190  1.0281 -0.1525
 8310SOL    MW433008   1.886   5.630   4.204 -0.5057 -0.2302 -0.4573
 8311SOL     OW33009   0.923   4.385   0.453 -0.0357  0.2933  0.4805
 8311SOL    HW233010   0.851   4.399   0.514 -0.7054 -0.2629 -0.1645
 8311SOL    HW333011   0.891   4.420   0.370  0.6420  0.5177  0.3115
 8311SOL    MW433012   0.909   4.391   0.450 -0.0346  0.2495  0.3731
 8312SOL     OW33013   5.610   1.740   5.892  0.4419 -0.0001  0.0491
 8312SOL    HW233014   5.700   1.740   5.859  1.6535  1.4022  3.0334
 8312SOL    HW333015   5.586   1.832   5.899 -1.3916 -0.3423 -0.9382
 8312SOL    MW433016   5.619   1.752   5.889  0.3599  0.1398  0.3126
 8313SOL     OW33017   3.291   4.808   0.779 -0.8554 -0.2012  0.5136
 8313SOL    HW233018   3.292   4.889   0.729 -0.3841 -0.9625 -0.7456
 8313SOL    HW333019   3.303   4.739   0.714  0.9473 -1.1645  1.7731
 8313SOL    MW433020   3.293   4.809   0.764 -0.5554 -0.4287  0.5136
 8314SOL     OW33021   2.290   5.204   1.340 -0.2080 -0.1901  0.2576
 8314SOL    HW233022   2.247   5.233   1.259  0.5844 -0.2618 -0.1998
 8314SOL    HW333023   2.264   5.112   1.349 -0.9931  0.0569  0.5523
 8314SOL    MW433024   2.281   5.195   1.330 -0.2070 -0.1670  0.2361
 8315SOL     OW33025   3.616   0.738   5.786  0.4905  0.4465  0.1679
 8315SOL    HW233026   3.580   0.826   5.793  1.2974  0.8074 -0.1023
 8315SOL    HW333027   3.646   0.718   5.875  3.2046  1.7443 -0.3415
 8315SOL    MW433028   3.615   0.747   5.799  0.9550  0.6653  0.0650
 8316SOL     OW33029   4.950   4.563   0.264  0.2892  0.6085  0.7399
 8316SOL    HW233030   5.028   4.563   0.209 -0.6589 -0.0637 -0.6721
 8316SOL    HW333031   4.977   4.521   0.345  0.6450 -2.8150 -0.9504
 8316SOL    MW433032   4.964   4.558   0.267  0.2111  0.0682  0.3306
 8317SOL     OW33033   1.544   0.820   3.060 -0.4960  0.0700 -0.8496
 8317SOL    HW233034   1.474   0.761   3.033  0.1479 -1.8347  1.3184
 8317SOL    HW333035   1.624   0.768   3.056  0.2092  0.9740  0.4356
 8317SOL    MW433036   1.545   0.806   3.056 -0.3180 -0.0621 -0.3940
 8318SOL     OW33037   0.228   2.259   1.900 -0.2466  0.4900 -0.4375
 8318SOL    HW233038   0.159   2.319   1.928  1.4734  1.3355  2.4226
 8318SOL    HW333039   0.304   2.315   1.885  0.6454 -0.6807 -0.4619
 8318SOL    MW433040   0.229   2.274   1.902  0.0980  0.4471 -0.0633
 8319SOL     OW33041   3.498   1.704   4.968 -0.1850 -0.3585  0.0243
 8319SOL    HW233042   3.443   1.770   4.925  1.6343 -0.8757 -3.4175
 8319SOL    HW333043   3.585   1.742   4.968  0.4749 -1.8262  0.1059
 8319SOL    MW433044   3.502   1.718   4.962  0.1421 -0.6204 -0.4191
 8320SOL     OW33045   6.284   1.318   4.579  0.3545 -0.0016 -0.4825
 8320SOL    HW233046   6.325   1.402   4.561 -0.0877  0.5632  0.9720
 8320SOL    HW333047   6.331   1.255   4.524  1.2352  1.0594 -0.9750
 8320SOL    MW433048   6.295   1.321   4.569  0.4124  0.2129 -0.3556
 8321SOL     OW33049   4.265   5.330   3.975 -0.6818 -0.5012  0.0229
 8321SOL    HW233050   4.184   5.325   4.026 -0.9434  1.2466 -0.1514
 8321SOL    HW333051   4.293   5.421   3.984  1.4906 -1.1650  0.3924
 8321SOL    MW433052   4.258   5.341   3.983 -0.4297 -0.3582  0.0487
 8322SOL     OW33053   0.961   0.754   2.940  0.7618 -0.3798 -0.2874
 8322SOL    HW233054   0.951   0.668   2.899 -0.7355 -0.2068 -0.3592
 8322SOL    HW333055   1.040   0.791   2.900  0.2541 -0.8708 -1.8385
 8322SOL    MW433056   0.970   0.747   2.929  0.4973 -0.4217 -0.5015
 8323SOL     OW33057   6.357   6.009   1.494 -0.2591 -0.5916 -0.4645
 8323SOL    HW233058   6.328   6.094   1.524  0.7726  0.1420 -1.4306
 8323SOL    HW333059   6.337   5.949   1.566  1.4107  0.9272  1.3938
 8323SOL    MW433060   6.351   6.012   1.508  0.0973 -0.2944 -0.3468
 8324SOL     OW33061   4.559   0.274   2.581  0.1576  0.0553 -0.6457
 8324SOL    HW233062   4.567   0.361   2.620  1.0810 -0.1053 -0.4541
 8324SOL    HW333063   4.549   0.215   2.656 -0.4292 -0.0123 -0.7738
 8324SOL    MW433064   4.559   0.278   2.596  0.2020  0.0252 -0.6374
 8325SOL     OW33065   0.705   2.898   4.530 -0.0249  0.4420  0.5608
 8325SOL    HW233066   0.640   2.884   4.462  1.0627 -1.0211 -0.2291
 8325SOL    HW333067   0.703   2.818   4.583  3.1230 -1.0287 -1.2553
 8325SOL    MW433068   0.696   2.886   4.528  0.5339  0.0549  0.2170
 8326SOL     OW33069   5.641   5.630   5.062  0.6755  0.1961  0.4850
 8326SOL    HW233070   5.644   5.569   5.136  0.8031  0.4776  0.7107
 8326SOL    HW333071   5.557   5.675   5.072  0.8969  0.5568  0.7147
 8326SOL    MW433072   5.630   5.628   5.073  0.7216  0.2809  0.5451
 8327SOL     OW33073   4.706   5.060   2.053 -0.0097 -0.3514 -0.0042
 8327SOL    HW233074   4.755   5.135   2.020 -0.0103  0.8305  2.4560
 8327SOL    HW333075   4.729   4.988   1.994  2.8537  0.6938 -0.3029
 8327SOL    MW433076   4.715   5.061   2.040  0.3680 -0.0575  0.2810
 8328SOL     OW33077   3.164   5.894   1.058  0.2137  0.2750 -0.1735
 8328SOL    HW233078   3.121   5.812   1.037  1.8819 -0.8492  0.5413
 8328SOL    HW333079   3.138   5.913   1.148  0.3763  0.1385 -0.0959
 8328SOL    MW433080   3.155   5.886   1.068  0.4552  0.1087 -0.0690
 8329SOL     OW33081   6.192   1.721   4.120 -0.3954 -0.8219  0.4577
 8329SOL    HW233082   6.269   1.750   4.072  0.1358 -0.8951  1.2450
 8329SOL    HW333083   6.131   1.794   4.114 -0.5869 -1.0732 -0.8445
 8329SOL    MW433084   6.194   1.735   4.113 -0.3506 -0.8647  0.3898
 8330SOL     OW33085   3.637   5.797   5.156  0.3225 -0.5111 -0.0359
 8330SOL    HW233086   3.591   5.760   5.080  0.6533  1.8948 -1.5088
 8330SOL    HW333087   3.705   5.852   5.119  0.8288  0.3641  2.0356
 8330SOL    MW433088   3.640   5.799   5.141  0.4329 -0.0782  0.0431
 8331SOL     OW33089   3.966   2.173   2.224 -0.4210 -0.2460 -0.0622
 8331SOL    HW233090   4.026   2.132   2.163 -0.7828 -1.2039  0.2156
 8331SOL    HW333091   3.976   2.124   2.305 -0.9991  0.0878  0.2210
 8331SOL    MW433092   3.975   2.161   2.227 -0.5450 -0.3283  0.0118
 8332SOL     OW33093   2.972   3.897   3.495 -0.1203  0.7638 -0.1880
 8332SOL    HW233094   3.063   3.877   3.515 -0.5244  0.1244  1.1186
 8332SOL    HW333095   2.954   3.849   3.414  0.2860 -0.3625  0.3648
 8332SOL    MW433096   2.982   3.888   3.487 -0.1200  0.5308  0.0573
 8333SOL     OW33097   1.026   5.378   0.284 -0.0396  0.3351  0.0177
 8333SOL    HW233098   1.085   5.323   0.335 -1.5905 -0.3554  1.1567
 8333SOL    HW333099   0.950   5.321   0.266 -1.6564  2.0019  1.1387
 8333SOL    MW433100   1.023   5.363   0.288 -0.4576  0.4639  0.3159
 8334SOL     OW33101   0.018   0.661   6.291  0.5052  0.3731  0.1624
 8334SOL    HW233102   0.031   0.748   6.328  1.1573 -0.1568  1.2152
 8334SOL    HW333103   0.019   0.602   6.366 -1.1709 -0.4370 -0.4067
 8334SOL    MW433104   0.020   0.664   6.306  0.3701  0.1963  0.2262
 8335SOL     OW33105   5.782   0.572   5.161  0.0607 -0.4628 -0.1726
 8335SOL    HW233106   5.761   0.541   5.249 -2.0869  0.1826 -0.3961
 8335SOL    HW333107   5.827   0.498   5.120  2.2299 -0.3564  1.7910
 8335SOL    MW433108   5.785   0.558   5.167  0.0635 -0.3636  0.0570
 8336SOL     OW33109   0.333   6.084   0.868  0.0879  0.2608  0.0286
 8336SOL    HW233110   0.268   6.136   0.822 -0.3147  0.7589  1.1173
 8336SOL    HW333111   0.340   6.126   0.955  1.7142  0.1133  0.0060
 8336SOL    MW433112   0.325   6.097   0.874  0.2494  0.3070  0.1693
 8337SOL     OW33113   4.826   4.396   0.066 -0.1409 -0.2761  0.2597
 8337SOL    HW233114   4.866   4.462   0.123  1.8657 -0.0937 -1.2454
 8337SOL    HW333115   4.818   4.318   0.122  1.7789 -0.1083  0.8363
 8337SOL    MW433116   4.830   4.394   0.081  0.3772 -0.2299  0.1372
 8338SOL     OW33117   5.643   5.058   2.879  0.6329  0.0110  0.6548
 8338SOL    HW233118   5.592   5.094   2.806 -0.4836 -4.0088 -0.7980
 8338SOL    HW333119   5.606   5.099   2.957 -0.0948  2.2952 -0.7923
 8338SOL    MW433120   5.632   5.068   2.880  0.3896 -0.2180  0.2722
 8339SOL     OW33121   5.083   4.490   3.698  0.2773 -0.1572  0.7460
 8339SOL    HW233122   5.004   4.464   3.745 -0.7513  1.9568  0.2965
 8339SOL    HW333123   5.084   4.435   3.619 -1.0438  0.1377  0.5096
 8339SOL    MW433124   5.073   4.479   3.694 -0.0327  0.1607  0.6555
 8340SOL     OW33125   2.558   3.092   2.621  0.6066 -0.2870 -0.2490
 8340SOL    HW233126   2.520   3.014   2.663 -0.9398  0.0108 -1.0201
 8340SOL    HW333127   2.486   3.128   2.568  0.9453  2.2680  0.8746
 8340SOL    MW433128   2.543   3.086   2.620  0.4472  0.0894 -0.2025
 8341SOL     OW33129   0.152   4.255   5.035  0.1195  0.1163 -0.3921
 8341SOL    HW233130   0.173   4.293   5.121 -1.2248 -0.3854  0.1825
 8341SOL    HW333131   0.058   4.271   5.024  0.4982  1.3281 -2.3680
 8341SOL    MW433132   0.142   4.262   5.045 -0.0079  0.2100 -0.5770
 8342SOL     OW33133   0.925   0.825   6.055 -0.1218 -0.0778 -0.3227
 8342SOL    HW233134   1.018   0.825   6.078 -0.9136  2.4136  3.9905
 8342SOL    HW333135   0.912   0.909   6.011 -0.5511  0.3177  0.5356
 8342SOL    MW433136   0.935   0.836   6.052 -0.2829  0.3031  0.3596
 8343SOL     OW33137   3.244   3.149   5.039  0.3228 -0.6915 -0.7520
 8343SOL    HW233138   3.323   3.096   5.033  1.0456  0.3663 -0.8163
 8343SOL    HW333139   3.193   3.109   5.109  0.3126 -2.1440 -1.5479
 8343SOL    MW433140   3.248   3.136   5.047  0.4168 -0.7436 -0.8655
 8344SOL     OW33141   1.535   2.724   4.733 -0.1298 -0.5557  0.1386
 8344SOL    HW233142   1.461   2.668   4.760 -1.5909  0.7939 -0.8893
 8344SOL    HW333143   1.537   2.716   4.638  0.1419  0.5256  0.0493
 8344SOL    MW433144   1.525   2.715   4.724 -0.2867 -0.2350 -0.0088
 8345SOL     OW33145   0.379   3.418   4.654 -0.2337 -0.4409 -0.0027
 8345SOL    HW233146   0.296   3.371   4.646 -0.4283  0.1572 -2.3909
 8345SOL    HW333147   0.407   3.432   4.563  1.6067  0.9121  0.7151
 8345SOL    MW433148   0.372   3.413   4.641 -0.0166 -0.1835 -0.2231
 8346SOL     OW33149   2.446   2.077   6.253  0.3055  0.4471 -0.6772
 8346SOL    HW233150   2.353   2.102   6.261  0.0612 -0.8654  1.2762
 8346SOL    HW333151   2.492   2.140   6.308  0.2572 -0.4135  0.3676
 8346SOL    MW433152   2.440   2.089   6.261  0.2669  0.1603 -0.2817
 8347SOL     OW33153   2.322   5.915   3.317  0.1306  0.5226 -0.1530
 8347SOL    HW233154   2.413   5.907   3.347  1.1222  0.9778 -2.8115
 8347SOL    HW333155   2.270   5.903   3.397  2.4049 -2.1034  1.1193
 8347SOL    MW433156   2.327   5.912   3.332  0.5615  0.2362 -0.3359
 8348SOL     OW33157   6.323   1.339   2.136 -0.3755 -0.4204 -0.6109
 8348SOL    HW233158   6.309   1.429   2.108  1.6410  0.0528 -0.2731
 8348SOL    HW333159   6.238   1.310   2.170 -0.7638  1.7757  0.4434
 8348SOL    MW433160   6.310   1.347   2.137 -0.1607 -0.0682 -0.4272
 8349SOL     OW33161   0.219   2.991   4.377 -0.2623 -0.4536 -0.0170
 8349SOL    HW233162   0.208   3.075   4.421 -0.2511  0.3871 -1.5501
 8349SOL    HW333163   0.312   2.984   4.359 -0.4341 -0.1462 -1.0858
 8349SOL    MW433164   0.230   3.001   4.380 -0.2835 -0.3021 -0.3603
 8350SOL     OW33165   2.133   0.756   2.545  0.4451  0.1029  0.3766
 8350SOL    HW233166   2.184   0.814   2.601 -0.0878  1.6907 -0.7060
 8350SOL    HW333167   2.128   0.802   2.461 -1.8082 -0.5060  0.1138
 8350SOL    MW433168   2.139   0.770   2.541  0.0775  0.2320  0.1991
 8351SOL     OW33169   2.888   0.425   0.350  0.7007  0.0653  0.0508
 8351SOL    HW233170   2.904   0.356   0.286 -1.1325 -2.1685  1.8245
 8351SOL    HW333171   2.971   0.433   0.397  0.4925 -2.3422  0.9917
 8351SOL    MW433172   2.901   0.417   0.348  0.4313 -0.5470  0.4089
 8352SOL     OW33173   4.173   0.729   1.808  0.4117  0.2528 -0.0037
 8352SOL    HW233174   4.196   0.771   1.891 -0.2989  0.7614 -0.0620
 8352SOL    HW333175   4.146   0.801   1.751 -0.5238 -0.2468 -0.2046
 8352SOL    MW433176   4.173   0.744   1.811  0.1945  0.2540 -0.0379
 8353SOL     OW33177   3.905   1.030   0.596 -0.2561  0.2534  0.0684
 8353SOL    HW233178   3.823   1.041   0.644  0.4746 -0.9080  1.6959
 8353SOL    HW333179   3.934   1.119   0.576 -2.7944  0.6791 -2.2265
 8353SOL    MW433180   3.898   1.043   0.600 -0.4946  0.1563 -0.0197
 8354SOL     OW33181   2.383   1.075   4.251 -0.2586  0.1470  0.0429
 8354SOL    HW233182   2.446   1.014   4.210 -0.0887  1.1707 -1.2911
 8354SOL    HW333183   2.422   1.096   4.335  0.5680 -0.2215 -0.2343
 8354SOL    MW433184   2.397   1.070   4.256 -0.1272  0.2334 -0.1697
 8355SOL     OW33185   1.877   5.345   5.901 -0.2227  0.2130  0.0151
 8355SOL    HW233186   1.801   5.387   5.941 -1.7384 -0.8369 -1.6204
 8355SOL    HW333187   1.949   5.406   5.917 -1.3872  1.2888  1.5319
 8355SOL    MW433188   1.876   5.359   5.909 -0.5763  0.2164 -0.0005
 8356SOL     OW33189   5.570   3.391   3.504 -0.3473 -0.5417  0.2323
 8356SOL    HW233190   5.611   3.442   3.434 -1.0345  0.1223  0.2999
 8356SOL    HW333191   5.546   3.309   3.462  0.0145 -0.4846 -0.0954
 8356SOL    MW433192   5.572   3.387   3.489 -0.3902 -0.4466  0.1980
 8357SOL     OW33193   0.511   1.089   5.825  0.1949  0.1874  0.3445
 8357SOL    HW233194   0.521   1.020   5.760  1.0628  0.0755  0.5761
 8357SOL    HW333195   0.469   1.045   5.900  0.8866 -0.1359  0.5511
 8357SOL    MW433196   0.507   1.074   5.826  0.4007  0.1300  0.4023
 8358SOL     OW33197   0.097   4.971   5.851  0.6777 -0.6606  0.1373
 8358SOL    HW233198   0.110   5.039   5.917  0.4066 -1.5058  1.0763
 8358SOL    HW333199   0.071   5.019   5.772  1.2879  0.3840  0.5461
 8358SOL    MW433200   0.095   4.986   5.849  0.7225 -0.6343  0.3151
 8359SOL     OW33201   3.260   0.897   3.603  0.5761 -0.1402  0.4960
 8359SOL    HW233202   3.296   0.904   3.692  0.5959 -1.3345  0.6005
 8359SOL    HW333203   3.211   0.815   3.604 -2.4627  1.4998  0.4839
 8359SOL    MW433204   3.258   0.887   3.615  0.1778 -0.0814  0.5082
 8360SOL     OW33205   6.341   2.322   0.900  0.8775 -0.0706 -0.0700
 8360SOL    HW233206   6.347   2.248   0.840 -1.8723 -1.2384  0.9212
 8360SOL    HW333207   6.405   2.302   0.969  1.3140 -0.6951 -0.6470
 8360SOL    MW433208   6.351   2.310   0.901  0.5723 -0.3070 -0.0154
 8361SOL     OW33209   0.396   2.740   4.155  0.0111 -0.2706  0.1356
 8361SOL    HW233210   0.334   2.711   4.221  1.2466 -0.7722  1.1158
 8361SOL    HW333211   0.345   2.796   4.096 -1.3794 -0.7916  0.8125
 8361SOL    MW433212   0.381   2.744   4.156 -0.0093 -0.4055  0.3542
 8362SOL     OW33213   4.295   0.033   1.801 -0.3549  0.5680 -0.0330
 8362SOL    HW233214   4.358   0.047   1.730 -1.4333  2.0609 -0.7549
 8362SOL    HW333215   4.260   0.120   1.819  0.2102  0.3070  2.6892
 8362SOL    MW433216   4.298   0.047   1.794 -0.4226  0.7305  0.2309
 8363SOL     OW33217   1.739   6.343   6.031 -0.5648  0.3459  0.0165
 8363SOL    HW233218   1.779   6.334   5.945 -0.4832  2.1631 -0.1728
 8363SOL    HW333219   1.681   6.267   6.039  0.3905 -0.5355 -1.0821
 8363SOL    MW433220   1.737   6.332   6.021 -0.4280  0.4693 -0.1534
 8364SOL     OW33221   3.004   5.431   2.998 -0.0034  0.1041 -0.3818
 8364SOL    HW233222   2.981   5.447   3.090  0.4892  0.5853 -0.3343
 8364SOL    HW333223   2.954   5.497   2.949 -3.1777 -2.3932 -0.8733
 8364SOL    MW433224   2.994   5.442   3.004 -0.3573 -0.1619 -0.4404
 8365SOL     OW33225   4.646   2.710   2.665  0.3680 -0.8359  0.1045
 8365SOL    HW233226   4.720   2.731   2.609  1.2074 -1.4536  0.9653
 8365SOL    HW333227   4.611   2.629   2.629  0.6117 -0.9788  0.1892
 8365SOL    MW433228   4.651   2.702   2.652  0.5109 -0.9363  0.2292
 8366SOL     OW33229   5.059   5.722   1.677  0.3549  0.1028 -0.2410
 8366SOL    HW233230   5.138   5.669   1.687  1.3827  1.5915 -0.0390
 8366SOL    HW333231   5.069   5.792   1.742 -0.5490  1.0056 -1.0311
 8366SOL    MW433232   5.071   5.724   1.687  0.3713  0.4183 -0.3186
 8367SOL     OW33233   5.032   5.980   5.657 -0.3117 -0.3962 -0.2882
 8367SOL    HW233234   4.959   5.930   5.694  0.9148 -1.2952  1.0231
 8367SOL    HW333235   5.085   5.914   5.612  0.5830 -0.0443  0.2446
 8367SOL    MW433236   5.029   5.964   5.656 -0.0318 -0.4683 -0.0449
 8368SOL     OW33237   5.880   0.435   5.809  0.6601 -0.4617 -0.3253
 8368SOL    HW233238   5.887   0.380   5.887  3.1148  0.1518 -0.0170
 8368SOL    HW333239   5.878   0.524   5.843 -0.7899 -0.2456 -0.9140
 8368SOL    MW433240   5.881   0.439   5.824  0.7926 -0.3522 -0.3623
 8369SOL     OW33241   2.963   0.009   1.795 -0.0697 -0.1375 -0.3357
 8369SOL    HW233242   3.054   0.039   1.784 -0.0315 -0.1960 -0.1728
 8369SOL    HW333243   2.912   0.090   1.795  0.2421  0.1396  2.4022
 8369SOL    MW433244   2.969   0.024   1.793 -0.0235 -0.1087  0.0470
 8370SOL     OW33245   2.889   2.689   1.583  0.2370  0.0013  0.3433
 8370SOL    HW233246   2.979   2.704   1.555 -0.0694  0.6347 -0.3482
 8370SOL    HW333247   2.853   2.628   1.518 -0.3097  1.0324 -0.3543
 8370SOL    MW433248   2.896   2.683   1.571  0.1245  0.2209  0.1600
 8371SOL     OW33249   1.763   3.412   5.635 -0.4698  0.0934 -0.0692
 8371SOL    HW233250   1.753   3.456   5.551 -0.0355  1.9354  0.7931
 8371SOL    HW333251   1.745   3.479   5.700  2.4177 -0.3379  1.3470
 8371SOL    MW433252   1.760   3.427   5.632 -0.0315  0.2796  0.2314
 8372SOL     OW33253   1.989   0.895   4.623  0.1686  0.0723 -0.0402
 8372SOL    HW233254   2.009   0.985   4.596  1.8901 -0.6667 -1.4126
 8372SOL    HW333255   2.006   0.842   4.545  1.9681 -1.7820  1.4976
 8372SOL    MW433256   1.993   0.900   4.609  0.6332 -0.2698 -0.0184
 8373SOL     OW33257   6.265   5.919   3.740 -0.1054  0.6575 -0.5991
 8373SOL    HW233258   6.240   5.827   3.743  0.2618  0.5749  0.3961
 8373SOL    HW333259   6.223   5.958   3.817  0.7697  1.0350 -0.2954
 8373SOL    MW433260   6.256   5.912   3.751  0.0585  0.6964 -0.4277
 8374SOL     OW33261   5.393   1.610   5.717  0.2309 -0.0998 -0.5923
 8374SOL    HW233262   5.435   1.675   5.774  0.3513  0.7812 -1.6442
 8374SOL    HW333263   5.465   1.559   5.680  0.3577  0.8370 -1.7112
 8374SOL    MW433264   5.408   1.612   5.719  0.2635  0.1400 -0.8787
 8375SOL     OW33265   4.965   3.888   4.968  0.5199  0.4050  0.3031
 8375SOL    HW233266   4.999   3.825   4.903  1.3151 -1.3660  2.2978
 8375SOL    HW333267   4.888   3.845   5.005  0.8020  0.7947  1.3820
 8375SOL    MW433268   4.960   3.874   4.964  0.6620  0.2227  0.7086
 8376SOL     OW33269   1.022   3.371   4.334  0.3803 -0.0842  0.0036
 8376SOL    HW233270   1.003   3.284   4.300 -0.0298 -0.0889  0.2422
 8376SOL    HW333271   0.969   3.430   4.280  0.2069 -0.0363  0.2256
 8376SOL    MW433272   1.013   3.368   4.322  0.3033 -0.0785  0.0643
 8377SOL     OW33273   6.306   4.767   6.316  0.2097 -0.3448  0.1015
 8377SOL    HW233274   6.275   4.730   6.233  1.1652 -1.9969  0.4246
 8377SOL    HW333275   6.379   4.823   6.292  0.2653 -0.5487 -0.2171
 8377SOL    MW433276   6.312   4.769   6.302  0.3431 -0.5897  0.1021
 8378SOL     OW33277   0.560   1.644   1.560 -0.4228  0.7561  0.0456
 8378SOL    HW233278   0.546   1.590   1.482 -2.6385  1.3590 -0.0284
 8378SOL    HW333279   0.613   1.718   1.529 -0.5945  0.5767 -0.6985
 8378SOL    MW433280   0.565   1.647   1.545 -0.7378  0.8120 -0.0623
 8379SOL     OW33281   2.285   2.567   5.732 -0.6189 -0.1751  0.6413
 8379SOL    HW233282   2.329   2.634   5.784 -0.4045 -0.5558  0.9559
 8379SOL    HW333283   2.352   2.500   5.719 -0.9241 -0.4703  0.5921
 8379SOL    MW433284   2.300   2.567   5.737 -0.6309 -0.2642  0.6763
 8380SOL     OW33285   3.584   6.242   1.209 -0.0061 -0.1122 -0.1857
 8380SOL    HW233286   3.599   6.306   1.139  0.9940 -0.6436 -0.4714
 8380SOL    HW333287   3.519   6.181   1.172  0.0477 -0.0297 -0.4198
 8380SOL    MW433288   3.577   6.242   1.195  0.1330 -0.1715 -0.2543
 8381SOL     OW33289   2.265   1.033   1.484  0.0486 -0.4976  0.0317
 8381SOL    HW233290   2.307   1.109   1.445  1.6670  0.1037  2.6640
 8381SOL    HW333291   2.286   0.961   1.425  2.2701  0.3676 -0.3467
 8381SOL    MW433292   2.273   1.033   1.471  0.5553 -0.3041  0.3291
 8382SOL     OW33293   1.348   5.355   4.255 -0.3537 -0.1297 -0.4537
 8382SOL    HW233294   1.399   5.436   4.254 -0.6540  0.0898  0.5453
 8382SOL    HW333295   1.335   5.334   4.163 -1.2284  1.5725 -0.7575
 8382SOL    MW433296   1.353   5.363   4.243 -0.5087  0.1238 -0.3620
 8383SOL     OW33297   3.532   0.315   6.372 -0.7608  0.2896  0.0186
 8383SOL    HW233298   3.560   0.336   6.283 -0.9472 -0.7649 -0.3074
 8383SOL    HW333299   3.471   0.385   6.395 -2.2845 -0.4591 -1.4773
 8383SOL    MW433300   3.527   0.327   6.363 -0.9864  0.0517 -0.2218
 8384SOL     OW33301   2.155   0.306   5.820  0.0930  0.4650 -0.3261
 8384SOL    HW233302   2.231   0.302   5.762  0.4617  1.2430  0.0744
 8384SOL    HW333303   2.188   0.350   5.898  0.1339 -2.3464  1.3542
 8384SOL    MW433304   2.169   0.312   5.822  0.1471  0.1967 -0.0516
 8385SOL     OW33305   4.667   0.912   3.019 -0.0641 -0.2293  0.2275
 8385SOL    HW233306   4.572   0.927   3.024 -0.3262 -1.6243 -0.1322
 8385SOL    HW333307   4.675   0.826   2.978  1.4078  0.4993 -1.1041
 8385SOL    MW433308   4.655   0.903   3.014  0.0955 -0.3172  0.0044
 8386SOL     OW33309   5.509   1.298   2.920  0.4282  0.1995  0.4759
 8386SOL    HW233310   5.590   1.349   2.918 -1.3074  3.1797  0.2480
 8386SOL    HW333311   5.499   1.274   3.012  0.8441  1.1190  0.7822
 8386SOL    MW433312   5.518   1.302   2.932  0.2541  0.7140  0.4863
 8387SOL     OW33313   4.260   2.391   5.574 -0.0086  0.2684 -0.0598
 8387SOL    HW233314   4.237   2.474   5.532 -0.1920 -0.5213 -1.5877
 8387SOL    HW333315   4.190   2.377   5.638  0.4730  1.6824  0.8223
 8387SOL    MW433316   4.248   2.400   5.577  0.0307  0.3507 -0.1450
 8388SOL     OW33317   4.846   2.104   2.107 -0.5379  0.2958  0.3571
 8388SOL    HW233318   4.830   2.011   2.090  0.7990  0.0294  0.4332
 8388SOL    HW333319   4.865   2.141   2.021 -0.4902  0.3795  0.4044
 8388SOL    MW433320   4.846   2.097   2.093 -0.3552  0.2717  0.3734
 8389SOL     OW33321   4.807   0.810   5.690  0.0950 -0.7640  0.2292
 8389SOL    HW233322   4.722   0.795   5.730  0.5818  0.5717  1.8839
 8389SOL    HW333323   4.812   0.905   5.677  0.5315 -1.0207 -1.7750
 8389SOL    MW433324   4.797   0.821   5.694  0.2169 -0.6216  0.1831
 8390SOL     OW33325   5.270   2.526   2.409 -0.1861 -0.0559  0.0634
 8390SOL    HW233326   5.354   2.558   2.376 -0.9841  1.3586 -0.6698
 8390SOL    HW333327   5.221   2.502   2.331 -1.7168  2.3685  0.1823
 8390SOL    MW433328   5.274   2.527   2.394 -0.4933  0.4506 -0.0176
 8391SOL     OW33329   5.925   5.217   1.603 -0.4011  0.0112  0.2152
 8391SOL    HW233330   5.976   5.262   1.670  1.0390  0.3385 -1.0542
 8391SOL    HW333331   5.835   5.217   1.637  0.2042  0.5561  1.9167
 8391SOL    MW433332   5.920   5.223   1.617 -0.1312  0.1262  0.2722
 8392SOL     OW33333   0.215   0.537   3.394  0.1927 -0.1068 -0.2481
 8392SOL    HW233334   0.199   0.613   3.450  0.2568 -0.4238  0.2117
 8392SOL    HW333335   0.232   0.574   3.307  0.3105  0.4084 -0.0130
 8392SOL    MW433336   0.215   0.552   3.390  0.2167 -0.0807 -0.1565
 8393SOL     OW33337   2.132   5.363   1.533 -0.1377  0.3763  0.5004
 8393SOL    HW233338   2.199   5.431   1.534  0.8066 -0.3915 -1.7348
 8393SOL    HW333339   2.176   5.287   1.496 -2.0044 -0.4333 -0.2161
 8393SOL    MW433340   2.146   5.362   1.528 -0.2594  0.1682  0.1110
 8394SOL     OW33341   4.594   3.071   1.773  0.4287  0.4134 -0.5083
 8394SOL    HW233342   4.652   3.009   1.729 -0.2418 -0.5819 -0.0094
 8394SOL    HW333343   4.596   3.149   1.717  0.1931 -0.5498 -1.8946
 8394SOL    MW433344   4.602   3.073   1.760  0.3091  0.1550 -0.6254
 8395SOL     OW33345   2.319   3.411   3.066  0.2391  0.5297 -0.1684
 8395SOL    HW233346   2.325   3.486   3.125  0.1272 -0.4749  1.1720
 8395SOL    HW333347   2.398   3.416   3.012  0.6233  1.1796  0.4401
 8395SOL    MW433348   2.330   3.421   3.067  0.2750  0.4829  0.0888
 8396SOL     OW33349   0.931   1.325   5.987  0.0620 -0.0350  0.7309
 8396SOL    HW233350   0.908   1.383   5.914 -0.8935 -1.1605  0.1120
 8396SOL    HW333351   0.936   1.383   6.063 -1.5285  0.7676  0.2602
 8396SOL    MW433352   0.929   1.341   5.987 -0.2739 -0.0776  0.5871
 8397SOL     OW33353   5.792   3.919   3.996  0.0196  0.2067  1.1384
 8397SOL    HW233354   5.759   3.873   4.073  0.0652  0.0424  1.0604
 8397SOL    HW333355   5.727   3.902   3.928  0.7478 -0.9523  0.7034
 8397SOL    MW433356   5.779   3.910   3.997  0.1217  0.0321  1.0707
 8398SOL     OW33357   3.730   1.683   5.332 -0.2072  0.0685  1.0714
 8398SOL    HW233358   3.639   1.690   5.301  0.4067 -1.6604 -1.4639
 8398SOL    HW333359   3.781   1.728   5.265  1.1449 -3.2267 -0.3487
 8398SOL    MW433360   3.725   1.690   5.319  0.0522 -0.5943  0.5495
 8399SOL     OW33361   2.967   1.064   2.053  0.0217  0.1769 -0.0521
 8399SOL    HW233362   2.927   1.142   2.014 -0.9317 -0.1990  0.1644
 8399SOL    HW333363   3.005   1.096   2.135 -1.4944  0.1774  0.6753
 8399SOL    MW433364   2.967   1.079   2.059 -0.3041  0.1274  0.0724
 8400SOL     OW33365   0.944   4.706   4.787  0.0035  0.6040  0.7813
 8400SOL    HW233366   0.933   4.646   4.860  0.9606  0.1301  0.5550
 8400SOL    HW333367   0.903   4.788   4.816 -3.6268 -0.7889  0.1837
 8400SOL    MW433368   0.937   4.709   4.800 -0.3492  0.3577  0.6726
 8401SOL     OW33369   5.622   0.078   6.122  0.1822 -0.5228  0.5358
 8401SOL    HW233370   5.700   0.075   6.067 -1.5723 -1.8444 -2.0941
 8401SOL    HW333371   5.624  -0.005   6.170  0.6131 -0.3278  0.8667
 8401SOL    MW433372   5.633   0.066   6.121  0.0076 -0.6714  0.2325
 8402SOL     OW33373   1.446   1.826   5.423 -0.7570  0.1650  0.6079
 8402SOL    HW233374   1.365   1.878   5.418 -2.3685 -2.2516  0.0365
 8402SOL    HW333375   1.437   1.775   5.503  0.1512 -0.2305  0.4634
 8402SOL    MW433376   1.434   1.826   5.433 -0.8498 -0.2060  0.5135
 8403SOL     OW33377   2.846   5.625   2.827  0.3221  0.0465  0.2457
 8403SOL    HW233378   2.832   5.713   2.863 -0.9123 -0.7013  1.7324
 8403SOL    HW333379   2.759   5.586   2.826  0.8221 -1.0897 -0.6043
 8403SOL    MW433380   2.833   5.632   2.832  0.2252 -0.2021  0.3297
 8404SOL     OW33381   5.183   6.074   1.606 -0.2604 -0.2126 -0.0712
 8404SOL    HW233382   5.270   6.073   1.646 -0.2593 -0.7727 -0.0887
 8404SOL    HW333383   5.125   6.107   1.676 -0.1041 -0.2533  0.0782
 8404SOL    MW433384   5.187   6.078   1.621 -0.2396 -0.2919 -0.0538
 8405SOL     OW33385   4.251   6.203   1.710  0.4631 -0.2200  0.1838
 8405SOL    HW233386   4.181   6.162   1.760 -0.9168 -0.4964 -1.8362
 8405SOL    HW333387   4.260   6.290   1.747  0.2411 -0.7622  1.5679
 8405SOL    MW433388   4.243   6.209   1.721  0.2518 -0.3280  0.0999
 8406SOL     OW33389   5.508   3.732   2.051 -0.1239 -0.7017  0.3812
 8406SOL    HW233390   5.445   3.670   2.014 -0.9055  0.3612 -0.1343
 8406SOL    HW333391   5.541   3.781   1.976  0.9548 -0.8949  0.7101
 8406SOL    MW433392   5.504   3.730   2.036 -0.0847 -0.5870  0.3566
 8407SOL     OW33393   4.356   3.182   2.883 -0.0164  0.3667  0.3748
 8407SOL    HW233394   4.359   3.087   2.898 -0.2143 -0.0083 -1.7163
 8407SOL    HW333395   4.263   3.204   2.892  0.0440  0.4059  0.9754
 8407SOL    MW433396   4.344   3.172   2.886 -0.0345  0.3224  0.1782
 8408SOL     OW33397   5.326   0.300   6.313  0.2310  0.1819  0.3818
 8408SOL    HW233398   5.331   0.390   6.345 -0.5241  0.6589 -0.7769
 8408SOL    HW333399   5.278   0.253   6.381  1.4874  0.4093  1.4625
 8408SOL    MW433400   5.320   0.305   6.326  0.2972  0.2748  0.3715
 8409SOL     OW33401   0.166   1.940   4.666 -0.2540 -0.1596 -0.4214
 8409SOL    HW233402   0.100   1.930   4.597 -1.1033 -1.4544  0.5441
 8409SOL    HW333403   0.119   1.979   4.739  0.3921  0.2288 -0.2055
 8409SOL    MW433404   0.151   1.944   4.666 -0.2808 -0.2792 -0.2655
 8410SOL     OW33405   2.660   6.388   0.658 -0.2099  0.5341  0.1945
 8410SOL    HW233406   2.744   6.397   0.613 -0.9409 -1.2496 -1.7218
 8410SOL    HW333407   2.612   6.468   0.634  0.3948  0.8677  0.0635
 8410SOL    MW433408   2.665   6.400   0.649 -0.2266  0.3428 -0.0756
 8411SOL     OW33409   2.104   5.672   0.646  0.1498  0.1623  0.1637
 8411SOL    HW233410   2.198   5.669   0.662  0.2173 -0.4699 -0.3310
 8411SOL    HW333411   2.071   5.588   0.677 -0.0233 -0.2304 -1.0197
 8411SOL    MW433412   2.112   5.661   0.652  0.1359  0.0271 -0.0577
 8412SOL     OW33413   0.820   0.360   3.382  0.0485  0.1826 -0.2534
 8412SOL    HW233414   0.799   0.426   3.448  1.6084  0.3506  0.1078
 8412SOL    HW333415   0.847   0.411   3.305  1.2002 -0.0113  0.0089
 8412SOL    MW433416   0.820   0.376   3.380  0.4062  0.1792 -0.1711
 8413SOL     OW33417   3.095   4.449   5.560 -0.4484  0.3974 -0.7705
 8413SOL    HW233418   3.154   4.397   5.615 -1.0887 -1.1224 -1.4760
 8413SOL    HW333419   3.024   4.389   5.538 -1.1172  1.5283 -1.7702
 8413SOL    MW433420   3.094   4.434   5.564 -0.6211  0.3461 -0.9955
 8414SOL     OW33421   3.779   4.458   3.121 -0.0637 -0.4176 -0.1148
 8414SOL    HW233422   3.772   4.371   3.081 -0.5586  0.2793 -1.5895
 8414SOL    HW333423   3.842   4.505   3.066 -0.6796  0.5329 -0.0261
 8414SOL    MW433424   3.786   4.452   3.109 -0.2103 -0.2003 -0.2977
 8415SOL     OW33425   0.595   3.968   4.895 -0.6468 -0.1446  0.0717
 8415SOL    HW233426   0.676   3.925   4.868 -1.1616 -0.3766 -1.1440
 8415SOL    HW333427   0.527   3.926   4.843 -1.3537  1.1250 -0.0617
 8415SOL    MW433428   0.597   3.957   4.885 -0.8080 -0.0077 -0.1063
 8416SOL     OW33429   3.880   3.619   2.814 -0.1677  0.0372 -0.0599
 8416SOL    HW233430   3.837   3.579   2.890  0.6006  1.6246  1.2666
 8416SOL    HW333431   3.973   3.608   2.831  0.0217  0.9645 -0.4332
 8416SOL    MW433432   3.886   3.612   2.826 -0.0413  0.3690  0.0658
 8417SOL     OW33433   5.269   2.883   1.132 -0.2943  0.1207  0.0002
 8417SOL    HW233434   5.324   2.805   1.122 -0.2026  0.3416 -1.3799
 8417SOL    HW333435   5.235   2.877   1.221 -0.1743 -1.4224 -0.0333
 8417SOL    MW433436   5.272   2.872   1.142 -0.2664 -0.0538 -0.1863
 8418SOL     OW33437   2.491   0.194   0.608  0.1032  0.0937 -0.3632
 8418SOL    HW233438   2.515   0.260   0.543 -0.6632  0.1789 -0.5758
 8418SOL    HW333439   2.498   0.239   0.692  1.9875 -0.2797 -0.2915
 8418SOL    MW433440   2.495   0.208   0.610  0.2507  0.0556 -0.3818
 8419SOL     OW33441   3.867   5.695   1.306 -0.2709 -0.0272  0.0339
 8419SOL    HW233442   3.928   5.678   1.378  0.3974  0.0837 -0.4910
 8419SOL    HW333443   3.828   5.780   1.328  1.8131  1.2882 -0.9438
 8419SOL    MW433444   3.870   5.704   1.319  0.0922  0.1610 -0.1644
 8420SOL     OW33445   6.036   1.677   0.091 -0.4308  0.0222 -0.2987
 8420SOL    HW233446   6.054   1.728   0.170 -1.0466 -0.0570 -0.1071
 8420SOL    HW333447   6.040   1.586   0.119 -1.4819  0.0096 -0.1758
 8420SOL    MW433448   6.039   1.672   0.105 -0.6508  0.0101 -0.2572
 8421SOL     OW33449   5.985   3.378   0.431 -0.2819 -0.0762  0.4252
 8421SOL    HW233450   5.929   3.360   0.355 -0.1808  0.0733  0.3160
 8421SOL    HW333451   6.072   3.350   0.404 -0.2286  0.0602  0.4557
 8421SOL    MW433452   5.989   3.372   0.418 -0.2615 -0.0385  0.4148
 8422SOL     OW33453   0.849   3.551   2.460  0.1876 -0.2080 -0.0248
 8422SOL    HW233454   0.910   3.582   2.528 -0.3345 -0.9755  0.8255
 8422SOL    HW333455   0.763   3.568   2.497 -0.1150 -0.2292 -0.7105
 8422SOL    MW433456   0.846   3.558   2.474  0.0788 -0.3120 -0.0031
 8423SOL     OW33457   0.881   4.532   2.801  0.0846 -0.1062 -0.6703
 8423SOL    HW233458   0.912   4.469   2.866  0.9619 -0.6513 -1.5836
 8423SOL    HW333459   0.793   4.502   2.778 -0.2449  0.1083  0.2663
 8423SOL    MW433460   0.873   4.520   2.807  0.1569 -0.1498 -0.6672
 8424SOL     OW33461   1.340   0.332   6.221  0.1038  0.4765  0.3832
 8424SOL    HW233462   1.257   0.376   6.204  0.5083  0.9320 -0.5184
 8424SOL    HW333463   1.406   0.389   6.179  0.6303 -1.0827 -1.0344
 8424SOL    MW433464   1.338   0.346   6.213  0.2267  0.3309  0.0772
 8425SOL     OW33465   2.890   3.369   4.219  0.4996 -0.4565 -0.0400
 8425SOL    HW233466   2.893   3.273   4.209  1.3012 -0.3906 -0.5739
 8425SOL    HW333467   2.982   3.394   4.231  0.2321  0.1928  0.7051
 8425SOL    MW433468   2.903   3.359   4.219  0.5700 -0.3621 -0.0121
 8426SOL     OW33469   3.631   3.088   0.622 -0.1127  0.2216 -0.2606
 8426SOL    HW233470   3.723   3.070   0.603 -0.3598 -2.3380  0.6278
 8426SOL    HW333471   3.633   3.148   0.697  0.8145  0.5982 -0.5742
 8426SOL    MW433472   3.643   3.093   0.629 -0.0230 -0.0664 -0.1848
 8427SOL     OW33473   4.794   0.290   3.658  0.1268 -0.1693 -0.1116
 8427SOL    HW233474   4.763   0.339   3.582 -1.2694  1.4141  1.4016
 8427SOL    HW333475   4.715   0.264   3.704  0.9227  0.2810  1.6114
 8427SOL    MW433476   4.780   0.293   3.654  0.0476  0.0990  0.3154
 8428SOL     OW33477   2.124   4.464   2.436  0.3090  0.3345  0.5440
 8428SOL    HW233478   2.069   4.458   2.359  1.1708 -0.7376 -0.0212
 8428SOL    HW333479   2.066   4.445   2.510 -0.3577  0.6153  0.0926
 8428SOL    MW433480   2.109   4.461   2.436  0.3347  0.2301  0.4099
 8429SOL     OW33481   3.091   5.246   0.770 -0.0789  0.2950  0.3936
 8429SOL    HW233482   3.167   5.188   0.778 -0.4119 -0.6310 -2.2041
 8429SOL    HW333483   3.051   5.245   0.857  1.6765 -0.9008  1.2435
 8429SOL    MW433484   3.096   5.238   0.783  0.1088  0.0151  0.1630
 8430SOL     OW33485   5.382   2.640   1.071  0.0372  0.1375  0.4344
 8430SOL    HW233486   5.302   2.636   1.018  1.5690 -0.8057 -1.9995
 8430SOL    HW333487   5.370   2.573   1.138 -0.3609 -1.6167 -1.2925
 8430SOL    MW433488   5.370   2.630   1.072  0.1868 -0.2184 -0.1146
 8431SOL     OW33489   3.664   6.017   0.653  0.6350 -0.1818 -0.4520
 8431SOL    HW233490   3.597   5.950   0.641 -0.2014  0.3636  0.9254
 8431SOL    HW333491   3.657   6.041   0.745  0.2358  2.4842 -1.1096
 8431SOL    MW433492   3.654   6.011   0.664  0.4720  0.2419 -0.3571
 8432SOL     OW33493   5.266   5.691   0.918  0.2359  0.1496  0.0461
 8432SOL    HW233494   5.216   5.685   0.836  1.7568  0.2523 -0.9263
 8432SOL    HW333495   5.271   5.785   0.936 -1.3242  0.0700  1.0783
 8432SOL    MW433496   5.260   5.702   0.910  0.2307  0.1526  0.0540
 8433SOL     OW33497   4.209   4.664   0.570 -0.4894 -0.3095  0.4817
 8433SOL    HW233498   4.114   4.662   0.560 -0.3491 -3.1262 -1.4492
 8433SOL    HW333499   4.242   4.689   0.484  0.5046 -1.5894  0.4554
 8433SOL    MW433500   4.201   4.667   0.558 -0.3397 -0.8500  0.2235
 8434SOL     OW33501   4.487   1.110   4.081  0.0055  0.3405 -0.0802
 8434SOL    HW233502   4.409   1.148   4.122  1.6194  1.8505  1.8185
 8434SOL    HW333503   4.544   1.185   4.065  0.5515 -0.5537 -2.7529
 8434SOL    MW433504   4.484   1.125   4.084  0.2905  0.4218 -0.1823
 8435SOL     OW33505   5.985   5.882   5.206  0.9933 -0.3224 -0.3199
 8435SOL    HW233506   6.039   5.807   5.180  1.1567 -0.3828  0.1859
 8435SOL    HW333507   6.047   5.947   5.239  0.8497  0.0239 -0.7225
 8435SOL    MW433508   6.000   5.881   5.207  0.9959 -0.2847 -0.3063
 8436SOL     OW33509   5.057   3.383   6.099 -0.4882 -0.2156  0.1145
 8436SOL    HW233510   5.125   3.366   6.165  0.0156  1.5709  0.1066
 8436SOL    HW333511   5.044   3.298   6.056  1.4056 -0.7355  0.4498
 8436SOL    MW433512   5.064   3.369   6.102 -0.1719 -0.0485  0.1577
 8437SOL     OW33513   2.797   2.278   2.549 -0.0726 -0.2361 -0.5186
 8437SOL    HW233514   2.862   2.237   2.492  0.5742  0.3927 -0.2494
 8437SOL    HW333515   2.848   2.314   2.621 -0.7129  0.3572 -0.3513
 8437SOL    MW433516   2.812   2.278   2.551 -0.0718 -0.0748 -0.4610
 8438SOL     OW33517   1.467   6.206   4.259  0.0849  0.1592 -0.0612
 8438SOL    HW233518   1.486   6.223   4.351 -0.6051  0.0381  0.1122
 8438SOL    HW333519   1.481   6.112   4.248 -2.0821 -0.2974  0.5198
 8438SOL    MW433520   1.471   6.196   4.270 -0.2921  0.0830  0.0384
 8439SOL     OW33521   0.282   4.637   1.204  0.6953 -0.1731  0.6624
 8439SOL    HW233522   0.205   4.585   1.180  0.2042  0.6770  0.3912
 8439SOL    HW333523   0.248   4.704   1.264  1.0780  0.7293 -0.1181
 8439SOL    MW433524   0.267   4.639   1.209  0.6810  0.0581  0.5236
 8440SOL     OW33525   0.644   1.942   5.782 -0.5357 -0.0798 -0.1178
 8440SOL    HW233526   0.580   1.941   5.854 -0.6245 -2.5257 -0.1627
 8440SOL    HW333527   0.729   1.949   5.826 -0.6450 -0.4590  0.1560
 8440SOL    MW433528   0.646   1.943   5.798 -0.5618 -0.4525 -0.0876
 8441SOL     OW33529   5.656   3.901   1.420 -0.2113  0.0636  0.3439
 8441SOL    HW233530   5.666   3.965   1.491  2.8324 -1.2028  1.2365
 8441SOL    HW333531   5.735   3.847   1.426 -1.8541 -2.7553 -1.3966
 8441SOL    MW433532   5.668   3.903   1.430 -0.0265 -0.4754  0.2320
 8442SOL     OW33533   4.313   2.669   0.671  0.1260  0.6756  0.4640
 8442SOL    HW233534   4.238   2.729   0.670  0.0428  0.5739 -0.6531
 8442SOL    HW333535   4.299   2.614   0.748 -1.6853 -0.2447 -0.4711
 8442SOL    MW433536   4.301   2.670   0.681 -0.1240  0.5407  0.1933
 8443SOL     OW33537   6.306   0.566   1.917  0.5739 -0.2212 -0.2081
 8443SOL    HW233538   6.357   0.505   1.863 -0.5048 -0.5897 -0.8420
 8443SOL    HW333539   6.228   0.516   1.942 -0.1860  0.7889 -0.4809
 8443SOL    MW433540   6.303   0.551   1.913  0.3313 -0.1365 -0.3277
 8444SOL     OW33541   4.807   2.185   3.918  0.2263  0.7050 -0.6369
 8444SOL    HW233542   4.830   2.270   3.880  0.3998 -0.4509 -3.3919
 8444SOL    HW333543   4.729   2.158   3.870  1.7495 -1.8529 -1.8515
 8444SOL    MW433544   4.800   2.193   3.907  0.4502  0.2150 -1.1607
 8445SOL     OW33545   3.000   2.924   0.632 -0.6073  0.4241 -0.3527
 8445SOL    HW233546   3.079   2.963   0.595 -0.4638 -0.0393 -0.5371
 8445SOL    HW333547   2.977   2.982   0.705  0.3199  0.1610  0.1689
 8445SOL    MW433548   3.007   2.937   0.637 -0.4660  0.3282 -0.3082
 8446SOL     OW33549   6.078   5.262   4.079  0.5849 -0.9891 -0.6489
 8446SOL    HW233550   6.143   5.316   4.032  1.3641 -2.2430 -1.0535
 8446SOL    HW333551   6.032   5.215   4.010  0.4617 -1.4396 -0.2648
 8446SOL    MW433552   6.081   5.263   4.063  0.6714 -1.2140 -0.6516
 8447SOL     OW33553   5.352   3.981   2.559 -0.1667 -0.3497  0.5130
 8447SOL    HW233554   5.298   3.980   2.638  1.0625 -1.7046  1.3957
 8447SOL    HW333555   5.387   3.892   2.553 -0.2036 -0.2740 -1.5675
 8447SOL    MW433556   5.350   3.969   2.568 -0.0094 -0.5184  0.3550
 8448SOL     OW33557   3.449   0.696   1.295 -0.9712  1.0663 -0.7328
 8448SOL    HW233558   3.469   0.611   1.257 -0.1784  0.8414  0.1384
 8448SOL    HW333559   3.534   0.739   1.302 -1.2199  1.4600 -0.0751
 8448SOL    MW433560   3.463   0.691   1.291 -0.8994  1.0886 -0.5311
 8449SOL     OW33561   5.900   0.807   0.354 -0.5016  0.1576  0.6756
 8449SOL    HW233562   5.910   0.806   0.449  1.6169 -0.9252  0.5107
 8449SOL    HW333563   5.990   0.806   0.320 -1.1550  2.2973 -1.3729
 8449SOL    MW433564   5.913   0.806   0.362 -0.3083  0.2971  0.3836
 8450SOL     OW33565   4.639   2.304   2.978  0.5524 -0.2993 -0.5031
 8450SOL    HW233566   4.723   2.291   2.933  0.0752 -0.9773 -1.2171
 8450SOL    HW333567   4.603   2.216   2.987 -0.5982  0.0778 -1.2218
 8450SOL    MW433568   4.646   2.291   2.973  0.3376 -0.3390 -0.6921
 8451SOL     OW33569   5.306   1.222   4.569  0.2101 -0.3412 -0.6406
 8451SOL    HW233570   5.217   1.241   4.539  0.0144 -1.0335 -0.5133
 8451SOL    HW333571   5.325   1.291   4.632 -0.0568  0.0846 -1.0204
 8451SOL    MW433572   5.297   1.234   4.573  0.1490 -0.3763 -0.6739
 8452SOL     OW33573   1.589   5.814   2.479 -0.6017 -0.3542  0.0707
 8452SOL    HW233574   1.517   5.871   2.452 -0.7549 -0.2207  0.7600
 8452SOL    HW333575   1.547   5.737   2.517 -0.3904  0.4040  1.9037
 8452SOL    MW433576   1.574   5.811   2.480 -0.5941 -0.2366  0.4035
 8453SOL     OW33577   1.596   1.988   0.238 -0.5592  0.1845  0.3277
 8453SOL    HW233578   1.609   2.082   0.229 -0.1860  0.1156  0.1142
 8453SOL    HW333579   1.509   1.972   0.201 -0.0697  0.2630 -0.9133
 8453SOL    MW433580   1.586   1.998   0.232 -0.4454  0.1858  0.1358
 8454SOL     OW33581   2.725   2.860   3.274 -0.2864 -0.1575  1.1099
 8454SOL    HW233582   2.635   2.845   3.245 -0.4294 -0.2866  1.6071
 8454SOL    HW333583   2.755   2.773   3.301  1.2396 -0.8840 -2.4283
 8454SOL    MW433584   2.717   2.846   3.274 -0.1039 -0.2704  0.7087
 8455SOL     OW33585   5.097   0.982   3.185 -0.1720  0.7739 -0.2793
 8455SOL    HW233586   5.003   1.000   3.196 -0.2165 -0.1087  0.9947
 8455SOL    HW333587   5.141   1.053   3.230 -0.3038 -0.3512  1.7405
 8455SOL    MW433588   5.090   0.993   3.192 -0.1952  0.5090  0.1552
 8456SOL     OW33589   3.066   1.342   4.556  0.7437  0.0381 -0.3394
 8456SOL    HW233590   3.043   1.353   4.648 -1.4110 -2.8649 -0.3894
 8456SOL    HW333591   3.124   1.266   4.555 -2.0668 -2.2523 -1.5599
 8456SOL    MW433592   3.071   1.333   4.568  0.0886 -0.6471 -0.5070
 8457SOL     OW33593   1.306   6.024   5.687  0.0591  0.3024 -0.0309
 8457SOL    HW233594   1.389   6.026   5.735 -0.0754 -0.7848  0.2764
 8457SOL    HW333595   1.270   6.112   5.699  1.5493  1.0758 -0.8865
 8457SOL    MW433596   1.312   6.036   5.695  0.2380  0.2610 -0.1033
 8458SOL     OW33597   1.504   5.008   6.135  0.2259 -0.0726 -0.2945
 8458SOL    HW233598   1.566   5.021   6.064 -0.5352  1.0910 -0.7672
 8458SOL    HW333599   1.429   5.063   6.113 -0.9288 -1.3367  0.3360
 8458SOL    MW433600   1.502   5.017   6.123 -0.0269 -0.0859 -0.2737
 8459SOL     OW33601   6.245   0.787   3.150  0.5985 -0.4554  0.0122
 8459SOL    HW233602   6.324   0.768   3.100  0.6745 -1.0939  0.3518
 8459SOL    HW333603   6.266   0.867   3.199  0.0450  0.9453 -1.9434
 8459SOL    MW433604   6.258   0.795   3.150  0.5355 -0.3548 -0.2010
 8460SOL     OW33605   2.436   0.503   6.249 -0.2322  0.6550  0.3468
 8460SOL    HW233606   2.499   0.512   6.177 -1.6865  0.2542 -1.0270
 8460SOL    HW333607   2.484   0.455   6.316  1.5150  1.9648  0.1206
 8460SOL    MW433608   2.451   0.498   6.248 -0.1935  0.7749  0.1357
 8461SOL     OW33609   5.974   1.925   2.720 -0.3225 -0.2607 -0.1485
 8461SOL    HW233610   6.002   1.836   2.698  0.4448  0.1645 -0.9354
 8461SOL    HW333611   5.905   1.944   2.655  2.0577  1.0575 -2.4733
 8461SOL    MW433612   5.968   1.915   2.708  0.0928 -0.0307 -0.5591
 8462SOL     OW33613   6.191   4.290   5.364  0.2778  0.4986 -0.8576
 8462SOL    HW233614   6.263   4.351   5.349 -1.0997  2.3900 -0.2328
 8462SOL    HW333615   6.114   4.346   5.375 -1.4699 -1.4571 -2.3179
 8462SOL    MW433616   6.190   4.306   5.363 -0.1345  0.4901 -0.9679
 8463SOL     OW33617   1.164   2.188   6.307  0.2536  0.4507 -0.0789
 8463SOL    HW233618   1.108   2.236   6.368  1.9393  0.7553  1.2870
 8463SOL    HW333619   1.198   2.114   6.358  2.7094  1.4195 -0.1717
 8463SOL    MW433620   1.161   2.185   6.322  0.8000  0.6187  0.0891
 8464SOL     OW33621   2.372   4.676   2.077  0.2226 -0.0107  0.0946
 8464SOL    HW233622   2.450   4.688   2.023  0.1257  0.2699  0.0160
 8464SOL    HW333623   2.334   4.593   2.047 -0.8674  1.0400 -1.5681
 8464SOL    MW433624   2.377   4.666   2.066  0.0660  0.1650 -0.1352
 8465SOL     OW33625   4.089   0.335   0.421 -0.5859  0.1392  0.3013
 8465SOL    HW233626   4.109   0.279   0.345 -0.9498 -0.3851  0.5854
 8465SOL    HW333627   3.999   0.365   0.405 -0.8618 -0.4071  0.7804
 8465SOL    MW433628   4.080   0.332   0.409 -0.6703 -0.0020  0.4020
 8466SOL     OW33629   0.195   1.559   0.069 -0.4920  0.8266 -0.4803
 8466SOL    HW233630   0.155   1.645   0.086 -0.8155  0.9701 -1.8391
 8466SOL    HW333631   0.288   1.571   0.088 -0.8425  0.8551  1.4434
 8466SOL    MW433632   0.202   1.572   0.074 -0.5810  0.8493 -0.4058
 8467SOL     OW33633   2.486   2.634   0.366 -0.3070 -0.5750 -0.4677
 8467SOL    HW233634   2.505   2.620   0.459 -0.4615 -0.3477 -0.4017
 8467SOL    HW333635   2.419   2.702   0.365 -0.2780 -0.5496 -0.7476
 8467SOL    MW433636   2.480   2.641   0.378 -0.3235 -0.5417 -0.4959
 8468SOL     OW33637   2.122   0.158   1.465 -0.1279 -0.3076 -0.0556
 8468SOL    HW233638   2.169   0.238   1.440 -2.3907  0.6481 -1.5591
 8468SOL    HW333639   2.177   0.087   1.430  0.7523  0.6944 -0.7732
 8468SOL    MW433640   2.136   0.159   1.457 -0.3104 -0.0493 -0.3487
 8469SOL     OW33641   0.621   2.784   1.883 -0.1724  0.4193  0.1973
 8469SOL    HW233642   0.668   2.797   1.800 -1.1844  1.8672 -0.2011
 8469SOL    HW333643   0.688   2.794   1.951  0.4541  0.4271 -0.4106
 8469SOL    MW433644   0.636   2.787   1.881 -0.2232  0.6114  0.0645
 8470SOL     OW33645   2.584   5.924   5.687 -0.6681 -0.0332  0.7901
 8470SOL    HW233646   2.562   5.932   5.595  0.6704 -1.2908  0.3145
 8470SOL    HW333647   2.556   5.835   5.711 -0.3681  0.0253  1.3840
 8470SOL    MW433648   2.577   5.913   5.678 -0.4519 -0.1914  0.8057
 8471SOL     OW33649   2.848   4.031   4.342 -0.0850 -0.3279  0.1416
 8471SOL    HW233650   2.885   3.964   4.400 -0.2997  0.3446  1.0870
 8471SOL    HW333651   2.904   4.029   4.264  0.0585 -1.4250  0.2535
 8471SOL    MW433652   2.861   4.022   4.340 -0.0944 -0.3839  0.2811
 8472SOL     OW33653   1.717   1.842   3.787  0.4467 -0.5221  0.3010
 8472SOL    HW233654   1.729   1.905   3.859  1.0156 -1.9031  1.4577
 8472SOL    HW333655   1.629   1.807   3.801  0.0795  0.0784 -0.4202
 8472SOL    MW433656   1.707   1.846   3.798  0.4733 -0.6251  0.3584
 8473SOL     OW33657   0.097   5.620   1.420 -0.0909  0.3605 -0.1629
 8473SOL    HW233658   0.101   5.649   1.511 -1.8152 -0.4817  0.2254
 8473SOL    HW333659   0.007   5.636   1.393  0.1471 -0.2685 -1.4220
 8473SOL    MW433660   0.086   5.626   1.428 -0.2870  0.1664 -0.2778
 8474SOL     OW33661   4.807   5.885   2.433 -0.6547 -0.5792 -0.4552
 8474SOL    HW233662   4.870   5.957   2.420 -0.9029 -0.3108 -0.1803
 8474SOL    HW333663   4.814   5.865   2.527 -0.7739 -0.7408 -0.4823
 8474SOL    MW433664   4.816   5.892   2.444 -0.7032 -0.5651 -0.4225
 8475SOL     OW33665   5.803   1.315   5.845 -0.0112 -0.2255  0.2103
 8475SOL    HW233666   5.826   1.408   5.848  1.7976 -0.6546  1.2140
 8475SOL    HW333667   5.842   1.283   5.764 -0.5866 -0.1422 -0.1074
 8475SOL    MW433668   5.811   1.323   5.835  0.1516 -0.2712  0.3008
 8476SOL     OW33669   4.313   5.600   4.002  0.6600 -0.6106  0.2422
 8476SOL    HW233670   4.399   5.600   3.961  1.6679  1.7170  2.1410
 8476SOL    HW333671   4.269   5.678   3.968  0.1841 -0.5394  0.9822
 8476SOL    MW433672   4.318   5.610   3.992  0.7302 -0.2941  0.5904
 8477SOL     OW33673   3.695   5.489   1.284  0.0928 -0.8092 -0.3441
 8477SOL    HW233674   3.605   5.521   1.298 -0.3077 -1.6939 -0.8219
 8477SOL    HW333675   3.750   5.564   1.307 -0.7624 -0.2649  0.0096
 8477SOL    MW433676   3.690   5.503   1.289 -0.0729 -0.8541 -0.3605
 8478SOL     OW33677   1.786   5.960   4.626 -1.0646  0.3977 -0.0082
 8478SOL    HW233678   1.796   5.958   4.531 -0.1485  1.8543  0.0323
 8478SOL    HW333679   1.705   5.910   4.642 -1.6115  0.7000 -1.5947
 8478SOL    MW433680   1.776   5.953   4.616 -1.0159  0.6298 -0.2122
 8479SOL     OW33681   6.264   5.158   5.433  0.1310  0.2111  0.1814
 8479SOL    HW233682   6.308   5.173   5.517 -0.0901 -0.3892  0.4061
 8479SOL    HW333683   6.247   5.064   5.431  0.2228  0.2080 -0.5859
 8479SOL    MW433684   6.267   5.148   5.444  0.1139  0.1315  0.1098
 8480SOL     OW33685   3.561   6.045   5.564  0.0857  0.4584  0.2084
 8480SOL    HW233686   3.622   6.021   5.634  0.2932  0.2835 -0.0311
 8480SOL    HW333687   3.563   6.141   5.561 -2.3409  0.7251  2.6171
 8480SOL    MW433688   3.569   6.054   5.573 -0.2071  0.4705  0.4946
 8481SOL     OW33689   4.861   3.760   6.343 -0.5365 -0.0513  0.1591
 8481SOL    HW233690   4.901   3.846   6.349 -2.9689  1.1435  0.3392
 8481SOL    HW333691   4.815   3.760   6.259 -0.8375 -1.0504  0.3049
 8481SOL    MW433692   4.860   3.771   6.333 -0.8972 -0.0255  0.2021
 8482SOL     OW33693   5.704   4.614   4.782  0.6359  0.0932  0.0657
 8482SOL    HW233694   5.697   4.705   4.756  0.9629 -0.1920 -1.0592
 8482SOL    HW333695   5.617   4.591   4.814 -0.2577  0.0559 -2.2036
 8482SOL    MW433696   5.692   4.623   4.783  0.5611  0.0507 -0.3821
 8483SOL     OW33697   5.265   3.963   5.493  0.3895 -0.3478  0.3416
 8483SOL    HW233698   5.276   4.010   5.410 -1.7050 -0.9766 -0.3533
 8483SOL    HW333699   5.258   4.032   5.558  1.7751  0.1625  0.0026
 8483SOL    MW433700   5.266   3.979   5.490  0.2960 -0.3634  0.2052
 8484SOL     OW33701   3.069   1.810   4.343  0.6067  0.2933  0.3932
 8484SOL    HW233702   3.063   1.715   4.339 -2.2714  0.4097 -0.1639
 8484SOL    HW333703   3.009   1.841   4.276  1.8934  2.5489  0.1635
 8484SOL    MW433704   3.061   1.802   4.334  0.3967  0.6063  0.2894
 8485SOL     OW33705   5.864   1.788   4.046  0.1368  0.5777  0.4350
 8485SOL    HW233706   5.919   1.865   4.039  1.0493 -0.1248 -0.3170
 8485SOL    HW333707   5.778   1.816   4.014 -0.1410  1.8295  2.1344
 8485SOL    MW433708   5.860   1.802   4.041  0.2206  0.6502  0.5600
 8486SOL     OW33709   2.200   0.152   4.617  0.2953  0.6546  0.3285
 8486SOL    HW233710   2.292   0.151   4.642  0.3803  0.9965  0.0369
 8486SOL    HW333711   2.193   0.222   4.552  0.3660 -1.1550 -1.7453
 8486SOL    MW433712   2.211   0.161   4.612  0.3158  0.4610  0.0164
 8487SOL     OW33713   2.586   3.273   4.272 -0.4694  0.8125 -0.4075
 8487SOL    HW233714   2.670   3.275   4.318 -0.7968  1.0651  0.1944
 8487SOL    HW333715   2.580   3.357   4.228 -1.3180  1.6659  1.2481
 8487SOL    MW433716   2.596   3.284   4.272 -0.6246  0.9584 -0.1097
 8488SOL     OW33717   1.310   1.244   2.021  0.0344 -0.2057  0.2148
 8488SOL    HW233718   1.378   1.245   1.954 -0.9450  1.2534 -0.8294
 8488SOL    HW333719   1.347   1.193   2.093  1.9539 -0.0171 -0.5886
 8488SOL    MW433720   1.324   1.238   2.022  0.1584  0.0117 -0.0290
 8489SOL     OW33721   1.703   2.650   2.931 -0.0912 -0.2357 -0.0458
 8489SOL    HW233722   1.750   2.705   2.868 -2.9706  2.4733 -0.0866
 8489SOL    HW333723   1.704   2.563   2.892  1.5230  0.5267 -1.8877
 8489SOL    MW433724   1.709   2.646   2.917 -0.2581  0.2223 -0.2942
 8490SOL     OW33725   1.543   1.830   1.578  0.0589 -0.4676  0.3469
 8490SOL    HW233726   1.466   1.854   1.528  0.7471  0.6212 -0.2318
 8490SOL    HW333727   1.550   1.896   1.646  0.8823 -0.1082 -0.0634
 8490SOL    MW433728   1.534   1.842   1.580  0.2583 -0.2765  0.2164
 8491SOL     OW33729   5.835   0.033   3.083 -0.0635  0.4398  0.4228
 8491SOL    HW233730   5.850   0.080   3.165  0.4367 -0.7942  1.0512
 8491SOL    HW333731   5.922   0.019   3.047 -0.2130  0.0419  0.2136
 8491SOL    MW433732   5.849   0.038   3.089 -0.0172  0.2245  0.4781
 8492SOL     OW33733   4.074   1.564   5.110  0.9604  0.3216 -0.0072
 8492SOL    HW233734   4.039   1.600   5.191 -1.4528 -0.4605 -0.5928
 8492SOL    HW333735   4.114   1.481   5.135 -1.0777 -0.6409  0.2706
 8492SOL    MW433736   4.075   1.558   5.124  0.3731  0.0914 -0.0478
 8493SOL     OW33737   1.890   4.761   4.177 -0.5522  0.4016 -0.2109
 8493SOL    HW233738   1.974   4.716   4.189  0.3947  2.2397  0.3794
 8493SOL    HW333739   1.851   4.719   4.100 -0.6344 -2.7027  1.3687
 8493SOL    MW433740   1.896   4.749   4.169 -0.4381  0.2345  0.0754
 8494SOL     OW33741   1.024   0.764   3.203  0.0451  0.3937  0.5903
 8494SOL    HW233742   1.104   0.816   3.194  0.1964  0.0172 -0.3833
 8494SOL    HW333743   1.007   0.731   3.115  0.5533 -2.1060  1.3508
 8494SOL    MW433744   1.032   0.767   3.190  0.1321  0.0142  0.5622
 8495SOL     OW33745   3.291   5.646   6.270  0.3209 -0.1540  0.4114
 8495SOL    HW233746   3.338   5.718   6.227 -0.6052  0.3977  0.2943
 8495SOL    HW333747   3.319   5.651   6.362 -2.2000  2.5357  1.1918
 8495SOL    MW433748   3.301   5.656   6.277 -0.1339  0.2737  0.4989
 8496SOL     OW33749   6.259   0.162   0.173 -0.2150 -0.1223 -0.2023
 8496SOL    HW233750   6.168   0.134   0.176 -0.2243 -0.2698 -1.5557
 8496SOL    HW333751   6.269   0.206   0.089  0.5689  1.3339  0.5981
 8496SOL    MW433752   6.248   0.164   0.162 -0.1128  0.0503 -0.2753
 8497SOL     OW33753   2.207   5.593   3.493 -0.2111  0.1358  0.7183
 8497SOL    HW233754   2.153   5.663   3.530  0.5596  0.4973  1.1801
 8497SOL    HW333755   2.168   5.575   3.408  0.7174  2.4902 -0.2778
 8497SOL    MW433756   2.195   5.599   3.487  0.0131  0.4941  0.6478
 8498SOL     OW33757   5.137   5.002   3.920 -0.1035  0.1240 -0.5812
 8498SOL    HW233758   5.179   4.924   3.957 -0.3114  0.1169 -0.3555
 8498SOL    HW333759   5.050   4.971   3.892 -0.4681  0.4289  0.1769
 8498SOL    MW433760   5.131   4.987   3.921 -0.1790  0.1633 -0.4514
 8499SOL     OW33761   5.352   1.489   5.953  0.6986 -0.4143 -0.2026
 8499SOL    HW233762   5.381   1.527   5.871  0.5996  0.7077  0.2692
 8499SOL    HW333763   5.414   1.521   6.018 -0.9615  1.2401  0.6664
 8499SOL    MW433764   5.364   1.498   5.951  0.4665 -0.0480 -0.0257
 8500SOL     OW33765   5.425   0.608   4.148  0.2728  0.2683  0.3445
 8500SOL    HW233766   5.387   0.572   4.068 -1.0494 -1.4125  1.6415
 8500SOL    HW333767   5.383   0.694   4.158 -2.0942 -0.8395  0.8367
 8500SOL    MW433768   5.414   0.615   4.139 -0.2139 -0.0997  0.5806
 8501SOL     OW33769   3.351   5.582   0.114  0.2105 -0.4604  0.2494
 8501SOL    HW233770   3.339   5.660   0.168  0.5517  0.7112 -1.2865
 8501SOL    HW333771   3.264   5.545   0.106  0.0367 -0.2260  0.9908
 8501SOL    MW433772   3.338   5.588   0.120  0.2326 -0.2749  0.1446
 8502SOL     OW33773   2.506   5.992   4.535 -0.6425 -0.0814  0.1374
 8502SOL    HW233774   2.530   6.064   4.476  0.0992 -0.5679 -0.1769
 8502SOL    HW333775   2.428   6.023   4.581 -1.1228  0.3953 -0.9537
 8502SOL    MW433776   2.499   6.006   4.533 -0.6080 -0.0827 -0.0480
 8503SOL     OW33777   2.183   2.120   2.651 -0.1046  0.4362 -0.1900
 8503SOL    HW233778   2.163   2.176   2.576  1.0197  0.4495 -0.5082
 8503SOL    HW333779   2.266   2.078   2.628 -0.1303 -0.1505  0.7243
 8503SOL    MW433780   2.192   2.122   2.638  0.0403  0.3606 -0.1113
 8504SOL     OW33781   1.232   0.268   4.552 -0.4079  0.2029  0.1600
 8504SOL    HW233782   1.151   0.219   4.570 -0.2181 -0.9458 -1.8872
 8504SOL    HW333783   1.302   0.210   4.581 -0.1917 -0.7420 -2.0632
 8504SOL    MW433784   1.230   0.254   4.559 -0.3543 -0.0733 -0.4034
 8505SOL     OW33785   2.654   5.027   0.360  0.2081  0.3001  0.9093
 8505SOL    HW233786   2.678   5.048   0.450  0.2736  0.9663  0.7451
 8505SOL    HW333787   2.559   5.031   0.358  0.2067  0.2802  0.9542
 8505SOL    MW433788   2.645   5.030   0.371  0.2166  0.3854  0.8936
 8506SOL     OW33789   0.721   2.505   1.656  0.1118  0.4104 -0.0639
 8506SOL    HW233790   0.770   2.518   1.736 -2.1314 -1.3451  1.7616
 8506SOL    HW333791   0.771   2.440   1.606  0.5930  0.0803  0.8427
 8506SOL    MW433792   0.734   2.498   1.660 -0.1207  0.1352  0.2966
 8507SOL     OW33793   4.421   2.504   3.875  0.0442 -0.0797  0.8345
 8507SOL    HW233794   4.345   2.546   3.913 -0.1652 -0.7264  1.1519
 8507SOL    HW333795   4.431   2.422   3.925  0.9069 -0.0326  0.7640
 8507SOL    MW433796   4.412   2.498   3.887  0.1304 -0.1588  0.8671
 8508SOL     OW33797   4.230   3.670   1.667 -0.2218 -0.1727 -0.1120
 8508SOL    HW233798   4.157   3.615   1.696 -0.0329 -0.0951  0.5157
 8508SOL    HW333799   4.296   3.661   1.735  0.2187  0.0390 -0.5053
 8508SOL    MW433800   4.229   3.662   1.680 -0.1388 -0.1345 -0.0811
 8509SOL     OW33801   6.289   1.323   5.593  0.5256  0.8034  0.7902
 8509SOL    HW233802   6.351   1.279   5.651 -1.0573 -2.4961  0.2279
 8509SOL    HW333803   6.319   1.300   5.505 -0.3428  0.8547  0.4743
 8509SOL    MW433804   6.301   1.314   5.589  0.2022  0.3748  0.6744
 8510SOL     OW33805   4.743   4.245   3.192  0.5003 -0.4789  1.0491
 8510SOL    HW233806   4.795   4.165   3.202 -0.4876 -1.7560 -2.4664
 8510SOL    HW333807   4.779   4.286   3.113 -2.7244 -0.6528 -0.6909
 8510SOL    MW433808   4.755   4.240   3.183 -0.0555 -0.6704  0.3557
 8511SOL     OW33809   0.786   4.886   4.378 -0.1315  0.0565 -0.1179
 8511SOL    HW233810   0.757   4.910   4.290 -0.1142  1.7987  0.2994
 8511SOL    HW333811   0.880   4.904   4.378 -0.2662  0.8245  0.4642
 8511SOL    MW433812   0.795   4.892   4.366 -0.1470  0.3877  0.0140
 8512SOL     OW33813   4.003   6.314   0.545 -0.1591 -0.0049  0.0642
 8512SOL    HW233814   4.097   6.304   0.528  0.0649 -2.0576  2.0517
 8512SOL    HW333815   3.992   6.289   0.636 -2.8022 -0.9063 -0.4055
 8512SOL    MW433816   4.014   6.309   0.555 -0.4783 -0.3947  0.2644
 8513SOL     OW33817   5.311   5.151   1.506  0.0565 -0.0591 -0.1990
 8513SOL    HW233818   5.373   5.162   1.434 -0.7952 -0.1777 -0.9587
 8513SOL    HW333819   5.364   5.166   1.585  0.9303  0.3877 -0.8479
 8513SOL    MW433820   5.326   5.155   1.507  0.0594 -0.0158 -0.3848
 8514SOL     OW33821   4.209   5.989   3.444  0.2379  0.3002  0.5165
 8514SOL    HW233822   4.166   6.056   3.392  0.9670 -0.9423 -1.8024
 8514SOL    HW333823   4.153   5.912   3.435  1.3139 -0.4479  0.0183
 8514SOL    MW433824   4.196   5.988   3.436  0.4761  0.0376  0.1448
 8515SOL     OW33825   1.763   6.169   2.489  0.2914 -0.0046 -0.0319
 8515SOL    HW233826   1.821   6.102   2.525  1.7221 -0.3749 -2.7419
 8515SOL    HW333827   1.778   6.246   2.543  2.2935 -0.5038  0.2182
 8515SOL    MW433828   1.773   6.170   2.501  0.7443 -0.1193 -0.3564
 8516SOL     OW33829   2.768   1.826   3.915  0.1973 -0.2191  0.2592
 8516SOL    HW233830   2.828   1.775   3.860 -0.2389  0.1703 -0.5954
 8516SOL    HW333831   2.698   1.852   3.856  0.0153  0.7175  0.8731
 8516SOL    MW433832   2.767   1.823   3.900  0.1158 -0.0442  0.2274
 8517SOL     OW33833   1.924   5.126   6.090  0.0137 -0.5679 -0.0803
 8517SOL    HW233834   1.915   5.209   6.043  2.0873 -0.9162 -1.2376
 8517SOL    HW333835   1.860   5.068   6.049 -0.5039  0.0742 -0.1941
 8517SOL    MW433836   1.914   5.129   6.079  0.2190 -0.5292 -0.2480
 8518SOL     OW33837   3.559   1.226   5.120 -0.2726  1.0228 -0.1821
 8518SOL    HW233838   3.494   1.252   5.054 -1.0004  0.0353  0.1297
 8518SOL    HW333839   3.561   1.300   5.181 -1.0440  1.1048 -0.2431
 8518SOL    MW433840   3.550   1.239   5.119 -0.4704  0.9033 -0.1490
 8519SOL     OW33841   2.449   1.178   4.527 -0.2951 -0.1696  0.0941
 8519SOL    HW233842   2.508   1.225   4.468 -0.9065  0.7405  0.1956
 8519SOL    HW333843   2.470   1.212   4.614  2.9082 -3.7785  1.0047
 8519SOL    MW433844   2.460   1.189   4.531  0.0469 -0.5257  0.2276
 8520SOL     OW33845   0.879   1.323   0.284 -0.4065 -0.2579 -0.4683
 8520SOL    HW233846   0.912   1.380   0.353  1.0633  0.8607 -2.0366
 8520SOL    HW333847   0.906   1.364   0.202  0.5455 -3.0607 -1.6894
 8520SOL    MW433848   0.887   1.336   0.282 -0.0870 -0.4801 -0.8363
 8521SOL     OW33849   5.187   6.396   1.511 -0.7072  0.6850 -0.3843
 8521SOL    HW233850   5.260   6.437   1.465 -0.6464 -1.7214 -2.5923
 8521SOL    HW333851   5.222   6.377   1.598  1.1130  0.1057 -1.2063
 8521SOL    MW433852   5.201   6.399   1.517 -0.4590  0.2911 -0.7840
 8522SOL     OW33853   6.122   2.299   3.840  0.4046  0.2443 -0.1019
 8522SOL    HW233854   6.172   2.305   3.921  2.5812 -0.5579 -1.3004
 8522SOL    HW333855   6.072   2.218   3.849 -0.8876  1.1259  1.1695
 8522SOL    MW433856   6.122   2.289   3.852  0.5213  0.2548 -0.0923
 8523SOL     OW33857   3.079   1.576   0.754  0.1474  0.7368  0.7545
 8523SOL    HW233858   3.010   1.515   0.779 -1.0852  1.8484  0.1506
 8523SOL    HW333859   3.121   1.534   0.679 -0.5116  0.5091  0.5094
 8523SOL    MW433860   3.076   1.562   0.747 -0.1022  0.8534  0.6425
 8524SOL     OW33861   1.515   4.598   1.724 -0.0531 -0.1412  0.4508
 8524SOL    HW233862   1.482   4.658   1.656  2.2747  1.2810  0.4935
 8524SOL    HW333863   1.484   4.636   1.806 -0.1138 -0.0216  0.3737
 8524SOL    MW433864   1.506   4.611   1.726  0.2460  0.0622  0.4463
 8525SOL     OW33865   2.044   4.821   4.920  0.2905 -0.7006  0.2944
 8525SOL    HW233866   2.070   4.729   4.926  2.7305 -0.0348  0.6974
 8525SOL    HW333867   2.106   4.860   4.858 -0.2494  0.8448  0.6708
 8525SOL    MW433868   2.055   4.814   4.912  0.5412 -0.4088  0.3972
 8526SOL     OW33869   2.057   3.293   6.185 -0.0356 -0.0592 -0.1825
 8526SOL    HW233870   1.990   3.270   6.121  0.0588 -0.2878 -0.1997
 8526SOL    HW333871   2.081   3.383   6.163 -0.9424  0.3200  0.3619
 8526SOL    MW433872   2.052   3.302   6.174 -0.1428 -0.0393 -0.1129
 8527SOL     OW33873   4.394   5.608   4.265  0.0014 -0.6558 -0.5969
 8527SOL    HW233874   4.333   5.565   4.325 -1.3413  1.4784 -0.3082
 8527SOL    HW333875   4.351   5.605   4.180 -0.6177  0.9377 -0.3774
 8527SOL    MW433876   4.380   5.602   4.262 -0.2574 -0.1640 -0.5299
 8528SOL     OW33877   4.218   5.842   5.745  0.7457  0.0925  0.3760
 8528SOL    HW233878   4.175   5.815   5.826 -1.6171 -0.6008 -1.0173
 8528SOL    HW333879   4.257   5.762   5.710 -2.0133 -0.6469 -1.2768
 8528SOL    MW433880   4.218   5.828   5.751  0.0699 -0.0965 -0.0259
 8529SOL     OW33881   2.569   4.230   0.165 -0.3242  0.2769 -0.6594
 8529SOL    HW233882   2.607   4.300   0.113  0.2320 -1.5369 -2.8491
 8529SOL    HW333883   2.475   4.239   0.153 -0.2342  0.4020 -1.3006
 8529SOL    MW433884   2.562   4.240   0.157 -0.2389  0.0541 -1.0329
 8530SOL     OW33885   0.106   2.232   0.587  0.2075 -0.2285  0.3817
 8530SOL    HW233886   0.066   2.310   0.547  0.5351  0.0113  0.5123
 8530SOL    HW333887   0.194   2.261   0.611  0.8110 -1.0182 -0.7670
 8530SOL    MW433888   0.112   2.246   0.585  0.3303 -0.3011  0.2474
 8531SOL     OW33889   4.739   6.392   2.460  0.4830  0.5188 -0.3391
 8531SOL    HW233890   4.790   6.450   2.516 -1.1569  1.2713  0.4299
 8531SOL    HW333891   4.739   6.435   2.375  1.2105  0.4498 -0.3796
 8531SOL    MW433892   4.746   6.406   2.456  0.3626  0.6090 -0.2429
 8532SOL     OW33893   5.271   1.434   3.438 -0.3719 -0.6346 -0.5628
 8532SOL    HW233894   5.346   1.388   3.476  0.6142  0.8824 -0.6153
 8532SOL    HW333895   5.249   1.502   3.502 -0.3139  0.3085 -1.5264
 8532SOL    MW433896   5.278   1.437   3.451 -0.2342 -0.3100 -0.6968
 8533SOL     OW33897   5.176   4.589   2.480 -0.1919  0.5418  0.4999
 8533SOL    HW233898   5.084   4.610   2.495 -0.7806 -0.8530 -0.8241
 8533SOL    HW333899   5.190   4.609   2.387  0.5241 -0.3060  0.4094
 8533SOL    MW433900   5.166   4.595   2.470 -0.1751  0.2459  0.3133
 8534SOL     OW33901   6.250   4.331   5.904 -0.3680 -0.4099  0.0749
 8534SOL    HW233902   6.250   4.411   5.956  0.2784  0.1571 -0.7678
 8534SOL    HW333903   6.159   4.302   5.904 -0.7047  0.6128 -0.0511
 8534SOL    MW433904   6.238   4.337   5.911 -0.3271 -0.2001 -0.0529
 8535SOL     OW33905   2.675   0.860   0.667  0.0466  0.3636  0.1129
 8535SOL    HW233906   2.598   0.862   0.611  0.9064  1.3111 -1.0727
 8535SOL    HW333907   2.640   0.870   0.756 -1.4774 -2.7671 -0.0109
 8535SOL    MW433908   2.661   0.862   0.672 -0.0410  0.0756 -0.0598
 8536SOL     OW33909   4.527   1.269   2.166 -0.2228  0.0670 -0.1843
 8536SOL    HW233910   4.437   1.274   2.198 -0.0427  2.2180  0.1645
 8536SOL    HW333911   4.540   1.353   2.121  1.0834 -0.8950 -1.6827
 8536SOL    MW433912   4.517   1.281   2.164 -0.0267  0.2239 -0.3360
 8537SOL     OW33913   3.291   5.659   3.323 -0.2366 -0.0935 -0.0882
 8537SOL    HW233914   3.268   5.673   3.415  0.2093  0.7315 -0.0951
 8537SOL    HW333915   3.297   5.564   3.315  1.1438 -0.1563  1.1066
 8537SOL    MW433916   3.289   5.648   3.334  0.0043  0.0071  0.0685
 8538SOL     OW33917   3.954   4.521   3.563 -0.1332 -0.4824 -0.3557
 8538SOL    HW233918   3.928   4.432   3.585 -0.4726 -0.6789 -1.5163
 8538SOL    HW333919   4.035   4.535   3.614  0.5800 -1.8690 -1.0494
 8538SOL    MW433920   3.962   4.511   3.573 -0.0839 -0.6913 -0.6004
 8539SOL     OW33921   3.152   0.250   4.757 -0.5635  0.5360  0.2790
 8539SOL    HW233922   3.082   0.304   4.720 -0.0073  1.1513  0.1114
 8539SOL    HW333923   3.140   0.165   4.716  0.9674  1.5740 -2.5733
 8539SOL    MW433924   3.141   0.246   4.747 -0.2882  0.7541 -0.1194
 8540SOL     OW33925   5.822   1.048   0.779  0.2422  0.0749 -0.2791
 8540SOL    HW233926   5.893   1.034   0.842 -0.8663  2.5852  1.7418
 8540SOL    HW333927   5.836   0.982   0.711  2.0481 -2.2659  2.1424
 8540SOL    MW433928   5.833   1.037   0.779  0.3342  0.0973  0.3070
 8541SOL     OW33929   0.702   5.304   6.275 -0.0776 -0.3304 -0.1464
 8541SOL    HW233930   0.664   5.349   6.351  0.8523  2.0887 -1.0256
 8541SOL    HW333931   0.661   5.218   6.276 -1.1604  0.1193  2.2750
 8541SOL    MW433932   0.692   5.299   6.285 -0.0978  0.0481  0.0571
 8542SOL     OW33933   6.100   5.055   1.455  0.2433 -0.4020 -0.2418
 8542SOL    HW233934   6.047   5.087   1.528 -0.5348  0.6339 -1.2241
 8542SOL    HW333935   6.078   4.962   1.449 -0.3300 -0.3094  0.3089
 8542SOL    MW433936   6.090   5.047   1.464  0.0650 -0.2531 -0.2987
 8543SOL     OW33937   2.582   1.337   4.348 -0.1972  0.0393  0.1166
 8543SOL    HW233938   2.672   1.312   4.329 -0.2068  1.4337 -2.1209
 8543SOL    HW333939   2.541   1.346   4.261 -1.2110  3.8603  0.8174
 8543SOL    MW433940   2.588   1.335   4.334 -0.3322  0.7274 -0.0862
 8544SOL     OW33941   2.367   5.886   4.159 -0.0495 -0.1462  0.0381
 8544SOL    HW233942   2.388   5.806   4.209  0.7044 -1.4991 -2.2794
 8544SOL    HW333943   2.448   5.907   4.113 -0.4215  1.6541  0.1243
 8544SOL    MW433944   2.381   5.878   4.160  0.0009 -0.0872 -0.2563
 8545SOL     OW33945   0.366   1.713   6.244 -0.4952 -0.0279  0.5209
 8545SOL    HW233946   0.365   1.681   6.154 -0.4382 -2.9387  1.4467
 8545SOL    HW333947   0.285   1.763   6.253 -0.1683  0.8907 -1.2939
 8545SOL    MW433948   0.355   1.715   6.233 -0.4446 -0.2907  0.4036
 8546SOL     OW33949   2.263   4.353   4.521 -0.3626  0.2209  0.2605
 8546SOL    HW233950   2.246   4.298   4.598  0.9685  0.5034  0.7887
 8546SOL    HW333951   2.245   4.442   4.550  0.7793  0.3959  0.4598
 8546SOL    MW433952   2.258   4.357   4.535 -0.0363  0.2813  0.3565
 8547SOL     OW33953   2.062   2.105   5.929 -0.2701 -0.0382 -0.5233
 8547SOL    HW233954   2.076   2.187   5.976 -1.9574  0.8300 -1.4604
 8547SOL    HW333955   2.034   2.043   5.997 -0.0203  0.4432  0.0276
 8547SOL    MW433956   2.060   2.108   5.945 -0.4597  0.1398 -0.5742
 8548SOL     OW33957   2.644   4.830   1.441 -0.3279 -0.2328  0.5730
 8548SOL    HW233958   2.689   4.846   1.359  0.0191 -0.5630  0.6964
 8548SOL    HW333959   2.714   4.807   1.503 -0.7486 -1.7831  0.5118
 8548SOL    MW433960   2.659   4.829   1.439 -0.3376 -0.4809  0.5812
 8549SOL     OW33961   1.814   4.809   1.190 -0.1661  0.2057  0.4266
 8549SOL    HW233962   1.889   4.776   1.141 -0.4015  0.5311 -0.1626
 8549SOL    HW333963   1.832   4.785   1.281  0.6308  0.2466  0.2860
 8549SOL    MW433964   1.827   4.802   1.196 -0.0920  0.2541  0.3303
 8550SOL     OW33965   5.958   4.766   5.432  0.7398  0.0769  0.7539
 8550SOL    HW233966   5.988   4.676   5.416  0.1352  0.1088 -0.7816
 8550SOL    HW333967   5.933   4.768   5.524 -0.6592 -1.7915  0.4762
 8550SOL    MW433968   5.959   4.754   5.442  0.4754 -0.1654  0.5147
 8551SOL     OW33969   2.798   1.717   1.554 -0.2688  0.4047 -0.3183
 8551SOL    HW233970   2.860   1.654   1.590 -1.0513  0.2517  0.7958
 8551SOL    HW333971   2.747   1.667   1.489  1.4231  0.7861 -2.0398
 8551SOL    MW433972   2.799   1.702   1.550 -0.1488  0.4348 -0.3984
 8552SOL     OW33973   3.481   0.582   3.348 -0.2179  0.0263 -0.9526
 8552SOL    HW233974   3.539   0.600   3.422 -2.9959 -0.5092  1.5751
 8552SOL    HW333975   3.445   0.667   3.324  0.4080  0.1498 -1.4866
 8552SOL    MW433976   3.484   0.595   3.355 -0.5019 -0.0281 -0.6896
 8553SOL     OW33977   0.103   3.784   1.965 -0.3402  0.0347  0.2803
 8553SOL    HW233978   0.053   3.863   1.986  1.7476  1.2309  1.1578
 8553SOL    HW333979   0.191   3.817   1.944  0.1629 -1.9555 -1.0151
 8553SOL    MW433980   0.108   3.799   1.965  0.0016 -0.0700  0.2251
 8554SOL     OW33981   4.100   3.181   2.906 -0.4664 -0.2900  0.0415
 8554SOL    HW233982   4.025   3.164   2.848 -1.1344 -1.7549  1.2605
 8554SOL    HW333983   4.063   3.181   2.994  0.6539  1.1210  0.5443
 8554SOL    MW433984   4.085   3.178   2.910 -0.4068 -0.2971  0.2686
 8555SOL     OW33985   0.036   1.816   2.601 -0.1888  0.1212 -0.9893
 8555SOL    HW233986   0.119   1.772   2.618 -0.1405 -0.2235 -2.0319
 8555SOL    HW333987   0.043   1.899   2.647  1.1008  0.4691 -1.7586
 8555SOL    MW433988   0.048   1.821   2.609 -0.0123  0.1216 -1.2283
 8556SOL     OW33989   1.530   1.382   2.229  0.5418 -0.3079  0.0687
 8556SOL    HW233990   1.473   1.307   2.213  0.6657 -0.9787  2.4272
 8556SOL    HW333991   1.483   1.435   2.293  1.3411  0.6161 -0.0790
 8556SOL    MW433992   1.516   1.379   2.235  0.6636 -0.2745  0.3604
 8557SOL     OW33993   4.556   4.327   4.542 -0.1931  0.1366  0.7623
 8557SOL    HW233994   4.469   4.293   4.522 -0.3864  0.4236  1.0958
 8557SOL    HW333995   4.540   4.418   4.569  0.0640 -0.1794  2.0640
 8557SOL    MW433996   4.542   4.335   4.543 -0.1847  0.1328  0.9780
 8558SOL     OW33997   4.873   5.101   3.426 -0.2867 -0.0724 -0.2974
 8558SOL    HW233998   4.942   5.064   3.371  1.4819  1.0209  1.0518
 8558SOL    HW333999   4.891   5.067   3.514 -1.0726  0.7486  0.2067
 8558SOL    MW434000   4.885   5.092   3.431 -0.1570  0.1802 -0.0529
 8559SOL     OW34001   3.018   2.086   0.909 -0.2710  0.7007  0.2789
 8559SOL    HW234002   2.931   2.056   0.937  0.6873 -1.3298  1.2938
 8559SOL    HW334003   3.079   2.038   0.965  1.5465  1.4393 -0.9770
 8559SOL    MW434004   3.015   2.076   0.920  0.0953  0.5303  0.2471
 8560SOL     OW34005   0.391   4.388   4.917 -0.4069 -0.4326  0.4620
 8560SOL    HW234006   0.321   4.452   4.906 -0.5612 -1.0660 -3.8648
 8560SOL    HW334007   0.346   4.304   4.923 -0.0867 -0.5289  1.6366
 8560SOL    MW434008   0.376   4.385   4.916 -0.3850 -0.5289  0.0461
 8561SOL     OW34009   2.836   0.675   5.452  0.0800  0.4395 -0.3093
 8561SOL    HW234010   2.886   0.737   5.400 -0.7024  0.1283 -1.4799
 8561SOL    HW334011   2.762   0.651   5.396  1.0548 -2.5854 -0.4927
 8561SOL    MW434012   2.833   0.680   5.438  0.1054 -0.0007 -0.4880
 8562SOL     OW34013   5.159   3.937   3.945  0.3263 -0.0670  0.4983
 8562SOL    HW234014   5.173   4.008   3.883 -1.3725 -1.4969 -1.6664
 8562SOL    HW334015   5.227   3.873   3.925  0.0412 -0.3371  0.3706
 8562SOL    MW434016   5.170   3.938   3.935  0.0645 -0.2913  0.1958
 8563SOL     OW34017   5.626   1.301   4.579  0.1903 -0.2665 -0.1429
 8563SOL    HW234018   5.642   1.395   4.573 -0.1439 -0.1211  1.0139
 8563SOL    HW334019   5.618   1.284   4.673  0.5449 -1.5055 -0.3213
 8563SOL    MW434020   5.627   1.311   4.590  0.1930 -0.4108 -0.0138
 8564SOL     OW34021   5.476   6.190   4.187  0.0987  0.7019 -0.3889
 8564SOL    HW234022   5.397   6.244   4.190 -1.0235 -0.8892 -0.1055
 8564SOL    HW334023   5.468   6.138   4.107 -0.5353 -1.4065  0.9506
 8564SOL    MW434024   5.465   6.190   4.177 -0.1330  0.2138 -0.1748
 8565SOL     OW34025   6.003   0.119   5.692 -0.1606  0.1888 -0.1340
 8565SOL    HW234026   6.044   0.034   5.677  0.2496  0.5608 -1.2544
 8565SOL    HW334027   5.972   0.147   5.606 -1.6775  0.4933  0.4813
 8565SOL    MW434028   6.005   0.112   5.679 -0.3066  0.2780 -0.2007
 8566SOL     OW34029   0.508   4.243   6.168 -0.0062  0.1060  0.5117
 8566SOL    HW234030   0.415   4.218   6.168 -0.8032  2.6944  1.4587
 8566SOL    HW334031   0.513   4.317   6.108  0.7827  1.8898  2.6415
 8566SOL    MW434032   0.496   4.249   6.160 -0.0072  0.6828  0.9176
 8567SOL     OW34033   2.120   5.137   5.310  0.1028  0.3419 -0.1408
 8567SOL    HW234034   2.097   5.224   5.340 -0.3808  0.1250  0.1331
 8567SOL    HW334035   2.107   5.140   5.215 -0.9273  0.2736 -0.0138
 8567SOL    MW434036   2.115   5.149   5.301 -0.0969  0.3042 -0.0879
 8568SOL     OW34037   4.400   5.334   3.134  0.2374  0.0892  0.0612
 8568SOL    HW234038   4.389   5.316   3.040  0.4356 -1.2939  0.2798
 8568SOL    HW334039   4.461   5.266   3.164 -0.1957  0.2259  1.2869
 8568SOL    MW434040   4.407   5.322   3.126  0.2064 -0.0752  0.2518
 8569SOL     OW34041   1.989   1.691   3.947  0.1139 -0.4024  0.2278
 8569SOL    HW234042   1.918   1.627   3.950 -0.9959  0.8503  1.2527
 8569SOL    HW334043   2.021   1.686   3.856 -0.3660 -1.9221  0.1089
 8569SOL    MW434044   1.984   1.682   3.935 -0.0958 -0.4376  0.3473
 8570SOL     OW34045   3.640   1.387   1.587 -0.2578 -0.2538 -0.4465
 8570SOL    HW234046   3.653   1.368   1.680 -2.0906  0.2106 -0.0555
 8570SOL    HW334047   3.650   1.302   1.544 -1.0850 -0.7846  0.3781
 8570SOL    MW434048   3.643   1.373   1.594 -0.6088 -0.2625 -0.2861
 8571SOL     OW34049   6.032   0.380   4.369  0.4127  0.0941 -0.3006
 8571SOL    HW234050   6.044   0.329   4.289 -0.9138  0.0836 -0.5047
 8571SOL    HW334051   6.050   0.317   4.440  1.0053 -0.0521 -0.5794
 8571SOL    MW434052   6.036   0.365   4.368  0.3158  0.0734 -0.3643
 8572SOL     OW34053   6.078   3.375   2.804  0.1634 -1.0059  0.1451
 8572SOL    HW234054   6.111   3.444   2.745 -0.4003 -2.0790 -1.4975
 8572SOL    HW334055   6.098   3.407   2.892 -1.0803  1.7915 -0.4927
 8572SOL    MW434056   6.085   3.388   2.808 -0.0751 -0.7784 -0.1557
 8573SOL     OW34057   1.104   4.831   2.176  0.0011 -0.0111  0.3983
 8573SOL    HW234058   1.188   4.876   2.182  0.2248 -0.1456 -1.1636
 8573SOL    HW334059   1.074   4.849   2.086 -0.4463 -1.9981  0.1126
 8573SOL    MW434060   1.111   4.839   2.165 -0.0284 -0.2910  0.1546
 8574SOL     OW34061   1.783   0.025   0.481 -0.4057  0.3787  0.3257
 8574SOL    HW234062   1.766  -0.030   0.405 -0.7556 -0.1674  0.7910
 8574SOL    HW334063   1.872   0.002   0.507 -1.1209 -1.2262  1.5176
 8574SOL    MW434064   1.793   0.015   0.474 -0.5462  0.0949  0.5443
 8575SOL     OW34065   1.558   5.957   4.227  0.9653  0.2703 -0.0445
 8575SOL    HW234066   1.622   5.977   4.296  1.1653  0.3011 -0.2377
 8575SOL    HW334067   1.609   5.957   4.146  0.6775  0.5233 -0.2284
 8575SOL    MW434068   1.573   5.960   4.226  0.9537  0.3077 -0.0943
 8576SOL     OW34069   2.344   0.912   2.934 -0.1949  0.0180  0.3460
 8576SOL    HW234070   2.382   1.000   2.937 -1.0529  0.4095  0.2716
 8576SOL    HW334071   2.252   0.926   2.957 -0.5437 -0.7466 -0.5374
 8576SOL    MW434072   2.337   0.926   2.938 -0.3541 -0.0312  0.2197
 8577SOL     OW34073   2.172   1.470   0.121  0.7184 -0.1257  0.5472
 8577SOL    HW234074   2.189   1.513   0.205  0.6578 -1.1637  1.0966
 8577SOL    HW334075   2.084   1.433   0.130  0.2610  0.6786 -0.3749
 8577SOL    MW434076   2.163   1.471   0.133  0.6501 -0.1565  0.4981
 8578SOL     OW34077   1.092   0.507   3.522  0.2881 -0.1077  0.1440
 8578SOL    HW234078   1.014   0.458   3.547  0.2969 -0.2049 -0.0173
 8578SOL    HW334079   1.161   0.471   3.577  0.1648  0.1666  0.4821
 8578SOL    MW434080   1.091   0.496   3.533  0.2730 -0.0844  0.1673
 8579SOL     OW34081   3.938   2.274   6.252 -0.1172 -0.0138  0.3050
 8579SOL    HW234082   3.855   2.320   6.257 -1.4667 -2.3223  0.6140
 8579SOL    HW334083   3.914   2.181   6.248  2.4118 -0.7211 -0.7462
 8579SOL    MW434084   3.924   2.268   6.252  0.0384 -0.4117  0.2071
 8580SOL     OW34085   3.845   2.164   0.920  0.4720 -0.4461 -0.2350
 8580SOL    HW234086   3.783   2.200   0.984  2.2999  0.8354  0.8873
 8580SOL    HW334087   3.858   2.234   0.856 -0.2201 -1.2004 -1.2407
 8580SOL    MW434088   3.839   2.178   0.920  0.6218 -0.3766 -0.2197
 8581SOL     OW34089   0.747   0.598   3.569  0.1424 -0.1618 -0.0489
 8581SOL    HW234090   0.767   0.642   3.652 -1.3653  2.9682 -1.1915
 8581SOL    HW334091   0.653   0.610   3.558  0.1169 -1.4917 -1.7188
 8581SOL    MW434092   0.737   0.606   3.579 -0.0599  0.0757 -0.4200
 8582SOL     OW34093   2.289   2.211   2.030 -0.0596  0.3599  0.1567
 8582SOL    HW234094   2.347   2.194   1.956  0.1283 -1.2445  0.6309
 8582SOL    HW334095   2.251   2.125   2.051 -0.1968  0.7834  1.8236
 8582SOL    MW434096   2.292   2.197   2.023 -0.0529  0.2041  0.4392
 8583SOL     OW34097   1.223   5.773   1.663  0.2347  0.2230 -0.0924
 8583SOL    HW234098   1.233   5.695   1.609  1.9385 -0.1896  0.7556
 8583SOL    HW334099   1.143   5.814   1.631 -0.8631 -1.9955 -0.4066
 8583SOL    MW434100   1.213   5.768   1.652  0.3146 -0.1242 -0.0220
 8584SOL     OW34101   0.157   0.833   1.011  0.2517  0.7838 -0.0378
 8584SOL    HW234102   0.158   0.794   0.924 -1.6107 -1.7870  0.9643
 8584SOL    HW334103   0.242   0.810   1.049  0.3943  0.4279 -0.5705
 8584SOL    MW434104   0.168   0.825   1.005  0.0248  0.3976  0.0242
 8585SOL     OW34105   2.623   0.410   0.067 -0.3781  0.1661  0.0795
 8585SOL    HW234106   2.644   0.475   0.134  1.2372 -1.6154  1.4399
 8585SOL    HW334107   2.560   0.352   0.110  1.1465 -1.3521  0.3659
 8585SOL    MW434108   2.617   0.411   0.082  0.0362 -0.2693  0.2968
 8586SOL     OW34109   2.322   1.615   5.976 -1.0657 -0.5979  0.4715
 8586SOL    HW234110   2.363   1.684   6.029 -0.6747  0.2255 -0.8390
 8586SOL    HW334111   2.335   1.535   6.026  0.9787 -0.1543  0.7377
 8586SOL    MW434112   2.329   1.614   5.990 -0.7444 -0.4307  0.3337
 8587SOL     OW34113   1.399   2.347   6.244  0.7145 -0.2746  0.0948
 8587SOL    HW234114   1.337   2.286   6.283  2.2912 -1.0853  1.4679
 8587SOL    HW334115   1.410   2.416   6.309  1.5106 -0.3304  0.0302
 8587SOL    MW434116   1.392   2.348   6.258  1.0276 -0.3889  0.2675
 8588SOL     OW34117   1.663   2.597   0.751 -0.0022 -0.1533 -0.4517
 8588SOL    HW234118   1.728   2.646   0.800  1.1580 -2.0887  0.0713
 8588SOL    HW334119   1.633   2.657   0.683  0.5240  1.5966  0.7892
 8588SOL    MW434120   1.667   2.611   0.749  0.2203 -0.1778 -0.2190
 8589SOL     OW34121   4.988   0.657   5.944 -0.0487 -0.4490 -0.0358
 8589SOL    HW234122   4.928   0.588   5.973 -0.9334  0.7162  1.0327
 8589SOL    HW334123   5.019   0.628   5.858 -0.0232 -2.3809  0.5782
 8589SOL    MW434124   4.984   0.644   5.936 -0.1621 -0.5502  0.1861
 8590SOL     OW34125   6.364   3.701   4.857 -0.0582  0.0845  0.0082
 8590SOL    HW234126   6.434   3.660   4.909  0.6633 -0.8724 -1.6551
 8590SOL    HW334127   6.285   3.654   4.883  0.5435 -1.4565 -0.8459
 8590SOL    MW434128   6.363   3.689   4.868  0.1164 -0.2450 -0.3240
 8591SOL     OW34129   1.725   0.489   0.544 -0.1232  0.1868  0.4133
 8591SOL    HW234130   1.742   0.583   0.541  2.0000 -0.1537 -0.0059
 8591SOL    HW334131   1.661   0.474   0.475 -0.6550  1.3526  0.6372
 8591SOL    MW434132   1.719   0.500   0.534  0.0867  0.2957  0.3876
 8592SOL     OW34133   2.472   2.601   1.588 -0.5291 -0.6417 -0.1737
 8592SOL    HW234134   2.404   2.605   1.655  0.5599 -0.7066  0.9725
 8592SOL    HW334135   2.482   2.691   1.557  1.9935  0.3049  2.9459
 8592SOL    MW434136   2.465   2.613   1.592 -0.0526 -0.5254  0.3891
 8593SOL     OW34137   3.089   2.592   5.946 -0.2551  0.2133 -0.5302
 8593SOL    HW234138   3.002   2.618   5.975  0.1689  0.7487  0.2862
 8593SOL    HW334139   3.078   2.569   5.854 -1.8155 -2.3465  0.1876
 8593SOL    MW434140   3.076   2.592   5.938 -0.4050 -0.0538 -0.3278
 8594SOL     OW34141   5.269   3.288   5.709  0.1618 -0.4616  0.0663
 8594SOL    HW234142   5.277   3.228   5.784  0.2412  0.8493  1.1415
 8594SOL    HW334143   5.359   3.310   5.686  0.1196  0.3934  0.6570
 8594SOL    MW434144   5.282   3.283   5.716  0.1667 -0.1759  0.2861
 8595SOL     OW34145   0.206   4.224   2.463  0.4672  0.4738  0.0603
 8595SOL    HW234146   0.282   4.233   2.520  0.0465 -1.5881  1.0668
 8595SOL    HW334147   0.141   4.283   2.499  0.7068  0.2679  0.8524
 8595SOL    MW434148   0.208   4.233   2.475  0.4433  0.1746  0.2976
 8596SOL     OW34149   1.142   4.784   2.580  0.4046 -0.3755  0.2740
 8596SOL    HW234150   1.226   4.820   2.552  1.3535 -0.4399  2.7840
 8596SOL    HW334151   1.107   4.742   2.502  2.5231 -0.0370 -0.9397
 8596SOL    MW434152   1.148   4.784   2.566  0.8093 -0.3393  0.4450
 8597SOL     OW34153   2.694   0.728   2.010  0.3224 -0.2041 -0.2609
 8597SOL    HW234154   2.751   0.709   2.085  1.0969 -1.2800 -1.0812
 8597SOL    HW334155   2.620   0.669   2.020 -0.2507  0.6038  0.3593
 8597SOL    MW434156   2.692   0.718   2.021  0.3490 -0.2394 -0.2873
 8598SOL     OW34157   1.433   4.722   5.287  0.3319  0.0870 -0.8360
 8598SOL    HW234158   1.391   4.788   5.342 -0.8756 -0.8201 -0.6352
 8598SOL    HW334159   1.462   4.655   5.348 -1.0816 -0.9657 -1.2782
 8598SOL    MW434160   1.431   4.722   5.302 -0.0139 -0.1716 -0.8678
 8599SOL     OW34161   1.277   6.361   0.366  0.0275 -0.1316 -0.2737
 8599SOL    HW234162   1.309   6.289   0.312  0.8004  0.3125 -0.4321
 8599SOL    HW334163   1.356   6.403   0.399 -0.3698  1.1324 -0.8420
 8599SOL    MW434164   1.292   6.357   0.363  0.0771  0.0938 -0.3696
 8600SOL     OW34165   1.195   0.556   2.131  0.2360 -0.3827  0.2501
 8600SOL    HW234166   1.212   0.619   2.201  0.2449  0.6126 -0.6169
 8600SOL    HW334167   1.233   0.474   2.163  2.2908  0.5824  0.4851
 8600SOL    MW434168   1.203   0.554   2.144  0.5083 -0.1240  0.1667
 8601SOL     OW34169   2.919   0.788   4.998  0.5241  0.0571  0.2883
 8601SOL    HW234170   2.985   0.732   4.958  1.5543  0.3159  1.5677
 8601SOL    HW334171   2.952   0.805   5.086  0.4580  2.9905 -0.1518
 8601SOL    MW434172   2.932   0.783   5.004  0.6513  0.4783  0.3990
 8602SOL     OW34173   6.401   0.393   0.316 -0.3912  0.2751  0.0184
 8602SOL    HW234174   6.328   0.427   0.367 -0.8723  0.7668 -0.9536
 8602SOL    HW334175   6.366   0.315   0.272 -0.4110  0.6248 -0.6081
 8602SOL    MW434176   6.387   0.387   0.317 -0.4573  0.3861 -0.1925
 8603SOL     OW34177   4.969   1.678   4.966 -0.5303 -0.0287 -0.2321
 8603SOL    HW234178   5.024   1.697   4.890  1.0290 -2.6404  0.1324
 8603SOL    HW334179   5.019   1.613   5.016 -3.6368 -2.0674  0.4807
 8603SOL    MW434180   4.983   1.672   4.962 -0.7345 -0.6423 -0.0899
 8604SOL     OW34181   4.738   2.885   1.637  0.1012 -0.4785  0.5286
 8604SOL    HW234182   4.824   2.911   1.672 -0.1094  1.8293 -0.5033
 8604SOL    HW334183   4.750   2.885   1.542 -1.7917  3.3479  0.1083
 8604SOL    MW434184   4.751   2.889   1.629 -0.1763  0.3308  0.3370
 8605SOL     OW34185   4.379   6.051   6.327 -0.7007 -0.1965  0.3863
 8605SOL    HW234186   4.413   6.014   6.245 -1.5853 -0.6704  0.2066
 8605SOL    HW334187   4.340   6.134   6.301 -0.6456 -0.1685  0.3929
 8605SOL    MW434188   4.378   6.057   6.313 -0.8102 -0.2553  0.3635
 8606SOL     OW34189   3.599   4.053   5.238  0.4755  0.0019 -0.4992
 8606SOL    HW234190   3.668   4.116   5.261  1.9964 -1.2961 -1.2702
 8606SOL    HW334191   3.596   3.992   5.311 -0.2004  0.3144 -0.2600
 8606SOL    MW434192   3.608   4.053   5.250  0.5870 -0.1281 -0.5693
 8607SOL     OW34193   5.359   2.060   3.776 -0.0033 -0.5247 -0.0742
 8607SOL    HW234194   5.350   1.983   3.832 -1.7208 -0.5807 -0.3754
 8607SOL    HW334195   5.347   2.027   3.687 -2.4180  0.2625 -0.1128
 8607SOL    MW434196   5.357   2.046   3.772 -0.5485 -0.4282 -0.1190
 8608SOL     OW34197   1.090   1.163   3.910 -0.0183 -0.0169 -0.1472
 8608SOL    HW234198   1.127   1.242   3.951  0.7152  0.5628 -1.8360
 8608SOL    HW334199   1.151   1.093   3.931  0.1477  0.1901  0.0576
 8608SOL    MW434200   1.103   1.164   3.918  0.1004  0.0869 -0.3430
 8609SOL     OW34201   6.333   4.777   0.421 -0.0919  0.0988  0.1409
 8609SOL    HW234202   6.325   4.860   0.466  1.3596 -0.1830  0.9909
 8609SOL    HW334203   6.366   4.800   0.334  2.8005  0.3387  1.1781
 8609SOL    MW434204   6.336   4.791   0.415  0.4813  0.0933  0.3899
 8610SOL     OW34205   0.557   1.387   3.591  0.2624  0.4119 -0.0714
 8610SOL    HW234206   0.521   1.473   3.612 -0.5367  0.0392  0.1364
 8610SOL    HW334207   0.533   1.373   3.499 -1.6403 -0.5375  0.5193
 8610SOL    MW434208   0.549   1.396   3.582 -0.0940  0.2374  0.0340
 8611SOL     OW34209   6.091   1.852   5.131 -0.1807  0.0772 -0.5685
 8611SOL    HW234210   6.106   1.946   5.122  0.3407 -0.1449 -2.5680
 8611SOL    HW334211   6.157   1.812   5.074 -0.8059 -1.4752 -0.2478
 8611SOL    MW434212   6.102   1.859   5.122 -0.1944 -0.1569 -0.7900
 8612SOL     OW34213   1.557   0.509   6.121 -0.6434  0.3365 -0.0844
 8612SOL    HW234214   1.618   0.454   6.071 -0.3751  0.7684 -0.2310
 8612SOL    HW334215   1.611   0.553   6.186 -0.5324  1.8492 -1.1468
 8612SOL    MW434216   1.572   0.507   6.123 -0.5933  0.5931 -0.2439
 8613SOL     OW34217   3.445   5.931   1.353 -0.0253 -0.0886  0.5999
 8613SOL    HW234218   3.453   5.853   1.298 -0.1508  0.8113 -0.7444
 8613SOL    HW334219   3.536   5.951   1.378  0.1036 -0.1179  0.1620
 8613SOL    MW434220   3.458   5.923   1.349 -0.0248  0.0263  0.3647
 8614SOL     OW34221   1.296   5.377   5.104  0.3817  0.3330  0.0152
 8614SOL    HW234222   1.371   5.395   5.047  0.0543  0.2982 -0.4342
 8614SOL    HW334223   1.219   5.388   5.047 -0.0679  2.2929  0.9196
 8614SOL    MW434224   1.295   5.381   5.089  0.2792  0.5870  0.0752
 8615SOL     OW34225   0.897   1.214   5.703 -0.4099 -0.1271  0.2722
 8615SOL    HW234226   0.820   1.262   5.735 -0.7581 -1.4763  1.5585
 8615SOL    HW334227   0.969   1.245   5.758  0.5177  2.6903 -2.2678
 8615SOL    MW434228   0.896   1.224   5.714 -0.3335  0.0666  0.1068
 8616SOL     OW34229   5.285   0.848   4.084  0.2485 -0.1408 -0.1565
 8616SOL    HW234230   5.229   0.824   4.010  0.8018  0.4462 -0.7843
 8616SOL    HW334231   5.331   0.927   4.054 -1.7021  1.9054  1.9072
 8616SOL    MW434232   5.284   0.856   4.070  0.0642  0.2066  0.0329
 8617SOL     OW34233   5.088   0.921   5.591 -0.1019 -0.0054  0.1075
 8617SOL    HW234234   5.065   0.927   5.683  1.1874  1.7920  0.3580
 8617SOL    HW334235   5.028   0.855   5.556 -2.1419  0.8503  1.7485
 8617SOL    MW434236   5.077   0.913   5.598 -0.2010  0.3446  0.3571
 8618SOL     OW34237   4.343   3.777   2.289  0.5445 -0.2333 -0.2852
 8618SOL    HW234238   4.267   3.720   2.273 -0.2575  0.0319  2.1798
 8618SOL    HW334239   4.410   3.718   2.322  0.2918 -0.0169  0.6337
 8618SOL    MW434240   4.342   3.762   2.291  0.4053 -0.1697  0.1612
 8619SOL     OW34241   3.120   2.924   1.082  0.7056 -0.5127 -0.5962
 8619SOL    HW234242   3.125   2.836   1.043 -0.8814 -0.1450 -1.7314
 8619SOL    HW334243   3.200   2.968   1.052  0.4202 -0.8616 -1.9338
 8619SOL    MW434244   3.132   2.918   1.073  0.4586 -0.5102 -0.9224
 8620SOL     OW34245   4.903   4.845   4.001  0.3297 -0.3485 -0.2226
 8620SOL    HW234246   4.908   4.750   3.989  0.3433 -0.5004  0.8478
 8620SOL    HW334247   4.812   4.867   3.980  0.2167 -0.6682 -0.0806
 8620SOL    MW434248   4.891   4.835   3.997  0.3166 -0.4107 -0.0627
 8621SOL     OW34249   1.740   3.783   2.161  0.3997 -0.5397  0.4991
 8621SOL    HW234250   1.793   3.703   2.170  0.5969 -0.3405  1.1861
 8621SOL    HW334251   1.804   3.854   2.167 -0.0409 -0.2586  2.4449
 8621SOL    MW434252   1.756   3.782   2.163  0.3676 -0.4764  0.8465
 8622SOL     OW34253   5.410   2.752   2.773  0.1493  0.5579 -0.2538
 8622SOL    HW234254   5.413   2.816   2.702  0.8865 -2.0231 -2.7470
 8622SOL    HW334255   5.464   2.790   2.842  1.4596  2.1505 -2.0492
 8622SOL    MW434256   5.417   2.765   2.773  0.4194  0.4275 -0.8197
 8623SOL     OW34257   5.849   3.688   1.390 -0.4624 -0.0597 -0.3235
 8623SOL    HW234258   5.781   3.643   1.340 -0.3963 -0.1679 -0.3150
 8623SOL    HW334259   5.841   3.653   1.478 -0.7722  0.3425 -0.1863
 8623SOL    MW434260   5.839   3.677   1.395 -0.4946 -0.0209 -0.3043
 8624SOL     OW34261   4.997   5.932   5.356  0.0939  0.1704  0.0264
 8624SOL    HW234262   5.082   5.889   5.345 -1.5188 -3.2752 -0.0752
 8624SOL    HW334263   4.961   5.938   5.268 -0.9495 -1.1069  0.3420
 8624SOL    MW434264   5.003   5.927   5.343 -0.2566 -0.4527  0.0546
 8625SOL     OW34265   1.821   0.081   1.437 -0.1935 -0.0432 -0.1548
 8625SOL    HW234266   1.804   0.072   1.343  1.6117 -0.7200 -0.4574
 8625SOL    HW334267   1.910   0.114   1.442 -0.2501 -0.0577  1.3330
 8625SOL    MW434268   1.830   0.084   1.425  0.0372 -0.1344  0.0016
 8626SOL     OW34269   3.811   2.372   4.600  0.3559  0.4425  0.1437
 8626SOL    HW234270   3.838   2.411   4.516  2.1715  0.9716  0.9286
 8626SOL    HW334271   3.845   2.431   4.666  0.7056 -0.9946  1.3073
 8626SOL    MW434272   3.819   2.385   4.597  0.6416  0.3227  0.4008
 8627SOL     OW34273   5.852   3.455   4.474  0.1899  0.5921  0.4300
 8627SOL    HW234274   5.923   3.488   4.530  0.1435  0.5371  0.5216
 8627SOL    HW334275   5.835   3.367   4.507  0.1244  0.5807  0.3645
 8627SOL    MW434276   5.859   3.448   4.486  0.1752  0.5834  0.4335
 8628SOL     OW34277   3.593   6.392   0.613  0.0529  0.3408  0.4524
 8628SOL    HW234278   3.578   6.297   0.610  1.6697  0.0806 -1.4468
 8628SOL    HW334279   3.561   6.424   0.528 -0.4379  1.5260  1.0565
 8628SOL    MW434280   3.586   6.383   0.601  0.2015  0.4628  0.2815
 8629SOL     OW34281   5.276   2.928   5.114 -0.0810  0.0386  0.5781
 8629SOL    HW234282   5.273   3.024   5.121 -0.5195  0.3679 -2.5756
 8629SOL    HW334283   5.191   2.905   5.075  1.0677 -1.2665 -1.2793
 8629SOL    MW434284   5.264   2.938   5.109  0.0127 -0.0902 -0.0830
 8630SOL     OW34285   4.923   2.802   4.178 -0.3409  0.3399  0.9329
 8630SOL    HW234286   4.896   2.881   4.224  1.1686  0.7829  1.1121
 8630SOL    HW334287   5.018   2.810   4.169 -0.0895 -1.6048  1.2725
 8630SOL    MW434288   4.932   2.813   4.183 -0.1086  0.1418  1.0013
 8631SOL     OW34289   4.185   1.306   5.110  0.4759  0.5547 -0.5791
 8631SOL    HW234290   4.177   1.221   5.153 -1.1132  1.0431  0.1869
 8631SOL    HW334291   4.199   1.286   5.018  1.8621 -0.5219 -0.1557
 8631SOL    MW434292   4.185   1.292   5.104  0.4491  0.4771 -0.4222
 8632SOL     OW34293   5.781   1.085   2.606 -0.8799  0.8333  0.1460
 8632SOL    HW234294   5.779   1.049   2.695  1.8802  0.3577  0.0892
 8632SOL    HW334295   5.744   1.016   2.552 -0.1719  0.0583  0.6285
 8632SOL    MW434296   5.776   1.071   2.611 -0.4223  0.6683  0.2022
 8633SOL     OW34297   0.868   5.692   1.984 -0.7881  0.7373  0.1339
 8633SOL    HW234298   0.947   5.651   1.946 -0.8690 -0.0988  0.8495
 8633SOL    HW334299   0.885   5.786   1.977  0.3437  0.5702  0.4045
 8633SOL    MW434300   0.881   5.699   1.978 -0.6494  0.6049  0.2640
 8634SOL     OW34301   0.750   6.354   3.498 -0.2207 -0.1525 -0.5835
 8634SOL    HW234302   0.806   6.413   3.447  1.4558 -0.8920  0.3470
 8634SOL    HW334303   0.716   6.292   3.433 -1.5714  1.4450 -1.4800
 8634SOL    MW434304   0.753   6.353   3.483 -0.1777 -0.0393 -0.5790
 8635SOL     OW34305   2.063   1.955   1.660 -0.5539 -0.8998  0.3949
 8635SOL    HW234306   1.973   1.957   1.628 -0.8873 -2.2726  1.1562
 8635SOL    HW334307   2.056   1.976   1.753 -0.1025 -1.0927  0.4747
 8635SOL    MW434308   2.050   1.958   1.668 -0.5384 -1.1064  0.5059
 8636SOL     OW34309   2.553   2.184   5.914 -0.4954 -0.1985 -0.5711
 8636SOL    HW234310   2.494   2.114   5.939 -0.1715 -1.1813 -2.3258
 8636SOL    HW334311   2.498   2.247   5.868 -0.3767 -0.5878 -1.2608
 8636SOL    MW434312   2.538   2.183   5.911 -0.4370 -0.3795 -0.8936
 8637SOL     OW34313   0.180   4.838   3.885  0.7717 -0.0179  0.4581
 8637SOL    HW234314   0.255   4.791   3.849  1.9918  1.3177  1.1432
 8637SOL    HW334315   0.216   4.889   3.958 -0.3723  2.2058 -0.4195
 8637SOL    MW434316   0.194   4.839   3.890  0.7817  0.4517  0.4327
 8638SOL     OW34317   6.333   2.838   2.220  0.3015 -0.3205 -0.3243
 8638SOL    HW234318   6.410   2.794   2.184 -0.4093 -2.5652  0.7209
 8638SOL    HW334319   6.276   2.850   2.144  0.8777 -0.4111 -0.7881
 8638SOL    MW434320   6.336   2.834   2.205  0.2837 -0.6286 -0.2476
 8639SOL     OW34321   1.836   5.276   1.214  0.0822 -0.1010 -0.5265
 8639SOL    HW234322   1.878   5.207   1.162 -0.9585 -0.2060 -1.2540
 8639SOL    HW334323   1.832   5.240   1.302  0.3159 -0.6317 -0.7269
 8639SOL    MW434324   1.841   5.262   1.219 -0.0243 -0.1848 -0.6489
 8640SOL     OW34325   1.545   4.116   5.577 -0.4103 -0.1857 -0.0412
 8640SOL    HW234326   1.488   4.181   5.619 -1.2515 -0.9301 -0.0183
 8640SOL    HW334327   1.527   4.126   5.484 -0.3618 -0.2231 -0.0542
 8640SOL    MW434328   1.535   4.126   5.571 -0.5149 -0.2889 -0.0399
 8641SOL     OW34329   4.747   4.372   1.603 -0.0958  0.1809  0.0227
 8641SOL    HW234330   4.665   4.384   1.651  0.2323  1.9487  0.2090
 8641SOL    HW334331   4.721   4.328   1.522 -0.9990 -0.6139  0.7265
 8641SOL    MW434332   4.733   4.367   1.598 -0.1717  0.3092  0.1401
 8642SOL     OW34333   0.119   0.739   0.720  0.1183  0.0673  0.8871
 8642SOL    HW234334   0.065   0.807   0.679 -1.0373 -0.2526  1.7964
 8642SOL    HW334335   0.202   0.743   0.674 -0.6042  0.7423 -0.4261
 8642SOL    MW434336   0.123   0.749   0.709 -0.1295  0.1141  0.8338
 8643SOL     OW34337   4.074   4.088   1.776  0.7495 -0.1114 -0.2647
 8643SOL    HW234338   4.002   4.148   1.796 -0.0809 -1.8503  2.7154
 8643SOL    HW334339   4.043   4.039   1.699 -0.7885 -0.0687  0.2862
 8643SOL    MW434340   4.060   4.089   1.768  0.4371 -0.3352  0.2012
 8644SOL     OW34341   2.167   4.227   1.601 -0.2108  0.2947 -0.3151
 8644SOL    HW234342   2.081   4.219   1.641  0.1418  0.0230  0.4151
 8644SOL    HW334343   2.200   4.312   1.629 -0.3072  0.4750 -0.7376
 8644SOL    MW434344   2.160   4.237   1.610 -0.1770  0.2827 -0.2745
 8645SOL     OW34345   4.760   2.367   1.558 -0.2481 -0.1080 -0.0824
 8645SOL    HW234346   4.729   2.403   1.475  0.1231 -0.5548 -0.4277
 8645SOL    HW334347   4.710   2.286   1.569  1.3989 -1.3333 -1.1247
 8645SOL    MW434348   4.750   2.361   1.549  0.0182 -0.3286 -0.2655
 8646SOL     OW34349   0.354   5.893   5.750 -0.7010 -0.0527 -0.2842
 8646SOL    HW234350   0.397   5.968   5.790 -2.2707  0.1195  1.2125
 8646SOL    HW334351   0.296   5.931   5.684  0.3313 -0.1682 -1.2734
 8646SOL    MW434352   0.352   5.908   5.747 -0.7719 -0.0452 -0.2173
 8647SOL     OW34353   0.411   2.489   5.335  0.4661 -0.2549  0.0423
 8647SOL    HW234354   0.406   2.397   5.310  0.3348 -0.6477  1.4079
 8647SOL    HW334355   0.325   2.508   5.373  0.4410  0.4801 -0.3609
 8647SOL    MW434356   0.399   2.479   5.337  0.4455 -0.2097  0.1692
 8648SOL     OW34357   2.692   2.985   2.410  0.2994 -0.2564  0.5185
 8648SOL    HW234358   2.632   2.933   2.356  0.7492 -1.9414  1.5403
 8648SOL    HW334359   2.640   3.007   2.488  0.2024  0.5887  0.2173
 8648SOL    MW434360   2.677   2.981   2.413  0.3459 -0.3672  0.6136
 8649SOL     OW34361   3.895   4.993   0.730 -0.3433  0.2496  0.2575
 8649SOL    HW234362   3.969   4.953   0.685 -0.2360 -0.3948  0.9741
 8649SOL    HW334363   3.924   5.003   0.820 -0.8237  0.8034  0.3576
 8649SOL    MW434364   3.908   4.989   0.736 -0.3926  0.2376  0.3653
 8650SOL     OW34365   4.021   5.757   3.382 -0.5160 -0.6054 -0.5441
 8650SOL    HW234366   3.929   5.747   3.407 -1.0718  0.4646 -1.9947
 8650SOL    HW334367   4.033   5.695   3.310 -0.7369  0.6660 -1.7435
 8650SOL    MW434368   4.010   5.748   3.376 -0.6185 -0.2965 -0.8937
 8651SOL     OW34369   4.882   4.118   3.525  0.7028  0.1838  0.3712
 8651SOL    HW234370   4.830   4.045   3.492 -0.4717  1.4722 -0.7821
 8651SOL    HW334371   4.820   4.169   3.578  0.5739  2.0023 -1.3966
 8651SOL    MW434372   4.867   4.115   3.528  0.5308  0.5937 -0.0142
 8652SOL     OW34373   4.814   0.775   1.857  0.1811 -0.0343  0.1638
 8652SOL    HW234374   4.722   0.758   1.877 -0.2411 -0.4065 -1.7965
 8652SOL    HW334375   4.813   0.858   1.809  0.5129 -1.0995 -1.8274
 8652SOL    MW434376   4.802   0.784   1.853  0.1692 -0.2239 -0.3576
 8653SOL     OW34377   1.554   4.336   1.460  0.5256 -0.2203 -0.4556
 8653SOL    HW234378   1.585   4.379   1.539  0.7631  0.6817 -1.0145
 8653SOL    HW334379   1.568   4.401   1.391  0.0414 -0.8708 -1.1848
 8653SOL    MW434380   1.560   4.351   1.461  0.4930 -0.1871 -0.6256
 8654SOL     OW34381   1.637   2.771   2.031  0.0821  0.4590 -0.2956
 8654SOL    HW234382   1.573   2.825   1.984  0.0481  1.1538  0.5201
 8654SOL    HW334383   1.599   2.760   2.119  1.2470  1.2080  0.3222
 8654SOL    MW434384   1.623   2.777   2.036  0.2313  0.6495 -0.1064
 8655SOL     OW34385   4.120   1.662   4.836  0.7336  0.1721  0.0058
 8655SOL    HW234386   4.116   1.640   4.929 -1.6502  0.2086 -0.0269
 8655SOL    HW334387   4.211   1.643   4.810  1.3308 -0.2115  2.2222
 8655SOL    MW434388   4.132   1.656   4.845  0.4979  0.1263  0.2939
 8656SOL     OW34389   3.415   0.067   0.789  0.2895  0.6799  0.7373
 8656SOL    HW234390   3.479   0.018   0.737 -2.2311 -0.6470 -1.3277
 8656SOL    HW334391   3.440   0.159   0.778 -0.2271  0.4982 -3.1640
 8656SOL    MW434392   3.427   0.073   0.781 -0.1112  0.4809 -0.0499
 8657SOL     OW34393   5.811   1.879   5.221  0.2458  0.6634  0.4230
 8657SOL    HW234394   5.756   1.834   5.157  0.1219  2.2354 -0.6409
 8657SOL    HW334395   5.897   1.838   5.212 -0.2938 -0.6026  0.8246
 8657SOL    MW434396   5.815   1.868   5.211  0.1582  0.7038  0.3356
 8658SOL     OW34397   2.968   2.263   1.830 -0.2652 -0.1138  0.5438
 8658SOL    HW234398   3.052   2.238   1.792 -0.1085 -0.2581  0.9742
 8658SOL    HW334399   2.991   2.319   1.904 -0.4266 -1.7064  1.8856
 8658SOL    MW434400   2.982   2.267   1.835 -0.2658 -0.3429  0.7776
 8659SOL     OW34401   4.052   0.816   0.816 -0.0717 -0.1044  0.4910
 8659SOL    HW234402   3.996   0.893   0.811  0.1898  0.0543 -0.1849
 8659SOL    HW334403   4.001   0.752   0.866 -0.4104  0.4061  0.7982
 8659SOL    MW434404   4.038   0.817   0.822 -0.0818 -0.0161  0.4424
 8660SOL     OW34405   3.102   4.855   0.314  0.0689 -0.3639  0.4582
 8660SOL    HW234406   3.033   4.819   0.258  1.3575 -1.8361 -0.2273
 8660SOL    HW334407   3.130   4.935   0.269  2.4843 -2.5278 -2.2324
 8660SOL    MW434408   3.096   4.861   0.301  0.5576 -0.8436  0.0128
 8661SOL     OW34409   5.329   5.213   1.837  0.2821 -0.0089 -0.0949
 8661SOL    HW234410   5.329   5.277   1.909 -0.0628 -1.3938  1.1799
 8661SOL    HW334411   5.353   5.130   1.878  0.0208 -0.8616 -1.5807
 8661SOL    MW434412   5.332   5.211   1.852  0.2021 -0.3041 -0.1228
 8662SOL     OW34413   0.693   1.047   2.043  0.0798 -0.7150  0.0374
 8662SOL    HW234414   0.599   1.027   2.038 -0.1187 -0.0869  0.8292
 8662SOL    HW334415   0.698   1.139   2.015  0.4636 -0.7578 -0.0276
 8662SOL    MW434416   0.681   1.057   2.039  0.1043 -0.6378  0.1333
 8663SOL     OW34417   5.104   0.030   2.810  0.6566  0.4719 -0.0987
 8663SOL    HW234418   5.064   0.080   2.738  1.8242  0.0586 -1.0763
 8663SOL    HW334419   5.046   0.044   2.884 -1.1130  0.1338 -1.3723
 8663SOL    MW434420   5.091   0.039   2.810  0.5771  0.3728 -0.3957
 8664SOL     OW34421   4.561   1.318   5.811 -0.3091 -0.1484 -0.0005
 8664SOL    HW234422   4.546   1.288   5.721 -1.3579  1.8230 -0.5350
 8664SOL    HW334423   4.566   1.237   5.863 -0.9175 -1.2849 -1.6334
 8664SOL    MW434424   4.560   1.303   5.806 -0.5277 -0.0382 -0.2865
 8665SOL     OW34425   5.729   0.641   2.218  0.2398  0.2705  0.2804
 8665SOL    HW234426   5.666   0.712   2.215  1.2261  1.1944 -3.2097
 8665SOL    HW334427   5.676   0.562   2.231 -1.6105  1.0894 -1.7017
 8665SOL    MW434428   5.714   0.640   2.219  0.1258  0.5004 -0.4416
 8666SOL     OW34429   0.707   2.013   3.861  0.1953 -0.1152  0.4044
 8666SOL    HW234430   0.727   2.101   3.828  0.1344 -0.0014  0.6639
 8666SOL    HW334431   0.730   1.954   3.789  0.3425  0.1053  0.2694
 8666SOL    MW434432   0.713   2.017   3.847  0.2067 -0.0711  0.4208
 8667SOL     OW34433   6.277   4.572   5.066  0.5706 -0.0202  0.1755
 8667SOL    HW234434   6.334   4.608   4.999  0.8305 -3.5008 -1.7119
 8667SOL    HW334435   6.189   4.595   5.038  0.7661  0.0347 -0.3979
 8667SOL    MW434436   6.273   4.580   5.054  0.6307 -0.4722 -0.1491
 8668SOL     OW34437   4.408   3.741   6.217 -0.3005  0.1168 -0.1441
 8668SOL    HW234438   4.433   3.773   6.130 -1.0455 -0.9318 -0.7712
 8668SOL    HW334439   4.353   3.665   6.199  0.0573 -0.5057  1.2619
 8668SOL    MW434440   4.404   3.735   6.203 -0.3516 -0.1037 -0.0414
 8669SOL     OW34441   2.353   1.770   1.438  0.2289 -0.4054  0.1773
 8669SOL    HW234442   2.381   1.743   1.525  0.2980 -1.3182 -0.1087
 8669SOL    HW334443   2.295   1.844   1.453  0.4023 -0.4249  0.9846
 8669SOL    MW434444   2.349   1.776   1.451  0.2609 -0.5284  0.2461
 8670SOL     OW34445   1.961   4.112   3.781  0.0910 -0.2422  0.3638
 8670SOL    HW234446   1.895   4.153   3.725 -0.7004 -1.0351  0.6825
 8670SOL    HW334447   1.991   4.037   3.730 -0.5807 -0.9263  0.9530
 8670SOL    MW434448   1.956   4.107   3.767 -0.1021 -0.4371  0.4836
 8671SOL     OW34449   5.735   0.005   3.529  0.2397 -0.1352  0.3590
 8671SOL    HW234450   5.640   0.021   3.526 -0.0541 -1.0407  2.4991
 8671SOL    HW334451   5.743  -0.089   3.514  0.8320 -0.0427  0.0727
 8671SOL    MW434452   5.723  -0.005   3.527  0.2791 -0.2425  0.6036
 8672SOL     OW34453   5.101   3.472   3.523 -0.2701 -0.2557 -0.0365
 8672SOL    HW234454   5.053   3.468   3.605  1.9780  0.6255  1.4357
 8672SOL    HW334455   5.058   3.408   3.466 -1.4010 -1.5121  2.1112
 8672SOL    MW434456   5.089   3.463   3.526 -0.1227 -0.3052  0.4411
 8673SOL     OW34457  -0.001   6.219   6.084 -0.3141 -0.0872 -0.8001
 8673SOL    HW234458  -0.005   6.248   6.175 -0.1731  0.0113 -0.8257
 8673SOL    HW334459   0.062   6.278   6.043 -0.4594 -0.0607 -0.9864
 8673SOL    MW434460   0.007   6.231   6.091 -0.3147 -0.0707 -0.8281
 8674SOL     OW34461   3.229   3.880   1.307  0.1491 -0.1014 -0.0035
 8674SOL    HW234462   3.172   3.895   1.382  0.8354 -0.4994  0.6114
 8674SOL    HW334463   3.170   3.866   1.234 -0.5421 -0.4060  0.6059
 8674SOL    MW434464   3.214   3.880   1.307  0.1484 -0.1941  0.1580
 8675SOL     OW34465   1.670   4.398   2.625  0.0989  0.1633 -0.0168
 8675SOL    HW234466   1.683   4.492   2.614  1.8253 -0.1891 -1.2574
 8675SOL    HW334467   1.755   4.359   2.606 -0.9691 -1.7822 -1.0903
 8675SOL    MW434468   1.683   4.406   2.621  0.1857 -0.1399 -0.3221
 8676SOL     OW34469   4.159   3.034   0.522  0.1988  0.1305 -0.1980
 8676SOL    HW234470   4.069   3.033   0.490 -0.1151  0.3946  0.6481
 8676SOL    HW334471   4.201   3.105   0.474 -0.1736  0.3068 -0.2655
 8676SOL    MW434472   4.153   3.043   0.511  0.1082  0.1886 -0.0953
 8677SOL     OW34473   3.768   4.689   1.533 -0.1705  0.4442 -0.1768
 8677SOL    HW234474   3.791   4.749   1.604 -1.0308  0.7646 -0.1689
 8677SOL    HW334475   3.771   4.743   1.454  0.1725  0.2287 -0.3151
 8677SOL    MW434476   3.772   4.704   1.532 -0.2387  0.4581 -0.1940
 8678SOL     OW34477   2.125   2.714   2.464  0.7782 -0.0745  0.1090
 8678SOL    HW234478   2.101   2.803   2.490 -1.3888 -0.6260  0.1841
 8678SOL    HW334479   2.075   2.657   2.522  1.3321 -1.3446 -0.6093
 8678SOL    MW434480   2.115   2.718   2.475  0.5653 -0.3149  0.0241
 8679SOL     OW34481   2.730   0.021   3.173  0.0595  0.1451 -0.2745
 8679SOL    HW234482   2.735  -0.050   3.109  0.2365  1.5053 -1.8335
 8679SOL    HW334483   2.814   0.067   3.164 -1.0553  2.1034 -1.2038
 8679SOL    MW434484   2.742   0.018   3.163 -0.0643  0.5829 -0.6028
 8680SOL     OW34485   5.047   5.132   0.459 -0.1560  0.1486 -0.2070
 8680SOL    HW234486   4.992   5.088   0.394  1.0403 -0.3260 -0.9499
 8680SOL    HW334487   5.094   5.199   0.409  0.5780 -0.0421  0.2086
 8680SOL    MW434488   5.046   5.135   0.444  0.0987  0.0608 -0.2502
 8681SOL     OW34489   2.150   1.848   3.425  0.3408 -0.1923 -0.2500
 8681SOL    HW234490   2.242   1.860   3.402  0.6236  0.3082  1.0541
 8681SOL    HW334491   2.104   1.913   3.373  0.8699  0.3491 -0.0608
 8681SOL    MW434492   2.156   1.858   3.415  0.4479 -0.0548 -0.0530
 8682SOL     OW34493   1.872   4.593   1.965 -0.2097  0.5794 -0.1312
 8682SOL    HW234494   1.950   4.637   1.999  1.5846 -2.5927  0.2606
 8682SOL    HW334495   1.904   4.542   1.891 -1.4735 -2.0866  1.0164
 8682SOL    MW434496   1.887   4.592   1.960 -0.1397 -0.1908  0.0719
 8683SOL     OW34497   4.662   2.883   0.090 -0.2197 -0.2849  0.0466
 8683SOL    HW234498   4.581   2.866   0.042  0.0213  2.0591 -1.3384
 8683SOL    HW334499   4.643   2.853   0.179 -2.7098  0.3693 -0.1708
 8683SOL    MW434500   4.648   2.877   0.096 -0.5164  0.1107 -0.1648
 8684SOL     OW34501   3.252   3.875   3.491 -0.3556  0.3158  0.5475
 8684SOL    HW234502   3.307   3.945   3.526 -0.3946  0.3705  0.4994
 8684SOL    HW334503   3.217   3.910   3.409  0.2670 -0.0515  0.1120
 8684SOL    MW434504   3.255   3.889   3.484 -0.2786  0.2746  0.4837
 8685SOL     OW34505   4.538   2.962   5.072 -0.5930 -0.4666 -0.1797
 8685SOL    HW234506   4.452   2.993   5.098  0.8879  1.5952  2.9719
 8685SOL    HW334507   4.575   3.033   5.019  0.6648  0.7300  2.1552
 8685SOL    MW434508   4.532   2.975   5.068 -0.2316 -0.0367  0.5442
 8686SOL     OW34509   2.508   4.818   4.663  0.5084 -0.1622 -0.0380
 8686SOL    HW234510   2.419   4.841   4.691  0.3025 -1.7263  0.6555
 8686SOL    HW334511   2.498   4.792   4.571 -0.0608 -1.9194  0.4919
 8686SOL    MW434512   2.495   4.818   4.654  0.4061 -0.6004  0.1234
 8687SOL     OW34513   4.561   5.803   4.145 -0.1147  0.0893  0.3145
 8687SOL    HW234514   4.507   5.724   4.152 -0.1300 -0.2395 -2.3253
 8687SOL    HW334515   4.620   5.785   4.071  0.3830  2.2520  0.1064
 8687SOL    MW434516   4.562   5.790   4.136 -0.0510  0.3312 -0.0612
 8688SOL     OW34517   6.267   6.187   0.762 -0.2482 -0.8141  0.0760
 8688SOL    HW234518   6.295   6.179   0.854  1.7062  2.3199 -0.0992
 8688SOL    HW334519   6.194   6.248   0.764  1.7402  1.7704 -0.5668
 8688SOL    MW434520   6.261   6.194   0.775  0.2720 -0.0596 -0.0319
 8689SOL     OW34521   4.935   0.111   3.042  0.4781 -0.2682 -0.5790
 8689SOL    HW234522   4.963   0.064   3.120 -0.7076 -0.9938 -0.5621
 8689SOL    HW334523   4.842   0.090   3.034  1.1999 -2.9506 -4.0368
 8689SOL    MW434524   4.926   0.102   3.051  0.4169 -0.7178 -1.0330
 8690SOL     OW34525   1.334   4.453   2.268  0.4640 -0.2526 -0.6026
 8690SOL    HW234526   1.269   4.474   2.201 -1.5071 -2.5482  0.4338
 8690SOL    HW334527   1.408   4.417   2.220  0.4707  1.1388 -1.7117
 8690SOL    MW434528   1.335   4.451   2.253  0.2048 -0.3719 -0.6122
 8691SOL     OW34529   4.346   2.349   6.295  0.7335 -0.2251  0.2386
 8691SOL    HW234530   4.317   2.258   6.296 -3.2104  0.7404 -2.3027
 8691SOL    HW334531   4.344   2.376   6.387 -1.1102 -1.9084  0.7675
 8691SOL    MW434532   4.342   2.341   6.307 -0.0301 -0.3198 -0.0270
 8692SOL     OW34533   5.897   4.469   4.665 -0.1864  0.0246  0.1864
 8692SOL    HW234534   5.925   4.397   4.723  2.2174  0.7244  0.0128
 8692SOL    HW334535   5.827   4.513   4.714  0.0938 -0.8792  1.4647
 8692SOL    MW434536   5.892   4.465   4.679  0.1677 -0.0023  0.3321
 8693SOL     OW34537   2.578   4.034   0.475 -0.5895 -0.5309  0.6129
 8693SOL    HW234538   2.596   3.943   0.498  1.7344 -0.2102  0.3085
 8693SOL    HW334539   2.516   4.028   0.401 -1.9974 -1.7503  1.8182
 8693SOL    MW434540   2.572   4.021   0.468 -0.4687 -0.6495  0.7318
 8694SOL     OW34541   4.290   5.672   2.896 -0.2501 -0.0374  0.0789
 8694SOL    HW234542   4.363   5.681   2.834  1.0373  1.2848  1.7115
 8694SOL    HW334543   4.231   5.743   2.873 -0.5526 -0.4920 -0.5919
 8694SOL    MW434544   4.292   5.682   2.884 -0.1201  0.0771  0.2058
 8695SOL     OW34545   2.748   0.181   0.412 -0.2243 -0.3224  0.3378
 8695SOL    HW234546   2.771   0.272   0.394  0.7585 -1.0161 -2.5446
 8695SOL    HW334547   2.783   0.133   0.337  0.0045 -3.1997  2.1477
 8695SOL    MW434548   2.756   0.187   0.400 -0.0645 -0.7935  0.1963
 8696SOL     OW34549   2.879   2.066   6.037  0.0314  0.1296 -0.2117
 8696SOL    HW234550   2.842   2.151   6.013  0.7729  1.7432  3.6479
 8696SOL    HW334551   2.963   2.062   5.991 -0.9921  0.4002 -2.1786
 8696SOL    MW434552   2.886   2.076   6.028 -0.0058  0.3782  0.0380
 8697SOL     OW34553   1.870   1.278   3.145  0.2100 -0.1766 -0.4254
 8697SOL    HW234554   1.925   1.344   3.188  0.0917 -0.9908  1.0611
 8697SOL    HW334555   1.904   1.194   3.178 -0.8446 -0.7640 -0.7999
 8697SOL    MW434556   1.882   1.275   3.155  0.0553 -0.3615 -0.2787
 8698SOL     OW34557   1.555   4.585   0.199 -0.4350 -0.4067  0.1050
 8698SOL    HW234558   1.597   4.634   0.129 -0.7422  0.9978  0.8625
 8698SOL    HW334559   1.461   4.593   0.181 -0.5320  0.2917  0.8594
 8698SOL    MW434560   1.548   4.592   0.188 -0.4883 -0.1292  0.3045
 8699SOL     OW34561   2.738   5.077   0.862  0.3392 -0.3309 -0.0801
 8699SOL    HW234562   2.661   5.113   0.905  0.8028  0.2072  0.3136
 8699SOL    HW334563   2.722   5.090   0.769  0.4047  0.6988  0.0462
 8699SOL    MW434564   2.726   5.083   0.855  0.4090 -0.1241 -0.0115
 8700SOL     OW34565   2.434   2.450   4.641  0.9148  0.1091 -0.5436
 8700SOL    HW234566   2.444   2.358   4.668 -1.3515 -0.1743 -0.4127
 8700SOL    HW334567   2.384   2.445   4.559  0.3428  1.2124 -0.2791
 8700SOL    MW434568   2.428   2.437   4.634  0.5403  0.2173 -0.4914
 8701SOL     OW34569   0.789   2.029   2.249  0.0832 -0.5341  0.3210
 8701SOL    HW234570   0.807   1.952   2.302 -2.0599 -0.4045  1.3561
 8701SOL    HW334571   0.702   2.014   2.212  0.5149  0.4591 -1.2495
 8701SOL    MW434572   0.780   2.017   2.251 -0.1426 -0.3859  0.2504
 8702SOL     OW34573   5.718   2.119   5.861 -0.3202  0.4435  0.0082
 8702SOL    HW234574   5.691   2.140   5.772  0.5593 -1.0828 -0.6684
 8702SOL    HW334575   5.810   2.092   5.852 -0.9637 -2.4122  0.8794
 8702SOL    MW434576   5.727   2.118   5.848 -0.2891 -0.1346  0.0338
 8703SOL     OW34577   3.682   0.414   2.979  0.4573 -0.3542 -0.5339
 8703SOL    HW234578   3.602   0.467   2.971  0.0074 -1.0335 -0.6221
 8703SOL    HW334579   3.742   0.470   3.029  0.0108  0.2570 -0.6560
 8703SOL    MW434580   3.679   0.429   2.985  0.3390 -0.3632 -0.5616
 8704SOL     OW34581   4.108   5.203   2.523  0.3587  0.2514  0.0773
 8704SOL    HW234582   4.125   5.292   2.493  1.1188  0.3618  0.7884
 8704SOL    HW334583   4.030   5.211   2.578 -1.2087  0.0037 -1.9749
 8704SOL    MW434584   4.100   5.216   2.526  0.2521  0.2333 -0.0996
 8705SOL     OW34585   2.327   1.038   2.246  0.0575  0.3204 -0.1226
 8705SOL    HW234586   2.351   1.082   2.164  0.6114 -1.1891 -0.8210
 8705SOL    HW334587   2.259   0.976   2.220  0.8701 -0.8106  0.3556
 8705SOL    MW434588   2.322   1.035   2.232  0.2377 -0.0280 -0.1517
 8706SOL     OW34589   0.684   1.822   1.388  0.0843 -0.2642  0.6730
 8706SOL    HW234590   0.712   1.890   1.328 -1.2826 -1.7046 -1.7373
 8706SOL    HW334591   0.736   1.745   1.365  0.2225 -0.6061  2.0150
 8706SOL    MW434592   0.695   1.820   1.377 -0.0778 -0.4993  0.5320
 8707SOL     OW34593   3.845   5.687   5.770  0.2495 -0.2886 -0.3380
 8707SOL    HW234594   3.907   5.668   5.840  0.1556  1.2119  0.1934
 8707SOL    HW334595   3.766   5.639   5.793  0.3825 -0.1828  0.3462
 8707SOL    MW434596   3.842   5.678   5.782  0.2546 -0.0767 -0.1776
 8708SOL     OW34597   3.818   2.978   2.200  0.2971  0.2353  0.0730
 8708SOL    HW234598   3.895   2.926   2.223  1.1332  1.5895  0.5299
 8708SOL    HW334599   3.749   2.915   2.185  1.7464 -1.0880 -1.3338
 8708SOL    MW434600   3.819   2.963   2.201  0.5986  0.2394 -0.0523
 8709SOL     OW34601   4.390   1.630   4.829  0.4295  0.1178 -0.2734
 8709SOL    HW234602   4.447   1.689   4.879 -1.4062  0.4717  1.5499
 8709SOL    HW334603   4.447   1.556   4.805  1.8567  0.8676  0.6432
 8709SOL    MW434604   4.405   1.628   4.832  0.3756  0.2634  0.0881
 8710SOL     OW34605   1.120   6.294   2.351 -0.0108 -0.1639  0.0696
 8710SOL    HW234606   1.070   6.213   2.354  0.4500 -0.4801 -0.4145
 8710SOL    HW334607   1.119   6.327   2.441 -2.1746  0.5352 -0.1594
 8710SOL    MW434608   1.114   6.288   2.363 -0.2355 -0.1134 -0.0245
 8711SOL     OW34609   5.396   1.705   1.782 -0.2518 -0.1371 -0.3465
 8711SOL    HW234610   5.419   1.617   1.812  0.5433  0.1840  0.0157
 8711SOL    HW334611   5.475   1.757   1.797 -1.6897  1.4509  2.6201
 8711SOL    MW434612   5.409   1.700   1.788 -0.3366  0.1148  0.0927
 8712SOL     OW34613   3.011   5.497   2.628  0.3204  0.4620 -0.3113
 8712SOL    HW234614   2.964   5.541   2.698 -0.4139 -0.5524 -0.1391
 8712SOL    HW334615   2.946   5.488   2.558  0.8969  1.0116 -0.9266
 8712SOL    MW434616   2.996   5.501   2.628  0.2995  0.4007 -0.3698
 8713SOL     OW34617   2.965   0.838   3.822 -0.3194 -0.3251  0.2044
 8713SOL    HW234618   3.023   0.790   3.763  0.6112 -1.7771  2.1975
 8713SOL    HW334619   2.928   0.772   3.881 -0.6665  1.1027  1.6906
 8713SOL    MW434620   2.968   0.823   3.822 -0.2424 -0.3283  0.6634
 8714SOL     OW34621   2.323   0.114   2.225 -0.4425 -0.0038  0.3220
 8714SOL    HW234622   2.347   0.047   2.161  2.2503  0.9064  0.2443
 8714SOL    HW334623   2.319   0.195   2.174  0.7524  0.5675  1.0699
 8714SOL    MW434624   2.326   0.116   2.210  0.0704  0.1917  0.4104
 8715SOL     OW34625   1.649   3.523   4.789  0.0264 -0.1199  0.3893
 8715SOL    HW234626   1.618   3.437   4.759  2.2120 -1.2979  1.3071
 8715SOL    HW334627   1.698   3.557   4.714 -2.0141  1.0331 -0.4909
 8715SOL    MW434628   1.651   3.516   4.775  0.0456 -0.1232  0.3943
 8716SOL     OW34629   4.369   4.454   3.522 -0.0612 -0.3741  0.5099
 8716SOL    HW234630   4.355   4.361   3.504  1.1185 -0.2228 -1.4304
 8716SOL    HW334631   4.440   4.480   3.464 -0.8545  1.9368  0.4462
 8716SOL    MW434632   4.377   4.445   3.512 -0.0103 -0.0493  0.2455
 8717SOL     OW34633   4.354   2.867   1.869  0.4845  0.0041  0.2631
 8717SOL    HW234634   4.398   2.937   1.820 -0.5959  0.1931 -0.4663
 8717SOL    HW334635   4.425   2.824   1.918  1.3676  0.7340 -0.3342
 8717SOL    MW434636   4.369   2.871   1.869  0.4585  0.1253  0.0881
 8718SOL     OW34637   2.899   4.593   0.863 -0.3965 -0.1321  0.3846
 8718SOL    HW234638   2.859   4.674   0.894 -1.8421 -0.5298 -0.3757
 8718SOL    HW334639   2.924   4.612   0.772  0.0681 -0.2729  0.4767
 8718SOL    MW434640   2.897   4.606   0.855 -0.5259 -0.2032  0.2964
 8719SOL     OW34641   3.847   1.506   2.975 -0.8571 -0.1735  0.6686
 8719SOL    HW234642   3.823   1.440   2.910  0.0441 -2.1327  2.2461
 8719SOL    HW334643   3.931   1.478   3.009 -0.7598  1.4340  1.8879
 8719SOL    MW434644   3.855   1.494   2.971 -0.7254 -0.2199  1.0376
 8720SOL     OW34645   0.048   3.970   5.065 -0.4495 -0.2247 -0.3729
 8720SOL    HW234646   0.057   4.056   5.106  1.6167 -0.3681 -0.4423
 8720SOL    HW334647  -0.011   3.922   5.123 -0.1130  0.6144  0.6869
 8720SOL    MW434648   0.041   3.975   5.078 -0.1325 -0.1329 -0.2422
 8721SOL     OW34649   4.106   2.435   4.225  0.4917 -0.8079  0.1067
 8721SOL    HW234650   4.071   2.348   4.209 -1.0669 -0.1668 -0.2029
 8721SOL    HW334651   4.192   2.420   4.265  0.7811 -2.4605 -1.0360
 8721SOL    MW434652   4.113   2.422   4.228  0.3242 -0.9414 -0.0849
 8722SOL     OW34653   2.528   4.178   5.365 -0.4441 -0.8748 -0.1755
 8722SOL    HW234654   2.615   4.182   5.325 -0.8801  2.3042 -1.0568
 8722SOL    HW334655   2.542   4.212   5.454 -1.0494  2.0208 -1.0865
 8722SOL    MW434656   2.541   4.183   5.371 -0.5815 -0.0733 -0.4120
 8723SOL     OW34657   2.082   2.480   3.271  0.2632 -0.0536  0.2307
 8723SOL    HW234658   2.059   2.552   3.328  1.5121  0.4170  0.1724
 8723SOL    HW334659   2.065   2.512   3.183  0.3679 -0.0008  0.2298
 8723SOL    MW434660   2.077   2.493   3.267  0.4418  0.0154  0.2228
 8724SOL     OW34661   6.322   1.591   2.555  0.7247 -0.4507  0.7700
 8724SOL    HW234662   6.274   1.534   2.615  0.1168  0.2504  0.9845
 8724SOL    HW334663   6.387   1.635   2.610  1.3305 -1.0793  0.5646
 8724SOL    MW434664   6.324   1.590   2.571  0.7244 -0.4411  0.7712
 8725SOL     OW34665   2.464   1.475   5.785 -0.0337 -0.6342  0.3843
 8725SOL    HW234666   2.544   1.473   5.836 -0.3635 -1.1274  0.8921
 8725SOL    HW334667   2.396   1.502   5.847 -0.2768 -0.2730 -0.0272
 8725SOL    MW434668   2.466   1.479   5.800 -0.1093 -0.6516  0.3970
 8726SOL     OW34669   4.991   1.286   4.090 -0.0233  0.1740 -0.5395
 8726SOL    HW234670   5.076   1.272   4.049 -0.1298  0.1463 -0.7530
 8726SOL    HW334671   4.965   1.200   4.122 -0.4285 -0.0150 -1.3660
 8726SOL    MW434672   4.999   1.273   4.089 -0.0908  0.1454 -0.6768
 8727SOL     OW34673   4.054   6.322   5.580  1.1688 -0.2280 -0.3299
 8727SOL    HW234674   4.065   6.232   5.609  1.0244 -0.1138  0.0929
 8727SOL    HW334675   4.033   6.316   5.487  1.2564 -0.6228 -0.3231
 8727SOL    MW434676   4.053   6.309   5.571  1.1613 -0.2650 -0.2732
 8728SOL     OW34677   0.305   2.828   2.285 -0.6204  0.1794  0.8079
 8728SOL    HW234678   0.262   2.778   2.215  0.9463  1.9276 -1.5288
 8728SOL    HW334679   0.379   2.773   2.311 -0.5784 -0.0009  0.3230
 8728SOL    MW434680   0.309   2.814   2.279 -0.4081  0.3863  0.4356
 8729SOL     OW34681   4.087   4.034   2.228 -0.7012  0.2888 -0.4026
 8729SOL    HW234682   4.007   3.982   2.232 -1.2342  1.0519 -0.8220
 8729SOL    HW334683   4.145   3.994   2.293 -2.9827  2.2863  3.2007
 8729SOL    MW434684   4.085   4.022   2.237 -1.0726  0.6530  0.0175
 8730SOL     OW34685   2.064   2.260   4.636  0.5768  0.2876  0.2680
 8730SOL    HW234686   2.054   2.270   4.541  2.0081  0.0079  0.0612
 8730SOL    HW334687   1.996   2.315   4.673 -0.7601 -0.5028 -0.9243
 8730SOL    MW434688   2.054   2.268   4.628  0.5892  0.1465  0.0834
 8731SOL     OW34689   5.677   0.934   2.398  0.1777 -0.0204 -0.0451
 8731SOL    HW234690   5.608   0.999   2.410  0.8538  0.8330 -0.6285
 8731SOL    HW334691   5.660   0.868   2.465  0.9230  1.9883  2.2686
 8731SOL    MW434692   5.666   0.934   2.408  0.3653  0.3573  0.1832
 8732SOL     OW34693   0.294   2.224   2.202 -0.9058 -0.0576 -0.0694
 8732SOL    HW234694   0.270   2.297   2.144 -0.6152  0.8913  0.9820
 8732SOL    HW334695   0.210   2.183   2.223 -1.1346  0.3375 -0.1925
 8732SOL    MW434696   0.280   2.228   2.197 -0.8977  0.1197  0.0531
 8733SOL     OW34697   1.285   2.625   5.359 -0.2153 -0.2314  0.7554
 8733SOL    HW234698   1.223   2.628   5.432  1.4231 -0.2600  2.1971
 8733SOL    HW334699   1.313   2.534   5.355  0.7664  0.0458  1.0354
 8733SOL    MW434700   1.280   2.613   5.368  0.1304 -0.1986  0.9826
 8734SOL     OW34701   1.189   1.579   2.604  0.7234  0.1366  0.8617
 8734SOL    HW234702   1.158   1.509   2.661  2.4068  0.3997  2.2041
 8734SOL    HW334703   1.272   1.547   2.570  0.7032  0.8106  0.1619
 8734SOL    MW434704   1.196   1.566   2.607  0.9428  0.2602  0.9465
 8735SOL     OW34705   1.910   4.439   5.968  0.2863 -0.0803 -0.0543
 8735SOL    HW234706   1.976   4.425   6.035  0.1341  0.1459  0.1442
 8735SOL    HW334707   1.841   4.377   5.988  0.3359 -0.1615 -0.1306
 8735SOL    MW434708   1.910   4.429   5.979  0.2728 -0.0611 -0.0382
 8736SOL     OW34709   2.811   1.560   5.658  0.2844 -0.0013  0.7499
 8736SOL    HW234710   2.774   1.495   5.598 -0.6706 -0.3853  1.7275
 8736SOL    HW334711   2.793   1.644   5.616 -1.3999 -0.1980  0.9959
 8736SOL    MW434712   2.803   1.562   5.644 -0.0638 -0.0779  0.9114
 8737SOL     OW34713   0.875   1.528   5.802 -0.1794  0.1878  0.4808
 8737SOL    HW234714   0.791   1.553   5.764 -0.2385 -0.0432  0.4602
 8737SOL    HW334715   0.934   1.522   5.727  0.0103  0.9644  0.5597
 8737SOL    MW434716   0.872   1.530   5.787 -0.1622  0.2598  0.4885
 8738SOL     OW34717   0.757   3.604   0.168  0.5410 -0.3485 -0.0965
 8738SOL    HW234718   0.741   3.687   0.213  2.5181 -0.5962  1.1779
 8738SOL    HW334719   0.772   3.541   0.238  2.1242 -1.0904 -1.0627
 8738SOL    MW434720   0.757   3.607   0.183  1.0108 -0.4791 -0.0558
 8739SOL     OW34721   5.326   3.504   5.963  0.0158  0.3791  0.3596
 8739SOL    HW234722   5.333   3.528   5.870  2.9150 -2.0157 -0.1907
 8739SOL    HW334723   5.234   3.479   5.974 -0.1349 -0.6565 -2.3189
 8739SOL    MW434724   5.315   3.504   5.952  0.3784 -0.0735 -0.0664
 8740SOL     OW34725   5.828   3.318   4.815 -0.7268 -1.0749  0.2842
 8740SOL    HW234726   5.771   3.283   4.746  0.1614 -0.1404 -0.9719
 8740SOL    HW334727   5.805   3.411   4.819  0.1095 -0.8678  0.3616
 8740SOL    MW434728   5.818   3.325   4.806 -0.4993 -0.9243  0.1287
 8741SOL     OW34729   1.635   2.192   0.676  0.3665  0.0772  0.5762
 8741SOL    HW234730   1.691   2.270   0.675 -0.3535  0.6037  0.8850
 8741SOL    HW334731   1.682   2.129   0.620  0.3946  1.1320 -0.6487
 8741SOL    MW434732   1.649   2.194   0.668  0.2752  0.2858  0.4554
 8742SOL     OW34733   0.868   6.297   2.720  1.1787  0.2146 -0.1400
 8742SOL    HW234734   0.940   6.346   2.680  1.0331  0.9797  0.5099
 8742SOL    HW334735   0.911   6.234   2.778  1.3309  1.2162  0.8727
 8742SOL    MW434736   0.883   6.295   2.722  1.1796  0.4477  0.0793
 8743SOL     OW34737   2.226   4.225   5.664 -0.5215 -0.4082 -0.5838
 8743SOL    HW234738   2.215   4.268   5.749 -1.3016  1.5570 -1.6086
 8743SOL    HW334739   2.320   4.212   5.655 -0.4905 -1.3039  0.8775
 8743SOL    MW434740   2.237   4.229   5.674 -0.6203 -0.2671 -0.5262
 8744SOL     OW34741   5.505   2.595   0.597  0.3686 -0.9020 -0.6185
 8744SOL    HW234742   5.433   2.562   0.542 -0.1555 -1.0835  0.1547
 8744SOL    HW334743   5.467   2.668   0.645  1.0564 -0.2268 -1.0930
 8744SOL    MW434744   5.490   2.600   0.596  0.3902 -0.8369 -0.5791
 8745SOL     OW34745   3.956   4.832   1.976  0.3791 -0.4027 -0.0836
 8745SOL    HW234746   3.940   4.927   1.976 -0.5062 -0.4626 -2.8677
 8745SOL    HW334747   3.914   4.801   2.056 -2.1235  1.1923 -0.6517
 8745SOL    MW434748   3.949   4.841   1.986 -0.0679 -0.2002 -0.5259
 8746SOL     OW34749   5.414   2.117   1.797  0.3605  0.0529  0.9450
 8746SOL    HW234750   5.483   2.181   1.811  1.4560 -0.4798 -1.4714
 8746SOL    HW334751   5.373   2.143   1.714 -0.4954 -1.2169  0.9312
 8746SOL    MW434752   5.418   2.128   1.788  0.3921 -0.1849  0.6244
 8747SOL     OW34753   1.923   3.605   2.436  0.2015  0.5547  0.0394
 8747SOL    HW234754   1.897   3.665   2.506 -0.0522 -0.5159  0.8872
 8747SOL    HW334755   1.841   3.582   2.391 -0.1160 -1.1671  1.3799
 8747SOL    MW434756   1.909   3.610   2.439  0.1261  0.1863  0.3281
 8748SOL     OW34757   3.075   3.835   1.068 -0.0285  0.4135  0.0972
 8748SOL    HW234758   3.088   3.740   1.063 -2.1085  0.1022 -0.6910
 8748SOL    HW334759   3.100   3.867   0.982  2.9964  1.0030  1.0890
 8748SOL    MW434760   3.080   3.827   1.056  0.0962  0.4502  0.1241
 8749SOL     OW34761   2.091   0.889   5.663  0.3716  0.3801 -0.5072
 8749SOL    HW234762   2.162   0.832   5.691 -1.0898 -1.3377 -0.1251
 8749SOL    HW334763   2.069   0.941   5.740 -1.1287 -1.6734  0.5571
 8749SOL    MW434764   2.097   0.889   5.677 -0.0191 -0.1175 -0.3164
 8750SOL     OW34765   6.249   4.947   1.078 -0.3826 -0.3437  0.2234
 8750SOL    HW234766   6.317   4.894   1.036  0.3082  1.6795 -1.3782
 8750SOL    HW334767   6.173   4.939   1.021  0.0274  1.0679 -0.5723
 8750SOL    MW434768   6.248   4.939   1.065 -0.2374  0.1095 -0.0929
 8751SOL     OW34769   6.384   5.560   0.861 -0.2466  0.3946  0.1105
 8751SOL    HW234770   6.419   5.588   0.946 -0.1321  1.1512 -0.1796
 8751SOL    HW334771   6.344   5.639   0.824  1.0184  0.4580 -1.1934
 8751SOL    MW434772   6.383   5.574   0.867 -0.0646  0.5028 -0.0998
 8752SOL     OW34773   0.852   2.889   3.197  0.4035  0.2071  0.3878
 8752SOL    HW234774   0.815   2.948   3.132  1.5678 -2.0963 -2.5908
 8752SOL    HW334775   0.776   2.850   3.240 -0.3885  1.9122  0.6241
 8752SOL    MW434776   0.837   2.891   3.194  0.4527  0.1281  0.0260
 8753SOL     OW34777   4.729   4.276   5.492  0.2195 -0.1526  0.7164
 8753SOL    HW234778   4.701   4.366   5.476  0.0224 -0.2550  0.4787
 8753SOL    HW334779   4.797   4.283   5.559  1.8802  0.3854 -0.9629
 8753SOL    MW434780   4.734   4.289   5.499  0.4126 -0.0951  0.4635
 8754SOL     OW34781   2.073   2.484   1.308 -0.9568 -0.3798  0.1058
 8754SOL    HW234782   2.075   2.521   1.396 -0.4782 -0.8597  0.2982
 8754SOL    HW334783   2.155   2.437   1.299  0.7712  2.6202 -1.8867
 8754SOL    MW434784   2.084   2.483   1.318 -0.6657 -0.0473 -0.1317
 8755SOL     OW34785   4.835   5.514   2.794  0.3139  0.3430 -0.1556
 8755SOL    HW234786   4.804   5.542   2.880  1.7370  0.5299  0.3240
 8755SOL    HW334787   4.760   5.470   2.755 -1.6385  3.5310 -0.3947
 8755SOL    MW434788   4.821   5.512   2.800  0.2441  0.7883 -0.1239
 8756SOL     OW34789   1.432   4.354   4.642 -0.0073  0.6545  0.1713
 8756SOL    HW234790   1.358   4.348   4.582 -0.0773  0.5441  0.2679
 8756SOL    HW334791   1.400   4.410   4.713 -0.6557 -0.9088  1.1683
 8756SOL    MW434792   1.418   4.361   4.644 -0.1021  0.4337  0.3156
 8757SOL     OW34793   1.943   3.963   2.469  0.3813 -0.1193 -0.3071
 8757SOL    HW234794   1.861   3.991   2.429 -0.4653 -1.6278  0.3058
 8757SOL    HW334795   1.988   4.045   2.491 -1.2651  0.7471 -0.0112
 8757SOL    MW434796   1.938   3.978   2.467  0.0524 -0.2040 -0.1872
 8758SOL     OW34797   2.185   1.054   5.408 -0.7116 -0.6644 -0.3684
 8758SOL    HW234798   2.154   1.013   5.488 -0.5608  1.3995  0.8321
 8758SOL    HW334799   2.105   1.087   5.366 -0.5836  1.2351  0.7415
 8758SOL    MW434800   2.170   1.053   5.413 -0.6748 -0.1415 -0.0636
 8759SOL     OW34801   4.850   3.649   4.371 -0.2846  0.0230 -0.2114
 8759SOL    HW234802   4.924   3.709   4.374 -0.7796  0.6014  0.5354
 8759SOL    HW334803   4.863   3.591   4.446 -0.8698  0.4678  0.2383
 8759SOL    MW434804   4.862   3.649   4.381 -0.4271  0.1580 -0.0536
 8760SOL     OW34805   0.428   2.639   3.761  0.4173  0.1894 -0.7560
 8760SOL    HW234806   0.426   2.612   3.669  1.8604  0.7774 -0.9848
 8760SOL    HW334807   0.370   2.715   3.765 -3.6865 -2.6464 -0.1121
 8760SOL    MW434808   0.420   2.645   3.749  0.0663 -0.1072 -0.7013
 8761SOL     OW34809   5.241   3.723   6.379 -0.3874  0.4510 -0.0642
 8761SOL    HW234810   5.167   3.680   6.422 -1.1392  2.6441  0.9933
 8761SOL    HW334811   5.294   3.758   6.450 -1.0555  3.2194 -0.8056
 8761SOL    MW434812   5.238   3.722   6.394 -0.5747  1.1056 -0.0225
 8762SOL     OW34813   0.574   5.112   4.790  0.7899 -0.3540  0.0815
 8762SOL    HW234814   0.611   5.134   4.705 -1.6078 -2.0440 -1.5389
 8762SOL    HW334815   0.566   5.016   4.788  2.1391 -0.6259  2.9199
 8762SOL    MW434816   0.578   5.102   4.779  0.6516 -0.6129  0.2422
 8763SOL     OW34817   4.840   3.023   4.342  0.0198  0.4051 -0.0638
 8763SOL    HW234818   4.872   2.979   4.421 -0.5206  0.5253  0.2248
 8763SOL    HW334819   4.916   3.071   4.310  0.5450 -0.5082 -0.2278
 8763SOL    MW434820   4.854   3.023   4.348  0.0178  0.3004 -0.0473
 8764SOL     OW34821   0.082   6.073   3.770 -0.3240 -0.0868 -0.4505
 8764SOL    HW234822   0.023   6.003   3.744 -0.7779  1.0933 -2.8100
 8764SOL    HW334823   0.025   6.138   3.811 -0.2528 -0.0349 -0.4330
 8764SOL    MW434824   0.066   6.072   3.772 -0.3745  0.0758 -0.7595
 8765SOL     OW34825   5.429   0.415   1.365 -0.0488 -0.4189 -0.0832
 8765SOL    HW234826   5.354   0.452   1.317 -0.1767 -1.2393 -0.5424
 8765SOL    HW334827   5.488   0.384   1.296 -0.4959 -2.1448  0.2524
 8765SOL    MW434828   5.427   0.415   1.349 -0.1247 -0.7549 -0.0995
 8766SOL     OW34829   3.589   1.312   0.077  0.6035  0.5042 -0.1306
 8766SOL    HW234830   3.659   1.249   0.094 -0.2754 -0.2342  0.8713
 8766SOL    HW334831   3.603   1.380   0.143  1.8007  1.6372 -1.4685
 8766SOL    MW434832   3.600   1.313   0.088  0.6455  0.5562 -0.1750
 8767SOL     OW34833   1.591   6.001   5.768  0.0859 -0.6317  0.2365
 8767SOL    HW234834   1.658   6.022   5.703 -0.6454  0.3289 -0.2299
 8767SOL    HW334835   1.597   5.906   5.779  2.7541 -0.3998  1.5687
 8767SOL    MW434836   1.600   5.991   5.761  0.3414 -0.4744  0.3507
 8768SOL     OW34837   5.180   1.965   3.092 -0.3885 -0.0653 -0.6405
 8768SOL    HW234838   5.233   1.987   3.168 -1.8795 -0.0204  0.4487
 8768SOL    HW334839   5.212   2.022   3.022  2.3968 -1.5530 -0.6925
 8768SOL    MW434840   5.191   1.976   3.093 -0.2178 -0.2556 -0.5037
 8769SOL     OW34841   2.997   3.148   0.345  0.0900  0.1581 -0.0385
 8769SOL    HW234842   2.922   3.206   0.358 -1.1735 -1.4185  0.0109
 8769SOL    HW334843   3.039   3.144   0.431  0.3546  1.2003 -0.1112
 8769SOL    MW434844   2.992   3.155   0.358 -0.0418  0.0876 -0.0416
 8770SOL     OW34845   0.577   0.760   0.231  0.2732  0.0902  1.1203
 8770SOL    HW234846   0.551   0.681   0.277  0.4382  0.8701  2.6380
 8770SOL    HW334847   0.632   0.808   0.294  2.5465  0.1146 -0.7181
 8770SOL    MW434848   0.581   0.756   0.245  0.5949  0.1963  1.0780
 8771SOL     OW34849   1.910   0.995   4.883 -0.0130  0.2375 -0.5094
 8771SOL    HW234850   1.947   0.963   4.801  0.7651 -0.1886 -0.0062
 8771SOL    HW334851   1.885   0.916   4.930 -2.2228  0.5283 -1.1093
 8771SOL    MW434852   1.912   0.981   4.878 -0.2019  0.2197 -0.5222
 8772SOL     OW34853   3.027   0.476   5.219  0.2769  0.0905 -0.1803
 8772SOL    HW234854   2.963   0.422   5.264  1.4237 -0.6145  0.6570
 8772SOL    HW334855   3.001   0.566   5.238  0.8601 -0.1782  2.1488
 8772SOL    MW434856   3.015   0.481   5.227  0.5051 -0.0380  0.2375
 8773SOL     OW34857   0.694   2.621   3.521  0.3034  0.1775 -0.5963
 8773SOL    HW234858   0.623   2.558   3.532  0.7560 -0.7197 -2.5237
 8773SOL    HW334859   0.744   2.615   3.603  0.3955 -2.0673 -0.7703
 8773SOL    MW434860   0.692   2.612   3.533  0.3753 -0.2370 -0.8736
 8774SOL     OW34861   5.911   4.171   3.858 -0.3369  0.1343  0.0785
 8774SOL    HW234862   5.893   4.102   3.922  2.2260  0.6642  1.5333
 8774SOL    HW334863   5.942   4.245   3.911  0.0556  1.2852 -1.6573
 8774SOL    MW434864   5.913   4.172   3.874  0.0530  0.3560  0.0414
 8775SOL     OW34865   5.670   5.075   3.679 -0.2126 -0.3055 -0.1349
 8775SOL    HW234866   5.607   5.140   3.648  0.3050  0.5431  0.5619
 8775SOL    HW334867   5.729   5.060   3.606 -0.4539 -0.1486 -0.3613
 8775SOL    MW434868   5.669   5.081   3.666 -0.1762 -0.1728 -0.0728
 8776SOL     OW34869   0.930   0.066   4.393  0.4318 -0.7989 -0.6511
 8776SOL    HW234870   0.915   0.152   4.355 -2.1336 -1.1308 -0.5857
 8776SOL    HW334871   0.963   0.084   4.481 -0.3264  0.1480 -0.5469
 8776SOL    MW434872   0.932   0.080   4.400 -0.0067 -0.7178 -0.6287
 8777SOL     OW34873   6.412   0.402   3.004 -0.3172  0.9640  0.1719
 8777SOL    HW234874   6.319   0.390   3.023 -0.6612  1.1251 -1.2785
 8777SOL    HW334875   6.420   0.494   2.981  0.0662  0.8140 -0.3300
 8777SOL    MW434876   6.401   0.412   3.003 -0.3120  0.9655 -0.0857
 8778SOL     OW34877   4.623   1.418   1.805  0.0315  0.1005  0.4873
 8778SOL    HW234878   4.573   1.336   1.801 -0.5349  0.4049  1.1036
 8778SOL    HW334879   4.606   1.452   1.893 -0.6209  1.4267 -0.1191
 8778SOL    MW434880   4.614   1.412   1.816 -0.1293  0.3157  0.4886
 8779SOL     OW34881   1.714   3.766   1.360 -0.0117  0.3148 -0.5591
 8779SOL    HW234882   1.738   3.849   1.319 -0.9884  0.4916 -0.7952
 8779SOL    HW334883   1.621   3.774   1.377  0.0579 -0.4066  0.2070
 8779SOL    MW434884   1.705   3.778   1.357 -0.1314  0.2429 -0.4892
 8780SOL     OW34885   0.202   5.218   0.887 -0.5604  0.8929 -0.7109
 8780SOL    HW234886   0.191   5.296   0.832 -2.1325  2.1807  1.3149
 8780SOL    HW334887   0.116   5.177   0.889  0.3150 -1.1988 -2.0319
 8780SOL    MW434888   0.189   5.223   0.880 -0.6523  0.7868 -0.6179
 8781SOL     OW34889   0.941   4.849   5.762 -0.0177 -0.6805 -0.0495
 8781SOL    HW234890   0.999   4.833   5.688  1.0239  0.2365  0.5349
 8781SOL    HW334891   0.867   4.896   5.725  0.4466 -0.3139 -0.5245
 8781SOL    MW434892   0.939   4.853   5.747  0.1810 -0.5111 -0.0351
 8782SOL     OW34893   3.035   0.236   2.319  0.3630  0.0304 -0.2875
 8782SOL    HW234894   3.020   0.181   2.242 -2.5332 -0.7157  0.6872
 8782SOL    HW334895   3.120   0.208   2.353  0.6837 -1.1539 -1.9593
 8782SOL    MW434896   3.045   0.225   2.313  0.0232 -0.2243 -0.3794
 8783SOL     OW34897   5.655   1.048   2.879  0.1387  0.3592  0.0580
 8783SOL    HW234898   5.612   1.133   2.874 -0.1232  0.3188  1.3532
 8783SOL    HW334899   5.623   1.009   2.960  0.3640 -0.9218 -0.4343
 8783SOL    MW434900   5.645   1.054   2.889  0.1339  0.1848  0.1639
 8784SOL     OW34901   2.516   4.296   5.613  0.4745  0.3616  0.1701
 8784SOL    HW234902   2.571   4.264   5.685 -1.4757  0.6376  1.8751
 8784SOL    HW334903   2.529   4.391   5.614  1.4647  0.2644 -0.7863
 8784SOL    MW434904   2.525   4.304   5.623  0.3478  0.3851  0.2689
 8785SOL     OW34905   0.533   1.364   6.217 -0.0701 -0.2628  0.1885
 8785SOL    HW234906   0.442   1.348   6.242  0.0508 -0.2397  0.6423
 8785SOL    HW334907   0.526   1.418   6.138 -0.4542 -0.8026 -0.1586
 8785SOL    MW434908   0.520   1.369   6.210 -0.1048 -0.3310  0.2026
 8786SOL     OW34909   3.549   0.469   6.120 -0.6693  0.0884 -0.8954
 8786SOL    HW234910   3.614   0.400   6.107 -0.0028 -0.4380  3.6865
 8786SOL    HW334911   3.474   0.440   6.067  1.6761 -0.7196 -4.1273
 8786SOL    MW434912   3.548   0.456   6.111 -0.2719 -0.0877 -0.7173
 8787SOL     OW34913   1.401   5.412   4.669  0.6051 -0.1078 -0.2013
 8787SOL    HW234914   1.366   5.323   4.658  1.1876 -0.3677 -0.0292
 8787SOL    HW334915   1.329   5.461   4.707  0.9142 -1.0516  1.7429
 8787SOL    MW434916   1.387   5.406   4.673  0.7227 -0.2666  0.0779
 8788SOL     OW34917   5.993   3.648   3.037 -0.3296  0.2871 -0.3118
 8788SOL    HW234918   5.977   3.557   3.061 -0.6009  0.4490  0.1229
 8788SOL    HW334919   5.942   3.700   3.100  0.3106  0.7574 -0.1721
 8788SOL    MW434920   5.984   3.643   3.048 -0.2809  0.3705 -0.2360
 8789SOL     OW34921   0.260   4.558   2.507  0.1164  0.0621  0.3345
 8789SOL    HW234922   0.221   4.616   2.442 -0.6831 -1.9984 -1.1185
 8789SOL    HW334923   0.334   4.608   2.542 -0.8787  2.1648 -0.3780
 8789SOL    MW434924   0.264   4.573   2.503 -0.1204  0.0676  0.0488
 8790SOL     OW34925   5.643   5.037   6.118 -0.1732  0.0467 -0.1637
 8790SOL    HW234926   5.711   4.999   6.063 -1.1776 -0.6153 -0.9788
 8790SOL    HW334927   5.664   5.005   6.206 -0.1188 -1.1719 -0.5901
 8790SOL    MW434928   5.655   5.028   6.123 -0.2985 -0.2014 -0.3275
 8791SOL     OW34929   1.592   4.439   0.847  0.0113 -0.1394 -0.0175
 8791SOL    HW234930   1.502   4.408   0.855 -0.0434  0.4060  1.8381
 8791SOL    HW334931   1.596   4.480   0.761 -0.8040 -2.3320 -1.1757
 8791SOL    MW434932   1.581   4.441   0.837 -0.1035 -0.3568  0.0745
 8792SOL     OW34933   6.039   4.537   3.521 -0.0456 -0.6056  0.1602
 8792SOL    HW234934   6.010   4.535   3.430  1.8722  0.7830 -0.5423
 8792SOL    HW334935   5.958   4.548   3.571 -0.9347  1.9312 -1.6157
 8792SOL    MW434936   6.024   4.538   3.516  0.0901 -0.0877 -0.1668
 8793SOL     OW34937   5.814   2.814   2.774  0.1043 -0.1492 -0.2551
 8793SOL    HW234938   5.752   2.814   2.847  0.8620  0.2353  0.4034
 8793SOL    HW334939   5.785   2.886   2.719 -0.3482 -0.3064 -0.2330
 8793SOL    MW434940   5.802   2.824   2.777  0.1446 -0.1192 -0.1653
 8794SOL     OW34941   2.896   5.427   3.847 -0.0129 -0.0468 -0.1619
 8794SOL    HW234942   2.979   5.387   3.819 -0.2308 -0.5835 -0.0545
 8794SOL    HW334943   2.854   5.359   3.899 -0.8923 -0.0685 -0.8854
 8794SOL    MW434944   2.902   5.413   3.850 -0.1577 -0.1205 -0.2432
 8795SOL     OW34945   4.964   0.694   3.128  0.0621 -0.6801  0.3669
 8795SOL    HW234946   4.959   0.690   3.032 -2.0900 -0.9083  0.4412
 8795SOL    HW334947   5.023   0.768   3.145  0.6452 -0.7559 -1.1096
 8795SOL    MW434948   4.972   0.703   3.118 -0.1449 -0.7202  0.1819
 8796SOL     OW34949   0.100   1.830   6.199  0.3295 -0.2596  0.3530
 8796SOL    HW234950   0.049   1.901   6.238 -0.0090 -1.0579  1.4083
 8796SOL    HW334951   0.062   1.750   6.236  0.4454 -1.0244 -1.1061
 8796SOL    MW434952   0.088   1.828   6.209  0.3001 -0.4658  0.2998
 8797SOL     OW34953   4.451   1.243   5.554 -0.5499 -0.5857 -0.2663
 8797SOL    HW234954   4.358   1.237   5.531 -0.2421  0.1011 -1.8881
 8797SOL    HW334955   4.496   1.241   5.469  0.9336 -1.1257  0.5060
 8797SOL    MW434956   4.445   1.242   5.540 -0.3135 -0.5663 -0.3783
 8798SOL     OW34957   3.656   5.033   0.958 -0.2958 -0.0537 -0.4560
 8798SOL    HW234958   3.712   5.101   0.921  0.4467 -1.4480 -2.0182
 8798SOL    HW334959   3.683   5.028   1.050  1.3159  0.1652 -0.8836
 8798SOL    MW434960   3.667   5.041   0.966  0.0148 -0.2088 -0.7185
 8799SOL     OW34961   0.695   2.312   2.062 -0.8592 -0.1106  0.5488
 8799SOL    HW234962   0.655   2.227   2.080 -0.3241 -0.5517 -0.2927
 8799SOL    HW334963   0.626   2.375   2.082 -2.2366 -0.8749 -1.4654
 8799SOL    MW434964   0.680   2.309   2.067 -0.9703 -0.2696  0.1720
 8800SOL     OW34965   2.040   2.975   6.298 -0.5398  0.4752  0.5738
 8800SOL    HW234966   1.964   3.031   6.282  0.0804  0.6578 -2.4044
 8800SOL    HW334967   2.109   3.036   6.326 -0.0486  1.2723 -2.0414
 8800SOL    MW434968   2.039   2.991   6.300 -0.3931  0.6045 -0.1642
 8801SOL     OW34969   2.283   0.340   2.035  0.4137 -0.6007 -0.0233
 8801SOL    HW234970   2.193   0.372   2.030  0.4537 -0.2881  0.9891
 8801SOL    HW334971   2.336   0.420   2.031  0.5859 -0.6725  0.7294
 8801SOL    MW434972   2.278   0.355   2.034  0.4417 -0.5689  0.2096
 8802SOL     OW34973   5.647   0.600   4.919 -0.6516  0.0521  0.4882
 8802SOL    HW234974   5.642   0.506   4.901  1.9947  0.2180 -1.8127
 8802SOL    HW334975   5.684   0.606   5.007 -1.0325 -1.0198  0.7392
 8802SOL    MW434976   5.651   0.589   4.928 -0.3527 -0.0674  0.2177
 8803SOL     OW34977   4.244   2.809   1.249  0.6018  0.2761 -0.1966
 8803SOL    HW234978   4.232   2.895   1.210  2.5871 -0.2292 -2.1319
 8803SOL    HW334979   4.191   2.750   1.194  1.1880 -0.0487 -0.4262
 8803SOL    MW434980   4.235   2.812   1.236  0.9411  0.1666 -0.4822
 8804SOL     OW34981   2.861   1.005   1.078  0.1543 -0.2501 -0.0805
 8804SOL    HW234982   2.934   0.944   1.067 -1.3298 -1.6989 -2.7975
 8804SOL    HW334983   2.871   1.068   1.007  0.2262  1.2251  1.1749
 8804SOL    MW434984   2.872   1.005   1.067 -0.0320 -0.2466 -0.2733
 8805SOL     OW34985   3.950   4.606   6.416 -0.3587  0.0373 -0.2605
 8805SOL    HW234986   3.947   4.681   6.357 -2.1558  1.6575  1.7260
 8805SOL    HW334987   4.031   4.618   6.466 -0.4999  0.5133 -0.1422
 8805SOL    MW434988   3.960   4.618   6.415 -0.6144  0.3139  0.0172
 8806SOL     OW34989   4.681   3.972   5.413 -0.1181 -0.6614  0.0155
 8806SOL    HW234990   4.762   4.009   5.449  1.0469 -0.5791 -2.5320
 8806SOL    HW334991   4.654   3.907   5.478  1.3442  0.0958  1.4679
 8806SOL    MW434992   4.688   3.968   5.426  0.2286 -0.5507 -0.1290
 8807SOL     OW34993   5.277   5.806   2.648 -0.2791  0.7084  0.2119
 8807SOL    HW234994   5.353   5.749   2.633  1.2030  2.1526  1.8203
 8807SOL    HW334995   5.240   5.820   2.561  1.0526 -0.3682 -0.5655
 8807SOL    MW434996   5.282   5.800   2.634  0.0921  0.7569  0.3216
 8808SOL     OW34997   5.332   4.851   1.180  0.1975 -0.4119  0.0045
 8808SOL    HW234998   5.325   4.871   1.273  0.1357 -1.6306  0.2747
 8808SOL    HW334999   5.260   4.791   1.162 -0.5919  0.8222 -1.1362
 8808SOL    MW435000   5.322   4.846   1.190  0.0852 -0.4099 -0.1104
 8809SOL     OW35001   1.567   4.478   4.441  0.2839 -0.0546  0.0471
 8809SOL    HW235002   1.512   4.436   4.507  0.8434 -0.2053  0.4301
 8809SOL    HW335003   1.527   4.455   4.357 -0.4570  0.1720  0.3327
 8809SOL    MW435004   1.555   4.470   4.438  0.2600 -0.0446  0.1353
 8810SOL     OW35005   1.253   4.946   6.363  0.2231 -0.3623  0.5519
 8810SOL    HW235006   1.201   4.865   6.370  0.1153 -0.5524 -1.8692
 8810SOL    HW335007   1.310   4.932   6.288  0.5933  1.6041  0.4209
 8810SOL    MW435008   1.253   4.933   6.354  0.2578 -0.1280  0.2152
 8811SOL     OW35009   5.052   4.531   5.510  0.2757  0.4973 -0.1830
 8811SOL    HW235010   5.087   4.471   5.444 -0.0703 -0.1408  0.1976
 8811SOL    HW335011   4.977   4.484   5.548 -0.0802  1.2225  0.0409
 8811SOL    MW435012   5.047   4.517   5.506  0.1831  0.5088 -0.1033
 8812SOL     OW35013   5.856   5.388   0.091  0.1544  0.4563  0.2925
 8812SOL    HW235014   5.907   5.441   0.153 -0.3931 -0.7208  1.8269
 8812SOL    HW335015   5.800   5.334   0.147 -1.4795  0.4203 -1.2886
 8812SOL    MW435016   5.855   5.388   0.107 -0.1334  0.2963  0.2863
 8813SOL     OW35017   0.903   5.385   0.684 -0.7176 -0.2063 -0.2868
 8813SOL    HW235018   0.856   5.467   0.666 -2.0344 -0.4858  1.6161
 8813SOL    HW335019   0.897   5.374   0.779  4.0676  0.1619  0.2959
 8813SOL    MW435020   0.896   5.395   0.694 -0.2600 -0.1946  0.0411
 8814SOL     OW35021   0.463   6.354   5.506  0.5914  0.0558 -0.2590
 8814SOL    HW235022   0.558   6.340   5.507  0.4677 -0.8224  0.6876
 8814SOL    HW335023   0.453   6.447   5.485  1.6201 -0.0824 -1.5287
 8814SOL    MW435024   0.474   6.365   5.503  0.7108 -0.0783 -0.3016
 8815SOL     OW35025   1.724   3.950   0.422  0.0239 -0.7236 -0.4720
 8815SOL    HW235026   1.692   4.037   0.447  3.8130  0.9887 -0.8632
 8815SOL    HW335027   1.651   3.911   0.373 -1.4700  2.7356 -1.3415
 8815SOL    MW435028   1.710   3.957   0.419  0.3268 -0.0413 -0.6383
 8816SOL     OW35029   5.635   5.003   5.491 -0.6250  0.2940  0.4140
 8816SOL    HW235030   5.642   5.046   5.575  0.0170 -0.2197  0.6279
 8816SOL    HW335031   5.715   5.027   5.444 -0.1371 -0.8228  0.6262
 8816SOL    MW435032   5.646   5.012   5.496 -0.4759  0.0789  0.4702
 8817SOL     OW35033   4.029   1.821   2.190 -0.5080 -0.9977 -0.1425
 8817SOL    HW235034   4.074   1.880   2.130 -0.9634 -1.7737 -1.2765
 8817SOL    HW335035   4.096   1.759   2.218 -0.5361 -1.2802 -0.6934
 8817SOL    MW435036   4.043   1.821   2.186 -0.5718 -1.1373 -0.3648
 8818SOL     OW35037   3.057   5.037   5.707  0.3517  0.2746  0.2355
 8818SOL    HW235038   3.101   5.100   5.651 -0.9764  0.9520 -0.1059
 8818SOL    HW335039   2.994   4.993   5.650 -0.1917  0.1257  0.9298
 8818SOL    MW435040   3.054   5.039   5.692  0.1048  0.3444  0.2820
 8819SOL     OW35041   0.885   3.590   4.208  0.1933 -0.0532  0.0160
 8819SOL    HW235042   0.914   3.569   4.119 -1.7292  0.9382 -0.9035
 8819SOL    HW335043   0.836   3.671   4.199  0.9361  0.7178  2.2037
 8819SOL    MW435044   0.882   3.598   4.195  0.0377  0.1793  0.1833
 8820SOL     OW35045   3.706   5.581   0.641 -0.2031 -0.4634  0.0120
 8820SOL    HW235046   3.677   5.596   0.551  1.1008 -0.2035 -0.3866
 8820SOL    HW335047   3.781   5.523   0.632  0.8167  0.6860  0.8023
 8820SOL    MW435048   3.712   5.575   0.628  0.1035 -0.2775  0.0636
 8821SOL     OW35049   4.872   1.443   0.349 -0.2903  0.2484  0.0292
 8821SOL    HW235050   4.777   1.443   0.360 -0.3211  0.3306 -0.2322
 8821SOL    HW335051   4.886   1.473   0.260 -0.0810 -1.1308 -0.4395
 8821SOL    MW435052   4.862   1.447   0.339 -0.2668  0.0772 -0.0671
 8822SOL     OW35053   3.871   4.103   4.049  0.3065 -0.1396  0.6108
 8822SOL    HW235054   3.792   4.131   4.002  0.0966  1.4315  1.8108
 8822SOL    HW335055   3.879   4.010   4.029 -2.5340 -0.6505  1.3898
 8822SOL    MW435056   3.862   4.094   4.040 -0.0960  0.0003  0.8719
 8823SOL     OW35057   4.946   2.708   3.319 -0.4455  0.0760  0.0241
 8823SOL    HW235058   4.923   2.660   3.239 -1.5045  0.3656  0.1329
 8823SOL    HW335059   4.882   2.678   3.384  1.5224 -1.5502  1.3395
 8823SOL    MW435060   4.935   2.698   3.317 -0.3256 -0.1004  0.2120
 8824SOL     OW35061   1.745   2.484   6.230 -0.2219  0.5215 -0.2427
 8824SOL    HW235062   1.731   2.434   6.310 -0.4567  3.3092  1.5891
 8824SOL    HW335063   1.681   2.449   6.168 -0.2388 -1.5074  0.8294
 8824SOL    MW435064   1.735   2.473   6.232 -0.2551  0.6217  0.1404
 8825SOL     OW35065   3.389   3.720   2.113  0.2109  0.2653 -0.1515
 8825SOL    HW235066   3.294   3.721   2.124  0.3691 -1.6100  2.5394
 8825SOL    HW335067   3.405   3.653   2.047 -0.3158  0.1003 -0.1172
 8825SOL    MW435068   3.379   3.711   2.106  0.1623 -0.0039  0.2081
 8826SOL     OW35069   0.647   0.359   6.242 -0.1446  0.2616  0.1390
 8826SOL    HW235070   0.642   0.419   6.168 -2.5501 -1.7470 -1.5076
 8826SOL    HW335071   0.702   0.287   6.211 -1.6988 -0.9118 -0.0602
 8826SOL    MW435072   0.653   0.357   6.228 -0.6670 -0.1582 -0.1045
 8827SOL     OW35073   3.493   2.260   0.043 -0.0593  0.2858  0.1286
 8827SOL    HW235074   3.425   2.257  -0.025  1.2489  1.1878 -1.2812
 8827SOL    HW335075   3.462   2.199   0.110 -2.9196  1.6774  0.2083
 8827SOL    MW435076   3.480   2.251   0.043 -0.2640  0.5884 -0.0469
 8828SOL     OW35077   6.187   3.245   5.558  0.2916  0.2958  0.3919
 8828SOL    HW235078   6.222   3.229   5.470 -1.7767  0.5231 -0.5358
 8828SOL    HW335079   6.184   3.158   5.598 -0.4415 -0.0786 -0.4493
 8828SOL    MW435080   6.192   3.231   5.551 -0.0780  0.2764  0.1585
 8829SOL     OW35081   1.032   3.969   6.425  0.6858  0.2801  0.0736
 8829SOL    HW235082   0.982   3.924   6.357  1.3588  0.4931 -0.5811
 8829SOL    HW335083   1.111   3.999   6.380  1.1844  0.3490  0.9801
 8829SOL    MW435084   1.035   3.967   6.410  0.8404  0.3173  0.1068
 8830SOL     OW35085   0.484   4.984   3.666  0.0417  0.0895 -0.0994
 8830SOL    HW235086   0.408   5.008   3.614 -0.4082 -1.6085 -0.2743
 8830SOL    HW335087   0.463   4.898   3.702  1.2448  0.2581  1.1231
 8830SOL    MW435088   0.471   4.976   3.664  0.1411 -0.1123  0.0388
 8831SOL     OW35089   4.586   4.316   6.225  0.5129  0.0811  0.1173
 8831SOL    HW235090   4.657   4.348   6.169  0.3423  0.4418  0.1085
 8831SOL    HW335091   4.602   4.221   6.231 -0.1598 -0.1776 -1.5658
 8831SOL    MW435092   4.597   4.307   6.218  0.4016  0.0946 -0.1059
 8832SOL     OW35093   2.775   4.658   3.349 -0.3063  1.1095  0.2714
 8832SOL    HW235094   2.858   4.610   3.359 -0.8679  0.3553  1.5377
 8832SOL    HW335095   2.787   4.737   3.401  0.1878  1.7844 -0.8500
 8832SOL    MW435096   2.788   4.662   3.357 -0.3152  1.0990  0.2905
 8833SOL     OW35097   2.490   0.068   4.406 -0.0614 -0.0266  0.2507
 8833SOL    HW235098   2.564   0.081   4.465  1.2285 -0.7778 -1.1303
 8833SOL    HW335099   2.518   0.109   4.324  0.2743 -3.0940 -1.3266
 8833SOL    MW435100   2.504   0.075   4.403  0.1531 -0.5305 -0.1396
 8834SOL     OW35101   0.105   5.005   4.606 -0.0289 -0.0640  0.1140
 8834SOL    HW235102   0.179   5.065   4.597 -0.0172 -0.0765  0.1273
 8834SOL    HW335103   0.142   4.927   4.647 -0.0640 -0.0416  0.1902
 8834SOL    MW435104   0.119   5.003   4.610 -0.0320 -0.0627  0.1258
 8835SOL     OW35105   1.034   3.377   0.296 -0.9710 -0.3014  0.6526
 8835SOL    HW235106   1.106   3.377   0.360 -0.5180  0.8668  0.1544
 8835SOL    HW335107   1.058   3.444   0.232 -0.9228 -2.1074 -1.3288
 8835SOL    MW435108   1.047   3.386   0.296 -0.9049 -0.3856  0.3254
 8836SOL     OW35109   3.694   0.373   1.480 -0.4854 -0.0085 -0.3380
 8836SOL    HW235110   3.677   0.279   1.473 -1.7157  0.1380  0.3469
 8836SOL    HW335111   3.610   0.410   1.508  0.2874  1.1599  0.5101
 8836SOL    MW435112   3.680   0.365   1.483 -0.5458  0.1650 -0.1357
 8837SOL     OW35113   6.348   2.089   4.190  0.2136 -0.0772 -0.4728
 8837SOL    HW235114   6.432   2.094   4.146  0.2465  1.7768 -0.2613
 8837SOL    HW335115   6.290   2.047   4.126  0.9722 -0.1466 -1.1266
 8837SOL    MW435116   6.351   2.084   4.176  0.3180  0.1583 -0.5312
 8838SOL     OW35117   2.737   5.766   4.524  0.3268  0.3305  0.0800
 8838SOL    HW235118   2.707   5.837   4.581  0.3054  0.1434  0.3053
 8838SOL    HW335119   2.832   5.777   4.519  0.2880  0.5641 -0.1433
 8838SOL    MW435120   2.746   5.777   4.531  0.3189  0.3366  0.0803
 8839SOL     OW35121   5.341   1.244   0.401  0.1518 -0.1076  0.2022
 8839SOL    HW235122   5.259   1.271   0.359  0.1201 -0.6028 -0.0591
 8839SOL    HW335123   5.409   1.275   0.341  0.0928 -1.2049 -0.4659
 8839SOL    MW435124   5.339   1.252   0.387  0.1399 -0.3177  0.0796
 8840SOL     OW35125   1.645   5.652   2.235 -0.2160 -0.1318 -0.5053
 8840SOL    HW235126   1.586   5.679   2.165 -4.1029  0.2160  2.5682
 8840SOL    HW335127   1.624   5.711   2.308  2.8804 -1.0923  1.3562
 8840SOL    MW435128   1.635   5.663   2.235 -0.3203 -0.2127  0.1458
 8841SOL     OW35129   0.368   0.853   0.018 -0.1469 -0.4581  0.0845
 8841SOL    HW235130   0.356   0.785  -0.047 -2.6998 -1.2446  1.2286
 8841SOL    HW335131   0.408   0.809   0.093 -2.0408 -0.8327  0.9226
 8841SOL    MW435132   0.372   0.838   0.020 -0.7336 -0.6113  0.3460
 8842SOL     OW35133   1.222   4.079   0.396 -0.2825  0.1658 -1.0412
 8842SOL    HW235134   1.171   4.011   0.439 -0.2328  0.4706 -0.4863
 8842SOL    HW335135   1.163   4.114   0.328 -0.2730 -0.4815 -1.3870
 8842SOL    MW435136   1.207   4.075   0.393 -0.2747  0.1206 -1.0136
 8843SOL     OW35137   1.349   4.773   5.840 -0.3138  0.6432 -0.9891
 8843SOL    HW235138   1.426   4.735   5.883 -0.9281  1.3396  0.8378
 8843SOL    HW335139   1.301   4.698   5.806  0.8904  0.1586 -1.7032
 8843SOL    MW435140   1.353   4.758   5.842 -0.2360  0.6712 -0.8423
 8844SOL     OW35141   5.677   2.149   2.112  0.3691 -0.1677 -0.7162
 8844SOL    HW235142   5.756   2.106   2.143 -0.2742 -0.6593  0.3139
 8844SOL    HW335143   5.700   2.182   2.025  1.5999 -0.5556 -0.5593
 8844SOL    MW435144   5.690   2.148   2.105  0.4466 -0.2838 -0.5596
 8845SOL     OW35145   0.372   0.014   2.600 -0.5857 -0.1568  0.1382
 8845SOL    HW235146   0.451   0.066   2.618 -2.1916  2.2987  0.7090
 8845SOL    HW335147   0.330   0.059   2.526 -1.0073 -1.9710 -0.7724
 8845SOL    MW435148   0.377   0.027   2.593 -0.8532 -0.0722  0.0933
 8846SOL     OW35149   1.863   5.721   2.736 -0.0904  0.1929 -0.0325
 8846SOL    HW235150   1.793   5.698   2.797 -0.7672  0.7896 -0.5529
 8846SOL    HW335151   1.854   5.658   2.664  1.1279 -0.9353  0.7581
 8846SOL    MW435152   1.853   5.710   2.734 -0.0190  0.1228  0.0032
 8847SOL     OW35153   3.853   3.107   5.689  0.8652 -0.1888  0.1013
 8847SOL    HW235154   3.799   3.172   5.735  1.3660 -0.1107  0.5862
 8847SOL    HW335155   3.930   3.096   5.744  0.9826 -0.8919 -0.1859
 8847SOL    MW435156   3.856   3.114   5.702  0.9467 -0.2713  0.1274
 8848SOL     OW35157   5.910   0.088   5.202 -0.5117 -0.2676 -0.6031
 8848SOL    HW235158   5.833   0.042   5.167 -0.3795 -2.6238  1.9120
 8848SOL    HW335159   5.981   0.025   5.194  0.1391  0.1917  1.2374
 8848SOL    MW435160   5.909   0.074   5.196 -0.4084 -0.5178 -0.0285
 8849SOL     OW35161   4.926   4.946   3.666 -0.0070  0.3234  0.1330
 8849SOL    HW235162   4.876   4.867   3.684  0.7258 -0.4039 -0.8808
 8849SOL    HW335163   5.017   4.916   3.658  0.9559  1.8212  3.6224
 8849SOL    MW435164   4.932   4.932   3.667  0.2167  0.4251  0.4596
 8850SOL     OW35165   3.397   5.904   3.582 -0.5692  0.3053 -0.0420
 8850SOL    HW235166   3.311   5.910   3.541 -0.3601  0.1576 -0.5030
 8850SOL    HW335167   3.451   5.968   3.534 -0.4932  0.5973  0.4252
 8850SOL    MW435168   3.393   5.913   3.570 -0.5316  0.3244 -0.0412
 8851SOL     OW35169   2.255   4.444   1.989 -0.2910  0.3215  0.0844
 8851SOL    HW235170   2.175   4.398   2.015 -1.6835  2.0532 -0.9414
 8851SOL    HW335171   2.251   4.448   1.894  0.0120  2.1366  0.1207
 8851SOL    MW435172   2.244   4.438   1.980 -0.4348  0.7895 -0.0462
 8852SOL     OW35173   5.785   3.185   1.484 -0.1846 -0.4813 -0.7055
 8852SOL    HW235174   5.751   3.097   1.497 -0.1570 -0.4640 -0.5092
 8852SOL    HW335175   5.710   3.242   1.498  0.0781 -0.3966  0.4900
 8852SOL    MW435176   5.771   3.181   1.488 -0.1463 -0.4678 -0.5219
 8853SOL     OW35177   3.846   0.593   2.201 -0.1293 -0.7670  0.1328
 8853SOL    HW235178   3.894   0.673   2.179  1.3796 -0.7763  2.8963
 8853SOL    HW335179   3.887   0.526   2.148  0.2873 -0.1082 -0.3941
 8853SOL    MW435180   3.858   0.595   2.191  0.1247 -0.6813  0.4279
 8854SOL     OW35181   1.057   1.231   1.379 -0.4012 -0.1237  0.5782
 8854SOL    HW235182   1.121   1.215   1.310 -2.0516 -2.0428 -0.6559
 8854SOL    HW335183   1.094   1.302   1.431  1.2892  0.8727 -1.8105
 8854SOL    MW435184   1.070   1.238   1.376 -0.3959 -0.2455  0.1002
 8855SOL     OW35185   1.887   1.082   1.670 -0.4850 -0.3571 -0.2248
 8855SOL    HW235186   1.942   1.108   1.744  1.4835  0.8237 -1.9963
 8855SOL    HW335187   1.844   1.163   1.643  0.8729 -0.1428 -1.9414
 8855SOL    MW435188   1.889   1.096   1.676 -0.0462 -0.1730 -0.6850
 8856SOL     OW35189   3.949   5.012   5.157  0.4185  0.3659  0.9035
 8856SOL    HW235190   3.926   4.941   5.097  2.1636 -0.6133  1.3092
 8856SOL    HW335191   3.867   5.057   5.175 -0.2916  0.1365 -1.5023
 8856SOL    MW435192   3.935   5.009   5.152  0.5551  0.2065  0.6396
 8857SOL     OW35193   2.356   1.765   2.122  0.6756 -0.5779 -0.0657
 8857SOL    HW235194   2.288   1.832   2.111  2.0153  0.8786  0.2015
 8857SOL    HW335195   2.312   1.695   2.172 -1.3237 -0.8667 -2.0611
 8857SOL    MW435196   2.341   1.764   2.127  0.5886 -0.4239 -0.2937
 8858SOL     OW35197   1.088   0.485   2.897 -0.1034 -0.3978 -0.2101
 8858SOL    HW235198   1.103   0.428   2.821 -1.6647 -1.1629  0.0154
 8858SOL    HW335199   1.057   0.426   2.966 -0.6728  0.5726  0.3870
 8858SOL    MW435200   1.086   0.470   2.896 -0.3845 -0.3707 -0.1016
 8859SOL     OW35201   1.693   5.148   4.569  0.3288 -0.1480  0.0385
 8859SOL    HW235202   1.627   5.142   4.500  0.9689 -0.5525 -0.5553
 8859SOL    HW335203   1.703   5.058   4.601 -2.0862  0.4033  2.7600
 8859SOL    MW435204   1.685   5.135   4.564  0.0946 -0.1286  0.3192
 8860SOL     OW35205   5.084   2.987   3.275  0.2492  0.2827 -0.5118
 8860SOL    HW235206   5.015   3.038   3.316  0.8998 -0.1746  1.2446
 8860SOL    HW335207   5.053   2.897   3.280 -0.1279  0.3095 -2.0235
 8860SOL    MW435208   5.071   2.982   3.281  0.2853  0.2259 -0.4795
 8861SOL     OW35209   4.099   5.754   4.511  0.3997 -0.2352 -0.3723
 8861SOL    HW235210   4.181   5.749   4.560  0.1814 -1.7328 -0.1130
 8861SOL    HW335211   4.124   5.736   4.421  0.6541  1.5292 -0.6872
 8861SOL    MW435212   4.113   5.751   4.506  0.4045 -0.2000 -0.3797
 8862SOL     OW35213   0.536   4.986   5.720  0.0313  0.5794 -0.0520
 8862SOL    HW235214   0.549   5.041   5.797  2.1600  0.5385 -0.3143
 8862SOL    HW335215   0.517   5.049   5.650  2.6478  1.1250 -0.3943
 8862SOL    MW435216   0.535   5.002   5.721  0.6574  0.6460 -0.1317
 8863SOL     OW35217   5.272   1.561   1.507  0.1057  0.1302 -0.0872
 8863SOL    HW235218   5.345   1.621   1.490  0.9748 -0.8942 -0.0904
 8863SOL    HW335219   5.258   1.566   1.601 -0.7216  1.3265 -0.2587
 8863SOL    MW435220   5.280   1.569   1.517  0.1112  0.1529 -0.1102
 8864SOL     OW35221   2.424   5.410   5.681  0.4269 -0.5933 -0.9378
 8864SOL    HW235222   2.356   5.354   5.719  0.6452  0.4245  1.0800
 8864SOL    HW335223   2.415   5.398   5.586 -3.7945  0.8837 -0.9310
 8864SOL    MW435224   2.414   5.401   5.673 -0.1013 -0.2642 -0.6707
 8865SOL     OW35225   0.707   2.406   1.170  0.2089  0.0828 -0.1616
 8865SOL    HW235226   0.781   2.398   1.230  0.9026 -1.4982 -1.1424
 8865SOL    HW335227   0.721   2.336   1.106 -1.8607  0.0998 -0.6964
 8865SOL    MW435228   0.719   2.396   1.169  0.0274 -0.1236 -0.3615
 8866SOL     OW35229   3.198   0.266   5.236  0.3400 -0.2006  0.1416
 8866SOL    HW235230   3.161   0.261   5.324  0.7386  1.4379  0.4313
 8866SOL    HW335231   3.151   0.338   5.194  0.8298 -0.3351 -0.6731
 8866SOL    MW435232   3.187   0.275   5.242  0.4572 -0.0022  0.0723
 8867SOL     OW35233   6.345   2.256   3.454 -0.0387 -0.2391 -0.0591
 8867SOL    HW235234   6.398   2.225   3.381  0.3062  2.5664 -1.1602
 8867SOL    HW335235   6.255   2.236   3.429  0.0693  0.7491 -1.3819
 8867SOL    MW435236   6.340   2.249   3.441  0.0211  0.2614 -0.3789
 8868SOL     OW35237   0.930   3.452   5.929  0.2925  0.1130 -0.3800
 8868SOL    HW235238   1.024   3.439   5.918  0.0956 -1.8707 -0.2493
 8868SOL    HW335239   0.895   3.445   5.840  0.0510 -1.8805 -0.1757
 8868SOL    MW435240   0.938   3.449   5.916  0.2346 -0.4118 -0.3358
 8869SOL     OW35241   1.672   4.057   2.421  0.0522 -0.4729 -0.5969
 8869SOL    HW235242   1.599   4.025   2.368 -1.2095  0.0989  0.7324
 8869SOL    HW335243   1.655   4.023   2.509  0.3060  1.2712  0.1679
 8869SOL    MW435244   1.660   4.049   2.426 -0.0807 -0.1674 -0.3206
 8870SOL     OW35245   0.726   0.320   5.070 -0.1009  0.3896  0.1217
 8870SOL    HW235246   0.813   0.296   5.102  0.6241  0.6453 -1.5727
 8870SOL    HW335247   0.741   0.394   5.011 -1.4345  0.2397 -0.4453
 8870SOL    MW435248   0.739   0.327   5.067 -0.1812  0.4035 -0.1767
 8871SOL     OW35249   3.356   0.706   5.243  0.2773  0.4170 -0.3906
 8871SOL    HW235250   3.354   0.757   5.324 -1.3868  0.0483 -0.1653
 8871SOL    HW335251   3.371   0.616   5.272 -2.3741 -0.0651 -0.2118
 8871SOL    MW435252   3.358   0.701   5.257 -0.2921  0.3048 -0.3373
 8872SOL     OW35253   2.386   2.691   2.573 -0.0188 -0.0410  0.0050
 8872SOL    HW235254   2.402   2.756   2.641  1.0663  1.4467 -1.6079
 8872SOL    HW335255   2.293   2.700   2.553 -0.1082  0.2612  0.5300
 8872SOL    MW435256   2.376   2.700   2.580  0.1126  0.1951 -0.1386
 8873SOL     OW35257   2.730   6.080   0.740  0.4959 -0.4965  0.3139
 8873SOL    HW235258   2.695   6.126   0.816  0.8019  1.6409 -0.7453
 8873SOL    HW335259   2.707   6.136   0.666  0.8050 -2.1531 -1.1047
 8873SOL    MW435260   2.723   6.093   0.740  0.5771 -0.4330 -0.0130
 8874SOL     OW35261   3.452   5.991   6.401  0.2024 -0.0759 -0.0460
 8874SOL    HW235262   3.386   5.966   6.466  0.9355 -2.3328 -0.0890
 8874SOL    HW335263   3.410   5.975   6.317  0.1254  0.4631 -0.1179
 8874SOL    MW435264   3.438   5.986   6.399  0.2890 -0.3025 -0.0612
 8875SOL     OW35265   0.778   0.689   3.815 -0.1819 -0.3002  0.3463
 8875SOL    HW235266   0.699   0.734   3.843  1.1377  0.8815  2.4783
 8875SOL    HW335267   0.850   0.743   3.848  1.5238 -2.0402 -0.2781
 8875SOL    MW435268   0.777   0.702   3.823  0.2173 -0.3739  0.5452
 8876SOL     OW35269   0.823   1.026   5.890 -0.6143 -0.0717 -0.7959
 8876SOL    HW235270   0.863   1.087   5.828 -1.2129  1.2368  0.0571
 8876SOL    HW335271   0.774   1.082   5.950  1.5577 -1.0745  2.1275
 8876SOL    MW435272   0.822   1.041   5.890 -0.4067 -0.0314 -0.2977
 8877SOL     OW35273   0.764   1.786   4.956  0.0905 -0.5923 -0.1437
 8877SOL    HW235274   0.802   1.700   4.974  0.8193 -0.4029 -0.7403
 8877SOL    HW335275   0.818   1.847   5.006 -0.8822 -0.5303  0.8828
 8877SOL    MW435276   0.776   1.782   4.965  0.0583 -0.5591 -0.0870
 8878SOL     OW35277   1.374   0.948   3.538 -0.5316  0.2736  0.6378
 8878SOL    HW235278   1.393   0.869   3.488 -1.7384  0.6525 -0.4653
 8878SOL    HW335279   1.293   0.982   3.501  1.9201  4.2508 -1.7879
 8878SOL    MW435280   1.366   0.942   3.527 -0.3673  0.8483  0.1722
 8879SOL     OW35281   2.461   5.044   4.334 -0.3177  0.2123  0.1883
 8879SOL    HW235282   2.475   5.026   4.241 -1.3298  0.3308 -0.0028
 8879SOL    HW335283   2.448   4.958   4.374  2.0035 -0.0121  0.5916
 8879SOL    MW435284   2.461   5.030   4.327 -0.1450  0.1983  0.2163
 8880SOL     OW35285   3.315   1.485   3.682 -0.7545 -0.4652 -0.1621
 8880SOL    HW235286   3.236   1.434   3.700 -0.6930  0.4471  3.5278
 8880SOL    HW335287   3.374   1.463   3.754  1.5635  0.4447 -1.6843
 8880SOL    MW435288   3.312   1.475   3.694 -0.4405 -0.2248  0.1239
 8881SOL     OW35289   6.019   4.586   1.945 -0.2963  0.6251 -0.2590
 8881SOL    HW235290   5.991   4.515   1.887 -0.9940  0.1245  0.6749
 8881SOL    HW335291   6.030   4.544   2.031 -1.2807  1.7563  0.4393
 8881SOL    MW435292   6.017   4.571   1.949 -0.5183  0.7083 -0.0437
 8882SOL     OW35293   1.247   0.916   3.194 -0.5555  0.5255  0.5102
 8882SOL    HW235294   1.198   0.959   3.264 -0.8487  0.2862  0.4519
 8882SOL    HW335295   1.285   0.988   3.144 -0.5865  0.7037  0.7409
 8882SOL    MW435296   1.245   0.931   3.197 -0.5983  0.5175  0.5329
 8883SOL     OW35297   1.459   3.017   2.021 -0.0560  0.1169 -0.2146
 8883SOL    HW235298   1.387   3.078   2.004  0.3676  0.6780 -0.0131
 8883SOL    HW335299   1.518   3.028   1.947  0.4501  0.6002  0.2438
 8883SOL    MW435300   1.457   3.027   2.009  0.0666  0.2547 -0.1275
 8884SOL     OW35301   1.106   6.195   5.411 -0.4417  0.1004 -0.1703
 8884SOL    HW235302   1.067   6.127   5.466  0.2268 -0.2628 -0.1383
 8884SOL    HW335303   1.199   6.195   5.434 -0.2717  0.3941 -0.8324
 8884SOL    MW435304   1.113   6.186   5.421 -0.3310  0.0912 -0.2534
 8885SOL     OW35305   5.068   2.477   6.277 -0.0847  0.0635  0.2428
 8885SOL    HW235306   4.995   2.458   6.217 -0.8259  1.5663  0.6093
 8885SOL    HW335307   5.029   2.473   6.364  0.2625  0.8644  0.4448
 8885SOL    MW435308   5.053   2.474   6.281 -0.1367  0.3675  0.3178
 8886NA      NA35309   2.123   5.008   2.375 -0.3732  0.0231 -0.0272
 8887NA      NA35310   3.788   1.793   2.196 -0.0490  0.3772 -0.1792
 8888NA      NA35311   5.105   1.455   5.947 -0.3333  0.3402 -0.3226
 8889NA      NA35312   5.281   5.126   3.458 -0.2031  0.5757 -0.3345
 8890NA      NA35313   4.956   1.831   1.239  0.3492 -0.0644  0.1383
 8891NA      NA35314   6.094   2.451   4.255 -0.7732  0.2676  0.4006
 8892NA      NA35315   5.265   1.734   2.395 -0.2331 -0.3595  0.4796
   6.42920   6.42920   6.42920
