A-SYNC WITH FASUDIL
35315
  121NASP     N    1   1.014   0.292   0.383  0.2534  0.0697  0.4773
  121NASP    H1    2   0.936   0.276   0.444  1.3583 -2.4759  1.3435
  121NASP    H2    3   0.995   0.374   0.326 -1.4081 -1.7323 -1.7686
  121NASP    H3    4   1.088   0.299   0.451 -1.0841  0.2542  1.9607
  121NASP    CA    5   1.036   0.183   0.286 -0.2185 -0.4592  0.1693
  121NASP    HA    6   1.028   0.090   0.342 -1.9454  0.0256  0.8050
  121NASP    CB    7   0.939   0.178   0.167  0.6984  0.7863  0.1313
  121NASP   HB1    8   0.846   0.134   0.203  0.4227 -1.3294 -2.7465
  121NASP   HB2    9   0.982   0.117   0.087 -1.5644  0.4136 -0.8832
  121NASP    CG   10   0.895   0.307   0.095  0.2028 -1.2182  0.8133
  121NASP   OD1   11   0.823   0.303  -0.009 -0.2036 -0.0026 -0.3509
  121NASP   OD2   12   0.940   0.415   0.135 -0.2249  0.4690 -0.4642
  121NASP     C   13   1.175   0.186   0.235  0.1420  0.6921  1.0095
  121NASP     O   14   1.250   0.283   0.251  0.0768 -0.1022 -0.4272
  122ASN      N   15   1.212   0.077   0.167  0.0607 -0.0773 -0.0445
  122ASN      H   16   1.153  -0.004   0.158  1.1436 -0.8998 -0.0357
  122ASN     CA   17   1.340   0.064   0.097 -0.1266 -0.1582 -0.2879
  122ASN     HA   18   1.427   0.107   0.148  0.5128  0.6033 -1.9361
  122ASN     CB   19   1.374  -0.084   0.065  0.0189  0.5061  0.1429
  122ASN    HB1   20   1.449  -0.086  -0.014 -0.3613  0.9012 -0.2331
  122ASN    HB2   21   1.287  -0.138   0.027  1.8505 -1.4825 -1.5541
  122ASN     CG   22   1.425  -0.168   0.185 -0.1870 -0.0272  0.9510
  122ASN    OD1   23   1.412  -0.291   0.195 -0.1551  0.1892 -0.6848
  122ASN    ND2   24   1.484  -0.098   0.281  0.1250 -0.0071 -0.0399
  122ASN   HD21   25   1.515  -0.145   0.365 -1.0178  1.1423  1.0579
  122ASN   HD22   26   1.510  -0.002   0.265 -0.4358  0.6023  2.4197
  122ASN      C   27   1.326   0.155  -0.030 -0.6127  0.3511 -0.6713
  122ASN      O   28   1.211   0.163  -0.078 -0.0889 -0.2777 -0.1404
  123GLU      N   29   1.434   0.214  -0.083  0.2395  0.6601 -0.0233
  123GLU      H   30   1.519   0.221  -0.028  0.1914  2.9544 -0.1143
  123GLU     CA   31   1.423   0.289  -0.208 -0.4760 -0.0355 -0.5321
  123GLU     HA   32   1.328   0.341  -0.212 -0.7020 -0.1201  2.3287
  123GLU     CB   33   1.542   0.383  -0.231  0.2309 -0.0972  0.0364
  123GLU    HB1   34   1.522   0.435  -0.324  0.0623 -1.6589 -0.8390
  123GLU    HB2   35   1.628   0.318  -0.249 -1.3679 -2.7709  1.3347
  123GLU     CG   36   1.562   0.478  -0.117 -0.3018 -0.1574 -0.1365
  123GLU    HG1   37   1.662   0.520  -0.130 -0.1099 -0.7437 -0.6074
  123GLU    HG2   38   1.570   0.411  -0.031 -0.7548 -1.1177 -0.8232
  123GLU     CD   39   1.454   0.580  -0.092  0.7701  0.0221  0.4678
  123GLU    OE1   40   1.394   0.558   0.018  0.1182  0.1432  0.3436
  123GLU    OE2   41   1.447   0.683  -0.167 -0.1401  0.3398 -0.2045
  123GLU      C   42   1.406   0.206  -0.340  0.5119  0.7977 -0.1226
  123GLU      O   43   1.370   0.253  -0.447 -0.0292 -0.3093  0.9908
  124ALA      N   44   1.433   0.079  -0.336  0.5079  0.2904 -0.5066
  124ALA      H   45   1.470   0.039  -0.251  1.7817  3.5652  0.6397
  124ALA     CA   46   1.422  -0.008  -0.453 -0.5482 -0.0445  0.5337
  124ALA     HA   47   1.350   0.038  -0.521  1.5572  2.4620 -0.1813
  124ALA     CB   48   1.560  -0.015  -0.528  0.0980 -0.4813  1.0528
  124ALA    HB1   49   1.628  -0.064  -0.458  0.6518 -0.7173  0.3532
  124ALA    HB2   50   1.587   0.087  -0.558 -2.2694  0.1945  1.0641
  124ALA    HB3   51   1.562  -0.074  -0.619  0.3243  0.3378  0.5144
  124ALA      C   52   1.368  -0.149  -0.418 -1.1351  0.0210  0.6890
  124ALA      O   53   1.394  -0.195  -0.307  0.6343  0.3221 -0.3522
  125TYR      N   54   1.305  -0.212  -0.514 -0.6054  0.3324  0.2224
  125TYR      H   55   1.283  -0.164  -0.600  0.2611  2.9393  1.3494
  125TYR     CA   56   1.255  -0.357  -0.509 -0.0838  0.7145  0.1175
  125TYR     HA   57   1.223  -0.364  -0.406 -1.6977 -2.1701 -0.4804
  125TYR     CB   58   1.134  -0.373  -0.609 -0.2975 -0.7740 -0.3504
  125TYR    HB1   59   1.091  -0.474  -0.609  1.5213 -1.5827  0.5385
  125TYR    HB2   60   1.172  -0.372  -0.711  2.3867  0.7557  0.5797
  125TYR     CG   61   1.017  -0.279  -0.594  0.5754 -0.5756  0.2140
  125TYR    CD1   62   0.919  -0.302  -0.499  0.8190 -0.1066 -0.2880
  125TYR    HD1   63   0.934  -0.376  -0.422 -0.8775  0.0550  0.2303
  125TYR    CE1   64   0.805  -0.224  -0.491  0.2451 -0.3262 -0.3101
  125TYR    HE1   65   0.733  -0.243  -0.412 -0.4418  1.3325 -0.4872
  125TYR     CZ   66   0.777  -0.124  -0.584 -0.7234 -0.8046  0.5050
  125TYR     OH   67   0.662  -0.050  -0.580 -0.6650  0.0487 -0.3546
  125TYR     HH   68   0.677   0.024  -0.639 -0.6528 -1.0800 -1.8340
  125TYR    CE2   69   0.879  -0.097  -0.682  0.6057 -0.7256 -0.3053
  125TYR    HE2   70   0.881  -0.018  -0.756  0.8041 -1.3333 -0.9564
  125TYR    CD2   71   0.997  -0.178  -0.685  0.8126  0.5837 -0.1908
  125TYR    HD2   72   1.068  -0.166  -0.766  2.2861  0.4399  1.0371
  125TYR      C   73   1.366  -0.460  -0.534 -0.1743 -0.1502 -0.1223
  125TYR      O   74   1.441  -0.445  -0.631 -0.5684 -0.3251  0.4172
  126GLU      N   75   1.372  -0.572  -0.459  0.9375 -0.3424  0.2222
  126GLU      H   76   1.327  -0.581  -0.368 -0.9834  0.5515 -0.5851
  126GLU     CA   77   1.446  -0.692  -0.495 -0.6094 -0.5531  0.0092
  126GLU     HA   78   1.540  -0.653  -0.534 -2.3234  1.6260 -2.2492
  126GLU     CB   79   1.482  -0.773  -0.370 -0.1358 -0.1202 -0.2558
  126GLU    HB1   80   1.395  -0.834  -0.348  1.0099 -2.2019 -1.1984
  126GLU    HB2   81   1.499  -0.715  -0.279  0.3227  0.2133 -0.5506
  126GLU     CG   82   1.617  -0.855  -0.388  0.1647  0.2979 -0.6578
  126GLU    HG1   83   1.696  -0.780  -0.395  1.0592 -0.4553  0.9174
  126GLU    HG2   84   1.611  -0.919  -0.476 -4.1618 -0.7002  0.1156
  126GLU     CD   85   1.635  -0.956  -0.278 -0.8493  0.4220 -0.0799
  126GLU    OE1   86   1.542  -1.039  -0.270  0.0136  0.4241  0.6790
  126GLU    OE2   87   1.739  -0.962  -0.207 -0.4747 -0.9267 -0.2578
  126GLU      C   88   1.390  -0.776  -0.607 -0.9492 -0.3044  0.5052
  126GLU      O   89   1.268  -0.812  -0.609  0.5671 -0.0802 -0.8918
  127MET      N   90   1.474  -0.813  -0.700  0.2796 -0.5074 -0.0171
  127MET      H   91   1.565  -0.768  -0.701 -0.0873  0.3229 -2.4181
  127MET     CA   92   1.448  -0.913  -0.807  0.0685  0.0554 -0.2959
  127MET     HA   93   1.367  -0.871  -0.866  0.3371  0.5883 -0.2906
  127MET     CB   94   1.584  -0.925  -0.887  0.3392 -0.2764 -0.2155
  127MET    HB1   95   1.649  -1.001  -0.845 -1.9526 -1.7732  0.8501
  127MET    HB2   96   1.637  -0.830  -0.887 -0.8155  0.4859  2.8956
  127MET     CG   97   1.557  -0.958  -1.031  0.7445  0.0278 -0.0646
  127MET    HG1   98   1.523  -1.061  -1.036 -2.2285  0.9119 -0.0697
  127MET    HG2   99   1.647  -0.943  -1.091  0.5456 -0.6335 -0.5401
  127MET     SD  100   1.424  -0.863  -1.112  0.0518 -0.0709  0.0214
  127MET     CE  101   1.382  -0.953  -1.260  0.4977  0.4622  0.5492
  127MET    HE1  102   1.337  -1.053  -1.257  0.0717  0.6245 -0.0217
  127MET    HE2  103   1.477  -0.975  -1.309 -0.2484 -0.9083 -0.3683
  127MET    HE3  104   1.332  -0.891  -1.335 -1.1296 -2.0367 -0.5990
  127MET      C  105   1.398  -1.051  -0.756  0.1026 -0.8775 -0.2298
  127MET      O  106   1.446  -1.103  -0.655 -0.2971 -0.5368 -0.5083
  128PRO      N  107   1.301  -1.120  -0.824  0.6817  0.6275  0.3465
  128PRO     CD  108   1.220  -1.090  -0.946 -0.4091 -0.0382 -0.0115
  128PRO    HD1  109   1.281  -1.051  -1.028 -0.2488 -2.5460 -1.1652
  128PRO    HD2  110   1.152  -1.012  -0.913  0.0125  0.2937  0.0915
  128PRO     CG  111   1.163  -1.221  -0.990  0.6030  0.2494  0.9172
  128PRO    HG1  112   1.234  -1.276  -1.051 -0.1105  0.3613 -0.0398
  128PRO    HG2  113   1.074  -1.190  -1.046  0.4960  2.4613  2.1719
  128PRO     CB  114   1.132  -1.288  -0.864 -0.1349 -0.5510 -0.2394
  128PRO    HB1  115   1.047  -1.246  -0.811 -0.4227 -2.4082  0.8473
  128PRO    HB2  116   1.107  -1.393  -0.876 -0.0891 -0.5149 -0.6840
  128PRO     CA  117   1.256  -1.253  -0.778  0.0127  0.3971 -0.2998
  128PRO     HA  118   1.231  -1.246  -0.672 -1.8039 -0.2935 -0.6505
  128PRO      C  119   1.365  -1.360  -0.780  0.0810  0.5767  0.1917
  128PRO      O  120   1.457  -1.347  -0.862 -0.0646  0.3207 -0.4831
  129SER      N  121   1.357  -1.460  -0.691 -0.2400 -1.1618 -0.0927
  129SER      H  122   1.285  -1.458  -0.620  0.5253 -1.5625  0.7237
  129SER     CA  123   1.451  -1.570  -0.695 -0.2460  0.2535  0.1503
  129SER     HA  124   1.539  -1.548  -0.756 -0.7291  0.4526 -0.4818
  129SER     CB  125   1.514  -1.577  -0.550  0.1845 -0.9444  0.4478
  129SER    HB1  126   1.583  -1.493  -0.548  0.1391 -0.7773 -2.1141
  129SER    HB2  127   1.579  -1.665  -0.543  0.3286 -0.9721 -0.9844
  129SER     OG  128   1.414  -1.576  -0.453  0.0688  0.5072 -0.3429
  129SER    HG1  129   1.447  -1.569  -0.363  0.9837  1.5101 -0.7333
  129SER      C  130   1.395  -1.704  -0.743 -0.0175  0.2130 -0.0864
  129SER      O  131   1.476  -1.774  -0.810  0.2629 -0.0321 -0.2089
  130GLU      N  132   1.261  -1.723  -0.738  0.1297 -0.2490  0.0982
  130GLU      H  133   1.202  -1.647  -0.709  0.2372  0.0640 -0.4942
  130GLU     CA  134   1.182  -1.835  -0.802 -0.8134 -0.8469  0.2113
  130GLU     HA  135   1.224  -1.931  -0.772  2.3322 -1.8751 -5.8394
  130GLU     CB  136   1.030  -1.817  -0.780 -0.6978 -0.0744 -0.0593
  130GLU    HB1  137   0.975  -1.894  -0.835  1.7159 -1.0144 -1.3073
  130GLU    HB2  138   1.002  -1.716  -0.812  1.0104  1.3330  2.5425
  130GLU     CG  139   0.978  -1.829  -0.642 -0.7120  0.1302  0.1722
  130GLU    HG1  140   1.033  -1.754  -0.585  1.0067  1.0679 -2.5586
  130GLU    HG2  141   1.009  -1.929  -0.611  2.8280  1.0046 -0.0809
  130GLU     CD  142   0.829  -1.805  -0.626  0.8291 -0.0012 -0.3061
  130GLU    OE1  143   0.756  -1.758  -0.715  0.6569  0.1423  0.4447
  130GLU    OE2  144   0.778  -1.832  -0.513 -0.0210  0.1211  0.2863
  130GLU      C  145   1.206  -1.843  -0.953  0.6634  0.2060 -0.1366
  130GLU      O  146   1.219  -1.737  -1.015 -0.3859 -0.0060  0.0699
  131GLU      N  147   1.216  -1.968  -1.007 -0.2123 -0.3746 -0.1705
  131GLU      H  148   1.203  -2.042  -0.939  0.0484  0.9458  1.4020
  131GLU     CA  149   1.234  -1.981  -1.154 -0.0204  0.4717 -0.3694
  131GLU     HA  150   1.314  -1.913  -1.182 -0.2358  0.3588 -1.2716
  131GLU     CB  151   1.265  -2.122  -1.202  0.2251  0.4299  0.0697
  131GLU    HB1  152   1.298  -2.123  -1.306 -0.2403 -2.7685 -0.1429
  131GLU    HB2  153   1.175  -2.184  -1.196 -0.2074  1.0112 -0.3010
  131GLU     CG  154   1.375  -2.179  -1.115  0.5818 -0.5743  0.4694
  131GLU    HG1  155   1.395  -2.285  -1.133 -2.0221 -1.0504 -0.0601
  131GLU    HG2  156   1.352  -2.182  -1.008  0.4413 -0.7103  0.4363
  131GLU     CD  157   1.510  -2.112  -1.136  0.0808 -0.7598 -0.5661
  131GLU    OE1  158   1.599  -2.136  -1.048  0.3005 -0.2022  0.3866
  131GLU    OE2  159   1.531  -2.039  -1.238 -0.4630  0.7007  0.2992
  131GLU      C  160   1.110  -1.920  -1.226  0.2544 -0.1442 -0.5560
  131GLU      O  161   0.995  -1.965  -1.215  0.2644  0.1884  1.1056
  132GLY      N  162   1.137  -1.810  -1.297  0.3660 -0.0605 -0.0396
  132GLY      H  163   1.230  -1.772  -1.295 -0.5993  2.4810  0.9599
  132GLY     CA  164   1.031  -1.722  -1.363 -0.4778 -0.8304 -0.4966
  132GLY    HA1  165   1.089  -1.640  -1.404  1.7384 -1.1994  1.6238
  132GLY    HA2  166   0.959  -1.687  -1.289  0.2968 -1.2705  0.4934
  132GLY      C  167   0.953  -1.789  -1.481  0.1443  0.8807 -0.6254
  132GLY      O  168   0.891  -1.710  -1.558  0.3691  0.7642  0.1347
  133TYR      N  169   0.958  -1.920  -1.504 -0.4741  0.2669 -0.0958
  133TYR      H  170   1.012  -1.977  -1.440  0.5002  3.2138  1.8908
  133TYR     CA  171   0.914  -2.003  -1.622  0.3064 -0.9748  0.1794
  133TYR     HA  172   0.947  -2.105  -1.600 -0.2628 -0.7817  2.1655
  133TYR     CB  173   0.758  -2.014  -1.627  0.3148 -0.2097 -0.1256
  133TYR    HB1  174   0.732  -2.078  -1.711  0.2102  1.4481 -1.4295
  133TYR    HB2  175   0.709  -1.920  -1.654 -1.5005 -0.5425  1.7274
  133TYR     CG  176   0.690  -2.062  -1.500 -0.0760  0.4640 -0.4350
  133TYR    CD1  177   0.734  -2.176  -1.431  0.1720 -0.2519 -0.0586
  133TYR    HD1  178   0.814  -2.239  -1.468 -0.1318 -0.4527 -0.3837
  133TYR    CE1  179   0.672  -2.214  -1.309 -0.4836 -0.8180 -0.2350
  133TYR    HE1  180   0.702  -2.306  -1.261  1.3134 -0.2956 -0.2537
  133TYR     CZ  181   0.584  -2.129  -1.242 -0.1823 -0.2333  0.7328
  133TYR     OH  182   0.519  -2.167  -1.129 -0.1219 -0.0500  0.4941
  133TYR     HH  183   0.537  -2.256  -1.099  0.3828 -0.0302  0.2575
  133TYR    CE2  184   0.540  -2.017  -1.313 -0.1766  0.4729  0.3793
  133TYR    HE2  185   0.450  -1.967  -1.281  0.7672  2.6847 -0.2239
  133TYR    CD2  186   0.590  -1.983  -1.443 -0.0691 -0.0982 -1.1838
  133TYR    HD2  187   0.545  -1.903  -1.499 -0.0372  0.1874 -0.8080
  133TYR      C  188   0.982  -1.970  -1.763  0.1866  0.4195 -0.2755
  133TYR      O  189   0.970  -2.033  -1.862  0.3822  0.1709  0.8761
  134GLN      N  190   1.054  -1.864  -1.764  0.2770 -0.8461 -0.3610
  134GLN      H  191   1.064  -1.816  -1.675 -0.0404  0.1793 -0.8623
  134GLN     CA  192   1.142  -1.811  -1.862 -0.0959  0.4034  0.1079
  134GLN     HA  193   1.213  -1.889  -1.892 -0.7894  0.0756 -0.7175
  134GLN     CB  194   1.066  -1.748  -1.978 -0.5923 -0.0332  0.2927
  134GLN    HB1  195   1.057  -1.828  -2.052 -0.2827 -0.5776  0.8291
  134GLN    HB2  196   1.125  -1.668  -2.021 -0.1562 -0.5262 -0.0389
  134GLN     CG  197   0.927  -1.691  -1.943  0.1041 -0.6580  0.1208
  134GLN    HG1  198   0.937  -1.609  -1.872 -3.0580 -0.2170  0.1711
  134GLN    HG2  199   0.864  -1.770  -1.902  0.3994 -0.0459  1.8154
  134GLN     CD  200   0.865  -1.631  -2.068 -0.2467 -0.7250 -0.1231
  134GLN    OE1  201   0.755  -1.676  -2.104 -0.2827 -0.1460  0.2593
  134GLN    NE2  202   0.934  -1.536  -2.135 -0.2036  0.5424  0.6710
  134GLN   HE21  203   0.882  -1.494  -2.210 -2.2942 -3.8897 -0.7141
  134GLN   HE22  204   1.023  -1.499  -2.104  1.2286 -1.2373 -1.0465
  134GLN      C  205   1.222  -1.704  -1.794  0.1129 -0.5673  0.6759
  134GLN      O  206   1.169  -1.622  -1.723  0.2907  0.0746  0.0105
  135ASP      N  207   1.357  -1.706  -1.805  0.6235  0.0900  0.1515
  135ASP      H  208   1.398  -1.771  -1.871  0.1684  0.3805 -0.4240
  135ASP     CA  209   1.452  -1.600  -1.763 -0.2740  0.2303  0.0144
  135ASP     HA  210   1.432  -1.582  -1.657 -0.2782 -2.4384  0.5276
  135ASP     CB  211   1.591  -1.665  -1.759  0.0372 -0.2683  0.7508
  135ASP    HB1  212   1.597  -1.738  -1.678 -0.1080 -0.1581  0.8631
  135ASP    HB2  213   1.666  -1.590  -1.733 -1.6872  1.6298  0.4497
  135ASP     CG  214   1.633  -1.748  -1.885  0.0806 -0.0982 -0.0440
  135ASP    OD1  215   1.732  -1.826  -1.866  0.2481 -0.5886 -0.0527
  135ASP    OD2  216   1.558  -1.754  -1.986 -0.4534 -0.0599  0.1234
  135ASP      C  217   1.451  -1.470  -1.856 -0.4759 -0.1380 -0.4862
  135ASP      O  218   1.461  -1.361  -1.801 -0.3353  0.3108  0.3660
  136TYR      N  219   1.402  -1.486  -1.974  0.1455 -0.2498  0.2102
  136TYR      H  220   1.401  -1.578  -2.014  0.6245 -0.7039  1.2161
  136TYR     CA  221   1.393  -1.376  -2.067 -0.5075 -0.8326 -0.2035
  136TYR     HA  222   1.475  -1.304  -2.056 -1.6775  0.6139 -0.5644
  136TYR     CB  223   1.409  -1.418  -2.215  0.1926 -0.1614  0.4985
  136TYR    HB1  224   1.501  -1.476  -2.223 -0.0531 -0.9026  2.3858
  136TYR    HB2  225   1.407  -1.335  -2.286  2.8476  0.5353  1.1219
  136TYR     CG  226   1.303  -1.519  -2.268  0.5940 -0.0116  0.2372
  136TYR    CD1  227   1.214  -1.473  -2.362 -0.5858 -0.1981  0.1582
  136TYR    HD1  228   1.225  -1.378  -2.412  0.1713 -0.9218 -1.0977
  136TYR    CE1  229   1.135  -1.565  -2.434  0.6854  0.3355  0.1352
  136TYR    HE1  230   1.098  -1.535  -2.532 -0.1096  0.3894  0.4431
  136TYR     CZ  231   1.132  -1.700  -2.396  0.0315  0.4701 -0.0143
  136TYR     OH  232   1.044  -1.783  -2.463 -0.0534  0.2368 -0.0944
  136TYR     HH  233   1.013  -1.750  -2.548  2.1953  0.1559 -1.0206
  136TYR    CE2  234   1.209  -1.743  -2.289  0.2073 -0.7840 -0.1759
  136TYR    HE2  235   1.201  -1.846  -2.258  1.0385 -0.3251  1.6817
  136TYR    CD2  236   1.295  -1.653  -2.224  0.0344 -0.1707 -1.0385
  136TYR    HD2  237   1.361  -1.682  -2.143 -2.1658  0.1619  0.9744
  136TYR      C  238   1.258  -1.297  -2.054 -0.5543 -0.0466 -0.9717
  136TYR      O  239   1.158  -1.357  -2.019  0.0115  0.5700 -0.0376
  137GLU      N  240   1.252  -1.164  -2.086 -0.2527  0.2685 -0.1210
  137GLU      H  241   1.330  -1.128  -2.138  0.5075  1.0646  1.4905
  137GLU     CA  242   1.132  -1.087  -2.105 -0.6760  0.7008 -0.0878
  137GLU     HA  243   1.065  -1.120  -2.026 -0.1669  0.4585  0.2495
  137GLU     CB  244   1.161  -0.942  -2.091  0.1448 -0.7606 -0.3596
  137GLU    HB1  245   1.078  -0.881  -2.128  1.2144  0.8208 -0.2703
  137GLU    HB2  246   1.250  -0.916  -2.148 -0.6072  2.4173 -0.3075
  137GLU     CG  247   1.174  -0.901  -1.943 -0.1659 -0.6367  0.3582
  137GLU    HG1  248   1.243  -0.977  -1.906  1.1055 -0.5404 -1.6685
  137GLU    HG2  249   1.078  -0.903  -1.891 -0.0616  1.3291  0.6772
  137GLU     CD  250   1.241  -0.761  -1.920  0.1996  0.2042  0.0404
  137GLU    OE1  251   1.335  -0.721  -1.991  0.1794 -0.4084 -0.1684
  137GLU    OE2  252   1.211  -0.693  -1.819  0.5795  0.6098 -0.1862
  137GLU      C  253   1.047  -1.118  -2.231  0.6404  0.3913  0.4098
  137GLU      O  254   1.104  -1.166  -2.335  0.0918  0.3334 -0.3627
  138PRO      N  255   0.911  -1.100  -2.231 -0.0224 -0.4914 -0.0112
  138PRO     CD  256   0.836  -1.044  -2.125  1.1869 -1.5746 -1.0841
  138PRO    HD1  257   0.889  -0.955  -2.089 -1.3836 -0.5094  0.3083
  138PRO    HD2  258   0.819  -1.105  -2.036 -0.5185  0.1239 -0.1783
  138PRO     CG  259   0.708  -0.988  -2.190 -0.9149 -0.0904 -0.5084
  138PRO    HG1  260   0.727  -0.890  -2.235  2.2008 -1.2830 -2.0838
  138PRO    HG2  261   0.627  -0.989  -2.118 -0.6128 -0.9621 -0.1676
  138PRO     CB  262   0.684  -1.092  -2.298 -0.4009 -0.1827  0.6647
  138PRO    HB1  263   0.653  -1.187  -2.255  0.1905 -0.3480  0.7257
  138PRO    HB2  264   0.611  -1.061  -2.373 -0.8545  1.9386  1.9102
  138PRO     CA  265   0.824  -1.124  -2.346  0.8111 -0.5900  0.1072
  138PRO     HA  266   0.826  -1.229  -2.375  1.3813 -0.5690  0.0591
  138PRO      C  267   0.869  -1.033  -2.466 -0.2201 -0.4100  0.1621
  138PRO      O  268   0.894  -0.909  -2.451 -0.6795  0.3812 -0.0269
  139GLU      N  269   0.870  -1.087  -2.591  0.0711 -0.1346 -0.1707
  139GLU      H  270   0.852  -1.186  -2.598  2.4004 -0.8335  2.0187
  139GLU     CA  271   0.911  -1.021  -2.717  0.1041 -0.2322 -0.4213
  139GLU     HA  272   0.986  -0.944  -2.700  3.3226 -3.1450 -0.1659
  139GLU     CB  273   0.979  -1.134  -2.801  0.2951 -0.3230 -0.1397
  139GLU    HB1  274   0.995  -1.081  -2.895 -0.1928  3.2551  1.6108
  139GLU    HB2  275   0.906  -1.213  -2.817  0.3051 -0.4616  0.4892
  139GLU     CG  276   1.102  -1.185  -2.738 -0.6754  0.3955  0.0457
  139GLU    HG1  277   1.080  -1.256  -2.659  3.9466 -0.8774  0.5294
  139GLU    HG2  278   1.167  -1.109  -2.694 -0.2868  0.4923 -0.6725
  139GLU     CD  279   1.188  -1.256  -2.849 -0.3445  0.4363  0.0797
  139GLU    OE1  280   1.133  -1.321  -2.941 -0.6913  0.1506  0.1282
  139GLU    OE2  281   1.315  -1.251  -2.829  0.1110  0.0742  0.0429
  139GLU      C  282   0.796  -0.956  -2.794 -0.4016 -0.8137  0.3822
  139GLU      O  283   0.677  -0.992  -2.772  0.0374 -0.3191 -0.2630
  140CALA     N  284   0.833  -0.862  -2.883 -0.3231  0.2712 -0.2297
  140CALA     H  285   0.930  -0.834  -2.890  0.3855 -1.7474  0.7491
  140CALA    CA  286   0.736  -0.787  -2.973  0.3563  1.0583 -0.1376
  140CALA    HA  287   0.665  -0.747  -2.899  1.0418 -1.0201  1.7600
  140CALA    CB  288   0.799  -0.662  -3.046  0.4754 -0.5501  0.1185
  140CALA   HB1  289   0.719  -0.615  -3.103 -2.0071 -0.6766  3.1840
  140CALA   HB2  290   0.878  -0.700  -3.111  0.7240  1.0017 -0.5103
  140CALA   HB3  291   0.837  -0.588  -2.976 -1.4003 -0.6873  1.3687
  140CALA     C  292   0.665  -0.875  -3.078  0.2331  0.2071  0.5840
  140CALA   OC1  293   0.541  -0.849  -3.095 -0.1256 -0.3579  0.1596
  140CALA   OC2  294   0.731  -0.967  -3.138 -0.0706 -0.1547 -0.3131
  141FAS      C  295   5.856   5.978   5.118  0.3621 -0.0341  0.2084
  141FAS     C1  296   5.929   5.852   5.082 -0.1301 -0.2069  0.4143
  141FAS      N  297   6.056   5.876   5.009  0.2841 -0.0153 -0.2070
  141FAS     C2  298   6.049   5.897   4.860  0.1871  0.2427 -0.7555
  141FAS     C3  299   5.920   5.970   4.804 -0.3447 -0.4540 -0.0201
  141FAS     N1  300   5.871   6.081   4.890 -0.7560 -0.3606  1.3375
  141FAS     C4  301   5.788   6.039   5.002  0.3430  0.2403  0.0179
  141FAS      S  302   5.814   6.209   4.797 -0.3017  0.3078 -0.0453
  141FAS      O  303   5.923   6.273   4.720 -0.0780  0.1026 -0.3299
  141FAS     O1  304   5.688   6.169   4.724  0.0966  0.1946  0.0356
  141FAS     C5  305   5.765   6.323   4.924 -0.6417  0.5428  0.5004
  141FAS     C6  306   5.629   6.352   4.935  0.3665 -0.1449 -0.8142
  141FAS     C7  307   5.585   6.439   5.035 -0.4130  0.3763 -0.2527
  141FAS     C8  308   5.671   6.489   5.135  0.6342  0.3843  0.1562
  141FAS     C9  309   5.805   6.455   5.123  0.1773 -0.6730 -0.2647
  141FAS    C10  310   5.857   6.379   5.012 -0.5702 -0.9526 -0.2595
  141FAS    C11  311   5.999   6.362   5.008  0.5169 -0.1477 -0.3313
  141FAS    C12  312   6.080   6.413   5.111 -0.2219  0.4781  0.4064
  141FAS     N2  313   6.029   6.474   5.219  0.1832  0.4338  0.1465
  141FAS    C13  314   5.894   6.489   5.234 -0.3696  0.3608 -0.1609
  141FAS      H  315   5.922   6.059   5.154  2.0540 -1.3172  0.1310
  141FAS     H1  316   5.787   5.944   5.196  0.5397 -0.2642  0.2659
  141FAS     H2  317   5.867   5.778   5.031 -1.7856  0.2464  1.7178
  141FAS     H3  318   5.954   5.803   5.176 -1.9546 -0.2169  0.9297
  141FAS     H4  319   6.103   5.958   5.049  1.2472 -0.7841  0.2842
  141FAS     H5  320   6.064   5.798   4.816  0.5927  0.2318 -0.5968
  141FAS     H6  321   6.133   5.961   4.833  0.1148  2.0731  2.7966
  141FAS     H7  322   5.835   5.912   4.767 -0.8368  1.4159 -1.9923
  141FAS     H8  323   5.948   6.010   4.706 -2.5063  0.6154 -0.2775
  141FAS     H9  324   5.711   5.971   4.961 -0.5195  0.3684  1.3627
  141FAS    H10  325   5.727   6.124   5.035 -0.3670  0.2808 -1.3005
  141FAS    H11  326   5.550   6.318   4.869  0.5533  0.9824 -1.6460
  141FAS    H12  327   5.479   6.461   5.040 -0.9671 -2.0802 -0.3860
  141FAS    H13  328   5.635   6.554   5.214  0.7019 -0.0271  0.5298
  141FAS    H14  329   6.049   6.302   4.933 -1.0443 -0.7095 -0.9628
  141FAS    H15  330   6.186   6.393   5.098 -0.4803  0.2249 -1.6393
  141FAS    H16  331   5.854   6.537   5.322  0.4608 -1.4053  1.2516
  141FAS    H17  332   6.123   5.799   5.025 -0.4954 -0.7836 -0.4882
  142SOL     OW  333   2.531   4.570   4.693  0.2223  0.3414 -0.1083
  142SOL    HW2  334   2.554   4.514   4.767  0.5908 -0.6334 -0.9332
  142SOL    HW3  335   2.606   4.564   4.634 -1.5414 -2.0407 -2.3526
  142SOL    MW4  336   2.544   4.562   4.695  0.0382 -0.1015 -0.5132
  143SOL     OW  337   0.549   5.934   5.238  0.3377  0.3200 -0.2331
  143SOL    HW2  338   0.623   5.976   5.196  0.3885  0.0569 -0.4087
  143SOL    HW3  339   0.478   5.939   5.174  0.6974 -0.9673 -0.7577
  143SOL    MW4  340   0.550   5.940   5.224  0.3919  0.1154 -0.3255
  144SOL     OW  341   0.680   1.790   4.420 -0.0268 -0.0577  0.4055
  144SOL    HW2  342   0.611   1.830   4.367  0.5282  0.7706  0.2868
  144SOL    HW3  343   0.752   1.853   4.416 -0.0719  0.1598  2.3789
  144SOL    MW4  344   0.680   1.804   4.412  0.0404  0.0803  0.6502
  145SOL     OW  345   1.096   0.351   2.636 -0.0704  0.2079 -0.4887
  145SOL    HW2  346   1.097   0.300   2.717 -0.3125  2.0944  0.7668
  145SOL    HW3  347   1.129   0.438   2.662  1.6780  0.3331 -2.8199
  145SOL    MW4  348   1.101   0.356   2.650  0.1284  0.4733 -0.6306
  146SOL     OW  349   4.881   4.788   4.497 -0.5706  0.5447 -0.0572
  146SOL    HW2  350   4.937   4.857   4.462  0.5642 -0.3329  0.0005
  146SOL    HW3  351   4.869   4.811   4.589  0.7227  0.0932  0.2394
  146SOL    MW4  352   4.887   4.800   4.505 -0.2502  0.3694 -0.0105
  147SOL     OW  353   1.575   2.434   5.201  0.4172  0.3018  0.6972
  147SOL    HW2  354   1.553   2.458   5.111 -2.3736 -2.1097  0.5689
  147SOL    HW3  355   1.526   2.497   5.255  0.8544  0.7858  0.5390
  147SOL    MW4  356   1.565   2.446   5.196  0.1067  0.0475  0.6594
  148SOL     OW  357   6.275   0.984   0.826 -0.7349  0.5072 -0.0864
  148SOL    HW2  358   6.315   0.901   0.851 -0.0006  1.4807  2.2975
  148SOL    HW3  359   6.186   0.979   0.860 -0.0864  1.3876  1.9092
  148SOL    MW4  360   6.269   0.973   0.834 -0.5525  0.7518  0.4914
  149SOL     OW  361   6.282   5.926   3.975 -0.2109  0.1047  0.1013
  149SOL    HW2  362   6.326   5.895   4.054  1.6699  0.5059 -0.7537
  149SOL    HW3  363   6.250   6.014   3.997 -1.5770 -0.5858  1.0542
  149SOL    MW4  364   6.283   5.933   3.988 -0.1430  0.0665  0.1142
  150SOL     OW  365   4.892   1.768   5.891  0.2322  0.2566 -0.0171
  150SOL    HW2  366   4.808   1.721   5.892  1.4405 -2.0422  0.2752
  150SOL    HW3  367   4.906   1.792   5.983  0.4703 -0.4813  0.1447
  150SOL    MW4  368   4.883   1.765   5.903  0.4231 -0.1441  0.0428
  151SOL     OW  369   5.646   2.832   1.094 -0.1795 -0.0364 -0.1227
  151SOL    HW2  370   5.663   2.898   1.027  0.0746  1.7682  1.6246
  151SOL    HW3  371   5.671   2.749   1.053  0.0971  1.0017 -2.1818
  151SOL    MW4  372   5.651   2.829   1.079 -0.1095  0.3387 -0.1639
  152SOL     OW  373   4.911   0.779   6.150  0.3503 -0.1555 -0.0067
  152SOL    HW2  374   4.879   0.868   6.160  1.6101  0.2175  0.9403
  152SOL    HW3  375   4.963   0.763   6.228  0.0230 -1.7900 -0.0855
  152SOL    MW4  376   4.913   0.788   6.161  0.4733 -0.3219  0.1078
  153SOL     OW  377   4.761   1.039   5.443 -0.7437  0.4228  0.0270
  153SOL    HW2  378   4.797   1.002   5.363  0.6005 -0.6646  1.0905
  153SOL    HW3  379   4.743   0.963   5.499 -1.7024  1.1529  0.7416
  153SOL    MW4  380   4.763   1.024   5.440 -0.6928  0.3757  0.2616
  154SOL     OW  381   4.428   5.437   2.410  0.0352 -0.9730 -0.0514
  154SOL    HW2  382   4.363   5.408   2.474 -1.3804  1.2605 -0.4110
  154SOL    HW3  383   4.481   5.502   2.457  2.3984 -3.0244  0.3730
  154SOL    MW4  384   4.427   5.442   2.425  0.1602 -0.9490 -0.0428
  155SOL     OW  385   1.335   0.357   4.197 -0.2349  0.0538  0.2593
  155SOL    HW2  386   1.378   0.388   4.118  1.4468  0.9866  1.4839
  155SOL    HW3  387   1.406   0.334   4.257 -1.4364  0.1624  1.8105
  155SOL    MW4  388   1.350   0.358   4.195 -0.1715  0.1912  0.6256
  156SOL     OW  389   2.369   5.792   6.415  0.3233  0.4578  0.7901
  156SOL    HW2  390   2.318   5.764   6.492 -0.0258  2.2896  1.2934
  156SOL    HW3  391   2.308   5.848   6.366  0.8340  0.0280 -0.3661
  156SOL    MW4  392   2.354   5.796   6.419  0.3446  0.6428  0.7039
  157SOL     OW  393   4.110   1.524   4.369  0.3006  0.3930  0.1084
  157SOL    HW2  394   4.149   1.606   4.340 -1.0753  2.1644  2.8704
  157SOL    HW3  395   4.074   1.543   4.455 -0.2839 -3.0923  0.7935
  157SOL    MW4  396   4.110   1.537   4.376  0.0420  0.1669  0.5632
  158SOL     OW  397   5.004   1.207   6.013  0.7385  0.2364  0.3525
  158SOL    HW2  398   5.011   1.296   6.047 -0.5902  0.3852  0.2743
  158SOL    HW3  399   5.077   1.160   6.054  0.9141  1.1315  1.0992
  158SOL    MW4  400   5.015   1.212   6.023  0.5864  0.3742  0.4407
  159SOL     OW  401   2.417   4.440   4.212  0.0447 -0.2672 -0.3310
  159SOL    HW2  402   2.502   4.410   4.179 -0.6521 -1.9635 -0.6773
  159SOL    HW3  403   2.415   4.411   4.303 -0.5975 -1.2419 -0.6407
  159SOL    MW4  404   2.428   4.432   4.220 -0.1319 -0.6196 -0.4176
  160SOL     OW  405   0.574   2.961   4.901 -0.1041  0.5095  0.0347
  160SOL    HW2  406   0.487   2.923   4.891 -0.9256  2.0833  0.7875
  160SOL    HW3  407   0.559   3.043   4.949  1.9641  0.0190  1.6723
  160SOL    MW4  408   0.561   2.967   4.906  0.0604  0.6524  0.3501
  161SOL     OW  409   3.818   4.649   0.479  0.3684  0.6350 -0.0265
  161SOL    HW2  410   3.855   4.717   0.422  1.8191  0.2426  0.4023
  161SOL    HW3  411   3.763   4.696   0.541  0.7456  1.3285 -0.2136
  161SOL    MW4  412   3.815   4.664   0.480  0.6096  0.6748  0.0054
  162SOL     OW  413   1.563   1.875   4.033  0.6824  0.3081 -1.1337
  162SOL    HW2  414   1.628   1.859   4.102  0.0082  0.5455 -0.4227
  162SOL    HW3  415   1.547   1.970   4.038 -2.3689 -0.1536  1.2178
  162SOL    MW4  416   1.569   1.886   4.043  0.1909  0.2785 -0.7297
  163SOL     OW  417   1.001   2.966   3.453 -0.2194  0.0890  0.2803
  163SOL    HW2  418   1.023   2.876   3.477  0.2549  0.0723 -0.2096
  163SOL    HW3  419   0.920   2.959   3.403  1.7394 -0.5239 -3.0921
  163SOL    MW4  420   0.993   2.953   3.450  0.1016  0.0060 -0.2293
  164SOL     OW  421   4.391   3.258   1.596  0.2852  0.1819  0.4893
  164SOL    HW2  422   4.422   3.299   1.677  0.6269  3.6268 -1.1832
  164SOL    HW3  423   4.450   3.292   1.528 -1.8439 -0.0446 -1.6159
  164SOL    MW4  424   4.403   3.268   1.598  0.0494  0.6065 -0.0091
  165SOL     OW  425   3.147   2.319   4.281 -0.3918  0.3825 -0.2588
  165SOL    HW2  426   3.169   2.270   4.201  1.7456  1.1568 -0.1891
  165SOL    HW3  427   3.179   2.264   4.352 -2.0125 -0.1551  0.1182
  165SOL    MW4  428   3.154   2.305   4.280 -0.3236  0.4137 -0.1998
  166SOL     OW  429   2.666   1.449   2.153 -0.2991  0.1806 -0.4824
  166SOL    HW2  430   2.724   1.384   2.112 -1.7399 -0.7997 -1.0487
  166SOL    HW3  431   2.712   1.532   2.141  0.3138 -0.3481 -2.2537
  166SOL    MW4  432   2.680   1.451   2.146 -0.4084 -0.0185 -0.7908
  167SOL     OW  433   5.964   5.164   5.433  0.3800 -0.4045  0.4676
  167SOL    HW2  434   5.897   5.142   5.370 -0.6831 -2.6021  2.2321
  167SOL    HW3  435   6.046   5.135   5.393 -0.1117 -0.6444 -0.3765
  167SOL    MW4  436   5.966   5.158   5.420  0.1749 -0.7261  0.5890
  168SOL     OW  437   4.099   5.046   0.287 -0.3070  0.3123 -0.7224
  168SOL    HW2  438   4.168   4.991   0.251  0.9767  0.9981  0.6112
  168SOL    HW3  439   4.145   5.113   0.338 -1.9754 -0.3900  1.8918
  168SOL    MW4  440   4.114   5.048   0.289 -0.3578  0.3101 -0.2015
  169SOL     OW  441   1.105   5.144   5.078 -0.0430  0.8222  0.1731
  169SOL    HW2  442   1.014   5.123   5.058 -0.9542  0.8454  3.6137
  169SOL    HW3  443   1.106   5.239   5.087  0.4769  0.8773 -0.4229
  169SOL    MW4  444   1.093   5.154   5.076 -0.0946  0.8325  0.5484
  170SOL     OW  445   5.608   2.632   4.135 -0.4658  0.4494  0.0398
  170SOL    HW2  446   5.556   2.650   4.214  0.4044  2.0119  0.3106
  170SOL    HW3  447   5.549   2.653   4.062 -0.5083  1.3632  0.3277
  170SOL    MW4  448   5.594   2.637   4.136 -0.3566  0.7761  0.1135
  171SOL     OW  449   6.285   1.893   1.657  0.6132 -0.2108 -0.0970
  171SOL    HW2  450   6.297   1.887   1.752 -0.4797 -0.6879  0.0382
  171SOL    HW3  451   6.224   1.822   1.637  0.8273 -0.1106 -1.1631
  171SOL    MW4  452   6.278   1.883   1.667  0.4972 -0.2606 -0.2198
  172SOL     OW  453   0.881   6.222   1.607 -0.1738  0.3502 -0.3082
  172SOL    HW2  454   0.956   6.270   1.640 -0.1702  0.8801 -1.0484
  172SOL    HW3  455   0.918   6.155   1.549 -0.2069 -0.2645  0.3614
  172SOL    MW4  456   0.895   6.220   1.603 -0.1777  0.3390 -0.3175
  173SOL     OW  457   5.473   2.284   3.968 -0.3177 -0.1095 -0.5155
  173SOL    HW2  458   5.477   2.200   3.923  1.8923  0.9226 -2.4521
  173SOL    HW3  459   5.444   2.346   3.901 -1.8329  0.7361  0.8515
  173SOL    MW4  460   5.470   2.281   3.953 -0.2261  0.1383 -0.5907
  174SOL     OW  461   5.852   4.740   5.242 -0.7001  0.0614 -0.2778
  174SOL    HW2  462   5.815   4.802   5.179 -1.8446 -1.6285 -1.3575
  174SOL    HW3  463   5.798   4.662   5.234  0.6660 -1.0989  1.0434
  174SOL    MW4  464   5.840   4.738   5.233 -0.6708 -0.3146 -0.2459
  175SOL     OW  465   4.227   2.337   3.196 -0.4699 -0.1070 -0.1829
  175SOL    HW2  466   4.237   2.299   3.108 -0.5390 -0.6112  0.0238
  175SOL    HW3  467   4.281   2.281   3.252  1.9992  1.9552 -0.3499
  175SOL    MW4  468   4.235   2.324   3.192 -0.1532  0.0985 -0.1777
  176SOL     OW  469   1.642   0.455   5.345 -0.3777 -0.0924 -0.1221
  176SOL    HW2  470   1.711   0.415   5.292  0.9995  1.8097  0.1425
  176SOL    HW3  471   1.630   0.395   5.419 -0.2043 -1.2678 -1.0285
  176SOL    MW4  472   1.649   0.442   5.348 -0.1731  0.0035 -0.2068
  177SOL     OW  473   4.541   6.283   6.038  0.1233 -0.3309  0.1865
  177SOL    HW2  474   4.606   6.353   6.045 -0.4881  0.3156 -0.3738
  177SOL    HW3  475   4.593   6.203   6.028  0.8349  0.0904  0.4412
  177SOL    MW4  476   4.557   6.282   6.037  0.1365 -0.1900  0.1462
  178SOL     OW  477   5.486   6.460   0.089  0.0594  0.2564 -0.5954
  178SOL    HW2  478   5.418   6.528   0.094 -1.6211 -1.3222 -0.8667
  178SOL    HW3  479   5.542   6.486   0.017 -1.0580  0.9300 -1.2413
  178SOL    MW4  480   5.484   6.472   0.080 -0.3097  0.1370 -0.7164
  179SOL     OW  481   0.414   0.728   0.713 -0.3199  0.8107  0.7194
  179SOL    HW2  482   0.480   0.789   0.681  1.1525 -0.6544  0.8246
  179SOL    HW3  483   0.331   0.762   0.678  0.7757  1.2171 -1.7454
  179SOL    MW4  484   0.412   0.740   0.704  0.0189  0.6710  0.4081
  180SOL     OW  485   3.743   6.143   4.765 -0.1849  0.3317  0.1354
  180SOL    HW2  486   3.789   6.227   4.764  0.1139  0.1721  0.3717
  180SOL    HW3  487   3.690   6.144   4.685  1.1747 -0.0073 -0.8116
  180SOL    MW4  488   3.742   6.154   4.754  0.0339  0.2659  0.0416
  181SOL     OW  489   4.315   6.035   4.692  0.1698 -0.5038  0.0279
  181SOL    HW2  490   4.330   6.001   4.604  0.0385 -2.4583  0.7112
  181SOL    HW3  491   4.391   6.004   4.742 -0.1651 -0.1212  0.7802
  181SOL    MW4  492   4.327   6.026   4.687  0.1083 -0.7112  0.2173
  182SOL     OW  493   2.300   5.318   1.996  0.3724  0.3692  0.7103
  182SOL    HW2  494   2.248   5.304   2.075  0.5266 -1.9976  0.4685
  182SOL    HW3  495   2.275   5.405   1.965 -1.1758  0.5139  2.2565
  182SOL    MW4  496   2.290   5.328   2.002  0.1884  0.0760  0.8824
  183SOL     OW  497   4.614   1.342   2.584 -0.3801 -0.4184  0.3851
  183SOL    HW2  498   4.551   1.301   2.524  0.6534 -1.6124  0.0606
  183SOL    HW3  499   4.599   1.436   2.573  0.3827 -0.5260 -2.5138
  183SOL    MW4  500   4.604   1.349   2.574 -0.1431 -0.5901 -0.0402
  184SOL     OW  501   0.383   2.252   3.321 -0.0936 -0.4757  0.0115
  184SOL    HW2  502   0.396   2.295   3.236  0.1027  0.9494  0.7389
  184SOL    HW3  503   0.316   2.185   3.303 -2.8117  2.1488 -0.6002
  184SOL    MW4  504   0.376   2.249   3.307 -0.4263  0.0586  0.0268
  185SOL     OW  505   4.569   0.446   3.097 -0.0839  0.0593  0.3435
  185SOL    HW2  506   4.483   0.406   3.109 -0.5503  1.2337  1.1576
  185SOL    HW3  507   4.587   0.489   3.181  1.6940 -0.8893  0.4957
  185SOL    MW4  508   4.560   0.446   3.110  0.0891  0.0891  0.4710
  186SOL     OW  509   0.520   3.100   2.635 -0.3939 -0.0945 -1.0234
  186SOL    HW2  510   0.554   3.086   2.547 -0.9137  0.9437 -1.4155
  186SOL    HW3  511   0.598   3.108   2.690 -0.0415  0.1811 -1.5515
  186SOL    MW4  512   0.535   3.099   2.630 -0.4160  0.0788 -1.1448
  187SOL     OW  513   2.343   1.217   3.621  0.0373 -0.7544 -0.0554
  187SOL    HW2  514   2.322   1.149   3.685 -1.0539 -0.3965 -0.0093
  187SOL    HW3  515   2.438   1.223   3.622  0.1054 -1.8269  0.4115
  187SOL    MW4  516   2.353   1.209   3.629 -0.0976 -0.8487  0.0123
  188SOL     OW  517   4.466   3.434   6.115  0.0575 -0.3922  0.3000
  188SOL    HW2  518   4.446   3.523   6.085  0.6483 -0.0636  0.8701
  188SOL    HW3  519   4.382   3.387   6.107  0.1096 -0.2415 -1.5436
  188SOL    MW4  520   4.452   3.439   6.110  0.1423 -0.3289  0.1320
  189SOL     OW  521   5.522   0.870   2.310  0.5612 -0.5532 -0.3249
  189SOL    HW2  522   5.552   0.782   2.333  2.5925  0.2681  0.4191
  189SOL    HW3  523   5.571   0.891   2.230 -0.0436 -0.1447 -0.5961
  189SOL    MW4  524   5.533   0.861   2.302  0.7494 -0.3909 -0.2625
  190SOL     OW  525   1.262   0.239   4.639 -0.4142  0.4388 -0.1402
  190SOL    HW2  526   1.310   0.181   4.698  0.4958  2.8661  1.7030
  190SOL    HW3  527   1.267   0.197   4.553  1.7560 -1.2749  0.7387
  190SOL    MW4  528   1.269   0.226   4.635 -0.0078  0.5330  0.2190
  191SOL     OW  529   6.356   0.690   4.152  0.2984 -0.4828 -0.2737
  191SOL    HW2  530   6.385   0.776   4.182  0.7355 -0.0300 -1.9033
  191SOL    HW3  531   6.384   0.630   4.221  1.1178  0.5236  0.2993
  191SOL    MW4  532   6.364   0.693   4.165  0.4642 -0.2903 -0.4131
  192SOL     OW  533   0.547   6.292   5.507 -0.1952 -0.9026 -0.1174
  192SOL    HW2  534   0.592   6.330   5.431 -0.0248 -1.3511 -0.2425
  192SOL    HW3  535   0.614   6.239   5.551  0.0142  0.2407  0.9818
  192SOL    MW4  536   0.562   6.290   5.503 -0.1451 -0.8110  0.0111
  193SOL     OW  537   3.309   1.511   2.136  0.2342 -0.4900  0.1415
  193SOL    HW2  538   3.345   1.486   2.050 -0.8171 -1.8793  0.0813
  193SOL    HW3  539   3.385   1.544   2.184  1.0744 -0.8317 -0.8946
  193SOL    MW4  540   3.324   1.512   2.131  0.2063 -0.7184 -0.0032
  194SOL     OW  541   3.209   6.167   6.010  0.4118 -0.6622  0.2057
  194SOL    HW2  542   3.206   6.102   5.939  1.9114  0.3818 -0.8817
  194SOL    HW3  543   3.178   6.248   5.969 -1.6960 -0.6741  1.6096
  194SOL    MW4  544   3.204   6.169   5.995  0.3315 -0.5260  0.2475
  195SOL     OW  545   3.187   1.537   5.367 -0.1629 -0.3117  0.5942
  195SOL    HW2  546   3.270   1.586   5.364  0.7997 -1.8858 -0.6727
  195SOL    HW3  547   3.179   1.500   5.279 -2.0924 -0.4363  0.7949
  195SOL    MW4  548   3.197   1.538   5.355 -0.2905 -0.5358  0.4536
  196SOL     OW  549   0.133   5.376   3.392  0.7220  0.3346  0.0061
  196SOL    HW2  550   0.198   5.443   3.414  0.3671  0.5817  0.3053
  196SOL    HW3  551   0.056   5.399   3.444  0.6827 -0.4487  0.2950
  196SOL    MW4  552   0.131   5.388   3.401  0.6699  0.2638  0.0837
  197SOL     OW  553   3.184   0.788   1.286  0.9348 -0.0493 -0.1501
  197SOL    HW2  554   3.272   0.770   1.318  1.5112  2.3317 -0.1857
  197SOL    HW3  555   3.178   0.742   1.203  2.2703  0.0295 -0.3031
  197SOL    MW4  556   3.195   0.780   1.280  1.1871  0.2752 -0.1750
  198SOL     OW  557   4.349   2.993   1.567  0.1386 -0.1952 -0.2096
  198SOL    HW2  558   4.255   2.975   1.575  0.4709 -2.3709 -0.6395
  198SOL    HW3  559   4.357   3.086   1.587 -2.1962  0.2113 -0.8882
  198SOL    MW4  560   4.337   3.003   1.571 -0.1256 -0.4286 -0.3559
  199SOL     OW  561   1.789   3.861   0.941 -0.2925  0.0227 -0.2757
  199SOL    HW2  562   1.841   3.940   0.928 -0.8176  0.5178  0.5456
  199SOL    HW3  563   1.729   3.859   0.867 -1.7369  1.5822  0.7967
  199SOL    MW4  564   1.788   3.871   0.929 -0.5524  0.2938 -0.0258
  200SOL     OW  565   3.290   2.728   2.416  0.3278 -0.1277 -0.1989
  200SOL    HW2  566   3.314   2.636   2.425  1.0168 -0.0477 -1.0457
  200SOL    HW3  567   3.211   2.728   2.362  1.5856 -0.1388 -2.1179
  200SOL    MW4  568   3.283   2.716   2.410  0.5847 -0.1186 -0.5638
  201SOL     OW  569   1.997   3.155   1.083  0.0694 -0.3748 -0.3845
  201SOL    HW2  570   2.038   3.164   0.997 -0.3904 -2.4553 -0.8790
  201SOL    HW3  571   1.918   3.209   1.077 -0.3718 -1.0882 -1.5930
  201SOL    MW4  572   1.992   3.163   1.071 -0.0495 -0.7434 -0.6092
  202SOL     OW  573   2.538   6.207   1.406 -0.9687  0.1081  0.6077
  202SOL    HW2  574   2.576   6.264   1.472 -0.6144  2.1127 -1.2356
  202SOL    HW3  575   2.453   6.181   1.444 -2.1011  3.5058  0.7793
  202SOL    MW4  576   2.532   6.211   1.420 -1.0714  0.8209  0.3871
  203SOL     OW  577   1.839   2.719   2.332  0.0972  0.2005 -0.5110
  203SOL    HW2  578   1.822   2.664   2.255 -0.9094  1.2769 -1.0899
  203SOL    HW3  579   1.867   2.657   2.400 -1.8772 -1.1634 -0.8650
  203SOL    MW4  580   1.841   2.703   2.331 -0.2961  0.1626 -0.6341
  204SOL     OW  581   5.990   3.974   1.639  0.2333  0.1165  0.4816
  204SOL    HW2  582   5.978   3.891   1.685 -0.5237 -1.0725 -1.6805
  204SOL    HW3  583   5.950   4.040   1.695  0.8881 -0.9500  2.2684
  204SOL    MW4  584   5.983   3.972   1.652  0.2198 -0.1811  0.4321
  205SOL     OW  585   2.904   2.751   0.079 -0.6623 -0.4518 -0.0384
  205SOL    HW2  586   2.893   2.786   0.168 -0.9590 -0.6565  0.0069
  205SOL    HW3  587   2.969   2.809   0.039 -1.1290  0.1449  0.0466
  205SOL    MW4  588   2.911   2.764   0.086 -0.7630 -0.4001 -0.0212
  206SOL     OW  589   5.927   5.632   3.476  0.2464  0.3160 -0.2458
  206SOL    HW2  590   5.953   5.599   3.390 -1.2335  2.6765 -1.7265
  206SOL    HW3  591   6.009   5.659   3.518  0.8610  0.7696 -1.6800
  206SOL    MW4  592   5.941   5.631   3.470  0.1323  0.6872 -0.6304
  207SOL     OW  593   5.036   6.065   1.968 -0.2666 -0.0016  0.0181
  207SOL    HW2  594   5.079   5.988   2.003  0.5972  1.2115  1.7708
  207SOL    HW3  595   5.004   6.038   1.882  0.1658 -2.2256  0.5050
  207SOL    MW4  596   5.037   6.051   1.961 -0.0956 -0.1350  0.3136
  208SOL     OW  597   1.765   2.396   3.702 -0.1901  1.1266 -0.0820
  208SOL    HW2  598   1.792   2.324   3.759 -1.5879 -1.1939 -2.1359
  208SOL    HW3  599   1.781   2.475   3.753  0.5666 -0.6771  2.6596
  208SOL    MW4  600   1.770   2.397   3.716 -0.2747  0.5824  0.0087
  209SOL     OW  601   2.166   5.259   2.793  0.6947 -0.7657 -0.1866
  209SOL    HW2  602   2.092   5.201   2.780  0.1386 -0.3192  0.8808
  209SOL    HW3  603   2.241   5.210   2.760 -0.2758 -0.5086 -3.0504
  209SOL    MW4  604   2.166   5.245   2.787  0.4933 -0.6729 -0.4236
  210SOL     OW  605   5.885   2.235   0.763  0.0628 -0.3940  0.0077
  210SOL    HW2  606   5.934   2.294   0.821 -1.2681  0.2017  0.5594
  210SOL    HW3  607   5.887   2.278   0.678  1.2352 -0.8173 -0.2029
  210SOL    MW4  608   5.892   2.249   0.760  0.0419 -0.3712  0.0527
  211SOL     OW  609   0.558   5.348   2.021  0.6800  0.2828 -0.1596
  211SOL    HW2  610   0.587   5.321   1.934  1.9811 -1.1268  0.6580
  211SOL    HW3  611   0.633   5.395   2.057 -0.5388  2.6322 -0.4681
  211SOL    MW4  612   0.572   5.350   2.014  0.6908  0.4068 -0.0924
  212SOL     OW  613   4.083   1.442   0.717 -0.0320  0.5615 -0.1570
  212SOL    HW2  614   4.145   1.452   0.645  0.0567  1.4684  0.0374
  212SOL    HW3  615   4.058   1.532   0.741  0.4648  0.3244  1.3899
  212SOL    MW4  616   4.087   1.455   0.711  0.0453  0.6499  0.0728
  213SOL     OW  617   0.661   3.664   6.030  0.4962  0.2983  0.2148
  213SOL    HW2  618   0.602   3.647   5.956  1.8304  0.4916 -0.9344
  213SOL    HW3  619   0.679   3.577   6.067  0.3597  0.1312 -0.1101
  213SOL    MW4  620   0.656   3.650   6.025  0.6542  0.3018  0.0203
  214SOL     OW  621   0.147   6.114   1.364 -0.3212 -0.2242  0.2660
  214SOL    HW2  622   0.085   6.159   1.422 -0.4410  1.4056 -1.0602
  214SOL    HW3  623   0.230   6.117   1.411 -0.7598 -0.4295  1.0758
  214SOL    MW4  624   0.150   6.120   1.378 -0.3949 -0.0363  0.1978
  215SOL     OW  625   0.254   1.613   5.333  0.0741 -0.7692 -0.0041
  215SOL    HW2  626   0.173   1.619   5.282  0.2390  1.0178 -0.1188
  215SOL    HW3  627   0.281   1.704   5.345  0.0168 -1.0962  3.3820
  215SOL    MW4  628   0.247   1.626   5.328  0.0883 -0.5766  0.4275
  216SOL     OW  629   5.323   1.644   1.010  0.1328  0.0454 -0.8814
  216SOL    HW2  630   5.315   1.705   0.937  0.2748  0.1307 -0.8242
  216SOL    HW3  631   5.396   1.676   1.061 -1.1187  1.0743  0.3296
  216SOL    MW4  632   5.331   1.656   1.007 -0.0136  0.1924 -0.7141
  217SOL     OW  633   1.182   4.899   3.343 -0.2126 -0.2134 -0.2796
  217SOL    HW2  634   1.169   4.981   3.392 -0.8250 -0.0249 -0.7515
  217SOL    HW3  635   1.277   4.886   3.344 -0.2285 -0.5397  1.4890
  217SOL    MW4  636   1.193   4.908   3.350 -0.2955 -0.2316 -0.1085
  218SOL     OW  637   3.393   2.116   0.478  0.1344 -0.3600  0.1246
  218SOL    HW2  638   3.298   2.126   0.477  0.3328  2.1490 -0.7900
  218SOL    HW3  639   3.425   2.191   0.528  1.6872  0.0480 -1.3775
  218SOL    MW4  640   3.385   2.127   0.484  0.3655  0.0248 -0.1942
  219SOL     OW  641   0.464   0.492   3.008  0.2573  0.3901  0.1503
  219SOL    HW2  642   0.534   0.471   2.947  0.7496  0.5489  0.6501
  219SOL    HW3  643   0.424   0.407   3.028  1.7305 -0.0302  1.5498
  219SOL    MW4  644   0.468   0.478   3.003  0.5166  0.3556  0.4009
  220SOL     OW  645   4.725   3.893   0.063 -0.0040 -0.0016 -0.0580
  220SOL    HW2  646   4.786   3.960   0.032  0.0294 -0.2032 -0.4340
  220SOL    HW3  647   4.654   3.943   0.105 -1.5028  0.5105 -2.9172
  220SOL    MW4  648   4.723   3.908   0.064 -0.1973  0.0394 -0.4848
  221SOL     OW  649   0.101   2.598   3.356 -0.4776  0.3448  0.3023
  221SOL    HW2  650   0.072   2.670   3.411 -0.8228  0.3545  0.1124
  221SOL    HW3  651   0.106   2.523   3.415 -3.5451 -0.3187 -0.1304
  221SOL    MW4  652   0.098   2.597   3.371 -0.9278  0.2585  0.2201
  222SOL     OW  653   5.401   4.596   4.143  0.1171  0.5752 -0.8164
  222SOL    HW2  654   5.342   4.521   4.132  0.1292  0.1456  1.4823
  222SOL    HW3  655   5.348   4.672   4.116 -0.9769  0.0442 -0.2400
  222SOL    MW4  656   5.386   4.596   4.138 -0.0257  0.4485 -0.4371
  223SOL     OW  657   4.863   6.409   3.682 -0.3083 -0.1503  0.7907
  223SOL    HW2  658   4.900   6.382   3.598 -0.2305  0.1134  0.7397
  223SOL    HW3  659   4.773   6.377   3.680 -0.3628  0.0187  0.5293
  223SOL    MW4  660   4.856   6.401   3.670 -0.3052 -0.0932  0.7495
  224SOL     OW  661   3.156   3.071   4.457 -0.0201 -0.2923 -0.0019
  224SOL    HW2  662   3.098   3.125   4.403  0.0933 -0.3906 -0.2243
  224SOL    HW3  663   3.189   3.004   4.396  2.4944  1.3693 -0.6050
  224SOL    MW4  664   3.153   3.069   4.441  0.3266 -0.0861 -0.1108
  225SOL     OW  665   4.818   1.040   4.479 -0.3391 -0.0879  0.6192
  225SOL    HW2  666   4.744   1.031   4.539 -0.1958 -0.3861  0.7531
  225SOL    HW3  667   4.895   1.026   4.533 -0.1667  0.5225  0.5404
  225SOL    MW4  668   4.818   1.037   4.494 -0.2975 -0.0467  0.6265
  226SOL     OW  669   5.350   1.604   6.390  0.0063 -0.0922 -0.8444
  226SOL    HW2  670   5.430   1.572   6.349  0.6089 -0.1507  0.3346
  226SOL    HW3  671   5.294   1.630   6.317  0.5719 -1.2791 -1.7325
  226SOL    MW4  672   5.353   1.603   6.375  0.1604 -0.2565 -0.8060
  227SOL     OW  673   4.388   3.575   2.949  0.1151 -0.6919 -0.1765
  227SOL    HW2  674   4.312   3.629   2.971  0.6680 -0.5984  1.6793
  227SOL    HW3  675   4.388   3.572   2.853 -2.7536 -1.4868 -0.2382
  227SOL    MW4  676   4.378   3.582   2.939 -0.1904 -0.7844  0.0602
  228SOL     OW  677   6.209   0.303   4.028  1.1186  0.3198  0.2931
  228SOL    HW2  678   6.244   0.283   4.115 -0.3149  0.4721  0.9196
  228SOL    HW3  679   6.138   0.241   4.015  0.6812  0.9385 -0.3507
  228SOL    MW4  680   6.205   0.292   4.038  0.8718  0.4216  0.2908
  229SOL     OW  681   0.742   6.114   2.846  0.4151  0.1113 -0.1475
  229SOL    HW2  682   0.768   6.206   2.856 -0.2087  0.1440  1.4797
  229SOL    HW3  683   0.702   6.091   2.930  0.1566 -1.5282 -0.6808
  229SOL    MW4  684   0.740   6.123   2.858  0.2987 -0.1007 -0.0032
  230SOL     OW  685   5.434   5.280   6.284  0.0072 -0.0616  0.8780
  230SOL    HW2  686   5.494   5.231   6.340  1.6394 -0.2283 -0.8961
  230SOL    HW3  687   5.449   5.372   6.308  1.1756 -0.0841  0.3395
  230SOL    MW4  688   5.444   5.286   6.295  0.3767 -0.0866  0.5729
  231SOL     OW  689   4.808   5.855   0.346 -0.4107  0.0143 -0.0576
  231SOL    HW2  690   4.847   5.890   0.266  2.0116 -0.5745  0.7728
  231SOL    HW3  691   4.821   5.924   0.411  0.2662 -0.5858  0.4766
  231SOL    MW4  692   4.815   5.869   0.344 -0.0018 -0.1425  0.1225
  232SOL     OW  693   3.007   2.942   4.654  0.0534  0.4687  0.1622
  232SOL    HW2  694   2.955   3.016   4.685 -0.5895  0.8732 -1.7206
  232SOL    HW3  695   3.077   2.983   4.602  0.7559 -0.1839  0.5729
  232SOL    MW4  696   3.009   2.957   4.651  0.0613  0.4360 -0.0321
  233SOL     OW  697   4.357   3.019   4.051  0.1827  0.5577  0.3376
  233SOL    HW2  698   4.343   2.932   4.014 -0.6041  0.8238 -0.0209
  233SOL    HW3  699   4.351   3.006   4.146  1.3582  0.0145  0.3531
  233SOL    MW4  700   4.354   3.006   4.059  0.2340  0.5212  0.2924
  234SOL     OW  701   3.511   1.761   4.632 -0.1463  0.0741 -0.2640
  234SOL    HW2  702   3.496   1.743   4.539 -0.8407  1.9376 -0.5570
  234SOL    HW3  703   3.468   1.689   4.677  1.2249 -1.5303 -1.3564
  234SOL    MW4  704   3.504   1.749   4.625 -0.0570  0.1083 -0.4468
  235SOL     OW  705   4.744   5.280   4.282 -0.0638 -0.1518  0.3771
  235SOL    HW2  706   4.671   5.309   4.228 -0.6074  1.0882  1.7375
  235SOL    HW3  707   4.706   5.214   4.340 -0.0062  0.2180  0.8319
  235SOL    MW4  708   4.730   5.275   4.282 -0.1280  0.0606  0.6166
  236SOL     OW  709   3.425   5.573   1.370  0.4079  0.1176 -0.0276
  236SOL    HW2  710   3.362   5.634   1.408  0.9905  0.1073  0.9915
  236SOL    HW3  711   3.372   5.500   1.339 -0.0369 -0.1567  1.3299
  236SOL    MW4  712   3.410   5.572   1.371  0.4261  0.0801  0.2859
  237SOL     OW  713   0.328   2.327   4.088  0.0797 -0.3119 -1.0171
  237SOL    HW2  714   0.255   2.304   4.145  0.9851 -1.4324 -0.2784
  237SOL    HW3  715   0.318   2.271   4.011  0.4000 -0.7877 -0.7166
  237SOL    MW4  716   0.317   2.317   4.085  0.2414 -0.5225 -0.8800
  238SOL     OW  717   0.914   4.714   2.946 -0.2914  0.8821  0.4936
  238SOL    HW2  718   0.898   4.775   3.018  0.2122  1.9323 -0.2534
  238SOL    HW3  719   0.862   4.749   2.874 -0.1470  0.3166  0.1145
  238SOL    MW4  720   0.905   4.727   2.946 -0.2059  0.9460  0.3450
  239SOL     OW  721   4.906   5.672   3.277  0.0974  0.0173  0.1807
  239SOL    HW2  722   4.956   5.604   3.232  2.2119  0.3979  1.7771
  239SOL    HW3  723   4.973   5.725   3.321 -1.6703  1.2638  1.5070
  239SOL    MW4  724   4.922   5.670   3.277  0.1432  0.2320  0.5663
  240SOL     OW  725   0.716   2.667   1.425 -0.0345 -0.6088 -0.4071
  240SOL    HW2  726   0.654   2.635   1.359 -1.6277  0.5150  0.4663
  240SOL    HW3  727   0.709   2.763   1.419  1.3763 -0.4621 -0.0192
  240SOL    MW4  728   0.707   2.676   1.415 -0.0585 -0.4412 -0.2407
  241SOL     OW  729   4.724   4.837   2.714 -0.2868  0.0282  0.2805
  241SOL    HW2  730   4.660   4.898   2.676 -0.5016 -0.3526  0.0262
  241SOL    HW3  731   4.796   4.838   2.651 -0.1361  0.2868  0.4547
  241SOL    MW4  732   4.725   4.845   2.700 -0.2952  0.0121  0.2699
  242SOL     OW  733   1.420   1.506   3.758 -0.1808 -0.4042  0.4661
  242SOL    HW2  734   1.342   1.454   3.738 -1.7617  1.6335  0.9251
  242SOL    HW3  735   1.441   1.484   3.849 -1.0575 -0.0154  0.7765
  242SOL    MW4  736   1.412   1.496   3.767 -0.5051 -0.0840  0.5676
  243SOL     OW  737   2.688   0.833   2.579  0.2902  0.2871 -0.4958
  243SOL    HW2  738   2.599   0.855   2.554 -0.0358  0.9009  1.0831
  243SOL    HW3  739   2.678   0.782   2.660  1.3717  0.7663 -0.0378
  243SOL    MW4  740   2.675   0.829   2.586  0.3899  0.4313 -0.2270
  244SOL     OW  741   0.878   2.929   4.423 -0.0790 -1.0742  0.6953
  244SOL    HW2  742   0.824   2.982   4.365 -1.4425  0.4061  3.1063
  244SOL    HW3  743   0.965   2.930   4.384 -0.3479  1.9421 -0.0523
  244SOL    MW4  744   0.882   2.936   4.410 -0.2944 -0.4809  0.9148
  245SOL     OW  745   1.853   3.174   0.681 -0.8939 -0.4699 -0.3028
  245SOL    HW2  746   1.862   3.209   0.593 -1.2821 -0.5982 -0.3957
  245SOL    HW3  747   1.775   3.216   0.716  0.1125  0.7600  0.5523
  245SOL    MW4  748   1.844   3.184   0.674 -0.8123 -0.3246 -0.2023
  246SOL     OW  749   3.517   5.344   3.549  0.2120 -0.0291  0.0570
  246SOL    HW2  750   3.514   5.439   3.563  2.8670  0.0986  0.3016
  246SOL    HW3  751   3.537   5.335   3.456  1.8437 -0.2396  0.3995
  246SOL    MW4  752   3.520   5.356   3.538  0.7776 -0.0400  0.1345
  247SOL     OW  753   1.619   3.584   5.252 -0.4945 -0.0202  0.1146
  247SOL    HW2  754   1.693   3.540   5.210 -0.8413 -0.4346 -0.0730
  247SOL    HW3  755   1.635   3.677   5.237 -0.2746 -0.1319 -0.3678
  247SOL    MW4  756   1.631   3.590   5.245 -0.5113 -0.0896  0.0262
  248SOL     OW  757   0.927   2.786   4.085  0.1340 -0.2385 -0.3981
  248SOL    HW2  758   0.892   2.875   4.082  1.7580  0.7769  3.6966
  248SOL    HW3  759   0.879   2.739   4.016 -2.2566  3.2367 -1.3972
  248SOL    MW4  760   0.916   2.791   4.075  0.0329  0.3540  0.0104
  249SOL     OW  761   5.631   5.703   5.182 -0.8239 -0.1514 -0.0179
  249SOL    HW2  762   5.627   5.607   5.175 -2.5425 -0.0519 -1.1533
  249SOL    HW3  763   5.569   5.725   5.251 -0.1211  0.1446  0.5339
  249SOL    MW4  764   5.622   5.693   5.190 -0.9579 -0.0992 -0.0949
  250SOL     OW  765   3.667   5.338   4.499  1.0428 -0.3902  0.1654
  250SOL    HW2  766   3.610   5.409   4.529  2.6955  0.6603  0.9852
  250SOL    HW3  767   3.728   5.380   4.439  2.0195 -1.0999  0.6307
  250SOL    MW4  768   3.668   5.353   4.495  1.3897 -0.3452  0.3350
  251SOL     OW  769   3.955   3.941   5.784  0.3825  0.7081  0.2012
  251SOL    HW2  770   3.948   3.995   5.705  0.2698 -2.0237 -1.7835
  251SOL    HW3  771   4.048   3.917   5.788 -0.0663 -1.4247 -0.8026
  251SOL    MW4  772   3.966   3.945   5.774  0.3084  0.0663 -0.1931
  252SOL     OW  773   3.169   3.702   6.266  0.4421 -0.4460 -0.3070
  252SOL    HW2  774   3.180   3.673   6.356 -0.0979  0.9301  0.2209
  252SOL    HW3  775   3.248   3.672   6.221  1.6223  0.4747  1.0668
  252SOL    MW4  776   3.181   3.694   6.272  0.5266 -0.1430 -0.0561
  253SOL     OW  777   6.423   3.507   5.875  0.3106 -0.3897 -0.1222
  253SOL    HW2  778   6.509   3.548   5.884 -0.1295  0.9762 -1.7119
  253SOL    HW3  779   6.428   3.457   5.794 -0.4630 -0.1126 -0.3512
  253SOL    MW4  780   6.435   3.506   5.866  0.1505 -0.1729 -0.3621
  254SOL     OW  781   1.773   3.593   4.218  0.1736  0.2714 -0.4973
  254SOL    HW2  782   1.721   3.617   4.294 -2.1697  1.2407 -2.2831
  254SOL    HW3  783   1.850   3.650   4.222  0.1077  0.2750  1.1271
  254SOL    MW4  784   1.777   3.604   4.228 -0.1443  0.3998 -0.5186
  255SOL     OW  785   4.853   4.515   3.239  0.3687 -0.3288  0.1120
  255SOL    HW2  786   4.936   4.490   3.279  0.5814 -0.4403 -0.3867
  255SOL    HW3  787   4.831   4.600   3.278  0.2041 -0.7699  0.9924
  255SOL    MW4  788   4.861   4.523   3.249  0.3750 -0.4017  0.1623
  256SOL     OW  789   3.331   4.347   5.183  0.2824  0.1520  0.2477
  256SOL    HW2  790   3.321   4.262   5.225  0.5185 -0.2471 -0.5070
  256SOL    HW3  791   3.408   4.339   5.128 -0.1486  0.6048 -0.4365
  256SOL    MW4  792   3.340   4.335   5.181  0.2567  0.1591  0.0578
  257SOL     OW  793   5.020   5.200   4.537  0.5255  0.1780 -0.3695
  257SOL    HW2  794   4.973   5.273   4.498 -0.3980  0.1295  0.6164
  257SOL    HW3  795   4.965   5.171   4.610  0.3507 -2.1531 -1.3236
  257SOL    MW4  796   5.007   5.206   4.541  0.3806 -0.1360 -0.3653
  258SOL     OW  797   0.966   2.909   2.963 -0.0861  0.4746  0.2288
  258SOL    HW2  798   1.009   2.892   2.879  3.6071  0.2080  1.9722
  258SOL    HW3  799   0.875   2.880   2.950  0.7988 -1.2864 -3.0719
  258SOL    MW4  800   0.959   2.903   2.951  0.5179  0.2071  0.0234
  259SOL     OW  801   3.131   2.659   5.587 -0.0050  0.0877 -0.2953
  259SOL    HW2  802   3.177   2.613   5.517 -0.5707  1.0216 -1.3084
  259SOL    HW3  803   3.185   2.645   5.665  1.6112  0.5598 -1.2918
  259SOL    MW4  804   3.144   2.651   5.588  0.1336  0.2732 -0.5604
  260SOL     OW  805   4.043   1.387   3.910 -0.1902  0.1710 -0.1003
  260SOL    HW2  806   4.079   1.374   3.823  0.5550  0.8614  0.0900
  260SOL    HW3  807   3.990   1.309   3.926  0.1300 -0.2315 -0.9355
  260SOL    MW4  808   4.041   1.375   3.901 -0.0497  0.2090 -0.1854
  261SOL     OW  809   1.895   2.554   2.594 -0.2556 -0.1800 -0.3088
  261SOL    HW2  810   1.825   2.492   2.572 -0.7059 -0.4684  1.7500
  261SOL    HW3  811   1.974   2.517   2.554 -1.0004 -0.5695 -1.4920
  261SOL    MW4  812   1.896   2.541   2.586 -0.4133 -0.2694 -0.1933
  262SOL     OW  813   5.929   1.574   4.135 -0.5456  0.0299  0.1021
  262SOL    HW2  814   5.961   1.620   4.213  0.0105  1.5112 -0.9613
  262SOL    HW3  815   5.860   1.517   4.169 -0.6363  0.9622  1.6249
  262SOL    MW4  816   5.924   1.573   4.150 -0.4842  0.3483  0.1627
  263SOL     OW  817   3.982   5.030   1.282 -0.0247 -0.0417 -0.0234
  263SOL    HW2  818   3.888   5.017   1.300  0.0371 -1.0256 -0.3549
  263SOL    HW3  819   4.020   4.943   1.292  0.1384 -0.5992 -3.9986
  263SOL    MW4  820   3.974   5.017   1.286  0.0050 -0.2451 -0.5916
  264SOL     OW  821   0.177   1.044   4.660  0.2222  0.0825 -0.6799
  264SOL    HW2  822   0.107   1.048   4.725  1.5643  0.6170  0.8024
  264SOL    HW3  823   0.203   0.952   4.657  0.4330  0.1235 -0.1378
  264SOL    MW4  824   0.171   1.032   4.668  0.4271  0.1584 -0.4128
  265SOL     OW  825   1.817   6.145   2.873 -0.1919 -0.3936  0.1345
  265SOL    HW2  826   1.788   6.155   2.963 -1.8883  0.3306 -0.4567
  265SOL    HW3  827   1.802   6.052   2.853 -0.7597 -0.3345  0.2832
  265SOL    MW4  828   1.811   6.134   2.882 -0.4906 -0.2902  0.0761
  266SOL     OW  829   1.845   5.141   2.432  0.0788  0.0818 -0.8815
  266SOL    HW2  830   1.786   5.208   2.468 -1.5255 -2.3395  1.3227
  266SOL    HW3  831   1.809   5.058   2.463  1.8844 -1.8959 -3.6001
  266SOL    MW4  832   1.832   5.139   2.440  0.1054 -0.4986 -0.9494
  267SOL     OW  833   0.355   4.021   3.284 -0.3052 -0.4301  0.4500
  267SOL    HW2  834   0.313   4.012   3.370 -1.5695  3.2484  0.3750
  267SOL    HW3  835   0.420   4.090   3.296  1.0179 -1.3304 -1.1043
  267SOL    MW4  836   0.358   4.029   3.297 -0.2974 -0.0635  0.2351
  268SOL     OW  837   2.987   4.160   4.147  0.5429 -0.2960  0.0846
  268SOL    HW2  838   3.040   4.204   4.213 -1.3885 -0.1089  1.5948
  268SOL    HW3  839   2.945   4.088   4.194 -1.3901  0.2299 -0.7366
  268SOL    MW4  840   2.988   4.156   4.162  0.0331 -0.2019  0.1755
  269SOL     OW  841   4.207   3.325   6.031 -0.0643 -0.4634 -0.6591
  269SOL    HW2  842   4.142   3.380   6.075  0.8301  0.0024  0.1083
  269SOL    HW3  843   4.207   3.244   6.081 -1.0309 -1.0008 -1.4963
  269SOL    MW4  844   4.199   3.322   6.044 -0.0738 -0.4728 -0.6683
  270SOL     OW  845   5.603   0.142   2.485  0.2759 -0.2053  0.0351
  270SOL    HW2  846   5.566   0.084   2.552 -1.3691 -1.0973 -1.5592
  270SOL    HW3  847   5.646   0.082   2.423  1.7719  0.6057  0.2498
  270SOL    MW4  848   5.604   0.126   2.486  0.2562 -0.2160 -0.1469
  271SOL     OW  849   1.967   3.822   4.960  0.2183 -0.0900 -0.3315
  271SOL    HW2  850   1.975   3.818   5.056  1.4416 -0.6240 -0.4404
  271SOL    HW3  851   1.873   3.813   4.944 -0.0291  0.2175  0.8259
  271SOL    MW4  852   1.956   3.820   4.971  0.3471 -0.1199 -0.1932
  272SOL     OW  853   2.136   4.283   1.058 -0.2134  0.3403  0.4104
  272SOL    HW2  854   2.157   4.191   1.075 -0.2641  0.3443  0.4938
  272SOL    HW3  855   2.211   4.316   1.008 -0.1239  0.2958  0.5172
  272SOL    MW4  856   2.149   4.275   1.053 -0.2083  0.3350  0.4354
  273SOL     OW  857   0.972   5.808   3.708 -0.4985  0.0289  0.1103
  273SOL    HW2  858   1.042   5.837   3.650 -0.1350 -1.4300 -0.2079
  273SOL    HW3  859   1.016   5.781   3.788 -0.9567  1.5572  0.9239
  273SOL    MW4  860   0.987   5.808   3.711 -0.5110  0.0381  0.1757
  274SOL     OW  861   2.875   5.853   4.660 -0.1241 -0.2705 -0.1906
  274SOL    HW2  862   2.788   5.838   4.624 -0.2910  1.4188 -0.5882
  274SOL    HW3  863   2.921   5.902   4.591 -0.0303  1.9376  1.3270
  274SOL    MW4  864   2.870   5.858   4.646 -0.1337  0.2437 -0.0428
  275SOL     OW  865   2.272   1.469   3.472  0.2543  0.0033 -0.2814
  275SOL    HW2  866   2.188   1.513   3.468  0.8109  1.0500 -0.7846
  275SOL    HW3  867   2.258   1.395   3.531 -2.3493 -2.8648 -4.0573
  275SOL    MW4  868   2.259   1.465   3.479 -0.0158 -0.2370 -0.8460
  276SOL     OW  869   0.246   0.057   5.650  0.1927  0.3551  0.3948
  276SOL    HW2  870   0.283   0.068   5.562  0.7591  0.6862  0.6658
  276SOL    HW3  871   0.221  -0.035   5.654  1.7700 -0.0958  0.4796
  276SOL    MW4  872   0.248   0.047   5.639  0.4755  0.3393  0.4417
  277SOL     OW  873   3.156   4.108   5.605  0.3172  0.0516  0.3251
  277SOL    HW2  874   3.198   4.128   5.521  0.2077  1.8377  0.6504
  277SOL    HW3  875   3.220   4.053   5.651  0.3900 -0.9289 -0.8964
  277SOL    MW4  876   3.170   4.104   5.600  0.3123  0.1579  0.2069
  278SOL     OW  877   2.613   0.185   4.226 -0.4785 -0.3288 -0.7470
  278SOL    HW2  878   2.623   0.145   4.139  0.1928 -0.1079 -0.7769
  278SOL    HW3  879   2.644   0.275   4.215  0.6804 -0.6210 -0.0199
  278SOL    MW4  880   2.619   0.191   4.213 -0.2370 -0.3382 -0.6550
  279SOL     OW  881   5.460   4.780   2.269  0.1044 -0.3649 -0.2925
  279SOL    HW2  882   5.386   4.770   2.328 -1.2324 -1.8389 -2.0717
  279SOL    HW3  883   5.458   4.871   2.242  0.3899  0.1821  1.4163
  279SOL    MW4  884   5.450   4.790   2.273 -0.0343 -0.4872 -0.3018
  280SOL     OW  885   2.642   0.849   2.134  0.4240  0.1856 -0.0466
  280SOL    HW2  886   2.709   0.830   2.199 -0.0361 -1.1695  0.0656
  280SOL    HW3  887   2.647   0.776   2.072 -1.6254 -0.5482  0.5550
  280SOL    MW4  888   2.652   0.837   2.134  0.0929 -0.0900  0.0476
  281SOL     OW  889   2.693   2.664   5.259 -0.3257  0.0880 -0.3037
  281SOL    HW2  890   2.746   2.621   5.191 -2.0494 -2.0038 -0.4333
  281SOL    HW3  891   2.734   2.639   5.341  0.0892  0.2191 -0.4689
  281SOL    MW4  892   2.705   2.655   5.261 -0.4984 -0.1707 -0.3426
  282SOL     OW  893   3.914   0.328   3.882 -0.2407 -0.0968  0.5438
  282SOL    HW2  894   4.007   0.341   3.898 -0.1263  0.4297 -0.4921
  282SOL    HW3  895   3.883   0.278   3.958  0.5879  0.9593  1.6109
  282SOL    MW4  896   3.922   0.323   3.894 -0.1163  0.1120  0.5479
  283SOL     OW  897   0.039   1.048   4.946 -0.1682 -0.0783 -0.3544
  283SOL    HW2  898  -0.001   1.129   4.914  0.0662 -0.3259 -1.3175
  283SOL    HW3  899  -0.029   1.006   4.998 -1.0156 -0.2370 -1.5365
  283SOL    MW4  900   0.025   1.053   4.948 -0.2491 -0.1319 -0.6374
  284SOL     OW  901   0.897   3.961   3.799  0.4343 -0.0734  0.0517
  284SOL    HW2  902   0.906   4.049   3.836 -0.3462  0.6564 -1.3956
  284SOL    HW3  903   0.986   3.926   3.798  0.5310 -0.0428  2.2950
  284SOL    MW4  904   0.910   3.968   3.804  0.3441  0.0270  0.1567
  285SOL     OW  905   1.561   4.030   4.207 -0.0838  0.5978  0.1563
  285SOL    HW2  906   1.476   4.027   4.164 -0.2075  0.1192  0.4253
  285SOL    HW3  907   1.542   4.031   4.300  0.2012 -1.3513  0.2823
  285SOL    MW4  908   1.548   4.030   4.213 -0.0625  0.2775  0.2084
  286SOL     OW  909   2.535   1.688   0.059 -0.1607  0.6289 -0.4260
  286SOL    HW2  910   2.575   1.670  -0.026 -1.2978 -1.6965 -0.5696
  286SOL    HW3  911   2.446   1.653   0.051 -0.2776  0.3036  1.7294
  286SOL    MW4  912   2.528   1.681   0.046 -0.3262  0.2792 -0.1606
  287SOL     OW  913   5.677   6.427   4.579  0.6905  0.6423  0.3496
  287SOL    HW2  914   5.585   6.452   4.591  0.8806  1.4938  0.0904
  287SOL    HW3  915   5.673   6.339   4.540 -0.0332  0.9441 -0.2915
  287SOL    MW4  916   5.664   6.419   4.575  0.6201  0.7945  0.2308
  288SOL     OW  917   1.103   4.304   4.219  0.1509  0.1516  0.5727
  288SOL    HW2  918   1.158   4.305   4.140  0.9417  0.2944  1.1208
  288SOL    HW3  919   1.165   4.307   4.292 -0.5660 -0.2175  1.2091
  288SOL    MW4  920   1.119   4.305   4.218  0.1607  0.1218  0.7290
  289SOL     OW  921   2.978   1.306   0.396  0.5094 -0.1368  0.1251
  289SOL    HW2  922   2.975   1.216   0.430 -0.2649 -0.8549 -1.6645
  289SOL    HW3  923   2.977   1.361   0.474 -0.8683 -1.6595  1.2689
  289SOL    MW4  924   2.977   1.301   0.411  0.2254 -0.4325  0.0399
  290SOL     OW  925   4.704   2.503   5.857  0.4830 -0.3451  0.4037
  290SOL    HW2  926   4.771   2.531   5.795  1.9802 -0.5693  1.8408
  290SOL    HW3  927   4.749   2.441   5.915 -1.2773 -1.3832  0.7439
  290SOL    MW4  928   4.719   2.499   5.857  0.4483 -0.5117  0.6382
  291SOL     OW  929   1.873   4.367   1.947  0.4351 -0.1556 -0.4880
  291SOL    HW2  930   1.922   4.450   1.949 -0.9552  0.7089  1.5490
  291SOL    HW3  931   1.923   4.309   2.005 -0.9972  0.8478  1.8975
  291SOL    MW4  932   1.886   4.370   1.955  0.0627  0.0908  0.0955
  292SOL     OW  933   4.407   6.235   5.233  0.2503 -0.2546  0.0098
  292SOL    HW2  934   4.378   6.147   5.258  1.1018 -0.6143 -0.2526
  292SOL    HW3  935   4.385   6.241   5.139 -1.5274  0.5251  0.4309
  292SOL    MW4  936   4.400   6.224   5.224  0.1281 -0.1992  0.0307
  293SOL     OW  937   4.366   6.443   6.440  0.0580 -0.3922 -0.1394
  293SOL    HW2  938   4.308   6.386   6.491  0.2834 -0.8466 -0.3892
  293SOL    HW3  939   4.322   6.528   6.441 -0.5200 -0.6859 -0.1690
  293SOL    MW4  940   4.353   6.447   6.447  0.0115 -0.4909 -0.1762
  294SOL     OW  941   1.400   1.058   5.908  0.5914  0.6046 -0.5055
  294SOL    HW2  942   1.493   1.039   5.892  0.6637 -0.2245  0.7546
  294SOL    HW3  943   1.397   1.088   5.999 -0.2835  1.3479 -0.7720
  294SOL    MW4  944   1.412   1.059   5.918  0.4855  0.5933 -0.3744
  295SOL     OW  945   2.414   0.118   1.604 -0.2049 -0.7604  0.6875
  295SOL    HW2  946   2.487   0.057   1.618  0.1897 -0.2961  0.6859
  295SOL    HW3  947   2.344   0.084   1.659 -0.0662 -1.3452  0.5122
  295SOL    MW4  948   2.415   0.105   1.613 -0.1345 -0.7763  0.6641
  296SOL     OW  949   2.261   0.583   3.548 -0.0406  0.5553 -0.5199
  296SOL    HW2  950   2.350   0.601   3.578  0.0633  1.2896 -1.2373
  296SOL    HW3  951   2.270   0.574   3.453 -0.5910 -0.2886 -0.4986
  296SOL    MW4  952   2.274   0.584   3.540 -0.0995  0.5409 -0.6118
  297SOL     OW  953   4.244   2.135   4.959  0.7482 -0.3475  0.0204
  297SOL    HW2  954   4.275   2.199   4.895  0.1880 -0.5694 -0.4814
  297SOL    HW3  955   4.158   2.108   4.927  0.9275 -1.2672  0.2829
  297SOL    MW4  956   4.237   2.140   4.946  0.6979 -0.4981 -0.0112
  298SOL     OW  957   5.718   6.042   0.111 -0.6251  0.7694  0.3060
  298SOL    HW2  958   5.687   5.976   0.173 -1.3740 -0.5986 -1.4419
  298SOL    HW3  959   5.799   6.005   0.075 -1.6501  0.1636 -1.5412
  298SOL    MW4  960   5.725   6.028   0.114 -0.8591  0.5090 -0.1683
  299SOL     OW  961   5.827   3.109   1.875 -0.1633 -0.8556  0.1480
  299SOL    HW2  962   5.819   3.200   1.845  1.9498  0.2981  2.6248
  299SOL    HW3  963   5.742   3.088   1.913  0.2424  1.4065  2.5829
  299SOL    MW4  964   5.815   3.119   1.876  0.1691 -0.4049  0.7961
  300SOL     OW  965   4.737   5.081   3.978 -0.0929 -0.0024  0.1501
  300SOL    HW2  966   4.648   5.058   4.005 -0.1633 -0.6722 -0.6032
  300SOL    HW3  967   4.730   5.171   3.946 -0.6382 -0.2432 -0.4517
  300SOL    MW4  968   4.724   5.090   3.977 -0.1742 -0.1226 -0.0287
  301SOL     OW  969   0.813   2.504   6.028 -0.3686 -0.4623  0.2648
  301SOL    HW2  970   0.754   2.430   6.026 -1.0414  0.0755 -0.1816
  301SOL    HW3  971   0.768   2.573   5.980  0.3179  0.1830  0.5111
  301SOL    MW4  972   0.800   2.504   6.022 -0.3668 -0.3062  0.2384
  302SOL     OW  973   1.188   0.975   1.084  0.3264  0.4450  0.4656
  302SOL    HW2  974   1.218   0.884   1.079  0.0277  0.3374  0.6638
  302SOL    HW3  975   1.241   1.021   1.018 -1.6535 -0.4547 -1.9241
  302SOL    MW4  976   1.199   0.969   1.075  0.0258  0.3121  0.1765
  303SOL     OW  977   1.853   1.266   6.338  0.1322  0.2244 -0.4174
  303SOL    HW2  978   1.880   1.275   6.429 -1.0453 -0.2769  0.0061
  303SOL    HW3  979   1.877   1.349   6.297 -0.3481  0.8999  0.6307
  303SOL    MW4  980   1.860   1.278   6.345 -0.0865  0.2474 -0.2232
  304SOL     OW  981   4.033   3.770   4.375  0.0266 -0.0578 -0.1694
  304SOL    HW2  982   3.958   3.830   4.374 -0.8483 -1.1152 -0.1597
  304SOL    HW3  983   4.088   3.799   4.303 -1.1059 -0.1120 -1.0841
  304SOL    MW4  984   4.030   3.782   4.365 -0.2383 -0.2045 -0.2888
  305SOL     OW  985   5.292   1.727   5.704  0.1945  0.1555  0.3590
  305SOL    HW2  986   5.372   1.679   5.682  0.1880  0.7172 -0.9791
  305SOL    HW3  987   5.240   1.665   5.755  1.0562 -0.5565  0.3973
  305SOL    MW4  988   5.295   1.712   5.708  0.3073  0.1357  0.1875
  306SOL     OW  989   0.892   2.288   3.232 -0.5156 -0.0031 -0.4448
  306SOL    HW2  990   0.934   2.234   3.165 -3.6489 -0.6266 -2.0670
  306SOL    HW3  991   0.892   2.376   3.195 -0.7035 -0.0172 -0.4774
  306SOL    MW4  992   0.898   2.292   3.218 -0.9538 -0.0872 -0.6631
  307SOL     OW  993   5.548   3.780   5.567 -0.0802  0.5287  0.0468
  307SOL    HW2  994   5.630   3.828   5.558 -0.8177  2.2015  1.6085
  307SOL    HW3  995   5.561   3.725   5.644 -0.9062  2.0283  1.3306
  307SOL    MW4  996   5.560   3.779   5.576 -0.2865  0.9472  0.4222
  308SOL     OW  997   5.857   0.329   1.458  0.2316  0.2122  0.4213
  308SOL    HW2  998   5.914   0.291   1.390 -0.6952 -0.4724 -0.0090
  308SOL    HW3  999   5.776   0.277   1.452 -0.3708  1.0457  1.1282
  308SOL    MW4 1000   5.854   0.317   1.448  0.0299  0.2318  0.4578
  309SOL     OW 1001   1.572   3.775   2.571 -0.2587 -0.1966  0.7349
  309SOL    HW2 1002   1.547   3.773   2.664 -1.2032 -0.0764  0.4935
  309SOL    HW3 1003   1.525   3.701   2.532  0.5012 -0.5293  0.4369
  309SOL    MW4 1004   1.562   3.765   2.578 -0.2830 -0.2246  0.6638
  310SOL     OW 1005   5.900   6.465   3.370 -0.0336 -0.3957  0.6442
  310SOL    HW2 1006   5.854   6.435   3.448 -0.8095 -0.9606 -0.0174
  310SOL    HW3 1007   5.850   6.429   3.297  0.8922 -0.1834 -0.1138
  310SOL    MW4 1008   5.887   6.457   3.370 -0.0139 -0.4422  0.4569
  311SOL     OW 1009   3.071   3.833   3.306  0.2066 -0.0924 -0.4121
  311SOL    HW2 1010   3.026   3.918   3.308 -1.3036 -0.8382  1.5235
  311SOL    HW3 1011   3.077   3.811   3.213  0.9489  2.2474 -0.9953
  311SOL    MW4 1012   3.065   3.842   3.294  0.1053  0.1179 -0.2337
  312SOL     OW 1013   1.132   4.466   1.834 -0.4029 -0.8434  0.3228
  312SOL    HW2 1014   1.128   4.372   1.815  0.9885 -0.6021 -1.3127
  312SOL    HW3 1015   1.210   4.477   1.888 -0.3553 -0.5760  0.2026
  312SOL    MW4 1016   1.142   4.455   1.839 -0.2130 -0.7763  0.0911
  313SOL     OW 1017   1.443   2.554   2.651  0.5756  0.0544  0.3708
  313SOL    HW2 1018   1.494   2.628   2.683  1.3141 -1.0109  1.7407
  313SOL    HW3 1019   1.506   2.484   2.638  0.1146  0.0152 -2.2937
  313SOL    MW4 1020   1.458   2.555   2.653  0.6122 -0.0914  0.2000
  314SOL     OW 1021   2.661   4.854   3.256 -0.2228 -0.4962  0.9692
  314SOL    HW2 1022   2.615   4.829   3.176 -1.0769  0.1071  1.2593
  314SOL    HW3 1023   2.593   4.856   3.323 -0.2961  2.6725  0.9664
  314SOL    MW4 1024   2.646   4.851   3.254 -0.3452  0.0015  1.0071
  315SOL     OW 1025   5.084   5.118   3.405  0.2010  0.5837  0.2040
  315SOL    HW2 1026   5.108   5.163   3.324  2.7248 -0.4491  0.3049
  315SOL    HW3 1027   5.054   5.032   3.376 -2.5083  1.4374  0.1781
  315SOL    MW4 1028   5.083   5.112   3.390  0.1765  0.5601  0.2139
  316SOL     OW 1029   2.382   1.360   3.264  1.0148 -0.2347 -0.0782
  316SOL    HW2 1030   2.330   1.389   3.339  0.4557 -0.5911 -0.3279
  316SOL    HW3 1031   2.338   1.282   3.232  0.2599  0.8409 -1.8060
  316SOL    MW4 1032   2.369   1.354   3.270  0.8415 -0.1398 -0.3391
  317SOL     OW 1033   4.827   3.319   5.349  0.2445  0.1466  0.0144
  317SOL    HW2 1034   4.916   3.343   5.376 -0.0916 -0.3848  1.6800
  317SOL    HW3 1035   4.795   3.396   5.302  1.5461  0.3700 -0.5571
  317SOL    MW4 1036   4.834   3.333   5.346  0.3719  0.1059  0.1587
  318SOL     OW 1037   1.678   6.470   6.328  0.1738 -0.0921 -0.1658
  318SOL    HW2 1038   1.712   6.411   6.395  2.5349  0.6343 -0.6408
  318SOL    HW3 1039   1.733   6.455   6.251 -0.4678  1.2728 -0.9414
  318SOL    MW4 1040   1.690   6.460   6.327  0.4006  0.1838 -0.3308
  319SOL     OW 1041   4.983   5.068   0.914  0.0147  0.6271 -0.0247
  319SOL    HW2 1042   4.909   5.109   0.869  0.3050 -0.4026 -1.5032
  319SOL    HW3 1043   4.996   4.985   0.868  2.2314  0.8820  0.0547
  319SOL    MW4 1044   4.975   5.062   0.902  0.3455  0.5249 -0.2093
  320SOL     OW 1045   5.454   1.182   5.039 -0.0105  0.2448  0.4687
  320SOL    HW2 1046   5.452   1.273   5.070 -1.0836  0.7166 -0.8714
  320SOL    HW3 1047   5.501   1.135   5.107 -0.2242  1.6436  1.6475
  320SOL    MW4 1048   5.460   1.188   5.052 -0.1803  0.4916  0.4474
  321SOL     OW 1049   2.486   3.742   2.461  0.4147 -0.0049  0.2926
  321SOL    HW2 1050   2.556   3.781   2.512  0.1298  0.1801  0.5466
  321SOL    HW3 1051   2.438   3.687   2.523 -0.9221  1.4920  0.6360
  321SOL    MW4 1052   2.489   3.740   2.476  0.2007  0.2170  0.3715
  322SOL     OW 1053   6.384   3.793   3.698  0.1107 -0.1880 -0.0224
  322SOL    HW2 1054   6.300   3.839   3.704 -0.1761 -0.5529 -0.9760
  322SOL    HW3 1055   6.420   3.796   3.786 -0.7577  0.2548  0.3273
  322SOL    MW4 1056   6.378   3.800   3.710 -0.0417 -0.1777 -0.1021
  323SOL     OW 1057   1.455   0.286   2.395  0.3955  0.1066  0.2844
  323SOL    HW2 1058   1.362   0.272   2.413  0.4500 -1.5603 -0.4868
  323SOL    HW3 1059   1.475   0.370   2.435 -1.1700 -0.0406  1.4745
  323SOL    MW4 1060   1.445   0.295   2.403  0.1961 -0.1327  0.3396
  324SOL     OW 1061   0.508   2.613   1.214 -0.1889 -0.6952 -0.1947
  324SOL    HW2 1062   0.429   2.630   1.266  0.8301  0.5068  1.0311
  324SOL    HW3 1063   0.519   2.691   1.160  0.0832 -0.9184 -0.4687
  324SOL    MW4 1064   0.499   2.625   1.214 -0.0186 -0.5661 -0.0691
  325SOL     OW 1065   0.088   4.244   0.810 -0.6401 -0.8855  0.3771
  325SOL    HW2 1066   0.169   4.204   0.842  0.1559 -0.6994 -1.2941
  325SOL    HW3 1067   0.059   4.301   0.882  2.0944  1.0139  0.1309
  325SOL    MW4 1068   0.095   4.246   0.824 -0.1743 -0.6104  0.1241
  326SOL     OW 1069   1.067   5.577   1.321  0.0210 -0.5689 -0.0709
  326SOL    HW2 1070   1.017   5.510   1.275  0.1211 -0.9764  0.4120
  326SOL    HW3 1071   1.158   5.559   1.299  0.1487 -1.3465  1.0322
  326SOL    MW4 1072   1.072   5.566   1.312  0.0510 -0.7252  0.1383
  327SOL     OW 1073   1.103   2.484   2.191  0.8055  0.0272 -0.1115
  327SOL    HW2 1074   1.181   2.526   2.226  0.3688  0.9677 -0.2131
  327SOL    HW3 1075   1.037   2.494   2.260  0.2593  0.9097 -0.7232
  327SOL    MW4 1076   1.105   2.491   2.204  0.6758  0.2677 -0.2056
  328SOL     OW 1077   3.873   4.374   5.959  0.6561 -0.3942 -0.1527
  328SOL    HW2 1078   3.801   4.350   5.900  2.0965 -0.0450 -2.1178
  328SOL    HW3 1079   3.873   4.304   6.025 -1.4684 -0.3964 -0.0803
  328SOL    MW4 1080   3.863   4.361   5.960  0.5659 -0.3484 -0.4025
  329SOL     OW 1081   2.067   3.557   1.978  0.0918 -0.2013  0.1659
  329SOL    HW2 1082   2.150   3.512   1.966 -0.5591 -1.5298  0.5322
  329SOL    HW3 1083   2.011   3.494   2.023 -1.2527  0.5114 -0.4347
  329SOL    MW4 1084   2.070   3.543   1.982 -0.1715 -0.2825  0.1350
  330SOL     OW 1085   0.040   0.557   2.596  0.0472  0.0292 -0.2071
  330SOL    HW2 1086  -0.013   0.636   2.600 -0.0004  0.3792 -4.1345
  330SOL    HW3 1087  -0.014   0.490   2.638 -1.4626  1.3249 -0.0011
  330SOL    MW4 1088   0.026   0.558   2.602 -0.1583  0.2463 -0.6981
  331SOL     OW 1089   3.264   3.687   0.505  0.6368 -0.3185 -0.2591
  331SOL    HW2 1090   3.254   3.668   0.598 -1.0309 -1.3649 -0.6008
  331SOL    HW3 1091   3.358   3.691   0.491  0.9239  0.5251  1.5858
  331SOL    MW4 1092   3.275   3.685   0.515  0.4546 -0.3453 -0.0608
  332SOL     OW 1093   0.730   4.091   4.123  0.1438  0.0435 -0.3667
  332SOL    HW2 1094   0.741   4.181   4.154 -0.9459 -0.4830  1.7011
  332SOL    HW3 1095   0.647   4.092   4.076  1.7452  0.8169 -3.4758
  332SOL    MW4 1096   0.721   4.103   4.121  0.2113  0.0761 -0.5041
  333SOL     OW 1097   2.795   3.246   1.630  0.3224 -0.2328  0.1010
  333SOL    HW2 1098   2.848   3.297   1.569  1.1271 -1.0222  0.1248
  333SOL    HW3 1099   2.723   3.305   1.654  0.9580  0.7085 -0.2483
  333SOL    MW4 1100   2.792   3.261   1.625  0.5124 -0.2128  0.0580
  334SOL     OW 1101   5.987   2.628   6.380  0.1747 -0.3510  0.3978
  334SOL    HW2 1102   6.051   2.674   6.325 -1.7635 -0.0599 -1.7572
  334SOL    HW3 1103   5.924   2.696   6.406 -1.1489 -1.2027 -0.4441
  334SOL    MW4 1104   5.987   2.643   6.376 -0.2556 -0.4250  0.0024
  335SOL     OW 1105   2.794   3.768   4.949  0.5153 -1.2662 -0.0994
  335SOL    HW2 1106   2.721   3.795   5.005  0.0503 -0.5868 -0.9967
  335SOL    HW3 1107   2.769   3.682   4.917 -1.2530  0.0316 -2.5408
  335SOL    MW4 1108   2.781   3.760   4.952  0.2206 -1.0054 -0.5399
  336SOL     OW 1109   2.620   0.336   5.635  0.3035  0.1388 -0.0581
  336SOL    HW2 1110   2.569   0.321   5.556 -0.6314 -0.9857  0.7230
  336SOL    HW3 1111   2.652   0.426   5.626 -1.3699  0.7002 -0.8385
  336SOL    MW4 1112   2.617   0.346   5.624 -0.0407  0.0645 -0.0580
  337SOL     OW 1113   2.343   4.573   3.802  0.5664  0.9122 -1.1633
  337SOL    HW2 1114   2.261   4.589   3.849  1.4051  0.9453  0.3356
  337SOL    HW3 1115   2.357   4.653   3.752  0.7859  1.8124  0.2876
  337SOL    MW4 1116   2.334   4.586   3.802  0.7060  1.0353 -0.7741
  338SOL     OW 1117   0.642   0.217   1.275  0.1585 -0.5058  0.1231
  338SOL    HW2 1118   0.702   0.189   1.345  1.1709  0.7108 -0.2417
  338SOL    HW3 1119   0.648   0.312   1.275 -0.2809 -0.4663 -1.2421
  338SOL    MW4 1120   0.651   0.226   1.284  0.2341 -0.3400 -0.1051
  339SOL     OW 1121   4.434   2.535   4.476  0.2278 -0.0444 -0.2674
  339SOL    HW2 1122   4.389   2.451   4.484 -0.5463  0.2785 -1.1219
  339SOL    HW3 1123   4.399   2.587   4.548  0.5204 -0.3581  0.1091
  339SOL    MW4 1124   4.423   2.531   4.487  0.1642 -0.0431 -0.3305
  340SOL     OW 1125   6.203   1.643   0.079 -0.0902  0.0406  0.3299
  340SOL    HW2 1126   6.229   1.561   0.123 -1.6396  0.0696  1.3568
  340SOL    HW3 1127   6.286   1.687   0.063  0.8111 -1.7792 -0.3793
  340SOL    MW4 1128   6.218   1.638   0.083 -0.1757 -0.1957  0.3719
  341SOL     OW 1129   4.723   1.345   3.428 -0.1338  0.1881 -0.3349
  341SOL    HW2 1130   4.735   1.327   3.521  1.3595  0.1659 -0.5159
  341SOL    HW3 1131   4.648   1.405   3.425 -0.8776 -0.6347  0.7792
  341SOL    MW4 1132   4.714   1.350   3.440 -0.0349  0.0766 -0.2118
  342SOL     OW 1133   0.974   3.392   1.496  0.2673  0.4948  0.0198
  342SOL    HW2 1134   0.945   3.483   1.498 -0.9791  0.1552 -1.0539
  342SOL    HW3 1135   0.932   3.351   1.571  0.5218  0.7103  0.2832
  342SOL    MW4 1136   0.965   3.399   1.506  0.1364  0.4785 -0.0871
  343SOL     OW 1137   3.529   0.511   3.726  0.3847  0.0148  0.0089
  343SOL    HW2 1138   3.466   0.463   3.673 -0.9669  1.0948  0.5665
  343SOL    HW3 1139   3.555   0.585   3.672  0.3752  0.1327  0.1641
  343SOL    MW4 1140   3.524   0.514   3.712  0.2051  0.1729  0.1030
  344SOL     OW 1141   4.594   2.958   6.369  0.2431  0.3583 -0.6714
  344SOL    HW2 1142   4.662   3.024   6.378 -0.4488  1.1994 -1.3731
  344SOL    HW3 1143   4.620   2.887   6.427  0.3068  1.8377  1.1734
  344SOL    MW4 1144   4.606   2.957   6.378  0.1602  0.6645 -0.5206
  345SOL     OW 1145   2.783   6.387   3.731  0.0962 -0.3217  0.2023
  345SOL    HW2 1146   2.727   6.354   3.661  0.5956 -0.1651 -0.2718
  345SOL    HW3 1147   2.836   6.311   3.757  0.4634 -0.1800 -0.1288
  345SOL    MW4 1148   2.783   6.372   3.726  0.2105 -0.2823  0.0961
  346SOL     OW 1149   4.211   2.275   5.330  0.1061  0.3227  0.1896
  346SOL    HW2 1150   4.284   2.333   5.308 -0.9768  0.8641 -2.3357
  346SOL    HW3 1151   4.248   2.187   5.327  0.6600  0.5873 -1.1565
  346SOL    MW4 1152   4.225   2.271   5.327  0.0363  0.4290 -0.3212
  347SOL     OW 1153   3.502   6.253   3.025 -0.3055  0.0132  0.2488
  347SOL    HW2 1154   3.428   6.311   3.042 -1.1469 -1.2457  1.0943
  347SOL    HW3 1155   3.462   6.167   3.010  0.9641 -0.5919  0.2043
  347SOL    MW4 1156   3.487   6.249   3.025 -0.2490 -0.2328  0.3544
  348SOL     OW 1157   0.440   6.068   0.187 -0.5328  0.0913 -0.0857
  348SOL    HW2 1158   0.446   6.163   0.176 -0.9953 -0.0034 -1.3409
  348SOL    HW3 1159   0.346   6.050   0.195 -0.4700 -0.2761 -0.1339
  348SOL    MW4 1160   0.428   6.078   0.186 -0.5856  0.0303 -0.2577
  349SOL     OW 1161   4.605   0.375   0.301  0.1745  0.1547  0.4112
  349SOL    HW2 1162   4.647   0.369   0.387  0.2637 -0.3095  0.3388
  349SOL    HW3 1163   4.597   0.468   0.285  2.6565  0.3184 -0.2792
  349SOL    MW4 1164   4.609   0.386   0.311  0.5137  0.1151  0.3106
  350SOL     OW 1165   0.814   0.742   3.595  0.4055 -0.2699 -0.2385
  350SOL    HW2 1166   0.727   0.702   3.590  0.7588 -1.1724  0.5952
  350SOL    HW3 1167   0.845   0.745   3.504  0.2355 -1.6105 -0.3599
  350SOL    MW4 1168   0.807   0.737   3.582  0.4297 -0.5659 -0.1445
  351SOL     OW 1169   5.005   3.416   4.156  0.7780  0.5204  0.1966
  351SOL    HW2 1170   4.979   3.375   4.238 -0.1872  1.6587  0.4931
  351SOL    HW3 1171   5.086   3.463   4.177  0.1088  1.4720  0.7359
  351SOL    MW4 1172   5.012   3.417   4.170  0.5624  0.7961  0.3068
  352SOL     OW 1173   4.314   5.215   4.391  0.4837 -0.0690  0.2208
  352SOL    HW2 1174   4.335   5.161   4.315 -0.3577  0.3321 -0.3152
  352SOL    HW3 1175   4.346   5.302   4.368 -1.0522  0.3951 -0.3271
  352SOL    MW4 1176   4.321   5.220   4.378  0.1700  0.0451  0.0778
  353SOL     OW 1177   0.041   5.384   1.215  0.1331 -0.4781  0.1868
  353SOL    HW2 1178  -0.010   5.445   1.161 -0.7402 -0.4543  1.0267
  353SOL    HW3 1179   0.033   5.418   1.304  2.3493  0.0275  0.2675
  353SOL    MW4 1180   0.034   5.397   1.219  0.3103 -0.4082  0.3083
  354SOL     OW 1181   6.155   5.663   5.560 -0.2791  0.1603 -0.2800
  354SOL    HW2 1182   6.109   5.723   5.502 -0.7889  2.2840  2.1377
  354SOL    HW3 1183   6.086   5.609   5.599 -0.3806  0.9766  0.7293
  354SOL    MW4 1184   6.140   5.664   5.558 -0.3598  0.5482  0.1722
  355SOL     OW 1185   4.819   5.001   0.544 -0.7230 -0.4430  0.6531
  355SOL    HW2 1186   4.839   4.937   0.613  0.7544 -0.7907 -0.0581
  355SOL    HW3 1187   4.891   4.992   0.482 -1.9172  0.0246 -0.8410
  355SOL    MW4 1188   4.831   4.991   0.545 -0.6857 -0.4272  0.3621
  356SOL     OW 1189   3.673   0.696   3.557  1.1399 -0.0732 -0.3906
  356SOL    HW2 1190   3.701   0.783   3.583 -0.4629  0.6148 -0.8725
  356SOL    HW3 1191   3.646   0.705   3.465  0.1441 -0.8684 -0.1955
  356SOL    MW4 1192   3.673   0.709   3.548  0.7970 -0.0874 -0.4284
  357SOL     OW 1193   3.837   5.900   1.169  0.2786 -0.4863  0.1165
  357SOL    HW2 1194   3.758   5.849   1.153  0.8770 -1.3476 -0.1297
  357SOL    HW3 1195   3.885   5.897   1.086 -0.3601  1.7512 -0.4265
  357SOL    MW4 1196   3.833   5.893   1.156  0.2733 -0.3047  0.0124
  358SOL     OW 1197   1.734   4.152   0.688 -0.8301  0.5948  0.1896
  358SOL    HW2 1198   1.650   4.192   0.707  0.4994  3.3528  0.6890
  358SOL    HW3 1199   1.778   4.146   0.772 -0.4247 -0.6360 -0.0906
  358SOL    MW4 1200   1.729   4.156   0.701 -0.6012  0.7963  0.2185
  359SOL     OW 1201   3.837   1.384   0.593 -0.1935 -0.5509  0.4997
  359SOL    HW2 1202   3.916   1.397   0.645 -0.4298 -0.9831  0.9797
  359SOL    HW3 1203   3.837   1.456   0.530  2.1396 -2.1971 -1.5507
  359SOL    MW4 1204   3.847   1.395   0.592  0.0831 -0.8251  0.2925
  360SOL     OW 1205   4.002   0.675   4.947 -0.1422 -0.3509  0.3506
  360SOL    HW2 1206   4.056   0.731   5.002  1.1007 -1.3944  0.2295
  360SOL    HW3 1207   4.063   0.634   4.887 -1.5212  1.2102 -2.3013
  360SOL    MW4 1208   4.017   0.677   4.947 -0.1601 -0.2826 -0.0152
  361SOL     OW 1209   0.879   0.244   3.694 -0.1843  0.5286  1.0381
  361SOL    HW2 1210   0.952   0.289   3.650 -0.8782  0.6876  0.0035
  361SOL    HW3 1211   0.920   0.169   3.738  0.5269  0.1938 -0.1282
  361SOL    MW4 1212   0.894   0.240   3.694 -0.1820  0.5054  0.7477
  362SOL     OW 1213   0.271   0.252   1.968  0.5932  0.2534  0.3430
  362SOL    HW2 1214   0.262   0.160   1.941  0.7072  0.0862  0.8618
  362SOL    HW3 1215   0.226   0.301   1.899  0.8412 -0.1660 -0.1263
  362SOL    MW4 1216   0.264   0.246   1.955  0.6410  0.1760  0.3496
  363SOL     OW 1217   0.377   6.399   1.401 -0.0234  0.7431  0.0873
  363SOL    HW2 1218   0.464   6.400   1.439 -0.4343 -1.7695  1.2861
  363SOL    HW3 1219   0.320   6.434   1.470 -0.2696 -0.0715  0.3063
  363SOL    MW4 1220   0.381   6.404   1.415 -0.1101  0.3041  0.2744
  364SOL     OW 1221   5.121   4.640   0.678 -0.2896 -0.1292 -0.3359
  364SOL    HW2 1222   5.062   4.566   0.662 -0.4630 -0.1887  0.5492
  364SOL    HW3 1223   5.162   4.656   0.593  1.8533 -3.0217 -0.0041
  364SOL    MW4 1224   5.118   4.632   0.664 -0.0297 -0.5187 -0.1754
  365SOL     OW 1225   0.147   3.656   0.852 -0.6423  0.0944 -0.5428
  365SOL    HW2 1226   0.069   3.644   0.906 -0.1650 -1.4737 -0.1589
  365SOL    HW3 1227   0.174   3.568   0.828  0.6107  0.6419 -1.2690
  365SOL    MW4 1228   0.140   3.643   0.856 -0.4140 -0.0403 -0.5879
  366SOL     OW 1229   4.524   4.161   1.397  0.1549  0.0809 -0.3027
  366SOL    HW2 1230   4.435   4.198   1.402 -0.9808 -2.5963  1.6993
  366SOL    HW3 1231   4.551   4.150   1.488  2.6760  0.9137 -0.8643
  366SOL    MW4 1232   4.516   4.164   1.409  0.3377 -0.1625 -0.1127
  367SOL     OW 1233   6.191   1.217   4.213  0.0867  0.3965  0.0857
  367SOL    HW2 1234   6.145   1.268   4.146  1.3405  0.4394 -0.7710
  367SOL    HW3 1235   6.261   1.172   4.166 -1.0943 -2.3536  0.7522
  367SOL    MW4 1236   6.194   1.218   4.198  0.0963  0.0393  0.0606
  368SOL     OW 1237   1.819   3.362   5.669  0.1362  0.5752 -0.3274
  368SOL    HW2 1238   1.804   3.272   5.640  0.3925  0.5650 -0.4272
  368SOL    HW3 1239   1.913   3.377   5.655  0.0412  0.9551 -0.5794
  368SOL    MW4 1240   1.829   3.352   5.664  0.1575  0.6240 -0.3738
  369SOL     OW 1241   1.319   5.241   4.777 -0.5809  0.6080  0.1722
  369SOL    HW2 1242   1.375   5.199   4.712  1.8336  0.8664  1.9138
  369SOL    HW3 1243   1.376   5.306   4.819 -3.2996  3.6825 -0.4455
  369SOL    MW4 1244   1.334   5.244   4.774 -0.6210  1.0477  0.3205
  370SOL     OW 1245   3.509   3.367   5.440 -0.0516  0.0535 -0.0777
  370SOL    HW2 1246   3.560   3.417   5.504  0.0863 -0.4159  0.1781
  370SOL    HW3 1247   3.548   3.391   5.356 -0.3231  0.7786 -0.0030
  370SOL    MW4 1248   3.521   3.377   5.437 -0.0692  0.0873 -0.0341
  371SOL     OW 1249   0.311   0.664   1.370 -0.4751  0.3280 -0.2751
  371SOL    HW2 1250   0.281   0.695   1.284  0.7142  2.7339  0.0898
  371SOL    HW3 1251   0.257   0.713   1.433 -1.1119 -1.1696  0.3881
  371SOL    MW4 1252   0.300   0.675   1.367 -0.4022  0.4478 -0.1395
  372SOL     OW 1253   0.248   4.045   4.110 -0.0110 -0.1486  0.4132
  372SOL    HW2 1254   0.251   4.130   4.068 -0.9394  0.9206  2.3612
  372SOL    HW3 1255   0.283   4.061   4.198  0.1645 -1.8750  0.6982
  372SOL    MW4 1256   0.253   4.058   4.116 -0.1104 -0.2353  0.7078
  373SOL     OW 1257   3.280   2.241   0.926  0.3748  0.5324  0.9312
  373SOL    HW2 1258   3.254   2.326   0.892  0.6838  0.5715  0.7882
  373SOL    HW3 1259   3.365   2.224   0.885 -1.1126 -1.3337 -1.7113
  373SOL    MW4 1260   3.288   2.250   0.916  0.2193  0.2913  0.5637
  374SOL     OW 1261   2.183   0.222   0.750 -0.9084 -0.0296  0.3708
  374SOL    HW2 1262   2.117   0.152   0.750 -1.5601  0.5740  0.4268
  374SOL    HW3 1263   2.201   0.238   0.842 -1.3587  0.4163  0.3894
  374SOL    MW4 1264   2.176   0.215   0.762 -1.0538  0.1088  0.3806
  375SOL     OW 1265   1.365   4.390   0.089 -0.9680 -0.3927 -0.3878
  375SOL    HW2 1266   1.444   4.394   0.036 -0.8887  1.2139 -0.2002
  375SOL    HW3 1267   1.384   4.325   0.157  1.2322  1.8162  1.2437
  375SOL    MW4 1268   1.378   4.382   0.091 -0.6672  0.1107 -0.1478
  376SOL     OW 1269   0.651   0.993   3.243  0.2180 -0.2798  0.4039
  376SOL    HW2 1270   0.668   0.943   3.163 -2.1489  0.3719 -0.6121
  376SOL    HW3 1271   0.597   0.935   3.297 -1.2980  0.5562 -0.1389
  376SOL    MW4 1272   0.646   0.979   3.240 -0.2943 -0.0835  0.1982
  377SOL     OW 1273   6.237   5.277   1.923  0.4999 -0.5772  0.5670
  377SOL    HW2 1274   6.236   5.340   1.995  0.2438  1.0429 -0.7682
  377SOL    HW3 1275   6.303   5.213   1.947 -0.5717 -0.9069  2.8725
  377SOL    MW4 1276   6.246   5.277   1.936  0.3247 -0.4069  0.6950
  378SOL     OW 1277   2.847   0.651   4.073 -0.8448 -0.8857 -0.3495
  378SOL    HW2 1278   2.759   0.684   4.056 -0.0024  0.5847 -2.1205
  378SOL    HW3 1279   2.886   0.639   3.987  0.9157 -0.9372  0.4033
  378SOL    MW4 1280   2.840   0.654   4.060 -0.5014 -0.6985 -0.4838
  379SOL     OW 1281   0.559   2.876   1.084 -0.0531 -0.3666  0.3080
  379SOL    HW2 1282   0.646   2.916   1.083 -0.0971 -0.2570  0.6021
  379SOL    HW3 1283   0.499   2.950   1.074 -0.1520 -0.2933  1.3423
  379SOL    MW4 1284   0.562   2.891   1.083 -0.0719 -0.3425  0.4833
  380SOL     OW 1285   4.789   3.430   1.777 -0.0209 -0.0257 -0.0442
  380SOL    HW2 1286   4.803   3.521   1.803  0.1915 -0.5402  1.8504
  380SOL    HW3 1287   4.806   3.428   1.683  0.2864  1.8180 -0.0587
  380SOL    MW4 1288   4.793   3.442   1.768  0.0477  0.1497  0.2039
  381SOL     OW 1289   6.054   1.715   1.831  0.4363  0.0112 -0.0423
  381SOL    HW2 1290   5.962   1.704   1.856  0.7459 -1.4873  0.5714
  381SOL    HW3 1291   6.079   1.800   1.866 -0.0908 -0.5726  1.8837
  381SOL    MW4 1292   6.045   1.725   1.839  0.4076 -0.2635  0.2928
  382SOL     OW 1293   2.305   1.258   5.233 -0.8710  0.8017  0.2312
  382SOL    HW2 1294   2.225   1.227   5.192 -0.1334 -0.1978 -0.5089
  382SOL    HW3 1295   2.355   1.179   5.252 -0.5286  1.3423  1.6934
  382SOL    MW4 1296   2.301   1.244   5.230 -0.7285  0.7412  0.3264
  383SOL     OW 1297   2.812   4.318   5.528  0.6607 -0.2534 -0.0446
  383SOL    HW2 1298   2.776   4.287   5.445 -1.0314  0.2154  0.4768
  383SOL    HW3 1299   2.867   4.393   5.503 -1.0242  0.8368 -0.6429
  383SOL    MW4 1300   2.815   4.324   5.513  0.2151 -0.0477 -0.0547
  384SOL     OW 1301   4.572   2.744   5.810  0.6795  0.1929 -0.3857
  384SOL    HW2 1302   4.544   2.730   5.719 -2.0222  0.5100  0.3022
  384SOL    HW3 1303   4.629   2.670   5.829  0.2726 -0.5770 -1.9467
  384SOL    MW4 1304   4.576   2.733   5.800  0.2693  0.1332 -0.5009
  385SOL     OW 1305   6.255   5.070   4.872 -0.1401  0.0114  0.0787
  385SOL    HW2 1306   6.195   5.117   4.930  0.0633 -0.2481  0.5103
  385SOL    HW3 1307   6.316   5.137   4.842 -0.3153  0.1714  0.0794
  385SOL    MW4 1308   6.255   5.085   4.876 -0.1364 -0.0017  0.1357
  386SOL     OW 1309   4.436   4.307   2.301  0.1653  0.0795  0.6975
  386SOL    HW2 1310   4.459   4.370   2.369  1.5865 -0.6283  0.9195
  386SOL    HW3 1311   4.393   4.235   2.349 -1.1985  0.7131  0.4802
  386SOL    MW4 1312   4.433   4.305   2.317  0.1729  0.0697  0.6981
  387SOL     OW 1313   0.005   2.974   0.792  0.1810 -0.3203 -0.8616
  387SOL    HW2 1314  -0.006   3.066   0.817  0.2089 -0.1858 -1.3446
  387SOL    HW3 1315  -0.073   2.930   0.825 -0.5288  0.1390 -1.9052
  387SOL    MW4 1316  -0.007   2.980   0.800  0.0911 -0.2420 -1.0630
  388SOL     OW 1317   2.335   2.019   1.762 -0.2190  0.3847  0.3494
  388SOL    HW2 1318   2.356   2.037   1.854  0.0489 -0.0784  0.3843
  388SOL    HW3 1319   2.416   2.037   1.715 -0.5593  1.3027  0.1051
  388SOL    MW4 1320   2.349   2.023   1.768 -0.2285  0.4447  0.3218
  389SOL     OW 1321   1.167   2.114   3.285 -0.3972  0.3401  0.1409
  389SOL    HW2 1322   1.140   2.029   3.319  1.8841 -0.3520  0.3549
  389SOL    HW3 1323   1.151   2.109   3.190  1.1427 -0.9389 -0.0796
  389SOL    MW4 1324   1.161   2.102   3.277  0.1069  0.0800  0.1401
  390SOL     OW 1325   1.996   6.420   4.240 -0.0425  0.2268 -0.5971
  390SOL    HW2 1326   2.039   6.504   4.257 -0.6851  0.3810  0.3401
  390SOL    HW3 1327   2.031   6.362   4.309 -1.6636  0.4844  0.4936
  390SOL    MW4 1328   2.006   6.424   4.252 -0.3411  0.2811 -0.3296
  391SOL     OW 1329   3.368   3.842   2.630 -0.6927  0.3559  0.2626
  391SOL    HW2 1330   3.370   3.937   2.638 -0.1571  0.7629 -3.2263
  391SOL    HW3 1331   3.450   3.820   2.587 -1.6619 -1.4634 -0.7702
  391SOL    MW4 1332   3.379   3.852   2.626 -0.7499  0.1696 -0.3340
  392SOL     OW 1333   2.786   4.428   6.176 -0.1702 -0.2727  0.2940
  392SOL    HW2 1334   2.700   4.457   6.145 -0.4520 -0.8463  0.5293
  392SOL    HW3 1335   2.795   4.339   6.142  0.8294  0.1896 -0.7090
  392SOL    MW4 1336   2.776   4.420   6.167 -0.0755 -0.2874  0.1927
  393SOL     OW 1337   6.081   3.451   2.881  0.4559  0.2652 -0.2037
  393SOL    HW2 1338   6.093   3.388   2.810  0.9847  0.6062 -0.4189
  393SOL    HW3 1339   6.157   3.509   2.875 -0.9016  2.0441 -1.1582
  393SOL    MW4 1340   6.093   3.450   2.871  0.3465  0.5449 -0.3580
  394SOL     OW 1341   4.380   3.853   0.642  0.3508  0.4173 -0.3542
  394SOL    HW2 1342   4.367   3.933   0.591 -0.2456 -0.5860 -1.8601
  394SOL    HW3 1343   4.475   3.838   0.640  0.2195 -0.7199 -3.1144
  394SOL    MW4 1344   4.391   3.861   0.635  0.2548  0.1349 -0.9171
  395SOL     OW 1345   1.338   2.464   6.064 -0.4121 -0.0641  0.0055
  395SOL    HW2 1346   1.266   2.452   6.003  0.1625 -2.7785 -0.2706
  395SOL    HW3 1347   1.308   2.533   6.124 -2.6324 -0.1750 -0.8984
  395SOL    MW4 1348   1.325   2.472   6.064 -0.6293 -0.4368 -0.1502
  396SOL     OW 1349   4.603   2.469   0.926  0.1121 -0.3336  0.0354
  396SOL    HW2 1350   4.684   2.466   0.874 -0.0943 -1.3449 -0.2462
  396SOL    HW3 1351   4.579   2.562   0.928  2.0371  0.1919  1.3317
  396SOL    MW4 1352   4.610   2.481   0.919  0.3389 -0.3977  0.1693
  397SOL     OW 1353   4.392   2.553   3.167 -0.2229  0.1483 -0.0307
  397SOL    HW2 1354   4.377   2.577   3.075 -0.8080 -0.4204 -0.0919
  397SOL    HW3 1355   4.344   2.471   3.178 -0.3326  0.3239  0.8491
  397SOL    MW4 1356   4.384   2.545   3.156 -0.3146  0.0964  0.0773
  398SOL     OW 1357   6.372   1.526   1.962 -0.1473  0.6625  0.2716
  398SOL    HW2 1358   6.333   1.466   2.026  1.6786 -0.4805  0.3771
  398SOL    HW3 1359   6.460   1.542   1.995  1.5351 -1.3536 -2.7521
  398SOL    MW4 1360   6.378   1.520   1.975  0.3156  0.2457 -0.1134
  399SOL     OW 1361   0.031   2.169   1.898  0.5499 -0.3088  0.0944
  399SOL    HW2 1362   0.015   2.075   1.909  1.3291 -0.4143  0.3537
  399SOL    HW3 1363   0.097   2.190   1.964 -0.2926  0.6125  0.6703
  399SOL    MW4 1364   0.037   2.160   1.908  0.5416 -0.2011  0.2046
  400SOL     OW 1365   1.080   5.980   3.294  0.4844 -0.1691  0.4228
  400SOL    HW2 1366   1.017   6.049   3.271  2.0076  0.9156 -0.6584
  400SOL    HW3 1367   1.078   5.921   3.218 -0.5499 -1.1612  1.1900
  400SOL    MW4 1368   1.071   5.981   3.281  0.5489 -0.1569  0.3813
  401SOL     OW 1369   3.977   1.447   1.364 -0.1595 -0.3886  0.2608
  401SOL    HW2 1370   4.054   1.392   1.350  0.7212  0.5089  1.3694
  401SOL    HW3 1371   3.939   1.415   1.446 -0.3529 -0.1479  0.2685
  401SOL    MW4 1372   3.982   1.436   1.373 -0.0689 -0.2384  0.4081
  402SOL     OW 1373   2.369   1.261   4.681  0.0802 -0.1828 -0.0530
  402SOL    HW2 1374   2.459   1.293   4.673  0.1703  0.0791  1.6676
  402SOL    HW3 1375   2.328   1.320   4.745 -0.6286 -1.6954  0.9423
  402SOL    MW4 1376   2.376   1.273   4.688 -0.0014 -0.3478  0.3053
  403SOL     OW 1377   2.115   4.100   0.807 -0.2573  0.4411  0.3546
  403SOL    HW2 1378   2.139   4.183   0.767  1.0477 -0.6338 -1.2302
  403SOL    HW3 1379   2.189   4.080   0.866  0.5825 -0.6485 -1.0088
  403SOL    MW4 1380   2.128   4.108   0.810  0.0256  0.1555 -0.0344
  404SOL     OW 1381   1.426   1.471   1.476 -0.4127 -0.3701  0.1202
  404SOL    HW2 1382   1.500   1.532   1.480  0.5002 -1.3930 -0.5139
  404SOL    HW3 1383   1.363   1.514   1.418 -1.0613  1.2522  1.9383
  404SOL    MW4 1384   1.428   1.484   1.469 -0.3778 -0.2910  0.2764
  405SOL     OW 1385   0.308   4.840   3.627 -0.3220 -0.3329 -0.2577
  405SOL    HW2 1386   0.353   4.865   3.707 -0.7076 -0.6905  0.0772
  405SOL    HW3 1387   0.277   4.923   3.590 -0.9762 -0.2387  0.4734
  405SOL    MW4 1388   0.310   4.854   3.632 -0.4592 -0.3676 -0.1171
  406SOL     OW 1389   0.551   3.404   3.773 -0.9582  0.2317  0.1351
  406SOL    HW2 1390   0.508   3.488   3.791  0.1394  0.9953 -0.7145
  406SOL    HW3 1391   0.618   3.396   3.840  0.6030  1.2684 -1.2234
  406SOL    MW4 1392   0.554   3.414   3.784 -0.6074  0.4693 -0.1563
  407SOL     OW 1393   4.745   6.225   2.941  0.1281  0.0732 -0.4262
  407SOL    HW2 1394   4.840   6.227   2.935  0.2532  0.4555  1.1302
  407SOL    HW3 1395   4.719   6.317   2.935 -0.3348 -0.1648 -2.8239
  407SOL    MW4 1396   4.754   6.238   2.940  0.0835  0.0922 -0.5372
  408SOL     OW 1397   2.799   1.697   3.460  0.0742  0.3874  0.0027
  408SOL    HW2 1398   2.715   1.653   3.464  0.6705 -0.9785 -1.4267
  408SOL    HW3 1399   2.846   1.668   3.539 -0.5139  0.6185  0.4457
  408SOL    MW4 1400   2.794   1.688   3.471  0.0753  0.2377 -0.1275
  409SOL     OW 1401   3.910   4.622   2.757  0.9575 -0.0606  0.6112
  409SOL    HW2 1402   3.885   4.697   2.811 -0.4065 -1.4626  1.9895
  409SOL    HW3 1403   3.881   4.646   2.669  0.3674  0.9512  1.0664
  409SOL    MW4 1404   3.903   4.635   2.752  0.6997 -0.1121  0.8531
  410SOL     OW 1405   4.017   4.651   4.999  0.0164  0.4025 -0.2676
  410SOL    HW2 1406   4.005   4.570   4.949  2.3290 -0.1456 -0.0456
  410SOL    HW3 1407   4.100   4.686   4.968  1.7092 -0.0976  3.2379
  410SOL    MW4 1408   4.027   4.645   4.988  0.5449  0.2642  0.2242
  411SOL     OW 1409   3.772   3.111   5.231  0.4353 -0.3387  0.4076
  411SOL    HW2 1410   3.799   3.051   5.300  1.0328  0.5603  0.9729
  411SOL    HW3 1411   3.722   3.056   5.170 -0.5734 -1.0408  1.8016
  411SOL    MW4 1412   3.769   3.095   5.232  0.3811 -0.3127  0.6661
  412SOL     OW 1413   2.802   0.988   5.543 -0.0809  0.1577  0.4496
  412SOL    HW2 1414   2.765   0.963   5.627 -1.4676  0.1448 -0.1314
  412SOL    HW3 1415   2.793   1.083   5.539 -1.1345  0.0509 -0.1543
  412SOL    MW4 1416   2.796   0.997   5.553 -0.4029  0.1419  0.2933
  413SOL     OW 1417   5.471   0.843   1.098  0.1660  0.4192  0.2142
  413SOL    HW2 1418   5.523   0.903   1.152  2.9315 -1.1129 -0.5650
  413SOL    HW3 1419   5.475   0.759   1.145  0.4202 -0.3077 -1.0576
  413SOL    MW4 1420   5.478   0.840   1.112  0.5644  0.1211 -0.0564
  414SOL     OW 1421   3.633   4.728   0.685 -0.2451  0.4418 -0.1700
  414SOL    HW2 1422   3.656   4.692   0.771  0.1581 -0.0448 -0.4711
  414SOL    HW3 1423   3.568   4.667   0.650  0.1226  0.2319 -0.5037
  414SOL    MW4 1424   3.627   4.715   0.692 -0.1434  0.3499 -0.2538
  415SOL     OW 1425   5.015   2.177   3.723 -0.2171 -0.4786  0.7028
  415SOL    HW2 1426   4.968   2.135   3.796 -0.6392  0.1068  0.7718
  415SOL    HW3 1427   5.060   2.105   3.679 -0.6512 -0.9577  1.0348
  415SOL    MW4 1428   5.015   2.162   3.727 -0.3300 -0.4645  0.7557
  416SOL     OW 1429   5.225   1.082   3.266  0.0739 -0.5519  0.1452
  416SOL    HW2 1430   5.244   1.145   3.335 -0.6617 -1.2178  0.9678
  416SOL    HW3 1431   5.295   1.018   3.273 -0.0571 -0.6738  0.3396
  416SOL    MW4 1432   5.237   1.082   3.276 -0.0404 -0.6558  0.2794
  417SOL     OW 1433   3.103   3.547   0.095  0.1692 -0.1329 -0.9150
  417SOL    HW2 1434   3.103   3.469   0.039 -0.4663 -0.5209 -0.3889
  417SOL    HW3 1435   3.178   3.534   0.154  0.0477 -0.3585 -0.8101
  417SOL    MW4 1436   3.113   3.535   0.095  0.0693 -0.2138 -0.8317
  418SOL     OW 1437   5.952   4.275   2.922  0.2747 -0.3386 -0.5032
  418SOL    HW2 1438   5.931   4.338   2.854 -2.5094  0.2042  0.7352
  418SOL    HW3 1439   6.024   4.224   2.885  2.7817  3.5242 -1.5266
  418SOL    MW4 1440   5.959   4.276   2.908  0.2381  0.2427 -0.4749
  419SOL     OW 1441   2.496   2.235   0.654 -0.5804 -0.9121 -0.0298
  419SOL    HW2 1442   2.522   2.199   0.569  0.7225 -1.0119  0.3857
  419SOL    HW3 1443   2.416   2.285   0.636  0.2316 -0.0714 -1.5080
  419SOL    MW4 1444   2.489   2.237   0.640 -0.3014 -0.8144 -0.1700
  420SOL     OW 1445   5.532   2.459   4.454 -0.4424 -0.1332  0.1080
  420SOL    HW2 1446   5.512   2.417   4.370 -2.3135 -0.6593  0.7558
  420SOL    HW3 1447   5.451   2.451   4.505  0.5052  0.5275  1.8265
  420SOL    MW4 1448   5.519   2.452   4.450 -0.5642 -0.1154  0.4202
  421SOL     OW 1449   1.618   1.687   0.771  0.0207 -0.5858  0.4852
  421SOL    HW2 1450   1.667   1.764   0.742  0.1692 -1.0338 -0.5263
  421SOL    HW3 1451   1.613   1.696   0.866 -0.2951  0.8509  0.3538
  421SOL    MW4 1452   1.624   1.698   0.780 -0.0014 -0.4554  0.3344
  422SOL     OW 1453   5.767   6.193   4.430  0.2101 -0.1177 -0.4254
  422SOL    HW2 1454   5.763   6.179   4.336  0.0559 -0.2722 -0.3967
  422SOL    HW3 1455   5.852   6.157   4.457  0.3844  0.1980 -0.5499
  422SOL    MW4 1456   5.778   6.187   4.421  0.2127 -0.0964 -0.4380
  423SOL     OW 1457   4.620   0.597   6.339  0.0645 -0.1291  0.2802
  423SOL    HW2 1458   4.681   0.582   6.267 -0.7105  1.6128 -0.8237
  423SOL    HW3 1459   4.589   0.510   6.363  1.2986 -0.8577 -0.6331
  423SOL    MW4 1460   4.624   0.584   6.332  0.1251  0.0046  0.0140
  424SOL     OW 1461   0.887   1.416   1.298 -0.0695 -0.1426  0.3512
  424SOL    HW2 1462   0.905   1.450   1.385 -0.3478 -0.4865  0.5439
  424SOL    HW3 1463   0.849   1.329   1.313  1.1024 -0.7693 -0.1493
  424SOL    MW4 1464   0.884   1.409   1.311  0.0484 -0.2706  0.3106
  425SOL     OW 1465   5.317   1.692   2.174 -0.0684  0.6172  0.4032
  425SOL    HW2 1466   5.251   1.654   2.116 -0.7569  0.9536  0.9426
  425SOL    HW3 1467   5.317   1.785   2.152  0.2168  0.6220  0.4223
  425SOL    MW4 1468   5.308   1.699   2.163 -0.1216  0.6622  0.4769
  426SOL     OW 1469   0.869   6.292   1.304 -0.0007 -0.1369  0.1864
  426SOL    HW2 1470   0.912   6.317   1.222  0.3878 -1.8933 -0.1821
  426SOL    HW3 1471   0.933   6.312   1.372  1.7195 -3.0961 -0.3894
  426SOL    MW4 1472   0.883   6.298   1.302  0.2775 -0.7590  0.0618
  427SOL     OW 1473   1.166   2.028   5.718  0.3678 -0.1391 -0.2642
  427SOL    HW2 1474   1.102   2.097   5.734  1.2282  0.2128  2.0733
  427SOL    HW3 1475   1.113   1.948   5.709 -0.5993  0.6902 -2.6123
  427SOL    MW4 1476   1.150   2.026   5.719  0.3537  0.0167 -0.2656
  428SOL     OW 1477   5.271   4.669   5.183  0.4592 -0.2312  0.6227
  428SOL    HW2 1478   5.307   4.695   5.099 -1.9932  1.0374 -0.1243
  428SOL    HW3 1479   5.288   4.575   5.188  0.6840 -0.3352 -1.2905
  428SOL    MW4 1480   5.278   4.660   5.173  0.1653 -0.0776  0.2717
  429SOL     OW 1481   6.385   0.742   0.857 -0.4970 -0.1115  0.3590
  429SOL    HW2 1482   6.422   0.691   0.785 -0.2468  1.6518 -0.8389
  429SOL    HW3 1483   6.437   0.717   0.933 -0.1249 -1.3183 -0.2607
  429SOL    MW4 1484   6.397   0.732   0.857 -0.4149 -0.0381  0.1192
  430SOL     OW 1485   0.453   2.343   2.519 -0.1067 -0.3228 -0.2522
  430SOL    HW2 1486   0.539   2.347   2.479 -1.2190  0.4399 -2.7669
  430SOL    HW3 1487   0.419   2.257   2.492 -0.0885 -0.6910  0.8668
  430SOL    MW4 1488   0.460   2.332   2.510 -0.2511 -0.2708 -0.4364
  431SOL     OW 1489   0.292   5.037   4.928 -0.1912 -0.2153 -0.2519
  431SOL    HW2 1490   0.218   5.073   4.978 -1.5379 -1.0914 -1.5453
  431SOL    HW3 1491   0.291   4.943   4.948  1.7798  0.0021  1.1748
  431SOL    MW4 1492   0.282   5.029   4.937 -0.1088 -0.3022 -0.2343
  432SOL     OW 1493   1.392   2.404   3.776  0.2986  0.4195 -0.0010
  432SOL    HW2 1494   1.405   2.436   3.866 -0.3551  0.8237 -0.0430
  432SOL    HW3 1495   1.380   2.309   3.786  0.2343  0.4626  0.3352
  432SOL    MW4 1496   1.392   2.396   3.790  0.2039  0.4785  0.0378
  433SOL     OW 1497   0.564   0.758   3.910 -0.0413  0.1764  0.1004
  433SOL    HW2 1498   0.641   0.709   3.882 -0.0301  0.7150 -0.8439
  433SOL    HW3 1499   0.540   0.811   3.834 -1.9517 -0.7148  0.0036
  433SOL    MW4 1500   0.571   0.758   3.896 -0.2919  0.1299 -0.0369
  434SOL     OW 1501   0.037   5.165   5.505 -0.9046 -0.0412 -0.0525
  434SOL    HW2 1502  -0.008   5.203   5.581 -1.4795  0.3207 -0.5698
  434SOL    HW3 1503   0.080   5.239   5.462  0.6128 -0.4393  0.6883
  434SOL    MW4 1504   0.037   5.180   5.510 -0.7803 -0.0460 -0.0230
  435SOL     OW 1505   4.303   2.081   0.951 -0.2051  0.6488 -0.7169
  435SOL    HW2 1506   4.324   2.067   0.859 -0.7285 -0.8786 -0.6295
  435SOL    HW3 1507   4.346   2.009   0.997  1.1004  2.0708  0.4179
  435SOL    MW4 1508   4.312   2.070   0.945 -0.1019  0.6349 -0.5556
  436SOL     OW 1509   0.680   1.184   4.674  0.7085  0.4088  0.1008
  436SOL    HW2 1510   0.623   1.252   4.636  2.7207  1.4106 -1.2832
  436SOL    HW3 1511   0.720   1.142   4.598  0.2873 -1.6850  0.9822
  436SOL    MW4 1512   0.678   1.188   4.659  0.9184  0.2647  0.0345
  437SOL     OW 1513   4.625   2.112   1.002 -0.2841  0.6154 -0.5095
  437SOL    HW2 1514   4.659   2.119   0.913  0.9325  0.5586 -0.0684
  437SOL    HW3 1515   4.701   2.088   1.055 -0.8685  1.1912  0.6336
  437SOL    MW4 1516   4.640   2.110   0.997 -0.2007  0.6839 -0.3005
  438SOL     OW 1517   3.333   0.898   1.615  0.1469  0.1567  0.3941
  438SOL    HW2 1518   3.402   0.833   1.599 -1.4389 -1.2968 -0.8711
  438SOL    HW3 1519   3.279   0.860   1.683 -0.1947  0.6504  0.4047
  438SOL    MW4 1520   3.335   0.884   1.622 -0.1074  0.0301  0.2286
  439SOL     OW 1521   4.858   6.046   5.348  0.3663 -0.2330  0.0491
  439SOL    HW2 1522   4.831   5.976   5.289  1.7606 -0.3114 -0.5428
  439SOL    HW3 1523   4.832   6.016   5.435  1.8250 -1.9794 -0.0594
  439SOL    MW4 1524   4.851   6.033   5.351  0.7427 -0.4738 -0.0433
  440SOL     OW 1525   0.312   1.747   3.730 -1.0351  0.0890  0.4003
  440SOL    HW2 1526   0.221   1.732   3.757 -0.0807 -4.1475  2.1056
  440SOL    HW3 1527   0.314   1.725   3.637 -2.1830  3.4715 -0.5845
  440SOL    MW4 1528   0.300   1.742   3.722 -1.0606 -0.0236  0.4954
  441SOL     OW 1529   2.873   2.250   4.743 -0.4533 -0.4182 -0.0293
  441SOL    HW2 1530   2.906   2.164   4.716  0.0614 -0.3621  0.3904
  441SOL    HW3 1531   2.788   2.232   4.781 -0.5246 -0.6907 -0.3087
  441SOL    MW4 1532   2.866   2.236   4.744 -0.3948 -0.4468 -0.0108
  442SOL     OW 1533   4.633   6.360   1.838 -1.0165 -0.0707 -0.0968
  442SOL    HW2 1534   4.627   6.455   1.847 -0.9740 -0.1806  1.3810
  442SOL    HW3 1535   4.719   6.345   1.799  0.1648  0.4239  2.1314
  442SOL    MW4 1536   4.643   6.370   1.834 -0.8551 -0.0199  0.3922
  443SOL     OW 1537   5.763   6.056   2.055  0.7503  0.2698  1.2347
  443SOL    HW2 1538   5.793   6.130   2.002 -0.7359  1.4323  1.9496
  443SOL    HW3 1539   5.789   5.978   2.005 -0.4122  1.2984 -1.1098
  443SOL    MW4 1540   5.771   6.055   2.041  0.4009  0.5589  1.0197
  444SOL     OW 1541   3.731   2.164   5.314  0.0103  0.2330 -0.4488
  444SOL    HW2 1542   3.801   2.229   5.309  0.2572  0.0799  0.6763
  444SOL    HW3 1543   3.651   2.213   5.299  0.3798  0.2129 -3.0372
  444SOL    MW4 1544   3.730   2.179   5.311  0.0916  0.2101 -0.6418
  445SOL     OW 1545   2.085   5.254   0.655 -0.3848 -0.1570 -0.6034
  445SOL    HW2 1546   2.092   5.256   0.751  0.5752  2.8594 -0.6376
  445SOL    HW3 1547   1.990   5.258   0.639 -0.5522 -0.5291  0.2267
  445SOL    MW4 1548   2.073   5.255   0.666 -0.2802  0.1919 -0.4984
  446SOL     OW 1549   3.506   4.532   1.463  0.3940  0.2409  0.1084
  446SOL    HW2 1550   3.572   4.463   1.450  1.1076  0.9280  0.0149
  446SOL    HW3 1551   3.467   4.511   1.548 -0.5084 -1.1711 -0.6089
  446SOL    MW4 1552   3.510   4.520   1.472  0.3691  0.1452  0.0014
  447SOL     OW 1553   3.091   1.167   3.240 -0.0921  0.0698  0.2879
  447SOL    HW2 1554   3.139   1.109   3.183 -0.6512 -0.6577  0.5359
  447SOL    HW3 1555   3.011   1.118   3.263 -0.0960  0.5143  1.3124
  447SOL    MW4 1556   3.087   1.153   3.236 -0.1664  0.0325  0.4558
  448SOL     OW 1557   3.482   5.610   4.868  0.1524 -0.3723  0.1858
  448SOL    HW2 1558   3.521   5.683   4.917  1.9950 -0.5541 -0.9535
  448SOL    HW3 1559   3.404   5.649   4.827 -1.0814 -0.0511  2.6169
  448SOL    MW4 1560   3.477   5.625   4.869  0.2327 -0.3539  0.3563
  449SOL     OW 1561   3.566   5.999   0.417 -0.0487  0.5177  0.4710
  449SOL    HW2 1562   3.533   5.991   0.328  0.1205 -1.0224  0.5238
  449SOL    HW3 1563   3.532   6.083   0.448 -1.0171  0.5663 -0.6612
  449SOL    MW4 1564   3.557   6.009   0.409 -0.1541  0.3209  0.3286
  450SOL     OW 1565   2.061   5.909   2.639  0.1255  0.2419 -0.2843
  450SOL    HW2 1566   2.108   5.843   2.690 -1.5416 -1.3433 -0.7180
  450SOL    HW3 1567   2.053   5.984   2.699  0.3504 -0.6595  0.9155
  450SOL    MW4 1568   2.066   5.911   2.654 -0.0648 -0.0862 -0.1832
  451SOL     OW 1569   5.899   5.318   0.799  0.8711  0.0627 -0.3146
  451SOL    HW2 1570   5.834   5.283   0.738  1.4409  0.2995 -1.0571
  451SOL    HW3 1571   5.865   5.292   0.886 -0.1639  0.1028 -0.6895
  451SOL    MW4 1572   5.886   5.310   0.803  0.8097  0.0992 -0.4620
  452SOL     OW 1573   0.825   3.875   2.014 -0.2585 -0.1732 -0.2289
  452SOL    HW2 1574   0.819   3.785   2.047 -1.5994 -0.5562 -1.4208
  452SOL    HW3 1575   0.794   3.929   2.087  0.8352 -0.6279  0.6018
  452SOL    MW4 1576   0.820   3.870   2.028 -0.2911 -0.2837 -0.2765
  453SOL     OW 1577   4.944   3.893   1.423  0.1434  0.2020  0.2386
  453SOL    HW2 1578   4.954   3.880   1.329 -1.4441 -0.4958  0.1352
  453SOL    HW3 1579   4.873   3.834   1.448 -0.3152  1.3052  1.6489
  453SOL    MW4 1580   4.936   3.883   1.414 -0.1266  0.2555  0.4110
  454SOL     OW 1581   6.184   3.661   1.685  0.1056  0.4019  0.2662
  454SOL    HW2 1582   6.166   3.663   1.591  1.2409  1.5450  0.0320
  454SOL    HW3 1583   6.098   3.674   1.727 -0.7146 -2.0424 -0.5102
  454SOL    MW4 1584   6.170   3.663   1.678  0.1472  0.2302  0.1329
  455SOL     OW 1585   2.789   6.296   4.977 -0.4171  0.4487 -0.4640
  455SOL    HW2 1586   2.862   6.353   4.952 -2.0938  1.8826 -2.5469
  455SOL    HW3 1587   2.762   6.254   4.896 -2.9237  1.2949 -0.1808
  455SOL    MW4 1588   2.795   6.298   4.963 -0.9691  0.7495 -0.7014
  456SOL     OW 1589   0.282   1.624   1.625  0.0970  0.5184 -0.2850
  456SOL    HW2 1590   0.349   1.660   1.566 -1.0684 -1.9866 -3.4369
  456SOL    HW3 1591   0.205   1.678   1.610  0.4413  1.4211  0.9613
  456SOL    MW4 1592   0.281   1.636   1.615 -0.0113  0.3070 -0.5364
  457SOL     OW 1593   0.571   5.010   2.860 -0.2064 -0.1960 -0.0835
  457SOL    HW2 1594   0.585   5.101   2.834 -1.2778 -0.0224 -0.0761
  457SOL    HW3 1595   0.539   5.016   2.950 -2.2842 -0.4285 -0.7506
  457SOL    MW4 1596   0.569   5.023   2.869 -0.6219 -0.2038 -0.1705
  458SOL     OW 1597   0.363   2.194   5.737  0.7946  0.5095 -0.4505
  458SOL    HW2 1598   0.291   2.255   5.756  1.0326  0.4734  0.6168
  458SOL    HW3 1599   0.374   2.145   5.818  2.0453  0.5274 -0.6000
  458SOL    MW4 1600   0.355   2.195   5.750  0.9910  0.5071 -0.3294
  459SOL     OW 1601   3.190   4.392   2.941  0.0788 -0.2614 -0.0527
  459SOL    HW2 1602   3.256   4.457   2.967 -0.2674 -0.0594  0.3385
  459SOL    HW3 1603   3.135   4.382   3.019 -0.6757 -0.0340 -0.5440
  459SOL    MW4 1604   3.191   4.399   2.955 -0.0664 -0.2048 -0.0659
  460SOL     OW 1605   4.429   5.485   0.834 -0.3756  0.1308 -0.4232
  460SOL    HW2 1606   4.518   5.518   0.837 -0.9290  1.7480 -0.7025
  460SOL    HW3 1607   4.430   5.420   0.764  0.4164  0.6827 -0.9464
  460SOL    MW4 1608   4.441   5.481   0.825 -0.3441  0.4170 -0.5291
  461SOL     OW 1609   2.502   1.447   5.060  0.5099 -0.1935 -0.0835
  461SOL    HW2 1610   2.567   1.436   5.129  0.8556  1.4287 -0.1009
  461SOL    HW3 1611   2.504   1.541   5.040 -1.6581 -0.1380 -0.2695
  461SOL    MW4 1612   2.511   1.458   5.066  0.2695  0.0278 -0.1103
  462SOL     OW 1613   5.698   4.865   2.402  0.4658  0.0253 -0.3385
  462SOL    HW2 1614   5.618   4.836   2.359 -0.1354  0.6045  0.3624
  462SOL    HW3 1615   5.737   4.927   2.340  0.6206 -0.6058 -0.8815
  462SOL    MW4 1616   5.693   4.870   2.389  0.4069  0.0185 -0.3177
  463SOL     OW 1617   0.038   5.612   5.803 -0.2042 -0.3456  0.1138
  463SOL    HW2 1618   0.050   5.703   5.832 -0.5792  0.1067 -1.0901
  463SOL    HW3 1619  -0.055   5.594   5.819 -0.0683 -0.6222  0.6121
  463SOL    MW4 1620   0.027   5.622   5.809 -0.2358 -0.3224  0.0207
  464SOL     OW 1621   0.716   1.517   4.464 -0.4618  0.0507 -0.4109
  464SOL    HW2 1622   0.694   1.603   4.427 -3.2316 -0.3839  0.0381
  464SOL    HW3 1623   0.631   1.477   4.484  0.6872 -3.1330 -1.3272
  464SOL    MW4 1624   0.702   1.523   4.461 -0.6756 -0.4267 -0.4725
  465SOL     OW 1625   3.568   1.745   2.599 -0.3171  0.0472 -0.6521
  465SOL    HW2 1626   3.548   1.652   2.588  0.1630 -0.0693 -0.5655
  465SOL    HW3 1627   3.635   1.763   2.533 -2.0782  0.9029 -2.2897
  465SOL    MW4 1628   3.574   1.735   2.589 -0.4861  0.1447 -0.8567
  466SOL     OW 1629   3.455   3.124   5.158  0.3409  0.3068  0.0623
  466SOL    HW2 1630   3.478   3.161   5.073  0.2820 -0.1023 -0.1353
  466SOL    HW3 1631   3.385   3.180   5.191  0.2248  0.3483 -0.2533
  466SOL    MW4 1632   3.449   3.136   5.151  0.3178  0.2583 -0.0054
  467SOL     OW 1633   2.017   3.746   2.404  0.1169  0.3280  0.4247
  467SOL    HW2 1634   2.091   3.697   2.441  0.1663  0.7162  0.8470
  467SOL    HW3 1635   2.005   3.820   2.463  0.2627  1.0205 -0.3889
  467SOL    MW4 1636   2.026   3.749   2.417  0.1427  0.4706  0.3731
  468SOL     OW 1637   2.723   1.038   4.658 -0.2304  0.2014  0.8247
  468SOL    HW2 1638   2.736   0.986   4.579 -2.2081  1.8413 -0.6632
  468SOL    HW3 1639   2.795   1.012   4.715  2.5419  0.4419 -2.2821
  468SOL    MW4 1640   2.734   1.027   4.655 -0.1255  0.4495  0.2185
  469SOL     OW 1641   4.586   3.842   5.175 -0.1597 -0.0334  0.0401
  469SOL    HW2 1642   4.668   3.878   5.208 -0.6580  1.2612 -0.0732
  469SOL    HW3 1643   4.561   3.775   5.239  0.6981 -0.0610  0.3595
  469SOL    MW4 1644   4.594   3.838   5.188 -0.1123  0.1338  0.0673
  470SOL     OW 1645   4.468   6.069   5.535  0.0068 -0.4509  0.2260
  470SOL    HW2 1646   4.476   6.056   5.629  0.1421 -1.0929  0.1315
  470SOL    HW3 1647   4.515   6.151   5.518  1.8040 -1.3959  0.4346
  470SOL    MW4 1648   4.475   6.078   5.545  0.2617 -0.6603  0.2410
  471SOL     OW 1649   4.672   1.509   1.216  0.5238  0.2212  0.3571
  471SOL    HW2 1650   4.624   1.549   1.144  0.9200 -0.0576 -0.0623
  471SOL    HW3 1651   4.621   1.533   1.294 -0.1982  0.0788 -0.0609
  471SOL    MW4 1652   4.659   1.518   1.217  0.4808  0.1656  0.2466
  472SOL     OW 1653   4.393   5.911   4.461 -0.2008  0.8516 -0.1687
  472SOL    HW2 1654   4.453   5.981   4.438 -0.7977  0.9777 -1.4149
  472SOL    HW3 1655   4.338   5.899   4.383 -0.7883 -0.2899  0.3875
  472SOL    MW4 1656   4.394   5.919   4.448 -0.3570  0.7177 -0.2597
  473SOL     OW 1657   1.405   5.713   6.450 -0.0950 -0.0321  0.0560
  473SOL    HW2 1658   1.421   5.622   6.425  0.3630 -0.3799  1.5077
  473SOL    HW3 1659   1.492   5.750   6.463 -0.2783  0.6522 -0.6318
  473SOL    MW4 1660   1.418   5.706   6.448 -0.0588  0.0123  0.1568
  474SOL     OW 1661   4.649   1.729   5.171  0.1741 -0.1523 -0.5554
  474SOL    HW2 1662   4.664   1.658   5.233 -3.5621  0.1555  0.9262
  474SOL    HW3 1663   4.635   1.685   5.087  1.5567 -0.8277 -0.4649
  474SOL    MW4 1664   4.649   1.714   5.168 -0.1365 -0.2008 -0.3480
  475SOL     OW 1665   2.952   3.447   5.989 -0.8728  0.0672  0.3308
  475SOL    HW2 1666   2.875   3.437   5.933 -0.6101  1.4161 -0.3236
  475SOL    HW3 1667   2.931   3.520   6.046 -0.7260 -0.6484  1.3227
  475SOL    MW4 1668   2.939   3.455   5.989 -0.8188  0.1507  0.3753
  476SOL     OW 1669   6.340   5.633   3.239  0.4385  0.3086  0.1834
  476SOL    HW2 1670   6.383   5.565   3.188  0.0284  0.4764 -0.3975
  476SOL    HW3 1671   6.376   5.715   3.204 -0.6485  0.4642 -0.5839
  476SOL    MW4 1672   6.351   5.635   3.228  0.2409  0.3512  0.0056
  477SOL     OW 1673   5.676   5.799   1.849 -0.2488  0.0116  0.1434
  477SOL    HW2 1674   5.713   5.745   1.779 -0.2834 -0.3379  0.3925
  477SOL    HW3 1675   5.582   5.796   1.834 -0.4194 -1.6061  1.2878
  477SOL    MW4 1676   5.669   5.791   1.838 -0.2759 -0.2480  0.3272
  478SOL     OW 1677   4.965   4.456   2.558 -0.1929 -0.0944  0.4596
  478SOL    HW2 1678   4.878   4.418   2.545  0.9151 -2.1118 -2.0191
  478SOL    HW3 1679   5.018   4.384   2.591  0.9943  0.5202 -0.0547
  478SOL    MW4 1680   4.960   4.442   2.560  0.1099 -0.2795  0.0648
  479SOL     OW 1681   2.274   2.945   3.788 -0.0561  1.1695  0.0948
  479SOL    HW2 1682   2.326   2.934   3.868 -0.1819  1.4436  0.2122
  479SOL    HW3 1683   2.314   3.019   3.743  0.7437  0.3124 -0.6686
  479SOL    MW4 1684   2.286   2.953   3.792  0.0328  1.0926  0.0095
  480SOL     OW 1685   5.098   1.591   5.838  0.2220 -0.2211 -0.0488
  480SOL    HW2 1686   5.079   1.546   5.920  1.4381 -0.0353  0.3559
  480SOL    HW3 1687   5.027   1.655   5.829  0.5380  0.3746  1.3380
  480SOL    MW4 1688   5.086   1.594   5.848  0.4242 -0.1180  0.1876
  481SOL     OW 1689   2.101   3.516   2.878  0.2075  0.0833 -0.1474
  481SOL    HW2 1690   2.027   3.550   2.929 -0.7242 -0.5298 -1.0551
  481SOL    HW3 1691   2.167   3.494   2.944 -0.6345  0.1063  0.7289
  481SOL    MW4 1692   2.100   3.518   2.893 -0.0265  0.0054 -0.1516
  482SOL     OW 1693   4.482   4.983   2.691 -0.3423  0.4954  0.1055
  482SOL    HW2 1694   4.447   5.035   2.618 -1.9508 -1.7792 -0.8585
  482SOL    HW3 1695   4.407   4.933   2.722  1.1249 -1.3119  0.9132
  482SOL    MW4 1696   4.467   4.983   2.685 -0.3609 -0.0431  0.0849
  483SOL     OW 1697   4.000   0.698   6.389 -0.3901  0.1911 -0.8163
  483SOL    HW2 1698   4.078   0.685   6.335  0.8251 -0.5126  1.0182
  483SOL    HW3 1699   3.939   0.631   6.359  0.4037 -0.4257 -1.0854
  483SOL    MW4 1700   4.003   0.688   6.378 -0.1250  0.0169 -0.6098
  484SOL     OW 1701   2.043   3.285   1.722  0.3359 -0.1906 -0.0799
  484SOL    HW2 1702   1.962   3.263   1.769  0.1887  0.4579 -0.0110
  484SOL    HW3 1703   2.018   3.358   1.665  1.2535  1.1851  1.1947
  484SOL    MW4 1704   2.029   3.292   1.721  0.4375  0.0764  0.0974
  485SOL     OW 1705   0.595   0.562   3.580  0.2796  0.3255  0.2990
  485SOL    HW2 1706   0.513   0.582   3.534 -1.3217 -1.3862  2.1968
  485SOL    HW3 1707   0.597   0.466   3.584  1.9411  0.3599  1.0724
  485SOL    MW4 1708   0.584   0.552   3.574  0.2876  0.1042  0.6514
  486SOL     OW 1709   2.471   4.866   4.579 -0.2402 -0.0918  0.4820
  486SOL    HW2 1710   2.390   4.814   4.584 -0.3712 -0.0080 -0.5514
  486SOL    HW3 1711   2.445   4.945   4.531  0.4321  0.0081  0.2852
  486SOL    MW4 1712   2.457   4.870   4.574 -0.1688 -0.0676  0.3197
  487SOL     OW 1713   4.123   5.126   1.518 -0.1368  0.2942  0.8906
  487SOL    HW2 1714   4.063   5.195   1.547  0.4579  1.7848 -1.1733
  487SOL    HW3 1715   4.087   5.096   1.434  0.2380 -1.1241  1.2094
  487SOL    MW4 1716   4.110   5.132   1.510 -0.0089  0.3037  0.6603
  488SOL     OW 1717   3.563   5.663   3.235  0.5322  0.0477  0.1019
  488SOL    HW2 1718   3.645   5.615   3.243  0.5545 -0.2679 -1.5728
  488SOL    HW3 1719   3.497   5.596   3.224  0.3128  0.3426 -0.4131
  488SOL    MW4 1720   3.565   5.648   3.235  0.5062  0.0450 -0.1870
  489SOL     OW 1721   4.086   5.642   2.445 -0.4219 -0.0536 -0.0675
  489SOL    HW2 1722   3.998   5.679   2.445  0.3872  2.0536  0.0677
  489SOL    HW3 1723   4.110   5.636   2.353 -0.3997  0.2020 -0.0793
  489SOL    MW4 1724   4.078   5.646   2.433 -0.3122  0.2581 -0.0512
  490SOL     OW 1725   3.239   5.904   0.494  0.2008  0.1202 -0.3640
  490SOL    HW2 1726   3.228   5.810   0.481  0.9951  0.0665 -0.6851
  490SOL    HW3 1727   3.276   5.935   0.412  3.8921  0.0304  1.0623
  490SOL    MW4 1728   3.243   5.896   0.482  0.7926  0.1012 -0.2182
  491SOL     OW 1729   3.238   5.432   2.071 -0.6032 -0.3250 -0.0519
  491SOL    HW2 1730   3.170   5.426   2.138  1.4102 -0.3172  2.0921
  491SOL    HW3 1731   3.214   5.509   2.019 -1.2828  0.7637  1.7897
  491SOL    MW4 1732   3.226   5.441   2.073 -0.4272 -0.1803  0.4739
  492SOL     OW 1733   4.761   5.923   3.019  0.1603 -0.6979 -0.3745
  492SOL    HW2 1734   4.742   6.008   2.980  2.8668  0.2776  0.1998
  492SOL    HW3 1735   4.685   5.870   2.999 -1.5179  1.7646 -0.9999
  492SOL    MW4 1736   4.749   5.927   3.011  0.2960 -0.2443 -0.3813
  493SOL     OW 1737   6.290   6.325   5.575  0.0466 -0.7262  0.0957
  493SOL    HW2 1738   6.350   6.285   5.639  1.9458 -0.6817 -1.5666
  493SOL    HW3 1739   6.326   6.412   5.560 -0.2133 -0.8169 -1.1723
  493SOL    MW4 1740   6.303   6.331   5.582  0.2629 -0.7323 -0.2909
  494SOL     OW 1741   3.944   4.821   1.547 -0.3233 -0.5866  0.1988
  494SOL    HW2 1742   3.895   4.745   1.580  0.2689 -0.3202  1.7728
  494SOL    HW3 1743   3.921   4.892   1.606  0.3536  0.0768 -0.3144
  494SOL    MW4 1744   3.935   4.820   1.559 -0.1558 -0.4639  0.3387
  495SOL     OW 1745   4.659   2.063   0.284  0.1534  1.1509 -0.6243
  495SOL    HW2 1746   4.694   2.102   0.203 -1.0428  1.3809 -1.0485
  495SOL    HW3 1747   4.586   2.009   0.255  0.7713 -0.1434  0.1394
  495SOL    MW4 1748   4.654   2.061   0.269  0.0771  1.0105 -0.5795
  496SOL     OW 1749   4.132   6.430   3.295 -0.4508 -0.0909  0.3347
  496SOL    HW2 1750   4.084   6.377   3.232  1.4079 -0.8567 -0.4895
  496SOL    HW3 1751   4.141   6.373   3.372  0.6859 -0.6453 -0.1873
  496SOL    MW4 1752   4.127   6.415   3.297 -0.0556 -0.2651  0.1571
  497SOL     OW 1753   4.615   1.952   3.244  0.6136  0.0125  0.3803
  497SOL    HW2 1754   4.523   1.979   3.233  0.1646 -2.2358 -4.0814
  497SOL    HW3 1755   4.614   1.859   3.223  4.0981  0.2901 -1.7158
  497SOL    MW4 1756   4.603   1.943   3.239  1.0141 -0.2475 -0.4849
  498SOL     OW 1757   2.637   5.888   0.985  0.0116 -0.1652 -0.3083
  498SOL    HW2 1758   2.551   5.867   0.950 -1.9721  1.0891  3.3346
  498SOL    HW3 1759   2.654   5.978   0.957  0.2980 -0.4830 -1.2007
  498SOL    MW4 1760   2.628   5.897   0.976 -0.2123 -0.0416  0.0546
  499SOL     OW 1761   4.299   5.577   2.219 -0.1337  0.1528  0.3649
  499SOL    HW2 1762   4.349   5.548   2.295  1.5953  2.0599  0.0430
  499SOL    HW3 1763   4.301   5.673   2.225  0.0361  0.3495 -2.0834
  499SOL    MW4 1764   4.306   5.586   2.230  0.1168  0.4304 -0.0006
  500SOL     OW 1765   0.291   1.345   2.507  0.5896 -0.2587 -0.3130
  500SOL    HW2 1766   0.356   1.307   2.449  0.1263 -1.5931  0.0023
  500SOL    HW3 1767   0.299   1.439   2.494  3.6740 -0.2567  0.9135
  500SOL    MW4 1768   0.300   1.352   2.497  0.9354 -0.4345 -0.1096
  501SOL     OW 1769   5.610   4.919   2.657 -0.7684 -0.0994  0.0750
  501SOL    HW2 1770   5.653   5.004   2.669 -0.0836 -0.5743  1.2442
  501SOL    HW3 1771   5.624   4.898   2.565 -0.4248  0.7810 -0.0884
  501SOL    MW4 1772   5.618   4.927   2.647 -0.6327 -0.0459  0.2077
  502SOL     OW 1773   2.970   0.721   4.408  0.3921 -0.5935 -0.7782
  502SOL    HW2 1774   3.025   0.765   4.343 -0.6370  1.6608 -0.2102
  502SOL    HW3 1775   2.977   0.628   4.386  2.6122 -0.1857 -2.0904
  502SOL    MW4 1776   2.978   0.715   4.397  0.5493 -0.2422 -0.8764
  503SOL     OW 1777   1.650   6.429   5.047 -0.1960 -0.5604  0.5073
  503SOL    HW2 1778   1.702   6.377   4.985 -1.0679  0.6637 -1.3443
  503SOL    HW3 1779   1.710   6.499   5.074  0.2639 -1.2314  1.2753
  503SOL    MW4 1780   1.665   6.432   5.042 -0.2504 -0.4874  0.3643
  504SOL     OW 1781   0.655   0.982   1.659 -0.4085 -0.0908 -0.5484
  504SOL    HW2 1782   0.607   0.925   1.600  0.3816 -0.4093 -0.8997
  504SOL    HW3 1783   0.720   0.925   1.700  0.9832  0.7078 -1.5661
  504SOL    MW4 1784   0.657   0.967   1.657 -0.1206 -0.0274 -0.7290
  505SOL     OW 1785   4.976   5.960   3.906 -0.2796  0.3874  0.3516
  505SOL    HW2 1786   5.071   5.966   3.903 -0.1170 -1.0930  1.5164
  505SOL    HW3 1787   4.946   6.051   3.896  1.1771  0.7593 -1.2082
  505SOL    MW4 1788   4.984   5.973   3.904 -0.0659  0.2411  0.2995
  506SOL     OW 1789   0.498   1.461   5.345  0.2604  0.2070 -0.4261
  506SOL    HW2 1790   0.529   1.455   5.436  0.1803  1.3183 -0.3188
  506SOL    HW3 1791   0.417   1.512   5.351 -1.8369 -2.8183 -0.6653
  506SOL    MW4 1792   0.491   1.467   5.358 -0.0269 -0.0455 -0.4435
  507SOL     OW 1793   1.151   1.448   0.720 -0.1702 -0.0014  0.2705
  507SOL    HW2 1794   1.124   1.455   0.628 -1.1098 -2.7728  0.2272
  507SOL    HW3 1795   1.245   1.427   0.715  0.1777  1.5283  0.0491
  507SOL    MW4 1796   1.160   1.446   0.707 -0.2483 -0.1652  0.2355
  508SOL     OW 1797   0.952   4.248   5.378 -0.3008  0.0029 -0.3407
  508SOL    HW2 1798   0.960   4.315   5.311 -1.7774  1.7739  1.1500
  508SOL    HW3 1799   1.036   4.247   5.423 -0.2844  0.8692 -0.3545
  508SOL    MW4 1800   0.964   4.256   5.375 -0.4934  0.3509 -0.1459
  509SOL     OW 1801   3.457   6.435   6.181 -0.5307  0.0589 -0.0386
  509SOL    HW2 1802   3.391   6.366   6.188 -0.3508 -0.1815 -0.6750
  509SOL    HW3 1803   3.538   6.394   6.213 -0.4484  0.0111 -0.3101
  509SOL    MW4 1804   3.459   6.420   6.186 -0.4961  0.0209 -0.1584
  510SOL     OW 1805   2.687   3.927   3.626  0.6790 -0.1129 -0.4499
  510SOL    HW2 1806   2.764   3.976   3.656 -1.5051  1.4735  3.1325
  510SOL    HW3 1807   2.627   3.993   3.594 -0.2337 -1.0618 -0.7535
  510SOL    MW4 1808   2.689   3.942   3.626  0.2704 -0.0288 -0.0173
  511SOL     OW 1809   1.228   2.796   4.736  0.0157  0.3444 -1.0040
  511SOL    HW2 1810   1.237   2.711   4.693  0.7186 -1.1199  1.8056
  511SOL    HW3 1811   1.161   2.782   4.802  1.4233  1.3667  0.7322
  511SOL    MW4 1812   1.221   2.783   4.739  0.2942  0.2861 -0.4043
  512SOL     OW 1813   6.190   5.619   2.525 -0.1071 -0.1418 -0.9663
  512SOL    HW2 1814   6.191   5.709   2.557 -0.9566 -0.8903  1.3455
  512SOL    HW3 1815   6.263   5.616   2.463  2.2060  1.2977  1.4401
  512SOL    MW4 1816   6.200   5.631   2.521  0.0860 -0.0506 -0.3438
  513SOL     OW 1817   2.878   6.129   1.781  0.1689  0.5277  0.4732
  513SOL    HW2 1818   2.916   6.077   1.852  0.3284 -0.3719 -0.2623
  513SOL    HW3 1819   2.820   6.068   1.735 -0.0322  1.1379 -0.0979
  513SOL    MW4 1820   2.875   6.114   1.785  0.1634  0.4895  0.3008
  514SOL     OW 1821   5.756   4.555   5.707 -0.2933 -0.1716 -0.0373
  514SOL    HW2 1822   5.811   4.634   5.700  1.8846 -1.4890  1.2227
  514SOL    HW3 1823   5.767   4.525   5.797 -2.4578 -1.0150  0.0110
  514SOL    MW4 1824   5.765   4.562   5.718 -0.2915 -0.4567  0.1353
  515SOL     OW 1825   5.815   3.359   0.596  0.4867  0.2448  0.7420
  515SOL    HW2 1826   5.867   3.282   0.575  0.5977  0.6157 -0.4386
  515SOL    HW3 1827   5.874   3.433   0.578 -0.7366  0.7229 -1.7125
  515SOL    MW4 1828   5.830   3.359   0.591  0.3399  0.3568  0.2624
  516SOL     OW 1829   6.310   1.133   3.710 -0.2131  0.1692 -0.3384
  516SOL    HW2 1830   6.263   1.133   3.626 -1.3388  0.5489  0.2659
  516SOL    HW3 1831   6.242   1.149   3.775  0.7073  0.2852  0.6206
  516SOL    MW4 1832   6.295   1.135   3.708 -0.2402  0.2346 -0.1321
  517SOL     OW 1833   0.984   4.491   6.089  0.1176 -0.5334  0.1757
  517SOL    HW2 1834   0.926   4.516   6.017  0.8471  1.4860  0.2510
  517SOL    HW3 1835   1.030   4.571   6.113  2.1963 -1.8369  0.8176
  517SOL    MW4 1836   0.983   4.505   6.082  0.4881 -0.4389  0.2703
  518SOL     OW 1837   5.489   0.055   0.529 -1.2850 -0.7241  0.3015
  518SOL    HW2 1838   5.424  -0.011   0.505 -0.3473 -1.9121  0.8675
  518SOL    HW3 1839   5.545   0.062   0.451 -0.8788 -1.2679  0.5313
  518SOL    MW4 1840   5.488   0.047   0.515 -1.1077 -0.9526  0.4065
  519SOL     OW 1841   1.816   0.783   6.137 -0.6998  0.3675  0.1289
  519SOL    HW2 1842   1.862   0.863   6.162  0.3813  0.6047 -2.3725
  519SOL    HW3 1843   1.776   0.803   6.052 -0.5662 -1.6576 -0.4677
  519SOL    MW4 1844   1.817   0.796   6.129 -0.5395  0.1316 -0.2798
  520SOL     OW 1845   3.850   6.276   5.410 -0.2003  0.7537  0.0062
  520SOL    HW2 1846   3.847   6.181   5.415  1.1094  0.7261  0.7629
  520SOL    HW3 1847   3.759   6.304   5.423 -0.5747 -0.3815 -0.1201
  520SOL    MW4 1848   3.837   6.267   5.412 -0.0769  0.6003  0.0894
  521SOL     OW 1849   6.287   3.491   6.473 -0.0416  0.1111  0.1165
  521SOL    HW2 1850   6.233   3.412   6.476 -0.3114  0.3146  2.8802
  521SOL    HW3 1851   6.377   3.458   6.469 -0.1817 -0.3478  0.5966
  521SOL    MW4 1852   6.292   3.476   6.473 -0.0957  0.0774  0.5445
  522SOL     OW 1853   1.189   4.427   1.048  0.8118 -0.1385  0.6846
  522SOL    HW2 1854   1.111   4.479   1.030  1.2045  0.1884 -0.0903
  522SOL    HW3 1855   1.230   4.470   1.123 -0.7976 -1.4746  2.4513
  522SOL    MW4 1856   1.184   4.439   1.056  0.6513 -0.2716  0.8155
  523SOL     OW 1857   5.078   2.739   2.821  0.4347  1.0660 -0.5221
  523SOL    HW2 1858   4.984   2.758   2.825 -0.0784 -0.4840 -3.0748
  523SOL    HW3 1859   5.098   2.698   2.905 -1.4829  0.2434 -0.4165
  523SOL    MW4 1860   5.068   2.736   2.833  0.1140  0.7530 -0.8450
  524SOL     OW 1861   2.521   1.805   0.451 -0.1486 -0.2312 -0.3228
  524SOL    HW2 1862   2.537   1.718   0.414  1.8145  0.4205 -1.1125
  524SOL    HW3 1863   2.579   1.863   0.403 -2.5527  1.8593 -0.9495
  524SOL    MW4 1864   2.530   1.801   0.440 -0.2068  0.1306 -0.5096
  525SOL     OW 1865   6.224   2.007   0.318 -0.3614  0.0975 -0.1905
  525SOL    HW2 1866   6.192   2.075   0.376 -1.6025 -0.4915 -0.1458
  525SOL    HW3 1867   6.166   1.933   0.333  0.3386 -0.6370 -0.9569
  525SOL    MW4 1868   6.212   2.006   0.327 -0.4328 -0.0771 -0.2857
  526SOL     OW 1869   3.921   3.770   1.905  0.0577 -0.0230  0.4298
  526SOL    HW2 1870   3.977   3.693   1.914  0.0663 -0.3567 -1.8673
  526SOL    HW3 1871   3.840   3.746   1.949  0.1400 -1.2903 -0.0601
  526SOL    MW4 1872   3.918   3.757   1.912  0.0697 -0.2343  0.0621
  527SOL     OW 1873   5.448   2.276   4.237  0.2980  0.0346  0.3412
  527SOL    HW2 1874   5.443   2.279   4.141  2.3105  0.0734  0.2024
  527SOL    HW3 1875   5.373   2.223   4.263  1.2219 -2.2903 -1.4330
  527SOL    MW4 1876   5.438   2.270   4.227  0.6854 -0.2670  0.0888
  528SOL     OW 1877   4.805   1.611   5.563 -0.4506 -0.0377 -0.1541
  528SOL    HW2 1878   4.796   1.571   5.649 -2.6651 -1.6067 -1.0363
  528SOL    HW3 1879   4.731   1.671   5.556 -0.4100 -0.0763 -1.0406
  528SOL    MW4 1880   4.794   1.613   5.574 -0.7374 -0.2498 -0.3874
  529SOL     OW 1881   5.809   1.341   0.929 -0.2680  0.4934 -0.4036
  529SOL    HW2 1882   5.786   1.298   0.847  0.5614 -1.9354  0.5539
  529SOL    HW3 1883   5.904   1.352   0.925 -0.1518 -0.1184  0.4348
  529SOL    MW4 1884   5.819   1.337   0.918 -0.1433  0.0922 -0.1667
  530SOL     OW 1885   5.009   3.521   1.295 -0.2614 -0.3591  0.3162
  530SOL    HW2 1886   4.974   3.457   1.233 -0.4372 -0.3901  0.4451
  530SOL    HW3 1887   5.080   3.476   1.339  0.1295 -0.2036 -0.1467
  530SOL    MW4 1888   5.014   3.507   1.293 -0.2330 -0.3427  0.2722
  531SOL     OW 1889   6.367   3.139   5.339  0.1568 -0.3943 -0.0679
  531SOL    HW2 1890   6.457   3.173   5.344  0.3449 -0.8510 -0.2598
  531SOL    HW3 1891   6.378   3.049   5.308 -0.4679  0.0891 -1.8602
  531SOL    MW4 1892   6.380   3.132   5.335  0.0992 -0.3908 -0.3297
  532SOL     OW 1893   1.685   4.171   6.013 -0.0432 -0.2095  0.2932
  532SOL    HW2 1894   1.614   4.125   5.967  1.4059 -1.1193 -1.1266
  532SOL    HW3 1895   1.758   4.109   6.013  0.9897  0.9641  1.1098
  532SOL    MW4 1896   1.685   4.157   6.007  0.2843 -0.1747  0.2136
  533SOL     OW 1897   2.951   4.903   3.833 -0.2108  0.4724  0.1730
  533SOL    HW2 1898   2.904   4.829   3.793  0.2956 -1.4358  2.8269
  533SOL    HW3 1899   3.040   4.871   3.845  0.0149  1.5020  1.3944
  533SOL    MW4 1900   2.956   4.889   3.829 -0.1142  0.3565  0.6843
  534SOL     OW 1901   5.115   0.107   0.615  0.3005 -0.0364  0.1120
  534SOL    HW2 1902   5.114   0.075   0.706 -1.2306  2.5581  1.1148
  534SOL    HW3 1903   5.196   0.157   0.609 -0.7116  1.8095  0.9150
  534SOL    MW4 1904   5.125   0.109   0.626 -0.0350  0.5494  0.3502
  535SOL     OW 1905   4.083   3.606   2.727 -0.3079  0.0106  0.5290
  535SOL    HW2 1906   4.107   3.554   2.650 -1.9396  0.3505 -0.2636
  535SOL    HW3 1907   4.148   3.677   2.729 -0.7667  0.5431 -1.1466
  535SOL    MW4 1908   4.094   3.609   2.717 -0.5837  0.1257  0.2034
  536SOL     OW 1909   2.840   3.687   0.880  0.1162  0.2975  0.1885
  536SOL    HW2 1910   2.924   3.725   0.903  0.4363 -0.7931  0.9100
  536SOL    HW3 1911   2.789   3.690   0.962  0.1891 -0.8888  0.2940
  536SOL    MW4 1912   2.844   3.692   0.894  0.1681 -0.0029  0.2976
  537SOL     OW 1913   4.810   1.732   3.906  0.1161  0.4658  0.0965
  537SOL    HW2 1914   4.765   1.649   3.899 -0.3400  0.8386 -1.9939
  537SOL    HW3 1915   4.808   1.753   3.999 -1.3834 -0.9548  0.4165
  537SOL    MW4 1916   4.804   1.724   3.917 -0.1419  0.3275 -0.1371
  538SOL     OW 1917   5.216   2.032   1.155 -0.1797  0.5815 -0.3106
  538SOL    HW2 1918   5.307   2.045   1.184 -0.8223  0.5652  1.8262
  538SOL    HW3 1919   5.209   1.938   1.139  0.1700  0.5830 -0.4837
  538SOL    MW4 1920   5.227   2.021   1.157 -0.2183  0.5796 -0.0515
  539SOL     OW 1921   0.589   0.802   5.567  0.1109  0.4062 -0.0544
  539SOL    HW2 1922   0.603   0.751   5.487  0.3142  0.4309 -0.0346
  539SOL    HW3 1923   0.653   0.767   5.629  1.4165  1.7861 -0.5465
  539SOL    MW4 1924   0.599   0.790   5.564  0.3100  0.5915 -0.1168
  540SOL     OW 1925   3.438   0.115   3.391 -0.2973 -0.8411 -0.2799
  540SOL    HW2 1926   3.453   0.186   3.453  1.4744 -0.3723 -1.1610
  540SOL    HW3 1927   3.347   0.128   3.361 -0.2111  0.6973  0.0323
  540SOL    MW4 1928   3.428   0.126   3.395 -0.0521 -0.5763 -0.3549
  541SOL     OW 1929   6.208   3.250   6.361 -0.2202 -0.5278 -0.0170
  541SOL    HW2 1930   6.235   3.202   6.440  0.2067  0.0832  0.2125
  541SOL    HW3 1931   6.274   3.227   6.296 -0.0728 -0.3345  0.0634
  541SOL    MW4 1932   6.220   3.241   6.363 -0.1444 -0.4216  0.0239
  542SOL     OW 1933   3.913   5.332   3.465  0.3885 -0.3761  0.0661
  542SOL    HW2 1934   3.997   5.312   3.507 -0.0654 -2.8162 -0.0640
  542SOL    HW3 1935   3.930   5.326   3.372  0.3520  0.4938 -0.0075
  542SOL    MW4 1936   3.926   5.329   3.458  0.3238 -0.5833  0.0392
  543SOL     OW 1937   1.948   3.589   4.572  0.4604  0.4427  0.5856
  543SOL    HW2 1938   1.931   3.656   4.506 -1.0032 -0.3407  0.1043
  543SOL    HW3 1939   2.006   3.630   4.635 -0.8844  2.3805  0.6356
  543SOL    MW4 1940   1.953   3.603   4.571  0.0898  0.5950  0.5287
  544SOL     OW 1941   2.882   6.109   2.464 -0.6448 -0.5094  0.4094
  544SOL    HW2 1942   2.877   6.197   2.428 -1.3050 -0.7362 -0.0716
  544SOL    HW3 1943   2.831   6.055   2.404  0.5242 -1.4038  0.1686
  544SOL    MW4 1944   2.875   6.113   2.452 -0.5777 -0.6573  0.3142
  545SOL     OW 1945   6.048   0.089   3.954  0.1390 -0.3159  0.3803
  545SOL    HW2 1946   6.005   0.026   4.012 -0.5492  0.7594  1.0707
  545SOL    HW3 1947   5.979   0.118   3.895  0.5622 -0.5447 -0.2324
  545SOL    MW4 1948   6.033   0.084   3.954  0.1040 -0.2043  0.3906
  546SOL     OW 1949   2.883   5.792   6.360 -0.0773  0.2333  0.0684
  546SOL    HW2 1950   2.918   5.862   6.305  2.6013 -1.5481 -0.6949
  546SOL    HW3 1951   2.850   5.727   6.297  1.9291 -1.2947  0.5114
  546SOL    MW4 1952   2.883   5.792   6.344  0.5408 -0.2033  0.0262
  547SOL     OW 1953   5.046   0.264   6.336  0.0882  0.2413  0.1375
  547SOL    HW2 1954   5.022   0.315   6.413  0.3819  0.5106  0.0570
  547SOL    HW3 1955   5.068   0.330   6.270  1.1929  0.0205  0.2616
  547SOL    MW4 1956   5.046   0.280   6.337  0.2727  0.2477  0.1433
  548SOL     OW 1957   5.757   3.982   4.095 -0.3222  0.3670  0.0608
  548SOL    HW2 1958   5.671   3.941   4.097  0.0427 -0.4381 -0.3666
  548SOL    HW3 1959   5.753   4.049   4.163 -0.7062 -0.8364  1.2656
  548SOL    MW4 1960   5.745   3.985   4.104 -0.3247  0.1020  0.1634
  549SOL     OW 1961   5.280   5.069   5.521  0.2829  0.3177  0.3223
  549SOL    HW2 1962   5.314   5.066   5.432 -2.3845 -0.4431 -0.7864
  549SOL    HW3 1963   5.234   5.153   5.527 -1.6170 -0.6273  0.0387
  549SOL    MW4 1964   5.278   5.079   5.510 -0.3197  0.0927  0.1386
  550SOL     OW 1965   4.882   4.545   1.250  0.2835  0.2680 -0.4522
  550SOL    HW2 1966   4.787   4.537   1.245  0.1706  1.4626 -0.4395
  550SOL    HW3 1967   4.904   4.511   1.337 -0.1616  0.2661 -0.3362
  550SOL    MW4 1968   4.873   4.540   1.261  0.2099  0.4254 -0.4352
  551SOL     OW 1969   0.511   5.671   0.258 -0.6355 -0.0263 -0.6103
  551SOL    HW2 1970   0.543   5.599   0.312 -0.8855  0.9170  0.8486
  551SOL    HW3 1971   0.588   5.697   0.207 -0.5170 -1.2443 -1.1020
  551SOL    MW4 1972   0.526   5.665   0.259 -0.6529 -0.0626 -0.4827
  552SOL     OW 1973   4.715   5.114   6.446  0.4320 -0.1485 -0.1852
  552SOL    HW2 1974   4.729   5.041   6.385 -0.7657 -1.9938  1.5923
  552SOL    HW3 1975   4.766   5.090   6.524  0.0127  0.8937  0.4315
  552SOL    MW4 1976   4.723   5.101   6.449  0.2186 -0.2544  0.1307
  553SOL     OW 1977   1.090   5.998   6.353  0.4312  0.1657  0.6146
  553SOL    HW2 1978   1.131   6.041   6.428  2.3148 -0.2135 -0.1176
  553SOL    HW3 1979   1.028   6.062   6.319  0.6547  0.9283  1.5890
  553SOL    MW4 1980   1.087   6.012   6.358  0.7092  0.2163  0.6466
  554SOL     OW 1981   5.611   4.584   2.029  0.5478  0.1066 -0.9429
  554SOL    HW2 1982   5.616   4.508   1.971  0.5627 -0.2597 -0.4745
  554SOL    HW3 1983   5.531   4.630   2.003  0.9875  0.4066 -1.7938
  554SOL    MW4 1984   5.601   4.580   2.018  0.6078  0.0979 -0.9933
  555SOL     OW 1985   2.776   2.758   3.426 -0.0555  0.3369  0.0439
  555SOL    HW2 1986   2.719   2.754   3.503 -0.0789  1.8901  0.1346
  555SOL    HW3 1987   2.746   2.835   3.377  0.1901 -0.4096 -1.3502
  555SOL    MW4 1988   2.764   2.768   3.429 -0.0262  0.4433 -0.1281
  556SOL     OW 1989   3.086   2.809   4.917 -0.6254 -0.0124 -0.0968
  556SOL    HW2 1990   3.059   2.840   4.830  1.5010  0.4552 -0.6502
  556SOL    HW3 1991   3.062   2.881   4.976  1.1902  1.3277 -0.8856
  556SOL    MW4 1992   3.080   2.823   4.913 -0.1053  0.2261 -0.2739
  557SOL     OW 1993   5.486   5.628   3.019  0.0148 -0.4278 -0.1477
  557SOL    HW2 1994   5.477   5.581   2.936 -0.2341 -2.0908  0.7896
  557SOL    HW3 1995   5.399   5.624   3.059  0.5842 -1.3331  1.0517
  557SOL    MW4 1996   5.473   5.621   3.013  0.0570 -0.7667  0.1342
  558SOL     OW 1997   2.424   0.336   1.230  0.2347  0.3860 -0.3352
  558SOL    HW2 1998   2.511   0.311   1.261 -0.2627 -0.8229  0.1366
  558SOL    HW3 1999   2.411   0.283   1.151 -0.1447  0.4534 -0.3199
  558SOL    MW4 2000   2.434   0.326   1.223  0.1190  0.2354 -0.2709
  559SOL     OW 2001   3.370   6.310   5.081 -0.2019  0.6198 -0.3109
  559SOL    HW2 2002   3.427   6.233   5.071 -1.4933 -0.1919 -2.1307
  559SOL    HW3 2003   3.325   6.317   4.996  1.2949  4.5974 -0.9868
  559SOL    MW4 2004   3.372   6.301   5.068 -0.1748  1.0375 -0.6402
  560SOL     OW 2005   2.390   4.702   4.917 -0.2242 -0.1072 -0.5570
  560SOL    HW2 2006   2.425   4.660   4.839  0.2603 -0.3647 -0.2070
  560SOL    HW3 2007   2.441   4.665   4.989 -1.2902 -0.5780 -0.0193
  560SOL    MW4 2008   2.401   4.691   4.916 -0.3009 -0.2033 -0.4399
  561SOL     OW 2009   0.389   3.997   0.520  0.1537  0.2195 -0.1082
  561SOL    HW2 2010   0.437   4.065   0.569  0.9501 -0.1851 -0.3129
  561SOL    HW3 2011   0.410   4.015   0.428 -0.4524  0.3045 -0.2331
  561SOL    MW4 2012   0.398   4.008   0.514  0.1788  0.1773 -0.1517
  562SOL     OW 2013   0.831   4.038   2.798 -0.0160  0.9927  0.0946
  562SOL    HW2 2014   0.737   4.032   2.812  0.1400  1.7585  1.7281
  562SOL    HW3 2015   0.865   3.954   2.829 -0.0306  1.3160  1.0247
  562SOL    MW4 2016   0.823   4.026   2.804  0.0027  1.1364  0.4329
  563SOL     OW 2017   2.974   1.616   1.101 -0.3157  0.0211 -0.2435
  563SOL    HW2 2018   3.011   1.562   1.032 -0.4101  0.6123 -0.7723
  563SOL    HW3 2019   2.900   1.565   1.134  1.0630 -1.2442  0.9584
  563SOL    MW4 2020   2.969   1.602   1.096 -0.1463 -0.0678 -0.1547
  564SOL     OW 2021   1.230   2.951   1.518  0.1565 -0.7047 -0.2206
  564SOL    HW2 2022   1.179   3.032   1.521  0.4255 -0.5476  0.2691
  564SOL    HW3 2023   1.304   2.967   1.578 -0.6801 -1.9181  1.2064
  564SOL    MW4 2024   1.233   2.964   1.527  0.0816 -0.8441  0.0323
  565SOL     OW 2025   6.026   0.224   1.278  0.1954 -0.0383  0.3365
  565SOL    HW2 2026   6.038   0.141   1.324  1.0977 -1.1910 -1.8752
  565SOL    HW3 2027   6.111   0.267   1.284  0.2301 -0.0593  0.0048
  565SOL    MW4 2028   6.038   0.219   1.285  0.3190 -0.1931  0.0009
  566SOL     OW 2029   3.965   4.436   4.143 -0.5480 -0.2917 -0.4022
  566SOL    HW2 2030   4.022   4.413   4.216 -0.9397 -0.6199 -0.1926
  566SOL    HW3 2031   3.974   4.362   4.082 -0.4687 -0.1700 -0.5381
  566SOL    MW4 2032   3.974   4.423   4.145 -0.5892 -0.3190 -0.3925
  567SOL     OW 2033   6.317   5.447   3.495  0.2622  0.1052 -0.6033
  567SOL    HW2 2034   6.230   5.408   3.499 -0.3493  1.4974  0.0816
  567SOL    HW3 2035   6.315   5.504   3.418  1.3548 -1.5753 -1.9728
  567SOL    MW4 2036   6.305   5.449   3.485  0.3257  0.0672 -0.6936
  568SOL     OW 2037   3.378   2.618   0.972  0.0307 -0.3281 -0.0388
  568SOL    HW2 2038   3.317   2.578   0.910  1.0407  0.3364 -1.5199
  568SOL    HW3 2039   3.352   2.710   0.975 -0.3493 -0.4580  0.9716
  568SOL    MW4 2040   3.367   2.625   0.964  0.1138 -0.2575 -0.1009
  569SOL     OW 2041   5.286   5.417   1.756  0.4845 -0.2244 -0.2348
  569SOL    HW2 2042   5.216   5.411   1.691 -0.4540 -1.4466  0.8128
  569SOL    HW3 2043   5.296   5.327   1.788  2.9240 -0.1880 -0.7044
  569SOL    MW4 2044   5.278   5.404   1.752  0.6825 -0.3809 -0.1586
  570SOL     OW 2045   6.234   2.444   5.011  0.6768  0.4567  0.3068
  570SOL    HW2 2046   6.205   2.403   5.092 -0.3547 -2.2431 -1.3004
  570SOL    HW3 2047   6.157   2.442   4.954  1.8503  0.5356 -1.3565
  570SOL    MW4 2048   6.220   2.438   5.014  0.6956  0.1109 -0.1247
  571SOL     OW 2049   3.702   1.055   4.032 -0.2637 -0.4147  0.1488
  571SOL    HW2 2050   3.738   1.004   3.959  0.4283 -0.0101  0.1989
  571SOL    HW3 2051   3.618   1.014   4.051 -0.4390 -0.5504 -0.8559
  571SOL    MW4 2052   3.696   1.043   4.025 -0.1955 -0.3792  0.0229
  572SOL     OW 2053   0.923   2.755   4.711 -0.2131 -0.2190  0.5249
  572SOL    HW2 2054   0.841   2.724   4.750 -0.7134  1.5845  1.0168
  572SOL    HW3 2055   0.899   2.784   4.623 -0.4252  1.5185  1.1154
  572SOL    MW4 2056   0.909   2.755   4.705 -0.3071  0.2482  0.6677
  573SOL     OW 2057   1.549   0.458   4.624 -0.2541  0.0419  0.2308
  573SOL    HW2 2058   1.617   0.521   4.597  0.7439 -0.3751  1.6648
  573SOL    HW3 2059   1.472   0.483   4.572  0.3300  1.9638  0.1975
  573SOL    MW4 2060   1.548   0.470   4.613 -0.0454  0.2405  0.4156
  574SOL     OW 2061   3.609   3.143   5.584  0.0602  0.3316 -0.0577
  574SOL    HW2 2062   3.576   3.198   5.513  0.3583  0.2905 -0.2259
  574SOL    HW3 2063   3.555   3.168   5.660 -0.5843  0.0331 -0.4071
  574SOL    MW4 2064   3.597   3.153   5.585  0.0145  0.2868 -0.1260
  575SOL     OW 2065   1.993   3.571   3.919  0.4541  0.4374 -0.1107
  575SOL    HW2 2066   1.959   3.555   3.831 -0.1240 -0.2175  0.2146
  575SOL    HW3 2067   1.973   3.490   3.967  1.3794  0.5201  0.4339
  575SOL    MW4 2068   1.986   3.558   3.914  0.4999  0.3619  0.0041
  576SOL     OW 2069   1.254   0.944   4.800 -0.6101 -0.6239 -0.7356
  576SOL    HW2 2070   1.337   0.992   4.804 -0.3093 -1.1492 -0.7192
  576SOL    HW3 2071   1.188   1.013   4.791 -0.1093 -0.2352 -1.6521
  576SOL    MW4 2072   1.256   0.960   4.799 -0.5043 -0.6419 -0.8543
  577SOL     OW 2073   4.274   4.937   5.321 -0.6327 -0.3680  0.1952
  577SOL    HW2 2074   4.225   4.855   5.324 -1.2434 -0.2154 -2.7783
  577SOL    HW3 2075   4.207   5.005   5.333 -0.8116 -0.2346 -1.3782
  577SOL    MW4 2076   4.258   4.935   5.323 -0.7369 -0.3302 -0.4047
  578SOL     OW 2077   4.439   2.999   2.805  0.5827 -0.0063 -0.0926
  578SOL    HW2 2078   4.359   3.046   2.828 -1.2063 -2.3139 -1.1720
  578SOL    HW3 2079   4.444   2.927   2.867  0.7987 -0.9300 -1.1459
  578SOL    MW4 2080   4.429   2.996   2.816  0.3752 -0.4326 -0.3740
  579SOL     OW 2081   0.766   2.449   5.204 -0.4518 -0.0854  0.3365
  579SOL    HW2 2082   0.692   2.485   5.251 -1.4591 -0.3111 -1.0050
  579SOL    HW3 2083   0.743   2.458   5.111 -0.2135 -2.9326 -0.1128
  579SOL    MW4 2084   0.753   2.455   5.198 -0.5533 -0.4908  0.1002
  580SOL     OW 2085   2.475   3.295   4.414 -0.2810  0.0799 -0.0630
  580SOL    HW2 2086   2.432   3.343   4.485 -4.9027 -2.8813 -0.4429
  580SOL    HW3 2087   2.541   3.242   4.457 -1.4761 -0.0212  1.7500
  580SOL    MW4 2088   2.478   3.294   4.429 -1.0485 -0.3242  0.1261
  581SOL     OW 2089   2.672   5.953   1.250 -0.5224  0.3092 -0.1331
  581SOL    HW2 2090   2.661   5.928   1.158  0.2991 -0.4846 -0.0376
  581SOL    HW3 2091   2.602   6.015   1.267  1.0038  2.7883 -2.1253
  581SOL    MW4 2092   2.661   5.958   1.240 -0.2126  0.5315 -0.3834
  582SOL     OW 2093   3.979   3.192   5.098 -0.2804  0.3951  0.0101
  582SOL    HW2 2094   4.024   3.122   5.050 -1.4987  1.4222 -2.8464
  582SOL    HW3 2095   3.908   3.147   5.145  0.8390 -0.6156  0.8368
  582SOL    MW4 2096   3.976   3.177   5.098 -0.2935  0.3973 -0.2577
  583SOL     OW 2097   2.573   3.706   4.594  0.2149  0.0373 -0.3102
  583SOL    HW2 2098   2.525   3.769   4.647 -2.0982 -0.4135 -1.6828
  583SOL    HW3 2099   2.654   3.750   4.570  0.0600  1.2710  1.2709
  583SOL    MW4 2100   2.577   3.720   4.598 -0.1107  0.1406 -0.2827
  584SOL     OW 2101   1.228   2.260   0.358  0.3894  0.2629 -0.9980
  584SOL    HW2 2102   1.321   2.250   0.336  0.8701  1.2143  0.4633
  584SOL    HW3 2103   1.227   2.272   0.453 -1.2920 -0.3443 -0.9086
  584SOL    MW4 2104   1.240   2.260   0.368  0.2310  0.3083 -0.7934
  585SOL     OW 2105   1.590   0.086   0.541 -0.1638  0.0186  0.0155
  585SOL    HW2 2106   1.628   0.170   0.569  0.4759  0.2201 -1.3590
  585SOL    HW3 2107   1.666   0.030   0.524 -0.5897 -1.1249  1.6409
  585SOL    MW4 2108   1.605   0.090   0.542 -0.1356 -0.1057  0.0486
  586SOL     OW 2109   0.873   0.264   1.033  0.3649 -0.3479 -0.2579
  586SOL    HW2 2110   0.844   0.353   1.052 -1.8196 -0.4270 -2.6117
  586SOL    HW3 2111   0.826   0.210   1.096 -0.0188  0.0153 -0.2283
  586SOL    MW4 2112   0.863   0.269   1.044  0.0261 -0.3104 -0.5645
  587SOL     OW 2113   6.151   2.037   6.081 -0.2235  0.4489  0.7599
  587SOL    HW2 2114   6.077   2.032   6.141 -0.2591  2.6042  0.9805
  587SOL    HW3 2115   6.224   1.998   6.129 -1.2934 -2.4477  0.2487
  587SOL    MW4 2116   6.151   2.031   6.095 -0.3693  0.3511  0.7216
  588SOL     OW 2117   5.507   4.234   1.763  0.1240  0.2673  0.1517
  588SOL    HW2 2118   5.469   4.250   1.677  0.2659 -1.1396 -0.1978
  588SOL    HW3 2119   5.538   4.320   1.792 -1.0778  0.9897 -0.6270
  588SOL    MW4 2120   5.506   4.248   1.755 -0.0158  0.1770  0.0028
  589SOL     OW 2121   1.820   0.972   0.116 -0.0657  0.1771  0.0985
  589SOL    HW2 2122   1.837   1.053   0.164 -0.6083 -0.6403  1.7498
  589SOL    HW3 2123   1.728   0.952   0.136  0.5981 -1.8678  1.4163
  589SOL    MW4 2124   1.810   0.980   0.125 -0.0497 -0.2006  0.4902
  590SOL     OW 2125   5.547   0.654   3.942  0.6703 -0.6668 -0.0455
  590SOL    HW2 2126   5.480   0.594   3.976  0.4529 -1.5506 -1.9120
  590SOL    HW3 2127   5.508   0.740   3.950 -0.1528 -1.0445  0.1273
  590SOL    MW4 2128   5.533   0.657   3.948  0.5330 -0.8332 -0.2690
  591SOL     OW 2129   4.604   5.948   0.939 -0.0089  0.2844 -0.0595
  591SOL    HW2 2130   4.520   5.913   0.910  0.3373  0.9553 -1.9980
  591SOL    HW3 2131   4.587   5.981   1.028 -1.6874  0.0807 -0.2774
  591SOL    MW4 2132   4.590   5.948   0.947 -0.1846  0.3460 -0.3441
  592SOL     OW 2133   0.326   1.071   4.985  0.6451  0.0275 -0.6728
  592SOL    HW2 2134   0.231   1.069   4.979  0.5666  1.5164 -0.4529
  592SOL    HW3 2135   0.349   0.996   5.040 -0.5940  0.9198  1.1566
  592SOL    MW4 2136   0.317   1.061   4.991  0.4713  0.3417 -0.4024
  593SOL     OW 2137   2.422   3.981   5.019 -0.7471 -0.0989 -0.2507
  593SOL    HW2 2138   2.361   3.977   5.093  0.8358 -1.1329  1.0476
  593SOL    HW3 2139   2.509   3.985   5.058  0.1143  0.1237 -2.0643
  593SOL    MW4 2140   2.425   3.981   5.034 -0.4246 -0.2059 -0.3187
  594SOL     OW 2141   6.192   2.541   1.415 -0.4675 -0.8419  0.3383
  594SOL    HW2 2142   6.222   2.450   1.417 -0.0898 -0.7248  1.8429
  594SOL    HW3 2143   6.136   2.549   1.492  0.2090  0.4110  0.7225
  594SOL    MW4 2144   6.189   2.530   1.426 -0.3284 -0.6611  0.5875
  595SOL     OW 2145   6.383   2.502   1.139  0.1125  0.0097 -0.6176
  595SOL    HW2 2146   6.295   2.524   1.107 -0.3062 -1.4094 -0.5371
  595SOL    HW3 2147   6.401   2.567   1.206 -0.0510  1.5065 -1.9822
  595SOL    MW4 2148   6.374   2.513   1.143  0.0357  0.0199 -0.7870
  596SOL     OW 2149   5.788   5.194   5.224  0.1624 -0.9138  0.2653
  596SOL    HW2 2150   5.739   5.266   5.184  1.7823  0.4796  0.6902
  596SOL    HW3 2151   5.772   5.119   5.166  3.3703  1.2305 -3.9591
  596SOL    MW4 2152   5.780   5.193   5.211  0.7994 -0.4470 -0.2360
  597SOL     OW 2153   3.060   5.018   1.834 -0.8531 -0.2228  0.8264
  597SOL    HW2 2154   3.120   5.090   1.854  0.5907 -0.2884 -2.6760
  597SOL    HW3 2155   2.978   5.062   1.810 -0.1169  0.3213 -0.8575
  597SOL    MW4 2156   3.057   5.033   1.834 -0.5654 -0.1596  0.1421
  598SOL     OW 2157   0.119   2.525   0.135 -0.0399  0.0671 -0.6574
  598SOL    HW2 2158   0.198   2.565   0.100 -0.7707  1.7643 -0.4496
  598SOL    HW3 2159   0.090   2.584   0.204 -1.0986 -0.8958 -0.2363
  598SOL    MW4 2160   0.125   2.538   0.140 -0.2760  0.1640 -0.5745
  599SOL     OW 2161   1.223   5.488   2.489 -0.0775  0.5568 -0.4816
  599SOL    HW2 2162   1.295   5.435   2.456 -0.5761 -0.7397  0.4472
  599SOL    HW3 2163   1.265   5.564   2.529  1.0652 -1.4526  2.5175
  599SOL    MW4 2164   1.238   5.491   2.490  0.0075  0.1206  0.0366
  600SOL     OW 2165   3.056   2.609   1.529 -0.0389 -0.0288 -0.2511
  600SOL    HW2 2166   3.073   2.533   1.473  0.9123 -0.5385  0.6910
  600SOL    HW3 2167   3.141   2.629   1.567 -0.5957  0.5511  0.7099
  600SOL    MW4 2168   3.069   2.601   1.526  0.0131 -0.0195 -0.0000
  601SOL     OW 2169   3.296   4.191   3.214 -0.1333  0.5059  0.4900
  601SOL    HW2 2170   3.201   4.197   3.212 -0.1616  0.0389  0.2758
  601SOL    HW3 2171   3.317   4.121   3.152  0.3327  0.4696  0.6836
  601SOL    MW4 2172   3.286   4.182   3.206 -0.0755  0.4395  0.4873
  602SOL     OW 2173   5.820   4.427   0.983 -0.4204 -0.1923  0.1205
  602SOL    HW2 2174   5.816   4.497   0.917 -0.5736  0.0335  0.3677
  602SOL    HW3 2175   5.786   4.467   1.063  0.9534 -0.0959  0.6712
  602SOL    MW4 2176   5.815   4.441   0.985 -0.2594 -0.1498  0.2258
  603SOL     OW 2177   2.596   4.626   0.940  0.0561  0.5918  0.5194
  603SOL    HW2 2178   2.546   4.673   0.874  0.8016  1.4661  0.5706
  603SOL    HW3 2179   2.646   4.693   0.986  1.3354 -0.2583  0.4275
  603SOL    MW4 2180   2.596   4.641   0.937  0.3232  0.5950  0.5140
  604SOL     OW 2181   1.649   3.878   3.648 -0.1569 -0.6744 -0.4453
  604SOL    HW2 2182   1.737   3.843   3.633  0.2281 -0.0289  0.2418
  604SOL    HW3 2183   1.648   3.901   3.741 -0.1278  1.7882 -0.9878
  604SOL    MW4 2184   1.661   3.877   3.658 -0.1022 -0.2643 -0.4262
  605SOL     OW 2185   1.136   1.946   4.390 -0.2714 -0.1157  0.1355
  605SOL    HW2 2186   1.136   1.862   4.434  1.7176  0.5584  1.5901
  605SOL    HW3 2187   1.209   1.994   4.430  0.1227  1.4468 -2.2257
  605SOL    MW4 2188   1.146   1.941   4.401  0.0430  0.1794  0.0159
  606SOL     OW 2189   1.942   6.046   2.214  0.2133  0.4961 -0.3924
  606SOL    HW2 2190   1.941   6.142   2.216  1.5865  0.5870 -2.0567
  606SOL    HW3 2191   1.850   6.021   2.212 -0.1583  1.7744 -0.2175
  606SOL    MW4 2192   1.930   6.055   2.214  0.3455  0.6768 -0.5889
  607SOL     OW 2193   3.963   3.229   0.593 -0.1073 -0.1262  0.0895
  607SOL    HW2 2194   3.997   3.174   0.522 -1.5463 -0.0007 -0.7256
  607SOL    HW3 2195   3.950   3.168   0.665  1.5131 -0.2289  0.3337
  607SOL    MW4 2196   3.966   3.213   0.593 -0.0834 -0.1232  0.0141
  608SOL     OW 2197   0.748   2.062   4.961 -0.5535  0.0705  0.7466
  608SOL    HW2 2198   0.707   2.068   5.047  0.7609  0.8289  1.3493
  608SOL    HW3 2199   0.823   2.003   4.974 -0.7701 -0.4060 -0.0646
  608SOL    MW4 2200   0.753   2.055   4.974 -0.4087  0.1077  0.7191
  609SOL     OW 2201   3.998   3.679   0.684  0.0669  0.7796  0.7219
  609SOL    HW2 2202   3.932   3.612   0.666 -0.9925  1.7060  1.0942
  609SOL    HW3 2203   4.003   3.683   0.779  1.9120 -0.4489  0.7478
  609SOL    MW4 2204   3.990   3.670   0.694  0.1706  0.7397  0.7745
  610SOL     OW 2205   2.832   2.528   1.253 -0.0969 -0.1721 -0.8912
  610SOL    HW2 2206   2.822   2.455   1.314  1.0531 -0.3844 -0.9342
  610SOL    HW3 2207   2.742   2.557   1.235 -0.5592 -1.4595 -0.7455
  610SOL    MW4 2208   2.819   2.523   1.258 -0.0062 -0.3700 -0.8777
  611SOL     OW 2209   5.726   4.201   0.574 -0.0427  0.0750  0.1219
  611SOL    HW2 2210   5.696   4.110   0.585  0.3244 -0.0452  0.1585
  611SOL    HW3 2211   5.790   4.213   0.645 -1.1003  0.8156  0.9862
  611SOL    MW4 2212   5.731   4.190   0.585 -0.1338  0.1568  0.2408
  612SOL     OW 2213   4.699   1.139   0.582  0.9796  0.2323  0.1247
  612SOL    HW2 2214   4.783   1.148   0.626  0.2465 -2.9592  2.5593
  612SOL    HW3 2215   4.635   1.144   0.653 -0.6486 -0.3234 -1.2459
  612SOL    MW4 2216   4.702   1.141   0.597  0.6681 -0.2621  0.2651
  613SOL     OW 2217   4.883   6.048   0.513 -0.1547 -0.1251 -0.3491
  613SOL    HW2 2218   4.975   6.034   0.537 -0.1119  0.9835  0.2042
  613SOL    HW3 2219   4.886   6.114   0.444 -0.5120 -0.5632 -0.7948
  613SOL    MW4 2220   4.896   6.055   0.507 -0.1962 -0.0367 -0.3349
  614SOL     OW 2221   5.604   1.031   4.042  0.0256 -0.0060  0.0332
  614SOL    HW2 2222   5.515   0.996   4.050  0.0018 -0.1572 -0.8249
  614SOL    HW3 2223   5.592   1.126   4.041 -0.1272 -0.0280 -0.1529
  614SOL    MW4 2224   5.590   1.039   4.043  0.0023 -0.0289 -0.1046
  615SOL     OW 2225   5.546   5.488   3.526 -0.3135  0.1302  0.1077
  615SOL    HW2 2226   5.564   5.528   3.441  0.8683  1.4534  0.9347
  615SOL    HW3 2227   5.468   5.434   3.511 -0.0819  0.2584 -1.8164
  615SOL    MW4 2228   5.538   5.486   3.513 -0.1270  0.3217 -0.0371
  616SOL     OW 2229   5.189   2.466   2.154  0.0398  0.0983  0.0143
  616SOL    HW2 2230   5.172   2.560   2.149  2.0355  0.4524 -3.4636
  616SOL    HW3 2231   5.276   2.459   2.194  0.6210 -0.0929 -1.2385
  616SOL    MW4 2232   5.199   2.477   2.159  0.3798  0.1198 -0.6098
  617SOL     OW 2233   5.069   3.718   3.324 -0.1448 -0.0112 -0.3648
  617SOL    HW2 2234   5.111   3.718   3.410  0.9082  0.2227 -0.8755
  617SOL    HW3 2235   5.015   3.638   3.324 -0.1173 -0.0403  0.4818
  617SOL    MW4 2236   5.067   3.707   3.336 -0.0022  0.0158 -0.3205
  618SOL     OW 2237   4.277   0.456   3.387 -0.5984  0.4629 -0.2436
  618SOL    HW2 2238   4.362   0.412   3.387 -0.4118  0.8185  0.1026
  618SOL    HW3 2239   4.218   0.395   3.342  0.1817  0.8806 -1.8837
  618SOL    MW4 2240   4.280   0.442   3.381 -0.4709  0.5649 -0.4143
  619SOL     OW 2241   6.303   4.341   1.821  0.7223 -0.3725  0.2947
  619SOL    HW2 2242   6.231   4.385   1.776 -0.8574 -1.0797  1.9854
  619SOL    HW3 2243   6.274   4.250   1.827  0.8199 -0.3045  2.7021
  619SOL    MW4 2244   6.289   4.335   1.816  0.5268 -0.4568  0.8354
  620SOL     OW 2245   3.127   0.172   3.545  0.1103  0.5159 -0.0538
  620SOL    HW2 2246   3.166   0.104   3.599 -0.8437  0.5683  0.7308
  620SOL    HW3 2247   3.068   0.219   3.604 -0.4401  1.0096 -0.9683
  620SOL    MW4 2248   3.124   0.169   3.560 -0.0882  0.5880 -0.0710
  621SOL     OW 2249   1.794   0.293   2.751  0.0507  1.0881 -0.1606
  621SOL    HW2 2250   1.739   0.256   2.682 -1.2643  0.0295  1.3749
  621SOL    HW3 2251   1.881   0.258   2.735 -0.5129 -0.1847 -0.5565
  621SOL    MW4 2252   1.798   0.284   2.740 -0.1972  0.7805 -0.0102
  622SOL     OW 2253   2.764   1.255   5.504  0.6770  0.4165  0.0119
  622SOL    HW2 2254   2.761   1.254   5.600  2.0049 -0.7785  0.0822
  622SOL    HW3 2255   2.851   1.288   5.483 -0.2438  2.4061 -0.8536
  622SOL    MW4 2256   2.775   1.259   5.514  0.7307  0.5214 -0.0930
  623SOL     OW 2257   1.922   2.227   5.557  0.1714  0.6231  0.0078
  623SOL    HW2 2258   1.904   2.161   5.624  1.9409 -1.1735 -1.1776
  623SOL    HW3 2259   1.865   2.300   5.580 -0.1249 -0.3507  2.7996
  623SOL    MW4 2260   1.912   2.228   5.569  0.3658  0.2575  0.2198
  624SOL     OW 2261   1.391   0.714   0.876 -0.1739  0.2519  0.3168
  624SOL    HW2 2262   1.330   0.747   0.810  0.8602  1.0680 -0.2628
  624SOL    HW3 2263   1.447   0.653   0.827  0.1591  0.3310  0.6051
  624SOL    MW4 2264   1.390   0.710   0.860  0.0065  0.3700  0.2783
  625SOL     OW 2265   0.859   4.591   2.289  0.3867  0.2530  0.1313
  625SOL    HW2 2266   0.793   4.586   2.220  0.1649  0.1207  0.3526
  625SOL    HW3 2267   0.924   4.526   2.264  1.2336  1.4541 -0.9156
  625SOL    MW4 2268   0.859   4.582   2.277  0.4692  0.3941  0.0223
  626SOL     OW 2269   1.374   3.641   3.291  0.4338 -0.0275  0.2844
  626SOL    HW2 2270   1.401   3.643   3.383 -0.2740  1.1022  0.4923
  626SOL    HW3 2271   1.373   3.548   3.268  0.2525 -0.3558  1.5345
  626SOL    MW4 2272   1.377   3.629   3.300  0.3165  0.0782  0.4768
  627SOL     OW 2273   0.361   2.610   4.102  0.5395  0.4214 -0.7265
  627SOL    HW2 2274   0.361   2.515   4.089  1.2362 -0.0088  1.8649
  627SOL    HW3 2275   0.454   2.633   4.111  0.2615  0.8488  1.5221
  627SOL    MW4 2276   0.374   2.601   4.101  0.5948  0.4210 -0.0879
  628SOL     OW 2277   2.742   1.138   2.447 -0.2417  0.2381  0.2862
  628SOL    HW2 2278   2.652   1.150   2.478 -0.8180 -0.2815 -1.0919
  628SOL    HW3 2279   2.791   1.112   2.525 -1.4595 -0.2521  0.9238
  628SOL    MW4 2280   2.736   1.136   2.462 -0.4784  0.1049  0.1885
  629SOL     OW 2281   0.492   5.282   5.067  0.5724  0.1343  0.6246
  629SOL    HW2 2282   0.455   5.256   5.151 -1.0024  0.2554  0.0016
  629SOL    HW3 2283   0.529   5.201   5.031  1.2156  0.0735  1.3976
  629SOL    MW4 2284   0.492   5.268   5.073  0.4495  0.1422  0.6444
  630SOL     OW 2285   0.341   1.607   0.444 -0.4257  0.2469  0.3411
  630SOL    HW2 2286   0.356   1.670   0.374  0.9552  1.0990  1.3628
  630SOL    HW3 2287   0.424   1.561   0.455 -0.0436  1.3372  2.5520
  630SOL    MW4 2288   0.354   1.609   0.436 -0.1931  0.5032  0.7676
  631SOL     OW 2289   4.854   1.717   2.475  0.5959  0.6312 -0.2178
  631SOL    HW2 2290   4.877   1.690   2.386 -0.6819 -0.0584 -0.3653
  631SOL    HW3 2291   4.922   1.780   2.500 -0.4782  2.9552 -2.7081
  631SOL    MW4 2292   4.866   1.721   2.467  0.2856  0.8468 -0.5659
  632SOL     OW 2293   5.970   3.600   0.537 -0.2098 -0.0425 -0.2474
  632SOL    HW2 2294   5.911   3.654   0.483  0.1094  0.9001  0.3188
  632SOL    HW3 2295   6.044   3.657   0.555 -0.2474 -0.3853  1.0661
  632SOL    MW4 2296   5.972   3.615   0.532 -0.1726  0.0367  0.0006
  633SOL     OW 2297   0.560   2.515   5.394  0.1441  0.3496 -0.1800
  633SOL    HW2 2298   0.481   2.556   5.430  0.2882  0.3637  0.1243
  633SOL    HW3 2299   0.547   2.421   5.408  0.2027  0.3553 -0.0871
  633SOL    MW4 2300   0.548   2.508   5.401  0.1709  0.3522 -0.1276
  634SOL     OW 2301   4.764   1.792   6.381  0.1768 -1.0675 -0.2181
  634SOL    HW2 2302   4.782   1.805   6.474  1.4717 -0.6035 -0.5124
  634SOL    HW3 2303   4.727   1.704   6.375 -1.2240 -0.5870  0.8867
  634SOL    MW4 2304   4.762   1.782   6.392  0.1628 -0.9429 -0.1112
  635SOL     OW 2305   0.850   5.035   3.847  0.2203 -0.9451 -0.0354
  635SOL    HW2 2306   0.846   4.999   3.935 -1.5672 -1.8956 -0.4649
  635SOL    HW3 2307   0.761   5.027   3.813  0.3567  1.3389 -1.1874
  635SOL    MW4 2308   0.838   5.029   3.854  0.0025 -0.7691 -0.2441
  636SOL     OW 2309   1.649   3.952   2.371 -0.0338 -0.2144  0.1675
  636SOL    HW2 2310   1.728   3.905   2.343  0.2323 -0.1589  0.8125
  636SOL    HW3 2311   1.620   3.905   2.449  0.6243  1.0847  1.2283
  636SOL    MW4 2312   1.656   3.940   2.377  0.0881 -0.0357  0.3926
  637SOL     OW 2313   1.786   1.276   2.735 -0.3091  0.3911  0.6047
  637SOL    HW2 2314   1.700   1.259   2.771 -0.0996  1.9313  1.9803
  637SOL    HW3 2315   1.826   1.190   2.724 -2.1271 -0.3616 -0.4203
  637SOL    MW4 2316   1.780   1.263   2.738 -0.5213  0.4950  0.6509
  638SOL     OW 2317   1.987   0.918   3.204  0.8519 -0.3190 -0.0222
  638SOL    HW2 2318   1.936   0.979   3.256 -0.9543 -0.9566 -0.9556
  638SOL    HW3 2319   1.971   0.832   3.244 -1.6898 -1.0362 -2.2876
  638SOL    MW4 2320   1.978   0.915   3.216  0.2782 -0.4977 -0.4443
  639SOL     OW 2321   2.044   3.316   2.406  0.1020 -0.2555 -0.4185
  639SOL    HW2 2322   1.950   3.306   2.425 -0.2180  0.7781 -1.3258
  639SOL    HW3 2323   2.085   3.241   2.449 -1.0716 -0.4302  0.4667
  639SOL    MW4 2324   2.037   3.304   2.414 -0.0951 -0.1422 -0.4214
  640SOL     OW 2325   4.815   1.594   3.372 -0.7829  0.0320 -0.1588
  640SOL    HW2 2326   4.801   1.508   3.411  3.3763 -0.2004  1.3171
  640SOL    HW3 2327   4.803   1.655   3.445 -2.5210  0.6824 -0.9280
  640SOL    MW4 2328   4.811   1.591   3.387 -0.4634  0.0871 -0.0655
  641SOL     OW 2329   3.066   4.783   2.852 -0.3116  0.1981  0.5162
  641SOL    HW2 2330   2.979   4.810   2.881 -0.6776  0.3946 -0.7038
  641SOL    HW3 2331   3.126   4.827   2.912 -1.0159  0.8430  0.7651
  641SOL    MW4 2332   3.062   4.792   2.864 -0.4528  0.3091  0.3881
  642SOL     OW 2333   1.818   5.267   3.076  0.1932 -0.1911  0.4761
  642SOL    HW2 2334   1.884   5.334   3.093 -0.3657  0.6327 -0.4364
  642SOL    HW3 2335   1.793   5.281   2.984 -0.5217 -1.1316  0.5115
  642SOL    MW4 2336   1.823   5.278   3.066  0.0252 -0.2065  0.3604
  643SOL     OW 2337   0.011   2.602   0.411  0.6000 -0.1118  0.0854
  643SOL    HW2 2338   0.099   2.625   0.441  0.6113 -0.0665  0.0185
  643SOL    HW3 2339  -0.043   2.678   0.436  0.5582 -0.1862  0.2238
  643SOL    MW4 2340   0.015   2.615   0.418  0.5959 -0.1156  0.0949
  644SOL     OW 2341   0.964   0.216   1.668 -0.1330  0.3260 -0.2698
  644SOL    HW2 2342   0.943   0.301   1.707 -0.5405  0.3179 -0.4605
  644SOL    HW3 2343   0.942   0.227   1.576  1.7738  0.6657 -0.7231
  644SOL    MW4 2344   0.958   0.229   1.661  0.0648  0.3697 -0.3548
  645SOL     OW 2345   4.342   2.036   2.706 -0.2184  0.2722  0.5601
  645SOL    HW2 2346   4.278   1.965   2.711  0.1475 -0.0298  0.8931
  645SOL    HW3 2347   4.419   1.997   2.666 -0.7800  1.0305 -1.4099
  645SOL    MW4 2348   4.344   2.022   2.701 -0.2442  0.3324  0.3441
  646SOL     OW 2349   0.926   3.804   1.200 -0.5092 -0.0811  0.2579
  646SOL    HW2 2350   0.838   3.766   1.204  0.1460 -2.3596 -2.8083
  646SOL    HW3 2351   0.919   3.873   1.133 -0.5281  1.8928  2.1747
  646SOL    MW4 2352   0.914   3.808   1.192 -0.4252 -0.1213  0.1063
  647SOL     OW 2353   5.464   6.427   3.430  0.2340 -0.1083  0.1113
  647SOL    HW2 2354   5.470   6.493   3.361  1.0564 -0.1626  0.1198
  647SOL    HW3 2355   5.418   6.354   3.390  0.1197  0.1215 -0.1749
  647SOL    MW4 2356   5.459   6.426   3.416  0.3274 -0.0851  0.0747
  648SOL     OW 2357   3.448   1.689   5.398  0.4253  0.1712  0.5913
  648SOL    HW2 2358   3.480   1.684   5.308 -3.0856 -2.2514 -0.7692
  648SOL    HW3 2359   3.499   1.623   5.445  1.1033  0.2150 -0.0631
  648SOL    MW4 2360   3.459   1.680   5.392  0.0515 -0.1426  0.3254
  649SOL     OW 2361   3.521   4.802   6.335 -0.2267 -0.5704  0.4732
  649SOL    HW2 2362   3.566   4.834   6.412  1.1024 -0.4929 -0.3081
  649SOL    HW3 2363   3.488   4.715   6.360 -0.5449 -0.1967  1.3753
  649SOL    MW4 2364   3.522   4.795   6.348 -0.0933 -0.5109  0.4891
  650SOL     OW 2365   2.371   0.194   0.979  0.2980  0.1041  0.1906
  650SOL    HW2 2366   2.317   0.115   0.974 -0.2492  0.4292  0.8814
  650SOL    HW3 2367   2.422   0.193   0.898  1.2393 -1.6265  0.7457
  650SOL    MW4 2368   2.371   0.184   0.968  0.3500 -0.0813  0.3550
  651SOL     OW 2369   2.194   2.987   5.989  0.4431  0.0523  0.4540
  651SOL    HW2 2370   2.167   2.971   6.080 -0.4010 -0.8735  0.0546
  651SOL    HW3 2371   2.283   2.953   5.984  1.2151  1.7700  1.3911
  651SOL    MW4 2372   2.202   2.981   6.001  0.4336  0.1568  0.5250
  652SOL     OW 2373   6.055   2.244   1.726 -0.0003 -0.1750 -0.1753
  652SOL    HW2 2374   6.114   2.269   1.796 -0.6165  1.4594 -0.2019
  652SOL    HW3 2375   5.968   2.266   1.758 -0.4825 -1.1999 -0.7116
  652SOL    MW4 2376   6.051   2.250   1.739 -0.1452 -0.0946 -0.2496
  653SOL     OW 2377   3.514   1.415   0.910 -0.2745  0.0616  0.1689
  653SOL    HW2 2378   3.463   1.394   0.832 -2.1992  0.1419  1.3186
  653SOL    HW3 2379   3.592   1.460   0.877 -1.1427  0.3191 -1.6789
  653SOL    MW4 2380   3.517   1.419   0.896 -0.6430  0.1062  0.0768
  654SOL     OW 2381   2.337   3.130   1.311  0.4524 -0.1142 -0.0987
  654SOL    HW2 2382   2.286   3.056   1.344 -1.3863  0.4630 -1.5157
  654SOL    HW3 2383   2.353   3.109   1.219 -2.2920  2.2680 -1.2671
  654SOL    MW4 2384   2.333   3.117   1.303 -0.1523  0.2763 -0.4398
  655SOL     OW 2385   0.349   6.364   0.169  0.6225 -0.4595  0.1900
  655SOL    HW2 2386   0.350   6.422   0.093  1.0865  1.3213  1.5097
  655SOL    HW3 2387   0.329   6.420   0.243  2.0288 -1.7958  1.6716
  655SOL    MW4 2388   0.347   6.379   0.169  0.8692 -0.4009  0.5596
  656SOL     OW 2389   3.436   3.027   2.104 -0.2777  0.2538  0.4169
  656SOL    HW2 2390   3.437   3.060   2.195 -2.6959  0.7364  0.3325
  656SOL    HW3 2391   3.406   2.936   2.112 -0.0298  0.1454  0.1232
  656SOL    MW4 2392   3.432   3.019   2.117 -0.5641  0.3032  0.3670
  657SOL     OW 2393   6.246   3.411   6.055  0.7282  0.6007 -0.3414
  657SOL    HW2 2394   6.228   3.489   6.107 -0.7320  0.9621 -1.3323
  657SOL    HW3 2395   6.310   3.439   5.989  0.0269  1.0358 -0.8443
  657SOL    MW4 2396   6.252   3.425   6.053  0.4430  0.7058 -0.5385
  658SOL     OW 2397   2.144   4.580   4.044  0.1668  0.1597 -0.2998
  658SOL    HW2 2398   2.048   4.574   4.042  0.2014 -0.3402 -0.6431
  658SOL    HW3 2399   2.174   4.489   4.037  0.6574  0.2239  0.7252
  658SOL    MW4 2400   2.135   4.567   4.043  0.2361  0.1022 -0.2099
  659SOL     OW 2401   5.598   2.821   0.676 -0.0965  0.4952 -0.4754
  659SOL    HW2 2402   5.519   2.861   0.713  0.0231  1.0661 -0.8118
  659SOL    HW3 2403   5.639   2.892   0.627  0.8957  0.3337  0.1074
  659SOL    MW4 2404   5.593   2.836   0.674  0.0502  0.5493 -0.4429
  660SOL     OW 2405   3.546   2.854   1.607  0.3646  0.1392 -0.0305
  660SOL    HW2 2406   3.460   2.813   1.597  0.7854 -0.4320 -1.5686
  660SOL    HW3 2407   3.537   2.909   1.684 -1.4120  0.1436 -0.1982
  660SOL    MW4 2408   3.534   2.856   1.616  0.1857  0.0645 -0.2556
  661SOL     OW 2409   1.753   2.545   2.865 -0.0108 -0.0336 -0.2955
  661SOL    HW2 2410   1.848   2.529   2.866  0.0649  0.3904 -0.4200
  661SOL    HW3 2411   1.721   2.504   2.945  0.3319  0.1370 -0.0654
  661SOL    MW4 2412   1.761   2.537   2.875  0.0444  0.0448 -0.2816
  662SOL     OW 2413   1.941   1.127   5.552 -0.2569  0.3442  0.2278
  662SOL    HW2 2414   1.894   1.044   5.556 -0.0084  0.2133  0.3668
  662SOL    HW3 2415   1.897   1.175   5.481 -2.0824  1.1270  1.8055
  662SOL    MW4 2416   1.929   1.122   5.543 -0.4649  0.4302  0.4543
  663SOL     OW 2417   5.149   6.205   4.142  0.6811 -0.6239 -0.3986
  663SOL    HW2 2418   5.083   6.184   4.208  2.5674 -0.5395  1.6394
  663SOL    HW3 2419   5.099   6.228   4.064 -1.6554 -1.1330  0.8615
  663SOL    MW4 2420   5.134   6.205   4.140  0.6217 -0.6799  0.0366
  664SOL     OW 2421   4.883   1.990   1.765 -0.3976 -1.0180 -0.1317
  664SOL    HW2 2422   4.921   1.925   1.706 -2.3506  0.2938 -3.0576
  664SOL    HW3 2423   4.788   1.983   1.750 -0.7846  1.1786  0.8915
  664SOL    MW4 2424   4.875   1.980   1.755 -0.7063 -0.5551 -0.3828
  665SOL     OW 2425   0.967   2.376   5.499 -0.3172 -0.2770 -0.5203
  665SOL    HW2 2426   0.982   2.348   5.589  0.1089 -0.3778 -0.6165
  665SOL    HW3 2427   1.015   2.459   5.491 -1.8334  0.6675 -0.1470
  665SOL    MW4 2428   0.975   2.383   5.510 -0.4611 -0.1657 -0.4837
  666SOL     OW 2429   1.948   2.181   3.233 -0.1521  0.5750 -0.0817
  666SOL    HW2 2430   1.880   2.211   3.293 -0.3501 -0.8250  0.4237
  666SOL    HW3 2431   2.025   2.167   3.288 -0.3101 -0.6382 -0.1414
  666SOL    MW4 2432   1.949   2.183   3.248 -0.1991  0.2302 -0.0229
  667SOL     OW 2433   1.648   5.281   0.134 -0.6801 -0.1798  0.2699
  667SOL    HW2 2434   1.639   5.336   0.212 -1.8719 -0.8001  0.5877
  667SOL    HW3 2435   1.725   5.316   0.089 -0.9758  1.2801  0.8448
  667SOL    MW4 2436   1.657   5.293   0.138 -0.8763 -0.0690  0.3877
  668SOL     OW 2437   4.494   2.048   4.678  0.0501 -0.5746  0.1196
  668SOL    HW2 2438   4.536   1.962   4.679 -0.9107 -1.0641  1.0145
  668SOL    HW3 2439   4.544   2.100   4.740  1.2261 -0.1554 -1.1235
  668SOL    MW4 2440   4.506   2.044   4.686  0.0785 -0.5838  0.0737
  669SOL     OW 2441   5.953   1.717   5.306  0.2336 -0.1965 -0.0698
  669SOL    HW2 2442   5.977   1.631   5.339 -2.5220 -0.2930  2.0771
  669SOL    HW3 2443   5.870   1.704   5.261  0.7297  1.0634 -1.4462
  669SOL    MW4 2444   5.946   1.704   5.305 -0.0645 -0.0430  0.0319
  670SOL     OW 2445   4.084   2.532   4.738 -0.7264  0.1245 -0.2670
  670SOL    HW2 2446   4.040   2.463   4.689 -0.6743 -0.2666  0.2342
  670SOL    HW3 2447   4.176   2.506   4.739 -0.7554  0.0465  0.1855
  670SOL    MW4 2448   4.090   2.520   4.731 -0.7233  0.0626 -0.1412
  671SOL     OW 2449   2.928   0.220   3.736 -0.9028 -0.6230 -0.1894
  671SOL    HW2 2450   2.920   0.260   3.822  0.6164 -0.2841 -0.1680
  671SOL    HW3 2451   2.890   0.132   3.746  1.3856 -1.5106  1.5365
  671SOL    MW4 2452   2.922   0.213   3.748 -0.4004 -0.6954  0.0411
  672SOL     OW 2453   4.452   1.757   0.548  0.4388 -0.3048  0.3672
  672SOL    HW2 2454   4.386   1.741   0.615 -0.2311  1.6174  0.2417
  672SOL    HW3 2455   4.535   1.759   0.595  0.1862 -0.7794  0.8408
  672SOL    MW4 2456   4.454   1.755   0.563  0.3171 -0.1138  0.4131
  673SOL     OW 2457   1.672   3.001   2.587 -0.3610 -0.2000 -0.5075
  673SOL    HW2 2458   1.685   3.032   2.677 -0.7000  1.5599 -1.0087
  673SOL    HW3 2459   1.650   2.909   2.595  0.7866 -0.3605  1.1281
  673SOL    MW4 2460   1.671   2.993   2.600 -0.2543  0.0110 -0.3579
  674SOL     OW 2461   5.980   3.638   0.188 -0.6451  0.2086 -0.3667
  674SOL    HW2 2462   6.011   3.681   0.108  0.1506  3.8659  1.7031
  674SOL    HW3 2463   6.057   3.635   0.245 -1.7541 -0.0621  1.1596
  674SOL    MW4 2464   5.994   3.643   0.185 -0.6864  0.6555  0.1078
  675SOL     OW 2465   1.333   3.904   4.872 -0.5140  0.0719 -0.1760
  675SOL    HW2 2466   1.284   3.971   4.920 -0.3594  0.5322 -0.6508
  675SOL    HW3 2467   1.303   3.821   4.909  1.2826  0.4474  2.4172
  675SOL    MW4 2468   1.323   3.902   4.883 -0.2565  0.1822  0.1035
  676SOL     OW 2469   0.716   2.234   2.452 -0.6916 -0.6372  0.1110
  676SOL    HW2 2470   0.767   2.244   2.532  0.7272 -1.6979 -0.6241
  676SOL    HW3 2471   0.653   2.165   2.472 -0.4947 -0.7403  0.3723
  676SOL    MW4 2472   0.714   2.226   2.465 -0.4784 -0.7908  0.0485
  677SOL     OW 2473   5.342   0.979   2.582 -0.3351  0.1676  0.2362
  677SOL    HW2 2474   5.251   0.997   2.604 -0.3331  1.3495 -0.6069
  677SOL    HW3 2475   5.344   0.885   2.562 -1.2282  0.0055  0.8592
  677SOL    MW4 2476   5.330   0.969   2.582 -0.4527  0.3021  0.2072
  678SOL     OW 2477   0.484   3.750   2.030 -0.1086  0.5642 -0.5048
  678SOL    HW2 2478   0.525   3.834   2.050  1.7208 -0.8614  2.4216
  678SOL    HW3 2479   0.412   3.742   2.093  1.8290 -1.3469  1.6887
  678SOL    MW4 2480   0.480   3.760   2.041  0.3884  0.1240  0.1707
  679SOL     OW 2481   0.997   2.459   4.698 -0.6795  0.2959 -0.0633
  679SOL    HW2 2482   0.960   2.547   4.710  0.7142  0.8362  0.5859
  679SOL    HW3 2483   0.931   2.400   4.735 -2.3051  0.9051 -1.8252
  679SOL    MW4 2484   0.983   2.463   4.705 -0.7101  0.4475 -0.2101
  680SOL     OW 2485   5.636   2.249   6.184  0.4775  0.1004  0.4487
  680SOL    HW2 2486   5.574   2.184   6.216  0.7171  0.2342  1.2068
  680SOL    HW3 2487   5.669   2.212   6.102  0.4572 -0.6399  0.7665
  680SOL    MW4 2488   5.633   2.235   6.178  0.5065  0.0204  0.5906
  681SOL     OW 2489   2.195   4.512   3.369  0.2249  0.1597 -0.1557
  681SOL    HW2 2490   2.276   4.517   3.318  0.3604 -2.8657 -0.3827
  681SOL    HW3 2491   2.219   4.466   3.449 -1.3933 -1.5735 -0.5994
  681SOL    MW4 2492   2.209   4.507   3.373  0.0293 -0.4681 -0.2442
  682SOL     OW 2493   4.030   5.033   2.654 -0.4334 -0.3479  0.0609
  682SOL    HW2 2494   4.004   5.114   2.698  0.0187  0.0439 -0.3966
  682SOL    HW3 2495   4.098   4.997   2.711  0.0808  0.1085 -0.2636
  682SOL    MW4 2496   4.035   5.039   2.668 -0.3059 -0.2360 -0.0423
  683SOL     OW 2497   0.952   5.850   4.530 -0.2196 -0.2057  0.0957
  683SOL    HW2 2498   1.033   5.812   4.563  0.1129  0.0715 -0.3912
  683SOL    HW3 2499   0.980   5.924   4.476 -0.8668  1.0563  1.4170
  683SOL    MW4 2500   0.966   5.855   4.527 -0.2611 -0.0026  0.2058
  684SOL     OW 2501   5.533   3.538   1.879 -0.1622  0.1771 -0.5143
  684SOL    HW2 2502   5.578   3.620   1.898  0.3587 -0.6441  2.2130
  684SOL    HW3 2503   5.603   3.475   1.862 -0.3695 -0.3571  0.4893
  684SOL    MW4 2504   5.548   3.540   1.879 -0.1208 -0.0017 -0.0220
  685SOL     OW 2505   5.900   2.338   0.491  0.1306 -0.7397 -0.4824
  685SOL    HW2 2506   5.946   2.418   0.516 -1.3087  0.7246 -2.2723
  685SOL    HW3 2507   5.969   2.279   0.461  1.0532  0.6692 -1.2436
  685SOL    MW4 2508   5.915   2.341   0.490  0.0625 -0.3606 -0.8190
  686SOL     OW 2509   2.894   4.508   1.676  0.0659 -0.0700  0.0648
  686SOL    HW2 2510   2.937   4.548   1.752 -0.4017 -0.5825  0.6127
  686SOL    HW3 2511   2.898   4.414   1.692 -0.3349 -0.1696 -0.3821
  686SOL    MW4 2512   2.900   4.501   1.688 -0.0487 -0.1508  0.0781
  687SOL     OW 2513   2.601   0.609   5.363  0.7001 -0.1325 -0.2194
  687SOL    HW2 2514   2.588   0.674   5.295  1.4990 -0.7027 -0.9468
  687SOL    HW3 2515   2.548   0.534   5.336  1.7035 -0.6910 -0.7055
  687SOL    MW4 2516   2.592   0.608   5.351  0.9379 -0.2814 -0.3795
  688SOL     OW 2517   0.777   5.815   2.846  0.5578  0.2790  0.2360
  688SOL    HW2 2518   0.774   5.910   2.834 -0.1209  0.1085 -1.1582
  688SOL    HW3 2519   0.692   5.793   2.885  0.2473  0.1478 -0.4784
  688SOL    MW4 2520   0.765   5.825   2.849  0.4273  0.2392 -0.0422
  689SOL     OW 2521   0.915   1.604   4.120  0.2396  0.3993 -0.2674
  689SOL    HW2 2522   0.819   1.601   4.122  0.2010  1.5401  0.4623
  689SOL    HW3 2523   0.938   1.586   4.029 -0.5453 -2.2672 -0.0302
  689SOL    MW4 2524   0.905   1.601   4.108  0.1309  0.1980 -0.1398
  690SOL     OW 2525   1.818   3.472   5.082  0.2873 -0.0745  0.7793
  690SOL    HW2 2526   1.907   3.469   5.047  0.3030  2.3302  0.4045
  690SOL    HW3 2527   1.765   3.429   5.015  1.1429 -1.6427  1.0637
  690SOL    MW4 2528   1.823   3.466   5.068  0.4022  0.0358  0.7673
  691SOL     OW 2529   2.964   1.830   2.069  0.0365  0.3174 -0.6674
  691SOL    HW2 2530   2.995   1.855   1.983 -0.7692  0.2072 -0.9962
  691SOL    HW3 2531   3.044   1.814   2.120  0.5533  1.9182 -0.9168
  691SOL    MW4 2532   2.979   1.831   2.065 -0.0016  0.5141 -0.7437
  692SOL     OW 2533   1.162   4.476   2.598 -0.9046  0.1611 -0.8122
  692SOL    HW2 2534   1.212   4.557   2.588 -0.7053  0.0275 -0.9177
  692SOL    HW3 2535   1.120   4.484   2.684 -1.7790  0.8565 -1.2960
  692SOL    MW4 2536   1.163   4.487   2.608 -0.9937  0.2352 -0.8899
  693SOL     OW 2537   6.383   6.212   5.334  0.3768 -0.2364  0.1493
  693SOL    HW2 2538   6.449   6.276   5.305  0.9587 -1.0645 -0.4019
  693SOL    HW3 2539   6.377   6.225   5.428  0.6028  0.5262  0.0679
  693SOL    MW4 2540   6.391   6.222   5.343  0.4834 -0.2450  0.0658
  694SOL     OW 2541   0.795   5.681   4.799 -0.1429  0.2410  0.0150
  694SOL    HW2 2542   0.767   5.753   4.743 -0.5573  0.5928  0.6580
  694SOL    HW3 2543   0.886   5.665   4.774 -0.3849  0.2361 -0.9039
  694SOL    MW4 2544   0.803   5.689   4.789 -0.2295  0.2868 -0.0214
  695SOL     OW 2545   2.299   2.237   3.192  0.6461 -0.1808  0.2810
  695SOL    HW2 2546   2.263   2.204   3.275  0.6818  0.4840  0.5656
  695SOL    HW3 2547   2.254   2.320   3.178  1.1842  0.0725  0.0164
  695SOL    MW4 2548   2.288   2.243   3.201  0.7218 -0.0597  0.2836
  696SOL     OW 2549   5.496   3.458   3.548  0.4528  0.3076  0.4716
  696SOL    HW2 2550   5.437   3.507   3.606 -0.2136  0.2982 -0.1829
  696SOL    HW3 2551   5.500   3.511   3.468 -0.5202 -0.8192 -0.3717
  696SOL    MW4 2552   5.489   3.472   3.545  0.2365  0.1577  0.2740
  697SOL     OW 2553   0.826   1.834   5.832  0.6968 -0.6235  0.0549
  697SOL    HW2 2554   0.858   1.819   5.743 -0.3298  0.0513 -0.4540
  697SOL    HW3 2555   0.734   1.806   5.830  0.3438  0.4332  0.5866
  697SOL    MW4 2556   0.818   1.828   5.820  0.5148 -0.3950  0.0579
  698SOL     OW 2557   4.161   4.557   1.637  0.2625  0.1833 -0.3048
  698SOL    HW2 2558   4.185   4.621   1.569  0.8435 -0.5969 -0.8449
  698SOL    HW3 2559   4.245   4.525   1.670 -0.0011 -1.2999 -0.9928
  698SOL    MW4 2560   4.175   4.562   1.633  0.3044 -0.1154 -0.4668
  699SOL     OW 2561   3.152   0.284   2.370  0.2184  0.4195  0.0586
  699SOL    HW2 2562   3.088   0.221   2.404  0.8900 -0.7486 -0.7658
  699SOL    HW3 2563   3.100   0.361   2.346 -0.5093  0.5653  1.9303
  699SOL    MW4 2564   3.137   0.286   2.372  0.2110  0.2847  0.1968
  700SOL     OW 2565   6.107   0.313   5.279  0.5557 -0.0032  0.0916
  700SOL    HW2 2566   6.174   0.310   5.348 -0.8701  1.5869  1.6530
  700SOL    HW3 2567   6.050   0.239   5.298  0.9057 -0.3618 -0.2252
  700SOL    MW4 2568   6.108   0.303   5.291  0.4138  0.1593  0.2558
  701SOL     OW 2569   2.580   5.528   4.204 -0.1248 -0.3682  0.2633
  701SOL    HW2 2570   2.593   5.498   4.114 -0.4014 -0.1069  0.1339
  701SOL    HW3 2571   2.594   5.623   4.200  1.7942 -0.5933  0.8695
  701SOL    MW4 2572   2.583   5.537   4.191  0.0919 -0.3634  0.3262
  702SOL     OW 2573   5.664   5.698   2.629 -0.2694 -0.1787  0.3401
  702SOL    HW2 2574   5.664   5.709   2.534 -1.7913  1.1475  0.4467
  702SOL    HW3 2575   5.747   5.738   2.657  0.4040 -0.9702 -0.4221
  702SOL    MW4 2576   5.675   5.705   2.620 -0.3814 -0.1081  0.2536
  703SOL     OW 2577   0.049   2.378   6.288 -0.4685  0.3457 -0.0685
  703SOL    HW2 2578  -0.043   2.350   6.298 -0.2778 -0.0669  0.5940
  703SOL    HW3 2579   0.075   2.404   6.376  0.2783 -0.2655 -0.1015
  703SOL    MW4 2580   0.040   2.378   6.301 -0.3448  0.2107  0.0146
  704SOL     OW 2581   5.859   6.232   0.771 -0.4187 -0.1462 -0.1536
  704SOL    HW2 2582   5.801   6.157   0.762 -2.0849  1.3170 -2.8341
  704SOL    HW3 2583   5.803   6.308   0.757  1.5232  1.5618  0.7767
  704SOL    MW4 2584   5.844   6.232   0.768 -0.3824  0.2722 -0.3845
  705SOL     OW 2585   3.344   5.691   2.794  0.1070 -0.3651  0.4887
  705SOL    HW2 2586   3.271   5.750   2.812 -0.3843 -0.3608 -1.3225
  705SOL    HW3 2587   3.398   5.694   2.874 -1.5175  0.1165  1.6152
  705SOL    MW4 2588   3.342   5.700   2.807 -0.1721 -0.3010  0.3984
  706SOL     OW 2589   2.826   0.653   4.699  0.1363  0.0500 -0.0042
  706SOL    HW2 2590   2.757   0.700   4.746  1.2919 -0.5074  2.4165
  706SOL    HW3 2591   2.781   0.581   4.655 -0.9757  0.4026  0.5156
  706SOL    MW4 2592   2.811   0.650   4.700  0.1420  0.0230  0.3838
  707SOL     OW 2593   2.857   1.358   5.055 -0.2994  0.8574 -0.1622
  707SOL    HW2 2594   2.875   1.271   5.090 -1.9684  0.3747 -0.4015
  707SOL    HW3 2595   2.873   1.349   4.961  1.7353  1.4701  0.0744
  707SOL    MW4 2596   2.862   1.345   5.047 -0.2511  0.8746 -0.1626
  708SOL     OW 2597   4.683   2.214   4.831 -0.0645 -0.2346  0.0544
  708SOL    HW2 2598   4.742   2.186   4.902 -0.9017 -0.2838  0.7417
  708SOL    HW3 2599   4.737   2.273   4.778 -0.1780  2.0286  2.2894
  708SOL    MW4 2600   4.698   2.218   4.834 -0.1899  0.0575  0.4399
  709SOL     OW 2601   1.165   5.587   3.488 -0.6245 -0.5031  0.1921
  709SOL    HW2 2602   1.250   5.563   3.452  0.4800  0.3780  2.0791
  709SOL    HW3 2603   1.102   5.552   3.425  1.1253 -0.5856 -1.6083
  709SOL    MW4 2604   1.168   5.579   3.475 -0.2479 -0.3977  0.2035
  710SOL     OW 2605   2.101   5.040   0.259  0.0183 -0.1186  0.0927
  710SOL    HW2 2606   2.052   4.981   0.317 -0.3341  0.5227  0.4589
  710SOL    HW3 2607   2.061   5.126   0.273  0.6350  0.2415 -0.3092
  710SOL    MW4 2608   2.089   5.043   0.269  0.0532  0.0135  0.0880
  711SOL     OW 2609   3.716   4.309   5.422 -0.2880 -0.1191 -0.4658
  711SOL    HW2 2610   3.741   4.381   5.481 -1.4018  0.4319 -0.6441
  711SOL    HW3 2611   3.697   4.236   5.480 -0.1457  0.0357 -0.2226
  711SOL    MW4 2612   3.717   4.309   5.437 -0.4162 -0.0260 -0.4572
  712SOL     OW 2613   4.885   2.267   3.105  0.2960  0.0051 -0.1668
  712SOL    HW2 2614   4.922   2.299   3.187  0.8894  0.0854 -0.4649
  712SOL    HW3 2615   4.915   2.329   3.038 -0.1397 -0.0888 -0.4585
  712SOL    MW4 2616   4.893   2.279   3.107  0.3168  0.0033 -0.2446
  713SOL     OW 2617   2.581   6.464   5.879  0.4810 -0.0923  0.6467
  713SOL    HW2 2618   2.511   6.399   5.880  0.8371 -0.5399 -0.8490
  713SOL    HW3 2619   2.574   6.509   5.963 -1.2709 -0.4655  0.7250
  713SOL    MW4 2620   2.571   6.461   5.890  0.2968 -0.2006  0.4597
  714SOL     OW 2621   4.965   4.802   1.159  0.3337 -0.9961  0.5033
  714SOL    HW2 2622   4.914   4.882   1.174  1.3299 -0.0756 -0.8359
  714SOL    HW3 2623   4.916   4.734   1.205  0.1497  0.5855  2.8381
  714SOL    MW4 2624   4.952   4.804   1.167  0.4408 -0.6660  0.6347
  715SOL     OW 2625   1.951   4.646   3.390 -0.2221 -0.2010  0.5861
  715SOL    HW2 2626   2.023   4.591   3.360 -0.0335  1.0383 -1.4520
  715SOL    HW3 2627   1.987   4.697   3.462  0.3674 -0.9185  0.8004
  715SOL    MW4 2628   1.965   4.645   3.396 -0.1195 -0.1321  0.3455
  716SOL     OW 2629   1.429   4.814   3.811  0.6658  0.0457  0.5533
  716SOL    HW2 2630   1.349   4.777   3.774  0.6890  0.5844 -0.0585
  716SOL    HW3 2631   1.400   4.893   3.857  0.5815 -0.8341  2.0703
  716SOL    MW4 2632   1.415   4.819   3.812  0.6577  0.0007  0.6727
  717SOL     OW 2633   2.221   3.194   5.796 -0.0334  0.0816 -0.3787
  717SOL    HW2 2634   2.208   3.142   5.876 -0.7974  0.7056 -0.0859
  717SOL    HW3 2635   2.247   3.130   5.730 -1.0096 -0.6991 -0.0359
  717SOL    MW4 2636   2.223   3.179   5.798 -0.2630  0.0609 -0.2949
  718SOL     OW 2637   3.773   0.415   1.085  0.4599  0.7130  0.3335
  718SOL    HW2 2638   3.677   0.410   1.076  0.5358  0.1356 -0.2588
  718SOL    HW3 2639   3.787   0.465   1.165 -0.3492 -0.6078  1.3505
  718SOL    MW4 2640   3.762   0.421   1.094  0.3632  0.4626  0.3896
  719SOL     OW 2641   5.268   0.768   1.996 -0.5963 -0.0017 -0.2701
  719SOL    HW2 2642   5.272   0.731   2.084 -0.8175  0.9337  0.1472
  719SOL    HW3 2643   5.202   0.715   1.950 -0.8219 -0.1977  0.2741
  719SOL    MW4 2644   5.260   0.756   2.001 -0.6553  0.0958 -0.1432
  720SOL     OW 2645   5.805   0.337   1.865 -0.0884 -0.5743  0.4138
  720SOL    HW2 2646   5.868   0.367   1.800 -1.3994  0.7036 -0.3407
  720SOL    HW3 2647   5.756   0.416   1.889 -2.3065 -1.7038 -0.0813
  720SOL    MW4 2648   5.807   0.352   1.860 -0.5540 -0.5547  0.2489
  721SOL     OW 2649   2.650   4.494   3.962 -0.2737 -0.1841  0.1553
  721SOL    HW2 2650   2.693   4.555   3.902 -1.0204 -0.5805 -0.8167
  721SOL    HW3 2651   2.556   4.506   3.944 -0.4370 -1.4738  0.0847
  721SOL    MW4 2652   2.643   4.504   3.952 -0.3938 -0.4066  0.0177
  722SOL     OW 2653   4.770   3.184   4.406  0.0308  0.6086 -0.3154
  722SOL    HW2 2654   4.750   3.090   4.404  0.4095  0.5105  0.3130
  722SOL    HW3 2655   4.749   3.214   4.318 -0.6138  0.0406 -0.3670
  722SOL    MW4 2656   4.765   3.175   4.394 -0.0043  0.5207 -0.2393
  723SOL     OW 2657   4.793   5.166   1.989 -0.2012  0.8015 -0.2726
  723SOL    HW2 2658   4.825   5.256   1.991 -0.7018  0.9689  0.9298
  723SOL    HW3 2659   4.843   5.121   2.058 -1.1881  0.5984  0.3210
  723SOL    MW4 2660   4.804   5.172   1.998 -0.3974  0.7968 -0.0356
  724SOL     OW 2661   3.508   5.433   0.872 -0.4352  0.0038 -0.4674
  724SOL    HW2 2662   3.512   5.379   0.951  1.2407 -1.5170 -1.5127
  724SOL    HW3 2663   3.424   5.411   0.832 -0.6986 -0.2279  0.1952
  724SOL    MW4 2664   3.497   5.423   0.877 -0.2488 -0.2274 -0.5179
  725SOL     OW 2665   4.445   3.844   2.111  0.6015 -0.0547 -0.0300
  725SOL    HW2 2666   4.412   3.874   2.026  2.7718 -0.5178 -1.1093
  725SOL    HW3 2667   4.445   3.922   2.166 -1.8055  0.0469 -0.0645
  725SOL    MW4 2668   4.440   3.858   2.107  0.5703 -0.1024 -0.1769
  726SOL     OW 2669   1.429   0.178   3.856 -0.1892 -0.6744  0.3345
  726SOL    HW2 2670   1.430   0.274   3.857 -0.3935 -0.6709  0.2385
  726SOL    HW3 2671   1.348   0.154   3.900  0.0610 -0.8123  0.7251
  726SOL    MW4 2672   1.419   0.188   3.862 -0.1831 -0.6922  0.3734
  727SOL     OW 2673   3.342   0.559   5.190 -0.1278 -0.9592 -0.3244
  727SOL    HW2 2674   3.301   0.478   5.161  0.5478 -0.9394 -1.3941
  727SOL    HW3 2675   3.392   0.534   5.268 -0.0480 -1.5371 -0.5576
  727SOL    MW4 2676   3.343   0.545   5.196 -0.0281 -1.0328 -0.4963
  728SOL     OW 2677   2.446   1.950   6.208 -0.0315 -0.1748  0.6038
  728SOL    HW2 2678   2.520   2.007   6.228 -1.5727  1.6037  1.5552
  728SOL    HW3 2679   2.407   1.931   6.293 -2.1541  1.0711 -0.0183
  728SOL    MW4 2680   2.450   1.955   6.222 -0.5149  0.2242  0.6473
  729SOL     OW 2681   0.092   0.141   0.142  0.2620  0.0480  0.0732
  729SOL    HW2 2682   0.017   0.165   0.087  0.8843 -0.5626 -1.1011
  729SOL    HW3 2683   0.065   0.060   0.186  0.2490 -0.2210 -0.4179
  729SOL    MW4 2684   0.079   0.133   0.140  0.3424 -0.0681 -0.1465
  730SOL     OW 2685   3.427   0.850   2.182 -0.1376  0.2296 -0.1492
  730SOL    HW2 2686   3.456   0.883   2.267  0.0307 -1.0035  0.3030
  730SOL    HW3 2687   3.458   0.914   2.118 -0.4435  1.2734  0.7342
  730SOL    MW4 2688   3.435   0.863   2.185 -0.1558  0.2046  0.0270
  731SOL     OW 2689   4.998   1.614   1.753 -0.0760 -0.2253  0.2683
  731SOL    HW2 2690   4.904   1.602   1.769 -0.1034  0.5207  0.7224
  731SOL    HW3 2691   5.020   1.547   1.688 -1.5431  1.4427 -2.0838
  731SOL    MW4 2692   4.988   1.603   1.746 -0.2732  0.0932  0.0179
  732SOL     OW 2693   5.526   4.091   5.066 -0.7418 -0.3792  0.7463
  732SOL    HW2 2694   5.434   4.101   5.092 -1.7029 -0.3817 -2.2281
  732SOL    HW3 2695   5.523   4.032   4.991  1.4693  0.9931 -0.5356
  732SOL    MW4 2696   5.513   4.085   5.059 -0.5769 -0.1985  0.1847
  733SOL     OW 2697   3.447   0.409   1.073 -0.1470  0.6743 -0.0535
  733SOL    HW2 2698   3.356   0.427   1.099 -0.4319 -0.5952 -0.0808
  733SOL    HW3 2699   3.443   0.396   0.979  0.0400  0.4702 -0.0337
  733SOL    MW4 2700   3.434   0.410   1.064 -0.1599  0.4799 -0.0545
  734SOL     OW 2701   2.975   0.482   4.300  0.2502  0.0370 -0.3691
  734SOL    HW2 2702   2.909   0.509   4.236  0.6965  0.2428 -0.7501
  734SOL    HW3 2703   3.058   0.483   4.251  0.9310  2.2709  0.7186
  734SOL    MW4 2704   2.978   0.486   4.285  0.3989  0.3589 -0.2758
  735SOL     OW 2705   5.952   0.532   3.320  0.6145 -0.1871  0.3574
  735SOL    HW2 2706   5.907   0.462   3.367  0.6392 -0.2682  0.2604
  735SOL    HW3 2707   5.947   0.608   3.379  1.1502 -0.4430  0.7424
  735SOL    MW4 2708   5.945   0.533   3.334  0.6885 -0.2316  0.3954
  736SOL     OW 2709   1.324   2.996   5.981 -0.4066  0.2634 -0.3085
  736SOL    HW2 2710   1.243   3.018   5.935 -1.4427 -1.9360  0.3115
  736SOL    HW3 2711   1.295   2.945   6.057  1.5636 -1.1328 -0.4218
  736SOL    MW4 2712   1.309   2.992   5.985 -0.2834 -0.2110 -0.2417
  737SOL     OW 2713   3.607   0.196   5.543 -0.0085  0.1087  0.2143
  737SOL    HW2 2714   3.596   0.154   5.628 -1.0028  3.0307  1.6785
  737SOL    HW3 2715   3.696   0.232   5.545  0.0234  0.0516 -0.0604
  737SOL    MW4 2716   3.617   0.195   5.554 -0.1355  0.4867  0.3713
  738SOL     OW 2717   5.375   5.433   4.198  0.3852 -0.0971 -0.0051
  738SOL    HW2 2718   5.384   5.362   4.134  0.1154 -1.9012  1.8469
  738SOL    HW3 2719   5.457   5.429   4.249  0.4427  1.0474  0.0049
  738SOL    MW4 2720   5.387   5.423   4.197  0.3572 -0.1841  0.2405
  739SOL     OW 2721   1.407   2.609   5.368  0.1689 -0.1577  0.0016
  739SOL    HW2 2722   1.441   2.682   5.419 -0.4991  0.0416  0.1755
  739SOL    HW3 2723   1.321   2.591   5.406 -1.1628  1.1565 -2.0950
  739SOL    MW4 2724   1.400   2.616   5.380 -0.0949  0.0420 -0.2520
  740SOL     OW 2725   0.564   2.168   2.010  0.3388 -0.2405 -0.1876
  740SOL    HW2 2726   0.494   2.232   2.023 -0.4802 -0.6128 -2.3847
  740SOL    HW3 2727   0.630   2.192   2.075  0.1047  2.8983 -0.9463
  740SOL    MW4 2728   0.563   2.180   2.020  0.1999  0.1245 -0.5776
  741SOL     OW 2729   6.183   3.487   3.469  0.4307 -0.1725 -0.5227
  741SOL    HW2 2730   6.125   3.497   3.545  1.9899 -0.0853  0.7013
  741SOL    HW3 2731   6.252   3.552   3.482  1.0623 -0.5682 -1.7115
  741SOL    MW4 2732   6.184   3.497   3.481  0.7197 -0.2132 -0.5180
  742SOL     OW 2733   4.687   4.321   2.615  0.3391  0.1505  0.1155
  742SOL    HW2 2734   4.732   4.341   2.697  0.6197  0.5099 -0.1218
  742SOL    HW3 2735   4.720   4.234   2.591  0.6268  0.2526  0.1332
  742SOL    MW4 2736   4.697   4.312   2.623  0.4141  0.2114  0.0865
  743SOL     OW 2737   1.243   4.112   1.518 -0.4539 -0.1685  0.3874
  743SOL    HW2 2738   1.210   4.040   1.572  0.1097 -0.6092  0.1573
  743SOL    HW3 2739   1.195   4.104   1.436 -0.1156 -0.5326  0.2181
  743SOL    MW4 2740   1.232   4.101   1.515 -0.3349 -0.2747  0.3347
  744SOL     OW 2741   5.418   4.345   1.986  0.0133 -0.3540 -0.1096
  744SOL    HW2 2742   5.437   4.300   1.904  1.1042 -0.9448  0.4538
  744SOL    HW3 2743   5.341   4.299   2.021  0.2799 -0.8858 -0.2135
  744SOL    MW4 2744   5.410   4.333   1.980  0.1924 -0.5021 -0.0490
  745SOL     OW 2745   5.800   5.384   5.466  0.2147 -0.7310 -0.4587
  745SOL    HW2 2746   5.712   5.349   5.480 -0.1692  0.6728  0.9833
  745SOL    HW3 2747   5.855   5.306   5.453 -1.0072 -1.7129  0.0100
  745SOL    MW4 2748   5.796   5.369   5.466  0.0028 -0.6753 -0.2066
  746SOL     OW 2749   4.846   6.415   4.413  0.5369  0.4526  0.2761
  746SOL    HW2 2750   4.798   6.369   4.481 -0.4657  1.6649  0.4247
  746SOL    HW3 2751   4.926   6.444   4.455  0.1728  0.7207  0.7911
  746SOL    MW4 2752   4.850   6.413   4.427  0.3566  0.6479  0.3637
  747SOL     OW 2753   4.024   3.002   3.980 -0.4651 -0.3111  0.0491
  747SOL    HW2 2754   4.091   2.990   3.913 -0.3054 -1.3079  0.3638
  747SOL    HW3 2755   3.947   2.957   3.945 -0.4719 -0.5722  0.3901
  747SOL    MW4 2756   4.022   2.994   3.967 -0.4449 -0.4771  0.1356
  748SOL     OW 2757   5.507   1.259   2.511 -0.0153 -0.6185 -0.8850
  748SOL    HW2 2758   5.463   1.197   2.453  0.0405 -1.6461  0.1345
  748SOL    HW3 2759   5.505   1.217   2.597 -1.1766  1.3921  0.1361
  748SOL    MW4 2760   5.501   1.245   2.515 -0.1612 -0.4888 -0.6158
  749SOL     OW 2761   0.062   4.319   2.045 -0.3163  0.3354 -0.1943
  749SOL    HW2 2762   0.090   4.408   2.067 -1.0970  0.7853 -0.9355
  749SOL    HW3 2763  -0.000   4.331   1.973 -1.8165 -0.6631  0.8797
  749SOL    MW4 2764   0.058   4.332   2.039 -0.6172  0.2630 -0.1504
  750SOL     OW 2765   4.894   2.927   5.959  0.3414 -0.9791 -0.0633
  750SOL    HW2 2766   4.851   2.841   5.958 -0.4138 -0.6050 -0.7600
  750SOL    HW3 2767   4.917   2.944   5.867 -0.7350  0.1500 -0.1451
  750SOL    MW4 2768   4.892   2.918   5.947  0.0998 -0.7808 -0.1660
  751SOL     OW 2769   0.793   0.975   6.437  0.0807 -0.7422  0.0632
  751SOL    HW2 2770   0.807   0.903   6.498 -2.4605 -0.0726  1.6031
  751SOL    HW3 2771   0.860   1.039   6.459  0.3882 -1.3249  0.8746
  751SOL    MW4 2772   0.803   0.974   6.448 -0.2140 -0.7307  0.3734
  752SOL     OW 2773   5.339   0.840   4.842  0.3615  0.3082  0.0404
  752SOL    HW2 2774   5.278   0.913   4.851  0.2252  0.2133 -0.0939
  752SOL    HW3 2775   5.379   0.831   4.928  2.8037  2.6382 -0.7394
  752SOL    MW4 2776   5.336   0.848   4.854  0.6657  0.6031 -0.0802
  753SOL     OW 2777   5.720   0.363   3.902 -0.2440 -0.1737 -0.3015
  753SOL    HW2 2778   5.768   0.285   3.875  0.3322 -0.6920  1.9400
  753SOL    HW3 2779   5.629   0.344   3.881  0.1476 -0.4902 -1.7974
  753SOL    MW4 2780   5.715   0.350   3.896 -0.1163 -0.2838 -0.2031
  754SOL     OW 2781   3.219   2.960   2.782  0.2267 -0.4690 -0.3234
  754SOL    HW2 2782   3.146   2.956   2.843  0.4714 -0.7543 -0.0463
  754SOL    HW3 2783   3.269   2.880   2.799  1.5363  0.5032  0.6555
  754SOL    MW4 2784   3.216   2.949   2.792  0.4318 -0.3784 -0.1576
  755SOL     OW 2785   2.630   1.269   3.355  0.8000  0.3931 -0.0040
  755SOL    HW2 2786   2.554   1.324   3.341  1.3271  1.1916  0.1972
  755SOL    HW3 2787   2.685   1.282   3.277  1.1657  0.5631  0.2763
  755SOL    MW4 2788   2.628   1.278   3.343  0.9178  0.5209  0.0595
  756SOL     OW 2789   4.579   1.764   5.557 -0.1638 -0.2265 -0.3038
  756SOL    HW2 2790   4.604   1.835   5.499  1.2376 -1.0198 -0.7288
  756SOL    HW3 2791   4.497   1.731   5.522 -0.2260  0.4404 -0.7823
  756SOL    MW4 2792   4.572   1.769   5.545  0.0129 -0.2432 -0.4230
  757SOL     OW 2793   4.556   6.043   0.472 -0.0380 -0.5463 -0.1011
  757SOL    HW2 2794   4.518   6.103   0.536  2.8272 -0.1658  1.4203
  757SOL    HW3 2795   4.545   5.956   0.511 -1.1327 -0.6838 -0.6745
  757SOL    MW4 2796   4.549   6.040   0.486  0.1956 -0.5142  0.0240
  758SOL     OW 2797   0.811   5.387   2.639  0.0752  0.8257  0.0680
  758SOL    HW2 2798   0.838   5.479   2.633  0.6368  0.6021 -0.9025
  758SOL    HW3 2799   0.752   5.375   2.564  1.8652 -0.2198 -1.2328
  758SOL    MW4 2800   0.807   5.398   2.628  0.3855  0.6583 -0.2317
  759SOL     OW 2801   2.141   1.288   5.447 -0.1603  0.3559 -0.1463
  759SOL    HW2 2802   2.214   1.264   5.389 -0.3945 -1.0987  0.1349
  759SOL    HW3 2803   2.092   1.207   5.458 -2.5170  1.5307 -1.2684
  759SOL    MW4 2804   2.144   1.274   5.441 -0.5021  0.3190 -0.2572
  760SOL     OW 2805   5.034   1.060   0.979 -0.3157  0.3998  0.1904
  760SOL    HW2 2806   4.950   1.026   1.013 -1.6897  0.5459 -2.7442
  760SOL    HW3 2807   5.099   1.030   1.043 -2.2165 -2.4321  1.0194
  760SOL    MW4 2808   5.031   1.051   0.992 -0.7478  0.0454 -0.0874
  761SOL     OW 2809   2.974   3.068   1.354 -0.3741  0.5031  0.2843
  761SOL    HW2 2810   2.886   3.087   1.319  0.6094  1.4845 -1.8203
  761SOL    HW3 2811   2.983   2.973   1.344 -0.3262  0.6769 -1.8160
  761SOL    MW4 2812   2.963   3.058   1.348 -0.2380  0.6555 -0.2705
  762SOL     OW 2813   0.534   5.802   1.491  0.3585  0.2862  0.9511
  762SOL    HW2 2814   0.613   5.810   1.439  0.4340  1.7869  1.2423
  762SOL    HW3 2815   0.562   5.759   1.572  0.1975 -2.2462 -0.2454
  762SOL    MW4 2816   0.548   5.797   1.495  0.3472  0.1501  0.8316
  763SOL     OW 2817   1.504   0.890   3.083 -0.9227 -0.3292  0.2527
  763SOL    HW2 2818   1.577   0.829   3.090 -0.2478 -0.4065 -4.2368
  763SOL    HW3 2819   1.543   0.976   3.096  0.0075 -0.4053 -1.6469
  763SOL    MW4 2820   1.518   0.893   3.085 -0.7109 -0.3494 -0.5903
  764SOL     OW 2821   4.682   5.845   4.599  0.1625 -0.9069  0.3306
  764SOL    HW2 2822   4.691   5.755   4.631  1.9834 -0.6104  0.7560
  764SOL    HW3 2823   4.763   5.862   4.552  0.2034  0.7724  0.9514
  764SOL    MW4 2824   4.694   5.835   4.597  0.4081 -0.6462  0.4687
  765SOL     OW 2825   3.261   5.322   0.784  0.4572  0.1866  0.4435
  765SOL    HW2 2826   3.307   5.242   0.760  0.7289  0.5589 -0.3222
  765SOL    HW3 2827   3.200   5.338   0.712  0.0100  0.3634  0.8586
  765SOL    MW4 2828   3.259   5.314   0.771  0.4341  0.2590  0.3973
  766SOL     OW 2829   2.555   2.575   5.534 -0.6285  0.4161  0.0972
  766SOL    HW2 2830   2.541   2.645   5.470  3.1856  1.9067  0.6481
  766SOL    HW3 2831   2.592   2.503   5.483 -0.8217  0.2826  0.1425
  766SOL    MW4 2832   2.558   2.575   5.519 -0.1508  0.5951  0.1759
  767SOL     OW 2833   4.131   2.138   3.937  0.2294 -0.4765  0.3244
  767SOL    HW2 2834   4.084   2.189   3.871  0.1686 -0.4029  0.4249
  767SOL    HW3 2835   4.115   2.047   3.912 -0.2557 -0.4592  0.5555
  767SOL    MW4 2836   4.123   2.133   3.925  0.1574 -0.4645  0.3682
  768SOL     OW 2837   0.783   2.507   1.710 -0.1727 -0.1944  0.8166
  768SOL    HW2 2838   0.780   2.557   1.629 -0.2691 -0.8596  0.4067
  768SOL    HW3 2839   0.740   2.564   1.774  1.2951  0.9993  0.7864
  768SOL    MW4 2840   0.777   2.521   1.708  0.0082 -0.1247  0.7585
  769SOL     OW 2841   2.222   2.355   6.006  0.4293  0.1614  0.2586
  769SOL    HW2 2842   2.223   2.437   5.958 -1.0785  1.2023  1.8922
  769SOL    HW3 2843   2.315   2.332   6.017  0.8487  1.2228 -0.8503
  769SOL    MW4 2844   2.234   2.363   6.001  0.2857  0.4388  0.3278
  770SOL     OW 2845   5.297   4.606   1.410 -0.9639 -0.0279  0.2972
  770SOL    HW2 2846   5.292   4.538   1.343 -1.3121 -0.1146  0.4058
  770SOL    HW3 2847   5.276   4.687   1.364 -0.0190  0.0932  0.0533
  770SOL    MW4 2848   5.293   4.608   1.395 -0.8852 -0.0233  0.2793
  771SOL     OW 2849   4.691   5.246   0.453 -0.1382 -0.4420  0.2434
  771SOL    HW2 2850   4.629   5.205   0.393 -0.9123  0.6808  0.2531
  771SOL    HW3 2851   4.728   5.173   0.503 -1.9784 -1.0698  0.7343
  771SOL    MW4 2852   4.688   5.231   0.451 -0.4831 -0.3767  0.3094
  772SOL     OW 2853   2.526   2.607   3.316 -0.0853  0.8192  0.3881
  772SOL    HW2 2854   2.482   2.647   3.391  1.3406  1.0688  1.1392
  772SOL    HW3 2855   2.616   2.642   3.320  0.7057 -1.0538  0.0086
  772SOL    MW4 2856   2.532   2.617   3.327  0.2072  0.6050  0.4371
  773SOL     OW 2857   0.655   1.629   4.093 -0.1725 -0.8470 -0.3143
  773SOL    HW2 2858   0.633   1.624   4.000  1.1149  0.0363 -0.6915
  773SOL    HW3 2859   0.608   1.706   4.125  0.6288 -0.2218 -0.6159
  773SOL    MW4 2860   0.646   1.638   4.085  0.1031 -0.6479 -0.4038
  774SOL     OW 2861   1.409   1.488   2.269 -0.2420 -0.5969 -0.1442
  774SOL    HW2 2862   1.348   1.545   2.222  1.6924  1.2162 -0.5799
  774SOL    HW3 2863   1.398   1.403   2.227 -1.2924  0.0701 -1.3071
  774SOL    MW4 2864   1.400   1.484   2.257 -0.1254 -0.2697 -0.3551
  775SOL     OW 2865   5.942   5.287   2.255 -0.3855 -0.9061 -0.0724
  775SOL    HW2 2866   5.967   5.333   2.335  0.5255 -0.0406 -0.8347
  775SOL    HW3 2867   6.024   5.252   2.221 -0.7634 -1.2795 -0.6221
  775SOL    MW4 2868   5.956   5.288   2.261 -0.3152 -0.8412 -0.2455
  776SOL     OW 2869   0.817   2.887   5.696  0.5326 -0.1641  0.1475
  776SOL    HW2 2870   0.759   2.822   5.738 -0.6749 -0.0962 -1.3349
  776SOL    HW3 2871   0.863   2.928   5.769 -0.5089 -0.9764  1.3137
  776SOL    MW4 2872   0.815   2.884   5.712  0.2359 -0.2623  0.1058
  777SOL     OW 2873   2.012   2.312   0.425  0.2212  0.1303 -0.4200
  777SOL    HW2 2874   1.984   2.295   0.335 -0.1495  0.0329 -0.2885
  777SOL    HW3 2875   2.020   2.225   0.464 -2.5370  0.1915  0.5198
  777SOL    MW4 2876   2.009   2.298   0.418 -0.1916  0.1256 -0.2786
  778SOL     OW 2877   6.104   1.687   5.986  0.3720 -0.1432  0.2898
  778SOL    HW2 2878   6.192   1.664   5.955  0.3629 -0.5420  0.5647
  778SOL    HW3 2879   6.101   1.655   6.076  0.0070  0.0347  0.3397
  778SOL    MW4 2880   6.115   1.680   5.993  0.3227 -0.1723  0.3326
  779SOL     OW 2881   2.025   1.875   3.550  0.1363  0.5403 -0.0284
  779SOL    HW2 2882   2.104   1.927   3.560  0.3853  0.1172  0.2436
  779SOL    HW3 2883   1.953   1.937   3.564  0.4188  0.4279  2.4452
  779SOL    MW4 2884   2.026   1.890   3.553  0.2064  0.4697  0.3338
  780SOL     OW 2885   3.932   2.625   5.357 -0.4036 -0.1915  0.4045
  780SOL    HW2 2886   3.940   2.530   5.372  0.0502 -0.5048 -1.5315
  780SOL    HW3 2887   3.898   2.659   5.440 -0.4534 -2.0227  1.2022
  780SOL    MW4 2888   3.928   2.617   5.370 -0.3503 -0.4745  0.2543
  781SOL     OW 2889   3.499   0.704   4.634  0.4423 -0.4606 -0.1561
  781SOL    HW2 2890   3.488   0.742   4.722  0.7363  0.8375 -0.6461
  781SOL    HW3 2891   3.411   0.682   4.606  0.2736 -0.2500  0.2047
  781SOL    MW4 2892   3.486   0.706   4.642  0.4589 -0.2615 -0.1731
  782SOL     OW 2893   3.571   1.176   5.105  0.0740  1.0206  0.6847
  782SOL    HW2 2894   3.516   1.232   5.160  0.1031  0.2774  1.5063
  782SOL    HW3 2895   3.569   1.217   5.019 -2.0542  0.8390  0.5910
  782SOL    MW4 2896   3.563   1.189   5.101 -0.2029  0.8986  0.7808
  783SOL     OW 2897   3.199   3.530   4.365  0.9512 -0.0495  0.0433
  783SOL    HW2 2898   3.216   3.470   4.292  1.0039 -0.1718  0.1570
  783SOL    HW3 2899   3.287   3.557   4.394  0.9312 -0.0557  0.1086
  783SOL    MW4 2900   3.213   3.526   4.359  0.9555 -0.0665  0.0669
  784SOL     OW 2901   3.845   3.732   5.319 -0.2526  0.2575 -0.4636
  784SOL    HW2 2902   3.940   3.734   5.334 -0.3835 -0.7220  0.6496
  784SOL    HW3 2903   3.819   3.644   5.345 -1.6941  0.9890  0.7590
  784SOL    MW4 2904   3.854   3.721   5.325 -0.4600  0.2248 -0.1554
  785SOL     OW 2905   4.433   1.043   2.671 -0.5456  0.3166 -0.2130
  785SOL    HW2 2906   4.376   0.968   2.689 -0.7887  0.5855  0.1378
  785SOL    HW3 2907   4.433   1.094   2.752 -0.4814  0.7684 -0.4930
  785SOL    MW4 2908   4.426   1.040   2.684 -0.5692  0.4117 -0.2037
  786SOL     OW 2909   3.648   1.429   3.495  0.5603 -0.1439  0.5045
  786SOL    HW2 2910   3.614   1.519   3.489  0.0770 -0.2869  0.9444
  786SOL    HW3 2911   3.586   1.377   3.444  0.6518 -0.2725  0.5249
  786SOL    MW4 2912   3.635   1.434   3.488  0.5086 -0.1797  0.5652
  787SOL     OW 2913   1.663   2.808   0.111  0.0369  0.5414  0.0381
  787SOL    HW2 2914   1.572   2.823   0.088 -0.1464 -0.6849 -0.1306
  787SOL    HW3 2915   1.709   2.805   0.027 -0.4094 -2.5421 -0.2250
  787SOL    MW4 2916   1.657   2.809   0.097 -0.0462 -0.0272 -0.0189
  788SOL     OW 2917   0.441   5.093   4.083  0.0506 -0.4800  0.1894
  788SOL    HW2 2918   0.348   5.115   4.083  0.0665 -0.3479 -0.7468
  788SOL    HW3 2919   0.462   5.072   4.174 -0.5070  1.1540  0.7291
  788SOL    MW4 2920   0.432   5.093   4.095 -0.0208 -0.2470  0.1370
  789SOL     OW 2921   3.852   3.482   4.037 -0.3077 -0.4017 -0.0160
  789SOL    HW2 2922   3.929   3.425   4.032  1.1926  1.3002  1.7329
  789SOL    HW3 2923   3.779   3.423   4.054  0.8519 -1.9502 -0.1845
  789SOL    MW4 2924   3.852   3.467   4.038  0.0432 -0.3814  0.1925
  790SOL     OW 2925   2.580   5.527   4.668 -0.0295 -0.0019  0.7123
  790SOL    HW2 2926   2.642   5.588   4.628  0.0847 -0.4967  0.1225
  790SOL    HW3 2927   2.512   5.583   4.705 -1.5663  0.4738 -2.4659
  790SOL    MW4 2928   2.579   5.543   4.667 -0.2172 -0.0044  0.2152
  791SOL     OW 2929   1.568   3.712   2.850 -0.5580 -0.0845  0.1132
  791SOL    HW2 2930   1.481   3.676   2.864 -0.0698 -1.3905 -0.0553
  791SOL    HW3 2931   1.624   3.665   2.912 -0.0944  1.3438  0.8279
  791SOL    MW4 2932   1.564   3.701   2.860 -0.4324 -0.0684  0.1853
  792SOL     OW 2933   5.031   0.783   1.603 -0.0455 -0.3595  0.0915
  792SOL    HW2 2934   4.994   0.714   1.547 -0.0518 -1.0824  0.9645
  792SOL    HW3 2935   5.113   0.808   1.559  0.3017 -1.4093  0.1046
  792SOL    MW4 2936   5.037   0.777   1.590 -0.0005 -0.5934  0.2084
  793SOL     OW 2937   5.907   3.967   6.048 -0.0442 -0.6707 -0.0251
  793SOL    HW2 2938   5.844   3.965   5.976 -1.7344 -2.2332  1.3748
  793SOL    HW3 2939   5.953   3.883   6.043 -0.1497 -0.7801  0.6645
  793SOL    MW4 2940   5.905   3.956   6.038 -0.2811 -0.8913  0.2506
  794SOL     OW 2941   5.713   5.120   4.523 -0.2457 -0.7582  0.6653
  794SOL    HW2 2942   5.625   5.143   4.494  0.5984  1.4327 -0.3466
  794SOL    HW3 2943   5.757   5.088   4.445  0.4179  0.0081  0.7121
  794SOL    MW4 2944   5.707   5.119   4.509 -0.0467 -0.3681  0.5380
  795SOL     OW 2945   1.107   0.270   3.186 -0.3300  0.4118 -0.2036
  795SOL    HW2 2946   1.092   0.175   3.185  0.7633  0.2092  0.7133
  795SOL    HW3 2947   1.121   0.291   3.279  1.6433  1.0989 -0.6195
  795SOL    MW4 2948   1.107   0.260   3.198  0.0746  0.4758 -0.1375
  796SOL     OW 2949   6.353   0.137   5.024  0.1772 -0.2672  0.2594
  796SOL    HW2 2950   6.325   0.186   4.947  1.0000 -0.4145 -0.1368
  796SOL    HW3 2951   6.359   0.046   4.994  0.9114 -0.2621  0.3864
  796SOL    MW4 2952   6.350   0.131   5.010  0.3826 -0.2860  0.2239
  797SOL     OW 2953   2.139   6.025   2.394 -0.2850 -0.5664  0.1880
  797SOL    HW2 2954   2.113   5.983   2.476 -1.6429  1.3815  0.8179
  797SOL    HW3 2955   2.067   6.009   2.334 -0.4874  0.2127  0.2100
  797SOL    MW4 2956   2.126   6.018   2.397 -0.4909 -0.2066  0.2740
  798SOL     OW 2957   0.859   4.461   2.800  0.2326  0.0339  0.2851
  798SOL    HW2 2958   0.893   4.544   2.834  0.7961 -0.1636  0.2168
  798SOL    HW3 2959   0.827   4.414   2.877  1.0416 -0.2001  0.4905
  798SOL    MW4 2960   0.859   4.466   2.814  0.4137 -0.0230  0.3032
  799SOL     OW 2961   1.973   0.537   3.938 -0.0109 -0.5161  0.8447
  799SOL    HW2 2962   1.961   0.499   3.851 -0.4306  0.2001  0.5785
  799SOL    HW3 2963   2.046   0.489   3.976  0.9182 -0.0901 -0.3352
  799SOL    MW4 2964   1.981   0.526   3.932  0.0563 -0.3654  0.6539
  800SOL     OW 2965   4.687   3.522   2.608  0.3845  0.3958 -0.0814
  800SOL    HW2 2966   4.665   3.457   2.541 -0.1802  0.4371  0.0605
  800SOL    HW3 2967   4.603   3.543   2.649  0.7767  0.0761  0.9057
  800SOL    MW4 2968   4.673   3.516   2.604  0.3618  0.3591  0.0676
  801SOL     OW 2969   3.838   0.337   5.718  0.0036 -0.0694 -0.2608
  801SOL    HW2 2970   3.762   0.327   5.776  0.0735 -0.8901 -0.3044
  801SOL    HW3 2971   3.913   0.320   5.775  0.2682  2.0116  0.1083
  801SOL    MW4 2972   3.838   0.334   5.733  0.0477  0.0969 -0.2179
  802SOL     OW 2973   5.193   4.809   6.058 -0.0784 -0.4960 -0.2155
  802SOL    HW2 2974   5.254   4.759   6.004 -0.5763 -1.1771 -0.1618
  802SOL    HW3 2975   5.177   4.753   6.135  1.3346  0.8452  1.1117
  802SOL    MW4 2976   5.199   4.795   6.061  0.0423 -0.4089 -0.0333
  803SOL     OW 2977   1.456   5.654   2.583  0.6853 -0.3298  0.8409
  803SOL    HW2 2978   1.490   5.683   2.499  1.0052  0.1012  1.1102
  803SOL    HW3 2979   1.446   5.735   2.634  0.4737 -0.5811  1.2059
  803SOL    MW4 2980   1.460   5.668   2.579  0.6996 -0.3061  0.9246
  804SOL     OW 2981   2.424   2.196   5.067 -0.0463  0.2974 -0.0651
  804SOL    HW2 2982   2.409   2.189   5.161 -0.3691 -1.3464 -0.2123
  804SOL    HW3 2983   2.359   2.139   5.028  0.7766  0.1155 -1.2323
  804SOL    MW4 2984   2.414   2.188   5.074  0.0197  0.0565 -0.2385
  805SOL     OW 2985   3.070   5.645   0.134 -0.3852 -0.4732 -0.1676
  805SOL    HW2 2986   3.020   5.684   0.062 -1.0657 -0.1918  0.4499
  805SOL    HW3 2987   3.116   5.718   0.174 -0.4167 -0.5478  0.0067
  805SOL    MW4 2988   3.069   5.660   0.130 -0.4791 -0.4459 -0.0632
  806SOL     OW 2989   4.864   2.415   2.813  0.1810  0.1353  0.0259
  806SOL    HW2 2990   4.941   2.405   2.756  0.5709  0.8628  0.4050
  806SOL    HW3 2991   4.817   2.332   2.804  0.2578  0.2160 -1.3093
  806SOL    MW4 2992   4.868   2.402   2.805  0.2426  0.2419 -0.1002
  807SOL     OW 2993   0.790   0.743   5.774 -0.1580  0.3369 -0.3972
  807SOL    HW2 2994   0.742   0.707   5.849 -1.7731 -0.4891 -1.7415
  807SOL    HW3 2995   0.818   0.666   5.725 -0.1026  0.8615 -1.2075
  807SOL    MW4 2996   0.787   0.728   5.777 -0.3638  0.2972 -0.6815
  808SOL     OW 2997   0.528   1.036   0.087  0.4889  0.3202 -0.7961
  808SOL    HW2 2998   0.619   1.013   0.069  0.3682  0.7076 -2.0064
  808SOL    HW3 2999   0.477   0.965   0.049  0.2946 -0.2777  0.5451
  808SOL    MW4 3000   0.534   1.024   0.080  0.4474  0.2924 -0.7788
  809SOL     OW 3001   2.406   1.275   0.833 -0.1394 -0.3761  0.3660
  809SOL    HW2 3002   2.377   1.363   0.808  0.7707  0.1669  1.1362
  809SOL    HW3 3003   2.430   1.233   0.750  0.5756  0.5397  0.0898
  809SOL    MW4 3004   2.406   1.281   0.819  0.0750 -0.1836  0.4312
  810SOL     OW 3005   2.452   1.139   5.651  0.4542  0.3933  0.0050
  810SOL    HW2 3006   2.526   1.186   5.689 -0.5504  3.6158 -1.5972
  810SOL    HW3 3007   2.484   1.110   5.565  0.5799 -0.4888  0.3395
  810SOL    MW4 3008   2.466   1.141   5.645  0.3383  0.7021 -0.1622
  811SOL     OW 3009   6.040   3.115   3.419 -0.0077  0.2075  0.2558
  811SOL    HW2 3010   6.095   3.095   3.494  0.9885  0.2472 -0.4380
  811SOL    HW3 3011   6.089   3.181   3.369 -1.3076  1.2570  0.3050
  811SOL    MW4 3012   6.054   3.121   3.422 -0.0478  0.3512  0.1707
  812SOL     OW 3013   3.333   4.084   3.842 -0.5247 -0.1166 -0.0285
  812SOL    HW2 3014   3.397   4.025   3.802  0.0664  1.1188 -0.9725
  812SOL    HW3 3015   3.250   4.036   3.837  0.1267 -1.2863  0.1864
  812SOL    MW4 3016   3.330   4.070   3.836 -0.3608 -0.1080 -0.1247
  813SOL     OW 3017   4.564   1.999   3.854  0.1537  0.4927  0.5959
  813SOL    HW2 3018   4.528   1.926   3.905  2.6676 -0.4025  1.1903
  813SOL    HW3 3019   4.505   2.072   3.873 -1.1059 -0.7693  1.8103
  813SOL    MW4 3020   4.551   1.999   3.863  0.3192  0.2081  0.8346
  814SOL     OW 3021   4.362   2.941   1.286 -0.0421  0.5629  0.2865
  814SOL    HW2 3022   4.450   2.921   1.255  0.0353  0.9294  0.2638
  814SOL    HW3 3023   4.375   2.977   1.373 -0.2539 -0.3890  0.7205
  814SOL    MW4 3024   4.375   2.943   1.293 -0.0598  0.4857  0.3407
  815SOL     OW 3025   2.539   1.102   6.028 -0.0597 -0.0543  0.1269
  815SOL    HW2 3026   2.582   1.113   6.113  0.6986  2.7072 -0.5284
  815SOL    HW3 3027   2.448   1.126   6.045  0.3944  1.9575 -0.0843
  815SOL    MW4 3028   2.533   1.106   6.042  0.1003  0.5755  0.0126
  816SOL     OW 3029   0.716   6.113   4.186 -0.3435  0.1008 -0.0421
  816SOL    HW2 3030   0.661   6.178   4.141 -0.0571  0.3242 -0.0737
  816SOL    HW3 3031   0.796   6.109   4.133 -0.8945 -1.2658 -0.8012
  816SOL    MW4 3032   0.719   6.121   4.173 -0.3784 -0.0500 -0.1464
  817SOL     OW 3033   5.542   3.648   0.476  0.0776  0.0812 -0.0538
  817SOL    HW2 3034   5.508   3.737   0.486  0.5754  0.4820 -1.7123
  817SOL    HW3 3035   5.479   3.605   0.419  2.0386  0.7395 -2.8923
  817SOL    MW4 3036   5.529   3.654   0.470  0.4020  0.2209 -0.6471
  818SOL     OW 3037   0.602   3.869   4.346  0.1788 -0.6880 -0.6851
  818SOL    HW2 3038   0.688   3.912   4.343  0.6373 -1.6434 -1.9776
  818SOL    HW3 3039   0.570   3.888   4.434  1.0299  0.9746 -0.6804
  818SOL    MW4 3040   0.609   3.877   4.357  0.3516 -0.5947 -0.8550
  819SOL     OW 3041   1.299   1.406   3.049 -0.5502  0.2302  0.1285
  819SOL    HW2 3042   1.280   1.316   3.072 -0.5226  0.6431  1.9097
  819SOL    HW3 3043   1.283   1.411   2.955  2.2495 -2.3579 -0.6638
  819SOL    MW4 3044   1.294   1.395   3.039 -0.1772 -0.0568  0.2590
  820SOL     OW 3045   1.024   0.724   5.162 -0.2214 -0.1375 -0.2495
  820SOL    HW2 3046   1.029   0.724   5.066 -0.4465 -1.3948 -0.2736
  820SOL    HW3 3047   0.999   0.635   5.185  0.2869  0.0289  1.0169
  820SOL    MW4 3048   1.021   0.713   5.152 -0.1840 -0.2814 -0.0856
  821SOL     OW 3049   3.881   0.093   2.694  0.5899  0.1899  0.4336
  821SOL    HW2 3050   3.827   0.171   2.708  0.7009  0.3960 -0.2472
  821SOL    HW3 3051   3.948   0.122   2.632  0.8825 -0.3393  0.5015
  821SOL    MW4 3052   3.882   0.107   2.688  0.6432  0.1472  0.3528
  822SOL     OW 3053   2.778   4.008   4.745  0.4229  0.1544  0.5824
  822SOL    HW2 3054   2.683   4.004   4.759  0.4486  1.1552  1.1116
  822SOL    HW3 3055   2.812   3.934   4.796 -0.0116  0.2197  0.9754
  822SOL    MW4 3056   2.770   3.998   4.754  0.3690  0.2951  0.7040
  823SOL     OW 3057   0.109   2.332   4.256  0.3148 -0.3946 -0.4198
  823SOL    HW2 3058   0.031   2.375   4.223  0.4031 -0.0014 -0.1223
  823SOL    HW3 3059   0.146   2.394   4.319  1.4599 -0.1191 -1.3353
  823SOL    MW4 3060   0.104   2.346   4.260  0.4775 -0.3064 -0.5014
  824SOL     OW 3061   0.826   4.071   3.161  0.3158  0.4797 -0.3487
  824SOL    HW2 3062   0.807   4.144   3.220  1.5111  0.4252  0.1332
  824SOL    HW3 3063   0.922   4.064   3.162  0.3632  0.4328 -2.2490
  824SOL    MW4 3064   0.836   4.080   3.169  0.4798  0.4663 -0.5359
  825SOL     OW 3065   1.704   2.864   1.218  0.6814  0.1679  0.2645
  825SOL    HW2 3066   1.656   2.943   1.245  0.6579  0.1170  0.3716
  825SOL    HW3 3067   1.668   2.794   1.273 -0.4515 -0.2405 -0.9459
  825SOL    MW4 3068   1.693   2.865   1.229  0.5289  0.1073  0.1190
  826SOL     OW 3069   2.629   5.557   0.427 -0.0667 -0.6813  0.3826
  826SOL    HW2 3070   2.635   5.528   0.336  0.3239  2.2760 -0.6513
  826SOL    HW3 3071   2.548   5.607   0.431  1.1029  1.2916  0.9228
  826SOL    MW4 3072   2.619   5.560   0.416  0.1391 -0.0308  0.3174
  827SOL     OW 3073   2.526   4.258   0.403 -0.4196  0.1504 -0.0560
  827SOL    HW2 3074   2.525   4.203   0.482  0.2037  0.5982  0.2696
  827SOL    HW3 3075   2.434   4.261   0.375 -0.5069 -0.8125  0.0864
  827SOL    MW4 3076   2.513   4.251   0.410 -0.3489  0.0824  0.0057
  828SOL     OW 3077   3.555   0.166   0.245 -0.0783 -0.2130 -0.7247
  828SOL    HW2 3078   3.589   0.094   0.191  0.2478 -0.1892 -0.5557
  828SOL    HW3 3079   3.472   0.190   0.204 -0.4842 -1.0789 -0.4400
  828SOL    MW4 3080   3.549   0.160   0.232 -0.0889 -0.3241 -0.6648
  829SOL     OW 3081   0.833   0.485   5.682  0.3819  0.4706  0.1011
  829SOL    HW2 3082   0.905   0.422   5.687  0.3565  0.0732 -2.7182
  829SOL    HW3 3083   0.761   0.444   5.728  0.5876 -1.2682 -1.0485
  829SOL    MW4 3084   0.833   0.471   5.689  0.4057  0.1887 -0.4226
  830SOL     OW 3085   0.371   3.683   2.399  0.3730 -0.7588  0.0524
  830SOL    HW2 3086   0.387   3.776   2.411 -1.5316 -0.4330  0.4278
  830SOL    HW3 3087   0.302   3.678   2.334  0.6508 -1.9330 -0.1802
  830SOL    MW4 3088   0.364   3.694   2.392  0.1584 -0.8708  0.0712
  831SOL     OW 3089   5.923   5.744   1.469  0.0308 -0.2862 -0.9711
  831SOL    HW2 3090   5.882   5.824   1.438 -0.4597 -0.2943 -0.3515
  831SOL    HW3 3091   5.875   5.720   1.548  1.9862  0.3887  0.5248
  831SOL    MW4 3092   5.912   5.751   1.475  0.2241 -0.1982 -0.6920
  832SOL     OW 3093   4.636   5.338   4.784  0.2083 -0.4068  0.0482
  832SOL    HW2 3094   4.638   5.380   4.870 -3.2758  2.2063 -0.9151
  832SOL    HW3 3095   4.584   5.259   4.797  0.9589 -0.8188  0.6019
  832SOL    MW4 3096   4.629   5.333   4.797 -0.1523 -0.1164 -0.0059
  833SOL     OW 3097   5.062   2.399   2.623 -0.1201  0.3302  0.1160
  833SOL    HW2 3098   5.071   2.306   2.602 -0.8976  0.2671  0.0275
  833SOL    HW3 3099   5.141   2.420   2.674  0.1186 -0.3435  0.0339
  833SOL    MW4 3100   5.074   2.390   2.627 -0.1912  0.2330  0.0935
  834SOL     OW 3101   4.747   4.072   2.223 -0.7835  0.0941 -0.3861
  834SOL    HW2 3102   4.732   4.167   2.228  1.6146  0.5116  0.4251
  834SOL    HW3 3103   4.680   4.034   2.280 -0.8838  1.4286  0.4436
  834SOL    MW4 3104   4.736   4.080   2.231 -0.4803  0.3253 -0.1696
  835SOL     OW 3105   4.807   0.770   6.439  0.7223 -0.2300  0.5841
  835SOL    HW2 3106   4.772   0.691   6.398  1.2454 -0.1543 -0.0135
  835SOL    HW3 3107   4.730   0.814   6.475  0.1369  0.0913 -0.9878
  835SOL    MW4 3108   4.792   0.765   6.438  0.7141 -0.1776  0.2978
  836SOL     OW 3109   1.448   0.542   4.875 -0.2047  0.1582  0.2233
  836SOL    HW2 3110   1.423   0.462   4.921  0.0286  0.5192  0.9905
  836SOL    HW3 3111   1.466   0.513   4.785 -1.4274 -0.4317  0.1415
  836SOL    MW4 3112   1.447   0.527   4.869 -0.3352  0.1280  0.3137
  837SOL     OW 3113   3.542   2.263   4.224  0.3097 -0.4598  0.3260
  837SOL    HW2 3114   3.541   2.186   4.280  0.3462 -1.7665 -1.3822
  837SOL    HW3 3115   3.594   2.327   4.272 -1.4384 -0.7127  2.7358
  837SOL    MW4 3116   3.548   2.261   4.237  0.0838 -0.6655  0.4185
  838SOL     OW 3117   0.001   4.666   3.387  0.1171  0.4457  0.2587
  838SOL    HW2 3118   0.096   4.673   3.396  0.6133 -3.3448 -0.4158
  838SOL    HW3 3119  -0.024   4.597   3.449 -2.1051  0.7798 -0.1737
  838SOL    MW4 3120   0.010   4.658   3.396 -0.1106 -0.0103  0.1127
  839SOL     OW 3121   6.046   5.270   1.482  0.4101 -0.1157  0.5042
  839SOL    HW2 3122   6.047   5.282   1.577 -2.0344  0.1162  0.5833
  839SOL    HW3 3123   6.073   5.355   1.446  0.2056  0.1645  1.0050
  839SOL    MW4 3124   6.049   5.283   1.490  0.0606 -0.0481  0.5807
  840SOL     OW 3125   5.846   2.324   2.108 -0.1381  0.1046  0.0078
  840SOL    HW2 3126   5.822   2.307   2.199  0.8582 -0.6241  0.1539
  840SOL    HW3 3127   5.902   2.401   2.111 -1.0334  0.7718 -0.1327
  840SOL    MW4 3128   5.850   2.332   2.120 -0.1248  0.0965  0.0085
  841SOL     OW 3129   6.290   3.276   4.510 -0.1430 -0.3924  0.2577
  841SOL    HW2 3130   6.358   3.303   4.448 -1.0130 -1.0071 -1.0144
  841SOL    HW3 3131   6.334   3.214   4.568  0.0975 -1.9060 -1.4467
  841SOL    MW4 3132   6.305   3.271   4.510 -0.2260 -0.6732 -0.1350
  842SOL     OW 3133   4.628   3.128   2.287  0.2395 -0.1679 -0.2226
  842SOL    HW2 3134   4.647   3.054   2.345  0.3826  0.2151  0.2342
  842SOL    HW3 3135   4.671   3.203   2.329  2.1166 -0.2289 -1.8913
  842SOL    MW4 3136   4.636   3.128   2.300  0.5060 -0.1254 -0.3825
  843SOL     OW 3137   3.595   2.650   4.001 -0.6928 -0.5713  0.1809
  843SOL    HW2 3138   3.598   2.698   4.084 -0.1702  0.8619 -0.6355
  843SOL    HW3 3139   3.542   2.573   4.020 -0.5820 -0.2760  1.8470
  843SOL    MW4 3140   3.588   2.646   4.015 -0.6093 -0.3432  0.2930
  844SOL     OW 3141   2.538   3.103   6.079  0.6228 -0.6103 -0.1285
  844SOL    HW2 3142   2.499   3.131   6.162  1.6247 -1.0337  0.5083
  844SOL    HW3 3143   2.519   3.174   6.018 -0.8260 -0.6504  0.2386
  844SOL    MW4 3144   2.531   3.116   6.082  0.5638 -0.6715  0.0040
  845SOL     OW 3145   2.994   4.667   5.128 -0.5483 -0.3929 -0.7247
  845SOL    HW2 3146   3.077   4.669   5.080  0.1826 -2.8603  0.3073
  845SOL    HW3 3147   2.966   4.759   5.130  3.3285  0.9606  0.8904
  845SOL    MW4 3148   3.001   4.680   5.122  0.0596 -0.5399 -0.3755
  846SOL     OW 3149   2.434   5.044   1.275  0.1026 -0.1073 -0.0836
  846SOL    HW2 3150   2.477   5.104   1.337  1.3463 -0.8316 -0.2105
  846SOL    HW3 3151   2.436   4.959   1.318 -0.0741 -0.3944 -0.6314
  846SOL    MW4 3152   2.440   5.041   1.289  0.2433 -0.2407 -0.1726
  847SOL     OW 3153   1.401   2.631   3.458 -0.2701  0.1227  0.7073
  847SOL    HW2 3154   1.400   2.663   3.549  2.5605  1.1562  0.4700
  847SOL    HW3 3155   1.452   2.550   3.461  0.9645  0.8387 -0.0981
  847SOL    MW4 3156   1.407   2.625   3.471  0.2662  0.3535  0.5698
  848SOL     OW 3157   0.264   4.376   3.441 -0.2344 -0.2189 -0.1524
  848SOL    HW2 3158   0.185   4.336   3.405 -0.4876 -0.2481  0.4336
  848SOL    HW3 3159   0.334   4.314   3.420 -0.6017 -0.9289  0.6474
  848SOL    MW4 3160   0.263   4.363   3.433 -0.3163 -0.3165  0.0304
  849SOL     OW 3161   3.241   2.156   6.162 -0.0731  0.2836  0.2318
  849SOL    HW2 3162   3.280   2.092   6.102 -0.3128  0.4807 -0.1388
  849SOL    HW3 3163   3.303   2.228   6.165  0.8602 -0.5420  1.7198
  849SOL    MW4 3164   3.254   2.157   6.155  0.0184  0.2007  0.3792
  850SOL     OW 3165   2.237   0.656   4.439 -0.5886  0.3972 -0.2459
  850SOL    HW2 3166   2.252   0.737   4.390  0.8865  1.4274  1.7714
  850SOL    HW3 3167   2.205   0.685   4.524  1.2777 -1.0281  1.0173
  850SOL    MW4 3168   2.235   0.670   4.444 -0.1477  0.3450  0.1869
  851SOL     OW 3169   1.393   5.057   4.961  0.0918  0.6948 -0.2521
  851SOL    HW2 3170   1.479   5.031   4.928 -0.2730 -0.9376 -0.0417
  851SOL    HW3 3171   1.361   5.121   4.897  0.8364  0.1768 -1.1725
  851SOL    MW4 3172   1.400   5.062   4.948  0.1419  0.4111 -0.3457
  852SOL     OW 3173   1.569   4.211   3.639  0.4389  0.1111 -0.2407
  852SOL    HW2 3174   1.643   4.208   3.578  1.0688  1.7913  0.3710
  852SOL    HW3 3175   1.609   4.205   3.725  0.2010  3.4694  0.2257
  852SOL    MW4 3176   1.584   4.210   3.642  0.4906  0.7759 -0.0985
  853SOL     OW 3177   3.812   4.828   5.872 -0.9698 -0.3308 -0.5579
  853SOL    HW2 3178   3.775   4.892   5.811  0.2230 -0.2855 -1.2875
  853SOL    HW3 3179   3.861   4.768   5.815  1.1471  0.3719  0.3944
  853SOL    MW4 3180   3.814   4.829   5.856 -0.5332 -0.2321 -0.5285
  854SOL     OW 3181   2.481   3.719   3.304  0.0049  0.1645 -0.3251
  854SOL    HW2 3182   2.474   3.660   3.229  0.2444 -0.9329  0.4847
  854SOL    HW3 3183   2.393   3.754   3.317 -0.7036 -1.7634  0.5247
  854SOL    MW4 3184   2.469   3.716   3.296 -0.0570 -0.2347 -0.1062
  855SOL     OW 3185   5.973   1.096   0.606  0.2696 -0.2613  0.2732
  855SOL    HW2 3186   5.980   1.043   0.685 -0.3463  0.8803  1.1296
  855SOL    HW3 3187   5.910   1.164   0.628  1.1229  0.9061 -0.7228
  855SOL    MW4 3188   5.966   1.098   0.619  0.3009  0.0434  0.2548
  856SOL     OW 3189   6.081   1.677   2.859  0.0551 -0.0470  0.0514
  856SOL    HW2 3190   6.091   1.669   2.954 -0.1359 -1.4686 -0.0272
  856SOL    HW3 3191   5.986   1.671   2.845  0.0071  1.0552 -0.1732
  856SOL    MW4 3192   6.070   1.675   2.870  0.0235 -0.0892  0.0114
  857SOL     OW 3193   6.142   6.211   1.894  0.4114  0.4313  0.5092
  857SOL    HW2 3194   6.138   6.219   1.989 -0.8190 -0.8049  0.6015
  857SOL    HW3 3195   6.076   6.273   1.862  1.8867  1.9961  0.3273
  857SOL    MW4 3196   6.132   6.220   1.903  0.4437  0.4746  0.4974
  858SOL     OW 3197   5.403   4.977   6.060 -0.2728 -0.1249  0.1084
  858SOL    HW2 3198   5.325   4.922   6.061 -1.1814  1.1234  1.4050
  858SOL    HW3 3199   5.371   5.064   6.037  0.8156  0.3110  0.1803
  858SOL    MW4 3200   5.389   4.981   6.057 -0.2491  0.0973  0.2889
  859SOL     OW 3201   5.459   2.087   5.921  0.3042 -0.2719  0.0788
  859SOL    HW2 3202   5.554   2.074   5.915  0.3487  0.4549 -1.2276
  859SOL    HW3 3203   5.440   2.155   5.856 -1.1769 -0.7633 -0.0505
  859SOL    MW4 3204   5.469   2.094   5.911  0.1147 -0.2408 -0.1106
  860SOL     OW 3205   3.357   2.358   3.756 -0.6736 -0.7887  0.0529
  860SOL    HW2 3206   3.448   2.365   3.783 -0.6747 -0.2497 -0.0764
  860SOL    HW3 3207   3.307   2.372   3.836 -0.6362 -3.4271  0.6263
  860SOL    MW4 3208   3.362   2.361   3.770 -0.6688 -1.0657  0.1115
  861SOL     OW 3209   3.124   1.036   5.319 -0.2304  0.2730 -0.2407
  861SOL    HW2 3210   3.205   1.004   5.278 -0.8198 -0.4631 -0.8682
  861SOL    HW3 3211   3.125   0.997   5.406 -0.2261 -0.2732 -0.4808
  861SOL    MW4 3212   3.135   1.026   5.325 -0.3076  0.1039 -0.3552
  862SOL     OW 3213   5.911   0.338   5.043 -0.7314 -0.0721 -0.0070
  862SOL    HW2 3214   5.977   0.324   5.111  0.9881  0.0410 -1.5789
  862SOL    HW3 3215   5.909   0.433   5.031 -1.1172 -0.0826 -0.0335
  862SOL    MW4 3216   5.919   0.348   5.051 -0.5554 -0.0585 -0.2179
  863SOL     OW 3217   1.752   6.260   4.480  0.0871  0.5579 -0.2142
  863SOL    HW2 3218   1.791   6.273   4.394  1.8696  1.5766  0.7057
  863SOL    HW3 3219   1.825   6.239   4.538 -0.7782  1.8524  1.4500
  863SOL    MW4 3220   1.767   6.259   4.476  0.2081  0.8631  0.1268
  864SOL     OW 3221   3.259   1.505   4.527 -0.4197 -0.1756 -0.5106
  864SOL    HW2 3222   3.293   1.572   4.469 -0.5177  1.9521  1.7525
  864SOL    HW3 3223   3.185   1.546   4.571 -0.8244 -1.9440  0.5747
  864SOL    MW4 3224   3.254   1.519   4.525 -0.4860 -0.1282 -0.0688
  865SOL     OW 3225   4.013   1.718   0.762  0.4719  0.5996  0.2828
  865SOL    HW2 3226   4.059   1.725   0.846  0.6533  1.7271  0.1008
  865SOL    HW3 3227   4.069   1.764   0.700  0.7647 -0.9774 -0.6607
  865SOL    MW4 3228   4.026   1.725   0.765  0.5344  0.5403  0.1343
  866SOL     OW 3229   1.909   3.551   2.651 -0.7700 -0.4828  0.0958
  866SOL    HW2 3230   1.994   3.522   2.683 -0.7183  0.0236  0.4298
  866SOL    HW3 3231   1.846   3.505   2.707 -0.7659 -1.7774 -0.9117
  866SOL    MW4 3232   1.912   3.541   2.663 -0.7626 -0.5868  0.0069
  867SOL     OW 3233   0.344   1.386   2.112  0.0388 -0.2143  0.2893
  867SOL    HW2 3234   0.412   1.342   2.163  1.2237 -0.5007 -1.4529
  867SOL    HW3 3235   0.345   1.342   2.027 -2.2315 -0.1142  0.1313
  867SOL    MW4 3236   0.353   1.374   2.107 -0.1044 -0.2389  0.0386
  868SOL     OW 3237   4.532   1.043   4.090  0.1637  0.1684 -0.3479
  868SOL    HW2 3238   4.574   1.061   4.006 -0.8092 -0.4552 -0.9934
  868SOL    HW3 3239   4.599   0.998   4.141  0.8051  0.6680 -0.7345
  868SOL    MW4 3240   4.546   1.039   4.086  0.1200  0.1521 -0.4840
  869SOL     OW 3241   1.652   1.632   1.497  0.1161 -0.0037  0.0033
  869SOL    HW2 3242   1.693   1.671   1.420 -1.8026  0.9638 -0.6103
  869SOL    HW3 3243   1.695   1.548   1.507  3.3438  1.5272  0.4130
  869SOL    MW4 3244   1.663   1.626   1.488  0.2888  0.3260 -0.0236
  870SOL     OW 3245   0.634   3.045   2.390  0.3937 -0.0763  0.1634
  870SOL    HW2 3246   0.632   2.993   2.309  0.6744  0.5670 -0.2602
  870SOL    HW3 3247   0.614   3.134   2.362 -0.0715  0.0550  0.8905
  870SOL    MW4 3248   0.631   3.050   2.376  0.3694  0.0259  0.2034
  871SOL     OW 3249   4.871   2.362   4.685  0.3372  0.1369 -0.0514
  871SOL    HW2 3250   4.859   2.365   4.590  2.1742  0.0243 -0.3191
  871SOL    HW3 3251   4.935   2.292   4.699  1.3016  1.2164  1.1178
  871SOL    MW4 3252   4.878   2.353   4.674  0.7068  0.2645  0.0676
  872SOL     OW 3253   1.795   0.862   4.072 -0.0541 -0.0190 -0.0385
  872SOL    HW2 3254   1.808   0.886   4.163  1.3726  0.4682 -0.3459
  872SOL    HW3 3255   1.883   0.847   4.038 -0.6549 -1.8043 -0.9227
  872SOL    MW4 3256   1.808   0.863   4.079  0.0549 -0.1903 -0.1957
  873SOL     OW 3257   0.829   3.959   1.485  0.2622  0.3033  0.0277
  873SOL    HW2 3258   0.844   3.929   1.575  0.1391 -0.3578 -0.1625
  873SOL    HW3 3259   0.840   3.880   1.432  0.1400  0.6505 -0.5190
  873SOL    MW4 3260   0.832   3.944   1.490  0.2299  0.2619 -0.0695
  874SOL     OW 3261   5.788   1.583   0.354  0.2924 -0.0028  0.0021
  874SOL    HW2 3262   5.875   1.570   0.393  0.3417  1.0751  0.2970
  874SOL    HW3 3263   5.744   1.499   0.365  0.6353 -0.0086  1.5698
  874SOL    MW4 3264   5.794   1.570   0.361  0.3441  0.1386  0.2478
  875SOL     OW 3265   3.625   0.583   2.724 -0.2135 -0.3715 -0.6086
  875SOL    HW2 3266   3.659   0.496   2.749 -1.9817 -1.4773 -1.8880
  875SOL    HW3 3267   3.542   0.591   2.771  0.4783  1.2038  0.4558
  875SOL    MW4 3268   3.619   0.573   2.734 -0.3555 -0.3096 -0.6370
  876SOL     OW 3269   5.263   3.878   2.587  0.0521 -0.7917  0.4213
  876SOL    HW2 3270   5.169   3.869   2.600 -0.0402 -0.2903  0.1434
  876SOL    HW3 3271   5.287   3.958   2.634  0.1519 -0.3539 -0.3567
  876SOL    MW4 3272   5.254   3.888   2.595  0.0531 -0.6678  0.2820
  877SOL     OW 3273   6.065   4.189   2.173  0.1340  0.3737 -0.0311
  877SOL    HW2 3274   6.004   4.147   2.113  0.9231 -1.0210  0.1041
  877SOL    HW3 3275   6.084   4.274   2.132 -0.1606 -0.1103 -1.2137
  877SOL    MW4 3276   6.060   4.195   2.159  0.1992  0.1259 -0.1693
  878SOL     OW 3277   3.813   2.066   3.012 -0.3594 -0.1051 -0.0522
  878SOL    HW2 3278   3.730   2.062   2.963 -0.6424 -1.3551  0.4812
  878SOL    HW3 3279   3.838   2.158   3.009 -1.7901  0.3098 -0.1917
  878SOL    MW4 3280   3.805   2.078   3.005 -0.5855 -0.2153 -0.0003
  879SOL     OW 3281   5.999   3.338   1.329  0.2641  0.3374  0.2474
  879SOL    HW2 3282   6.049   3.307   1.253  0.1390 -0.1306  0.3512
  879SOL    HW3 3283   5.920   3.378   1.291  0.3794  0.4385  0.1148
  879SOL    MW4 3284   5.995   3.339   1.314  0.2628  0.2890  0.2436
  880SOL     OW 3285   1.363   5.685   0.548 -0.0067  0.1328 -0.0133
  880SOL    HW2 3286   1.315   5.766   0.530  1.3586  0.8209 -0.7289
  880SOL    HW3 3287   1.454   5.712   0.555  0.5184 -1.3890 -0.5385
  880SOL    MW4 3288   1.369   5.699   0.547  0.2427  0.0228 -0.1770
  881SOL     OW 3289   2.747   2.348   4.514 -0.8840 -0.2986 -0.0332
  881SOL    HW2 3290   2.798   2.318   4.590  0.4420  2.3451  0.2051
  881SOL    HW3 3291   2.665   2.378   4.552  0.3425  2.4524  0.7135
  881SOL    MW4 3292   2.743   2.348   4.529 -0.5472  0.4132  0.0968
  882SOL     OW 3293   5.197   0.644   4.706 -0.2813 -0.7583  0.0522
  882SOL    HW2 3294   5.202   0.551   4.728 -0.6008 -0.9308 -0.5640
  882SOL    HW3 3295   5.268   0.685   4.756 -0.4503 -1.2534  0.7039
  882SOL    MW4 3296   5.207   0.637   4.715 -0.3458 -0.8464  0.0569
  883SOL     OW 3297   0.686   5.000   2.424  0.2202  0.2759  0.5070
  883SOL    HW2 3298   0.668   5.019   2.332  1.9509 -1.0107 -0.1524
  883SOL    HW3 3299   0.713   5.084   2.462 -1.2023  0.9692  0.0718
  883SOL    MW4 3300   0.687   5.014   2.417  0.2609  0.1976  0.3626
  884SOL     OW 3301   6.046   6.114   1.281  0.2104 -0.2241  0.1293
  884SOL    HW2 3302   5.992   6.124   1.202 -3.5137 -1.7178  2.2440
  884SOL    HW3 3303   6.111   6.048   1.258 -1.4558 -1.4004 -1.4113
  884SOL    MW4 3304   6.047   6.107   1.267 -0.5008 -0.5764  0.2050
  885SOL     OW 3305   6.159   0.512   5.924 -0.7816  0.0833  0.3576
  885SOL    HW2 3306   6.138   0.517   6.017  0.8064 -1.4623  0.8592
  885SOL    HW3 3307   6.082   0.548   5.880 -1.2770  1.5531  2.2698
  885SOL    MW4 3308   6.146   0.517   5.931 -0.6375  0.0733  0.6760
  886SOL     OW 3309   4.734   4.758   3.336  0.9736 -0.1650 -0.1926
  886SOL    HW2 3310   4.705   4.765   3.245  1.1665 -0.6431 -0.2952
  886SOL    HW3 3311   4.654   4.737   3.385  0.8663  0.1098 -0.2497
  886SOL    MW4 3312   4.720   4.756   3.330  0.9849 -0.1918 -0.2137
  887SOL     OW 3313   5.039   1.843   2.649 -0.3039  0.1530 -0.3719
  887SOL    HW2 3314   5.099   1.775   2.619 -0.0154 -0.1026  0.7688
  887SOL    HW3 3315   4.980   1.798   2.710 -1.4610  0.4712 -1.2133
  887SOL    MW4 3316   5.039   1.828   2.653 -0.4185  0.1613 -0.3324
  888SOL     OW 3317   3.716   0.304   2.752  0.3738 -0.0936  0.0843
  888SOL    HW2 3318   3.683   0.262   2.832 -1.1893  0.5248 -0.1995
  888SOL    HW3 3319   3.654   0.278   2.684  1.5691 -0.4391 -0.8990
  888SOL    MW4 3320   3.703   0.295   2.754  0.3253 -0.0576 -0.0829
  889SOL     OW 3321   4.786   2.667   3.504  0.5535 -0.2984 -0.3121
  889SOL    HW2 3322   4.768   2.760   3.501  1.1968 -0.1991 -2.1075
  889SOL    HW3 3323   4.729   2.629   3.437  0.4230 -1.1889  0.2780
  889SOL    MW4 3324   4.776   2.674   3.495  0.6212 -0.4028 -0.4711
  890SOL     OW 3325   5.746   3.619   1.626  0.3882 -0.2107 -0.3218
  890SOL    HW2 3326   5.655   3.641   1.646  0.6850 -1.0640  2.3160
  890SOL    HW3 3327   5.741   3.532   1.586  0.0301 -0.0870 -0.5511
  890SOL    MW4 3328   5.733   3.610   1.623  0.3801 -0.3070 -0.0040
  891SOL     OW 3329   5.782   4.890   3.715 -0.1676  0.1836  0.3048
  891SOL    HW2 3330   5.687   4.895   3.717 -0.3777 -1.6587 -2.0362
  891SOL    HW3 3331   5.808   4.938   3.636  0.8527  0.3600  0.7196
  891SOL    MW4 3332   5.773   4.897   3.705 -0.0607 -0.0362  0.0507
  892SOL     OW 3333   5.263   3.312   1.901  0.0786 -0.0994 -0.2125
  892SOL    HW2 3334   5.177   3.308   1.942  0.3914 -1.3693  0.3869
  892SOL    HW3 3335   5.277   3.223   1.867  0.9130  0.2422 -0.8033
  892SOL    MW4 3336   5.253   3.300   1.902  0.2300 -0.2218 -0.2114
  893SOL     OW 3337   2.448   0.656   5.608  0.2596 -0.2555  0.7265
  893SOL    HW2 3338   2.405   0.739   5.590  0.3814  0.1078  2.0000
  893SOL    HW3 3339   2.482   0.627   5.523 -2.6511 -0.6888 -0.4011
  893SOL    MW4 3340   2.447   0.663   5.594 -0.1084 -0.2647  0.7458
  894SOL     OW 3341   0.053   5.448   1.503 -0.1880  0.1761 -0.4329
  894SOL    HW2 3342   0.024   5.375   1.559 -0.9831  0.0545 -0.9919
  894SOL    HW3 3343   0.002   5.523   1.534 -1.3291 -0.0958 -1.5936
  894SOL    MW4 3344   0.043   5.448   1.515 -0.4435  0.1241 -0.6598
  895SOL     OW 3345   3.453   0.155   1.659  0.1288  0.1682  0.6143
  895SOL    HW2 3346   3.478   0.240   1.695 -0.7689 -0.0134  1.7117
  895SOL    HW3 3347   3.363   0.143   1.686 -0.0363 -0.7603 -0.2820
  895SOL    MW4 3348   3.445   0.165   1.667 -0.0114  0.0218  0.6409
  896SOL     OW 3349   5.667   1.487   0.651  0.0490 -0.0545  0.7649
  896SOL    HW2 3350   5.580   1.521   0.629 -0.2019 -2.5285 -2.9034
  896SOL    HW3 3351   5.719   1.565   0.668 -1.8956  1.8012 -1.1598
  896SOL    MW4 3352   5.662   1.502   0.650 -0.2407 -0.1361  0.0270
  897SOL     OW 3353   5.023   3.127   4.824  0.1228 -0.0058  0.3316
  897SOL    HW2 3354   4.978   3.207   4.852  0.4603  0.5921 -0.7580
  897SOL    HW3 3355   5.051   3.085   4.906  0.2506  1.1773  0.9158
  897SOL    MW4 3356   5.021   3.132   4.839  0.1842  0.2292  0.2649
  898SOL     OW 3357   0.048   1.631   1.070 -0.0117 -0.5669 -0.1767
  898SOL    HW2 3358   0.037   1.685   0.992  0.2435 -0.9962 -0.5146
  898SOL    HW3 3359   0.039   1.693   1.143 -1.0308 -0.2926 -0.5160
  898SOL    MW4 3360   0.046   1.647   1.069 -0.1125 -0.5873 -0.2661
  899SOL     OW 3361   5.048   5.185   3.103 -0.0184  0.1099  0.1182
  899SOL    HW2 3362   4.968   5.161   3.058  0.3884  0.0449 -0.5784
  899SOL    HW3 3363   5.104   5.224   3.036  0.7645 -0.3812  0.4650
  899SOL    MW4 3364   5.045   5.187   3.088  0.1386  0.0366  0.0721
  900SOL     OW 3365   3.526   1.064   3.578 -0.2013 -0.5603 -0.6792
  900SOL    HW2 3366   3.484   1.147   3.554  1.1268  0.2432 -0.3366
  900SOL    HW3 3367   3.618   1.076   3.555  0.5043 -0.9912  1.6271
  900SOL    MW4 3368   3.532   1.077   3.572  0.0670 -0.5111 -0.3297
  901SOL     OW 3369   3.125   5.611   1.102  0.3008 -0.3090  0.4632
  901SOL    HW2 3370   3.121   5.611   1.006  1.5321  0.0533  0.3859
  901SOL    HW3 3371   3.181   5.686   1.123 -1.0524  0.4319  1.5392
  901SOL    MW4 3372   3.132   5.621   1.092  0.2848 -0.1635  0.5949
  902SOL     OW 3373   5.515   0.615   1.232 -0.3463 -0.0800  0.0019
  902SOL    HW2 3374   5.487   0.529   1.201 -1.2243  0.3149 -0.3352
  902SOL    HW3 3375   5.581   0.596   1.299 -0.3646 -1.0069 -0.2331
  902SOL    MW4 3376   5.520   0.601   1.237 -0.4645 -0.1502 -0.0736
  903SOL     OW 3377   4.646   5.229   6.014  0.0745  0.1387 -0.0312
  903SOL    HW2 3378   4.712   5.239   6.082 -0.5323 -0.0854  0.5977
  903SOL    HW3 3379   4.568   5.200   6.060 -0.3428 -0.0310 -0.8269
  903SOL    MW4 3380   4.645   5.227   6.029 -0.0606  0.0868 -0.0532
  904SOL     OW 3381   4.259   0.938   1.596  0.4121 -0.4010 -0.1979
  904SOL    HW2 3382   4.337   0.973   1.552  0.3849 -0.0387  0.0369
  904SOL    HW3 3383   4.225   0.873   1.535 -1.1511  1.9184 -1.9973
  904SOL    MW4 3384   4.265   0.934   1.582  0.2022 -0.0471 -0.4043
  905SOL     OW 3385   5.789   0.219   2.123  0.1038 -0.1923  0.2049
  905SOL    HW2 3386   5.760   0.129   2.139  0.1683 -0.0073  1.4770
  905SOL    HW3 3387   5.805   0.223   2.029 -2.4798 -0.7666 -0.3550
  905SOL    MW4 3388   5.787   0.208   2.112 -0.2286 -0.2436  0.2988
  906SOL     OW 3389   6.038   2.082   6.390 -0.2177  0.3729  0.9009
  906SOL    HW2 3390   5.965   2.137   6.419  0.3619  0.8760  1.4572
  906SOL    HW3 3391   6.115   2.118   6.436  0.4546  0.1352 -0.0065
  906SOL    MW4 3392   6.039   2.094   6.400 -0.0525  0.4079  0.8546
  907SOL     OW 3393   2.351   6.132   0.973  0.0485 -0.3167  0.1258
  907SOL    HW2 3394   2.268   6.171   1.001  0.2903  1.6518 -1.6331
  907SOL    HW3 3395   2.373   6.179   0.892  2.0677 -1.9265 -0.3336
  907SOL    MW4 3396   2.343   6.143   0.966  0.3468 -0.2694 -0.1669
  908SOL     OW 3397   0.020   3.311   2.665  0.1989 -0.6226  0.1827
  908SOL    HW2 3398  -0.010   3.255   2.736 -1.6719  0.0502 -0.0049
  908SOL    HW3 3399  -0.005   3.265   2.586  1.5254 -0.9798 -0.0456
  908SOL    MW4 3400   0.013   3.298   2.664  0.1271 -0.5809  0.1278
  909SOL     OW 3401   0.974   6.423   4.383 -0.2351  0.7340  0.2301
  909SOL    HW2 3402   0.984   6.359   4.312 -1.4833 -1.2883  1.7756
  909SOL    HW3 3403   1.058   6.469   4.385  1.3644 -1.9482  0.0430
  909SOL    MW4 3404   0.987   6.421   4.374 -0.1888  0.1133  0.4093
  910SOL     OW 3405   3.603   4.148   4.527 -0.3122 -0.1577 -0.1308
  910SOL    HW2 3406   3.600   4.227   4.580 -2.8685  0.5934 -1.2690
  910SOL    HW3 3407   3.627   4.079   4.589 -1.0041  1.0355  1.5335
  910SOL    MW4 3408   3.606   4.149   4.542 -0.7407  0.0988 -0.0614
  911SOL     OW 3409   0.573   1.529   2.308 -0.1440  0.0856 -0.1819
  911SOL    HW2 3410   0.512   1.539   2.381  0.3756 -1.3061  0.4791
  911SOL    HW3 3411   0.549   1.599   2.247 -1.1876  0.7043  0.8940
  911SOL    MW4 3412   0.562   1.539   2.309 -0.2131 -0.0164  0.0472
  912SOL     OW 3413   1.946   5.542   4.206  0.5119  0.0795  0.3921
  912SOL    HW2 3414   1.868   5.524   4.154 -0.3402  1.6450  1.0396
  912SOL    HW3 3415   1.978   5.456   4.233 -0.9557 -0.5944  0.0565
  912SOL    MW4 3416   1.940   5.528   4.203  0.2058  0.1971  0.4333
  913SOL     OW 3417   4.034   0.601   3.013 -0.1300  0.2257  0.1563
  913SOL    HW2 3418   4.011   0.584   2.921  0.9352  1.0617 -0.2895
  913SOL    HW3 3419   4.096   0.673   3.009 -0.2962  0.4766  1.5759
  913SOL    MW4 3420   4.039   0.608   3.000 -0.0114  0.3691  0.2848
  914SOL     OW 3421   5.052   3.894   2.961 -0.0411 -0.2662  0.5575
  914SOL    HW2 3422   5.101   3.850   2.891 -0.7683 -1.6352  0.8822
  914SOL    HW3 3423   5.069   3.987   2.947  2.2805 -0.6601  0.3992
  914SOL    MW4 3424   5.061   3.900   2.950  0.1693 -0.4988  0.5795
  915SOL     OW 3425   5.956   5.468   2.470 -0.2877 -0.1166  0.0136
  915SOL    HW2 3426   5.889   5.478   2.537 -0.1131  2.7167 -0.1231
  915SOL    HW3 3427   6.032   5.515   2.504  0.7186 -0.9107 -1.0261
  915SOL    MW4 3428   5.957   5.476   2.483 -0.1319  0.1524 -0.1416
  916SOL     OW 3429   1.483   6.133   4.763  0.1663  0.5348 -0.4777
  916SOL    HW2 3430   1.469   6.215   4.714 -0.2244  0.8095  0.0754
  916SOL    HW3 3431   1.427   6.069   4.719  0.7140  0.4844 -1.1084
  916SOL    MW4 3432   1.474   6.136   4.751  0.1870  0.5644 -0.4879
  917SOL     OW 3433   1.742   1.336   1.070  0.1044 -0.2437 -0.1583
  917SOL    HW2 3434   1.729   1.297   0.984  1.2179  0.4341 -0.6525
  917SOL    HW3 3435   1.718   1.428   1.059 -0.2167 -0.2569  0.3888
  917SOL    MW4 3436   1.737   1.343   1.057  0.2090 -0.1560 -0.1513
  918SOL     OW 3437   5.509   3.837   4.087  0.6312 -0.6515 -0.4978
  918SOL    HW2 3438   5.531   3.753   4.046 -0.1250 -1.4582  0.6974
  918SOL    HW3 3439   5.446   3.877   4.027  0.5497 -1.2075 -0.7947
  918SOL    MW4 3440   5.504   3.831   4.074  0.5207 -0.8313 -0.3793
  919SOL     OW 3441   2.177   3.397   5.367  0.2321  0.0132  0.0525
  919SOL    HW2 3442   2.110   3.464   5.350 -0.5623 -0.8338 -0.2663
  919SOL    HW3 3443   2.142   3.317   5.326  1.8672 -0.2483 -0.9170
  919SOL    MW4 3444   2.163   3.395   5.359  0.3430 -0.1331 -0.1175
  920SOL     OW 3445   3.916   5.632   1.481 -0.6132  0.4792  0.2918
  920SOL    HW2 3446   3.933   5.624   1.575  1.2663 -1.1505 -0.1291
  920SOL    HW3 3447   3.832   5.587   1.469  0.2939 -1.5213  0.9035
  920SOL    MW4 3448   3.907   5.625   1.492 -0.2455  0.0002  0.3170
  921SOL     OW 3449   1.189   3.946   5.396  0.7042  0.3880  0.5349
  921SOL    HW2 3450   1.283   3.934   5.410  0.8569  1.0274  0.1073
  921SOL    HW3 3451   1.171   4.035   5.428 -0.0267 -0.2207  1.8883
  921SOL    MW4 3452   1.199   3.956   5.402  0.6279  0.3920  0.6571
  922SOL     OW 3453   0.674   3.040   4.606 -0.0118  0.0082  0.2128
  922SOL    HW2 3454   0.673   3.072   4.516  1.0784 -1.5838 -0.4190
  922SOL    HW3 3455   0.763   3.056   4.637 -0.7339  1.7802  1.5292
  922SOL    MW4 3456   0.685   3.046   4.598  0.0367  0.0319  0.3031
  923SOL     OW 3457   1.081   4.175   0.747 -0.3562  0.4216 -0.4741
  923SOL    HW2 3458   1.141   4.130   0.687 -0.2510 -0.6499  0.3994
  923SOL    HW3 3459   1.122   4.166   0.833 -2.1176 -1.0096  0.2669
  923SOL    MW4 3460   1.095   4.168   0.750 -0.5747  0.0914 -0.2611
  924SOL     OW 3461   4.661   3.723   4.599  0.2581 -0.3596 -0.5497
  924SOL    HW2 3462   4.629   3.809   4.628  3.8690  1.0389 -0.1231
  924SOL    HW3 3463   4.690   3.680   4.680 -0.6239 -1.6393 -0.8819
  924SOL    MW4 3464   4.661   3.729   4.614  0.6182 -0.3439 -0.5373
  925SOL     OW 3465   4.522   4.636   3.005 -0.1338  0.1020  0.2369
  925SOL    HW2 3466   4.548   4.626   2.914  0.0146 -0.8016  0.3757
  925SOL    HW3 3467   4.594   4.685   3.045 -0.2143  0.5272 -0.1290
  925SOL    MW4 3468   4.535   4.641   2.999 -0.1248  0.0389  0.2069
  926SOL     OW 3469   3.769   4.583   6.072 -0.4294  0.0442 -0.0697
  926SOL    HW2 3470   3.819   4.507   6.042  0.7162 -0.1245  2.0126
  926SOL    HW3 3471   3.721   4.551   6.149 -0.5659  1.2130  0.3549
  926SOL    MW4 3472   3.769   4.569   6.078 -0.2963  0.1761  0.2610
  927SOL     OW 3473   3.338   1.337   2.734  0.3229 -0.7196 -0.0416
  927SOL    HW2 3474   3.315   1.422   2.772  2.8510 -0.1669  0.4152
  927SOL    HW3 3475   3.255   1.289   2.731 -0.9561  1.3068  0.8233
  927SOL    MW4 3476   3.324   1.341   2.739  0.4877 -0.3793  0.1328
  928SOL     OW 3477   0.988   0.862   0.612  0.1437  0.1581 -0.0116
  928SOL    HW2 3478   0.939   0.873   0.531 -1.2830 -3.0488  0.2696
  928SOL    HW3 3479   0.923   0.832   0.676  1.8947 -1.1475  1.2591
  928SOL    MW4 3480   0.973   0.859   0.610  0.1865 -0.4373  0.1932
  929SOL     OW 3481   1.752   1.348   1.503  0.3089  0.0689 -0.0860
  929SOL    HW2 3482   1.714   1.333   1.589  0.4091  0.4201  0.0247
  929SOL    HW3 3483   1.693   1.306   1.441  0.5283 -0.6611  0.1965
  929SOL    MW4 3484   1.739   1.341   1.506  0.3511  0.0190 -0.0341
  930SOL     OW 3485   4.087   2.085   1.982  0.4988  0.0202  0.2987
  930SOL    HW2 3486   4.038   2.112   2.059 -0.5317 -0.1521 -0.2751
  930SOL    HW3 3487   4.089   2.163   1.926  0.7838 -0.0029  0.2757
  930SOL    MW4 3488   4.081   2.099   1.985  0.4004 -0.0056  0.2199
  931SOL     OW 3489   4.708   3.835   3.932  0.3775  0.2093 -0.9571
  931SOL    HW2 3490   4.737   3.748   3.905  1.5666  0.4937 -0.6397
  931SOL    HW3 3491   4.779   3.869   3.987 -1.3465  0.1821  1.4860
  931SOL    MW4 3492   4.721   3.828   3.936  0.3069  0.2433 -0.5929
  932SOL     OW 3493   4.349   4.150   4.143  0.0345  0.2007 -0.0669
  932SOL    HW2 3494   4.330   4.184   4.055 -0.9665 -0.0394  0.0499
  932SOL    HW3 3495   4.267   4.160   4.191  0.4461 -0.0936  0.7121
  932SOL    MW4 3496   4.336   4.156   4.137 -0.0433  0.1302  0.0513
  933SOL     OW 3497   6.096   0.544   3.716 -0.7435  0.0537 -0.3666
  933SOL    HW2 3498   6.135   0.576   3.797 -3.7803  0.6248  1.0234
  933SOL    HW3 3499   6.075   0.452   3.735  0.6573 -0.5198 -1.4264
  933SOL    MW4 3500   6.098   0.536   3.730 -0.9593  0.0534 -0.3231
  934SOL     OW 3501   6.032   3.795   6.385 -0.1040  0.6546  0.8358
  934SOL    HW2 3502   6.073   3.875   6.417 -0.0199  0.4391  1.2628
  934SOL    HW3 3503   6.096   3.758   6.324 -1.4002  2.5476 -1.8700
  934SOL    MW4 3504   6.046   3.801   6.381 -0.2639  0.8759  0.5352
  935SOL     OW 3505   4.482   5.799   0.590 -0.3125 -0.1561 -0.4730
  935SOL    HW2 3506   4.415   5.794   0.521 -0.1613 -2.7515 -0.5130
  935SOL    HW3 3507   4.438   5.843   0.663 -1.6509 -0.6366 -0.9631
  935SOL    MW4 3508   4.467   5.804   0.590 -0.4691 -0.5619 -0.5429
  936SOL     OW 3509   6.050   6.146   5.393 -0.3340  0.2724 -0.1185
  936SOL    HW2 3510   6.111   6.212   5.360 -0.2284  1.9570  3.0908
  936SOL    HW3 3511   5.964   6.184   5.379 -0.3164  0.7069  0.8792
  936SOL    MW4 3512   6.047   6.160   5.387 -0.3178  0.5520  0.4365
  937SOL     OW 3513   0.564   4.957   5.248 -0.5146  0.0721 -0.1483
  937SOL    HW2 3514   0.652   4.994   5.256  0.0846 -0.7889 -2.0754
  937SOL    HW3 3515   0.506   5.032   5.252  0.5208  1.0228 -1.8097
  937SOL    MW4 3516   0.568   4.971   5.250 -0.2989  0.0839 -0.6218
  938SOL     OW 3517   5.428   3.004   4.196  0.2972 -0.3194  0.1864
  938SOL    HW2 3518   5.343   3.046   4.198 -0.2181 -1.3499  1.2007
  938SOL    HW3 3519   5.418   2.925   4.250  1.7134 -0.7935 -0.1758
  938SOL    MW4 3520   5.416   2.999   4.204  0.4160 -0.5179  0.2725
  939SOL     OW 3521   5.175   2.755   3.626 -0.3604  0.6151  0.2310
  939SOL    HW2 3522   5.178   2.745   3.721 -1.0577  2.8632  0.5421
  939SOL    HW3 3523   5.219   2.677   3.592 -1.9601 -1.3386  2.3112
  939SOL    MW4 3524   5.181   2.744   3.634 -0.6635  0.6539  0.5465
  940SOL     OW 3525   5.219   3.925   2.291 -0.5721 -0.2494 -0.1089
  940SOL    HW2 3526   5.250   3.918   2.382 -0.7547  1.2462  0.0851
  940SOL    HW3 3527   5.182   3.839   2.273 -1.2762 -0.3351  1.5222
  940SOL    MW4 3528   5.218   3.913   2.301 -0.6891 -0.0634  0.1319
  941SOL     OW 3529   2.489   4.143   2.633  0.0311  0.4112  0.0046
  941SOL    HW2 3530   2.540   4.159   2.553 -2.3294  0.3340 -1.6241
  941SOL    HW3 3531   2.463   4.230   2.663 -0.1192  0.3751 -0.0223
  941SOL    MW4 3532   2.493   4.157   2.626 -0.3002  0.3963 -0.2138
  942SOL     OW 3533   3.789   0.226   2.363  0.0099 -0.5665 -0.1917
  942SOL    HW2 3534   3.834   0.310   2.370  0.1221 -0.6903  0.6736
  942SOL    HW3 3535   3.734   0.235   2.285  0.0267  0.3065 -0.1135
  942SOL    MW4 3536   3.788   0.238   2.353  0.0269 -0.4677 -0.0672
  943SOL     OW 3537   5.009   3.556   2.520 -0.5087  0.4934  0.1069
  943SOL    HW2 3538   4.961   3.638   2.531  0.2227  0.9218  0.2119
  943SOL    HW3 3539   4.967   3.512   2.446 -2.1608  0.0309  1.2701
  943SOL    MW4 3540   4.997   3.561   2.511 -0.6302  0.4889  0.2742
  944SOL     OW 3541   1.201   6.406   4.948 -0.1243 -0.4634  0.4928
  944SOL    HW2 3542   1.199   6.324   4.996  0.1947  0.8915  2.9819
  944SOL    HW3 3543   1.110   6.425   4.926 -0.5703 -0.1508  2.4288
  944SOL    MW4 3544   1.189   6.398   4.951 -0.1411 -0.2434  1.0767
  945SOL     OW 3545   0.182   6.131   1.798  0.5111  0.7512  0.0123
  945SOL    HW2 3546   0.134   6.094   1.872 -2.5446  1.5777 -1.3722
  945SOL    HW3 3547   0.190   6.225   1.819  1.3935  0.6579  0.1295
  945SOL    MW4 3548   0.177   6.139   1.811  0.2244  0.8480 -0.1549
  946SOL     OW 3549   0.086   3.141   3.158 -0.6643  0.0929  0.0809
  946SOL    HW2 3550   0.169   3.094   3.164 -1.6825 -1.7212  0.8648
  946SOL    HW3 3551   0.091   3.208   3.227 -0.8167 -1.7145  1.9506
  946SOL    MW4 3552   0.098   3.144   3.168 -0.8187 -0.3849  0.4310
  947SOL     OW 3553   4.470   3.514   0.718  0.1470  0.0538 -0.7195
  947SOL    HW2 3554   4.510   3.429   0.702 -0.1180  0.1206 -1.7737
  947SOL    HW3 3555   4.380   3.505   0.685 -0.4922  0.1481  0.8924
  947SOL    MW4 3556   4.463   3.502   0.712  0.0277  0.0750 -0.6459
  948SOL     OW 3557   4.462   3.474   3.219 -0.0344 -0.0169 -1.1133
  948SOL    HW2 3558   4.417   3.516   3.145  1.6937  0.7596 -1.7755
  948SOL    HW3 3559   4.546   3.445   3.183  0.4639 -0.4472  0.3245
  948SOL    MW4 3560   4.467   3.476   3.204  0.2594  0.0288 -1.0110
  949SOL     OW 3561   5.142   3.604   2.881 -0.1574 -0.0446  0.2469
  949SOL    HW2 3562   5.054   3.571   2.862 -0.6432 -0.1223  2.4173
  949SOL    HW3 3563   5.200   3.551   2.826 -1.4754  0.6101 -1.8970
  949SOL    MW4 3564   5.138   3.593   2.871 -0.3954  0.0315  0.2504
  950SOL     OW 3565   0.644   3.223   1.992  0.3457  0.7321 -0.2491
  950SOL    HW2 3566   0.614   3.232   1.901 -1.1994  0.7226  0.2194
  950SOL    HW3 3567   0.580   3.164   2.032  0.0355  2.0130  1.2391
  950SOL    MW4 3568   0.631   3.216   1.985  0.1009  0.8998  0.0090
  951SOL     OW 3569   4.934   3.868   4.155 -0.2008  0.3051  0.6577
  951SOL    HW2 3570   4.864   3.881   4.220 -0.2388 -0.0688  0.6924
  951SOL    HW3 3571   5.003   3.822   4.203 -0.4067 -0.3640  0.3207
  951SOL    MW4 3572   4.934   3.864   4.170 -0.2330  0.1675  0.6179
  952SOL     OW 3573   1.665   0.790   5.859  0.9614 -0.3072 -0.6377
  952SOL    HW2 3574   1.615   0.812   5.780  1.0999 -0.8485 -0.8773
  952SOL    HW3 3575   1.746   0.751   5.827 -0.0880 -3.0209 -0.2435
  952SOL    MW4 3576   1.669   0.788   5.845  0.8413 -0.7367 -0.6173
  953SOL     OW 3577   4.797   6.421   5.633 -0.1030  0.0248 -0.1883
  953SOL    HW2 3578   4.846   6.503   5.642 -0.3970  0.3906 -1.8019
  953SOL    HW3 3579   4.861   6.354   5.659 -0.1404  0.7686  2.0709
  953SOL    MW4 3580   4.812   6.423   5.638 -0.1467  0.1712 -0.1031
  954SOL     OW 3581   5.933   0.858   2.752  0.5246 -0.2477  0.0532
  954SOL    HW2 3582   5.895   0.930   2.702  2.4908  1.3649  0.7397
  954SOL    HW3 3583   5.865   0.835   2.816 -0.0859  1.1160 -0.0679
  954SOL    MW4 3584   5.919   0.864   2.754  0.7035  0.1450  0.1278
  955SOL     OW 3585   2.325   3.534   6.040 -0.3513  0.5693  0.8914
  955SOL    HW2 3586   2.401   3.590   6.025  0.0590 -0.4487 -1.2158
  955SOL    HW3 3587   2.350   3.481   6.116  0.6514  0.9003  0.8113
  955SOL    MW4 3588   2.338   3.534   6.048 -0.1649  0.4787  0.6028
  956SOL     OW 3589   0.309   0.524   4.374  0.4331  0.3684  0.1603
  956SOL    HW2 3590   0.220   0.533   4.409  0.9539  2.2083  1.1486
  956SOL    HW3 3591   0.303   0.449   4.314 -2.5115  2.1205 -2.0445
  956SOL    MW4 3592   0.296   0.515   4.370  0.1133  0.8423 -0.0002
  957SOL     OW 3593   3.385   2.211   2.324  0.0293  0.0173 -0.0185
  957SOL    HW2 3594   3.435   2.187   2.401 -0.6360 -1.1240  0.0677
  957SOL    HW3 3595   3.299   2.172   2.337 -1.0021  2.1026 -0.0627
  957SOL    MW4 3596   3.380   2.203   2.336 -0.1946  0.1418 -0.0129
  958SOL     OW 3597   2.445   1.900   0.720 -0.4735 -0.5002  0.3589
  958SOL    HW2 3598   2.524   1.943   0.752 -1.2431 -0.1146  1.8190
  958SOL    HW3 3599   2.458   1.892   0.626  1.0718  0.0244  0.5128
  958SOL    MW4 3600   2.457   1.904   0.712 -0.3712 -0.3801  0.5718
  959SOL     OW 3601   2.320   4.554   1.285  0.1345  0.1734  0.2310
  959SOL    HW2 3602   2.415   4.565   1.290  0.0247  1.4143 -0.0766
  959SOL    HW3 3603   2.289   4.577   1.372  0.1446 -0.6719  0.4641
  959SOL    MW4 3604   2.329   4.559   1.297  0.1214  0.2256  0.2212
  960SOL     OW 3605   3.935   3.511   4.298 -0.1072  0.4925  0.7057
  960SOL    HW2 3606   3.954   3.603   4.320 -1.0545  0.4582  1.7612
  960SOL    HW3 3607   3.906   3.514   4.207 -0.6229  1.3324  0.8834
  960SOL    MW4 3608   3.933   3.524   4.289 -0.3002  0.5988  0.8684
  961SOL     OW 3609   3.827   0.187   3.661 -0.1371 -0.1444  0.2720
  961SOL    HW2 3610   3.801   0.244   3.588  0.9938 -0.9864 -0.8426
  961SOL    HW3 3611   3.856   0.248   3.729  0.3226  0.6496 -0.5993
  961SOL    MW4 3612   3.827   0.203   3.660  0.0728 -0.1507  0.0100
  962SOL     OW 3613   4.559   4.208   0.691  0.6133  0.1259  0.5069
  962SOL    HW2 3614   4.593   4.297   0.700  0.9526 -0.0331  0.8538
  962SOL    HW3 3615   4.601   4.173   0.613 -0.1011  0.5251 -0.0623
  962SOL    MW4 3616   4.569   4.215   0.682  0.5638  0.1576  0.4776
  963SOL     OW 3617   1.527   1.703   6.429 -0.0551 -0.2081  0.0661
  963SOL    HW2 3618   1.459   1.638   6.449 -1.0149  0.4606 -0.9099
  963SOL    HW3 3619   1.580   1.662   6.360 -0.4415 -0.1009 -0.2969
  963SOL    MW4 3620   1.525   1.689   6.423 -0.2327 -0.1057 -0.1105
  964SOL     OW 3621   0.394   1.079   5.951 -0.0910 -0.4762  0.2979
  964SOL    HW2 3622   0.488   1.060   5.956  0.3350  1.5768  1.2883
  964SOL    HW3 3623   0.356   1.028   6.023  0.4114 -0.6237  0.4657
  964SOL    MW4 3624   0.401   1.070   5.961  0.0315 -0.2248  0.4507
  965SOL     OW 3625   0.228   1.353   1.675 -0.0069 -0.3210  0.0826
  965SOL    HW2 3626   0.224   1.310   1.589  2.3201  1.6329 -1.1216
  965SOL    HW3 3627   0.241   1.446   1.655 -0.5785  0.3651  2.5725
  965SOL    MW4 3628   0.229   1.359   1.661  0.2247  0.0273  0.2522
  966SOL     OW 3629   3.611   1.947   0.323  0.4366  0.3322  0.2425
  966SOL    HW2 3630   3.559   2.004   0.380  1.8072 -0.4221  2.3798
  966SOL    HW3 3631   3.553   1.927   0.250 -1.0386  2.2398  0.7930
  966SOL    MW4 3632   3.597   1.952   0.321  0.4228  0.4843  0.5971
  967SOL     OW 3633   1.764   2.741   6.250 -0.7825 -0.1328  0.4629
  967SOL    HW2 3634   1.748   2.647   6.249  0.4982 -0.3707 -1.6175
  967SOL    HW3 3635   1.691   2.779   6.200 -0.5152 -0.1598  0.0544
  967SOL    MW4 3636   1.752   2.734   6.244 -0.5783 -0.1677  0.1345
  968SOL     OW 3637   1.325   2.072   2.075 -0.0938 -0.8327 -0.3471
  968SOL    HW2 3638   1.319   1.990   2.026 -0.4939 -3.2142  3.2804
  968SOL    HW3 3639   1.419   2.084   2.089 -0.1129 -2.1844  1.2430
  968SOL    MW4 3640   1.336   2.063   2.070 -0.1491 -1.3253  0.3413
  969SOL     OW 3641   0.911   0.676   2.190  0.2775 -0.3386 -0.1294
  969SOL    HW2 3642   0.821   0.647   2.173 -0.3957  1.6836 -0.2789
  969SOL    HW3 3643   0.903   0.770   2.206  2.3651 -0.1408 -0.0019
  969SOL    MW4 3644   0.898   0.684   2.190  0.4641 -0.0457 -0.1323
  970SOL     OW 3645   0.893   1.165   6.124  0.5084  0.6582 -0.0562
  970SOL    HW2 3646   0.948   1.089   6.142  0.5698  0.1900 -2.0488
  970SOL    HW3 3647   0.934   1.236   6.175 -0.6392 -0.9210  3.4132
  970SOL    MW4 3648   0.906   1.164   6.133  0.3651  0.3881  0.1387
  971SOL     OW 3649   6.356   6.342   4.635  0.6038  0.2254  0.3252
  971SOL    HW2 3650   6.369   6.346   4.730  1.2754 -0.4875  0.2693
  971SOL    HW3 3651   6.444   6.341   4.599  0.3527  0.0867 -0.2945
  971SOL    MW4 3652   6.369   6.342   4.643  0.6593  0.1131  0.2361
  972SOL     OW 3653   1.672   5.064   2.182 -0.0873 -0.3534  0.2687
  972SOL    HW2 3654   1.607   5.064   2.252 -0.1081 -0.3537  0.2495
  972SOL    HW3 3655   1.623   5.037   2.104 -0.0340 -0.4926  0.2828
  972SOL    MW4 3656   1.657   5.061   2.181 -0.0830 -0.3718  0.2680
  973SOL     OW 3657   4.416   6.359   5.774 -0.3814  0.3156 -0.0877
  973SOL    HW2 3658   4.478   6.373   5.703  0.0059 -3.5922 -0.7088
  973SOL    HW3 3659   4.471   6.347   5.851 -0.7356  2.6007  0.6075
  973SOL    MW4 3660   4.431   6.360   5.775 -0.3770  0.1015 -0.0779
  974SOL     OW 3661   2.779   2.693   3.949 -0.1380 -0.3398 -0.9267
  974SOL    HW2 3662   2.836   2.631   3.994 -1.8209  0.4477  2.5994
  974SOL    HW3 3663   2.690   2.662   3.970 -1.0787  0.2597 -3.6115
  974SOL    MW4 3664   2.774   2.680   3.958 -0.4841 -0.1568 -0.8157
  975SOL     OW 3665   1.243   5.341   1.439  0.0324  0.2324 -0.2132
  975SOL    HW2 3666   1.174   5.404   1.463 -0.2700  0.4949 -1.7043
  975SOL    HW3 3667   1.244   5.278   1.511 -0.0138  1.6392  1.0708
  975SOL    MW4 3668   1.234   5.341   1.452 -0.0136  0.4526 -0.2405
  976SOL     OW 3669   2.713   3.466   4.471  0.3021 -0.8106  0.3374
  976SOL    HW2 3670   2.653   3.394   4.451  0.8442 -0.9861 -0.7424
  976SOL    HW3 3671   2.721   3.514   4.389  0.5738  0.0182  0.8369
  976SOL    MW4 3672   2.707   3.463   4.457  0.4095 -0.7244  0.2608
  977SOL     OW 3673   1.209   6.392   2.431 -0.5007  0.5223  0.2252
  977SOL    HW2 3674   1.179   6.481   2.412 -0.4761  0.3722 -0.5400
  977SOL    HW3 3675   1.235   6.395   2.523  0.5890  1.6047 -0.0907
  977SOL    MW4 3676   1.208   6.404   2.441 -0.3536  0.6453  0.0826
  978SOL     OW 3677   3.417   2.394   0.537 -0.5827  0.1733  0.3593
  978SOL    HW2 3678   3.323   2.398   0.516 -0.2828  0.5628 -1.0201
  978SOL    HW3 3679   3.454   2.471   0.494  0.3489  0.1135  1.0414
  978SOL    MW4 3680   3.409   2.404   0.528 -0.4202  0.2168  0.2673
  979SOL     OW 3681   6.093   2.717   5.810  0.2406  0.0874 -0.3015
  979SOL    HW2 3682   6.077   2.623   5.815 -1.2243  0.3158 -0.4542
  979SOL    HW3 3683   6.161   2.726   5.743 -0.5480 -0.7666 -1.2493
  979SOL    MW4 3684   6.100   2.706   5.802 -0.0567  0.0049 -0.4467
  980SOL     OW 3685   2.071   5.543   0.403 -0.3353 -0.4541 -0.0454
  980SOL    HW2 3686   2.126   5.564   0.327 -0.1750 -1.1366 -0.1276
  980SOL    HW3 3687   2.022   5.465   0.376 -0.4581 -0.5576  0.4622
  980SOL    MW4 3688   2.072   5.535   0.389 -0.3304 -0.5578  0.0107
  981SOL     OW 3689   0.130   0.206   6.180 -0.1791 -0.3176 -0.1643
  981SOL    HW2 3690   0.087   0.133   6.136 -0.2165 -0.2635 -0.2181
  981SOL    HW3 3691   0.097   0.284   6.135  0.6236 -0.3185 -0.7799
  981SOL    MW4 3692   0.120   0.206   6.168 -0.0781 -0.3106 -0.2526
  982SOL     OW 3693   2.968   0.303   3.231  0.0171  0.7053 -0.0493
  982SOL    HW2 3694   3.033   0.263   3.173  1.4902  0.3342  1.7646
  982SOL    HW3 3695   2.917   0.230   3.264 -0.8669  0.9231 -0.8877
  982SOL    MW4 3696   2.970   0.288   3.228  0.0948  0.6850  0.0794
  983SOL     OW 3697   3.023   4.902   0.144 -0.0990 -0.1406  0.2412
  983SOL    HW2 3698   3.111   4.865   0.152 -0.1356 -0.6029 -1.2364
  983SOL    HW3 3699   2.988   4.899   0.233  1.8120  1.2252  1.1071
  983SOL    MW4 3700   3.030   4.897   0.157  0.1483 -0.0214  0.1605
  984SOL     OW 3701   2.996   3.268   2.346  0.0502  0.4007  0.3393
  984SOL    HW2 3702   2.958   3.226   2.269  0.0003  1.0186  0.0180
  984SOL    HW3 3703   3.037   3.347   2.311 -0.7709  1.1676  1.0706
  984SOL    MW4 3704   2.997   3.273   2.331 -0.0647  0.5834  0.3934
  985SOL     OW 3705   1.671   5.596   1.362  0.0331  0.0098  0.0045
  985SOL    HW2 3706   1.707   5.507   1.369  1.7015  0.7303  1.5183
  985SOL    HW3 3707   1.666   5.612   1.268 -2.1004 -2.3114 -0.3945
  985SOL    MW4 3708   1.675   5.586   1.351 -0.0282 -0.2014  0.1516
  986SOL     OW 3709   3.627   3.478   4.866  0.2114 -0.1938 -0.2889
  986SOL    HW2 3710   3.714   3.456   4.900  0.3687  1.0105  0.1637
  986SOL    HW3 3711   3.637   3.474   4.771 -0.0419 -2.9197 -0.2662
  986SOL    MW4 3712   3.640   3.475   4.858  0.1987 -0.3946 -0.2262
  987SOL     OW 3713   3.211   5.725   1.470 -0.6407 -0.0590 -0.5535
  987SOL    HW2 3714   3.138   5.713   1.410  0.4339  0.2031 -1.9513
  987SOL    HW3 3715   3.226   5.820   1.471  0.7300 -0.2467 -1.5871
  987SOL    MW4 3716   3.203   5.736   1.462 -0.3181 -0.0492 -0.8743
  988SOL     OW 3717   6.067   4.649   5.923  0.4478  0.1372  0.3944
  988SOL    HW2 3718   6.097   4.647   5.833  0.4398 -0.8850  0.4022
  988SOL    HW3 3719   6.046   4.558   5.943 -0.6907  0.5249  1.0434
  988SOL    MW4 3720   6.068   4.636   5.914  0.2966  0.0535  0.4811
  989SOL     OW 3721   0.356   2.771   4.970 -0.4424  0.1817  0.1636
  989SOL    HW2 3722   0.432   2.752   5.025 -0.0261  0.5877 -0.2558
  989SOL    HW3 3723   0.312   2.844   5.014 -0.4883  0.0660  0.3107
  989SOL    MW4 3724   0.360   2.778   4.983 -0.3935  0.2200  0.1277
  990SOL     OW 3725   3.940   4.624   6.366  0.7758 -0.3137 -0.2365
  990SOL    HW2 3726   4.015   4.585   6.321  0.8107  0.3329 -0.7561
  990SOL    HW3 3727   3.866   4.570   6.340  0.7483  0.2011 -1.3201
  990SOL    MW4 3728   3.940   4.612   6.357  0.7768 -0.1605 -0.4480
  991SOL     OW 3729   0.333   0.687   2.331 -0.1085  0.1670  0.1579
  991SOL    HW2 3730   0.382   0.759   2.291 -0.6703 -0.2686 -1.3884
  991SOL    HW3 3731   0.330   0.709   2.424 -0.4365  2.2527 -0.2922
  991SOL    MW4 3732   0.339   0.700   2.338 -0.2259  0.3847 -0.1055
  992SOL     OW 3733   4.821   0.750   0.376 -0.1585 -0.3116 -0.1242
  992SOL    HW2 3734   4.785   0.839   0.371 -0.3999 -0.3518  0.7767
  992SOL    HW3 3735   4.858   0.744   0.464  1.4445 -0.5167 -0.7758
  992SOL    MW4 3736   4.821   0.761   0.387  0.0212 -0.3440 -0.0913
  993SOL     OW 3737   4.671   2.112   4.255 -0.1362 -0.0257 -0.0852
  993SOL    HW2 3738   4.719   2.151   4.182 -0.5581 -1.2071 -1.0164
  993SOL    HW3 3739   4.733   2.115   4.328  0.7964 -0.1154 -0.8612
  993SOL    MW4 3740   4.686   2.118   4.255 -0.0688 -0.1934 -0.3104
  994SOL     OW 3741   6.362   1.732   2.576 -0.0851  0.2843  0.0023
  994SOL    HW2 3742   6.411   1.696   2.501  0.0059  1.0923 -0.3335
  994SOL    HW3 3743   6.353   1.658   2.636  1.2649  0.0338 -0.0736
  994SOL    MW4 3744   6.367   1.717   2.574  0.1050  0.3579 -0.0520
  995SOL     OW 3745   1.028   2.707   3.139  0.8597  0.6714 -0.3125
  995SOL    HW2 3746   1.003   2.779   3.081 -0.1100  1.4406  1.0012
  995SOL    HW3 3747   1.112   2.735   3.177  1.0248  0.6058 -0.6294
  995SOL    MW4 3748   1.036   2.720   3.137  0.7535  0.7642 -0.1810
  996SOL     OW 3749   5.265   0.617   0.303  0.2086  0.1656  0.4813
  996SOL    HW2 3750   5.248   0.531   0.341  1.0941 -1.0673 -1.7257
  996SOL    HW3 3751   5.351   0.641   0.336 -0.2946  0.5173  1.5816
  996SOL    MW4 3752   5.274   0.609   0.312  0.2590  0.0494  0.3353
  997SOL     OW 3753   1.592   2.461   1.751  0.0317  0.5863 -0.0599
  997SOL    HW2 3754   1.529   2.404   1.796 -0.9562  0.2527 -1.7528
  997SOL    HW3 3755   1.537   2.528   1.709  1.0904  2.1421  0.9560
  997SOL    MW4 3756   1.576   2.462   1.752  0.0410  0.7475 -0.1492
  998SOL     OW 3757   3.261   6.452   5.440  0.1812 -0.0280  0.0068
  998SOL    HW2 3758   3.170   6.447   5.470 -0.3866  1.2512 -1.3952
  998SOL    HW3 3759   3.305   6.381   5.487 -1.7118 -1.2518  0.0573
  998SOL    MW4 3760   3.255   6.442   5.450 -0.1435 -0.0207 -0.1715
  999SOL     OW 3761   0.497   6.126   2.684 -0.7599 -0.6750  0.0157
  999SOL    HW2 3762   0.567   6.136   2.749  1.5112  1.9218 -2.5392
  999SOL    HW3 3763   0.541   6.092   2.607 -2.6221 -0.3542 -1.2429
  999SOL    MW4 3764   0.512   6.123   2.683 -0.7060 -0.2901 -0.4874
 1000SOL     OW 3765   4.098   3.608   4.971 -0.4591 -0.3859  0.4771
 1000SOL    HW2 3766   4.114   3.691   5.014  0.2124  0.7984 -1.8943
 1000SOL    HW3 3767   4.183   3.565   4.967  0.1802  0.9092 -2.2432
 1000SOL    MW4 3768   4.111   3.613   4.976 -0.2862 -0.0588 -0.1947
 1001SOL     OW 3769   4.954   1.447   0.842 -0.2059  0.1079 -0.2970
 1001SOL    HW2 3770   5.024   1.459   0.778  0.9794 -4.5459 -0.3085
 1001SOL    HW3 3771   5.000   1.415   0.920 -2.1242 -0.8989  0.4789
 1001SOL    MW4 3772   4.969   1.444   0.844 -0.3026 -0.6390 -0.1962
 1002SOL     OW 3773   2.125   1.729   6.295 -0.0789 -0.4064 -0.2242
 1002SOL    HW2 3774   2.040   1.768   6.275 -0.6621 -1.4920  0.0618
 1002SOL    HW3 3775   2.105   1.657   6.355  1.0546 -0.6079 -0.0658
 1002SOL    MW4 3776   2.111   1.725   6.300 -0.0063 -0.5762 -0.1655
 1003SOL     OW 3777   5.542   3.555   2.233  0.8387 -0.4708 -0.0817
 1003SOL    HW2 3778   5.546   3.622   2.301  1.1753 -0.4698 -0.0990
 1003SOL    HW3 3779   5.553   3.603   2.151 -1.8482 -0.1543 -0.3516
 1003SOL    MW4 3780   5.544   3.570   2.231  0.5286 -0.4289 -0.1196
 1004SOL     OW 3781   1.539   3.824   0.762 -0.4103 -0.2237 -0.3739
 1004SOL    HW2 3782   1.487   3.745   0.750 -2.2501  0.6347  1.3457
 1004SOL    HW3 3783   1.478   3.887   0.800  1.8448  0.9174  1.5877
 1004SOL    MW4 3784   1.524   3.822   0.765 -0.3555  0.0401  0.1118
 1005SOL     OW 3785   5.851   5.626   1.119 -0.1422 -0.1615 -0.4298
 1005SOL    HW2 3786   5.771   5.590   1.080 -0.3781 -3.2067  2.3783
 1005SOL    HW3 3787   5.916   5.556   1.110  1.3743  1.1666 -0.1724
 1005SOL    MW4 3788   5.849   5.612   1.113  0.0267 -0.3881 -0.0254
 1006SOL     OW 3789   5.482   3.014   3.809  0.4206  0.7642 -0.0337
 1006SOL    HW2 3790   5.577   3.006   3.822  0.7758  2.4324 -1.2589
 1006SOL    HW3 3791   5.466   2.974   3.723 -0.2663 -0.8858  0.8168
 1006SOL    MW4 3792   5.493   3.008   3.799  0.3768  0.7666 -0.0831
 1007SOL     OW 3793   1.492   5.062   3.440 -0.4741 -0.8907 -0.1817
 1007SOL    HW2 3794   1.431   5.091   3.508 -0.9990 -1.5684 -0.3530
 1007SOL    HW3 3795   1.459   5.101   3.359  0.4041  0.2861 -0.0115
 1007SOL    MW4 3796   1.480   5.071   3.438 -0.4275 -0.8248 -0.1818
 1008SOL     OW 3797   0.099   4.328   4.402  0.1960  0.2880  0.0744
 1008SOL    HW2 3798   0.097   4.374   4.485  1.3460  0.0971  0.2252
 1008SOL    HW3 3799   0.168   4.371   4.352  0.0644 -0.1177 -0.4709
 1008SOL    MW4 3800   0.108   4.340   4.406  0.3304  0.2093  0.0223
 1009SOL     OW 3801   1.836   1.373   4.619 -0.1333  0.4034 -0.0006
 1009SOL    HW2 3802   1.903   1.438   4.638 -0.2168  0.9687 -1.5020
 1009SOL    HW3 3803   1.873   1.290   4.649  0.4203  0.9789  0.9409
 1009SOL    MW4 3804   1.850   1.371   4.625 -0.0713  0.5539 -0.0745
 1010SOL     OW 3805   6.289   0.648   3.537 -0.4230  0.0071 -0.0643
 1010SOL    HW2 3806   6.365   0.664   3.594 -0.9420  0.3091  0.5445
 1010SOL    HW3 3807   6.219   0.622   3.597 -1.0900  0.7191 -0.5279
 1010SOL    MW4 3808   6.290   0.647   3.552 -0.5795  0.1409 -0.0451
 1011SOL     OW 3809   6.284   4.507   5.197  0.1855 -0.1280 -0.3438
 1011SOL    HW2 3810   6.254   4.551   5.118 -3.2369  0.1609  0.8970
 1011SOL    HW3 3811   6.321   4.577   5.251 -1.6217  0.5868  0.0400
 1011SOL    MW4 3812   6.285   4.522   5.194 -0.5045  0.0044 -0.1295
 1012SOL     OW 3813   1.130   6.289   4.593  0.6427 -0.0972 -0.2814
 1012SOL    HW2 3814   1.062   6.246   4.646  0.7299 -0.5097 -0.4986
 1012SOL    HW3 3815   1.082   6.330   4.522  0.7258 -1.5761 -1.2339
 1012SOL    MW4 3816   1.115   6.289   4.591  0.6652 -0.3467 -0.4357
 1013SOL     OW 3817   4.215   2.635   6.221  0.3396  0.3692  0.5465
 1013SOL    HW2 3818   4.293   2.592   6.186  0.0712 -0.1550  0.5868
 1013SOL    HW3 3819   4.195   2.703   6.156  0.1825 -0.2240 -0.0408
 1013SOL    MW4 3820   4.223   2.639   6.208  0.2834  0.2218  0.4743
 1014SOL     OW 3821   5.628   3.632   0.982 -0.2184 -0.2550 -0.6490
 1014SOL    HW2 3822   5.551   3.614   0.929  0.6068  0.6579 -2.2194
 1014SOL    HW3 3823   5.690   3.563   0.959 -0.3033 -0.6096  0.1290
 1014SOL    MW4 3824   5.626   3.620   0.972 -0.1207 -0.1814 -0.7535
 1015SOL     OW 3825   1.286   3.077   4.129 -0.2714  0.4891 -0.2106
 1015SOL    HW2 3826   1.348   3.010   4.156 -1.4988  0.2093  2.2121
 1015SOL    HW3 3827   1.307   3.153   4.184 -0.6824  1.1350 -0.9263
 1015SOL    MW4 3828   1.297   3.078   4.140 -0.4876  0.5374  0.0146
 1016SOL     OW 3829   2.109   3.662   4.792 -0.6858 -0.2057 -0.2807
 1016SOL    HW2 3830   2.198   3.697   4.805  0.0623 -1.9353 -0.4195
 1016SOL    HW3 3831   2.052   3.727   4.833  0.3196  2.5145 -2.7924
 1016SOL    MW4 3832   2.114   3.675   4.799 -0.4545 -0.0750 -0.6304
 1017SOL     OW 3833   3.093   0.761   4.677  0.0647  0.3803 -0.1040
 1017SOL    HW2 3834   3.009   0.745   4.632  0.0801  1.1465 -0.4179
 1017SOL    HW3 3835   3.078   0.730   4.766 -0.4659  0.2529 -0.2295
 1017SOL    MW4 3836   3.080   0.755   4.683 -0.0033  0.4645 -0.1620
 1018SOL     OW 3837   1.747   6.144   3.156  0.3638  0.4613 -0.3196
 1018SOL    HW2 3838   1.676   6.205   3.178  1.1189  1.1335  0.2984
 1018SOL    HW3 3839   1.790   6.127   3.239  1.3865  0.6406 -0.7992
 1018SOL    MW4 3840   1.743   6.150   3.170  0.5983  0.5736 -0.3014
 1019SOL     OW 3841   4.409   2.222   6.064  0.4431  0.1410  0.2232
 1019SOL    HW2 3842   4.377   2.223   6.154 -2.1142  1.9068 -0.5894
 1019SOL    HW3 3843   4.347   2.166   6.017  0.6934  0.6541 -0.7451
 1019SOL    MW4 3844   4.396   2.215   6.070  0.1387  0.4417 -0.0118
 1020SOL     OW 3845   4.556   3.965   2.382 -0.0590  0.0042  0.1317
 1020SOL    HW2 3846   4.562   3.870   2.375 -2.8698 -0.2858  0.2097
 1020SOL    HW3 3847   4.584   3.986   2.471 -0.6181 -0.9289  0.5387
 1020SOL    MW4 3848   4.560   3.955   2.393 -0.5036 -0.1571  0.1957
 1021SOL     OW 3849   0.577   1.067   2.540  0.3781 -0.2717 -0.1316
 1021SOL    HW2 3850   0.660   1.110   2.561 -0.7860  0.7837  2.8976
 1021SOL    HW3 3851   0.532   1.059   2.624 -2.6374 -0.7211 -1.6398
 1021SOL    MW4 3852   0.582   1.072   2.553 -0.1734 -0.1918  0.0691
 1022SOL     OW 3853   2.489   0.242   4.870  0.1872  0.4730 -0.2121
 1022SOL    HW2 3854   2.560   0.211   4.814  0.2512  2.0916 -1.0848
 1022SOL    HW3 3855   2.409   0.218   4.823  0.0893 -1.4972  0.8492
 1022SOL    MW4 3856   2.488   0.234   4.856  0.1828  0.4266 -0.1872
 1023SOL     OW 3857   6.070   1.290   3.398  0.3131 -0.1763  0.4542
 1023SOL    HW2 3858   6.026   1.250   3.323  0.6557  0.1388  0.0782
 1023SOL    HW3 3859   6.000   1.326   3.451  0.0767 -0.2478  0.1915
 1023SOL    MW4 3860   6.055   1.289   3.395  0.3271 -0.1442  0.3699
 1024SOL     OW 3861   5.410   6.374   5.331 -0.3016  0.2940  0.3848
 1024SOL    HW2 3862   5.375   6.401   5.415 -1.8596  1.1484 -0.4969
 1024SOL    HW3 3863   5.383   6.443   5.270 -0.1895 -0.8635 -1.0323
 1024SOL    MW4 3864   5.402   6.387   5.334 -0.4924  0.2540  0.0815
 1025SOL     OW 3865   1.273   5.132   1.611  0.0050  1.1417  0.1406
 1025SOL    HW2 3866   1.279   5.036   1.611 -2.0826  0.8880  3.0018
 1025SOL    HW3 3867   1.285   5.156   1.703  2.2781  3.8641 -0.7252
 1025SOL    MW4 3868   1.276   5.123   1.623  0.0295  1.4674  0.4039
 1026SOL     OW 3869   2.406   1.422   2.077  0.0221 -0.4269 -0.0293
 1026SOL    HW2 3870   2.376   1.399   2.165  0.9491  2.0936  1.0295
 1026SOL    HW3 3871   2.501   1.431   2.086  0.6106 -3.2148 -2.1018
 1026SOL    MW4 3872   2.414   1.420   2.090  0.2220 -0.4622 -0.1631
 1027SOL     OW 3873   1.541   0.805   2.287 -0.3771  0.2605  0.1418
 1027SOL    HW2 3874   1.519   0.883   2.235  0.6813  0.0968 -0.5799
 1027SOL    HW3 3875   1.492   0.816   2.368 -2.6367  0.2272 -1.1089
 1027SOL    MW4 3876   1.531   0.816   2.291 -0.5356  0.2345 -0.1184
 1028SOL     OW 3877   6.180   1.436   3.755 -0.3397  0.1905  0.3911
 1028SOL    HW2 3878   6.137   1.520   3.736 -0.5634  0.2119  0.9838
 1028SOL    HW3 3879   6.273   1.453   3.740 -0.1183  1.1669  2.5470
 1028SOL    MW4 3880   6.187   1.449   3.751 -0.3400  0.3222  0.7538
 1029SOL     OW 3881   5.241   6.004   3.835  0.5107 -0.2204  0.7185
 1029SOL    HW2 3882   5.297   6.080   3.852 -0.6976  0.5308  1.4140
 1029SOL    HW3 3883   5.207   6.018   3.747 -0.9116  0.8671  1.3940
 1029SOL    MW4 3884   5.244   6.016   3.826  0.1637  0.0222  0.8994
 1030SOL     OW 3885   1.242   0.699   5.842 -0.5836 -0.1948 -0.1544
 1030SOL    HW2 3886   1.195   0.616   5.834  0.2824 -0.8990  1.5148
 1030SOL    HW3 3887   1.317   0.679   5.899 -0.5978  1.8078  0.6644
 1030SOL    MW4 3888   1.246   0.685   5.849 -0.4712 -0.0235  0.1738
 1031SOL     OW 3889   5.608   3.082   6.171 -0.2464 -0.4819 -0.3772
 1031SOL    HW2 3890   5.598   3.103   6.264  1.2685 -0.8320 -0.1059
 1031SOL    HW3 3891   5.521   3.052   6.144 -1.1861  1.3510  0.4436
 1031SOL    MW4 3892   5.595   3.081   6.180 -0.1705 -0.2863 -0.2331
 1032SOL     OW 3893   1.726   3.601   6.243  1.1832  0.1569  0.6447
 1032SOL    HW2 3894   1.709   3.608   6.337  1.1180 -0.4945  0.6865
 1032SOL    HW3 3895   1.769   3.516   6.232 -0.0986 -0.4338 -0.0862
 1032SOL    MW4 3896   1.730   3.590   6.254  1.0055 -0.0070  0.5538
 1033SOL     OW 3897   3.173   4.893   4.287  0.2734 -0.1915  0.1579
 1033SOL    HW2 3898   3.243   4.830   4.306  0.1381  0.0455  1.5766
 1033SOL    HW3 3899   3.098   4.839   4.263  0.2925 -0.5698  0.9065
 1033SOL    MW4 3900   3.173   4.877   4.286  0.2581 -0.2101  0.4438
 1034SOL     OW 3901   0.617   3.430   2.959 -0.5273  0.6407 -0.0514
 1034SOL    HW2 3902   0.586   3.450   3.047  1.0397  1.6165  0.3201
 1034SOL    HW3 3903   0.603   3.510   2.909  3.1971  1.9540  0.7060
 1034SOL    MW4 3904   0.611   3.443   2.964  0.1708  0.9428  0.0975
 1035SOL     OW 3905   2.321   4.050   1.750 -0.5671  0.4683 -0.9050
 1035SOL    HW2 3906   2.397   4.053   1.807  1.2107 -1.5204 -2.9631
 1035SOL    HW3 3907   2.305   3.956   1.736 -2.4784  0.8672 -1.7170
 1035SOL    MW4 3908   2.329   4.038   1.756 -0.5847  0.2585 -1.2836
 1036SOL     OW 3909   4.680   3.309   4.657 -0.0453  0.7047 -0.4828
 1036SOL    HW2 3910   4.717   3.258   4.585  0.5709  0.8998 -0.3087
 1036SOL    HW3 3911   4.613   3.363   4.616  0.1597  0.6670 -0.8745
 1036SOL    MW4 3912   4.676   3.309   4.642  0.0630  0.7255 -0.5115
 1037SOL     OW 3913   3.139   6.294   0.851  0.2146 -0.2154 -0.4252
 1037SOL    HW2 3914   3.202   6.231   0.818  1.3018 -0.0526  1.2142
 1037SOL    HW3 3915   3.084   6.245   0.911  0.7898  0.2675  0.5255
 1037SOL    MW4 3916   3.140   6.279   0.855  0.4339 -0.1302 -0.0835
 1038SOL     OW 3917   1.021   3.502   3.797  0.0712 -0.2470  0.3714
 1038SOL    HW2 3918   0.977   3.452   3.866  0.7876 -0.9686  0.3277
 1038SOL    HW3 3919   0.951   3.532   3.740 -0.4155 -0.8028  0.6633
 1038SOL    MW4 3920   1.006   3.499   3.799  0.1015 -0.4155  0.4042
 1039SOL     OW 3921   1.052   3.135   3.084 -0.2609  0.6654  0.0087
 1039SOL    HW2 3922   0.995   3.069   3.045  0.7964 -0.3014  0.0379
 1039SOL    HW3 3923   0.995   3.186   3.142 -1.2199  0.1726 -0.4915
 1039SOL    MW4 3924   1.037   3.133   3.087 -0.2479  0.4728 -0.0534
 1040SOL     OW 3925   1.564   0.951   0.220  0.4581 -0.3504 -0.0862
 1040SOL    HW2 3926   1.505   0.876   0.229 -1.8301  1.4580  1.1200
 1040SOL    HW3 3927   1.524   1.005   0.151  0.1377  1.3403  1.3473
 1040SOL    MW4 3928   1.551   0.949   0.212  0.1139  0.1113  0.2620
 1041SOL     OW 3929   5.459   1.171   6.449 -0.6114  0.1012 -0.3485
 1041SOL    HW2 3930   5.442   1.241   6.512 -1.0008  1.6404 -2.0703
 1041SOL    HW3 3931   5.547   1.140   6.471  0.2360  2.2156 -0.4423
 1041SOL    MW4 3932   5.468   1.176   6.460 -0.5510  0.5832 -0.5880
 1042SOL     OW 3933   0.083   5.364   5.064  0.2086 -0.5469  0.2359
 1042SOL    HW2 3934  -0.001   5.344   5.023  0.0893  0.1994  0.0976
 1042SOL    HW3 3935   0.139   5.391   4.992 -0.0137  0.8097  0.5419
 1042SOL    MW4 3936   0.079   5.365   5.049  0.1635 -0.2694  0.2580
 1043SOL     OW 3937   4.633   6.476   2.240  0.3848 -0.5515 -0.1870
 1043SOL    HW2 3938   4.723   6.507   2.231  0.6235 -1.4061 -0.9449
 1043SOL    HW3 3939   4.639   6.382   2.222 -0.6435 -0.6366 -0.1080
 1043SOL    MW4 3940   4.646   6.468   2.237  0.2806 -0.6755 -0.2766
 1044SOL     OW 3941   2.453   3.185   6.328 -0.0640 -0.0262  0.5110
 1044SOL    HW2 3942   2.409   3.270   6.321  0.0060 -0.0314 -0.0506
 1044SOL    HW3 3943   2.447   3.163   6.421  0.3571  0.8235  0.7482
 1044SOL    MW4 3944   2.446   3.194   6.340  0.0008  0.0852  0.4682
 1045SOL     OW 3945   1.829   0.681   5.113 -0.2589 -0.2832  0.1348
 1045SOL    HW2 3946   1.738   0.672   5.087 -0.5131 -1.4090  1.2827
 1045SOL    HW3 3947   1.834   0.765   5.158  0.0426  1.3588 -2.7729
 1045SOL    MW4 3948   1.818   0.691   5.116 -0.2527 -0.2151 -0.0974
 1046SOL     OW 3949   5.759   2.856   5.112 -0.3274  0.0532  0.0985
 1046SOL    HW2 3950   5.731   2.911   5.038 -0.2314  0.1684  0.1465
 1046SOL    HW3 3951   5.745   2.911   5.189  0.4540  0.2880  0.0877
 1046SOL    MW4 3952   5.754   2.871   5.112 -0.2116  0.0994  0.1034
 1047SOL     OW 3953   5.531   1.204   0.888  0.0563  0.8366  0.4172
 1047SOL    HW2 3954   5.595   1.136   0.909 -0.7485 -0.6241 -1.5437
 1047SOL    HW3 3955   5.576   1.262   0.826  0.1085  0.9806  0.5872
 1047SOL    MW4 3956   5.545   1.203   0.882 -0.0430  0.6629  0.1809
 1048SOL     OW 3957   3.789   0.180   0.446  0.1500 -0.3319 -0.0264
 1048SOL    HW2 3958   3.715   0.181   0.386 -0.2416 -0.6977  0.4357
 1048SOL    HW3 3959   3.835   0.263   0.430 -0.1181 -0.2935 -0.6092
 1048SOL    MW4 3960   3.786   0.191   0.436  0.0629 -0.3751 -0.0423
 1049SOL     OW 3961   3.833   1.307   3.675  0.5848  0.0440 -0.3204
 1049SOL    HW2 3962   3.811   1.234   3.617  0.4549  0.4106 -0.7410
 1049SOL    HW3 3963   3.790   1.383   3.635  1.8524  0.6091 -0.6565
 1049SOL    MW4 3964   3.824   1.308   3.662  0.7349  0.1669 -0.4203
 1050SOL     OW 3965   1.252   5.861   1.739 -0.0175  0.8097  0.1359
 1050SOL    HW2 3966   1.201   5.938   1.762 -1.1600  0.2750 -0.5314
 1050SOL    HW3 3967   1.200   5.816   1.672  0.7022 -0.4526  0.3871
 1050SOL    MW4 3968   1.238   5.865   1.733 -0.0733  0.5726  0.0810
 1051SOL     OW 3969   2.325   1.185   1.189  0.1168  0.1680  0.3806
 1051SOL    HW2 3970   2.322   1.273   1.151  3.2278  0.0156 -0.4848
 1051SOL    HW3 3971   2.413   1.153   1.168 -0.8843 -3.1508  0.7246
 1051SOL    MW4 3972   2.336   1.193   1.181  0.3951 -0.2900  0.3118
 1052SOL     OW 3973   5.445   0.114   1.564 -0.2411  0.1832  0.4092
 1052SOL    HW2 3974   5.471   0.041   1.620  0.1717 -0.6877 -0.8500
 1052SOL    HW3 3975   5.350   0.114   1.566 -0.2768 -1.0038 -0.2897
 1052SOL    MW4 3976   5.436   0.104   1.571 -0.1914 -0.0883  0.1508
 1053SOL     OW 3977   3.149   5.903   0.219  0.7999 -0.2161  0.4423
 1053SOL    HW2 3978   3.068   5.936   0.259 -0.3179 -1.8962 -0.2727
 1053SOL    HW3 3979   3.149   5.941   0.131  0.1273 -1.1262  0.0283
 1053SOL    MW4 3980   3.138   5.912   0.213  0.5637 -0.5579  0.2933
 1054SOL     OW 3981   3.266   5.763   4.780 -0.0526 -0.1521  0.0106
 1054SOL    HW2 3982   3.180   5.723   4.791 -0.6864  0.6937 -1.6188
 1054SOL    HW3 3983   3.268   5.833   4.845 -1.4102  1.1023 -1.2554
 1054SOL    MW4 3984   3.255   5.767   4.790 -0.3153  0.1250 -0.3714
 1055SOL     OW 3985   0.262   0.354   2.604 -0.2317  0.0524 -0.6055
 1055SOL    HW2 3986   0.337   0.413   2.604 -0.4576  0.4572  1.7211
 1055SOL    HW3 3987   0.191   0.406   2.567 -0.5445  1.5419  1.8416
 1055SOL    MW4 3988   0.262   0.369   2.599 -0.3028  0.3023  0.0244
 1056SOL     OW 3989   6.129   3.662   4.568  0.1728  0.1185 -0.0651
 1056SOL    HW2 3990   6.173   3.644   4.651  2.3608  0.4610 -1.0590
 1056SOL    HW3 3991   6.065   3.730   4.588 -0.5555 -0.9921  1.6243
 1056SOL    MW4 3992   6.127   3.669   4.581  0.3654  0.0172  0.0266
 1057SOL     OW 3993   5.144   1.170   5.759 -1.1403 -0.6804 -0.3456
 1057SOL    HW2 3994   5.213   1.236   5.753 -1.3281 -0.5792 -1.9124
 1057SOL    HW3 3995   5.078   1.209   5.817 -0.3827 -0.3331  0.3056
 1057SOL    MW4 3996   5.145   1.184   5.766 -1.0651 -0.6212 -0.4664
 1058SOL     OW 3997   3.941   1.804   2.064  0.1871  0.2137  0.0885
 1058SOL    HW2 3998   3.899   1.882   2.027 -1.4759 -0.5724  0.2095
 1058SOL    HW3 3999   3.965   1.829   2.153  2.0608  1.3704 -0.6889
 1058SOL    MW4 4000   3.938   1.817   2.071  0.2149  0.2626  0.0019
 1059SOL     OW 4001   6.325   5.526   4.209  0.0961 -0.1057  0.2718
 1059SOL    HW2 4002   6.244   5.479   4.230  0.5166 -1.1380 -0.3078
 1059SOL    HW3 4003   6.366   5.473   4.140  1.9230 -0.3596  1.4844
 1059SOL    MW4 4004   6.320   5.512   4.202  0.3926 -0.2754  0.3553
 1060SOL     OW 4005   5.923   1.727   2.095  0.1489  0.3397  0.2868
 1060SOL    HW2 4006   5.859   1.792   2.123 -0.4123  0.9105 -2.0978
 1060SOL    HW3 4007   5.872   1.646   2.085  0.1653  0.3616  0.0341
 1060SOL    MW4 4008   5.908   1.725   2.097  0.0770  0.4179 -0.0612
 1061SOL     OW 4009   5.125   4.474   6.061 -0.3212  0.5430 -0.1674
 1061SOL    HW2 4010   5.131   4.379   6.075 -1.3606  0.3106 -1.1699
 1061SOL    HW3 4011   5.094   4.508   6.145  0.1254  0.0111  0.2223
 1061SOL    MW4 4012   5.121   4.466   6.074 -0.3994  0.4422 -0.2482
 1062SOL     OW 4013   0.481   0.937   1.227  0.0302 -0.2230  0.0466
 1062SOL    HW2 4014   0.571   0.964   1.210  0.0637  0.1392  0.7448
 1062SOL    HW3 4015   0.428   1.012   1.199  0.1587  0.8881  2.5278
 1062SOL    MW4 4016   0.486   0.951   1.221  0.0515 -0.0286  0.4661
 1063SOL     OW 4017   5.498   4.956   5.014  0.2114  0.1178  0.3123
 1063SOL    HW2 4018   5.428   4.971   5.077 -1.7921 -1.1251 -1.4841
 1063SOL    HW3 4019   5.486   5.024   4.948  1.2635  0.4006  0.3856
 1063SOL    MW4 4020   5.487   4.967   5.014  0.0859 -0.0089  0.0849
 1064SOL     OW 4021   3.704   5.746   0.058  0.3323  0.1521  0.4330
 1064SOL    HW2 4022   3.759   5.754   0.136  1.3627  0.9289 -0.3570
 1064SOL    HW3 4023   3.688   5.652   0.050  0.8544 -0.0077  1.1410
 1064SOL    MW4 4024   3.709   5.735   0.067  0.5371  0.2335  0.4222
 1065SOL     OW 4025   6.049   2.504   1.654  0.2037 -0.5986 -0.2387
 1065SOL    HW2 4026   6.045   2.412   1.677  4.1137 -0.4117  1.9666
 1065SOL    HW3 4027   5.990   2.547   1.716  0.6160 -1.3583  0.6841
 1065SOL    MW4 4028   6.040   2.498   1.665  0.7740 -0.6742  0.1740
 1066SOL     OW 4029   1.931   5.530   4.679  0.1029  0.1006 -0.0366
 1066SOL    HW2 4030   1.925   5.614   4.725 -0.3508 -0.4408  0.9301
 1066SOL    HW3 4031   2.020   5.527   4.646  0.7857  0.0967  1.6696
 1066SOL    MW4 4032   1.942   5.541   4.681  0.1331  0.0287  0.3161
 1067SOL     OW 4033   3.855   0.351   6.136  0.0496 -0.5092  0.1949
 1067SOL    HW2 4034   3.856   0.446   6.146 -0.8900 -0.6002  1.4582
 1067SOL    HW3 4035   3.834   0.318   6.224 -0.1559 -1.8556 -0.3310
 1067SOL    MW4 4036   3.852   0.359   6.149 -0.1015 -0.6989  0.2922
 1068SOL     OW 4037   1.795   2.153   2.522  0.2612  0.0286  0.5628
 1068SOL    HW2 4038   1.736   2.227   2.536  0.6193  0.2281  1.0621
 1068SOL    HW3 4039   1.811   2.152   2.428  1.3877  1.4664  0.7168
 1068SOL    MW4 4040   1.789   2.162   2.512  0.4570  0.2446  0.6490
 1069SOL     OW 4041   2.627   5.836   5.315  0.7425  0.3871 -0.4618
 1069SOL    HW2 4042   2.544   5.788   5.316  0.6028  0.5281  2.1741
 1069SOL    HW3 4043   2.691   5.774   5.280 -0.0920 -0.4432 -0.5507
 1069SOL    MW4 4044   2.625   5.822   5.311  0.6140  0.2961 -0.1258
 1070SOL     OW 4045   4.313   1.662   0.781  0.1041 -0.9222 -0.6954
 1070SOL    HW2 4046   4.355   1.578   0.797  1.5285  0.1409  1.7636
 1070SOL    HW3 4047   4.292   1.695   0.869 -0.9790  1.0051 -1.6219
 1070SOL    MW4 4048   4.316   1.655   0.795  0.1491 -0.5277 -0.4932
 1071SOL     OW 4049   3.877   4.314   2.414  0.1204 -0.3765 -0.2857
 1071SOL    HW2 4050   3.912   4.354   2.493 -1.8781 -0.8409  0.8991
 1071SOL    HW3 4051   3.834   4.387   2.368 -0.9329 -0.5720  0.3672
 1071SOL    MW4 4052   3.876   4.329   2.418 -0.2823 -0.4635 -0.0432
 1072SOL     OW 4053   5.036   3.054   3.328  0.4952 -0.1262 -0.6612
 1072SOL    HW2 4054   5.083   2.975   3.305  0.6729 -0.3173  0.2902
 1072SOL    HW3 4055   5.059   3.118   3.261 -0.0368 -1.0164 -1.7100
 1072SOL    MW4 4056   5.045   3.052   3.316  0.4485 -0.2689 -0.6741
 1073SOL     OW 4057   2.544   6.322   1.149  0.0619  0.5240 -0.1328
 1073SOL    HW2 4058   2.478   6.268   1.106 -1.6597  2.1489  0.3609
 1073SOL    HW3 4059   2.537   6.300   1.241  0.5438  0.3966 -0.1207
 1073SOL    MW4 4060   2.534   6.312   1.155 -0.1017  0.7216 -0.0661
 1074SOL     OW 4061   1.944   4.251   2.441  0.5609 -0.3248 -0.1167
 1074SOL    HW2 4062   1.941   4.189   2.514  0.3817 -0.4192 -0.2053
 1074SOL    HW3 4063   2.016   4.219   2.386  2.1719  0.9645  1.1114
 1074SOL    MW4 4064   1.953   4.239   2.443  0.7498 -0.1672  0.0337
 1075SOL     OW 4065   1.587   3.011   3.539 -0.0760  0.1859 -0.3160
 1075SOL    HW2 4066   1.683   3.011   3.547 -0.0963 -2.0787  0.6042
 1075SOL    HW3 4067   1.571   2.982   3.449  0.0786  0.7716 -0.5407
 1075SOL    MW4 4068   1.598   3.007   3.528 -0.0583 -0.0356 -0.2242
 1076SOL     OW 4069   6.186   2.783   2.256 -0.4763 -0.4671 -0.0358
 1076SOL    HW2 4070   6.201   2.862   2.204  1.4605 -0.2952  0.6790
 1076SOL    HW3 4071   6.153   2.815   2.339  0.5672 -0.3519  0.3516
 1076SOL    MW4 4072   6.184   2.798   2.260 -0.0831 -0.4292  0.1097
 1077SOL     OW 4073   3.133   2.377   1.360  0.3103 -0.5545  0.1365
 1077SOL    HW2 4074   3.194   2.390   1.287  1.1433 -1.9374  0.5401
 1077SOL    HW3 4075   3.175   2.310   1.414 -1.1263 -0.8370  0.9480
 1077SOL    MW4 4076   3.147   2.370   1.358  0.2307 -0.7742  0.2968
 1078SOL     OW 4077   0.245   5.105   0.755 -0.0309  0.4940 -0.1141
 1078SOL    HW2 4078   0.339   5.102   0.738  0.5177 -3.3318  2.3798
 1078SOL    HW3 4079   0.205   5.080   0.671  1.2815  0.6259 -0.7965
 1078SOL    MW4 4080   0.252   5.101   0.741  0.2146  0.0067  0.1249
 1079SOL     OW 4081   0.713   2.842   2.928  0.1129  0.3718 -0.2747
 1079SOL    HW2 4082   0.646   2.869   2.865 -0.0121 -0.5541 -0.5536
 1079SOL    HW3 4083   0.664   2.805   3.001  0.2681  1.2488  0.2963
 1079SOL    MW4 4084   0.698   2.841   2.929  0.1169  0.3653 -0.2362
 1080SOL     OW 4085   5.879   1.860   6.055  0.5336  0.2808 -0.3582
 1080SOL    HW2 4086   5.833   1.823   6.130  1.6141  0.6289  0.5077
 1080SOL    HW3 4087   5.968   1.824   6.061  0.3645 -0.4777 -2.0507
 1080SOL    MW4 4088   5.885   1.851   6.066  0.6538  0.2267 -0.4673
 1081SOL     OW 4089   4.760   3.619   3.773 -0.0151  0.1338 -0.1792
 1081SOL    HW2 4090   4.669   3.594   3.755 -0.3835  0.1186  1.5576
 1081SOL    HW3 4091   4.783   3.569   3.851  1.2360  0.7292 -0.1526
 1081SOL    MW4 4092   4.751   3.609   3.781  0.1014  0.2103  0.0535
 1082SOL     OW 4093   1.378   5.842   3.850  0.2744 -0.6098  0.5885
 1082SOL    HW2 4094   1.339   5.758   3.828  1.1289 -0.9332  0.2985
 1082SOL    HW3 4095   1.461   5.821   3.891 -0.6328  0.0239  2.9148
 1082SOL    MW4 4096   1.384   5.828   3.852  0.2674 -0.5689  0.8572
 1083SOL     OW 4097   2.587   0.882   3.012 -0.2289  0.0274  0.3869
 1083SOL    HW2 4098   2.556   0.954   2.958 -1.1740 -0.5081  0.1876
 1083SOL    HW3 4099   2.681   0.877   2.994 -0.1173  1.2751  0.5108
 1083SOL    MW4 4100   2.595   0.891   3.002 -0.3389  0.1214  0.3770
 1084SOL     OW 4101   3.933   2.331   1.702  0.3938 -0.1219 -0.3541
 1084SOL    HW2 4102   3.951   2.368   1.616  0.8964  0.3925 -0.0357
 1084SOL    HW3 4103   3.897   2.404   1.752  1.2839 -0.0741  0.2453
 1084SOL    MW4 4104   3.931   2.345   1.697  0.5776 -0.0477 -0.2330
 1085SOL     OW 4105   5.114   3.045   3.607  0.3244  0.4789  0.1089
 1085SOL    HW2 4106   5.091   3.074   3.518  0.3624  0.5691  0.1288
 1085SOL    HW3 4107   5.100   2.950   3.605 -0.4072  0.5762  0.2231
 1085SOL    MW4 4108   5.109   3.036   3.595  0.2329  0.5037  0.1266
 1086SOL     OW 4109   5.058   0.492   6.189 -0.0662 -0.3367  0.4077
 1086SOL    HW2 4110   5.122   0.492   6.118 -0.3579  0.3958  0.1304
 1086SOL    HW3 4111   5.085   0.565   6.245 -2.0327  1.5993 -1.0171
 1086SOL    MW4 4112   5.070   0.502   6.187 -0.3642  0.0154  0.1832
 1087SOL     OW 4113   3.453   0.655   4.934  0.0891 -0.0077  0.4943
 1087SOL    HW2 4114   3.547   0.644   4.924  0.5627  2.7693  1.1644
 1087SOL    HW3 4115   3.434   0.621   5.021  0.5314 -0.2236  0.5079
 1087SOL    MW4 4116   3.463   0.649   4.944  0.2100  0.3302  0.5845
 1088SOL     OW 4117   1.580   5.259   1.563 -0.3510  0.2234 -0.2666
 1088SOL    HW2 4118   1.524   5.181   1.564 -1.8134  1.2245  1.1224
 1088SOL    HW3 4119   1.646   5.242   1.631  0.3312 -0.4519 -1.0769
 1088SOL    MW4 4120   1.582   5.246   1.572 -0.4539  0.2664 -0.1903
 1089SOL     OW 4121   4.529   5.886   6.392  0.1629 -0.3693  0.2941
 1089SOL    HW2 4122   4.578   5.884   6.310  0.0350  0.6969  0.1797
 1089SOL    HW3 4123   4.558   5.808   6.439  1.0197 -0.4270 -0.3122
 1089SOL    MW4 4124   4.539   5.875   6.387  0.2590 -0.2363  0.1990
 1090SOL     OW 4125   2.288   3.739   1.752 -0.2319 -0.0145 -0.0219
 1090SOL    HW2 4126   2.245   3.756   1.835 -1.2131  2.6791 -0.9689
 1090SOL    HW3 4127   2.220   3.700   1.697 -0.0763 -0.1879 -0.0947
 1090SOL    MW4 4128   2.273   3.736   1.755 -0.3409  0.3180 -0.1564
 1091SOL     OW 4129   5.322   3.458   1.224  0.4480 -0.0541 -0.1698
 1091SOL    HW2 4130   5.396   3.399   1.209  0.6590  0.6155 -2.0327
 1091SOL    HW3 4131   5.306   3.454   1.318  2.2110 -0.9822  0.1201
 1091SOL    MW4 4132   5.329   3.450   1.234  0.7085 -0.0882 -0.3774
 1092SOL     OW 4133   4.510   0.111   5.334  0.0352  0.3649 -0.0088
 1092SOL    HW2 4134   4.510   0.161   5.253  2.3689  0.9529  0.2879
 1092SOL    HW3 4135   4.461   0.165   5.396 -0.8595  0.3979 -0.7398
 1092SOL    MW4 4136   4.504   0.125   5.332  0.2250  0.4468 -0.0661
 1093SOL     OW 4137   4.620   4.450   1.588 -0.4238 -0.2131 -0.1538
 1093SOL    HW2 4138   4.611   4.355   1.601 -0.7819 -0.1912 -0.2328
 1093SOL    HW3 4139   4.544   4.488   1.633 -0.2757  0.0360 -0.1147
 1093SOL    MW4 4140   4.609   4.442   1.595 -0.4515 -0.1773 -0.1590
 1094SOL     OW 4141   3.109   0.528   3.322  0.8650  0.2753  0.3655
 1094SOL    HW2 4142   3.058   0.460   3.278  0.4795  0.1956  0.9358
 1094SOL    HW3 4143   3.074   0.532   3.411  0.8585  1.2399  0.3381
 1094SOL    MW4 4144   3.098   0.520   3.328  0.8132  0.3921  0.4371
 1095SOL     OW 4145   2.931   0.176   2.015 -0.0023  0.0366  0.7792
 1095SOL    HW2 4146   2.967   0.108   1.958  0.3633  0.6885  0.2085
 1095SOL    HW3 4147   2.953   0.148   2.104  0.3920 -0.4409  0.5324
 1095SOL    MW4 4148   2.939   0.163   2.019  0.0979  0.0596  0.6713
 1096SOL     OW 4149   3.737   5.261   3.674  0.2371  0.1446  0.0180
 1096SOL    HW2 4150   3.787   5.242   3.594  1.0093  2.4930 -0.1186
 1096SOL    HW3 4151   3.655   5.299   3.642 -0.2582 -0.6390  0.3284
 1096SOL    MW4 4152   3.732   5.263   3.659  0.2737  0.3511  0.0409
 1097SOL     OW 4153   2.642   1.312   4.279 -0.6048  0.0133  0.4301
 1097SOL    HW2 4154   2.647   1.341   4.370  1.7413  1.2491 -0.0211
 1097SOL    HW3 4155   2.610   1.388   4.231 -0.7666 -0.2819  0.0608
 1097SOL    MW4 4156   2.638   1.326   4.285 -0.3166  0.1374  0.3218
 1098SOL     OW 4157   2.246   3.884   4.465 -0.0580  0.0538 -0.3397
 1098SOL    HW2 4158   2.243   3.799   4.422 -0.3763  0.3675 -0.9519
 1098SOL    HW3 4159   2.284   3.943   4.400  1.9703  0.0117  0.7322
 1098SOL    MW4 4160   2.251   3.881   4.451  0.1676  0.0897 -0.2790
 1099SOL     OW 4161   1.474   4.535   6.124 -0.3372  0.2166  0.2677
 1099SOL    HW2 4162   1.540   4.521   6.055  1.8585  0.3258  2.2429
 1099SOL    HW3 4163   1.483   4.627   6.147 -2.0508  0.5381 -0.1980
 1099SOL    MW4 4164   1.484   4.545   6.118 -0.2736  0.2734  0.4669
 1100SOL     OW 4165   4.519   5.240   1.564  0.3803 -0.2447  0.2707
 1100SOL    HW2 4166   4.456   5.282   1.504 -0.9255  0.3977  2.0110
 1100SOL    HW3 4167   4.511   5.290   1.645  2.2654 -0.9551  0.9320
 1100SOL    MW4 4168   4.509   5.252   1.566  0.4567 -0.2537  0.5875
 1101SOL     OW 4169   2.442   5.354   2.368  0.5450  0.2128 -0.0560
 1101SOL    HW2 4170   2.488   5.412   2.428 -0.3241  1.6228 -0.7016
 1101SOL    HW3 4171   2.350   5.361   2.393  0.2112  0.5689 -1.3265
 1101SOL    MW4 4172   2.436   5.363   2.379  0.3863  0.4458 -0.3088
 1102SOL     OW 4173   5.950   3.493   3.170 -0.1529 -0.6541  0.2313
 1102SOL    HW2 4174   5.936   3.579   3.210 -0.7587 -0.3641 -0.5685
 1102SOL    HW3 4175   5.915   3.503   3.081  0.7341 -1.4131 -0.2140
 1102SOL    MW4 4176   5.944   3.506   3.164 -0.1158 -0.7160  0.0671
 1103SOL     OW 4177   5.941   3.004   3.168  0.0667 -0.6242 -0.0396
 1103SOL    HW2 4178   5.884   3.075   3.137  1.2358 -0.0654 -0.9684
 1103SOL    HW3 4179   5.970   3.034   3.254 -0.0709 -0.3429 -0.0859
 1103SOL    MW4 4180   5.937   3.018   3.175  0.2028 -0.5133 -0.1683
 1104SOL     OW 4181   1.350   4.032   0.799  0.2221 -0.1852 -0.0223
 1104SOL    HW2 4182   1.399   4.109   0.771  0.7645  0.3864  2.2595
 1104SOL    HW3 4183   1.296   4.063   0.872 -1.5097 -1.4186 -0.7051
 1104SOL    MW4 4184   1.349   4.046   0.805  0.0652 -0.2725  0.1887
 1105SOL     OW 4185   3.380   0.576   0.664 -0.2709  0.2298 -0.3066
 1105SOL    HW2 4186   3.421   0.641   0.720  0.0364  0.6176 -0.9698
 1105SOL    HW3 4187   3.294   0.561   0.703 -0.0575  0.4780  0.2714
 1105SOL    MW4 4188   3.374   0.582   0.676 -0.2022  0.3137 -0.3178
 1106SOL     OW 4189   4.120   0.196   3.594 -0.2821  0.0769 -0.0472
 1106SOL    HW2 4190   4.029   0.212   3.567  0.1064  0.3426 -1.2494
 1106SOL    HW3 4191   4.152   0.282   3.620 -0.6466 -0.1717  1.3478
 1106SOL    MW4 4192   4.112   0.209   3.594 -0.2790  0.0792 -0.0217
 1107SOL     OW 4193   4.652   3.788   6.256 -0.2789  0.0801  0.2434
 1107SOL    HW2 4194   4.687   3.829   6.335 -0.8947 -0.2250  0.6760
 1107SOL    HW3 4195   4.620   3.703   6.285 -1.1914  0.2688 -0.1963
 1107SOL    MW4 4196   4.653   3.782   6.270 -0.4805  0.0647  0.2425
 1108SOL     OW 4197   6.288   1.256   0.457 -0.4723  0.2092  0.1893
 1108SOL    HW2 4198   6.309   1.302   0.538 -0.3850 -0.4266  0.5294
 1108SOL    HW3 4199   6.299   1.163   0.478  3.1018  0.0882 -1.4986
 1108SOL    MW4 4200   6.292   1.250   0.470  0.0108  0.1093  0.0115
 1109SOL     OW 4201   1.283   0.132   4.343 -0.2227  0.2014  0.0149
 1109SOL    HW2 4202   1.302   0.203   4.281 -0.7143 -1.8554 -2.6856
 1109SOL    HW3 4203   1.331   0.057   4.309  0.1708 -0.8707  2.6943
 1109SOL    MW4 4204   1.292   0.131   4.330 -0.2357 -0.2114  0.0121
 1110SOL     OW 4205   5.228   2.859   3.194 -0.1675 -0.2378  0.2300
 1110SOL    HW2 4206   5.294   2.920   3.227  2.3194 -1.3606 -2.2798
 1110SOL    HW3 4207   5.192   2.903   3.117 -1.4142 -0.2229  0.7984
 1110SOL    MW4 4208   5.232   2.873   3.188 -0.0039 -0.3840 -0.0262
 1111SOL     OW 4209   3.667   5.904   4.288  0.1829 -0.1857  0.3515
 1111SOL    HW2 4210   3.577   5.911   4.254 -0.0035  0.4208  0.9505
 1111SOL    HW3 4211   3.701   5.823   4.249 -0.4329 -0.1326 -0.3207
 1111SOL    MW4 4212   3.660   5.894   4.278  0.0770 -0.0987  0.3419
 1112SOL     OW 4213   6.180   6.293   0.205  0.0690 -0.2205 -0.1494
 1112SOL    HW2 4214   6.142   6.303   0.118  0.2943 -2.2297 -0.5423
 1112SOL    HW3 4215   6.153   6.205   0.233 -1.2404  0.8942  2.4576
 1112SOL    MW4 4216   6.171   6.283   0.197 -0.0740 -0.3386  0.1427
 1113SOL     OW 4217   4.995   4.204   5.150  0.8412  0.9824  0.6546
 1113SOL    HW2 4218   5.014   4.209   5.244 -0.1761 -0.7615  1.0100
 1113SOL    HW3 4219   5.064   4.147   5.115 -0.3057 -0.6293  0.8955
 1113SOL    MW4 4220   5.007   4.197   5.158  0.5557  0.5397  0.7333
 1114SOL     OW 4221   5.410   1.227   3.059 -0.1256 -0.2392 -0.6725
 1114SOL    HW2 4222   5.332   1.279   3.041  0.7999  0.5206 -2.8260
 1114SOL    HW3 4223   5.376   1.145   3.095 -1.7038  1.1595  1.1878
 1114SOL    MW4 4224   5.395   1.223   3.061 -0.2117  0.0456 -0.7112
 1115SOL     OW 4225   4.407   2.805   5.546  0.4245 -0.0678 -0.0149
 1115SOL    HW2 4226   4.394   2.760   5.462 -0.0022 -1.1186  0.6038
 1115SOL    HW3 4227   4.365   2.891   5.534  0.0674 -0.3408 -0.7596
 1115SOL    MW4 4228   4.400   2.811   5.533  0.3211 -0.2425 -0.0315
 1116SOL     OW 4229   3.422   1.652   3.239  0.5666  0.1785 -0.5287
 1116SOL    HW2 4230   3.338   1.692   3.263  0.5804 -0.8761  1.4840
 1116SOL    HW3 4231   3.397   1.569   3.199  0.6253 -0.3624  0.5215
 1116SOL    MW4 4232   3.408   1.646   3.237  0.5761 -0.0320 -0.1246
 1117SOL     OW 4233   5.806   1.138   2.631 -0.1763  0.8006  0.1010
 1117SOL    HW2 4234   5.825   1.187   2.552 -2.9174  0.0351 -1.1616
 1117SOL    HW3 4235   5.741   1.073   2.604  2.7553 -3.2650  1.7667
 1117SOL    MW4 4236   5.800   1.136   2.617 -0.1512  0.1632  0.1542
 1118SOL     OW 4237   5.373   2.712   1.072  0.1475  0.1360  0.5798
 1118SOL    HW2 4238   5.467   2.722   1.057 -0.2081  1.3985 -1.1121
 1118SOL    HW3 4239   5.341   2.802   1.084 -0.9511 -0.1929  0.2575
 1118SOL    MW4 4240   5.381   2.725   1.071 -0.0443  0.2591  0.3141
 1119SOL     OW 4241   5.340   5.578   2.111  0.7956  0.0271  0.1158
 1119SOL    HW2 4242   5.357   5.645   2.177  0.3487 -0.9375  1.2368
 1119SOL    HW3 4243   5.316   5.500   2.161 -1.6740 -0.1659 -1.2057
 1119SOL    MW4 4244   5.339   5.577   2.126  0.4108 -0.1256  0.0893
 1120SOL     OW 4245   6.040   1.175   3.129  0.1062  0.0488  0.0753
 1120SOL    HW2 4246   6.010   1.090   3.162  1.3543 -0.6284 -0.4561
 1120SOL    HW3 4247   6.016   1.174   3.036 -2.4205  1.4920  0.6481
 1120SOL    MW4 4248   6.033   1.164   3.121 -0.0625  0.1499  0.0808
 1121SOL     OW 4249   4.731   0.912   4.239  0.0729  0.0578 -0.1533
 1121SOL    HW2 4250   4.777   0.963   4.306  0.1073  1.6467 -1.3420
 1121SOL    HW3 4251   4.729   0.823   4.275  1.4915  0.5331  1.2373
 1121SOL    MW4 4252   4.737   0.907   4.253  0.2646  0.3301 -0.1267
 1122SOL     OW 4253   5.837   2.735   2.790  0.6648  0.4631  0.0265
 1122SOL    HW2 4254   5.864   2.826   2.799  0.5728  0.5836 -0.8604
 1122SOL    HW3 4255   5.855   2.696   2.876  0.3620  1.3977  0.5289
 1122SOL    MW4 4256   5.843   2.742   2.803  0.6127  0.6023 -0.0242
 1123SOL     OW 4257   1.680   6.059   1.351  0.7238  0.4876 -0.2221
 1123SOL    HW2 4258   1.688   6.149   1.382  0.7775  1.3596 -2.5363
 1123SOL    HW3 4259   1.712   6.005   1.423  3.4958  2.4729  0.1891
 1123SOL    MW4 4260   1.685   6.063   1.364  1.0966  0.8646 -0.4732
 1124SOL     OW 4261   1.113   1.231   3.292  0.2561  0.2000 -0.0304
 1124SOL    HW2 4262   1.102   1.288   3.369 -3.0198 -0.7188  0.3377
 1124SOL    HW3 4263   1.076   1.282   3.220  0.6854 -0.0673 -0.4415
 1124SOL    MW4 4264   1.106   1.246   3.293 -0.1195  0.0435 -0.0360
 1125SOL     OW 4265   3.976   5.864   0.959 -0.2368 -0.0330 -0.0726
 1125SOL    HW2 4266   3.951   5.890   0.871 -0.2405  0.0540 -0.0462
 1125SOL    HW3 4267   3.977   5.768   0.957 -0.4314 -0.0348 -0.1120
 1125SOL    MW4 4268   3.973   5.855   0.947 -0.2629 -0.0217 -0.0743
 1126SOL     OW 4269   4.122   2.602   3.564  0.2964  0.0774  0.4858
 1126SOL    HW2 4270   4.194   2.644   3.517  0.3123 -0.2630  0.1987
 1126SOL    HW3 4271   4.157   2.517   3.591  0.2011  0.1646  0.8881
 1126SOL    MW4 4272   4.136   2.596   3.561  0.2859  0.0440  0.5010
 1127SOL     OW 4273   1.713   0.226   1.458 -0.4540 -0.2301 -0.0794
 1127SOL    HW2 4274   1.638   0.182   1.497 -1.8487  0.0762 -2.2393
 1127SOL    HW3 4275   1.697   0.320   1.472 -0.5512 -0.1585 -0.6205
 1127SOL    MW4 4276   1.701   0.233   1.465 -0.6508 -0.1802 -0.4358
 1128SOL     OW 4277   6.006   4.858   6.302 -0.1171 -0.2515  0.0754
 1128SOL    HW2 4278   6.045   4.856   6.389 -0.6101  0.3459  0.3214
 1128SOL    HW3 4279   6.075   4.828   6.244  0.1948 -0.7189  0.6804
 1128SOL    MW4 4280   6.020   4.854   6.306 -0.1410 -0.2343  0.1877
 1129SOL     OW 4281   3.304   1.390   6.079  0.1625 -0.0934 -0.0147
 1129SOL    HW2 4282   3.357   1.418   6.005  3.1983  0.0940  2.0609
 1129SOL    HW3 4283   3.296   1.295   6.070 -0.0105  0.0022 -0.8746
 1129SOL    MW4 4284   3.310   1.381   6.068  0.5402 -0.0560  0.1457
 1130SOL     OW 4285   4.348   2.259   4.542 -0.0865  0.2064 -0.1657
 1130SOL    HW2 4286   4.403   2.188   4.573 -2.0472 -1.6016 -0.5716
 1130SOL    HW3 4287   4.258   2.226   4.552 -1.0755  2.5589 -0.5449
 1130SOL    MW4 4288   4.343   2.245   4.547 -0.4757  0.2783 -0.2693
 1131SOL     OW 4289   1.645   5.771   0.460  0.5995  0.5106 -0.2750
 1131SOL    HW2 4290   1.618   5.830   0.389 -2.1444  1.5199  1.4516
 1131SOL    HW3 4291   1.658   5.829   0.535  1.4396 -0.7519  0.5923
 1131SOL    MW4 4292   1.643   5.786   0.460  0.3483  0.4772  0.0672
 1132SOL     OW 4293   2.503   2.494   1.631 -0.4471  0.0160  0.6841
 1132SOL    HW2 4294   2.468   2.410   1.600 -0.5695  0.1672  0.4171
 1132SOL    HW3 4295   2.582   2.508   1.578 -0.8102  0.4104  0.2423
 1132SOL    MW4 4296   2.509   2.485   1.620 -0.5111  0.0880  0.5906
 1133SOL     OW 4297   1.255   0.694   3.875 -0.4762 -0.2784  0.1961
 1133SOL    HW2 4298   1.249   0.782   3.914  3.7804  0.3389 -0.0426
 1133SOL    HW3 4299   1.224   0.706   3.785  1.0162  1.2997 -0.1578
 1133SOL    MW4 4300   1.250   0.707   3.869  0.2823  0.0112  0.1179
 1134SOL     OW 4301   2.731   4.267   4.314 -0.3583  0.2358  0.2467
 1134SOL    HW2 4302   2.757   4.224   4.232 -0.4564  0.4727  0.0890
 1134SOL    HW3 4303   2.743   4.361   4.296 -1.0028  0.3327  0.2785
 1134SOL    MW4 4304   2.736   4.274   4.300 -0.4563  0.2798  0.2301
 1135SOL     OW 4305   3.617   3.436   0.253 -0.7998 -0.0504  0.6038
 1135SOL    HW2 4306   3.687   3.409   0.194 -1.2338  1.7207 -0.8283
 1135SOL    HW3 4307   3.649   3.414   0.341  1.0988 -0.2077 -0.0813
 1135SOL    MW4 4308   3.630   3.430   0.257 -0.6065  0.1625  0.3244
 1136SOL     OW 4309   2.891   0.175   0.984  0.3435  0.4680 -0.1188
 1136SOL    HW2 4310   2.843   0.092   0.978  1.7031 -0.5096  1.5998
 1136SOL    HW3 4311   2.975   0.157   0.941  1.1275  0.5190  1.3241
 1136SOL    MW4 4312   2.896   0.162   0.977  0.6263  0.3457  0.2983
 1137SOL     OW 4313   1.436   6.432   5.245  0.1303  0.0613  0.0281
 1137SOL    HW2 4314   1.489   6.406   5.170 -0.1410  1.2661 -0.5948
 1137SOL    HW3 4315   1.396   6.350   5.276  1.5310 -0.7028 -0.1156
 1137SOL    MW4 4316   1.438   6.418   5.239  0.2793  0.1195 -0.0730
 1138SOL     OW 4317   5.134   0.819   5.984 -0.9483  0.3998 -0.0707
 1138SOL    HW2 4318   5.049   0.819   6.027 -1.9927  0.0243 -2.0392
 1138SOL    HW3 4319   5.116   0.849   5.895  1.1470  1.3128 -0.2505
 1138SOL    MW4 4320   5.120   0.823   5.978 -0.8097  0.4707 -0.3542
 1139SOL     OW 4321   1.421   2.370   6.442 -0.4307  0.3750 -0.1031
 1139SOL    HW2 4322   1.328   2.366   6.422 -0.6422  0.0781  0.8945
 1139SOL    HW3 4323   1.463   2.325   6.368 -0.8820  2.3157 -1.6129
 1139SOL    MW4 4324   1.414   2.363   6.430 -0.5182  0.5919 -0.1707
 1140SOL     OW 4325   0.494   4.027   3.956  0.2321  0.2283  0.7044
 1140SOL    HW2 4326   0.514   3.934   3.972  0.3389  0.2588  0.7511
 1140SOL    HW3 4327   0.409   4.041   3.998 -0.0672  0.0068  0.1905
 1140SOL    MW4 4328   0.486   4.016   3.964  0.2067  0.2031  0.6428
 1141SOL     OW 4329   3.736   5.662   4.168 -0.0506  0.4281 -0.1149
 1141SOL    HW2 4330   3.796   5.681   4.096  0.2828 -1.7678 -0.4671
 1141SOL    HW3 4331   3.790   5.621   4.235 -0.6622  0.9970  0.7604
 1141SOL    MW4 4332   3.751   5.659   4.167 -0.0873  0.2135 -0.0459
 1142SOL     OW 4333   3.100   0.681   6.440  0.0521  0.2829 -0.1760
 1142SOL    HW2 4334   3.058   0.713   6.520 -1.3980 -1.1931 -0.2858
 1142SOL    HW3 4335   3.140   0.758   6.401  1.9222  0.8612  2.5776
 1142SOL    MW4 4336   3.100   0.695   6.446  0.1075  0.1645  0.1728
 1143SOL     OW 4337   0.541   5.968   4.591  0.3687  0.3373  0.6483
 1143SOL    HW2 4338   0.585   5.901   4.539 -1.6361 -0.8556  0.3791
 1143SOL    HW3 4339   0.500   6.026   4.526 -2.2351 -1.2200  0.7690
 1143SOL    MW4 4340   0.542   5.967   4.575 -0.2393 -0.0255  0.6287
 1144SOL     OW 4341   4.182   4.603   4.077  0.9260 -0.1507  0.0995
 1144SOL    HW2 4342   4.165   4.682   4.128  1.1656 -1.0808  1.6888
 1144SOL    HW3 4343   4.103   4.550   4.088  1.4689 -0.8833  0.5168
 1144SOL    MW4 4344   4.170   4.606   4.085  1.0293 -0.3701  0.3642
 1145SOL     OW 4345   3.826   1.015   6.140  0.5423  0.3060  0.2618
 1145SOL    HW2 4346   3.855   1.042   6.227  0.6870 -1.7617  0.9103
 1145SOL    HW3 4347   3.768   0.940   6.156  0.8934 -0.3789 -1.4302
 1145SOL    MW4 4348   3.822   1.008   6.153  0.6077 -0.0572  0.1241
 1146SOL     OW 4349   5.403   4.738   1.929 -0.3692 -0.0033 -0.0169
 1146SOL    HW2 4350   5.371   4.717   1.841  1.4932  0.2667 -0.7989
 1146SOL    HW3 4351   5.420   4.832   1.927 -2.3221  0.4354  1.3470
 1146SOL    MW4 4352   5.401   4.748   1.917 -0.3811  0.0902  0.0599
 1147SOL     OW 4353   6.328   2.276   5.904  0.0615 -0.7340  0.2839
 1147SOL    HW2 4354   6.329   2.181   5.902  0.0683 -0.7938  1.7959
 1147SOL    HW3 4355   6.303   2.298   5.994  1.0139  0.6856  0.2383
 1147SOL    MW4 4356   6.325   2.267   5.916  0.1880 -0.5546  0.4774
 1148SOL     OW 4357   0.879   5.383   6.260  0.6633 -0.4457 -0.3208
 1148SOL    HW2 4358   0.830   5.303   6.240  0.4580 -0.4554  0.2251
 1148SOL    HW3 4359   0.965   5.352   6.290  0.8343 -0.4404 -0.7922
 1148SOL    MW4 4360   0.884   5.368   6.261  0.6588 -0.4463 -0.3110
 1149SOL     OW 4361   1.655   1.617   5.260  0.2265 -0.0164  0.3637
 1149SOL    HW2 4362   1.680   1.691   5.315  0.7834  0.0151  0.0755
 1149SOL    HW3 4363   1.588   1.652   5.202  0.1171  0.1224  0.5708
 1149SOL    MW4 4364   1.649   1.631   5.260  0.2855  0.0061  0.3530
 1150SOL     OW 4365   3.043   3.735   4.582 -0.6378  0.6397  0.1854
 1150SOL    HW2 4366   3.066   3.774   4.667 -0.3244  1.1291 -0.1184
 1150SOL    HW3 4367   3.128   3.711   4.544 -0.6272  2.0847 -0.7738
 1150SOL    MW4 4368   3.057   3.737   4.588 -0.5951  0.8949  0.0188
 1151SOL     OW 4369   3.956   2.407   0.792  0.3787  0.6907 -0.4205
 1151SOL    HW2 4370   4.042   2.400   0.833  0.6370  0.0117 -1.0564
 1151SOL    HW3 4371   3.971   2.385   0.700 -0.5148  0.3505 -0.4959
 1151SOL    MW4 4372   3.969   2.403   0.785  0.2949  0.5563 -0.5143
 1152SOL     OW 4373   2.437   5.137   4.370  0.3842  0.1192 -0.0811
 1152SOL    HW2 4374   2.524   5.137   4.409 -0.7804 -0.9459  2.7877
 1152SOL    HW3 4375   2.382   5.180   4.435 -1.4235 -0.1154 -1.3812
 1152SOL    MW4 4376   2.441   5.143   4.384 -0.0080 -0.0522  0.1259
 1153SOL     OW 4377   1.401   4.285   2.552 -0.0765  0.0332  0.4776
 1153SOL    HW2 4378   1.341   4.355   2.578  1.2718  2.1097 -1.5639
 1153SOL    HW3 4379   1.479   4.298   2.607  0.6401  0.9806 -0.6985
 1153SOL    MW4 4380   1.404   4.296   2.563  0.1959  0.4322  0.0531
 1154SOL     OW 4381   2.736   1.699   1.311 -0.2411  0.1928 -0.1659
 1154SOL    HW2 4382   2.667   1.765   1.321 -0.0735  0.4685 -0.7212
 1154SOL    HW3 4383   2.720   1.636   1.380 -1.6863 -0.3152 -0.9249
 1154SOL    MW4 4384   2.725   1.700   1.321 -0.4097  0.1621 -0.3393
 1155SOL     OW 4385   2.721   0.950   5.290 -0.8640  0.0865 -0.0118
 1155SOL    HW2 4386   2.749   0.977   5.377 -0.5163  1.3883 -0.5023
 1155SOL    HW3 4387   2.777   0.875   5.269  1.1699  1.5983 -0.2938
 1155SOL    MW4 4388   2.732   0.944   5.299 -0.5498  0.4577 -0.1137
 1156SOL     OW 4389   0.811   4.944   1.623 -0.1774  0.8833 -0.1309
 1156SOL    HW2 4390   0.868   4.983   1.689  0.4123 -0.1134 -0.0229
 1156SOL    HW3 4391   0.747   4.893   1.674 -2.2785  3.3160 -0.1549
 1156SOL    MW4 4392   0.810   4.942   1.639 -0.3768  1.0728 -0.1198
 1157SOL     OW 4393   2.999   1.377   0.906 -0.3041  0.3477 -0.1167
 1157SOL    HW2 4394   3.052   1.324   0.965  0.9828  0.9322 -0.7086
 1157SOL    HW3 4395   2.909   1.352   0.926  0.0245  0.9336  2.4930
 1157SOL    MW4 4396   2.994   1.367   0.916 -0.0910  0.5021  0.1495
 1158SOL     OW 4397   2.366   5.849   1.524  0.7860 -0.3015 -0.9979
 1158SOL    HW2 4398   2.331   5.801   1.599  1.5466  0.2553 -0.2651
 1158SOL    HW3 4399   2.460   5.830   1.525  1.3925  2.2721  0.2041
 1158SOL    MW4 4400   2.374   5.840   1.534  0.9664  0.1115 -0.7426
 1159SOL     OW 4401   0.435   4.737   4.658 -0.0780 -0.0322 -0.3448
 1159SOL    HW2 4402   0.361   4.795   4.676 -1.3855 -1.6411 -0.3306
 1159SOL    HW3 4403   0.507   4.773   4.709 -0.8735  1.4976 -0.2482
 1159SOL    MW4 4404   0.435   4.749   4.667 -0.3555 -0.0426 -0.3302
 1160SOL     OW 4405   0.719   4.704   1.455 -0.2509  0.6148 -0.2222
 1160SOL    HW2 4406   0.628   4.730   1.439  0.0816  1.2370 -1.1931
 1160SOL    HW3 4407   0.739   4.640   1.387 -0.3464 -0.4994  0.7741
 1160SOL    MW4 4408   0.709   4.699   1.444 -0.2196  0.5499 -0.2188
 1161SOL     OW 4409   5.963   2.564   2.166 -0.1225  0.2959  0.0422
 1161SOL    HW2 4410   5.983   2.588   2.256  0.5253 -1.7335  0.5032
 1161SOL    HW3 4411   6.003   2.632   2.113  2.7275 -0.3428  1.1918
 1161SOL    MW4 4412   5.971   2.576   2.171  0.3390 -0.0561  0.2547
 1162SOL     OW 4413   4.091   5.613   5.799 -0.1907  0.2908  0.0733
 1162SOL    HW2 4414   4.013   5.580   5.844  0.3586  0.0356  0.8448
 1162SOL    HW3 4415   4.062   5.626   5.708 -0.5596 -1.8688 -0.1721
 1162SOL    MW4 4416   4.077   5.610   5.793 -0.1669 -0.0278  0.1427
 1163SOL     OW 4417   2.812   6.060   6.448 -0.3303  0.3823  0.2227
 1163SOL    HW2 4418   2.824   6.153   6.429  0.7807 -0.1448 -1.9728
 1163SOL    HW3 4419   2.737   6.034   6.394  1.7226 -0.7503 -2.3130
 1163SOL    MW4 4420   2.804   6.069   6.439  0.0871  0.1633 -0.4015
 1164SOL     OW 4421   0.649   0.109   5.611 -0.6876 -0.4784  0.5926
 1164SOL    HW2 4422   0.732   0.104   5.563  0.3216 -1.2708  2.3378
 1164SOL    HW3 4423   0.606   0.025   5.594 -0.5374 -0.5790  0.7066
 1164SOL    MW4 4424   0.654   0.097   5.602 -0.5346 -0.5962  0.8379
 1165SOL     OW 4425   5.951   2.630   1.010 -0.3467  0.4064  0.2117
 1165SOL    HW2 4426   5.967   2.662   1.099  0.4389  0.2163  0.1460
 1165SOL    HW3 4427   5.860   2.600   1.012 -0.1190 -0.2778  1.1695
 1165SOL    MW4 4428   5.941   2.630   1.022 -0.2130  0.2910  0.3294
 1166SOL     OW 4429   1.194   6.154   5.079 -0.0413  0.1874  0.1540
 1166SOL    HW2 4430   1.133   6.092   5.039  0.4890  0.2171 -0.7203
 1166SOL    HW3 4431   1.188   6.136   5.173  1.3754 -2.3875 -0.1728
 1166SOL    MW4 4432   1.185   6.143   5.086  0.2156 -0.1484 -0.0044
 1167SOL     OW 4433   1.694   2.476   6.260 -0.0589 -0.0203 -0.1886
 1167SOL    HW2 4434   1.681   2.453   6.353  1.0260 -0.4657 -0.1300
 1167SOL    HW3 4435   1.660   2.401   6.212  1.5073 -0.8813 -0.0536
 1167SOL    MW4 4436   1.688   2.463   6.266  0.2909 -0.1926 -0.1631
 1168SOL     OW 4437   1.736   6.051   5.443  0.1790 -0.0952 -0.2367
 1168SOL    HW2 4438   1.660   6.055   5.501 -1.5348 -1.6665 -2.1993
 1168SOL    HW3 4439   1.712   6.105   5.368  1.2820 -0.1140 -0.6199
 1168SOL    MW4 4440   1.722   6.059   5.441  0.0984 -0.3050 -0.5462
 1169SOL     OW 4441   0.643   3.310   5.830  0.0978  0.4026 -0.4925
 1169SOL    HW2 4442   0.589   3.388   5.830 -0.6090 -0.0477  1.0701
 1169SOL    HW3 4443   0.595   3.247   5.777 -0.0872  0.5412 -0.4888
 1169SOL    MW4 4444   0.630   3.312   5.823 -0.0198  0.3615 -0.2859
 1170SOL     OW 4445   2.398   6.377   4.593  0.0520 -0.6327 -0.2518
 1170SOL    HW2 4446   2.357   6.313   4.535  0.9864  0.0462 -1.7082
 1170SOL    HW3 4447   2.457   6.325   4.648 -0.4419 -1.2160 -0.2617
 1170SOL    MW4 4448   2.400   6.362   4.593  0.1101 -0.6201 -0.4453
 1171SOL     OW 4449   0.396   5.748   1.828  0.5691  0.3947 -0.1065
 1171SOL    HW2 4450   0.377   5.660   1.861  1.1306  0.7253  1.1414
 1171SOL    HW3 4451   0.487   5.744   1.800  0.3332  0.3474 -0.9073
 1171SOL    MW4 4452   0.405   5.735   1.829  0.6121  0.4321 -0.0475
 1172SOL     OW 4453   3.232   1.558   3.985  0.4960  0.1022  0.0649
 1172SOL    HW2 4454   3.264   1.629   3.929  0.7796  1.2774  1.6405
 1172SOL    HW3 4455   3.312   1.516   4.018  0.4011  0.7690  1.2042
 1172SOL    MW4 4456   3.247   1.562   3.982  0.5209  0.3452  0.4231
 1173SOL     OW 4457   2.008   4.865   2.956  0.7295  0.4725 -0.0080
 1173SOL    HW2 4458   1.981   4.880   3.046  0.0540  0.5976 -0.2297
 1173SOL    HW3 4459   1.990   4.772   2.940 -0.5697  0.7783 -0.4763
 1173SOL    MW4 4460   2.002   4.855   2.966  0.4689  0.5294 -0.0991
 1174SOL     OW 4461   0.132   1.425   5.048  0.3961 -0.3306  0.5688
 1174SOL    HW2 4462   0.060   1.431   4.985  2.4549 -0.0679 -1.9236
 1174SOL    HW3 4463   0.180   1.507   5.036  1.7254 -0.9672  1.3720
 1174SOL    MW4 4464   0.129   1.437   5.038  0.8431 -0.3799  0.3459
 1175SOL     OW 4465   3.604   2.396   1.213  0.2881 -0.8751 -0.6449
 1175SOL    HW2 4466   3.562   2.315   1.183 -0.5370 -0.0329 -1.8811
 1175SOL    HW3 4467   3.536   2.442   1.262  0.2629 -0.2526 -1.2490
 1175SOL    MW4 4468   3.590   2.392   1.215  0.1759 -0.6818 -0.8877
 1176SOL     OW 4469   1.018   4.698   0.226 -0.4195 -0.3109 -0.5484
 1176SOL    HW2 4470   1.101   4.661   0.256 -2.1018 -1.4064  3.3739
 1176SOL    HW3 4471   0.958   4.624   0.224 -2.4041  1.1389  1.4070
 1176SOL    MW4 4472   1.021   4.683   0.229 -0.9033 -0.2642  0.2271
 1177SOL     OW 4473   5.360   3.250   5.707 -0.2466 -0.2416 -0.2735
 1177SOL    HW2 4474   5.410   3.290   5.778  1.1504  0.3260 -1.5344
 1177SOL    HW3 4475   5.278   3.222   5.748  0.2904  0.5778  1.4263
 1177SOL    MW4 4476   5.356   3.251   5.722  0.0086 -0.0586 -0.2156
 1178SOL     OW 4477   1.518   4.381   0.462 -0.6719 -0.2581 -0.0013
 1178SOL    HW2 4478   1.457   4.317   0.426  0.0423 -0.4930 -0.8451
 1178SOL    HW3 4479   1.603   4.357   0.424 -0.3859  1.2047 -0.3558
 1178SOL    MW4 4480   1.521   4.369   0.452 -0.5400 -0.0961 -0.1594
 1179SOL     OW 4481   2.113   4.582   2.697  0.1213  0.6177  0.3621
 1179SOL    HW2 4482   2.064   4.576   2.616  0.3114 -1.3154  0.3283
 1179SOL    HW3 4483   2.147   4.493   2.711  1.6973  1.3527  1.5547
 1179SOL    MW4 4484   2.111   4.569   2.688  0.3543  0.4596  0.5150
 1180SOL     OW 4485   2.426   5.981   4.713  0.3078 -0.6105 -0.0527
 1180SOL    HW2 4486   2.484   5.933   4.653 -0.4623 -0.3045 -1.0672
 1180SOL    HW3 4487   2.346   5.995   4.663 -0.1347  0.1877  0.8478
 1180SOL    MW4 4488   2.423   5.976   4.698  0.1478 -0.4648 -0.0678
 1181SOL     OW 4489   3.549   6.419   0.520 -0.2147  0.0465  0.2133
 1181SOL    HW2 4490   3.582   6.508   0.529  0.0601 -0.2092  2.2498
 1181SOL    HW3 4491   3.625   6.368   0.492  0.1873  0.1070  1.1551
 1181SOL    MW4 4492   3.563   6.424   0.518 -0.1254  0.0207  0.6062
 1182SOL     OW 4493   1.178   3.534   4.479  0.5872 -0.2126 -0.3730
 1182SOL    HW2 4494   1.121   3.583   4.421  1.4294 -0.4165 -1.4086
 1182SOL    HW3 4495   1.265   3.574   4.467  0.5276  0.7494  1.9081
 1182SOL    MW4 4496   1.182   3.546   4.470  0.6904 -0.1125 -0.2087
 1183SOL     OW 4497   1.721   2.606   3.544  0.4581 -0.1226  0.3577
 1183SOL    HW2 4498   1.644   2.645   3.587  1.6877 -0.4319  3.0316
 1183SOL    HW3 4499   1.722   2.516   3.575  1.6235 -0.2571 -0.0532
 1183SOL    MW4 4500   1.711   2.599   3.554  0.7741 -0.1811  0.6563
 1184SOL     OW 4501   4.976   2.787   4.276 -0.2153  0.6747  0.0944
 1184SOL    HW2 4502   4.888   2.816   4.300 -0.5628 -0.9261  0.9156
 1184SOL    HW3 4503   5.030   2.808   4.352  0.1250  1.6307 -0.3987
 1184SOL    MW4 4504   4.971   2.793   4.289 -0.2162  0.5896  0.1377
 1185SOL     OW 4505   3.518   0.098   5.138  0.0907 -0.2458  0.4556
 1185SOL    HW2 4506   3.464   0.023   5.112  0.7757 -0.8590  0.7700
 1185SOL    HW3 4507   3.454   0.166   5.161 -0.5756 -1.1195  1.3150
 1185SOL    MW4 4508   3.502   0.097   5.138  0.0932 -0.4420  0.6105
 1186SOL     OW 4509   3.123   3.362   5.757  0.0123 -0.2372  0.3968
 1186SOL    HW2 4510   3.070   3.390   5.831 -0.8943 -0.5721 -0.1091
 1186SOL    HW3 4511   3.114   3.267   5.755 -0.7664 -0.1672 -0.7018
 1186SOL    MW4 4512   3.115   3.353   5.766 -0.2101 -0.2721  0.1851
 1187SOL     OW 4513   1.532   2.446   4.284  0.1085  0.2247 -0.4681
 1187SOL    HW2 4514   1.618   2.403   4.288 -0.2651 -0.5236 -0.1757
 1187SOL    HW3 4515   1.472   2.381   4.321 -0.4868  0.9985 -0.0628
 1187SOL    MW4 4516   1.536   2.431   4.289 -0.0193  0.2281 -0.3761
 1188SOL     OW 4517   4.633   4.895   5.962 -0.2592 -0.8507  0.1575
 1188SOL    HW2 4518   4.674   4.954   5.898  0.2546  0.2459  1.4592
 1188SOL    HW3 4519   4.539   4.914   5.955 -0.1542 -0.3246  0.1297
 1188SOL    MW4 4520   4.626   4.905   5.953 -0.1776 -0.6366  0.3256
 1189SOL     OW 4521   3.200   0.427   1.196  0.6612  0.4722  0.5321
 1189SOL    HW2 4522   3.164   0.340   1.214 -2.7483  1.7464  0.6387
 1189SOL    HW3 4523   3.216   0.465   1.283  2.1371  0.0329  0.4862
 1189SOL    MW4 4524   3.198   0.421   1.210  0.4061  0.5824  0.5401
 1190SOL     OW 4525   5.781   0.256   2.688 -0.1879  0.6941  0.0527
 1190SOL    HW2 4526   5.704   0.246   2.632 -0.8512  1.5296  0.8006
 1190SOL    HW3 4527   5.810   0.167   2.704 -1.4039  0.3303  0.3224
 1190SOL    MW4 4528   5.775   0.243   2.683 -0.4359  0.7563  0.1870
 1191SOL     OW 4529   0.022   2.355   2.312 -0.2850  0.4313 -0.0109
 1191SOL    HW2 4530  -0.065   2.322   2.333 -0.8855  1.0455 -1.4300
 1191SOL    HW3 4531   0.078   2.321   2.383 -1.4230 -1.0219  0.2437
 1191SOL    MW4 4532   0.018   2.346   2.324 -0.5144  0.3206 -0.1646
 1192SOL     OW 4533   4.875   3.107   0.625  0.3179  0.1233 -0.5309
 1192SOL    HW2 4534   4.883   3.195   0.589 -0.9214  0.1673 -0.7338
 1192SOL    HW3 4535   4.816   3.116   0.700  1.1362 -0.3438  0.1934
 1192SOL    MW4 4536   4.868   3.119   0.630  0.2624  0.0675 -0.4621
 1193SOL     OW 4537   0.050   3.351   2.114  0.1561 -0.0184 -0.1704
 1193SOL    HW2 4538   0.093   3.275   2.154 -0.0654 -0.1747 -0.2254
 1193SOL    HW3 4539   0.001   3.315   2.040  0.1730  0.2011 -0.2905
 1193SOL    MW4 4540   0.049   3.336   2.110  0.1291 -0.0101 -0.1935
 1194SOL     OW 4541   2.961   4.018   3.709  0.1577  0.9367  0.0397
 1194SOL    HW2 4542   2.989   4.005   3.799 -0.0231 -0.2071 -0.0429
 1194SOL    HW3 4543   2.984   3.936   3.665  1.0390  1.7993 -1.1748
 1194SOL    MW4 4544   2.968   4.005   3.715  0.2501  0.8996 -0.1314
 1195SOL     OW 4545   6.314   5.624   4.550  0.8128  0.4892  0.4638
 1195SOL    HW2 4546   6.368   5.560   4.504  0.3566  1.4205 -1.5065
 1195SOL    HW3 4547   6.226   5.611   4.514  0.7492  2.3140 -0.1712
 1195SOL    MW4 4548   6.309   5.614   4.539  0.7442  0.8529  0.1201
 1196SOL     OW 4549   4.086   2.955   5.006  0.4598  0.6396  0.1598
 1196SOL    HW2 4550   4.125   2.927   5.089 -0.5534  0.1982  0.5044
 1196SOL    HW3 4551   3.992   2.939   5.017  0.2465  1.0802 -0.8783
 1196SOL    MW4 4552   4.079   2.949   5.018  0.2979  0.6395  0.0683
 1197SOL     OW 4553   4.146   6.442   0.570  0.1037  0.5420 -0.2567
 1197SOL    HW2 4554   4.142   6.497   0.491  1.4396  0.0370 -0.7168
 1197SOL    HW3 4555   4.059   6.449   0.609 -0.5974  0.7926 -1.7927
 1197SOL    MW4 4556   4.134   6.450   0.564  0.1874  0.5085 -0.5201
 1198SOL     OW 4557   0.760   3.665   3.202  0.1669 -0.4996  0.1915
 1198SOL    HW2 4558   0.702   3.589   3.199 -0.0431 -0.3455 -2.9690
 1198SOL    HW3 4559   0.733   3.713   3.281 -2.4036 -1.6587  0.1022
 1198SOL    MW4 4560   0.749   3.662   3.212 -0.1999 -0.6322 -0.2373
 1199SOL     OW 4561   5.875   3.102   6.250 -0.3331  0.1108  0.2527
 1199SOL    HW2 4562   5.798   3.119   6.196 -0.0953  1.8028  0.3776
 1199SOL    HW3 4563   5.949   3.111   6.190 -0.1471  0.4415  0.5241
 1199SOL    MW4 4564   5.875   3.106   6.235 -0.2772  0.3777  0.3050
 1200SOL     OW 4565   3.998   2.010   1.450 -0.2599 -0.1960 -0.3551
 1200SOL    HW2 4566   4.024   1.930   1.403 -1.1676 -1.6188  1.4566
 1200SOL    HW3 4567   3.912   2.032   1.414 -0.3861 -0.5316 -0.2598
 1200SOL    MW4 4568   3.990   2.002   1.439 -0.3963 -0.4280 -0.1035
 1201SOL     OW 4569   0.011   1.443   3.162  0.5144  0.1576  0.4520
 1201SOL    HW2 4570  -0.014   1.353   3.141  0.8253  0.0675  0.4645
 1201SOL    HW3 4571   0.107   1.442   3.163  0.5182  0.3331  1.0981
 1201SOL    MW4 4572   0.020   1.431   3.159  0.5559  0.1688  0.5389
 1202SOL     OW 4573   4.944   3.448   3.346 -0.0927  0.5188  0.0170
 1202SOL    HW2 4574   4.967   3.431   3.437 -1.9299 -0.5547  0.3473
 1202SOL    HW3 4575   5.003   3.392   3.296 -1.0500 -1.2186  0.7437
 1202SOL    MW4 4576   4.955   3.438   3.352 -0.4614  0.1480  0.1565
 1203SOL     OW 4577   3.711   1.965   3.690 -0.1164  0.3567 -0.1547
 1203SOL    HW2 4578   3.620   1.990   3.674  0.6099  2.9126 -0.6708
 1203SOL    HW3 4579   3.729   1.995   3.779  1.0952  2.9428 -1.1674
 1203SOL    MW4 4580   3.701   1.972   3.700  0.1393  1.0351 -0.3564
 1204SOL     OW 4581   0.592   3.692   4.694  0.3105 -0.0099 -0.3605
 1204SOL    HW2 4582   0.550   3.774   4.669  0.2916 -0.4303 -1.7717
 1204SOL    HW3 4583   0.533   3.624   4.662  0.2614 -0.5945  0.9043
 1204SOL    MW4 4584   0.579   3.693   4.687  0.3015 -0.1425 -0.3798
 1205SOL     OW 4585   3.370   0.603   2.831  0.3319  0.1941 -0.0078
 1205SOL    HW2 4586   3.351   0.680   2.884 -0.0239  1.3364 -1.7304
 1205SOL    HW3 4587   3.309   0.608   2.758  1.3100 -0.9183 -0.9468
 1205SOL    MW4 4588   3.360   0.614   2.829  0.4140  0.1980 -0.3589
 1206SOL     OW 4589   5.198   3.775   1.517  0.4332 -0.3525  0.0050
 1206SOL    HW2 4590   5.109   3.807   1.501  0.6419  0.0600 -0.3270
 1206SOL    HW3 4591   5.235   3.761   1.430  0.6543 -0.6491  0.1432
 1206SOL    MW4 4592   5.191   3.777   1.503  0.4899 -0.3372 -0.0206
 1207SOL     OW 4593   2.825   5.218   2.573 -0.3367  0.2844  0.1898
 1207SOL    HW2 4594   2.820   5.125   2.550 -0.3600  0.7058 -1.6507
 1207SOL    HW3 4595   2.899   5.224   2.633  1.2686 -0.6135 -1.5740
 1207SOL    MW4 4596   2.834   5.206   2.578 -0.1280  0.2215 -0.2858
 1208SOL     OW 4597   0.919   0.076   3.385  0.8056  0.3811 -0.2428
 1208SOL    HW2 4598   0.976   0.135   3.434  0.8258 -0.6009  0.9705
 1208SOL    HW3 4599   0.860   0.039   3.451  0.7511 -0.9018 -0.9767
 1208SOL    MW4 4600   0.918   0.079   3.400  0.8010  0.0822 -0.1796
 1209SOL     OW 4601   4.969   5.298   5.339  0.8999  0.2811 -0.0532
 1209SOL    HW2 4602   4.882   5.337   5.345  1.1307  1.1990 -1.8832
 1209SOL    HW3 4603   4.954   5.204   5.333  0.0612  0.4061  0.0378
 1209SOL    MW4 4604   4.956   5.291   5.339  0.8197  0.4187 -0.2826
 1210SOL     OW 4605   2.348   5.191   0.293  0.4140  0.9413 -0.1379
 1210SOL    HW2 4606   2.315   5.261   0.235 -1.2044 -1.5543 -2.4936
 1210SOL    HW3 4607   2.273   5.134   0.307  1.2902  0.3746  2.9714
 1210SOL    MW4 4608   2.334   5.193   0.287  0.3161  0.5373 -0.0385
 1211SOL     OW 4609   0.165   1.163   0.175  0.3012 -0.4516 -0.1149
 1211SOL    HW2 4610   0.118   1.161   0.092 -0.0565  1.3917 -0.0036
 1211SOL    HW3 4611   0.245   1.211   0.157  0.1012  0.1951  0.6365
 1211SOL    MW4 4612   0.169   1.169   0.162  0.2276 -0.1231 -0.0011
 1212SOL     OW 4613   2.900   5.476   1.511 -0.5502 -0.2540 -0.4659
 1212SOL    HW2 4614   2.949   5.537   1.565  0.7942 -1.5076 -0.2040
 1212SOL    HW3 4615   2.883   5.523   1.429  0.6496  0.3874 -0.3589
 1212SOL    MW4 4616   2.904   5.490   1.507 -0.2145 -0.3347 -0.4172
 1213SOL     OW 4617   5.693   0.480   5.796  0.2967 -0.1746  0.5215
 1213SOL    HW2 4618   5.691   0.440   5.709 -0.2088 -1.3624  1.0533
 1213SOL    HW3 4619   5.722   0.409   5.854 -0.7259  0.1841  1.5078
 1213SOL    MW4 4620   5.696   0.465   5.792  0.0951 -0.2840  0.7218
 1214SOL     OW 4621   4.537   0.895   0.145  0.0289  0.3721 -0.0061
 1214SOL    HW2 4622   4.600   0.952   0.189  1.0800  0.0660 -1.0449
 1214SOL    HW3 4623   4.488   0.954   0.087  0.3028  0.3983 -0.2102
 1214SOL    MW4 4624   4.539   0.911   0.143  0.2037  0.3352 -0.1701
 1215SOL     OW 4625   4.567   3.678   5.405 -0.6373 -0.4708 -0.5011
 1215SOL    HW2 4626   4.479   3.640   5.401 -0.2299 -1.5890  0.4150
 1215SOL    HW3 4627   4.590   3.673   5.498 -0.0920  0.9750 -0.5419
 1215SOL    MW4 4628   4.558   3.672   5.417 -0.5116 -0.4276 -0.3856
 1216SOL     OW 4629   5.589   1.743   5.607  0.2765  0.1665 -0.1333
 1216SOL    HW2 4630   5.609   1.654   5.577  0.7911 -0.1823  1.1488
 1216SOL    HW3 4631   5.620   1.744   5.698 -0.6640  1.3396  0.1946
 1216SOL    MW4 4632   5.596   1.731   5.615  0.2203  0.2752  0.0791
 1217SOL     OW 4633   2.358   3.755   4.821  0.4531 -0.3149  0.6911
 1217SOL    HW2 4634   2.429   3.718   4.874  2.6572  0.6157 -1.4699
 1217SOL    HW3 4635   2.353   3.847   4.848  2.8376  0.6595 -1.7892
 1217SOL    MW4 4636   2.366   3.762   4.832  1.0585 -0.0635  0.0787
 1218SOL     OW 4637   5.552   5.341   2.311 -0.3771  0.5963  0.2860
 1218SOL    HW2 4638   5.466   5.338   2.270 -0.2152  0.3028 -0.0353
 1218SOL    HW3 4639   5.611   5.373   2.243  0.2213 -1.5986 -0.3156
 1218SOL    MW4 4640   5.548   5.344   2.297 -0.2768  0.2680  0.1643
 1219SOL     OW 4641   4.199   0.973   5.595 -0.6174  0.1225 -0.3379
 1219SOL    HW2 4642   4.178   0.900   5.535  0.9906 -1.9747  1.5019
 1219SOL    HW3 4643   4.153   0.951   5.676  2.0309 -0.3589  1.1343
 1219SOL    MW4 4644   4.190   0.960   5.597 -0.0558 -0.2177  0.0991
 1220SOL     OW 4645   4.319   0.601   2.306  0.0755  0.3150 -0.2261
 1220SOL    HW2 4646   4.334   0.506   2.304 -1.3901  0.0566 -1.6604
 1220SOL    HW3 4647   4.395   0.639   2.262 -0.4983 -0.4311 -1.9415
 1220SOL    MW4 4648   4.331   0.593   2.300 -0.1936  0.1824 -0.6417
 1221SOL     OW 4649   2.517   5.947   3.076  0.0345 -0.4290  0.3462
 1221SOL    HW2 4650   2.542   5.930   2.985  0.6614  0.0851  0.4111
 1221SOL    HW3 4651   2.542   5.868   3.124  1.1966 -0.0903  0.3367
 1221SOL    MW4 4652   2.524   5.935   3.070  0.2706 -0.3165  0.3535
 1222SOL     OW 4653   0.631   6.394   5.249  0.5646  0.0480  0.5828
 1222SOL    HW2 4654   0.639   6.366   5.158 -0.8852  0.4549  0.2986
 1222SOL    HW3 4655   0.619   6.488   5.244 -1.1543 -0.1176  1.0579
 1222SOL    MW4 4656   0.630   6.402   5.236  0.1465  0.0798  0.6080
 1223SOL     OW 4657   5.448   0.641   3.685  0.6125  0.0433  0.3757
 1223SOL    HW2 4658   5.521   0.649   3.747  2.4191  0.1990 -1.6288
 1223SOL    HW3 4659   5.408   0.728   3.684  2.2106  0.8163 -0.5121
 1223SOL    MW4 4660   5.453   0.654   3.693  1.0617  0.1659 -0.0059
 1224SOL     OW 4661   0.010   2.652   2.275 -0.2706 -0.1617  0.1952
 1224SOL    HW2 4662  -0.009   2.560   2.293 -1.4052  0.3577  1.9032
 1224SOL    HW3 4663  -0.076   2.692   2.262 -0.1919  1.4036  3.6036
 1224SOL    MW4 4664  -0.004   2.645   2.275 -0.4099  0.1133  0.8702
 1225SOL     OW 4665   3.298   2.545   5.781 -0.1811  0.0973  0.3552
 1225SOL    HW2 4666   3.321   2.455   5.802  0.8243  0.4882  1.0300
 1225SOL    HW3 4667   3.348   2.565   5.702 -0.0290  0.2028  0.4758
 1225SOL    MW4 4668   3.308   2.536   5.774 -0.0283  0.1628  0.4601
 1226SOL     OW 4669   3.247   5.800   5.177  0.9089 -0.3089  0.1435
 1226SOL    HW2 4670   3.239   5.878   5.122  0.8479 -0.8412 -0.6222
 1226SOL    HW3 4671   3.159   5.786   5.212  0.7898 -0.3380 -0.1579
 1226SOL    MW4 4672   3.235   5.808   5.174  0.8851 -0.3830  0.0027
 1227SOL     OW 4673   1.670   5.663   1.072 -0.4925  0.3896 -0.2953
 1227SOL    HW2 4674   1.705   5.752   1.081  1.3449 -0.3070 -0.2262
 1227SOL    HW3 4675   1.600   5.672   1.007  0.1799  1.7465 -0.8751
 1227SOL    MW4 4676   1.665   5.676   1.065 -0.1614  0.4767 -0.3627
 1228SOL     OW 4677   3.164   2.490   0.822  0.0346  0.5862  0.2388
 1228SOL    HW2 4678   3.132   2.532   0.742  0.8136  1.2104  0.2327
 1228SOL    HW3 4679   3.087   2.483   0.878 -0.5687 -0.0633 -0.6450
 1228SOL    MW4 4680   3.150   2.495   0.818  0.0578  0.5828  0.1214
 1229SOL     OW 4681   3.004   5.647   4.783  0.2285  0.0587  0.2600
 1229SOL    HW2 4682   2.951   5.712   4.736  0.6957  0.8475  0.7886
 1229SOL    HW3 4683   3.011   5.574   4.723  0.3587  0.8288 -0.6853
 1229SOL    MW4 4684   2.998   5.646   4.769  0.3073  0.2644  0.2050
 1230SOL     OW 4685   5.357   4.604   0.826  0.4693  0.0517 -0.1353
 1230SOL    HW2 4686   5.270   4.600   0.785 -0.0817 -0.2996  1.0237
 1230SOL    HW3 4687   5.340   4.636   0.915  1.4057 -1.0180  0.4525
 1230SOL    MW4 4688   5.343   4.608   0.832  0.5202 -0.1358  0.0951
 1231SOL     OW 4689   4.032   3.847   0.294 -0.2040  0.0851  0.0715
 1231SOL    HW2 4690   4.006   3.862   0.203  1.6945  0.0949 -0.5134
 1231SOL    HW3 4691   4.118   3.890   0.301 -0.7132  0.8500  2.1249
 1231SOL    MW4 4692   4.040   3.855   0.283 -0.0207  0.1873  0.2652
 1232SOL     OW 4693   5.359   1.064   0.693  0.2584  0.2088 -0.0789
 1232SOL    HW2 4694   5.284   1.017   0.728 -0.7200  1.9211  0.2376
 1232SOL    HW3 4695   5.392   1.115   0.767  0.1356  1.4239 -0.8382
 1232SOL    MW4 4696   5.354   1.064   0.707  0.1131  0.5950 -0.1373
 1233SOL     OW 4697   4.221   5.613   3.784 -0.0630  0.3275 -0.2939
 1233SOL    HW2 4698   4.296   5.561   3.754 -0.3243 -0.3232  0.1596
 1233SOL    HW3 4699   4.175   5.555   3.845 -0.2916  1.1432  0.3157
 1233SOL    MW4 4700   4.225   5.598   3.788 -0.1277  0.3493 -0.1536
 1234SOL     OW 4701   4.370   4.054   6.041 -0.6444 -0.0354  0.1522
 1234SOL    HW2 4702   4.345   4.146   6.042  2.2698  0.8922 -0.7968
 1234SOL    HW3 4703   4.394   4.034   6.131 -0.8487  0.2742  0.2760
 1234SOL    MW4 4704   4.370   4.063   6.053 -0.2869  0.1278  0.0433
 1235SOL     OW 4705   5.524   0.992   5.655  0.2403 -1.0140  0.5509
 1235SOL    HW2 4706   5.596   1.007   5.716  0.4448  1.1605 -0.1370
 1235SOL    HW3 4707   5.558   0.926   5.594  1.3459 -0.6190  0.7156
 1235SOL    MW4 4708   5.538   0.985   5.655  0.4131 -0.6750  0.4819
 1236SOL     OW 4709   3.287   6.330   4.826  0.2095  0.0835 -0.3179
 1236SOL    HW2 4710   3.333   6.390   4.768  0.4133 -1.7392 -2.1260
 1236SOL    HW3 4711   3.319   6.243   4.802 -0.4538 -0.8300  1.8610
 1236SOL    MW4 4712   3.297   6.327   4.815  0.1489 -0.2775 -0.2690
 1237SOL     OW 4713   0.517   1.853   1.755  0.8499  0.4292 -0.6324
 1237SOL    HW2 4714   0.538   1.788   1.688  0.3028  0.3054 -0.6854
 1237SOL    HW3 4715   0.527   1.937   1.710 -1.6324  0.3076 -1.5192
 1237SOL    MW4 4716   0.521   1.855   1.741  0.4502  0.3968 -0.7564
 1238SOL     OW 4717   1.131   2.293   2.787  0.0465 -0.3433 -0.5008
 1238SOL    HW2 4718   1.190   2.254   2.722 -0.1638  0.6472 -1.3112
 1238SOL    HW3 4719   1.160   2.384   2.794 -0.8507 -0.0668 -0.2870
 1238SOL    MW4 4720   1.143   2.300   2.779 -0.0996 -0.1761 -0.5796
 1239SOL     OW 4721   3.020   3.310   1.475  0.0830  0.4448  0.2002
 1239SOL    HW2 4722   2.995   3.222   1.446  1.0932  0.2669 -0.1464
 1239SOL    HW3 4723   3.016   3.364   1.396  0.5886  0.4647  0.1904
 1239SOL    MW4 4724   3.016   3.306   1.461  0.2830  0.4239  0.1532
 1240SOL     OW 4725   5.241   0.227   1.967  0.5558 -0.0637 -0.0406
 1240SOL    HW2 4726   5.224   0.209   2.060 -1.9490 -0.2416 -0.4598
 1240SOL    HW3 4727   5.315   0.171   1.945 -0.6312 -2.2576  1.1769
 1240SOL    MW4 4728   5.249   0.217   1.977  0.0687 -0.3766  0.0647
 1241SOL     OW 4729   6.352   0.111   2.784  0.0864 -0.1067  0.0281
 1241SOL    HW2 4730   6.322   0.199   2.760  1.2335  0.0408 -0.9563
 1241SOL    HW3 4731   6.439   0.125   2.821 -0.7080 -0.5958  2.2443
 1241SOL    MW4 4732   6.359   0.125   2.785  0.1329 -0.1518  0.1906
 1242SOL     OW 4733   1.741   5.449   2.013 -0.4679 -0.0356  0.0575
 1242SOL    HW2 4734   1.786   5.521   2.058  0.5797 -1.7072  1.7917
 1242SOL    HW3 4735   1.785   5.370   2.044 -1.0892 -1.4254 -2.3586
 1242SOL    MW4 4736   1.753   5.448   2.023 -0.4117 -0.4395 -0.0325
 1243SOL     OW 4737   4.254   2.371   3.637 -0.5018  0.1351  0.2777
 1243SOL    HW2 4738   4.302   2.396   3.716 -1.5052 -0.1260  0.9974
 1243SOL    HW3 4739   4.321   2.342   3.576  0.2571 -0.1220  1.2148
 1243SOL    MW4 4740   4.269   2.371   3.639 -0.5340  0.0667  0.4963
 1244SOL     OW 4741   2.465   2.546   5.980  0.1180  0.3724 -0.5323
 1244SOL    HW2 4742   2.550   2.554   6.025  1.2121 -1.8950 -2.0176
 1244SOL    HW3 4743   2.485   2.498   5.900 -2.4535  0.6659 -1.4302
 1244SOL    MW4 4744   2.479   2.541   5.975 -0.0769  0.1119 -0.8468
 1245SOL     OW 4745   4.020   3.931   3.203 -0.2419 -0.7477 -0.1333
 1245SOL    HW2 4746   4.006   3.859   3.265 -0.5954 -0.3250  0.2827
 1245SOL    HW3 4747   3.946   3.924   3.143  0.2181 -1.2927 -0.6484
 1245SOL    MW4 4748   4.008   3.920   3.203 -0.2278 -0.7639 -0.1464
 1246SOL     OW 4749   5.362   3.031   4.595 -0.0587 -0.0649  0.5904
 1246SOL    HW2 4750   5.328   3.042   4.685  3.2488 -1.5464  2.1702
 1246SOL    HW3 4751   5.394   3.118   4.572 -0.7726  0.2936  0.8992
 1246SOL    MW4 4752   5.362   3.044   4.604  0.2835 -0.2130  0.8396
 1247SOL     OW 4753   6.060   3.083   4.297 -0.2509  0.1686 -0.2045
 1247SOL    HW2 4754   6.010   3.087   4.216 -0.5915  0.0471 -0.0033
 1247SOL    HW3 4755   6.142   3.130   4.278 -0.0923 -0.3432 -0.7813
 1247SOL    MW4 4756   6.065   3.090   4.284 -0.2749  0.0851 -0.2541
 1248SOL     OW 4757   5.206   5.865   1.555 -0.2992  0.0892 -0.0193
 1248SOL    HW2 4758   5.283   5.876   1.610  0.2604  0.8282 -0.9093
 1248SOL    HW3 4759   5.238   5.879   1.466 -1.2859 -0.5169 -0.4884
 1248SOL    MW4 4760   5.221   5.869   1.550 -0.3556  0.1067 -0.1986
 1249SOL     OW 4761   0.917   1.291   1.769  0.1119  0.0090  0.2775
 1249SOL    HW2 4762   0.861   1.232   1.820 -0.2003 -2.3892 -2.5741
 1249SOL    HW3 4763   0.864   1.370   1.757 -0.6975 -0.2882  1.6634
 1249SOL    MW4 4764   0.902   1.294   1.774 -0.0361 -0.3466  0.0841
 1250SOL     OW 4765   4.709   2.740   0.082  0.3744  0.0563 -0.3363
 1250SOL    HW2 4766   4.655   2.669   0.115  1.5810 -0.7842 -0.1245
 1250SOL    HW3 4767   4.770   2.760   0.153 -1.2369  2.7761  0.4585
 1250SOL    MW4 4768   4.710   2.733   0.095  0.3210  0.3043 -0.2035
 1251SOL     OW 4769   2.684   0.517   0.886  0.2041  0.3553  0.1571
 1251SOL    HW2 4770   2.589   0.522   0.895 -0.2722 -1.4730 -2.6882
 1251SOL    HW3 4771   2.699   0.435   0.840  3.2688  0.2008  1.2229
 1251SOL    MW4 4772   2.673   0.507   0.881  0.5456  0.0937 -0.0777
 1252SOL     OW 4773   4.294   5.318   3.998  0.4786  0.3697 -0.2863
 1252SOL    HW2 4774   4.222   5.380   4.009  0.8111  0.6930  0.0822
 1252SOL    HW3 4775   4.250   5.233   3.986  0.0249  0.6605 -0.7596
 1252SOL    MW4 4776   4.278   5.315   3.998  0.4626  0.4507 -0.3002
 1253SOL     OW 4777   5.597   1.466   6.301 -0.7226 -0.1848  0.6510
 1253SOL    HW2 4778   5.602   1.372   6.320  1.4657 -0.0876  0.8685
 1253SOL    HW3 4779   5.686   1.498   6.319 -1.2770  1.8205  0.0164
 1253SOL    MW4 4780   5.610   1.457   6.306 -0.5070  0.0926  0.5959
 1254SOL     OW 4781   4.111   3.275   3.509 -0.0271 -0.1707  0.1056
 1254SOL    HW2 4782   4.100   3.293   3.415  2.9517 -2.4700 -0.8318
 1254SOL    HW3 4783   4.079   3.185   3.519 -0.4471  0.1080  1.3455
 1254SOL    MW4 4784   4.105   3.265   3.498  0.3105 -0.4373  0.1455
 1255SOL     OW 4785   0.291   4.112   6.479  0.2229 -0.1834 -0.3441
 1255SOL    HW2 4786   0.318   4.072   6.396 -0.1843  0.1729 -0.6540
 1255SOL    HW3 4787   0.197   4.099   6.483 -0.2764  2.4145 -1.4129
 1255SOL    MW4 4788   0.282   4.105   6.468  0.1033  0.2063 -0.5260
 1256SOL     OW 4789   5.884   4.616   1.787 -0.1463 -0.3593  0.1255
 1256SOL    HW2 4790   5.790   4.618   1.773 -0.1160  0.5183 -0.0349
 1256SOL    HW3 4791   5.895   4.600   1.880 -0.4597 -0.3209  0.1691
 1256SOL    MW4 4792   5.873   4.614   1.797 -0.1836 -0.2384  0.1101
 1257SOL     OW 4793   0.019   3.797   0.644 -0.3346 -0.3301 -0.0402
 1257SOL    HW2 4794   0.089   3.801   0.579 -0.5051 -2.2674 -0.4123
 1257SOL    HW3 4795   0.060   3.763   0.723 -0.4292  0.6191  0.4316
 1257SOL    MW4 4796   0.033   3.793   0.646 -0.3696 -0.4604 -0.0270
 1258SOL     OW 4797   3.320   2.454   2.148 -0.2623  0.0298  0.1769
 1258SOL    HW2 4798   3.380   2.473   2.077  1.4969  2.5024  2.1333
 1258SOL    HW3 4799   3.351   2.372   2.186 -0.1844 -0.4125 -0.8399
 1258SOL    MW4 4800   3.332   2.446   2.144 -0.0199  0.2977  0.3008
 1259SOL     OW 4801   6.110   2.297   4.119  0.4795 -0.0633 -0.1249
 1259SOL    HW2 4802   6.131   2.233   4.187 -3.6362  1.6104  3.2256
 1259SOL    HW3 4803   6.165   2.373   4.139 -0.2324  0.1759  0.9881
 1259SOL    MW4 4804   6.120   2.299   4.131 -0.1574  0.1891  0.4640
 1260SOL     OW 4805   1.777   5.876   1.826 -0.1390 -0.4025  0.1719
 1260SOL    HW2 4806   1.738   5.951   1.781 -0.3399 -0.7347 -0.2107
 1260SOL    HW3 4807   1.703   5.816   1.840 -0.0425 -0.3918  0.7652
 1260SOL    MW4 4808   1.762   5.878   1.822 -0.1528 -0.4449  0.1997
 1261SOL     OW 4809   5.333   2.402   6.405 -0.1916 -0.3217 -0.1742
 1261SOL    HW2 4810   5.400   2.342   6.437 -0.1298 -0.3158 -0.2929
 1261SOL    HW3 4811   5.275   2.348   6.351  1.2873  0.1714 -2.4084
 1261SOL    MW4 4812   5.334   2.387   6.402  0.0117 -0.2559 -0.4846
 1262SOL     OW 4813   5.015   4.730   0.179 -0.5536  0.3187  0.0051
 1262SOL    HW2 4814   5.088   4.687   0.223 -2.3064 -0.7216  2.0865
 1262SOL    HW3 4815   5.055   4.773   0.103  1.8666 -1.9409 -0.1566
 1262SOL    MW4 4816   5.030   4.730   0.175 -0.4655 -0.1167  0.2584
 1263SOL     OW 4817   4.719   1.609   1.801  0.0990 -0.0356 -1.1105
 1263SOL    HW2 4818   4.680   1.693   1.824 -2.1355 -0.9921 -1.1074
 1263SOL    HW3 4819   4.732   1.565   1.885 -0.2659 -0.3266 -1.2073
 1263SOL    MW4 4820   4.716   1.614   1.815 -0.2440 -0.2002 -1.1229
 1264SOL     OW 4821   2.696   1.306   2.737 -0.0154  0.0092 -0.3879
 1264SOL    HW2 4822   2.687   1.347   2.823  0.0350 -0.5293 -0.1212
 1264SOL    HW3 4823   2.714   1.378   2.677  1.1529  0.2598  0.2382
 1264SOL    MW4 4824   2.697   1.321   2.741  0.1454 -0.0288 -0.2701
 1265SOL     OW 4825   3.576   4.801   3.078 -0.5196 -0.1771  0.4130
 1265SOL    HW2 4826   3.654   4.748   3.060 -0.1294  0.5711 -0.1676
 1265SOL    HW3 4827   3.567   4.857   3.001 -1.4162  0.0076  0.6459
 1265SOL    MW4 4828   3.585   4.802   3.066 -0.5864 -0.0540  0.3671
 1266SOL     OW 4829   1.870   4.009   1.943 -0.3835  0.0850 -0.1637
 1266SOL    HW2 4830   1.889   3.944   2.010 -0.1202 -1.2444 -1.4695
 1266SOL    HW3 4831   1.791   4.054   1.975  0.3664  0.2636  1.5325
 1266SOL    MW4 4832   1.862   4.006   1.956 -0.2499 -0.0668 -0.1122
 1267SOL     OW 4833   5.906   0.792   4.364 -0.3195  0.1905 -1.0489
 1267SOL    HW2 4834   5.992   0.828   4.386  0.3122 -2.2082  0.9286
 1267SOL    HW3 4835   5.856   0.801   4.445 -1.2199 -0.3631 -1.5318
 1267SOL    MW4 4836   5.911   0.798   4.378 -0.3549 -0.1990 -0.8517
 1268SOL     OW 4837   2.847   3.984   5.307 -0.2689 -0.2584  0.3403
 1268SOL    HW2 4838   2.904   3.910   5.327 -0.4864 -0.3468  0.6321
 1268SOL    HW3 4839   2.810   4.010   5.391 -0.7007 -0.2312  0.1469
 1268SOL    MW4 4840   2.850   3.978   5.321 -0.3546 -0.2665  0.3533
 1269SOL     OW 4841   1.846   0.785   1.820 -0.1052 -0.0506  0.1693
 1269SOL    HW2 4842   1.902   0.862   1.814  0.3195 -0.3136  0.6982
 1269SOL    HW3 4843   1.907   0.711   1.826 -0.3747 -0.8238 -3.8438
 1269SOL    MW4 4844   1.862   0.785   1.820 -0.0847 -0.1873 -0.2904
 1270SOL     OW 4845   2.422   2.105   4.585  0.2787  0.6514 -0.2635
 1270SOL    HW2 4846   2.447   2.149   4.503 -2.2428 -1.7387 -2.5447
 1270SOL    HW3 4847   2.332   2.133   4.600  0.7677  1.2090  1.9134
 1270SOL    MW4 4848   2.414   2.115   4.576  0.0106  0.4096 -0.2773
 1271SOL     OW 4849   0.306   1.323   3.698  0.5441 -0.5602  0.6756
 1271SOL    HW2 4850   0.293   1.295   3.608  0.7554 -0.2857  0.5594
 1271SOL    HW3 4851   0.261   1.407   3.704 -0.4374 -1.1101  1.1353
 1271SOL    MW4 4852   0.299   1.331   3.687  0.4425 -0.5966  0.7210
 1272SOL     OW 4853   3.261   4.802   0.525 -0.0726  0.3385  0.7664
 1272SOL    HW2 4854   3.289   4.725   0.574 -0.5269  0.5944  1.4399
 1272SOL    HW3 4855   3.335   4.823   0.469  0.1454 -0.4479  0.7449
 1272SOL    MW4 4856   3.274   4.795   0.524 -0.1038  0.2685  0.8524
 1273SOL     OW 4857   6.008   0.523   5.442 -0.0462 -0.4352 -0.0560
 1273SOL    HW2 4858   6.072   0.474   5.390 -1.1324 -1.6003 -0.3566
 1273SOL    HW3 4859   5.961   0.576   5.377  1.7819  1.8831  0.3791
 1273SOL    MW4 4860   6.010   0.524   5.426  0.0517 -0.2830 -0.0383
 1274SOL     OW 4861   0.396   3.325   4.054  0.2313  0.0436 -0.3740
 1274SOL    HW2 4862   0.374   3.269   3.980 -1.1014 -1.0393  0.7967
 1274SOL    HW3 4863   0.360   3.280   4.130  2.7083  0.4206  1.1463
 1274SOL    MW4 4864   0.389   3.312   4.054  0.3823 -0.0495 -0.0189
 1275SOL     OW 4865   4.884   4.592   5.320  0.2152 -0.0573  0.4407
 1275SOL    HW2 4866   4.953   4.572   5.384 -0.0679 -0.2230  0.6965
 1275SOL    HW3 4867   4.804   4.595   5.372 -0.0370 -0.3411  0.0721
 1275SOL    MW4 4868   4.883   4.590   5.336  0.1446 -0.1166  0.4258
 1276SOL     OW 4869   5.536   2.198   3.651 -0.0208 -0.9613 -0.0444
 1276SOL    HW2 4870   5.482   2.146   3.591 -1.2177 -0.7631  0.8171
 1276SOL    HW3 4871   5.586   2.132   3.700  2.6977 -1.0707 -2.7079
 1276SOL    MW4 4872   5.535   2.182   3.649  0.1800 -0.9496 -0.2821
 1277SOL     OW 4873   5.385   2.178   2.491  0.8656  0.2282 -0.5458
 1277SOL    HW2 4874   5.294   2.179   2.522  1.1856  2.7065  0.5713
 1277SOL    HW3 4875   5.381   2.219   2.405  0.9475  0.5583 -0.3933
 1277SOL    MW4 4876   5.372   2.183   2.484  0.9186  0.5987 -0.3783
 1278SOL     OW 4877   2.021   0.944   5.838  0.4972 -0.3779 -0.4463
 1278SOL    HW2 4878   2.067   0.918   5.918 -0.6124 -0.9267  0.0344
 1278SOL    HW3 4879   2.069   0.900   5.767  3.9233  3.1222 -0.6207
 1278SOL    MW4 4880   2.033   0.935   5.839  0.8028  0.0115 -0.4059
 1279SOL     OW 4881   6.309   0.636   0.186 -0.0203 -0.5240 -0.2320
 1279SOL    HW2 4882   6.250   0.678   0.123  1.0191 -1.6559 -2.0525
 1279SOL    HW3 4883   6.307   0.544   0.162  0.6269 -0.9497  1.2548
 1279SOL    MW4 4884   6.301   0.630   0.174  0.2022 -0.7295 -0.2760
 1280SOL     OW 4885   3.828   5.087   0.883  0.0999 -0.3334 -0.4337
 1280SOL    HW2 4886   3.773   5.067   0.959  0.7786 -2.1028 -0.3642
 1280SOL    HW3 4887   3.788   5.038   0.811  0.6459 -0.3283 -0.7471
 1280SOL    MW4 4888   3.815   5.078   0.884  0.2615 -0.5661 -0.4658
 1281SOL     OW 4889   3.370   6.003   3.027  0.1369  0.3383 -0.4961
 1281SOL    HW2 4890   3.453   5.954   3.027 -0.6468 -1.0461 -0.9635
 1281SOL    HW3 4891   3.334   5.989   3.115 -0.1209  0.0059 -0.6523
 1281SOL    MW4 4892   3.376   5.995   3.039 -0.0005  0.1118 -0.5784
 1282SOL     OW 4893   5.058   3.183   5.567  0.5084  0.2657  0.8428
 1282SOL    HW2 4894   5.035   3.110   5.626  0.8460 -0.6633 -0.1377
 1282SOL    HW3 4895   5.013   3.259   5.605 -0.8075 -0.6753  1.2756
 1282SOL    MW4 4896   5.049   3.183   5.580  0.3793  0.0190  0.7705
 1283SOL     OW 4897   4.945   3.204   3.780  0.6072  0.2059  1.1094
 1283SOL    HW2 4898   5.000   3.185   3.856  0.9180 -0.8453  0.6399
 1283SOL    HW3 4899   4.976   3.143   3.713  0.6783  1.4554 -0.0287
 1283SOL    MW4 4900   4.957   3.193   3.781  0.6576  0.2321  0.8973
 1284SOL     OW 4901   2.179   0.796   6.022 -0.3033  0.9143 -0.0551
 1284SOL    HW2 4902   2.107   0.742   6.055  2.2633 -1.8991  1.5428
 1284SOL    HW3 4903   2.218   0.835   6.100  1.9867 -0.5905 -0.3343
 1284SOL    MW4 4904   2.175   0.794   6.037  0.3375  0.3445  0.1189
 1285SOL     OW 4905   3.613   2.881   3.597  0.2202  0.1069  0.6660
 1285SOL    HW2 4906   3.682   2.945   3.609  1.7770 -1.5588  1.1399
 1285SOL    HW3 4907   3.585   2.859   3.686 -0.2142  0.0383  0.5167
 1285SOL    MW4 4908   3.618   2.886   3.611  0.3683 -0.1219  0.7088
 1286SOL     OW 4909   1.197   3.743   1.926  0.2626  0.0560  0.5315
 1286SOL    HW2 4910   1.131   3.674   1.917 -1.7381  1.8755  0.6254
 1286SOL    HW3 4911   1.152   3.815   1.970  1.5742  2.3312 -1.5745
 1286SOL    MW4 4912   1.182   3.743   1.931  0.1717  0.5962  0.2660
 1287SOL     OW 4913   0.166   5.068   0.468  0.2712 -0.2084  0.1537
 1287SOL    HW2 4914   0.151   5.012   0.392 -0.8419 -1.0199  0.9333
 1287SOL    HW3 4915   0.128   5.153   0.442  0.9693 -0.1254 -0.6228
 1287SOL    MW4 4916   0.159   5.072   0.455  0.2165 -0.3045  0.1541
 1288SOL     OW 4917   0.316   2.634   5.484  0.0270  0.2645 -0.0087
 1288SOL    HW2 4918   0.322   2.656   5.577 -0.5593  0.3420  0.0100
 1288SOL    HW3 4919   0.281   2.713   5.443  0.3546  0.2564 -0.3115
 1288SOL    MW4 4920   0.312   2.648   5.491 -0.0071  0.2737 -0.0462
 1289SOL     OW 4921   0.783   2.954   3.289 -0.0920  0.0044  0.7843
 1289SOL    HW2 4922   0.768   3.004   3.208  1.6966 -1.0539 -0.2716
 1289SOL    HW3 4923   0.707   2.896   3.294  0.5276 -1.0934 -1.1337
 1289SOL    MW4 4924   0.771   2.953   3.279  0.2257 -0.2801  0.3919
 1290SOL     OW 4925   1.440   1.895   1.179 -0.2239 -0.1333  0.0147
 1290SOL    HW2 4926   1.440   1.907   1.084  3.2942  0.8326 -0.0066
 1290SOL    HW3 4927   1.348   1.890   1.203 -1.2627 -2.4024 -3.6346
 1290SOL    MW4 4928   1.428   1.896   1.170  0.1032 -0.3053 -0.4696
 1291SOL     OW 4929   4.263   4.740   3.047  0.0842 -0.6685  0.0111
 1291SOL    HW2 4930   4.352   4.705   3.037 -0.4205 -2.2833  0.9173
 1291SOL    HW3 4931   4.271   4.802   3.120  0.5470 -0.4498 -0.2160
 1291SOL    MW4 4932   4.276   4.744   3.056  0.0786 -0.8527  0.1007
 1292SOL     OW 4933   2.195   5.629   0.637  0.6567 -0.2328  0.0754
 1292SOL    HW2 4934   2.161   5.603   0.551  3.1476  0.0508 -1.1059
 1292SOL    HW3 4935   2.245   5.553   0.666  0.6669  0.0518  0.8020
 1292SOL    MW4 4936   2.197   5.616   0.629  0.9867 -0.1579  0.0154
 1293SOL     OW 4937   2.095   0.415   1.223 -0.4472 -0.0587  0.0955
 1293SOL    HW2 4938   2.016   0.372   1.190  0.0553 -2.0742  1.3486
 1293SOL    HW3 4939   2.129   0.356   1.290  3.0488 -0.1621 -1.4988
 1293SOL    MW4 4940   2.089   0.402   1.227  0.0804 -0.3383  0.0505
 1294SOL     OW 4941   4.278   1.975   3.249 -0.5271  0.3477 -0.1858
 1294SOL    HW2 4942   4.288   1.891   3.294 -0.0490  1.5718  2.1167
 1294SOL    HW3 4943   4.291   1.954   3.156  1.0848 -1.8640  0.4602
 1294SOL    MW4 4944   4.281   1.961   3.243 -0.2513  0.2174  0.2032
 1295SOL     OW 4945   4.481   1.554   4.124  0.0334  0.1320  0.0767
 1295SOL    HW2 4946   4.446   1.633   4.084 -0.9480 -0.2094  0.2380
 1295SOL    HW3 4947   4.414   1.487   4.109  1.2732 -0.9514 -0.9763
 1295SOL    MW4 4948   4.468   1.555   4.116  0.0675 -0.0560 -0.0410
 1296SOL     OW 4949   2.244   5.624   0.202  0.1106 -0.0660 -0.2122
 1296SOL    HW2 4950   2.306   5.656   0.267 -0.5594  1.1689 -0.1640
 1296SOL    HW3 4951   2.290   5.551   0.160  0.9425 -0.2405  0.9421
 1296SOL    MW4 4952   2.258   5.618   0.205  0.1320  0.0739 -0.0536
 1297SOL     OW 4953   6.339   3.213   2.939 -0.0249 -0.0118 -0.5650
 1297SOL    HW2 4954   6.315   3.293   2.985 -0.7319 -0.8591  0.5923
 1297SOL    HW3 4955   6.424   3.189   2.975  0.9532  1.0169 -2.0421
 1297SOL    MW4 4956   6.347   3.220   2.950  0.0109  0.0121 -0.6072
 1298SOL     OW 4957   3.924   4.268   2.960 -0.2699 -0.3828  0.5720
 1298SOL    HW2 4958   3.943   4.311   3.043 -1.1864  1.7964 -0.2527
 1298SOL    HW3 4959   4.010   4.251   2.921  0.1504  0.8487  0.9088
 1298SOL    MW4 4960   3.938   4.272   2.966 -0.3354  0.0672  0.5076
 1299SOL     OW 4961   2.751   6.350   6.117  0.2639  0.1530  0.1123
 1299SOL    HW2 4962   2.693   6.375   6.045 -0.5801 -0.7891  0.4396
 1299SOL    HW3 4963   2.814   6.289   6.078  0.0430 -0.0591  0.0838
 1299SOL    MW4 4964   2.752   6.345   6.103  0.1234  0.0007  0.1517
 1300SOL     OW 4965   1.515   2.859   0.444  0.2809 -0.1359 -0.8957
 1300SOL    HW2 4966   1.493   2.941   0.399  0.3905  0.7113  0.5446
 1300SOL    HW3 4967   1.607   2.868   0.466  0.0247 -0.1763  0.2196
 1300SOL    MW4 4968   1.524   2.871   0.441  0.2615 -0.0295 -0.5585
 1301SOL     OW 4969   1.796   3.762   5.515 -0.0860  0.0046 -0.2491
 1301SOL    HW2 4970   1.776   3.726   5.602 -0.2790 -2.6766 -1.3098
 1301SOL    HW3 4971   1.710   3.785   5.479 -0.1848 -0.5551 -0.3838
 1301SOL    MW4 4972   1.782   3.760   5.522 -0.1245 -0.4230 -0.4068
 1302SOL     OW 4973   0.886   4.969   2.703  0.3049 -0.1671 -0.3334
 1302SOL    HW2 4974   0.978   4.950   2.721  0.7792 -1.0145 -3.1169
 1302SOL    HW3 4975   0.866   4.916   2.625 -1.9088  1.6278 -1.0780
 1302SOL    MW4 4976   0.896   4.959   2.695  0.0754 -0.0421 -0.7989
 1303SOL     OW 4977   3.510   3.709   0.271 -0.2250  0.0017 -0.5682
 1303SOL    HW2 4978   3.556   3.776   0.321 -1.1956  1.7820 -1.9817
 1303SOL    HW3 4979   3.571   3.635   0.269  0.3523  0.2951  2.1120
 1303SOL    MW4 4980   3.524   3.708   0.278 -0.2769  0.2753 -0.4011
 1304SOL     OW 4981   5.848   1.431   2.071  0.8077 -0.1517  0.0434
 1304SOL    HW2 4982   5.790   1.358   2.047  0.2279  0.2455  0.2136
 1304SOL    HW3 4983   5.928   1.415   2.021  0.5786 -0.7468 -0.1485
 1304SOL    MW4 4984   5.851   1.419   2.061  0.7010 -0.1778  0.0406
 1305SOL     OW 4985   0.673   5.038   4.589  0.8563  0.4339 -0.1747
 1305SOL    HW2 4986   0.685   4.962   4.646 -0.6930 -0.6139 -1.1900
 1305SOL    HW3 4987   0.760   5.079   4.586  1.0970  0.3239  2.5828
 1305SOL    MW4 4988   0.686   5.034   4.596  0.6836  0.2811  0.0552
 1306SOL     OW 4989   0.423   2.877   6.041  0.1530  0.3626  0.0410
 1306SOL    HW2 4990   0.484   2.949   6.058  1.3882 -0.8218  0.8513
 1306SOL    HW3 4991   0.432   2.819   6.117  0.2581 -1.3622 -1.2051
 1306SOL    MW4 4992   0.433   2.879   6.053  0.3298 -0.0212 -0.0165
 1307SOL     OW 4993   2.552   1.113   2.842 -0.6868  0.2940  0.0632
 1307SOL    HW2 4994   2.594   1.178   2.786 -0.2331 -0.0803 -0.0324
 1307SOL    HW3 4995   2.467   1.152   2.864 -0.8773  0.4285 -0.9042
 1307SOL    MW4 4996   2.546   1.127   2.838 -0.6521  0.2624 -0.0770
 1308SOL     OW 4997   2.538   5.380   2.870 -0.0877 -0.0126 -0.0449
 1308SOL    HW2 4998   2.556   5.291   2.900 -1.6901  0.0111  1.0952
 1308SOL    HW3 4999   2.446   5.395   2.890  0.1148  1.8911 -0.2743
 1308SOL    MW4 5000   2.529   5.371   2.877 -0.2724  0.2417  0.0753
 1309SOL     OW 5001   5.612   2.668   5.498 -0.0336 -0.3044  0.4216
 1309SOL    HW2 5002   5.675   2.739   5.512 -2.1706  1.7510  0.3296
 1309SOL    HW3 5003   5.592   2.671   5.405 -1.2760  0.0416  0.6763
 1309SOL    MW4 5004   5.618   2.678   5.488 -0.4795  0.0125  0.4431
 1310SOL     OW 5005   3.797   0.595   0.854 -0.3501  0.1683 -1.0113
 1310SOL    HW2 5006   3.886   0.628   0.843 -0.1456  0.4111  1.0057
 1310SOL    HW3 5007   3.778   0.608   0.947 -1.6220 -2.0374 -0.8929
 1310SOL    MW4 5008   3.806   0.601   0.865 -0.4909 -0.0906 -0.7296
 1311SOL     OW 5009   3.619   4.331   4.184  0.3355 -0.1071 -0.3050
 1311SOL    HW2 5010   3.694   4.273   4.172 -0.5382 -1.6659  1.1748
 1311SOL    HW3 5011   3.546   4.285   4.141 -0.0469  0.7317 -0.5749
 1311SOL    MW4 5012   3.619   4.317   4.177  0.1698 -0.2021 -0.1454
 1312SOL     OW 5013   3.987   1.930   3.627 -0.5428  0.0093 -0.4317
 1312SOL    HW2 5014   3.895   1.925   3.654  0.0109  2.7531  2.5566
 1312SOL    HW3 5015   3.991   2.004   3.567 -0.1047  1.2081  0.9915
 1312SOL    MW4 5016   3.975   1.939   3.623 -0.4119  0.5295  0.1504
 1313SOL     OW 5017   5.389   1.323   1.875  0.1181 -0.5304 -0.5240
 1313SOL    HW2 5018   5.302   1.296   1.848 -1.4034  2.3388  0.9985
 1313SOL    HW3 5019   5.388   1.419   1.869  2.7875 -0.3244  0.6261
 1313SOL    MW4 5020   5.377   1.332   1.871  0.2696 -0.1246 -0.1714
 1314SOL     OW 5021   2.210   2.546   5.450 -0.0301  0.0388 -0.0158
 1314SOL    HW2 5022   2.147   2.576   5.515  1.2296  0.7130  0.9311
 1314SOL    HW3 5023   2.289   2.597   5.467 -0.4829  2.5145 -3.9994
 1314SOL    MW4 5024   2.212   2.556   5.461  0.0763  0.4544 -0.4165
 1315SOL     OW 5025   5.462   4.927   6.321 -0.2019 -0.2568 -0.1443
 1315SOL    HW2 5026   5.539   4.871   6.332 -0.0627  0.2273  1.8317
 1315SOL    HW3 5027   5.462   4.950   6.228  1.9019 -0.4881 -0.2626
 1315SOL    MW4 5028   5.472   4.923   6.310  0.0941 -0.2234  0.1008
 1316SOL     OW 5029   5.247   3.059   5.367  0.2934  0.3142 -0.9536
 1316SOL    HW2 5030   5.246   3.140   5.316 -0.0114  1.1946  0.3750
 1316SOL    HW3 5031   5.205   3.083   5.450  0.3974 -1.1565 -0.4429
 1316SOL    MW4 5032   5.241   3.073   5.372  0.2669  0.2363 -0.7109
 1317SOL     OW 5033   0.735   4.270   6.455  0.0710 -0.0733  0.1335
 1317SOL    HW2 5034   0.689   4.326   6.392  1.6393  2.4905  1.1241
 1317SOL    HW3 5035   0.676   4.265   6.530 -0.4624 -0.5570 -0.3052
 1317SOL    MW4 5036   0.721   4.277   6.457  0.2075  0.2011  0.2063
 1318SOL     OW 5037   5.910   3.021   1.093  0.3326 -0.2915  0.1332
 1318SOL    HW2 5038   5.937   2.931   1.110  0.7407  0.0563  1.4911
 1318SOL    HW3 5039   5.827   3.031   1.140 -0.0412 -0.1417 -0.5477
 1318SOL    MW4 5040   5.903   3.011   1.101  0.3371 -0.2259  0.2225
 1319SOL     OW 5041   1.303   2.357   5.110 -0.2702 -0.2832  0.2221
 1319SOL    HW2 5042   1.239   2.413   5.154 -0.4407  0.0119 -0.3902
 1319SOL    HW3 5043   1.364   2.331   5.180 -0.5257  0.1822  0.6260
 1319SOL    MW4 5044   1.303   2.361   5.125 -0.3264 -0.1829  0.1946
 1320SOL     OW 5045   3.023   2.973   2.541  0.2141  0.5766 -0.3232
 1320SOL    HW2 5046   3.036   2.954   2.448  0.6834  0.6778 -0.2792
 1320SOL    HW3 5047   3.111   2.977   2.578  0.0138 -2.1148  0.6834
 1320SOL    MW4 5048   3.036   2.971   2.534  0.2496  0.2349 -0.1845
 1321SOL     OW 5049   5.052   4.364   3.359 -0.8558 -0.4286  0.4553
 1321SOL    HW2 5050   5.147   4.374   3.362 -0.5893 -2.0995 -0.9441
 1321SOL    HW3 5051   5.025   4.362   3.451  0.1770  2.0153  0.9004
 1321SOL    MW4 5052   5.061   4.365   3.371 -0.6844 -0.3266  0.3294
 1322SOL     OW 5053   5.837   1.346   4.999  0.2362  0.2257 -0.7467
 1322SOL    HW2 5054   5.794   1.328   4.915 -0.0894 -1.8919 -0.1805
 1322SOL    HW3 5055   5.888   1.268   5.017  0.7946  0.8973  0.7470
 1322SOL    MW4 5056   5.838   1.333   4.990  0.2669  0.0349 -0.4749
 1323SOL     OW 5057   1.905   6.045   4.034  0.3488  0.3911 -0.3605
 1323SOL    HW2 5058   1.948   6.121   3.996 -1.6883  1.0241 -1.5314
 1323SOL    HW3 5059   1.845   6.014   3.966  0.7095 -1.9326  0.2929
 1323SOL    MW4 5060   1.903   6.051   4.020  0.1276  0.1681 -0.4288
 1324SOL     OW 5061   1.664   1.037   4.517 -0.1636 -0.2791  0.2960
 1324SOL    HW2 5062   1.680   1.061   4.608 -0.2165  0.8307  0.0255
 1324SOL    HW3 5063   1.613   1.110   4.482 -0.0452 -0.6480 -0.6596
 1324SOL    MW4 5064   1.659   1.050   4.525 -0.1549 -0.1813  0.1342
 1325SOL     OW 5065   3.003   1.282   6.142 -0.0183 -0.1999 -0.1532
 1325SOL    HW2 5066   3.001   1.211   6.079 -0.3374  0.1501 -0.5446
 1325SOL    HW3 5067   3.011   1.361   6.089 -1.0694  0.1590  0.1838
 1325SOL    MW4 5068   3.004   1.283   6.127 -0.1991 -0.1063 -0.1604
 1326SOL     OW 5069   1.537   2.837   5.814 -0.3049 -0.1587  0.3438
 1326SOL    HW2 5070   1.544   2.763   5.873 -1.5730 -0.6584 -0.0870
 1326SOL    HW3 5071   1.479   2.898   5.859 -1.4304 -0.6220 -0.4232
 1326SOL    MW4 5072   1.530   2.835   5.827 -0.6207 -0.2858  0.1858
 1327SOL     OW 5073   5.566   1.550   6.028  0.2136 -0.4578  0.3377
 1327SOL    HW2 5074   5.473   1.529   6.024 -0.2586  1.3632  0.9602
 1327SOL    HW3 5075   5.594   1.519   6.114  0.0870 -0.6008  0.3289
 1327SOL    MW4 5076   5.558   1.543   6.039  0.1346 -0.2364  0.4187
 1328SOL     OW 5077   6.002   1.215   3.762 -0.5206 -0.6066  0.1334
 1328SOL    HW2 5078   6.068   1.280   3.740 -1.5112  0.4737  0.3059
 1328SOL    HW3 5079   5.972   1.238   3.850 -3.4996  1.0374 -1.1458
 1328SOL    MW4 5080   6.006   1.226   3.771 -1.0443 -0.2472 -0.0126
 1329SOL     OW 5081   1.132   1.690   4.518 -0.2505  0.4633 -0.0215
 1329SOL    HW2 5082   1.126   1.634   4.595  0.3565  1.6519  0.8991
 1329SOL    HW3 5083   1.186   1.639   4.457  0.4746  0.1212  0.8780
 1329SOL    MW4 5084   1.138   1.676   4.520 -0.0747  0.5750  0.2187
 1330SOL     OW 5085   3.792   3.730   1.418 -0.1182  0.7758  0.2542
 1330SOL    HW2 5086   3.742   3.652   1.440 -0.4214  1.1547  0.9329
 1330SOL    HW3 5087   3.759   3.798   1.477 -0.8835  1.8175 -1.2928
 1330SOL    MW4 5088   3.781   3.729   1.428 -0.2592  0.9632  0.1396
 1331SOL     OW 5089   0.506   0.504   2.589  0.0613  0.0256  0.0435
 1331SOL    HW2 5090   0.564   0.519   2.663 -2.0999 -1.2769  2.1342
 1331SOL    HW3 5091   0.464   0.588   2.573 -0.6217 -0.0270  1.4089
 1331SOL    MW4 5092   0.509   0.517   2.596 -0.3139 -0.1532  0.4995
 1332SOL     OW 5093   4.733   0.701   4.716 -0.1654  0.0573  0.4784
 1332SOL    HW2 5094   4.802   0.734   4.773  0.0530 -0.6554  0.6410
 1332SOL    HW3 5095   4.768   0.617   4.683 -0.8555 -0.1952  0.3829
 1332SOL    MW4 5096   4.747   0.694   4.719 -0.2276 -0.0701  0.4872
 1333SOL     OW 5097   4.039   5.265   5.560 -0.3160 -0.2004 -0.8196
 1333SOL    HW2 5098   4.058   5.208   5.485 -0.4652 -0.6691 -0.5076
 1333SOL    HW3 5099   4.089   5.344   5.543  2.5964 -1.6566  0.3545
 1333SOL    MW4 5100   4.048   5.268   5.548  0.0485 -0.4544 -0.6235
 1334SOL     OW 5101   5.269   2.286   0.653  0.2135 -0.0705  0.2072
 1334SOL    HW2 5102   5.325   2.234   0.595  0.1204 -0.2767  0.3017
 1334SOL    HW3 5103   5.248   2.227   0.725  0.4458  0.2322  0.5268
 1334SOL    MW4 5104   5.274   2.271   0.655  0.2319 -0.0577  0.2619
 1335SOL     OW 5105   1.378   2.031   4.490  0.5845  0.1037 -0.4970
 1335SOL    HW2 5106   1.376   2.074   4.575  0.0726 -0.5165 -0.1815
 1335SOL    HW3 5107   1.465   2.048   4.455  0.3566  1.5043 -0.4494
 1335SOL    MW4 5108   1.389   2.039   4.496  0.4869  0.2067 -0.4491
 1336SOL     OW 5109   1.091   0.392   0.768 -0.4418  0.5196  0.0207
 1336SOL    HW2 5110   1.062   0.473   0.810  1.1716  0.5826  1.0963
 1336SOL    HW3 5111   1.137   0.344   0.837  0.8145 -0.1605 -1.2364
 1336SOL    MW4 5112   1.094   0.396   0.782 -0.0632  0.4382 -0.0032
 1337SOL     OW 5113   3.464   5.108   2.034 -0.0076 -0.0905  0.0522
 1337SOL    HW2 5114   3.408   5.146   1.967 -0.0600 -0.2508  0.0033
 1337SOL    HW3 5115   3.405   5.085   2.106 -0.2827 -1.8382 -0.6834
 1337SOL    MW4 5116   3.449   5.110   2.035 -0.0508 -0.3423 -0.0513
 1338SOL     OW 5117   5.188   0.148   3.653  0.0821 -0.3423 -0.2149
 1338SOL    HW2 5118   5.194   0.241   3.675  0.2307 -0.0702 -1.3505
 1338SOL    HW3 5119   5.172   0.104   3.737  0.0107  0.7028  0.3291
 1338SOL    MW4 5120   5.187   0.154   3.667  0.0923 -0.1685 -0.2930
 1339SOL     OW 5121   5.150   0.891   0.763  0.6799  0.0904  0.1349
 1339SOL    HW2 5122   5.113   0.937   0.838  0.6738  0.3514 -0.0285
 1339SOL    HW3 5123   5.192   0.813   0.800  1.4336  0.6646  0.4963
 1339SOL    MW4 5124   5.150   0.886   0.778  0.7786  0.2006  0.1610
 1340SOL     OW 5125   3.161   3.723   2.813 -0.3836  0.3586 -0.1592
 1340SOL    HW2 5126   3.213   3.746   2.736 -1.0390  1.4858 -0.3019
 1340SOL    HW3 5127   3.080   3.685   2.776 -0.6256  0.7428 -0.0308
 1340SOL    MW4 5128   3.157   3.721   2.798 -0.5020  0.5580 -0.1611
 1341SOL     OW 5129   0.561   0.708   6.407 -0.4413 -0.7186 -0.5136
 1341SOL    HW2 5130   0.623   0.737   6.340  0.6974  0.1800  0.8883
 1341SOL    HW3 5131   0.614   0.658   6.469 -1.6113 -2.1651 -0.6236
 1341SOL    MW4 5132   0.576   0.705   6.406 -0.4454 -0.7909 -0.3431
 1342SOL     OW 5133   3.566   4.098   1.388  0.4118  0.1321  0.0752
 1342SOL    HW2 5134   3.606   4.185   1.394 -1.1698  1.1544 -2.4609
 1342SOL    HW3 5135   3.623   4.050   1.327  0.9642 -0.4622  1.0308
 1342SOL    MW4 5136   3.579   4.103   1.381  0.2760  0.1885 -0.1333
 1343SOL     OW 5137   4.693   3.311   0.145  0.0303 -0.6101  0.7556
 1343SOL    HW2 5138   4.734   3.324   0.059 -1.0710  0.8900  0.4133
 1343SOL    HW3 5139   4.609   3.270   0.126 -0.0987 -0.5333  1.1426
 1343SOL    MW4 5140   4.688   3.307   0.131 -0.1320 -0.4021  0.7615
 1344SOL     OW 5141   4.190   3.148   0.181  0.1789 -0.8058  0.3094
 1344SOL    HW2 5142   4.188   3.239   0.209  0.7093 -0.3461 -1.0750
 1344SOL    HW3 5143   4.110   3.136   0.131 -0.1238 -1.2433  0.8913
 1344SOL    MW4 5144   4.180   3.158   0.178  0.2090 -0.8029  0.2035
 1345SOL     OW 5145   4.885   2.763   0.723 -0.3381 -0.3269  0.0087
 1345SOL    HW2 5146   4.876   2.680   0.770  1.5486 -0.4758  0.1783
 1345SOL    HW3 5147   4.971   2.758   0.681 -0.9527  0.8187 -1.4718
 1345SOL    MW4 5148   4.895   2.751   0.724 -0.1703 -0.1954 -0.1642
 1346SOL     OW 5149   3.738   6.097   2.858 -0.2222  0.1675 -0.3254
 1346SOL    HW2 5150   3.769   6.038   2.789  1.9124  0.2483  0.4927
 1346SOL    HW3 5151   3.699   6.170   2.810 -1.9488 -1.3447 -1.3664
 1346SOL    MW4 5152   3.737   6.099   2.842 -0.1684 -0.0214 -0.3548
 1347SOL     OW 5153   3.047   5.395   5.190  0.2520 -0.4624  0.1517
 1347SOL    HW2 5154   3.129   5.390   5.141  0.7721  0.4225  0.9131
 1347SOL    HW3 5155   2.997   5.318   5.161  1.4230 -1.1252 -0.1647
 1347SOL    MW4 5156   3.051   5.384   5.179  0.4751 -0.4331  0.2104
 1348SOL     OW 5157   3.374   1.544   4.791 -0.2078  0.2719 -0.0323
 1348SOL    HW2 5158   3.412   1.466   4.830  0.6894  0.8245  0.2251
 1348SOL    HW3 5159   3.357   1.520   4.700  1.6173  0.2725 -0.4124
 1348SOL    MW4 5160   3.376   1.531   4.784  0.1513  0.3449 -0.0485
 1349SOL     OW 5161   2.305   4.585   2.929 -0.3936  0.2101  0.0805
 1349SOL    HW2 5162   2.269   4.585   2.840 -3.9070  0.2332  1.3436
 1349SOL    HW3 5163   2.316   4.493   2.951 -1.4812  0.1222  0.2954
 1349SOL    MW4 5164   2.302   4.573   2.920 -1.0007  0.2015  0.2755
 1350SOL     OW 5165   0.694   3.434   0.209 -0.4678  0.8847 -0.5472
 1350SOL    HW2 5166   0.710   3.433   0.115  0.4994  1.8833 -0.4141
 1350SOL    HW3 5167   0.753   3.501   0.243 -0.1976 -0.0264  0.8786
 1350SOL    MW4 5168   0.704   3.443   0.201 -0.3045  0.8962 -0.3416
 1351SOL     OW 5169   5.032   3.655   3.705 -0.3915 -0.7481  0.9818
 1351SOL    HW2 5170   5.053   3.711   3.779  0.2217 -1.8555  1.6747
 1351SOL    HW3 5171   4.938   3.639   3.712 -0.5658  0.1547  0.7884
 1351SOL    MW4 5172   5.022   3.660   3.716 -0.3336 -0.7751  1.0477
 1352SOL     OW 5173   2.611   3.417   1.977  0.6129  0.6389  0.5895
 1352SOL    HW2 5174   2.518   3.409   1.996  0.7357 -2.8330  0.3161
 1352SOL    HW3 5175   2.617   3.419   1.882  0.8164  0.8859  0.6054
 1352SOL    MW4 5176   2.600   3.416   1.967  0.6560  0.2134  0.5556
 1353SOL     OW 5177   1.964   1.358   0.391  0.1429 -0.5857 -0.4435
 1353SOL    HW2 5178   1.954   1.445   0.430  0.6189 -0.5853 -0.3197
 1353SOL    HW3 5179   1.947   1.297   0.462  1.3267 -0.5837 -0.1473
 1353SOL    MW4 5180   1.960   1.361   0.405  0.3619 -0.5854 -0.3881
 1354SOL     OW 5181   3.324   3.967   4.284  0.0097  0.6233 -0.0354
 1354SOL    HW2 5182   3.284   4.004   4.362 -0.4098  0.7891 -0.3280
 1354SOL    HW3 5183   3.262   3.901   4.253  0.9941 -0.7533  0.7996
 1354SOL    MW4 5184   3.311   3.963   4.290  0.0842  0.4635  0.0362
 1355SOL     OW 5185   4.807   5.217   2.898 -0.4342 -0.4930 -0.7086
 1355SOL    HW2 5186   4.721   5.181   2.919  0.0374 -1.2383  0.0360
 1355SOL    HW3 5187   4.803   5.308   2.925 -0.2725 -1.1028  1.5348
 1355SOL    MW4 5188   4.795   5.224   2.904 -0.3506 -0.6718 -0.3144
 1356SOL     OW 5189   0.177   0.106   3.598  0.5372  0.1728  0.1324
 1356SOL    HW2 5190   0.212   0.194   3.610  2.7261 -0.6797  0.5163
 1356SOL    HW3 5191   0.202   0.082   3.509 -1.5204  0.5182 -0.5803
 1356SOL    MW4 5192   0.185   0.114   3.588  0.5545  0.1059  0.0890
 1357SOL     OW 5193   5.566   1.014   6.072 -0.3568 -0.2280  0.3166
 1357SOL    HW2 5194   5.502   1.002   6.001 -1.0438  0.5146  0.7922
 1357SOL    HW3 5195   5.569   1.109   6.084  0.5381 -0.2887  0.5765
 1357SOL    MW4 5196   5.558   1.025   6.064 -0.3293 -0.1380  0.4136
 1358SOL     OW 5197   0.395   3.817   3.101 -0.1100 -0.3571  0.4182
 1358SOL    HW2 5198   0.357   3.866   3.028 -2.9849 -1.6113  0.9316
 1358SOL    HW3 5199   0.398   3.880   3.173 -0.3314  0.0429  0.0817
 1358SOL    MW4 5200   0.390   3.831   3.101 -0.5185 -0.4698  0.4415
 1359SOL     OW 5201   0.889   1.618   2.960  0.3679 -0.4381 -0.3296
 1359SOL    HW2 5202   0.921   1.548   3.018  2.7178  1.3403  0.6703
 1359SOL    HW3 5203   0.947   1.615   2.885 -1.5297 -1.5272 -1.8610
 1359SOL    MW4 5204   0.901   1.608   2.958  0.4276 -0.3472 -0.3998
 1360SOL     OW 5205   2.638   3.879   5.158  0.0189  0.6766  0.2733
 1360SOL    HW2 5206   2.573   3.849   5.222  0.5369  1.2044  1.0578
 1360SOL    HW3 5207   2.694   3.939   5.206 -0.3601  2.1215 -0.9960
 1360SOL    MW4 5208   2.637   3.883   5.173  0.0372  0.9369  0.2093
 1361SOL     OW 5209   1.811   1.317   5.743  0.0074 -0.1218 -0.1914
 1361SOL    HW2 5210   1.872   1.274   5.683  0.6998  1.4760 -0.6593
 1361SOL    HW3 5211   1.744   1.355   5.686 -0.5511 -0.4764  0.2155
 1361SOL    MW4 5212   1.810   1.316   5.728  0.0251  0.0422 -0.1995
 1362SOL     OW 5213   0.216   0.423   4.937 -0.2942  0.0088 -0.1771
 1362SOL    HW2 5214   0.311   0.421   4.933 -0.3102 -1.1337 -0.5371
 1362SOL    HW3 5215   0.193   0.516   4.935  0.7970  0.2845 -0.4075
 1362SOL    MW4 5216   0.225   0.435   4.936 -0.1523 -0.1056 -0.2550
 1363SOL     OW 5217   2.944   5.739   1.332  0.0288  0.4421 -0.1975
 1363SOL    HW2 5218   2.871   5.775   1.383  1.4185 -0.0832  2.3102
 1363SOL    HW3 5219   2.903   5.709   1.251 -2.0375  2.8608 -0.2127
 1363SOL    MW4 5220   2.929   5.740   1.328 -0.0605  0.6919  0.1314
 1364SOL     OW 5221   6.220   2.340   1.919 -0.5686 -0.3829 -0.2001
 1364SOL    HW2 5222   6.246   2.431   1.903 -0.6336 -0.6211 -1.8420
 1364SOL    HW3 5223   6.297   2.289   1.894 -0.5256 -0.7923  0.7362
 1364SOL    MW4 5224   6.233   2.345   1.914 -0.5715 -0.4684 -0.2932
 1365SOL     OW 5225   5.296   0.431   1.156  0.6419 -0.1245  0.2390
 1365SOL    HW2 5226   5.358   0.399   1.091  0.0294  0.2409 -0.5410
 1365SOL    HW3 5227   5.223   0.369   1.152  0.1016  0.5254 -0.2389
 1365SOL    MW4 5228   5.295   0.418   1.147  0.4898  0.0095  0.0731
 1366SOL     OW 5229   0.368   6.015   5.999  0.5071  0.3000  0.1887
 1366SOL    HW2 5230   0.341   5.985   6.086  0.5393 -1.1834 -0.2985
 1366SOL    HW3 5231   0.331   6.103   5.992  1.5320  0.9490  2.1716
 1366SOL    MW4 5232   0.360   6.023   6.010  0.6465  0.1899  0.3860
 1367SOL     OW 5233   2.673   6.422   0.947 -0.0180  0.1605 -0.1733
 1367SOL    HW2 5234   2.612   6.426   1.021  0.6042  0.4772  0.3313
 1367SOL    HW3 5235   2.690   6.329   0.934  2.5137  0.1719  2.3110
 1367SOL    MW4 5236   2.667   6.411   0.955  0.3981  0.2038  0.2210
 1368SOL     OW 5237   1.826   3.261   4.351  0.0900 -0.1104  0.3583
 1368SOL    HW2 5238   1.755   3.316   4.384 -1.1495 -0.9336 -0.8094
 1368SOL    HW3 5239   1.854   3.304   4.270  0.3296 -0.2517  0.3657
 1368SOL    MW4 5240   1.820   3.274   4.344 -0.0420 -0.2376  0.2052
 1369SOL     OW 5241   3.192   1.667   0.752 -0.4463 -0.1596 -0.2475
 1369SOL    HW2 5242   3.209   1.631   0.839  1.1580 -1.0238 -0.8771
 1369SOL    HW3 5243   3.183   1.591   0.695  0.0599  0.3985 -1.0999
 1369SOL    MW4 5244   3.193   1.653   0.756 -0.1678 -0.2000 -0.4430
 1370SOL     OW 5245   5.893   0.823   2.395  0.3130  0.0864 -0.5413
 1370SOL    HW2 5246   5.843   0.818   2.476  0.3505  0.8444 -0.4654
 1370SOL    HW3 5247   5.913   0.916   2.385  1.8517 -0.2128 -0.4817
 1370SOL    MW4 5248   5.889   0.834   2.404  0.5210  0.1469 -0.5234
 1371SOL     OW 5249   4.721   5.578   4.663  0.1434  0.3365 -0.6726
 1371SOL    HW2 5250   4.676   5.502   4.701 -2.5702  1.4200 -1.4974
 1371SOL    HW3 5251   4.800   5.541   4.622  0.6321 -1.5296  1.7020
 1371SOL    MW4 5252   4.726   5.563   4.663 -0.1501  0.2333 -0.4681
 1372SOL     OW 5253   2.368   3.648   2.198 -0.3619  0.3771 -0.3270
 1372SOL    HW2 5254   2.385   3.569   2.148  0.7413 -0.2017  0.9137
 1372SOL    HW3 5255   2.444   3.658   2.255 -1.0280  1.6574  0.3956
 1372SOL    MW4 5256   2.380   3.639   2.199 -0.3042  0.4696 -0.0679
 1373SOL     OW 5257   2.754   0.699   1.350  0.1276  0.1314 -0.0511
 1373SOL    HW2 5258   2.742   0.792   1.371 -2.4831 -0.1709  0.1462
 1373SOL    HW3 5259   2.689   0.654   1.405 -1.5093 -1.4079 -3.0109
 1373SOL    MW4 5260   2.744   0.705   1.360 -0.4328 -0.1116 -0.4156
 1374SOL     OW 5261   3.823   4.836   3.939 -0.0903 -0.0670  0.0981
 1374SOL    HW2 5262   3.767   4.841   3.861  2.7105 -0.1875 -2.0751
 1374SOL    HW3 5263   3.790   4.760   3.987 -3.4349  1.4169  0.4701
 1374SOL    MW4 5264   3.811   4.827   3.935 -0.1620  0.1129 -0.1396
 1375SOL     OW 5265   1.748   1.839   4.243 -0.2601  0.3391  0.5048
 1375SOL    HW2 5266   1.723   1.912   4.300  0.7728 -0.0154  1.4615
 1375SOL    HW3 5267   1.819   1.875   4.189  0.8575 -0.1671  1.5861
 1375SOL    MW4 5268   1.754   1.854   4.243  0.0236  0.2255  0.7737
 1376SOL     OW 5269   3.661   4.080   5.583  0.2721 -0.0408  0.1474
 1376SOL    HW2 5270   3.615   4.017   5.638  3.3183 -0.6972  2.1991
 1376SOL    HW3 5271   3.678   4.033   5.501 -0.8789 -0.4352  0.1092
 1376SOL    MW4 5272   3.657   4.066   5.579  0.5221 -0.1794  0.4131
 1377SOL     OW 5273   2.277   5.436   3.915  0.1560  0.6902  0.3022
 1377SOL    HW2 5274   2.332   5.407   3.988 -0.1572  1.9460  1.0822
 1377SOL    HW3 5275   2.323   5.406   3.837  0.6636 -0.4134  1.0006
 1377SOL    MW4 5276   2.291   5.428   3.915  0.1816  0.7103  0.4973
 1378SOL     OW 5277   1.223   3.147   3.499 -0.0922  0.2325  0.4714
 1378SOL    HW2 5278   1.276   3.147   3.579 -0.3363 -2.0039  0.6944
 1378SOL    HW3 5279   1.181   3.061   3.498  1.2176 -0.5189 -2.9109
 1378SOL    MW4 5280   1.224   3.136   3.509  0.0484 -0.1617  0.0545
 1379SOL     OW 5281   0.520   1.526   3.517  0.0842 -0.1323  0.5454
 1379SOL    HW2 5282   0.515   1.483   3.432 -2.3686 -2.0286  1.5560
 1379SOL    HW3 5283   0.555   1.460   3.576 -0.0966  0.5163  1.4029
 1379SOL    MW4 5284   0.524   1.512   3.514 -0.2632 -0.2969  0.7919
 1380SOL     OW 5285   5.671   0.120   1.434 -0.0121  0.5544  0.0688
 1380SOL    HW2 5286   5.721   0.046   1.468 -1.1099  0.2806  1.1404
 1380SOL    HW3 5287   5.583   0.108   1.470 -0.8203  1.1290 -1.5913
 1380SOL    MW4 5288   5.666   0.108   1.443 -0.2636  0.5941 -0.0089
 1381SOL     OW 5289   0.276   2.383   5.276 -0.3117  0.0694  0.2010
 1381SOL    HW2 5290   0.262   2.444   5.349 -1.0068  0.4245 -0.2063
 1381SOL    HW3 5291   0.204   2.321   5.284 -0.1522 -0.1327  0.0541
 1381SOL    MW4 5292   0.264   2.383   5.287 -0.3824  0.0896  0.1279
 1382SOL     OW 5293   3.491   5.676   6.115 -0.2898 -0.1973  0.1547
 1382SOL    HW2 5294   3.426   5.712   6.174 -0.3518 -0.0545  0.0009
 1382SOL    HW3 5295   3.472   5.717   6.031 -1.9715 -2.4667 -0.6685
 1382SOL    MW4 5296   3.480   5.686   6.112 -0.5198 -0.4779  0.0258
 1383SOL     OW 5297   2.035   4.666   5.164  0.2559  0.0896  0.3682
 1383SOL    HW2 5298   1.945   4.638   5.148  0.4015 -0.5384  0.6255
 1383SOL    HW3 5299   2.040   4.753   5.123 -0.1895 -0.2781 -0.5092
 1383SOL    MW4 5300   2.024   4.674   5.156  0.2163 -0.0418  0.2864
 1384SOL     OW 5301   2.960   4.821   2.150  0.1381  0.0983 -0.5255
 1384SOL    HW2 5302   2.992   4.750   2.206  0.2899  1.3624  1.0625
 1384SOL    HW3 5303   2.949   4.781   2.064  0.2326 -1.8420  0.3166
 1384SOL    MW4 5304   2.963   4.806   2.146  0.1706  0.0091 -0.2049
 1385SOL     OW 5305   3.844   2.861   4.528 -0.3357 -0.5480  0.1103
 1385SOL    HW2 5306   3.916   2.839   4.587 -0.8601  0.1106  1.0292
 1385SOL    HW3 5307   3.865   2.950   4.498 -0.1255 -0.8400 -0.6243
 1385SOL    MW4 5308   3.856   2.870   4.532 -0.3772 -0.4996  0.1346
 1386SOL     OW 5309   5.430   0.458   4.113  0.5093 -0.1844 -0.0398
 1386SOL    HW2 5310   5.371   0.402   4.063  0.3447  0.6826 -0.8453
 1386SOL    HW3 5311   5.503   0.401   4.138  2.5809  0.0963 -4.5347
 1386SOL    MW4 5312   5.432   0.443   4.110  0.7609 -0.0329 -0.7392
 1387SOL     OW 5313   2.276   4.615   5.582 -0.1237  0.0287 -0.3392
 1387SOL    HW2 5314   2.292   4.690   5.525 -0.1748 -0.3240 -0.8308
 1387SOL    HW3 5315   2.245   4.652   5.664 -0.9078  0.5094 -0.8419
 1387SOL    MW4 5316   2.274   4.630   5.585 -0.2339  0.0456 -0.4704
 1388SOL     OW 5317   4.913   4.934   2.525 -0.2145  0.1957  0.4601
 1388SOL    HW2 5318   4.844   4.977   2.475 -0.4557 -0.6483  0.0385
 1388SOL    HW3 5319   4.941   4.999   2.589 -0.5867  0.9531 -0.1282
 1388SOL    MW4 5320   4.908   4.948   2.527 -0.2954  0.1842  0.3268
 1389SOL     OW 5321   1.831   1.246   0.185  0.6126  0.9017  0.0178
 1389SOL    HW2 5322   1.740   1.277   0.186 -0.2662 -1.2407 -1.8866
 1389SOL    HW3 5323   1.871   1.284   0.263 -1.4992  3.0643  0.1666
 1389SOL    MW4 5324   1.824   1.255   0.195  0.2180  0.9044 -0.2138
 1390SOL     OW 5325   1.547   3.682   1.850 -0.1135 -0.5404 -0.2034
 1390SOL    HW2 5326   1.608   3.717   1.785  0.1115 -0.3782  0.0883
 1390SOL    HW3 5327   1.594   3.690   1.933 -0.5306 -0.4229  0.0237
 1390SOL    MW4 5328   1.562   3.688   1.853 -0.1388 -0.5035 -0.1350
 1391SOL     OW 5329   3.051   3.540   0.985 -0.5025 -0.3336  0.0748
 1391SOL    HW2 5330   3.014   3.521   1.071 -0.6353  1.1877  0.3884
 1391SOL    HW3 5331   2.975   3.553   0.929 -0.4603  1.0044  0.2973
 1391SOL    MW4 5332   3.036   3.539   0.989 -0.5144  0.0436  0.1455
 1392SOL     OW 5333   5.338   6.128   1.892  0.2141  0.0371  0.5206
 1392SOL    HW2 5334   5.246   6.122   1.918  0.0750  1.9260  0.5943
 1392SOL    HW3 5335   5.386   6.118   1.974  0.0028  0.4889  0.7034
 1392SOL    MW4 5336   5.332   6.126   1.906  0.1679  0.3459  0.5544
 1393SOL     OW 5337   5.809   4.092   3.063 -0.3657  0.1874 -0.3626
 1393SOL    HW2 5338   5.807   4.011   3.013 -0.8231 -0.1270  0.1559
 1393SOL    HW3 5339   5.858   4.153   3.008 -0.5613 -0.2519 -1.0361
 1393SOL    MW4 5340   5.815   4.090   3.049 -0.4518  0.0880 -0.3830
 1394SOL     OW 5341   0.558   0.958   1.983  0.3086 -0.0928  0.2363
 1394SOL    HW2 5342   0.566   0.862   1.987  0.4755 -0.0478  1.6985
 1394SOL    HW3 5343   0.505   0.975   1.906  0.1272 -1.3762  0.0559
 1394SOL    MW4 5344   0.552   0.947   1.973  0.3067 -0.2562  0.4054
 1395SOL     OW 5345   5.673   4.210   6.177  0.2983  0.8188 -0.3078
 1395SOL    HW2 5346   5.717   4.126   6.165  0.7105  0.9887 -0.0359
 1395SOL    HW3 5347   5.682   4.255   6.093 -0.7598  0.2095 -0.7510
 1395SOL    MW4 5348   5.680   4.205   6.165  0.2131  0.7608 -0.3304
 1396SOL     OW 5349   3.816   0.583   4.357  0.3413  0.2786 -0.5215
 1396SOL    HW2 5350   3.727   0.577   4.393  1.0055 -0.5728  1.0712
 1396SOL    HW3 5351   3.805   0.562   4.264 -0.9115 -1.8774  0.0253
 1396SOL    MW4 5352   3.803   0.579   4.350  0.2637 -0.1182 -0.2392
 1397SOL     OW 5353   0.291   5.893   4.220  0.0327  0.1861 -0.0927
 1397SOL    HW2 5354   0.353   5.824   4.242 -0.1196 -0.3013 -1.1012
 1397SOL    HW3 5355   0.210   5.847   4.201 -0.2572  0.7023 -0.1166
 1397SOL    MW4 5356   0.289   5.878   4.220 -0.0256  0.1899 -0.2289
 1398SOL     OW 5357   1.058   3.307   2.317 -0.3366  0.6175 -0.5330
 1398SOL    HW2 5358   1.152   3.286   2.318 -0.1938  1.2397 -0.5801
 1398SOL    HW3 5359   1.015   3.222   2.313  0.2084  0.2940  0.2374
 1398SOL    MW4 5360   1.065   3.293   2.317 -0.2458  0.6569 -0.4375
 1399SOL     OW 5361   1.784   0.216   3.705  0.5033 -0.3447  0.6145
 1399SOL    HW2 5362   1.757   0.140   3.654 -1.9789  0.6398  0.3281
 1399SOL    HW3 5363   1.758   0.195   3.795 -1.8258  0.7646  0.2781
 1399SOL    MW4 5364   1.777   0.204   3.711 -0.1315 -0.0684  0.5323
 1400SOL     OW 5365   2.224   1.556   0.362 -0.2342 -0.1476 -0.3440
 1400SOL    HW2 5366   2.176   1.632   0.394  0.4897  0.3032 -0.3105
 1400SOL    HW3 5367   2.308   1.591   0.333 -1.2994 -0.2556 -4.0796
 1400SOL    MW4 5368   2.228   1.570   0.362 -0.2792 -0.1023 -0.8325
 1401SOL     OW 5369   2.562   5.843   4.162  0.2542 -0.2104 -0.0784
 1401SOL    HW2 5370   2.550   5.824   4.069  0.1697  1.3890 -0.4227
 1401SOL    HW3 5371   2.489   5.901   4.184  0.4188 -0.3675  0.9257
 1401SOL    MW4 5372   2.551   5.848   4.152  0.2647 -0.0201  0.0087
 1402SOL     OW 5373   3.073   5.194   0.123 -0.2453  0.4856  0.1444
 1402SOL    HW2 5374   3.057   5.282   0.089  0.1188  0.3217 -0.4613
 1402SOL    HW3 5375   3.012   5.138   0.076 -0.0418  0.3196  0.0783
 1402SOL    MW4 5376   3.063   5.198   0.113 -0.1704  0.4421  0.0558
 1403SOL     OW 5377   5.927   4.255   0.758 -0.0602  0.5326 -0.1677
 1403SOL    HW2 5378   5.899   4.298   0.838 -2.1395 -0.1398 -0.4681
 1403SOL    HW3 5379   5.996   4.312   0.723  0.1285  1.3974  1.5069
 1403SOL    MW4 5380   5.933   4.268   0.764 -0.3096  0.5580  0.0136
 1404SOL     OW 5381   0.859   5.134   2.947 -0.6137  0.0057  0.2130
 1404SOL    HW2 5382   0.790   5.190   2.914  0.4126 -0.5663 -3.2578
 1404SOL    HW3 5383   0.859   5.058   2.889  1.0364 -1.4179  1.9174
 1404SOL    MW4 5384   0.850   5.131   2.935 -0.2606 -0.2576 -0.0201
 1405SOL     OW 5385   5.168   3.022   2.052 -0.0984  0.5064  0.4148
 1405SOL    HW2 5386   5.074   3.011   2.036  0.4113 -2.2376 -1.4111
 1405SOL    HW3 5387   5.205   3.035   1.965  1.3269  0.8281  1.0472
 1405SOL    MW4 5388   5.160   3.023   2.038  0.1569  0.1868  0.2573
 1406SOL     OW 5389   1.581   0.920   6.266  0.2266  0.0038  0.0474
 1406SOL    HW2 5390   1.516   0.851   6.276 -0.9463  1.1678  0.7572
 1406SOL    HW3 5391   1.658   0.876   6.231 -1.1744 -1.2873 -1.5418
 1406SOL    MW4 5392   1.582   0.905   6.263 -0.1130 -0.0130 -0.0686
 1407SOL     OW 5393   6.336   4.089   5.081 -0.1715  0.0990 -0.5404
 1407SOL    HW2 5394   6.341   4.165   5.022 -1.7323 -0.6779 -1.7299
 1407SOL    HW3 5395   6.427   4.072   5.104  0.2407  2.3287 -0.2121
 1407SOL    MW4 5396   6.349   4.097   5.076 -0.3231  0.2907 -0.6540
 1408SOL     OW 5397   3.214   6.345   2.625  0.3360  0.4397  0.0330
 1408SOL    HW2 5398   3.264   6.310   2.551  0.5706  2.8097 -1.0264
 1408SOL    HW3 5399   3.279   6.391   2.678  0.0144 -0.4845  1.2759
 1408SOL    MW4 5400   3.229   6.347   2.622  0.3245  0.6304  0.0572
 1409SOL     OW 5401   4.242   1.362   1.354 -0.4289  0.2304 -0.2421
 1409SOL    HW2 5402   4.298   1.432   1.320 -0.7884  1.5613  1.7390
 1409SOL    HW3 5403   4.270   1.352   1.445 -1.0237 -1.6040 -0.2239
 1409SOL    MW4 5404   4.253   1.370   1.361 -0.5548  0.1640  0.0217
 1410SOL     OW 5405   3.966   0.335   5.407 -0.1114  0.3657 -0.6382
 1410SOL    HW2 5406   3.962   0.258   5.464 -1.7374  1.5089  0.9051
 1410SOL    HW3 5407   3.905   0.316   5.336  0.0223 -0.0603 -0.6373
 1410SOL    MW4 5408   3.958   0.323   5.405 -0.3083  0.4603 -0.4344
 1411SOL     OW 5409   5.958   5.621   0.501 -0.3370  0.3838  0.4702
 1411SOL    HW2 5410   6.043   5.607   0.543 -0.6783  0.2590  1.1247
 1411SOL    HW3 5411   5.894   5.610   0.571 -0.8475  1.3292  0.1666
 1411SOL    MW4 5412   5.961   5.618   0.516 -0.4494  0.4920  0.5165
 1412SOL     OW 5413   5.051   3.976   4.628  0.0134 -0.4590 -0.2073
 1412SOL    HW2 5414   5.052   3.913   4.700  2.1814 -0.3954 -0.1200
 1412SOL    HW3 5415   5.121   4.037   4.649  2.2645 -1.6817 -3.3635
 1412SOL    MW4 5416   5.060   3.976   4.641  0.5964 -0.6120 -0.6122
 1413SOL     OW 5417   0.620   1.997   3.426 -0.0313 -0.2484 -0.3488
 1413SOL    HW2 5418   0.552   1.993   3.494 -0.5589 -1.1323 -0.9003
 1413SOL    HW3 5419   0.671   1.917   3.439 -1.1774 -1.3174 -2.0128
 1413SOL    MW4 5420   0.617   1.986   3.437 -0.2521 -0.5061 -0.6411
 1414SOL     OW 5421   2.931   4.258   1.399  0.0753  0.2013 -0.0260
 1414SOL    HW2 5422   2.953   4.235   1.309 -0.1984  1.0807 -0.3330
 1414SOL    HW3 5423   3.004   4.314   1.428 -1.0142  2.0269 -0.5973
 1414SOL    MW4 5424   2.943   4.263   1.391 -0.1046  0.5582 -0.1419
 1415SOL     OW 5425   3.231   3.540   2.508  0.0764 -0.3802  0.6019
 1415SOL    HW2 5426   3.315   3.535   2.554 -0.1246 -0.2781  0.9889
 1415SOL    HW3 5427   3.173   3.481   2.558 -0.4621  0.5932  1.1751
 1415SOL    MW4 5428   3.234   3.531   2.521 -0.0212 -0.2383  0.7286
 1416SOL     OW 5429   0.039   1.579   3.386  0.2302  0.1693 -0.1867
 1416SOL    HW2 5430   0.038   1.536   3.300 -0.5627  1.0341 -0.6318
 1416SOL    HW3 5431   0.131   1.583   3.410  0.4597 -0.1252 -0.9796
 1416SOL    MW4 5432   0.051   1.574   3.378  0.1558  0.2445 -0.3500
 1417SOL     OW 5433   5.696   6.044   2.780  0.5852 -0.3332 -0.4567
 1417SOL    HW2 5434   5.678   6.116   2.721 -2.2118  0.6826  1.4264
 1417SOL    HW3 5435   5.752   6.081   2.848 -0.2541 -0.1012  0.1218
 1417SOL    MW4 5436   5.701   6.058   2.782  0.1054 -0.1686 -0.1319
 1418SOL     OW 5437   5.648   4.822   4.082  0.2529  0.2261 -0.7085
 1418SOL    HW2 5438   5.643   4.768   4.161  1.7337  2.1166  0.7927
 1418SOL    HW3 5439   5.558   4.853   4.068  0.1070  0.5291  0.7592
 1418SOL    MW4 5440   5.635   4.819   4.091  0.4290  0.5155 -0.3168
 1419SOL     OW 5441   2.727   0.203   6.332  0.4541  0.4208  0.0561
 1419SOL    HW2 5442   2.736   0.272   6.399 -1.3846  0.4077  0.3705
 1419SOL    HW3 5443   2.747   0.122   6.379 -0.6983  0.4242  0.5908
 1419SOL    MW4 5444   2.731   0.202   6.347  0.0595  0.4195  0.1681
 1420SOL     OW 5445   1.579   1.448   5.650 -0.3522 -0.2773  0.0516
 1420SOL    HW2 5446   1.501   1.397   5.672  0.3455 -0.5447  2.1372
 1420SOL    HW3 5447   1.549   1.539   5.653 -0.5385 -0.3642  1.1352
 1420SOL    MW4 5448   1.565   1.454   5.653 -0.2848 -0.3241  0.4697
 1421SOL     OW 5449   2.104   1.521   4.217 -0.0199  0.2905  0.2878
 1421SOL    HW2 5450   2.154   1.452   4.259  1.0669  0.6448 -0.3629
 1421SOL    HW3 5451   2.015   1.511   4.250 -0.0525 -1.8600 -0.3306
 1421SOL    MW4 5452   2.099   1.511   4.227  0.1192  0.0535  0.1203
 1422SOL     OW 5453   2.281   4.453   6.275  0.2898  0.6889 -0.3676
 1422SOL    HW2 5454   2.327   4.371   6.259  0.3262  0.7382 -0.5230
 1422SOL    HW3 5455   2.190   4.427   6.290  0.5197  0.5169  0.8278
 1422SOL    MW4 5456   2.275   4.439   6.275  0.3249  0.6727 -0.2304
 1423SOL     OW 5457   3.292   4.143   0.132 -0.0689  0.3078 -0.5930
 1423SOL    HW2 5458   3.306   4.070   0.192  0.0492  1.2293  0.5229
 1423SOL    HW3 5459   3.306   4.105   0.045  0.2423 -0.9308 -0.0250
 1423SOL    MW4 5460   3.295   4.129   0.128 -0.0122  0.2660 -0.3708
 1424SOL     OW 5461   3.459   1.122   2.914 -0.1473  0.4700 -0.5015
 1424SOL    HW2 5462   3.407   1.110   2.993  2.4604  1.1943  1.4634
 1424SOL    HW3 5463   3.444   1.214   2.889  0.1080  0.6551  0.0119
 1424SOL    MW4 5464   3.450   1.133   2.921  0.2304  0.5900 -0.1745
 1425SOL     OW 5465   0.027   0.533   4.638  0.5631 -0.5489  0.3095
 1425SOL    HW2 5466   0.015   0.544   4.544  0.4528  1.2138  0.4995
 1425SOL    HW3 5467  -0.007   0.446   4.657 -1.8825  0.0786 -0.8769
 1425SOL    MW4 5468   0.021   0.523   4.628  0.2259 -0.2336  0.1781
 1426SOL     OW 5469   6.159   0.591   4.398  0.7353 -0.4307  0.3949
 1426SOL    HW2 5470   6.079   0.544   4.374 -0.1370  0.8668  0.6702
 1426SOL    HW3 5471   6.151   0.607   4.492  0.7597  0.7367  0.2042
 1426SOL    MW4 5472   6.147   0.587   4.407  0.6234 -0.1055  0.4061
 1427SOL     OW 5473   4.132   5.026   1.787 -0.0325  0.3738 -0.0478
 1427SOL    HW2 5474   4.222   5.028   1.819  0.3642  0.8115 -1.1324
 1427SOL    HW3 5475   4.140   5.048   1.694 -1.3073  0.9386 -0.0396
 1427SOL    MW4 5476   4.145   5.029   1.779 -0.1484  0.5060 -0.1898
 1428SOL     OW 5477   6.130   5.683   0.830 -0.3531 -0.4826 -0.3757
 1428SOL    HW2 5478   6.179   5.653   0.907 -1.1426 -1.5383 -0.2640
 1428SOL    HW3 5479   6.181   5.757   0.797  2.0440 -2.2798 -1.0161
 1428SOL    MW4 5480   6.144   5.688   0.836 -0.1410 -0.8590 -0.4454
 1429SOL     OW 5481   5.307   1.829   0.797  0.0261 -0.3411 -0.0447
 1429SOL    HW2 5482   5.302   1.830   0.702  1.2499 -1.9494 -0.1747
 1429SOL    HW3 5483   5.395   1.859   0.817 -0.4451  0.6300  0.6326
 1429SOL    MW4 5484   5.318   1.833   0.787  0.1254 -0.4251  0.0275
 1430SOL     OW 5485   2.584   0.904   0.704  0.4080  0.4509  0.6220
 1430SOL    HW2 5486   2.535   0.897   0.786  2.4251 -0.0779  1.8632
 1430SOL    HW3 5487   2.616   0.815   0.687  0.7751  0.7368 -0.2508
 1430SOL    MW4 5488   2.582   0.891   0.713  0.7226  0.4189  0.6706
 1431SOL     OW 5489   5.924   0.842   1.833 -0.1040 -0.0669  0.2380
 1431SOL    HW2 5490   5.906   0.935   1.824  1.7720  0.3348  0.3777
 1431SOL    HW3 5491   5.917   0.825   1.927 -3.1456 -0.7114 -0.0003
 1431SOL    MW4 5492   5.921   0.852   1.844 -0.2577 -0.0989  0.2250
 1432SOL     OW 5493   5.323   4.659   2.622 -0.0012 -0.0390  0.3904
 1432SOL    HW2 5494   5.241   4.707   2.631  0.1483  0.1622  0.6958
 1432SOL    HW3 5495   5.378   4.692   2.693  0.6771  0.5091 -0.3756
 1432SOL    MW4 5496   5.320   4.670   2.633  0.1080  0.0598  0.3297
 1433SOL     OW 5497   5.147   2.668   5.758  0.3961  0.5841 -0.2279
 1433SOL    HW2 5498   5.169   2.611   5.832  0.7414  1.5257  0.4064
 1433SOL    HW3 5499   5.229   2.676   5.709  0.1868  0.0237 -0.6784
 1433SOL    MW4 5500   5.161   2.661   5.761  0.4140  0.6344 -0.2037
 1434SOL     OW 5501   5.568   2.666   3.628  0.0680 -0.1827 -0.5570
 1434SOL    HW2 5502   5.654   2.644   3.593  0.7904 -0.0558  1.0396
 1434SOL    HW3 5503   5.546   2.750   3.588  0.7352 -0.1626 -0.8898
 1434SOL    MW4 5504   5.577   2.674   3.618  0.2513 -0.1633 -0.3902
 1435SOL     OW 5505   4.988   4.868   3.298 -0.5373  0.7794  0.0330
 1435SOL    HW2 5506   4.902   4.836   3.323 -1.0382  0.0243 -2.3838
 1435SOL    HW3 5507   4.988   4.864   3.203  2.0008  1.2532 -0.0516
 1435SOL    MW4 5508   4.977   4.863   3.289 -0.2685  0.7423 -0.2970
 1436SOL     OW 5509   4.941   2.320   0.133 -0.0401 -0.7260  0.3254
 1436SOL    HW2 5510   4.858   2.287   0.099  0.6844 -0.6626 -1.6599
 1436SOL    HW3 5511   4.944   2.412   0.104  0.2759 -0.4264  1.2727
 1436SOL    MW4 5512   4.931   2.328   0.125  0.0972 -0.6781  0.1885
 1437SOL     OW 5513   2.410   5.702   4.792  0.0920 -0.5873 -0.3590
 1437SOL    HW2 5514   2.433   5.794   4.806 -1.0548 -0.1920 -0.9506
 1437SOL    HW3 5515   2.397   5.667   4.880  1.5361 -0.4823 -0.0687
 1437SOL    MW4 5516   2.412   5.709   4.806  0.1312 -0.5213 -0.3988
 1438SOL     OW 5517   0.792   2.016   0.740 -0.2929  0.0203  0.2320
 1438SOL    HW2 5518   0.753   1.941   0.695  1.2675 -1.2606  0.9013
 1438SOL    HW3 5519   0.845   2.060   0.673  1.5046 -1.5083  0.5514
 1438SOL    MW4 5520   0.794   2.012   0.725  0.1501 -0.3504  0.3625
 1439SOL     OW 5521   2.228   3.891   5.978 -0.7028  0.6719  0.8138
 1439SOL    HW2 5522   2.288   3.885   6.052 -0.7315  0.7546  0.8435
 1439SOL    HW3 5523   2.279   3.931   5.908 -0.2731 -0.5962  0.3670
 1439SOL    MW4 5524   2.242   3.895   5.978 -0.6499  0.5155  0.7587
 1440SOL     OW 5525   2.131   6.138   3.413  0.7190 -0.3508 -0.0514
 1440SOL    HW2 5526   2.167   6.222   3.386  1.5442 -0.3640  0.9701
 1440SOL    HW3 5527   2.039   6.141   3.385  0.0261  1.9111  2.1639
 1440SOL    MW4 5528   2.123   6.149   3.406  0.7364 -0.0541  0.3756
 1441SOL     OW 5529   5.104   5.435   2.671  0.3745 -0.5439 -0.6155
 1441SOL    HW2 5530   5.026   5.490   2.667  0.4226 -0.5359 -3.0212
 1441SOL    HW3 5531   5.071   5.346   2.681  0.0662 -0.4933 -1.1492
 1441SOL    MW4 5532   5.089   5.430   2.671  0.3402 -0.5362 -1.0033
 1442SOL     OW 5533   6.414   4.049   6.452 -0.9994  0.1725 -0.0007
 1442SOL    HW2 5534   6.355   4.020   6.522  2.1873 -1.5303  2.2543
 1442SOL    HW3 5535   6.412   3.978   6.388 -1.4600  0.1737  0.0132
 1442SOL    MW4 5536   6.406   4.036   6.453 -0.6397 -0.0520  0.2986
 1443SOL     OW 5537   6.078   3.555   3.719  0.5516  0.0021  0.2315
 1443SOL    HW2 5538   6.126   3.630   3.753  1.5867 -0.4941 -0.0924
 1443SOL    HW3 5539   6.045   3.510   3.797  1.1976 -0.0260  0.4930
 1443SOL    MW4 5540   6.080   3.559   3.734  0.7734 -0.0671  0.2232
 1444SOL     OW 5541   0.534   5.577   2.370  0.6649  0.4790  0.0181
 1444SOL    HW2 5542   0.576   5.606   2.289 -0.1724 -0.2070 -0.6854
 1444SOL    HW3 5543   0.449   5.543   2.343  0.1684  0.6623  1.2524
 1444SOL    MW4 5544   0.528   5.576   2.356  0.4889  0.4126  0.0882
 1445SOL     OW 5545   5.030   3.373   5.980 -0.0996  0.0820  0.3678
 1445SOL    HW2 5546   4.983   3.303   6.026  0.8037 -0.0288  1.1682
 1445SOL    HW3 5547   4.963   3.418   5.929 -0.9321 -0.5372  0.8898
 1445SOL    MW4 5548   5.015   3.370   5.979 -0.0902 -0.0143  0.5423
 1446SOL     OW 5549   4.919   5.538   5.568 -0.6736 -0.1514 -0.2673
 1446SOL    HW2 5550   4.946   5.598   5.499 -0.3990  1.2884  1.0335
 1446SOL    HW3 5551   4.997   5.528   5.623 -1.5064  0.5725  1.1010
 1446SOL    MW4 5552   4.933   5.545   5.566 -0.7472  0.1341  0.0848
 1447SOL     OW 5553   3.067   2.500   2.038 -0.2121  0.0709  0.4385
 1447SOL    HW2 5554   3.151   2.474   2.074 -0.8524  0.2657  2.1794
 1447SOL    HW3 5555   3.036   2.569   2.096  0.0573  2.7030 -2.2902
 1447SOL    MW4 5556   3.074   2.506   2.050 -0.2611  0.4439  0.3082
 1448SOL     OW 5557   2.437   2.009   5.901  0.0526  0.0676  0.6425
 1448SOL    HW2 5558   2.436   2.027   5.995  0.1809 -0.6118  0.7799
 1448SOL    HW3 5559   2.449   1.914   5.895 -2.3719 -0.2679  0.0057
 1448SOL    MW4 5560   2.438   1.999   5.913 -0.2504 -0.0663  0.5766
 1449SOL     OW 5561   5.466   5.329   5.431 -0.0556  0.2145 -0.0587
 1449SOL    HW2 5562   5.441   5.263   5.495 -2.9653 -0.4459 -1.7320
 1449SOL    HW3 5563   5.421   5.409   5.460 -3.9495 -0.7916 -2.6644
 1449SOL    MW4 5564   5.457   5.331   5.443 -0.9532 -0.0054 -0.6233
 1450SOL     OW 5565   0.988   2.253   2.563 -0.4962 -0.3387 -0.9624
 1450SOL    HW2 5566   1.072   2.223   2.529 -1.4319 -3.5955 -0.7491
 1450SOL    HW3 5567   1.008   2.282   2.652  0.5582 -0.0527 -1.2791
 1450SOL    MW4 5568   1.002   2.253   2.571 -0.4805 -0.7307 -0.9760
 1451SOL     OW 5569   3.792   5.635   2.121 -0.5764  0.2977 -0.2981
 1451SOL    HW2 5570   3.752   5.669   2.041  0.8023  1.2823 -0.6235
 1451SOL    HW3 5571   3.853   5.568   2.091 -1.0950 -0.3407  0.0663
 1451SOL    MW4 5572   3.795   5.631   2.107 -0.4629  0.3434 -0.2929
 1452SOL     OW 5573   3.192   0.755   5.296 -0.6747 -0.1680  0.6218
 1452SOL    HW2 5574   3.234   0.673   5.268 -0.8162 -0.6760  1.8268
 1452SOL    HW3 5575   3.224   0.821   5.235  1.5356 -0.6177  1.2014
 1452SOL    MW4 5576   3.201   0.753   5.284 -0.4017 -0.2943  0.8572
 1453SOL     OW 5577   2.305   3.745   2.819  0.0849  0.2164  0.2678
 1453SOL    HW2 5578   2.320   3.659   2.781  2.2496 -0.8753  3.1904
 1453SOL    HW3 5579   2.225   3.736   2.870 -1.1570  0.8006 -1.4950
 1453SOL    MW4 5580   2.297   3.733   2.821  0.2067  0.1494  0.4208
 1454SOL     OW 5581   1.678   0.976   0.782 -0.2611 -0.0626 -0.1149
 1454SOL    HW2 5582   1.665   0.903   0.721 -1.4254 -1.1952  1.3983
 1454SOL    HW3 5583   1.631   0.950   0.861 -0.1475  2.0630  0.7261
 1454SOL    MW4 5584   1.670   0.963   0.784 -0.3997  0.0684  0.1957
 1455SOL     OW 5585   3.118   4.950   0.762 -0.1692  0.5634  0.4549
 1455SOL    HW2 5586   3.182   4.928   0.695 -0.8344  1.2233 -0.4295
 1455SOL    HW3 5587   3.088   4.866   0.796  1.3645  0.2590  1.0928
 1455SOL    MW4 5588   3.122   4.936   0.758 -0.0546  0.6103  0.4224
 1456SOL     OW 5589   1.363   0.183   5.642  0.4162 -0.4642 -0.6204
 1456SOL    HW2 5590   1.406   0.253   5.691  1.3747 -1.5510  0.1463
 1456SOL    HW3 5591   1.307   0.229   5.580  0.1197  0.9741  0.6440
 1456SOL    MW4 5592   1.361   0.199   5.640  0.5036 -0.4178 -0.3524
 1457SOL     OW 5593   5.021   1.423   2.495  0.0658  0.0431 -0.1934
 1457SOL    HW2 5594   5.038   1.344   2.545 -1.0814  0.2138  0.4884
 1457SOL    HW3 5595   4.935   1.409   2.454 -0.0864  0.8597 -0.1873
 1457SOL    MW4 5596   5.012   1.411   2.496 -0.1056  0.1733 -0.1026
 1458SOL     OW 5597   5.845   0.463   2.227 -0.3223  0.0820  0.4644
 1458SOL    HW2 5598   5.878   0.432   2.312 -2.2217 -2.2495  0.4593
 1458SOL    HW3 5599   5.818   0.383   2.182 -0.6204  1.3978 -1.8120
 1458SOL    MW4 5600   5.846   0.448   2.232 -0.6122 -0.0520  0.1634
 1459SOL     OW 5601   3.232   1.248   5.022  0.4565  0.6640 -0.0660
 1459SOL    HW2 5602   3.263   1.221   5.109 -0.8981  1.4469  0.7113
 1459SOL    HW3 5603   3.186   1.331   5.039 -0.3504  0.5214 -1.4319
 1459SOL    MW4 5604   3.230   1.256   5.036  0.1713  0.7485 -0.1437
 1460SOL     OW 5605   3.245   5.411   1.684 -0.2471 -0.3587 -0.6611
 1460SOL    HW2 5606   3.188   5.361   1.626  1.0469 -1.3301 -1.1291
 1460SOL    HW3 5607   3.325   5.425   1.634  0.7562 -0.8811  0.7351
 1460SOL    MW4 5608   3.248   5.406   1.670  0.0560 -0.5558 -0.5386
 1461SOL     OW 5609   4.318   0.116   4.011 -0.4209  0.0248 -0.1983
 1461SOL    HW2 5610   4.267   0.098   3.932  0.6816  0.1822 -0.9604
 1461SOL    HW3 5611   4.282   0.057   4.077  0.4640 -2.1537 -1.5689
 1461SOL    MW4 5612   4.306   0.106   4.010 -0.1587 -0.2419 -0.4797
 1462SOL     OW 5613   4.771   2.807   2.908 -0.3348 -0.1969  0.2088
 1462SOL    HW2 5614   4.726   2.761   2.979  0.4607  0.7267  1.3436
 1462SOL    HW3 5615   4.716   2.792   2.831 -1.5240 -0.7343  1.1320
 1462SOL    MW4 5616   4.758   2.799   2.907 -0.3868 -0.1459  0.4803
 1463SOL     OW 5617   3.885   5.724   2.857  0.0941  0.2729  0.2183
 1463SOL    HW2 5618   3.966   5.680   2.884 -0.5513  0.0491  1.8727
 1463SOL    HW3 5619   3.837   5.738   2.938 -0.3022  2.9282 -0.3754
 1463SOL    MW4 5620   3.889   5.720   2.871 -0.0434  0.5937  0.3582
 1464SOL     OW 5621   4.896   1.292   1.734  0.1391  0.1788 -0.1006
 1464SOL    HW2 5622   4.876   1.238   1.657 -0.5222 -0.8795  0.7766
 1464SOL    HW3 5623   4.988   1.274   1.752  0.1272 -0.0657 -0.2754
 1464SOL    MW4 5624   4.906   1.282   1.726  0.0503  0.0069 -0.0080
 1465SOL     OW 5625   1.476   3.058   2.043  0.0913 -0.8616 -0.1978
 1465SOL    HW2 5626   1.452   3.126   2.105 -1.0379 -2.2617  0.9747
 1465SOL    HW3 5627   1.462   3.097   1.957  1.5381  1.0669  0.3662
 1465SOL    MW4 5628   1.471   3.072   2.040  0.1332 -0.7919  0.0313
 1466SOL     OW 5629   4.744   3.372   6.181 -0.2518  0.4192 -0.6599
 1466SOL    HW2 5630   4.663   3.376   6.131 -0.7789 -0.0807  0.1454
 1466SOL    HW3 5631   4.788   3.293   6.150  0.5609  1.3592 -2.0175
 1466SOL    MW4 5632   4.739   3.362   6.171 -0.2141  0.4772 -0.7328
 1467SOL     OW 5633   4.152   0.409   0.272  0.1146 -0.1701  0.8499
 1467SOL    HW2 5634   4.128   0.502   0.266  0.6861 -0.1109 -1.1644
 1467SOL    HW3 5635   4.232   0.409   0.326  1.1007  0.7423 -0.5456
 1467SOL    MW4 5636   4.159   0.422   0.278  0.3201 -0.0419  0.4000
 1468SOL     OW 5637   1.284   2.318   1.627  0.1638 -0.4384  0.4423
 1468SOL    HW2 5638   1.320   2.265   1.556 -1.9376 -0.7840 -0.4251
 1468SOL    HW3 5639   1.190   2.302   1.624 -0.1760  0.9109  2.2042
 1468SOL    MW4 5640   1.277   2.309   1.617 -0.1583 -0.3060  0.5603
 1469SOL     OW 5641   6.174   2.152   4.418  0.1796  0.3755  0.3999
 1469SOL    HW2 5642   6.133   2.069   4.443  1.1440  0.1611  1.3473
 1469SOL    HW3 5643   6.156   2.211   4.492  2.0011  0.1109  1.1045
 1469SOL    MW4 5644   6.166   2.149   4.431  0.5472  0.3123  0.6178
 1470SOL     OW 5645   0.631   0.655   3.168 -0.3331  0.5596 -0.0092
 1470SOL    HW2 5646   0.679   0.699   3.098 -0.3999 -0.7332 -0.9135
 1470SOL    HW3 5647   0.561   0.608   3.122 -0.0532 -0.7483  0.8660
 1470SOL    MW4 5648   0.628   0.655   3.153 -0.3050  0.2165 -0.0131
 1471SOL     OW 5649   5.948   4.509   2.734  0.2702 -0.7939  0.0585
 1471SOL    HW2 5650   5.947   4.548   2.646 -0.2148  2.0396  1.2088
 1471SOL    HW3 5651   5.966   4.583   2.792 -0.6691 -2.3532  2.4643
 1471SOL    MW4 5652   5.950   4.524   2.730  0.0822 -0.6258  0.5277
 1472SOL     OW 5653   2.389   4.689   3.520  0.0172 -0.0035  0.2267
 1472SOL    HW2 5654   2.331   4.656   3.451  0.4944  0.5694 -0.4668
 1472SOL    HW3 5655   2.403   4.782   3.497  1.2288 -0.1378  0.3480
 1472SOL    MW4 5656   2.383   4.697   3.508  0.2400  0.0544  0.1512
 1473SOL     OW 5657   2.195   4.303   1.796 -0.2909 -0.4791 -0.2851
 1473SOL    HW2 5658   2.240   4.228   1.756  2.0410  1.4295 -1.4533
 1473SOL    HW3 5659   2.121   4.321   1.738 -1.0553 -1.9671  0.1578
 1473SOL    MW4 5660   2.191   4.295   1.783 -0.0841 -0.4236 -0.3808
 1474SOL     OW 5661   1.097   1.181   4.808 -0.1101 -0.1238 -0.3999
 1474SOL    HW2 5662   1.021   1.124   4.818 -2.1611  2.1856 -1.5739
 1474SOL    HW3 5663   1.131   1.192   4.897 -1.0722 -1.2837  0.1400
 1474SOL    MW4 5664   1.091   1.175   4.821 -0.5076  0.0278 -0.4836
 1475SOL     OW 5665   3.213   5.937   3.816  0.0577  0.1703  0.1620
 1475SOL    HW2 5666   3.155   5.997   3.769  1.7633  1.4676 -0.3888
 1475SOL    HW3 5667   3.288   5.926   3.759  1.6765  0.8532  2.0378
 1475SOL    MW4 5668   3.215   5.943   3.803  0.4963  0.4315  0.3368
 1476SOL     OW 5669   1.057   2.757   6.449 -0.1906  0.0055 -0.5464
 1476SOL    HW2 5670   0.970   2.744   6.486 -0.2163 -1.0130 -0.9143
 1476SOL    HW3 5671   1.117   2.748   6.524 -0.4125  1.1875 -0.2090
 1476SOL    MW4 5672   1.054   2.754   6.464 -0.2232  0.0271 -0.5505
 1477SOL     OW 5673   6.348   3.654   4.388  0.6526  0.4919 -0.6229
 1477SOL    HW2 5674   6.296   3.662   4.467  0.1493 -0.0272 -0.8947
 1477SOL    HW3 5675   6.420   3.717   4.400  0.3946  0.6611  0.0864
 1477SOL    MW4 5676   6.351   3.663   4.400  0.5521  0.4457 -0.5652
 1478SOL     OW 5677   6.142   4.497   0.989  0.0953  0.1879  0.0347
 1478SOL    HW2 5678   6.119   4.405   0.999  0.2215 -0.0201 -1.3816
 1478SOL    HW3 5679   6.065   4.537   0.947  0.5079  0.4505 -0.4923
 1478SOL    MW4 5680   6.129   4.490   0.985  0.1664  0.1951 -0.2217
 1479SOL     OW 5681   1.230   2.245   3.579 -0.5146  0.1199  0.0933
 1479SOL    HW2 5682   1.218   2.187   3.654  1.0120 -1.0913 -0.5559
 1479SOL    HW3 5683   1.281   2.318   3.613 -1.5115  0.5672  0.6642
 1479SOL    MW4 5684   1.235   2.247   3.593 -0.4447  0.0191  0.0830
 1480SOL     OW 5685   2.590   1.410   4.774 -0.8026  0.1866  0.3569
 1480SOL    HW2 5686   2.561   1.397   4.865  0.1856 -1.4864  0.4676
 1480SOL    HW3 5687   2.533   1.480   4.741  0.1633  2.3353  2.8755
 1480SOL    MW4 5688   2.579   1.417   4.782 -0.5447  0.2494  0.7038
 1481SOL     OW 5689   0.819   3.839   4.026  0.6061  0.1543 -0.1060
 1481SOL    HW2 5690   0.849   3.908   3.967  1.0755  0.5794  0.6153
 1481SOL    HW3 5691   0.777   3.886   4.098  1.3584 -0.2755  0.6359
 1481SOL    MW4 5692   0.817   3.854   4.028  0.7673  0.1537  0.0871
 1482SOL     OW 5693   4.421   5.333   0.608  0.2719  0.6813 -0.6172
 1482SOL    HW2 5694   4.475   5.398   0.563  0.9774  0.5069 -0.0267
 1482SOL    HW3 5695   4.455   5.249   0.579  1.0756  0.5656  0.6409
 1482SOL    MW4 5696   4.432   5.331   0.598  0.4710  0.6430 -0.3733
 1483SOL     OW 5697   5.117   5.983   5.429 -0.0676  0.7005  0.0607
 1483SOL    HW2 5698   5.170   6.017   5.357  1.0367  0.8854  0.9237
 1483SOL    HW3 5699   5.027   6.008   5.407 -0.1693 -1.5209 -2.5447
 1483SOL    MW4 5700   5.112   5.991   5.417  0.0647  0.4318 -0.1692
 1484SOL     OW 5701   3.888   6.251   2.592  0.6072  0.5891 -0.1439
 1484SOL    HW2 5702   3.889   6.301   2.510 -0.9360  1.6482  0.4292
 1484SOL    HW3 5703   3.877   6.318   2.660 -1.7981 -0.4900  0.6400
 1484SOL    MW4 5704   3.887   6.267   2.590  0.0863  0.5865  0.0351
 1485SOL     OW 5705   5.905   4.597   6.264 -0.0722 -0.2825 -0.4213
 1485SOL    HW2 5706   5.988   4.554   6.242  0.0453 -1.4585  1.9931
 1485SOL    HW3 5707   5.928   4.690   6.273  0.7241 -0.4267 -0.8768
 1485SOL    MW4 5708   5.919   4.604   6.262  0.0484 -0.4567 -0.1629
 1486SOL     OW 5709   1.921   6.457   1.365 -0.0579  0.6209 -0.7256
 1486SOL    HW2 5710   1.949   6.524   1.428  0.0939 -0.7119  0.6936
 1486SOL    HW3 5711   2.002   6.430   1.321  0.8113 -1.8910  2.0501
 1486SOL    MW4 5712   1.935   6.462   1.367  0.0768  0.1136 -0.1722
 1487SOL     OW 5713   3.002   6.273   4.603 -0.0992 -0.1784 -0.7130
 1487SOL    HW2 5714   2.934   6.322   4.556 -1.1754 -1.2472 -0.2957
 1487SOL    HW3 5715   3.082   6.326   4.590 -1.1326  1.4841 -0.5904
 1487SOL    MW4 5716   3.004   6.287   4.595 -0.3775 -0.1000 -0.6418
 1488SOL     OW 5717   3.551   0.583   5.806 -0.1115 -0.1290  0.0235
 1488SOL    HW2 5718   3.577   0.536   5.885  0.9756 -0.6567 -0.6317
 1488SOL    HW3 5719   3.470   0.629   5.831 -0.6875 -1.5931  0.9425
 1488SOL    MW4 5720   3.543   0.583   5.820 -0.0441 -0.3918  0.0583
 1489SOL     OW 5721   1.903   2.621   5.250 -0.0443 -0.5792  0.5562
 1489SOL    HW2 5722   1.831   2.658   5.198  1.4417  0.2097 -1.0715
 1489SOL    HW3 5723   1.908   2.530   5.222  0.1773 -0.3911 -0.0333
 1489SOL    MW4 5724   1.894   2.614   5.239  0.1810 -0.4503  0.2637
 1490SOL     OW 5725   5.908   4.950   0.649 -0.2870  0.2337  0.5658
 1490SOL    HW2 5726   5.932   5.003   0.573 -0.4114 -2.6420 -1.6520
 1490SOL    HW3 5727   5.991   4.932   0.694 -0.0298  0.8799  0.3477
 1490SOL    MW4 5728   5.922   4.954   0.645 -0.2694 -0.0605  0.2444
 1491SOL     OW 5729   0.621   0.285   4.750  0.8081  0.0493 -0.2228
 1491SOL    HW2 5730   0.558   0.247   4.690 -1.2661  1.2640  1.0507
 1491SOL    HW3 5731   0.667   0.352   4.699  1.6135 -1.3159 -1.3464
 1491SOL    MW4 5732   0.619   0.289   4.736  0.6407  0.0295 -0.2030
 1492SOL     OW 5733   1.331   4.004   4.085 -0.3296  0.4886 -0.2127
 1492SOL    HW2 5734   1.329   3.914   4.052  1.5164  0.3176  0.0364
 1492SOL    HW3 5735   1.249   4.013   4.135  0.1522 -1.5701  1.0643
 1492SOL    MW4 5736   1.320   3.993   4.087 -0.0225  0.1944 -0.0114
 1493SOL     OW 5737   0.061   0.425   2.935  0.6093 -0.1454  0.5623
 1493SOL    HW2 5738  -0.005   0.484   2.972 -0.1284 -0.0176 -0.9000
 1493SOL    HW3 5739   0.041   0.339   2.972  0.9298  0.2665  1.7423
 1493SOL    MW4 5740   0.050   0.422   2.945  0.5543 -0.0742  0.5250
 1494SOL     OW 5741   1.846   0.752   2.869  0.2357 -0.2445  0.4300
 1494SOL    HW2 5742   1.803   0.704   2.798  0.7705 -0.7120  0.4180
 1494SOL    HW3 5743   1.862   0.839   2.832 -1.2431  0.1461  0.6384
 1494SOL    MW4 5744   1.842   0.758   2.854  0.1111 -0.2546  0.4559
 1495SOL     OW 5745   6.238   5.084   4.534 -0.4642  0.6574  0.4024
 1495SOL    HW2 5746   6.187   5.064   4.456  2.9165 -1.6296 -1.4984
 1495SOL    HW3 5747   6.231   5.006   4.589 -0.6691  1.1744  1.1306
 1495SOL    MW4 5748   6.230   5.071   4.531 -0.0452  0.4238  0.2477
 1496SOL     OW 5749   5.306   5.037   5.216  0.2883 -0.4812  0.6774
 1496SOL    HW2 5750   5.226   4.991   5.190  0.2737 -0.3301  0.4555
 1496SOL    HW3 5751   5.281   5.130   5.216  0.6892 -0.3606 -0.2229
 1496SOL    MW4 5752   5.292   5.043   5.213  0.3393 -0.4454  0.5293
 1497SOL     OW 5753   0.844   0.882   0.376 -0.3232 -0.9852  0.9891
 1497SOL    HW2 5754   0.752   0.866   0.355 -0.8013  0.3567  1.9062
 1497SOL    HW3 5755   0.893   0.823   0.318 -1.5951  0.9361 -2.2999
 1497SOL    MW4 5756   0.839   0.872   0.365 -0.5541 -0.5546  0.6761
 1498SOL     OW 5757   5.832   2.141   3.890 -0.4125  0.0167  0.5647
 1498SOL    HW2 5758   5.782   2.220   3.913  0.7703  0.8946  0.2683
 1498SOL    HW3 5759   5.897   2.172   3.826 -0.7812 -1.4811 -0.5966
 1498SOL    MW4 5760   5.834   2.156   3.884 -0.3051 -0.0651  0.3723
 1499SOL     OW 5761   0.584   2.641   4.687  0.2499 -0.2533  0.1153
 1499SOL    HW2 5762   0.614   2.557   4.720  0.1208 -0.4703 -0.3149
 1499SOL    HW3 5763   0.491   2.644   4.709  0.3906  0.0565  0.6973
 1499SOL    MW4 5764   0.576   2.631   4.694  0.2515 -0.2410  0.1353
 1500SOL     OW 5765   0.924   3.203   0.233 -0.5497  0.1624 -0.1938
 1500SOL    HW2 5766   0.871   3.280   0.215 -2.2185 -0.9312 -0.1610
 1500SOL    HW3 5767   1.010   3.225   0.198 -1.6506  1.0493 -2.5294
 1500SOL    MW4 5768   0.928   3.216   0.226 -0.9151  0.1351 -0.4977
 1501SOL     OW 5769   3.046   5.409   2.259  0.2005  0.3295  0.2055
 1501SOL    HW2 5770   2.983   5.480   2.270  1.0490  0.8453  1.9429
 1501SOL    HW3 5771   2.998   5.330   2.283 -0.5427  0.3489 -1.0877
 1501SOL    MW4 5772   3.031   5.408   2.263  0.2144  0.4001  0.2641
 1502SOL     OW 5773   2.737   4.953   2.274 -0.2203  0.0877  0.0217
 1502SOL    HW2 5774   2.651   4.911   2.275  0.0724 -0.5468 -0.4408
 1502SOL    HW3 5775   2.794   4.889   2.232  0.5514  0.3646  0.6129
 1502SOL    MW4 5776   2.733   4.939   2.269 -0.0799  0.0405  0.0387
 1503SOL     OW 5777   3.122   0.218   6.407 -0.0205 -0.2203 -0.0226
 1503SOL    HW2 5778   3.180   0.177   6.472 -1.5360 -0.7834  1.0089
 1503SOL    HW3 5779   3.174   0.291   6.373  1.3774 -0.8163  0.7168
 1503SOL    MW4 5780   3.137   0.222   6.411 -0.0360 -0.3732  0.2111
 1504SOL     OW 5781   1.317   4.516   0.840  0.4593 -0.0410  0.3879
 1504SOL    HW2 5782   1.257   4.533   0.767  0.2411  0.0596  0.5911
 1504SOL    HW3 5783   1.260   4.491   0.913  0.4885  2.0009  1.1706
 1504SOL    MW4 5784   1.302   4.515   0.840  0.4343  0.2417  0.5180
 1505SOL     OW 5785   3.204   2.118   4.095 -0.2520  0.2514 -0.1029
 1505SOL    HW2 5786   3.298   2.135   4.083 -0.1591  0.3782  0.7232
 1505SOL    HW3 5787   3.166   2.131   4.008  0.0984  2.6849  0.0431
 1505SOL    MW4 5788   3.212   2.122   4.082 -0.1935  0.5892  0.0254
 1506SOL     OW 5789   5.712   2.224   5.580 -0.3280  0.1668 -0.0951
 1506SOL    HW2 5790   5.627   2.182   5.564 -0.0437  0.3162 -2.3108
 1506SOL    HW3 5791   5.765   2.201   5.504  0.8999  1.8992  0.1782
 1506SOL    MW4 5792   5.708   2.215   5.568 -0.1285  0.4151 -0.3514
 1507SOL     OW 5793   5.554   4.766   5.711 -0.7954  0.1798  0.2487
 1507SOL    HW2 5794   5.612   4.695   5.682 -1.0715 -0.5571  1.4332
 1507SOL    HW3 5795   5.518   4.802   5.630  2.3073  1.5949 -0.6865
 1507SOL    MW4 5796   5.557   4.761   5.696 -0.4225  0.2693  0.2816
 1508SOL     OW 5797   4.797   3.753   2.443 -0.0651  0.6161  0.0040
 1508SOL    HW2 5798   4.803   3.705   2.361  1.8364 -0.8519  0.9194
 1508SOL    HW3 5799   4.737   3.703   2.497 -2.5212  2.3887 -0.9116
 1508SOL    MW4 5800   4.790   3.740   2.440 -0.1382  0.6563  0.0040
 1509SOL     OW 5801   2.547   5.297   0.495  0.0749 -0.1921 -0.2575
 1509SOL    HW2 5802   2.580   5.382   0.467  1.3808 -0.0331  1.5927
 1509SOL    HW3 5803   2.511   5.258   0.415  2.5633  0.6391 -1.9175
 1509SOL    MW4 5804   2.546   5.303   0.481  0.5755 -0.0615 -0.2324
 1510SOL     OW 5805   0.146   0.791   1.558 -0.3650  0.6182  0.3050
 1510SOL    HW2 5806   0.139   0.764   1.650 -0.7276 -0.0878  0.0788
 1510SOL    HW3 5807   0.063   0.762   1.519  0.6049 -0.9214 -0.7134
 1510SOL    MW4 5808   0.134   0.783   1.565 -0.2848  0.3220  0.1408
 1511SOL     OW 5809   5.783   5.616   1.678  0.3426  0.5083  0.5790
 1511SOL    HW2 5810   5.705   5.569   1.648  0.8052  1.0501 -1.6188
 1511SOL    HW3 5811   5.841   5.548   1.713  0.7980 -0.5733 -2.0832
 1511SOL    MW4 5812   5.780   5.601   1.679  0.4637  0.4371 -0.0622
 1512SOL     OW 5813   0.202   3.306   1.741 -0.6132 -0.0005  0.4736
 1512SOL    HW2 5814   0.259   3.289   1.816 -0.0120  2.6070  0.7063
 1512SOL    HW3 5815   0.114   3.311   1.778 -0.7333 -1.7157  0.4847
 1512SOL    MW4 5816   0.198   3.305   1.756 -0.5497  0.1172  0.5058
 1513SOL     OW 5817   4.624   1.509   3.878 -0.7194  0.2359  0.9317
 1513SOL    HW2 5818   4.577   1.510   3.962 -1.2587  0.1647  0.6290
 1513SOL    HW3 5819   4.568   1.556   3.817 -1.6708 -2.0694 -0.0924
 1513SOL    MW4 5820   4.611   1.515   3.881 -0.9161 -0.0777  0.7566
 1514SOL     OW 5821   2.127   1.784   1.419  0.3255  0.6382  0.4140
 1514SOL    HW2 5822   2.204   1.839   1.413 -0.0476  1.1221 -0.0440
 1514SOL    HW3 5823   2.122   1.740   1.334  0.0387  0.6957  0.3993
 1514SOL    MW4 5824   2.136   1.785   1.407  0.2384  0.7096  0.3517
 1515SOL     OW 5825   4.879   4.100   5.633 -0.5043 -1.0694 -0.5003
 1515SOL    HW2 5826   4.892   4.186   5.675  1.7510 -2.6606  2.4586
 1515SOL    HW3 5827   4.933   4.104   5.554  0.1201  0.0468 -0.0467
 1515SOL    MW4 5828   4.888   4.112   5.628 -0.1244 -1.1321 -0.0501
 1516SOL     OW 5829   3.454   2.817   3.823  0.6073  0.0233 -0.0691
 1516SOL    HW2 5830   3.427   2.748   3.763  0.4433 -0.3766  0.4515
 1516SOL    HW3 5831   3.482   2.770   3.902 -0.2459  0.5769  0.5879
 1516SOL    MW4 5832   3.454   2.802   3.826  0.4731  0.0436  0.0863
 1517SOL     OW 5833   4.834   3.616   4.826  0.3126  0.4478  0.2635
 1517SOL    HW2 5834   4.760   3.600   4.885 -0.1859 -0.0670 -0.4920
 1517SOL    HW3 5835   4.858   3.530   4.793  0.0134  0.8202 -0.9635
 1517SOL    MW4 5836   4.828   3.603   4.829  0.2073  0.4290  0.0020
 1518SOL     OW 5837   2.656   1.414   5.284  0.2811  0.1086  0.7529
 1518SOL    HW2 5838   2.746   1.408   5.252  0.2627 -3.0843  1.0151
 1518SOL    HW3 5839   2.651   1.349   5.354 -2.3131 -0.0516  0.5032
 1518SOL    MW4 5840   2.667   1.405   5.289 -0.0636 -0.3338  0.7546
 1519SOL     OW 5841   4.040   2.725   1.805 -0.1651 -0.0652  0.0777
 1519SOL    HW2 5842   4.119   2.672   1.804 -1.1037 -1.5313 -2.1358
 1519SOL    HW3 5843   3.969   2.663   1.820 -0.9874  1.1974  1.8198
 1519SOL    MW4 5844   4.041   2.710   1.807 -0.3974 -0.0920  0.0155
 1520SOL     OW 5845   2.530   1.445   1.285 -0.0192  0.1916  0.0102
 1520SOL    HW2 5846   2.443   1.416   1.313 -0.3251  0.3571 -0.7223
 1520SOL    HW3 5847   2.512   1.516   1.223  0.4562 -1.6973 -2.5025
 1520SOL    MW4 5848   2.516   1.451   1.280  0.0032 -0.0358 -0.4179
 1521SOL     OW 5849   3.063   5.654   0.565  0.1381 -0.9741  0.0086
 1521SOL    HW2 5850   2.994   5.703   0.521  1.8963  3.1323  1.2908
 1521SOL    HW3 5851   3.111   5.611   0.494 -0.2134  1.1259 -1.6192
 1521SOL    MW4 5852   3.060   5.655   0.550  0.3237 -0.1552 -0.0370
 1522SOL     OW 5853   2.052   0.219   3.454 -0.1876  0.8883  0.0354
 1522SOL    HW2 5854   1.986   0.151   3.438  0.8772 -0.4897  1.1722
 1522SOL    HW3 5855   2.053   0.228   3.550  0.1260  2.0912 -0.0699
 1522SOL    MW4 5856   2.043   0.211   3.465 -0.0058  0.8652  0.1715
 1523SOL     OW 5857   1.130   1.558   0.110  0.3571 -0.5280  0.5491
 1523SOL    HW2 5858   1.149   1.599   0.026 -0.0145 -1.0763  0.1887
 1523SOL    HW3 5859   1.036   1.568   0.121  0.2167 -1.5061  0.3233
 1523SOL    MW4 5860   1.120   1.565   0.100  0.2895 -0.7294  0.4718
 1524SOL     OW 5861   2.876   1.668   2.984 -0.2386 -0.3143 -0.0791
 1524SOL    HW2 5862   2.823   1.595   2.953 -1.6067  1.4815 -2.3440
 1524SOL    HW3 5863   2.944   1.678   2.918 -0.8558  1.2068 -0.5297
 1524SOL    MW4 5864   2.878   1.660   2.971 -0.5005  0.1233 -0.4374
 1525SOL     OW 5865   5.910   2.848   5.968  0.3319  0.2448  0.0803
 1525SOL    HW2 5866   5.963   2.909   6.018 -0.4198  1.3785 -0.4802
 1525SOL    HW3 5867   5.972   2.806   5.908  0.9631 -0.0324  0.9184
 1525SOL    MW4 5868   5.925   2.850   5.967  0.3160  0.3578  0.1170
 1526SOL     OW 5869   4.265   5.285   4.948  0.8479  0.1057  0.2142
 1526SOL    HW2 5870   4.187   5.244   4.911 -2.1394  3.2494  2.3138
 1526SOL    HW3 5871   4.296   5.345   4.880  1.7605 -1.4394 -0.7752
 1526SOL    MW4 5872   4.259   5.288   4.934  0.5742  0.3166  0.3607
 1527SOL     OW 5873   5.320   1.786   3.343  0.3426 -0.4660 -0.2654
 1527SOL    HW2 5874   5.228   1.810   3.346  0.3378 -0.5872  0.5679
 1527SOL    HW3 5875   5.353   1.830   3.264 -0.6679 -1.3415 -1.2144
 1527SOL    MW4 5876   5.313   1.795   3.333  0.2086 -0.5975 -0.2807
 1528SOL     OW 5877   2.650   1.197   1.662 -0.0657  0.2780 -0.0292
 1528SOL    HW2 5878   2.712   1.246   1.609  0.8723  0.3620  1.1112
 1528SOL    HW3 5879   2.663   1.230   1.751 -3.1471  1.8001  0.0146
 1528SOL    MW4 5880   2.660   1.208   1.667 -0.3485  0.4899  0.1270
 1529SOL     OW 5881   5.397   3.252   3.949  0.2294 -0.0907 -0.0401
 1529SOL    HW2 5882   5.433   3.190   3.886  0.8648 -0.6063  0.8199
 1529SOL    HW3 5883   5.306   3.225   3.960  0.4751 -0.8183  0.2514
 1529SOL    MW4 5884   5.390   3.241   3.942  0.3457 -0.2547  0.1118
 1530SOL     OW 5885   1.696   5.374   4.607 -0.4431  0.2856 -0.0919
 1530SOL    HW2 5886   1.768   5.424   4.646 -0.3811  0.2000 -0.0958
 1530SOL    HW3 5887   1.617   5.407   4.651 -0.4256  0.5399 -0.2472
 1530SOL    MW4 5888   1.695   5.385   4.618 -0.4326  0.3079 -0.1129
 1531SOL     OW 5889   1.502   1.981   5.121 -0.0888  0.5047 -0.3280
 1531SOL    HW2 5890   1.494   1.978   5.025 -1.9122  0.5890 -0.2107
 1531SOL    HW3 5891   1.415   2.005   5.152  0.2740 -0.2384  1.4027
 1531SOL    MW4 5892   1.490   1.984   5.112 -0.2815  0.4178 -0.0842
 1532SOL     OW 5893   5.819   1.845   2.637 -0.4099 -0.4050  0.0728
 1532SOL    HW2 5894   5.795   1.867   2.547 -0.2846  0.3580  0.2184
 1532SOL    HW3 5895   5.874   1.918   2.665 -0.4643 -0.6331  0.7736
 1532SOL    MW4 5896   5.823   1.858   2.629 -0.4006 -0.3344  0.1845
 1533SOL     OW 5897   5.275   0.865   4.274 -0.0093  0.2451 -0.6697
 1533SOL    HW2 5898   5.189   0.835   4.243 -0.2697  0.8114 -0.5141
 1533SOL    HW3 5899   5.263   0.880   4.368  0.7454 -1.3445 -0.2732
 1533SOL    MW4 5900   5.262   0.863   4.282  0.0559  0.1101 -0.5969
 1534SOL     OW 5901   4.299   4.894   3.310  0.0532  0.0704 -0.1069
 1534SOL    HW2 5902   4.224   4.921   3.364 -0.1908 -1.5677  0.4300
 1534SOL    HW3 5903   4.363   4.860   3.373 -0.1088 -1.5975 -0.8019
 1534SOL    MW4 5904   4.298   4.893   3.326 -0.0003 -0.3658 -0.1277
 1535SOL     OW 5905   1.144   5.155   2.976  0.2072 -0.1044 -0.5442
 1535SOL    HW2 5906   1.048   5.155   2.975  0.1657  0.3163  0.8254
 1535SOL    HW3 5907   1.168   5.247   2.961  0.4328 -0.3617 -1.8132
 1535SOL    MW4 5908   1.134   5.167   2.974  0.2315 -0.0828 -0.5309
 1536SOL     OW 5909   3.764   2.094   3.416  0.1302 -0.7593  0.1126
 1536SOL    HW2 5910   3.859   2.093   3.426  0.1634  0.8714  0.2550
 1536SOL    HW3 5911   3.732   2.134   3.497 -0.7443 -1.8555  0.3341
 1536SOL    MW4 5912   3.773   2.099   3.428  0.0192 -0.6888  0.1606
 1537SOL     OW 5913   4.637   4.545   0.873 -0.6294  0.9408 -0.4031
 1537SOL    HW2 5914   4.563   4.486   0.857  0.0241  0.3930 -1.5145
 1537SOL    HW3 5915   4.620   4.582   0.959 -0.4372 -1.8282  0.9467
 1537SOL    MW4 5916   4.625   4.542   0.882 -0.5178  0.5032 -0.3716
 1538SOL     OW 5917   3.229   5.404   2.861  0.5221  0.4315 -0.0817
 1538SOL    HW2 5918   3.275   5.362   2.788 -1.1915 -2.1424  0.1736
 1538SOL    HW3 5919   3.242   5.498   2.847  2.3701 -0.0573 -2.2307
 1538SOL    MW4 5920   3.237   5.411   2.850  0.5398  0.0274 -0.3316
 1539SOL     OW 5921   0.308   3.703   1.302  0.3722  0.2581  0.2224
 1539SOL    HW2 5922   0.337   3.617   1.273 -0.1656 -0.6585  2.2249
 1539SOL    HW3 5923   0.261   3.739   1.227 -0.3571 -1.6817 -0.3173
 1539SOL    MW4 5924   0.306   3.696   1.289  0.2050 -0.1187  0.4154
 1540SOL     OW 5925   3.335   6.397   1.057  0.2565  0.4201  0.3812
 1540SOL    HW2 5926   3.261   6.454   1.080  1.3260  1.7294  0.7534
 1540SOL    HW3 5927   3.334   6.394   0.961  0.6465  1.7735  0.3057
 1540SOL    MW4 5928   3.325   6.404   1.047  0.4491  0.7714  0.4204
 1541SOL     OW 5929   2.608   2.038   1.635 -0.2568 -0.1791 -0.2262
 1541SOL    HW2 5930   2.654   2.028   1.718  0.9037 -1.5368 -0.9980
 1541SOL    HW3 5931   2.672   2.015   1.569 -0.8007  2.0286 -1.6092
 1541SOL    MW4 5932   2.622   2.034   1.638 -0.1754 -0.0670 -0.5105
 1542SOL     OW 5933   1.024   6.285   0.245  0.1638 -0.1765 -0.2523
 1542SOL    HW2 5934   1.001   6.293   0.338  1.1874  0.5655 -0.0417
 1542SOL    HW3 5935   0.940   6.279   0.200 -0.3389 -1.7462  0.8090
 1542SOL    MW4 5936   1.010   6.285   0.251  0.2325 -0.2857 -0.0845
 1543SOL     OW 5937   2.107   3.820   3.993  0.7449  0.2172 -0.3073
 1543SOL    HW2 5938   2.091   3.884   3.924  2.2523 -0.8823 -1.7539
 1543SOL    HW3 5939   2.072   3.738   3.957  1.2100 -0.2980  0.4032
 1543SOL    MW4 5940   2.100   3.817   3.979  1.0051  0.0041 -0.4044
 1544SOL     OW 5941   0.751   2.098   5.761 -0.2388  0.2444  0.4155
 1544SOL    HW2 5942   0.770   2.004   5.758 -1.7309 -0.1543  1.7361
 1544SOL    HW3 5943   0.712   2.118   5.676  0.7036 -0.1649 -0.1279
 1544SOL    MW4 5944   0.749   2.088   5.750 -0.3113  0.1378  0.5181
 1545SOL     OW 5945   5.359   5.756   2.329 -0.1324 -0.2536 -0.0892
 1545SOL    HW2 5946   5.453   5.739   2.336  0.0863  0.8023 -0.2684
 1545SOL    HW3 5947   5.318   5.694   2.389  0.8288  0.7606  1.6792
 1545SOL    MW4 5948   5.366   5.746   2.338  0.0232  0.0195  0.1205
 1546SOL     OW 5949   2.028   0.179   2.681 -0.1907 -0.0430 -0.6149
 1546SOL    HW2 5950   2.057   0.248   2.622 -1.3439  0.0873 -1.0531
 1546SOL    HW3 5951   2.104   0.161   2.737  1.0241 -0.3593 -2.2913
 1546SOL    MW4 5952   2.042   0.185   2.680 -0.1826 -0.0676 -0.8939
 1547SOL     OW 5953   1.741   4.330   4.496 -0.4383 -0.2017 -0.2975
 1547SOL    HW2 5954   1.831   4.299   4.505  0.1341  0.4490 -2.9199
 1547SOL    HW3 5955   1.749   4.425   4.490 -0.9278 -0.2710 -3.3556
 1547SOL    MW4 5956   1.754   4.339   4.497 -0.4273 -0.1250 -1.0470
 1548SOL     OW 5957   3.070   4.819   1.133 -0.5226 -0.8371  0.7838
 1548SOL    HW2 5958   3.158   4.829   1.168 -0.4491 -1.0929  0.6758
 1548SOL    HW3 5959   3.040   4.734   1.167  0.0682 -1.7486 -0.8525
 1548SOL    MW4 5960   3.078   4.809   1.142 -0.4350 -0.9911  0.5537
 1549SOL     OW 5961   4.805   5.592   0.482  0.0976 -0.3236 -0.3881
 1549SOL    HW2 5962   4.709   5.593   0.476 -0.2664  0.9264  3.1333
 1549SOL    HW3 5963   4.833   5.672   0.437 -0.8120  0.8137  1.0083
 1549SOL    MW4 5964   4.796   5.603   0.475 -0.0704 -0.0086  0.2607
 1550SOL     OW 5965   1.876   2.858   2.047 -0.4094  0.2898 -0.7060
 1550SOL    HW2 5966   1.928   2.856   2.128  1.2670  1.2306 -1.6829
 1550SOL    HW3 5967   1.809   2.792   2.060  0.9941 -0.9640  0.6895
 1550SOL    MW4 5968   1.874   2.849   2.060 -0.0030  0.2485 -0.6508
 1551SOL     OW 5969   4.294   1.089   1.278  0.3361 -0.8001  0.3487
 1551SOL    HW2 5970   4.267   1.170   1.321 -0.1114 -0.6066 -0.2722
 1551SOL    HW3 5971   4.216   1.034   1.277 -0.2341 -0.0741 -1.8258
 1551SOL    MW4 5972   4.280   1.093   1.283  0.2018 -0.6788 -0.0201
 1552SOL     OW 5973   5.389   6.231   2.765 -0.3462 -0.1973 -0.5331
 1552SOL    HW2 5974   5.402   6.216   2.858 -0.3377  0.5379 -0.4152
 1552SOL    HW3 5975   5.328   6.162   2.738 -0.2754 -0.4671 -0.0086
 1552SOL    MW4 5976   5.383   6.220   2.774 -0.3357 -0.1359 -0.4484
 1553SOL     OW 5977   4.821   2.635   2.620 -0.6844  0.4162  0.2880
 1553SOL    HW2 5978   4.868   2.579   2.682 -1.4781  0.0859  0.6120
 1553SOL    HW3 5979   4.731   2.637   2.653 -1.4741 -0.9137 -1.6241
 1553SOL    MW4 5980   4.815   2.628   2.633 -0.8933  0.1972  0.0785
 1554SOL     OW 5981   2.013   5.383   5.392  0.3395  0.3118 -0.1207
 1554SOL    HW2 5982   1.930   5.361   5.434  0.7439 -1.8323 -0.3277
 1554SOL    HW3 5983   1.990   5.447   5.325 -1.4339 -1.3975 -1.2276
 1554SOL    MW4 5984   1.999   5.389   5.389  0.1589 -0.1966 -0.2940
 1555SOL     OW 5985   3.608   1.916   5.183  0.1391  0.2313  0.1270
 1555SOL    HW2 5986   3.682   1.857   5.198  0.6964  0.6524 -0.9098
 1555SOL    HW3 5987   3.622   1.987   5.246  1.7824  1.3515 -1.3970
 1555SOL    MW4 5988   3.619   1.918   5.194  0.4294  0.4347 -0.2109
 1556SOL     OW 5989   2.451   2.796   6.342  0.3963  0.4261 -0.5208
 1556SOL    HW2 5990   2.395   2.845   6.402 -0.1270 -0.5811 -0.1618
 1556SOL    HW3 5991   2.520   2.857   6.318 -0.7388  1.6496 -0.8148
 1556SOL    MW4 5992   2.452   2.811   6.346  0.1775  0.4546 -0.5122
 1557SOL     OW 5993   3.653   5.961   3.078  0.0313  0.2445 -0.0952
 1557SOL    HW2 5994   3.639   5.870   3.053  2.5598 -0.7766  1.7656
 1557SOL    HW3 5995   3.688   6.003   2.999 -0.6442 -0.5315 -0.8195
 1557SOL    MW4 5996   3.656   5.955   3.064  0.2758  0.0074  0.0548
 1558SOL     OW 5997   5.800   1.996   3.063 -0.1187  0.2546 -0.3268
 1558SOL    HW2 5998   5.733   2.043   3.111 -0.1017  1.6999 -1.6549
 1558SOL    HW3 5999   5.775   1.904   3.070 -2.9391  0.8176 -1.7747
 1558SOL    MW4 6000   5.788   1.990   3.071 -0.4885  0.5196 -0.6930
 1559SOL     OW 6001   5.670   2.733   3.229  0.1455  0.3090  0.5046
 1559SOL    HW2 6002   5.663   2.826   3.205 -1.8056 -0.1804 -1.1006
 1559SOL    HW3 6003   5.726   2.696   3.161  0.9969  0.2946  1.1968
 1559SOL    MW4 6004   5.677   2.741   3.217  0.0004  0.2425  0.3842
 1560SOL     OW 6005   0.723   4.407   0.542 -0.0723 -0.2973 -0.5745
 1560SOL    HW2 6006   0.795   4.396   0.605  0.1080 -1.4470 -0.9458
 1560SOL    HW3 6007   0.714   4.501   0.531  1.2934 -0.1259 -0.4096
 1560SOL    MW4 6008   0.732   4.418   0.549  0.1317 -0.4264 -0.6017
 1561SOL     OW 6009   4.225   5.028   2.177 -0.0149 -0.0549 -0.1335
 1561SOL    HW2 6010   4.225   5.122   2.156 -0.7896 -0.3749 -1.6945
 1561SOL    HW3 6011   4.148   4.993   2.132  0.2667 -1.4519  0.4190
 1561SOL    MW4 6012   4.215   5.036   2.169 -0.0799 -0.2814 -0.2665
 1562SOL     OW 6013   2.559   2.753   2.319 -0.1253  0.1102 -0.3603
 1562SOL    HW2 6014   2.465   2.734   2.322 -0.0546 -0.3942 -1.0096
 1562SOL    HW3 6015   2.600   2.682   2.369 -0.1836  1.2330  1.3816
 1562SOL    MW4 6016   2.552   2.741   2.326 -0.1237  0.1918 -0.2161
 1563SOL     OW 6017   3.380   2.407   6.145 -0.3145  0.0125 -0.0862
 1563SOL    HW2 6018   3.431   2.481   6.113 -0.6892  1.1948  1.8613
 1563SOL    HW3 6019   3.434   2.368   6.214 -0.7794 -0.5566 -0.0294
 1563SOL    MW4 6020   3.394   2.412   6.150 -0.4253  0.0934  0.1782
 1564SOL     OW 6021   5.828   3.198   2.613  0.6862  0.4785 -0.4066
 1564SOL    HW2 6022   5.849   3.158   2.698  0.7829 -1.6211 -1.3432
 1564SOL    HW3 6023   5.900   3.259   2.597  0.6122  0.9944  1.0420
 1564SOL    MW4 6024   5.841   3.201   2.622  0.6892  0.2695 -0.3391
 1565SOL     OW 6025   2.842   0.301   3.991  0.1861 -0.1753 -0.9403
 1565SOL    HW2 6026   2.914   0.327   4.049 -1.7934 -0.7912  1.9595
 1565SOL    HW3 6027   2.825   0.210   4.012 -1.8691  0.1365 -1.0594
 1565SOL    MW4 6028   2.849   0.293   4.001 -0.3462 -0.2154 -0.5734
 1566SOL     OW 6029   4.462   0.220   3.709  0.5539 -0.2891 -0.4731
 1566SOL    HW2 6030   4.528   0.252   3.771  1.1288 -1.8945 -0.2160
 1566SOL    HW3 6031   4.386   0.275   3.725  1.8863  1.8352 -0.9933
 1566SOL    MW4 6032   4.461   0.232   3.719  0.8055 -0.2206 -0.5078
 1567SOL     OW 6033   3.649   5.394   0.252  0.1574 -0.1782 -0.3706
 1567SOL    HW2 6034   3.721   5.377   0.312  0.8472  1.3299 -0.7225
 1567SOL    HW3 6035   3.574   5.349   0.290  0.2599  1.6700  2.2932
 1567SOL    MW4 6036   3.648   5.386   0.265  0.2619  0.2646 -0.0656
 1568SOL     OW 6037   1.279   0.255   1.807 -0.0965  0.1919  1.0940
 1568SOL    HW2 6038   1.292   0.163   1.785 -2.2202 -0.2075  1.2928
 1568SOL    HW3 6039   1.238   0.293   1.729 -0.1912  0.7165  1.3908
 1568SOL    MW4 6040   1.275   0.248   1.794 -0.3892  0.2085  1.1594
 1569SOL     OW 6041   4.138   1.557   3.216 -0.5628  0.5373  0.0842
 1569SOL    HW2 6042   4.048   1.533   3.237 -0.3728  0.8975  1.4807
 1569SOL    HW3 6043   4.172   1.483   3.167 -2.2449  1.2979 -2.4120
 1569SOL    MW4 6044   4.130   1.544   3.213 -0.7597  0.6851 -0.0609
 1570SOL     OW 6045   3.607   2.827   5.766 -0.0037 -0.8983  0.2199
 1570SOL    HW2 6046   3.554   2.868   5.698 -0.0485 -0.9899  0.1984
 1570SOL    HW3 6047   3.688   2.803   5.721  0.3498 -0.1006  0.4299
 1570SOL    MW4 6048   3.610   2.829   5.751  0.0370 -0.8052  0.2447
 1571SOL     OW 6049   2.692   6.289   3.460  0.0986 -0.1664 -0.7373
 1571SOL    HW2 6050   2.734   6.355   3.406  0.3436  0.2186 -0.0839
 1571SOL    HW3 6051   2.633   6.243   3.400 -1.9717  2.2665 -0.7089
 1571SOL    MW4 6052   2.690   6.291   3.445 -0.1422  0.2054 -0.6473
 1572SOL     OW 6053   5.245   5.251   0.801  0.6311  0.6235  0.4698
 1572SOL    HW2 6054   5.208   5.338   0.816  0.6068  0.7925 -0.4771
 1572SOL    HW3 6055   5.170   5.192   0.800  0.8128  0.1603  3.5713
 1572SOL    MW4 6056   5.230   5.255   0.803  0.6518  0.5847  0.7541
 1573SOL     OW 6057   3.946   6.424   2.372 -0.6112  0.2656  0.1155
 1573SOL    HW2 6058   3.900   6.508   2.376  0.9111  1.0892  1.7144
 1573SOL    HW3 6059   4.038   6.447   2.362  0.0012 -1.1267  1.9424
 1573SOL    MW4 6060   3.952   6.438   2.371 -0.3295  0.1906  0.5675
 1574SOL     OW 6061   2.249   1.267   0.294  0.1632  0.0306 -0.1627
 1574SOL    HW2 6062   2.169   1.319   0.300 -0.0058 -0.1882 -0.4366
 1574SOL    HW3 6063   2.288   1.272   0.381 -0.0925  0.2328 -0.0586
 1574SOL    MW4 6064   2.243   1.274   0.306  0.1072  0.0284 -0.1851
 1575SOL     OW 6065   4.566   4.412   4.557 -0.2622  0.1688  0.5553
 1575SOL    HW2 6066   4.508   4.468   4.609 -0.4379 -0.5293  1.1207
 1575SOL    HW3 6067   4.623   4.473   4.511 -1.2689  0.8683  0.1946
 1575SOL    MW4 6068   4.566   4.428   4.558 -0.4182  0.1690  0.5823
 1576SOL     OW 6069   5.628   3.210   3.593 -0.3494 -0.4577  0.6756
 1576SOL    HW2 6070   5.586   3.295   3.582 -0.5078 -0.5974  0.1819
 1576SOL    HW3 6071   5.555   3.148   3.599 -0.3000 -0.3985  2.6685
 1576SOL    MW4 6072   5.613   3.213   3.592 -0.3637 -0.4683  0.8734
 1577SOL     OW 6073   3.818   1.134   5.500 -0.1389  0.5318 -0.6570
 1577SOL    HW2 6074   3.836   1.058   5.443 -0.0587  1.3100 -1.6990
 1577SOL    HW3 6075   3.904   1.158   5.534 -0.3602 -0.7916  0.9548
 1577SOL    MW4 6076   3.832   1.127   5.497 -0.1575  0.4599 -0.5818
 1578SOL     OW 6077   2.753   0.889   4.424  0.1963  0.1596  0.2502
 1578SOL    HW2 6078   2.687   0.851   4.367  0.8783  0.6958 -0.9335
 1578SOL    HW3 6079   2.814   0.818   4.442 -0.1392 -0.0667  0.4934
 1578SOL    MW4 6080   2.752   0.875   4.419  0.2420  0.2005  0.1261
 1579SOL     OW 6081   2.210   1.785   4.346  1.0117 -0.0985 -0.0258
 1579SOL    HW2 6082   2.223   1.871   4.307 -0.5447  0.0124 -0.3445
 1579SOL    HW3 6083   2.180   1.730   4.274  0.3298 -0.4700  0.5269
 1579SOL    MW4 6084   2.208   1.789   4.331  0.7164 -0.1329  0.0051
 1580SOL     OW 6085   6.162   3.193   1.683 -0.1340 -0.7734  0.1907
 1580SOL    HW2 6086   6.214   3.163   1.609  0.5857  1.5172 -0.2877
 1580SOL    HW3 6087   6.104   3.119   1.702  0.9441 -2.1185 -1.4249
 1580SOL    MW4 6088   6.161   3.179   1.676  0.1032 -0.6487 -0.0855
 1581SOL     OW 6089   1.504   0.337   1.053 -0.2740 -0.7568 -0.4348
 1581SOL    HW2 6090   1.483   0.247   1.027  0.9028 -1.3705  0.6212
 1581SOL    HW3 6091   1.514   0.384   0.970 -1.7285 -1.3735 -1.0006
 1581SOL    MW4 6092   1.503   0.331   1.039 -0.3106 -0.9192 -0.3701
 1582SOL     OW 6093   3.495   6.102   5.977 -0.0526 -0.2002 -0.6808
 1582SOL    HW2 6094   3.404   6.125   5.958 -0.0593  1.7550  1.3568
 1582SOL    HW3 6095   3.544   6.135   5.901 -0.9829 -1.0000 -1.6510
 1582SOL    MW4 6096   3.490   6.109   5.964 -0.1762 -0.0478 -0.5400
 1583SOL     OW 6097   2.228   5.919   4.929  0.0926 -0.0703 -0.1704
 1583SOL    HW2 6098   2.307   5.926   4.983  0.0624  0.0390 -0.1403
 1583SOL    HW3 6099   2.257   5.945   4.842  0.0978 -0.0596 -0.1656
 1583SOL    MW4 6100   2.242   5.924   4.925  0.0893 -0.0545 -0.1658
 1584SOL     OW 6101   5.948   3.933   4.323 -0.1733  0.0895 -0.0657
 1584SOL    HW2 6102   5.898   3.920   4.242 -0.4429  0.2400  0.0744
 1584SOL    HW3 6103   6.025   3.984   4.296  0.2953 -0.7831 -0.4132
 1584SOL    MW4 6104   5.952   3.938   4.308 -0.1470 -0.0058 -0.0931
 1585SOL     OW 6105   5.183   4.491   1.698 -0.4082 -0.3156 -0.1151
 1585SOL    HW2 6106   5.265   4.445   1.679 -0.4225 -0.9392  1.2476
 1585SOL    HW3 6107   5.203   4.583   1.679  1.2481 -0.1498  1.9785
 1585SOL    MW4 6108   5.197   4.497   1.693 -0.1916 -0.3760  0.3409
 1586SOL     OW 6109   3.865   2.824   6.234 -0.1191  0.3673  0.1790
 1586SOL    HW2 6110   3.864   2.739   6.191  0.5500 -0.5630  1.8677
 1586SOL    HW3 6111   3.904   2.806   6.320  0.1351  2.4039  0.5366
 1586SOL    MW4 6112   3.870   2.810   6.240  0.0027  0.5132  0.4490
 1587SOL     OW 6113   0.910   6.395   4.919  0.1201 -0.2194  0.1105
 1587SOL    HW2 6114   0.878   6.483   4.939  0.8593  0.0823 -0.0019
 1587SOL    HW3 6115   0.904   6.388   4.824  0.3253 -0.1807  0.0933
 1587SOL    MW4 6116   0.905   6.406   4.909  0.2447 -0.1745  0.0934
 1588SOL     OW 6117   3.239   0.209   0.450  0.1647  0.0175  0.3439
 1588SOL    HW2 6118   3.189   0.137   0.487 -2.9434  1.0409 -1.5128
 1588SOL    HW3 6119   3.188   0.287   0.471  1.7232  1.3331 -0.5079
 1588SOL    MW4 6120   3.226   0.210   0.458 -0.0398  0.3261 -0.0134
 1589SOL     OW 6121   1.827   2.915   2.825  0.1248  0.0805 -0.8162
 1589SOL    HW2 6122   1.909   2.888   2.783  1.4000  0.3097  1.3222
 1589SOL    HW3 6123   1.760   2.859   2.787  1.4253 -0.7440 -1.9874
 1589SOL    MW4 6124   1.829   2.904   2.815  0.4646  0.0020 -0.6886
 1590SOL     OW 6125   6.248   1.335   6.177 -0.0851  0.0464  0.5996
 1590SOL    HW2 6126   6.196   1.414   6.163 -0.1211 -0.0367  0.2701
 1590SOL    HW3 6127   6.338   1.366   6.184 -0.0816  0.0997  0.3164
 1590SOL    MW4 6128   6.253   1.349   6.176 -0.0894  0.0425  0.5188
 1591SOL     OW 6129   1.708   6.038   5.845 -0.0946  0.2811  0.4331
 1591SOL    HW2 6130   1.744   5.951   5.831  0.3519  0.6900 -1.2567
 1591SOL    HW3 6131   1.617   6.032   5.816 -0.8048 -0.1921  2.6033
 1591SOL    MW4 6132   1.701   6.026   5.840 -0.1294  0.2726  0.4964
 1592SOL     OW 6133   0.599   6.021   0.653  0.1537  0.0578 -0.1092
 1592SOL    HW2 6134   0.643   6.097   0.691  0.0314  0.6189 -1.0540
 1592SOL    HW3 6135   0.580   5.965   0.728  3.1884 -0.6018  0.3036
 1592SOL    MW4 6136   0.602   6.024   0.668  0.5380  0.0448 -0.1794
 1593SOL     OW 6137   2.601   3.594   5.496  0.4337 -0.0317  0.2381
 1593SOL    HW2 6138   2.584   3.653   5.424 -1.2387  0.6510  1.1435
 1593SOL    HW3 6139   2.563   3.637   5.573  0.3206 -1.6754  1.1621
 1593SOL    MW4 6140   2.594   3.607   5.497  0.1981 -0.1585  0.4795
 1594SOL     OW 6141   0.893   0.776   4.224 -0.8228 -0.1361  0.2933
 1594SOL    HW2 6142   0.797   0.778   4.235 -0.8613  0.5614 -0.1587
 1594SOL    HW3 6143   0.927   0.788   4.313 -1.1544  1.6011  0.2086
 1594SOL    MW4 6144   0.884   0.778   4.237 -0.8716  0.1851  0.2225
 1595SOL     OW 6145   5.475   5.348   2.920 -0.0389 -0.2798  0.3204
 1595SOL    HW2 6146   5.482   5.361   2.825  0.0039 -0.9652  0.2241
 1595SOL    HW3 6147   5.565   5.336   2.949 -0.1830 -2.1168  0.1280
 1595SOL    MW4 6148   5.488   5.348   2.911 -0.0523 -0.6126  0.2823
 1596SOL     OW 6149   6.388   5.622   4.836 -0.1479  0.4862  0.1548
 1596SOL    HW2 6150   6.479   5.611   4.864 -0.1007  2.4939  0.9233
 1596SOL    HW3 6151   6.393   5.638   4.741  0.4442  1.8464  0.3933
 1596SOL    MW4 6152   6.401   5.623   4.827 -0.0636  0.9306  0.2877
 1597SOL     OW 6153   4.661   2.480   3.946 -0.2978  0.4225  0.1532
 1597SOL    HW2 6154   4.718   2.499   3.872 -0.9919  1.3708 -0.1547
 1597SOL    HW3 6155   4.698   2.401   3.985  0.3638  0.1901 -0.9087
 1597SOL    MW4 6156   4.673   2.472   3.942 -0.3021  0.5170 -0.0275
 1598SOL     OW 6157   5.803   4.946   1.525 -0.5624  0.1824  0.2434
 1598SOL    HW2 6158   5.895   4.936   1.500  0.2107  1.2188  2.4285
 1598SOL    HW3 6159   5.761   4.864   1.496  1.2010 -0.6266 -0.1347
 1598SOL    MW4 6160   5.809   4.934   1.518 -0.2277  0.2124  0.4818
 1599SOL     OW 6161   5.351   5.096   3.516  0.3187  0.2445  0.6828
 1599SOL    HW2 6162   5.269   5.092   3.468  1.1966  2.8881 -1.2484
 1599SOL    HW3 6163   5.344   5.174   3.571  1.1047 -0.1597  1.3886
 1599SOL    MW4 6164   5.339   5.105   3.517  0.5382  0.5400  0.5211
 1600SOL     OW 6165   2.184   0.381   5.960  0.7075 -0.4131  0.4427
 1600SOL    HW2 6166   2.277   0.400   5.975  0.7682 -1.1706  1.1368
 1600SOL    HW3 6167   2.185   0.311   5.894  0.5325  1.0910 -1.2136
 1600SOL    MW4 6168   2.197   0.374   5.953  0.6924 -0.3146  0.3158
 1601SOL     OW 6169   0.122   1.586   5.587  0.0377  0.6857 -0.2563
 1601SOL    HW2 6170   0.164   1.602   5.502 -1.8660  1.2817 -1.1371
 1601SOL    HW3 6171   0.188   1.539   5.637  1.6276  1.2970 -1.6667
 1601SOL    MW4 6172   0.136   1.582   5.582 -0.0037  0.8450 -0.5586
 1602SOL     OW 6173   3.624   2.307   5.586  0.4070 -0.6136 -0.0216
 1602SOL    HW2 6174   3.666   2.245   5.526  0.5483 -1.6070  1.0627
 1602SOL    HW3 6175   3.568   2.253   5.642 -3.9114  0.7911 -2.5462
 1602SOL    MW4 6176   3.622   2.292   5.586 -0.1441 -0.5593 -0.2117
 1603SOL     OW 6177   1.793   4.776   1.876  0.0552 -0.8253  0.3884
 1603SOL    HW2 6178   1.815   4.795   1.785 -1.0427  2.7029  0.7014
 1603SOL    HW3 6179   1.875   4.787   1.923 -0.1817  2.1496  0.3023
 1603SOL    MW4 6180   1.806   4.780   1.870 -0.1209  0.0327  0.4184
 1604SOL     OW 6181   4.017   6.057   1.956 -0.7318  0.0729  0.2692
 1604SOL    HW2 6182   4.026   6.108   1.876 -0.2116  1.0758  0.9348
 1604SOL    HW3 6183   3.965   6.112   2.014 -0.0208 -0.0699  1.0643
 1604SOL    MW4 6184   4.012   6.071   1.953 -0.5694  0.1864  0.4619
 1605SOL     OW 6185   4.455   4.601   6.185  0.1190  0.8003  0.6231
 1605SOL    HW2 6186   4.527   4.539   6.171 -0.6711 -0.2670  1.0896
 1605SOL    HW3 6187   4.491   4.665   6.246  1.4151  1.6667 -0.9721
 1605SOL    MW4 6188   4.470   4.601   6.192  0.1857  0.7738  0.4742
 1606SOL     OW 6189   4.153   1.072   4.636  0.3634 -0.0773 -0.2719
 1606SOL    HW2 6190   4.088   1.003   4.628  0.8945 -0.7002  0.5021
 1606SOL    HW3 6191   4.232   1.036   4.595  1.4254 -1.0524  2.3641
 1606SOL    MW4 6192   4.155   1.058   4.630  0.5736 -0.2881  0.1780
 1607SOL     OW 6193   4.345   5.001   4.207 -0.6925  0.4274  0.4981
 1607SOL    HW2 6194   4.265   4.949   4.207 -0.1524 -0.4059 -0.0541
 1607SOL    HW3 6195   4.378   4.996   4.118 -0.3872  1.3438  0.5467
 1607SOL    MW4 6196   4.339   4.994   4.195 -0.5810  0.4384  0.4317
 1608SOL     OW 6197   4.367   0.258   0.383 -0.2516 -0.1700  0.2137
 1608SOL    HW2 6198   4.444   0.312   0.367 -1.0752  0.7647 -0.6900
 1608SOL    HW3 6199   4.393   0.170   0.354  1.4563 -0.6099  2.6754
 1608SOL    MW4 6200   4.381   0.253   0.377 -0.1349 -0.1048  0.4193
 1609SOL     OW 6201   5.748   5.906   3.851 -0.4632  0.3911  0.5127
 1609SOL    HW2 6202   5.839   5.911   3.880 -0.5005  0.8921  0.5611
 1609SOL    HW3 6203   5.748   5.840   3.782  0.1101  0.9871 -0.0860
 1609SOL    MW4 6204   5.760   5.898   3.846 -0.3925  0.5358  0.4401
 1610SOL     OW 6205   6.362   4.558   4.883 -0.1514 -0.1765 -0.5077
 1610SOL    HW2 6206   6.366   4.650   4.856 -0.5137 -0.4575 -1.5715
 1610SOL    HW3 6207   6.453   4.535   4.902  0.2607 -0.1360 -2.2079
 1610SOL    MW4 6208   6.375   4.567   4.882 -0.1448 -0.2082 -0.8724
 1611SOL     OW 6209   3.666   2.874   0.055 -0.1846 -0.1109 -0.0008
 1611SOL    HW2 6210   3.648   2.968   0.060 -2.2069 -0.4936  2.5051
 1611SOL    HW3 6211   3.704   2.861  -0.031  0.8270  3.0921 -0.1744
 1611SOL    MW4 6212   3.668   2.885   0.044 -0.3179  0.2612  0.3069
 1612SOL     OW 6213   0.318   4.486   2.103  0.3171  0.1201 -0.0382
 1612SOL    HW2 6214   0.317   4.423   2.175  1.7531  0.4048  0.2574
 1612SOL    HW3 6215   0.327   4.571   2.145  0.3994  0.3598 -0.5307
 1612SOL    MW4 6216   0.319   4.489   2.118  0.5174  0.1893 -0.0642
 1613SOL     OW 6217   5.821   3.582   3.609  0.0506  0.1422  0.3213
 1613SOL    HW2 6218   5.824   3.516   3.540 -0.5448  1.5999 -1.1800
 1613SOL    HW3 6219   5.907   3.578   3.650  0.3517 -0.8978 -0.3576
 1613SOL    MW4 6220   5.832   3.573   3.605  0.0118  0.1973  0.0336
 1614SOL     OW 6221   5.362   2.359   5.093  0.3141  0.7545  0.3581
 1614SOL    HW2 6222   5.385   2.327   5.180  0.1766  0.2937  0.2330
 1614SOL    HW3 6223   5.382   2.285   5.035 -1.9418  0.1272  0.2844
 1614SOL    MW4 6224   5.368   2.345   5.097 -0.0017  0.6110  0.3319
 1615SOL     OW 6225   1.830   2.497   1.889  0.4816  0.1270 -0.0514
 1615SOL    HW2 6226   1.757   2.488   1.828 -3.1464  0.1721  3.8863
 1615SOL    HW3 6227   1.868   2.409   1.894  0.0231 -0.1650 -1.2967
 1615SOL    MW4 6228   1.826   2.484   1.882 -0.0576  0.0944  0.3038
 1616SOL     OW 6229   5.243   0.509   1.421  0.4029 -0.1875 -0.2661
 1616SOL    HW2 6230   5.274   0.487   1.333 -0.4843 -0.2464 -0.5817
 1616SOL    HW3 6231   5.149   0.525   1.409  0.4302  0.6569  0.5171
 1616SOL    MW4 6232   5.234   0.508   1.408  0.2894 -0.0839 -0.2044
 1617SOL     OW 6233   2.839   1.188   3.887 -0.3146 -0.4772  0.4048
 1617SOL    HW2 6234   2.898   1.245   3.937  0.3546  0.6431 -1.5160
 1617SOL    HW3 6235   2.755   1.233   3.890 -0.2105 -0.2724  0.3322
 1617SOL    MW4 6236   2.836   1.202   3.894 -0.2126 -0.3024  0.1418
 1618SOL     OW 6237   5.653   5.352   3.265  0.4255 -0.0344  0.4286
 1618SOL    HW2 6238   5.647   5.268   3.309  1.1436  0.2607  1.1157
 1618SOL    HW3 6239   5.718   5.339   3.196  0.6708  0.0075  0.6522
 1618SOL    MW4 6240   5.660   5.340   3.262  0.5526  0.0101  0.5488
 1619SOL     OW 6241   2.217   1.413   5.672  0.2434 -0.1554  0.0229
 1619SOL    HW2 6242   2.207   1.385   5.581 -3.0040  0.8107 -0.0701
 1619SOL    HW3 6243   2.223   1.331   5.721 -2.4495 -0.9750 -0.7946
 1619SOL    MW4 6244   2.216   1.398   5.667 -0.5403 -0.1361 -0.0973
 1620SOL     OW 6245   0.505   4.663   2.292 -0.1849  0.6659 -0.2504
 1620SOL    HW2 6246   0.547   4.666   2.378  1.6142  1.6511 -1.1137
 1620SOL    HW3 6247   0.513   4.752   2.259 -2.9083  0.8847 -0.5376
 1620SOL    MW4 6248   0.512   4.675   2.299 -0.3068  0.8248 -0.4022
 1621SOL     OW 6249   4.556   4.779   6.384  0.6226 -0.2888  0.5025
 1621SOL    HW2 6250   4.632   4.822   6.346  1.1006 -2.1160 -0.7636
 1621SOL    HW3 6251   4.581   4.761   6.474  1.4174 -0.2620  0.2921
 1621SOL    MW4 6252   4.569   4.782   6.391  0.7905 -0.5263  0.3077
 1622SOL     OW 6253   3.270   6.399   3.073  0.1646  0.3475 -0.0426
 1622SOL    HW2 6254   3.274   6.364   3.162  0.7900  0.9288  0.1621
 1622SOL    HW3 6255   3.191   6.359   3.036  0.4834 -0.7286  0.4113
 1622SOL    MW4 6256   3.260   6.389   3.080  0.2892  0.2822  0.0443
 1623SOL     OW 6257   4.829   4.801   2.184 -0.2823  0.5226 -0.3401
 1623SOL    HW2 6258   4.901   4.751   2.220  1.0746  2.0681 -0.7992
 1623SOL    HW3 6259   4.854   4.892   2.197 -2.3942  1.1169 -0.0622
 1623SOL    MW4 6260   4.842   4.806   2.191 -0.3819  0.8049 -0.3640
 1624SOL     OW 6261   6.372   5.650   1.932  0.1809 -0.4145 -0.6663
 1624SOL    HW2 6262   6.441   5.708   1.964 -0.4497  0.8507 -1.5370
 1624SOL    HW3 6263   6.417   5.569   1.909  1.1532 -0.1130  0.1185
 1624SOL    MW4 6264   6.387   5.647   1.934  0.2260 -0.2078 -0.6776
 1625SOL     OW 6265   5.902   4.436   0.056 -0.3476  0.6403  0.4526
 1625SOL    HW2 6266   5.819   4.388   0.059 -0.7263  1.3103  1.2090
 1625SOL    HW3 6267   5.896   4.491  -0.022 -0.1953 -0.0300 -0.0384
 1625SOL    MW4 6268   5.891   4.437   0.046 -0.3775  0.6403  0.4876
 1626SOL     OW 6269   2.497   2.148   0.351 -0.1390 -0.6780  0.2318
 1626SOL    HW2 6270   2.407   2.178   0.343 -0.0586 -0.3930  0.3614
 1626SOL    HW3 6271   2.550   2.227   0.336  0.1073 -0.9619 -0.4312
 1626SOL    MW4 6272   2.492   2.163   0.348 -0.0959 -0.6778  0.1614
 1627SOL     OW 6273   3.238   5.603   5.787  0.4764  0.5559  0.1845
 1627SOL    HW2 6274   3.181   5.602   5.711  1.0160 -2.7398 -0.3354
 1627SOL    HW3 6275   3.198   5.665   5.848 -1.5553  1.0931 -1.6157
 1627SOL    MW4 6276   3.225   5.611   5.785  0.2795  0.1919 -0.1216
 1628SOL     OW 6277   3.700   1.675   2.127 -0.0638  0.2244 -0.2117
 1628SOL    HW2 6278   3.670   1.736   2.195 -1.3831 -0.1389 -0.4437
 1628SOL    HW3 6279   3.779   1.716   2.091 -0.1439  1.1077  0.5831
 1628SOL    MW4 6280   3.707   1.688   2.131 -0.2484  0.2930 -0.1374
 1629SOL     OW 6281   4.817   0.438   2.738 -0.2357  0.2880 -0.1460
 1629SOL    HW2 6282   4.827   0.451   2.644 -0.2570  0.6204 -0.1018
 1629SOL    HW3 6283   4.723   0.433   2.752 -0.2581  0.9578 -0.0454
 1629SOL    MW4 6284   4.806   0.439   2.727 -0.2415  0.4202 -0.1269
 1630SOL     OW 6285   3.691   1.503   4.708  0.0777 -0.0133 -0.2744
 1630SOL    HW2 6286   3.736   1.421   4.727 -0.0398 -0.1782 -0.6843
 1630SOL    HW3 6287   3.681   1.546   4.793  1.2319  0.1470 -0.2028
 1630SOL    MW4 6288   3.695   1.498   4.721  0.2145 -0.0139 -0.3191
 1631SOL     OW 6289   4.084   5.626   2.003  0.2337 -0.3821 -0.1855
 1631SOL    HW2 6290   4.054   5.668   2.083 -0.5060 -0.6931 -0.2932
 1631SOL    HW3 6291   4.156   5.682   1.972 -1.0059  1.0625 -0.5516
 1631SOL    MW4 6292   4.090   5.639   2.009 -0.0275 -0.2325 -0.2480
 1632SOL     OW 6293   1.617   3.520   5.542  1.0681  0.2614  0.8937
 1632SOL    HW2 6294   1.621   3.516   5.447  0.8489  1.4849  0.8048
 1632SOL    HW3 6295   1.688   3.465   5.573 -0.1902 -1.9410  0.0882
 1632SOL    MW4 6296   1.627   3.513   5.534  0.8732  0.1323  0.7757
 1633SOL     OW 6297   2.786   2.123   3.942  0.1470 -1.0797  0.0448
 1633SOL    HW2 6298   2.696   2.102   3.918  0.0897 -0.0706 -0.6874
 1633SOL    HW3 6299   2.780   2.160   4.029 -0.2801 -0.0778 -0.4039
 1633SOL    MW4 6300   2.773   2.125   3.950  0.0831 -0.8144 -0.1110
 1634SOL     OW 6301   1.977   4.297   6.031 -0.0522 -0.1053 -0.1994
 1634SOL    HW2 6302   1.943   4.288   5.942  0.4739  0.5783 -0.4743
 1634SOL    HW3 6303   2.064   4.257   6.027  0.4922  1.0550 -0.3198
 1634SOL    MW4 6304   1.984   4.290   6.018  0.0890  0.1380 -0.2515
 1635SOL     OW 6305   6.297   1.500   5.561  0.2426  0.4463  0.0920
 1635SOL    HW2 6306   6.388   1.530   5.563  0.6719 -0.7999  0.6291
 1635SOL    HW3 6307   6.284   1.457   5.646 -1.0738  1.2138  0.3117
 1635SOL    MW4 6308   6.307   1.498   5.573  0.1256  0.3831  0.1918
 1636SOL     OW 6309   5.483   5.763   3.607 -0.2420  0.2617 -0.0466
 1636SOL    HW2 6310   5.538   5.687   3.591 -1.2271 -0.2529 -1.1493
 1636SOL    HW3 6311   5.438   5.743   3.689 -1.2237 -0.8200 -0.8153
 1636SOL    MW4 6312   5.484   5.750   3.616 -0.5015  0.0511 -0.2936
 1637SOL     OW 6313   4.680   0.881   0.687 -0.2823 -0.3983  0.5330
 1637SOL    HW2 6314   4.683   0.960   0.633  0.1531  0.2595  1.4913
 1637SOL    HW3 6315   4.609   0.829   0.650  0.0925 -0.0331 -0.7532
 1637SOL    MW4 6316   4.671   0.884   0.675 -0.1754 -0.2633  0.4897
 1638SOL     OW 6317   1.889   1.528   6.219 -0.0925 -0.3231  0.7075
 1638SOL    HW2 6318   1.904   1.510   6.126 -0.2504 -0.4272  0.7010
 1638SOL    HW3 6319   1.888   1.624   6.225  1.6796 -0.2910  0.8974
 1638SOL    MW4 6320   1.891   1.538   6.207  0.1205 -0.3326  0.7317
 1639SOL     OW 6321   3.746   4.292   1.937  0.2479  0.2984 -0.1066
 1639SOL    HW2 6322   3.696   4.312   2.015  3.1283  1.5294  1.5951
 1639SOL    HW3 6323   3.703   4.215   1.899 -3.1286  1.5720  0.8272
 1639SOL    MW4 6324   3.734   4.285   1.942  0.1825  0.6289  0.2412
 1640SOL     OW 6325   6.256   1.158   2.326  0.1027 -0.2319 -0.2462
 1640SOL    HW2 6326   6.309   1.196   2.396  0.9882 -0.3200 -0.8533
 1640SOL    HW3 6327   6.303   1.079   2.300 -0.0523 -0.0439 -1.1393
 1640SOL    MW4 6328   6.269   1.153   2.332  0.1991 -0.2187 -0.4441
 1641SOL     OW 6329   5.182   4.859   1.355  0.1011  0.6941  0.0444
 1641SOL    HW2 6330   5.172   4.954   1.362  0.2323  0.7849 -0.8988
 1641SOL    HW3 6331   5.115   4.832   1.293 -0.1869  0.1120  0.5983
 1641SOL    MW4 6332   5.172   4.868   1.348  0.0804  0.6292 -0.0070
 1642SOL     OW 6333   1.234   3.764   6.249 -0.2598 -1.0688  0.4764
 1642SOL    HW2 6334   1.317   3.717   6.253 -0.1340 -0.8904 -0.0005
 1642SOL    HW3 6335   1.171   3.699   6.221  0.1922 -0.6265 -1.7336
 1642SOL    MW4 6336   1.237   3.750   6.246 -0.1835 -0.9869  0.1219
 1643SOL     OW 6337   2.283   0.166   3.310 -0.0302  0.0684  0.0794
 1643SOL    HW2 6338   2.203   0.194   3.355 -0.2473  0.1596 -0.3489
 1643SOL    HW3 6339   2.349   0.230   3.337 -0.2639  0.3760 -0.0576
 1643SOL    MW4 6340   2.281   0.178   3.319 -0.0897  0.1210  0.0048
 1644SOL     OW 6341   4.416   2.077   1.864  0.1033 -0.2092 -0.8508
 1644SOL    HW2 6342   4.422   2.164   1.904 -1.0485  0.5616 -2.2686
 1644SOL    HW3 6343   4.338   2.038   1.903  0.8320 -0.7793  0.0667
 1644SOL    MW4 6344   4.407   2.084   1.874  0.0475 -0.1827 -0.9168
 1645SOL     OW 6345   4.255   1.022   0.261  0.2721  0.0197 -0.0696
 1645SOL    HW2 6346   4.292   1.066   0.337  0.1084 -0.3120  0.2030
 1645SOL    HW3 6347   4.162   1.043   0.264 -0.2229 -2.0424  1.2699
 1645SOL    MW4 6348   4.247   1.030   0.271  0.1852 -0.2962  0.1431
 1646SOL     OW 6349   2.790   0.745   2.350 -0.6008 -0.2908 -0.5235
 1646SOL    HW2 6350   2.770   0.764   2.442 -0.4447 -1.3312 -0.2627
 1646SOL    HW3 6351   2.745   0.662   2.333  1.1025 -1.1895 -0.7723
 1646SOL    MW4 6352   2.781   0.737   2.360 -0.3555 -0.5467 -0.5219
 1647SOL     OW 6353   3.490   1.957   4.079  0.2602 -0.0400  0.2467
 1647SOL    HW2 6354   3.512   1.983   4.168  1.4934 -0.1941 -0.0053
 1647SOL    HW3 6355   3.501   1.862   4.077 -0.1718 -0.0917  0.0293
 1647SOL    MW4 6356   3.494   1.948   4.090  0.3659 -0.0672  0.1848
 1648SOL     OW 6357   3.742   3.023   4.742  0.0842  0.1115 -0.3242
 1648SOL    HW2 6358   3.824   3.065   4.766 -0.4126 -0.0512  1.8451
 1648SOL    HW3 6359   3.768   2.944   4.694  1.2176 -0.3165  0.9534
 1648SOL    MW4 6360   3.756   3.018   4.739  0.1682  0.0336  0.1306
 1649SOL     OW 6361   2.185   1.230   3.980  0.3183 -0.2868 -0.2385
 1649SOL    HW2 6362   2.182   1.321   3.952  0.4265 -0.5550 -1.1398
 1649SOL    HW3 6363   2.093   1.201   3.980 -0.0729  0.5589  2.6586
 1649SOL    MW4 6364   2.172   1.238   3.977  0.2810 -0.2107  0.0248
 1650SOL     OW 6365   5.471   0.083   1.948  0.0821  0.2863  0.1496
 1650SOL    HW2 6366   5.484   0.167   1.993  1.7467  0.2854 -0.2587
 1650SOL    HW3 6367   5.426   0.028   2.011 -1.1239  1.4989  0.3974
 1650SOL    MW4 6368   5.466   0.087   1.962  0.1426  0.4461  0.1284
 1651SOL     OW 6369   2.319   1.394   0.551 -0.1009  0.1780 -0.0809
 1651SOL    HW2 6370   2.287   1.458   0.487  0.3981 -0.0846 -0.5996
 1651SOL    HW3 6371   2.240   1.363   0.596 -0.7319 -1.1454 -1.9740
 1651SOL    MW4 6372   2.304   1.398   0.548 -0.1183 -0.0312 -0.3991
 1652SOL     OW 6373   1.124   2.610   5.519  0.1525  0.2326  0.3734
 1652SOL    HW2 6374   1.141   2.704   5.510  3.5105 -0.3475 -0.9445
 1652SOL    HW3 6375   1.166   2.586   5.602 -0.2463 -0.1938  0.4559
 1652SOL    MW4 6376   1.132   2.619   5.529  0.5430  0.0998  0.2104
 1653SOL     OW 6377   0.356   2.913   0.273 -0.0628  0.4714  0.0400
 1653SOL    HW2 6378   0.372   2.869   0.190 -1.5288 -3.7379  1.7249
 1653SOL    HW3 6379   0.443   2.943   0.301  0.9019 -0.5232 -1.6859
 1653SOL    MW4 6380   0.370   2.911   0.266 -0.1290 -0.2152  0.0346
 1654SOL     OW 6381   5.174   4.200   3.777  0.1729  0.0650  0.1673
 1654SOL    HW2 6382   5.159   4.143   3.701 -0.7773  0.3629  0.1113
 1654SOL    HW3 6383   5.235   4.266   3.745  0.8604 -0.6079  0.0749
 1654SOL    MW4 6384   5.180   4.201   3.763  0.1383  0.0155  0.1477
 1655SOL     OW 6385   2.724   0.367   1.676  0.0120 -0.0169  0.3369
 1655SOL    HW2 6386   2.706   0.444   1.623  1.2319 -0.7706 -1.2596
 1655SOL    HW3 6387   2.761   0.402   1.757  1.9352  1.0654 -0.9397
 1655SOL    MW4 6388   2.726   0.382   1.680  0.4267  0.0265 -0.0422
 1656SOL     OW 6389   0.744   2.297   2.777  0.7124 -0.9265 -0.0908
 1656SOL    HW2 6390   0.736   2.390   2.756  0.7997 -0.9495 -0.2284
 1656SOL    HW3 6391   0.786   2.296   2.863  0.9323 -0.8437 -0.1967
 1656SOL    MW4 6392   0.748   2.309   2.786  0.7530 -0.9186 -0.1229
 1657SOL     OW 6393   2.453   5.429   5.502 -1.2207  0.1402  0.2834
 1657SOL    HW2 6394   2.431   5.419   5.595 -0.4208  0.4629  0.5073
 1657SOL    HW3 6395   2.394   5.367   5.457 -1.2781 -0.3674  1.0446
 1657SOL    MW4 6396   2.442   5.419   5.508 -1.1227  0.1158  0.4134
 1658SOL     OW 6397   2.622   4.855   0.142 -0.8154  0.0254 -0.1476
 1658SOL    HW2 6398   2.573   4.935   0.123  1.5846  1.4299 -0.8014
 1658SOL    HW3 6399   2.639   4.816   0.056  2.2243  1.5196 -0.3375
 1658SOL    MW4 6400   2.618   4.860   0.128 -0.0977  0.4078 -0.2589
 1659SOL     OW 6401   2.417   4.961   3.426  0.1591  0.2600 -0.5931
 1659SOL    HW2 6402   2.420   4.982   3.333  1.0459 -0.1844 -0.6765
 1659SOL    HW3 6403   2.396   5.044   3.469  0.7391  0.6927 -1.1243
 1659SOL    MW4 6404   2.415   4.975   3.420  0.3526  0.2585 -0.6742
 1660SOL     OW 6405   1.482   4.811   2.866 -0.0819  0.1803 -0.2579
 1660SOL    HW2 6406   1.426   4.844   2.936 -0.2213  1.3607 -0.8963
 1660SOL    HW3 6407   1.425   4.809   2.789  0.8276  1.9443 -1.0473
 1660SOL    MW4 6408   1.467   4.815   2.865  0.0197  0.5688 -0.4463
 1661SOL     OW 6409   1.882   6.239   1.591 -0.2011  0.3678  0.1411
 1661SOL    HW2 6410   1.861   6.304   1.525 -1.9932 -1.5335 -1.3070
 1661SOL    HW3 6411   1.933   6.172   1.545  0.9631  0.3472  1.3986
 1661SOL    MW4 6412   1.886   6.239   1.577 -0.2839  0.1142  0.1160
 1662SOL     OW 6413   1.433   1.270   1.047 -0.0969 -0.8896  0.0328
 1662SOL    HW2 6414   1.342   1.286   1.072 -0.0211  0.6939 -0.6049
 1662SOL    HW3 6415   1.478   1.251   1.130 -0.4648  1.1591  0.7472
 1662SOL    MW4 6416   1.427   1.269   1.061 -0.1354 -0.4103  0.0429
 1663SOL     OW 6417   0.930   0.811   6.005  0.0573  0.3035 -0.0527
 1663SOL    HW2 6418   0.988   0.738   6.027 -1.3362 -0.2217  2.2464
 1663SOL    HW3 6419   0.891   0.785   5.921 -0.0272 -1.3945  0.4587
 1663SOL    MW4 6420   0.932   0.798   5.996 -0.1377  0.0102  0.3181
 1664SOL     OW 6421   0.199   0.505   3.949 -0.2221  0.3917  0.0964
 1664SOL    HW2 6422   0.151   0.584   3.924 -1.1483 -0.4475 -0.9503
 1664SOL    HW3 6423   0.131   0.438   3.957  0.5357 -0.2963  0.9878
 1664SOL    MW4 6424   0.183   0.506   3.947 -0.2443  0.1902  0.0759
 1665SOL     OW 6425   6.002   1.829   0.377  0.1722 -0.0252  0.5309
 1665SOL    HW2 6426   5.933   1.818   0.442  0.0212 -0.1362  0.3532
 1665SOL    HW3 6427   5.972   1.901   0.321 -1.1780 -1.8694 -1.2912
 1665SOL    MW4 6428   5.989   1.837   0.378 -0.0259 -0.2832  0.2671
 1666SOL     OW 6429   6.215   0.833   3.102  0.4124 -0.2662  0.0769
 1666SOL    HW2 6430   6.262   0.871   3.176  1.9655  0.3879 -1.1769
 1666SOL    HW3 6431   6.123   0.851   3.120  0.7953  0.3105  1.5946
 1666SOL    MW4 6432   6.209   0.840   3.114  0.6678 -0.1038  0.1118
 1667SOL     OW 6433   5.867   3.412   5.453  0.2684 -0.5524 -0.6567
 1667SOL    HW2 6434   5.834   3.354   5.521 -1.7731 -0.9983 -1.9376
 1667SOL    HW3 6435   5.869   3.499   5.495 -0.1187 -0.9484  0.2144
 1667SOL    MW4 6436   5.863   3.416   5.468 -0.0520 -0.6635 -0.7108
 1668SOL     OW 6437   3.380   5.112   2.385 -0.0619  0.2382  0.5037
 1668SOL    HW2 6438   3.467   5.146   2.364 -0.5670  1.0785 -0.3322
 1668SOL    HW3 6439   3.389   5.017   2.377  1.0830  0.2164  1.7035
 1668SOL    MW4 6440   3.392   5.104   2.381  0.0225  0.3462  0.5517
 1669SOL     OW 6441   3.900   2.600   3.002 -0.1715 -0.1765 -0.3119
 1669SOL    HW2 6442   3.884   2.622   3.093 -2.2412  1.2066 -0.9581
 1669SOL    HW3 6443   3.991   2.625   2.987 -0.4660  1.6999  0.8021
 1669SOL    MW4 6444   3.910   2.606   3.012 -0.4834  0.2536 -0.2502
 1670SOL     OW 6445   0.163   4.428   1.056 -0.7902  0.1402 -0.0463
 1670SOL    HW2 6446   0.078   4.417   1.099  0.0660  1.1720  2.0220
 1670SOL    HW3 6447   0.149   4.500   0.994 -1.1509  1.1489  1.1631
 1670SOL    MW4 6448   0.150   4.436   1.054 -0.7248  0.4094  0.3862
 1671SOL     OW 6449   5.053   4.204   6.134 -0.1741  0.0872 -0.7859
 1671SOL    HW2 6450   5.088   4.118   6.112  1.3157  0.1625  1.0976
 1671SOL    HW3 6451   4.958   4.193   6.128 -0.0297 -1.8151 -0.1850
 1671SOL    MW4 6452   5.045   4.191   6.130  0.0415 -0.1539 -0.4581
 1672SOL     OW 6453   1.538   4.119   6.380  0.3435 -0.6092  0.0285
 1672SOL    HW2 6454   1.512   4.063   6.307 -0.9438 -0.0960  0.0522
 1672SOL    HW3 6455   1.567   4.200   6.339  1.1736 -0.9052  0.0309
 1672SOL    MW4 6456   1.538   4.122   6.365  0.2832 -0.5805  0.0319
 1673SOL     OW 6457   3.632   5.283   2.326 -0.1940  0.3204  0.1228
 1673SOL    HW2 6458   3.726   5.266   2.320 -0.7103 -2.4864 -1.6868
 1673SOL    HW3 6459   3.608   5.311   2.238 -1.6417 -3.1344 -0.7391
 1673SOL    MW4 6460   3.642   5.285   2.314 -0.4531 -0.5058 -0.2297
 1674SOL     OW 6461   4.902   0.941   1.805 -0.0100 -0.0994  0.5506
 1674SOL    HW2 6462   4.914   0.867   1.865  0.6302  1.0426  1.8952
 1674SOL    HW3 6463   4.928   0.907   1.719 -0.1605 -1.5469  1.0505
 1674SOL    MW4 6464   4.907   0.927   1.802  0.0546 -0.1397  0.7940
 1675SOL     OW 6465   0.937   5.285   5.846  0.1413 -0.2868  0.1445
 1675SOL    HW2 6466   0.972   5.237   5.922  1.0938  0.7601  0.3913
 1675SOL    HW3 6467   0.855   5.240   5.826 -1.0168  0.3818  2.8427
 1675SOL    MW4 6468   0.931   5.272   5.854  0.1142 -0.0605  0.5331
 1676SOL     OW 6469   6.163   1.934   0.864 -0.0969  0.2869  0.4584
 1676SOL    HW2 6470   6.201   1.952   0.951  1.6445  0.8113 -0.3671
 1676SOL    HW3 6471   6.167   2.017   0.818 -0.4181 -0.1330 -0.3510
 1676SOL    MW4 6472   6.168   1.947   0.870  0.0904  0.3007  0.2427
 1677SOL     OW 6473   3.131   3.125   0.146  0.0579 -0.1798 -0.4673
 1677SOL    HW2 6474   3.148   3.049   0.091  0.5991  1.8212 -3.3264
 1677SOL    HW3 6475   3.205   3.128   0.207  0.8035 -1.1356 -1.2904
 1677SOL    MW4 6476   3.143   3.115   0.147  0.2276 -0.0419 -0.9532
 1678SOL     OW 6477   3.054   3.488   2.153  0.4861  0.2016  0.2471
 1678SOL    HW2 6478   3.080   3.573   2.118  1.4160 -0.8592 -1.8148
 1678SOL    HW3 6479   2.992   3.454   2.088  1.0437 -1.1890  0.4293
 1678SOL    MW4 6480   3.049   3.495   2.140  0.6824 -0.1218 -0.0009
 1679SOL     OW 6481   1.298   3.182   5.484  0.6016 -0.0743  0.1856
 1679SOL    HW2 6482   1.356   3.116   5.446  1.0233  0.2586  0.2562
 1679SOL    HW3 6483   1.221   3.181   5.427 -0.1994 -1.9078  1.1919
 1679SOL    MW4 6484   1.295   3.173   5.472  0.5516 -0.2723  0.3277
 1680SOL     OW 6485   5.880   1.880   0.928 -0.1463 -0.5385  0.1367
 1680SOL    HW2 6486   5.975   1.894   0.922 -0.0257 -0.8987  1.0676
 1680SOL    HW3 6487   5.866   1.850   1.018 -0.7596 -3.4007 -0.7981
 1680SOL    MW4 6488   5.891   1.878   0.939 -0.2113 -0.9636  0.1362
 1681SOL     OW 6489   4.687   2.413   1.184 -0.3482  0.3525 -0.3776
 1681SOL    HW2 6490   4.665   2.446   1.096 -0.1351 -0.9198 -0.9266
 1681SOL    HW3 6491   4.607   2.371   1.214  0.6049 -2.5871 -1.5869
 1681SOL    MW4 6492   4.674   2.412   1.176 -0.1943 -0.2032 -0.6096
 1682SOL     OW 6493   3.585   4.385   2.142 -0.1549 -0.2838 -0.1908
 1682SOL    HW2 6494   3.514   4.354   2.198 -1.2407 -0.4221 -1.5842
 1682SOL    HW3 6495   3.633   4.448   2.195 -0.4167 -1.2893  1.2835
 1682SOL    MW4 6496   3.582   4.389   2.156 -0.3327 -0.4347 -0.1801
 1683SOL     OW 6497   3.087   3.832   0.905 -0.1283 -0.2505  0.4464
 1683SOL    HW2 6498   3.119   3.893   0.971 -2.2154  0.1392  1.1904
 1683SOL    HW3 6499   3.075   3.886   0.827 -0.9524  0.1110  0.7978
 1683SOL    MW4 6500   3.089   3.847   0.904 -0.5124 -0.1514  0.5909
 1684SOL     OW 6501   0.751   6.388   3.579  0.1884  0.0274 -0.2861
 1684SOL    HW2 6502   0.658   6.383   3.559  0.1024 -1.3130  0.3447
 1684SOL    HW3 6503   0.758   6.359   3.670  1.1329  0.9976 -0.0315
 1684SOL    MW4 6504   0.740   6.383   3.588  0.3017 -0.0214 -0.1693
 1685SOL     OW 6505   4.629   1.456   6.110  0.1382  0.0860 -0.5531
 1685SOL    HW2 6506   4.577   1.510   6.169 -0.6263 -0.5037 -0.6709
 1685SOL    HW3 6507   4.642   1.374   6.157  2.1141  0.6607  0.0256
 1685SOL    MW4 6508   4.624   1.452   6.124  0.2981  0.0840 -0.4923
 1686SOL     OW 6509   1.457   2.593   0.354  0.2788  0.1187 -0.1248
 1686SOL    HW2 6510   1.525   2.529   0.331  0.1589  0.7505 -2.4973
 1686SOL    HW3 6511   1.505   2.665   0.395  0.4027 -1.4089  2.7094
 1686SOL    MW4 6512   1.472   2.594   0.357  0.2794  0.0005 -0.0639
 1687SOL     OW 6513   4.023   4.405   2.616 -0.0278 -0.1082 -0.9691
 1687SOL    HW2 6514   4.099   4.460   2.600  0.8787 -1.2390 -0.7160
 1687SOL    HW3 6515   3.968   4.456   2.676  1.2992  0.1016  0.1298
 1687SOL    MW4 6516   4.026   4.419   2.622  0.2669 -0.2297 -0.7907
 1688SOL     OW 6517   2.068   2.969   2.999  0.1193  0.3137  0.5369
 1688SOL    HW2 6518   1.990   2.928   3.038 -0.8639  1.4055 -0.2248
 1688SOL    HW3 6519   2.033   3.035   2.940  1.5986 -0.2899 -1.0783
 1688SOL    MW4 6520   2.053   2.972   2.997  0.1848  0.3781  0.2233
 1689SOL     OW 6521   2.911   3.926   1.603  0.6655 -0.2589  0.0890
 1689SOL    HW2 6522   2.968   3.920   1.680 -0.2275 -1.5360  0.6883
 1689SOL    HW3 6523   2.832   3.970   1.635  0.2411 -0.9050 -0.0603
 1689SOL    MW4 6524   2.908   3.931   1.617  0.4917 -0.5126  0.1484
 1690SOL     OW 6525   3.109   0.950   0.873  0.0792  0.1573  0.4334
 1690SOL    HW2 6526   3.177   1.005   0.834  1.7286 -1.3000  1.0920
 1690SOL    HW3 6527   3.051   0.928   0.800  1.4687 -0.1828 -0.6317
 1690SOL    MW4 6528   3.110   0.954   0.858  0.4802 -0.0798  0.3798
 1691SOL     OW 6529   3.024   2.251   5.830 -0.1696  0.6218 -0.7169
 1691SOL    HW2 6530   2.977   2.285   5.905  1.2871  0.3106  0.3801
 1691SOL    HW3 6531   3.117   2.263   5.852  0.3070 -0.3205 -2.0627
 1691SOL    MW4 6532   3.030   2.257   5.843  0.0855  0.4564 -0.7498
 1692SOL     OW 6533   3.057   4.396   4.773 -0.4609  0.1498 -0.5868
 1692SOL    HW2 6534   2.989   4.336   4.745  0.7752 -1.8030  0.3685
 1692SOL    HW3 6535   3.011   4.465   4.822 -1.6522 -1.9913  1.4937
 1692SOL    MW4 6536   3.042   4.397   4.776 -0.4550 -0.3903 -0.1862
 1693SOL     OW 6537   2.113   0.389   2.495  0.1239  0.7613 -0.2331
 1693SOL    HW2 6538   2.114   0.320   2.429 -2.3043 -0.5110  0.9418
 1693SOL    HW3 6539   2.068   0.462   2.453  0.0008  0.5347 -0.4948
 1693SOL    MW4 6540   2.108   0.390   2.481 -0.2128  0.5636 -0.1126
 1694SOL     OW 6541   5.702   1.466   2.485 -0.6235  0.1618 -0.3253
 1694SOL    HW2 6542   5.648   1.521   2.429  0.3158  0.1319 -1.2850
 1694SOL    HW3 6543   5.655   1.383   2.491 -0.8345  0.2365 -0.9118
 1694SOL    MW4 6544   5.689   1.463   2.479 -0.5274  0.1677 -0.5293
 1695SOL     OW 6545   1.353   2.792   1.298  0.0054  0.1255 -0.3310
 1695SOL    HW2 6546   1.389   2.706   1.277 -0.1996 -0.0132 -0.1243
 1695SOL    HW3 6547   1.301   2.777   1.377  0.8567  0.6590  0.3461
 1695SOL    MW4 6548   1.351   2.779   1.305  0.0907  0.1776 -0.2144
 1696SOL     OW 6549   4.062   2.488   2.274  0.5639 -0.5861  0.1824
 1696SOL    HW2 6550   3.995   2.496   2.343 -1.4568 -0.9540 -1.6223
 1696SOL    HW3 6551   4.140   2.457   2.320 -0.7415 -0.9656  2.2917
 1696SOL    MW4 6552   4.063   2.485   2.289  0.1250 -0.6847  0.2226
 1697SOL     OW 6553   3.818   0.121   0.939  0.7546 -0.1139  0.2278
 1697SOL    HW2 6554   3.779   0.206   0.919  1.7821  0.2131 -0.4057
 1697SOL    HW3 6555   3.819   0.074   0.856  3.7470  0.7288 -0.3145
 1697SOL    MW4 6556   3.813   0.126   0.926  1.2850  0.0404  0.0727
 1698SOL     OW 6557   2.971   3.126   3.597 -0.1921 -0.0336  0.3547
 1698SOL    HW2 6558   2.916   3.155   3.670  1.2450  1.0181  1.0699
 1698SOL    HW3 6559   2.929   3.162   3.519 -0.1504  1.3780  0.9572
 1698SOL    MW4 6560   2.958   3.135   3.597  0.0030  0.2914  0.5285
 1699SOL     OW 6561   2.147   5.269   6.156 -0.0442  0.4772  0.1502
 1699SOL    HW2 6562   2.173   5.206   6.223 -0.4040 -0.3334 -0.4521
 1699SOL    HW3 6563   2.097   5.218   6.093  1.5988  0.8472 -1.5809
 1699SOL    MW4 6564   2.144   5.254   6.157  0.1251  0.4191 -0.1576
 1700SOL     OW 6565   6.248   6.090   5.114  0.5160 -0.3573 -0.0467
 1700SOL    HW2 6566   6.329   6.048   5.085  0.6488 -0.0299 -0.1538
 1700SOL    HW3 6567   6.268   6.127   5.200 -0.1296 -2.0891  0.9081
 1700SOL    MW4 6568   6.261   6.090   5.122  0.4483 -0.5426  0.0651
 1701SOL     OW 6569   0.668   0.799   5.135  0.4691 -0.0158  0.6474
 1701SOL    HW2 6570   0.695   0.891   5.127  0.2510 -0.0075 -0.0267
 1701SOL    HW3 6571   0.676   0.764   5.047 -0.4139 -0.3719  0.7006
 1701SOL    MW4 6572   0.672   0.807   5.123  0.3238 -0.0617  0.5655
 1702SOL     OW 6573   5.025   4.162   2.849  0.3993 -0.3288  0.0646
 1702SOL    HW2 6574   4.940   4.194   2.879  0.2939 -1.3091  0.8320
 1702SOL    HW3 6575   5.087   4.194   2.915  0.4380 -0.7882  0.2508
 1702SOL    MW4 6576   5.022   4.171   2.862  0.3905 -0.5188  0.1904
 1703SOL     OW 6577   5.902   1.570   1.546 -0.5175  0.1487  0.0825
 1703SOL    HW2 6578   5.829   1.546   1.489  0.8060  0.5906 -1.8954
 1703SOL    HW3 6579   5.946   1.487   1.565 -0.1352  0.1570 -0.7468
 1703SOL    MW4 6580   5.898   1.556   1.541 -0.2925  0.2081 -0.2879
 1704SOL     OW 6581   2.260   1.129   3.185  0.3499  0.0702 -0.2164
 1704SOL    HW2 6582   2.321   1.056   3.199  1.3778  1.0408  0.5824
 1704SOL    HW3 6583   2.208   1.132   3.266  0.1420  0.0902 -0.3486
 1704SOL    MW4 6584   2.261   1.119   3.198  0.4581  0.2009 -0.1284
 1705SOL     OW 6585   1.199   5.430   2.903 -0.6267  0.1049  0.2316
 1705SOL    HW2 6586   1.199   5.385   2.818 -2.4499  0.9388 -0.2628
 1705SOL    HW3 6587   1.285   5.470   2.910  0.1453 -1.3675 -0.4471
 1705SOL    MW4 6588   1.210   5.429   2.893 -0.7654  0.0207  0.0769
 1706SOL     OW 6589   5.782   4.943   5.063  0.5817  0.7039 -0.2664
 1706SOL    HW2 6590   5.809   4.942   4.971 -0.0416  0.7537 -0.4534
 1706SOL    HW3 6591   5.687   4.939   5.060  0.5815  0.0419  0.3945
 1706SOL    MW4 6592   5.773   4.942   5.051  0.4995  0.6231 -0.2039
 1707SOL     OW 6593   1.600   4.755   4.043 -0.2853  0.5220 -0.3592
 1707SOL    HW2 6594   1.583   4.660   4.043 -0.1862  0.4937 -1.2733
 1707SOL    HW3 6595   1.573   4.784   3.956 -0.1157  1.3035 -0.1593
 1707SOL    MW4 6596   1.594   4.746   4.032 -0.2499  0.6214 -0.4534
 1708SOL     OW 6597   5.219   1.938   5.544  0.2110  0.2413 -0.1778
 1708SOL    HW2 6598   5.189   2.016   5.591  0.4937  0.1656  0.1332
 1708SOL    HW3 6599   5.244   1.877   5.614 -2.2285 -1.0477 -0.3101
 1708SOL    MW4 6600   5.218   1.941   5.560 -0.0735  0.0612 -0.1542
 1709SOL     OW 6601   2.887   3.227   5.104  0.2345 -0.5827  0.0942
 1709SOL    HW2 6602   2.909   3.297   5.042  1.4200 -1.2267 -0.2469
 1709SOL    HW3 6603   2.832   3.167   5.054 -0.5514 -0.0577  0.3051
 1709SOL    MW4 6604   2.883   3.228   5.089  0.2872 -0.5984  0.0770
 1710SOL     OW 6605   2.537   4.387   1.648 -0.2238 -0.4155 -0.2393
 1710SOL    HW2 6606   2.466   4.368   1.586 -0.2344  0.2553 -0.4401
 1710SOL    HW3 6607   2.615   4.348   1.608 -0.0295  0.8473 -1.1925
 1710SOL    MW4 6608   2.538   4.379   1.634 -0.1995 -0.1604 -0.3916
 1711SOL     OW 6609   2.314   4.083   4.268  0.0975  0.2225 -0.3703
 1711SOL    HW2 6610   2.386   4.132   4.307  1.1869 -1.4290 -0.1913
 1711SOL    HW3 6611   2.235   4.133   4.291  1.2333  2.9546 -1.9129
 1711SOL    MW4 6612   2.313   4.096   4.276  0.3911  0.3651 -0.5502
 1712SOL     OW 6613   0.401   6.477   2.489  1.1186  0.2448  0.3011
 1712SOL    HW2 6614   0.424   6.568   2.501  3.0988 -0.2600  0.6259
 1712SOL    HW3 6615   0.475   6.438   2.442  1.4940 -1.7025  2.3056
 1712SOL    MW4 6616   0.414   6.484   2.485  1.4294 -0.0788  0.6084
 1713SOL     OW 6617   1.391   3.319   4.315 -0.2228  0.1417 -0.2666
 1713SOL    HW2 6618   1.457   3.251   4.333 -0.0305  0.6515  1.1019
 1713SOL    HW3 6619   1.308   3.279   4.342 -0.0322  0.6345  1.1262
 1713SOL    MW4 6620   1.389   3.304   4.321 -0.1723  0.2740  0.0977
 1714SOL     OW 6621   1.671   4.614   2.811 -0.2050  0.4378  0.3683
 1714SOL    HW2 6622   1.607   4.680   2.840  1.0262  1.2058  1.5031
 1714SOL    HW3 6623   1.632   4.530   2.835 -1.4857  0.7695 -0.4471
 1714SOL    MW4 6624   1.658   4.612   2.818 -0.2115  0.5829  0.4104
 1715SOL     OW 6625   3.120   4.780   5.852 -0.5778  0.2839 -0.3797
 1715SOL    HW2 6626   3.197   4.725   5.864 -1.2233 -1.0847 -2.0652
 1715SOL    HW3 6627   3.154   4.861   5.814  0.1262  0.0370 -0.2983
 1715SOL    MW4 6628   3.135   4.783   5.849 -0.5701  0.0708 -0.5914
 1716SOL     OW 6629   2.621   3.372   5.174 -0.1158  0.1270 -0.5848
 1716SOL    HW2 6630   2.676   3.294   5.163 -0.5743 -0.3100  0.0793
 1716SOL    HW3 6631   2.585   3.363   5.262  0.0662  1.2606 -0.3825
 1716SOL    MW4 6632   2.623   3.360   5.184 -0.1523  0.2189 -0.4705
 1717SOL     OW 6633   6.310   0.657   1.857  0.4104  0.1620 -0.0807
 1717SOL    HW2 6634   6.296   0.562   1.865  0.9151 -0.1796 -2.4645
 1717SOL    HW3 6635   6.255   0.683   1.783  1.8965  1.3161 -0.8303
 1717SOL    MW4 6636   6.301   0.648   1.848  0.6731  0.2692 -0.4941
 1718SOL     OW 6637   3.763   2.918   3.884  0.4055  0.4124  0.3649
 1718SOL    HW2 6638   3.725   2.841   3.927  0.7176 -0.7333 -1.3164
 1718SOL    HW3 6639   3.693   2.984   3.885 -1.7607 -1.5749 -2.5000
 1718SOL    MW4 6640   3.748   2.917   3.890  0.1609 -0.0010 -0.2349
 1719SOL     OW 6641   1.071   3.721   4.209 -0.1293  0.2205  0.8811
 1719SOL    HW2 6642   0.987   3.678   4.194  0.5858 -0.9322  0.0912
 1719SOL    HW3 6643   1.055   3.813   4.188 -0.5321 -0.4146 -2.0699
 1719SOL    MW4 6644   1.058   3.728   4.204 -0.0881 -0.0154  0.3875
 1720SOL     OW 6645   0.023   3.964   2.524 -0.3791 -0.2245  0.1818
 1720SOL    HW2 6646  -0.038   3.913   2.471  2.5591 -4.2379  0.2039
 1720SOL    HW3 6647   0.037   3.911   2.603  3.6072 -0.0680 -0.2094
 1720SOL    MW4 6648   0.017   3.950   2.527  0.5345 -0.7334  0.1331
 1721SOL     OW 6649   0.012   0.150   1.004  0.2036 -0.1379  0.7313
 1721SOL    HW2 6650   0.019   0.140   1.099  0.8031 -0.3749  0.6659
 1721SOL    HW3 6651  -0.081   0.162   0.988  0.3002  2.4487  1.5924
 1721SOL    MW4 6652   0.001   0.150   1.015  0.2954  0.1721  0.8363
 1722SOL     OW 6653   2.552   4.972   5.840  0.5193 -0.2748 -0.6430
 1722SOL    HW2 6654   2.603   4.897   5.869 -0.3807 -0.6937 -0.0932
 1722SOL    HW3 6655   2.598   5.048   5.876  1.1252 -0.5875 -0.7414
 1722SOL    MW4 6656   2.565   4.972   5.848  0.4805 -0.3713 -0.5834
 1723SOL     OW 6657   2.261   1.478   1.088 -0.1279  0.4020  0.0181
 1723SOL    HW2 6658   2.251   1.566   1.124  0.3132  1.1808 -1.6703
 1723SOL    HW3 6659   2.172   1.442   1.090 -0.5788  1.4437 -0.6356
 1723SOL    MW4 6660   2.248   1.485   1.093 -0.1292  0.6422 -0.2909
 1724SOL     OW 6661   4.485   0.888   1.322  0.4796 -0.3049  0.4448
 1724SOL    HW2 6662   4.429   0.963   1.300  0.2521  0.0813  2.2105
 1724SOL    HW3 6663   4.525   0.863   1.239 -0.3791  1.0012 -0.4018
 1724SOL    MW4 6664   4.483   0.894   1.308  0.3363 -0.0816  0.5661
 1725SOL     OW 6665   4.118   2.828   3.316  0.0195  0.0512 -0.4082
 1725SOL    HW2 6666   4.131   2.841   3.223  0.7192  0.3213 -0.2778
 1725SOL    HW3 6667   4.045   2.766   3.322 -0.4910  0.5797 -1.1095
 1725SOL    MW4 6668   4.110   2.821   3.305  0.0444  0.1566 -0.4835
 1726SOL     OW 6669   2.871   2.360   0.489 -0.3218 -0.1063 -0.5057
 1726SOL    HW2 6670   2.825   2.376   0.406 -1.2925 -0.7034 -0.1053
 1726SOL    HW3 6671   2.879   2.265   0.494  3.4237 -0.0393 -1.8119
 1726SOL    MW4 6672   2.866   2.350   0.479  0.0443 -0.1762 -0.6252
 1727SOL     OW 6673   1.766   3.808   1.632  0.1058  0.3087 -0.3152
 1727SOL    HW2 6674   1.833   3.758   1.679 -0.4133  0.4614  0.6061
 1727SOL    HW3 6675   1.802   3.897   1.627  0.6304  0.0575 -1.1596
 1727SOL    MW4 6676   1.780   3.813   1.638  0.1065  0.2957 -0.3051
 1728SOL     OW 6677   3.453   4.984   5.890  0.0178  0.0061 -0.6419
 1728SOL    HW2 6678   3.505   5.062   5.908 -0.7447 -0.0045  1.9510
 1728SOL    HW3 6679   3.489   4.916   5.947 -0.9486 -0.8367 -0.9892
 1728SOL    MW4 6680   3.464   4.985   5.900 -0.2103 -0.1065 -0.3456
 1729SOL     OW 6681   1.623   0.764   0.532 -0.6824  0.1327  0.3217
 1729SOL    HW2 6682   1.676   0.809   0.466  0.1553 -0.5716  0.4881
 1729SOL    HW3 6683   1.687   0.732   0.596 -1.4741  0.7000  1.4168
 1729SOL    MW4 6684   1.638   0.765   0.532 -0.6763  0.1146  0.4881
 1730SOL     OW 6685   3.328   4.103   0.827  0.0160  0.4453 -0.2904
 1730SOL    HW2 6686   3.387   4.160   0.876 -1.3715  0.8910  0.9000
 1730SOL    HW3 6687   3.342   4.016   0.864 -1.4728  0.8787  1.3944
 1730SOL    MW4 6688   3.338   4.099   0.838 -0.3635  0.5613  0.0889
 1731SOL     OW 6689   1.467   4.440   4.315 -0.8017  0.2225  0.3323
 1731SOL    HW2 6690   1.415   4.389   4.377 -1.0993  1.0112  0.7493
 1731SOL    HW3 6691   1.501   4.513   4.366  0.3640 -0.0304 -0.0421
 1731SOL    MW4 6692   1.465   4.443   4.330 -0.6871  0.2932  0.3379
 1732SOL     OW 6693   5.572   1.814   6.376  0.1819  0.3629 -0.9105
 1732SOL    HW2 6694   5.598   1.804   6.468 -0.3387 -1.0609 -0.8811
 1732SOL    HW3 6695   5.495   1.757   6.367  1.2313 -0.8863 -2.6289
 1732SOL    MW4 6696   5.565   1.805   6.387  0.2517  0.0103 -1.1334
 1733SOL     OW 6697   3.117   5.084   3.135 -0.2452  0.1207 -0.1490
 1733SOL    HW2 6698   3.137   5.170   3.172 -1.8948 -0.0405  1.2503
 1733SOL    HW3 6699   3.024   5.090   3.111  0.1974 -0.5462 -2.1819
 1733SOL    MW4 6700   3.107   5.096   3.137 -0.4045  0.0115 -0.2326
 1734SOL     OW 6701   1.156   2.688   0.483  0.2652  0.4634  0.0026
 1734SOL    HW2 6702   1.073   2.640   0.474  1.2068 -1.6524  1.6701
 1734SOL    HW3 6703   1.191   2.693   0.395 -0.5949 -0.6201 -0.4291
 1734SOL    MW4 6704   1.149   2.682   0.470  0.2760  0.0413  0.1656
 1735SOL     OW 6705   1.539   1.796   0.372  0.2968 -0.3715 -0.0458
 1735SOL    HW2 6706   1.477   1.730   0.341  0.9940 -1.3161  0.5312
 1735SOL    HW3 6707   1.507   1.822   0.458  0.1825 -0.1574 -0.1509
 1735SOL    MW4 6708   1.527   1.791   0.379  0.3737 -0.4679  0.0164
 1736SOL     OW 6709   4.300   0.755   4.743 -0.6841  0.1228 -0.7487
 1736SOL    HW2 6710   4.340   0.760   4.829 -0.6475 -0.1115 -0.7519
 1736SOL    HW3 6711   4.352   0.690   4.695 -0.9562 -0.0556 -0.8098
 1736SOL    MW4 6712   4.312   0.747   4.748 -0.7152  0.0683 -0.7572
 1737SOL     OW 6713   0.885   2.188   5.282  0.1496 -0.0495 -0.3068
 1737SOL    HW2 6714   0.934   2.223   5.357  1.1320  0.4488 -1.1546
 1737SOL    HW3 6715   0.845   2.265   5.242  0.1293 -0.2341 -0.6410
 1737SOL    MW4 6716   0.886   2.203   5.287  0.2765 -0.0082 -0.4628
 1738SOL     OW 6717   2.994   6.445   4.066  0.5791  0.0231 -0.0014
 1738SOL    HW2 6718   2.991   6.388   3.989 -0.6556 -1.6730  1.2270
 1738SOL    HW3 6719   3.016   6.386   4.138 -1.2185  0.9924  1.4104
 1738SOL    MW4 6720   2.997   6.430   4.065  0.1790 -0.0728  0.3469
 1739SOL     OW 6721   0.588   5.105   2.158  0.0534  0.6554  0.1406
 1739SOL    HW2 6722   0.521   5.048   2.120  0.9940  0.5010 -1.3810
 1739SOL    HW3 6723   0.578   5.189   2.114 -0.0442  1.0793  0.9418
 1739SOL    MW4 6724   0.578   5.108   2.147  0.1646  0.6910  0.0456
 1740SOL     OW 6725   3.198   1.179   3.804 -0.3305 -0.1111 -0.4448
 1740SOL    HW2 6726   3.212   1.095   3.847 -0.7168  0.5822  1.1302
 1740SOL    HW3 6727   3.162   1.235   3.873 -3.3349  0.4103 -2.2618
 1740SOL    MW4 6728   3.195   1.175   3.819 -0.7779  0.0491 -0.4767
 1741SOL     OW 6729   1.171   3.990   5.872 -0.1656  0.0421  0.0444
 1741SOL    HW2 6730   1.203   4.053   5.936  0.8553  1.4743 -1.7866
 1741SOL    HW3 6731   1.098   4.034   5.828  0.6926  0.0826 -1.4027
 1741SOL    MW4 6732   1.166   4.004   5.874  0.0823  0.2364 -0.3881
 1742SOL     OW 6733   5.146   1.336   4.778  0.6822 -0.3845 -0.0131
 1742SOL    HW2 6734   5.193   1.316   4.697  0.5894  0.1121 -0.1930
 1742SOL    HW3 6735   5.183   1.275   4.843  1.2342 -0.3282 -0.2645
 1742SOL    MW4 6736   5.157   1.325   4.776  0.7428 -0.3115 -0.0700
 1743SOL     OW 6737   4.842   1.520   4.597 -0.1390 -0.1421 -0.5771
 1743SOL    HW2 6738   4.794   1.442   4.567 -0.3663  0.3919 -1.6274
 1743SOL    HW3 6739   4.806   1.592   4.545  0.5178  0.5690 -0.0609
 1743SOL    MW4 6740   4.831   1.519   4.586 -0.0823  0.0222 -0.6476
 1744SOL     OW 6741   2.987   0.349   0.188 -0.1086  0.4296  0.4233
 1744SOL    HW2 6742   2.904   0.380   0.152 -0.3330  0.3134  0.8370
 1744SOL    HW3 6743   3.031   0.307   0.114 -0.8158 -0.3197  0.4145
 1744SOL    MW4 6744   2.982   0.348   0.174 -0.2315  0.3154  0.4767
 1745SOL     OW 6745   6.388   0.994   1.212 -0.0249  0.6293 -0.5651
 1745SOL    HW2 6746   6.401   1.027   1.301  0.0591  0.7141 -0.6083
 1745SOL    HW3 6747   6.295   1.005   1.195 -0.2392 -0.3392 -0.1078
 1745SOL    MW4 6748   6.378   0.999   1.221 -0.0421  0.5127 -0.5104
 1746SOL     OW 6749   6.007   4.613   0.261  0.1001 -0.0290  0.4002
 1746SOL    HW2 6750   5.947   4.570   0.201  0.9354 -2.4276  1.1433
 1746SOL    HW3 6751   5.951   4.650   0.329 -0.6749  0.2275 -0.3709
 1746SOL    MW4 6752   5.992   4.612   0.262  0.1081 -0.3116  0.3965
 1747SOL     OW 6753   0.976   4.705   3.482  0.1377 -0.3885 -0.1380
 1747SOL    HW2 6754   0.947   4.796   3.490  0.8755 -0.0679 -0.9652
 1747SOL    HW3 6755   0.910   4.663   3.427  0.6507  0.0626 -1.1092
 1747SOL    MW4 6756   0.963   4.711   3.476  0.3028 -0.2867 -0.3753
 1748SOL     OW 6757   2.618   4.614   0.307 -0.5529  0.0893  0.4212
 1748SOL    HW2 6758   2.530   4.586   0.282 -0.6673  0.0874  0.8295
 1748SOL    HW3 6759   2.638   4.686   0.247 -1.6875  1.5440  1.7196
 1748SOL    MW4 6760   2.609   4.620   0.296 -0.7177  0.2810  0.6464
 1749SOL     OW 6761   4.877   0.110   4.704 -0.3332 -0.2702  0.6207
 1749SOL    HW2 6762   4.793   0.108   4.658 -1.0797 -0.8727  1.9382
 1749SOL    HW3 6763   4.867   0.047   4.776  1.6421 -1.1859  0.1770
 1749SOL    MW4 6764   4.865   0.102   4.708 -0.1711 -0.4705  0.7360
 1750SOL     OW 6765   1.195   0.582   1.743 -0.3179 -0.0799  0.3158
 1750SOL    HW2 6766   1.211   0.546   1.655  3.6998 -0.0913  0.8338
 1750SOL    HW3 6767   1.181   0.675   1.728  0.1539 -0.1083 -0.3921
 1750SOL    MW4 6768   1.195   0.589   1.729  0.2745 -0.0851  0.2908
 1751SOL     OW 6769   0.614   2.585   2.399  0.0033 -0.5947 -0.4526
 1751SOL    HW2 6770   0.615   2.561   2.306  0.0587 -2.7617  0.0692
 1751SOL    HW3 6771   0.524   2.614   2.415  0.4009  1.4657 -1.5137
 1751SOL    MW4 6772   0.603   2.586   2.389  0.0631 -0.6088 -0.5237
 1752SOL     OW 6773   2.028   4.210   5.309  0.0734  0.0365 -0.5378
 1752SOL    HW2 6774   1.937   4.183   5.315  0.1579 -0.3707 -1.0452
 1752SOL    HW3 6775   2.060   4.170   5.228  0.1536  1.7495 -1.3999
 1752SOL    MW4 6776   2.020   4.201   5.299  0.0951  0.2088 -0.7185
 1753SOL     OW 6777   4.042   3.287   5.832  0.2460 -0.6536  0.7433
 1753SOL    HW2 6778   4.073   3.340   5.759  0.0630 -1.3063  0.1767
 1753SOL    HW3 6779   4.105   3.303   5.903  1.8445 -1.8918 -0.3395
 1753SOL    MW4 6780   4.054   3.296   5.832  0.4328 -0.9031  0.5257
 1754SOL     OW 6781   0.027   3.229   0.377 -0.4494 -0.4493 -0.3132
 1754SOL    HW2 6782   0.080   3.169   0.323 -1.0379 -0.4858 -0.8593
 1754SOL    HW3 6783  -0.018   3.172   0.439  0.1325 -0.4195  0.1495
 1754SOL    MW4 6784   0.028   3.214   0.378 -0.4502 -0.4502 -0.3242
 1755SOL     OW 6785   5.669   1.773   3.441  0.2284 -0.3891  0.1522
 1755SOL    HW2 6786   5.629   1.710   3.500  1.6320 -2.1131 -0.6472
 1755SOL    HW3 6787   5.640   1.747   3.354  0.7966  0.0920 -0.1940
 1755SOL    MW4 6788   5.660   1.761   3.437  0.4885 -0.5531  0.0011
 1756SOL     OW 6789   2.636   1.847   5.387 -0.0879 -0.1038  0.4940
 1756SOL    HW2 6790   2.721   1.890   5.375 -0.7602  1.5618  1.3104
 1756SOL    HW3 6791   2.588   1.906   5.445 -1.6957 -1.1738  0.3099
 1756SOL    MW4 6792   2.641   1.860   5.393 -0.3888 -0.0252  0.5774
 1757SOL     OW 6793   5.159   2.172   5.669  0.3026 -0.2413 -0.1884
 1757SOL    HW2 6794   5.090   2.221   5.624 -0.4824  0.0612  1.2797
 1757SOL    HW3 6795   5.227   2.237   5.687  0.8301 -0.4586 -1.2917
 1757SOL    MW4 6796   5.159   2.187   5.665  0.2686 -0.2300 -0.1403
 1758SOL     OW 6797   5.934   2.390   6.226  0.5791  0.1340 -0.6571
 1758SOL    HW2 6798   5.946   2.481   6.254  1.0103 -0.6034  1.8915
 1758SOL    HW3 6799   5.870   2.394   6.156  0.0715  2.3577 -0.1410
 1758SOL    MW4 6800   5.927   2.403   6.221  0.5690  0.3301 -0.2528
 1759SOL     OW 6801   2.219   3.898   0.638  0.7685 -0.0314  0.2996
 1759SOL    HW2 6802   2.179   3.968   0.690  0.6041 -0.1595  0.3443
 1759SOL    HW3 6803   2.298   3.938   0.602  1.0879 -0.0677  0.9636
 1759SOL    MW4 6804   2.224   3.913   0.640  0.7890 -0.0531  0.3931
 1760SOL     OW 6805   1.978   5.999   0.506  0.1951  0.5637  0.0937
 1760SOL    HW2 6806   1.955   5.965   0.592 -0.4914 -0.2627 -0.3930
 1760SOL    HW3 6807   1.896   6.036   0.473 -0.0924 -0.9418 -1.0047
 1760SOL    MW4 6808   1.964   5.999   0.513  0.0666  0.2561 -0.1154
 1761SOL     OW 6809   5.363   5.746   3.352 -0.6901 -0.1663  0.2175
 1761SOL    HW2 6810   5.386   5.767   3.443 -0.6101  2.9268 -0.4193
 1761SOL    HW3 6811   5.448   5.743   3.307 -0.8505  0.2529 -0.1114
 1761SOL    MW4 6812   5.377   5.748   3.358 -0.7007  0.2971  0.0900
 1762SOL     OW 6813   5.354   3.992   3.165 -0.2199  0.0103  0.6627
 1762SOL    HW2 6814   5.384   3.962   3.079 -1.7287 -0.3675  0.2224
 1762SOL    HW3 6815   5.261   3.967   3.167 -0.4926  1.0226  1.9485
 1762SOL    MW4 6816   5.345   3.985   3.154 -0.4549  0.0940  0.7743
 1763SOL     OW 6817   5.917   3.034   2.174  0.5691 -0.0690 -0.0662
 1763SOL    HW2 6818   5.984   2.980   2.131  0.9756 -1.3650  2.0546
 1763SOL    HW3 6819   5.853   3.051   2.105  1.4067 -1.6247 -1.3158
 1763SOL    MW4 6820   5.917   3.029   2.159  0.7332 -0.4452  0.0487
 1764SOL     OW 6821   1.600   1.372   0.480 -0.1892 -0.1475  0.3971
 1764SOL    HW2 6822   1.627   1.280   0.491 -0.1578  0.0478  2.1284
 1764SOL    HW3 6823   1.624   1.392   0.389 -1.1299 -2.1526 -0.3703
 1764SOL    MW4 6824   1.607   1.362   0.469 -0.3092 -0.3863  0.5243
 1765SOL     OW 6825   1.949   5.776   4.840 -0.4817  0.1698 -0.5208
 1765SOL    HW2 6826   2.029   5.809   4.880 -0.4671 -1.8343  1.2479
 1765SOL    HW3 6827   1.879   5.809   4.897 -0.9338  1.4380 -1.7406
 1765SOL    MW4 6828   1.950   5.785   4.853 -0.5394  0.0727 -0.4484
 1766SOL     OW 6829   5.212   0.925   1.171 -0.3570  0.3016  0.8783
 1766SOL    HW2 6830   5.233   0.895   1.259  0.5433  1.6444  1.1574
 1766SOL    HW3 6831   5.295   0.920   1.123 -0.9581 -0.9719 -0.0881
 1766SOL    MW4 6832   5.226   0.920   1.176 -0.3175  0.3108  0.7876
 1767SOL     OW 6833   2.275   0.772   1.910 -0.1376  0.0793  1.0994
 1767SOL    HW2 6834   2.210   0.757   1.979  1.5633 -0.4139  2.6650
 1767SOL    HW3 6835   2.329   0.693   1.910 -0.1633 -0.0135 -0.9604
 1767SOL    MW4 6836   2.273   0.760   1.919  0.0834  0.0020  1.0342
 1768SOL     OW 6837   5.900   3.132   4.045 -0.8276 -0.6933  1.0328
 1768SOL    HW2 6838   5.875   3.091   3.962 -1.4502  1.3505  0.1505
 1768SOL    HW3 6839   5.822   3.126   4.100 -0.6008 -1.5295  1.2773
 1768SOL    MW4 6840   5.886   3.126   4.041 -0.8798 -0.5340  0.9486
 1769SOL     OW 6841   2.383   5.725   0.431 -0.5414  0.1368  0.2345
 1769SOL    HW2 6842   2.432   5.800   0.465  1.1591 -1.2110  0.9438
 1769SOL    HW3 6843   2.332   5.694   0.506 -0.0064 -0.3494  0.4040
 1769SOL    MW4 6844   2.383   5.731   0.446 -0.2465 -0.1052  0.3504
 1770SOL     OW 6845   5.446   4.522   6.462 -0.4669  0.2493 -0.7255
 1770SOL    HW2 6846   5.435   4.554   6.372  1.9886  1.8039 -0.5502
 1770SOL    HW3 6847   5.509   4.451   6.454 -0.1539  0.4717 -0.2191
 1770SOL    MW4 6848   5.453   4.517   6.449 -0.1016  0.4838 -0.6356
 1771SOL     OW 6849   1.863   3.283   0.389 -0.0147  0.3738 -0.1122
 1771SOL    HW2 6850   1.844   3.225   0.315 -1.5744  0.2878  0.3124
 1771SOL    HW3 6851   1.956   3.304   0.380  0.5530 -1.9855 -0.4095
 1771SOL    MW4 6852   1.872   3.279   0.378 -0.1455  0.0512 -0.0954
 1772SOL     OW 6853   4.190   1.401   6.310 -0.2378  0.2131 -0.2988
 1772SOL    HW2 6854   4.210   1.391   6.217  0.3064  0.7285 -0.2408
 1772SOL    HW3 6855   4.126   1.472   6.313  0.8585  1.2343 -0.1739
 1772SOL    MW4 6856   4.184   1.409   6.298 -0.0214  0.4159 -0.2747
 1773SOL     OW 6857   0.747   5.257   1.530  0.0311 -0.0198 -0.3816
 1773SOL    HW2 6858   0.824   5.214   1.492  0.7361  0.0079  0.9460
 1773SOL    HW3 6859   0.677   5.241   1.467  1.7260  2.4640 -3.1507
 1773SOL    MW4 6860   0.748   5.249   1.517  0.3477  0.3116 -0.5718
 1774SOL     OW 6861   0.996   0.711   3.922  0.6377  0.2216  0.2789
 1774SOL    HW2 6862   1.088   0.688   3.931  0.1282 -2.6302 -0.7763
 1774SOL    HW3 6863   0.959   0.697   4.009  0.7749 -1.0384  0.1563
 1774SOL    MW4 6864   1.003   0.706   3.935  0.5885 -0.3209  0.1235
 1775SOL     OW 6865   4.433   2.814   1.778 -0.3948  0.1651 -0.2713
 1775SOL    HW2 6866   4.411   2.872   1.706  0.6413  1.4739  0.4305
 1775SOL    HW3 6867   4.389   2.852   1.855  0.6352  0.2911  0.2746
 1775SOL    MW4 6868   4.425   2.826   1.779 -0.1222  0.3544 -0.1067
 1776SOL     OW 6869   6.169   0.689   5.616 -0.0992  0.0244 -0.3536
 1776SOL    HW2 6870   6.186   0.711   5.708  0.8825 -2.0001 -0.0054
 1776SOL    HW3 6871   6.090   0.635   5.619 -0.4221  0.4567 -0.8059
 1776SOL    MW4 6872   6.161   0.685   5.629 -0.0123 -0.1857 -0.3673
 1777SOL     OW 6873   4.408   5.354   6.338 -0.1826  0.7008 -0.3659
 1777SOL    HW2 6874   4.410   5.279   6.279 -1.3686  0.0811  0.3571
 1777SOL    HW3 6875   4.315   5.376   6.347 -0.0083  0.9367  1.0645
 1777SOL    MW4 6876   4.396   5.347   6.331 -0.3161  0.6501 -0.0818
 1778SOL     OW 6877   2.877   5.848   4.088  0.3602 -0.1032  0.2629
 1778SOL    HW2 6878   2.907   5.805   4.168  1.6729 -0.5335 -0.4294
 1778SOL    HW3 6879   2.851   5.777   4.030 -1.6683  0.2491  0.6852
 1778SOL    MW4 6880   2.878   5.833   4.091  0.2658 -0.1135  0.2273
 1779SOL     OW 6881   1.599   2.800   1.956  0.0680  0.6020  0.2350
 1779SOL    HW2 6882   1.549   2.760   1.885 -0.4177  1.1709  0.2465
 1779SOL    HW3 6883   1.543   2.871   1.988  0.7622  1.0785  0.4320
 1779SOL    MW4 6884   1.585   2.804   1.951  0.0955  0.7399  0.2625
 1780SOL     OW 6885   2.680   2.352   0.268  0.0039  0.0129 -0.4729
 1780SOL    HW2 6886   2.722   2.330   0.185  1.3104  0.9218 -0.0925
 1780SOL    HW3 6887   2.699   2.445   0.280 -2.1108  0.4584 -0.2371
 1780SOL    MW4 6888   2.688   2.361   0.259 -0.1027  0.1916 -0.3916
 1781SOL     OW 6889   1.060   1.843   4.133  0.7851 -0.1084  0.3175
 1781SOL    HW2 6890   1.077   1.881   4.219 -2.7787  1.9629  0.3134
 1781SOL    HW3 6891   1.016   1.760   4.151 -1.6561  1.1738  0.6746
 1781SOL    MW4 6892   1.056   1.837   4.147 -0.0072  0.3340  0.3641
 1782SOL     OW 6893   1.459   0.115   2.072 -0.3358 -0.2552 -0.0109
 1782SOL    HW2 6894   1.456   0.210   2.061  1.5867  0.0005  1.0622
 1782SOL    HW3 6895   1.383   0.094   2.127  0.7671  1.1419  2.2192
 1782SOL    MW4 6896   1.449   0.125   2.078  0.0634 -0.0371  0.4249
 1783SOL     OW 6897   4.037   3.763   6.180  0.2734  0.5446  0.3402
 1783SOL    HW2 6898   4.003   3.674   6.190 -0.2498  0.4972 -1.4035
 1783SOL    HW3 6899   3.967   3.810   6.133  0.3225  2.0344  1.6857
 1783SOL    MW4 6900   4.023   3.757   6.175  0.2108  0.7349  0.2877
 1784SOL     OW 6901   5.641   5.137   6.421 -0.5972 -0.3485 -0.0239
 1784SOL    HW2 6902   5.593   5.066   6.379 -0.8667  0.6757 -1.5334
 1784SOL    HW3 6903   5.733   5.119   6.399 -0.2659 -1.8865  2.2264
 1784SOL    MW4 6904   5.647   5.125   6.413 -0.5890 -0.4163  0.0738
 1785SOL     OW 6905   1.745   5.849   1.524 -0.6979 -0.5615 -0.6220
 1785SOL    HW2 6906   1.685   5.783   1.490  0.1677 -0.9038 -1.5579
 1785SOL    HW3 6907   1.756   5.826   1.617 -1.8062 -0.6288 -0.5016
 1785SOL    MW4 6908   1.739   5.837   1.532 -0.7299 -0.6155 -0.7296
 1786SOL     OW 6909   1.038   2.746   2.750  0.2035 -0.1093  0.4565
 1786SOL    HW2 6910   1.077   2.789   2.675  0.2111  0.3558  0.7214
 1786SOL    HW3 6911   0.966   2.694   2.714  1.2435 -1.2322 -0.0753
 1786SOL    MW4 6912   1.033   2.745   2.736  0.3418 -0.1961  0.4213
 1787SOL     OW 6913   2.646   2.103   2.925  0.1927  0.8400 -0.1961
 1787SOL    HW2 6914   2.565   2.154   2.920  0.1396  0.6927 -1.0714
 1787SOL    HW3 6915   2.653   2.062   2.839  0.5781 -0.1003  0.2735
 1787SOL    MW4 6916   2.636   2.104   2.913  0.2365  0.6965 -0.2497
 1788SOL     OW 6917   5.110   2.967   0.558 -0.3804 -0.2025 -0.1732
 1788SOL    HW2 6918   5.127   2.890   0.613 -0.0037 -1.0092 -1.3929
 1788SOL    HW3 6919   5.019   2.989   0.576 -0.2286 -0.3523  0.8792
 1788SOL    MW4 6920   5.100   2.959   0.568 -0.3107 -0.3287 -0.1953
 1789SOL     OW 6921   5.664   3.741   3.784 -0.3212 -0.5516 -0.4090
 1789SOL    HW2 6922   5.701   3.664   3.742  0.4079 -0.5207  0.1567
 1789SOL    HW3 6923   5.636   3.710   3.870 -1.5028 -0.5420 -0.7637
 1789SOL    MW4 6924   5.665   3.726   3.790 -0.3809 -0.5463 -0.3811
 1790SOL     OW 6925   0.994   1.800   5.609 -0.7477  0.3428  0.0663
 1790SOL    HW2 6926   1.039   1.716   5.615  1.1833  1.3586  0.6726
 1790SOL    HW3 6927   0.976   1.811   5.516 -0.6330 -0.5571 -0.0647
 1790SOL    MW4 6928   0.997   1.791   5.598 -0.4778  0.3581  0.1290
 1791SOL     OW 6929   5.009   1.287   3.834 -0.1077 -0.7225  0.2943
 1791SOL    HW2 6930   5.036   1.378   3.820 -2.1141  0.2974  2.3397
 1791SOL    HW3 6931   5.063   1.257   3.908  0.1590 -1.0132 -0.0157
 1791SOL    MW4 6932   5.020   1.295   3.842 -0.3372 -0.6263  0.5233
 1792SOL     OW 6933   0.577   6.042   3.058 -0.5676 -0.4116 -0.2553
 1792SOL    HW2 6934   0.515   5.997   3.115  0.7575 -0.2301  1.4105
 1792SOL    HW3 6935   0.577   6.133   3.088  0.8898 -0.5267  0.1767
 1792SOL    MW4 6936   0.569   6.048   3.070 -0.2004 -0.4028  0.0215
 1793SOL     OW 6937   1.056   3.527   2.889  0.1510  0.8697  0.1289
 1793SOL    HW2 6938   1.035   3.545   2.981  1.5261 -0.1994  0.6738
 1793SOL    HW3 6939   1.151   3.521   2.887  0.1666  1.2446 -1.4589
 1793SOL    MW4 6940   1.066   3.529   2.901  0.3345  0.7781 -0.0087
 1794SOL     OW 6941   4.193   3.170   2.796  0.6148 -0.2547  0.1448
 1794SOL    HW2 6942   4.183   3.234   2.866 -1.6000  0.1014 -0.4363
 1794SOL    HW3 6943   4.137   3.097   2.821  2.3162 -1.5722  0.2916
 1794SOL    MW4 6944   4.185   3.169   2.808  0.5471 -0.3815  0.0875
 1795SOL     OW 6945   3.095   3.891   1.798 -0.2594  0.4870 -0.2302
 1795SOL    HW2 6946   3.181   3.858   1.775 -0.1552  2.4291 -3.0717
 1795SOL    HW3 6947   3.077   3.852   1.884  2.5599 -1.5043 -0.4009
 1795SOL    MW4 6948   3.104   3.881   1.807  0.1263  0.4805 -0.6277
 1796SOL     OW 6949   5.235   4.264   2.987 -0.0478 -0.0135  0.6672
 1796SOL    HW2 6950   5.211   4.355   2.969  1.3834  0.1538 -0.4888
 1796SOL    HW3 6951   5.269   4.265   3.076  1.3460  0.8762  0.1389
 1796SOL    MW4 6952   5.236   4.276   2.996  0.3249  0.1260  0.4450
 1797SOL     OW 6953   0.194   0.495   6.408  0.1364 -0.1078  0.0325
 1797SOL    HW2 6954   0.186   0.468   6.500  0.2487 -0.5549 -0.0871
 1797SOL    HW3 6955   0.226   0.585   6.412 -1.1276  0.3463  0.4552
 1797SOL    MW4 6956   0.197   0.503   6.421 -0.0155 -0.1069  0.0725
 1798SOL     OW 6957   2.384   2.766   3.510 -0.3940  0.6406  0.0895
 1798SOL    HW2 6958   2.322   2.803   3.448  2.3449  1.9455 -2.0845
 1798SOL    HW3 6959   2.414   2.841   3.562 -0.3341  0.0941  0.8686
 1798SOL    MW4 6960   2.380   2.781   3.509 -0.0247  0.7406 -0.0945
 1799SOL     OW 6961   1.831   4.878   4.142 -0.4013 -0.1839  0.3049
 1799SOL    HW2 6962   1.834   4.970   4.114  0.8056 -0.1109  0.6458
 1799SOL    HW3 6963   1.760   4.841   4.089  0.2880  0.5112 -1.1956
 1799SOL    MW4 6964   1.822   4.886   4.131 -0.1511 -0.0826  0.1519
 1800SOL     OW 6965   1.292   6.228   4.380 -0.1901  0.0874 -0.0385
 1800SOL    HW2 6966   1.240   6.227   4.461  0.0840  2.1497  0.2196
 1800SOL    HW3 6967   1.230   6.202   4.312 -1.1660  1.0134  0.4683
 1800SOL    MW4 6968   1.277   6.224   4.382 -0.2827  0.4817  0.0624
 1801SOL     OW 6969   1.005   2.980   5.890  0.1733  0.0535 -0.1346
 1801SOL    HW2 6970   0.978   3.054   5.944 -3.0464 -1.1169  0.0549
 1801SOL    HW3 6971   1.027   3.018   5.805  1.2639  1.4578  0.7389
 1801SOL    MW4 6972   1.005   2.995   5.886 -0.1076  0.0844  0.0057
 1802SOL     OW 6973   0.896   4.400   0.764 -0.1076 -0.5477  0.3523
 1802SOL    HW2 6974   0.960   4.467   0.739 -0.5051  0.5074  1.9932
 1802SOL    HW3 6975   0.944   4.317   0.758  0.9773  0.0818  0.1571
 1802SOL    MW4 6976   0.911   4.398   0.760 -0.0169 -0.3254  0.5430
 1803SOL     OW 6977   1.918   2.192   3.810 -0.0103 -0.3769 -0.3020
 1803SOL    HW2 6978   2.008   2.224   3.802 -0.8138  1.6002 -2.6854
 1803SOL    HW3 6979   1.909   2.126   3.742 -0.0028 -1.6265  0.8693
 1803SOL    MW4 6980   1.929   2.188   3.800 -0.1153 -0.2809 -0.4619
 1804SOL     OW 6981   4.347   1.827   4.042  0.0673 -0.5128 -0.5741
 1804SOL    HW2 6982   4.286   1.848   3.972  0.1674  0.6970 -0.3139
 1804SOL    HW3 6983   4.291   1.816   4.119  0.0703 -0.6250 -0.5878
 1804SOL    MW4 6984   4.331   1.828   4.043  0.0809 -0.3680 -0.5416
 1805SOL     OW 6985   4.675   1.743   2.202  0.0116  0.2509 -0.3357
 1805SOL    HW2 6986   4.765   1.720   2.179  0.1328  1.6734 -1.4197
 1805SOL    HW3 6987   4.625   1.663   2.184  0.9414 -0.3147 -0.4650
 1805SOL    MW4 6988   4.680   1.729   2.197  0.1503  0.3640 -0.4958
 1806SOL     OW 6989   0.698   6.076   5.610  0.1915  0.4647  0.3679
 1806SOL    HW2 6990   0.685   6.074   5.705  1.3498  0.4590  0.5382
 1806SOL    HW3 6991   0.735   5.991   5.589 -0.0124  0.4858 -0.0943
 1806SOL    MW4 6992   0.701   6.065   5.620  0.3174  0.4668  0.3294
 1807SOL     OW 6993   1.039   0.581   6.117 -0.3315  0.4463  0.3800
 1807SOL    HW2 6994   1.061   0.639   6.190 -0.7953 -0.3329  1.1516
 1807SOL    HW3 6995   0.955   0.542   6.142  0.1677 -0.8761  0.0732
 1807SOL    MW4 6996   1.031   0.584   6.130 -0.3268  0.1691  0.4413
 1808SOL     OW 6997   2.695   3.624   0.644  0.2447  0.1271 -0.2390
 1808SOL    HW2 6998   2.751   3.648   0.718 -0.7848 -1.8760  1.2845
 1808SOL    HW3 6999   2.675   3.707   0.600  0.0629  1.5157  2.3226
 1808SOL    MW4 7000   2.700   3.638   0.648  0.0849  0.0460  0.3000
 1809SOL     OW 7001   4.612   6.098   3.860 -0.2700 -0.4878  0.0309
 1809SOL    HW2 7002   4.597   6.175   3.805 -1.1736  0.1465  1.1122
 1809SOL    HW3 7003   4.632   6.028   3.799 -0.6300  0.3384 -1.0659
 1809SOL    MW4 7004   4.612   6.099   3.845 -0.4367 -0.2951  0.0288
 1810SOL     OW 7005   3.012   5.254   3.482  0.0467 -0.2311  0.3732
 1810SOL    HW2 7006   2.967   5.178   3.444  0.5612 -0.9405  1.1490
 1810SOL    HW3 7007   3.098   5.254   3.441 -0.6196  1.1679 -1.1600
 1810SOL    MW4 7008   3.017   5.244   3.472  0.0267 -0.1401  0.2733
 1811SOL     OW 7009   5.369   0.655   6.062  0.0599 -0.0453  0.0858
 1811SOL    HW2 7010   5.462   0.663   6.043  0.2089  1.4907  1.2521
 1811SOL    HW3 7011   5.328   0.722   6.007 -0.0288  1.1160  1.5113
 1811SOL    MW4 7012   5.376   0.665   6.052  0.0679  0.3106  0.4278
 1812SOL     OW 7013   3.855   6.126   0.098  0.3323  0.2392 -0.2437
 1812SOL    HW2 7014   3.761   6.116   0.081  0.4058 -0.8968 -0.0603
 1812SOL    HW3 7015   3.877   6.212   0.062 -0.9534  0.9053  0.4869
 1812SOL    MW4 7016   3.846   6.136   0.091  0.1723  0.1772 -0.1231
 1813SOL     OW 7017   6.185   5.881   2.170  0.2233  0.3156 -0.0320
 1813SOL    HW2 7018   6.182   5.874   2.075  1.1529  0.2967 -0.0671
 1813SOL    HW3 7019   6.108   5.832   2.200  0.1760 -0.0681 -0.7507
 1813SOL    MW4 7020   6.174   5.874   2.161  0.3397  0.2625 -0.1314
 1814SOL     OW 7021   4.598   3.597   4.982 -0.1089  0.6428  0.3537
 1814SOL    HW2 7022   4.518   3.561   4.944 -1.1347  0.5625  2.4200
 1814SOL    HW3 7023   4.599   3.689   4.954  0.7211 -0.0582 -2.1446
 1814SOL    MW4 7024   4.587   3.604   4.973 -0.1347  0.5398  0.2967
 1815SOL     OW 7025   6.154   3.795   0.697 -0.2658 -0.1876 -0.2133
 1815SOL    HW2 7026   6.086   3.862   0.704  0.0279  0.1981 -0.9238
 1815SOL    HW3 7027   6.236   3.844   0.698  0.0773 -0.7150  1.6740
 1815SOL    MW4 7028   6.156   3.810   0.698 -0.1818 -0.2063 -0.0580
 1816SOL     OW 7029   5.709   3.938   5.851  0.2373 -0.3756  0.3053
 1816SOL    HW2 7030   5.634   3.997   5.853  0.9907  0.6078  0.6171
 1816SOL    HW3 7031   5.736   3.936   5.759  0.1504 -0.3057  0.2783
 1816SOL    MW4 7032   5.703   3.945   5.839  0.3252 -0.2366  0.3428
 1817SOL     OW 7033   3.405   1.386   3.789  0.1073  0.7332 -0.3790
 1817SOL    HW2 7034   3.340   1.318   3.772 -1.1354  0.3682  4.3549
 1817SOL    HW3 7035   3.480   1.338   3.825  0.1800  1.6221  0.7099
 1817SOL    MW4 7036   3.406   1.370   3.792 -0.0471  0.8023  0.3893
 1818SOL     OW 7037   1.115   2.388   1.223  0.3279 -0.4110 -0.3679
 1818SOL    HW2 7038   1.061   2.328   1.172 -0.5279 -0.3919  0.4812
 1818SOL    HW3 7039   1.204   2.358   1.210  0.0684 -0.8107 -1.3259
 1818SOL    MW4 7040   1.119   2.376   1.214  0.1807 -0.4612 -0.3823
 1819SOL     OW 7041   0.921   0.176   0.712  0.2779  0.2593 -0.4351
 1819SOL    HW2 7042   0.831   0.197   0.738  0.5269  0.2897  0.4129
 1819SOL    HW3 7043   0.970   0.255   0.733  0.9132 -0.5454  1.1882
 1819SOL    MW4 7044   0.915   0.189   0.718  0.3946  0.1572 -0.1090
 1820SOL     OW 7045   4.484   3.104   4.715 -0.2846 -0.6362 -0.2672
 1820SOL    HW2 7046   4.555   3.167   4.712 -0.4740 -0.3327  1.1465
 1820SOL    HW3 7047   4.412   3.150   4.757 -0.4358 -1.7681  0.7741
 1820SOL    MW4 7048   4.484   3.118   4.720 -0.3295 -0.7455  0.0567
 1821SOL     OW 7049   3.713   3.020   4.232 -0.2642  0.5257  0.5564
 1821SOL    HW2 7050   3.808   3.008   4.226 -0.0938  1.1379  1.7855
 1821SOL    HW3 7051   3.698   3.106   4.191  0.0887  1.7091  2.7760
 1821SOL    MW4 7052   3.724   3.030   4.226 -0.1952  0.7626  1.0114
 1822SOL     OW 7053   3.615   3.783   3.183  0.1082  0.7961 -0.4885
 1822SOL    HW2 7054   3.642   3.840   3.111 -1.3579  1.7530 -0.3195
 1822SOL    HW3 7055   3.520   3.794   3.188  0.1210  0.3629  1.2790
 1822SOL    MW4 7056   3.606   3.792   3.174 -0.0835  0.8652 -0.2330
 1823SOL     OW 7057   3.067   3.780   3.576 -0.0681 -0.1958 -0.2704
 1823SOL    HW2 7058   3.070   3.824   3.491 -1.2384 -0.5160 -0.4996
 1823SOL    HW3 7059   3.149   3.732   3.581  0.9527  1.4659 -0.3054
 1823SOL    MW4 7060   3.078   3.780   3.565 -0.0878 -0.0188 -0.3053
 1824SOL     OW 7061   2.830   3.218   5.714 -0.6699 -0.2043 -0.2460
 1824SOL    HW2 7062   2.842   3.259   5.628  1.4343 -0.0883  0.0658
 1824SOL    HW3 7063   2.908   3.165   5.728 -1.6577 -1.4208  0.9724
 1824SOL    MW4 7064   2.842   3.217   5.705 -0.5226 -0.3495 -0.0441
 1825SOL     OW 7065   5.056   2.057   5.337  0.4573  0.6307  0.0969
 1825SOL    HW2 7066   5.015   1.979   5.298  1.4061  0.0309  0.2601
 1825SOL    HW3 7067   5.088   2.027   5.422 -1.2615  1.8275  1.2394
 1825SOL    MW4 7068   5.055   2.043   5.343  0.3557  0.7095  0.2691
 1826SOL     OW 7069   1.152   4.944   2.741  0.4888 -0.2631 -0.2241
 1826SOL    HW2 7070   1.165   4.980   2.828 -1.1662  0.2945 -0.1647
 1826SOL    HW3 7071   1.228   4.972   2.691  1.5427 -0.7318  1.0651
 1826SOL    MW4 7072   1.164   4.952   2.746  0.4095 -0.2514 -0.0462
 1827SOL     OW 7073   4.291   3.557   0.103  0.0403 -0.2632  0.2038
 1827SOL    HW2 7074   4.239   3.476   0.104  1.5554 -1.2793 -0.0837
 1827SOL    HW3 7075   4.290   3.587   0.194 -1.6378  0.1599  0.0800
 1827SOL    MW4 7076   4.284   3.550   0.115  0.0188 -0.3414  0.1496
 1828SOL     OW 7077   4.444   2.103   2.354 -0.3065 -0.1832  0.5279
 1828SOL    HW2 7078   4.480   2.172   2.410  1.2085  0.1201 -0.7195
 1828SOL    HW3 7079   4.417   2.149   2.274 -0.4713 -0.8678  0.1803
 1828SOL    MW4 7080   4.445   2.118   2.351 -0.1284 -0.2335  0.3175
 1829SOL     OW 7081   4.118   0.415   2.552  0.5310  0.6723 -0.3604
 1829SOL    HW2 7082   4.079   0.449   2.471 -0.2654 -0.1842 -0.3519
 1829SOL    HW3 7083   4.121   0.320   2.540  2.6105  0.6810 -0.3260
 1829SOL    MW4 7084   4.113   0.407   2.540  0.7003  0.5604 -0.3547
 1830SOL     OW 7085   0.110   6.286   6.344  0.3405  0.2449  0.1749
 1830SOL    HW2 7086   0.205   6.276   6.333  0.1313 -0.3044 -1.2744
 1830SOL    HW3 7087   0.080   6.197   6.364  0.0349  0.2630 -0.2005
 1830SOL    MW4 7088   0.119   6.273   6.345  0.2726  0.1748 -0.0658
 1831SOL     OW 7089   0.026   3.397   4.337  0.0951  0.0302  0.9226
 1831SOL    HW2 7090   0.122   3.394   4.339  0.1825 -2.4951 -1.4470
 1831SOL    HW3 7091   0.004   3.485   4.367  3.2416  1.2480  0.0297
 1831SOL    MW4 7092   0.036   3.408   4.341  0.5217 -0.1423  0.4922
 1832SOL     OW 7093   6.143   2.130   5.351  0.7301 -0.1876 -0.5713
 1832SOL    HW2 7094   6.145   2.168   5.439  0.3283 -0.2731 -0.5249
 1832SOL    HW3 7095   6.052   2.102   5.338  0.9644 -0.9097 -0.7024
 1832SOL    MW4 7096   6.131   2.132   5.361  0.7080 -0.2942 -0.5825
 1833SOL     OW 7097   1.963   5.120   6.443  0.1415 -0.5560  0.1656
 1833SOL    HW2 7098   1.949   5.215   6.449  2.4557 -0.1905  0.9709
 1833SOL    HW3 7099   1.984   5.094   6.533  1.8984 -1.3544 -0.4327
 1833SOL    MW4 7100   1.964   5.129   6.456  0.6787 -0.6131  0.1929
 1834SOL     OW 7101   4.260   3.212   4.886 -0.7255  0.4058  0.3304
 1834SOL    HW2 7102   4.171   3.184   4.864 -1.7337  2.3799  1.6368
 1834SOL    HW3 7103   4.285   3.154   4.959 -0.8187 -0.3151 -0.1964
 1834SOL    MW4 7104   4.251   3.200   4.893 -0.8708  0.5712  0.4333
 1835SOL     OW 7105   6.005   0.774   0.273  0.1066 -0.7603  0.4258
 1835SOL    HW2 7106   6.087   0.782   0.322  0.4376  0.0061 -0.2148
 1835SOL    HW3 7107   5.938   0.812   0.330  0.0070 -2.2610  1.3517
 1835SOL    MW4 7108   6.007   0.780   0.287  0.1372 -0.8572  0.4635
 1836SOL     OW 7109   2.826   1.561   5.655  0.1990 -0.3599 -0.2214
 1836SOL    HW2 7110   2.750   1.523   5.611  0.7666  0.0708 -1.6323
 1836SOL    HW3 7111   2.880   1.596   5.584  2.5699 -2.1404  0.5650
 1836SOL    MW4 7112   2.823   1.560   5.640  0.5867 -0.5380 -0.3038
 1837SOL     OW 7113   5.694   2.496   1.616 -0.1202  0.3001 -0.2669
 1837SOL    HW2 7114   5.616   2.548   1.635  0.2611  0.6219  0.5121
 1837SOL    HW3 7115   5.761   2.533   1.674  0.9584  0.8606 -1.8003
 1837SOL    MW4 7116   5.693   2.508   1.627  0.0724  0.4165 -0.3664
 1838SOL     OW 7117   5.725   2.190   4.812  0.0930 -0.0364 -0.0841
 1838SOL    HW2 7118   5.742   2.192   4.906  0.1095  0.0858 -0.0888
 1838SOL    HW3 7119   5.810   2.172   4.771  0.0571 -0.2440 -0.0681
 1838SOL    MW4 7120   5.738   2.188   4.819  0.0904 -0.0477 -0.0826
 1839SOL     OW 7121   0.459   5.816   3.237  0.1661  0.1081  0.3444
 1839SOL    HW2 7122   0.493   5.739   3.282  0.2609  0.8929  1.6625
 1839SOL    HW3 7123   0.406   5.781   3.166  1.9985 -1.1577 -0.4735
 1839SOL    MW4 7124   0.456   5.801   3.234  0.4204  0.0446  0.4104
 1840SOL     OW 7125   1.951   2.530   1.116  0.2327 -0.1600  0.2203
 1840SOL    HW2 7126   1.961   2.551   1.023  1.2736 -0.7624  0.1824
 1840SOL    HW3 7127   2.012   2.590   1.160 -1.3438  1.1685  0.6674
 1840SOL    MW4 7128   1.961   2.541   1.109  0.1620 -0.0642  0.2743
 1841SOL     OW 7129   3.795   4.741   1.305 -0.3055 -0.2021 -0.2730
 1841SOL    HW2 7130   3.718   4.735   1.362  0.1799 -2.1103  0.2490
 1841SOL    HW3 7131   3.863   4.776   1.362 -0.6082  0.9572 -0.5882
 1841SOL    MW4 7132   3.794   4.745   1.320 -0.2814 -0.3009 -0.2457
 1842SOL     OW 7133   2.716   5.448   2.667  0.1183 -0.4013 -0.3017
 1842SOL    HW2 7134   2.749   5.360   2.649  1.1887 -0.4490  1.6519
 1842SOL    HW3 7135   2.657   5.438   2.742  2.7049  0.8786  2.0836
 1842SOL    MW4 7136   2.713   5.435   2.674  0.6008 -0.2387  0.2708
 1843SOL     OW 7137   6.072   0.262   3.665 -0.2657  0.3376  0.1959
 1843SOL    HW2 7138   6.040   0.286   3.578 -0.8477 -2.5875 -0.5052
 1843SOL    HW3 7139   6.164   0.240   3.652  0.3897  2.4019  0.9183
 1843SOL    MW4 7140   6.080   0.263   3.652 -0.2560  0.2240  0.1987
 1844SOL     OW 7141   4.509   1.333   5.905  0.1059  0.0473  0.7277
 1844SOL    HW2 7142   4.559   1.255   5.885 -1.1376 -0.9061  1.2038
 1844SOL    HW3 7143   4.562   1.379   5.971  2.4478  1.3672 -1.8896
 1844SOL    MW4 7144   4.523   1.329   5.911  0.2508  0.0956  0.4452
 1845SOL     OW 7145   0.475   1.682   1.455 -0.3862 -0.1614 -0.1276
 1845SOL    HW2 7146   0.421   1.693   1.377  1.2386  0.4301 -1.2245
 1845SOL    HW3 7147   0.507   1.592   1.450 -0.0099 -0.0196 -0.3466
 1845SOL    MW4 7148   0.472   1.672   1.444 -0.1222 -0.0647 -0.3012
 1846SOL     OW 7149   1.378   1.489   4.529 -0.2568 -0.1795 -0.6530
 1846SOL    HW2 7150   1.291   1.465   4.561 -1.0158  3.0101  0.0145
 1846SOL    HW3 7151   1.438   1.452   4.594 -1.3546  0.2497  0.6645
 1846SOL    MW4 7152   1.374   1.481   4.542 -0.5018  0.2980 -0.3911
 1847SOL     OW 7153   4.455   4.176   5.413  0.6655 -0.3483 -0.0766
 1847SOL    HW2 7154   4.504   4.256   5.427  1.3666 -0.9250  0.8664
 1847SOL    HW3 7155   4.420   4.184   5.324  0.8470  0.9220 -0.0432
 1847SOL    MW4 7156   4.456   4.187   5.403  0.7819 -0.2568  0.0522
 1848SOL     OW 7157   1.977   6.080   5.174  0.4656 -0.1284  0.1501
 1848SOL    HW2 7158   2.066   6.091   5.206  1.1863  0.5373 -1.8952
 1848SOL    HW3 7159   1.921   6.098   5.249  2.0346 -1.1745  1.6372
 1848SOL    MW4 7160   1.981   6.084   5.188  0.7677 -0.1786  0.0764
 1849SOL     OW 7161   1.823   1.618   0.459 -0.2033  0.0189  0.1779
 1849SOL    HW2 7162   1.805   1.579   0.545 -1.8000  0.3164 -0.0006
 1849SOL    HW3 7163   1.741   1.611   0.411  0.1451  1.4948 -0.6954
 1849SOL    MW4 7164   1.810   1.612   0.464 -0.3680  0.2528  0.0391
 1850SOL     OW 7165   4.076   4.070   3.490  0.0265 -0.0598 -0.1084
 1850SOL    HW2 7166   4.171   4.086   3.487 -0.0723  0.5238 -0.3247
 1850SOL    HW3 7167   4.052   4.049   3.400 -0.0584 -0.1426 -0.0662
 1850SOL    MW4 7168   4.085   4.069   3.478  0.0023  0.0063 -0.1314
 1851SOL     OW 7169   6.059   3.482   5.801  0.6149 -0.1712  0.5555
 1851SOL    HW2 7170   6.109   3.441   5.730  1.1542 -0.3638  1.0419
 1851SOL    HW3 7171   6.126   3.513   5.862  0.2015  1.0257  0.4298
 1851SOL    MW4 7172   6.075   3.481   5.799  0.6315 -0.0387  0.6031
 1852SOL     OW 7173   5.472   3.644   5.037  0.2122 -0.1512  0.4433
 1852SOL    HW2 7174   5.388   3.625   5.078  1.1068 -0.5292  2.1977
 1852SOL    HW3 7175   5.525   3.684   5.106  1.5840 -0.2131 -0.5174
 1852SOL    MW4 7176   5.468   3.647   5.052  0.5112 -0.2093  0.5480
 1853SOL     OW 7177   3.712   1.695   3.782  0.1248  0.0693  0.3670
 1853SOL    HW2 7178   3.716   1.786   3.752 -0.0811 -0.5968 -1.9000
 1853SOL    HW3 7179   3.619   1.677   3.793 -0.0109 -0.4192 -1.2514
 1853SOL    MW4 7180   3.701   1.704   3.779  0.0797 -0.0830 -0.1456
 1854SOL     OW 7181   3.958   2.340   4.541 -0.1306  0.1204  0.3439
 1854SOL    HW2 7182   3.974   2.401   4.470  0.5156 -1.5623 -1.0146
 1854SOL    HW3 7183   3.865   2.353   4.563 -0.7766 -0.3208 -1.8472
 1854SOL    MW4 7184   3.948   2.349   4.535 -0.1306 -0.1598 -0.1244
 1855SOL     OW 7185   4.829   0.404   2.180 -0.3674 -0.0563 -0.1249
 1855SOL    HW2 7186   4.876   0.413   2.097  0.2397 -1.8026 -0.0135
 1855SOL    HW3 7187   4.889   0.438   2.245 -0.2540 -0.0035 -0.2562
 1855SOL    MW4 7188   4.843   0.409   2.177 -0.2724 -0.2797 -0.1275
 1856SOL     OW 7189   2.833   5.107   1.662 -0.3259 -0.5619  0.2453
 1856SOL    HW2 7190   2.840   5.036   1.598 -0.3689  0.0002 -0.3858
 1856SOL    HW3 7191   2.754   5.087   1.712 -0.1140 -1.1768  0.3481
 1856SOL    MW4 7192   2.824   5.095   1.660 -0.3036 -0.5689  0.1756
 1857SOL     OW 7193   4.830   2.489   0.769 -0.5025 -0.2753  0.6350
 1857SOL    HW2 7194   4.886   2.417   0.797  2.0571  0.8390 -1.1742
 1857SOL    HW3 7195   4.816   2.473   0.676 -3.3480 -0.5162  1.0228
 1857SOL    MW4 7196   4.836   2.477   0.760 -0.5402 -0.1601  0.4475
 1858SOL     OW 7197   3.932   0.809   1.579  0.2355  0.3491 -0.6491
 1858SOL    HW2 7198   3.962   0.723   1.610 -1.3239  0.4436  1.3260
 1858SOL    HW3 7199   3.941   0.866   1.655 -0.0495  1.6205 -1.5353
 1858SOL    MW4 7200   3.937   0.805   1.593 -0.0078  0.5293 -0.5055
 1859SOL     OW 7201   4.072   3.266   2.306 -0.5389  0.2892 -0.2997
 1859SOL    HW2 7202   4.085   3.265   2.401 -3.1251  0.4159  0.1287
 1859SOL    HW3 7203   3.978   3.274   2.295 -0.2760  0.6241 -2.9139
 1859SOL    MW4 7204   4.062   3.267   2.317 -0.8454  0.3501 -0.5881
 1860SOL     OW 7205   6.210   4.663   2.096  0.0593  0.2782  0.1753
 1860SOL    HW2 7206   6.246   4.717   2.025 -1.8928  1.0725 -0.2735
 1860SOL    HW3 7207   6.284   4.652   2.157  1.5902  0.1649 -1.5960
 1860SOL    MW4 7208   6.225   4.669   2.095  0.0037  0.3680 -0.1176
 1861SOL     OW 7209   2.328   4.852   5.450  0.1805 -0.0195  0.0835
 1861SOL    HW2 7210   2.402   4.804   5.414  1.1662  1.1619  0.4503
 1861SOL    HW3 7211   2.368   4.925   5.498 -1.2194  0.6759  0.2471
 1861SOL    MW4 7212   2.343   4.855   5.452  0.1259  0.2281  0.1535
 1862SOL     OW 7213   1.487   2.760   3.687 -0.4911 -0.0057 -0.4367
 1862SOL    HW2 7214   1.471   2.758   3.781 -2.5700 -0.3176 -0.7631
 1862SOL    HW3 7215   1.491   2.853   3.665 -0.5484  0.0687 -0.1353
 1862SOL    MW4 7216   1.486   2.772   3.697 -0.7729 -0.0370 -0.4400
 1863SOL     OW 7217   2.435   6.314   4.966  0.2059  0.2456 -0.5476
 1863SOL    HW2 7218   2.504   6.315   4.900  0.5517  0.1809 -0.1951
 1863SOL    HW3 7219   2.354   6.318   4.916  0.4808  1.1515 -0.9503
 1863SOL    MW4 7220   2.434   6.315   4.951  0.2878  0.3566 -0.5542
 1864SOL     OW 7221   4.084   1.165   2.140 -0.1333 -0.7580  0.5858
 1864SOL    HW2 7222   4.071   1.077   2.177  0.3980 -0.1131  2.4305
 1864SOL    HW3 7223   4.164   1.159   2.089 -0.6588 -1.5846 -0.1694
 1864SOL    MW4 7224   4.093   1.153   2.138 -0.1326 -0.7820  0.7296
 1865SOL     OW 7225   5.903   4.701   3.154  0.1183 -0.2697  0.0298
 1865SOL    HW2 7226   5.910   4.605   3.159 -1.8019 -0.6329 -2.3576
 1865SOL    HW3 7227   5.811   4.717   3.137  0.6327  1.9265 -0.9977
 1865SOL    MW4 7228   5.892   4.690   3.152 -0.0672 -0.0279 -0.4207
 1866SOL     OW 7229   2.369   1.191   1.594  0.2170 -0.2554  0.4588
 1866SOL    HW2 7230   2.329   1.277   1.581 -0.5000 -0.6239  0.1768
 1866SOL    HW3 7231   2.457   1.210   1.625  0.1679  0.5886  0.1044
 1866SOL    MW4 7232   2.375   1.205   1.596  0.1159 -0.1927  0.3748
 1867SOL     OW 7233   3.791   4.780   4.606  0.7548 -0.3694  0.3519
 1867SOL    HW2 7234   3.829   4.864   4.580 -0.6967  0.1329 -0.2313
 1867SOL    HW3 7235   3.804   4.723   4.530  0.8467 -0.3681  0.3668
 1867SOL    MW4 7236   3.798   4.783   4.592  0.5754 -0.3029  0.2769
 1868SOL     OW 7237   4.423   4.465   4.994 -0.1198 -0.2894  0.2601
 1868SOL    HW2 7238   4.503   4.416   4.976 -0.4115 -1.1603  1.2595
 1868SOL    HW3 7239   4.445   4.523   5.067 -0.0337  0.4470 -0.3338
 1868SOL    MW4 7240   4.436   4.466   5.001 -0.1469 -0.3071  0.3136
 1869SOL     OW 7241   1.656   1.604   2.200  0.2385  0.3497  0.1452
 1869SOL    HW2 7242   1.568   1.567   2.198 -0.0092  0.9328  0.2143
 1869SOL    HW3 7243   1.697   1.572   2.119  0.4081 -0.9786  0.7271
 1869SOL    MW4 7244   1.650   1.595   2.189  0.2282  0.2514  0.2311
 1870SOL     OW 7245   0.806   2.998   1.061  0.4534  0.3911  0.1082
 1870SOL    HW2 7246   0.834   3.076   1.013 -0.3724  0.7194  0.1375
 1870SOL    HW3 7247   0.858   2.999   1.141 -0.4472  1.6566  0.7219
 1870SOL    MW4 7248   0.816   3.009   1.065  0.2256  0.6014  0.1930
 1871SOL     OW 7249   0.716   1.907   2.389 -0.3710 -0.4094 -0.1426
 1871SOL    HW2 7250   0.653   1.932   2.320 -0.7571  0.7974  0.6043
 1871SOL    HW3 7251   0.742   1.818   2.367 -2.4709 -1.0180 -0.4100
 1871SOL    MW4 7252   0.711   1.899   2.377 -0.6990 -0.3305 -0.0793
 1872SOL     OW 7253   1.531   1.699   5.021 -0.3811  0.1353  0.2899
 1872SOL    HW2 7254   1.514   1.787   5.054  0.9613  1.3092 -1.9443
 1872SOL    HW3 7255   1.454   1.678   4.967  0.3225  0.9652 -1.0841
 1872SOL    MW4 7256   1.519   1.708   5.018 -0.1111  0.3997 -0.1862
 1873SOL     OW 7257   4.807   2.655   4.610  0.2320  0.2434  0.4968
 1873SOL    HW2 7258   4.900   2.642   4.590  0.4415  1.1443  0.8341
 1873SOL    HW3 7259   4.807   2.722   4.678 -0.7120  0.9853 -0.2155
 1873SOL    MW4 7260   4.819   2.662   4.617  0.1351  0.4601  0.4473
 1874SOL     OW 7261   0.040   5.750   3.805 -0.7335 -0.0593 -0.3063
 1874SOL    HW2 7262   0.122   5.768   3.850 -0.6904  0.2801 -0.5178
 1874SOL    HW3 7263  -0.022   5.814   3.840 -0.4885  0.7505 -1.3151
 1874SOL    MW4 7264   0.043   5.761   3.815 -0.6955  0.0923 -0.4673
 1875SOL     OW 7265   6.202   1.632   0.997 -0.6843 -0.2233 -0.6758
 1875SOL    HW2 7266   6.241   1.660   0.915 -0.9908  0.3621 -0.6339
 1875SOL    HW3 7267   6.276   1.616   1.055 -0.4892  0.9293 -0.5780
 1875SOL    MW4 7268   6.217   1.634   0.994 -0.6990  0.0060 -0.6574
 1876SOL     OW 7269   0.005   0.821   6.237 -0.3570  0.1532  0.7374
 1876SOL    HW2 7270  -0.027   0.865   6.316 -1.0466 -0.2069  0.6686
 1876SOL    HW3 7271  -0.004   0.728   6.257  0.1161  0.0504  0.4882
 1876SOL    MW4 7272  -0.000   0.814   6.250 -0.3856  0.0922  0.6954
 1877SOL     OW 7273   3.567   4.371   4.663 -0.4346  0.3562  0.0594
 1877SOL    HW2 7274   3.605   4.406   4.744  0.4153 -2.0523  0.7626
 1877SOL    HW3 7275   3.483   4.333   4.691 -0.2604 -0.2523 -0.2429
 1877SOL    MW4 7276   3.561   4.371   4.678 -0.2995 -0.0419  0.1123
 1878SOL     OW 7277   4.927   5.240   5.003  0.0616 -0.1702 -0.2216
 1878SOL    HW2 7278   4.847   5.217   5.051 -2.2669  3.0562 -2.0610
 1878SOL    HW3 7279   4.922   5.188   4.923  0.3611 -0.6980  0.0998
 1878SOL    MW4 7280   4.915   5.230   4.999 -0.2061  0.1858 -0.4219
 1879SOL     OW 7281   4.851   0.530   2.469 -0.1214 -0.2950 -0.2683
 1879SOL    HW2 7282   4.772   0.584   2.475  0.4577  0.5220  0.1720
 1879SOL    HW3 7283   4.923   0.592   2.460  0.4038 -1.0672 -1.6385
 1879SOL    MW4 7284   4.850   0.545   2.469  0.0243 -0.2891 -0.3910
 1880SOL     OW 7285   2.030   1.494   2.017 -0.0734  0.8545 -0.2008
 1880SOL    HW2 7286   2.069   1.470   2.101  0.6499 -1.1820 -1.0379
 1880SOL    HW3 7287   2.080   1.570   1.988  1.4573  0.0120  0.0672
 1880SOL    MW4 7288   2.042   1.501   2.024  0.2240  0.4746 -0.2759
 1881SOL     OW 7289   2.237   6.308   6.359  0.0651 -1.0465  0.4815
 1881SOL    HW2 7290   2.321   6.311   6.313  0.2428 -0.8135  0.8181
 1881SOL    HW3 7291   2.255   6.261   6.440  0.1829  0.1709  1.1802
 1881SOL    MW4 7292   2.250   6.302   6.364  0.1041 -0.8551  0.6181
 1882SOL     OW 7293   0.118   0.522   3.260  0.6327  0.3275 -0.3725
 1882SOL    HW2 7294   0.028   0.517   3.291  0.2594 -2.4835 -1.6397
 1882SOL    HW3 7295   0.119   0.595   3.199 -0.7732  0.3955 -0.3351
 1882SOL    MW4 7296   0.106   0.531   3.256  0.3979 -0.0344 -0.5347
 1883SOL     OW 7297   5.537   3.896   0.273  0.2933 -0.1153 -0.5028
 1883SOL    HW2 7298   5.606   3.831   0.285 -0.4313 -1.2140 -2.0086
 1883SOL    HW3 7299   5.537   3.915   0.179 -0.7814  0.6098 -0.3806
 1883SOL    MW4 7300   5.546   3.890   0.262  0.0559 -0.1646 -0.6854
 1884SOL     OW 7301   0.417   2.146   0.891  0.3032  0.1689 -0.1242
 1884SOL    HW2 7302   0.421   2.149   0.795  0.1211  0.1622 -0.1335
 1884SOL    HW3 7303   0.460   2.227   0.919  0.5731  0.0543 -0.2038
 1884SOL    MW4 7304   0.423   2.157   0.882  0.3148  0.1529 -0.1359
 1885SOL     OW 7305   6.275   4.402   5.650 -0.2810  0.9931 -0.0783
 1885SOL    HW2 7306   6.241   4.491   5.639  0.5556  1.1739 -1.3609
 1885SOL    HW3 7307   6.321   4.384   5.568 -0.1729 -0.5097  0.2971
 1885SOL    MW4 7308   6.276   4.412   5.638 -0.1564  0.8187 -0.1980
 1886SOL     OW 7309   3.940   6.466   0.070 -0.4998  0.5590 -0.3942
 1886SOL    HW2 7310   4.009   6.454   0.005 -0.3773  1.0254 -0.3563
 1886SOL    HW3 7311   3.985   6.505   0.146 -0.7348  0.5121 -0.2311
 1886SOL    MW4 7312   3.955   6.470   0.072 -0.5146  0.6144 -0.3677
 1887SOL     OW 7313   6.173   2.440   3.538 -0.1515  0.0051  0.2099
 1887SOL    HW2 7314   6.202   2.496   3.610  1.4260 -0.7606  0.2225
 1887SOL    HW3 7315   6.111   2.493   3.489 -1.7678  0.3514  2.4531
 1887SOL    MW4 7316   6.169   2.454   3.541 -0.1566 -0.0502  0.5075
 1888SOL     OW 7317   2.429   3.836   5.348 -0.7474  0.2113 -0.1193
 1888SOL    HW2 7318   2.444   3.931   5.357  0.0163  0.1145 -0.2739
 1888SOL    HW3 7319   2.351   3.819   5.400 -1.4922  1.0910 -0.9130
 1888SOL    MW4 7320   2.421   3.847   5.356 -0.7449  0.3146 -0.2444
 1889SOL     OW 7321   5.097   0.720   6.361  0.6430 -0.1983 -0.2265
 1889SOL    HW2 7322   5.066   0.671   6.437 -0.4281  1.6022  0.5805
 1889SOL    HW3 7323   5.192   0.704   6.359  0.1960 -3.3026 -0.8375
 1889SOL    MW4 7324   5.106   0.712   6.371  0.4427 -0.3703 -0.2006
 1890SOL     OW 7325   4.491   2.332   4.255 -0.5727 -0.0931  0.8116
 1890SOL    HW2 7326   4.445   2.311   4.174 -1.7114  0.0733  1.3842
 1890SOL    HW3 7327   4.545   2.256   4.273 -2.4103 -1.3473  1.3339
 1890SOL    MW4 7328   4.492   2.319   4.247 -0.9654 -0.2366  0.9560
 1891SOL     OW 7329   4.049   5.909   2.512  0.2327  0.2487  0.0952
 1891SOL    HW2 7330   4.074   5.816   2.505 -1.1233 -0.0285 -1.9696
 1891SOL    HW3 7331   3.969   5.907   2.564 -0.4880  0.0830 -0.9863
 1891SOL    MW4 7332   4.042   5.896   2.518 -0.0413  0.1903 -0.3199
 1892SOL     OW 7333   6.064   5.317   6.308  0.1044  0.0175  0.3646
 1892SOL    HW2 7334   6.159   5.307   6.314  0.0234 -0.3907  1.0732
 1892SOL    HW3 7335   6.050   5.359   6.223  0.8870 -0.3331  0.0486
 1892SOL    MW4 7336   6.075   5.321   6.298  0.1970 -0.0826  0.4164
 1893SOL     OW 7337   0.170   5.339   5.330 -0.2828 -0.1267  0.5842
 1893SOL    HW2 7338   0.147   5.317   5.239  0.4041  2.6352 -0.3638
 1893SOL    HW3 7339   0.133   5.426   5.343  1.9638  0.6960  1.9995
 1893SOL    MW4 7340   0.162   5.347   5.319  0.1042  0.3462  0.6459
 1894SOL     OW 7341   1.836   5.576   1.641 -0.3228  0.4826 -0.4328
 1894SOL    HW2 7342   1.913   5.528   1.673  0.0688  0.9308 -0.6886
 1894SOL    HW3 7343   1.817   5.535   1.557 -0.9564 -0.2651  0.0632
 1894SOL    MW4 7344   1.844   5.564   1.634 -0.3547  0.4431 -0.4011
 1895SOL     OW 7345   2.503   2.970   4.251 -0.3675  0.0311 -0.0369
 1895SOL    HW2 7346   2.456   2.942   4.330 -1.7655 -0.7477 -1.1005
 1895SOL    HW3 7347   2.458   3.050   4.223  1.0374  1.1262  0.7203
 1895SOL    MW4 7348   2.491   2.977   4.258 -0.3666  0.0728 -0.0773
 1896SOL     OW 7349   2.184   5.927   3.770  0.2966  0.0951 -0.6620
 1896SOL    HW2 7350   2.229   5.846   3.792  0.1647  0.0273 -0.6430
 1896SOL    HW3 7351   2.216   5.991   3.834  0.0275 -0.0632 -0.3646
 1896SOL    MW4 7352   2.194   5.925   3.781  0.2437  0.0652 -0.6202
 1897SOL     OW 7353   0.117   4.454   0.252  0.2991  0.0987  0.1206
 1897SOL    HW2 7354   0.174   4.431   0.179  0.6994  1.1229  0.0928
 1897SOL    HW3 7355   0.174   4.450   0.329  0.1799  0.2381  0.2167
 1897SOL    MW4 7356   0.132   4.450   0.252  0.3362  0.2522  0.1296
 1898SOL     OW 7357   4.975   5.546   1.923  1.1220 -0.8009  0.3966
 1898SOL    HW2 7358   4.958   5.552   2.017  0.8681  0.6815  0.2835
 1898SOL    HW3 7359   5.054   5.598   1.909 -0.1991  1.0981 -0.4994
 1898SOL    MW4 7360   4.983   5.554   1.933  0.9142 -0.3548  0.2634
 1899SOL     OW 7361   1.794   0.998   3.757 -0.4651  0.0441  0.0127
 1899SOL    HW2 7362   1.790   0.904   3.738 -1.7885 -0.2212  1.4501
 1899SOL    HW3 7363   1.702   1.025   3.763 -0.0917  1.2528  0.4714
 1899SOL    MW4 7364   1.781   0.989   3.755 -0.5905  0.1686  0.2628
 1900SOL     OW 7365   4.373   4.868   6.027 -0.3807  0.0100 -0.1364
 1900SOL    HW2 7366   4.381   4.831   5.939  2.5594 -1.3603  0.6008
 1900SOL    HW3 7367   4.381   4.793   6.086 -1.1100  1.0418  1.3441
 1900SOL    MW4 7368   4.375   4.853   6.023 -0.0890 -0.0347  0.1562
 1901SOL     OW 7369   1.643   1.394   4.199  0.2717 -0.8088 -0.2705
 1901SOL    HW2 7370   1.594   1.358   4.273  0.4209  0.2919  0.3932
 1901SOL    HW3 7371   1.719   1.336   4.190  1.6534  0.4393  2.1526
 1901SOL    MW4 7372   1.647   1.381   4.207  0.4737 -0.4989  0.1368
 1902SOL     OW 7373   1.810   5.925   5.043 -0.0960  0.7784 -0.0937
 1902SOL    HW2 7374   1.882   5.981   5.072  1.0026 -1.3586  1.6472
 1902SOL    HW3 7375   1.763   5.903   5.124 -1.4620  0.4926 -0.9370
 1902SOL    MW4 7376   1.813   5.929   5.058 -0.1313  0.4587  0.0247
 1903SOL     OW 7377   3.634   2.065   6.337  0.0884  0.2903  0.0766
 1903SOL    HW2 7378   3.680   2.119   6.272  1.4496 -0.7812  0.1119
 1903SOL    HW3 7379   3.663   1.976   6.320 -1.1970 -0.2953  0.8031
 1903SOL    MW4 7380   3.644   2.061   6.326  0.0984  0.0717  0.1771
 1904SOL     OW 7381   1.605   1.264   1.727  0.0664 -0.8904  0.3047
 1904SOL    HW2 7382   1.542   1.321   1.770  0.4715 -0.9594  0.9986
 1904SOL    HW3 7383   1.649   1.219   1.799  1.5801 -0.1420 -0.1209
 1904SOL    MW4 7384   1.602   1.265   1.742  0.3195 -0.8008  0.3401
 1905SOL     OW 7385   6.370   3.969   2.987 -0.5320 -0.1040 -0.1144
 1905SOL    HW2 7386   6.346   4.045   2.934  1.6241 -0.4676 -1.7201
 1905SOL    HW3 7387   6.373   3.897   2.924  0.8125 -0.8159  0.7441
 1905SOL    MW4 7388   6.367   3.970   2.971 -0.0701 -0.2459 -0.2130
 1906SOL     OW 7389   4.335   5.097   2.478 -0.3524 -0.3443 -0.3164
 1906SOL    HW2 7390   4.319   5.093   2.384  1.6963  2.8132 -0.9421
 1906SOL    HW3 7391   4.288   5.176   2.507  2.1584  0.9654  0.4642
 1906SOL    MW4 7392   4.327   5.107   2.469  0.2492  0.2451 -0.2959
 1907SOL     OW 7393   4.472   6.300   0.596  0.2867 -0.1236 -0.5256
 1907SOL    HW2 7394   4.439   6.328   0.510  0.9769 -2.2433 -1.5656
 1907SOL    HW3 7395   4.563   6.331   0.597 -0.1004  1.0385  0.0313
 1907SOL    MW4 7396   4.480   6.308   0.585  0.3267 -0.2499 -0.5893
 1908SOL     OW 7397   0.718   3.955   2.308 -0.1466  0.0099 -0.1050
 1908SOL    HW2 7398   0.733   4.049   2.302 -1.2104  0.2090  0.2201
 1908SOL    HW3 7399   0.769   3.928   2.385 -0.8161  0.5412  0.5414
 1908SOL    MW4 7400   0.727   3.964   2.318 -0.3753  0.1063  0.0232
 1909SOL     OW 7401   6.285   5.540   3.770 -0.3866 -0.0064 -0.0270
 1909SOL    HW2 7402   6.354   5.603   3.787  1.0277 -1.6597  0.7004
 1909SOL    HW3 7403   6.306   5.503   3.684 -1.0313  0.2678 -0.3132
 1909SOL    MW4 7404   6.297   5.543   3.761 -0.2850 -0.1883  0.0312
 1910SOL     OW 7405   0.354   3.888   5.539 -0.4532 -0.2149 -0.3682
 1910SOL    HW2 7406   0.429   3.895   5.479  0.0714  2.8766  0.4743
 1910SOL    HW3 7407   0.282   3.928   5.491 -1.1078 -1.3971 -0.4093
 1910SOL    MW4 7408   0.354   3.894   5.525 -0.4704  0.0370 -0.2625
 1911SOL     OW 7409   2.202   1.940   3.875 -0.2853  0.0098 -0.0449
 1911SOL    HW2 7410   2.203   1.962   3.968 -0.5076  1.1469 -0.2980
 1911SOL    HW3 7411   2.133   1.874   3.867  0.8587 -1.3534  0.8371
 1911SOL    MW4 7412   2.193   1.934   3.886 -0.1637 -0.0200  0.0381
 1912SOL     OW 7413   4.594   2.778   2.173 -0.0186  0.1303 -0.5633
 1912SOL    HW2 7414   4.498   2.769   2.174 -0.0904  0.6410 -1.4223
 1912SOL    HW3 7415   4.614   2.804   2.083  1.0764 -1.3711 -0.7817
 1912SOL    MW4 7416   4.584   2.780   2.161  0.1164 -0.0004 -0.7055
 1913SOL     OW 7417   2.230   4.335   2.511  0.0679 -0.0727 -0.0487
 1913SOL    HW2 7418   2.187   4.267   2.458  0.5470  0.3143 -0.9493
 1913SOL    HW3 7419   2.195   4.321   2.599 -0.1236 -1.2584 -0.2869
 1913SOL    MW4 7420   2.220   4.324   2.516  0.1058 -0.1780 -0.1990
 1914SOL     OW 7421   2.904   3.676   6.175 -0.1113  0.8263  0.4443
 1914SOL    HW2 7422   2.995   3.690   6.198  0.5360 -1.9192 -0.1226
 1914SOL    HW3 7423   2.889   3.733   6.099  1.6875 -0.0412 -0.6004
 1914SOL    MW4 7424   2.914   3.686   6.168  0.2115  0.3496  0.2316
 1915SOL     OW 7425   4.545   5.723   0.191  0.0575 -0.1310  0.5061
 1915SOL    HW2 7426   4.540   5.636   0.154  0.7653 -0.3687  0.9378
 1915SOL    HW3 7427   4.628   5.724   0.239 -0.4018  0.4423  1.3344
 1915SOL    MW4 7428   4.555   5.712   0.193  0.0903 -0.0867  0.6724
 1916SOL     OW 7429   0.409   6.282   0.902 -0.4161 -0.3416  0.6950
 1916SOL    HW2 7430   0.413   6.260   0.995 -0.5304 -2.4233  0.2591
 1916SOL    HW3 7431   0.316   6.274   0.880 -0.3437 -0.1978  0.3384
 1916SOL    MW4 7432   0.398   6.278   0.911 -0.4216 -0.5973  0.5905
 1917SOL     OW 7433   5.875   3.748   1.362 -0.2908 -0.2997 -0.4961
 1917SOL    HW2 7434   5.895   3.754   1.269 -1.0915 -2.1450 -0.8429
 1917SOL    HW3 7435   5.785   3.714   1.365 -0.5964  0.5437  0.9588
 1917SOL    MW4 7436   5.865   3.744   1.350 -0.4368 -0.4319 -0.3499
 1918SOL     OW 7437   4.709   3.874   0.405 -0.3234  0.3343  0.6726
 1918SOL    HW2 7438   4.721   3.818   0.329 -0.4564  1.3545 -0.1313
 1918SOL    HW3 7439   4.698   3.814   0.478 -1.5379 -0.7215 -0.3144
 1918SOL    MW4 7440   4.709   3.859   0.404 -0.5012  0.3296  0.4363
 1919SOL     OW 7441   3.713   5.443   1.170 -0.0133 -0.0541  0.4955
 1919SOL    HW2 7442   3.716   5.438   1.266  1.4991 -1.2396  0.4374
 1919SOL    HW3 7443   3.801   5.417   1.143 -0.6472 -0.5140 -1.2434
 1919SOL    MW4 7444   3.725   5.439   1.179  0.1026 -0.2712  0.2584
 1920SOL     OW 7445   4.846   3.604   2.201 -0.3090  0.1064 -0.2295
 1920SOL    HW2 7446   4.927   3.636   2.160 -0.8350  0.2181 -1.2182
 1920SOL    HW3 7447   4.859   3.510   2.209 -0.1308  0.1056 -0.5103
 1920SOL    MW4 7448   4.859   3.596   2.197 -0.3549  0.1210 -0.3970
 1921SOL     OW 7449   1.873   1.797   6.229  0.4318  0.4866  0.2038
 1921SOL    HW2 7450   1.806   1.831   6.170  2.2058  2.5654 -0.7838
 1921SOL    HW3 7451   1.869   1.854   6.306 -1.1993 -1.5945  1.7779
 1921SOL    MW4 7452   1.864   1.809   6.231  0.4506  0.4863  0.2812
 1922SOL     OW 7453   3.054   1.340   4.020 -0.5794 -0.6791  0.0447
 1922SOL    HW2 7454   3.065   1.303   4.108 -2.4565 -0.9604  0.2046
 1922SOL    HW3 7455   3.112   1.416   4.019 -2.3281  0.8659  2.5064
 1922SOL    MW4 7456   3.063   1.345   4.032 -1.0578 -0.5124  0.3906
 1923SOL     OW 7457   2.616   2.333   5.409  0.4830 -0.0603 -0.0885
 1923SOL    HW2 7458   2.638   2.255   5.460 -1.5369  0.3545  1.5514
 1923SOL    HW3 7459   2.530   2.314   5.373 -0.6848  1.9057  1.5080
 1923SOL    MW4 7460   2.608   2.320   5.411  0.0625  0.2538  0.3385
 1924SOL     OW 7461   6.223   4.439   2.771  0.0654 -0.1350  0.6776
 1924SOL    HW2 7462   6.128   4.439   2.762 -0.1237 -1.3164  2.3344
 1924SOL    HW3 7463   6.240   4.493   2.848  0.8371  0.9535 -0.2239
 1924SOL    MW4 7464   6.213   4.446   2.780  0.1423 -0.1472  0.7773
 1925SOL     OW 7465   2.451   4.877   1.042 -0.0156 -0.1755 -0.1032
 1925SOL    HW2 7466   2.448   4.940   1.113 -0.4357  0.1146 -0.3777
 1925SOL    HW3 7467   2.430   4.927   0.964  0.3615 -0.5081 -0.4252
 1925SOL    MW4 7468   2.448   4.892   1.041 -0.0213 -0.1811 -0.1819
 1926SOL     OW 7469   3.998   3.638   5.871 -0.1531  0.1277  0.2149
 1926SOL    HW2 7470   4.020   3.582   5.797 -0.7453  0.4494 -0.2083
 1926SOL    HW3 7471   4.045   3.720   5.856  0.1279  0.0160  0.4600
 1926SOL    MW4 7472   4.007   3.641   5.860 -0.1941  0.1554  0.1914
 1927SOL     OW 7473   4.535   3.558   6.364  0.8492  0.0316 -0.2224
 1927SOL    HW2 7474   4.456   3.577   6.413  1.4824  3.5135 -0.3074
 1927SOL    HW3 7475   4.507   3.495   6.297 -0.6134 -2.7306  2.7239
 1927SOL    MW4 7476   4.521   3.552   6.361  0.7397  0.1265  0.1551
 1928SOL     OW 7477   5.133   3.817   5.518  0.3857 -0.3846  0.1803
 1928SOL    HW2 7478   5.138   3.750   5.586 -0.9291  0.3597  1.0542
 1928SOL    HW3 7479   5.211   3.870   5.531  1.1986 -1.4441 -0.2233
 1928SOL    MW4 7480   5.144   3.815   5.529  0.3195 -0.4262  0.2423
 1929SOL     OW 7481   6.175   4.653   5.658 -0.2471  0.1174 -0.4010
 1929SOL    HW2 7482   6.240   4.720   5.679 -0.0260  0.1552 -1.1884
 1929SOL    HW3 7483   6.116   4.694   5.595 -0.5793 -0.1742 -0.2862
 1929SOL    MW4 7484   6.176   4.667   5.652 -0.2618  0.0839 -0.4897
 1930SOL     OW 7485   5.967   3.165   5.204  0.2184  0.5548 -0.2677
 1930SOL    HW2 7486   5.970   3.144   5.111 -0.8085 -0.1295 -0.1579
 1930SOL    HW3 7487   5.885   3.214   5.215  0.3625  0.6827  0.2745
 1930SOL    MW4 7488   5.957   3.169   5.193  0.1019  0.4814 -0.1817
 1931SOL     OW 7489   3.698   5.550   4.705 -0.0373 -0.2619 -0.2549
 1931SOL    HW2 7490   3.627   5.582   4.761 -0.3928 -0.9071 -0.3284
 1931SOL    HW3 7491   3.684   5.592   4.621  1.2375  1.7354  0.4472
 1931SOL    MW4 7492   3.687   5.560   4.702  0.0840 -0.0835 -0.1720
 1932SOL     OW 7493   6.416   0.545   6.228  0.1316 -0.0197  0.1719
 1932SOL    HW2 7494   6.459   0.523   6.146 -0.7724  0.4564 -0.4501
 1932SOL    HW3 7495   6.475   0.514   6.296  1.0233 -0.1677 -0.6584
 1932SOL    MW4 7496   6.429   0.538   6.226  0.1300  0.0236 -0.0197
 1933SOL     OW 7497   2.668   2.863   0.848 -0.1518 -0.0527  0.1982
 1933SOL    HW2 7498   2.735   2.916   0.891  0.0836  1.3490 -1.7530
 1933SOL    HW3 7499   2.709   2.835   0.766 -1.7408  0.3432 -0.7754
 1933SOL    MW4 7500   2.683   2.866   0.843 -0.3304  0.1845 -0.1877
 1934SOL     OW 7501   1.068   0.364   5.665  0.0777  0.1974  0.1462
 1934SOL    HW2 7502   1.092   0.273   5.649  1.4304  0.3326  1.2004
 1934SOL    HW3 7503   1.124   0.391   5.738 -1.0326  1.5667  0.5300
 1934SOL    MW4 7504   1.079   0.356   5.673  0.1097  0.3959  0.3359
 1935SOL     OW 7505   0.188   5.226   3.804 -0.5226 -0.0859 -0.2515
 1935SOL    HW2 7506   0.118   5.248   3.865 -1.0145  1.2059 -1.2244
 1935SOL    HW3 7507   0.256   5.292   3.821 -1.4670  1.5549 -2.3259
 1935SOL    MW4 7508   0.188   5.238   3.814 -0.7121  0.3010 -0.6535
 1936SOL     OW 7509   4.439   1.866   2.122 -0.0473  0.2145 -0.1232
 1936SOL    HW2 7510   4.528   1.831   2.123 -0.1263  0.0140  0.1470
 1936SOL    HW3 7511   4.399   1.830   2.201 -0.7517 -0.7023 -0.8706
 1936SOL    MW4 7512   4.445   1.857   2.133 -0.1507  0.0671 -0.1862
 1937SOL     OW 7513   1.035   3.182   5.678 -0.1322 -0.3994 -0.0797
 1937SOL    HW2 7514   1.112   3.191   5.621  0.3699 -0.8586  0.5163
 1937SOL    HW3 7515   0.972   3.244   5.641  0.9764  0.9535  0.1892
 1937SOL    MW4 7516   1.037   3.192   5.665  0.0803 -0.2815  0.0344
 1938SOL     OW 7517   3.925   1.718   2.565 -0.0714 -0.9020 -0.2538
 1938SOL    HW2 7518   3.889   1.769   2.638  1.3951  1.0151 -0.7902
 1938SOL    HW3 7519   3.865   1.644   2.556 -2.3416  0.7084  0.5567
 1938SOL    MW4 7520   3.912   1.715   2.574 -0.1774 -0.4366 -0.2176
 1939SOL     OW 7521   5.197   4.414   0.086  0.4554 -0.2489  0.3381
 1939SOL    HW2 7522   5.281   4.459   0.073  0.2604  0.4616  1.3887
 1939SOL    HW3 7523   5.200   4.340   0.025  2.1999 -0.7201  0.9057
 1939SOL    MW4 7524   5.209   4.410   0.076  0.6599 -0.2173  0.5516
 1940SOL     OW 7525   5.048   0.828   5.708  0.3484 -0.0112  0.3758
 1940SOL    HW2 7526   4.959   0.852   5.683 -0.2034  0.4945  2.5759
 1940SOL    HW3 7527   5.103   0.862   5.637 -1.1463  0.2684 -0.6890
 1940SOL    MW4 7528   5.044   0.836   5.696  0.0784  0.0925  0.5256
 1941SOL     OW 7529   2.029   4.015   3.819 -0.1176  0.6124 -0.3878
 1941SOL    HW2 7530   2.113   4.040   3.781  1.3522  1.4596  2.9790
 1941SOL    HW3 7531   1.982   4.098   3.829  0.1424  0.6389  0.8077
 1941SOL    MW4 7532   2.034   4.029   3.815  0.1106  0.7277  0.2141
 1942SOL     OW 7533   2.303   1.448   1.482 -0.0010 -0.1266  0.2537
 1942SOL    HW2 7534   2.208   1.450   1.473  0.1484 -0.0110 -1.5538
 1942SOL    HW3 7535   2.318   1.464   1.575 -1.6514  3.8711  0.0543
 1942SOL    MW4 7536   2.292   1.451   1.493 -0.1990  0.4161 -0.0111
 1943SOL     OW 7537   3.746   5.939   2.340 -0.4524  0.3829  0.1371
 1943SOL    HW2 7538   3.753   5.850   2.374 -1.2008 -0.0234 -0.7308
 1943SOL    HW3 7539   3.834   5.976   2.350 -0.5776  0.2075  2.2324
 1943SOL    MW4 7540   3.758   5.932   2.346 -0.5676  0.3062  0.2990
 1944SOL     OW 7541   5.502   3.902   2.932 -0.1923 -0.2255  0.0923
 1944SOL    HW2 7542   5.485   3.831   2.870 -1.8108 -0.0707  0.3243
 1944SOL    HW3 7543   5.565   3.959   2.886 -2.2940  0.5650 -1.9994
 1944SOL    MW4 7544   5.508   3.900   2.917 -0.6831 -0.1008 -0.1531
 1945SOL     OW 7545   2.517   0.543   3.113 -0.7754  0.3371  0.4604
 1945SOL    HW2 7546   2.460   0.539   3.037  1.8009 -3.5847 -1.6128
 1945SOL    HW3 7547   2.570   0.621   3.098 -0.7419 -0.0019 -1.5157
 1945SOL    MW4 7548   2.517   0.553   3.101 -0.4311 -0.2250 -0.0739
 1946SOL     OW 7549   5.948   1.597   5.650 -0.1719  0.1602 -0.9052
 1946SOL    HW2 7550   5.892   1.641   5.714  0.9045  0.8588 -0.4097
 1946SOL    HW3 7551   6.033   1.639   5.660  0.4099 -0.7724 -1.7447
 1946SOL    MW4 7552   5.952   1.608   5.660  0.0469  0.1293 -0.9506
 1947SOL     OW 7553   0.937   0.216   1.388  0.0852  0.5463  0.0579
 1947SOL    HW2 7554   0.965   0.307   1.393 -0.1886  0.6391 -0.0757
 1947SOL    HW3 7555   1.017   0.167   1.369 -0.0458  0.9370 -1.5835
 1947SOL    MW4 7556   0.951   0.221   1.386  0.0318  0.6101 -0.1763
 1948SOL     OW 7557   5.718   0.444   6.348  0.0888  0.1093  0.1412
 1948SOL    HW2 7558   5.812   0.423   6.347  0.0655 -0.0807  1.1467
 1948SOL    HW3 7559   5.715   0.539   6.348  0.2567  0.1238 -0.9752
 1948SOL    MW4 7560   5.730   0.453   6.348  0.1079  0.0861  0.1265
 1949SOL     OW 7561   3.123   0.166   0.822 -0.3227  0.4360  0.3140
 1949SOL    HW2 7562   3.205   0.216   0.824  0.0048  0.0120 -1.0205
 1949SOL    HW3 7563   3.152   0.075   0.814 -0.8369  0.4248 -2.7671
 1949SOL    MW4 7564   3.138   0.160   0.821 -0.3473  0.3786 -0.2686
 1950SOL     OW 7565   1.761   4.490   0.973  0.1949  0.1850 -0.9259
 1950SOL    HW2 7566   1.834   4.544   1.004  0.2141 -0.1603 -0.3609
 1950SOL    HW3 7567   1.785   4.465   0.884  0.4339  0.6662 -0.9966
 1950SOL    MW4 7568   1.774   4.494   0.965  0.2290  0.2029 -0.8607
 1951SOL     OW 7569   4.921   4.927   3.841  0.0173 -0.3848 -0.1718
 1951SOL    HW2 7570   4.981   4.987   3.798  0.6611 -0.0970  1.0856
 1951SOL    HW3 7571   4.856   4.983   3.883 -1.2344 -0.6970 -1.6020
 1951SOL    MW4 7572   4.920   4.942   3.841 -0.0629 -0.3880 -0.1946
 1952SOL     OW 7573   3.473   5.218   5.623  0.4214  0.2038  0.2853
 1952SOL    HW2 7574   3.410   5.243   5.691  1.3164  0.0997  1.1843
 1952SOL    HW3 7575   3.546   5.278   5.635  0.2796  0.6863 -1.1028
 1952SOL    MW4 7576   3.474   5.229   5.634  0.5208  0.2538  0.2208
 1953SOL     OW 7577   6.094   1.627   2.292 -0.0054 -0.1978  0.6301
 1953SOL    HW2 7578   6.045   1.684   2.233  2.5694  0.8854 -0.6316
 1953SOL    HW3 7579   6.074   1.660   2.380 -0.4524  1.0737  0.0694
 1953SOL    MW4 7580   6.085   1.639   2.296  0.2753  0.1129  0.3896
 1954SOL     OW 7581   0.590   1.418   1.482 -0.7833 -0.1281 -0.8853
 1954SOL    HW2 7582   0.566   1.354   1.549 -0.9877 -1.1574 -1.9029
 1954SOL    HW3 7583   0.608   1.366   1.404  2.6400  0.7351 -0.8391
 1954SOL    MW4 7584   0.589   1.403   1.480 -0.3586 -0.1500 -1.0134
 1955SOL     OW 7585   3.071   0.918   2.445  0.0566  0.0347 -0.4577
 1955SOL    HW2 7586   3.073   0.893   2.353 -0.5889  0.3405 -0.5606
 1955SOL    HW3 7587   3.132   0.992   2.451  0.4699 -0.2933 -0.5360
 1955SOL    MW4 7588   3.080   0.925   2.434  0.0259  0.0317 -0.4816
 1956SOL     OW 7589   3.879   1.910   2.768  0.1358  0.0565  0.7805
 1956SOL    HW2 7590   3.824   1.983   2.798 -0.2331 -0.3343  1.0560
 1956SOL    HW3 7591   3.966   1.932   2.801  0.0596  0.4512  0.7307
 1956SOL    MW4 7592   3.883   1.923   2.777  0.0771  0.0570  0.8103
 1957SOL     OW 7593   5.805   0.863   3.925  0.0760 -0.5771  0.2772
 1957SOL    HW2 7594   5.745   0.905   3.987 -0.5264 -1.7857  0.5365
 1957SOL    HW3 7595   5.858   0.805   3.978  0.6033 -0.4776 -0.1350
 1957SOL    MW4 7596   5.804   0.861   3.940  0.0661 -0.7235  0.2570
 1958SOL     OW 7597   4.613   6.033   0.182 -0.4998  0.2835  0.1851
 1958SOL    HW2 7598   4.617   6.012   0.275  2.4318  0.1390  0.1261
 1958SOL    HW3 7599   4.612   5.948   0.138 -1.6103  0.3511  0.0672
 1958SOL    MW4 7600   4.614   6.019   0.188 -0.2595  0.2734  0.1617
 1959SOL     OW 7601   0.874   2.531   0.570  0.9214  0.1730 -1.1051
 1959SOL    HW2 7602   0.909   2.496   0.488 -1.6933 -2.9131 -1.1142
 1959SOL    HW3 7603   0.862   2.454   0.625 -1.2398  1.6117  0.5934
 1959SOL    MW4 7604   0.877   2.517   0.566  0.2913 -0.0443 -0.8822
 1960SOL     OW 7605   1.409   3.114   3.743 -0.4351 -0.1327 -0.0943
 1960SOL    HW2 7606   1.418   3.199   3.787  0.5027  0.6557 -1.7139
 1960SOL    HW3 7607   1.483   3.111   3.683 -2.3095 -0.5912 -2.5080
 1960SOL    MW4 7608   1.420   3.125   3.741 -0.5587 -0.0892 -0.6265
 1961SOL     OW 7609   4.294   0.477   5.109 -0.4872  1.0674 -0.1203
 1961SOL    HW2 7610   4.245   0.494   5.189 -0.3837 -0.8097  0.3900
 1961SOL    HW3 7611   4.378   0.519   5.123  0.1022 -0.5137  1.4562
 1961SOL    MW4 7612   4.298   0.484   5.121 -0.3958  0.6111  0.1551
 1962SOL     OW 7613   5.194   5.148   6.361  0.9205 -0.2425 -0.5111
 1962SOL    HW2 7614   5.208   5.125   6.453 -1.0041 -0.9912 -0.3510
 1962SOL    HW3 7615   5.276   5.190   6.334  0.6667  2.4094  2.2787
 1962SOL    MW4 7616   5.207   5.151   6.370  0.6331  0.0086 -0.1219
 1963SOL     OW 7617   4.067   0.700   0.932 -0.5759  0.0379  0.3249
 1963SOL    HW2 7618   4.073   0.679   1.026 -1.2585 -1.0104  0.1555
 1963SOL    HW3 7619   4.113   0.627   0.889 -0.7209  0.2437 -0.1855
 1963SOL    MW4 7620   4.074   0.687   0.939 -0.6851 -0.0732  0.2352
 1964SOL     OW 7621   3.081   1.768   4.988  0.5510 -0.1109 -0.9661
 1964SOL    HW2 7622   2.990   1.753   5.013 -0.1850  0.9174 -2.8220
 1964SOL    HW3 7623   3.119   1.816   5.061 -0.4907 -0.2494 -0.3172
 1964SOL    MW4 7624   3.074   1.772   5.001  0.3164  0.0065 -1.1253
 1965SOL     OW 7625   5.554   3.386   5.042  0.5079  0.2597 -0.1735
 1965SOL    HW2 7626   5.560   3.367   4.949  0.1296  0.6149 -0.2759
 1965SOL    HW3 7627   5.519   3.475   5.046  0.2167  0.1304  0.3092
 1965SOL    MW4 7628   5.550   3.396   5.031  0.4196  0.2895 -0.1233
 1966SOL     OW 7629   1.792   1.358   3.820 -0.1512  0.6688 -0.2299
 1966SOL    HW2 7630   1.713   1.310   3.794  0.6138  0.7325 -2.9414
 1966SOL    HW3 7631   1.839   1.297   3.878 -2.9803  1.3517  3.1678
 1966SOL    MW4 7632   1.787   1.343   3.825 -0.4235  0.7673 -0.1394
 1967SOL     OW 7633   3.167   5.829   4.094  0.0391 -0.3186  0.0099
 1967SOL    HW2 7634   3.073   5.834   4.078  0.1617  1.9530 -0.3600
 1967SOL    HW3 7635   3.207   5.850   4.010  0.8847 -0.7764  0.2810
 1967SOL    MW4 7636   3.160   5.832   4.081  0.1668 -0.0793 -0.0032
 1968SOL     OW 7637   2.505   5.118   2.244  0.5364  0.2805  0.6294
 1968SOL    HW2 7638   2.599   5.119   2.224  0.8455  2.6336  1.9120
 1968SOL    HW3 7639   2.487   5.205   2.279 -2.2103 -0.0204  0.1655
 1968SOL    MW4 7640   2.515   5.130   2.246  0.2148  0.5512  0.7374
 1969SOL     OW 7641   3.230   0.659   6.129 -0.4109  0.0501 -0.1834
 1969SOL    HW2 7642   3.306   0.602   6.141  0.1406 -0.0306 -3.3438
 1969SOL    HW3 7643   3.158   0.613   6.171  0.9646 -0.5139  1.7005
 1969SOL    MW4 7644   3.231   0.646   6.136 -0.1566 -0.0350 -0.3518
 1970SOL     OW 7645   5.401   4.125   0.401  0.0042  0.2240 -0.0323
 1970SOL    HW2 7646   5.361   4.062   0.460 -1.5981  0.4756 -0.8179
 1970SOL    HW3 7647   5.483   4.083   0.374  0.3065 -0.3065  1.5679
 1970SOL    MW4 7648   5.407   4.111   0.405 -0.1673  0.1872  0.0752
 1971SOL     OW 7649   5.758   1.892   5.423  0.0986 -0.5338 -0.0890
 1971SOL    HW2 7650   5.702   1.839   5.480  2.3361 -1.3623  1.4925
 1971SOL    HW3 7651   5.824   1.831   5.391  1.1916  0.7381 -0.3580
 1971SOL    MW4 7652   5.760   1.877   5.427  0.5380 -0.4753  0.0842
 1972SOL     OW 7653   0.040   1.946   2.731 -0.5871 -0.3987  1.0307
 1972SOL    HW2 7654   0.061   1.877   2.668  1.9812  0.2818  1.0106
 1972SOL    HW3 7655  -0.000   2.015   2.678  1.5741  0.1840  0.0538
 1972SOL    MW4 7656   0.037   1.946   2.715  0.0369 -0.2320  0.8991
 1973SOL     OW 7657   5.166   6.305   1.731  0.7930 -0.3325  0.0761
 1973SOL    HW2 7658   5.168   6.286   1.637 -0.4719 -0.9043  0.1527
 1973SOL    HW3 7659   5.209   6.230   1.772  0.3102 -0.6450  0.0222
 1973SOL    MW4 7660   5.172   6.292   1.724  0.5624 -0.4492  0.0791
 1974SOL     OW 7661   4.331   3.809   2.537  0.2356 -0.2052 -0.1417
 1974SOL    HW2 7662   4.252   3.791   2.486  0.8898  0.3346 -1.3809
 1974SOL    HW3 7663   4.299   3.852   2.616 -0.6827  0.5954 -0.9195
 1974SOL    MW4 7664   4.316   3.813   2.541  0.2008 -0.0284 -0.4078
 1975SOL     OW 7665   2.643   5.865   3.443 -0.7302  0.8117  0.0910
 1975SOL    HW2 7666   2.687   5.839   3.362 -0.8510  2.3384 -0.4960
 1975SOL    HW3 7667   2.622   5.782   3.486 -2.1647 -0.1438 -2.2272
 1975SOL    MW4 7668   2.646   5.850   3.438 -0.9354  0.8870 -0.2923
 1976SOL     OW 7669   2.733   1.134   6.249 -0.1747 -0.2868 -0.2496
 1976SOL    HW2 7670   2.780   1.216   6.260 -0.7596  0.2984 -1.7592
 1976SOL    HW3 7671   2.801   1.066   6.249  0.3968  0.2801  0.1229
 1976SOL    MW4 7672   2.748   1.136   6.250 -0.1765 -0.1348 -0.3996
 1977SOL     OW 7673   6.261   5.676   5.095  0.2605 -0.0632  0.5135
 1977SOL    HW2 7674   6.271   5.623   5.016 -2.2533 -1.0112  0.7593
 1977SOL    HW3 7675   6.267   5.614   5.167 -1.3554  0.1620  0.8701
 1977SOL    MW4 7676   6.263   5.661   5.094 -0.2844 -0.1586  0.5930
 1978SOL     OW 7677   4.093   4.450   0.367 -0.3531  0.2181  0.1309
 1978SOL    HW2 7678   4.075   4.380   0.305 -1.0482 -0.0903  0.6645
 1978SOL    HW3 7679   4.085   4.531   0.316  0.5158 -0.0774 -0.5008
 1978SOL    MW4 7680   4.090   4.452   0.352 -0.3302  0.1384  0.1179
 1979SOL     OW 7681   0.907   3.959   4.805 -1.0386 -0.6110  0.7441
 1979SOL    HW2 7682   0.913   3.886   4.743 -2.1449 -0.5547  0.5546
 1979SOL    HW3 7683   0.814   3.980   4.808 -0.9329 -0.2489  2.0152
 1979SOL    MW4 7684   0.896   3.952   4.797 -1.1706 -0.5558  0.8868
 1980SOL     OW 7685   2.022   2.972   5.498  0.2462  0.1166 -0.3812
 1980SOL    HW2 7686   2.091   2.961   5.563 -1.9933  1.4321  2.4890
 1980SOL    HW3 7687   2.039   2.905   5.433  0.8756 -3.7165  3.2947
 1980SOL    MW4 7688   2.033   2.962   5.498  0.0338 -0.2156  0.4825
 1981SOL     OW 7689   3.604   3.925   0.430 -0.0291 -0.2213 -0.1538
 1981SOL    HW2 7690   3.548   3.982   0.483 -0.5268  0.1024 -1.0011
 1981SOL    HW3 7691   3.678   3.905   0.487 -0.4731  0.2314  0.6080
 1981SOL    MW4 7692   3.606   3.930   0.445 -0.1534 -0.1188 -0.1651
 1982SOL     OW 7693   3.645   1.505   5.507  0.0285  0.3940  0.3903
 1982SOL    HW2 7694   3.718   1.560   5.536  1.6635 -1.4935  0.0613
 1982SOL    HW3 7695   3.685   1.442   5.447 -1.8142 -0.9827  0.5378
 1982SOL    MW4 7696   3.660   1.504   5.503  0.0011 -0.0366  0.3663
 1983SOL     OW 7697   3.826   1.077   3.558  0.0536 -0.2563  0.2585
 1983SOL    HW2 7698   3.830   1.105   3.466 -1.2979 -2.4624 -0.5682
 1983SOL    HW3 7699   3.916   1.086   3.590  0.8028 -0.4677 -1.6445
 1983SOL    MW4 7700   3.839   1.082   3.550 -0.0259 -0.5753 -0.1017
 1984SOL     OW 7701   2.069   5.605   3.983  0.0333  0.1908  0.3941
 1984SOL    HW2 7702   2.027   5.575   4.064  1.3348  1.5201  1.6149
 1984SOL    HW3 7703   2.142   5.544   3.970 -1.6262 -1.5820 -1.2480
 1984SOL    MW4 7704   2.073   5.593   3.992 -0.0139  0.1323  0.3385
 1985SOL     OW 7705   4.636   0.543   3.922 -0.1653 -0.0737  0.1189
 1985SOL    HW2 7706   4.586   0.582   3.850  0.7330  1.7196  0.4152
 1985SOL    HW3 7707   4.588   0.463   3.943 -1.5693  0.3767 -1.1574
 1985SOL    MW4 7708   4.623   0.537   3.915 -0.2320  0.2223 -0.0104
 1986SOL     OW 7709   1.615   3.703   4.447  0.3157 -0.2092 -0.7038
 1986SOL    HW2 7710   1.541   3.736   4.396 -2.9890 -0.2076  3.5725
 1986SOL    HW3 7711   1.656   3.782   4.484  2.4288 -0.2354 -2.7556
 1986SOL    MW4 7712   1.610   3.718   4.445  0.1584 -0.2124 -0.4103
 1987SOL     OW 7713   5.248   0.181   2.255  0.1660 -0.1119  0.2394
 1987SOL    HW2 7714   5.226   0.139   2.339  2.0532 -1.7215  0.0056
 1987SOL    HW3 7715   5.312   0.249   2.278 -1.6589  1.6321  0.4161
 1987SOL    MW4 7716   5.254   0.184   2.269  0.1742 -0.0941  0.2319
 1988SOL     OW 7717   2.646   1.545   1.530  0.3153 -0.0171  0.2184
 1988SOL    HW2 7718   2.723   1.489   1.519  0.2109 -0.4200  1.3401
 1988SOL    HW3 7719   2.586   1.517   1.461  1.1145  0.2207 -0.5932
 1988SOL    MW4 7720   2.648   1.534   1.520  0.4070 -0.0389  0.2593
 1989SOL     OW 7721   2.009   5.970   4.301  0.5636  0.1969  0.1703
 1989SOL    HW2 7722   1.960   5.999   4.225 -0.7891  2.0285  1.6509
 1989SOL    HW3 7723   1.955   5.901   4.340  0.3759  0.4844  0.4251
 1989SOL    MW4 7724   1.996   5.964   4.296  0.3604  0.4765  0.3993
 1990SOL     OW 7725   5.309   5.541   1.325  0.6599 -0.0244  0.5017
 1990SOL    HW2 7726   5.370   5.610   1.297  0.4230  0.7324  1.7862
 1990SOL    HW3 7727   5.359   5.460   1.316  1.0331  0.3123 -0.7761
 1990SOL    MW4 7728   5.324   5.540   1.320  0.6779  0.1198  0.5026
 1991SOL     OW 7729   4.779   0.147   0.737 -0.3336 -0.6008 -0.2911
 1991SOL    HW2 7730   4.693   0.188   0.735 -1.2387 -2.3598  0.5653
 1991SOL    HW3 7731   4.767   0.063   0.692  0.6962 -1.2856  0.6432
 1991SOL    MW4 7732   4.766   0.141   0.730 -0.3172 -0.9233 -0.0549
 1992SOL     OW 7733   2.067   3.033   4.186  0.2449  0.3932 -0.2288
 1992SOL    HW2 7734   2.075   3.069   4.097 -0.0671  0.4429 -0.2378
 1992SOL    HW3 7735   2.140   3.073   4.234  0.6051  0.1237 -0.5404
 1992SOL    MW4 7736   2.078   3.043   4.180  0.2512  0.3642 -0.2711
 1993SOL     OW 7737   3.325   5.819   1.109 -0.3579 -0.0988 -1.0829
 1993SOL    HW2 7738   3.260   5.889   1.108  0.7665  0.9872 -0.8846
 1993SOL    HW3 7739   3.350   5.808   1.017  1.3339  1.6123 -0.8834
 1993SOL    MW4 7740   3.320   5.827   1.097  0.0137  0.2702 -1.0304
 1994SOL     OW 7741   3.260   0.840   5.005 -0.4563 -0.3066 -0.3250
 1994SOL    HW2 7742   3.327   0.783   4.966 -0.6269  0.0002 -1.0844
 1994SOL    HW3 7743   3.177   0.796   4.987 -0.6664  0.5845 -1.6927
 1994SOL    MW4 7744   3.258   0.827   4.997 -0.5066 -0.1486 -0.6056
 1995SOL     OW 7745   4.951   2.587   3.085  0.4600  0.1371  0.3803
 1995SOL    HW2 7746   4.861   2.621   3.076 -0.1869 -1.6758 -0.5798
 1995SOL    HW3 7747   4.977   2.612   3.173 -1.7217 -0.8648  1.4045
 1995SOL    MW4 7748   4.942   2.595   3.095  0.0868 -0.2343  0.3887
 1996SOL     OW 7749   1.678   4.971   4.940  0.1964 -0.1146  0.4541
 1996SOL    HW2 7750   1.681   5.025   5.019 -0.5316 -0.3398  0.6466
 1996SOL    HW3 7751   1.713   5.027   4.871 -0.8019  0.7060  0.5954
 1996SOL    MW4 7752   1.683   4.985   4.941 -0.0313 -0.0360  0.4982
 1997SOL     OW 7753   2.110   3.034   0.139  0.1668 -0.4731  0.2032
 1997SOL    HW2 7754   2.146   3.122   0.145  1.7929 -1.2048  3.8583
 1997SOL    HW3 7755   2.015   3.046   0.147  0.1697  0.9807 -1.3389
 1997SOL    MW4 7756   2.102   3.047   0.141  0.3817 -0.3778  0.4820
 1998SOL     OW 7757   0.159   0.213   4.512  0.7670 -0.3972  0.0572
 1998SOL    HW2 7758   0.109   0.238   4.590  0.9532 -1.1266  0.4166
 1998SOL    HW3 7759   0.135   0.122   4.495 -0.9556  0.3686 -2.0521
 1998SOL    MW4 7760   0.149   0.204   4.520  0.5643 -0.3924 -0.1737
 1999SOL     OW 7761   3.750   4.261   4.970  0.7642 -0.1142  0.0497
 1999SOL    HW2 7762   3.803   4.333   4.936  0.9740 -1.9471 -3.9732
 1999SOL    HW3 7763   3.811   4.189   4.984 -0.0889 -1.1205 -1.1632
 1999SOL    MW4 7764   3.765   4.261   4.967  0.6793 -0.4888 -0.6411
 2000SOL     OW 7765   1.203   3.888   0.280  0.1857 -0.2574  0.1403
 2000SOL    HW2 7766   1.144   3.958   0.310 -0.1103 -0.1334 -0.7110
 2000SOL    HW3 7767   1.152   3.840   0.215  1.0175 -0.1622 -0.5976
 2000SOL    MW4 7768   1.188   3.891   0.275  0.2564 -0.2285 -0.0694
 2001SOL     OW 7769   6.367   0.595   1.175 -0.4497 -0.4459 -0.0098
 2001SOL    HW2 7770   6.429   0.668   1.172  0.5118 -0.8316  4.2079
 2001SOL    HW3 7771   6.405   0.529   1.116  1.9202  0.2869  0.5704
 2001SOL    MW4 7772   6.380   0.596   1.167 -0.0102 -0.4001  0.6232
 2002SOL     OW 7773   1.106   1.438   4.662 -0.2438  0.3251  0.2983
 2002SOL    HW2 7774   1.090   1.369   4.725  0.7875 -1.0057 -0.8293
 2002SOL    HW3 7775   1.041   1.423   4.593  2.1348 -1.7800 -1.6610
 2002SOL    MW4 7776   1.095   1.427   4.661  0.2061 -0.1282 -0.1090
 2003SOL     OW 7777   3.758   2.139   0.166 -0.1365 -0.3648 -0.1443
 2003SOL    HW2 7778   3.716   2.114   0.084  0.5753 -0.9477 -0.3497
 2003SOL    HW3 7779   3.764   2.057   0.216 -0.2947 -0.0704  0.3631
 2003SOL    MW4 7780   3.754   2.125   0.162 -0.0635 -0.4029 -0.1045
 2004SOL     OW 7781   0.928   4.881   3.162  0.3021 -0.0923 -0.0810
 2004SOL    HW2 7782   1.011   4.884   3.208  0.3697 -0.8641 -0.1453
 2004SOL    HW3 7783   0.865   4.921   3.222  0.9157  1.5676 -0.4909
 2004SOL    MW4 7784   0.930   4.887   3.176  0.3920  0.0249 -0.1436
 2005SOL     OW 7785   5.661   3.342   2.826  0.7386 -0.0050 -0.2998
 2005SOL    HW2 7786   5.690   3.284   2.896 -1.0459 -1.9339 -1.0538
 2005SOL    HW3 7787   5.697   3.304   2.746  0.1913  0.3735 -0.7366
 2005SOL    MW4 7788   5.669   3.329   2.825  0.4310 -0.2096 -0.4569
 2006SOL     OW 7789   4.401   2.924   5.093 -0.1737 -0.0429 -0.7249
 2006SOL    HW2 7790   4.418   2.861   5.163 -0.7723  0.1185 -0.4226
 2006SOL    HW3 7791   4.415   3.009   5.133  0.9868  0.0226 -1.2326
 2006SOL    MW4 7792   4.405   2.927   5.107 -0.0995 -0.0129 -0.7520
 2007SOL     OW 7793   0.814   2.107   0.286  0.2634 -0.2387 -0.2404
 2007SOL    HW2 7794   0.886   2.125   0.226  0.6137 -0.5230  0.0893
 2007SOL    HW3 7795   0.755   2.050   0.237  0.6366 -0.6136 -0.2554
 2007SOL    MW4 7796   0.816   2.102   0.272  0.3588 -0.3257 -0.1989
 2008SOL     OW 7797   2.670   1.289   0.905  0.7747 -0.1314  0.6193
 2008SOL    HW2 7798   2.575   1.284   0.894  0.7692  0.2194  0.4969
 2008SOL    HW3 7799   2.701   1.203   0.879  0.6728  0.3658 -1.2692
 2008SOL    MW4 7800   2.661   1.277   0.900  0.7606 -0.0195  0.3540
 2009SOL     OW 7801   0.276   4.409   0.464 -0.6178  0.3003  0.0529
 2009SOL    HW2 7802   0.275   4.496   0.504 -0.2870 -1.1551  3.5441
 2009SOL    HW3 7803   0.365   4.377   0.478 -0.9778 -0.9453 -0.3677
 2009SOL    MW4 7804   0.288   4.417   0.471 -0.6216 -0.0561  0.4580
 2010SOL     OW 7805   3.964   0.135   2.961 -0.0575  0.0391  0.4843
 2010SOL    HW2 7806   3.941   0.106   2.872 -0.1854  0.3782  0.4052
 2010SOL    HW3 7807   3.879   0.149   3.003 -0.0107  1.3007  0.1917
 2010SOL    MW4 7808   3.949   0.133   2.954 -0.0682  0.2503  0.4353
 2011SOL     OW 7809   1.921   6.324   2.173  0.1615 -0.9090  0.3720
 2011SOL    HW2 7810   1.861   6.397   2.188  0.9287 -0.4209  1.1355
 2011SOL    HW3 7811   2.007   6.365   2.164  0.2761 -1.5080 -1.7015
 2011SOL    MW4 7812   1.924   6.339   2.174  0.2778 -0.9236  0.1992
 2012SOL     OW 7813   6.088   1.397   0.872 -0.3515 -0.1882  0.1215
 2012SOL    HW2 7814   6.125   1.456   0.937 -0.7860 -0.5597  0.7231
 2012SOL    HW3 7815   6.075   1.451   0.794  0.3496  0.2152  0.2828
 2012SOL    MW4 7816   6.091   1.412   0.870 -0.3163 -0.1840  0.2221
 2013SOL     OW 7817   1.136   0.214   2.883  0.2266 -0.8298 -0.8010
 2013SOL    HW2 7818   1.120   0.139   2.940 -2.0832  0.5569  0.5236
 2013SOL    HW3 7819   1.208   0.261   2.925 -0.1012 -0.9007 -0.1540
 2013SOL    MW4 7820   1.144   0.210   2.896 -0.1214 -0.6562 -0.5409
 2014SOL     OW 7821   3.751   5.112   5.744 -0.1953  0.3038  0.4887
 2014SOL    HW2 7822   3.678   5.108   5.683 -1.1237 -2.8185  1.6525
 2014SOL    HW3 7823   3.711   5.137   5.828  0.1863 -0.6803  0.9702
 2014SOL    MW4 7824   3.736   5.115   5.747 -0.2674 -0.2380  0.7058
 2015SOL     OW 7825   5.000   4.123   1.842  0.3319  0.1844 -0.1469
 2015SOL    HW2 7826   4.967   4.212   1.851  0.6004  0.2504  0.1730
 2015SOL    HW3 7827   4.999   4.107   1.747 -0.5285  0.2152 -0.1534
 2015SOL    MW4 7828   4.996   4.132   1.831  0.2538  0.1972 -0.1056
 2016SOL     OW 7829   1.474   5.355   1.955 -1.0258  0.3662 -0.4608
 2016SOL    HW2 7830   1.546   5.417   1.943 -1.4538  1.1376  0.7218
 2016SOL    HW3 7831   1.514   5.269   1.947  0.6820  0.6579  2.8957
 2016SOL    MW4 7832   1.489   5.352   1.953 -0.8570  0.5064  0.1381
 2017SOL     OW 7833   5.529   2.286   1.743 -0.1964 -0.6690 -0.4616
 2017SOL    HW2 7834   5.455   2.321   1.694  0.1652  0.4370 -0.2478
 2017SOL    HW3 7835   5.601   2.345   1.723 -0.2284  0.3759  2.0366
 2017SOL    MW4 7836   5.529   2.299   1.734 -0.1529 -0.3852 -0.1038
 2018SOL     OW 7837   2.763   1.838   3.911  0.3128 -0.2498 -0.0540
 2018SOL    HW2 7838   2.830   1.789   3.959  0.1960 -1.1389 -0.7812
 2018SOL    HW3 7839   2.784   1.930   3.929  0.2957 -0.5530  1.6475
 2018SOL    MW4 7840   2.775   1.844   3.919  0.2951 -0.4071  0.0746
 2019SOL     OW 7841   2.216   0.684   0.312 -0.1650 -0.2198 -0.1179
 2019SOL    HW2 7842   2.187   0.770   0.344  0.5915  0.3718 -0.9545
 2019SOL    HW3 7843   2.277   0.705   0.241  1.0181 -1.4441  0.5063
 2019SOL    MW4 7844   2.220   0.698   0.307  0.0909 -0.3032 -0.1459
 2020SOL     OW 7845   3.102   2.906   5.258  0.3586 -0.3582 -0.9342
 2020SOL    HW2 7846   3.184   2.893   5.306 -0.7778  0.3778  1.3706
 2020SOL    HW3 7847   3.124   2.967   5.188  1.0518  3.5110  2.3014
 2020SOL    MW4 7848   3.116   2.912   5.255  0.3001  0.2494 -0.2032
 2021SOL     OW 7849   5.460   6.241   2.388 -0.6625  0.1278 -0.1364
 2021SOL    HW2 7850   5.537   6.234   2.444 -1.7361  1.7401  1.6398
 2021SOL    HW3 7851   5.411   6.159   2.403 -0.5453  0.2026  0.6804
 2021SOL    MW4 7852   5.464   6.229   2.397 -0.7887  0.3504  0.2057
 2022SOL     OW 7853   0.660   0.758   4.855  0.0601  0.0188 -0.0133
 2022SOL    HW2 7854   0.728   0.729   4.794  1.8317  2.1649  0.7948
 2022SOL    HW3 7855   0.615   0.829   4.808 -0.2224  0.0060  0.2358
 2022SOL    MW4 7856   0.663   0.764   4.840  0.2565  0.3003  0.1262
 2023SOL     OW 7857   2.372   3.995   5.744  0.2422 -0.0247  0.6106
 2023SOL    HW2 7858   2.317   4.073   5.734 -0.1841 -0.3686  0.2105
 2023SOL    HW3 7859   2.461   4.028   5.740  0.0788  0.6109  1.8266
 2023SOL    MW4 7860   2.376   4.010   5.742  0.1644  0.0138  0.7183
 2024SOL     OW 7861   5.761   3.870   0.910 -0.6746 -0.1637  0.1440
 2024SOL    HW2 7862   5.681   3.920   0.919 -1.2021 -1.0544  0.5896
 2024SOL    HW3 7863   5.733   3.778   0.917  0.3787 -0.4873  0.3432
 2024SOL    MW4 7864   5.747   3.864   0.912 -0.6052 -0.3239  0.2291
 2025SOL     OW 7865   5.263   2.843   0.343 -0.5561 -0.5520 -0.1553
 2025SOL    HW2 7866   5.204   2.873   0.413 -1.2895 -1.0084 -0.5686
 2025SOL    HW3 7867   5.344   2.892   0.359 -1.1938  0.4623  0.1336
 2025SOL    MW4 7868   5.266   2.854   0.355 -0.7370 -0.4784 -0.1717
 2026SOL     OW 7869   2.226   5.208   4.559 -0.1628 -0.2400 -0.1881
 2026SOL    HW2 7870   2.179   5.131   4.590  1.5013 -1.0094  0.5781
 2026SOL    HW3 7871   2.175   5.239   4.485 -0.6575 -2.3358 -0.7943
 2026SOL    MW4 7872   2.213   5.202   4.554 -0.0085 -0.6180 -0.1670
 2027SOL     OW 7873   5.472   3.199   1.564 -0.9569 -0.1719 -0.1839
 2027SOL    HW2 7874   5.445   3.164   1.649 -0.0710 -0.5402 -0.0421
 2027SOL    HW3 7875   5.408   3.268   1.545 -1.8677 -0.8813  0.2207
 2027SOL    MW4 7876   5.460   3.203   1.573 -0.9602 -0.3141 -0.1118
 2028SOL     OW 7877   1.015   3.869   6.423  0.3642 -0.3662  0.1839
 2028SOL    HW2 7878   0.967   3.882   6.341  0.6774 -1.4187 -0.1777
 2028SOL    HW3 7879   1.103   3.843   6.396  0.9212  0.7665  0.8496
 2028SOL    MW4 7880   1.020   3.867   6.409  0.4790 -0.3556  0.2240
 2029SOL     OW 7881   4.932   4.370   5.745 -0.3730  0.0231  0.2914
 2029SOL    HW2 7882   4.838   4.368   5.766 -0.5167 -1.0379 -0.3832
 2029SOL    HW3 7883   4.975   4.342   5.826 -0.7266 -0.8301  0.1882
 2029SOL    MW4 7884   4.925   4.366   5.759 -0.4386 -0.2295  0.1888
 2030SOL     OW 7885   0.393   0.880   0.940  0.6436 -0.7116 -0.3227
 2030SOL    HW2 7886   0.387   0.811   0.874  0.4439 -0.9219 -0.0902
 2030SOL    HW3 7887   0.464   0.851   0.998  0.0049 -1.1557  0.2602
 2030SOL    MW4 7888   0.402   0.867   0.939  0.5330 -0.7979 -0.2151
 2031SOL     OW 7889   3.300   3.950   0.322 -0.1849 -0.5117 -0.0296
 2031SOL    HW2 7890   3.329   3.981   0.408  0.4972  2.5776 -1.2297
 2031SOL    HW3 7891   3.214   3.911   0.338 -0.2471  0.3373  1.9974
 2031SOL    MW4 7892   3.292   3.949   0.335 -0.1031  0.0079  0.0795
 2032SOL     OW 7893   1.915   3.987   1.253 -0.7774 -0.4767 -0.2453
 2032SOL    HW2 7894   1.908   3.900   1.291  0.4410  0.0494  1.2746
 2032SOL    HW3 7895   1.836   4.034   1.282 -0.6670 -0.5921  0.2346
 2032SOL    MW4 7896   1.904   3.982   1.262 -0.6021 -0.4226  0.0186
 2033SOL     OW 7897   1.586   1.948   2.528  0.7928  0.0359 -0.3861
 2033SOL    HW2 7898   1.536   1.964   2.448  1.4300 -0.6833 -0.9489
 2033SOL    HW3 7899   1.647   2.022   2.533 -0.2378  0.8728  0.2592
 2033SOL    MW4 7900   1.587   1.960   2.518  0.7409  0.0514 -0.3752
 2034SOL     OW 7901   3.376   1.329   3.516  0.0481  0.5288 -0.4857
 2034SOL    HW2 7902   3.396   1.372   3.599  0.0747 -0.3204 -0.0452
 2034SOL    HW3 7903   3.296   1.373   3.485 -0.5189  0.1952  0.4738
 2034SOL    MW4 7904   3.368   1.340   3.522 -0.0232  0.3727 -0.3010
 2035SOL     OW 7905   1.461   3.585   5.893  0.0497  0.3972 -0.5639
 2035SOL    HW2 7906   1.521   3.512   5.904 -0.2777  0.0823 -0.8240
 2035SOL    HW3 7907   1.508   3.647   5.837 -0.0182 -0.0282 -1.1000
 2035SOL    MW4 7908   1.475   3.584   5.887 -0.0025  0.2995 -0.6689
 2036SOL     OW 7909   2.253   1.065   0.951  0.2553 -0.2024 -0.3253
 2036SOL    HW2 7910   2.295   1.131   0.896 -0.0014  0.4772  0.2694
 2036SOL    HW3 7911   2.277   1.089   1.040  0.3931 -1.0950 -0.1147
 2036SOL    MW4 7912   2.261   1.077   0.956  0.2397 -0.2305 -0.2191
 2037SOL     OW 7913   4.448   2.750   3.661  0.0334  0.4494  0.4420
 2037SOL    HW2 7914   4.491   2.833   3.640  0.4222  0.5127  1.4391
 2037SOL    HW3 7915   4.422   2.714   3.576  1.4797  0.7209 -0.1377
 2037SOL    MW4 7916   4.450   2.756   3.647  0.2755  0.4936  0.4971
 2038SOL     OW 7917   4.871   1.762   4.455 -0.1395 -0.2608 -0.3615
 2038SOL    HW2 7918   4.843   1.769   4.363 -2.4468  1.7027  0.4014
 2038SOL    HW3 7919   4.909   1.847   4.474 -0.9331 -0.1677  0.8685
 2038SOL    MW4 7920   4.872   1.774   4.445 -0.5486  0.0106 -0.0985
 2039SOL     OW 7921   0.646   4.743   2.832  0.3303 -0.0556  0.4254
 2039SOL    HW2 7922   0.608   4.831   2.833  1.7590  0.5921 -0.0009
 2039SOL    HW3 7923   0.618   4.704   2.915  0.4421  1.1298  1.0439
 2039SOL    MW4 7924   0.637   4.750   2.843  0.5335  0.1862  0.4507
 2040SOL     OW 7925   2.004   0.648   0.913  0.1245 -0.1484 -0.4235
 2040SOL    HW2 7926   2.009   0.743   0.911  0.0933  0.0785  3.4714
 2040SOL    HW3 7927   1.923   0.629   0.960  0.5544 -2.0935 -0.3982
 2040SOL    MW4 7928   1.994   0.658   0.919  0.1771 -0.3751  0.0937
 2041SOL     OW 7929   0.123   2.819   3.777 -0.4651 -0.2741 -0.3784
 2041SOL    HW2 7930   0.203   2.849   3.734  0.0444 -0.8798  0.1250
 2041SOL    HW3 7931   0.110   2.880   3.849 -1.6991  1.1569 -1.7481
 2041SOL    MW4 7932   0.132   2.831   3.781 -0.5607 -0.1652 -0.4927
 2042SOL     OW 7933   2.599   2.921   5.269 -0.3409 -0.0557  0.3354
 2042SOL    HW2 7934   2.626   2.992   5.211 -0.0414 -0.9854 -0.6899
 2042SOL    HW3 7935   2.650   2.845   5.240  0.3686 -0.3995  2.2794
 2042SOL    MW4 7936   2.609   2.920   5.258 -0.2078 -0.2238  0.4566
 2043SOL     OW 7937   3.775   5.380   5.505  0.3747  0.3700  0.0165
 2043SOL    HW2 7938   3.856   5.330   5.513 -0.0970 -0.4401 -0.1800
 2043SOL    HW3 7939   3.802   5.461   5.462  1.6098  1.5094  2.7197
 2043SOL    MW4 7940   3.789   5.384   5.500  0.4754  0.4134  0.3472
 2044SOL     OW 7941   1.237   4.233   3.691  0.3726  0.4197 -0.3956
 2044SOL    HW2 7942   1.290   4.153   3.688 -1.0464 -0.5527 -0.5674
 2044SOL    HW3 7943   1.300   4.303   3.712  1.5356 -0.8262  0.4372
 2044SOL    MW4 7944   1.253   4.232   3.693  0.3388  0.1270 -0.3084
 2045SOL     OW 7945   4.488   0.604   4.581  0.3482 -0.3112  0.2084
 2045SOL    HW2 7946   4.486   0.666   4.509 -0.0345  1.0609  1.3523
 2045SOL    HW3 7947   4.566   0.627   4.631 -1.1152  1.0100  2.0599
 2045SOL    MW4 7948   4.498   0.615   4.578  0.1046  0.0441  0.6036
 2046SOL     OW 7949   0.404   0.974   3.038  0.0063 -0.7020 -0.1342
 2046SOL    HW2 7950   0.371   0.947   3.124  1.8435 -0.0501  0.8418
 2046SOL    HW3 7951   0.361   1.057   3.020 -0.1644 -0.6927  0.3045
 2046SOL    MW4 7952   0.394   0.981   3.047  0.2262 -0.6148  0.0525
 2047SOL     OW 7953   3.879   0.611   5.662  0.6626 -0.0518 -0.0879
 2047SOL    HW2 7954   3.872   0.662   5.743 -1.6475 -0.8114  0.2697
 2047SOL    HW3 7955   3.865   0.520   5.689  0.3166 -0.3701 -1.2812
 2047SOL    MW4 7956   3.876   0.606   5.677  0.3122 -0.1940 -0.1982
 2048SOL     OW 7957   5.892   4.479   4.886 -0.2176  0.7561  0.1100
 2048SOL    HW2 7958   5.816   4.509   4.936  1.0795  0.8988  2.0872
 2048SOL    HW3 7959   5.917   4.554   4.833 -0.8740  1.0187  0.1676
 2048SOL    MW4 7960   5.886   4.493   4.885 -0.1331  0.8096  0.3785
 2049SOL     OW 7961   3.936   2.511   1.095 -0.2714 -0.2832 -0.0675
 2049SOL    HW2 7962   3.939   2.573   1.168  2.4724  0.2619 -0.5344
 2049SOL    HW3 7963   3.941   2.425   1.136  0.7176  0.0010  0.4329
 2049SOL    MW4 7964   3.937   2.508   1.110  0.2211 -0.1738 -0.0631
 2050SOL     OW 7965   6.404   2.499   4.628 -1.1919  0.2375 -0.4377
 2050SOL    HW2 7966   6.333   2.514   4.566 -0.0141  0.0233 -1.8950
 2050SOL    HW3 7967   6.406   2.578   4.682 -3.0268 -0.0907  0.1836
 2050SOL    MW4 7968   6.395   2.511   4.627 -1.2786  0.1659 -0.5480
 2051SOL     OW 7969   5.456   6.139   3.024 -0.2997 -0.4289  0.3127
 2051SOL    HW2 7970   5.515   6.064   3.024  1.0398  0.5989 -0.4720
 2051SOL    HW3 7971   5.390   6.118   3.091  0.9202 -1.6100  1.1790
 2051SOL    MW4 7972   5.455   6.126   3.033  0.0380 -0.4491  0.3235
 2052SOL     OW 7973   4.582   1.366   1.709  0.4265 -0.6740  0.2013
 2052SOL    HW2 7974   4.522   1.360   1.783  0.8692  0.6811  0.7010
 2052SOL    HW3 7975   4.652   1.423   1.740  0.2100  0.6062 -1.5187
 2052SOL    MW4 7976   4.583   1.373   1.723  0.4563 -0.3263  0.0403
 2053SOL     OW 7977   3.747   0.956   2.206 -0.2136  0.0515 -0.4277
 2053SOL    HW2 7978   3.741   1.050   2.187  1.9410 -0.0535 -1.9989
 2053SOL    HW3 7979   3.837   0.932   2.184 -0.8609 -2.5086 -0.6590
 2053SOL    MW4 7980   3.758   0.965   2.200 -0.0147 -0.3001 -0.6655
 2054SOL     OW 7981   3.363   2.717   0.571  0.1687 -0.6121  0.0085
 2054SOL    HW2 7982   3.401   2.759   0.648  0.1072  0.3402 -0.4629
 2054SOL    HW3 7983   3.272   2.700   0.595  0.0690 -0.0394  0.0374
 2054SOL    MW4 7984   3.356   2.720   0.584  0.1474 -0.4109 -0.0499
 2055SOL     OW 7985   2.409   6.232   5.860 -0.7355  0.0836 -0.4579
 2055SOL    HW2 7986   2.461   6.198   5.787  0.0956 -0.4474  0.3573
 2055SOL    HW3 7987   2.407   6.161   5.924  0.5746  1.3287  1.0609
 2055SOL    MW4 7988   2.416   6.219   5.859 -0.4530  0.1778 -0.1499
 2056SOL     OW 7989   1.576   1.413   4.702 -0.7615 -0.0987  0.7290
 2056SOL    HW2 7990   1.663   1.386   4.671 -0.3055  1.8879  0.1324
 2056SOL    HW3 7991   1.587   1.426   4.796 -0.0203  1.3757  0.4717
 2056SOL    MW4 7992   1.589   1.411   4.710 -0.6036  0.3580  0.6163
 2057SOL     OW 7993   4.954   5.787   4.120  0.0749 -0.4360 -0.6061
 2057SOL    HW2 7994   4.949   5.851   4.049  0.5769 -1.4790 -1.5955
 2057SOL    HW3 7995   4.900   5.825   4.190  0.8268  1.3342 -0.9477
 2057SOL    MW4 7996   4.946   5.801   4.120  0.2404 -0.3401 -0.7817
 2058SOL     OW 7997   2.203   2.650   5.041 -0.4042  0.0855  0.2075
 2058SOL    HW2 7998   2.120   2.694   5.058 -1.1693 -0.8254 -0.9818
 2058SOL    HW3 7999   2.261   2.679   5.111 -0.6999  3.3590 -0.7191
 2058SOL    MW4 8000   2.199   2.660   5.052 -0.5442  0.3972 -0.0716
 2059SOL     OW 8001   0.833   0.381   6.156  0.2313 -0.4799 -0.1714
 2059SOL    HW2 8002   0.839   0.367   6.250  0.8075  0.4265 -0.0641
 2059SOL    HW3 8003   0.871   0.303   6.117 -0.0114 -0.8582  0.3414
 2059SOL    MW4 8004   0.839   0.369   6.163  0.2753 -0.4102 -0.0896
 2060SOL     OW 8005   4.522   2.394   6.397  0.1358  0.1064 -0.4985
 2060SOL    HW2 8006   4.506   2.463   6.333  0.9857 -0.9717 -1.9315
 2060SOL    HW3 8007   4.506   2.435   6.481 -0.1114  1.8329 -1.3489
 2060SOL    MW4 8008   4.517   2.408   6.399  0.2154  0.1920 -0.7998
 2061SOL     OW 8009   2.427   4.782   6.165  0.4234 -0.5463 -0.5215
 2061SOL    HW2 8010   2.398   4.698   6.128  1.5353 -1.5332  0.7468
 2061SOL    HW3 8011   2.517   4.767   6.193  0.4930  0.9329  0.1773
 2061SOL    MW4 8012   2.435   4.769   6.164  0.5793 -0.4814 -0.2620
 2062SOL     OW 8013   1.678   0.763   3.403 -0.5767  0.5117  0.0343
 2062SOL    HW2 8014   1.582   0.758   3.400 -0.6486  1.9390 -1.7381
 2062SOL    HW3 8015   1.705   0.753   3.312  0.9148  0.9516  0.4057
 2062SOL    MW4 8016   1.669   0.761   3.391 -0.3894  0.7581 -0.1505
 2063SOL     OW 8017   5.279   4.771   3.532  0.2611  0.1060  0.0763
 2063SOL    HW2 8018   5.308   4.687   3.496  0.8221  0.7036 -0.9029
 2063SOL    HW3 8019   5.353   4.801   3.584  1.5312  1.6191 -2.4022
 2063SOL    MW4 8020   5.292   4.764   3.534  0.5027  0.3845 -0.3799
 2064SOL     OW 8021   0.484   6.265   1.723 -0.5429 -0.0096  0.4548
 2064SOL    HW2 8022   0.522   6.192   1.773  2.0741  1.1975  0.4138
 2064SOL    HW3 8023   0.558   6.299   1.672 -1.9305  2.0324 -0.2964
 2064SOL    MW4 8024   0.499   6.260   1.723 -0.3807  0.4190  0.3503
 2065SOL     OW 8025   0.766   2.380   1.256 -0.5324  0.2016 -0.6896
 2065SOL    HW2 8026   0.760   2.474   1.272 -0.7041 -0.0361  0.7287
 2065SOL    HW3 8027   0.702   2.341   1.316 -0.1388 -0.8551 -0.9348
 2065SOL    MW4 8028   0.757   2.387   1.266 -0.5031  0.0308 -0.5348
 2066SOL     OW 8029   6.394   2.661   5.063 -0.3164 -0.0247 -0.4758
 2066SOL    HW2 8030   6.338   2.588   5.038 -0.6417 -0.0855  0.4057
 2066SOL    HW3 8031   6.478   2.621   5.085 -0.9029 -0.3395  1.4001
 2066SOL    MW4 8032   6.398   2.646   5.063 -0.4367 -0.0742 -0.1120
 2067SOL     OW 8033   4.250   2.922   0.712 -0.0432 -0.4639  0.0652
 2067SOL    HW2 8034   4.313   2.941   0.782 -1.3049  0.2102  1.0664
 2067SOL    HW3 8035   4.280   2.839   0.675  0.6492 -0.8756  1.4509
 2067SOL    MW4 8036   4.262   2.914   0.717 -0.1183 -0.4293  0.3801
 2068SOL     OW 8037   5.181   3.063   2.790  0.2101 -0.1028 -0.4875
 2068SOL    HW2 8038   5.129   3.143   2.788 -0.9524 -0.8171  0.1669
 2068SOL    HW3 8039   5.146   3.010   2.718  0.0718 -0.5541 -0.0969
 2068SOL    MW4 8040   5.170   3.066   2.780  0.0385 -0.2566 -0.3496
 2069SOL     OW 8041   1.055   2.195   6.092  0.0338  0.2899  0.4690
 2069SOL    HW2 8042   1.080   2.223   6.180  0.2985 -1.3191  0.9522
 2069SOL    HW3 8043   0.983   2.133   6.107  1.9450 -2.2809 -0.1420
 2069SOL    MW4 8044   1.049   2.190   6.106  0.3209 -0.2615  0.4522
 2070SOL     OW 8045   2.799   0.300   2.827  0.4282 -0.3572 -0.6511
 2070SOL    HW2 8046   2.869   0.237   2.842  0.1288 -0.6879 -0.6325
 2070SOL    HW3 8047   2.844   0.382   2.807  0.8203 -0.4239 -0.0549
 2070SOL    MW4 8048   2.814   0.303   2.826  0.4404 -0.4096 -0.5700
 2071SOL     OW 8049   5.116   0.197   1.150 -0.2279  0.0545 -0.9891
 2071SOL    HW2 8050   5.168   0.143   1.211 -0.9107 -0.2143 -0.6356
 2071SOL    HW3 8051   5.076   0.134   1.091 -1.8417  0.0629  0.0486
 2071SOL    MW4 8052   5.118   0.182   1.151 -0.5309  0.0202 -0.8055
 2072SOL     OW 8053   0.053   1.683   3.784  0.2119  0.0462  0.1915
 2072SOL    HW2 8054   0.036   1.649   3.872 -0.8506  0.5636  0.2002
 2072SOL    HW3 8055   0.022   1.615   3.725 -1.7004  0.8365  0.2115
 2072SOL    MW4 8056   0.047   1.670   3.788 -0.1806  0.2187  0.1953
 2073SOL     OW 8057   5.177   3.441   0.976 -0.3719  0.0039  0.2746
 2073SOL    HW2 8058   5.239   3.468   1.044  1.3017  1.1599 -1.6091
 2073SOL    HW3 8059   5.147   3.523   0.937 -0.0453 -0.6537 -1.4272
 2073SOL    MW4 8060   5.181   3.455   0.980 -0.1080  0.0696 -0.1985
 2074SOL     OW 8061   5.152   0.110   4.359  0.3563 -0.1295 -0.0366
 2074SOL    HW2 8062   5.213   0.044   4.326  0.5111 -0.8625  1.6265
 2074SOL    HW3 8063   5.208   0.184   4.384  0.5417 -0.5635  0.9060
 2074SOL    MW4 8064   5.167   0.111   4.358  0.4012 -0.2835  0.3072
 2075SOL     OW 8065   4.372   3.117   3.137  0.1174  0.0844  0.0930
 2075SOL    HW2 8066   4.368   3.149   3.227 -0.9997 -0.5263  0.2716
 2075SOL    HW3 8067   4.343   3.190   3.084 -1.6130 -0.3218  0.4337
 2075SOL    MW4 8068   4.368   3.131   3.142 -0.2583 -0.0497  0.1615
 2076SOL     OW 8069   2.543   5.722   2.196 -0.1094  0.6831 -0.0206
 2076SOL    HW2 8070   2.456   5.755   2.216 -0.5348 -1.0085  1.0504
 2076SOL    HW3 8071   2.554   5.645   2.251  0.6225 -1.3431 -2.7978
 2076SOL    MW4 8072   2.533   5.716   2.206 -0.0690  0.1926 -0.2457
 2077SOL     OW 8073   1.908   0.294   4.865 -0.0019  0.2567 -0.5971
 2077SOL    HW2 8074   1.865   0.256   4.942  0.8016 -0.5025 -0.5064
 2077SOL    HW3 8075   1.843   0.285   4.795 -0.5584  0.5182 -0.1316
 2077SOL    MW4 8076   1.894   0.288   4.866  0.0307  0.1910 -0.5237
 2078SOL     OW 8077   0.962   1.183   5.848 -0.0837 -0.3922  0.0135
 2078SOL    HW2 8078   0.943   1.184   5.942 -1.0603 -1.4773 -0.1493
 2078SOL    HW3 8079   1.022   1.109   5.837  1.4369  0.7914 -0.0035
 2078SOL    MW4 8080   0.967   1.173   5.859 -0.0119 -0.3792 -0.0102
 2079SOL     OW 8081   1.309   5.458   1.182 -0.4178 -0.4471 -0.1938
 2079SOL    HW2 8082   1.222   5.444   1.142 -1.0273 -0.5427  1.1174
 2079SOL    HW3 8083   1.308   5.403   1.260  2.1353 -3.1658 -1.8839
 2079SOL    MW4 8084   1.297   5.449   1.187 -0.1613 -0.8184 -0.2438
 2080SOL     OW 8085   2.304   3.361   1.717 -0.1899  0.9435  0.2155
 2080SOL    HW2 8086   2.353   3.280   1.728  0.4271  1.3750  0.8044
 2080SOL    HW3 8087   2.213   3.334   1.709  0.1459  0.1103 -1.0604
 2080SOL    MW4 8088   2.298   3.347   1.717 -0.0642  0.8905  0.1249
 2081SOL     OW 8089   0.404   3.029   5.338 -0.0943 -0.2966  0.0979
 2081SOL    HW2 8090   0.436   3.021   5.428  0.0867  1.6118  0.2429
 2081SOL    HW3 8091   0.322   2.980   5.338  0.3950 -1.1629  1.0232
 2081SOL    MW4 8092   0.398   3.022   5.350 -0.0059 -0.1591  0.2391
 2082SOL     OW 8093   0.323   1.701   3.463  0.4350  0.3547 -0.1064
 2082SOL    HW2 8094   0.354   1.752   3.388  0.6891  0.8498  0.3263
 2082SOL    HW3 8095   0.396   1.642   3.483  1.2583  1.6804  1.0588
 2082SOL    MW4 8096   0.337   1.700   3.456  0.5772  0.5949  0.1044
 2083SOL     OW 8097   0.929   0.849   2.778  0.2231 -0.0952 -0.6657
 2083SOL    HW2 8098   0.981   0.859   2.699 -0.6880  1.4382 -1.1142
 2083SOL    HW3 8099   0.992   0.857   2.850  0.7841  0.4625 -1.2072
 2083SOL    MW4 8100   0.944   0.851   2.777  0.1769  0.1807 -0.7963
 2084SOL     OW 8101   0.218   4.613   4.050  0.1288 -0.2520 -0.0499
 2084SOL    HW2 8102   0.246   4.692   4.004 -0.3189  1.4530  2.3884
 2084SOL    HW3 8103   0.279   4.605   4.124 -1.0114 -1.0065  0.8557
 2084SOL    MW4 8104   0.229   4.623   4.054 -0.0807 -0.1266  0.3913
 2085SOL     OW 8105   4.116   6.195   5.468 -0.2782 -0.2415 -0.0076
 2085SOL    HW2 8106   4.161   6.254   5.408 -0.5877 -0.7226 -0.7122
 2085SOL    HW3 8107   4.026   6.229   5.473 -0.6300 -1.0141 -0.9096
 2085SOL    MW4 8108   4.110   6.208   5.461 -0.3655 -0.4069 -0.2196
 2086SOL     OW 8109   0.777   1.695   5.341 -0.2276 -0.0632 -0.0292
 2086SOL    HW2 8110   0.722   1.680   5.265  1.2996  1.9293 -1.6307
 2086SOL    HW3 8111   0.862   1.721   5.305  0.5743  0.8779  2.3436
 2086SOL    MW4 8112   0.781   1.696   5.326  0.0797  0.3238  0.0726
 2087SOL     OW 8113   4.063   6.219   4.630  0.5043  0.7204  0.2394
 2087SOL    HW2 8114   3.997   6.221   4.561  2.0450  2.7644 -1.2565
 2087SOL    HW3 8115   4.021   6.263   4.704 -0.6989 -0.3434  0.2236
 2087SOL    MW4 8116   4.049   6.225   4.631  0.5488  0.8497  0.0400
 2088SOL     OW 8117   3.646   3.988   0.121 -0.4519  0.2036 -0.3479
 2088SOL    HW2 8118   3.580   3.940   0.072 -0.5963  1.1294 -1.1047
 2088SOL    HW3 8119   3.625   3.972   0.213  0.4714 -2.4536 -0.5189
 2088SOL    MW4 8120   3.635   3.980   0.127 -0.3492 -0.0248 -0.4703
 2089SOL     OW 8121   6.067   6.106   0.389  0.0030  0.2450  0.6820
 2089SOL    HW2 8122   6.111   6.149   0.462  1.1630  1.1337 -0.4973
 2089SOL    HW3 8123   6.131   6.043   0.356 -0.3755  0.1180  0.1881
 2089SOL    MW4 8124   6.081   6.103   0.395  0.1061  0.3455  0.4612
 2090SOL     OW 8125   4.473   2.993   0.892  0.4810 -0.1181  0.0544
 2090SOL    HW2 8126   4.566   3.013   0.883  0.6400  0.7210  2.6426
 2090SOL    HW3 8127   4.446   3.039   0.972 -1.9839 -0.9468 -0.2031
 2090SOL    MW4 8128   4.482   3.002   0.902  0.1768 -0.1167  0.3619
 2091SOL     OW 8129   5.596   1.392   3.486  0.8132  0.0277 -0.1899
 2091SOL    HW2 8130   5.580   1.300   3.463  0.2031 -0.5486  2.2807
 2091SOL    HW3 8131   5.577   1.440   3.405 -1.1108 -1.8058 -0.9271
 2091SOL    MW4 8132   5.591   1.386   3.472  0.4788 -0.2903  0.0388
 2092SOL     OW 8133   6.226   3.192   0.212  0.1347  0.4536 -1.0321
 2092SOL    HW2 8134   6.148   3.237   0.246 -0.1963 -0.1797 -0.9309
 2092SOL    HW3 8135   6.299   3.228   0.262 -0.2614  0.0531 -0.1326
 2092SOL    MW4 8136   6.225   3.202   0.223  0.0387  0.3172 -0.9001
 2093SOL     OW 8137   1.857   4.276   5.009 -0.2180 -0.5361 -0.2758
 2093SOL    HW2 8138   1.817   4.285   4.922  1.5097 -0.0233 -1.0498
 2093SOL    HW3 8139   1.848   4.363   5.049 -0.6701 -0.6691 -0.0789
 2093SOL    MW4 8140   1.850   4.289   5.003 -0.0497 -0.4860 -0.3519
 2094SOL     OW 8141   1.880   3.413   0.964  0.0245  0.2410  0.0633
 2094SOL    HW2 8142   1.849   3.446   1.048  0.4846 -0.9183  0.7022
 2094SOL    HW3 8143   1.824   3.456   0.899 -0.8616  0.5341  1.0028
 2094SOL    MW4 8144   1.869   3.423   0.967 -0.0317  0.1267  0.2715
 2095SOL     OW 8145   4.973   6.325   5.322 -0.1507 -0.1691  0.0136
 2095SOL    HW2 8146   4.953   6.235   5.346 -1.2808  0.0016 -0.2617
 2095SOL    HW3 8147   5.013   6.319   5.235  2.1136 -0.6021  0.9985
 2095SOL    MW4 8148   4.976   6.313   5.313 -0.0011 -0.2037  0.1072
 2096SOL     OW 8149   1.446   0.587   3.672  0.6026 -0.4316  0.3986
 2096SOL    HW2 8150   1.424   0.563   3.762  0.8124 -1.1892  0.2551
 2096SOL    HW3 8151   1.504   0.517   3.642  1.2695  0.2933 -0.0209
 2096SOL    MW4 8152   1.451   0.574   3.680  0.7183 -0.4359  0.3244
 2097SOL     OW 8153   4.919   4.991   1.779  0.7787 -0.3143  0.2643
 2097SOL    HW2 8154   4.870   5.057   1.828 -0.6213 -1.4381  0.4292
 2097SOL    HW3 8155   4.909   5.018   1.687  0.3737 -0.1797  0.3450
 2097SOL    MW4 8156   4.911   5.004   1.773  0.5405 -0.4448  0.2967
 2098SOL     OW 8157   0.774   6.235   0.137  0.2511 -0.6020 -0.0498
 2098SOL    HW2 8158   0.767   6.145   0.171  2.5403 -1.2133 -0.9926
 2098SOL    HW3 8159   0.789   6.224   0.043 -1.6997  0.9136 -0.6092
 2098SOL    MW4 8160   0.775   6.222   0.129  0.2958 -0.4827 -0.2480
 2099SOL     OW 8161   4.609   5.476   0.062 -0.1984 -0.2017 -0.1783
 2099SOL    HW2 8162   4.652   5.417   0.124 -2.7432 -0.4580  1.4547
 2099SOL    HW3 8163   4.539   5.425   0.024 -0.5374  0.8717 -1.0560
 2099SOL    MW4 8164   4.606   5.462   0.065 -0.5789 -0.0939 -0.0786
 2100SOL     OW 8165   5.463   2.029   6.229  0.1573  0.3526 -0.1126
 2100SOL    HW2 8166   5.489   2.012   6.139 -0.7620 -0.9566 -0.1502
 2100SOL    HW3 8167   5.501   1.957   6.279 -0.9679 -0.0096  0.2451
 2100SOL    MW4 8168   5.471   2.018   6.224 -0.1124  0.1321 -0.0704
 2101SOL     OW 8169   2.501   5.403   3.706  0.1987 -0.1303  0.7245
 2101SOL    HW2 8170   2.572   5.348   3.671  1.3649  1.9343 -0.3577
 2101SOL    HW3 8171   2.524   5.492   3.678 -2.4915  0.7142  0.9455
 2101SOL    MW4 8172   2.514   5.408   3.698 -0.0024  0.2535  0.6109
 2102SOL     OW 8173   3.001   4.918   4.689 -0.2712  0.1568  0.4762
 2102SOL    HW2 8174   2.913   4.935   4.722 -0.8782  1.0190 -1.4520
 2102SOL    HW3 8175   3.055   4.985   4.731 -1.0575  1.3699 -0.3793
 2102SOL    MW4 8176   2.996   4.929   4.699 -0.4550  0.4306  0.1089
 2103SOL     OW 8177   2.656   5.021   0.396 -0.3368  0.0045 -0.4471
 2103SOL    HW2 8178   2.649   4.979   0.310  2.6571 -1.1655 -0.2165
 2103SOL    HW3 8179   2.575   4.996   0.442  0.0169 -3.1676 -1.3368
 2103SOL    MW4 8180   2.644   5.012   0.391  0.1049 -0.5684 -0.5340
 2104SOL     OW 8181   1.784   2.396   0.566  0.2292 -0.0711 -0.1548
 2104SOL    HW2 8182   1.863   2.371   0.518 -0.2915 -0.6545 -0.7272
 2104SOL    HW3 8183   1.713   2.385   0.503 -0.4056 -0.2925  0.5823
 2104SOL    MW4 8184   1.785   2.391   0.551  0.0768 -0.1773 -0.1331
 2105SOL     OW 8185   0.985   5.576   2.305 -0.5130 -0.0883 -0.3120
 2105SOL    HW2 8186   1.050   5.623   2.253 -0.4617  0.2683  0.0699
 2105SOL    HW3 8187   1.020   5.577   2.394 -0.9950  0.0139 -0.1212
 2105SOL    MW4 8188   0.998   5.582   2.310 -0.5699 -0.0277 -0.2365
 2106SOL     OW 8189   1.916   5.175   3.649 -0.0188 -0.3030 -0.0013
 2106SOL    HW2 8190   1.877   5.104   3.596  0.1764  0.7753 -1.6694
 2106SOL    HW3 8191   1.842   5.209   3.700 -0.0807 -1.7907  0.9709
 2106SOL    MW4 8192   1.901   5.170   3.649 -0.0012 -0.3570 -0.0931
 2107SOL     OW 8193   0.553   1.892   0.942 -0.3491 -0.1624 -0.5330
 2107SOL    HW2 8194   0.629   1.937   0.979  0.3442  0.4013 -2.4833
 2107SOL    HW3 8195   0.489   1.962   0.927 -0.9983 -0.5313  0.4668
 2107SOL    MW4 8196   0.554   1.907   0.945 -0.3433 -0.1367 -0.6584
 2108SOL     OW 8197   2.371   5.891   0.861 -0.0589  0.1909 -0.0161
 2108SOL    HW2 8198   2.292   5.841   0.878 -0.3955  0.7649  0.1438
 2108SOL    HW3 8199   2.359   5.973   0.910  0.6727  0.2438  0.0863
 2108SOL    MW4 8200   2.359   5.895   0.870 -0.0068  0.2736  0.0185
 2109SOL     OW 8201   5.427   2.347   2.246  0.2569 -0.1880 -0.2337
 2109SOL    HW2 8202   5.472   2.317   2.167  0.5279 -1.3837  0.3472
 2109SOL    HW3 8203   5.477   2.424   2.273  0.3173  0.0840 -1.0757
 2109SOL    MW4 8204   5.440   2.353   2.239  0.3006 -0.3099 -0.2682
 2110SOL     OW 8205   3.039   2.382   3.420  0.2073 -0.2058  0.0385
 2110SOL    HW2 8206   3.037   2.458   3.479  2.7301 -0.8965  1.1698
 2110SOL    HW3 8207   2.970   2.324   3.452 -0.3563  0.6917  0.4784
 2110SOL    MW4 8208   3.030   2.384   3.432  0.4658 -0.1785  0.2458
 2111SOL     OW 8209   3.430   2.829   5.148 -0.4228 -0.1025 -0.2304
 2111SOL    HW2 8210   3.430   2.817   5.053 -0.0760  0.4452 -0.3071
 2111SOL    HW3 8211   3.430   2.924   5.160 -0.1494 -0.1654  0.3102
 2111SOL    MW4 8212   3.430   2.840   5.137 -0.3410 -0.0386 -0.1692
 2112SOL     OW 8213   3.913   0.429   0.555 -0.1481 -0.1370 -0.1339
 2112SOL    HW2 8214   3.843   0.400   0.614 -1.7980  0.7753 -1.5691
 2112SOL    HW3 8215   3.870   0.488   0.493  1.7324 -0.2284 -1.6156
 2112SOL    MW4 8216   3.898   0.433   0.555 -0.1177 -0.0287 -0.5188
 2113SOL     OW 8217   5.286   1.556   4.885 -0.0499 -0.6946 -0.5300
 2113SOL    HW2 8218   5.275   1.622   4.816  0.5077 -0.7055 -0.6373
 2113SOL    HW3 8219   5.239   1.479   4.853  0.0025 -0.6199 -0.7897
 2113SOL    MW4 8220   5.278   1.555   4.871  0.0306 -0.6862 -0.5784
 2114SOL     OW 8221   2.166   2.029   4.132 -0.1868  0.0696 -0.1308
 2114SOL    HW2 8222   2.162   2.124   4.145 -0.2760 -0.1883  2.3527
 2114SOL    HW3 8223   2.076   2.005   4.109 -0.4237  0.5039  0.2912
 2114SOL    MW4 8224   2.153   2.039   4.131 -0.2298  0.0929  0.2526
 2115SOL     OW 8225   5.881   4.329   3.424 -0.1374  0.0053 -0.4430
 2115SOL    HW2 8226   5.941   4.269   3.380  0.0681 -0.6538  0.6855
 2115SOL    HW3 8227   5.809   4.273   3.454 -1.1006  0.7123 -1.3745
 2115SOL    MW4 8228   5.879   4.314   3.422 -0.2373  0.0116 -0.4170
 2116SOL     OW 8229   0.861   5.763   1.994  0.8631 -0.0166  0.0486
 2116SOL    HW2 8230   0.835   5.776   2.086  0.6736  1.1778 -0.1535
 2116SOL    HW3 8231   0.781   5.781   1.945  1.8799  3.6175 -0.5849
 2116SOL    MW4 8232   0.847   5.767   2.000  0.9723  0.6205 -0.0617
 2117SOL     OW 8233   0.254   2.630   1.337 -0.2150 -0.2306 -0.5240
 2117SOL    HW2 8234   0.297   2.606   1.419 -1.7398 -2.4043 -0.2926
 2117SOL    HW3 8235   0.163   2.646   1.360 -0.8629 -1.7003 -1.8826
 2117SOL    MW4 8236   0.248   2.629   1.351 -0.5016 -0.7113 -0.6727
 2118SOL     OW 8237   2.969   5.037   6.062 -0.1133  0.0118 -0.6504
 2118SOL    HW2 8238   3.062   5.016   6.077 -0.0320  0.7145 -0.1288
 2118SOL    HW3 8239   2.962   5.130   6.082 -1.2607 -0.3687  0.8458
 2118SOL    MW4 8240   2.981   5.046   6.067 -0.2540  0.0543 -0.3841
 2119SOL     OW 8241   1.678   1.882   3.773 -0.1336  0.3621 -0.3507
 2119SOL    HW2 8242   1.631   1.876   3.856  0.4610 -0.1410 -0.0413
 2119SOL    HW3 8243   1.672   1.795   3.735  1.5973 -0.0787  0.2900
 2119SOL    MW4 8244   1.671   1.870   3.779  0.1732  0.2375 -0.2253
 2120SOL     OW 8245   2.028   6.360   1.801 -0.5471 -0.4655  0.4875
 2120SOL    HW2 8246   1.988   6.332   1.718 -1.3243 -1.1383  1.0628
 2120SOL    HW3 8247   2.082   6.286   1.827 -1.2593 -0.7644  1.1689
 2120SOL    MW4 8248   2.030   6.346   1.794 -0.7436 -0.5937  0.6533
 2121SOL     OW 8249   5.974   4.090   5.545 -0.3724 -0.1799 -0.2202
 2121SOL    HW2 8250   6.057   4.052   5.515 -0.0538  1.0756 -0.9851
 2121SOL    HW3 8251   5.944   4.143   5.472 -0.3671  1.7313  1.1074
 2121SOL    MW4 8252   5.981   4.092   5.531 -0.3297  0.2379 -0.1460
 2122SOL     OW 8253   4.554   1.969   5.287 -0.6955 -0.0555 -0.3005
 2122SOL    HW2 8254   4.533   2.034   5.221  2.3538  0.3417 -1.0451
 2122SOL    HW3 8255   4.580   1.891   5.238 -1.1714 -0.7418  0.5027
 2122SOL    MW4 8256   4.555   1.967   5.272 -0.3560 -0.0936 -0.2928
 2123SOL     OW 8257   2.108   4.853   4.051 -0.3708 -0.1486  0.2575
 2123SOL    HW2 8258   2.129   4.760   4.064 -0.2354 -0.0808  0.5485
 2123SOL    HW3 8259   2.018   4.854   4.020  0.1860 -0.4804 -1.4778
 2123SOL    MW4 8260   2.099   4.841   4.049 -0.2795 -0.1834  0.0669
 2124SOL     OW 8261   3.307   2.885   0.987  0.6567 -0.2094 -0.2498
 2124SOL    HW2 8262   3.215   2.862   0.994  1.0060 -1.7532 -0.2741
 2124SOL    HW3 8263   3.319   2.959   1.046 -0.6649  0.2476 -0.5342
 2124SOL    MW4 8264   3.297   2.892   0.995  0.5284 -0.3528 -0.2905
 2125SOL     OW 8265   1.853   1.460   0.742 -0.4367  0.0755 -0.3973
 2125SOL    HW2 8266   1.778   1.406   0.766  0.5121 -0.3561  1.8437
 2125SOL    HW3 8267   1.921   1.398   0.717 -0.2969  0.3921 -0.8227
 2125SOL    MW4 8268   1.852   1.445   0.742 -0.2931  0.0604 -0.1577
 2126SOL     OW 8269   0.970   2.879   5.447 -0.0864  0.1626  0.1678
 2126SOL    HW2 8270   0.920   2.868   5.528  0.0642 -0.0725  0.2315
 2126SOL    HW3 8271   0.911   2.850   5.378 -0.2422  0.4361  0.1858
 2126SOL    MW4 8272   0.956   2.873   5.448 -0.0871  0.1676  0.1786
 2127SOL     OW 8273   5.861   2.134   5.348 -0.2702  0.2224  0.2907
 2127SOL    HW2 8274   5.826   2.048   5.374 -0.7929 -0.0110 -1.1016
 2127SOL    HW3 8275   5.817   2.154   5.266  2.6691 -0.0058 -1.5088
 2127SOL    MW4 8276   5.851   2.125   5.340  0.0486  0.1615 -0.1304
 2128SOL     OW 8277   3.923   1.347   1.044  0.0609  0.1382 -0.1726
 2128SOL    HW2 8278   3.892   1.398   0.968 -0.3393 -1.5611 -1.1944
 2128SOL    HW3 8279   4.016   1.370   1.051  0.0765  0.4340 -1.1066
 2128SOL    MW4 8280   3.931   1.357   1.035  0.0102 -0.0470 -0.4306
 2129SOL     OW 8281   4.933   0.371   4.177 -0.1808 -0.0933 -0.2465
 2129SOL    HW2 8282   4.997   0.304   4.151  0.7122 -0.0230  1.5924
 2129SOL    HW3 8283   4.931   0.432   4.103  2.8492  0.5673  0.0754
 2129SOL    MW4 8284   4.941   0.370   4.163  0.3368  0.0032  0.0386
 2130SOL     OW 8285   3.911   6.171   4.392  0.0460 -0.3228  0.7923
 2130SOL    HW2 8286   3.951   6.085   4.385  0.7157  0.1486 -2.4017
 2130SOL    HW3 8287   3.817   6.155   4.392  0.1563 -1.0609  1.4920
 2130SOL    MW4 8288   3.904   6.158   4.391  0.1489 -0.3580  0.4632
 2131SOL     OW 8289   6.366   3.063   3.470  0.2919 -0.9127 -0.4440
 2131SOL    HW2 8290   6.331   3.050   3.382 -0.8179 -0.3751 -0.1119
 2131SOL    HW3 8291   6.461   3.067   3.459  0.1610 -0.8181 -1.6176
 2131SOL    MW4 8292   6.374   3.062   3.457  0.1282 -0.8293 -0.5550
 2132SOL     OW 8293   2.617   5.138   0.698 -0.2197 -0.7370 -0.2719
 2132SOL    HW2 8294   2.706   5.103   0.688 -0.5639 -1.8162  0.3492
 2132SOL    HW3 8295   2.601   5.185   0.616  1.2602  0.2572 -0.0319
 2132SOL    MW4 8296   2.627   5.140   0.685 -0.0699 -0.7482 -0.1583
 2133SOL     OW 8297   3.110   0.154   1.174  0.6012 -0.1741  0.9180
 2133SOL    HW2 8298   3.021   0.149   1.137  0.9615  0.5151 -0.1045
 2133SOL    HW3 8299   3.099   0.128   1.265 -0.7535  0.3883  0.9519
 2133SOL    MW4 8300   3.097   0.150   1.181  0.4700 -0.0090  0.7875
 2134SOL     OW 8301   1.380   6.408   1.783  0.1141 -0.4410  0.1606
 2134SOL    HW2 8302   1.321   6.339   1.755  0.0310 -0.2966 -0.0196
 2134SOL    HW3 8303   1.404   6.384   1.873  1.1340 -1.4169 -0.3408
 2134SOL    MW4 8304   1.376   6.396   1.791  0.2377 -0.5507  0.0706
 2135SOL     OW 8305   0.458   1.127   5.489  0.1047 -0.3438  0.0311
 2135SOL    HW2 8306   0.454   1.032   5.501  1.3862 -0.4053  0.0116
 2135SOL    HW3 8307   0.491   1.139   5.400  0.7211  0.1214  0.3176
 2135SOL    MW4 8308   0.462   1.116   5.479  0.3551 -0.2906  0.0663
 2136SOL     OW 8309   2.219   2.328   1.792  0.7176 -0.7348  0.0536
 2136SOL    HW2 8310   2.264   2.243   1.789  0.6144 -0.9878  3.0639
 2136SOL    HW3 8311   2.284   2.387   1.830 -0.1298 -0.1445  0.6018
 2136SOL    MW4 8312   2.234   2.324   1.796  0.5922 -0.6903  0.5231
 2137SOL     OW 8313   4.964   4.852   3.034  0.4535 -0.0941 -0.1308
 2137SOL    HW2 8314   4.967   4.765   2.993  2.4764  0.3612 -1.0847
 2137SOL    HW3 8315   5.013   4.908   2.974  1.7212  1.0686  1.8759
 2137SOL    MW4 8316   4.971   4.848   3.021  0.8877  0.1194  0.0081
 2138SOL     OW 8317   6.128   3.092   3.686  0.0060 -0.2053  0.9949
 2138SOL    HW2 8318   6.188   3.142   3.741 -0.2190  2.4269 -0.9541
 2138SOL    HW3 8319   6.041   3.127   3.706 -0.2722 -0.4343  0.2421
 2138SOL    MW4 8320   6.125   3.103   3.696 -0.0604  0.1117  0.6384
 2139SOL     OW 8321   2.320   6.328   3.378 -0.2451  0.0350  0.0822
 2139SOL    HW2 8322   2.408   6.297   3.356 -0.1718  0.7769 -0.7423
 2139SOL    HW3 8323   2.323   6.422   3.362 -1.7042 -0.1739 -1.9106
 2139SOL    MW4 8324   2.332   6.336   3.373 -0.4280  0.1053 -0.2895
 2140SOL     OW 8325   2.349   2.158   5.688 -0.3129 -0.4138  0.0204
 2140SOL    HW2 8326   2.256   2.137   5.691 -0.3837 -0.0815  0.1787
 2140SOL    HW3 8327   2.388   2.100   5.754 -0.7710  1.2263  1.8348
 2140SOL    MW4 8328   2.342   2.148   5.697 -0.3827 -0.1536  0.2807
 2141SOL     OW 8329   5.740   2.090   5.967  0.2853 -0.2235  0.1856
 2141SOL    HW2 8330   5.799   2.142   5.913  0.7626  0.1182  1.0352
 2141SOL    HW3 8331   5.791   2.012   5.990 -0.1811 -0.7442 -0.4806
 2141SOL    MW4 8332   5.754   2.086   5.963  0.2868 -0.2471  0.2098
 2142SOL     OW 8333   6.417   5.881   5.383 -0.4211 -0.1856 -0.7452
 2142SOL    HW2 8334   6.414   5.931   5.464  1.4654  1.4317 -1.5789
 2142SOL    HW3 8335   6.435   5.946   5.315  2.9763 -1.9702 -1.8089
 2142SOL    MW4 8336   6.419   5.896   5.384  0.2760 -0.2077 -0.9956
 2143SOL     OW 8337   6.305   0.293   3.160 -0.1730 -0.6651  0.5409
 2143SOL    HW2 8338   6.240   0.227   3.185 -0.1069 -0.9347  0.0366
 2143SOL    HW3 8339   6.299   0.360   3.228 -1.9898  0.0401 -0.2366
 2143SOL    MW4 8340   6.296   0.293   3.172 -0.4040 -0.6077  0.3718
 2144SOL     OW 8341   0.482   1.105   3.896 -0.3892  0.7007 -0.3069
 2144SOL    HW2 8342   0.484   1.048   3.819 -0.4823  0.4389 -0.1187
 2144SOL    HW3 8343   0.551   1.069   3.953 -0.8548  0.4001  0.0755
 2144SOL    MW4 8344   0.492   1.093   3.893 -0.4629  0.6265 -0.2316
 2145SOL     OW 8345   4.954   4.080   0.927 -0.5663 -0.1057  0.4133
 2145SOL    HW2 8346   4.895   4.153   0.905 -1.2250 -1.2197 -1.7548
 2145SOL    HW3 8347   5.041   4.112   0.903 -0.9696 -0.3293 -1.5623
 2145SOL    MW4 8348   4.958   4.094   0.921 -0.7064 -0.2822 -0.1334
 2146SOL     OW 8349   4.593   2.383   5.016 -0.3361 -0.1248 -0.3356
 2146SOL    HW2 8350   4.665   2.446   5.018  0.1443 -0.6728 -0.2131
 2146SOL    HW3 8351   4.617   2.321   4.947  0.3526 -1.5209  1.1008
 2146SOL    MW4 8352   4.606   2.383   5.007 -0.1819 -0.3813 -0.1299
 2147SOL     OW 8353   6.407   0.095   1.578  0.1230 -0.0405  0.0497
 2147SOL    HW2 8354   6.416  -0.001   1.579  2.0177  0.0868  1.5526
 2147SOL    HW3 8355   6.400   0.118   1.486  0.3194 -1.5907 -0.3758
 2147SOL    MW4 8356   6.407   0.085   1.566  0.3989 -0.2282  0.1919
 2148SOL     OW 8357   1.848   4.636   4.321  0.1440  0.0058 -0.1109
 2148SOL    HW2 8358   1.896   4.717   4.336 -1.2852  0.9017 -0.2341
 2148SOL    HW3 8359   1.785   4.632   4.392 -0.7040 -0.2958 -0.8608
 2148SOL    MW4 8360   1.846   4.646   4.332 -0.1565  0.0842 -0.2261
 2149SOL     OW 8361   3.353   5.724   3.462 -0.4944 -0.0409  0.2302
 2149SOL    HW2 8362   3.300   5.653   3.497 -0.0933 -0.4012  0.1077
 2149SOL    HW3 8363   3.410   5.683   3.398 -1.8366  0.7384 -1.5382
 2149SOL    MW4 8364   3.353   5.709   3.458 -0.6186  0.0144 -0.0193
 2150SOL     OW 8365   0.048   0.384   5.998 -0.3763 -0.3012  0.7993
 2150SOL    HW2 8366  -0.037   0.353   5.966  0.0864 -0.6968 -0.1002
 2150SOL    HW3 8367   0.112   0.329   5.952  0.3595 -0.3133  1.8030
 2150SOL    MW4 8368   0.045   0.372   5.988 -0.2182 -0.3550  0.8130
 2151SOL     OW 8369   6.270   5.014   3.846  0.1283 -0.4685 -0.4432
 2151SOL    HW2 8370   6.360   4.990   3.824 -0.1700 -0.0598 -2.2935
 2151SOL    HW3 8371   6.232   5.044   3.763 -1.8069 -0.8985  0.2265
 2151SOL    MW4 8372   6.277   5.015   3.832 -0.1664 -0.4713 -0.5990
 2152SOL     OW 8373   2.814   2.894   2.288  0.2118 -0.3092 -0.2464
 2152SOL    HW2 8374   2.764   2.838   2.348  0.8926 -0.1110  0.5182
 2152SOL    HW3 8375   2.766   2.977   2.288 -0.8468 -0.8895 -1.4460
 2152SOL    MW4 8376   2.801   2.897   2.296  0.1620 -0.3596 -0.3038
 2153SOL     OW 8377   2.683   1.452   2.974 -0.2667 -0.6298  0.3803
 2153SOL    HW2 8378   2.676   1.375   3.030 -2.0109 -1.0647 -0.3608
 2153SOL    HW3 8379   2.599   1.496   2.983  1.2305  2.1671  2.0692
 2153SOL    MW4 8380   2.671   1.448   2.982 -0.2993 -0.3182  0.5053
 2154SOL     OW 8381   4.978   5.478   5.963  0.0514  0.1621 -0.0067
 2154SOL    HW2 8382   4.894   5.494   5.921 -1.3036 -0.6100  2.2675
 2154SOL    HW3 8383   4.986   5.547   6.029  1.0419  0.0044  0.0559
 2154SOL    MW4 8384   4.968   5.489   5.966  0.0033  0.0394  0.3016
 2155SOL     OW 8385   4.332   3.532   5.557 -0.0725  0.5999 -0.1299
 2155SOL    HW2 8386   4.375   3.516   5.641 -1.3829  0.3661  0.5187
 2155SOL    HW3 8387   4.362   3.461   5.500  2.6398  2.0115 -0.6352
 2155SOL    MW4 8388   4.342   3.520   5.560  0.1125  0.7553 -0.1110
 2156SOL     OW 8389   5.000   3.335   0.551 -0.5605  1.1126  0.1133
 2156SOL    HW2 8390   4.956   3.418   0.567 -3.0328  0.0220 -0.6555
 2156SOL    HW3 8391   4.988   3.319   0.458 -0.7945 -0.4767  0.3985
 2156SOL    MW4 8392   4.993   3.344   0.541 -0.9176  0.7590  0.0495
 2157SOL     OW 8393   1.437   0.651   1.887 -0.0186 -0.2772  0.5555
 2157SOL    HW2 8394   1.452   0.745   1.883 -1.5494  0.0777  2.0036
 2157SOL    HW3 8395   1.350   0.638   1.851 -0.6418 -0.8504  2.1657
 2157SOL    MW4 8396   1.428   0.661   1.882 -0.3028 -0.3060  0.9590
 2158SOL     OW 8397   5.034   1.165   2.880 -0.2492 -0.1245  0.3633
 2158SOL    HW2 8398   5.040   1.250   2.925 -0.0773  0.3512 -0.5420
 2158SOL    HW3 8399   4.988   1.185   2.799  0.1081 -0.8437 -0.0161
 2158SOL    MW4 8400   5.029   1.179   2.875 -0.1794 -0.1567  0.1938
 2159SOL     OW 8401   4.046   1.859   5.516  0.6334 -0.1637  0.2458
 2159SOL    HW2 8402   4.025   1.766   5.503 -1.0497  0.2039  0.1553
 2159SOL    HW3 8403   3.961   1.903   5.520  1.3976  1.3776  0.3561
 2159SOL    MW4 8404   4.032   1.852   5.514  0.5122  0.0881  0.2484
 2160SOL     OW 8405   3.203   0.278   2.656 -0.1079  0.7624 -0.1644
 2160SOL    HW2 8406   3.214   0.266   2.561  0.9273 -1.1725  0.1346
 2160SOL    HW3 8407   3.285   0.244   2.693 -1.0562  0.1932  1.4944
 2160SOL    MW4 8408   3.215   0.272   2.648 -0.0964  0.4320  0.0939
 2161SOL     OW 8409   6.334   0.904   3.378  0.3601  0.2798 -0.5328
 2161SOL    HW2 8410   6.263   0.960   3.409 -0.9627 -0.5464 -1.8954
 2161SOL    HW3 8411   6.323   0.823   3.427  0.5791  0.2675 -0.5032
 2161SOL    MW4 8412   6.323   0.901   3.389  0.2145  0.1692 -0.7087
 2162SOL     OW 8413   2.958   2.630   4.584  0.5126  0.4741  0.0424
 2162SOL    HW2 8414   2.881   2.686   4.590 -0.5477 -0.7011 -1.7608
 2162SOL    HW3 8415   2.959   2.599   4.493 -0.1612 -4.0299  1.3305
 2162SOL    MW4 8416   2.948   2.634   4.573  0.2838 -0.2752 -0.0256
 2163SOL     OW 8417   2.780   1.394   0.237  0.2514 -0.5592 -0.1046
 2163SOL    HW2 8418   2.723   1.317   0.241 -0.5250 -0.0179 -0.4141
 2163SOL    HW3 8419   2.853   1.372   0.294 -0.3138 -1.2397  0.3848
 2163SOL    MW4 8420   2.782   1.381   0.245  0.0744 -0.5776 -0.0809
 2164SOL     OW 8421   4.914   0.940   4.004 -0.3072 -0.0892 -0.3875
 2164SOL    HW2 8422   4.854   0.965   4.075 -0.5198 -0.9989 -0.2394
 2164SOL    HW3 8423   4.977   0.882   4.045 -0.4330 -0.6255 -0.9434
 2164SOL    MW4 8424   4.914   0.936   4.019 -0.3519 -0.2800 -0.4413
 2165SOL     OW 8425   2.034   1.566   4.678 -0.2768 -0.2777  0.3082
 2165SOL    HW2 8426   2.105   1.520   4.633 -2.2674 -0.3528 -2.9981
 2165SOL    HW3 8427   2.044   1.658   4.652 -0.3284  0.0555  1.3893
 2165SOL    MW4 8428   2.045   1.572   4.669 -0.5462 -0.2437  0.0146
 2166SOL     OW 8429   1.056   1.852   0.796 -0.2741 -0.3085 -0.6939
 2166SOL    HW2 8430   1.086   1.936   0.830 -1.3397 -0.0284 -0.4279
 2166SOL    HW3 8431   0.963   1.848   0.818 -1.3498  0.3220 -4.3942
 2166SOL    MW4 8432   1.048   1.862   0.803 -0.5567 -0.1884 -1.1470
 2167SOL     OW 8433   2.468   2.465   2.618  0.1102  0.1919 -0.3538
 2167SOL    HW2 8434   2.532   2.511   2.563  0.1217 -0.2632 -0.7317
 2167SOL    HW3 8435   2.502   2.473   2.707 -0.3545  1.7040 -0.2740
 2167SOL    MW4 8436   2.481   2.472   2.622  0.0504  0.3314 -0.3932
 2168SOL     OW 8437   4.493   0.716   4.087  0.4152  0.8905  0.1415
 2168SOL    HW2 8438   4.555   0.667   4.033 -1.0429  0.8272 -1.5686
 2168SOL    HW3 8439   4.490   0.804   4.048 -0.7656  0.8052 -0.0131
 2168SOL    MW4 8440   4.501   0.721   4.075  0.0670  0.8709 -0.1045
 2169SOL     OW 8441   0.758   3.653   2.427  0.1315  0.5145  1.0899
 2169SOL    HW2 8442   0.828   3.593   2.453 -0.3998 -0.8844 -0.5122
 2169SOL    HW3 8443   0.677   3.605   2.447 -0.3017  0.5303 -0.4908
 2169SOL    MW4 8444   0.757   3.639   2.433  0.0043  0.3320  0.6700
 2170SOL     OW 8445   2.118   4.689   4.823 -0.1961  0.0459  0.4933
 2170SOL    HW2 8446   2.147   4.711   4.734 -0.2463  1.0311  0.7168
 2170SOL    HW3 8447   2.197   4.696   4.876 -0.0082 -1.2439  0.4298
 2170SOL    MW4 8448   2.132   4.693   4.818 -0.1780  0.0057  0.5144
 2171SOL     OW 8449   4.817   1.951   3.438  0.1506 -0.0705  0.2178
 2171SOL    HW2 8450   4.735   1.948   3.388 -0.0923  0.2165  0.5930
 2171SOL    HW3 8451   4.882   1.911   3.380 -0.2393 -0.2348 -0.1126
 2171SOL    MW4 8452   4.815   1.945   3.424  0.0671 -0.0543  0.2237
 2172SOL     OW 8453   5.741   4.472   5.259 -0.0636  0.7943 -0.2410
 2172SOL    HW2 8454   5.667   4.466   5.320 -0.7335  1.2295 -0.9970
 2172SOL    HW3 8455   5.802   4.405   5.289 -0.8512  0.2946  0.2740
 2172SOL    MW4 8456   5.740   4.463   5.271 -0.2559  0.7858 -0.2728
 2173SOL     OW 8457   4.695   4.140   0.465  0.6305  0.1261  0.0354
 2173SOL    HW2 8458   4.766   4.180   0.415  0.0880 -0.7356 -1.4837
 2173SOL    HW3 8459   4.720   4.048   0.475  1.3169  0.5063  2.4900
 2173SOL    MW4 8460   4.707   4.133   0.460  0.6495  0.0626  0.1588
 2174SOL     OW 8461   2.541   3.705   4.302 -0.1486 -0.0327 -0.1031
 2174SOL    HW2 8462   2.548   3.734   4.392  0.2149  3.8402 -1.1878
 2174SOL    HW3 8463   2.447   3.705   4.284 -0.1459  1.6841 -0.3204
 2174SOL    MW4 8464   2.530   3.709   4.311 -0.1003  0.7048 -0.2749
 2175SOL     OW 8465   1.685   4.129   3.886 -0.6618 -0.0444  0.0289
 2175SOL    HW2 8466   1.690   4.037   3.912 -1.7746  0.0327  0.5919
 2175SOL    HW3 8467   1.764   4.169   3.923  0.6846 -1.0574 -1.5884
 2175SOL    MW4 8468   1.696   4.122   3.894 -0.6310 -0.1679 -0.1102
 2176SOL     OW 8469   1.042   5.694   6.239  0.2878  0.1048  0.3536
 2176SOL    HW2 8470   1.052   5.629   6.169  1.1699 -2.2702  2.5503
 2176SOL    HW3 8471   1.130   5.730   6.251  0.9451 -1.9296  2.3446
 2176SOL    MW4 8472   1.055   5.690   6.231  0.4909 -0.4770  0.9061
 2177SOL     OW 8473   3.620   4.952   4.172 -0.0911 -0.0392 -0.0348
 2177SOL    HW2 8474   3.609   5.024   4.234 -0.6979 -0.1360 -0.0242
 2177SOL    HW3 8475   3.568   4.881   4.209 -0.7898  0.0338 -0.8569
 2177SOL    MW4 8476   3.612   4.952   4.185 -0.2633 -0.0423 -0.1419
 2178SOL     OW 8477   1.261   3.812   2.814  0.3163 -0.2009 -0.0212
 2178SOL    HW2 8478   1.201   3.744   2.783  1.6106 -1.0962 -0.6613
 2178SOL    HW3 8479   1.261   3.878   2.744  0.1055 -0.2111 -0.0306
 2178SOL    MW4 8480   1.254   3.812   2.800  0.4593 -0.3204 -0.1069
 2179SOL     OW 8481   3.542   0.349   3.963 -0.5169  0.5814  0.4296
 2179SOL    HW2 8482   3.571   0.267   3.925  0.9772  0.5995  1.4473
 2179SOL    HW3 8483   3.539   0.411   3.890  2.5664  0.7038  0.3066
 2179SOL    MW4 8484   3.545   0.347   3.949  0.0870  0.6000  0.5477
 2180SOL     OW 8485   4.152   4.251   4.874 -0.4205  0.2273  0.5154
 2180SOL    HW2 8486   4.240   4.241   4.838 -0.8787  1.4395 -1.0462
 2180SOL    HW3 8487   4.107   4.169   4.852 -0.0958  0.1704  0.0664
 2180SOL    MW4 8488   4.157   4.239   4.866 -0.4381  0.3798  0.2501
 2181SOL     OW 8489   0.338   1.929   4.959  0.3110  0.2168 -0.1027
 2181SOL    HW2 8490   0.408   1.975   4.911  0.4902 -0.5967 -0.6319
 2181SOL    HW3 8491   0.356   1.949   5.051  1.9320 -0.9108 -0.1353
 2181SOL    MW4 8492   0.350   1.938   4.965  0.5485 -0.0393 -0.1768
 2182SOL     OW 8493   3.186   1.243   2.217 -0.8574 -0.3446 -0.4386
 2182SOL    HW2 8494   3.221   1.323   2.179 -1.5362 -0.5042 -1.4282
 2182SOL    HW3 8495   3.099   1.268   2.251 -0.8607 -0.5478 -0.2924
 2182SOL    MW4 8496   3.179   1.257   2.217 -0.9474 -0.3924 -0.5499
 2183SOL     OW 8497   5.406   1.281   0.514  0.2465  0.4180 -0.4690
 2183SOL    HW2 8498   5.368   1.211   0.568  1.4077 -1.3037 -1.7494
 2183SOL    HW3 8499   5.353   1.280   0.434  0.1922  1.1051 -0.4401
 2183SOL    MW4 8500   5.394   1.271   0.510  0.3926  0.2815 -0.6341
 2184SOL     OW 8501   0.211   5.829   1.605 -0.4744  0.1735 -0.2765
 2184SOL    HW2 8502   0.252   5.911   1.575 -1.0061  0.5620  0.0377
 2184SOL    HW3 8503   0.285   5.776   1.635 -0.1233  0.5534 -0.4420
 2184SOL    MW4 8504   0.226   5.833   1.605 -0.4982  0.2749 -0.2568
 2185SOL     OW 8505   4.752   2.238   0.482 -0.3003 -0.4392 -0.5417
 2185SOL    HW2 8506   4.845   2.244   0.459 -0.4140  0.0575 -0.8909
 2185SOL    HW3 8507   4.714   2.181   0.415 -0.2267 -0.7160 -0.3452
 2185SOL    MW4 8508   4.759   2.232   0.470 -0.3056 -0.4102 -0.5619
 2186SOL     OW 8509   4.099   1.815   5.004 -0.0945  0.5666 -0.1105
 2186SOL    HW2 8510   4.194   1.823   5.002 -0.0039  0.1357  1.5426
 2186SOL    HW3 8511   4.082   1.721   5.003 -0.5193  0.6398 -0.4078
 2186SOL    MW4 8512   4.109   1.804   5.003 -0.1386  0.5194  0.0684
 2187SOL     OW 8513   2.277   1.434   4.876  0.0992 -0.7098 -0.5821
 2187SOL    HW2 8514   2.330   1.432   4.955 -1.1100 -2.0815  0.2435
 2187SOL    HW3 8515   2.192   1.465   4.905  0.8321  3.4305 -2.2293
 2187SOL    MW4 8516   2.273   1.438   4.890  0.0364 -0.3445 -0.6905
 2188SOL     OW 8517   1.265   4.419   1.500  0.0254 -0.2594 -0.5398
 2188SOL    HW2 8518   1.353   4.429   1.536 -0.5127 -3.2625  2.0974
 2188SOL    HW3 8519   1.251   4.324   1.499 -3.5193  0.1332  0.2137
 2188SOL    MW4 8520   1.275   4.408   1.505 -0.5133 -0.6038 -0.0924
 2189SOL     OW 8521   1.288   1.108   3.080 -0.5062 -0.2096 -0.1336
 2189SOL    HW2 8522   1.248   1.026   3.050  0.2847 -0.7134  0.1371
 2189SOL    HW3 8523   1.323   1.087   3.167  1.0390 -0.0531 -0.6788
 2189SOL    MW4 8524   1.287   1.094   3.087 -0.1980 -0.2554 -0.1698
 2190SOL     OW 8525   0.194   4.085   5.146 -0.0022 -0.0215  0.2469
 2190SOL    HW2 8526   0.164   4.175   5.157  1.3148  0.2013  3.0954
 2190SOL    HW3 8527   0.178   4.044   5.231  2.8465 -1.3175  0.2760
 2190SOL    MW4 8528   0.188   4.091   5.158  0.5474 -0.1631  0.6265
 2191SOL     OW 8529   2.811   5.238   0.311 -0.3099  0.1931  0.0484
 2191SOL    HW2 8530   2.826   5.307   0.376 -1.3861  0.2080  0.2951
 2191SOL    HW3 8531   2.757   5.173   0.357  1.5421 -1.3608  0.1648
 2191SOL    MW4 8532   2.806   5.239   0.326 -0.2076 -0.0100  0.0963
 2192SOL     OW 8533   2.456   2.254   1.478  0.0199 -0.2434  0.3222
 2192SOL    HW2 8534   2.524   2.225   1.539  0.2176  1.8238  1.1840
 2192SOL    HW3 8535   2.504   2.274   1.398  0.1562 -0.5568  0.3251
 2192SOL    MW4 8536   2.471   2.253   1.476  0.0640 -0.0120  0.4363
 2193SOL     OW 8537   3.649   3.456   1.503 -0.0115 -0.2143 -0.1364
 2193SOL    HW2 8538   3.595   3.411   1.569 -0.5357 -0.8151 -0.9432
 2193SOL    HW3 8539   3.595   3.455   1.424  1.2592 -1.0133 -1.0337
 2193SOL    MW4 8540   3.635   3.450   1.501  0.0870 -0.3990 -0.3613
 2194SOL     OW 8541   0.015   1.424   3.669 -0.4063 -0.8708 -0.3907
 2194SOL    HW2 8542  -0.003   1.330   3.671  0.0461 -0.9503 -0.0559
 2194SOL    HW3 8543   0.021   1.445   3.576 -1.6341 -0.9552 -0.5074
 2194SOL    MW4 8544   0.013   1.414   3.657 -0.5086 -0.8924 -0.3620
 2195SOL     OW 8545   4.906   4.106   1.572  0.3455  0.1962  1.0078
 2195SOL    HW2 8546   4.911   4.023   1.526  1.6154  0.7524  0.0520
 2195SOL    HW3 8547   4.976   4.159   1.533 -0.5063  1.7539  1.4898
 2195SOL    MW4 8548   4.916   4.102   1.561  0.4007  0.4751  0.9453
 2196SOL     OW 8549   4.725   4.685   3.961  0.1023  0.0066 -0.1982
 2196SOL    HW2 8550   4.737   4.603   3.912  0.9397 -0.2401  0.3896
 2196SOL    HW3 8551   4.814   4.719   3.971 -0.1878  0.6848  0.0766
 2196SOL    MW4 8552   4.738   4.679   3.955  0.1745  0.0635 -0.0844
 2197SOL     OW 8553   0.271   3.734   1.591 -0.2313 -0.4611  0.0698
 2197SOL    HW2 8554   0.267   3.734   1.495 -0.6150 -0.0940  0.0811
 2197SOL    HW3 8555   0.320   3.655   1.613  0.6352 -0.0824 -0.4572
 2197SOL    MW4 8556   0.277   3.723   1.581 -0.1676 -0.3627  0.0017
 2198SOL     OW 8557   4.937   2.572   6.453 -0.2279 -0.1080  0.8460
 2198SOL    HW2 8558   5.010   2.632   6.471 -0.9099  1.0682 -0.1454
 2198SOL    HW3 8559   4.860   2.621   6.480 -0.7284 -1.0134  1.0864
 2198SOL    MW4 8560   4.937   2.586   6.459 -0.3840 -0.0723  0.7469
 2199SOL     OW 8561   1.470   4.689   2.374 -0.5191  0.0564  0.6370
 2199SOL    HW2 8562   1.561   4.680   2.403 -0.2655  0.9733  0.1259
 2199SOL    HW3 8563   1.457   4.615   2.314  0.9397  1.7689 -1.9385
 2199SOL    MW4 8564   1.480   4.678   2.370 -0.2932  0.4033  0.2297
 2200SOL     OW 8565   3.210   1.628   1.798 -0.2409 -0.0914  0.4275
 2200SOL    HW2 8566   3.239   1.555   1.743  2.4179  0.1627  1.3619
 2200SOL    HW3 8567   3.126   1.598   1.833 -0.7845 -1.3233 -1.6838
 2200SOL    MW4 8568   3.203   1.614   1.795  0.0382 -0.2204  0.2722
 2201SOL     OW 8569   5.806   2.838   5.534  0.9558  0.3305  0.6235
 2201SOL    HW2 8570   5.812   2.909   5.470 -0.5444 -0.2670 -0.2332
 2201SOL    HW3 8571   5.834   2.878   5.617 -3.2198  3.0906  1.0340
 2201SOL    MW4 8572   5.810   2.853   5.537  0.2069  0.6158  0.5646
 2202SOL     OW 8573   0.209   3.011   5.057 -0.4584  0.2578  0.3562
 2202SOL    HW2 8574   0.255   3.080   5.010  0.0920  0.1673  0.7462
 2202SOL    HW3 8575   0.116   3.030   5.045 -0.3771  2.5766  2.6237
 2202SOL    MW4 8576   0.203   3.022   5.049 -0.3750  0.5518  0.7068
 2203SOL     OW 8577   4.893   5.271   6.287 -0.6328 -0.1735  0.2564
 2203SOL    HW2 8578   4.933   5.200   6.237  0.6855  1.4995 -1.1720
 2203SOL    HW3 8579   4.829   5.227   6.343  1.6839 -2.7638  1.1176
 2203SOL    MW4 8580   4.890   5.256   6.288 -0.1532 -0.2945  0.1816
 2204SOL     OW 8581   3.793   5.491   0.749 -0.3872  0.2729  0.0713
 2204SOL    HW2 8582   3.704   5.498   0.782 -0.8298  0.2037 -1.0791
 2204SOL    HW3 8583   3.802   5.564   0.687  0.2768  0.1289 -0.0131
 2204SOL    MW4 8584   3.783   5.502   0.745 -0.3580  0.2448 -0.0916
 2205SOL     OW 8585   5.954   6.153   3.589  0.0672  0.4159  0.1075
 2205SOL    HW2 8586   6.016   6.086   3.617  0.9962  1.3586  0.3745
 2205SOL    HW3 8587   5.914   6.184   3.670  0.6641  1.1544  0.1221
 2205SOL    MW4 8588   5.957   6.148   3.603  0.2685  0.6377  0.1447
 2206SOL     OW 8589   0.979   4.189   5.753  0.0175 -0.9058 -0.5182
 2206SOL    HW2 8590   0.927   4.216   5.829  0.5406  2.0165 -1.0680
 2206SOL    HW3 8591   0.914   4.162   5.688 -0.5328 -1.5543  0.2845
 2206SOL    MW4 8592   0.963   4.189   5.754  0.0139 -0.6058 -0.4848
 2207SOL     OW 8593   4.895   0.262   3.749 -0.1167 -0.0866 -0.0259
 2207SOL    HW2 8594   4.846   0.229   3.824  0.1497  0.7424  0.5234
 2207SOL    HW3 8595   4.920   0.183   3.700 -0.5700 -0.6124  0.5767
 2207SOL    MW4 8596   4.892   0.247   3.752 -0.1414 -0.0466  0.1261
 2208SOL     OW 8597   3.043   1.120   0.187  0.2928  0.5573 -0.6066
 2208SOL    HW2 8598   2.985   1.180   0.235  1.5664  0.7432  0.7886
 2208SOL    HW3 8599   3.068   1.169   0.108  0.6104  1.5424  0.0744
 2208SOL    MW4 8600   3.039   1.135   0.183  0.5027  0.7118 -0.3327
 2209SOL     OW 8601   5.328   4.827   0.138  0.1515 -0.5471 -0.4564
 2209SOL    HW2 8602   5.386   4.846   0.064 -1.2629 -0.1518 -1.5044
 2209SOL    HW3 8603   5.387   4.794   0.206  1.6414  0.0904 -1.3653
 2209SOL    MW4 8604   5.344   4.825   0.137  0.1614 -0.4109 -0.7146
 2210SOL     OW 8605   3.925   0.264   1.961  0.8167 -0.1163  0.1672
 2210SOL    HW2 8606   3.887   0.181   1.990  1.3206 -0.6839 -0.7391
 2210SOL    HW3 8607   3.954   0.247   1.872  2.8482  0.3818  0.6819
 2210SOL    MW4 8608   3.924   0.251   1.953  1.1512 -0.1255  0.1155
 2211SOL     OW 8609   0.656   4.482   2.110  0.1746 -0.4288 -0.3960
 2211SOL    HW2 8610   0.597   4.459   2.181 -0.3033 -0.3332 -0.7610
 2211SOL    HW3 8611   0.668   4.401   2.060 -1.1980 -0.0254 -1.4513
 2211SOL    MW4 8612   0.650   4.468   2.112 -0.0696 -0.3630 -0.5834
 2212SOL     OW 8613   5.566   4.009   1.518 -0.0257 -0.2129 -0.0990
 2212SOL    HW2 8614   5.540   4.007   1.426 -0.1037 -0.5286 -0.0741
 2212SOL    HW3 8615   5.485   4.030   1.565  0.2865  1.2555 -0.1883
 2212SOL    MW4 8616   5.552   4.011   1.512  0.0052 -0.0608 -0.1075
 2213SOL     OW 8617   3.996   1.885   2.356  0.1581  0.0092  0.0817
 2213SOL    HW2 8618   3.975   1.829   2.431 -0.1814  0.0622  0.0248
 2213SOL    HW3 8619   3.990   1.975   2.390  0.8386  0.0168  0.2104
 2213SOL    MW4 8620   3.993   1.890   2.371  0.2031  0.0172  0.0912
 2214SOL     OW 8621   2.854   2.611   5.475 -0.0233  0.1837  0.0615
 2214SOL    HW2 8622   2.841   2.549   5.547  1.0287  1.3071  1.2808
 2214SOL    HW3 8623   2.944   2.598   5.447 -0.0687  0.5532 -0.2677
 2214SOL    MW4 8624   2.864   2.601   5.481  0.1095  0.3807  0.1789
 2215SOL     OW 8625   5.147   2.717   0.665 -0.1185 -0.3771  0.2460
 2215SOL    HW2 8626   5.140   2.660   0.589 -1.0111  0.0776 -0.0336
 2215SOL    HW3 8627   5.178   2.661   0.736  0.6703 -0.8166 -0.4314
 2215SOL    MW4 8628   5.150   2.702   0.665 -0.1322 -0.3751  0.1197
 2216SOL     OW 8629   3.186   1.958   5.502 -0.3158 -0.5145  0.1250
 2216SOL    HW2 8630   3.109   1.951   5.446 -0.4741  0.0035  0.2710
 2216SOL    HW3 8631   3.221   2.045   5.484  1.7204 -1.6197 -1.8228
 2216SOL    MW4 8632   3.181   1.968   5.493 -0.0680 -0.5920 -0.1127
 2217SOL     OW 8633   4.107   6.108   5.126  0.0695 -0.0846 -0.3469
 2217SOL    HW2 8634   4.150   6.046   5.186 -0.8558 -1.0586 -0.6668
 2217SOL    HW3 8635   4.177   6.136   5.067  0.1918 -2.1085 -1.2414
 2217SOL    MW4 8636   4.122   6.103   5.126 -0.0365 -0.4801 -0.5071
 2218SOL     OW 8637   4.080   5.586   4.482 -0.1905  0.2930 -0.3040
 2218SOL    HW2 8638   4.166   5.612   4.513  0.1447  0.1405 -1.0771
 2218SOL    HW3 8639   4.036   5.549   4.559  1.4707 -2.3138 -0.4844
 2218SOL    MW4 8640   4.085   5.584   4.496  0.0729 -0.0710 -0.4298
 2219SOL     OW 8641   0.903   3.071   2.323 -0.6233 -0.1544  0.5173
 2219SOL    HW2 8642   0.885   3.026   2.241 -2.0110 -1.1993  1.3512
 2219SOL    HW3 8643   0.820   3.115   2.345 -0.0064  0.8483  0.9370
 2219SOL    MW4 8644   0.890   3.071   2.315 -0.7250 -0.1600  0.6827
 2220SOL     OW 8645   4.431   6.145   2.573  0.3091  0.1253 -0.8794
 2220SOL    HW2 8646   4.441   6.050   2.579  3.5892  0.3835 -0.0131
 2220SOL    HW3 8647   4.339   6.161   2.590 -0.1225 -2.8236  0.0923
 2220SOL    MW4 8648   4.420   6.134   2.576  0.6849 -0.2297 -0.6369
 2221SOL     OW 8649   1.776   0.540   2.645 -0.4032  0.1345  0.1885
 2221SOL    HW2 8650   1.807   0.454   2.674 -0.3311 -1.0586 -3.0121
 2221SOL    HW3 8651   1.843   0.569   2.583 -3.0221 -0.2362 -3.1379
 2221SOL    MW4 8652   1.789   0.532   2.640 -0.7392 -0.0718 -0.6727
 2222SOL     OW 8653   0.120   4.922   0.234  0.3936 -0.6004 -0.3273
 2222SOL    HW2 8654   0.198   4.867   0.235  0.2412 -0.8769  1.5850
 2222SOL    HW3 8655   0.047   4.860   0.232  0.2338 -0.4574  0.4869
 2222SOL    MW4 8656   0.121   4.906   0.234  0.3524 -0.6180  0.0324
 2223SOL     OW 8657   1.700   2.778   5.099  0.3580  0.3472  0.2874
 2223SOL    HW2 8658   1.699   2.873   5.090  1.0841  0.2864 -0.6572
 2223SOL    HW3 8659   1.623   2.748   5.051  0.5352  0.4241 -0.0477
 2223SOL    MW4 8660   1.690   2.786   5.091  0.4772  0.3493  0.1186
 2224SOL     OW 8661   2.556   1.005   6.445 -0.3481 -0.0816 -0.3820
 2224SOL    HW2 8662   2.609   1.044   6.376  0.5380  1.5106  1.1158
 2224SOL    HW3 8663   2.620   0.978   6.511 -1.3184  0.9804  1.0313
 2224SOL    MW4 8664   2.572   1.007   6.445 -0.3592  0.2686  0.0021
 2225SOL     OW 8665   3.313   3.593   5.216 -0.2744  0.2916 -0.2808
 2225SOL    HW2 8666   3.300   3.504   5.249  1.0303 -0.0356 -0.5759
 2225SOL    HW3 8667   3.309   3.584   5.121  0.1389  0.4979 -0.3196
 2225SOL    MW4 8668   3.311   3.580   5.208 -0.0477  0.2756 -0.3248
 2226SOL     OW 8669   1.385   3.614   2.437  0.7267  0.4116 -0.8083
 2226SOL    HW2 8670   1.373   3.609   2.342 -1.5283 -0.7750 -0.5132
 2226SOL    HW3 8671   1.307   3.658   2.469 -0.6049 -2.7612  0.7887
 2226SOL    MW4 8672   1.373   3.619   2.428  0.2535 -0.1636 -0.5587
 2227SOL     OW 8673   6.423   3.130   4.690 -0.5903 -0.0252  0.7330
 2227SOL    HW2 8674   6.404   3.040   4.664 -0.7137  0.1642  0.1644
 2227SOL    HW3 8675   6.404   3.132   4.784  1.7689 -1.2303  1.3108
 2227SOL    MW4 8676   6.418   3.118   4.699 -0.2953 -0.1592  0.7342
 2228SOL     OW 8677   0.600   2.524   0.531 -0.4070  0.3254  0.5437
 2228SOL    HW2 8678   0.543   2.497   0.603  0.3534 -4.1110 -0.2468
 2228SOL    HW3 8679   0.689   2.517   0.566 -0.0947 -0.3149 -0.3389
 2228SOL    MW4 8680   0.604   2.519   0.545 -0.2655 -0.3444  0.3230
 2229SOL     OW 8681   1.490   1.115   4.783 -0.1419  0.5714  0.4298
 2229SOL    HW2 8682   1.546   1.093   4.858  0.3488  1.1415  0.2387
 2229SOL    HW3 8683   1.453   1.200   4.805 -2.4470 -0.6095  1.3941
 2229SOL    MW4 8684   1.493   1.123   4.796 -0.3813  0.4908  0.5318
 2230SOL     OW 8685   0.821   1.357   5.281  0.4401 -0.1411 -0.6352
 2230SOL    HW2 8686   0.795   1.434   5.230  1.4826  0.1646 -0.7361
 2230SOL    HW3 8687   0.763   1.288   5.251 -0.0019  0.4188 -1.1069
 2230SOL    MW4 8688   0.810   1.358   5.270  0.5193 -0.0269 -0.7107
 2231SOL     OW 8689   2.705   3.659   1.378  0.4646  0.1373  0.0049
 2231SOL    HW2 8690   2.667   3.746   1.368 -0.9730 -0.4895 -0.2960
 2231SOL    HW3 8691   2.749   3.662   1.462 -0.3738  0.8857  0.4420
 2231SOL    MW4 8692   2.705   3.671   1.387  0.1643  0.1533  0.0229
 2232SOL     OW 8693   3.756   3.854   0.965 -0.2522  0.1042 -0.6654
 2232SOL    HW2 8694   3.811   3.917   0.918  0.5305  0.4346  0.6478
 2232SOL    HW3 8695   3.723   3.796   0.897 -0.8848  1.8375 -1.9038
 2232SOL    MW4 8696   3.759   3.855   0.950 -0.2324  0.3765 -0.6556
 2233SOL     OW 8697   4.310   6.229   3.624  0.2566 -0.3508 -0.0293
 2233SOL    HW2 8698   4.376   6.259   3.562 -0.5672  0.5288 -0.4920
 2233SOL    HW3 8699   4.231   6.216   3.571 -0.2929 -0.1668  0.7299
 2233SOL    MW4 8700   4.308   6.231   3.609  0.0754 -0.2105  0.0098
 2234SOL     OW 8701   0.717   5.748   0.097 -0.0229 -0.3491 -0.0768
 2234SOL    HW2 8702   0.806   5.780   0.113  0.0384 -0.4036 -0.3070
 2234SOL    HW3 8703   0.701   5.765   0.004 -0.8138  1.0289  0.2743
 2234SOL    MW4 8704   0.727   5.754   0.087 -0.1192 -0.1745 -0.0608
 2235SOL     OW 8705   2.796   3.849   4.516  0.6086 -0.8484  0.1428
 2235SOL    HW2 8706   2.791   3.921   4.579 -0.4041  0.2830 -1.1764
 2235SOL    HW3 8707   2.888   3.821   4.519  0.6935 -0.4934  1.7336
 2235SOL    MW4 8708   2.808   3.855   4.525  0.4862 -0.6523  0.1786
 2236SOL     OW 8709   3.831   0.601   4.066 -0.1020  0.5118 -0.3507
 2236SOL    HW2 8710   3.766   0.672   4.068 -1.3520 -0.6133  0.3471
 2236SOL    HW3 8711   3.815   0.558   3.981  0.6405  1.0372 -0.7635
 2236SOL    MW4 8712   3.820   0.605   4.055 -0.1689  0.4327 -0.3131
 2237SOL     OW 8713   0.275   0.916   6.162 -0.0096 -0.6062 -0.0039
 2237SOL    HW2 8714   0.183   0.899   6.145  0.1943 -0.8017 -0.9829
 2237SOL    HW3 8715   0.322   0.851   6.110  0.6989  0.4033 -0.6845
 2237SOL    MW4 8716   0.269   0.905   6.153  0.1108 -0.4988 -0.2229
 2238SOL     OW 8717   3.094   4.531   6.331 -0.5581 -0.1545 -0.5752
 2238SOL    HW2 8718   3.065   4.610   6.286 -2.6336 -0.2813  0.4468
 2238SOL    HW3 8719   3.183   4.551   6.359 -1.2260  2.0419  0.1386
 2238SOL    MW4 8720   3.102   4.544   6.328 -0.9201  0.1186 -0.3462
 2239SOL     OW 8721   3.705   6.345   6.249  0.4565  0.3870  0.0570
 2239SOL    HW2 8722   3.711   6.251   6.229  1.6402  0.7606 -1.6056
 2239SOL    HW3 8723   3.766   6.386   6.187  2.0516  2.0322  2.5217
 2239SOL    MW4 8724   3.714   6.338   6.238  0.8231  0.6534  0.1628
 2240SOL     OW 8725   4.681   2.117   5.485  0.0338 -0.5114 -0.5445
 2240SOL    HW2 8726   4.637   2.056   5.427  0.2748 -0.0119 -1.2607
 2240SOL    HW3 8727   4.678   2.074   5.571 -0.1243 -1.3605 -0.9582
 2240SOL    MW4 8728   4.675   2.103   5.489  0.0448 -0.5575 -0.6936
 2241SOL     OW 8729   2.253   4.267   6.007 -0.0229  0.2580  0.5957
 2241SOL    HW2 8730   2.329   4.231   6.053 -0.0731  1.6925  1.8777
 2241SOL    HW3 8731   2.290   4.333   5.948  0.0727 -1.7560 -1.7652
 2241SOL    MW4 8732   2.268   4.271   6.005 -0.0169  0.1816  0.4534
 2242SOL     OW 8733   3.491   3.246   5.836  0.3075  0.1757 -0.2425
 2242SOL    HW2 8734   3.458   3.336   5.828 -0.6651 -0.2228 -0.9251
 2242SOL    HW3 8735   3.583   3.256   5.859 -0.0098  1.3413  0.5744
 2242SOL    MW4 8736   3.498   3.259   5.838  0.1373  0.2769 -0.2248
 2243SOL     OW 8737   0.727   2.133   4.174 -0.4159  0.4458  0.1587
 2243SOL    HW2 8738   0.714   2.144   4.080  0.5499  1.1633  0.1011
 2243SOL    HW3 8739   0.640   2.151   4.212 -0.4897  1.5738 -0.4910
 2243SOL    MW4 8740   0.714   2.137   4.167 -0.2982  0.6893  0.0654
 2244SOL     OW 8741   4.564   0.821   2.986  0.0971 -1.1501 -0.4415
 2244SOL    HW2 8742   4.590   0.802   2.896  1.4473  0.1329 -0.3544
 2244SOL    HW3 8743   4.643   0.808   3.038  0.5507  2.1928 -0.0685
 2244SOL    MW4 8744   4.578   0.817   2.981  0.3351 -0.5398 -0.3808
 2245SOL     OW 8745   5.070   0.152   4.093 -0.1870 -0.1905 -0.6202
 2245SOL    HW2 8746   5.118   0.102   4.028  0.0687  0.7325 -1.1539
 2245SOL    HW3 8747   5.104   0.122   4.177 -0.6020 -1.4660 -0.8918
 2245SOL    MW4 8748   5.080   0.142   4.096 -0.2080 -0.2370 -0.7264
 2246SOL     OW 8749   0.547   4.947   4.350 -0.5796 -0.0268 -0.0369
 2246SOL    HW2 8750   0.565   4.985   4.436 -0.3134  0.2233 -0.2068
 2246SOL    HW3 8751   0.630   4.908   4.323 -0.6545 -0.0736 -0.1980
 2246SOL    MW4 8752   0.560   4.947   4.358 -0.5543  0.0000 -0.0805
 2247SOL     OW 8753   3.686   4.966   5.011  0.4323  0.0198  0.2651
 2247SOL    HW2 8754   3.598   4.956   5.047 -0.1288  1.5037 -0.6135
 2247SOL    HW3 8755   3.705   4.882   4.969 -0.4328 -0.4141  0.7263
 2247SOL    MW4 8756   3.677   4.954   5.010  0.2442  0.1583  0.2100
 2248SOL     OW 8757   1.437   3.238   1.499 -0.2346 -0.3383  0.2627
 2248SOL    HW2 8758   1.531   3.220   1.509 -0.2560 -0.1094  0.8987
 2248SOL    HW3 8759   1.434   3.325   1.461 -0.1755 -0.8267 -0.9279
 2248SOL    MW4 8760   1.449   3.247   1.495 -0.2296 -0.3726  0.1895
 2249SOL     OW 8761   2.626   4.858   2.807  0.4181 -0.2662 -0.3255
 2249SOL    HW2 8762   2.655   4.885   2.720  0.2638 -1.3013 -0.7226
 2249SOL    HW3 8763   2.593   4.938   2.848  0.7433  0.2839 -1.1158
 2249SOL    MW4 8764   2.625   4.872   2.801  0.4407 -0.3302 -0.4822
 2250SOL     OW 8765   4.093   3.325   2.571  0.0223 -0.3336  0.6992
 2250SOL    HW2 8766   4.120   3.261   2.637  1.0355  0.3186  0.9435
 2250SOL    HW3 8767   4.001   3.343   2.592 -0.8680 -2.9979 -0.4791
 2250SOL    MW4 8768   4.084   3.319   2.583  0.0385 -0.5991  0.5760
 2251SOL     OW 8769   5.889   0.693   5.253  0.4206  0.2764  0.1441
 2251SOL    HW2 8770   5.936   0.660   5.177 -0.7451 -0.8385 -0.1286
 2251SOL    HW3 8771   5.910   0.786   5.256  1.7337  0.0229 -0.5999
 2251SOL    MW4 8772   5.898   0.701   5.243  0.4401  0.0959  0.0100
 2252SOL     OW 8773   3.166   3.331   1.867  0.2300 -0.4938  0.3826
 2252SOL    HW2 8774   3.088   3.355   1.917 -0.3020 -0.7289 -0.3197
 2252SOL    HW3 8775   3.172   3.398   1.799  0.9027 -0.2195  0.7099
 2252SOL    MW4 8776   3.156   3.343   1.864  0.2485 -0.4886  0.3332
 2253SOL     OW 8777   5.511   1.120   3.475  0.0268 -0.2123  0.0527
 2253SOL    HW2 8778   5.425   1.160   3.474  0.8930  1.7374 -0.3324
 2253SOL    HW3 8779   5.517   1.073   3.391 -0.3545  0.2889 -0.2567
 2253SOL    MW4 8780   5.501   1.119   3.464  0.0908  0.1111 -0.0389
 2254SOL     OW 8781   1.779   6.369   2.719 -0.2122  0.1039 -0.6863
 2254SOL    HW2 8782   1.846   6.436   2.733 -0.9902  0.7848 -0.0702
 2254SOL    HW3 8783   1.801   6.300   2.781 -0.2478  0.4715 -0.2521
 2254SOL    MW4 8784   1.791   6.369   2.729 -0.3196  0.2422 -0.5478
 2255SOL     OW 8785   3.914   5.389   2.082  0.5771  0.1448 -0.3972
 2255SOL    HW2 8786   3.862   5.355   2.010  0.5591 -0.1633 -0.2403
 2255SOL    HW3 8787   4.003   5.398   2.046  0.1075  2.2620 -1.1733
 2255SOL    MW4 8788   3.919   5.386   2.068  0.5127  0.3835 -0.4789
 2256SOL     OW 8789   3.873   3.425   0.770  0.1096 -0.3569  0.0029
 2256SOL    HW2 8790   3.867   3.358   0.838  0.5648 -1.9743 -1.4816
 2256SOL    HW3 8791   3.917   3.381   0.697 -0.3349  1.3245 -1.3292
 2256SOL    MW4 8792   3.878   3.410   0.769  0.1110 -0.3484 -0.3687
 2257SOL     OW 8793   2.423   3.578   0.742 -0.2797  0.1614 -0.1552
 2257SOL    HW2 8794   2.514   3.568   0.714 -0.4213 -0.9873 -0.2166
 2257SOL    HW3 8795   2.428   3.640   0.814  0.4656  0.6469 -0.5984
 2257SOL    MW4 8796   2.436   3.585   0.747 -0.2000  0.0739 -0.2218
 2258SOL     OW 8797   4.160   4.473   6.250  0.1853  0.4315  0.7825
 2258SOL    HW2 8798   4.228   4.450   6.314  0.2409 -0.3840  0.4487
 2258SOL    HW3 8799   4.175   4.413   6.177 -0.8976  0.2185  0.7060
 2258SOL    MW4 8800   4.171   4.462   6.249  0.0497  0.2958  0.7284
 2259SOL     OW 8801   0.754   2.091   4.642  0.6262  0.0021 -0.2787
 2259SOL    HW2 8802   0.827   2.060   4.695  1.4078  1.6284 -0.3612
 2259SOL    HW3 8803   0.779   2.070   4.552  1.1159  0.7917 -0.3287
 2259SOL    MW4 8804   0.767   2.084   4.637  0.7939  0.3209 -0.2962
 2260SOL     OW 8805   4.886   0.126   2.216 -0.7068  0.1392 -0.0625
 2260SOL    HW2 8806   4.894   0.205   2.163  1.3817 -0.4902 -0.7809
 2260SOL    HW3 8807   4.921   0.152   2.302  0.4399 -0.0934 -0.4389
 2260SOL    MW4 8808   4.892   0.140   2.221 -0.2800  0.0255 -0.2070
 2261SOL     OW 8809   2.209   1.420   4.518  0.0429 -0.3695  0.2852
 2261SOL    HW2 8810   2.267   1.464   4.456  0.2625 -0.4090  0.4626
 2261SOL    HW3 8811   2.264   1.355   4.561 -0.3550 -1.0554 -0.2076
 2261SOL    MW4 8812   2.224   1.417   4.515  0.0194 -0.4652  0.2436
 2262SOL     OW 8813   6.012   5.731   4.434  0.0221 -0.3656  0.2414
 2262SOL    HW2 8814   5.981   5.687   4.354 -2.1638  2.3220 -0.5709
 2262SOL    HW3 8815   5.962   5.690   4.504 -2.4050  1.0045 -0.5644
 2262SOL    MW4 8816   6.001   5.720   4.432 -0.5865  0.1698  0.0279
 2263SOL     OW 8817   4.842   5.779   4.911 -0.0795  0.2451 -0.1267
 2263SOL    HW2 8818   4.794   5.859   4.887  0.0918  0.2935 -0.3123
 2263SOL    HW3 8819   4.827   5.720   4.837  2.3023  1.1809 -1.4711
 2263SOL    MW4 8820   4.834   5.782   4.898  0.2573  0.3750 -0.3286
 2264SOL     OW 8821   3.913   0.502   2.338 -0.3192 -0.1995  0.2404
 2264SOL    HW2 8822   3.914   0.500   2.242 -1.2082  0.0132  0.2186
 2264SOL    HW3 8823   3.828   0.540   2.360 -0.0231 -0.0264  1.1145
 2264SOL    MW4 8824   3.902   0.507   2.328 -0.3975 -0.1486  0.3528
 2265SOL     OW 8825   2.496   6.409   5.220  0.1937  0.0751 -0.0872
 2265SOL    HW2 8826   2.499   6.385   5.128  2.2487 -0.3183  0.0466
 2265SOL    HW3 8827   2.576   6.372   5.258 -0.3914  0.5909  1.7649
 2265SOL    MW4 8828   2.507   6.401   5.213  0.3876  0.0912  0.1748
 2266SOL     OW 8829   3.309   3.316   0.743 -0.0578  0.0887 -1.0719
 2266SOL    HW2 8830   3.238   3.268   0.785  0.1873 -0.3164 -1.1134
 2266SOL    HW3 8831   3.358   3.250   0.695  1.2993  0.0869  0.2560
 2266SOL    MW4 8832   3.306   3.301   0.742  0.1536  0.0350 -0.9022
 2267SOL     OW 8833   5.780   1.687   6.252 -0.4041  0.4192 -0.3826
 2267SOL    HW2 8834   5.706   1.738   6.283 -0.4461  0.0519  0.1392
 2267SOL    HW3 8835   5.854   1.717   6.306  0.0301  1.4074 -1.4860
 2267SOL    MW4 8836   5.780   1.698   6.263 -0.3524  0.5011 -0.4593
 2268SOL     OW 8837   4.575   3.574   2.077  0.2606  0.0953 -0.2453
 2268SOL    HW2 8838   4.524   3.655   2.072 -0.0541 -0.0964 -0.1264
 2268SOL    HW3 8839   4.656   3.600   2.122 -0.6727 -0.0582  1.6335
 2268SOL    MW4 8840   4.579   3.588   2.083  0.0960  0.0497  0.0183
 2269SOL     OW 8841   5.529   4.794   0.696  0.4294  0.3482  0.4908
 2269SOL    HW2 8842   5.471   4.719   0.708  0.5394  0.0720 -0.6222
 2269SOL    HW3 8843   5.614   4.756   0.673  0.6132  0.7981  0.4024
 2269SOL    MW4 8844   5.533   4.779   0.695  0.4682  0.3711  0.3323
 2270SOL     OW 8845   4.870   3.815   5.662  0.1381  0.4458  0.2005
 2270SOL    HW2 8846   4.956   3.809   5.620 -0.6616 -1.1826 -1.2979
 2270SOL    HW3 8847   4.844   3.907   5.651  0.7484  0.4580 -1.2873
 2270SOL    MW4 8848   4.878   3.827   5.655  0.1131  0.2325 -0.1935
 2271SOL     OW 8849   0.093   2.244   0.182  0.2433  0.6330  0.1675
 2271SOL    HW2 8850   0.081   2.240   0.277 -1.6905  2.6284  0.0819
 2271SOL    HW3 8851   0.117   2.335   0.165  0.1981  0.3886 -1.2845
 2271SOL    MW4 8852   0.094   2.256   0.193 -0.0178  0.8640 -0.0354
 2272SOL     OW 8853   2.118   3.573   1.021 -0.4807  0.1770 -1.0329
 2272SOL    HW2 8854   2.043   3.517   1.000 -1.0117  0.4571  0.0469
 2272SOL    HW3 8855   2.112   3.587   1.116  1.0494  0.0554 -0.8914
 2272SOL    MW4 8856   2.107   3.568   1.031 -0.3488  0.1979 -0.8718
 2273SOL     OW 8857   4.951   1.396   5.150  0.6295 -0.2037  0.0492
 2273SOL    HW2 8858   5.014   1.465   5.128 -0.7480  0.9323 -0.5288
 2273SOL    HW3 8859   4.897   1.434   5.219  0.0502 -0.8251 -0.0507
 2273SOL    MW4 8860   4.952   1.411   5.156  0.3713 -0.1358 -0.0402
 2274SOL     OW 8861   1.875   2.647   4.713 -0.0502  0.3150 -0.8090
 2274SOL    HW2 8862   1.961   2.658   4.672  0.3383  0.6975  0.0822
 2274SOL    HW3 8863   1.819   2.711   4.669  0.0577 -0.0676 -1.5284
 2274SOL    MW4 8864   1.879   2.657   4.701  0.0153  0.3150 -0.7864
 2275SOL     OW 8865   0.296   3.382   5.586 -0.1156  0.2916 -0.1952
 2275SOL    HW2 8866   0.391   3.389   5.575 -0.2988 -0.8017 -3.7911
 2275SOL    HW3 8867   0.263   3.469   5.565  0.0482  0.4952  0.3833
 2275SOL    MW4 8868   0.304   3.394   5.581 -0.1182  0.1742 -0.5933
 2276SOL     OW 8869   0.751   3.205   3.489  0.3589  0.2534  0.3683
 2276SOL    HW2 8870   0.836   3.226   3.526  1.1361 -2.0238  0.0325
 2276SOL    HW3 8871   0.770   3.184   3.397 -0.4383 -0.8368  0.4296
 2276SOL    MW4 8872   0.764   3.205   3.481  0.3562 -0.1909  0.3321
 2277SOL     OW 8873   6.022   6.358   1.436 -0.5916  0.1366  0.5381
 2277SOL    HW2 8874   6.067   6.291   1.385 -0.6601 -1.3398  2.3504
 2277SOL    HW3 8875   5.929   6.337   1.426 -0.6010 -0.1929  1.3240
 2277SOL    MW4 8876   6.015   6.346   1.428 -0.6019 -0.1017  0.8809
 2278SOL     OW 8877   3.578   4.463   1.783  0.5404  0.2346  0.1734
 2278SOL    HW2 8878   3.636   4.396   1.817  0.7587 -0.6591 -1.7922
 2278SOL    HW3 8879   3.492   4.441   1.819  0.2620 -2.1918 -1.6802
 2278SOL    MW4 8880   3.574   4.451   1.792  0.5324 -0.2035 -0.3305
 2279SOL     OW 8881   1.733   4.967   6.434  0.1654 -0.1250 -0.4918
 2279SOL    HW2 8882   1.816   5.010   6.454 -0.8653  1.0464  1.5573
 2279SOL    HW3 8883   1.757   4.876   6.417  1.8792  0.2461 -0.2385
 2279SOL    MW4 8884   1.747   4.961   6.434  0.2556  0.0786 -0.1880
 2280SOL     OW 8885   0.619   0.425   4.286 -0.4860 -0.1233  0.4631
 2280SOL    HW2 8886   0.568   0.479   4.226 -0.4094 -1.8657 -1.2474
 2280SOL    HW3 8887   0.710   0.448   4.266 -0.4007 -1.6809 -1.1339
 2280SOL    MW4 8888   0.625   0.435   4.276 -0.4647 -0.5587  0.0267
 2281SOL     OW 8889   1.974   3.150   3.354  0.4514 -0.2328 -0.4260
 2281SOL    HW2 8890   2.023   3.218   3.399 -0.5902  1.3028 -1.5110
 2281SOL    HW3 8891   1.944   3.091   3.423  0.5748  0.9370  0.6389
 2281SOL    MW4 8892   1.977   3.151   3.369  0.3302  0.1242 -0.4286
 2282SOL     OW 8893   3.721   1.244   2.959 -0.3964 -0.0187 -0.8417
 2282SOL    HW2 8894   3.796   1.223   3.015  1.1898 -1.6026 -3.3388
 2282SOL    HW3 8895   3.659   1.174   2.975 -0.1234 -0.2449 -0.7610
 2282SOL    MW4 8896   3.723   1.232   2.969 -0.1511 -0.2575 -1.1605
 2283SOL     OW 8897   2.833   4.927   2.557 -0.0917 -0.3730 -0.1408
 2283SOL    HW2 8898   2.925   4.953   2.553 -0.7137  2.6727  2.0166
 2283SOL    HW3 8899   2.805   4.920   2.466  1.5388  1.7228 -0.8570
 2283SOL    MW4 8900   2.841   4.929   2.545  0.0414  0.3054  0.0493
 2284SOL     OW 8901   4.854   3.346   4.876  0.2539 -0.0064  0.6586
 2284SOL    HW2 8902   4.783   3.347   4.813  0.7214  0.8373  0.1231
 2284SOL    HW3 8903   4.816   3.309   4.956 -0.5108 -0.4681  0.0842
 2284SOL    MW4 8904   4.840   3.341   4.878  0.2147  0.0440  0.5122
 2285SOL     OW 8905   4.272   2.452   2.715  0.2213  0.1105 -0.2323
 2285SOL    HW2 8906   4.291   2.447   2.621  2.3168  0.9955  0.1038
 2285SOL    HW3 8907   4.350   2.417   2.757  0.0432  1.3796  1.2195
 2285SOL    MW4 8908   4.284   2.447   2.708  0.4742  0.3947  0.0036
 2286SOL     OW 8909   5.826   3.842   3.506 -0.3732  0.1072 -0.3990
 2286SOL    HW2 8910   5.848   3.753   3.533 -0.7888 -0.6768 -2.4459
 2286SOL    HW3 8911   5.752   3.867   3.563  2.1800  0.7870  2.9485
 2286SOL    MW4 8912   5.819   3.834   3.517 -0.0911  0.0934 -0.2274
 2287SOL     OW 8913   0.811   4.666   3.722  0.0442  0.3631  0.4223
 2287SOL    HW2 8914   0.851   4.651   3.637 -0.8606  0.8376 -0.1030
 2287SOL    HW3 8915   0.785   4.579   3.752  0.1051  0.2229  0.0730
 2287SOL    MW4 8916   0.813   4.652   3.715 -0.0672  0.4072  0.3069
 2288SOL     OW 8917   3.847   3.255   6.185  0.2784 -0.5069 -0.0012
 2288SOL    HW2 8918   3.897   3.245   6.266 -0.9145  0.2876  0.8657
 2288SOL    HW3 8919   3.820   3.167   6.162 -0.2223 -0.6437  1.0442
 2288SOL    MW4 8920   3.850   3.242   6.193  0.0549 -0.4202  0.2511
 2289SOL     OW 8921   1.323   4.716   2.612 -0.1773  0.7593  0.4256
 2289SOL    HW2 8922   1.259   4.783   2.587 -0.4197 -0.4443 -2.5057
 2289SOL    HW3 8923   1.383   4.711   2.538  1.3110 -0.5664  1.6399
 2289SOL    MW4 8924   1.322   4.724   2.599 -0.0129  0.4256  0.1991
 2290SOL     OW 8925   1.359   0.773   0.192  0.7042  0.7515  0.0862
 2290SOL    HW2 8926   1.374   0.699   0.134  1.9121  0.2962  0.9309
 2290SOL    HW3 8927   1.282   0.749   0.242  0.0362  0.8688 -0.8659
 2290SOL    MW4 8928   1.351   0.760   0.191  0.7755  0.7069  0.0721
 2291SOL     OW 8929   0.994   0.090   5.182  0.1018  0.2940 -0.6465
 2291SOL    HW2 8930   1.088   0.110   5.187  0.1256 -0.1693  1.3518
 2291SOL    HW3 8931   0.961   0.151   5.116  1.8193  0.3694 -1.5004
 2291SOL    MW4 8932   1.002   0.101   5.174  0.3315  0.2428 -0.4955
 2292SOL     OW 8933   1.277   4.261   4.440 -0.2635 -0.0065 -0.4504
 2292SOL    HW2 8934   1.346   4.198   4.416  1.6214  2.1490 -1.0179
 2292SOL    HW3 8935   1.244   4.230   4.524  1.1981 -1.2805 -0.3034
 2292SOL    MW4 8936   1.281   4.248   4.448  0.1780  0.1098 -0.5059
 2293SOL     OW 8937   1.850   2.074   1.223  0.1964 -0.6507 -0.3959
 2293SOL    HW2 8938   1.882   2.022   1.150  1.2083 -0.4484 -0.1058
 2293SOL    HW3 8939   1.767   2.111   1.192  0.5079 -0.7371 -1.3551
 2293SOL    MW4 8940   1.843   2.072   1.209  0.3710 -0.6354 -0.4842
 2294SOL     OW 8941   4.984   4.514   3.884  0.1859 -0.4130  0.4045
 2294SOL    HW2 8942   5.062   4.532   3.831  0.1946 -0.6166  0.3477
 2294SOL    HW3 8943   5.001   4.429   3.924  0.3790 -0.0480  1.1117
 2294SOL    MW4 8944   4.996   4.505   3.882  0.2125 -0.3917  0.4903
 2295SOL     OW 8945   5.906   1.335   0.191  0.5687 -0.1607  0.6672
 2295SOL    HW2 8946   5.962   1.372   0.259 -0.6058  0.6854  1.2177
 2295SOL    HW3 8947   5.822   1.323   0.234 -0.0755 -0.0341 -0.5136
 2295SOL    MW4 8948   5.902   1.339   0.206  0.3287 -0.0324  0.5841
 2296SOL     OW 8949   2.677   0.892   0.251 -0.1813  0.3047 -0.7022
 2296SOL    HW2 8950   2.759   0.861   0.214 -0.4382 -0.9867 -0.2234
 2296SOL    HW3 8951   2.703   0.951   0.322  0.3092  1.8194 -2.0769
 2296SOL    MW4 8952   2.691   0.896   0.256 -0.1505  0.3342 -0.8204
 2297SOL     OW 8953   0.440   3.953   1.316 -0.0335  0.2506 -0.1965
 2297SOL    HW2 8954   0.477   3.975   1.231  0.2738  0.1219 -0.0991
 2297SOL    HW3 8955   0.412   3.862   1.307 -0.6075  0.4399 -0.3633
 2297SOL    MW4 8956   0.441   3.944   1.304 -0.0687  0.2586 -0.2056
 2298SOL     OW 8957   2.387   2.778   1.062 -0.1671  0.2419  0.2858
 2298SOL    HW2 8958   2.340   2.843   1.008  1.2099  2.4224  1.5753
 2298SOL    HW3 8959   2.446   2.830   1.116  2.6020 -2.2392 -0.0971
 2298SOL    MW4 8960   2.389   2.793   1.062  0.3799  0.2022  0.4054
 2299SOL     OW 8961   1.543   0.856   5.618  0.1974  0.4884 -0.2138
 2299SOL    HW2 8962   1.503   0.906   5.547 -1.2749  0.8321  0.8259
 2299SOL    HW3 8963   1.491   0.776   5.623  1.9796 -0.8178 -1.2732
 2299SOL    MW4 8964   1.531   0.852   5.609  0.2383  0.3614 -0.2164
 2300SOL     OW 8965   1.308   1.093   0.844 -0.4195 -0.4901 -0.2730
 2300SOL    HW2 8966   1.353   1.172   0.873  0.0116 -1.3249  1.4662
 2300SOL    HW3 8967   1.225   1.124   0.809 -0.5201  0.7016  0.9370
 2300SOL    MW4 8968   1.303   1.108   0.843 -0.3759 -0.4430  0.1161
 2301SOL     OW 8969   4.003   3.849   3.652 -0.0315 -0.8478  0.0842
 2301SOL    HW2 8970   4.020   3.934   3.610  0.8769  0.0766  2.1504
 2301SOL    HW3 8971   3.928   3.865   3.708  0.2147 -1.3804  0.5759
 2301SOL    MW4 8972   3.996   3.863   3.654  0.1208 -0.7961  0.4217
 2302SOL     OW 8973   3.569   3.297   0.888  0.8712 -0.2672 -0.3177
 2302SOL    HW2 8974   3.599   3.385   0.869  0.7792 -0.3285 -0.7616
 2302SOL    HW3 8975   3.474   3.301   0.876  0.4811  0.2446  2.2924
 2302SOL    MW4 8976   3.560   3.309   0.884  0.8076 -0.2077 -0.0319
 2303SOL     OW 8977   2.619   2.790   2.049  0.2667 -0.2206 -0.3306
 2303SOL    HW2 8978   2.526   2.792   2.026  0.3804  0.6179 -0.7724
 2303SOL    HW3 8979   2.621   2.796   2.144 -0.1058  1.1769 -0.3981
 2303SOL    MW4 8980   2.607   2.791   2.058  0.2326  0.0744 -0.3978
 2304SOL     OW 8981   3.712   0.669   5.446  0.0942  1.2311 -0.5527
 2304SOL    HW2 8982   3.764   0.644   5.522  0.3986  2.5090 -0.3131
 2304SOL    HW3 8983   3.635   0.712   5.483 -1.6267 -1.3227 -0.8652
 2304SOL    MW4 8984   3.709   0.671   5.461 -0.0927  1.0627 -0.5623
 2305SOL     OW 8985   5.328   3.007   1.442  0.2246  0.3888  0.1014
 2305SOL    HW2 8986   5.329   3.013   1.347 -1.0564  0.5009  0.0776
 2305SOL    HW3 8987   5.366   3.090   1.472  1.8111 -0.1532 -0.2837
 2305SOL    MW4 8988   5.333   3.019   1.434  0.2649  0.3321  0.0474
 2306SOL     OW 8989   5.379   0.870   4.012 -0.0476 -0.1374 -0.4065
 2306SOL    HW2 8990   5.332   0.867   4.096 -1.3163  0.5015 -1.0779
 2306SOL    HW3 8991   5.312   0.887   3.947  1.0354  0.1388 -1.4865
 2306SOL    MW4 8992   5.364   0.872   4.015 -0.0721 -0.0167 -0.6376
 2307SOL     OW 8993   0.092   1.806   4.708 -0.4105  0.1451 -0.3253
 2307SOL    HW2 8994   0.179   1.769   4.693 -0.3589  0.1513 -0.0399
 2307SOL    HW3 8995   0.104   1.900   4.701 -0.1752  0.2136  0.7972
 2307SOL    MW4 8996   0.105   1.813   4.705 -0.3727  0.1550 -0.1396
 2308SOL     OW 8997   6.308   2.090   0.073 -0.1682  0.4897 -1.0043
 2308SOL    HW2 8998   6.260   2.037   0.136  0.2770 -0.3904 -1.3939
 2308SOL    HW3 8999   6.348   2.160   0.125  0.3886 -0.3604 -0.2858
 2308SOL    MW4 9000   6.307   2.093   0.088 -0.0360  0.2615 -0.9609
 2309SOL     OW 9001   5.626   1.798   3.976 -0.3347 -0.0924 -0.4841
 2309SOL    HW2 9002   5.630   1.806   4.071 -1.4016 -0.0632 -0.4363
 2309SOL    HW3 9003   5.707   1.753   3.952  0.0430  0.0968  0.4106
 2309SOL    MW4 9004   5.637   1.793   3.985 -0.4256 -0.0636 -0.3597
 2310SOL     OW 9005   5.133   3.618   5.739 -0.0474 -0.4186  0.2204
 2310SOL    HW2 9006   5.213   3.594   5.786 -0.2549  0.3582  0.9872
 2310SOL    HW3 9007   5.081   3.665   5.803 -0.5027  0.3406 -0.6888
 2310SOL    MW4 9008   5.137   3.621   5.753 -0.1349 -0.2159  0.2016
 2311SOL     OW 9009   5.907   3.018   5.732 -0.3181  0.0528  0.1634
 2311SOL    HW2 9010   5.882   2.969   5.810 -1.1124  0.8921  0.4591
 2311SOL    HW3 9011   5.996   3.048   5.750  0.2944 -1.5005 -0.1526
 2311SOL    MW4 9012   5.916   3.016   5.744 -0.3421 -0.0414  0.1607
 2312SOL     OW 9013   1.806   6.283   4.874 -0.3873 -0.3198  0.1675
 2312SOL    HW2 9014   1.760   6.206   4.843 -0.4405  0.1826 -1.0671
 2312SOL    HW3 9015   1.887   6.285   4.822  0.3513 -0.3812  1.2706
 2312SOL    MW4 9016   1.811   6.273   4.863 -0.2969 -0.2616  0.1502
 2313SOL     OW 9017   6.388   4.074   5.515 -0.5622  0.3499 -0.0845
 2313SOL    HW2 9018   6.379   4.061   5.610  2.8225 -1.9296  0.1021
 2313SOL    HW3 9019   6.402   4.168   5.505  1.5828  0.3665  2.0983
 2313SOL    MW4 9020   6.389   4.085   5.526  0.1674  0.0513  0.2281
 2314SOL     OW 9021   3.041   4.169   0.267  0.4548 -0.2247 -0.3727
 2314SOL    HW2 9022   3.114   4.115   0.238  1.1188  0.1712  0.5322
 2314SOL    HW3 9023   3.080   4.254   0.289 -0.1532 -0.2323  0.8117
 2314SOL    MW4 9024   3.056   4.173   0.266  0.4622 -0.1735 -0.0970
 2315SOL     OW 9025   1.953   3.800   5.236  0.3286  0.6882 -0.0363
 2315SOL    HW2 9026   1.905   3.719   5.251  1.8453 -0.1264  0.5763
 2315SOL    HW3 9027   1.895   3.869   5.270 -0.9765 -0.1037 -0.5753
 2315SOL    MW4 9028   1.939   3.799   5.243  0.3565  0.4762 -0.0266
 2316SOL     OW 9029   5.094   5.846   3.372  0.2294 -0.6378 -0.8449
 2316SOL    HW2 9030   5.064   5.918   3.316  0.2239 -0.2168 -0.3067
 2316SOL    HW3 9031   5.178   5.819   3.334  0.4086 -0.1020 -0.8394
 2316SOL    MW4 9032   5.101   5.852   3.360  0.2523 -0.5116 -0.7732
 2317SOL     OW 9033   3.639   6.193   2.412 -0.1152 -0.1190 -0.0853
 2317SOL    HW2 9034   3.683   6.109   2.424  0.4704  0.2617  0.4506
 2317SOL    HW3 9035   3.652   6.240   2.494  0.8802  1.0949 -0.8930
 2317SOL    MW4 9036   3.647   6.188   2.424  0.0934  0.0914 -0.1211
 2318SOL     OW 9037   1.707   4.933   2.584  0.6047  0.1112 -0.4770
 2318SOL    HW2 9038   1.720   4.843   2.552 -1.0315 -0.8319  1.2671
 2318SOL    HW3 9039   1.630   4.965   2.537  1.9007  1.1055 -1.9893
 2318SOL    MW4 9040   1.699   4.925   2.574  0.5598  0.1180 -0.4464
 2319SOL     OW 9041   3.344   4.868   1.184 -0.6838  0.4788 -0.2363
 2319SOL    HW2 9042   3.362   4.884   1.091 -1.2021  1.6941 -0.1571
 2319SOL    HW3 9043   3.339   4.956   1.222 -0.4610 -0.0052  0.9482
 2319SOL    MW4 9044   3.345   4.882   1.177 -0.7228  0.5753 -0.0696
 2320SOL     OW 9045   3.280   2.906   4.264  0.0482 -0.0592  0.2195
 2320SOL    HW2 9046   3.221   2.831   4.253 -0.7479  0.4900  0.6608
 2320SOL    HW3 9047   3.289   2.942   4.176 -1.0050  0.3857  0.2815
 2320SOL    MW4 9048   3.273   2.901   4.251 -0.1958  0.0720  0.2859
 2321SOL     OW 9049   6.081   1.731   2.549 -0.2075  0.3906 -0.8606
 2321SOL    HW2 9050   6.046   1.672   2.615 -1.5649  0.8297 -1.1523
 2321SOL    HW3 9051   6.175   1.730   2.563 -0.3450 -0.6861  0.0939
 2321SOL    MW4 9052   6.089   1.723   2.559 -0.4048  0.3065 -0.7731
 2322SOL     OW 9053   2.458   1.732   5.844  0.1958 -0.4471 -0.2627
 2322SOL    HW2 9054   2.447   1.644   5.809 -0.6709  0.1711 -1.6294
 2322SOL    HW3 9055   2.551   1.752   5.830  0.0660 -0.5773 -1.3516
 2322SOL    MW4 9056   2.469   1.723   5.838  0.0643 -0.3827 -0.5867
 2323SOL     OW 9057   5.957   4.040   2.650 -0.4299 -0.2162 -0.4767
 2323SOL    HW2 9058   5.869   4.005   2.658 -0.1717 -0.9332 -0.7027
 2323SOL    HW3 9059   6.014   3.963   2.653  0.2903  0.3217  1.1309
 2323SOL    MW4 9060   5.953   4.025   2.652 -0.3008 -0.2399 -0.2944
 2324SOL     OW 9061   2.002   2.688   6.374 -0.4772 -0.1171  0.3980
 2324SOL    HW2 9062   2.079   2.661   6.323 -0.8342 -0.6461  0.1329
 2324SOL    HW3 9063   1.929   2.680   6.313 -0.7073  0.6772  0.5622
 2324SOL    MW4 9064   2.003   2.684   6.359 -0.5547 -0.0821  0.3847
 2325SOL     OW 9065   2.922   5.164   5.118 -0.7979 -0.3805 -0.1984
 2325SOL    HW2 9066   2.975   5.148   5.040 -1.2236  0.9604 -0.7780
 2325SOL    HW3 9067   2.832   5.163   5.087 -0.9404  0.8838  0.1224
 2325SOL    MW4 9068   2.917   5.162   5.104 -0.8729 -0.0368 -0.2325
 2326SOL     OW 9069   3.677   3.545   0.886  0.5039 -0.4876  0.0005
 2326SOL    HW2 9070   3.722   3.537   0.970  0.9139 -0.2967 -0.2003
 2326SOL    HW3 9071   3.741   3.520   0.821  0.4356  0.1149 -0.3103
 2326SOL    MW4 9072   3.691   3.541   0.889  0.5490 -0.3829 -0.0670
 2327SOL     OW 9073   2.153   0.951   4.898 -0.2466 -0.1473 -0.8838
 2327SOL    HW2 9074   2.065   0.913   4.906 -0.7399  0.7740 -1.7662
 2327SOL    HW3 9075   2.212   0.877   4.911 -1.1459 -0.8160 -0.4487
 2327SOL    MW4 9076   2.149   0.936   4.901 -0.4303 -0.1140 -0.9428
 2328SOL     OW 9077   4.293   3.795   6.303 -0.3849  0.5294  0.4292
 2328SOL    HW2 9078   4.302   3.735   6.376 -0.3966 -0.5362 -0.4213
 2328SOL    HW3 9079   4.209   3.771   6.262  0.0517  0.4783 -0.4680
 2328SOL    MW4 9080   4.283   3.784   6.307 -0.3289  0.3821  0.1986
 2329SOL     OW 9081   3.754   0.123   1.595  0.5615  0.3810 -0.0687
 2329SOL    HW2 9082   3.768   0.130   1.501  0.0881  1.8469 -0.0431
 2329SOL    HW3 9083   3.666   0.156   1.610  0.3927 -0.4127  0.8314
 2329SOL    MW4 9084   3.744   0.128   1.585  0.4767  0.4697  0.0535
 2330SOL     OW 9085   0.153   4.990   5.920 -0.0892 -0.2700  0.1661
 2330SOL    HW2 9086   0.197   4.950   5.845 -0.3074 -0.5767  0.2003
 2330SOL    HW3 9087   0.221   4.994   5.988  0.5306  1.3588 -0.5056
 2330SOL    MW4 9088   0.168   4.985   5.919 -0.0362 -0.0956  0.0820
 2331SOL     OW 9089   0.420   3.579   0.738  0.0127  0.1412 -0.3441
 2331SOL    HW2 9090   0.375   3.663   0.737  1.2711  1.0638 -5.1036
 2331SOL    HW3 9091   0.512   3.601   0.753 -0.0821 -1.0190  2.6668
 2331SOL    MW4 9092   0.426   3.593   0.740  0.1662  0.1098 -0.5748
 2332SOL     OW 9093   5.230   0.953   0.277 -0.4672 -0.1788  0.2729
 2332SOL    HW2 9094   5.219   0.945   0.182 -0.9801 -0.9080  0.3839
 2332SOL    HW3 9095   5.251   0.865   0.306 -0.4422  0.0167  0.8548
 2332SOL    MW4 9096   5.231   0.940   0.268 -0.5316 -0.2492  0.3643
 2333SOL     OW 9097   0.273   5.210   5.679 -0.2573  0.2841 -0.2930
 2333SOL    HW2 9098   0.216   5.259   5.738 -0.6581 -0.8014  0.2484
 2333SOL    HW3 9099   0.218   5.189   5.604 -1.0016 -1.7807  0.7420
 2333SOL    MW4 9100   0.258   5.213   5.677 -0.4084 -0.1315 -0.0850
 2334SOL     OW 9101   4.344   3.926   1.852 -0.1579 -0.4968 -0.5440
 2334SOL    HW2 9102   4.406   3.997   1.835 -0.1997 -0.0957  0.8978
 2334SOL    HW3 9103   4.259   3.969   1.861  0.1071 -0.3865  2.4513
 2334SOL    MW4 9104   4.341   3.941   1.851 -0.1284 -0.4294  0.0414
 2335SOL     OW 9105   4.334   1.673   5.762 -0.5370  0.0888 -0.4875
 2335SOL    HW2 9106   4.260   1.664   5.822 -0.1729  1.3640  0.2080
 2335SOL    HW3 9107   4.335   1.767   5.741  1.3870  0.2604  0.2084
 2335SOL    MW4 9108   4.324   1.684   5.767 -0.2351  0.2797 -0.3039
 2336SOL     OW 9109   3.966   2.526   4.334 -0.5188  0.3617  0.3675
 2336SOL    HW2 9110   4.011   2.604   4.366  0.9536 -0.6639  0.8961
 2336SOL    HW3 9111   4.033   2.478   4.284 -1.5716 -0.2562 -0.5125
 2336SOL    MW4 9112   3.981   2.530   4.331 -0.4635  0.1449  0.3211
 2337SOL     OW 9113   3.985   4.988   0.586 -0.4514  0.6778  0.3787
 2337SOL    HW2 9114   3.900   4.967   0.625 -0.0599  1.2024  1.5535
 2337SOL    HW3 9115   3.986   5.084   0.582  0.3040  0.6954  0.8783
 2337SOL    MW4 9116   3.974   4.998   0.590 -0.3001  0.7493  0.5996
 2338SOL     OW 9117   6.405   3.466   3.053 -0.6458 -0.6359 -0.0242
 2338SOL    HW2 9118   6.397   3.444   3.145 -1.8185 -2.0361 -0.4235
 2338SOL    HW3 9119   6.496   3.445   3.031 -0.9671 -2.5737  0.2948
 2338SOL    MW4 9120   6.416   3.460   3.062 -0.8429 -1.0763 -0.0348
 2339SOL     OW 9121   1.855   6.345   0.886 -0.3648 -0.0449 -0.2952
 2339SOL    HW2 9122   1.759   6.347   0.883 -0.3635 -1.1423 -2.0545
 2339SOL    HW3 9123   1.875   6.285   0.958 -0.9417  0.9255  0.7235
 2339SOL    MW4 9124   1.845   6.337   0.895 -0.4408 -0.0617 -0.3929
 2340SOL     OW 9125   1.578   2.617   5.982  0.4654  0.3840 -0.5478
 2340SOL    HW2 9126   1.501   2.595   6.035 -0.4701  0.7751 -1.6848
 2340SOL    HW3 9127   1.607   2.534   5.946 -0.0050  0.3486 -0.8556
 2340SOL    MW4 9128   1.571   2.603   5.984  0.2799  0.4310 -0.7384
 2341SOL     OW 9129   1.409   1.137   1.475 -0.0401  0.8657  0.5726
 2341SOL    HW2 9130   1.410   1.065   1.412 -1.4932  1.1404  0.1823
 2341SOL    HW3 9131   1.440   1.213   1.425 -0.2767  0.8844  0.4513
 2341SOL    MW4 9132   1.413   1.137   1.460 -0.2630  0.9044  0.5051
 2342SOL     OW 9133   6.267   4.463   4.292 -0.7854 -0.5463  0.0612
 2342SOL    HW2 9134   6.347   4.417   4.318 -1.3245 -0.9151  1.1320
 2342SOL    HW3 9135   6.285   4.493   4.203  0.7111 -0.2501  0.4198
 2342SOL    MW4 9136   6.280   4.461   4.284 -0.6591 -0.5559  0.2498
 2343SOL     OW 9137   1.056   5.631   5.335  0.1607  0.0865  0.5400
 2343SOL    HW2 9138   1.077   5.630   5.428  0.0461  0.5677  0.5748
 2343SOL    HW3 9139   0.993   5.703   5.326 -1.7519 -1.4938  0.5108
 2343SOL    MW4 9140   1.050   5.640   5.346 -0.1068 -0.0585  0.5407
 2344SOL     OW 9141   4.973   3.775   5.902  0.3339 -0.1788 -0.3879
 2344SOL    HW2 9142   4.909   3.724   5.952  0.9310 -0.2798  0.2922
 2344SOL    HW3 9143   4.936   3.780   5.814 -0.8906  0.2773  0.1376
 2344SOL    MW4 9144   4.960   3.769   5.897  0.2511 -0.1319 -0.2288
 2345SOL     OW 9145   0.663   1.778   3.614 -0.6792  0.2724  0.0802
 2345SOL    HW2 9146   0.613   1.731   3.681 -1.8905 -1.5065 -1.9487
 2345SOL    HW3 9147   0.665   1.718   3.539  0.2787  2.3245 -1.6324
 2345SOL    MW4 9148   0.657   1.764   3.613 -0.7126  0.3084 -0.4134
 2346SOL     OW 9149   5.035   1.067   4.645  0.0549 -0.2326 -0.6437
 2346SOL    HW2 9150   5.037   1.099   4.735  3.2195 -0.8678 -0.3523
 2346SOL    HW3 9151   5.038   1.146   4.591 -0.0819  0.1238 -0.1371
 2346SOL    MW4 9152   5.036   1.081   4.649  0.4544 -0.2693 -0.5384
 2347SOL     OW 9153   4.068   3.109   1.150  0.7161 -0.3458 -0.0130
 2347SOL    HW2 9154   4.036   3.113   1.240  1.3451 -1.2164  0.2612
 2347SOL    HW3 9155   4.163   3.119   1.158  0.6498  1.1658 -0.7241
 2347SOL    MW4 9156   4.077   3.111   1.163  0.7903 -0.2612 -0.0706
 2348SOL     OW 9157   4.510   3.609   3.693 -0.0371  0.1265 -0.0577
 2348SOL    HW2 9158   4.449   3.538   3.710 -1.9054  1.2878 -1.5387
 2348SOL    HW3 9159   4.469   3.686   3.733  0.8667  0.7796 -0.3524
 2348SOL    MW4 9160   4.497   3.610   3.701 -0.1643  0.3659 -0.2920
 2349SOL     OW 9161   3.479   3.007   2.698  0.1534 -0.6471  0.0817
 2349SOL    HW2 9162   3.390   3.006   2.731  0.8553  0.8977  2.2835
 2349SOL    HW3 9163   3.496   3.099   2.678  1.3330 -0.8510  0.0578
 2349SOL    MW4 9164   3.470   3.019   2.700  0.4016 -0.4702  0.3690
 2350SOL     OW 9165   3.304   5.280   5.857 -0.3937  0.4078 -0.2159
 2350SOL    HW2 9166   3.374   5.332   5.896 -1.3889  0.7258  1.2281
 2350SOL    HW3 9167   3.227   5.338   5.860 -1.0258 -0.3932 -0.5553
 2350SOL    MW4 9168   3.303   5.295   5.863 -0.6084  0.3441 -0.0702
 2351SOL     OW 9169   3.590   6.265   2.679 -0.0213  0.4811 -0.2116
 2351SOL    HW2 9170   3.530   6.190   2.688 -0.6721  1.1338  1.0756
 2351SOL    HW3 9171   3.540   6.340   2.710  0.7086  1.4403 -1.2626
 2351SOL    MW4 9172   3.576   6.265   2.684 -0.0109  0.6938 -0.1804
 2352SOL     OW 9173   2.075   0.779   3.635  0.0113 -0.1912 -0.5978
 2352SOL    HW2 9174   2.085   0.831   3.555 -0.1957 -0.7516 -0.9901
 2352SOL    HW3 9175   2.133   0.704   3.622 -0.0079 -0.2719 -0.2145
 2352SOL    MW4 9176   2.084   0.776   3.623 -0.0185 -0.2758 -0.5990
 2353SOL     OW 9177   2.572   0.737   4.292 -0.3544 -0.0421 -0.6941
 2353SOL    HW2 9178   2.592   0.722   4.199 -0.4750 -0.6244 -0.6300
 2353SOL    HW3 9179   2.484   0.775   4.291  0.3901  1.7904 -0.9284
 2353SOL    MW4 9180   2.563   0.740   4.279 -0.2721  0.1229 -0.7166
 2354SOL     OW 9181   4.453   4.253   2.774  0.2378  0.2090  0.3465
 2354SOL    HW2 9182   4.520   4.273   2.709  0.3937 -1.2865  0.0169
 2354SOL    HW3 9183   4.458   4.159   2.786 -1.4370  0.1280  0.7310
 2354SOL    MW4 9184   4.462   4.244   2.767  0.0374  0.0010  0.3538
 2355SOL     OW 9185   0.714   3.102   3.067  0.1096  0.6279 -0.0630
 2355SOL    HW2 9186   0.733   3.147   2.984  0.4938  0.2641 -0.1759
 2355SOL    HW3 9187   0.633   3.054   3.050  0.1912  0.5492 -0.2315
 2355SOL    MW4 9188   0.706   3.102   3.054  0.1711  0.5695 -0.1002
 2356SOL     OW 9189   1.576   3.425   1.232  0.0318 -0.0364 -0.3216
 2356SOL    HW2 9190   1.561   3.491   1.164 -0.3592  0.2675  0.0530
 2356SOL    HW3 9191   1.546   3.343   1.193 -1.0214  0.2820 -0.2054
 2356SOL    MW4 9192   1.570   3.423   1.218 -0.1587  0.0457 -0.2569
 2357SOL     OW 9193   0.230   5.125   2.559 -0.0922 -0.2694  0.2785
 2357SOL    HW2 9194   0.278   5.042   2.553 -1.0274 -0.7454 -1.1307
 2357SOL    HW3 9195   0.162   5.108   2.625 -0.6403 -0.8345 -0.4156
 2357SOL    MW4 9196   0.227   5.111   2.567 -0.2879 -0.4068  0.0010
 2358SOL     OW 9197   0.300   3.069   4.148  0.2006  0.1588 -0.4508
 2358SOL    HW2 9198   0.325   2.980   4.175  0.7963  0.4320 -0.0822
 2358SOL    HW3 9199   0.269   3.111   4.229  1.2758  0.7372 -0.3176
 2358SOL    MW4 9200   0.299   3.063   4.162  0.4210  0.2712 -0.3846
 2359SOL     OW 9201   3.484   2.876   5.522 -0.2016  0.0481  0.1882
 2359SOL    HW2 9202   3.521   2.961   5.547  0.1869  0.1917 -0.8035
 2359SOL    HW3 9203   3.540   2.846   5.450 -1.6678  0.0062 -0.9924
 2359SOL    MW4 9204   3.496   2.883   5.516 -0.3438  0.0615 -0.0985
 2360SOL     OW 9205   2.129   3.861   3.486  0.4569  0.2034  0.5147
 2360SOL    HW2 9206   2.153   3.944   3.527  0.1436  0.0255  1.0751
 2360SOL    HW3 9207   2.137   3.877   3.392 -0.8824  1.2891  0.5400
 2360SOL    MW4 9208   2.133   3.874   3.479  0.2388  0.3232  0.5919
 2361SOL     OW 9209   6.180   4.455   2.484  0.3874 -0.2677 -0.3591
 2361SOL    HW2 9210   6.235   4.411   2.418  0.5044 -0.3801 -0.1870
 2361SOL    HW3 9211   6.215   4.426   2.568 -2.0861 -3.1880 -0.1685
 2361SOL    MW4 9212   6.192   4.445   2.486  0.0765 -0.6678 -0.3113
 2362SOL     OW 9213   1.223   2.543   0.727  0.3683  0.5748  0.0937
 2362SOL    HW2 9214   1.203   2.601   0.653  1.4937  3.3454  1.8149
 2362SOL    HW3 9215   1.312   2.512   0.710  0.5570  1.0586  0.1825
 2362SOL    MW4 9216   1.232   2.547   0.715  0.5417  1.0042  0.3325
 2363SOL     OW 9217   2.969   2.162   3.160 -0.2864  0.0989 -0.6219
 2363SOL    HW2 9218   2.933   2.075   3.142 -0.8127  0.1175  0.2648
 2363SOL    HW3 9219   3.057   2.146   3.193 -0.3125 -0.0909 -0.6459
 2363SOL    MW4 9220   2.976   2.149   3.162 -0.3593  0.0763 -0.5081
 2364SOL     OW 9221   2.064   5.504   3.168  0.2395  0.2500  0.1936
 2364SOL    HW2 9222   2.109   5.469   3.244  0.8935  0.6880  0.0156
 2364SOL    HW3 9223   2.130   5.505   3.099 -0.0829  0.7416 -0.1163
 2364SOL    MW4 9224   2.078   5.499   3.169  0.2833  0.3726  0.1292
 2365SOL     OW 9225   0.819   5.055   5.281 -0.7837  0.1947  0.2038
 2365SOL    HW2 9226   0.820   5.146   5.307  0.7390 -0.0194  0.9866
 2365SOL    HW3 9227   0.839   5.056   5.187  0.6516  0.6087  0.4960
 2365SOL    MW4 9228   0.822   5.067   5.272 -0.3934  0.2211  0.3456
 2366SOL     OW 9229   0.644   5.497   5.690 -1.0258 -0.3229 -0.2660
 2366SOL    HW2 9230   0.662   5.488   5.597  0.0989  1.3561 -0.2658
 2366SOL    HW3 9231   0.551   5.518   5.696 -1.0016  0.0362 -1.0591
 2366SOL    MW4 9232   0.634   5.499   5.679 -0.8742 -0.0540 -0.3706
 2367SOL     OW 9233   0.030   5.975   4.827 -0.0261 -0.2304 -0.2684
 2367SOL    HW2 9234   0.094   5.911   4.797  0.1519  0.2371 -0.9101
 2367SOL    HW3 9235   0.065   6.059   4.800 -1.0179  0.0184 -0.8565
 2367SOL    MW4 9236   0.043   5.977   4.820 -0.1335 -0.1359 -0.4307
 2368SOL     OW 9237   2.626   5.515   1.318 -0.1333 -0.0987 -0.1569
 2368SOL    HW2 9238   2.546   5.522   1.267 -0.2750 -1.6271 -0.1936
 2368SOL    HW3 9239   2.696   5.539   1.257 -0.5546  1.5312 -0.0429
 2368SOL    MW4 9240   2.625   5.519   1.303 -0.2075 -0.0853 -0.1467
 2369SOL     OW 9241   1.678   1.609   1.100 -0.1699 -0.0252  0.1190
 2369SOL    HW2 9242   1.692   1.681   1.161 -0.9910  0.6493 -0.4608
 2369SOL    HW3 9243   1.588   1.619   1.070 -0.3051 -1.3076  0.0263
 2369SOL    MW4 9244   1.668   1.620   1.104 -0.2961 -0.1054  0.0303
 2370SOL     OW 9245   2.655   5.481   5.151  0.1501  0.3137 -0.4163
 2370SOL    HW2 9246   2.667   5.447   5.239  0.5977 -0.1651 -0.6553
 2370SOL    HW3 9247   2.743   5.507   5.123  0.0829  0.0533 -0.8812
 2370SOL    MW4 9248   2.668   5.480   5.159  0.2003  0.2162 -0.5092
 2371SOL     OW 9249   0.214   3.830   6.110 -0.0187 -0.3274  0.2204
 2371SOL    HW2 9250   0.291   3.865   6.154 -0.6144  0.5035  0.6300
 2371SOL    HW3 9251   0.205   3.882   6.030 -1.6685  1.4588  1.4723
 2371SOL    MW4 9252   0.223   3.841   6.105 -0.3150  0.0179  0.4396
 2372SOL     OW 9253   4.412   5.127   6.161 -0.8451 -0.9434 -0.6899
 2372SOL    HW2 9254   4.405   5.033   6.147 -0.6039 -1.0934  0.1694
 2372SOL    HW3 9255   4.346   5.165   6.103 -1.2706 -1.6731 -0.6907
 2372SOL    MW4 9256   4.403   5.120   6.152 -0.8694 -1.0595 -0.5766
 2373SOL     OW 9257   2.433   1.615   2.453  0.3118  0.6160 -0.8237
 2373SOL    HW2 9258   2.499   1.548   2.436 -0.2611 -0.2158  0.1096
 2373SOL    HW3 9259   2.368   1.571   2.508  0.0381  2.0033  0.0146
 2373SOL    MW4 9260   2.433   1.600   2.458  0.2001  0.6893 -0.5900
 2374SOL     OW 9261   4.542   4.543   4.133  0.0066  0.2456 -0.0319
 2374SOL    HW2 9262   4.489   4.540   4.053  1.5824 -3.3543 -1.2002
 2374SOL    HW3 9263   4.616   4.599   4.110 -0.9991  1.6572  0.0387
 2374SOL    MW4 9264   4.545   4.550   4.119  0.0818 -0.0431 -0.1767
 2375SOL     OW 9265   4.650   4.305   5.783  0.1580  0.4585  0.1418
 2375SOL    HW2 9266   4.604   4.363   5.845  1.4262  0.3398  1.2479
 2375SOL    HW3 9267   4.640   4.217   5.820 -3.4293 -0.4650 -2.5327
 2375SOL    MW4 9268   4.643   4.301   5.796 -0.1480  0.3210 -0.0651
 2376SOL     OW 9269   5.225   0.895   4.540 -0.6063  0.5344  0.0811
 2376SOL    HW2 9270   5.162   0.951   4.585  0.7017  1.5046  0.7864
 2376SOL    HW3 9271   5.218   0.810   4.584  1.0624  1.6184  2.6212
 2376SOL    MW4 9272   5.216   0.891   4.552 -0.2135  0.8054  0.5093
 2377SOL     OW 9273   5.845   1.949   1.795  0.4159 -0.1094  0.2152
 2377SOL    HW2 9274   5.767   1.894   1.798 -0.6116  1.3536  2.3945
 2377SOL    HW3 9275   5.880   1.935   1.706 -1.7787 -1.5027 -0.5165
 2377SOL    MW4 9276   5.840   1.940   1.783 -0.0092 -0.1002  0.4062
 2378SOL     OW 9277   4.014   3.552   1.225 -0.0707  0.2578  0.4781
 2378SOL    HW2 9278   4.003   3.606   1.147  1.3456  0.7853  0.6107
 2378SOL    HW3 9279   4.069   3.605   1.282  2.8012 -1.9628 -0.0527
 2378SOL    MW4 9280   4.019   3.566   1.222  0.4951  0.0344  0.4255
 2379SOL     OW 9281   6.029   4.104   4.694 -0.0975 -0.1102  0.1379
 2379SOL    HW2 9282   6.119   4.076   4.676  0.5596  2.1527 -0.3373
 2379SOL    HW3 9283   6.032   4.136   4.784 -0.2003  0.8269 -0.1879
 2379SOL    MW4 9284   6.041   4.104   4.704 -0.0243  0.3120  0.0323
 2380SOL     OW 9285   4.382   6.404   0.343 -0.3671 -0.3768  0.0090
 2380SOL    HW2 9286   4.467   6.381   0.305 -0.6370 -2.2695  0.4548
 2380SOL    HW3 9287   4.318   6.356   0.290 -1.1157  0.3848  0.1874
 2380SOL    MW4 9288   4.385   6.395   0.331 -0.5015 -0.5261  0.0913
 2381SOL     OW 9289   3.779   0.471   4.946  0.4516 -0.2545 -0.2696
 2381SOL    HW2 9290   3.740   0.493   4.861  0.0891  0.3320  0.0482
 2381SOL    HW3 9291   3.854   0.530   4.953  1.0059 -0.9139 -0.5746
 2381SOL    MW4 9292   3.784   0.482   4.935  0.4769 -0.2641 -0.2679
 2382SOL     OW 9293   1.914   2.768   3.091 -0.2152 -0.8361 -0.0667
 2382SOL    HW2 9294   1.870   2.747   3.008 -1.2030  1.3057 -0.1357
 2382SOL    HW3 9295   1.860   2.725   3.157 -0.6510 -0.7947 -0.3855
 2382SOL    MW4 9296   1.901   2.759   3.089 -0.4030 -0.5480 -0.1179
 2383SOL     OW 9297   0.418   3.874   1.779 -0.2696 -0.4013 -0.1357
 2383SOL    HW2 9298   0.382   3.852   1.865 -1.3033  1.5358  0.0033
 2383SOL    HW3 9299   0.351   3.844   1.717 -2.1267  2.7448  0.0981
 2383SOL    MW4 9300   0.404   3.867   1.782 -0.6510  0.2694 -0.0865
 2384SOL     OW 9301   3.870   6.192   1.438 -0.0331  0.1811 -0.2806
 2384SOL    HW2 9302   3.777   6.201   1.459 -0.6666  1.6688 -3.2023
 2384SOL    HW3 9303   3.884   6.098   1.427 -0.6280 -0.2552  2.1728
 2384SOL    MW4 9304   3.860   6.181   1.439 -0.1952  0.3198 -0.3424
 2385SOL     OW 9305   3.018   0.721   4.959 -0.5050 -0.2123 -0.0959
 2385SOL    HW2 9306   2.997   0.717   5.053  0.2013 -0.2712  0.0679
 2385SOL    HW3 9307   2.951   0.779   4.922  0.1862  1.1895  0.7460
 2385SOL    MW4 9308   3.006   0.728   4.967 -0.3206 -0.0351  0.0368
 2386SOL     OW 9309   1.431   5.410   3.631  0.3617 -0.1069  0.3628
 2386SOL    HW2 9310   1.429   5.469   3.555  2.0600  0.9107  1.0546
 2386SOL    HW3 9311   1.386   5.331   3.601 -1.6703  1.3664 -0.7286
 2386SOL    MW4 9312   1.425   5.407   3.617  0.3177  0.2218  0.3101
 2387SOL     OW 9313   6.173   2.335   3.290 -0.2777  0.5461  0.2341
 2387SOL    HW2 9314   6.088   2.291   3.294  0.6688 -1.5243 -0.8728
 2387SOL    HW3 9315   6.202   2.339   3.381 -1.2823  0.7473  0.5596
 2387SOL    MW4 9316   6.166   2.330   3.303 -0.2854  0.2994  0.1310
 2388SOL     OW 9317   1.531   2.385   4.636  0.4944  0.0169  0.2856
 2388SOL    HW2 9318   1.480   2.307   4.657 -0.9698  0.2213 -2.0645
 2388SOL    HW3 9319   1.483   2.457   4.676 -0.0154  0.0145 -0.3085
 2388SOL    MW4 9320   1.518   2.384   4.644  0.2340  0.0436 -0.1028
 2389SOL     OW 9321   4.162   4.925   4.708 -0.2399 -0.4788  0.0388
 2389SOL    HW2 9322   4.222   5.000   4.708 -0.9993  0.1445  0.0694
 2389SOL    HW3 9323   4.175   4.884   4.793  0.4962 -0.6457 -0.1477
 2389SOL    MW4 9324   4.172   4.929   4.719 -0.2430 -0.4186  0.0182
 2390SOL     OW 9325   6.397   1.639   5.868  0.3927  0.5255  0.5016
 2390SOL    HW2 9326   6.388   1.559   5.816 -2.4195 -0.0518  1.6977
 2390SOL    HW3 9327   6.484   1.633   5.906  0.9849 -1.0010 -0.9571
 2390SOL    MW4 9328   6.407   1.628   5.866  0.0998  0.2479  0.4669
 2391SOL     OW 9329   3.300   3.128   4.828 -0.3654  0.1889 -0.0698
 2391SOL    HW2 9330   3.386   3.157   4.859 -0.5351  0.4647  0.1520
 2391SOL    HW3 9331   3.319   3.075   4.751  0.1155 -1.0712  0.8809
 2391SOL    MW4 9332   3.314   3.125   4.822 -0.3243  0.0590  0.0849
 2392SOL     OW 9333   2.645   6.437   3.014  0.1488 -0.5084 -0.2238
 2392SOL    HW2 9334   2.614   6.525   3.036  0.2969 -0.2119 -1.1754
 2392SOL    HW3 9335   2.566   6.387   2.996  0.1514  0.0716 -1.9997
 2392SOL    MW4 9336   2.631   6.442   3.015  0.1687 -0.3928 -0.5837
 2393SOL     OW 9337   2.576   3.087   2.339 -0.3604  0.3946 -0.4602
 2393SOL    HW2 9338   2.487   3.099   2.307 -0.4789 -0.8085 -0.6323
 2393SOL    HW3 9339   2.565   3.044   2.424  0.0613  0.1089 -0.5492
 2393SOL    MW4 9340   2.563   3.083   2.346 -0.3204  0.1982 -0.4946
 2394SOL     OW 9341   4.774   4.545   4.424  0.3609 -0.5776  0.3875
 2394SOL    HW2 9342   4.839   4.491   4.469  2.9733  0.5073 -1.8602
 2394SOL    HW3 9343   4.791   4.634   4.455  0.2278 -0.2274 -0.5153
 2394SOL    MW4 9344   4.785   4.550   4.434  0.6880 -0.3883 -0.0282
 2395SOL     OW 9345   2.993   4.077   6.249 -0.4554  0.0250  0.1175
 2395SOL    HW2 9346   3.042   4.154   6.220  1.4477 -0.8401  0.8893
 2395SOL    HW3 9347   2.966   4.097   6.338  2.2674 -1.1184  1.2877
 2395SOL    MW4 9348   2.996   4.090   6.257  0.1549 -0.2400  0.3737
 2396SOL     OW 9349   0.005   2.332   4.844 -0.0616  0.3125  0.2292
 2396SOL    HW2 9350  -0.002   2.382   4.762  0.6260 -0.6246 -0.4186
 2396SOL    HW3 9351  -0.077   2.349   4.889 -0.6806  0.4156 -0.9037
 2396SOL    MW4 9352  -0.006   2.341   4.839 -0.0526  0.2024 -0.0057
 2397SOL     OW 9353   4.813   5.951   2.055 -0.2646  0.3867 -0.3431
 2397SOL    HW2 9354   4.886   6.011   2.039 -0.7387  1.3882  1.0579
 2397SOL    HW3 9355   4.804   5.902   1.973  2.4523 -0.3352 -0.2972
 2397SOL    MW4 9356   4.822   5.953   2.042  0.0313  0.4236 -0.1522
 2398SOL     OW 9357   0.519   1.378   3.932 -0.3664 -0.1551 -0.3772
 2398SOL    HW2 9358   0.471   1.298   3.913  1.2930 -1.3440  0.2065
 2398SOL    HW3 9359   0.544   1.370   4.025 -1.8120  1.9609  0.2596
 2398SOL    MW4 9360   0.516   1.367   3.942 -0.3382 -0.0328 -0.2161
 2399SOL     OW 9361   0.487   3.145   3.592 -0.1246 -0.1498  0.2327
 2399SOL    HW2 9362   0.571   3.131   3.547  0.2621  0.4477  0.7500
 2399SOL    HW3 9363   0.504   3.218   3.652 -0.7813 -0.5780  0.9566
 2399SOL    MW4 9364   0.500   3.153   3.594 -0.1602 -0.1275  0.3964
 2400SOL     OW 9365   2.904   4.322   5.771 -0.1207  0.3856 -0.2976
 2400SOL    HW2 9366   2.873   4.317   5.681  2.5231  0.5863 -1.3201
 2400SOL    HW3 9367   2.934   4.413   5.781  0.2342  0.1878  0.5585
 2400SOL    MW4 9368   2.904   4.334   5.761  0.2749  0.3860 -0.3196
 2401SOL     OW 9369   5.314   0.310   2.783  0.0731 -0.2288  0.4050
 2401SOL    HW2 9370   5.285   0.286   2.870 -0.3034 -1.5810 -0.0689
 2401SOL    HW3 9371   5.354   0.231   2.748  0.3715  0.3400 -0.5839
 2401SOL    MW4 9372   5.315   0.296   2.790  0.0628 -0.3322  0.2120
 2402SOL     OW 9373   0.598   3.668   2.799  0.0337  0.2380  0.3860
 2402SOL    HW2 9374   0.631   3.635   2.716 -2.1149 -1.9471  0.2913
 2402SOL    HW3 9375   0.618   3.762   2.797  2.0467 -0.1529 -1.5508
 2402SOL    MW4 9376   0.605   3.676   2.788  0.0158 -0.1019  0.1180
 2403SOL     OW 9377   1.134   1.481   6.116 -0.1839  0.1861  0.3690
 2403SOL    HW2 9378   1.072   1.462   6.186 -0.4450 -2.2517 -0.3980
 2403SOL    HW3 9379   1.105   1.564   6.080 -2.1756 -0.2012  0.9363
 2403SOL    MW4 9380   1.122   1.489   6.120 -0.4811 -0.1866  0.3427
 2404SOL     OW 9381   2.428   0.797   3.824 -0.2258  0.5197 -0.5124
 2404SOL    HW2 9382   2.379   0.869   3.784 -1.1539 -0.5635 -1.3943
 2404SOL    HW3 9383   2.467   0.751   3.750  0.9936  0.5422  0.0921
 2404SOL    MW4 9384   2.427   0.801   3.809 -0.1874  0.3798 -0.5490
 2405SOL     OW 9385   2.766   5.264   2.027  0.1789  0.7448  0.1314
 2405SOL    HW2 9386   2.797   5.244   2.115  1.7453  1.3703 -0.2346
 2405SOL    HW3 9387   2.714   5.344   2.038 -0.6108  0.1698  0.6432
 2405SOL    MW4 9388   2.763   5.272   2.040  0.2814  0.7514  0.1506
 2406SOL     OW 9389   0.533   2.655   0.896 -0.1112  0.4860 -0.3041
 2406SOL    HW2 9390   0.548   2.727   0.957 -2.0253 -1.8129  3.2700
 2406SOL    HW3 9391   0.439   2.658   0.879 -0.5270 -1.8550  1.1164
 2406SOL    MW4 9392   0.523   2.665   0.902 -0.4186 -0.1261  0.3549
 2407SOL     OW 9393   5.090   4.850   6.361  0.3703 -0.1264  0.3275
 2407SOL    HW2 9394   5.184   4.868   6.369  0.5291 -0.6521 -0.3131
 2407SOL    HW3 9395   5.056   4.925   6.312  0.6981 -0.6026 -0.6428
 2407SOL    MW4 9396   5.098   4.863   6.356  0.4345 -0.2586  0.1149
 2408SOL     OW 9397   3.789   4.511   5.601  0.0771  0.0646 -0.0678
 2408SOL    HW2 9398   3.858   4.520   5.668 -0.9186 -0.8553  1.1246
 2408SOL    HW3 9399   3.759   4.601   5.586  1.2205  0.4252 -0.2707
 2408SOL    MW4 9400   3.794   4.524   5.608  0.0966 -0.0092  0.0628
 2409SOL     OW 9401   2.584   4.979   3.698 -0.5332 -0.2176  0.1258
 2409SOL    HW2 9402   2.602   4.918   3.770 -0.6491 -0.5569 -0.1280
 2409SOL    HW3 9403   2.500   4.949   3.661 -0.6501  0.1663  0.0702
 2409SOL    MW4 9404   2.575   4.967   3.702 -0.5639 -0.2117  0.0850
 2410SOL     OW 9405   0.628   2.396   0.992 -0.1146 -0.3846 -0.2418
 2410SOL    HW2 9406   0.576   2.472   0.966 -1.0861 -0.3572  1.6089
 2410SOL    HW3 9407   0.651   2.413   1.083  1.7523 -1.1976 -0.5168
 2410SOL    MW4 9408   0.624   2.408   1.000  0.0035 -0.4883 -0.0339
 2411SOL     OW 9409   0.677   0.422   5.069  0.1641  0.0182  0.0095
 2411SOL    HW2 9410   0.633   0.378   5.141  0.4167  1.5874  1.1832
 2411SOL    HW3 9411   0.605   0.457   5.016 -0.0263 -1.3959 -0.7062
 2411SOL    MW4 9412   0.661   0.421   5.071  0.1723  0.0387  0.0699
 2412SOL     OW 9413   2.657   0.598   2.002  0.2724  0.4907  0.0786
 2412SOL    HW2 9414   2.576   0.582   1.954 -0.8066  4.3570  0.2849
 2412SOL    HW3 9415   2.722   0.545   1.957 -1.6755  0.0023 -2.3943
 2412SOL    MW4 9416   2.655   0.589   1.990 -0.1270  0.9364 -0.2205
 2413SOL     OW 9417   0.065   4.754   4.337 -0.3094  0.3167  0.0563
 2413SOL    HW2 9418   0.051   4.711   4.421  0.7753  2.6080  1.5115
 2413SOL    HW3 9419   0.159   4.772   4.334 -0.8694  4.3569  0.6122
 2413SOL    MW4 9420   0.076   4.751   4.347 -0.2402  1.1521  0.3216
 2414SOL     OW 9421   4.400   0.710   0.862  0.1690  0.1295 -0.5488
 2414SOL    HW2 9422   4.433   0.683   0.776 -0.7501  0.6203 -1.0785
 2414SOL    HW3 9423   4.313   0.745   0.844 -0.7874 -1.3962  0.8204
 2414SOL    MW4 9424   4.393   0.711   0.848 -0.0785 -0.0070 -0.4380
 2415SOL     OW 9425   0.297   4.765   5.043 -0.0131  0.4544  0.0227
 2415SOL    HW2 9426   0.392   4.756   5.039 -0.0577  0.2709 -1.7198
 2415SOL    HW3 9427   0.273   4.734   5.130  1.3477 -1.2529 -0.1621
 2415SOL    MW4 9428   0.307   4.760   5.054  0.1605  0.2049 -0.2316
 2416SOL     OW 9429   5.701   1.948   3.727  0.1915  0.2811 -0.0436
 2416SOL    HW2 9430   5.738   1.991   3.804  0.9915 -2.1390  1.0303
 2416SOL    HW3 9431   5.773   1.942   3.665  0.6288 -1.0169  0.5367
 2416SOL    MW4 9432   5.715   1.953   3.729  0.3548 -0.2095  0.1747
 2417SOL     OW 9433   4.558   0.279   0.787 -0.4105  0.3467  0.6655
 2417SOL    HW2 9434   4.474   0.249   0.752 -0.2173  1.3692 -0.7718
 2417SOL    HW3 9435   4.535   0.331   0.864 -1.2741  1.9398 -0.5989
 2417SOL    MW4 9436   4.544   0.282   0.792 -0.4990  0.6918  0.3091
 2418SOL     OW 9437   4.136   3.438   4.515  0.1492 -0.5186  0.5918
 2418SOL    HW2 9438   4.071   3.470   4.577 -1.1194 -2.4070  0.3018
 2418SOL    HW3 9439   4.092   3.440   4.430  1.5954  1.2691 -0.1955
 2418SOL    MW4 9440   4.122   3.443   4.512  0.1727 -0.5319  0.4497
 2419SOL     OW 9441   0.594   2.562   3.458  0.3934  0.3013  0.1204
 2419SOL    HW2 9442   0.628   2.516   3.534  0.6726  0.5637  0.1530
 2419SOL    HW3 9443   0.666   2.562   3.395 -0.2246 -1.0133 -0.6387
 2419SOL    MW4 9444   0.608   2.556   3.460  0.3487  0.1625  0.0245
 2420SOL     OW 9445   3.634   5.784   4.524  0.0439  0.1232  0.3045
 2420SOL    HW2 9446   3.689   5.827   4.589  0.8976 -0.7272  0.1737
 2420SOL    HW3 9447   3.655   5.829   4.442  0.3282 -0.0180  0.3017
 2420SOL    MW4 9448   3.644   5.796   4.522  0.1940 -0.0076  0.2869
 2421SOL     OW 9449   1.746   4.129   5.239  0.2077  0.6910 -0.4784
 2421SOL    HW2 9450   1.712   4.195   5.299  1.7130  2.0172 -1.0245
 2421SOL    HW3 9451   1.772   4.178   5.161 -0.1283 -0.7758 -1.5580
 2421SOL    MW4 9452   1.745   4.144   5.237  0.3620  0.6724 -0.6929
 2422SOL     OW 9453   1.553   4.403   1.136 -0.4025  0.5173 -0.0307
 2422SOL    HW2 9454   1.627   4.435   1.085  0.0287  0.2193  0.4078
 2422SOL    HW3 9455   1.547   4.310   1.113  1.1321 -0.1588  2.0477
 2422SOL    MW4 9456   1.562   4.395   1.126 -0.1431  0.3887  0.3014
 2423SOL     OW 9457   0.947   1.475   4.940 -0.1095 -0.3015  0.3425
 2423SOL    HW2 9458   0.910   1.536   4.877  0.8743  0.2991  0.3239
 2423SOL    HW3 9459   0.890   1.399   4.936  0.1342 -0.4209 -1.5253
 2423SOL    MW4 9460   0.934   1.473   4.931  0.0525 -0.2380  0.0936
 2424SOL     OW 9461   5.061   1.032   2.438 -0.2228 -0.0316  0.4516
 2424SOL    HW2 9462   5.031   1.035   2.348  0.2737  0.6591  0.2954
 2424SOL    HW3 9463   5.002   1.091   2.486  0.0491  0.2901  0.3993
 2424SOL    MW4 9464   5.050   1.040   2.433 -0.1214  0.1020  0.4241
 2425SOL     OW 9465   2.217   1.528   2.605 -0.2121  0.5941  0.1237
 2425SOL    HW2 9466   2.226   1.583   2.683  1.1247  2.7245 -1.4111
 2425SOL    HW3 9467   2.129   1.548   2.572 -1.0749 -0.8736  1.4080
 2425SOL    MW4 9468   2.207   1.538   2.611 -0.1496  0.6815  0.0907
 2426SOL     OW 9469   2.393   5.031   0.829  0.2525 -0.2833 -0.0957
 2426SOL    HW2 9470   2.312   5.027   0.779  0.2698 -3.0391 -0.0556
 2426SOL    HW3 9471   2.454   5.078   0.772 -0.7853 -0.0256 -1.0253
 2426SOL    MW4 9472   2.390   5.036   0.815  0.1179 -0.6129 -0.2131
 2427SOL     OW 9473   5.302   0.322   6.053 -0.2823 -0.2730  0.5042
 2427SOL    HW2 9474   5.342   0.385   5.994 -0.9732 -0.3010 -0.0103
 2427SOL    HW3 9475   5.371   0.299   6.115 -0.0628  1.0936  0.7901
 2427SOL    MW4 9476   5.316   0.327   6.054 -0.3445 -0.0964  0.4740
 2428SOL     OW 9477   6.215   5.056   1.395  0.5565 -0.2525  0.2851
 2428SOL    HW2 9478   6.171   5.126   1.443  0.8965  0.4226 -0.3629
 2428SOL    HW3 9479   6.308   5.070   1.410  0.6272 -0.5772  0.1694
 2428SOL    MW4 9480   6.221   5.067   1.403  0.6107 -0.2063  0.1843
 2429SOL     OW 9481   1.099   5.164   6.069  0.6104  0.1551 -0.1228
 2429SOL    HW2 9482   1.188   5.190   6.049  0.7755 -0.7746 -0.6700
 2429SOL    HW3 9483   1.102   5.136   6.161  1.1273 -0.8612 -0.4369
 2429SOL    MW4 9484   1.111   5.163   6.079  0.7004 -0.1017 -0.2365
 2430SOL     OW 9485   2.266   1.092   1.835  0.5248  0.3974 -0.0740
 2430SOL    HW2 9486   2.250   0.998   1.835 -2.1114  0.7809 -0.3106
 2430SOL    HW3 9487   2.306   1.109   1.750  0.8313 -0.4742 -0.1167
 2430SOL    MW4 9488   2.269   1.082   1.824  0.2174  0.3330 -0.1108
 2431SOL     OW 9489   2.275   2.282   0.239 -0.1294  0.1749 -0.3484
 2431SOL    HW2 9490   2.286   2.377   0.238 -0.0043  0.2069  1.5197
 2431SOL    HW3 9491   2.186   2.268   0.206 -0.5042  1.0147  0.2922
 2431SOL    MW4 9492   2.264   2.292   0.234 -0.1623  0.2899 -0.0174
 2432SOL     OW 9493   3.357   3.300   2.056 -0.2978 -0.1182 -0.1791
 2432SOL    HW2 9494   3.309   3.322   1.976 -0.1024  0.3914 -0.1570
 2432SOL    HW3 9495   3.355   3.204   2.059 -0.5708 -0.1303 -0.6319
 2432SOL    MW4 9496   3.350   3.290   2.046 -0.3080 -0.0526 -0.2359
 2433SOL     OW 9497   4.942   6.460   0.950 -0.1455 -0.4421 -0.5307
 2433SOL    HW2 9498   4.894   6.499   0.877 -0.6348  0.3345  0.1804
 2433SOL    HW3 9499   4.877   6.452   1.020  0.0470 -2.1923 -0.5194
 2433SOL    MW4 9500   4.928   6.464   0.950 -0.1847 -0.5706 -0.4354
 2434SOL     OW 9501   6.213   6.286   3.561 -0.3841 -0.5423 -0.0779
 2434SOL    HW2 9502   6.125   6.248   3.563 -0.4205 -0.4363  1.3393
 2434SOL    HW3 9503   6.272   6.212   3.574 -0.3849 -0.3327  1.2031
 2434SOL    MW4 9504   6.209   6.271   3.563 -0.3890 -0.5006  0.2781
 2435SOL     OW 9505   1.019   6.043   4.344  0.3594 -0.2227  0.4626
 2435SOL    HW2 9506   1.003   5.973   4.281  0.3381  0.3228 -0.1589
 2435SOL    HW3 9507   0.941   6.098   4.340  1.4459  1.3329 -1.0941
 2435SOL    MW4 9508   1.007   6.041   4.335  0.5000  0.0545  0.1752
 2436SOL     OW 9509   6.285   2.215   3.887 -0.6238  0.0252 -0.7524
 2436SOL    HW2 9510   6.293   2.120   3.885 -1.7638 -0.0963 -0.0984
 2436SOL    HW3 9511   6.231   2.233   3.963 -1.3483  1.1281 -1.4948
 2436SOL    MW4 9512   6.279   2.205   3.896 -0.8698  0.1546 -0.7640
 2437SOL     OW 9513   6.409   4.621   2.291  0.5985 -0.2894  0.0408
 2437SOL    HW2 9514   6.374   4.656   2.374  0.0470  0.3441 -0.4479
 2437SOL    HW3 9515   6.409   4.526   2.304 -1.1370 -0.3175  0.1662
 2437SOL    MW4 9516   6.404   4.613   2.304  0.2968 -0.2095 -0.0071
 2438SOL     OW 9517   4.249   3.668   1.325 -0.7594  0.0937  0.4008
 2438SOL    HW2 9518   4.279   3.750   1.366  2.0570 -0.0665 -1.0856
 2438SOL    HW3 9519   4.322   3.641   1.269 -2.1167 -2.7902 -0.1674
 2438SOL    MW4 9520   4.262   3.676   1.323 -0.5669 -0.3079  0.1297
 2439SOL     OW 9521   4.082   0.778   4.004 -0.0668 -0.3338  0.4528
 2439SOL    HW2 9522   4.001   0.727   4.014 -1.1358  1.2546  0.1394
 2439SOL    HW3 9523   4.068   0.857   4.057  0.8052  0.5111 -0.5404
 2439SOL    MW4 9524   4.070   0.781   4.013 -0.0928 -0.0128  0.2804
 2440SOL     OW 9525   2.741   6.273   5.259  0.3840  0.0094  0.2169
 2440SOL    HW2 9526   2.804   6.212   5.295  1.5928  1.2940  0.3862
 2440SOL    HW3 9527   2.745   6.259   5.164 -0.0404 -0.7893  0.3079
 2440SOL    MW4 9528   2.750   6.263   5.251  0.4875  0.0735  0.2513
 2441SOL     OW 9529   0.141   2.569   0.789  0.6653 -0.0069 -0.3909
 2441SOL    HW2 9530   0.189   2.646   0.819 -1.0072  0.6927  0.6625
 2441SOL    HW3 9531   0.149   2.507   0.861  0.8358 -0.2729 -0.6391
 2441SOL    MW4 9532   0.148   2.571   0.803  0.4671  0.0503 -0.2847
 2442SOL     OW 9533   5.754   1.280   1.202 -0.5431 -0.0209 -0.5171
 2442SOL    HW2 9534   5.841   1.242   1.214 -0.5944 -0.0756 -0.3130
 2442SOL    HW3 9535   5.748   1.295   1.107 -0.8582 -1.3325 -0.7299
 2442SOL    MW4 9536   5.765   1.277   1.191 -0.5914 -0.2011 -0.5182
 2443SOL     OW 9537   1.669   5.510   0.613  0.1209  0.3629 -0.1964
 2443SOL    HW2 9538   1.676   5.598   0.577 -0.0168 -0.2935 -1.9149
 2443SOL    HW3 9539   1.579   5.503   0.644 -0.1963  0.4729 -1.0719
 2443SOL    MW4 9540   1.658   5.521   0.613  0.0609  0.2908 -0.5387
 2444SOL     OW 9541   4.002   5.726   6.246 -0.3542 -0.1407  0.0338
 2444SOL    HW2 9542   3.924   5.779   6.262 -0.8149 -0.6691 -0.4231
 2444SOL    HW3 9543   4.075   5.787   6.256 -0.8736  0.5796 -0.5106
 2444SOL    MW4 9544   4.001   5.741   6.250 -0.4835 -0.1154 -0.0983
 2445SOL     OW 9545   3.938   2.333   2.952  0.3672  0.2475 -0.1868
 2445SOL    HW2 9546   4.029   2.324   2.980 -0.5429 -0.8912  2.9085
 2445SOL    HW3 9547   3.912   2.420   2.981 -0.2316 -0.4719  1.6022
 2445SOL    MW4 9548   3.946   2.343   2.960  0.1681  0.0024  0.4576
 2446SOL     OW 9549   1.938   6.368   3.068  0.3121 -0.1128  0.1128
 2446SOL    HW2 9550   1.984   6.288   3.043  0.7023  0.6793 -1.9041
 2446SOL    HW3 9551   1.923   6.359   3.162  0.8863 -2.2648  0.0498
 2446SOL    MW4 9552   1.942   6.356   3.077  0.4394 -0.2922 -0.1616
 2447SOL     OW 9553   5.716   1.066   5.836 -0.3459  0.4365  0.2208
 2447SOL    HW2 9554   5.689   1.040   5.924  1.1909  0.6156  0.7752
 2447SOL    HW3 9555   5.696   1.160   5.832 -0.7285  0.3592  0.2491
 2447SOL    MW4 9556   5.710   1.075   5.847 -0.1936  0.4499  0.2977
 2448SOL     OW 9557   3.131   0.885   3.431  0.0364  0.0839  0.1461
 2448SOL    HW2 9558   3.082   0.860   3.352  1.1873 -2.4996  0.1477
 2448SOL    HW3 9559   3.116   0.979   3.440 -1.5368  0.1306 -2.1585
 2448SOL    MW4 9560   3.122   0.894   3.422 -0.0193 -0.2508 -0.1578
 2449SOL     OW 9561   1.712   0.089   2.204 -0.1467 -0.3422  0.0546
 2449SOL    HW2 9562   1.621   0.091   2.175  0.1813 -0.5876 -1.0765
 2449SOL    HW3 9563   1.749   0.170   2.169  0.4731 -1.0534 -1.0065
 2449SOL    MW4 9564   1.705   0.100   2.195 -0.0216 -0.4684 -0.2347
 2450SOL     OW 9565   3.192   1.742   2.223  0.1685  0.1226 -0.4626
 2450SOL    HW2 9566   3.201   1.731   2.318  1.4965 -0.2758 -0.6080
 2450SOL    HW3 9567   3.214   1.656   2.187  1.2673  0.6835 -1.1896
 2450SOL    MW4 9568   3.196   1.729   2.231  0.4887  0.1441 -0.5777
 2451SOL     OW 9569   3.033   3.950   0.660  0.4158  0.2691  0.2539
 2451SOL    HW2 9570   3.001   4.001   0.586  1.4987 -1.0503 -1.1832
 2451SOL    HW3 9571   3.028   3.859   0.630  3.5011 -0.1505  0.6879
 2451SOL    MW4 9572   3.028   3.945   0.646  0.9658  0.0396  0.1215
 2452SOL     OW 9573   4.040   4.249   2.198 -0.1170 -0.2134  0.1903
 2452SOL    HW2 9574   3.996   4.281   2.277 -1.2554  0.3761 -0.6569
 2452SOL    HW3 9575   4.097   4.322   2.171 -0.1090 -0.2216  0.1842
 2452SOL    MW4 9576   4.042   4.263   2.205 -0.2662 -0.1367  0.0777
 2453SOL     OW 9577   3.185   1.830   1.520 -0.0455  0.2009  0.3375
 2453SOL    HW2 9578   3.150   1.855   1.435  0.7716 -0.6422 -0.2748
 2453SOL    HW3 9579   3.130   1.756   1.548 -0.3012  0.4649  0.5480
 2453SOL    MW4 9580   3.173   1.823   1.513  0.0285  0.1245  0.2845
 2454SOL     OW 9581   3.501   1.007   1.957 -0.5761 -0.5669  0.0003
 2454SOL    HW2 9582   3.413   1.045   1.956  0.1806  1.4988  2.6864
 2454SOL    HW3 9583   3.507   0.960   1.874 -2.6368  2.8270 -2.3088
 2454SOL    MW4 9584   3.490   1.006   1.946 -0.7481  0.1534  0.0500
 2455SOL     OW 9585   2.500   4.128   6.084 -0.0338 -0.1355  0.4435
 2455SOL    HW2 9586   2.580   4.146   6.033 -0.7472 -0.9997 -1.0642
 2455SOL    HW3 9587   2.517   4.167   6.170  1.6613  0.4557 -0.1103
 2455SOL    MW4 9588   2.513   4.136   6.088  0.0958 -0.1716  0.1715
 2456SOL     OW 9589   2.898   5.578   5.030 -0.0501  0.2925 -0.5967
 2456SOL    HW2 9590   2.955   5.516   5.075  1.4315  1.3852 -0.9155
 2456SOL    HW3 9591   2.944   5.598   4.948 -0.4434  1.8564 -0.4679
 2456SOL    MW4 9592   2.911   5.573   5.025  0.0935  0.6430 -0.6218
 2457SOL     OW 9593   2.548   5.112   2.940  0.1399  0.0146  0.0328
 2457SOL    HW2 9594   2.480   5.121   2.873  1.2762  1.5374 -0.9959
 2457SOL    HW3 9595   2.500   5.102   3.022 -1.2975 -0.3839 -0.8218
 2457SOL    MW4 9596   2.532   5.112   2.942  0.1001  0.1630 -0.2157
 2458SOL     OW 9597   6.392   1.138   6.018 -0.4662  0.2985 -0.2447
 2458SOL    HW2 9598   6.339   1.188   6.081  0.3465 -0.4014  1.0355
 2458SOL    HW3 9599   6.464   1.197   5.996 -0.0339  0.0708  0.5205
 2458SOL    MW4 9600   6.395   1.153   6.024 -0.3020  0.1761  0.0252
 2459SOL     OW 9601   4.163   6.081   2.904 -0.1806 -0.3843  0.1859
 2459SOL    HW2 9602   4.113   6.080   2.822  0.2089  0.8035 -0.1014
 2459SOL    HW3 9603   4.160   6.173   2.932  0.4015 -0.6227  1.0573
 2459SOL    MW4 9604   4.156   6.093   2.897 -0.0524 -0.2590  0.2629
 2460SOL     OW 9605   3.446   3.063   1.814 -0.0542 -0.1145  0.3519
 2460SOL    HW2 9606   3.489   3.060   1.900  1.0344  0.6547 -0.1500
 2460SOL    HW3 9607   3.373   3.001   1.822  1.0961 -1.4109  1.2555
 2460SOL    MW4 9608   3.442   3.054   1.827  0.2412 -0.1840  0.4049
 2461SOL     OW 9609   1.597   2.074   2.092  0.5674 -0.1316 -0.9627
 2461SOL    HW2 9610   1.649   1.997   2.118  0.2852 -0.6046 -1.7684
 2461SOL    HW3 9611   1.621   2.089   2.001 -0.2550  0.0166 -1.1575
 2461SOL    MW4 9612   1.607   2.066   2.084  0.4217 -0.1744 -1.0947
 2462SOL     OW 9613   0.175   4.123   3.092  0.2734 -0.5505 -0.5590
 2462SOL    HW2 9614   0.099   4.065   3.100 -0.4828  0.6479  2.4832
 2462SOL    HW3 9615   0.230   4.100   3.167  0.2359  2.1888  0.4114
 2462SOL    MW4 9616   0.173   4.112   3.103  0.1687 -0.0310 -0.0296
 2463SOL     OW 9617   5.004   4.194   1.210 -0.0248 -0.6854  0.4204
 2463SOL    HW2 9618   4.908   4.197   1.214 -0.0990 -1.8768  0.0429
 2463SOL    HW3 9619   5.024   4.178   1.118  0.5340 -0.6011  0.5237
 2463SOL    MW4 9620   4.994   4.192   1.199  0.0391 -0.8315  0.3842
 2464SOL     OW 9621   0.400   2.587   0.070 -0.2522  0.5107  0.1330
 2464SOL    HW2 9622   0.458   2.612   0.142 -1.1469 -0.2641  1.1703
 2464SOL    HW3 9623   0.424   2.646  -0.002 -0.4856  2.5195  1.6009
 2464SOL    MW4 9624   0.411   2.598   0.070 -0.4011  0.6735  0.4635
 2465SOL     OW 9625   2.400   6.228   3.658  0.2569 -0.2754 -0.9402
 2465SOL    HW2 9626   2.430   6.313   3.627  2.1784 -0.8913 -0.8818
 2465SOL    HW3 9627   2.350   6.192   3.584 -1.2830  1.1886 -0.6757
 2465SOL    MW4 9628   2.397   6.234   3.644  0.3072 -0.1635 -0.8976
 2466SOL     OW 9629   1.347   1.701   5.279 -0.3056 -0.1140 -0.1110
 2466SOL    HW2 9630   1.331   1.609   5.257 -3.3644 -0.2276  2.0036
 2466SOL    HW3 9631   1.371   1.701   5.371  2.6469  1.0866 -0.7563
 2466SOL    MW4 9632   1.348   1.689   5.288 -0.3197  0.0294  0.0829
 2467SOL     OW 9633   1.801   2.686   5.499  0.4045  0.3709 -0.2562
 2467SOL    HW2 9634   1.881   2.714   5.544  0.8268 -1.7508  0.3888
 2467SOL    HW3 9635   1.832   2.650   5.416  0.0083  0.4351 -0.4323
 2467SOL    MW4 9636   1.816   2.685   5.494  0.4079  0.0994 -0.1943
 2468SOL     OW 9637   3.367   6.439   4.134  0.0834 -0.5237 -0.5978
 2468SOL    HW2 9638   3.282   6.461   4.172  0.5390 -3.4680  2.7428
 2468SOL    HW3 9639   3.349   6.364   4.077  0.3467 -1.1150  0.0713
 2468SOL    MW4 9640   3.353   6.432   4.132  0.1783 -0.9902 -0.0688
 2469SOL     OW 9641   1.079   1.172   0.739  0.1248 -0.2624  0.2087
 2469SOL    HW2 9642   1.095   1.178   0.645  2.5383 -0.8071  0.5271
 2469SOL    HW3 9643   1.062   1.262   0.766 -0.5602 -0.0984 -0.7238
 2469SOL    MW4 9644   1.078   1.185   0.730  0.3528 -0.3126  0.1277
 2470SOL     OW 9645   4.394   1.237   1.059  0.5718 -0.0139 -0.2938
 2470SOL    HW2 9646   4.326   1.305   1.060  1.8929  1.3783  0.8742
 2470SOL    HW3 9647   4.363   1.172   1.122 -0.0114  0.2868 -0.2640
 2470SOL    MW4 9648   4.381   1.237   1.068  0.6692  0.2095 -0.1358
 2471SOL     OW 9649   0.580   1.210   3.415  0.4177 -0.7358  0.1541
 2471SOL    HW2 9650   0.609   1.150   3.347  0.0884  0.7883 -1.4055
 2471SOL    HW3 9651   0.651   1.273   3.424  0.1136 -0.4503  0.6224
 2471SOL    MW4 9652   0.593   1.210   3.407  0.3341 -0.4970  0.0101
 2472SOL     OW 9653   3.653   6.083   6.193 -0.2870 -0.3075 -0.1223
 2472SOL    HW2 9654   3.591   6.085   6.120 -2.9280 -0.3665  1.9468
 2472SOL    HW3 9655   3.678   5.991   6.201 -1.1163 -0.5444 -0.1079
 2472SOL    MW4 9656   3.648   6.071   6.185 -0.7448 -0.3466  0.1526
 2473SOL     OW 9657   6.068   2.434   5.846 -0.1127  0.3647 -0.0699
 2473SOL    HW2 9658   6.143   2.405   5.898  0.1750 -1.8846 -1.6188
 2473SOL    HW3 9659   6.001   2.367   5.861 -1.4491  1.7266  0.3667
 2473SOL    MW4 9660   6.069   2.421   5.855 -0.2511  0.2476 -0.2166
 2474SOL     OW 9661   4.928   6.128   4.291  0.1156 -0.3920 -0.3710
 2474SOL    HW2 9662   4.858   6.164   4.237  0.1346  0.2592  0.0324
 2474SOL    HW3 9663   4.896   6.041   4.316 -0.8635  0.1485  0.3622
 2474SOL    MW4 9664   4.914   6.121   4.287 -0.0111 -0.2348 -0.2211
 2475SOL     OW 9665   4.081   0.954   0.802  0.1085  0.0592 -0.2552
 2475SOL    HW2 9666   4.007   0.990   0.850 -0.3504 -0.5215 -0.5056
 2475SOL    HW3 9667   4.103   0.873   0.848  1.6351  1.0044  0.7717
 2475SOL    MW4 9668   4.074   0.948   0.814  0.2494  0.1073 -0.1527
 2476SOL     OW 9669   6.069   1.459   0.398 -0.2644 -0.1876  0.0291
 2476SOL    HW2 9670   6.141   1.399   0.415  0.5947  0.8428  0.1979
 2476SOL    HW3 9671   6.054   1.502   0.483  0.6867  1.4383 -0.5773
 2476SOL    MW4 9672   6.077   1.457   0.412 -0.0256  0.1629 -0.0286
 2477SOL     OW 9673   1.360   6.399   4.726  0.0050 -0.0524  0.0204
 2477SOL    HW2 9674   1.288   6.364   4.673  0.3085 -3.9851  1.8203
 2477SOL    HW3 9675   1.323   6.407   4.814  0.8842  1.2630  0.2953
 2477SOL    MW4 9676   1.346   6.395   4.731  0.1610 -0.3978  0.2941
 2478SOL     OW 9677   6.357   1.098   5.750  0.2777  0.3167  0.0802
 2478SOL    HW2 9678   6.365   1.103   5.845  0.8920  1.1020 -0.0006
 2478SOL    HW3 9679   6.416   1.026   5.725  1.0403  0.8813  0.2024
 2478SOL    MW4 9680   6.366   1.089   5.759  0.4594  0.4948  0.0857
 2479SOL     OW 9681   4.213   2.707   1.252  0.0117 -0.0231 -0.1345
 2479SOL    HW2 9682   4.207   2.657   1.171  1.9583 -0.1049 -0.2725
 2479SOL    HW3 9683   4.259   2.787   1.228  0.3712  0.0767  0.8413
 2479SOL    MW4 9684   4.218   2.711   1.238  0.3160 -0.0207 -0.0239
 2480SOL     OW 9685   3.770   1.493   2.530  0.1592  0.6067  0.3664
 2480SOL    HW2 9686   3.675   1.498   2.526  0.0422 -0.9043  0.6498
 2480SOL    HW3 9687   3.788   1.434   2.603  1.2221 -1.1403 -1.2199
 2480SOL    MW4 9688   3.760   1.486   2.539  0.2840  0.1768  0.1945
 2481SOL     OW 9689   0.920   5.051   0.491 -0.4063  0.6471  0.0499
 2481SOL    HW2 9690   0.942   5.134   0.534 -0.9096  0.0539  1.5072
 2481SOL    HW3 9691   0.974   5.051   0.412  2.8493  0.5069  2.0665
 2481SOL    MW4 9692   0.930   5.062   0.486 -0.0432  0.5504  0.5083
 2482SOL     OW 9693   1.383   2.966   0.654  0.1760 -0.3631 -0.0991
 2482SOL    HW2 9694   1.321   3.015   0.600 -0.4974 -0.9607  0.1150
 2482SOL    HW3 9695   1.432   2.912   0.592  0.0598 -0.3487 -0.2024
 2482SOL    MW4 9696   1.382   2.965   0.639  0.0719 -0.4401 -0.0845
 2483SOL     OW 9697   1.510   0.967   4.212 -0.2548 -0.1212  0.5000
 2483SOL    HW2 9698   1.522   0.918   4.131  4.3609 -0.9693  1.3762
 2483SOL    HW3 9699   1.510   0.899   4.280 -3.0747  0.6438  1.4159
 2483SOL    MW4 9700   1.512   0.951   4.211 -0.0179 -0.1322  0.7365
 2484SOL     OW 9701   3.996   5.595   0.938  0.3669 -0.0862  0.2388
 2484SOL    HW2 9702   3.986   5.530   1.008 -0.6994 -0.2222 -0.0292
 2484SOL    HW3 9703   3.919   5.583   0.883 -0.0348  1.6413  0.3726
 2484SOL    MW4 9704   3.984   5.584   0.940  0.1732  0.1238  0.2211
 2485SOL     OW 9705   0.271   2.228   0.534 -0.8961  0.3799 -0.3775
 2485SOL    HW2 9706   0.286   2.142   0.571  0.2986  0.4941 -0.5441
 2485SOL    HW3 9707   0.320   2.227   0.451 -0.7538  1.2529 -0.3131
 2485SOL    MW4 9708   0.279   2.217   0.528 -0.7197  0.5102 -0.3910
 2486SOL     OW 9709   6.029   4.716   2.914  0.0685 -1.0119 -0.5563
 2486SOL    HW2 9710   6.100   4.653   2.926  2.8129  1.7402 -1.1667
 2486SOL    HW3 9711   5.996   4.732   3.002  2.1239 -0.3600  0.1497
 2486SOL    MW4 9712   6.034   4.710   2.927  0.7018 -0.5628 -0.5437
 2487SOL     OW 9713   4.883   1.205   2.656 -0.8814  0.3348 -0.4599
 2487SOL    HW2 9714   4.828   1.136   2.618 -0.9440 -0.9566  1.7996
 2487SOL    HW3 9715   4.821   1.271   2.686 -1.1721 -0.5008  0.8838
 2487SOL    MW4 9716   4.867   1.204   2.655 -0.9280  0.0542  0.0155
 2488SOL     OW 9717   4.403   4.972   1.845 -0.0060  0.4587  0.5166
 2488SOL    HW2 9718   4.436   5.059   1.870 -0.3459  0.8839 -0.4567
 2488SOL    HW3 9719   4.430   4.962   1.754  0.3394 -0.6261  0.7299
 2488SOL    MW4 9720   4.411   4.982   1.836 -0.0053  0.3717  0.4163
 2489SOL     OW 9721   4.315   6.279   4.514 -0.7480 -0.1646 -0.9098
 2489SOL    HW2 9722   4.314   6.374   4.530  0.5146 -0.1786 -0.6001
 2489SOL    HW3 9723   4.239   6.246   4.562  1.3610  0.1435  3.1239
 2489SOL    MW4 9724   4.305   6.287   4.522 -0.3032 -0.1258 -0.3367
 2490SOL     OW 9725   1.617   3.561   3.169 -0.2895  0.4404 -0.2659
 2490SOL    HW2 9726   1.551   3.616   3.210  0.5290  1.2599 -0.0046
 2490SOL    HW3 9727   1.605   3.475   3.210 -2.2408  0.1135 -1.4039
 2490SOL    MW4 9728   1.607   3.557   3.180 -0.4390  0.5054 -0.3816
 2491SOL     OW 9729   3.880   6.434   0.680  0.1694  0.2924 -0.2296
 2491SOL    HW2 9730   3.837   6.500   0.626 -0.4538  0.4773  0.4814
 2491SOL    HW3 9731   3.827   6.355   0.670  1.3837 -0.3879 -1.7548
 2491SOL    MW4 9732   3.868   6.432   0.672  0.2474  0.2270 -0.3371
 2492SOL     OW 9733   4.165   6.445   3.790  0.2851  0.3787  0.0365
 2492SOL    HW2 9734   4.126   6.499   3.721 -0.1455 -0.2509 -0.2209
 2492SOL    HW3 9735   4.223   6.384   3.744 -0.1896 -0.2067  0.2002
 2492SOL    MW4 9736   4.168   6.444   3.775  0.1657  0.2184  0.0242
 2493SOL     OW 9737   0.332   6.092   4.013  0.0008 -0.4840 -0.0728
 2493SOL    HW2 9738   0.421   6.083   3.980 -0.3595 -1.5573 -0.8244
 2493SOL    HW3 9739   0.330   6.036   4.091 -0.3481 -1.4683 -0.7766
 2493SOL    MW4 9740   0.344   6.083   4.019 -0.0928 -0.7555 -0.2648
 2494SOL     OW 9741   2.488   4.702   4.213  0.2204  0.0472 -0.2531
 2494SOL    HW2 9742   2.475   4.607   4.210  0.0103  0.1037 -2.2869
 2494SOL    HW3 9743   2.564   4.714   4.270 -0.2753 -1.2677  0.7285
 2494SOL    MW4 9744   2.497   4.691   4.220  0.1273 -0.1188 -0.3919
 2495SOL     OW 9745   5.234   1.864   0.502 -0.2522  0.5125  0.0743
 2495SOL    HW2 9746   5.206   1.790   0.447 -1.0281  0.1102  0.9897
 2495SOL    HW3 9747   5.323   1.884   0.471  0.6496 -1.8702  0.8655
 2495SOL    MW4 9748   5.242   1.857   0.490 -0.2356  0.1450  0.2995
 2496SOL     OW 9749   6.359   4.074   5.806 -0.6419  0.1078  0.5099
 2496SOL    HW2 9750   6.264   4.077   5.805 -0.6404  0.1581 -0.3198
 2496SOL    HW3 9751   6.385   4.147   5.862 -1.1034 -1.0497  2.3130
 2496SOL    MW4 9752   6.350   4.084   5.813 -0.7026 -0.0383  0.6383
 2497SOL     OW 9753   0.048   5.601   0.370 -0.2057  1.2489 -0.4088
 2497SOL    HW2 9754  -0.047   5.616   0.374 -0.1688  1.2548  0.5783
 2497SOL    HW3 9755   0.071   5.621   0.279 -1.2849  0.4152 -0.8855
 2497SOL    MW4 9756   0.038   5.606   0.359 -0.3432  1.1397 -0.3415
 2498SOL     OW 9757   3.754   1.538   0.850 -0.3884 -1.1262 -0.0872
 2498SOL    HW2 9758   3.728   1.561   0.761 -1.0453 -1.4769  0.0079
 2498SOL    HW3 9759   3.822   1.601   0.873 -1.9425  0.5526  0.0790
 2498SOL    MW4 9760   3.760   1.549   0.842 -0.6801 -0.9510 -0.0527
 2499SOL     OW 9761   0.023   3.865   1.454 -0.2805 -0.0777 -0.2746
 2499SOL    HW2 9762  -0.062   3.906   1.470 -0.4239  0.3058 -1.8010
 2499SOL    HW3 9763   0.081   3.901   1.520 -1.3660 -0.5675  0.9826
 2499SOL    MW4 9764   0.019   3.875   1.465 -0.4426 -0.0917 -0.3101
 2500SOL     OW 9765   2.741   1.303   4.570 -0.4158  0.3498 -0.6009
 2500SOL    HW2 9766   2.736   1.213   4.603  1.6988  0.1885 -0.5697
 2500SOL    HW3 9767   2.701   1.356   4.639 -0.4167 -0.4451  0.0255
 2500SOL    MW4 9768   2.735   1.298   4.583 -0.1369  0.2236 -0.5141
 2501SOL     OW 9769   4.237   5.560   1.739  0.0169 -0.0914 -0.2443
 2501SOL    HW2 9770   4.310   5.568   1.677 -0.3311  0.4860 -0.5881
 2501SOL    HW3 9771   4.177   5.631   1.715 -0.4385 -0.2726  0.3337
 2501SOL    MW4 9772   4.238   5.570   1.727 -0.0891 -0.0391 -0.2134
 2502SOL     OW 9773   3.274   5.125   4.425  0.3434  0.0506  0.1460
 2502SOL    HW2 9774   3.232   5.207   4.399  0.9289 -0.6080 -3.4219
 2502SOL    HW3 9775   3.224   5.057   4.379  3.0869 -1.0332 -1.4549
 2502SOL    MW4 9776   3.262   5.127   4.416  0.7826 -0.1793 -0.5360
 2503SOL     OW 9777   4.355   4.527   4.720  0.4996  0.2861  0.5773
 2503SOL    HW2 9778   4.355   4.505   4.813 -1.1868  0.0463  0.5451
 2503SOL    HW3 9779   4.270   4.497   4.688  0.7830  0.9764 -0.8995
 2503SOL    MW4 9780   4.344   4.520   4.728  0.3145  0.3455  0.3782
 2504SOL     OW 9781   3.568   0.298   4.568 -0.7415  0.0682  0.2406
 2504SOL    HW2 9782   3.614   0.364   4.620 -0.9327  3.7799 -3.7510
 2504SOL    HW3 9783   3.637   0.241   4.535  0.5902  2.5251 -1.6108
 2504SOL    MW4 9784   3.583   0.299   4.570 -0.5911  0.8821 -0.5303
 2505SOL     OW 9785   3.812   2.547   1.853 -0.1614  0.2124 -0.3364
 2505SOL    HW2 9786   3.731   2.539   1.802  0.2078  0.6715 -1.0220
 2505SOL    HW3 9787   3.798   2.493   1.930 -1.4397  0.9145 -0.0537
 2505SOL    MW4 9788   3.800   2.539   1.856 -0.2814  0.3656 -0.3896
 2506SOL     OW 9789   5.231   2.547   3.043  0.4745 -0.0786  0.1872
 2506SOL    HW2 9790   5.138   2.549   3.062  0.2800 -0.7772 -0.6063
 2506SOL    HW3 9791   5.273   2.565   3.127 -0.3596 -1.2612  0.8978
 2506SOL    MW4 9792   5.225   2.550   3.057  0.3388 -0.3268  0.1763
 2507SOL     OW 9793   5.962   1.024   6.050 -0.1657 -0.6603 -0.1145
 2507SOL    HW2 9794   5.966   1.085   5.976  0.5664 -1.1898 -0.5316
 2507SOL    HW3 9795   6.051   0.991   6.058 -0.1501 -0.3464  1.2568
 2507SOL    MW4 9796   5.974   1.028   6.041 -0.0671 -0.6888  0.0114
 2508SOL     OW 9797   4.699   5.373   5.427 -0.0566 -0.1574  0.2374
 2508SOL    HW2 9798   4.731   5.384   5.516  0.3045 -0.6991  0.1848
 2508SOL    HW3 9799   4.665   5.283   5.425 -0.7727  0.1174  0.0470
 2508SOL    MW4 9800   4.699   5.362   5.438 -0.1035 -0.1926  0.2053
 2509SOL     OW 9801   2.254   1.017   3.793 -0.6020 -0.2765 -0.1672
 2509SOL    HW2 9802   2.252   1.082   3.864  0.6204 -0.3109 -0.0864
 2509SOL    HW3 9803   2.171   0.970   3.802 -1.0890  0.6453  0.3574
 2509SOL    MW4 9804   2.242   1.020   3.804 -0.5050 -0.1594 -0.0873
 2510SOL     OW 9805   1.913   0.929   4.334  0.2911 -0.4203 -0.5423
 2510SOL    HW2 9806   1.998   0.973   4.342 -0.1188  0.0649  1.8155
 2510SOL    HW3 9807   1.886   0.912   4.424 -1.8599 -1.1033 -1.2525
 2510SOL    MW4 9808   1.921   0.932   4.347 -0.0468 -0.4464 -0.3249
 2511SOL     OW 9809   2.817   1.912   4.859  0.1460 -0.4599 -0.0201
 2511SOL    HW2 9810   2.734   1.956   4.838 -0.3408 -0.5200  1.6140
 2511SOL    HW3 9811   2.792   1.821   4.874  0.8448 -0.9139 -1.4196
 2511SOL    MW4 9812   2.803   1.906   4.858  0.1740 -0.5277  0.0109
 2512SOL     OW 9813   6.113   6.156   2.210  0.4513 -0.0075  0.4140
 2512SOL    HW2 9814   6.138   6.065   2.194  2.3844  0.3567  1.1456
 2512SOL    HW3 9815   6.188   6.195   2.255 -1.1267  1.4309  1.9612
 2512SOL    MW4 9816   6.126   6.149   2.213  0.4982  0.2304  0.7147
 2513SOL     OW 9817   1.578   0.863   1.033 -0.3722 -0.4688  0.1219
 2513SOL    HW2 9818   1.504   0.820   0.989 -0.5152 -1.1494  0.9858
 2513SOL    HW3 9819   1.632   0.790   1.064  0.5053  0.0237 -0.2317
 2513SOL    MW4 9820   1.575   0.848   1.032 -0.2753 -0.4936  0.1892
 2514SOL     OW 9821   4.039   0.995   3.750  0.6776  0.0141 -0.3026
 2514SOL    HW2 9822   3.951   0.959   3.739  0.7203  0.3085 -1.8096
 2514SOL    HW3 9823   4.092   0.919   3.775 -0.2090  0.0758  2.0538
 2514SOL    MW4 9824   4.034   0.980   3.752  0.5663  0.0611 -0.1906
 2515SOL     OW 9825   0.166   5.660   5.014  0.1009  0.2972 -0.0107
 2515SOL    HW2 9826   0.100   5.609   5.060 -0.2587  0.3371 -0.4778
 2515SOL    HW3 9827   0.249   5.633   5.054 -0.2012  0.3310  0.6541
 2515SOL    MW4 9828   0.168   5.650   5.025  0.0136  0.3069  0.0154
 2516SOL     OW 9829   5.171   1.966   4.873  0.2602 -0.1473 -0.5102
 2516SOL    HW2 9830   5.256   2.011   4.866  0.6334 -0.5502  1.0805
 2516SOL    HW3 9831   5.180   1.890   4.816  0.1687  0.9037 -2.0222
 2516SOL    MW4 9832   5.184   1.962   4.864  0.2974 -0.0618 -0.4998
 2517SOL     OW 9833   4.044   3.004   3.507 -0.3996  0.6047 -0.1795
 2517SOL    HW2 9834   4.095   2.973   3.582  1.8796  0.4968 -1.6567
 2517SOL    HW3 9835   4.063   2.940   3.438 -2.6981  0.5081 -0.7994
 2517SOL    MW4 9836   4.054   2.991   3.508 -0.4021  0.5777 -0.4562
 2518SOL     OW 9837   2.466   1.614   2.893  0.7354 -0.4736  0.3820
 2518SOL    HW2 9838   2.381   1.570   2.899  0.0327  0.7965  0.2439
 2518SOL    HW3 9839   2.470   1.670   2.971 -0.2591  2.2525 -1.3696
 2518SOL    MW4 9840   2.455   1.616   2.904  0.5115  0.0536  0.1327
 2519SOL     OW 9841   3.851   0.606   3.778  0.1838 -0.1881 -0.0281
 2519SOL    HW2 9842   3.828   0.623   3.686  1.8144  1.5682 -0.1623
 2519SOL    HW3 9843   3.856   0.510   3.783 -0.4206 -0.3397 -1.6518
 2519SOL    MW4 9844   3.849   0.595   3.766  0.3192  0.0236 -0.2601
 2520SOL     OW 9845   5.399   0.568   2.944  0.0667 -0.8602  0.0710
 2520SOL    HW2 9846   5.304   0.574   2.953  0.0847  0.1620 -0.3423
 2520SOL    HW3 9847   5.412   0.512   2.867 -0.2309  0.2623 -0.8162
 2520SOL    MW4 9848   5.388   0.561   2.935  0.0298 -0.5773 -0.1005
 2521SOL     OW 9849   1.469   5.691   4.724 -0.4252  0.2790  0.3062
 2521SOL    HW2 9850   1.391   5.706   4.671 -2.0236 -1.7679  1.8867
 2521SOL    HW3 9851   1.446   5.728   4.810  0.0741 -0.8388  0.9461
 2521SOL    MW4 9852   1.456   5.698   4.729 -0.5702 -0.1385  0.5991
 2522SOL     OW 9853   2.671   5.232   5.001 -0.5361 -0.2500 -0.3796
 2522SOL    HW2 9854   2.643   5.307   5.054  0.3659  1.0240 -1.6228
 2522SOL    HW3 9855   2.599   5.169   5.009  0.3440 -1.0134  3.8786
 2522SOL    MW4 9856   2.657   5.233   5.009 -0.3010 -0.1826  0.0182
 2523SOL     OW 9857   5.911   3.758   3.250 -0.2677  0.6293 -0.4762
 2523SOL    HW2 9858   5.886   3.807   3.328  0.7292  1.8664 -0.9010
 2523SOL    HW3 9859   5.829   3.749   3.200 -0.4125  2.2178 -0.5628
 2523SOL    MW4 9860   5.897   3.763   3.254 -0.1553  1.0021 -0.5436
 2524SOL     OW 9861   5.648   0.927   2.562  0.1498 -0.1830 -0.1398
 2524SOL    HW2 9862   5.574   0.921   2.622  0.2588 -0.1716 -0.0040
 2524SOL    HW3 9863   5.608   0.931   2.475  0.0176 -2.2304 -0.2253
 2524SOL    MW4 9864   5.633   0.927   2.558  0.1467 -0.4516 -0.1331
 2525SOL     OW 9865   4.650   3.987   5.517 -0.0862 -0.0674  0.2748
 2525SOL    HW2 9866   4.717   4.048   5.548  1.5605 -0.9569 -1.3583
 2525SOL    HW3 9867   4.575   4.043   5.496  0.7088  1.1607  0.5920
 2525SOL    MW4 9868   4.649   4.002   5.518  0.2359 -0.0227  0.1012
 2526SOL     OW 9869   4.794   5.188   1.569 -0.0699  0.3118  0.1382
 2526SOL    HW2 9870   4.804   5.166   1.477 -1.2107  0.8229 -0.1263
 2526SOL    HW3 9871   4.699   5.189   1.584  0.0975 -0.0907  1.4020
 2526SOL    MW4 9872   4.783   5.185   1.559 -0.1983  0.3261  0.2701
 2527SOL     OW 9873   4.615   4.431   1.306  0.1319 -0.1141 -0.1652
 2527SOL    HW2 9874   4.539   4.377   1.286  0.0573  0.0608 -0.3672
 2527SOL    HW3 9875   4.612   4.444   1.401 -1.1883  1.4817 -0.3718
 2527SOL    MW4 9876   4.605   4.426   1.316 -0.0521  0.1195 -0.2191
 2528SOL     OW 9877   0.062   0.531   0.691  0.2549  0.0649 -1.0829
 2528SOL    HW2 9878   0.143   0.480   0.689 -0.3455 -0.9602 -0.3787
 2528SOL    HW3 9879   0.043   0.549   0.599 -0.5013 -2.6441 -1.5446
 2528SOL    MW4 9880   0.070   0.527   0.678  0.0759 -0.4278 -1.0509
 2529SOL     OW 9881   1.749   2.920   0.612 -0.6296 -0.0279 -0.2413
 2529SOL    HW2 9882   1.774   3.006   0.645 -0.1823 -0.1743 -0.1905
 2529SOL    HW3 9883   1.791   2.915   0.525 -0.9456 -0.0546 -0.3936
 2529SOL    MW4 9884   1.758   2.931   0.605 -0.6122 -0.0507 -0.2547
 2530SOL     OW 9885   3.226   4.735   1.989 -0.3286  0.1480  0.1715
 2530SOL    HW2 9886   3.150   4.678   1.988  0.2405 -0.6457  1.1910
 2530SOL    HW3 9887   3.227   4.775   1.902  0.1454 -2.5940 -1.1809
 2530SOL    MW4 9888   3.216   4.733   1.977 -0.1910 -0.3185  0.1276
 2531SOL     OW 9889   5.886   4.282   1.741  1.1080  0.0320  0.1038
 2531SOL    HW2 9890   5.865   4.298   1.833  0.3689 -0.2077 -0.0174
 2531SOL    HW3 9891   5.958   4.342   1.721  1.8650 -0.5237  1.0748
 2531SOL    MW4 9892   5.893   4.292   1.750  1.1104 -0.0730  0.2159
 2532SOL     OW 9893   2.368   3.909   4.042 -0.4576  0.4596 -0.5130
 2532SOL    HW2 9894   2.273   3.896   4.036 -0.3243 -1.3391  0.5245
 2532SOL    HW3 9895   2.381   3.953   4.125 -0.3151 -0.3350 -0.1077
 2532SOL    MW4 9896   2.357   3.913   4.052 -0.4212  0.1174 -0.3227
 2533SOL     OW 9897   5.201   2.202   4.386 -0.2599  0.0401  0.3665
 2533SOL    HW2 9898   5.233   2.264   4.452 -1.1169 -0.1972  1.0242
 2533SOL    HW3 9899   5.204   2.117   4.431 -1.0063 -0.1011  0.1597
 2533SOL    MW4 9900   5.206   2.199   4.401 -0.4714 -0.0098  0.4260
 2534SOL     OW 9901   1.703   4.365   4.775 -0.9466 -0.1846 -0.4318
 2534SOL    HW2 9902   1.737   4.455   4.779  0.2114 -0.6270  0.3472
 2534SOL    HW3 9903   1.731   4.333   4.689 -0.0693 -0.2587 -0.1338
 2534SOL    MW4 9904   1.711   4.373   4.764 -0.6781 -0.2527 -0.2897
 2535SOL     OW 9905   4.300   3.243   3.902 -0.4254  0.1983  0.0600
 2535SOL    HW2 9906   4.342   3.178   3.958 -0.6065 -0.6800 -0.7993
 2535SOL    HW3 9907   4.335   3.226   3.815 -0.7410  1.0307 -0.2391
 2535SOL    MW4 9908   4.310   3.232   3.898 -0.4910  0.1922 -0.0928
 2536SOL     OW 9909   0.800   2.227   1.615  0.4273  0.4490 -0.7083
 2536SOL    HW2 9910   0.789   2.319   1.638  1.5883  0.5773 -0.6475
 2536SOL    HW3 9911   0.857   2.191   1.683  1.0016 -0.0144 -1.4274
 2536SOL    MW4 9912   0.806   2.234   1.627  0.6563  0.4048 -0.7951
 2537SOL     OW 9913   4.714   2.178   6.472 -0.2450 -0.3530  0.5112
 2537SOL    HW2 9914   4.735   2.131   6.391 -0.3693 -1.2946  1.0186
 2537SOL    HW3 9915   4.640   2.234   6.449 -0.9251 -1.3551  0.2212
 2537SOL    MW4 9916   4.707   2.179   6.458 -0.3511 -0.6095  0.5399
 2538SOL     OW 9917   5.744   1.411   4.257 -0.3571 -0.3203 -0.1205
 2538SOL    HW2 9918   5.806   1.349   4.296  0.4954  0.6517  0.1305
 2538SOL    HW3 9919   5.707   1.458   4.331 -0.1681  0.2171 -0.3573
 2538SOL    MW4 9920   5.748   1.409   4.272 -0.2197 -0.1212 -0.1186
 2539SOL     OW 9921   4.982   5.317   0.549 -0.1096 -0.3176 -0.5881
 2539SOL    HW2 9922   4.888   5.307   0.536 -0.2088  0.1674 -0.2887
 2539SOL    HW3 9923   5.009   5.378   0.479 -0.2039  0.3454 -0.0549
 2539SOL    MW4 9924   4.973   5.324   0.538 -0.1352 -0.1661 -0.4783
 2540SOL     OW 9925   0.691   3.790   1.784  1.0268  0.2054 -0.3020
 2540SOL    HW2 9926   0.716   3.828   1.868  0.6733  0.6577 -0.3985
 2540SOL    HW3 9927   0.602   3.819   1.769  0.0423 -2.1744  0.4860
 2540SOL    MW4 9928   0.683   3.799   1.793  0.8503 -0.0489 -0.2108
 2541SOL     OW 9929   5.758   3.254   5.672 -0.5364 -0.6658  0.1243
 2541SOL    HW2 9930   5.810   3.175   5.688 -0.1752 -1.1190 -2.7989
 2541SOL    HW3 9931   5.672   3.222   5.645 -0.3258 -0.1055 -1.2925
 2541SOL    MW4 9932   5.753   3.240   5.671 -0.4609 -0.6517 -0.4483
 2542SOL     OW 9933   1.671   4.795   1.165 -0.2054 -0.0140 -0.7477
 2542SOL    HW2 9934   1.750   4.743   1.150 -0.4887 -0.6819  0.0164
 2542SOL    HW3 9935   1.606   4.757   1.106  0.1743  0.8764 -1.7649
 2542SOL    MW4 9936   1.673   4.783   1.155 -0.1927  0.0154 -0.7811
 2543SOL     OW 9937   3.089   2.996   3.894 -0.3283  0.0663  0.5660
 2543SOL    HW2 9938   2.998   3.021   3.912 -0.4750 -0.1625  0.1519
 2543SOL    HW3 9939   3.087   2.900   3.889  0.0572  0.0193  1.1948
 2543SOL    MW4 9940   3.076   2.986   3.895 -0.2968  0.0299  0.5943
 2544SOL     OW 9941   1.786   2.035   1.585  0.2536  0.0452 -0.2766
 2544SOL    HW2 9942   1.880   2.048   1.596  0.0551  1.2479  0.1437
 2544SOL    HW3 9943   1.760   2.099   1.519 -0.0780 -1.1517 -1.3605
 2544SOL    MW4 9944   1.795   2.045   1.578  0.1836  0.0460 -0.3642
 2545SOL     OW 9945   1.635   0.072   3.479  0.1070  0.2241 -0.3975
 2545SOL    HW2 9946   1.577   0.085   3.404 -0.4747  2.4473  0.3418
 2545SOL    HW3 9947   1.600  -0.006   3.523 -1.1844  0.4513 -0.9801
 2545SOL    MW4 9948   1.623   0.063   3.475 -0.1401  0.5474 -0.3769
 2546SOL     OW 9949   2.225   0.192   4.247  0.4567  0.2417 -0.0958
 2546SOL    HW2 9950   2.293   0.201   4.314  1.1302  1.4128 -0.9052
 2546SOL    HW3 9951   2.150   0.239   4.283  0.3617 -0.2769  0.4039
 2546SOL    MW4 9952   2.224   0.200   4.261  0.5330  0.3278 -0.1366
 2547SOL     OW 9953   2.599   1.710   2.673 -0.3060  0.0857  0.0840
 2547SOL    HW2 9954   2.546   1.696   2.594  1.6357  0.9261 -1.4732
 2547SOL    HW3 9955   2.555   1.660   2.741 -2.4447 -0.1282 -1.3737
 2547SOL    MW4 9956   2.587   1.701   2.671 -0.3320  0.1684 -0.3138
 2548SOL     OW 9957   0.864   2.320   4.919  0.3932 -0.0981  0.1567
 2548SOL    HW2 9958   0.792   2.382   4.913 -0.2098 -0.9092 -1.5544
 2548SOL    HW3 9959   0.822   2.236   4.940  0.6600 -0.7806 -1.8008
 2548SOL    MW4 9960   0.849   2.317   4.921  0.3489 -0.2951 -0.3273
 2549SOL     OW 9961   1.260   3.010   2.428  0.0925  0.3141 -0.2180
 2549SOL    HW2 9962   1.316   2.933   2.438 -0.6076 -0.1186  0.4318
 2549SOL    HW3 9963   1.295   3.055   2.351  0.6103 -0.5686 -0.5131
 2549SOL    MW4 9964   1.272   3.006   2.419  0.0685  0.1406 -0.1712
 2550SOL     OW 9965   1.615   2.071   4.361  0.5988  0.0395 -0.1172
 2550SOL    HW2 9966   1.658   2.153   4.385  0.4428 -0.2430  1.1882
 2550SOL    HW3 9967   1.581   2.087   4.273 -1.6135  2.3030  1.0114
 2550SOL    MW4 9968   1.616   2.084   4.352  0.2864  0.3008  0.2040
 2551SOL     OW 9969   3.148   0.960   6.316  0.4219 -0.4894 -0.0945
 2551SOL    HW2 9970   3.189   0.962   6.229  1.4815 -0.5051  0.3842
 2551SOL    HW3 9971   3.149   1.051   6.345  0.7778 -0.5884  0.2123
 2551SOL    MW4 9972   3.154   0.972   6.308  0.6086 -0.5045  0.0091
 2552SOL     OW 9973   4.602   3.285   0.684  0.2164 -0.1186  0.1238
 2552SOL    HW2 9974   4.642   3.298   0.598  1.6733 -0.8046  0.6667
 2552SOL    HW3 9975   4.534   3.221   0.669  2.1510 -2.2366 -0.1342
 2552SOL    MW4 9976   4.599   3.279   0.670  0.6639 -0.4885  0.1614
 2553SOL     OW 9977   3.801   5.441   5.133 -0.3459  0.3871  0.5391
 2553SOL    HW2 9978   3.707   5.448   5.149 -0.5911 -0.9306 -0.2256
 2553SOL    HW3 9979   3.812   5.359   5.085  1.1253  0.8231  0.0652
 2553SOL    MW4 9980   3.790   5.431   5.129 -0.1842  0.2708  0.3757
 2554SOL     OW 9981   4.749   6.248   4.600  0.4272 -0.6957  0.0837
 2554SOL    HW2 9982   4.680   6.197   4.557  1.5888  0.2948 -3.3142
 2554SOL    HW3 9983   4.714   6.268   4.686 -3.6872 -0.0885 -1.5009
 2554SOL    MW4 9984   4.735   6.244   4.605  0.0376 -0.4849 -0.5737
 2555SOL     OW 9985   3.286   1.558   2.889 -0.0633 -0.4288  0.5177
 2555SOL    HW2 9986   3.297   1.505   2.968  0.8160  0.0616  0.7497
 2555SOL    HW3 9987   3.373   1.597   2.875 -0.6124  0.7144  0.2026
 2555SOL    MW4 9988   3.299   1.556   2.898 -0.0197 -0.2133  0.5067
 2556SOL     OW 9989   1.306   3.732   4.017  0.2318 -0.0130 -0.4586
 2556SOL    HW2 9990   1.241   3.703   4.081  0.5717  1.1534  0.4473
 2556SOL    HW3 9991   1.262   3.723   3.933 -1.1876  0.8933  0.1335
 2556SOL    MW4 9992   1.292   3.727   4.015  0.0894  0.2605 -0.2609
 2557SOL     OW 9993   6.401   6.452   4.172 -0.2883  0.0477  0.1859
 2557SOL    HW2 9994   6.468   6.388   4.149 -0.7605 -0.3935  0.0029
 2557SOL    HW3 9995   6.327   6.399   4.203 -0.8818  0.4761 -0.4688
 2557SOL    MW4 9996   6.400   6.436   4.173 -0.4289  0.0460  0.0754
 2558SOL     OW 9997   1.221   4.145   1.027  0.0234  0.0850 -0.0456
 2558SOL    HW2 9998   1.219   4.240   1.041 -0.1137 -0.0087  0.6106
 2558SOL    HW3 9999   1.160   4.110   1.092 -0.3249 -0.4141 -0.6293
 2558SOL    MW410000   1.213   4.153   1.037 -0.0406  0.0068 -0.0360
 2559SOL     OW10001   1.751   1.779   5.762 -0.2610 -0.2371  0.1546
 2559SOL    HW210002   1.808   1.702   5.759  1.3477  0.9303 -0.5536
 2559SOL    HW310003   1.718   1.789   5.673 -1.6021 -0.8708  0.5438
 2559SOL    MW410004   1.754   1.770   5.750 -0.2257 -0.1667  0.1125
 2560SOL     OW10005   1.018   5.428   5.154 -0.5090  0.5176  0.3878
 2560SOL    HW210006   0.933   5.446   5.115 -1.2358 -0.7505  1.3196
 2560SOL    HW310007   1.034   5.503   5.212 -1.8347 -0.0289  1.5301
 2560SOL    MW410008   1.009   5.440   5.157 -0.7798  0.2782  0.6614
 2561SOL     OW10009   2.825   1.868   1.046  0.2216  0.6636 -0.0672
 2561SOL    HW210010   2.898   1.925   1.022  0.8524  0.8710  2.1201
 2561SOL    HW310011   2.858   1.779   1.032  0.2120  0.7830 -0.8686
 2561SOL    MW410012   2.839   1.864   1.041  0.3036  0.7067  0.1157
 2562SOL     OW10013   0.650   1.293   1.212 -0.5535  0.7322  0.3021
 2562SOL    HW210014   0.670   1.233   1.140 -0.0770 -0.5314  1.4431
 2562SOL    HW310015   0.693   1.375   1.188 -0.0976  0.2188 -0.6786
 2562SOL    MW410016   0.659   1.295   1.199 -0.4305  0.4977  0.3233
 2563SOL     OW10017   3.936   4.952   2.115  0.3855 -0.2039  0.2769
 2563SOL    HW210018   3.940   4.857   2.104  0.7688 -0.1222 -0.3071
 2563SOL    HW310019   3.933   4.965   2.210  1.1289 -0.7737  0.3847
 2563SOL    MW410020   3.936   4.942   2.126  0.5341 -0.2683  0.2141
 2564SOL     OW10021   6.126   0.571   2.158 -0.3576 -0.1368  0.1244
 2564SOL    HW210022   6.148   0.589   2.250  1.3645 -3.0916  0.4248
 2564SOL    HW310023   6.032   0.554   2.159 -0.3885 -0.0034  1.3228
 2564SOL    MW410024   6.117   0.571   2.170 -0.1344 -0.5090  0.3221
 2565SOL     OW10025   1.835   5.610   3.489 -0.4517 -0.3046  0.0309
 2565SOL    HW210026   1.853   5.580   3.578  0.0364 -0.4528 -0.1152
 2565SOL    HW310027   1.847   5.532   3.434 -1.5208 -0.4027 -0.0813
 2565SOL    MW410028   1.839   5.596   3.493 -0.5283 -0.3371 -0.0032
 2566SOL     OW10029   6.270   2.043   3.409 -0.1915 -0.2875 -0.1807
 2566SOL    HW210030   6.241   1.956   3.436 -1.2864  0.3628  0.8247
 2566SOL    HW310031   6.190   2.088   3.383  0.2119  0.7845  0.3923
 2566SOL    MW410032   6.256   2.037   3.409 -0.2827 -0.0603  0.0275
 2567SOL     OW10033   4.631   2.486   0.507  0.0586  0.0573 -0.2555
 2567SOL    HW210034   4.554   2.444   0.545 -0.1374  1.3454  0.8532
 2567SOL    HW310035   4.691   2.414   0.488 -1.5435 -1.0147 -1.5154
 2567SOL    MW410036   4.629   2.471   0.510 -0.1786  0.0858 -0.2755
 2568SOL     OW10037   1.263   4.319   4.806 -0.0504 -0.3287  0.3672
 2568SOL    HW210038   1.209   4.251   4.846 -0.8265  1.1340  1.9766
 2568SOL    HW310039   1.344   4.318   4.856 -0.2902  0.2587  0.7954
 2568SOL    MW410040   1.266   4.310   4.818 -0.1845 -0.0582  0.6361
 2569SOL     OW10041   0.531   3.420   5.261  0.4260 -0.0611 -0.2503
 2569SOL    HW210042   0.511   3.359   5.190 -0.9169  0.8465 -0.6834
 2569SOL    HW310043   0.621   3.448   5.244  0.1307  0.1188 -1.5792
 2569SOL    MW410044   0.541   3.416   5.250  0.2099  0.0824 -0.4828
 2570SOL     OW10045   0.083   6.443   3.860 -0.0931 -0.0627  0.0266
 2570SOL    HW210046   0.098   6.489   3.778  1.5960  0.1668  0.4130
 2570SOL    HW310047  -0.000   6.397   3.848 -0.2343  0.5545 -1.5246
 2570SOL    MW410048   0.074   6.443   3.848  0.1111  0.0490 -0.1271
 2571SOL     OW10049   5.365   1.233   4.613  0.2311  0.2552  0.5858
 2571SOL    HW210050   5.411   1.148   4.616  1.1684  0.7182  0.0084
 2571SOL    HW310051   5.431   1.296   4.641  0.0198  0.9641 -0.4595
 2571SOL    MW410052   5.380   1.230   4.617  0.3269  0.4098  0.3717
 2572SOL     OW10053   5.265   6.446   5.586  0.5316  0.2789  0.0396
 2572SOL    HW210054   5.306   6.501   5.653  0.3870 -0.1040  0.4532
 2572SOL    HW310055   5.214   6.507   5.533 -0.0383  0.4825  0.8032
 2572SOL    MW410056   5.264   6.461   5.588  0.4374  0.2552  0.1949
 2573SOL     OW10057   0.221   4.507   4.953 -0.2008 -0.2473  0.0471
 2573SOL    HW210058   0.282   4.480   4.884  0.1029  1.3362 -0.3382
 2573SOL    HW310059   0.242   4.599   4.969 -0.9172 -0.3201  1.5880
 2573SOL    MW410060   0.232   4.516   4.946 -0.2552 -0.0480  0.1996
 2574SOL     OW10061   5.708   4.425   4.124  0.4104 -0.1001 -0.0889
 2574SOL    HW210062   5.684   4.445   4.033 -0.8431 -1.4606 -0.1079
 2574SOL    HW310063   5.798   4.393   4.118  0.5699  0.4385 -0.7574
 2574SOL    MW410064   5.716   4.423   4.111  0.2660 -0.2085 -0.1796
 2575SOL     OW10065   1.371   1.618   0.253  0.0271 -0.0734 -0.0080
 2575SOL    HW210066   1.281   1.601   0.224 -0.0806  1.0007 -0.3634
 2575SOL    HW310067   1.404   1.533   0.281 -0.5124 -0.8239 -1.5379
 2575SOL    MW410068   1.363   1.605   0.253 -0.0583 -0.0307 -0.2567
 2576SOL     OW10069   3.744   4.515   3.756  0.0114 -0.2835  0.2568
 2576SOL    HW210070   3.700   4.537   3.674  1.6684  0.4278 -0.4999
 2576SOL    HW310071   3.808   4.448   3.732  1.5807  1.0104  0.5993
 2576SOL    MW410072   3.747   4.509   3.742  0.4370 -0.0189  0.2021
 2577SOL     OW10073   1.494   5.449   4.846  0.2503 -0.3505  0.5264
 2577SOL    HW210074   1.563   5.468   4.910  0.8876 -1.1395  0.0903
 2577SOL    HW310075   1.484   5.530   4.796  1.4842 -0.5007  0.0229
 2577SOL    MW410076   1.502   5.463   4.848  0.4972 -0.4744  0.4024
 2578SOL     OW10077   2.338   3.835   1.196  0.1576 -0.2309 -0.4321
 2578SOL    HW210078   2.296   3.752   1.221 -0.4971 -0.2941 -1.6564
 2578SOL    HW310079   2.265   3.892   1.172  0.5775  0.8984  0.9043
 2578SOL    MW410080   2.323   3.831   1.196  0.1266 -0.0902 -0.4173
 2579SOL     OW10081   1.067   5.177   0.914 -0.0381 -0.0999  0.4792
 2579SOL    HW210082   0.996   5.190   0.851  0.5672  0.0774 -0.1824
 2579SOL    HW310083   1.089   5.265   0.945 -0.6027 -0.2221  1.2520
 2579SOL    MW410084   1.060   5.190   0.910 -0.0327 -0.0926  0.4938
 2580SOL     OW10085   1.134   6.407   3.046  0.1446  0.3229 -0.0419
 2580SOL    HW210086   1.204   6.343   3.030 -0.5335 -0.0528 -1.7365
 2580SOL    HW310087   1.053   6.359   3.031 -0.3909  1.5067 -1.1731
 2580SOL    MW410088   1.133   6.392   3.042 -0.0156  0.4295 -0.4147
 2581SOL     OW10089   1.334   4.468   3.014  0.7042 -0.2640 -0.0274
 2581SOL    HW210090   1.300   4.541   2.961  1.6992 -2.1196 -3.6035
 2581SOL    HW310091   1.257   4.424   3.048  0.0744  1.9555  1.6314
 2581SOL    MW410092   1.320   4.472   3.011  0.7524 -0.2160 -0.2803
 2582SOL     OW10093   3.515   2.831   0.295 -0.0689  0.0790 -0.0291
 2582SOL    HW210094   3.474   2.748   0.272  0.2481 -0.0720 -0.0491
 2582SOL    HW310095   3.555   2.862   0.214  0.5649 -0.1803  0.1726
 2582SOL    MW410096   3.515   2.824   0.282  0.0566  0.0249 -0.0051
 2583SOL     OW10097   5.638   4.168   2.150  0.1669  0.8039 -0.1434
 2583SOL    HW210098   5.565   4.107   2.161 -0.8262  1.6810 -1.6023
 2583SOL    HW310099   5.602   4.253   2.173  0.6819  1.2708 -1.0193
 2583SOL    MW410100   5.624   4.171   2.155  0.1038  0.9812 -0.4514
 2584SOL     OW10101   1.173   0.430   5.913 -0.1902 -0.2376 -0.5314
 2584SOL    HW210102   1.250   0.385   5.946  0.6773  1.5564  0.0662
 2584SOL    HW310103   1.129   0.463   5.991 -0.7542 -0.0082 -0.9369
 2584SOL    MW410104   1.177   0.429   5.927 -0.1501  0.0294 -0.5061
 2585SOL     OW10105   1.593   4.404   6.340 -0.1284  0.3152  0.2497
 2585SOL    HW210106   1.547   4.446   6.267 -0.5574 -0.9460 -0.2191
 2585SOL    HW310107   1.685   4.425   6.324 -0.4063  1.9858  0.6339
 2585SOL    MW410108   1.599   4.413   6.328 -0.2216  0.3693  0.2385
 2586SOL     OW10109   6.177   1.768   1.395 -0.0422 -0.7904  0.0264
 2586SOL    HW210110   6.125   1.836   1.438  0.0908 -0.0245 -0.9784
 2586SOL    HW310111   6.189   1.701   1.462  0.1762  0.3676  1.1929
 2586SOL    MW410112   6.172   1.768   1.409  0.0042 -0.5365  0.0477
 2587SOL     OW10113   6.273   0.467   5.095  0.3147 -0.0808  0.0124
 2587SOL    HW210114   6.223   0.438   5.171 -0.1712  1.5584  0.3611
 2587SOL    HW310115   6.265   0.395   5.032 -1.1846 -0.5227  0.6601
 2587SOL    MW410116   6.265   0.453   5.096  0.0528  0.0772  0.1439
 2588SOL     OW10117   6.405   0.789   4.775  0.2373 -0.6844  0.4286
 2588SOL    HW210118   6.418   0.706   4.729  0.7831 -0.2968 -0.1257
 2588SOL    HW310119   6.490   0.808   4.814  0.9032  0.9058 -1.6316
 2588SOL    MW410120   6.418   0.780   4.774  0.3972 -0.4234  0.0837
 2589SOL     OW10121   5.805   1.379   2.980 -0.2668 -0.0386 -0.8469
 2589SOL    HW210122   5.733   1.394   2.918 -0.9505 -1.6386 -0.4942
 2589SOL    HW310123   5.854   1.306   2.942  1.5744  1.4026 -1.3802
 2589SOL    MW410124   5.802   1.371   2.966 -0.1141 -0.0595 -0.8707
 2590SOL     OW10125   1.373   1.013   0.585 -0.1791 -0.3010  0.2660
 2590SOL    HW210126   1.368   1.048   0.674 -0.2236  0.1405  0.0913
 2590SOL    HW310127   1.465   1.021   0.561 -0.1743 -0.3826  0.2551
 2590SOL    MW410128   1.385   1.018   0.593 -0.1844 -0.2535  0.2415
 2591SOL     OW10129   4.167   5.862   3.380 -0.0025 -0.0940  0.1708
 2591SOL    HW210130   4.236   5.914   3.422 -0.9230  1.4474 -0.1297
 2591SOL    HW310131   4.142   5.798   3.446 -0.0703  1.0192  1.2702
 2591SOL    MW410132   4.173   5.861   3.394 -0.1329  0.2562  0.2762
 2592SOL     OW10133   3.304   5.499   5.042 -0.8727  0.0025 -0.2055
 2592SOL    HW210134   3.359   5.549   4.982 -1.2264 -0.2800 -0.7759
 2592SOL    HW310135   3.294   5.556   5.118  2.0693 -0.8028  0.9499
 2592SOL    MW410136   3.310   5.513   5.044 -0.5312 -0.1411 -0.1283
 2593SOL     OW10137   4.080   4.277   5.813 -0.2718  0.6522 -0.7246
 2593SOL    HW210138   4.002   4.319   5.849 -0.0858  0.5362 -0.1592
 2593SOL    HW310139   4.047   4.210   5.754 -0.6563 -0.4561  0.7014
 2593SOL    MW410140   4.066   4.274   5.810 -0.2980  0.4907 -0.4618
 2594SOL     OW10141   1.845   0.792   0.337 -0.0797 -0.5379 -0.0941
 2594SOL    HW210142   1.864   0.844   0.259 -0.4809 -0.3933 -0.0997
 2594SOL    HW310143   1.899   0.831   0.405  0.3337 -0.7165 -0.3161
 2594SOL    MW410144   1.854   0.804   0.336 -0.0781 -0.5424 -0.1241
 2595SOL     OW10145   4.202   1.764   4.265 -0.2158 -0.0851 -0.5137
 2595SOL    HW210146   4.266   1.808   4.321 -1.4369  1.5857 -0.3747
 2595SOL    HW310147   4.117   1.797   4.294 -1.2005 -2.2111 -0.7156
 2595SOL    MW410148   4.199   1.774   4.276 -0.5068 -0.1451 -0.5220
 2596SOL     OW10149   3.801   6.175   1.010 -0.5018  0.8886  0.7017
 2596SOL    HW210150   3.751   6.223   1.076 -1.6778  0.0669  0.4336
 2596SOL    HW310151   3.865   6.124   1.061 -0.9840  0.7453  1.1760
 2596SOL    MW410152   3.803   6.174   1.026 -0.7206  0.7612  0.7289
 2597SOL     OW10153   4.446   0.225   5.079  0.4492 -0.2324  0.0099
 2597SOL    HW210154   4.422   0.183   4.997  0.6528 -0.2427 -0.0464
 2597SOL    HW310155   4.387   0.300   5.086  0.3210 -0.3281 -0.0633
 2597SOL    MW410156   4.435   0.230   5.069  0.4592 -0.2464 -0.0072
 2598SOL     OW10157   2.744   2.748   0.589  0.0889 -0.2853 -0.1284
 2598SOL    HW210158   2.694   2.666   0.587 -1.6715  0.7437 -1.5095
 2598SOL    HW310159   2.685   2.812   0.549  1.4556  1.6438  0.8343
 2598SOL    MW410160   2.730   2.745   0.583  0.0369  0.1050 -0.1836
 2599SOL     OW10161   3.148   2.752   1.904 -0.6490  0.0681 -0.8957
 2599SOL    HW210162   3.108   2.668   1.924 -1.2826  1.1192  3.1826
 2599SOL    HW310163   3.074   2.811   1.889 -0.5028  0.8285  1.0777
 2599SOL    MW410164   3.133   2.749   1.905 -0.7133  0.3071 -0.0973
 2600SOL     OW10165   0.429   0.147   3.824 -0.0169  0.0840  0.0278
 2600SOL    HW210166   0.387   0.213   3.767  2.1019  0.6720 -0.9557
 2600SOL    HW310167   0.484   0.199   3.883  1.1636 -0.7504 -0.3134
 2600SOL    MW410168   0.431   0.163   3.824  0.4184  0.0515 -0.1470
 2601SOL     OW10169   0.562   3.978   5.336 -0.1793 -0.2728  0.3738
 2601SOL    HW210170   0.655   3.983   5.316 -0.5319 -0.8044 -1.7028
 2601SOL    HW310171   0.522   3.943   5.256 -2.0369 -1.0785  1.5739
 2601SOL    MW410172   0.569   3.974   5.322 -0.4709 -0.4492  0.2581
 2602SOL     OW10173   1.242   4.177   6.067  0.4288  0.0620  0.2866
 2602SOL    HW210174   1.165   4.193   6.121 -0.6203 -0.4232 -0.9928
 2602SOL    HW310175   1.261   4.262   6.028 -0.7953 -0.2156 -1.0209
 2602SOL    MW410176   1.234   4.190   6.069  0.1289 -0.0387 -0.0547
 2603SOL     OW10177   2.318   2.557   0.265  0.0848 -0.0666 -0.6517
 2603SOL    HW210178   2.367   2.541   0.346  1.2166 -0.7664 -1.4479
 2603SOL    HW310179   2.382   2.595   0.205 -0.8241  0.7545 -1.1353
 2603SOL    MW410180   2.333   2.560   0.268  0.1142 -0.0506 -0.8205
 2604SOL     OW10181   1.809   3.677   5.867  0.3471 -0.1588  0.1844
 2604SOL    HW210182   1.739   3.741   5.853 -0.0611 -0.8850 -1.3302
 2604SOL    HW310183   1.764   3.592   5.871  1.1196 -0.6434 -0.8633
 2604SOL    MW410184   1.794   3.674   5.866  0.3952 -0.3185 -0.1536
 2605SOL     OW10185   4.361   4.386   0.400  0.1102 -0.3854  0.1679
 2605SOL    HW210186   4.407   4.358   0.321 -0.3101  0.4123 -0.3790
 2605SOL    HW310187   4.277   4.420   0.367  0.3178  0.8502  0.8471
 2605SOL    MW410188   4.356   4.387   0.385  0.0821 -0.1171  0.1854
 2606SOL     OW10189   2.139   5.358   2.204 -0.3259 -0.1379  0.0581
 2606SOL    HW210190   2.122   5.452   2.215  0.6759  0.1218 -0.4819
 2606SOL    HW310191   2.145   5.324   2.293  1.0356  0.6474  0.2824
 2606SOL    MW410192   2.137   5.366   2.217 -0.0141 -0.0000  0.0164
 2607SOL     OW10193   5.991   3.409   1.702  0.3661 -0.0966  0.0031
 2607SOL    HW210194   6.029   3.462   1.633  0.7789 -0.2000  0.1459
 2607SOL    HW310195   6.042   3.328   1.702  0.1934 -0.2105  0.2476
 2607SOL    MW410196   6.002   3.405   1.693  0.3978 -0.1253  0.0542
 2608SOL     OW10197   0.663   6.305   4.982  0.2746  0.2490 -0.3362
 2608SOL    HW210198   0.606   6.376   4.952  0.4987 -0.9394 -4.0843
 2608SOL    HW310199   0.751   6.332   4.953  0.4674 -1.1485 -1.1447
 2608SOL    MW410200   0.667   6.318   4.974  0.3296 -0.0922 -0.9374
 2609SOL     OW10201   2.013   1.647   1.625  0.7071  0.0707 -0.3665
 2609SOL    HW210202   2.013   1.566   1.574  1.8456 -0.7049  0.7773
 2609SOL    HW310203   2.052   1.712   1.566 -1.6980  0.2425 -1.8751
 2609SOL    MW410204   2.018   1.645   1.610  0.5400 -0.0089 -0.4146
 2610SOL     OW10205   0.133   4.437   4.658  0.9883  0.2723  0.1091
 2610SOL    HW210206   0.224   4.427   4.684  1.4902  1.6771 -0.9490
 2610SOL    HW310207   0.120   4.532   4.654  0.6383  0.2086 -3.4249
 2610SOL    MW410208   0.143   4.448   4.661  1.0083  0.4493 -0.4968
 2611SOL     OW10209   6.181   2.840   0.227  0.2973 -0.9884  0.1811
 2611SOL    HW210210   6.121   2.913   0.243 -0.1966 -1.3569  0.0617
 2611SOL    HW310211   6.130   2.762   0.249  0.4915 -1.3479 -0.5875
 2611SOL    MW410212   6.166   2.839   0.232  0.2577 -1.0845  0.0639
 2612SOL     OW10213   3.251   3.163   3.412 -0.5430  0.3261  0.0902
 2612SOL    HW210214   3.324   3.161   3.352 -0.4031  0.4062  0.2567
 2612SOL    HW310215   3.250   3.075   3.452 -0.5490  0.3189  0.0740
 2612SOL    MW410216   3.260   3.151   3.410 -0.5253  0.3357  0.1100
 2613SOL     OW10217   2.234   1.519   3.108  0.6540 -0.0253 -0.5409
 2613SOL    HW210218   2.157   1.462   3.100 -1.5966  2.6074  0.5013
 2613SOL    HW310219   2.295   1.470   3.163  0.0382 -2.4501 -1.8711
 2613SOL    MW410220   2.232   1.505   3.115  0.2759  0.0022 -0.5789
 2614SOL     OW10221   3.212   6.015   2.148 -0.2281 -0.3908  0.4779
 2614SOL    HW210222   3.204   6.026   2.242  0.2219  1.3682  0.3505
 2614SOL    HW310223   3.283   5.952   2.137 -0.1198 -0.4201  1.3225
 2614SOL    MW410224   3.220   6.008   2.159 -0.1544 -0.1626  0.5725
 2615SOL     OW10225   4.360   2.716   3.392  0.1094  0.1992  0.4108
 2615SOL    HW210226   4.292   2.777   3.364  0.2165 -0.7417 -2.1518
 2615SOL    HW310227   4.372   2.657   3.317  0.8604 -2.2373  2.3044
 2615SOL    MW410228   4.353   2.716   3.378  0.2226 -0.2464  0.3225
 2616SOL     OW10229   5.114   3.696   2.153  0.2836 -0.3259 -0.4586
 2616SOL    HW210230   5.125   3.707   2.059 -0.7993 -0.2064 -0.5880
 2616SOL    HW310231   5.181   3.633   2.178  0.3453 -0.6354 -1.3765
 2616SOL    MW410232   5.124   3.689   2.144  0.1489 -0.3510 -0.5968
 2617SOL     OW10233   6.194   4.218   0.981 -0.0987 -0.0726 -0.5358
 2617SOL    HW210234   6.279   4.219   1.023 -0.7680 -2.8987  1.1533
 2617SOL    HW310235   6.204   4.159   0.906 -0.8404 -1.6738  0.5582
 2617SOL    MW410236   6.206   4.211   0.977 -0.2849 -0.6568 -0.1686
 2618SOL     OW10237   4.276   4.015   0.334 -0.4399  0.4440 -0.0600
 2618SOL    HW210238   4.203   4.077   0.326 -1.9089 -1.0712  0.8159
 2618SOL    HW310239   4.354   4.066   0.311 -1.3958  2.9426  1.8097
 2618SOL    MW410240   4.276   4.030   0.330 -0.7598  0.5737  0.3023
 2619SOL     OW10241   4.279   4.262   3.872  0.1899 -0.0505 -0.3843
 2619SOL    HW210242   4.321   4.257   3.786  0.5094  3.1582 -0.5421
 2619SOL    HW310243   4.186   4.252   3.855  0.2687  0.3880 -1.0732
 2619SOL    MW410244   4.272   4.260   3.859  0.2425  0.4307 -0.4960
 2620SOL     OW10245   2.779   3.187   2.180  0.4908  0.5613 -0.1381
 2620SOL    HW210246   2.702   3.161   2.229  0.4540 -1.0794 -1.0040
 2620SOL    HW310247   2.750   3.190   2.089  1.6949 -1.2296 -0.6240
 2620SOL    MW410248   2.765   3.184   2.174  0.6448  0.1085 -0.3164
 2621SOL     OW10249   0.591   2.623   2.096  0.1873 -0.1900 -0.2507
 2621SOL    HW210250   0.639   2.693   2.140 -0.3644  1.1725 -1.7255
 2621SOL    HW310251   0.500   2.653   2.096  0.1954 -0.0373 -2.4107
 2621SOL    MW410252   0.586   2.636   2.102  0.1156  0.0099 -0.7302
 2622SOL     OW10253   5.474   2.749   4.353  0.1927 -0.3310  0.3005
 2622SOL    HW210254   5.436   2.719   4.435 -0.0827 -0.6673  0.0544
 2622SOL    HW310255   5.543   2.811   4.379 -0.9577  0.8093  0.7305
 2622SOL    MW410256   5.478   2.753   4.367  0.0046 -0.2249  0.3247
 2623SOL     OW10257   5.224   1.704   6.158 -0.0228 -0.1502 -0.0268
 2623SOL    HW210258   5.131   1.725   6.147  0.0159  1.1009  1.5895
 2623SOL    HW310259   5.268   1.757   6.091 -0.5114 -1.8354 -1.7759
 2623SOL    MW410260   5.217   1.714   6.147 -0.0822 -0.2074 -0.0443
 2624SOL     OW10261   1.858   0.260   1.185  0.1051 -0.2361  0.1472
 2624SOL    HW210262   1.846   0.194   1.253 -0.0148 -0.4368 -0.0687
 2624SOL    HW310263   1.790   0.325   1.202 -0.4720 -0.7126 -0.2864
 2624SOL    MW410264   1.848   0.260   1.196  0.0131 -0.3255  0.0615
 2625SOL     OW10265   2.724   0.411   0.458 -0.0879 -0.3255 -0.1878
 2625SOL    HW210266   2.662   0.424   0.386  0.9087  0.2582 -0.9700
 2625SOL    HW310267   2.785   0.345   0.425  1.0581  0.7788 -0.3522
 2625SOL    MW410268   2.724   0.404   0.444  0.1948 -0.1028 -0.3127
 2626SOL     OW10269   5.533   0.662   0.410 -0.2564  0.3484  0.0258
 2626SOL    HW210270   5.565   0.602   0.344 -1.7446 -0.0459 -0.3754
 2626SOL    HW310271   5.559   0.623   0.493  0.1430 -0.0415 -0.2799
 2626SOL    MW410272   5.541   0.649   0.412 -0.4001  0.2449 -0.0675
 2627SOL     OW10273   1.651   5.334   3.291  0.1817 -0.5530 -0.5569
 2627SOL    HW210274   1.699   5.313   3.371 -1.0938 -1.2833  0.0406
 2627SOL    HW310275   1.688   5.276   3.225  0.8214 -0.3703 -0.3752
 2627SOL    MW410276   1.663   5.324   3.293  0.0978 -0.6252 -0.4541
 2628SOL     OW10277   5.846   4.521   1.268 -0.8148 -0.1156  0.0590
 2628SOL    HW210278   5.890   4.587   1.214 -1.8723  0.3895 -0.2097
 2628SOL    HW310279   5.915   4.487   1.326  0.1655 -0.1108 -1.0678
 2628SOL    MW410280   5.861   4.525   1.269 -0.8250 -0.0483 -0.1251
 2629SOL     OW10281   6.418   5.879   1.735  0.2227 -0.0862  0.2547
 2629SOL    HW210282   6.499   5.866   1.686  0.6636 -2.2285  1.4255
 2629SOL    HW310283   6.372   5.947   1.686  2.2804  0.5344 -0.9811
 2629SOL    MW410284   6.423   5.886   1.722  0.5524 -0.2870  0.2461
 2630SOL     OW10285   3.322   4.589   5.854 -0.0824 -0.4971 -0.5926
 2630SOL    HW210286   3.415   4.565   5.862  0.5802  1.6524 -1.1030
 2630SOL    HW310287   3.281   4.512   5.816  2.0769 -0.5342 -3.1801
 2630SOL    MW410288   3.329   4.576   5.851  0.2899 -0.2184 -1.0014
 2631SOL     OW10289   2.274   0.095   3.886  0.1333  0.1222  0.5491
 2631SOL    HW210290   2.259   0.177   3.934 -0.2420  1.0029 -1.0112
 2631SOL    HW310291   2.336   0.118   3.817  0.4286 -1.0401  0.4025
 2631SOL    MW410292   2.280   0.109   3.883  0.1228  0.0851  0.3239
 2632SOL     OW10293   2.948   3.419   4.918  0.2356  0.1775 -0.0399
 2632SOL    HW210294   2.877   3.454   4.865 -2.6850 -1.4107  2.5405
 2632SOL    HW310295   2.952   3.476   4.995 -0.2865 -1.3756  1.1959
 2632SOL    MW410296   2.939   3.431   4.921 -0.2186 -0.2369  0.4636
 2633SOL     OW10297   5.710   0.790   4.981  0.5963 -0.3370  0.5982
 2633SOL    HW210298   5.719   0.873   4.934 -0.7943  0.7736  2.1988
 2633SOL    HW310299   5.650   0.738   4.927 -0.3689  0.6131  0.7278
 2633SOL    MW410300   5.704   0.794   4.967  0.2855 -0.0651  0.8265
 2634SOL     OW10301   5.447   3.592   0.743  0.0350 -0.0078  0.5991
 2634SOL    HW210302   5.497   3.604   0.662 -0.9028  0.0598  0.0120
 2634SOL    HW310303   5.408   3.505   0.734 -0.7969  0.3588  0.5589
 2634SOL    MW410304   5.448   3.582   0.731 -0.1985  0.0495  0.5164
 2635SOL     OW10305   3.550   6.396   4.525  0.5224 -0.0846 -0.7289
 2635SOL    HW210306   3.559   6.456   4.451 -0.7584  0.1302 -0.7430
 2635SOL    HW310307   3.499   6.445   4.590 -3.6711 -2.1355 -2.0814
 2635SOL    MW410308   3.544   6.411   4.524 -0.1999 -0.3268 -0.9092
 2636SOL     OW10309   2.654   6.166   0.317  0.4733  0.1249  0.2984
 2636SOL    HW210310   2.745   6.137   0.332 -0.5010 -3.2664  0.5322
 2636SOL    HW310311   2.606   6.130   0.392 -1.1516  1.7160  0.0836
 2636SOL    MW410312   2.660   6.157   0.329  0.1303 -0.1126  0.3009
 2637SOL     OW10313   3.392   0.490   3.288  0.0809  0.5873  0.2934
 2637SOL    HW210314   3.307   0.517   3.324  0.8992  3.3083  0.3728
 2637SOL    HW310315   3.451   0.562   3.308  2.2120 -0.7951 -0.6547
 2637SOL    MW410316   3.388   0.503   3.295  0.4700  0.7639  0.1788
 2638SOL     OW10317   3.780   0.863   4.867 -0.2070  0.5781 -0.3242
 2638SOL    HW210318   3.765   0.896   4.956 -0.1601 -1.3605  0.4609
 2638SOL    HW310319   3.845   0.794   4.879 -0.8385 -0.2945 -1.7482
 2638SOL    MW410320   3.787   0.858   4.880 -0.2841  0.2072 -0.4085
 2639SOL     OW10321   6.283   2.039   2.347  0.3161  0.6290  0.1824
 2639SOL    HW210322   6.269   2.099   2.273 -1.2183 -2.3120 -2.1166
 2639SOL    HW310323   6.202   1.989   2.353  1.2403 -0.7402  2.4960
 2639SOL    MW410324   6.271   2.040   2.338  0.2356  0.0603  0.1844
 2640SOL     OW10325   4.839   1.037   6.179 -0.2423 -0.0953  0.2274
 2640SOL    HW210326   4.885   1.051   6.262 -1.5372  5.1489  0.3897
 2640SOL    HW310327   4.891   1.085   6.114 -2.0287  0.4494 -0.8716
 2640SOL    MW410328   4.852   1.045   6.181 -0.6488  0.6685  0.1038
 2641SOL     OW10329   4.154   1.642   5.952  0.6350  0.1422 -0.6234
 2641SOL    HW210330   4.163   1.554   5.990  3.1476  0.4695 -0.2949
 2641SOL    HW310331   4.183   1.701   6.021 -0.2253  1.2066 -1.1343
 2641SOL    MW410332   4.159   1.638   5.966  0.8530  0.3258 -0.6475
 2642SOL     OW10333   0.921   3.821   2.924 -0.1886 -0.4543  0.2905
 2642SOL    HW210334   0.869   3.797   3.001  0.0772 -1.0450  0.2966
 2642SOL    HW310335   0.973   3.742   2.905 -0.0710 -0.2316 -0.3441
 2642SOL    MW410336   0.921   3.807   2.932 -0.1380 -0.5028  0.2076
 2643SOL     OW10337   0.117   0.269   5.166  0.3904  0.0468 -0.2702
 2643SOL    HW210338   0.170   0.311   5.099 -0.6350 -0.8668 -1.7231
 2643SOL    HW310339   0.034   0.248   5.122 -0.4208 -0.3758  1.3538
 2643SOL    MW410340   0.113   0.272   5.152  0.1481 -0.1295 -0.2476
 2644SOL     OW10341   4.490   3.564   1.204  0.2919  1.0745  0.6282
 2644SOL    HW210342   4.567   3.606   1.165  0.6545  0.1549  0.3289
 2644SOL    HW310343   4.442   3.529   1.129  1.0445 -0.7983  0.9572
 2644SOL    MW410344   4.494   3.565   1.189  0.4391  0.7061  0.6321
 2645SOL     OW10345   0.028   2.714   4.789  0.3048 -0.3021  0.1695
 2645SOL    HW210346  -0.001   2.694   4.878 -0.2488 -1.5821 -0.2643
 2645SOL    HW310347   0.121   2.692   4.789  0.1160 -1.1489  0.2151
 2645SOL    MW410348   0.036   2.708   4.801  0.2068 -0.5827  0.1183
 2646SOL     OW10349   4.682   3.241   4.141 -0.4490  0.2447 -0.0911
 2646SOL    HW210350   4.699   3.161   4.092 -0.9889  0.1549 -0.1419
 2646SOL    HW310351   4.707   3.311   4.081  0.8761  0.1167  0.2817
 2646SOL    MW410352   4.687   3.240   4.126 -0.3454  0.2160 -0.0486
 2647SOL     OW10353   4.954   6.056   4.681 -0.1587 -0.4242 -0.0171
 2647SOL    HW210354   4.867   6.095   4.675 -0.5238 -1.3268 -0.8936
 2647SOL    HW310355   4.996   6.078   4.598  0.8110  0.7975  0.7732
 2647SOL    MW410356   4.948   6.064   4.669 -0.0789 -0.3821 -0.0284
 2648SOL     OW10357   1.726   5.377   2.845 -0.2065 -0.3155  0.3840
 2648SOL    HW210358   1.795   5.442   2.834 -1.3747  0.7656 -1.1328
 2648SOL    HW310359   1.731   5.324   2.765 -1.1321 -0.1927  0.2320
 2648SOL    MW410360   1.735   5.379   2.833 -0.4827 -0.1567  0.1638
 2649SOL     OW10361   0.900   3.280   4.355  0.0662 -0.3622  0.0129
 2649SOL    HW210362   0.845   3.258   4.430  0.0990  2.1027  0.8509
 2649SOL    HW310363   0.877   3.215   4.288 -0.7563 -1.9518  1.7513
 2649SOL    MW410364   0.890   3.269   4.356 -0.0380 -0.2467  0.3528
 2650SOL     OW10365   3.213   2.185   4.509 -0.4914  0.1568  0.1049
 2650SOL    HW210366   3.257   2.262   4.545  0.2630 -0.5190  0.6667
 2650SOL    HW310367   3.252   2.111   4.556  0.2930 -0.7484 -1.8794
 2650SOL    MW410368   3.224   2.185   4.520 -0.2884 -0.0518 -0.0828
 2651SOL     OW10369   2.391   2.734   5.236  0.1453  1.2271 -0.5957
 2651SOL    HW210370   2.455   2.664   5.226  0.0895  0.9813  0.5602
 2651SOL    HW310371   2.443   2.812   5.255  0.2414  1.6493 -2.4374
 2651SOL    MW410372   2.406   2.735   5.238  0.1506  1.2504 -0.6862
 2652SOL     OW10373   4.717   5.256   2.502 -0.4771 -0.0764  0.5668
 2652SOL    HW210374   4.681   5.168   2.494 -0.8202  0.1293 -0.2447
 2652SOL    HW310375   4.692   5.285   2.590 -0.7697 -0.5993  0.6584
 2652SOL    MW410376   4.709   5.248   2.513 -0.5610 -0.1183  0.4718
 2653SOL     OW10377   5.469   4.749   0.364  0.3929  0.0401  0.3904
 2653SOL    HW210378   5.524   4.819   0.398  2.6185 -0.7284 -1.3390
 2653SOL    HW310379   5.521   4.669   0.377 -0.6862 -0.8561 -0.5547
 2653SOL    MW410380   5.483   4.748   0.370  0.5441 -0.1795  0.0375
 2654SOL     OW10381   2.674   1.273   5.798 -0.0911 -0.1591 -0.0964
 2654SOL    HW210382   2.644   1.222   5.873  0.9666 -0.4664  0.1274
 2654SOL    HW310383   2.614   1.348   5.795 -1.0742 -0.9092  0.1351
 2654SOL    MW410384   2.662   1.276   5.807 -0.0812 -0.2986 -0.0363
 2655SOL     OW10385   3.814   5.807   5.930 -0.2159  0.1014  0.9544
 2655SOL    HW210386   3.890   5.849   5.890  0.6320 -1.6693  0.6124
 2655SOL    HW310387   3.824   5.824   6.024 -0.1044  0.9485  0.7972
 2655SOL    MW410388   3.825   5.815   5.937 -0.0893 -0.0205  0.8885
 2656SOL     OW10389   1.167   0.239   2.396 -0.1469  0.1646  0.5636
 2656SOL    HW210390   1.089   0.212   2.348  0.2628 -0.1570  0.0736
 2656SOL    HW310391   1.133   0.284   2.474 -0.8249 -0.4849  0.6515
 2656SOL    MW410392   1.152   0.241   2.400 -0.1823  0.0365  0.5105
 2657SOL     OW10393   0.679   2.744   4.424  0.1463 -0.8194 -0.2904
 2657SOL    HW210394   0.633   2.736   4.508  0.4649 -0.2162 -0.0490
 2657SOL    HW310395   0.737   2.819   4.436 -1.5237  0.8089 -1.8728
 2657SOL    MW410396   0.681   2.753   4.437 -0.0320 -0.5250 -0.4674
 2658SOL     OW10397   5.749   2.450   4.857  0.3149 -0.1481 -0.1030
 2658SOL    HW210398   5.678   2.489   4.908  0.2411  1.6220 -1.4785
 2658SOL    HW310399   5.718   2.361   4.837 -0.8955  0.1253  0.4718
 2658SOL    MW410400   5.736   2.443   4.861  0.1455  0.1215 -0.2086
 2659SOL     OW10401   3.172   0.678   5.650  0.3173 -0.0217  0.3544
 2659SOL    HW210402   3.143   0.758   5.606 -0.1320  1.3461  2.9632
 2659SOL    HW310403   3.134   0.607   5.597 -0.4742  1.4935 -1.2320
 2659SOL    MW410404   3.163   0.679   5.637  0.1536  0.3587  0.4893
 2660SOL     OW10405   2.361   1.001   0.330 -0.1124 -0.5805  0.4616
 2660SOL    HW210406   2.375   1.023   0.238 -0.3631  0.6437  0.7002
 2660SOL    HW310407   2.401   0.915   0.341  0.4826 -0.4559 -0.6412
 2660SOL    MW410408   2.368   0.993   0.320 -0.0670 -0.4026  0.3476
 2661SOL     OW10409   2.983   6.156   1.041  0.2478  0.2969  0.2446
 2661SOL    HW210410   2.966   6.208   1.119  0.7038 -0.0348  0.5752
 2661SOL    HW310411   3.022   6.075   1.075 -1.1897 -0.5983 -0.1978
 2661SOL    MW410412   2.986   6.152   1.056  0.1183  0.1350  0.2299
 2662SOL     OW10413   6.208   3.722   4.109  0.0019 -0.4397 -0.3250
 2662SOL    HW210414   6.291   3.675   4.096  1.4567  1.4333  1.3743
 2662SOL    HW310415   6.162   3.672   4.176  0.2587 -0.8883 -0.4789
 2662SOL    MW410416   6.213   3.709   4.116  0.2278 -0.2518 -0.1211
 2663SOL     OW10417   2.028   5.634   6.415 -0.1534 -0.0536  0.0410
 2663SOL    HW210418   2.107   5.634   6.470  1.5088 -0.5175 -2.1798
 2663SOL    HW310419   2.044   5.704   6.351 -1.5889 -0.1249 -0.4152
 2663SOL    MW410420   2.041   5.643   6.414 -0.1235 -0.1242 -0.3122
 2664SOL     OW10421   6.205   4.084   1.808 -0.4177  0.0753  0.4654
 2664SOL    HW210422   6.186   4.013   1.747 -0.2773  0.7224 -0.3625
 2664SOL    HW310423   6.134   4.082   1.871 -1.0309 -0.0797 -0.2225
 2664SOL    MW410424   6.193   4.074   1.808 -0.4801  0.1402  0.2654
 2665SOL     OW10425   4.683   3.628   5.651  0.1456  0.4022  0.4302
 2665SOL    HW210426   4.749   3.696   5.634 -0.6340  0.8601 -0.9168
 2665SOL    HW310427   4.631   3.663   5.724  0.1702  0.9391  0.1930
 2665SOL    MW410428   4.685   3.642   5.659  0.0460  0.5335  0.2212
 2666SOL     OW10429   2.433   5.357   5.808 -0.0089 -0.5088  0.1306
 2666SOL    HW210430   2.407   5.370   5.899 -0.4243 -0.8797  0.0711
 2666SOL    HW310431   2.357   5.314   5.768  0.3520 -0.7774 -0.2723
 2666SOL    MW410432   2.419   5.353   5.815 -0.0161 -0.5931  0.0696
 2667SOL     OW10433   3.940   4.440   0.830  0.0086 -0.5882 -0.1414
 2667SOL    HW210434   3.930   4.360   0.779  1.1752 -1.1780  0.5078
 2667SOL    HW310435   3.964   4.507   0.766 -0.9383 -0.7532 -0.6814
 2667SOL    MW410436   3.942   4.439   0.815  0.0376 -0.6878 -0.1270
 2668SOL     OW10437   6.191   2.102   1.499  0.4102 -0.1324  0.5924
 2668SOL    HW210438   6.229   2.028   1.546  1.4702  1.8548  3.0644
 2668SOL    HW310439   6.150   2.155   1.566 -2.6040  0.3194 -1.4232
 2668SOL    MW410440   6.191   2.099   1.514  0.1524  0.1894  0.6526
 2669SOL     OW10441   3.592   2.177   2.558 -0.2743  0.0423 -0.3173
 2669SOL    HW210442   3.675   2.139   2.530  0.4391 -0.7457  2.5739
 2669SOL    HW310443   3.595   2.268   2.527  2.4962  0.5521  1.1618
 2669SOL    MW410444   3.603   2.184   2.550  0.1854  0.0056  0.2593
 2670SOL     OW10445   3.218   5.675   1.922  0.6133 -0.6128  0.2575
 2670SOL    HW210446   3.287   5.635   1.870  0.9586 -0.8485  0.8784
 2670SOL    HW310447   3.207   5.762   1.885 -0.5899 -1.4641 -1.5197
 2670SOL    MW410448   3.226   5.681   1.910  0.5002 -0.7562  0.1050
 2671SOL     OW10449   0.549   3.152   5.118  0.0906  0.5856  0.3283
 2671SOL    HW210450   0.623   3.177   5.174  0.3768 -1.8886  1.1600
 2671SOL    HW310451   0.499   3.090   5.170 -1.7910  1.0810 -0.7877
 2671SOL    MW410452   0.553   3.147   5.132 -0.1199  0.3245  0.2908
 2672SOL     OW10453   6.347   5.342   6.336  0.5098 -0.3203  0.0564
 2672SOL    HW210454   6.378   5.271   6.393  0.8773 -0.7593 -0.6747
 2672SOL    HW310455   6.420   5.358   6.276 -0.0244 -0.1504 -0.5566
 2672SOL    MW410456   6.361   5.334   6.335  0.4878 -0.3558 -0.1209
 2673SOL     OW10457   1.229   3.289   1.001  0.2048 -0.5915  0.2138
 2673SOL    HW210458   1.322   3.275   1.020 -0.0426 -2.0623  0.4475
 2673SOL    HW310459   1.191   3.202   1.002 -1.3834  0.0717  1.1660
 2673SOL    MW410460   1.236   3.276   1.004 -0.0374 -0.6981  0.3703
 2674SOL     OW10461   4.437   5.855   2.506 -0.2177  0.2343 -0.5548
 2674SOL    HW210462   4.513   5.800   2.488 -0.6421 -0.1911 -1.0983
 2674SOL    HW310463   4.377   5.799   2.554  0.3296  0.9584  1.0529
 2674SOL    MW410464   4.439   5.841   2.510 -0.2015  0.2737 -0.4144
 2675SOL     OW10465   2.402   5.380   6.093  0.0146  0.1370  0.1959
 2675SOL    HW210466   2.385   5.472   6.113 -0.5103  0.2212 -0.5972
 2675SOL    HW310467   2.319   5.336   6.110 -0.2372  0.0949 -1.0428
 2675SOL    MW410468   2.389   5.386   6.098 -0.0878  0.1425 -0.0722
 2676SOL     OW10469   3.097   1.199   2.771 -0.2207 -0.0465  0.3944
 2676SOL    HW210470   3.036   1.239   2.833 -0.3074 -1.2251  1.1061
 2676SOL    HW310471   3.043   1.181   2.694 -0.3508  0.5241  0.3473
 2676SOL    MW410472   3.082   1.202   2.769 -0.2493 -0.1267  0.4821
 2677SOL     OW10473   2.055   6.361   2.507 -0.4544  0.5388 -0.1636
 2677SOL    HW210474   1.966   6.346   2.475 -1.1204 -1.1369  2.2071
 2677SOL    HW310475   2.047   6.440   2.561 -0.7417 -0.1276  0.7883
 2677SOL    MW410476   2.042   6.369   2.510 -0.5801  0.2298  0.2748
 2678SOL     OW10477   1.866   2.791   1.593 -0.0372  0.4913 -0.5266
 2678SOL    HW210478   1.923   2.861   1.560  0.3378 -0.0499 -1.0459
 2678SOL    HW310479   1.910   2.760   1.672 -0.3697  1.0480 -0.1124
 2678SOL    MW410480   1.880   2.796   1.599 -0.0316  0.4934 -0.5405
 2679SOL     OW10481   4.972   6.025   0.972 -1.0328 -0.5448  0.0608
 2679SOL    HW210482   5.020   5.957   0.924  0.0652  0.8114 -0.8291
 2679SOL    HW310483   4.904   6.053   0.911 -1.0931 -0.4063  0.1916
 2679SOL    MW410484   4.969   6.020   0.958 -0.8959 -0.3476 -0.0394
 2680SOL     OW10485   0.204   0.945   5.352 -0.4859 -0.7104  0.0487
 2680SOL    HW210486   0.179   1.037   5.349 -0.4750 -0.7147 -0.1821
 2680SOL    HW310487   0.201   0.923   5.445  1.8552  0.1784  0.4143
 2680SOL    MW410488   0.201   0.954   5.364 -0.1756 -0.5937  0.0665
 2681SOL     OW10489   3.066   2.018   0.936 -0.4604  0.1562 -0.0363
 2681SOL    HW210490   3.070   1.980   0.848 -2.1958  1.9328 -0.9546
 2681SOL    HW310491   3.130   2.089   0.935  0.4603 -0.6349  0.6117
 2681SOL    MW410492   3.075   2.022   0.924 -0.5679  0.2863 -0.0720
 2682SOL     OW10493   2.122   1.709   1.148 -0.1955  0.2634 -0.6233
 2682SOL    HW210494   2.176   1.749   1.080 -0.3840 -0.1811 -1.0404
 2682SOL    HW310495   2.033   1.710   1.111 -0.4424  0.8256 -0.0191
 2682SOL    MW410496   2.117   1.714   1.134 -0.2530  0.2789 -0.5986
 2683SOL     OW10497   2.098   0.698   5.373 -0.2586  0.4410 -0.4736
 2683SOL    HW210498   2.007   0.670   5.377  0.0002 -0.2906  2.0660
 2683SOL    HW310499   2.148   0.617   5.366  0.2726  0.6134  0.9720
 2683SOL    MW410500   2.093   0.684   5.373 -0.1543  0.3672  0.0522
 2684SOL     OW10501   4.982   1.471   1.287 -0.0859  0.1088 -0.0487
 2684SOL    HW210502   4.996   1.412   1.213  0.8570 -0.4048  0.5344
 2684SOL    HW310503   4.889   1.495   1.281 -0.2764 -0.7798 -0.7619
 2684SOL    MW410504   4.971   1.467   1.276  0.0133 -0.0762 -0.0659
 2685SOL     OW10505   0.230   1.640   6.002 -0.4889  0.0852  0.6931
 2685SOL    HW210506   0.266   1.607   5.919 -1.0943 -0.7432  0.7440
 2685SOL    HW310507   0.306   1.649   6.059 -0.2121 -0.5491  0.4409
 2685SOL    MW410508   0.245   1.637   5.998 -0.5323 -0.1078  0.6665
 2686SOL     OW10509   3.129   6.021   2.407  0.3780 -0.4560  0.2870
 2686SOL    HW210510   3.190   6.080   2.450  0.9445 -2.1813  1.9924
 2686SOL    HW310511   3.043   6.060   2.421  0.9310  1.6941 -1.6349
 2686SOL    MW410512   3.126   6.034   2.414  0.5257 -0.4000  0.2584
 2687SOL     OW10513   6.364   0.907   0.318  0.7419 -0.2569  0.4826
 2687SOL    HW210514   6.313   0.957   0.381  0.9119  0.4961  0.0291
 2687SOL    HW310515   6.378   0.822   0.361 -2.5137 -1.2511 -0.0986
 2687SOL    MW410516   6.359   0.902   0.332  0.3348 -0.2887  0.3461
 2688SOL     OW10517   5.850   0.146   3.775 -0.1267  0.1794  0.1049
 2688SOL    HW210518   5.910   0.177   3.707 -0.9682  1.6227 -0.0173
 2688SOL    HW310519   5.792   0.085   3.729  1.3360 -1.4124  0.2745
 2688SOL    MW410520   5.850   0.142   3.760 -0.0448  0.1598  0.1111
 2689SOL     OW10521   3.501   4.288   0.188 -0.0417 -0.6903  0.3974
 2689SOL    HW210522   3.563   4.249   0.126 -1.2445 -0.7627 -0.8154
 2689SOL    HW310523   3.419   4.241   0.172 -0.9981  0.9280  0.3530
 2689SOL    MW410524   3.498   4.277   0.178 -0.3266 -0.4864  0.2315
 2690SOL     OW10525   2.523   6.147   3.336 -0.1084 -0.1336  0.5013
 2690SOL    HW210526   2.481   6.074   3.382 -0.4568 -0.6121 -0.5298
 2690SOL    HW310527   2.548   6.110   3.251 -1.6094  1.3019 -0.6252
 2690SOL    MW410528   2.521   6.132   3.331 -0.3524 -0.0074  0.2166
 2691SOL     OW10529   6.383   5.860   4.455 -0.0528  0.2775  0.2121
 2691SOL    HW210530   6.463   5.899   4.490  1.2315 -2.3257  0.4083
 2691SOL    HW310531   6.381   5.773   4.493 -0.1551 -1.6856 -3.8227
 2691SOL    MW410532   6.394   5.854   4.465  0.1032 -0.3249 -0.2943
 2692SOL     OW10533   2.801   6.407   4.485  0.2582  0.3447 -0.0715
 2692SOL    HW210534   2.834   6.492   4.457 -0.4988  0.8342  0.4746
 2692SOL    HW310535   2.763   6.368   4.406 -0.5091  1.0582 -0.0602
 2692SOL    MW410536   2.800   6.413   4.471  0.0571  0.5034  0.0020
 2693SOL     OW10537   0.366   5.846   2.676  0.3174  0.2303 -0.5539
 2693SOL    HW210538   0.366   5.940   2.693  5.8557  1.0452 -2.8412
 2693SOL    HW310539   0.382   5.838   2.582  4.5678 -2.6061  0.0955
 2693SOL    MW410540   0.368   5.857   2.666  1.6089 -0.0364 -0.7700
 2694SOL     OW10541   2.414   3.889   6.183 -0.1203 -0.0073 -0.0294
 2694SOL    HW210542   2.481   3.826   6.208 -1.2986 -1.6258 -0.7518
 2694SOL    HW310543   2.461   3.957   6.135  1.4545  0.6583  2.3079
 2694SOL    MW410544   2.429   3.889   6.180 -0.0680 -0.1330  0.1837
 2695SOL     OW10545   0.381   4.509   4.267 -0.1450  0.5027 -0.7004
 2695SOL    HW210546   0.471   4.518   4.236 -0.5569  1.2214 -1.7693
 2695SOL    HW310547   0.363   4.591   4.314  0.8240 -0.9845  2.5845
 2695SOL    MW410548   0.390   4.521   4.269 -0.0715  0.4013 -0.4080
 2696SOL     OW10549   1.433   2.706   1.603  0.1637  0.0099  0.1939
 2696SOL    HW210550   1.353   2.669   1.565 -0.3820  1.3387 -0.0043
 2696SOL    HW310551   1.406   2.739   1.689  0.2446  1.3172 -0.2561
 2696SOL    MW410552   1.419   2.706   1.609  0.1024  0.3577  0.1084
 2697SOL     OW10553   3.514   3.216   3.689  0.0739 -0.3006  0.0027
 2697SOL    HW210554   3.526   3.166   3.608 -2.5541 -0.9049 -0.1197
 2697SOL    HW310555   3.419   3.214   3.704 -0.1218  4.0414  0.4398
 2697SOL    MW410556   3.503   3.209   3.680 -0.2986  0.1925  0.0442
 2698SOL     OW10557   0.540   5.129   0.703  0.0392  0.5950 -0.4019
 2698SOL    HW210558   0.589   5.211   0.695 -0.8130  0.9789 -2.2403
 2698SOL    HW310559   0.574   5.073   0.633  0.7525 -0.7472  0.9480
 2698SOL    MW410560   0.551   5.132   0.693  0.0209  0.4685 -0.4663
 2699SOL     OW10561   3.442   0.119   4.763  0.7485 -0.0943 -0.0038
 2699SOL    HW210562   3.512   0.121   4.829  0.0059 -1.9219  0.9160
 2699SOL    HW310563   3.411   0.209   4.758  1.1758  0.1912  1.7824
 2699SOL    MW410564   3.448   0.131   4.771  0.7069 -0.2977  0.3532
 2700SOL     OW10565   5.973   4.373   4.083 -0.6114 -0.2536  0.3721
 2700SOL    HW210566   5.988   4.282   4.108  0.7084  0.3248  1.8495
 2700SOL    HW310567   5.992   4.377   3.990  0.6384 -1.2287  0.5696
 2700SOL    MW410568   5.977   4.362   4.074 -0.2724 -0.3059  0.5931
 2701SOL     OW10569   0.987   3.291   3.620  0.0314  0.2756  0.0692
 2701SOL    HW210570   1.029   3.345   3.687 -0.6725 -0.5220  1.2017
 2701SOL    HW310571   1.051   3.223   3.599 -0.0295  0.0710  0.5276
 2701SOL    MW410572   1.001   3.289   3.626 -0.0695  0.1434  0.2791
 2702SOL     OW10573   4.811   0.276   4.423  0.4329  0.2863  0.4762
 2702SOL    HW210574   4.791   0.183   4.411  2.1277 -0.3918  2.2160
 2702SOL    HW310575   4.864   0.299   4.347  1.0409 -0.5396  0.6278
 2702SOL    MW410576   4.815   0.267   4.412  0.7368  0.0879  0.7258
 2703SOL     OW10577   5.085   2.268   6.309  0.2239 -0.2757  0.0937
 2703SOL    HW210578   5.091   2.338   6.244  3.1551 -0.4634  0.0077
 2703SOL    HW310579   5.057   2.311   6.389 -1.1810  0.3644 -0.7079
 2703SOL    MW410580   5.082   2.283   6.311  0.4253 -0.2160 -0.0234
 2704SOL     OW10581   2.582   6.223   4.718  0.0043 -0.4875 -0.2538
 2704SOL    HW210582   2.529   6.143   4.723 -0.1340 -0.3367  0.8413
 2704SOL    HW310583   2.646   6.204   4.649  0.1068 -1.6277  0.1286
 2704SOL    MW410584   2.584   6.210   4.709 -0.0004 -0.6180 -0.0588
 2705SOL     OW10585   5.552   2.053   4.625 -0.0058  0.3466  0.1226
 2705SOL    HW210586   5.555   2.082   4.534 -1.1147  0.7092  0.1933
 2705SOL    HW310587   5.612   2.112   4.671 -2.4386  2.8471  0.3271
 2705SOL    MW410588   5.560   2.064   4.619 -0.4731  0.7244  0.1589
 2706SOL     OW10589   3.915   3.116   1.396 -0.1000 -0.7520 -0.3278
 2706SOL    HW210590   3.902   3.200   1.440  0.9912  0.5120 -2.2774
 2706SOL    HW310591   3.978   3.070   1.452  0.2021  0.2246  0.1605
 2706SOL    MW410592   3.922   3.121   1.409  0.0838 -0.4564 -0.5206
 2707SOL     OW10593   5.380   1.403   0.157  0.3019  0.1644  0.1410
 2707SOL    HW210594   5.347   1.459   0.086  2.4451  2.3745  0.7487
 2707SOL    HW310595   5.308   1.399   0.220 -0.1078  1.9341 -0.1514
 2707SOL    MW410596   5.366   1.410   0.156  0.5306  0.6895  0.1826
 2708SOL     OW10597   2.822   5.869   1.674 -0.2467 -0.0751  0.2202
 2708SOL    HW210598   2.897   5.810   1.683 -0.4180 -0.1771  1.0603
 2708SOL    HW310599   2.750   5.813   1.645 -0.0654 -0.0190 -0.3543
 2708SOL    MW410600   2.822   5.854   1.671 -0.2454 -0.0811  0.2553
 2709SOL     OW10601   4.024   1.858   6.457 -0.0478 -0.2113  0.3523
 2709SOL    HW210602   4.071   1.889   6.534 -1.8826 -0.0510  1.4424
 2709SOL    HW310603   4.032   1.930   6.394  1.8909 -0.5514  0.1595
 2709SOL    MW410604   4.031   1.871   6.459 -0.0341 -0.2350  0.4707
 2710SOL     OW10605   6.423   2.315   0.474 -0.3795  0.5997  0.8814
 2710SOL    HW210606   6.421   2.410   0.465 -0.9800  0.5944  0.9096
 2710SOL    HW310607   6.503   2.297   0.524  0.8548  0.9261 -0.8655
 2710SOL    MW410608   6.433   2.325   0.479 -0.2959  0.6421  0.6546
 2711SOL     OW10609   0.457   4.777   1.407  0.4128  0.5314 -0.1952
 2711SOL    HW210610   0.463   4.856   1.461  1.3757  0.8398 -0.7338
 2711SOL    HW310611   0.435   4.707   1.468 -0.2526  1.1792  0.3190
 2711SOL    MW410612   0.455   4.778   1.422  0.4521  0.6576 -0.1985
 2712SOL     OW10613   6.315   1.205   4.795 -0.0055  0.5599 -0.0453
 2712SOL    HW210614   6.253   1.249   4.854 -0.2429  0.2407 -0.0549
 2712SOL    HW310615   6.268   1.127   4.765  0.4345  0.2767  0.0046
 2712SOL    MW410616   6.300   1.201   4.799  0.0213  0.4804 -0.0399
 2713SOL     OW10617   3.238   4.955   3.656 -0.0053  0.5159  0.2167
 2713SOL    HW210618   3.255   4.894   3.584 -0.5515  0.7538 -0.1202
 2713SOL    HW310619   3.207   4.899   3.727 -2.3128  0.5421 -0.6776
 2713SOL    MW410620   3.236   4.939   3.656 -0.3818  0.5507  0.0543
 2714SOL     OW10621   2.206   2.407   4.685 -0.4355  0.1194 -0.0248
 2714SOL    HW210622   2.187   2.314   4.676  1.9872 -0.5048  0.6311
 2714SOL    HW310623   2.201   2.423   4.779  1.4547  0.0478  0.1253
 2714SOL    MW410624   2.203   2.397   4.696  0.1335  0.0276  0.0816
 2715SOL     OW10625   5.706   4.788   4.641 -0.1930  0.6144  0.1489
 2715SOL    HW210626   5.634   4.724   4.647  0.6842 -0.3351  0.9323
 2715SOL    HW310627   5.703   4.819   4.550  1.4585 -3.1558 -1.4029
 2715SOL    MW410628   5.696   4.783   4.630  0.1406 -0.0083  0.0475
 2716SOL     OW10629   0.868   3.553   4.399  0.1668  0.2510 -0.0652
 2716SOL    HW210630   0.881   3.464   4.366 -2.4251 -0.3196  0.2065
 2716SOL    HW310631   0.808   3.593   4.335  0.7092  1.5784  0.2130
 2716SOL    MW410632   0.862   3.547   4.386 -0.1036  0.3509  0.0073
 2717SOL     OW10633   5.901   0.884   5.704 -0.7584 -0.4454  0.1408
 2717SOL    HW210634   5.901   0.799   5.749 -0.1017 -1.0692 -0.9899
 2717SOL    HW310635   5.828   0.931   5.744 -1.1151 -1.5192  0.8281
 2717SOL    MW410636   5.891   0.879   5.715 -0.7188 -0.6694  0.0823
 2718SOL     OW10637   5.896   4.680   2.491  0.4258 -0.1751 -0.3362
 2718SOL    HW210638   5.897   4.622   2.415  0.6489  1.4707 -1.6290
 2718SOL    HW310639   5.803   4.702   2.503  0.3542 -0.6774  0.0854
 2718SOL    MW410640   5.884   4.675   2.483  0.4458 -0.0242 -0.4511
 2719SOL     OW10641   5.485   2.618   2.667  0.1219  0.0335 -0.1152
 2719SOL    HW210642   5.465   2.680   2.596 -1.1345  0.0352  0.2066
 2719SOL    HW310643   5.537   2.550   2.625 -1.3652 -0.4478 -1.2942
 2719SOL    MW410644   5.489   2.618   2.652 -0.2401 -0.0298 -0.2283
 2720SOL     OW10645   0.152   3.643   4.934  0.2608  0.3046  0.5892
 2720SOL    HW210646   0.150   3.556   4.973 -1.4938 -0.5801 -1.2700
 2720SOL    HW310647   0.136   3.702   5.007  0.1620 -1.0211  1.6927
 2720SOL    MW410648   0.149   3.639   4.948  0.0163  0.0130  0.4895
 2721SOL     OW10649   2.881   3.647   1.630  0.0600 -0.0281 -0.0654
 2721SOL    HW210650   2.814   3.640   1.698  0.0994 -0.4998 -0.0690
 2721SOL    HW310651   2.893   3.741   1.617 -1.0259  0.0627 -0.4870
 2721SOL    MW410652   2.874   3.659   1.637 -0.0781 -0.0783 -0.1215
 2722SOL     OW10653   0.175   1.976   0.685  0.1082 -0.5361 -0.0185
 2722SOL    HW210654   0.083   1.968   0.660  0.1718 -1.1801 -0.0630
 2722SOL    HW310655   0.205   1.886   0.697  0.7023 -0.3285  0.1138
 2722SOL    MW410656   0.167   1.963   0.683  0.1950 -0.5937 -0.0069
 2723SOL     OW10657   3.009   5.991   0.650 -0.0800  0.4571 -0.6590
 2723SOL    HW210658   3.082   5.958   0.598  1.1883  1.2208  0.5752
 2723SOL    HW310659   3.026   5.958   0.739 -1.5383  0.2021 -0.4312
 2723SOL    MW410660   3.021   5.982   0.655 -0.1051  0.5242 -0.4662
 2724SOL     OW10661   1.268   3.556   0.117 -0.0401  0.0191 -0.1361
 2724SOL    HW210662   1.278   3.546   0.212 -2.2159 -0.2233  0.1304
 2724SOL    HW310663   1.322   3.633   0.095 -0.5847  0.9379  1.5491
 2724SOL    MW410664   1.276   3.565   0.127 -0.3990  0.1084  0.1214
 2725SOL     OW10665   5.023   6.192   2.991 -0.0169 -0.9170 -0.5158
 2725SOL    HW210666   5.101   6.138   3.003  1.0244 -0.0416 -2.6600
 2725SOL    HW310667   5.037   6.267   3.049  0.5158 -1.0194 -0.5030
 2725SOL    MW410668   5.035   6.195   3.000  0.1908 -0.8150 -0.7970
 2726SOL     OW10669   2.594   0.231   1.950 -0.0530 -0.6464  0.0252
 2726SOL    HW210670   2.537   0.302   1.979 -0.1469 -0.4245 -0.6807
 2726SOL    HW310671   2.596   0.239   1.855 -0.3202 -1.7889 -0.0899
 2726SOL    MW410672   2.587   0.241   1.941 -0.1007 -0.7678 -0.0831
 2727SOL     OW10673   4.694   6.025   3.562 -0.1310  0.0168 -0.3817
 2727SOL    HW210674   4.729   5.967   3.494  0.1729 -1.2294  0.7933
 2727SOL    HW310675   4.686   6.110   3.519  0.3613 -0.6546 -1.8783
 2727SOL    MW410676   4.697   6.028   3.548 -0.0260 -0.2362 -0.4242
 2728SOL     OW10677   2.434   3.071   3.419  0.1747 -0.2738  1.1894
 2728SOL    HW210678   2.387   3.092   3.500 -1.5844 -2.4998  0.8296
 2728SOL    HW310679   2.366   3.052   3.355  1.5286  0.9039 -0.7429
 2728SOL    MW410680   2.419   3.072   3.421  0.1212 -0.4121  0.8870
 2729SOL     OW10681   3.119   4.855   2.421 -0.1869  0.8966 -0.7110
 2729SOL    HW210682   3.084   4.767   2.412  0.8785  0.3755  0.0547
 2729SOL    HW310683   3.126   4.887   2.331 -1.3449  0.5308 -0.9557
 2729SOL    MW410684   3.115   4.848   2.408 -0.1991  0.7796 -0.6423
 2730SOL     OW10685   1.940   1.510   5.948  0.3776 -0.0943  0.2574
 2730SOL    HW210686   1.908   1.433   5.902  1.0196  0.6772 -1.6201
 2730SOL    HW310687   1.987   1.560   5.880  0.2046  1.8027  1.4560
 2730SOL    MW410688   1.942   1.507   5.933  0.4395  0.2578  0.1679
 2731SOL     OW10689   2.931   5.779   2.973  0.4912 -0.6107  0.3342
 2731SOL    HW210690   2.994   5.820   2.913 -0.8946  1.0229 -0.0883
 2731SOL    HW310691   2.864   5.743   2.915 -1.4806  2.0003  0.7849
 2731SOL    MW410692   2.931   5.780   2.957  0.0482 -0.0507  0.3379
 2732SOL     OW10693   1.875   3.175   1.911 -0.3719 -0.1144 -0.6883
 2732SOL    HW210694   1.819   3.108   1.872 -0.7186 -0.5302  0.4838
 2732SOL    HW310695   1.844   3.182   2.002 -0.0354  1.2993 -0.6607
 2732SOL    MW410696   1.863   3.167   1.918 -0.3733  0.0173 -0.5300
 2733SOL     OW10697   3.583   4.514   5.879 -0.1618  0.2989  0.9758
 2733SOL    HW210698   3.644   4.544   5.947 -2.5996  1.0973  2.9439
 2733SOL    HW310699   3.588   4.582   5.812  1.8693 -0.2138  0.5245
 2733SOL    MW410700   3.592   4.527   5.879 -0.2154  0.3366  1.1759
 2734SOL     OW10701   6.164   5.541   5.872  0.2381  0.3026 -0.1282
 2734SOL    HW210702   6.164   5.467   5.932 -0.6306 -0.0322 -0.5283
 2734SOL    HW310703   6.100   5.518   5.804  0.5083  1.0819 -0.6713
 2734SOL    MW410704   6.156   5.528   5.871  0.1592  0.3612 -0.2527
 2735SOL     OW10705   5.455   0.787   1.583 -0.1325  0.0942 -0.2347
 2735SOL    HW210706   5.525   0.723   1.570  0.1497  0.7876 -2.7320
 2735SOL    HW310707   5.456   0.806   1.677  1.6987 -1.3767  0.0965
 2735SOL    MW410708   5.464   0.781   1.594  0.1463 -0.0084 -0.5205
 2736SOL     OW10709   0.748   4.387   3.774 -0.7155  0.1194  0.2740
 2736SOL    HW210710   0.669   4.333   3.773 -1.0412  0.4551  2.3403
 2736SOL    HW310711   0.808   4.340   3.832  0.1564  0.4650 -0.3292
 2736SOL    MW410712   0.745   4.373   3.782 -0.6434  0.2093  0.4670
 2737SOL     OW10713   5.875   5.674   4.669 -0.7592  0.0848  0.3842
 2737SOL    HW210714   5.784   5.699   4.685 -0.1402  1.1699  2.5633
 2737SOL    HW310715   5.892   5.603   4.730  0.1079  0.5233  0.6802
 2737SOL    MW410716   5.865   5.668   4.679 -0.5631  0.2858  0.7108
 2738SOL     OW10717   4.351   1.394   5.691 -0.0656 -0.2620 -0.2461
 2738SOL    HW210718   4.359   1.485   5.719 -0.9266 -0.3388  0.2810
 2738SOL    HW310719   4.373   1.343   5.769 -4.9133 -0.4878  1.2738
 2738SOL    MW410720   4.355   1.400   5.705 -0.8188 -0.3019  0.0240
 2739SOL     OW10721   0.740   0.761   1.320 -0.4404  0.2230  0.6200
 2739SOL    HW210722   0.733   0.839   1.265  1.4099 -0.6333 -0.9459
 2739SOL    HW310723   0.679   0.777   1.392 -1.1601  2.4677 -0.3956
 2739SOL    MW410724   0.731   0.773   1.322 -0.2913  0.4061  0.2794
 2740SOL     OW10725   1.992   0.341   5.500  0.2244  0.6744  0.0792
 2740SOL    HW210726   1.901   0.362   5.521  0.6502  0.9624  1.7719
 2740SOL    HW310727   1.988   0.256   5.456 -1.0782  1.9202 -2.4343
 2740SOL    MW410728   1.980   0.333   5.497  0.1087  0.8768 -0.0291
 2741SOL     OW10729   3.220   2.943   5.544 -0.2306 -0.2399  0.0137
 2741SOL    HW210730   3.312   2.916   5.537 -0.1411  0.4334 -1.8873
 2741SOL    HW310731   3.173   2.862   5.566  0.6031 -0.9510 -0.7624
 2741SOL    MW410732   3.226   2.929   5.546 -0.1088 -0.2449 -0.3395
 2742SOL     OW10733   2.429   6.241   2.954 -0.6445  0.1166  0.3397
 2742SOL    HW210734   2.336   6.248   2.972 -0.3773 -0.2693  2.0524
 2742SOL    HW310735   2.453   6.153   2.983  0.6756  1.0270  2.1819
 2742SOL    MW410736   2.420   6.230   2.960 -0.4351  0.1858  0.8088
 2743SOL     OW10737   3.955   4.442   4.833  0.1207 -0.2773 -0.0747
 2743SOL    HW210738   4.014   4.370   4.856  0.3037 -0.3023 -0.6222
 2743SOL    HW310739   3.920   4.418   4.748 -1.4240 -0.7326  0.6554
 2743SOL    MW410740   3.958   4.429   4.825 -0.0590 -0.3407 -0.0506
 2744SOL     OW10741   5.582   2.161   3.186 -0.5623  0.7727 -0.3868
 2744SOL    HW210742   5.616   2.213   3.260  1.2750  2.1882 -2.1036
 2744SOL    HW310743   5.527   2.223   3.137 -0.1910  0.4349 -1.2400
 2744SOL    MW410744   5.579   2.176   3.189 -0.2709  0.9149 -0.7259
 2745SOL     OW10745   4.647   5.165   1.058  0.6769 -0.4118  0.1069
 2745SOL    HW210746   4.552   5.166   1.045  0.6532  1.9593  0.0219
 2745SOL    HW310747   4.683   5.184   0.972  1.0517  1.9656  0.7219
 2745SOL    MW410748   4.639   5.168   1.045  0.7232  0.2147  0.1768
 2746SOL     OW10749   3.809   6.319   1.738  0.0770 -0.4311 -0.3986
 2746SOL    HW210750   3.749   6.250   1.709  1.2685 -0.1607 -4.1296
 2746SOL    HW310751   3.782   6.397   1.690  1.5657  0.4669  0.1314
 2746SOL    MW410752   3.798   6.320   1.727  0.4306 -0.2769 -0.8209
 2747SOL     OW10753   0.285   2.379   4.825  0.0458 -0.6892 -0.1949
 2747SOL    HW210754   0.194   2.349   4.828  0.3571 -1.6239  0.2819
 2747SOL    HW310755   0.331   2.311   4.776  0.4266 -0.0224 -0.7859
 2747SOL    MW410756   0.279   2.366   4.819  0.1371 -0.7246 -0.2100
 2748SOL     OW10757   4.078   3.053   0.413  0.0404 -0.5044 -0.2132
 2748SOL    HW210758   4.062   2.959   0.415  0.4247 -0.5680  0.1007
 2748SOL    HW310759   4.124   3.068   0.330  4.2298 -1.3410  1.7014
 2748SOL    MW410760   4.082   3.043   0.402  0.6438 -0.6232  0.0808
 2749SOL     OW10761   3.971   4.284   4.593  0.1394 -0.7991 -0.2279
 2749SOL    HW210762   4.019   4.207   4.624  0.0688 -0.7984 -0.1144
 2749SOL    HW310763   4.039   4.347   4.570  0.1891 -0.3017  1.1899
 2749SOL    MW410764   3.986   4.282   4.594  0.1366 -0.7334 -0.0259
 2750SOL     OW10765   4.870   3.684   1.848 -0.1485 -0.4605  0.1598
 2750SOL    HW210766   4.835   3.766   1.883 -0.9701  0.0236 -1.6481
 2750SOL    HW310767   4.964   3.698   1.843 -0.3202  0.5973 -0.5648
 2750SOL    MW410768   4.878   3.696   1.852 -0.2795 -0.2571 -0.1743
 2751SOL     OW10769   1.433   1.472   4.049 -0.4260 -0.2592  0.0890
 2751SOL    HW210770   1.511   1.453   4.102  0.7984  0.2852 -1.4236
 2751SOL    HW310771   1.403   1.557   4.081  0.5407  0.2547 -0.3024
 2751SOL    MW410772   1.439   1.481   4.060 -0.1369 -0.1196 -0.1622
 2752SOL     OW10773   2.136   2.868   2.188  0.5836 -0.5081 -0.2529
 2752SOL    HW210774   2.161   2.782   2.221 -1.4264 -1.5164 -1.1549
 2752SOL    HW310775   2.152   2.928   2.261  0.4784 -1.9239  0.9688
 2752SOL    MW410776   2.141   2.865   2.202  0.3045 -0.8280 -0.2107
 2753SOL     OW10777   2.702   5.867   5.578 -0.1202 -0.1367 -0.1817
 2753SOL    HW210778   2.617   5.834   5.606  0.2270 -2.6140 -1.7671
 2753SOL    HW310779   2.697   5.869   5.483  1.4519  0.1445 -0.2902
 2753SOL    MW410780   2.690   5.863   5.569  0.1330 -0.4265 -0.4052
 2754SOL     OW10781   4.484   4.482   2.487 -0.1096  0.4776  0.0423
 2754SOL    HW210782   4.556   4.457   2.545 -1.0717 -0.9378  0.6838
 2754SOL    HW310783   4.519   4.555   2.436  1.9355 -0.4722 -0.0197
 2754SOL    MW410784   4.498   4.488   2.488  0.0333  0.1656  0.1188
 2755SOL     OW10785   1.389   4.793   0.422 -0.0322 -0.0141 -0.1744
 2755SOL    HW210786   1.413   4.776   0.513  0.4552  0.3243 -0.2350
 2755SOL    HW310787   1.465   4.838   0.386  0.2520 -1.1410 -1.0492
 2755SOL    MW410788   1.402   4.797   0.429  0.0696 -0.1181 -0.2978
 2756SOL     OW10789   3.064   6.297   4.294  0.2650  0.5115 -0.1656
 2756SOL    HW210790   3.086   6.224   4.236 -0.6358  0.4279 -0.4108
 2756SOL    HW310791   3.139   6.303   4.354 -0.4028 -1.7541  1.0052
 2756SOL    MW410792   3.077   6.288   4.294  0.0581  0.2015 -0.0435
 2757SOL     OW10793   5.467   4.835   4.416 -0.4597 -0.2552  0.3712
 2757SOL    HW210794   5.542   4.783   4.389 -0.8262  0.4792 -2.3690
 2757SOL    HW310795   5.392   4.776   4.404 -0.7134  0.3488 -1.1444
 2757SOL    MW410796   5.467   4.820   4.411 -0.5415 -0.0786 -0.1903
 2758SOL     OW10797   0.104   2.748   2.506 -0.4435  0.3942  0.6157
 2758SOL    HW210798   0.032   2.797   2.547 -0.1895  1.9099 -0.6648
 2758SOL    HW310799   0.071   2.725   2.419 -0.4921 -1.6278  1.1348
 2758SOL    MW410800   0.090   2.752   2.500 -0.4164  0.3274  0.5153
 2759SOL     OW10801   3.335   0.941   2.690  0.4262 -0.0806  0.7758
 2759SOL    HW210802   3.312   0.986   2.609 -0.3751  0.0927  1.0856
 2759SOL    HW310803   3.341   1.011   2.756  1.0875 -0.2162  0.8740
 2759SOL    MW410804   3.333   0.957   2.688  0.4078 -0.0757  0.8296
 2760SOL     OW10805   2.691   3.866   2.606  0.2189 -0.0454 -0.4245
 2760SOL    HW210806   2.643   3.945   2.581  0.3014  0.4382  0.8795
 2760SOL    HW310807   2.772   3.898   2.647  0.2578 -0.7935  0.1159
 2760SOL    MW410808   2.695   3.881   2.608  0.2349 -0.0803 -0.1812
 2761SOL     OW10809   5.749   5.432   2.680 -0.1342  0.5456 -0.4936
 2761SOL    HW210810   5.808   5.450   2.753 -1.4532  0.9299  0.5124
 2761SOL    HW310811   5.706   5.516   2.662 -0.5656  0.2184 -1.0252
 2761SOL    MW410812   5.751   5.445   2.687 -0.3651  0.5531 -0.4310
 2762SOL     OW10813   5.212   1.969   1.807 -0.0558 -0.4572 -0.2104
 2762SOL    HW210814   5.176   1.881   1.794 -2.0072 -0.2303  2.7719
 2762SOL    HW310815   5.301   1.963   1.773  0.2701 -3.9549  0.8578
 2762SOL    MW410816   5.219   1.956   1.800 -0.2703 -0.8888  0.3240
 2763SOL     OW10817   2.447   0.093   3.642  0.1329  0.5056  0.4126
 2763SOL    HW210818   2.541   0.110   3.639  0.4061 -0.4225  2.1500
 2763SOL    HW310819   2.407   0.179   3.639  0.9741  0.8860 -1.1482
 2763SOL    MW410820   2.454   0.107   3.641  0.2799  0.4333  0.4359
 2764SOL     OW10821   5.656   0.966   6.341  0.3856 -0.2692  0.2710
 2764SOL    HW210822   5.613   0.972   6.255 -0.7193  0.1674  0.8330
 2764SOL    HW310823   5.725   1.032   6.338 -1.4085  1.7446  0.6568
 2764SOL    MW410824   5.660   0.976   6.329  0.0031  0.0541  0.3961
 2765SOL     OW10825   5.167   1.421   2.246  0.2805  0.1629  0.3260
 2765SOL    HW210826   5.112   1.434   2.323 -0.7201 -0.1539 -0.3180
 2765SOL    HW310827   5.143   1.492   2.187 -0.1767 -0.5635 -0.3738
 2765SOL    MW410828   5.157   1.432   2.249  0.0881  0.0252  0.1487
 2766SOL     OW10829   0.910   4.542   1.011  0.4780 -0.1060  0.3286
 2766SOL    HW210830   0.904   4.486   0.934 -1.9619 -0.8924  1.0110
 2766SOL    HW310831   0.928   4.629   0.975  1.0221 -0.7288 -0.9852
 2766SOL    MW410832   0.912   4.546   0.996  0.2279 -0.2920  0.2453
 2767SOL     OW10833   5.327   3.419   1.495 -0.3724 -0.0130 -0.3568
 2767SOL    HW210834   5.304   3.476   1.568 -1.4095  0.2139 -0.8471
 2767SOL    HW310835   5.248   3.368   1.478 -0.5675  0.8167 -2.1231
 2767SOL    MW410836   5.314   3.420   1.503 -0.5350  0.1264 -0.6545
 2768SOL     OW10837   5.231   3.126   2.387 -0.6958  0.8962 -0.1383
 2768SOL    HW210838   5.198   3.047   2.344 -0.5051 -1.1890  3.1489
 2768SOL    HW310839   5.325   3.127   2.367 -0.1263 -1.4004  1.8860
 2768SOL    MW410840   5.239   3.115   2.379 -0.5955  0.3181  0.5625
 2769SOL     OW10841   3.043   5.594   5.584  0.1841  0.5217  0.0999
 2769SOL    HW210842   3.087   5.575   5.501  0.7618  0.5187  0.4002
 2769SOL    HW310843   3.016   5.686   5.576 -0.7304  0.2115 -0.5153
 2769SOL    MW410844   3.045   5.604   5.572  0.1397  0.4804  0.0584
 2770SOL     OW10845   2.370   2.210   5.327 -0.1760  0.1399 -0.0407
 2770SOL    HW210846   2.371   2.134   5.385 -1.5990 -0.7025 -1.0504
 2770SOL    HW310847   2.284   2.250   5.341  0.0349  0.7707 -0.5139
 2770SOL    MW410848   2.359   2.205   5.336 -0.3359  0.1120 -0.2364
 2771SOL     OW10849   2.345   0.510   4.862  0.5260  0.1132  0.3878
 2771SOL    HW210850   2.358   0.493   4.769  1.0029  0.3390  0.4091
 2771SOL    HW310851   2.389   0.437   4.906 -0.6638 -0.5972  0.4242
 2771SOL    MW410852   2.353   0.499   4.856  0.4319  0.0493  0.3954
 2772SOL     OW10853   5.082   3.760   4.365  0.3086  0.4830 -0.3919
 2772SOL    HW210854   5.008   3.702   4.379 -0.6176  1.1827 -2.1195
 2772SOL    HW310855   5.158   3.702   4.358 -0.3999 -0.4084 -0.7685
 2772SOL    MW410856   5.083   3.745   4.366  0.0929  0.4577 -0.6695
 2773SOL     OW10857   0.779   1.033   3.616  0.5524 -0.4005 -0.0487
 2773SOL    HW210858   0.805   0.949   3.653 -0.0293 -0.9097 -0.7592
 2773SOL    HW310859   0.834   1.045   3.539 -0.2748 -0.7920 -0.7230
 2773SOL    MW410860   0.789   1.023   3.611  0.3665 -0.5193 -0.2314
 2774SOL     OW10861   5.031   1.312   4.501 -0.4510  0.1740 -0.2710
 2774SOL    HW210862   4.991   1.383   4.551  0.3517  0.0100  0.6268
 2774SOL    HW310863   5.005   1.329   4.410  1.3898  2.8318 -0.4256
 2774SOL    MW410864   5.022   1.324   4.495 -0.1023  0.5030 -0.1730
 2775SOL     OW10865   5.151   1.201   4.048 -0.1672  0.3462 -0.2856
 2775SOL    HW210866   5.077   1.239   4.094  0.6271  2.1919 -0.4419
 2775SOL    HW310867   5.221   1.196   4.113  0.0354  0.0494 -0.5185
 2775SOL    MW410868   5.151   1.205   4.063 -0.0356  0.5506 -0.3370
 2776SOL     OW10869   2.773   4.437   2.041 -0.0158 -0.2544  0.0436
 2776SOL    HW210870   2.725   4.460   2.120  0.9989  0.0691  0.5840
 2776SOL    HW310871   2.860   4.412   2.072  0.9214  1.4422 -1.0672
 2776SOL    MW410872   2.779   4.437   2.055  0.2417  0.0121 -0.0317
 2777SOL     OW10873   1.602   3.222   5.160 -0.5437 -0.1280 -0.1792
 2777SOL    HW210874   1.592   3.257   5.249 -1.2933  0.9216 -0.6582
 2777SOL    HW310875   1.513   3.214   5.127 -0.3027 -1.2230 -0.5792
 2777SOL    MW410876   1.589   3.226   5.168 -0.6108 -0.1340 -0.2952
 2778SOL     OW10877   3.833   3.922   1.663  0.0198  0.0156  0.0306
 2778SOL    HW210878   3.915   3.954   1.627 -0.0351  0.2178  0.0857
 2778SOL    HW310879   3.855   3.838   1.702  0.2305  0.1392  0.1752
 2778SOL    MW410880   3.847   3.915   1.663  0.0404  0.0586  0.0569
 2779SOL     OW10881   5.984   1.080   5.027 -0.2075 -0.7206 -0.4907
 2779SOL    HW210882   6.069   1.125   5.025 -1.0886  0.9999 -1.2941
 2779SOL    HW310883   5.995   1.005   4.969  1.2490 -1.4872  0.7132
 2779SOL    MW410884   5.997   1.076   5.019 -0.1316 -0.5947 -0.4379
 2780SOL     OW10885   6.169   5.168   1.137  0.4159  0.4836  0.1177
 2780SOL    HW210886   6.098   5.106   1.118  0.7211  0.3616 -0.6638
 2780SOL    HW310887   6.195   5.147   1.226  1.0207 -1.0636 -0.3742
 2780SOL    MW410888   6.163   5.157   1.146  0.5360  0.2633 -0.0503
 2781SOL     OW10889   0.586   2.420   3.703  0.2470 -0.5070 -0.2994
 2781SOL    HW210890   0.555   2.504   3.738  1.7066 -0.6056  1.3688
 2781SOL    HW310891   0.508   2.381   3.663 -0.5529  1.4587 -0.8040
 2781SOL    MW410892   0.571   2.426   3.703  0.3341 -0.2606 -0.1459
 2782SOL     OW10893   3.301   2.436   2.467  0.2251  0.2924 -0.7556
 2782SOL    HW210894   3.355   2.375   2.417  0.9900  0.1387  0.2338
 2782SOL    HW310895   3.348   2.449   2.549 -0.4756  1.3648 -0.4983
 2782SOL    MW410896   3.314   2.430   2.471  0.2335  0.4136 -0.5911
 2783SOL     OW10897   2.262   0.092   2.802  0.9055  0.1078  0.3356
 2783SOL    HW210898   2.228   0.093   2.891 -0.0528  1.5687 -0.0078
 2783SOL    HW310899   2.326   0.163   2.800 -0.1637  1.0712 -0.5152
 2783SOL    MW410900   2.266   0.101   2.813  0.6380  0.4276  0.1780
 2784SOL     OW10901   3.696   4.988   0.668  0.0058  0.0031  0.0160
 2784SOL    HW210902   3.674   4.895   0.667  1.1006 -0.2666 -1.2334
 2784SOL    HW310903   3.612   5.033   0.659 -0.5012 -0.8634  0.3392
 2784SOL    MW410904   3.682   4.982   0.667  0.0834 -0.1468 -0.1062
 2785SOL     OW10905   5.822   3.643   2.475  0.1626 -0.0330 -0.3803
 2785SOL    HW210906   5.730   3.667   2.467  0.1085  0.8337  1.9982
 2785SOL    HW310907   5.824   3.549   2.455 -1.0091  0.1591 -1.5665
 2785SOL    MW410908   5.810   3.634   2.471  0.0009  0.1067 -0.2230
 2786SOL     OW10909   3.080   0.730   3.127  0.9150 -0.6720  0.5397
 2786SOL    HW210910   3.156   0.708   3.073  1.2901  0.5425  0.5446
 2786SOL    HW310911   3.086   0.669   3.201  1.3734 -1.1843  0.0973
 2786SOL    MW410912   3.091   0.719   3.130  1.0250 -0.5794  0.4820
 2787SOL     OW10913   2.028   3.392   6.005 -0.3543  0.6527 -0.3343
 2787SOL    HW210914   1.947   3.374   6.053  0.7911  1.1205  1.8832
 2787SOL    HW310915   2.042   3.315   5.951 -1.0859 -0.4520  0.9936
 2787SOL    MW410916   2.019   3.380   6.004 -0.2997  0.5687  0.1335
 2788SOL     OW10917   0.689   1.393   2.093 -0.1378  0.4181  0.0954
 2788SOL    HW210918   0.629   1.408   2.166 -1.2043 -0.4906 -0.5551
 2788SOL    HW310919   0.774   1.378   2.135 -1.0052 -1.6532  1.3172
 2788SOL    MW410920   0.693   1.393   2.108 -0.3929  0.0249  0.1708
 2789SOL     OW10921   5.744   3.356   2.359 -0.0251  0.0437  0.1168
 2789SOL    HW210922   5.657   3.392   2.338 -0.0119 -0.9145 -1.7368
 2789SOL    HW310923   5.730   3.307   2.440 -1.1126  0.2438  0.0734
 2789SOL    MW410924   5.731   3.354   2.367 -0.1668 -0.0563 -0.1335
 2790SOL     OW10925   4.008   4.231   3.878 -0.2769 -0.3696 -0.2297
 2790SOL    HW210926   4.042   4.142   3.870  1.1851  0.1417 -0.0786
 2790SOL    HW310927   3.968   4.249   3.793 -0.9671 -1.2999 -0.1224
 2790SOL    MW410928   4.007   4.221   3.866 -0.1751 -0.4249 -0.1956
 2791SOL     OW10929   4.337   1.144   3.715  0.0338 -0.4508 -0.1142
 2791SOL    HW210930   4.298   1.142   3.802  0.5098  1.0088  0.1586
 2791SOL    HW310931   4.293   1.217   3.670  2.5129  1.4467  0.3015
 2791SOL    MW410932   4.326   1.153   3.720  0.4237 -0.0079 -0.0234
 2792SOL     OW10933   6.350   0.801   2.612 -0.1155 -0.0689  0.2992
 2792SOL    HW210934   6.332   0.850   2.693  2.8476  1.3648  0.2208
 2792SOL    HW310935   6.400   0.862   2.558  1.4357 -2.3096 -0.9636
 2792SOL    MW410936   6.354   0.816   2.616  0.4801 -0.1754  0.1222
 2793SOL     OW10937   5.297   6.156   5.962  0.7675  0.1602 -0.0455
 2793SOL    HW210938   5.203   6.157   5.980  1.1665 -0.8299  2.5175
 2793SOL    HW310939   5.303   6.154   5.866 -1.7956  0.0810 -0.2805
 2793SOL    MW410940   5.285   6.156   5.952  0.4820  0.0191  0.2616
 2794SOL     OW10941   2.791   6.126   4.015 -0.2915 -0.1745  0.3061
 2794SOL    HW210942   2.830   6.075   4.086  1.5658 -1.5941 -1.6177
 2794SOL    HW310943   2.709   6.080   3.995 -1.5397  1.0167  2.3092
 2794SOL    MW410944   2.785   6.113   4.021 -0.2111 -0.2047  0.3166
 2795SOL     OW10945   3.460   1.422   4.107 -0.1657  0.4224  0.1137
 2795SOL    HW210946   3.474   1.388   4.196  1.3955  2.3947  0.6966
 2795SOL    HW310947   3.528   1.380   4.055 -0.6633 -0.2269 -0.0282
 2795SOL    MW410948   3.471   1.412   4.112 -0.0254  0.5970  0.1718
 2796SOL     OW10949   4.787   2.049   6.195 -0.0365 -0.1545  0.0811
 2796SOL    HW210950   4.724   1.990   6.153 -1.4767  0.1165  1.7614
 2796SOL    HW310951   4.867   1.996   6.202 -0.3529 -0.8588 -1.1630
 2796SOL    MW410952   4.789   2.034   6.190 -0.2683 -0.2117  0.1386
 2797SOL     OW10953   2.660   4.556   2.273 -0.2375 -0.9216 -0.3367
 2797SOL    HW210954   2.618   4.606   2.203  0.2066  0.0404  0.0557
 2797SOL    HW310955   2.588   4.512   2.319 -0.4237 -2.7091 -2.2188
 2797SOL    MW410956   2.645   4.557   2.270 -0.2035 -1.0305 -0.5333
 2798SOL     OW10957   2.547   1.013   1.145  0.5601  0.6924 -0.5200
 2798SOL    HW210958   2.622   1.009   1.204  0.5698  2.1311 -0.3993
 2798SOL    HW310959   2.487   0.947   1.179  1.2700  0.3384  0.0860
 2798SOL    MW410960   2.549   1.003   1.157  0.6551  0.8355 -0.4241
 2799SOL     OW10961   5.951   2.473   4.256 -0.3733 -0.7262 -0.2228
 2799SOL    HW210962   5.871   2.430   4.288 -0.5165 -1.2347 -1.2368
 2799SOL    HW310963   6.000   2.404   4.212 -0.0295 -0.1164 -0.8229
 2799SOL    MW410964   5.947   2.458   4.255 -0.3469 -0.7128 -0.4358
 2800SOL     OW10965   6.021   4.509   3.592 -0.4705 -0.2116 -0.2944
 2800SOL    HW210966   6.017   4.600   3.565  1.1145  0.0079  0.0649
 2800SOL    HW310967   5.972   4.461   3.526 -0.7947  0.8335 -0.8209
 2800SOL    MW410968   6.014   4.514   3.580 -0.3042 -0.0447 -0.3165
 2801SOL     OW10969   3.617   1.619   0.604  0.3388  0.2858  0.9309
 2801SOL    HW210970   3.584   1.561   0.535  0.6766 -1.4938  2.2027
 2801SOL    HW310971   3.551   1.687   0.611 -0.1446  0.0093 -0.5191
 2801SOL    MW410972   3.604   1.620   0.596  0.3196  0.0145  0.9074
 2802SOL     OW10973   2.738   6.135   0.904 -0.6224 -0.4206 -0.2735
 2802SOL    HW210974   2.754   6.132   0.809 -0.9162 -0.1388 -0.3337
 2802SOL    HW310975   2.826   6.138   0.942 -0.3226  4.4582 -0.7305
 2802SOL    MW410976   2.752   6.135   0.896 -0.6216  0.2603 -0.3418
 2803SOL     OW10977   1.394   1.920   1.849  0.1588 -0.2302  0.2152
 2803SOL    HW210978   1.453   1.850   1.876  0.8464  0.1427 -0.2881
 2803SOL    HW310979   1.365   1.896   1.761  0.8951  0.4063 -0.2209
 2803SOL    MW410980   1.398   1.908   1.841  0.3467 -0.0971  0.0913
 2804SOL     OW10981   2.824   5.226   2.293 -0.3187  0.2319  0.6381
 2804SOL    HW210982   2.815   5.131   2.286 -0.6227  0.3104 -0.1305
 2804SOL    HW310983   2.822   5.243   2.387 -2.8432 -0.3016  0.7490
 2804SOL    MW410984   2.822   5.215   2.304 -0.6919  0.1719  0.5513
 2805SOL     OW10985   1.375   5.906   4.246  0.1093  0.0650 -0.4380
 2805SOL    HW210986   1.464   5.932   4.269  0.0882  0.0564 -0.3470
 2805SOL    HW310987   1.367   5.816   4.278  1.5167 -1.6035 -4.1547
 2805SOL    MW410988   1.385   5.898   4.253  0.2922 -0.1563 -0.9164
 2806SOL     OW10989   0.236   3.445   2.949 -0.1973  0.7725 -0.0422
 2806SOL    HW210990   0.255   3.378   2.884  1.3893  0.2218  0.9401
 2806SOL    HW310991   0.290   3.422   3.024 -2.1622  1.2100  1.6201
 2806SOL    MW410992   0.245   3.433   2.950 -0.2472  0.7576  0.3067
 2807SOL     OW10993   0.614   1.505   2.942 -0.6158 -0.0902 -0.3930
 2807SOL    HW210994   0.700   1.547   2.942 -1.2500  1.3543  1.1179
 2807SOL    HW310995   0.633   1.411   2.936  1.2172  0.0455  1.6981
 2807SOL    MW410996   0.628   1.498   2.941 -0.4577  0.1183  0.0823
 2808SOL     OW10997   2.246   2.040   4.904  0.2276  0.3638  0.2010
 2808SOL    HW210998   2.176   2.032   4.968  0.1059  1.3897  0.1985
 2808SOL    HW310999   2.260   1.950   4.874  0.7874 -0.2563  2.1613
 2808SOL    MW411000   2.238   2.027   4.908  0.2854  0.4174  0.4593
 2809SOL     OW11001   4.743   2.087   0.720  0.1402  0.1338 -0.6923
 2809SOL    HW211002   4.822   2.127   0.757  0.9118 -0.6093 -1.5008
 2809SOL    HW311003   4.734   2.127   0.633  0.2706 -0.6005 -1.0478
 2809SOL    MW411004   4.752   2.098   0.713  0.2592 -0.0611 -0.8459
 2810SOL     OW11005   1.446   4.422   2.310  0.0579 -0.2145  0.1261
 2810SOL    HW211006   1.539   4.409   2.290  0.3456 -0.3883  1.4873
 2810SOL    HW311007   1.438   4.400   2.403 -1.6989 -1.8896 -0.3802
 2810SOL    MW411008   1.457   4.418   2.320 -0.1360 -0.4585  0.2389
 2811SOL     OW11009   3.589   5.323   3.040  0.1233  0.4235 -0.3104
 2811SOL    HW211010   3.583   5.312   2.945 -1.1115  0.2053 -0.2203
 2811SOL    HW311011   3.682   5.334   3.057  0.2216  2.3373 -1.7481
 2811SOL    MW411012   3.600   5.323   3.030 -0.0267  0.6472 -0.4882
 2812SOL     OW11013   5.185   0.471   2.607 -0.7096  0.4528  0.0439
 2812SOL    HW211014   5.246   0.417   2.657 -0.3661  0.3759 -0.4579
 2812SOL    HW311015   5.136   0.519   2.674  0.6276  1.3131  0.4269
 2812SOL    MW411016   5.187   0.470   2.622 -0.4878  0.5561  0.0282
 2813SOL     OW11017   5.912   2.225   5.773  0.5069  0.2064 -0.1090
 2813SOL    HW211018   5.978   2.162   5.746  1.2281  1.2528 -0.8635
 2813SOL    HW311019   5.844   2.218   5.706 -0.5073 -1.3352  1.0159
 2813SOL    MW411020   5.912   2.216   5.760  0.4683  0.1410 -0.0602
 2814SOL     OW11021   4.157   5.238   3.567 -0.1404 -0.8986  0.2211
 2814SOL    HW211022   4.250   5.226   3.582 -0.2351 -1.4211  0.4130
 2814SOL    HW311023   4.127   5.156   3.527 -0.5835 -0.8791  0.4991
 2814SOL    MW411024   4.165   5.226   3.564 -0.2114 -0.9650  0.2831
 2815SOL     OW11025   0.558   6.037   3.827 -0.4037  0.1830  0.5124
 2815SOL    HW211026   0.509   6.047   3.745 -0.9130 -0.1188  0.7735
 2815SOL    HW311027   0.648   6.061   3.805 -0.5556  0.1823 -0.1153
 2815SOL    MW411028   0.563   6.042   3.813 -0.4909  0.1431  0.4640
 2816SOL     OW11029   0.479   2.054   0.608 -0.3271  0.4920 -0.0958
 2816SOL    HW211030   0.513   2.111   0.540 -0.2176  1.8109  1.0271
 2816SOL    HW311031   0.557   2.018   0.651 -0.3910 -0.8566 -1.0465
 2816SOL    MW411032   0.494   2.057   0.605 -0.3211  0.4881 -0.0731
 2817SOL     OW11033   4.321   2.810   0.269  0.1804 -0.3941 -0.3318
 2817SOL    HW211034   4.282   2.824   0.183 -1.3383  0.0605  0.3936
 2817SOL    HW311035   4.380   2.885   0.281 -0.3373  0.0624 -0.5821
 2817SOL    MW411036   4.324   2.822   0.259 -0.0883 -0.2739 -0.2691
 2818SOL     OW11037   0.454   3.005   2.003 -0.0709 -0.1892 -0.0389
 2818SOL    HW211038   0.437   2.938   1.936 -0.3217  0.5643 -0.7380
 2818SOL    HW311039   0.403   2.976   2.078 -1.8062  0.2458 -0.9883
 2818SOL    MW411040   0.445   2.992   2.004 -0.3329 -0.0324 -0.2564
 2819SOL     OW11041   1.711   3.168   1.505 -0.1106 -0.1537 -0.0686
 2819SOL    HW211042   1.788   3.114   1.521  0.6184  1.4162  2.1573
 2819SOL    HW311043   1.745   3.248   1.467 -0.4977  0.8133  1.5173
 2819SOL    MW411044   1.725   3.171   1.502 -0.0655  0.1810  0.4343
 2820SOL     OW11045   3.888   2.497   2.485  0.2100  0.7560 -0.1971
 2820SOL    HW211046   3.903   2.418   2.536  1.0773  1.0914  0.0808
 2820SOL    HW311047   3.900   2.569   2.547  1.6083  1.1785 -0.9162
 2820SOL    MW411048   3.892   2.496   2.500  0.5089  0.8560 -0.2553
 2821SOL     OW11049   2.070   5.378   1.253  0.3081  0.7403  0.0398
 2821SOL    HW211050   1.986   5.386   1.300  0.5069  1.4507  0.2985
 2821SOL    HW311051   2.132   5.423   1.310  0.9678 -0.2128  0.0860
 2821SOL    MW411052   2.067   5.385   1.267  0.4214  0.7083  0.0800
 2822SOL     OW11053   3.476   0.488   6.111 -0.0716 -0.2863  0.0495
 2822SOL    HW211054   3.516   0.416   6.062 -2.0888 -1.3343 -0.1520
 2822SOL    HW311055   3.550   0.545   6.134  1.4248 -1.7720 -0.8356
 2822SOL    MW411056   3.491   0.486   6.108 -0.1403 -0.6206 -0.0938
 2823SOL     OW11057   3.279   4.447   2.690 -0.2048  1.1395  0.4720
 2823SOL    HW211058   3.275   4.533   2.649 -1.9063  1.5429  1.3709
 2823SOL    HW311059   3.213   4.450   2.759 -0.1015 -0.7935  0.7279
 2823SOL    MW411060   3.270   4.458   2.694 -0.4157  0.9377  0.6244
 2824SOL     OW11061   1.729   3.477   3.486  0.3316  0.3851 -0.0319
 2824SOL    HW211062   1.650   3.530   3.497 -0.4983 -0.9904  1.0928
 2824SOL    HW311063   1.704   3.410   3.422  0.2128 -0.6390  1.0333
 2824SOL    MW411064   1.715   3.475   3.479  0.2064  0.0685  0.2571
 2825SOL     OW11065   2.562   5.731   1.775 -0.1098 -0.5116 -0.2369
 2825SOL    HW211066   2.617   5.673   1.827 -0.6407 -0.0710  0.8498
 2825SOL    HW311067   2.537   5.801   1.835  0.3483  0.7479 -1.4639
 2825SOL    MW411068   2.566   5.732   1.790 -0.1194 -0.2873 -0.2554
 2826SOL     OW11069   4.998   4.504   4.226 -0.2581 -0.3675  0.0162
 2826SOL    HW211070   4.986   4.421   4.182 -1.5603  0.7191 -1.7965
 2826SOL    HW311071   4.914   4.522   4.268  0.2621 -0.3137  1.0716
 2826SOL    MW411072   4.985   4.496   4.226 -0.3613 -0.2170 -0.0838
 2827SOL     OW11073   3.380   4.583   3.056  0.0156 -0.7082  0.6731
 2827SOL    HW211074   3.332   4.580   3.139  1.1274  1.5656  1.4923
 2827SOL    HW311075   3.433   4.662   3.063 -0.4956  0.0469 -2.5870
 2827SOL    MW411076   3.381   4.593   3.068  0.0949 -0.3086  0.3510
 2828SOL     OW11077   2.925   2.468   4.075 -0.2336  0.4678 -0.2157
 2828SOL    HW211078   2.909   2.469   4.169  1.0455 -0.1932  0.0409
 2828SOL    HW311079   2.884   2.387   4.044  0.3440  0.0972 -0.0193
 2828SOL    MW411080   2.918   2.457   4.083  0.0114  0.3317 -0.1560
 2829SOL     OW11081   5.462   0.846   2.930  0.0983 -0.7074 -0.3464
 2829SOL    HW211082   5.384   0.900   2.920  0.8177  0.0194 -2.7530
 2829SOL    HW311083   5.429   0.757   2.939 -1.0207 -0.2804 -0.1081
 2829SOL    MW411084   5.447   0.842   2.930  0.0456 -0.5552 -0.6325
 2830SOL     OW11085   3.275   2.143   5.168  0.1210 -0.1745 -0.2603
 2830SOL    HW211086   3.242   2.187   5.089 -0.8656 -0.6797 -0.1415
 2830SOL    HW311087   3.296   2.054   5.139  1.2487  0.0871 -0.2938
 2830SOL    MW411088   3.273   2.137   5.154  0.1396 -0.2066 -0.2490
 2831SOL     OW11089   0.060   2.132   0.895 -0.1199 -0.1373 -0.4879
 2831SOL    HW211090   0.111   2.209   0.923  0.2941 -0.6177  0.1235
 2831SOL    HW311091   0.119   2.084   0.837  1.0812 -1.8770  1.9642
 2831SOL    MW411092   0.075   2.136   0.891  0.0932 -0.4302 -0.0837
 2832SOL     OW11093   1.854   3.045   3.570 -0.0884 -0.3872 -0.3484
 2832SOL    HW211094   1.883   2.954   3.583 -2.3507 -1.2457 -0.9796
 2832SOL    HW311095   1.833   3.076   3.658 -1.3196 -1.2218 -0.3274
 2832SOL    MW411096   1.855   3.037   3.584 -0.5494 -0.6105 -0.4289
 2833SOL     OW11097   4.417   4.704   0.408  0.4074  0.6909 -0.2807
 2833SOL    HW211098   4.492   4.764   0.407  1.1881 -0.1901  1.3078
 2833SOL    HW311099   4.440   4.639   0.475 -3.0358  2.0822  2.5691
 2833SOL    MW411100   4.430   4.703   0.417  0.0561  0.7582  0.3049
 2834SOL     OW11101   2.628   5.295   3.169  0.2171  0.1827  0.2235
 2834SOL    HW211102   2.686   5.233   3.214  1.8549  2.1331  0.9568
 2834SOL    HW311103   2.610   5.362   3.234 -2.3603  0.0202 -0.2275
 2834SOL    MW411104   2.633   5.295   3.184  0.0932  0.4186  0.2608
 2835SOL     OW11105   6.169   1.628   3.136 -0.1238 -0.1896 -0.0099
 2835SOL    HW211106   6.248   1.576   3.115  0.0843 -0.1244  0.6124
 2835SOL    HW311107   6.203   1.714   3.160 -0.5080  0.5421 -1.8645
 2835SOL    MW411108   6.184   1.632   3.136 -0.1470 -0.0845 -0.1725
 2836SOL     OW11109   5.033   2.663   3.360  0.3675 -0.0189  0.2214
 2836SOL    HW211110   4.960   2.672   3.421 -0.4360  1.2031 -0.8580
 2836SOL    HW311111   5.108   2.700   3.406 -0.0708  0.2201  0.7543
 2836SOL    MW411112   5.033   2.669   3.374  0.2037  0.1738  0.1493
 2837SOL     OW11113   1.276   3.029   3.237 -0.1828 -0.7493 -0.0435
 2837SOL    HW211114   1.197   3.044   3.185  0.5424 -1.5436 -1.4538
 2837SOL    HW311115   1.264   3.081   3.316 -1.1772  0.8203 -1.1688
 2837SOL    MW411116   1.264   3.038   3.241 -0.2183 -0.6470 -0.3780
 2838SOL     OW11117   0.273   1.584   2.889  0.0048 -0.5040  0.3499
 2838SOL    HW211118   0.342   1.650   2.894  1.8382 -2.2844  0.2242
 2838SOL    HW311119   0.196   1.626   2.927  0.9475  1.8113 -0.1396
 2838SOL    MW411120   0.272   1.598   2.895  0.3711 -0.4334  0.2687
 2839SOL     OW11121   5.889   4.333   4.517  0.2021  0.2139  0.7045
 2839SOL    HW211122   5.919   4.266   4.579 -0.1454  0.7785  1.4884
 2839SOL    HW311123   5.796   4.344   4.535 -0.4917 -1.2878 -1.5047
 2839SOL    MW411124   5.881   4.326   4.527  0.0647  0.0903  0.5164
 2840SOL     OW11125   2.860   3.495   5.589  0.4774 -0.3038  0.1671
 2840SOL    HW211126   2.792   3.521   5.526  0.6839  0.6799  0.3415
 2840SOL    HW311127   2.941   3.493   5.539  0.4333 -0.8205  0.1106
 2840SOL    MW411128   2.861   3.498   5.574  0.4988 -0.2422  0.1826
 2841SOL     OW11129   3.054   4.096   5.915 -0.0196 -0.0899  0.2452
 2841SOL    HW211130   3.093   4.132   5.994  2.7524 -1.3893 -0.3973
 2841SOL    HW311131   3.043   4.171   5.857  0.8072  0.4614  0.7792
 2841SOL    MW411132   3.058   4.111   5.917  0.4552 -0.1886  0.2309
 2842SOL     OW11133   1.004   2.165   1.817 -0.5038 -0.2296  0.4040
 2842SOL    HW211134   1.068   2.112   1.770 -1.4483  1.3657 -3.0354
 2842SOL    HW311135   1.053   2.241   1.849 -0.2118 -0.3067  0.1373
 2842SOL    MW411136   1.019   2.168   1.815 -0.5899 -0.0293 -0.0850
 2843SOL     OW11137   6.090   2.379   0.922  0.1844 -0.8783 -0.0990
 2843SOL    HW211138   6.089   2.310   0.988 -0.0259 -0.5737  0.2224
 2843SOL    HW311139   6.036   2.449   0.960 -1.5309 -1.4365 -1.3884
 2843SOL    MW411140   6.083   2.379   0.936 -0.0697 -0.9118 -0.2267
 2844SOL     OW11141   4.468   0.475   0.987 -0.5458  0.2038  0.3126
 2844SOL    HW211142   4.398   0.433   1.037  0.1543 -2.0689 -0.5047
 2844SOL    HW311143   4.425   0.546   0.939 -2.3314 -1.2610 -0.3330
 2844SOL    MW411144   4.453   0.479   0.987 -0.6890 -0.2893  0.1196
 2845SOL     OW11145   6.003   6.024   2.492 -0.5677 -0.5198 -0.1213
 2845SOL    HW211146   5.971   5.964   2.560  1.5152 -1.2561  0.3136
 2845SOL    HW311147   5.938   6.019   2.423 -1.5566 -1.6037  0.8378
 2845SOL    MW411148   5.990   6.015   2.492 -0.4233 -0.7599  0.0626
 2846SOL     OW11149   1.301   1.750   3.711  0.0291  0.4726  0.3213
 2846SOL    HW211150   1.344   1.666   3.726 -0.1303  0.3230 -0.0460
 2846SOL    HW311151   1.323   1.772   3.620  1.8216  1.8362  1.0201
 2846SOL    MW411152   1.310   1.742   3.701  0.2446  0.6328  0.3650
 2847SOL     OW11153   0.716   0.483   4.547 -0.1626 -0.4000 -0.1852
 2847SOL    HW211154   0.675   0.459   4.464 -2.5116  0.2194  0.7251
 2847SOL    HW311155   0.797   0.432   4.549 -1.8671 -3.3844 -1.1660
 2847SOL    MW411156   0.721   0.473   4.536 -0.6974 -0.7120 -0.1945
 2848SOL     OW11157   4.741   2.451   2.428  0.0115 -0.5315  0.3359
 2848SOL    HW211158   4.786   2.515   2.484  0.2819 -0.5409  0.1326
 2848SOL    HW311159   4.732   2.495   2.344 -0.9978 -0.2663  0.5668
 2848SOL    MW411160   4.746   2.465   2.425 -0.0859 -0.4977  0.3395
 2849SOL     OW11161   5.416   6.180   0.156  0.2015  0.0140  0.2564
 2849SOL    HW211162   5.498   6.166   0.205 -0.6140 -0.0572  1.6513
 2849SOL    HW311163   5.416   6.274   0.136 -0.0461  0.2951  1.5191
 2849SOL    MW411164   5.427   6.191   0.160  0.0612  0.0417  0.6070
 2850SOL     OW11165   1.141   0.257   1.006 -0.1309 -0.0696 -0.2253
 2850SOL    HW211166   1.170   0.327   1.064 -1.0324 -0.4343  0.6991
 2850SOL    HW311167   1.047   0.248   1.023  0.1588 -2.3246  0.6571
 2850SOL    MW411168   1.133   0.265   1.016 -0.2116 -0.4153  0.0131
 2851SOL     OW11169   1.379   0.704   1.399 -0.0530  0.1761 -0.0585
 2851SOL    HW211170   1.456   0.736   1.351 -1.2191 -1.5616 -3.4576
 2851SOL    HW311171   1.321   0.780   1.405 -0.2413  0.3067 -2.4408
 2851SOL    MW411172   1.382   0.718   1.393 -0.2317 -0.0359 -0.8213
 2852SOL     OW11173   0.424   3.589   3.511 -0.2783 -0.1487  0.3815
 2852SOL    HW211174   0.415   3.673   3.556 -0.2936  0.3284 -0.4765
 2852SOL    HW311175   0.378   3.602   3.428  0.8182 -0.5710 -0.3121
 2852SOL    MW411176   0.417   3.602   3.506 -0.1357 -0.1415  0.1768
 2853SOL     OW11177   0.699   1.784   0.621 -0.7459  0.2739 -0.4390
 2853SOL    HW211178   0.639   1.717   0.655 -0.2806  0.0239 -0.0937
 2853SOL    HW311179   0.785   1.742   0.622 -0.3095  1.1214  0.5297
 2853SOL    MW411180   0.702   1.770   0.626 -0.6269  0.3527 -0.2657
 2854SOL     OW11181   5.646   3.930   0.574  0.4414 -0.2215 -0.7662
 2854SOL    HW211182   5.679   3.861   0.517  0.6109  0.7062 -1.8257
 2854SOL    HW311183   5.552   3.913   0.581  0.4167 -0.3236 -1.3374
 2854SOL    MW411184   5.638   3.919   0.568  0.4605 -0.1126 -0.9813
 2855SOL     OW11185   0.742   4.330   1.705  0.3568 -0.6293 -0.0913
 2855SOL    HW211186   0.672   4.342   1.770  0.4362 -0.5569 -0.0197
 2855SOL    HW311187   0.811   4.284   1.753  0.9806  0.6211  0.2618
 2855SOL    MW411188   0.742   4.326   1.720  0.4496 -0.4548 -0.0353
 2856SOL     OW11189   3.799   3.677   6.392 -0.0524 -0.6269  0.7237
 2856SOL    HW211190   3.843   3.755   6.427 -0.3717  0.6935 -1.6048
 2856SOL    HW311191   3.706   3.699   6.394 -0.0875 -0.5828 -0.7198
 2856SOL    MW411192   3.793   3.690   6.397 -0.0992 -0.4468  0.2261
 2857SOL     OW11193   0.862   6.348   2.940 -0.2163 -0.1414  0.3744
 2857SOL    HW211194   0.825   6.326   3.026  1.6155  0.0507  1.2634
 2857SOL    HW311195   0.847   6.442   2.931  0.0109 -0.0710  0.7092
 2857SOL    MW411196   0.855   6.357   2.950  0.0554 -0.1068  0.5358
 2858SOL     OW11197   5.637   4.243   3.510 -0.1896 -0.2221 -0.0653
 2858SOL    HW211198   5.667   4.177   3.573  0.7908 -0.6064 -0.9074
 2858SOL    HW311199   5.620   4.193   3.430 -0.4415  0.4042 -0.4042
 2858SOL    MW411200   5.639   4.227   3.508 -0.0935 -0.1902 -0.2211
 2859SOL     OW11201   3.314   1.869   5.153  0.1251  0.6316 -0.0051
 2859SOL    HW211202   3.406   1.845   5.158  0.2497  1.3333  1.6002
 2859SOL    HW311203   3.282   1.861   5.243 -1.8949 -1.4370 -0.8054
 2859SOL    MW411204   3.322   1.865   5.165 -0.1249  0.4513  0.1011
 2860SOL     OW11205   5.834   3.856   2.907  0.1298 -0.3151 -0.2309
 2860SOL    HW211206   5.927   3.876   2.916  0.2359 -0.6753 -0.5354
 2860SOL    HW311207   5.813   3.880   2.817 -0.3164  0.7378  0.1269
 2860SOL    MW411208   5.843   3.862   2.897  0.0849 -0.2237 -0.2239
 2861SOL     OW11209   4.763   1.487   5.811  0.2099 -0.0102 -0.1585
 2861SOL    HW211210   4.714   1.406   5.806  0.0382  0.1026 -5.3032
 2861SOL    HW311211   4.848   1.462   5.848 -1.0974 -1.5845  2.0369
 2861SOL    MW411212   4.768   1.473   5.816  0.0148 -0.2031 -0.5476
 2862SOL     OW11213   4.470   4.936   3.582 -0.1085 -0.1837  0.2427
 2862SOL    HW211214   4.553   4.982   3.570 -0.9277  1.9798  2.1486
 2862SOL    HW311215   4.484   4.850   3.544  2.5460  0.5941 -0.7056
 2862SOL    MW411216   4.482   4.931   3.575  0.1337  0.2043  0.3691
 2863SOL     OW11217   3.616   2.546   5.160  0.2300  0.1930 -0.3959
 2863SOL    HW211218   3.607   2.599   5.240 -1.0057  0.2095 -0.5203
 2863SOL    HW311219   3.532   2.558   5.115  1.0198  0.4383 -1.8586
 2863SOL    MW411220   3.603   2.555   5.165  0.1712  0.2276 -0.6053
 2864SOL     OW11221   0.014   3.681   1.790  0.7665  0.2586  0.3212
 2864SOL    HW211222  -0.079   3.672   1.769  0.6155  0.6912  0.7781
 2864SOL    HW311223   0.058   3.683   1.705  0.5158 -1.4123  0.1225
 2864SOL    MW411224   0.008   3.680   1.776  0.7135  0.0953  0.3553
 2865SOL     OW11225   1.878   6.452   3.352 -0.8042  0.0180  0.0220
 2865SOL    HW211226   1.835   6.511   3.290 -0.2290  0.8678  0.3962
 2865SOL    HW311227   1.815   6.443   3.424 -2.0956 -2.1438 -1.2727
 2865SOL    MW411228   1.864   6.459   3.353 -0.8987 -0.1551 -0.0995
 2866SOL     OW11229   3.965   3.488   2.965  0.7175 -0.2580 -0.5814
 2866SOL    HW211230   4.003   3.574   2.986  0.4096 -0.1976 -0.2517
 2866SOL    HW311231   3.962   3.486   2.869  1.0414 -0.0422 -0.5985
 2866SOL    MW411232   3.970   3.499   2.955  0.7196 -0.2216 -0.5402
 2867SOL     OW11233   5.216   4.726   4.341  0.6378 -0.6055  0.0843
 2867SOL    HW211234   5.170   4.650   4.305 -0.3679 -1.2529  2.5775
 2867SOL    HW311235   5.148   4.792   4.352  1.2658  0.2245 -0.7900
 2867SOL    MW411236   5.201   4.725   4.338  0.5880 -0.5814  0.2979
 2868SOL     OW11237   5.642   1.884   4.241  0.1641  0.4845 -0.4716
 2868SOL    HW211238   5.640   1.967   4.288 -2.6942 -0.7557  1.9601
 2868SOL    HW311239   5.719   1.839   4.276 -0.5736  0.5467  1.3554
 2868SOL    MW411240   5.652   1.889   4.252 -0.3103  0.3291  0.0903
 2869SOL     OW11241   3.101   1.870   3.584  0.3288 -0.5172 -0.6752
 2869SOL    HW211242   3.014   1.897   3.616  0.9943  0.5836  0.2822
 2869SOL    HW311243   3.161   1.896   3.654  1.6095  0.1391 -1.9719
 2869SOL    MW411244   3.097   1.877   3.597  0.5856 -0.2854 -0.7200
 2870SOL     OW11245   5.302   3.471   3.830 -0.0308  0.1382  0.3208
 2870SOL    HW211246   5.255   3.515   3.901  2.4637 -2.1180  3.6810
 2870SOL    HW311247   5.325   3.385   3.866  1.9018 -0.9494 -3.0653
 2870SOL    MW411248   5.299   3.465   3.844  0.5533 -0.3030  0.3174
 2871SOL     OW11249   6.012   1.651   3.657 -0.1859 -0.1496 -0.0809
 2871SOL    HW211250   5.958   1.655   3.736 -1.2005 -0.1381 -0.7529
 2871SOL    HW311251   5.962   1.596   3.597  0.1892  0.4783 -0.9976
 2871SOL    MW411252   5.998   1.644   3.659 -0.2703 -0.0652 -0.2905
 2872SOL     OW11253   2.035   1.985   6.449  0.4541  0.0361 -0.0777
 2872SOL    HW211254   2.127   1.963   6.433  0.7146  1.0151  0.0192
 2872SOL    HW311255   2.036   2.078   6.471 -0.4269 -0.2049  1.0592
 2872SOL    MW411256   2.048   1.994   6.450  0.3722  0.1335  0.0851
 2873SOL     OW11257   2.101   2.556   1.517  0.0590 -0.0593  0.0451
 2873SOL    HW211258   2.030   2.611   1.485  0.4108 -0.1346 -0.9217
 2873SOL    HW311259   2.064   2.468   1.522  0.1443 -0.1510 -0.7380
 2873SOL    MW411260   2.087   2.552   1.513  0.1167 -0.0813 -0.1858
 2874SOL     OW11261   1.101   0.768   3.634  0.1408  0.5107  0.3511
 2874SOL    HW211262   1.009   0.743   3.644  0.3189 -0.5791 -0.4899
 2874SOL    HW311263   1.134   0.710   3.566  1.3874  1.0878  0.4324
 2874SOL    MW411264   1.094   0.757   3.626  0.3288  0.4430  0.2509
 2875SOL     OW11265   1.452   5.333   2.425  0.4090  0.1581 -1.1336
 2875SOL    HW211266   1.465   5.239   2.412  2.7806  0.2797 -0.1939
 2875SOL    HW311267   1.467   5.372   2.339  2.2321 -0.1341 -0.9819
 2875SOL    MW411268   1.456   5.326   2.412  0.9625  0.1356 -0.9896
 2876SOL     OW11269   0.419   2.023   4.524 -0.2447  0.2551  0.3543
 2876SOL    HW211270   0.337   1.993   4.484  0.8197  0.2694 -2.0620
 2876SOL    HW311271   0.445   1.952   4.582 -0.3388 -1.3189 -1.4157
 2876SOL    MW411272   0.412   2.010   4.526 -0.1167  0.0493 -0.1980
 2877SOL     OW11273   1.552   0.945   3.949  0.1100 -0.1449  0.0556
 2877SOL    HW211274   1.644   0.930   3.973  0.3852  1.8857  0.4537
 2877SOL    HW311275   1.545   0.912   3.859  1.9250  1.8424 -0.9101
 2877SOL    MW411276   1.563   0.939   3.940  0.3858  0.3852 -0.0193
 2878SOL     OW11277   1.449   2.428   2.393 -0.1082  0.1520 -0.3500
 2878SOL    HW211278   1.542   2.409   2.405 -0.2939 -1.1066 -0.7733
 2878SOL    HW311279   1.429   2.496   2.457  1.1768  0.6810 -0.4926
 2878SOL    MW411280   1.458   2.435   2.403  0.0368  0.0557 -0.4246
 2879SOL     OW11281   4.202   6.450   5.341  0.3049  0.5753  0.4087
 2879SOL    HW211282   4.139   6.445   5.269 -0.1360  2.1860  0.6207
 2879SOL    HW311283   4.284   6.417   5.305 -0.1495  0.4548 -0.5398
 2879SOL    MW411284   4.204   6.445   5.327  0.1868  0.7719  0.3115
 2880SOL     OW11285   2.853   4.680   2.692 -0.1224 -0.5426  0.1698
 2880SOL    HW211286   2.939   4.692   2.732 -0.7536 -0.5194  1.5888
 2880SOL    HW311287   2.836   4.761   2.644  1.4965 -1.3331 -1.8899
 2880SOL    MW411288   2.862   4.692   2.691  0.0079 -0.6439  0.0853
 2881SOL     OW11289   0.134   5.484   2.508  0.1296 -0.3953  0.1166
 2881SOL    HW211290   0.188   5.432   2.568 -0.6921 -0.6352  0.6603
 2881SOL    HW311291   0.129   5.570   2.551  1.4722  0.1724 -0.7704
 2881SOL    MW411292   0.141   5.489   2.522  0.1983 -0.3521  0.0713
 2882SOL     OW11293   0.402   6.165   6.356  0.0389  0.2337  0.3015
 2882SOL    HW211294   0.430   6.133   6.442 -0.7360 -0.2113  0.4034
 2882SOL    HW311295   0.476   6.215   6.323  0.6451 -0.2629  0.8846
 2882SOL    MW411296   0.415   6.167   6.363  0.0167  0.1094  0.3919
 2883SOL     OW11297   0.312   6.317   2.693 -0.5932  0.4638 -0.2331
 2883SOL    HW211298   0.366   6.238   2.695 -2.9171 -1.2301 -0.3713
 2883SOL    HW311299   0.340   6.363   2.614  1.2397  0.1607  0.1928
 2883SOL    MW411300   0.323   6.313   2.683 -0.6580  0.2003 -0.1951
 2884SOL     OW11301   3.801   2.001   5.543 -0.2516 -0.1333  0.8858
 2884SOL    HW211302   3.864   2.070   5.565 -0.8491  0.9941 -0.6925
 2884SOL    HW311303   3.774   2.022   5.453  0.9798 -3.5457 -0.4560
 2884SOL    MW411304   3.806   2.013   5.534 -0.1680 -0.4348  0.5005
 2885SOL     OW11305   0.315   5.915   3.461  0.7012 -0.2060  0.1074
 2885SOL    HW211306   0.375   5.898   3.388  1.5922  0.9008  0.5537
 2885SOL    HW311307   0.272   5.831   3.477  2.9366 -1.3637  0.4731
 2885SOL    MW411308   0.317   5.902   3.454  1.1137 -0.2127  0.2145
 2886SOL     OW11309   1.149   0.899   2.950 -0.2331  0.2950  0.3919
 2886SOL    HW211310   1.227   0.876   2.900 -0.6536 -1.0183  0.3104
 2886SOL    HW311311   1.142   0.832   3.018 -1.4613  0.1949  0.2042
 2886SOL    MW411312   1.158   0.887   2.953 -0.4506  0.1085  0.3564
 2887SOL     OW11313   1.355   3.604   0.717  0.3139 -0.5382  0.5161
 2887SOL    HW211314   1.304   3.601   0.797  0.1083  1.2233  0.4747
 2887SOL    HW311315   1.343   3.517   0.678 -0.6998 -0.9501  1.6897
 2887SOL    MW411316   1.347   3.592   0.722  0.1530 -0.3601  0.6655
 2888SOL     OW11317   1.745   3.946   4.514  0.0267 -0.0804  0.1408
 2888SOL    HW211318   1.800   3.965   4.438 -1.3328  0.0703 -0.8534
 2888SOL    HW311319   1.680   4.016   4.515 -0.8971 -0.9116  0.5414
 2888SOL    MW411320   1.744   3.958   4.504 -0.2746 -0.1702  0.0624
 2889SOL     OW11321   3.925   3.375   1.571  0.3581 -0.3600 -0.4473
 2889SOL    HW211322   3.991   3.443   1.562  1.6516 -1.2321  1.8382
 2889SOL    HW311323   3.843   3.418   1.545  1.3763  1.5549 -0.6533
 2889SOL    MW411324   3.923   3.389   1.566  0.6631 -0.2224 -0.1729
 2890SOL     OW11325   0.095   0.306   0.478 -0.1766  0.7506 -0.1787
 2890SOL    HW211326   0.148   0.341   0.406 -0.5515  0.7013 -0.4841
 2890SOL    HW311327   0.146   0.324   0.557  1.3925 -1.3091 -0.6335
 2890SOL    MW411328   0.109   0.313   0.479 -0.0191  0.4724 -0.2790
 2891SOL     OW11329   0.649   5.500   5.393 -0.9551 -0.7715 -0.6899
 2891SOL    HW211330   0.683   5.574   5.343 -0.7105 -0.8013 -0.5714
 2891SOL    HW311331   0.554   5.507   5.385 -1.0276  0.5528  0.7132
 2891SOL    MW411332   0.641   5.511   5.385 -0.9324 -0.6007 -0.4892
 2892SOL     OW11333   1.880   3.804   2.762  0.1747 -0.5500  0.3235
 2892SOL    HW211334   1.861   3.716   2.728  0.2836 -0.1318 -0.8367
 2892SOL    HW311335   1.796   3.850   2.758 -0.0148 -0.7675  1.4841
 2892SOL    MW411336   1.866   3.798   2.757  0.1640 -0.5235  0.3235
 2893SOL     OW11337   0.879   3.265   1.720  0.4536 -0.1064  0.1449
 2893SOL    HW211338   0.918   3.178   1.721  1.8702  0.5093  0.4634
 2893SOL    HW311339   0.784   3.248   1.722  0.6823 -1.6290 -0.3142
 2893SOL    MW411340   0.872   3.251   1.721  0.6707 -0.2260  0.1263
 2894SOL     OW11341   1.329   3.508   1.754 -0.7542 -0.2959  0.4458
 2894SOL    HW211342   1.358   3.585   1.802 -1.2808 -0.1958  0.6069
 2894SOL    HW311343   1.234   3.507   1.765 -0.7699 -0.8626  0.2911
 2894SOL    MW411344   1.320   3.518   1.762 -0.8258 -0.3574  0.4467
 2895SOL     OW11345   0.655   4.972   0.479 -0.0792 -0.1558 -0.1821
 2895SOL    HW211346   0.747   4.995   0.460  0.3734 -1.8505 -0.2378
 2895SOL    HW311347   0.606   5.013   0.408  0.4729  1.7078  0.4423
 2895SOL    MW411348   0.661   4.980   0.467  0.0533 -0.1335 -0.1071
 2896SOL     OW11349   0.849   5.008   4.992 -0.1270  0.0708 -0.1237
 2896SOL    HW211350   0.780   5.059   4.949  1.3946  3.1003  0.7311
 2896SOL    HW311351   0.906   4.978   4.922  1.4778  3.6349 -0.5377
 2896SOL    MW411352   0.847   5.011   4.977  0.2855  0.9408 -0.0655
 2897SOL     OW11353   4.445   5.576   6.152  0.2158  0.2915  0.3990
 2897SOL    HW211354   4.450   5.510   6.222  2.8690  0.1369  0.1623
 2897SOL    HW311355   4.406   5.530   6.078 -0.5513 -0.1715  1.0613
 2897SOL    MW411356   4.440   5.561   6.152  0.4646  0.2100  0.4551
 2898SOL     OW11357   2.886   0.998   2.650  0.1428 -0.4611  0.2340
 2898SOL    HW211358   2.958   0.945   2.615  0.4589  0.2079 -0.1412
 2898SOL    HW311359   2.807   0.949   2.625  0.4120 -0.5930 -0.4008
 2898SOL    MW411360   2.885   0.984   2.642  0.2200 -0.3902  0.1007
 2899SOL     OW11361   2.328   5.676   3.708  0.2466  0.6335  0.0597
 2899SOL    HW211362   2.325   5.622   3.786 -0.0416  0.1399 -0.2864
 2899SOL    HW311363   2.290   5.621   3.639 -0.2139  1.3388 -0.2608
 2899SOL    MW411364   2.322   5.662   3.709  0.1479  0.6614 -0.0283
 2900SOL     OW11365   3.903   5.280   2.337 -0.1467  0.2384 -0.3225
 2900SOL    HW211366   3.922   5.187   2.349  1.5260  0.6489  0.4651
 2900SOL    HW311367   3.928   5.299   2.247 -1.7707 -0.3329 -0.9317
 2900SOL    MW411368   3.909   5.270   2.327 -0.1403  0.2172 -0.2989
 2901SOL     OW11369   3.669   4.470   5.163 -1.0935  0.6557  0.3400
 2901SOL    HW211370   3.682   4.379   5.188  1.0240  1.1105  1.1458
 2901SOL    HW311371   3.647   4.467   5.070  0.9726 -0.6246 -0.1642
 2901SOL    MW411372   3.668   4.458   5.154 -0.5415  0.5468  0.3798
 2902SOL     OW11373   4.500   2.359   5.424 -0.2964  0.0952  0.0069
 2902SOL    HW211374   4.445   2.370   5.502 -3.3388 -0.7218 -1.8639
 2902SOL    HW311375   4.562   2.291   5.449 -0.4822  0.5988  2.0546
 2902SOL    MW411376   4.501   2.351   5.438 -0.7223  0.0538  0.0303
 2903SOL     OW11377   0.451   1.084   4.391  0.0764 -0.6401  0.6203
 2903SOL    HW211378   0.394   1.058   4.464  0.1630 -0.2869  0.8190
 2903SOL    HW311379   0.393   1.132   4.332  0.0710 -0.6641  0.6061
 2903SOL    MW411380   0.436   1.087   4.393  0.0871 -0.5967  0.6447
 2904SOL     OW11381   5.601   4.357   5.050 -0.5175  0.0313 -0.7848
 2904SOL    HW211382   5.645   4.381   5.131  0.0799 -0.9438 -0.7952
 2904SOL    HW311383   5.583   4.263   5.059 -1.1747  0.0798 -1.4460
 2904SOL    MW411384   5.604   4.348   5.062 -0.5254 -0.0909 -0.8734
 2905SOL     OW11385   4.100   0.373   6.256  0.7431 -0.0818 -0.7843
 2905SOL    HW211386   4.009   0.362   6.228  0.8319 -1.5521 -0.6085
 2905SOL    HW311387   4.141   0.424   6.186 -0.3426  1.1508 -0.5621
 2905SOL    MW411388   4.093   0.378   6.243  0.6116 -0.1132 -0.7318
 2906SOL     OW11389   0.161   5.712   0.141 -0.3325  0.5080 -0.2659
 2906SOL    HW211390   0.238   5.657   0.123 -0.4623  0.5929 -1.1105
 2906SOL    HW311391   0.089   5.669   0.095 -0.7084  0.6823  0.1456
 2906SOL    MW411392   0.162   5.699   0.133 -0.3992  0.5422 -0.3230
 2907SOL     OW11393   5.659   0.426   0.227 -0.2698  0.1557 -0.0939
 2907SOL    HW211394   5.644   0.425   0.133  0.9762 -2.4097 -0.3449
 2907SOL    HW311395   5.633   0.339   0.256  1.1740  0.2372  1.6099
 2907SOL    MW411396   5.653   0.414   0.219  0.0851 -0.1720  0.0978
 2908SOL     OW11397   1.228   5.203   1.878  0.0604  0.3292  0.2468
 2908SOL    HW211398   1.302   5.264   1.884  2.1795 -1.1682 -4.8619
 2908SOL    HW311399   1.262   5.121   1.913  0.4086  0.0075 -0.7946
 2908SOL    MW411400   1.242   5.200   1.883  0.3859  0.0892 -0.5647
 2909SOL     OW11401   0.558   1.645   3.844 -0.2946  0.6674  0.8112
 2909SOL    HW211402   0.474   1.667   3.804  0.5146  0.0459 -1.4066
 2909SOL    HW311403   0.551   1.552   3.865  0.2330  0.2711 -0.6144
 2909SOL    MW411404   0.546   1.636   3.841 -0.1182  0.5331  0.3305
 2910SOL     OW11405   1.979   3.739   4.313  0.9465 -0.5133  0.6420
 2910SOL    HW211406   1.954   3.829   4.294 -1.3621 -1.3195 -0.6648
 2910SOL    HW311407   2.069   3.731   4.284  0.4655  0.8109 -1.3860
 2910SOL    MW411408   1.987   3.750   4.307  0.5784 -0.4449  0.2020
 2911SOL     OW11409   4.146   3.981   3.863 -0.3230  0.0230 -0.1694
 2911SOL    HW211410   4.114   3.956   3.949  0.2831  2.5292  0.8901
 2911SOL    HW311411   4.101   3.923   3.802 -0.8971 -1.7128  1.8035
 2911SOL    MW411412   4.136   3.970   3.866 -0.3188  0.1246  0.2307
 2912SOL     OW11413   4.920   0.551   3.954 -0.1874  0.4841  0.3280
 2912SOL    HW211414   4.825   0.550   3.944 -0.1690 -1.0849  0.1569
 2912SOL    HW311415   4.951   0.610   3.886 -0.9503 -0.0863 -0.5279
 2912SOL    MW411416   4.912   0.559   3.944 -0.2856  0.2018  0.1925
 2913SOL     OW11417   0.771   1.144   1.983 -0.0462  0.3398  0.0892
 2913SOL    HW211418   0.699   1.084   1.960 -0.8041  0.4500  1.9596
 2913SOL    HW311419   0.727   1.219   2.024  1.1076  0.5841  0.9311
 2913SOL    MW411420   0.755   1.146   1.985  0.0061  0.3866  0.4470
 2914SOL     OW11421   0.582   0.762   4.239  0.0417  0.2713  0.0239
 2914SOL    HW211422   0.524   0.801   4.305 -0.8793 -0.0879 -0.5549
 2914SOL    HW311423   0.525   0.706   4.187  1.4156 -2.5022  1.2696
 2914SOL    MW411424   0.567   0.760   4.241  0.1015 -0.1420  0.1119
 2915SOL     OW11425   1.122   2.736   3.544 -0.0703 -0.3371  0.3019
 2915SOL    HW211426   1.188   2.723   3.476  0.2877  0.2704  0.5156
 2915SOL    HW311427   1.172   2.736   3.626 -0.2960  0.3711  0.4498
 2915SOL    MW411428   1.137   2.735   3.546 -0.0529 -0.1635  0.3496
 2916SOL     OW11429   6.102   5.870   5.379  0.1265 -0.5815  0.2109
 2916SOL    HW211430   6.185   5.856   5.334  1.9159 -0.7883  3.3387
 2916SOL    HW311431   6.088   5.964   5.376  0.1641 -0.5949 -0.7549
 2916SOL    MW411432   6.111   5.880   5.372  0.3675 -0.6105  0.4961
 2917SOL     OW11433   1.518   4.695   0.083 -0.0227 -0.0179 -0.2249
 2917SOL    HW211434   1.564   4.709  -0.000  0.3822  0.6120  0.1075
 2917SOL    HW311435   1.506   4.782   0.120  3.3303 -0.4310  2.2951
 2917SOL    MW411436   1.523   4.708   0.077  0.4731  0.0107  0.1515
 2918SOL     OW11437   1.517   0.419   1.754  0.9072  0.2591  0.3054
 2918SOL    HW211438   1.439   0.369   1.778 -0.9245  1.1351 -3.1462
 2918SOL    HW311439   1.501   0.507   1.788  0.5640  0.3255 -0.0188
 2918SOL    MW411440   1.504   0.424   1.761  0.6203  0.3834 -0.1928
 2919SOL     OW11441   3.966   5.285   2.786 -0.5655  0.0203 -0.2505
 2919SOL    HW211442   3.933   5.349   2.723  1.2384 -0.0676 -1.3617
 2919SOL    HW311443   3.938   5.318   2.871 -2.2743  0.6325 -1.0236
 2919SOL    MW411444   3.958   5.298   2.789 -0.5529  0.0895 -0.4991
 2920SOL     OW11445   5.277   5.554   0.549 -0.0584 -0.0726  0.2450
 2920SOL    HW211446   5.339   5.493   0.588  1.2766  1.3899  0.5324
 2920SOL    HW311447   5.330   5.631   0.528 -1.9285  1.6210  1.3616
 2920SOL    MW411448   5.292   5.556   0.552 -0.1290  0.3438  0.4302
 2921SOL     OW11449   3.405   4.315   0.468 -0.4403 -0.4709 -0.0417
 2921SOL    HW211450   3.326   4.359   0.436  0.3167  0.5279 -0.5918
 2921SOL    HW311451   3.459   4.304   0.390  0.3396 -0.3476  0.4793
 2921SOL    MW411452   3.401   4.319   0.453 -0.2376 -0.3229 -0.0456
 2922SOL     OW11453   0.467   4.556   0.127  0.1446 -0.6574 -0.1170
 2922SOL    HW211454   0.402   4.499   0.086 -1.4368 -0.0740  1.4223
 2922SOL    HW311455   0.497   4.508   0.204  2.1125 -1.2017 -1.1543
 2922SOL    MW411456   0.462   4.542   0.132  0.1956 -0.6523 -0.0508
 2923SOL     OW11457   5.111   4.239   2.597 -0.0307 -0.5501  0.1202
 2923SOL    HW211458   5.059   4.191   2.662  0.0054 -0.5469  0.1511
 2923SOL    HW311459   5.102   4.188   2.517  1.0836 -1.3346  0.4704
 2923SOL    MW411460   5.103   4.226   2.595  0.1210 -0.6532  0.1705
 2924SOL     OW11461   2.898   3.582   2.381  0.0212 -0.1889 -0.1968
 2924SOL    HW211462   2.957   3.546   2.314 -0.2596  0.1856 -0.6515
 2924SOL    HW311463   2.812   3.547   2.358 -0.3370  1.0852 -0.9002
 2924SOL    MW411464   2.894   3.572   2.369 -0.0631  0.0286 -0.3496
 2925SOL     OW11465   4.074   3.999   1.552  0.0663  0.4164  0.1817
 2925SOL    HW211466   4.162   3.961   1.557  0.9053  2.0914 -0.7625
 2925SOL    HW311467   4.050   3.993   1.460 -0.5535  0.5017  0.3348
 2925SOL    MW411468   4.082   3.993   1.541  0.0953  0.6487  0.0773
 2926SOL     OW11469   0.021   5.064   5.069 -0.0280 -0.2102 -0.4172
 2926SOL    HW211470  -0.034   5.120   5.125 -1.1669 -1.3657 -0.3458
 2926SOL    HW311471  -0.034   5.043   4.994  0.6395 -0.6793 -0.7890
 2926SOL    MW411472   0.007   5.069   5.067 -0.0902 -0.4246 -0.4568
 2927SOL     OW11473   2.060   5.164   1.855 -0.0427  0.1332 -0.6535
 2927SOL    HW211474   2.123   5.096   1.876  1.4405  1.6855  0.1806
 2927SOL    HW311475   2.016   5.183   1.938  1.9598  2.4715 -0.0237
 2927SOL    MW411476   2.062   5.158   1.869  0.4172  0.6465 -0.4604
 2928SOL     OW11477   5.568   0.946   0.552  0.0455  0.1141 -0.0302
 2928SOL    HW211478   5.491   0.978   0.599  0.2067 -0.7195  0.8211
 2928SOL    HW311479   5.540   0.864   0.513  0.1636  0.3923 -0.7181
 2928SOL    MW411480   5.554   0.940   0.553  0.0824  0.0408 -0.0086
 2929SOL     OW11481   5.328   3.366   5.462 -0.0985 -0.3967 -0.1511
 2929SOL    HW211482   5.395   3.427   5.434  1.4303 -2.8666 -2.3604
 2929SOL    HW311483   5.363   3.325   5.541 -0.3094  0.2577  0.2892
 2929SOL    MW411484   5.341   3.369   5.469  0.0754 -0.6362 -0.3845
 2930SOL     OW11485   0.184   1.913   4.365  0.2744 -0.7059 -0.0572
 2930SOL    HW211486   0.116   1.973   4.395  1.2839  0.3505  0.1993
 2930SOL    HW311487   0.137   1.834   4.339 -1.0872  0.1602 -0.3103
 2930SOL    MW411488   0.169   1.911   4.365  0.2279 -0.4523 -0.0568
 2931SOL     OW11489   4.943   1.479   6.085 -0.4038 -0.0351  0.1339
 2931SOL    HW211490   4.976   1.491   6.174 -0.6143 -0.2762  0.2440
 2931SOL    HW311491   4.848   1.488   6.093 -0.3673  0.7191 -0.1941
 2931SOL    MW411492   4.935   1.482   6.098 -0.4267  0.0326  0.1051
 2932SOL     OW11493   5.028   1.746   5.399  0.7823 -0.7588 -0.4382
 2932SOL    HW211494   4.957   1.709   5.452 -1.1143 -0.0391 -2.3418
 2932SOL    HW311495   5.075   1.803   5.460 -2.0089  0.9629  0.3191
 2932SOL    MW411496   5.025   1.749   5.414  0.1638 -0.4367 -0.5894
 2933SOL     OW11497   6.368   4.231   2.585  0.0529 -0.2585 -0.3758
 2933SOL    HW211498   6.423   4.287   2.641 -2.1053 -0.4094  2.0587
 2933SOL    HW311499   6.418   4.150   2.576  0.3257 -0.3798  1.7405
 2933SOL    MW411500   6.382   4.228   2.591 -0.1958 -0.2944  0.2246
 2934SOL     OW11501   0.389   1.568   4.376 -0.0762 -0.3672 -0.0145
 2934SOL    HW211502   0.351   1.601   4.294 -2.4200 -0.8701  0.7880
 2934SOL    HW311503   0.407   1.476   4.359 -1.6955 -0.7895  0.3256
 2934SOL    MW411504   0.386   1.560   4.363 -0.5991 -0.4893  0.1363
 2935SOL     OW11505   5.640   4.835   0.968 -0.0307  0.1469 -0.1991
 2935SOL    HW211506   5.677   4.923   0.957  0.6783 -0.0636  0.4439
 2935SOL    HW311507   5.603   4.815   0.882 -1.9220  1.8208  0.1318
 2935SOL    MW411508   5.640   4.844   0.955 -0.1867  0.3400 -0.0706
 2936SOL     OW11509   2.652   2.952   3.318  0.2492  0.3008  0.1878
 2936SOL    HW211510   2.575   2.972   3.371 -0.2686  0.2743 -0.5439
 2936SOL    HW311511   2.619   2.945   3.228  1.1660  0.6829 -0.1971
 2936SOL    MW411512   2.638   2.953   3.313  0.3018  0.3477  0.0405
 2937SOL     OW11513   0.133   0.972   2.080  0.1961 -0.1293 -0.0653
 2937SOL    HW211514   0.131   1.044   2.142  0.1436 -0.7521  0.6721
 2937SOL    HW311515   0.091   0.899   2.125 -1.1393 -0.2058 -1.3623
 2937SOL    MW411516   0.127   0.972   2.094  0.0130 -0.2216 -0.1391
 2938SOL     OW11517   3.399   1.976   2.551  0.1357  0.1694  0.0041
 2938SOL    HW211518   3.455   1.898   2.550 -0.2176 -0.0909  0.2902
 2938SOL    HW311519   3.457   2.047   2.579 -0.0662 -0.4141  2.1110
 2938SOL    MW411520   3.414   1.975   2.555  0.0624  0.0581  0.3198
 2939SOL     OW11521   5.902   2.717   4.151  0.3599 -0.2308 -0.0894
 2939SOL    HW211522   5.939   2.639   4.192 -0.7340 -0.9729 -0.4540
 2939SOL    HW311523   5.808   2.699   4.146 -0.1229  1.7074  1.0810
 2939SOL    MW411524   5.895   2.704   4.156  0.1519 -0.0730  0.0169
 2940SOL     OW11525   2.572   4.353   5.689 -0.3515 -0.0800 -0.0385
 2940SOL    HW211526   2.642   4.362   5.624 -0.4871  0.5457 -0.1041
 2940SOL    HW311527   2.609   4.391   5.769 -0.8843  0.9854 -0.2811
 2940SOL    MW411528   2.586   4.359   5.691 -0.4397  0.1431 -0.0792
 2941SOL     OW11529   1.185   2.012   6.371  0.2116  0.6451 -0.2151
 2941SOL    HW211530   1.139   2.089   6.406 -2.0576 -0.9759  0.6167
 2941SOL    HW311531   1.263   2.003   6.426  1.0168  2.8306 -0.9140
 2941SOL    MW411532   1.189   2.021   6.383  0.0184  0.7196 -0.1975
 2942SOL     OW11533   5.403   2.654   0.471  0.2558  0.2971 -0.1270
 2942SOL    HW211534   5.489   2.697   0.470  0.2825  0.2406 -0.3343
 2942SOL    HW311535   5.342   2.725   0.452  0.4306 -0.0368 -2.1736
 2942SOL    MW411536   5.407   2.669   0.469  0.2823  0.2456 -0.4244
 2943SOL     OW11537   2.468   1.798   3.108 -0.1933 -0.1169  0.5495
 2943SOL    HW211538   2.534   1.845   3.159  0.2257  0.0380 -0.1253
 2943SOL    HW311539   2.396   1.784   3.169  0.7841 -1.0089  1.5514
 2943SOL    MW411540   2.467   1.802   3.123 -0.0091 -0.2141  0.5927
 2944SOL     OW11541   5.262   3.241   4.813 -0.4011  0.4183 -0.7611
 2944SOL    HW211542   5.179   3.194   4.811  0.3378 -0.9449 -2.1629
 2944SOL    HW311543   5.319   3.187   4.869 -0.1077  0.6986 -0.7848
 2944SOL    MW411544   5.259   3.228   4.820 -0.2649  0.2754 -0.9492
 2945SOL     OW11545   5.356   3.540   5.902  0.2172  1.1544 -0.2336
 2945SOL    HW211546   5.431   3.597   5.882 -0.1906  1.6691 -0.3253
 2945SOL    HW311547   5.395   3.455   5.923  0.8332  1.4523 -0.1553
 2945SOL    MW411548   5.371   3.536   5.902  0.2447  1.2616 -0.2353
 2946SOL     OW11549   3.464   3.996   5.059 -0.2053  1.3887  0.3297
 2946SOL    HW211550   3.413   3.986   5.139 -0.3434  2.5225  0.3936
 2946SOL    HW311551   3.541   3.939   5.073 -0.5534  1.0592  0.9765
 2946SOL    MW411552   3.468   3.987   5.072 -0.2695  1.4948  0.4234
 2947SOL     OW11553   3.269   6.236   6.264 -0.3103  0.0266  0.7930
 2947SOL    HW211554   3.249   6.192   6.181  0.9321 -0.1023  0.5330
 2947SOL    HW311555   3.199   6.300   6.275 -1.7194 -1.4804  0.7885
 2947SOL    MW411556   3.257   6.239   6.254 -0.3323 -0.1893  0.7581
 2948SOL     OW11557   3.873   5.734   0.310 -0.0946 -0.0803  0.2694
 2948SOL    HW211558   3.912   5.822   0.313  0.1320 -0.1937  0.5773
 2948SOL    HW311559   3.933   5.683   0.256 -0.9418  0.3120 -1.1017
 2948SOL    MW411560   3.886   5.739   0.303 -0.1765 -0.0435  0.1291
 2949SOL     OW11561   5.956   4.666   0.848 -0.8690  0.1133  0.1817
 2949SOL    HW211562   5.889   4.659   0.780  0.3534  0.9147 -1.1482
 2949SOL    HW311563   5.934   4.747   0.895 -0.5185  0.6638 -0.5992
 2949SOL    MW411564   5.944   4.676   0.845 -0.6615  0.2916 -0.0968
 2950SOL     OW11565   3.363   2.766   2.078  0.0505  0.1135  0.0874
 2950SOL    HW211566   3.319   2.707   2.139 -0.3694  1.0878  0.7523
 2950SOL    HW311567   3.304   2.773   2.003  1.3882 -2.5426 -1.3456
 2950SOL    MW411568   3.350   2.759   2.076  0.1716 -0.1084 -0.0139
 2951SOL     OW11569   3.400   2.911   4.649  0.3548 -0.4505 -0.1059
 2951SOL    HW211570   3.368   2.828   4.612 -2.1621  0.6403 -0.5661
 2951SOL    HW311571   3.459   2.945   4.582  0.3314 -1.2078 -0.5313
 2951SOL    MW411572   3.404   2.904   4.635  0.0196 -0.4065 -0.2227
 2952SOL     OW11573   2.754   4.208   2.833  0.6240  0.1195 -0.2094
 2952SOL    HW211574   2.661   4.227   2.844  0.9976  1.7440  0.4697
 2952SOL    HW311575   2.786   4.276   2.774  1.6677  0.4990  0.7514
 2952SOL    MW411576   2.746   4.219   2.827  0.8110  0.3839  0.0070
 2953SOL     OW11577   0.009   6.240   1.596  0.1084  0.7209  0.4309
 2953SOL    HW211578  -0.069   6.185   1.596  1.6570 -1.7706 -2.5428
 2953SOL    HW311579   0.069   6.198   1.657  0.5969  0.1948 -0.3985
 2953SOL    MW411580   0.007   6.227   1.604  0.3771  0.3228 -0.0709
 2954SOL     OW11581   4.735   4.618   2.000 -0.4023  0.2480  0.1703
 2954SOL    HW211582   4.652   4.658   1.974  0.1274  1.3757  0.1168
 2954SOL    HW311583   4.763   4.670   2.076 -0.4619 -1.0674  1.1140
 2954SOL    MW411584   4.728   4.630   2.007 -0.3403  0.2232  0.2877
 2955SOL     OW11585   1.737   5.556   0.257  0.0875 -0.3094 -0.6073
 2955SOL    HW211586   1.745   5.639   0.303 -0.9954  0.0135 -0.9918
 2955SOL    HW311587   1.705   5.495   0.323  0.7942 -0.4130 -0.3487
 2955SOL    MW411588   1.734   5.559   0.272  0.0379 -0.2805 -0.6239
 2956SOL     OW11589   0.040   0.525   2.309  0.1120 -0.2700  0.0207
 2956SOL    HW211590   0.121   0.475   2.312 -1.2644 -2.6183  1.3779
 2956SOL    HW311591   0.026   0.555   2.399 -0.7379 -0.2655 -0.1041
 2956SOL    MW411592   0.049   0.523   2.321 -0.1818 -0.5792  0.1833
 2957SOL     OW11593   4.289   0.333   1.160 -0.6498  0.0188  1.0253
 2957SOL    HW211594   4.315   0.375   1.241 -1.2043 -0.2138  1.3343
 2957SOL    HW311595   4.199   0.363   1.144 -0.7305 -0.3343  0.7751
 2957SOL    MW411596   4.280   0.342   1.168 -0.7336 -0.0585  1.0330
 2958SOL     OW11597   4.709   3.315   0.425 -0.5420 -0.6197  0.0954
 2958SOL    HW211598   4.760   3.393   0.450 -2.5390  0.6887  0.3419
 2958SOL    HW311599   4.677   3.335   0.337  0.5399 -2.0748 -0.6660
 2958SOL    MW411600   4.711   3.328   0.417 -0.6627 -0.6390  0.0274
 2959SOL     OW11601   3.695   0.437   1.503 -0.3117  0.3397 -0.2639
 2959SOL    HW211602   3.651   0.391   1.432  1.7972  0.4211 -1.7146
 2959SOL    HW311603   3.738   0.511   1.460 -0.5960  1.5628  1.4492
 2959SOL    MW411604   3.695   0.441   1.488 -0.0709  0.5118 -0.2293
 2960SOL     OW11605   0.941   1.036   1.009  0.0758  0.0566  0.1272
 2960SOL    HW211606   1.029   1.024   1.044  1.1507  4.1998 -0.5629
 2960SOL    HW311607   0.941   0.988   0.926  2.1889  0.8611 -0.4076
 2960SOL    MW411608   0.953   1.028   1.002  0.4964  0.7094 -0.0344
 2961SOL     OW11609   4.593   5.364   4.041 -0.2045  0.4687 -0.1868
 2961SOL    HW211610   4.633   5.430   3.984 -0.2501 -0.5734 -1.4918
 2961SOL    HW311611   4.500   5.371   4.024 -0.2491  0.3866  0.0240
 2961SOL    MW411612   4.586   5.374   4.031 -0.2164  0.3204 -0.3312
 2962SOL     OW11613   2.373   5.083   2.736  0.1662 -0.1515  0.2621
 2962SOL    HW211614   2.339   5.006   2.781  0.7134 -0.4242  0.2197
 2962SOL    HW311615   2.371   5.059   2.643 -0.7331  0.3190  0.1496
 2962SOL    MW411616   2.368   5.070   2.729  0.1198 -0.1254  0.2417
 2963SOL     OW11617   3.569   0.122   3.767  0.1011  0.1472  0.4916
 2963SOL    HW211618   3.653   0.152   3.733  0.0815  0.8303  1.0400
 2963SOL    HW311619   3.588   0.036   3.804  0.5386  0.2538  0.5190
 2963SOL    MW411620   3.582   0.114   3.767  0.1562  0.2514  0.5676
 2964SOL     OW11621   3.194   1.425   0.209  0.3293  0.4455  0.1539
 2964SOL    HW211622   3.127   1.392   0.269 -0.5179 -1.7358 -1.8063
 2964SOL    HW311623   3.144   1.465   0.138  1.1200 -0.0273 -0.6924
 2964SOL    MW411624   3.179   1.426   0.208  0.3219  0.0953 -0.2164
 2965SOL     OW11625   2.817   1.662   4.252 -0.2402  0.0850 -0.0232
 2965SOL    HW211626   2.886   1.670   4.185 -0.5492  1.4045 -0.2174
 2965SOL    HW311627   2.847   1.591   4.309 -0.0363 -1.1641 -1.6240
 2965SOL    MW411628   2.830   1.654   4.251 -0.2540  0.0943 -0.2600
 2966SOL     OW11629   2.135   2.718   1.212  0.0545  0.5910 -0.7162
 2966SOL    HW211630   2.200   2.701   1.144  0.0490 -0.3061 -0.5139
 2966SOL    HW311631   2.097   2.803   1.189  0.5992  0.6618 -1.3870
 2966SOL    MW411632   2.139   2.727   1.200  0.1257  0.4820 -0.7780
 2967SOL     OW11633   5.470   2.739   3.893 -0.8522  0.0537 -0.0365
 2967SOL    HW211634   5.476   2.835   3.897  1.0375 -0.0196  0.0219
 2967SOL    HW311635   5.493   2.717   3.803  0.0843 -0.3812  0.2917
 2967SOL    MW411636   5.474   2.749   3.882 -0.4793 -0.0134  0.0145
 2968SOL     OW11637   4.039   5.894   5.800  0.2250  0.3384 -0.3102
 2968SOL    HW211638   4.082   5.808   5.800  0.3002  0.3770  0.1575
 2968SOL    HW311639   4.085   5.943   5.731  0.3228  0.0741 -0.4356
 2968SOL    MW411640   4.051   5.889   5.791  0.2478  0.3086 -0.2650
 2969SOL     OW11641   4.656   4.147   1.646 -0.0855  0.1504 -0.1743
 2969SOL    HW211642   4.636   4.160   1.738 -0.3674 -0.8006 -0.0999
 2969SOL    HW311643   4.748   4.119   1.645 -0.3607 -0.7981 -0.0928
 2969SOL    MW411644   4.666   4.145   1.658 -0.1590 -0.1002 -0.1537
 2970SOL     OW11645   5.661   3.722   5.233  0.6392  0.0740  0.0784
 2970SOL    HW211646   5.665   3.803   5.284  1.1552  0.1968 -0.1553
 2970SOL    HW311647   5.752   3.702   5.211  0.5429 -0.7228  0.3652
 2970SOL    MW411648   5.673   3.730   5.237  0.6946 -0.0149  0.0854
 2971SOL     OW11649   0.467   6.215   4.827 -0.0194  0.5281  0.1811
 2971SOL    HW211650   0.494   6.270   4.753 -0.9824  1.3910  0.4367
 2971SOL    HW311651   0.545   6.207   4.881  0.2151  1.4624  0.0058
 2971SOL    MW411652   0.481   6.221   4.824 -0.1155  0.7652  0.1917
 2972SOL     OW11653   0.981   2.476   3.482  0.4094  0.4319 -0.7874
 2972SOL    HW211654   1.029   2.549   3.522 -0.4991  0.7170 -0.1989
 2972SOL    HW311655   0.918   2.449   3.549  0.3407 -0.5182 -1.2184
 2972SOL    MW411656   0.979   2.482   3.496  0.2804  0.3441 -0.7666
 2973SOL     OW11657   3.279   2.408   1.133 -0.0517  0.1370  0.7584
 2973SOL    HW211658   3.307   2.482   1.080  1.3639  0.7130  2.2258
 2973SOL    HW311659   3.291   2.332   1.076  1.1212  0.7625  0.1324
 2973SOL    MW411660   3.284   2.407   1.118  0.2898  0.2955  0.8694
 2974SOL     OW11661   1.368   5.338   4.022  0.2887  0.1439  0.4937
 2974SOL    HW211662   1.408   5.337   4.109 -0.8049  1.1856  1.0466
 2974SOL    HW311663   1.278   5.310   4.037  0.2770 -0.3369 -0.4203
 2974SOL    MW411664   1.361   5.334   4.035  0.1429  0.2179  0.4461
 2975SOL     OW11665   5.853   3.707   2.095 -0.5559 -0.1914  0.6744
 2975SOL    HW211666   5.893   3.745   2.174 -2.8489 -0.5311  2.0859
 2975SOL    HW311667   5.761   3.734   2.099 -2.0486 -4.6038  1.0577
 2975SOL    MW411668   5.846   3.716   2.106 -1.0554 -0.8184  0.9112
 2976SOL     OW11669   1.272   0.777   4.190 -0.3007  0.1960  0.0057
 2976SOL    HW211670   1.364   0.760   4.167 -0.7911 -0.1495 -1.8817
 2976SOL    HW311671   1.243   0.842   4.126 -1.8055 -0.9277 -0.5248
 2976SOL    MW411672   1.281   0.783   4.178 -0.5639  0.0022 -0.3133
 2977SOL     OW11673   4.448   1.045   5.060  0.1307  0.1053 -0.0430
 2977SOL    HW211674   4.363   1.042   5.017  0.0051 -0.8722  0.2635
 2977SOL    HW311675   4.509   1.072   4.991 -0.2977  0.0227 -0.4556
 2977SOL    MW411676   4.445   1.048   5.045  0.0576 -0.0345 -0.0570
 2978SOL     OW11677   1.369   1.287   2.069  0.0401 -0.4027  0.0216
 2978SOL    HW211678   1.424   1.210   2.080 -0.9042 -0.8945  1.5348
 2978SOL    HW311679   1.289   1.254   2.028  1.0788  0.4341 -2.9336
 2978SOL    MW411680   1.366   1.273   2.065  0.0526 -0.3572 -0.1686
 2979SOL     OW11681   1.489   1.240   0.119  0.0224 -0.3071  0.1269
 2979SOL    HW211682   1.395   1.231   0.101  0.0920 -4.1469  0.6513
 2979SOL    HW311683   1.530   1.243   0.033 -0.5078  0.9128 -0.1078
 2979SOL    MW411684   1.482   1.239   0.105 -0.0384 -0.6528  0.1651
 2980SOL     OW11685   2.084   2.268   1.175  0.1969 -0.5277 -0.1796
 2980SOL    HW211686   2.022   2.339   1.161 -0.0630 -0.8741 -0.8000
 2980SOL    HW311687   2.030   2.194   1.202  0.1290 -1.3010 -2.3007
 2980SOL    MW411688   2.069   2.268   1.177  0.1536 -0.6754 -0.5413
 2981SOL     OW11689   5.495   3.629   4.632 -0.4996 -0.2498  0.0371
 2981SOL    HW211690   5.556   3.583   4.689  0.5608 -0.7379 -1.4307
 2981SOL    HW311691   5.418   3.646   4.687  0.6804 -0.2199  1.7342
 2981SOL    MW411692   5.493   3.625   4.647 -0.2040 -0.3102  0.0673
 2982SOL     OW11693   4.518   4.015   2.933 -0.5212  0.9152 -0.1425
 2982SOL    HW211694   4.594   4.044   2.983 -0.2959  2.1191 -1.1465
 2982SOL    HW311695   4.451   3.996   2.999  0.0254  1.6889  0.6488
 2982SOL    MW411696   4.519   4.016   2.948 -0.4193  1.1761 -0.1706
 2983SOL     OW11697   4.206   0.926   3.476 -0.1048  0.1955 -0.0036
 2983SOL    HW211698   4.177   0.863   3.542 -1.3472 -0.7272 -1.3736
 2983SOL    HW311699   4.276   0.975   3.519  1.1603 -2.3218  1.0382
 2983SOL    MW411700   4.211   0.924   3.490 -0.1018 -0.2584 -0.0469
 2984SOL     OW11701   4.347   4.017   3.167 -0.0401 -0.1339  0.5022
 2984SOL    HW211702   4.275   3.954   3.179  0.2915 -0.8266 -0.8518
 2984SOL    HW311703   4.424   3.972   3.203  0.1386 -0.4046 -0.1912
 2984SOL    MW411704   4.348   4.003   3.173  0.0272 -0.2610  0.2321
 2985SOL     OW11705   3.306   0.649   2.531 -0.2932 -0.2566 -0.0199
 2985SOL    HW211706   3.211   0.638   2.533 -0.2408 -1.1133 -1.2694
 2985SOL    HW311707   3.321   0.730   2.579 -1.3469 -1.7402  3.0722
 2985SOL    MW411708   3.295   0.658   2.538 -0.4253 -0.5653  0.2232
 2986SOL     OW11709   4.974   4.275   4.012  0.4792  0.8133  0.9280
 2986SOL    HW211710   4.899   4.230   3.974 -0.3430  0.4667  2.8514
 2986SOL    HW311711   5.040   4.206   4.022  1.2420  1.1826 -1.0688
 2986SOL    MW411712   4.973   4.260   4.008  0.4713  0.8163  0.9183
 2987SOL     OW11713   3.652   2.432   4.627  0.7037 -0.4678  0.1470
 2987SOL    HW211714   3.652   2.518   4.586  0.8597 -1.2577 -1.6192
 2987SOL    HW311715   3.642   2.449   4.720  1.5797  1.4956 -0.0790
 2987SOL    MW411716   3.651   2.445   4.634  0.8399 -0.3130 -0.1159
 2988SOL     OW11717   1.805   1.390   3.238  0.3213 -0.3542 -0.6276
 2988SOL    HW211718   1.885   1.356   3.198  0.9946 -1.8401  1.7867
 2988SOL    HW311719   1.825   1.482   3.257  1.5918 -0.7722  0.1940
 2988SOL    MW411720   1.818   1.398   3.235  0.5777 -0.6054 -0.2007
 2989SOL     OW11721   3.144   0.856   2.174  0.6102 -0.2767 -0.0502
 2989SOL    HW211722   3.236   0.830   2.179  0.3772 -1.3123 -0.9392
 2989SOL    HW311723   3.146   0.945   2.138  1.2130 -0.8233 -1.4352
 2989SOL    MW411724   3.156   0.864   2.170  0.6590 -0.4855 -0.3502
 2990SOL     OW11725   2.626   5.084   1.866 -0.2131  0.1089 -0.2479
 2990SOL    HW211726   2.674   5.150   1.916 -0.9713  0.4150  0.0952
 2990SOL    HW311727   2.567   5.044   1.929 -0.0358 -0.6303 -0.5453
 2990SOL    MW411728   2.625   5.088   1.881 -0.2897  0.0518 -0.2419
 2991SOL     OW11729   2.168   6.175   0.503  0.0704 -0.5300 -0.4748
 2991SOL    HW211730   2.104   6.103   0.510  0.2579 -0.6940 -0.4478
 2991SOL    HW311731   2.215   6.174   0.587  1.2944 -1.5324 -1.1407
 2991SOL    MW411732   2.166   6.165   0.515  0.2567 -0.6839 -0.5591
 2992SOL     OW11733   4.199   3.522   2.283  0.2170 -0.0859  0.0050
 2992SOL    HW211734   4.137   3.455   2.311 -0.2599  0.6700  0.7546
 2992SOL    HW311735   4.285   3.479   2.290 -0.0045 -0.3265  1.3552
 2992SOL    MW411736   4.202   3.507   2.287  0.1248 -0.0179  0.2820
 2993SOL     OW11737   1.022   2.863   1.237  0.0432  0.1788  0.2581
 2993SOL    HW211738   1.071   2.893   1.313  1.3047 -1.5025  0.1582
 2993SOL    HW311739   0.997   2.773   1.257 -2.1804  0.6431 -0.1340
 2993SOL    MW411740   1.025   2.855   1.249 -0.0837  0.0182  0.1932
 2994SOL     OW11741   1.610   1.408   3.045  0.3397 -0.4402  0.4770
 2994SOL    HW211742   1.675   1.430   3.112  0.0131 -0.8556  0.9389
 2994SOL    HW311743   1.527   1.442   3.079  0.5067  1.3189 -0.7360
 2994SOL    MW411744   1.608   1.415   3.058  0.3186 -0.2629  0.3779
 2995SOL     OW11745   2.363   5.433   0.073  0.1247  0.3258 -0.0168
 2995SOL    HW211746   2.454   5.426   0.044  0.1019 -0.4629  0.0750
 2995SOL    HW311747   2.319   5.357   0.034  0.4184 -1.7085  3.1939
 2995SOL    MW411748   2.369   5.422   0.064  0.1604 -0.0467  0.4189
 2996SOL     OW11749   3.356   0.372   4.823 -0.4266  0.4410 -0.4483
 2996SOL    HW211750   3.411   0.449   4.834 -0.6927  0.6059 -0.2692
 2996SOL    HW311751   3.292   0.378   4.894 -0.8685  0.4108 -0.8436
 2996SOL    MW411752   3.355   0.383   4.834 -0.5200  0.4588 -0.4768
 2997SOL     OW11753   5.085   1.543   3.795  0.1477  0.2928 -0.5611
 2997SOL    HW211754   5.108   1.555   3.703 -0.3088 -0.7197 -0.8197
 2997SOL    HW311755   5.027   1.617   3.815  0.3755  0.6066 -1.0362
 2997SOL    MW411756   5.080   1.555   3.786  0.1175  0.2006 -0.6579
 2998SOL     OW11757   5.547   6.154   0.432  0.2278 -0.0764  0.0526
 2998SOL    HW211758   5.634   6.173   0.467  0.8580 -2.5075 -0.0861
 2998SOL    HW311759   5.493   6.226   0.465  1.8836  0.4821  1.7319
 2998SOL    MW411760   5.551   6.166   0.441  0.5294 -0.3235  0.2559
 2999SOL     OW11761   5.322   4.538   5.568  0.9416 -0.2540 -0.1825
 2999SOL    HW211762   5.299   4.561   5.658  0.1295 -2.3998  0.2249
 2999SOL    HW311763   5.351   4.620   5.529  0.2589  0.9565  1.7036
 2999SOL    MW411764   5.323   4.552   5.575  0.7444 -0.3774  0.1201
 3000SOL     OW11765   4.234   3.841   5.865  0.3064 -0.2100 -0.3429
 3000SOL    HW211766   4.267   3.904   5.930  0.8488 -0.0491 -0.7640
 3000SOL    HW311767   4.305   3.835   5.801  0.0075 -0.8055 -0.6156
 3000SOL    MW411768   4.248   3.849   5.865  0.3385 -0.2673 -0.4344
 3001SOL     OW11769   4.553   5.317   5.757 -0.0188 -0.0051 -0.0842
 3001SOL    HW211770   4.521   5.232   5.725 -0.8444  0.6788 -1.1620
 3001SOL    HW311771   4.563   5.305   5.851  0.4187 -1.4600 -0.2898
 3001SOL    MW411772   4.550   5.304   5.765 -0.0700 -0.1068 -0.2535
 3002SOL     OW11773   0.467   2.249   5.438 -0.4063  0.1100 -0.5652
 3002SOL    HW211774   0.418   2.221   5.516 -1.3788 -0.8208 -1.4757
 3002SOL    HW311775   0.404   2.240   5.366  1.7781 -4.1076 -2.3449
 3002SOL    MW411776   0.452   2.244   5.439 -0.2464 -0.5693 -0.9201
 3003SOL     OW11777   3.332   3.642   6.033 -0.6544  0.1077  0.0113
 3003SOL    HW211778   3.282   3.723   6.034 -1.6502 -0.4803 -0.4450
 3003SOL    HW311779   3.269   3.575   6.060  0.1861 -0.5027  0.5278
 3003SOL    MW411780   3.317   3.644   6.037 -0.6749 -0.0504  0.0193
 3004SOL     OW11781   5.095   1.630   4.150  0.2952  0.0297 -0.0714
 3004SOL    HW211782   5.184   1.658   4.131  0.3655  0.7869  1.2320
 3004SOL    HW311783   5.040   1.694   4.104  0.4339  0.2009 -0.0008
 3004SOL    MW411784   5.099   1.642   4.141  0.3228  0.1521  0.1099
 3005SOL     OW11785   5.505   6.085   2.118 -0.6734 -0.2836  0.6505
 3005SOL    HW211786   5.504   6.163   2.173 -1.5487 -0.6014  1.1024
 3005SOL    HW311787   5.591   6.087   2.075 -0.6060  0.8167  0.8042
 3005SOL    MW411788   5.516   6.096   2.119 -0.7800 -0.1804  0.7304
 3006SOL     OW11789   4.412   2.717   5.294  0.3474  0.0363  0.4614
 3006SOL    HW211790   4.503   2.688   5.300 -0.4628 -2.6534  1.2016
 3006SOL    HW311791   4.370   2.652   5.239 -1.3084  0.7869  0.7831
 3006SOL    MW411792   4.419   2.705   5.288  0.0220 -0.2196  0.6015
 3007SOL     OW11793   5.920   1.011   4.185 -0.1664  0.1665  0.5057
 3007SOL    HW211794   5.898   0.939   4.244 -1.5578  1.0128  1.0773
 3007SOL    HW311795   6.009   0.992   4.156 -0.1677 -1.2935  1.3588
 3007SOL    MW411796   5.929   0.999   4.189 -0.3501  0.0855  0.6936
 3008SOL     OW11797   4.130   4.652   2.250  0.2657  0.5006 -0.4092
 3008SOL    HW211798   4.180   4.574   2.227  0.0362 -0.3980  1.8511
 3008SOL    HW311799   4.068   4.664   2.178  0.5152 -1.2293 -0.9438
 3008SOL    MW411800   4.128   4.643   2.238  0.2683  0.1538 -0.1815
 3009SOL     OW11801   0.503   4.241   0.610 -0.1455  0.2661 -0.2769
 3009SOL    HW211802   0.448   4.290   0.672 -0.4549 -1.8642  1.2328
 3009SOL    HW311803   0.572   4.302   0.587 -0.7622  1.5895  1.1532
 3009SOL    MW411804   0.505   4.256   0.615 -0.2677  0.1597  0.1110
 3010SOL     OW11805   3.579   5.985   0.976  0.4354  0.4420  0.1199
 3010SOL    HW211806   3.665   6.027   0.980  1.7694 -2.0487 -0.2044
 3010SOL    HW311807   3.579   5.924   1.049 -0.6137 -0.3909 -0.5505
 3010SOL    MW411808   3.590   5.983   0.986  0.4730  0.0035 -0.0113
 3011SOL     OW11809   0.228   6.298   4.196  0.2936 -0.0717  0.4104
 3011SOL    HW211810   0.254   6.224   4.140  0.2384 -0.7411  1.2500
 3011SOL    HW311811   0.267   6.374   4.154 -0.8917 -0.3469 -1.3421
 3011SOL    MW411812   0.236   6.298   4.183  0.1300 -0.1963  0.2899
 3012SOL     OW11813   5.538   5.493   1.637  0.5559 -0.1024 -0.5795
 3012SOL    HW211814   5.537   5.441   1.556 -1.4475 -0.6287 -0.2758
 3012SOL    HW311815   5.453   5.476   1.677  1.1121  0.9472  1.1490
 3012SOL    MW411816   5.527   5.484   1.631  0.3650 -0.0334 -0.3114
 3013SOL     OW11817   3.680   6.237   4.225  0.3853  0.0004  0.0825
 3013SOL    HW211818   3.737   6.311   4.243  1.6221 -0.9422  0.2091
 3013SOL    HW311819   3.732   6.181   4.167 -0.2819 -1.0399  0.4650
 3013SOL    MW411820   3.695   6.239   4.220  0.4604 -0.2612  0.1497
 3014SOL     OW11821   5.495   3.056   5.591 -0.7984 -0.4328  0.6585
 3014SOL    HW211822   5.542   2.998   5.652  0.6867 -0.5407 -0.5288
 3014SOL    HW311823   5.440   3.111   5.647  0.1543 -0.8571  2.0508
 3014SOL    MW411824   5.494   3.055   5.607 -0.4768 -0.5030  0.6855
 3015SOL     OW11825   1.537   2.196   0.597  0.1738 -0.2016 -1.0344
 3015SOL    HW211826   1.516   2.289   0.591  0.7405  0.1467  1.3294
 3015SOL    HW311827   1.611   2.184   0.537  0.0737  0.8447 -1.3907
 3015SOL    MW411828   1.544   2.206   0.588  0.2354 -0.0176 -0.7696
 3016SOL     OW11829   3.477   6.332   1.911 -0.0233 -0.1480  0.2618
 3016SOL    HW211830   3.430   6.409   1.879 -0.1439  0.2689  1.3898
 3016SOL    HW311831   3.523   6.363   1.990  0.6658 -1.0055  0.2146
 3016SOL    MW411832   3.477   6.346   1.918  0.0517 -0.2061  0.4044
 3017SOL     OW11833   3.157   3.068   1.881  0.0979 -0.0115  0.4140
 3017SOL    HW211834   3.078   3.053   1.932 -0.0483  1.9193  0.8287
 3017SOL    HW311835   3.166   3.164   1.877  2.3697 -0.1661  0.3269
 3017SOL    MW411836   3.148   3.079   1.887  0.3783  0.2229  0.4572
 3018SOL     OW11837   2.320   2.507   1.341  0.4732 -0.4182  0.4797
 3018SOL    HW211838   2.242   2.520   1.396  1.1306  1.7475  1.0002
 3018SOL    HW311839   2.302   2.426   1.293 -1.5923 -0.5884  1.4215
 3018SOL    MW411840   2.307   2.498   1.342  0.2874 -0.1550  0.6727
 3019SOL     OW11841   1.242   3.922   3.433 -0.4053  0.6468  0.3812
 3019SOL    HW211842   1.310   3.862   3.401  0.9033  1.2031  1.9417
 3019SOL    HW311843   1.204   3.960   3.354 -0.4423 -1.3067 -0.6093
 3019SOL    MW411844   1.246   3.919   3.418 -0.2375  0.4625  0.4564
 3020SOL     OW11845   1.551   6.358   0.837 -0.5765 -0.0672  0.5720
 3020SOL    HW211846   1.514   6.373   0.749  0.1551 -0.9657  0.0948
 3020SOL    HW311847   1.500   6.415   0.894 -0.3338  1.4129 -0.6006
 3020SOL    MW411848   1.539   6.368   0.833 -0.4480  0.0095  0.3544
 3021SOL     OW11849   3.306   6.261   0.163 -0.2461 -0.7279  0.5706
 3021SOL    HW211850   3.341   6.183   0.120 -2.1389 -2.8975  2.6441
 3021SOL    HW311851   3.335   6.254   0.254 -1.6360  0.1880  1.1288
 3021SOL    MW411852   3.314   6.250   0.169 -0.6792 -0.8933  0.9178
 3022SOL     OW11853   2.910   1.074   5.121  0.1544  0.5727 -0.2278
 3022SOL    HW211854   2.983   1.081   5.182  0.2962  3.5803 -0.6362
 3022SOL    HW311855   2.842   1.028   5.171  1.8169 -1.1886  0.5601
 3022SOL    MW411856   2.910   1.069   5.136  0.3924  0.7371 -0.1777
 3023SOL     OW11857   2.700   1.992   0.795  0.5699  0.2781  0.0514
 3023SOL    HW211858   2.753   1.946   0.860 -0.7879 -2.0213 -0.3536
 3023SOL    HW311859   2.754   1.994   0.717  1.6216  1.7168  0.7620
 3023SOL    MW411860   2.714   1.986   0.794  0.5295  0.1645  0.0917
 3024SOL     OW11861   6.125   5.829   1.913  0.2247  0.1646 -0.2842
 3024SOL    HW211862   6.210   5.842   1.871  0.2758 -0.5583 -0.4234
 3024SOL    HW311863   6.124   5.736   1.936  0.4165  0.6035  1.7589
 3024SOL    MW411864   6.137   5.818   1.911  0.2568  0.1271 -0.0330
 3025SOL     OW11865   4.463   0.759   5.405  0.5447  0.2620  0.7930
 3025SOL    HW211866   4.431   0.849   5.401  1.3439  0.5086 -0.1078
 3025SOL    HW311867   4.475   0.743   5.499 -0.4053  0.7966  1.0218
 3025SOL    MW411868   4.460   0.769   5.417  0.5248  0.3651  0.7043
 3026SOL     OW11869   2.237   4.711   4.545 -0.1783 -0.0375  0.5990
 3026SOL    HW211870   2.223   4.641   4.482 -0.0991  0.3414  0.1570
 3026SOL    HW311871   2.189   4.786   4.510  2.7063  1.2802 -0.9332
 3026SOL    MW411872   2.229   4.712   4.532  0.2127  0.1863  0.3385
 3027SOL     OW11873   5.580   1.041   1.526 -0.1842 -0.0700 -0.4570
 3027SOL    HW211874   5.539   0.957   1.545 -0.8048  0.1411 -0.8184
 3027SOL    HW311875   5.581   1.087   1.610 -1.8997  0.4270 -0.6690
 3027SOL    MW411876   5.575   1.036   1.540 -0.4924  0.0234 -0.5327
 3028SOL     OW11877   0.952   1.001   5.172 -0.6602  0.1115  0.0973
 3028SOL    HW211878   0.924   1.016   5.262 -0.2315  1.5719  0.0121
 3028SOL    HW311879   0.979   0.909   5.170  2.8769  0.8898  2.4683
 3028SOL    MW411880   0.952   0.991   5.183 -0.1370  0.4068  0.3989
 3029SOL     OW11881   4.451   2.522   6.140  0.0870 -0.6014  0.6581
 3029SOL    HW211882   4.526   2.578   6.120  1.4259 -2.0061  1.5067
 3029SOL    HW311883   4.467   2.442   6.090 -0.1421 -1.4244  1.8688
 3029SOL    MW411884   4.463   2.519   6.131  0.2334 -0.8953  0.9298
 3030SOL     OW11885   1.671   4.184   1.588  0.0277 -0.2317  0.6582
 3030SOL    HW211886   1.625   4.199   1.671  0.2874  1.7476  0.4852
 3030SOL    HW311887   1.758   4.153   1.613 -0.6428 -1.9265  1.0327
 3030SOL    MW411888   1.676   4.182   1.602 -0.0265 -0.1942  0.6848
 3031SOL     OW11889   6.085   2.847   2.511 -0.4502 -0.6410 -0.1583
 3031SOL    HW211890   6.003   2.896   2.500  0.2430  0.2107 -2.0928
 3031SOL    HW311891   6.057   2.759   2.536 -1.9443 -0.3166 -0.5588
 3031SOL    MW411892   6.070   2.842   2.513 -0.5559 -0.4859 -0.4664
 3032SOL     OW11893   4.782   4.498   6.423  0.4056  0.2757 -0.5229
 3032SOL    HW211894   4.744   4.570   6.474 -0.6019 -1.5645  1.4567
 3032SOL    HW311895   4.869   4.529   6.399  0.0100  2.1403  0.2788
 3032SOL    MW411896   4.788   4.512   6.427  0.2205  0.2789 -0.1560
 3033SOL     OW11897   1.484   1.023   2.094  0.2955 -0.3987 -0.3616
 3033SOL    HW211898   1.512   1.016   2.003  0.9519  1.9882 -0.3965
 3033SOL    HW311899   1.399   0.980   2.096 -1.1494  2.0175 -2.8316
 3033SOL    MW411900   1.477   1.016   2.082  0.1914  0.2350 -0.6921
 3034SOL     OW11901   2.338   3.428   1.977  0.1742  0.1056  0.3484
 3034SOL    HW211902   2.299   3.340   1.983 -0.2973  0.2519 -0.4411
 3034SOL    HW311903   2.342   3.446   1.883 -0.8805  1.4341  0.5291
 3034SOL    MW411904   2.334   3.418   1.965 -0.0272  0.3002  0.2681
 3035SOL     OW11905   6.226   3.633   6.243  1.1318  0.0742 -0.0776
 3035SOL    HW211906   6.297   3.695   6.260  0.6019  0.5873  0.2799
 3035SOL    HW311907   6.226   3.574   6.318  2.7446 -1.4655 -1.1875
 3035SOL    MW411908   6.236   3.633   6.255  1.2747 -0.0612 -0.1769
 3036SOL     OW11909   2.698   1.976   0.340 -0.6071 -0.3631  0.0067
 3036SOL    HW211910   2.693   1.936   0.253 -1.0036  0.1718 -0.2233
 3036SOL    HW311911   2.637   2.049   0.336 -0.4887 -0.2214  0.6804
 3036SOL    MW411912   2.689   1.980   0.328 -0.6438 -0.2738  0.0652
 3037SOL     OW11913   5.218   1.835   1.455 -0.1774 -0.1444 -0.3002
 3037SOL    HW211914   5.208   1.817   1.361  0.8356  0.6546 -0.5818
 3037SOL    HW311915   5.260   1.921   1.458  1.9122 -1.1482  0.8315
 3037SOL    MW411916   5.222   1.844   1.443  0.2319 -0.1714 -0.1881
 3038SOL     OW11917   5.343   1.718   3.988  0.0461  0.1131 -0.1920
 3038SOL    HW211918   5.338   1.623   3.973 -0.6887  0.2748 -1.0786
 3038SOL    HW311919   5.436   1.738   3.977  0.3109 -0.5867  0.6157
 3038SOL    MW411920   5.354   1.708   3.984 -0.0159  0.0421 -0.2024
 3039SOL     OW11921   3.517   4.093   3.400 -0.1659  0.1489  0.0501
 3039SOL    HW211922   3.440   4.117   3.347 -0.0748  2.1452  0.7625
 3039SOL    HW311923   3.589   4.141   3.360 -0.0437  1.4762  1.7758
 3039SOL    MW411924   3.516   4.102   3.388 -0.1377  0.5874  0.3718
 3040SOL     OW11925   6.359   4.969   4.221  0.7292 -0.6707  0.1587
 3040SOL    HW211926   6.303   4.926   4.156  1.2003  0.9291 -1.3972
 3040SOL    HW311927   6.406   4.897   4.264  0.9901 -1.7780 -1.8532
 3040SOL    MW411928   6.358   4.954   4.218  0.8258 -0.6058 -0.3121
 3041SOL     OW11929   0.619   2.737   4.146 -0.2781  0.3174  0.5121
 3041SOL    HW211930   0.676   2.745   4.223  1.1611  0.1430 -0.4814
 3041SOL    HW311931   0.669   2.683   4.086 -1.0515  1.0547 -0.8352
 3041SOL    MW411932   0.633   2.731   4.149 -0.1903  0.3917  0.2033
 3042SOL     OW11933   5.281   6.325   0.434 -0.5027 -0.0340  0.1215
 3042SOL    HW211934   5.212   6.338   0.499 -0.0306  1.3100  0.3865
 3042SOL    HW311935   5.254   6.378   0.359 -0.1134 -0.0665 -0.0481
 3042SOL    MW411936   5.269   6.334   0.432 -0.3890  0.1391  0.1341
 3043SOL     OW11937   2.712   0.213   3.545 -0.1345 -0.2331 -0.2792
 3043SOL    HW211938   2.762   0.190   3.467  1.6024  0.5288  0.5500
 3043SOL    HW311939   2.778   0.220   3.614 -1.7658 -2.7076  1.7276
 3043SOL    MW411940   2.728   0.211   3.544 -0.1206 -0.4591  0.0950
 3044SOL     OW11941   1.636   3.592   2.128 -0.6852  0.2462  0.2568
 3044SOL    HW211942   1.547   3.557   2.132 -0.2847 -0.8677 -0.1598
 3044SOL    HW311943   1.661   3.605   2.219 -1.0014 -0.1393  0.4004
 3044SOL    MW411944   1.627   3.589   2.141 -0.6741  0.0484  0.2208
 3045SOL     OW11945   2.032   4.613   1.969 -0.8281 -0.3769 -0.0859
 3045SOL    HW211946   2.086   4.626   1.891 -2.6406  2.1605 -1.0460
 3045SOL    HW311947   2.094   4.615   2.042  0.7248 -1.0790 -1.3324
 3045SOL    MW411948   2.047   4.615   1.968 -0.8624 -0.1347 -0.3770
 3046SOL     OW11949   5.290   2.511   3.500 -0.1118 -0.7550 -0.7599
 3046SOL    HW211950   5.351   2.491   3.571  1.7690 -1.8127 -2.5496
 3046SOL    HW311951   5.344   2.551   3.432 -1.7907  0.0068 -1.7076
 3046SOL    MW411952   5.305   2.513   3.500 -0.0851 -0.7940 -1.1210
 3047SOL     OW11953   0.020   2.594   1.610 -0.1534 -0.3623  0.4832
 3047SOL    HW211954  -0.073   2.586   1.629 -0.8741  0.1058 -2.4003
 3047SOL    HW311955   0.052   2.504   1.607 -1.2891 -0.7678 -1.5311
 3047SOL    MW411956   0.012   2.581   1.612 -0.3984 -0.3540 -0.1630
 3048SOL     OW11957   5.514   1.991   5.035  0.2764 -0.1283 -0.3117
 3048SOL    HW211958   5.482   2.049   4.966  0.9829  1.6477  0.7857
 3048SOL    HW311959   5.439   1.981   5.094  0.3345  0.1899 -0.1816
 3048SOL    MW411960   5.500   1.997   5.034  0.3773  0.1480 -0.1498
 3049SOL     OW11961   5.908   5.478   4.871 -0.2193  0.0110  0.1010
 3049SOL    HW211962   5.855   5.401   4.890  0.4565 -0.3664  0.4769
 3049SOL    HW311963   5.999   5.448   4.878  0.0813  1.1367  1.5946
 3049SOL    MW411964   5.913   5.464   4.874 -0.0905  0.1097  0.3476
 3050SOL     OW11965   5.429   5.404   4.976  0.1082  0.1610 -0.1876
 3050SOL    HW211966   5.349   5.366   5.013  1.0490  0.0198  1.8654
 3050SOL    HW311967   5.413   5.498   4.974 -0.0957  0.1416  0.2986
 3050SOL    MW411968   5.417   5.411   4.981  0.2054  0.1398  0.1474
 3051SOL     OW11969   2.315   4.939   5.960 -0.3370 -0.1496 -0.2125
 3051SOL    HW211970   2.345   4.892   6.038  0.8653 -1.9859 -1.6924
 3051SOL    HW311971   2.395   4.958   5.911 -1.2094 -2.6635 -2.9184
 3051SOL    MW411972   2.329   4.936   5.964 -0.2935 -0.7236 -0.7648
 3052SOL     OW11973   1.971   0.932   0.904  0.2494  1.0142  0.3665
 3052SOL    HW211974   2.043   0.988   0.874 -0.8579  2.6522  0.6288
 3052SOL    HW311975   1.895   0.964   0.856 -0.0593 -1.7789 -1.1534
 3052SOL    MW411976   1.970   0.944   0.894  0.0625  0.8618  0.2006
 3053SOL     OW11977   5.018   4.776   4.079  0.3467 -0.7072 -0.0739
 3053SOL    HW211978   4.999   4.813   3.993  2.2126 -2.3385 -1.2779
 3053SOL    HW311979   5.021   4.681   4.064  1.8805 -0.9585  1.5172
 3053SOL    MW411980   5.016   4.768   4.066  0.7953 -0.9555 -0.0228
 3054SOL     OW11981   1.161   2.364   1.934  0.1823  0.3397 -0.4069
 3054SOL    HW211982   1.254   2.342   1.928  0.0109 -1.2302  1.3915
 3054SOL    HW311983   1.154   2.412   2.017 -0.6614  0.0767 -0.3205
 3054SOL    MW411984   1.172   2.367   1.944  0.0484  0.0979 -0.1582
 3055SOL     OW11985   2.148   0.932   2.287 -0.1346 -0.3448  0.7798
 3055SOL    HW211986   2.078   0.918   2.223 -0.0763  0.6149  0.4998
 3055SOL    HW311987   2.223   0.887   2.249 -0.6882 -1.7727  1.2964
 3055SOL    MW411988   2.149   0.924   2.274 -0.1999 -0.4065  0.8110
 3056SOL     OW11989   5.055   2.932   4.055  0.1832 -0.8706  0.9048
 3056SOL    HW211990   5.025   2.891   4.136  0.3302  0.4728  1.6572
 3056SOL    HW311991   5.108   2.865   4.012 -2.1453 -2.6097  0.5238
 3056SOL    MW411992   5.058   2.918   4.060 -0.1046 -0.9228  0.9538
 3057SOL     OW11993   4.824   5.890   4.384 -0.3065  0.2842 -0.0874
 3057SOL    HW211994   4.901   5.841   4.411 -1.1429  0.2752  2.5664
 3057SOL    HW311995   4.756   5.822   4.372 -0.2139  0.3893 -1.3450
 3057SOL    MW411996   4.825   5.874   4.386 -0.4047  0.2969  0.0968
 3058SOL     OW11997   4.025   0.077   1.139  1.0134 -0.1336  0.0806
 3058SOL    HW211998   3.957   0.061   1.073  0.4984 -1.2202  0.8450
 3058SOL    HW311999   4.059   0.164   1.116  0.1629 -0.0478 -1.0074
 3058SOL    MW412000   4.020   0.087   1.127  0.8332 -0.2656  0.0379
 3059SOL     OW12001   6.245   1.974   4.800 -0.2411 -0.2063 -0.1759
 3059SOL    HW212002   6.331   2.008   4.775 -0.5829  1.4458  0.7354
 3059SOL    HW312003   6.265   1.895   4.852  1.0878  2.3246  3.6026
 3059SOL    MW412004   6.259   1.968   4.804 -0.1108  0.3456  0.4429
 3060SOL     OW12005   3.942   2.702   2.711  0.1840  0.2948 -0.3184
 3060SOL    HW212006   3.870   2.643   2.733 -0.2001 -0.4882 -3.2010
 3060SOL    HW312007   4.016   2.670   2.762 -1.4900  1.4688  3.1764
 3060SOL    MW412008   3.942   2.690   2.720 -0.0875  0.3464 -0.2377
 3061SOL     OW12009   0.409   5.191   5.338 -0.4061  0.0257 -0.0309
 3061SOL    HW212010   0.439   5.161   5.424  1.3227  0.9899 -0.2553
 3061SOL    HW312011   0.318   5.218   5.353 -0.4289 -0.6709  1.2780
 3061SOL    MW412012   0.401   5.191   5.352 -0.1810  0.0610  0.1122
 3062SOL     OW12013   4.153   0.088   5.870  0.6119 -0.0949  0.0286
 3062SOL    HW212014   4.159   0.022   5.802  1.5911  0.4050 -0.3968
 3062SOL    HW312015   4.132   0.169   5.823  2.5591  0.5138  0.1146
 3062SOL    MW412016   4.151   0.090   5.855  0.9980  0.0514 -0.0162
 3063SOL     OW12017   2.360   1.703   2.062 -0.5471  0.4424 -0.1130
 3063SOL    HW212018   2.373   1.608   2.069  0.1647  0.4595 -0.9691
 3063SOL    HW312019   2.279   1.712   2.011 -0.0667  0.2767 -0.9222
 3063SOL    MW412020   2.351   1.692   2.056 -0.3898  0.4228 -0.3327
 3064SOL     OW12021   5.230   1.103   4.937  0.3987 -0.3390 -0.4818
 3064SOL    HW212022   5.190   1.100   5.023 -1.4637  2.3890 -1.1244
 3064SOL    HW312023   5.323   1.121   4.954  0.4235 -1.6466  0.9378
 3064SOL    MW412024   5.237   1.105   4.950  0.1563 -0.1516 -0.3793
 3065SOL     OW12025   5.646   3.368   0.390  0.2629  0.0848  0.1031
 3065SOL    HW212026   5.715   3.373   0.456 -0.1381 -1.4036  0.6795
 3065SOL    HW312027   5.565   3.388   0.437  0.1511  0.5853 -0.2926
 3065SOL    MW412028   5.644   3.372   0.405  0.1953 -0.0456  0.1269
 3066SOL     OW12029   2.564   4.445   2.649 -0.0368  0.6532  0.3679
 3066SOL    HW212030   2.513   4.424   2.571  0.1329  1.3169  0.0672
 3066SOL    HW312031   2.654   4.425   2.625 -0.0927 -0.0375  0.7234
 3066SOL    MW412032   2.569   4.440   2.635 -0.0217  0.6496  0.3752
 3067SOL     OW12033   1.054   3.936   5.169 -0.2086 -0.0599  0.0073
 3067SOL    HW212034   1.118   3.929   5.239 -0.1266 -0.9085 -0.1369
 3067SOL    HW312035   1.065   3.856   5.118 -1.3949 -0.2395 -0.0039
 3067SOL    MW412036   1.064   3.924   5.171 -0.3543 -0.1956 -0.0132
 3068SOL     OW12037   2.403   0.599   2.864 -0.5881  0.1392 -0.3103
 3068SOL    HW212038   2.389   0.509   2.834  0.1249 -0.2126  0.3720
 3068SOL    HW312039   2.343   0.652   2.812 -0.7420 -0.6885 -0.9863
 3068SOL    MW412040   2.394   0.594   2.854 -0.5143 -0.0164 -0.3094
 3069SOL     OW12041   3.026   6.280   0.247  0.5200 -0.2056  0.0761
 3069SOL    HW212042   3.041   6.340   0.320  1.4961 -0.6880  0.2844
 3069SOL    HW312043   3.107   6.283   0.196  0.0879 -0.3666 -0.6301
 3069SOL    MW412044   3.039   6.288   0.250  0.5918 -0.2905  0.0104
 3070SOL     OW12045   6.206   0.974   4.692 -0.2383  0.5145  0.4267
 3070SOL    HW212046   6.204   1.011   4.604  0.2714  2.1964  1.0827
 3070SOL    HW312047   6.268   0.902   4.686 -2.9330 -1.8669 -1.4313
 3070SOL    MW412048   6.214   0.970   4.680 -0.5266  0.4222  0.2681
 3071SOL     OW12049   0.310   2.084   3.931  0.2658  0.5148  0.4087
 3071SOL    HW212050   0.246   2.034   3.980  0.2905 -1.4910 -1.4653
 3071SOL    HW312051   0.259   2.127   3.862  0.7468 -0.0011 -0.2785
 3071SOL    MW412052   0.295   2.083   3.928  0.3325  0.1821  0.0707
 3072SOL     OW12053   2.134   5.125   4.115 -0.6642  0.3083  0.2991
 3072SOL    HW212054   2.138   5.030   4.102 -1.7872  0.1025  1.2842
 3072SOL    HW312055   2.226   5.152   4.119 -0.3274 -0.7338  0.0325
 3072SOL    MW412056   2.147   5.116   4.114 -0.7679  0.1436  0.3939
 3073SOL     OW12057   5.657   0.252   4.689 -0.3933  0.4694  0.3988
 3073SOL    HW212058   5.738   0.300   4.705 -0.6589  1.0811 -0.0686
 3073SOL    HW312059   5.685   0.161   4.676  0.6132  1.1303 -2.9122
 3073SOL    MW412060   5.671   0.246   4.690 -0.2956  0.6373 -0.0997
 3074SOL     OW12061   4.650   6.403   0.981 -0.0049  0.0798  0.3837
 3074SOL    HW212062   4.687   6.329   0.933  0.0124 -0.3277  1.0122
 3074SOL    HW312063   4.572   6.428   0.931  0.0844 -0.2571  0.0781
 3074SOL    MW412064   4.645   6.397   0.968  0.0092 -0.0184  0.4263
 3075SOL     OW12065   4.472   3.869   5.707 -0.0572 -0.2456 -0.0810
 3075SOL    HW212066   4.511   3.787   5.738 -0.5051 -0.9159 -1.2074
 3075SOL    HW312067   4.540   3.908   5.651 -0.7146 -1.0929 -1.5221
 3075SOL    MW412068   4.486   3.863   5.703 -0.2030 -0.4458 -0.4198
 3076SOL     OW12069   3.358   6.215   2.407  0.0413 -0.0431  0.0202
 3076SOL    HW212070   3.451   6.196   2.420  0.1739 -0.4885 -1.3573
 3076SOL    HW312071   3.355   6.265   2.326 -0.6339  3.1174  1.8374
 3076SOL    MW412072   3.370   6.219   2.398 -0.0303  0.3151  0.0782
 3077SOL     OW12073   2.453   0.949   1.504  0.2323 -0.0465 -0.3434
 3077SOL    HW212074   2.405   0.918   1.428 -1.9406  0.6234  0.6701
 3077SOL    HW312075   2.417   1.036   1.522  1.7966  0.4767  0.5455
 3077SOL    MW412076   2.442   0.956   1.497  0.1520  0.1109 -0.0924
 3078SOL     OW12077   2.025   5.989   1.942  0.1148  0.2572 -0.0315
 3078SOL    HW212078   1.949   5.972   1.886 -0.8346  3.5142  0.0907
 3078SOL    HW312079   1.987   6.015   2.027  1.2931  2.0280  0.0064
 3078SOL    MW412080   2.010   5.990   1.946  0.1450  0.9205 -0.0104
 3079SOL     OW12081   5.808   5.311   4.192  0.3030 -0.8102  0.4683
 3079SOL    HW212082   5.809   5.217   4.208 -3.0004 -1.6330 -2.7336
 3079SOL    HW312083   5.764   5.348   4.269  0.8248 -1.9665  1.3480
 3079SOL    MW412084   5.802   5.303   4.204 -0.0640 -1.0713  0.1619
 3080SOL     OW12085   2.674   4.266   3.171 -0.1741  0.5122  0.1255
 3080SOL    HW212086   2.721   4.198   3.220 -1.0336  1.7128  2.7879
 3080SOL    HW312087   2.735   4.340   3.168 -0.1955  0.5106 -0.5116
 3080SOL    MW412088   2.688   4.267   3.177 -0.2903  0.6704  0.3927
 3081SOL     OW12089   0.276   6.319   0.589  0.3972 -0.2183 -0.0243
 3081SOL    HW212090   0.191   6.306   0.549 -0.1635 -0.2000  1.1223
 3081SOL    HW312091   0.298   6.235   0.629  0.6111 -0.0357  0.2489
 3081SOL    MW412092   0.268   6.307   0.589  0.3515 -0.1918  0.1630
 3082SOL     OW12093   2.542   2.631   4.835  0.5216 -0.9708  1.0348
 3082SOL    HW212094   2.541   2.591   4.922 -1.0775 -0.1105  1.4530
 3082SOL    HW312095   2.460   2.679   4.830  0.1203 -1.7632 -1.3264
 3082SOL    MW412096   2.531   2.632   4.846  0.2577 -0.9619  0.7785
 3083SOL     OW12097   1.086   5.078   6.360 -0.2191 -0.5117  0.1166
 3083SOL    HW212098   1.033   5.013   6.406 -1.4233 -0.1617 -0.7412
 3083SOL    HW312099   1.066   5.161   6.403 -2.1482 -0.0089 -1.6120
 3083SOL    MW412100   1.076   5.080   6.372 -0.6325 -0.3992 -0.2247
 3084SOL     OW12101   4.299   4.086   2.428  0.5032  0.6358 -0.0612
 3084SOL    HW212102   4.242   4.077   2.351 -0.6375  1.9318  0.5745
 3084SOL    HW312103   4.349   4.005   2.430 -0.9000 -0.3162 -1.0157
 3084SOL    MW412104   4.298   4.074   2.418  0.1676  0.6812 -0.1032
 3085SOL     OW12105   2.801   5.691   2.711  0.3235  0.1077  0.1647
 3085SOL    HW212106   2.870   5.712   2.649 -1.0848  0.7362 -1.2510
 3085SOL    HW312107   2.784   5.598   2.699 -1.3926  0.6185 -2.0296
 3085SOL    MW412108   2.808   5.682   2.701 -0.0887  0.2580 -0.3116
 3086SOL     OW12109   1.040   4.261   2.461  0.3876 -0.1272  0.1359
 3086SOL    HW212110   1.072   4.320   2.529 -1.3986 -0.3243  1.2083
 3086SOL    HW312111   1.109   4.262   2.394  2.3851 -0.2127  2.0657
 3086SOL    MW412112   1.054   4.269   2.461  0.4155 -0.1645  0.5320
 3087SOL     OW12113   0.639   2.214   3.146 -0.0997  0.6868 -0.1653
 3087SOL    HW212114   0.723   2.243   3.183  0.8619 -2.6248  0.5945
 3087SOL    HW312115   0.579   2.213   3.221  0.5655 -1.4788  0.4144
 3087SOL    MW412116   0.643   2.217   3.161  0.1149 -0.0358  0.0115
 3088SOL     OW12117   0.280   5.937   6.274 -0.0656 -0.1766  0.1797
 3088SOL    HW212118   0.192   5.929   6.311 -0.4949  0.4608 -0.6795
 3088SOL    HW312119   0.310   6.024   6.301  0.8227 -0.8809  1.5423
 3088SOL    MW412120   0.272   5.947   6.282 -0.0051 -0.1855  0.2461
 3089SOL     OW12121   1.418   1.557   0.998 -0.7143  0.1803 -0.6124
 3089SOL    HW212122   1.326   1.583   1.000 -0.5579  0.6879  0.5606
 3089SOL    HW312123   1.416   1.461   1.005 -1.1543  0.1840 -0.6737
 3089SOL    MW412124   1.406   1.548   0.999 -0.7517  0.2478 -0.4657
 3090SOL     OW12125   2.098   6.181   5.593 -0.1558  0.0071 -0.0199
 3090SOL    HW212126   2.099   6.236   5.672  0.6497  0.5862 -0.4244
 3090SOL    HW312127   2.096   6.091   5.627 -0.9677  0.2559  0.6497
 3090SOL    MW412128   2.098   6.176   5.608 -0.1567  0.1163  0.0151
 3091SOL     OW12129   4.831   3.981   5.023  0.0511 -0.4883 -0.4698
 3091SOL    HW212130   4.854   3.914   5.088 -1.3540 -0.9308 -0.3915
 3091SOL    HW312131   4.858   4.063   5.064  0.7600 -0.9114 -0.0711
 3091SOL    MW412132   4.837   3.983   5.037 -0.0408 -0.6025 -0.4069
 3092SOL     OW12133   0.957   5.268   0.655 -0.3086 -0.2674 -0.9415
 3092SOL    HW212134   1.016   5.330   0.613  0.7405 -1.3809 -1.1389
 3092SOL    HW312135   0.874   5.316   0.663  0.9189  1.7563  0.4655
 3092SOL    MW412136   0.954   5.283   0.651 -0.0082 -0.1473 -0.7819
 3093SOL     OW12137   0.939   2.611   1.206 -0.4853 -0.0446 -0.9863
 3093SOL    HW212138   0.936   2.633   1.112 -1.5379 -1.3069 -1.2677
 3093SOL    HW312139   0.984   2.527   1.210  0.1628  0.3288 -0.2824
 3093SOL    MW412140   0.945   2.603   1.194 -0.5387 -0.1619 -0.9306
 3094SOL     OW12141   0.904   3.167   6.062  0.4471 -0.2469  0.3421
 3094SOL    HW212142   0.950   3.179   6.145 -0.1778  2.4204  0.3695
 3094SOL    HW312143   0.812   3.152   6.087  0.5961 -1.5812  0.1622
 3094SOL    MW412144   0.898   3.166   6.076  0.3843 -0.0710  0.3220
 3095SOL     OW12145   2.062   3.140   2.711 -0.5246  0.2408 -0.4091
 3095SOL    HW212146   2.064   3.091   2.629 -0.9612 -0.7213  0.1322
 3095SOL    HW312147   2.129   3.207   2.701 -0.1232 -0.2753 -1.2982
 3095SOL    MW412148   2.071   3.142   2.699 -0.5292  0.0458 -0.4550
 3096SOL     OW12149   5.031   1.941   0.090  0.3133  0.0354 -0.5742
 3096SOL    HW212150   5.029   2.012   0.154  0.8081  1.3567 -1.9747
 3096SOL    HW312151   5.098   1.967   0.027 -0.2535 -1.1507 -1.7226
 3096SOL    MW412152   5.040   1.954   0.090  0.3038  0.0532 -0.9105
 3097SOL     OW12153   5.977   2.060   4.728 -0.1557  0.8292 -0.2483
 3097SOL    HW212154   6.071   2.059   4.746  0.0616  0.5751 -1.3777
 3097SOL    HW312155   5.937   2.031   4.810  0.8327 -0.7711 -0.2985
 3097SOL    MW412156   5.984   2.056   4.741  0.0034  0.5845 -0.4039
 3098SOL     OW12157   1.676   4.989   5.439  0.2900  0.0351 -0.2560
 3098SOL    HW212158   1.667   4.933   5.362 -0.8867  0.4960 -0.4772
 3098SOL    HW312159   1.587   5.004   5.468  0.5366  2.0275 -0.3785
 3098SOL    MW412160   1.663   4.984   5.432  0.1673  0.3588 -0.3013
 3099SOL     OW12161   2.677   4.308   0.176 -0.2197  0.1505  0.6435
 3099SOL    HW212162   2.635   4.306   0.262  1.7802 -0.1669  1.6836
 3099SOL    HW312163   2.693   4.400   0.158 -0.1284  0.1820  0.8862
 3099SOL    MW412164   2.674   4.320   0.185  0.0562  0.1128  0.8127
 3100SOL     OW12165   6.316   0.373   1.856  0.3357 -0.1766  0.2357
 3100SOL    HW212166   6.328   0.366   1.950 -0.7385 -1.1218  0.3314
 3100SOL    HW312167   6.401   0.348   1.819  1.0212  1.0124  0.9408
 3100SOL    MW412168   6.329   0.369   1.863  0.2844 -0.1444  0.3414
 3101SOL     OW12169   0.109   1.846   1.543  0.4285 -0.0696 -0.6381
 3101SOL    HW212170   0.166   1.911   1.585 -1.5861  0.8449  0.8043
 3101SOL    HW312171   0.028   1.849   1.593 -1.6314  0.0241 -3.7269
 3101SOL    MW412172   0.106   1.855   1.555 -0.1091  0.0634 -0.8553
 3102SOL     OW12173   4.547   3.353   1.358 -0.3657  1.0247  0.2574
 3102SOL    HW212174   4.556   3.284   1.292 -3.1223  0.6337  0.1658
 3102SOL    HW312175   4.521   3.430   1.308 -3.1799  0.5544  0.8211
 3102SOL    MW412176   4.544   3.354   1.343 -1.1007  0.9111  0.3197
 3103SOL     OW12177   5.654   6.422   5.542 -0.3101 -0.3365  0.4353
 3103SOL    HW212178   5.629   6.513   5.560 -0.9197 -0.2618 -0.6999
 3103SOL    HW312179   5.675   6.385   5.628 -0.4761  0.7558  0.9554
 3103SOL    MW412180   5.654   6.429   5.556 -0.4124 -0.1825  0.3542
 3104SOL     OW12181   4.903   5.455   4.459  0.3808  0.6686  0.1457
 3104SOL    HW212182   4.859   5.417   4.383  0.3126 -0.1026  0.5622
 3104SOL    HW312183   4.976   5.505   4.422  1.0659 -0.6631 -0.3831
 3104SOL    MW412184   4.907   5.457   4.444  0.4622  0.3912  0.1309
 3105SOL     OW12185   1.560   1.204   3.749 -0.1348 -0.0261 -0.9169
 3105SOL    HW212186   1.546   1.256   3.670 -0.8531  2.2084  0.6045
 3105SOL    HW312187   1.476   1.209   3.796  1.0407  0.9265  1.2030
 3105SOL    MW412188   1.547   1.211   3.745 -0.0745  0.3944 -0.4364
 3106SOL     OW12189   5.265   4.363   4.134 -0.6656 -0.3037 -0.2747
 3106SOL    HW212190   5.214   4.292   4.095  1.2274 -1.4859 -0.6821
 3106SOL    HW312191   5.332   4.320   4.186 -0.5165  1.2237  0.8709
 3106SOL    MW412192   5.267   4.348   4.136 -0.3962 -0.2581 -0.1773
 3107SOL     OW12193   5.487   3.082   0.325  0.8938 -0.3972  0.1322
 3107SOL    HW212194   5.449   3.161   0.286  1.8007 -0.3862 -0.7714
 3107SOL    HW312195   5.540   3.115   0.397  0.9860 -0.2163 -0.0181
 3107SOL    MW412196   5.489   3.097   0.330  1.0256 -0.3719 -0.0068
 3108SOL     OW12197   0.822   5.800   2.328  0.3287  0.1307  0.2520
 3108SOL    HW212198   0.876   5.721   2.326 -0.1648 -0.1997 -0.2138
 3108SOL    HW312199   0.765   5.788   2.404  0.5239  0.2210  0.4127
 3108SOL    MW412200   0.822   5.788   2.338  0.2894  0.0990  0.2117
 3109SOL     OW12201   1.837   3.133   0.124 -0.1088  0.2561 -0.2241
 3109SOL    HW212202   1.831   3.066   0.056 -0.1208 -1.7168  1.5693
 3109SOL    HW312203   1.888   3.204   0.085  0.1478 -0.9157 -2.1498
 3109SOL    MW412204   1.843   3.133   0.110 -0.0765 -0.1588 -0.2416
 3110SOL     OW12205   4.467   5.563   1.557  0.4369  0.4456 -0.1269
 3110SOL    HW212206   4.482   5.656   1.540  0.3150  0.7258  1.1946
 3110SOL    HW312207   4.542   5.536   1.611  0.5773 -0.2790 -0.6685
 3110SOL    MW412208   4.479   5.572   1.562  0.4393  0.3870 -0.0240
 3111SOL     OW12209   2.634   4.085   5.725  0.0455  0.1630 -1.1556
 3111SOL    HW212210   2.715   4.062   5.680  0.6784  0.8943 -0.4122
 3111SOL    HW312211   2.642   4.178   5.743 -1.0325  0.2733 -1.2016
 3111SOL    MW412212   2.646   4.094   5.721 -0.0132  0.2740 -1.0636
 3112SOL     OW12213   0.584   4.742   5.052 -0.2300 -0.4520 -0.1412
 3112SOL    HW212214   0.641   4.678   5.095 -0.0058 -0.6513 -0.7226
 3112SOL    HW312215   0.592   4.820   5.106  0.5913 -0.4804 -0.2015
 3112SOL    MW412216   0.593   4.744   5.065 -0.0921 -0.4821 -0.2259
 3113SOL     OW12217   3.602   2.544   5.968  0.0459 -0.1667  0.2564
 3113SOL    HW212218   3.662   2.591   6.026  0.8665  1.2430 -1.6250
 3113SOL    HW312219   3.658   2.495   5.909 -0.3665  2.4880 -2.6443
 3113SOL    MW412220   3.617   2.544   5.968  0.0998  0.3696 -0.3746
 3114SOL     OW12221   3.276   3.849   5.714  0.5363 -0.4611 -0.2969
 3114SOL    HW212222   3.222   3.843   5.793  1.0830  0.3688  0.1647
 3114SOL    HW312223   3.363   3.871   5.747  0.3256  2.0935 -1.2431
 3114SOL    MW412224   3.281   3.851   5.729  0.5806 -0.0146 -0.3609
 3115SOL     OW12225   0.157   2.795   4.159 -0.0872 -0.4193 -0.3196
 3115SOL    HW212226   0.141   2.789   4.253 -0.7683 -0.1056 -0.4075
 3115SOL    HW312227   0.211   2.719   4.139 -1.9951 -1.9242 -0.0804
 3115SOL    MW412228   0.162   2.784   4.169 -0.4288 -0.5765 -0.2997
 3116SOL     OW12229   3.657   0.768   1.591  0.1241 -0.2406 -0.0421
 3116SOL    HW212230   3.752   0.772   1.600 -0.0262  0.5780  1.4469
 3116SOL    HW312231   3.627   0.721   1.669 -0.8268  1.4179  0.6388
 3116SOL    MW412232   3.665   0.762   1.602 -0.0212  0.0862  0.2442
 3117SOL     OW12233   3.044   2.322   5.463 -0.5790 -0.1034 -0.7833
 3117SOL    HW212234   3.033   2.359   5.375 -0.1526  2.4093  0.1145
 3117SOL    HW312235   3.136   2.296   5.466 -0.5933 -0.1934 -1.0839
 3117SOL    MW412236   3.055   2.324   5.452 -0.5246  0.2162 -0.7045
 3118SOL     OW12237   0.134   0.735   1.836  0.0343  0.5170 -0.1970
 3118SOL    HW212238   0.039   0.722   1.832 -0.1848  1.9837 -0.3975
 3118SOL    HW312239   0.156   0.722   1.929 -0.4890  0.9514 -0.0114
 3118SOL    MW412240   0.124   0.731   1.848 -0.0637  0.7679 -0.1990
 3119SOL     OW12241   0.108   4.931   3.803 -0.0780  0.4161 -0.4447
 3119SOL    HW212242   0.160   5.008   3.781  0.1854  0.2733 -0.3355
 3119SOL    HW312243   0.118   4.873   3.728  0.2117  0.2400 -0.2704
 3119SOL    MW412244   0.116   4.934   3.791 -0.0050  0.3740 -0.4073
 3120SOL     OW12245   1.977   3.371   6.451  0.3694 -0.0979  0.5234
 3120SOL    HW212246   1.933   3.437   6.505 -1.3740 -1.5569  0.9899
 3120SOL    HW312247   1.939   3.382   6.364  1.1073  0.3889  0.2466
 3120SOL    MW412248   1.966   3.381   6.447  0.2367 -0.2262  0.5484
 3121SOL     OW12249   0.792   3.640   3.661 -0.1299  0.0320  0.7038
 3121SOL    HW212250   0.750   3.580   3.600  1.0112 -0.1800  0.0916
 3121SOL    HW312251   0.850   3.693   3.606  1.2588 -0.4586  1.6359
 3121SOL    MW412252   0.794   3.639   3.645  0.2039 -0.0607  0.7460
 3122SOL     OW12253   3.689   0.647   6.370  0.4660  0.4749  0.1199
 3122SOL    HW212254   3.629   0.608   6.433 -1.3672  0.7227 -1.3795
 3122SOL    HW312255   3.671   0.741   6.374 -0.6547  0.3820 -1.6525
 3122SOL    MW412256   3.679   0.654   6.379  0.0763  0.4953 -0.3117
 3123SOL     OW12257   3.003   3.417   3.625  0.2941  0.0502  0.2810
 3123SOL    HW212258   2.963   3.332   3.605  1.4258 -0.6118  0.7639
 3123SOL    HW312259   2.977   3.473   3.552 -1.0170 -0.5097  0.2793
 3123SOL    MW412260   2.994   3.413   3.613  0.2704 -0.1110  0.3445
 3124SOL     OW12261   1.959   2.768   3.578  0.7807 -0.1901  0.5452
 3124SOL    HW212262   1.876   2.723   3.567  0.4177  0.8957 -1.8677
 3124SOL    HW312263   2.015   2.706   3.625 -1.4810 -0.7429  2.7240
 3124SOL    MW412264   1.956   2.754   3.583  0.4344 -0.1197  0.5143
 3125SOL     OW12265   2.894   0.628   2.938 -0.1537 -0.1085 -0.7229
 3125SOL    HW212266   2.960   0.614   2.870  0.6272  0.0774 -0.0240
 3125SOL    HW312267   2.945   0.649   3.017 -0.8699 -3.0859  0.6508
 3125SOL    MW412268   2.909   0.629   2.940 -0.1452 -0.4768 -0.4494
 3126SOL     OW12269   5.218   1.027   6.147 -0.3499  0.0503  0.1004
 3126SOL    HW212270   5.198   0.963   6.078 -1.3610  0.6620 -0.2078
 3126SOL    HW312271   5.266   0.977   6.213  3.6219  0.1025 -2.4368
 3126SOL    MW412272   5.222   1.012   6.146  0.0407  0.1379 -0.2750
 3127SOL     OW12273   1.802   1.089   2.381 -0.0101 -0.2642  0.2174
 3127SOL    HW212274   1.742   1.047   2.442 -2.0603  1.9620 -0.1117
 3127SOL    HW312275   1.765   1.176   2.366  1.5450  0.0634 -2.5565
 3127SOL    MW412276   1.790   1.095   2.387 -0.0754  0.0727 -0.1920
 3128SOL     OW12277   1.738   1.439   2.003  0.2050 -0.0386 -0.0256
 3128SOL    HW212278   1.833   1.446   1.997  0.3734 -0.1226  1.9657
 3128SOL    HW312279   1.721   1.345   2.005  0.4312 -0.1133  3.0685
 3128SOL    MW412280   1.748   1.428   2.002  0.2570 -0.0595  0.6453
 3129SOL     OW12281   2.111   4.922   5.270  0.4120  0.0101 -0.9131
 3129SOL    HW212282   2.167   4.946   5.197  0.2113  0.8134 -0.8129
 3129SOL    HW312283   2.172   4.892   5.338  1.0278  3.1677  0.1202
 3129SOL    MW412284   2.127   4.922   5.270  0.4668  0.5327 -0.7635
 3130SOL     OW12285   4.930   5.729   2.903 -0.1515 -0.5143 -0.2761
 3130SOL    HW212286   4.880   5.803   2.936 -1.9567 -1.6817 -0.2526
 3130SOL    HW312287   4.903   5.656   2.959  1.9504 -1.1315  0.0227
 3130SOL    MW412288   4.920   5.729   2.915 -0.1124 -0.7498 -0.2336
 3131SOL     OW12289   3.528   4.497   4.403  0.3675  0.3470  0.0981
 3131SOL    HW212290   3.579   4.445   4.341  1.6972  0.8759  0.7034
 3131SOL    HW312291   3.527   4.443   4.483  0.0568  0.3818  0.1171
 3131SOL    MW412292   3.535   4.483   4.405  0.5020  0.4213  0.1805
 3132SOL     OW12293   3.030   4.330   2.096 -0.3441  0.0207 -0.1613
 3132SOL    HW212294   3.111   4.378   2.116 -0.4195  0.4252 -0.7869
 3132SOL    HW312295   3.052   4.276   2.020 -0.0328 -1.5677  1.0105
 3132SOL    MW412296   3.044   4.330   2.089 -0.3130 -0.1355 -0.0893
 3133SOL     OW12297   4.921   0.318   5.171 -0.0238  0.3761 -0.2709
 3133SOL    HW212298   4.856   0.248   5.179 -1.8350  1.7009 -2.3125
 3133SOL    HW312299   4.874   0.397   5.197  1.3366  1.1327 -0.0504
 3133SOL    MW412300   4.906   0.319   5.175 -0.0833  0.6507 -0.5112
 3134SOL     OW12301   4.161   6.270   5.731  0.2943  0.6490 -0.2559
 3134SOL    HW212302   4.255   6.289   5.732  0.1853  1.2042  0.1091
 3134SOL    HW312303   4.145   6.234   5.644  1.0659 -0.6671  0.1203
 3134SOL    MW412304   4.171   6.268   5.719  0.3817  0.5486 -0.1581
 3135SOL     OW12305   3.151   1.161   5.710 -0.2242 -0.3142  0.0553
 3135SOL    HW212306   3.108   1.244   5.734 -2.2343 -1.0424 -0.8443
 3135SOL    HW312307   3.220   1.187   5.649 -0.8276  0.7200 -0.2118
 3135SOL    MW412308   3.154   1.176   5.705 -0.5690 -0.2738 -0.0986
 3136SOL     OW12309   0.431   1.645   6.206 -0.2268  0.1960 -0.2283
 3136SOL    HW212310   0.414   1.563   6.253  0.9155  0.3744  0.5386
 3136SOL    HW312311   0.485   1.696   6.266 -1.0264  1.5741 -0.6474
 3136SOL    MW412312   0.436   1.641   6.220 -0.1816  0.4014 -0.1824
 3137SOL     OW12313   2.499   1.472   5.727 -0.1756 -0.0290 -0.4369
 3137SOL    HW212314   2.516   1.518   5.645 -1.2212  1.0437 -0.0754
 3137SOL    HW312315   2.411   1.436   5.717  0.0196 -0.6034 -0.1077
 3137SOL    MW412316   2.490   1.473   5.715 -0.2878  0.0368 -0.3458
 3138SOL     OW12317   0.234   1.205   4.240  0.3331  0.5003  0.2549
 3138SOL    HW212318   0.256   1.284   4.190  0.5923  1.5170  1.8837
 3138SOL    HW312319   0.161   1.166   4.193 -0.3475  2.1713 -0.1551
 3138SOL    MW412320   0.227   1.210   4.228  0.2775  0.8549  0.4157
 3139SOL     OW12321   3.145   1.946   2.696 -0.4553 -0.2609 -0.3733
 3139SOL    HW212322   3.221   1.950   2.638 -0.6187 -0.7081 -0.6210
 3139SOL    HW312323   3.069   1.945   2.637 -0.6495 -0.0676 -0.1333
 3139SOL    MW412324   3.145   1.947   2.681 -0.5025 -0.2944 -0.3743
 3140SOL     OW12325   5.314   6.436   6.037 -0.6032 -0.3053 -0.5573
 3140SOL    HW212326   5.312   6.352   5.991 -2.5713 -1.1494  0.9127
 3140SOL    HW312327   5.388   6.483   5.999  1.5315 -3.2783 -0.4015
 3140SOL    MW412328   5.324   6.431   6.026 -0.5813 -0.8089 -0.3428
 3141SOL     OW12329   4.851   3.128   2.606  0.6517 -0.0510  0.1702
 3141SOL    HW212330   4.886   3.138   2.695  1.3368 -2.2565  0.1975
 3141SOL    HW312331   4.907   3.061   2.565 -1.0431 -0.7274 -1.1683
 3141SOL    MW412332   4.863   3.121   2.612  0.5185 -0.4313 -0.0028
 3142SOL     OW12333   2.095   3.378   5.639 -0.2036  0.0210  0.0814
 3142SOL    HW212334   2.132   3.379   5.550 -0.6798 -0.8700 -0.1380
 3142SOL    HW312335   2.135   3.302   5.681 -0.0128  0.4146  0.6266
 3142SOL    MW412336   2.105   3.368   5.633 -0.2413 -0.0446  0.1244
 3143SOL     OW12337   1.584   4.788   1.425 -0.4321 -0.1705  0.0811
 3143SOL    HW212338   1.501   4.828   1.452  0.6930  1.1903  1.7224
 3143SOL    HW312339   1.583   4.792   1.330 -1.6065  1.2031  0.1229
 3143SOL    MW412340   1.573   4.794   1.416 -0.4386  0.1903  0.3031
 3144SOL     OW12341   6.051   0.813   6.424 -0.1715 -0.2831 -0.3815
 3144SOL    HW212342   6.063   0.908   6.414 -0.6505  0.0010  1.4527
 3144SOL    HW312343   6.029   0.801   6.516 -4.6300 -1.7028 -1.3910
 3144SOL    MW412344   6.050   0.824   6.435 -0.8229 -0.4329 -0.2727
 3145SOL     OW12345   4.834   3.097   2.080  0.2825  0.0249  0.2483
 3145SOL    HW212346   4.806   3.122   2.168  1.4758  1.6350  0.2214
 3145SOL    HW312347   4.764   3.041   2.047 -1.8044  2.0652  0.9684
 3145SOL    MW412348   4.821   3.093   2.087  0.1646  0.5065  0.3397
 3146SOL     OW12349   0.963   0.421   4.753 -0.1386 -0.0986  0.2327
 3146SOL    HW212350   1.036   0.408   4.813 -0.1249  2.0452  0.7527
 3146SOL    HW312351   0.982   0.363   4.679  1.7875 -0.0204  0.6173
 3146SOL    MW412352   0.975   0.411   4.751  0.1174  0.1946  0.3520
 3147SOL     OW12353   4.654   5.485   5.045  0.0110  0.3995  0.3979
 3147SOL    HW212354   4.651   5.499   5.139 -1.1629  0.9923  0.2854
 3147SOL    HW312355   4.593   5.549   5.009  1.2465  0.9242 -0.8619
 3147SOL    MW412356   4.645   5.495   5.053  0.0191  0.5470  0.2168
 3148SOL     OW12357   3.583   3.144   0.117  0.0673 -0.3878 -0.2088
 3148SOL    HW212358   3.543   3.142   0.030 -1.5859 -0.2332  0.5074
 3148SOL    HW312359   3.658   3.203   0.108  1.5630 -2.4083 -2.1424
 3148SOL    MW412360   3.587   3.152   0.105  0.0465 -0.6340 -0.3695
 3149SOL     OW12361   1.774   1.722   4.617  0.6226 -0.0400 -0.0338
 3149SOL    HW212362   1.784   1.717   4.522 -0.6779  0.5407 -0.2195
 3149SOL    HW312363   1.699   1.665   4.636  1.5578 -1.0496  0.7952
 3149SOL    MW412364   1.765   1.714   4.607  0.5744 -0.0966  0.0511
 3150SOL     OW12365   1.752   6.262   4.183 -0.0212  0.0320  0.0361
 3150SOL    HW212366   1.817   6.332   4.190  0.4272 -0.4071  0.2680
 3150SOL    HW312367   1.789   6.201   4.119 -0.6001  0.2051 -0.4794
 3150SOL    MW412368   1.765   6.263   4.175 -0.0384 -0.0031 -0.0013
 3151SOL     OW12369   5.841   0.494   4.695 -0.5134  0.7250 -0.3327
 3151SOL    HW212370   5.925   0.540   4.697 -0.7213  1.0877  0.2252
 3151SOL    HW312371   5.837   0.455   4.607  1.0726 -0.8859  0.2633
 3151SOL    MW412372   5.852   0.495   4.683 -0.3316  0.5603 -0.1804
 3152SOL     OW12373   1.734   5.470   5.021  0.2725  0.2950 -0.3272
 3152SOL    HW212374   1.813   5.439   4.977  0.4012  0.7462 -0.4148
 3152SOL    HW312375   1.764   5.541   5.077 -0.0603  0.4118 -0.2962
 3152SOL    MW412376   1.749   5.475   5.022  0.2456  0.3699 -0.3347
 3153SOL     OW12377   2.009   6.065   4.665 -0.4673  0.0733  0.2730
 3153SOL    HW212378   2.068   5.996   4.634 -0.4067 -1.2563  3.0673
 3153SOL    HW312379   1.923   6.022   4.672 -0.7716  0.7161  0.5821
 3153SOL    MW412380   2.005   6.050   4.661 -0.4995 -0.0173  0.6825
 3154SOL     OW12381   3.138   5.129   1.226  0.2541  0.9258  0.4835
 3154SOL    HW212382   3.059   5.161   1.270 -0.7197  0.4969 -0.8794
 3154SOL    HW312383   3.112   5.121   1.134  1.5854 -0.2358  0.1816
 3154SOL    MW412384   3.124   5.132   1.220  0.3013  0.7159  0.2638
 3155SOL     OW12385   2.504   2.595   0.500 -0.4710 -0.6304  0.4417
 3155SOL    HW212386   2.495   2.549   0.584 -2.7844 -1.4582 -0.1844
 3155SOL    HW312387   2.451   2.674   0.511  0.7649  0.2311  0.3684
 3155SOL    MW412388   2.496   2.600   0.513 -0.6131 -0.6260  0.3495
 3156SOL     OW12389   4.921   2.304   5.591 -0.2241  0.1598  0.4216
 3156SOL    HW212390   4.896   2.392   5.619  0.8811 -0.0054  2.0990
 3156SOL    HW312391   4.856   2.280   5.525 -0.1689  2.4731 -0.5736
 3156SOL    MW412392   4.909   2.313   5.586 -0.0710  0.4433  0.5116
 3157SOL     OW12393   1.115   4.436   6.415 -0.1475 -0.2980 -0.0738
 3157SOL    HW212394   1.113   4.522   6.374 -0.1983  0.0514  0.6588
 3157SOL    HW312395   1.205   4.426   6.446  0.2776 -1.1405 -1.4512
 3157SOL    MW412396   1.127   4.446   6.413 -0.0981 -0.3630 -0.1589
 3158SOL     OW12397   4.069   0.708   2.382  0.6421  0.2528 -0.3279
 3158SOL    HW212398   4.156   0.670   2.365  1.4844 -0.0491  3.6677
 3158SOL    HW312399   4.008   0.635   2.369  1.4403 -0.5343  0.1684
 3158SOL    MW412400   4.073   0.693   2.378  0.8586  0.1091  0.2647
 3159SOL     OW12401   0.975   1.630   1.170  0.1326 -0.0538 -0.6817
 3159SOL    HW212402   1.011   1.590   1.091 -2.1769 -1.3220 -1.1709
 3159SOL    HW312403   0.945   1.557   1.223 -0.5794  0.8804  0.2445
 3159SOL    MW412404   0.976   1.615   1.167 -0.2661 -0.0979 -0.6241
 3160SOL     OW12405   1.243   6.008   4.049 -0.4438  0.4868  0.0910
 3160SOL    HW212406   1.284   5.974   4.129 -0.3234  1.2144  0.3517
 3160SOL    HW312407   1.265   5.944   3.981 -0.5706 -0.1571  0.6443
 3160SOL    MW412408   1.251   5.995   4.051 -0.4446  0.4979  0.1984
 3161SOL     OW12409   6.179   2.174   2.136 -0.6557 -0.4564 -0.3281
 3161SOL    HW212410   6.203   2.234   2.065 -1.5268  0.3039  0.0074
 3161SOL    HW312411   6.128   2.105   2.092 -1.8521  0.4172 -0.3471
 3161SOL    MW412412   6.175   2.173   2.121 -0.9285 -0.2408 -0.2863
 3162SOL     OW12413   6.154   0.573   4.000  0.1034 -0.1780  0.6616
 3162SOL    HW212414   6.234   0.605   4.041  0.5383  0.1571 -0.3983
 3162SOL    HW312415   6.163   0.478   4.000  0.8061 -0.1239  0.0013
 3162SOL    MW412416   6.165   0.565   4.005  0.2535 -0.1267  0.4346
 3163SOL     OW12417   3.298   2.252   3.402  0.3478 -0.0387 -0.5520
 3163SOL    HW212418   3.215   2.298   3.397  0.0344 -0.2846  1.4632
 3163SOL    HW312419   3.291   2.183   3.336 -2.1385 -1.6300  1.1610
 3163SOL    MW412420   3.286   2.249   3.393 -0.0216 -0.2811 -0.0601
 3164SOL     OW12421   4.415   4.740   4.295 -0.1427  0.0485  0.2856
 3164SOL    HW212422   4.459   4.690   4.226  0.0643 -0.2395  0.6238
 3164SOL    HW312423   4.425   4.832   4.269 -1.0157 -0.0998 -0.6290
 3164SOL    MW412424   4.422   4.746   4.283 -0.2305 -0.0091  0.2095
 3165SOL     OW12425   3.538   0.464   0.140  0.0210  0.8054  0.1320
 3165SOL    HW212426   3.588   0.382   0.137 -0.2358  0.6620 -0.2936
 3165SOL    HW312427   3.538   0.487   0.233  0.8699  0.8101  0.1414
 3165SOL    MW412428   3.544   0.456   0.152  0.0991  0.7871  0.0771
 3166SOL     OW12429   2.555   1.103   4.106 -0.2154 -0.1356 -0.6200
 3166SOL    HW212430   2.568   1.146   4.022 -1.1782  0.2319 -0.5874
 3166SOL    HW312431   2.594   1.162   4.170 -1.1375  0.4900 -0.6216
 3166SOL    MW412432   2.562   1.116   4.103 -0.4641 -0.0046 -0.6159
 3167SOL     OW12433   1.860   4.520   4.056 -0.1545  0.0505 -0.0860
 3167SOL    HW212434   1.797   4.448   4.049  0.6204 -0.6248 -0.3530
 3167SOL    HW312435   1.839   4.562   4.139  0.0761 -1.1896  0.6320
 3167SOL    MW412436   1.849   4.516   4.066 -0.0219 -0.2022 -0.0265
 3168SOL     OW12437   3.202   3.680   5.503 -0.3727 -0.0987 -0.2594
 3168SOL    HW212438   3.255   3.714   5.431 -1.3263 -0.3794 -1.1125
 3168SOL    HW312439   3.218   3.741   5.575  0.5632  0.2148 -0.7181
 3168SOL    MW412440   3.211   3.693   5.503 -0.3750 -0.0944 -0.4325
 3169SOL     OW12441   2.027   6.376   0.633 -0.1290  0.3581  0.1173
 3169SOL    HW212442   1.975   6.334   0.701 -1.7958 -0.5033 -1.6131
 3169SOL    HW312443   2.091   6.310   0.606  0.1590  0.5061  0.4212
 3169SOL    MW412444   2.029   6.362   0.638 -0.3109  0.2640 -0.0709
 3170SOL     OW12445   4.830   5.796   5.210  0.1262 -0.5272 -0.3498
 3170SOL    HW212446   4.868   5.790   5.122  1.0101 -3.6618  0.1031
 3170SOL    HW312447   4.902   5.771   5.268 -0.6318  0.8405  1.2370
 3170SOL    MW412448   4.844   5.792   5.206  0.1428 -0.7603 -0.0807
 3171SOL     OW12449   4.108   5.797   1.684 -0.3664 -0.1394 -0.8022
 3171SOL    HW212450   4.136   5.816   1.774  0.2071  0.0430 -1.0186
 3171SOL    HW312451   4.173   5.840   1.629 -1.1850  0.4710 -1.3160
 3171SOL    MW412452   4.120   5.805   1.689 -0.3987 -0.0348 -0.8986
 3172SOL     OW12453   0.150   2.135   6.220 -0.3479 -0.1856 -0.2898
 3172SOL    HW212454   0.188   2.089   6.295  0.0476  0.6994  0.0706
 3172SOL    HW312455   0.117   2.217   6.256 -0.7009 -0.0097 -0.9857
 3172SOL    MW412456   0.151   2.140   6.234 -0.3423 -0.0456 -0.3340
 3173SOL     OW12457   5.783   3.797   6.264  0.2560  0.7923 -0.0535
 3173SOL    HW212458   5.863   3.786   6.315  1.0448  0.7664 -1.2356
 3173SOL    HW312459   5.805   3.866   6.200 -0.1553 -0.2274 -1.3489
 3173SOL    MW412460   5.796   3.805   6.262  0.3058  0.6544 -0.3804
 3174SOL     OW12461   0.661   0.197   0.825 -0.2587  0.1496  0.6531
 3174SOL    HW212462   0.700   0.131   0.882  0.9973 -0.2207 -0.5786
 3174SOL    HW312463   0.569   0.170   0.816  0.2263 -1.4574  0.1742
 3174SOL    MW412464   0.654   0.185   0.831 -0.0290 -0.1113  0.4274
 3175SOL     OW12465   0.605   3.009   5.573 -0.1363 -0.0530  0.4322
 3175SOL    HW212466   0.543   3.034   5.642 -0.9753  0.6102 -0.5194
 3175SOL    HW312467   0.677   2.967   5.619  0.1298  1.8565  1.8842
 3175SOL    MW412468   0.606   3.007   5.588 -0.2119  0.2864  0.4982
 3176SOL     OW12469   3.719   3.333   0.493 -0.0988  0.8767 -0.2399
 3176SOL    HW212470   3.811   3.314   0.510  0.0923  2.0474  0.1107
 3176SOL    HW312471   3.671   3.274   0.552  0.4444  0.9419  0.2751
 3176SOL    MW412472   3.725   3.322   0.503 -0.0019  1.0398 -0.1257
 3177SOL     OW12473   4.151   4.098   0.830 -0.6288 -0.1273  0.6332
 3177SOL    HW212474   4.201   4.057   0.902 -0.0298  1.2980  1.0680
 3177SOL    HW312475   4.217   4.119   0.765 -0.6408  1.6954  1.1709
 3177SOL    MW412476   4.167   4.095   0.831 -0.5514  0.3012  0.7615
 3178SOL     OW12477   4.885   0.590   0.972  0.3843 -1.0253 -0.0318
 3178SOL    HW212478   4.828   0.585   1.048  0.5741  1.6206  0.3602
 3178SOL    HW312479   4.860   0.671   0.928  1.6673 -1.4564 -1.6846
 3178SOL    MW412480   4.874   0.600   0.976  0.5786 -0.7331 -0.1982
 3179SOL     OW12481   6.319   0.115   0.600  0.2184  0.8276  0.1441
 3179SOL    HW212482   6.296   0.078   0.685  0.4781  1.3901  0.4687
 3179SOL    HW312483   6.403   0.159   0.615  0.9231 -0.1641 -0.7192
 3179SOL    MW412484   6.327   0.116   0.613  0.3456  0.7710  0.0731
 3180SOL     OW12485   1.168   0.375   4.922  0.3562  0.1891 -0.0712
 3180SOL    HW212486   1.241   0.317   4.902  0.7597  1.2880 -1.9766
 3180SOL    HW312487   1.155   0.364   5.017  2.2856 -0.8143  0.1355
 3180SOL    MW412488   1.176   0.366   4.932  0.6640  0.2017 -0.2953
 3181SOL     OW12489   2.112   2.796   5.287 -0.2091 -0.3715  0.1518
 3181SOL    HW212490   2.200   2.758   5.294  0.4623  1.4060  2.2887
 3181SOL    HW312491   2.053   2.720   5.291  1.1446 -1.4219  1.5030
 3181SOL    MW412492   2.116   2.781   5.288  0.0581 -0.2756  0.6120
 3182SOL     OW12493   0.820   5.562   1.653 -0.3855 -0.0758 -0.6606
 3182SOL    HW212494   0.884   5.493   1.671  0.9713  0.6820 -2.2976
 3182SOL    HW312495   0.798   5.551   1.560 -2.0699  0.1632 -0.3254
 3182SOL    MW412496   0.825   5.551   1.643 -0.4288  0.0557 -0.8324
 3183SOL     OW12497   0.922   1.634   0.664 -0.1581  0.2553 -0.7124
 3183SOL    HW212498   0.964   1.592   0.589 -1.3690  0.7218 -1.7064
 3183SOL    HW312499   0.988   1.634   0.733  0.6978 -0.9867 -1.4940
 3183SOL    MW412500   0.936   1.629   0.663 -0.2049  0.1530 -0.9467
 3184SOL     OW12501   3.673   3.484   2.903 -0.2238  0.1385 -0.3553
 3184SOL    HW212502   3.726   3.500   2.982  0.4063 -0.1443 -0.7106
 3184SOL    HW312503   3.613   3.414   2.928  1.3737 -1.4505 -0.7125
 3184SOL    MW412504   3.672   3.477   2.917  0.0701 -0.1084 -0.4493
 3185SOL     OW12505   3.582   3.800   6.132  0.1356  0.1069  0.4236
 3185SOL    HW212506   3.510   3.841   6.085  0.7817  0.9287  0.1217
 3185SOL    HW312507   3.561   3.812   6.224  1.0108  2.4999  0.3812
 3185SOL    MW412508   3.570   3.807   6.138  0.3363  0.5311  0.3782
 3186SOL     OW12509   6.158   0.139   6.153  0.6790 -0.1038 -0.9410
 3186SOL    HW212510   6.230   0.141   6.216  0.9103 -0.3580 -1.1959
 3186SOL    HW312511   6.166   0.054   6.110 -0.3513 -0.5547 -0.3000
 3186SOL    MW412512   6.169   0.128   6.156  0.5736 -0.1968 -0.8900
 3187SOL     OW12513   5.158   3.841   5.230  0.1373  0.1835  0.3507
 3187SOL    HW212514   5.204   3.764   5.199  0.5898 -0.0148  1.4793
 3187SOL    HW312515   5.168   3.839   5.325 -0.6337  1.1320  0.4725
 3187SOL    MW412516   5.165   3.831   5.238  0.0953  0.2825  0.5157
 3188SOL     OW12517   4.060   1.114   2.789 -0.6787 -0.0787  0.0677
 3188SOL    HW212518   4.152   1.109   2.817 -1.2596 -1.1568  1.9791
 3188SOL    HW312519   4.050   1.041   2.727 -0.4527 -0.5295  0.5504
 3188SOL    MW412520   4.071   1.104   2.784 -0.7255 -0.2804  0.3836
 3189SOL     OW12521   4.511   0.230   1.742  0.1082  0.1591  0.3602
 3189SOL    HW212522   4.480   0.189   1.661 -0.3251  1.1826 -0.0148
 3189SOL    HW312523   4.601   0.255   1.723 -0.2172  1.0603 -0.0952
 3189SOL    MW412524   4.519   0.228   1.729  0.0081  0.4130  0.2507
 3190SOL     OW12525   3.673   4.747   5.573 -0.0810  0.3907 -0.2591
 3190SOL    HW212526   3.740   4.816   5.575  0.4551 -0.1291  0.1714
 3190SOL    HW312527   3.590   4.795   5.580  0.2640  1.0180 -0.3327
 3190SOL    MW412528   3.671   4.763   5.574  0.0352  0.4048 -0.2120
 3191SOL     OW12529   6.082   5.438   1.172 -0.9183  0.1564  0.1797
 3191SOL    HW212530   6.126   5.469   1.251 -0.3322  0.1609 -0.1444
 3191SOL    HW312531   6.097   5.344   1.172  0.6468  0.3568 -0.8452
 3191SOL    MW412532   6.090   5.430   1.182 -0.6344  0.1834  0.0017
 3192SOL     OW12533   2.143   3.972   1.079 -0.1147  0.0383 -0.0132
 3192SOL    HW212534   2.107   3.916   1.010  1.5949 -0.4696 -0.5261
 3192SOL    HW312535   2.081   3.963   1.152 -0.9762 -0.8511 -0.8208
 3192SOL    MW412536   2.130   3.964   1.079 -0.0028 -0.1460 -0.1874
 3193SOL     OW12537   4.268   1.366   4.091 -0.4173 -0.0822  0.7116
 3193SOL    HW212538   4.189   1.397   4.047 -0.7680  0.1305  1.4912
 3193SOL    HW312539   4.292   1.286   4.044  0.4819  1.2937 -1.3222
 3193SOL    MW412540   4.261   1.359   4.079 -0.3449  0.1274  0.5461
 3194SOL     OW12541   2.022   1.615   5.694  0.6791 -0.4763 -0.1846
 3194SOL    HW212542   2.100   1.562   5.673  0.3933 -1.0365  0.1479
 3194SOL    HW312543   2.013   1.674   5.619  1.3921 -0.4413 -0.2535
 3194SOL    MW412544   2.031   1.616   5.681  0.7355 -0.5456 -0.1498
 3195SOL     OW12545   3.693   0.531   4.700  0.0909  0.1901 -0.4772
 3195SOL    HW212546   3.623   0.586   4.664  1.0761  1.0926 -1.0712
 3195SOL    HW312547   3.765   0.540   4.637  1.5704  1.1417  1.2395
 3195SOL    MW412548   3.693   0.540   4.687  0.4161  0.4348 -0.3290
 3196SOL     OW12549   4.676   2.010   2.259 -0.4506 -0.2661  0.6358
 3196SOL    HW212550   4.676   1.916   2.239 -0.3160 -0.0034 -0.6621
 3196SOL    HW312551   4.586   2.028   2.287 -0.5120 -0.7475  0.7671
 3196SOL    MW412552   4.664   2.000   2.260 -0.4410 -0.2950  0.4819
 3197SOL     OW12553   5.205   4.225   0.941  0.2811 -0.6828  0.9179
 3197SOL    HW212554   5.174   4.292   1.002  0.7493 -0.5529  1.0238
 3197SOL    HW312555   5.227   4.274   0.861 -1.3262 -0.9873  0.2521
 3197SOL    MW412556   5.204   4.240   0.938  0.1308 -0.7059  0.8440
 3198SOL     OW12557   0.456   3.294   0.852 -0.1918 -0.0537 -0.1303
 3198SOL    HW212558   0.429   3.385   0.839  0.7601  0.4067  0.9479
 3198SOL    HW312559   0.535   3.285   0.799 -1.6063 -1.0177 -2.2209
 3198SOL    MW412560   0.463   3.305   0.843 -0.2528 -0.1202 -0.2639
 3199SOL     OW12561   3.696   6.042   1.668 -0.0253  0.4944 -0.7104
 3199SOL    HW212562   3.751   5.974   1.708 -0.2960 -0.5481 -2.0398
 3199SOL    HW312563   3.614   6.037   1.718  0.1379  0.2088 -0.4646
 3199SOL    MW412564   3.692   6.032   1.680 -0.0395  0.3192 -0.8534
 3200SOL     OW12565   2.510   2.641   3.944 -0.7353 -0.0899 -0.0699
 3200SOL    HW212566   2.442   2.593   3.896  0.0219  1.0973 -2.4693
 3200SOL    HW312567   2.462   2.709   3.991 -1.2738  0.6044 -1.5655
 3200SOL    MW412568   2.495   2.644   3.944 -0.7064  0.1583 -0.5838
 3201SOL     OW12569   0.459   3.447   1.578  0.4324  0.7091  0.1189
 3201SOL    HW212570   0.437   3.477   1.667 -0.4767 -1.7238  0.7812
 3201SOL    HW312571   0.389   3.387   1.555  0.6550  1.2846 -2.3023
 3201SOL    MW412572   0.447   3.443   1.587  0.3418  0.4640 -0.1132
 3202SOL     OW12573   0.634   1.547   1.059 -0.2300 -0.0313 -0.0217
 3202SOL    HW212574   0.707   1.594   1.017 -1.3171  0.6751 -1.1940
 3202SOL    HW312575   0.567   1.614   1.071 -1.8551 -1.2306 -1.7962
 3202SOL    MW412576   0.635   1.562   1.055 -0.5879 -0.0964 -0.4105
 3203SOL     OW12577   2.535   4.627   1.794  0.4266 -0.6486 -0.0967
 3203SOL    HW212578   2.448   4.639   1.755 -0.1234 -1.4193  0.8465
 3203SOL    HW312579   2.568   4.546   1.754  0.3411 -0.8263  0.1912
 3203SOL    MW412580   2.528   4.618   1.784  0.3427 -0.7738  0.0657
 3204SOL     OW12581   3.823   5.293   4.067 -0.1579  0.0752 -0.0364
 3204SOL    HW212582   3.859   5.208   4.094  0.4508  0.3322 -0.0248
 3204SOL    HW312583   3.729   5.277   4.058  0.0751 -0.8567 -1.0154
 3204SOL    MW412584   3.815   5.280   4.070 -0.0468 -0.0138 -0.1640
 3205SOL     OW12585   2.926   6.289   0.672 -0.1548  0.5445 -0.0118
 3205SOL    HW212586   2.929   6.194   0.659 -2.6031  0.4553 -0.4096
 3205SOL    HW312587   3.005   6.308   0.722 -0.7526 -2.0723  2.2194
 3205SOL    MW412588   2.936   6.279   0.677 -0.5567  0.1874  0.2301
 3206SOL     OW12589   6.416   1.620   5.232 -0.4899 -0.7347  0.1846
 3206SOL    HW212590   6.384   1.665   5.154 -0.2677 -0.1141  0.4469
 3206SOL    HW312591   6.393   1.528   5.218  3.2533 -1.4721 -2.6339
 3206SOL    MW412592   6.409   1.614   5.220  0.0333 -0.7501 -0.1526
 3207SOL     OW12593   1.068   3.509   2.104  0.3023  0.3355 -0.7756
 3207SOL    HW212594   1.004   3.576   2.126  0.1353  0.5491 -1.8254
 3207SOL    HW312595   1.070   3.450   2.179 -0.1628  1.0586 -0.1962
 3207SOL    MW412596   1.060   3.510   2.117  0.2189  0.4591 -0.8377
 3208SOL     OW12597   0.950   0.912   1.470  0.2605 -0.1126  0.1648
 3208SOL    HW212598   0.921   1.003   1.477 -0.6820 -0.3575 -0.3952
 3208SOL    HW312599   0.878   0.867   1.427  1.3150 -0.8257 -0.9435
 3208SOL    MW412600   0.937   0.918   1.465  0.2753 -0.2390 -0.0553
 3209SOL     OW12601   1.328   6.096   3.298 -0.0565 -0.1756  0.3359
 3209SOL    HW212602   1.244   6.059   3.272  0.5826 -1.8473  0.5319
 3209SOL    HW312603   1.391   6.025   3.285  1.2662  0.9141  0.5627
 3209SOL    MW412604   1.325   6.082   3.293  0.2023 -0.2524  0.3916
 3210SOL     OW12605   1.082   5.237   3.261  0.1434 -0.2258  0.1218
 3210SOL    HW212606   1.133   5.196   3.192  0.5128 -1.7602  1.2430
 3210SOL    HW312607   1.088   5.175   3.335 -0.9549  0.9262  1.2221
 3210SOL    MW412608   1.089   5.223   3.262  0.0472 -0.2763  0.4149
 3211SOL     OW12609   5.462   3.306   4.572  0.4978 -0.0830  0.1249
 3211SOL    HW212610   5.497   3.343   4.653 -0.5984  2.4245 -0.4430
 3211SOL    HW312611   5.393   3.367   4.546  0.9839 -0.6555 -2.8367
 3211SOL    MW412612   5.457   3.319   4.579  0.4173  0.1723 -0.3408
 3212SOL     OW12613   3.514   1.713   3.512 -0.1059  0.6636 -0.0520
 3212SOL    HW212614   3.472   1.693   3.428  0.2177 -0.0801 -0.0413
 3212SOL    HW312615   3.590   1.768   3.489  0.4915 -0.2637 -0.3412
 3212SOL    MW412616   3.519   1.718   3.498  0.0156  0.4432 -0.0888
 3213SOL     OW12617   5.934   3.853   4.952  0.3911  0.7842  0.1545
 3213SOL    HW212618   5.904   3.766   4.925  0.2257  0.8335  0.1773
 3213SOL    HW312619   6.015   3.867   4.903 -0.3694  1.2420 -1.0197
 3213SOL    MW412620   5.941   3.843   4.942  0.2689  0.8511  0.0026
 3214SOL     OW12621   0.014   3.564   4.063 -0.7010 -0.1358  0.4823
 3214SOL    HW212622   0.056   3.519   4.136  2.2861  1.9966  0.2410
 3214SOL    HW312623   0.015   3.499   3.992  1.1392 -0.5948  0.8672
 3214SOL    MW412624   0.020   3.549   4.063 -0.0641  0.0850  0.5012
 3215SOL     OW12625   2.928   0.708   5.235  0.0455 -0.4329  0.1384
 3215SOL    HW212626   3.015   0.726   5.270  0.7525 -1.7673 -0.8619
 3215SOL    HW312627   2.898   0.631   5.283 -1.2568  0.8587  1.5306
 3215SOL    MW412628   2.935   0.700   5.246 -0.0330 -0.4386  0.1901
 3216SOL     OW12629   5.854   5.028   3.470  0.5990 -0.3983  0.8230
 3216SOL    HW212630   5.776   5.007   3.420  0.4381  1.4314  0.2474
 3216SOL    HW312631   5.856   5.123   3.474  3.9473 -0.2391 -1.0848
 3216SOL    MW412632   5.844   5.038   3.464  1.0195 -0.1359  0.4953
 3217SOL     OW12633   0.188   1.215   5.585  0.1146  0.2783 -0.1617
 3217SOL    HW212634   0.163   1.248   5.499  0.0852  0.3000 -0.1453
 3217SOL    HW312635   0.269   1.167   5.570 -0.2553 -0.3091 -0.3194
 3217SOL    MW412636   0.195   1.213   5.572  0.0619  0.2037 -0.1803
 3218SOL     OW12637   3.779   0.320   5.189  0.3370 -0.3697 -0.1350
 3218SOL    HW212638   3.775   0.375   5.111 -0.3359 -1.6328 -1.0149
 3218SOL    HW312639   3.699   0.341   5.238  1.6757  1.8808  1.2973
 3218SOL    MW412640   3.768   0.330   5.185  0.4248 -0.2394 -0.0621
 3219SOL     OW12641   2.731   3.143   4.170  0.1833 -0.2995 -0.4878
 3219SOL    HW212642   2.684   3.225   4.156 -0.6888 -0.8521 -0.9105
 3219SOL    HW312643   2.665   3.083   4.204  0.6834 -0.9758 -0.6884
 3219SOL    MW412644   2.716   3.146   4.172  0.1342 -0.4617 -0.5701
 3220SOL     OW12645   2.573   1.934   2.278  0.1947  0.0703  0.5049
 3220SOL    HW212646   2.632   1.859   2.268 -0.1464 -0.3473  1.4848
 3220SOL    HW312647   2.487   1.895   2.295 -0.6491  0.6501 -2.0447
 3220SOL    MW412648   2.569   1.919   2.279  0.0384  0.0917  0.2978
 3221SOL     OW12649   6.079   1.897   4.494  0.1010  0.0988  0.1097
 3221SOL    HW212650   6.056   1.932   4.580  1.2915 -0.4287  0.6648
 3221SOL    HW312651   6.161   1.850   4.508 -0.4521 -1.2932 -0.9964
 3221SOL    MW412652   6.086   1.895   4.507  0.1851 -0.1545  0.0370
 3222SOL     OW12653   0.200   5.787   4.687 -0.1348  0.1019  0.0673
 3222SOL    HW212654   0.280   5.799   4.737 -0.4381  2.0855  0.1351
 3222SOL    HW312655   0.219   5.714   4.627  1.4880  0.1639  0.4831
 3222SOL    MW412656   0.213   5.779   4.686  0.0393  0.3718  0.1311
 3223SOL     OW12657   1.700   3.834   6.107 -0.2323 -0.4656  0.3738
 3223SOL    HW212658   1.708   3.751   6.154  0.3859  0.8336  2.7443
 3223SOL    HW312659   1.612   3.865   6.129 -0.3779 -0.4034 -0.3033
 3223SOL    MW412660   1.689   3.827   6.116 -0.1699 -0.2860  0.5972
 3224SOL     OW12661   0.486   4.292   1.057  0.3440  0.2857 -0.2049
 3224SOL    HW212662   0.581   4.290   1.070  0.4826  0.7741 -1.0205
 3224SOL    HW312663   0.452   4.339   1.133  0.8329  0.6905 -0.2304
 3224SOL    MW412664   0.494   4.298   1.069  0.4268  0.4036 -0.3159
 3225SOL     OW12665   4.264   6.029   1.551  0.0986  0.1545 -0.2237
 3225SOL    HW212666   4.185   6.074   1.581  0.1808  1.9507 -2.4386
 3225SOL    HW312667   4.240   5.994   1.465  1.2971 -0.4801 -0.3120
 3225SOL    MW412668   4.250   6.031   1.543  0.2676  0.3078 -0.5276
 3226SOL     OW12669   4.451   5.522   1.982 -0.1109 -0.4661  0.1195
 3226SOL    HW212670   4.406   5.561   2.057  0.1798 -1.7265  0.9788
 3226SOL    HW312671   4.390   5.534   1.909  0.1075  1.8352  0.2442
 3226SOL    MW412672   4.437   5.529   1.982 -0.0437 -0.3288  0.2493
 3227SOL     OW12673   2.848   4.962   1.205  0.7749 -0.1783 -0.5800
 3227SOL    HW212674   2.929   4.915   1.186  0.5145 -0.5028 -0.9272
 3227SOL    HW312675   2.795   4.950   1.126  0.0377 -0.7312 -0.0190
 3227SOL    MW412676   2.851   4.954   1.192  0.6433 -0.2940 -0.5518
 3228SOL     OW12677   1.861   3.007   6.285  0.1483 -0.1014 -0.2406
 3228SOL    HW212678   1.957   3.004   6.276  0.2317 -2.0578  0.7509
 3228SOL    HW312679   1.830   2.929   6.240 -0.8273 -0.3680  0.8385
 3228SOL    MW412680   1.870   2.997   6.278  0.0306 -0.3947  0.0326
 3229SOL     OW12681   2.680   3.908   0.080  0.2559 -0.5122 -0.4234
 3229SOL    HW212682   2.734   3.840   0.119 -0.9865 -0.6624  1.1449
 3229SOL    HW312683   2.737   3.984   0.073  0.7766 -0.7609  0.8960
 3229SOL    MW412684   2.694   3.909   0.084  0.1607 -0.5649 -0.0424
 3230SOL     OW12685   0.674   3.400   6.122 -0.0437 -0.5174 -0.1814
 3230SOL    HW212686   0.701   3.361   6.039  2.0430 -0.1684  0.2618
 3230SOL    HW312687   0.654   3.326   6.178  1.3031 -0.8938 -0.1620
 3230SOL    MW412688   0.675   3.385   6.119  0.4093 -0.5210 -0.1204
 3231SOL     OW12689   3.535   0.277   1.311  0.5815 -0.2816  0.3023
 3231SOL    HW212690   3.512   0.323   1.230  0.5435 -0.1340  0.3953
 3231SOL    HW312691   3.617   0.232   1.292  0.5864 -0.2241  0.1902
 3231SOL    MW412692   3.543   0.277   1.298  0.5771 -0.2545  0.2998
 3232SOL     OW12693   3.989   3.686   0.984 -0.1384 -0.2705  0.1100
 3232SOL    HW212694   3.916   3.747   0.993 -0.9146 -1.1446 -0.0294
 3232SOL    HW312695   4.067   3.741   0.980 -0.7236  0.6568  0.9512
 3232SOL    MW412696   3.990   3.701   0.985 -0.3180 -0.2635  0.2026
 3233SOL     OW12697   2.938   2.206   1.229 -0.0066 -0.0347 -0.3171
 3233SOL    HW212698   2.906   2.272   1.168 -1.8246 -0.0664  0.5609
 3233SOL    HW312699   3.005   2.252   1.281 -1.4880  1.2601  0.5247
 3233SOL    MW412700   2.943   2.221   1.228 -0.4419  0.1319 -0.0902
 3234SOL     OW12701   2.920   3.569   3.416  0.3285 -0.0664  0.0968
 3234SOL    HW212702   2.846   3.630   3.413 -0.0907 -0.2952  2.9299
 3234SOL    HW312703   2.995   3.622   3.389 -0.4664  0.8869 -0.3332
 3234SOL    MW412704   2.920   3.584   3.412  0.1683  0.0292  0.4138
 3235SOL     OW12705   1.502   1.224   4.374  0.6493  0.4921 -0.1972
 3235SOL    HW212706   1.472   1.162   4.308  2.2434 -0.0362 -0.4614
 3235SOL    HW312707   1.422   1.249   4.422 -0.7351  1.6112 -2.8597
 3235SOL    MW412708   1.487   1.219   4.372  0.6770  0.5700 -0.5834
 3236SOL     OW12709   0.485   0.227   1.549  0.6852  0.4942 -0.4434
 3236SOL    HW212710   0.422   0.296   1.529 -0.1663 -0.0439  0.3165
 3236SOL    HW312711   0.502   0.183   1.466 -2.3661 -1.3718 -0.2184
 3236SOL    MW412712   0.479   0.230   1.536  0.1703  0.1770 -0.3135
 3237SOL     OW12713   2.528   3.561   6.447  0.2222  0.2515 -0.3055
 3237SOL    HW212714   2.539   3.631   6.383 -0.0981 -0.2599 -0.9240
 3237SOL    HW312715   2.613   3.517   6.449  0.7251  1.2236  0.7777
 3237SOL    MW412716   2.541   3.564   6.439  0.2463  0.3123 -0.2442
 3238SOL     OW12717   2.668   5.526   5.775 -0.1986 -0.0845 -0.7641
 3238SOL    HW212718   2.734   5.468   5.736  1.2970  0.1053  1.2906
 3238SOL    HW312719   2.596   5.467   5.800 -0.2280 -0.5049 -1.7894
 3238SOL    MW412720   2.667   5.510   5.773 -0.0051 -0.1149 -0.6282
 3239SOL     OW12721   0.736   0.829   6.193 -0.3607 -0.0127 -0.3687
 3239SOL    HW212722   0.798   0.820   6.121  1.3600  3.6663  0.3827
 3239SOL    HW312723   0.776   0.895   6.250 -3.1707 -0.3925  2.2774
 3239SOL    MW412724   0.750   0.837   6.191 -0.5044  0.4226  0.0795
 3240SOL     OW12725   5.103   5.634   4.769 -0.0989 -0.0643  0.0193
 3240SOL    HW212726   5.119   5.722   4.804  1.2612  0.2908 -1.3691
 3240SOL    HW312727   5.040   5.595   4.829  1.1002  0.9669  2.0517
 3240SOL    MW412728   5.097   5.641   4.781  0.2388  0.1186  0.1042
 3241SOL     OW12729   3.723   6.173   0.636 -0.0344  0.4046 -0.2095
 3241SOL    HW212730   3.777   6.096   0.651 -0.7153 -0.0956 -0.2877
 3241SOL    HW312731   3.737   6.194   0.544 -1.1557 -0.6661 -0.6528
 3241SOL    MW412732   3.732   6.166   0.626 -0.2722  0.1973 -0.2783
 3242SOL     OW12733   1.770   1.986   4.730  0.2302 -0.5437  0.5670
 3242SOL    HW212734   1.817   1.984   4.814  0.8069 -1.6071  0.2291
 3242SOL    HW312735   1.784   1.899   4.693 -0.5663 -0.2902 -0.3422
 3242SOL    MW412736   1.778   1.975   4.736  0.2012 -0.6505  0.4025
 3243SOL     OW12737   1.901   3.724   0.662 -0.0386 -0.2056 -0.3374
 3243SOL    HW212738   1.851   3.796   0.623 -0.7051 -0.3247  0.2754
 3243SOL    HW312739   1.953   3.764   0.731 -0.6344 -0.3434  0.2030
 3243SOL    MW412740   1.901   3.739   0.666 -0.2051 -0.2395 -0.1852
 3244SOL     OW12741   0.140   5.412   6.151 -0.7285 -0.7659 -0.0528
 3244SOL    HW212742   0.198   5.351   6.196  0.3435 -0.6191 -1.1625
 3244SOL    HW312743   0.179   5.498   6.166  0.0502 -0.7778 -1.7548
 3244SOL    MW412744   0.153   5.415   6.159 -0.4843 -0.7481 -0.4238
 3245SOL     OW12745   3.722   2.386   2.069 -0.3641  0.1479 -0.2602
 3245SOL    HW212746   3.683   2.299   2.059 -0.0714  0.0488 -0.5911
 3245SOL    HW312747   3.674   2.427   2.141  1.0168 -1.1401  1.4732
 3245SOL    MW412748   3.710   2.380   2.077 -0.1433 -0.0351 -0.0751
 3246SOL     OW12749   2.672   0.427   4.618  0.5503  1.0166 -0.2369
 3246SOL    HW212750   2.581   0.453   4.608 -0.1875  0.0614  2.8761
 3246SOL    HW312751   2.668   0.333   4.639  1.9403  1.5354  2.7728
 3246SOL    MW412752   2.660   0.418   4.619  0.6364  0.9590  0.5709
 3247SOL     OW12753   0.951   3.327   2.725 -0.2549  0.4443 -0.1325
 3247SOL    HW212754   1.022   3.264   2.713 -0.8556 -0.0896 -0.9953
 3247SOL    HW312755   0.987   3.394   2.783  0.5793 -0.4012  0.3341
 3247SOL    MW412756   0.965   3.328   2.731 -0.2241  0.2623 -0.1848
 3248SOL     OW12757   1.817   6.153   6.076  0.0792 -0.4946  0.5346
 3248SOL    HW212758   1.783   6.080   6.128 -0.1629 -1.1501 -0.5113
 3248SOL    HW312759   1.779   6.141   5.989 -0.2102  1.0603  0.4106
 3248SOL    MW412760   1.808   6.142   6.071  0.0091 -0.3759  0.3803
 3249SOL     OW12761   0.225   4.280   3.953 -0.2008  0.2184  0.1754
 3249SOL    HW212762   0.223   4.275   3.858  1.2182  0.7689  0.1008
 3249SOL    HW312763   0.236   4.373   3.973 -0.2143  0.0803  0.8808
 3249SOL    MW412764   0.226   4.292   3.943 -0.0154  0.2728  0.2586
 3250SOL     OW12765   2.462   4.622   2.052 -1.0701  0.0057  0.3316
 3250SOL    HW212766   2.413   4.539   2.044  0.4451 -0.8077 -1.1693
 3250SOL    HW312767   2.507   4.631   1.968  0.8559  1.0421  1.4134
 3250SOL    MW412768   2.461   4.612   2.040 -0.6161  0.0351  0.2763
 3251SOL     OW12769   2.739   6.364   2.761  0.1157  0.2298 -0.0852
 3251SOL    HW212770   2.650   6.358   2.726 -0.1980 -0.8724  0.8311
 3251SOL    HW312771   2.727   6.398   2.850  0.8556  2.4991 -0.7826
 3251SOL    MW412772   2.726   6.368   2.768  0.1719  0.3838 -0.0563
 3252SOL     OW12773   0.213   6.404   1.890  0.1801  0.2103  0.3538
 3252SOL    HW212774   0.118   6.396   1.884  0.1028  1.1442  0.1726
 3252SOL    HW312775   0.241   6.430   1.802  0.5866  0.0494  0.4313
 3252SOL    MW412776   0.204   6.407   1.878  0.2235  0.3123  0.3401
 3253SOL     OW12777   6.120   5.312   4.653  0.4561 -0.5935  0.3435
 3253SOL    HW212778   6.044   5.327   4.597  0.3154  0.0172  0.6990
 3253SOL    HW312779   6.161   5.233   4.616  0.6282  0.0525 -0.9002
 3253SOL    MW412780   6.116   5.303   4.640  0.4603 -0.4277  0.2263
 3254SOL     OW12781   6.320   4.159   3.980 -0.3167  0.0193 -0.6005
 3254SOL    HW212782   6.334   4.089   4.044  0.6292  0.3896 -0.3977
 3254SOL    HW312783   6.278   4.115   3.906  1.5439 -1.0724 -1.0668
 3254SOL    MW412784   6.316   4.144   3.979  0.0536 -0.0759 -0.6353
 3255SOL     OW12785   0.589   2.099   5.193 -0.1418 -0.7929 -0.4042
 3255SOL    HW212786   0.644   2.084   5.270 -0.5218 -0.5359 -0.0777
 3255SOL    HW312787   0.505   2.057   5.216 -0.4675 -0.1525 -0.4103
 3255SOL    MW412788   0.585   2.091   5.207 -0.2349 -0.6745 -0.3619
 3256SOL     OW12789   5.622   2.892   4.831  0.6388 -0.3161 -0.0741
 3256SOL    HW212790   5.636   2.979   4.793 -1.2375  0.3153  0.5534
 3256SOL    HW312791   5.642   2.832   4.760  0.0080  0.7304 -1.1801
 3256SOL    MW412792   5.627   2.896   4.816  0.3080 -0.0948 -0.1372
 3257SOL     OW12793   1.308   6.210   5.377 -0.7609 -0.2888 -0.1680
 3257SOL    HW212794   1.373   6.152   5.418 -0.9071 -1.6648 -1.7916
 3257SOL    HW312795   1.225   6.163   5.385 -1.3102  0.7573  0.5025
 3257SOL    MW412796   1.306   6.196   5.383 -0.8527 -0.3323 -0.2938
 3258SOL     OW12797   6.189   3.871   2.687  0.8013  0.1996  0.0596
 3258SOL    HW212798   6.139   3.790   2.680 -1.4195  1.5106  0.0446
 3258SOL    HW312799   6.193   3.890   2.781  1.7504 -0.1554  0.1025
 3258SOL    MW412800   6.183   3.863   2.698  0.6335  0.3257  0.0633
 3259SOL     OW12801   0.792   6.130   2.027  0.1192 -0.2489  0.1529
 3259SOL    HW212802   0.772   6.212   2.071 -1.5282 -1.0728  1.0312
 3259SOL    HW312803   0.866   6.094   2.076 -0.8145 -0.4996  1.4229
 3259SOL    MW412804   0.799   6.136   2.039 -0.2213 -0.3907  0.4363
 3260SOL     OW12805   1.192   3.416   4.085 -0.3956  0.0070  0.1696
 3260SOL    HW212806   1.105   3.455   4.077 -1.4298 -1.9592  1.0557
 3260SOL    HW312807   1.229   3.453   4.165 -0.5034  0.6803 -0.0896
 3260SOL    MW412808   1.185   3.426   4.094 -0.5463 -0.1636  0.2523
 3261SOL     OW12809   1.818   0.573   4.286 -0.0223 -0.7997 -0.4761
 3261SOL    HW212810   1.908   0.583   4.255 -0.4058  0.7334 -1.1936
 3261SOL    HW312811   1.775   0.518   4.220 -0.0019 -0.2563 -0.9422
 3261SOL    MW412812   1.824   0.567   4.273 -0.0702 -0.5257 -0.6322
 3262SOL     OW12813   5.083   5.231   5.949 -0.6650  0.4516 -0.5152
 3262SOL    HW212814   5.174   5.256   5.970 -0.3062  2.0815 -3.4158
 3262SOL    HW312815   5.032   5.308   5.975 -1.6776 -1.2273  3.0472
 3262SOL    MW412816   5.088   5.245   5.955 -0.7513  0.4451 -0.4279
 3263SOL     OW12817   4.279   0.714   1.418 -0.3499 -0.3120 -0.1728
 3263SOL    HW212818   4.356   0.765   1.394 -0.7890  0.6721  0.4286
 3263SOL    HW312819   4.312   0.626   1.434  0.5677 -0.0169 -0.4164
 3263SOL    MW412820   4.293   0.709   1.417 -0.2868 -0.1432 -0.1256
 3264SOL     OW12821   1.239   2.923   2.056 -0.3131  0.1284  0.0412
 3264SOL    HW212822   1.268   2.856   1.993  0.3738  1.3304 -0.9567
 3264SOL    HW312823   1.314   2.982   2.064 -0.6157  0.3296  1.5511
 3264SOL    MW412824   1.253   2.922   2.049 -0.2624  0.3136  0.1088
 3265SOL     OW12825   6.397   0.364   5.385 -0.6438  0.3586  0.0011
 3265SOL    HW212826   6.450   0.343   5.308 -1.0941  0.7694 -0.4336
 3265SOL    HW312827   6.389   0.281   5.432 -1.7327 -0.2957 -1.2617
 3265SOL    MW412828   6.403   0.350   5.381 -0.8469  0.3265 -0.2229
 3266SOL     OW12829   2.027   0.810   3.903 -0.3421 -0.0579  0.1497
 3266SOL    HW212830   2.050   0.804   3.811  0.8325  0.4258  0.3940
 3266SOL    HW312831   2.009   0.719   3.929  0.0156 -0.2908 -0.3872
 3266SOL    MW412832   2.028   0.797   3.895 -0.1399 -0.0248  0.1111
 3267SOL     OW12833   1.155   1.158   5.088 -0.1095  0.5204 -0.1660
 3267SOL    HW212834   1.229   1.117   5.132  0.1395  1.5324  0.3985
 3267SOL    HW312835   1.078   1.121   5.130  0.0765 -0.3715 -0.6000
 3267SOL    MW412836   1.155   1.148   5.099 -0.0521  0.5362 -0.1488
 3268SOL     OW12837   4.210   2.898   3.060  0.1881 -0.1221 -0.1699
 3268SOL    HW212838   4.136   2.945   3.022  0.2685  0.1274 -0.0194
 3268SOL    HW312839   4.266   2.966   3.097 -0.8762 -0.4170  2.2104
 3268SOL    MW412840   4.207   2.913   3.060  0.0583 -0.1281  0.1640
 3269SOL     OW12841   0.784   6.041   5.151 -0.5851 -0.2370 -0.5130
 3269SOL    HW212842   0.850   6.033   5.081  0.7465  0.5507  0.5959
 3269SOL    HW312843   0.800   6.127   5.189 -0.1961 -1.2620  1.7864
 3269SOL    MW412844   0.795   6.051   5.146 -0.3581 -0.2683 -0.0633
 3270SOL     OW12845   6.117   5.260   3.184 -0.4030 -0.5077  0.6671
 3270SOL    HW212846   6.192   5.210   3.215 -0.4233  0.1645  1.8838
 3270SOL    HW312847   6.046   5.196   3.177  0.0387 -0.9721  0.4329
 3270SOL    MW412848   6.118   5.245   3.188 -0.3474 -0.4803  0.7967
 3271SOL     OW12849   4.600   1.703   5.880 -0.0056 -0.0488 -0.0920
 3271SOL    HW212850   4.641   1.619   5.860  0.0567 -0.2889  0.9598
 3271SOL    HW312851   4.519   1.704   5.829  0.8904  0.0676 -1.5397
 3271SOL    MW412852   4.595   1.692   5.871  0.1208 -0.0651 -0.1442
 3272SOL     OW12853   3.432   3.792   1.194  0.1588  0.5741  0.1076
 3272SOL    HW212854   3.429   3.707   1.238 -2.0648  1.0317  0.9722
 3272SOL    HW312855   3.516   3.829   1.220  1.2792 -1.4328 -0.4769
 3272SOL    MW412856   3.443   3.786   1.204  0.0132  0.3697  0.1446
 3273SOL     OW12857   3.997   3.474   6.134 -0.0643  0.4251 -0.4182
 3273SOL    HW212858   3.990   3.507   6.045  1.5960  1.1121 -0.3252
 3273SOL    HW312859   3.933   3.403   6.138 -0.8490  1.0126 -1.8481
 3273SOL    MW412860   3.988   3.469   6.123  0.0512  0.5933 -0.5946
 3274SOL     OW12861   0.296   5.077   1.856 -0.3208 -0.1384  0.1242
 3274SOL    HW212862   0.300   4.982   1.870  1.4937 -0.2833 -1.0405
 3274SOL    HW312863   0.250   5.110   1.933 -0.7468 -1.9330  0.6951
 3274SOL    MW412864   0.291   5.069   1.868 -0.1376 -0.3943  0.0459
 3275SOL     OW12865   4.534   5.130   0.247  0.6746 -0.3486  0.2149
 3275SOL    HW212866   4.460   5.184   0.223  0.3707 -0.4818  0.8289
 3275SOL    HW312867   4.588   5.126   0.168 -0.1961 -0.6325 -0.3776
 3275SOL    MW412868   4.532   5.137   0.234  0.5196 -0.4036  0.2177
 3276SOL     OW12869   2.786   4.160   6.068  0.0814  0.5876 -0.3563
 3276SOL    HW212870   2.835   4.164   5.986  0.2392  0.5792 -0.2636
 3276SOL    HW312871   2.847   4.120   6.130 -0.4744 -0.6114 -0.5445
 3276SOL    MW412872   2.800   4.155   6.065  0.0289  0.4283 -0.3689
 3277SOL     OW12873   2.193   3.183   2.009 -0.4274 -0.0094 -0.3460
 3277SOL    HW212874   2.167   3.094   1.986  1.6265 -0.9875  0.7866
 3277SOL    HW312875   2.114   3.223   2.043 -1.3968 -1.3986 -0.8673
 3277SOL    MW412876   2.179   3.176   2.010 -0.2843 -0.3218 -0.2654
 3278SOL     OW12877   1.649   1.265   0.805 -0.3079 -0.0369  0.6529
 3278SOL    HW212878   1.651   1.169   0.803  0.5644 -0.0295  0.9650
 3278SOL    HW312879   1.564   1.287   0.767 -0.2321 -0.9172 -0.0852
 3278SOL    MW412880   1.638   1.255   0.800 -0.1828 -0.1521  0.5967
 3279SOL     OW12881   1.029   3.861   0.773 -1.2231  0.3353  0.0038
 3279SOL    HW212882   0.986   3.802   0.711 -0.6396 -0.0417 -0.0500
 3279SOL    HW312883   1.032   3.945   0.728 -0.2871 -0.0758 -0.7229
 3279SOL    MW412884   1.023   3.864   0.759 -1.0226  0.2313 -0.0992
 3280SOL     OW12885   0.420   2.433   2.790  0.0292 -0.2123  0.6328
 3280SOL    HW212886   0.464   2.369   2.733 -0.1232 -1.5521  1.9446
 3280SOL    HW312887   0.328   2.427   2.766  0.1614  0.3944 -0.0537
 3280SOL    MW412888   0.414   2.424   2.780  0.0265 -0.3090  0.7153
 3281SOL     OW12889   2.727   2.715   1.577 -0.1253  0.8855  0.2506
 3281SOL    HW212890   2.817   2.687   1.565 -0.9827 -1.5224 -1.2635
 3281SOL    HW312891   2.718   2.728   1.671  1.9782  2.0005  0.3606
 3281SOL    MW412892   2.738   2.713   1.588  0.0391  0.7150  0.0653
 3282SOL     OW12893   0.316   1.721   4.103  0.3998 -0.5598 -0.0894
 3282SOL    HW212894   0.229   1.760   4.092 -0.5191 -2.3307  0.5508
 3282SOL    HW312895   0.365   1.785   4.155 -0.8163  0.0544  0.3292
 3282SOL    MW412896   0.311   1.735   4.109  0.1181 -0.7124  0.0503
 3283SOL     OW12897   3.385   0.325   0.812  0.3636  0.4605  0.3031
 3283SOL    HW212898   3.402   0.234   0.789 -1.7390  0.0872  0.0616
 3283SOL    HW312899   3.401   0.374   0.732 -0.1839  0.0636 -0.0538
 3283SOL    MW412900   3.389   0.319   0.799  0.0139  0.3589  0.2242
 3284SOL     OW12901   4.991   3.613   6.422  0.8236 -0.0097 -0.5511
 3284SOL    HW212902   5.047   3.655   6.487  0.5150 -0.6005  0.1168
 3284SOL    HW312903   4.994   3.671   6.346  0.4716  1.1759  0.3066
 3284SOL    MW412904   4.999   3.626   6.420  0.7364  0.0688 -0.3498
 3285SOL     OW12905   0.789   0.204   2.906 -0.2450  0.4242  0.1642
 3285SOL    HW212906   0.745   0.228   2.988  0.9054  2.8308  0.1668
 3285SOL    HW312907   0.873   0.250   2.910  0.0028  0.2906 -2.1977
 3285SOL    MW412908   0.794   0.214   2.917 -0.0605  0.7241 -0.1471
 3286SOL     OW12909   3.552   0.578   2.184 -0.0066  0.2916 -0.4685
 3286SOL    HW212910   3.524   0.666   2.208  1.2813  0.3939  0.7677
 3286SOL    HW312911   3.537   0.526   2.263  1.2170 -0.1137 -0.4768
 3286SOL    MW412912   3.546   0.582   2.198  0.3247  0.2517 -0.3065
 3287SOL     OW12913   1.926   3.818   2.128 -0.1179  0.1236  0.1316
 3287SOL    HW212914   1.952   3.789   2.215  0.2021 -1.0177 -0.3210
 3287SOL    HW312915   1.894   3.739   2.085  0.3919  0.5153 -1.0170
 3287SOL    MW412916   1.925   3.804   2.134 -0.0084  0.0247 -0.0797
 3288SOL     OW12917   2.019   3.483   1.514 -0.1814  0.0370 -0.1734
 3288SOL    HW212918   1.930   3.484   1.479 -0.0009  0.2141 -0.6380
 3288SOL    HW312919   2.063   3.415   1.464  1.0758  2.6431 -2.8598
 3288SOL    MW412920   2.013   3.474   1.503  0.0083  0.4042 -0.5891
 3289SOL     OW12921   2.337   0.473   6.288 -0.4849  0.1680 -0.0187
 3289SOL    HW212922   2.384   0.545   6.247  0.6531 -0.4057  0.2156
 3289SOL    HW312923   2.263   0.514   6.333 -0.2736  1.0912 -0.5002
 3289SOL    MW412924   2.334   0.488   6.289 -0.3069  0.2141 -0.0513
 3290SOL     OW12925   6.359   5.031   2.014 -0.1765  0.1643 -0.3239
 3290SOL    HW212926   6.360   4.947   1.969  0.9124 -0.4939  0.8491
 3290SOL    HW312927   6.286   5.025   2.076 -0.0263  0.0324 -0.1589
 3290SOL    MW412928   6.350   5.019   2.016 -0.0130  0.0600 -0.1474
 3291SOL     OW12929   1.168   5.398   6.350  0.6660  0.3080  0.2552
 3291SOL    HW212930   1.154   5.421   6.258  1.8386  1.1272  0.2659
 3291SOL    HW312931   1.260   5.417   6.367  0.5142  0.0226  1.5669
 3291SOL    MW412932   1.178   5.404   6.340  0.8006  0.3785  0.4296
 3292SOL     OW12933   4.996   4.103   4.379 -0.4125 -0.5102  0.0674
 3292SOL    HW212934   4.904   4.124   4.393 -0.8296 -1.6881 -0.7091
 3292SOL    HW312935   5.018   4.042   4.449 -0.0461  0.2247  0.5996
 3292SOL    MW412936   4.987   4.097   4.390 -0.4192 -0.5686  0.0352
 3293SOL     OW12937   6.235   4.769   4.639  0.1893 -0.6030  0.1526
 3293SOL    HW212938   6.186   4.725   4.570  0.3351 -1.0004  0.2987
 3293SOL    HW312939   6.168   4.794   4.703  0.1530 -1.0064  0.2781
 3293SOL    MW412940   6.219   4.766   4.638  0.2037 -0.7086  0.1884
 3294SOL     OW12941   1.447   0.111   3.244  0.0382  0.2342  0.3301
 3294SOL    HW212942   1.401   0.182   3.288 -0.8451  0.5934 -1.1142
 3294SOL    HW312943   1.512   0.155   3.189  0.4749 -0.1582  0.5241
 3294SOL    MW412944   1.450   0.126   3.243 -0.0207  0.2298  0.1652
 3295SOL     OW12945   0.172   5.983   0.229 -0.4296  0.4227 -0.3660
 3295SOL    HW212946   0.115   5.994   0.305  0.5479  0.7517  0.3401
 3295SOL    HW312947   0.172   5.888   0.213 -1.4430  0.4550 -0.5964
 3295SOL    MW412948   0.164   5.972   0.237 -0.4343  0.4704 -0.3032
 3296SOL     OW12949   3.777   4.732   4.880 -0.1280 -0.5998 -0.2432
 3296SOL    HW212950   3.862   4.713   4.920 -0.2541  0.2229  0.4196
 3296SOL    HW312951   3.797   4.742   4.787  0.5760  0.0317 -0.0322
 3296SOL    MW412952   3.791   4.731   4.873 -0.0517 -0.4079 -0.1279
 3297SOL     OW12953   4.342   0.339   4.408  0.3685  0.3931  0.4736
 3297SOL    HW212954   4.420   0.383   4.374  1.3439 -1.6254 -0.0701
 3297SOL    HW312955   4.269   0.393   4.377  1.2492 -0.4463 -3.7476
 3297SOL    MW412956   4.343   0.352   4.399  0.6134  0.0160 -0.1551
 3298SOL     OW12957   5.405   5.005   3.060 -0.0173 -0.0655  0.2965
 3298SOL    HW212958   5.416   4.937   3.126 -0.7442  1.2169  1.8014
 3298SOL    HW312959   5.476   4.990   2.998  0.5918 -1.4053  1.2641
 3298SOL    MW412960   5.416   4.994   3.060 -0.0328 -0.0731  0.6227
 3299SOL     OW12961   0.923   6.008   0.592  0.3176 -1.1192  0.1001
 3299SOL    HW212962   0.911   6.022   0.686  1.0510  0.5604 -0.0060
 3299SOL    HW312963   0.866   5.935   0.570 -0.1259 -1.3088  1.7868
 3299SOL    MW412964   0.914   6.001   0.602  0.3558 -0.9226  0.3086
 3300SOL     OW12965   3.870   0.897   5.385 -0.5162 -0.2966 -0.0509
 3300SOL    HW212966   3.954   0.863   5.354 -0.0067  0.4965  0.4404
 3300SOL    HW312967   3.823   0.820   5.418 -0.0825 -0.7756 -0.5465
 3300SOL    MW412968   3.875   0.882   5.385 -0.3918 -0.2551 -0.0515
 3301SOL     OW12969   2.382   6.131   2.496  0.3371 -0.8854 -0.0805
 3301SOL    HW212970   2.409   6.052   2.542 -0.2306 -0.4223  1.1017
 3301SOL    HW312971   2.291   6.115   2.472  0.2989 -0.6803 -0.0721
 3301SOL    MW412972   2.374   6.119   2.499  0.2571 -0.7973  0.0766
 3302SOL     OW12973   0.548   1.481   1.860 -0.1236 -0.1180  0.5138
 3302SOL    HW212974   0.592   1.455   1.941  0.2403  2.2647  1.1721
 3302SOL    HW312975   0.553   1.404   1.804  0.5336 -1.5004  2.3735
 3302SOL    MW412976   0.555   1.467   1.863  0.0111  0.0140  0.8460
 3303SOL     OW12977   0.039   1.741   2.935  0.4441 -0.3191  0.5754
 3303SOL    HW212978   0.043   1.811   2.870  0.6273 -1.2531 -0.4591
 3303SOL    HW312979   0.010   1.784   3.016  0.5765  0.9350 -0.0253
 3303SOL    MW412980   0.036   1.756   2.937  0.4858 -0.2769  0.3597
 3304SOL     OW12981   3.256   4.755   0.183 -0.0742 -0.5407 -0.3121
 3304SOL    HW212982   3.312   4.803   0.122  0.5877 -1.0042 -0.0704
 3304SOL    HW312983   3.299   4.765   0.268  0.1151 -1.6349 -0.2752
 3304SOL    MW412984   3.269   4.763   0.186  0.0381 -0.7462 -0.2753
 3305SOL     OW12985   2.876   6.045   1.424 -0.4710 -0.2836 -0.1375
 3305SOL    HW212986   2.816   6.014   1.356  1.1206 -1.2901 -1.1645
 3305SOL    HW312987   2.853   5.994   1.502 -1.2408 -0.3297 -0.3935
 3305SOL    MW412988   2.865   6.034   1.425 -0.3625 -0.4225 -0.3068
 3306SOL     OW12989   4.579   6.335   3.682  0.0770 -0.3376 -0.0163
 3306SOL    HW212990   4.545   6.335   3.592 -1.3946  0.5886  0.5009
 3306SOL    HW312991   4.543   6.414   3.721  1.2575 -0.3651  1.2105
 3306SOL    MW412992   4.570   6.346   3.675  0.0386 -0.2190  0.2138
 3307SOL     OW12993   0.003   0.612   5.536 -0.1739  0.3451  0.0285
 3307SOL    HW212994  -0.076   0.644   5.580 -0.3963  0.4151 -0.4115
 3307SOL    HW312995  -0.025   0.530   5.494  0.4615 -0.5955  1.3767
 3307SOL    MW412996  -0.011   0.605   5.536 -0.1194  0.2303  0.1483
 3308SOL     OW12997   0.472   4.785   5.443  0.4143  0.6245  0.3345
 3308SOL    HW212998   0.501   4.704   5.484  0.0477 -0.2140 -1.0293
 3308SOL    HW312999   0.548   4.815   5.393 -0.9119 -1.7976 -3.5950
 3308SOL    MW413000   0.486   4.779   5.442  0.1909  0.1943 -0.3639
 3309SOL     OW13001   3.189   4.493   0.866  0.4719 -0.2791  0.4409
 3309SOL    HW213002   3.149   4.421   0.817 -0.4738  0.6004 -0.1338
 3309SOL    HW313003   3.198   4.459   0.955 -2.8914 -0.1168  0.9701
 3309SOL    MW413004   3.185   4.479   0.871 -0.0966 -0.1417  0.4349
 3310SOL     OW13005   2.700   0.143   4.720  0.4988 -0.8830  0.5306
 3310SOL    HW213006   2.701   0.059   4.675  2.0664 -1.8117  2.2000
 3310SOL    HW313007   2.791   0.160   4.743  0.4239  1.9032 -0.7965
 3310SOL    MW413008   2.712   0.134   4.717  0.6958 -0.6379  0.5758
 3311SOL     OW13009   6.091   3.580   1.433  1.0384 -0.2323 -0.0843
 3311SOL    HW213010   6.006   3.625   1.434  0.8723 -0.5163 -1.0038
 3311SOL    HW313011   6.069   3.490   1.411  1.3976 -0.7436  1.5059
 3311SOL    MW413012   6.077   3.574   1.430  1.0639 -0.3372  0.0042
 3312SOL     OW13013   3.355   1.334   5.529 -0.2305 -0.6065 -0.2162
 3312SOL    HW213014   3.391   1.246   5.529  0.4906 -0.3915 -2.4980
 3312SOL    HW313015   3.399   1.379   5.601 -1.0552 -2.2248  1.3642
 3312SOL    MW413016   3.365   1.328   5.538 -0.2441 -0.7916 -0.3087
 3313SOL     OW13017   2.759   3.093   1.857 -0.4091 -0.7002 -0.1029
 3313SOL    HW213018   2.667   3.068   1.850 -0.4054 -0.5618 -0.7126
 3313SOL    HW313019   2.780   3.129   1.771  0.1698 -0.5778  0.0889
 3313SOL    MW413020   2.749   3.094   1.845 -0.3322 -0.6658 -0.1581
 3314SOL     OW13021   3.587   1.275   0.211 -0.2713 -0.6055  0.1834
 3314SOL    HW213022   3.547   1.227   0.139 -0.3760  0.6443 -0.6304
 3314SOL    HW313023   3.597   1.210   0.281 -3.5737 -1.0917  0.3927
 3314SOL    MW413024   3.583   1.260   0.211 -0.7208 -0.5047  0.1036
 3315SOL     OW13025   5.200   2.740   3.939 -0.6761  0.2862  0.3259
 3315SOL    HW213026   5.295   2.733   3.923 -1.0919  0.2205 -2.7232
 3315SOL    HW313027   5.178   2.660   3.987  0.5094 -0.8075 -0.8591
 3315SOL    MW413028   5.210   2.729   3.943 -0.5746  0.1332 -0.2327
 3316SOL     OW13029   6.210   4.033   3.721 -0.1959  0.3518 -0.2001
 3316SOL    HW213030   6.157   4.112   3.721  0.0847  0.5672 -1.8458
 3316SOL    HW313031   6.159   3.970   3.772 -1.4327  0.9355 -0.6927
 3316SOL    MW413032   6.196   4.035   3.728 -0.3221  0.4572 -0.4822
 3317SOL     OW13033   2.910   3.090   0.632 -0.2137  0.5702  0.1189
 3317SOL    HW213034   2.890   3.181   0.654 -1.8571  0.8201 -1.9997
 3317SOL    HW313035   2.913   3.089   0.536 -1.6705 -1.8349  0.0102
 3317SOL    MW413036   2.907   3.102   0.622 -0.6227  0.2859 -0.1750
 3318SOL     OW13037   1.873   1.506   4.368  0.5063 -1.0502  0.3392
 3318SOL    HW213038   1.792   1.496   4.318 -0.4648 -2.5736  2.0617
 3318SOL    HW313039   1.859   1.453   4.446  2.8598 -0.6546  1.1109
 3318SOL    MW413040   1.860   1.498   4.372  0.6887 -1.1990  0.6683
 3319SOL     OW13041   3.103   3.094   5.766 -0.1586 -0.0326 -0.0795
 3319SOL    HW213042   3.148   3.046   5.696  0.5609  1.4944 -0.7086
 3319SOL    HW313043   3.142   3.060   5.847 -1.9534 -2.8157 -0.2317
 3319SOL    MW413044   3.114   3.083   5.768 -0.3005 -0.1983 -0.1826
 3320SOL     OW13045   5.369   2.741   5.616 -0.1884 -0.3217 -0.2141
 3320SOL    HW213046   5.438   2.691   5.572  0.6131 -0.9719  1.6606
 3320SOL    HW313047   5.416   2.797   5.678 -1.1895  1.5577 -1.0671
 3320SOL    MW413048   5.385   2.742   5.618 -0.2147 -0.1595 -0.0793
 3321SOL     OW13049   5.958   3.989   0.443 -0.3739 -0.4366  0.1241
 3321SOL    HW213050   5.955   3.984   0.539 -2.2076 -1.3356  0.0631
 3321SOL    HW313051   6.026   4.053   0.425 -0.2083  0.0014  2.0446
 3321SOL    MW413052   5.966   3.997   0.453 -0.5940 -0.4974  0.3694
 3322SOL     OW13053   3.229   6.375   4.502  0.0160  0.3327 -0.9246
 3322SOL    HW213054   3.247   6.453   4.450  1.3979  0.5744 -0.1302
 3322SOL    HW313055   3.316   6.340   4.523 -0.4818  0.2262  1.1822
 3322SOL    MW413056   3.243   6.380   4.498  0.1326  0.3505 -0.5419
 3323SOL     OW13057   4.728   6.053   6.075 -0.7102  0.1277 -0.4220
 3323SOL    HW213058   4.795   6.069   6.142 -2.5602  2.4126  1.0378
 3323SOL    HW313059   4.684   5.973   6.105 -0.0103 -0.2099 -0.2590
 3323SOL    MW413060   4.731   6.044   6.088 -0.8619  0.3846 -0.2079
 3324SOL     OW13061   0.869   6.278   5.280 -0.3358  0.3454  0.4700
 3324SOL    HW213062   0.912   6.312   5.201  0.0572 -0.4470  0.3294
 3324SOL    HW313063   0.789   6.330   5.288  1.5501  3.2992  1.8970
 3324SOL    MW413064   0.864   6.289   5.271 -0.0351  0.6305  0.6397
 3325SOL     OW13065   2.766   1.086   0.443  0.1711 -0.1818  0.0792
 3325SOL    HW213066   2.699   1.149   0.470  0.2553  0.7015 -1.6765
 3325SOL    HW313067   2.808   1.059   0.525 -0.8027  0.9745  0.9908
 3325SOL    MW413068   2.763   1.090   0.457  0.0537  0.0873 -0.0322
 3326SOL     OW13069   0.080   5.165   4.477  0.1182 -0.1652  0.2350
 3326SOL    HW213070  -0.010   5.140   4.500 -0.0587 -0.8057 -1.0399
 3326SOL    HW313071   0.088   5.140   4.385  2.1539 -1.6565  0.7600
 3326SOL    MW413072   0.069   5.158   4.468  0.3635 -0.4464  0.1361
 3327SOL     OW13073   1.937   5.067   1.413 -0.0970  0.0152 -0.5341
 3327SOL    HW213074   1.883   5.144   1.394 -0.0732  0.0095 -0.6237
 3327SOL    HW313075   2.018   5.103   1.450 -0.0484  0.0375 -0.6622
 3327SOL    MW413076   1.941   5.082   1.415 -0.0874  0.0174 -0.5628
 3328SOL     OW13077   6.002   0.420   1.690  0.0835  0.2651 -0.4613
 3328SOL    HW213078   5.960   0.412   1.604  1.0350 -0.0872 -0.9196
 3328SOL    HW313079   6.057   0.341   1.697  0.6688  0.7095  0.0917
 3328SOL    MW413080   6.004   0.408   1.679  0.2862  0.2773 -0.4488
 3329SOL     OW13081   2.579   2.941   0.511 -0.7370  0.8550 -0.0676
 3329SOL    HW213082   2.606   2.934   0.419  0.0070 -0.3492  0.2224
 3329SOL    HW313083   2.483   2.934   0.507 -0.6522 -0.4061 -0.6851
 3329SOL    MW413084   2.570   2.939   0.498 -0.6276  0.5297 -0.1108
 3330SOL     OW13085   4.991   6.207   5.676 -0.0369 -0.3594 -0.6674
 3330SOL    HW213086   4.958   6.126   5.716  2.2595 -0.6769  0.8001
 3330SOL    HW313087   5.083   6.187   5.655  0.5259  1.7852 -0.4619
 3330SOL    MW413088   4.999   6.194   5.678  0.3403 -0.1183 -0.4467
 3331SOL     OW13089   2.702   3.076   1.233 -0.5210 -0.1466 -0.2333
 3331SOL    HW213090   2.764   3.040   1.170 -1.7093  0.5380 -1.8647
 3331SOL    HW313091   2.666   2.999   1.278 -0.5700 -0.7726 -1.2950
 3331SOL    MW413092   2.705   3.061   1.231 -0.6842 -0.1389 -0.5886
 3332SOL     OW13093   2.269   3.324   3.058 -0.2561 -0.6040  0.3692
 3332SOL    HW213094   2.317   3.291   2.982  0.1154 -0.1198  0.3847
 3332SOL    HW313095   2.315   3.405   3.081 -1.2703  0.0289  0.2058
 3332SOL    MW413096   2.282   3.331   3.051 -0.3409 -0.4566  0.3497
 3333SOL     OW13097   2.261   2.369   0.572  0.5507  0.6523  0.3760
 3333SOL    HW213098   2.249   2.460   0.600  2.5831  1.2822 -0.5756
 3333SOL    HW313099   2.184   2.348   0.520  0.9047  2.5216 -0.9987
 3333SOL    MW413100   2.249   2.378   0.569  0.8656  0.9821  0.0691
 3334SOL     OW13101   3.274   6.263   3.931 -0.3912 -0.2733 -0.3387
 3334SOL    HW213102   3.311   6.329   3.871 -1.7369  1.4945  0.6670
 3334SOL    HW313103   3.348   6.206   3.952  0.4284 -0.1541 -2.5953
 3334SOL    MW413104   3.289   6.265   3.926 -0.4606 -0.0244 -0.5038
 3335SOL     OW13105   4.715   4.691   0.176 -0.1081 -0.3702  0.3325
 3335SOL    HW213106   4.685   4.715   0.264  0.3073  1.0788  0.1091
 3335SOL    HW313107   4.806   4.718   0.173  0.4319 -2.0980  0.0356
 3335SOL    MW413108   4.723   4.698   0.187  0.0179 -0.4070  0.2638
 3336SOL     OW13109   5.385   3.970   4.475 -0.0611  0.2203  0.4894
 3336SOL    HW213110   5.336   3.893   4.444  0.9009 -1.0562  1.9985
 3336SOL    HW313111   5.443   3.936   4.543 -0.1827  2.4324  1.8017
 3336SOL    MW413112   5.386   3.955   4.480  0.0498  0.3438  0.8617
 3337SOL     OW13113   6.392   2.474   2.830 -0.9066 -0.0249  0.3357
 3337SOL    HW213114   6.367   2.430   2.912  1.4660 -0.9180  0.6647
 3337SOL    HW313115   6.444   2.409   2.783  0.1090  1.3908 -0.5883
 3337SOL    MW413116   6.396   2.459   2.835 -0.4596  0.0440  0.2572
 3338SOL     OW13117   3.088   5.631   3.165 -0.0499 -0.8869  0.4498
 3338SOL    HW213118   3.031   5.674   3.102 -0.7998  0.0692  1.7148
 3338SOL    HW313119   3.073   5.679   3.247  2.3637 -0.7554  0.9087
 3338SOL    MW413120   3.079   5.643   3.168  0.1696 -0.7434  0.6772
 3339SOL     OW13121   4.189   3.353   1.279  0.0607 -0.1359  0.0368
 3339SOL    HW213122   4.197   3.380   1.371  2.4008  1.3176 -0.5031
 3339SOL    HW313123   4.121   3.411   1.243 -2.7042 -2.3628  1.3081
 3339SOL    MW413124   4.181   3.364   1.287  0.0046 -0.2379  0.1333
 3340SOL     OW13125   2.004   2.241   0.139 -0.4509 -0.3638 -0.7098
 3340SOL    HW213126   1.919   2.228   0.097  0.3950 -1.6450 -2.1420
 3340SOL    HW313127   2.057   2.286   0.073  0.2256 -0.2958 -0.1390
 3340SOL    MW413128   2.000   2.246   0.125 -0.2501 -0.5238 -0.8235
 3341SOL     OW13129   6.025   2.648   3.404  0.7786 -0.2085 -0.1073
 3341SOL    HW213130   6.054   2.722   3.458 -1.4910  0.3150  0.4866
 3341SOL    HW313131   6.068   2.662   3.320  3.3001 -0.2815  1.0692
 3341SOL    MW413132   6.034   2.659   3.400  0.8118 -0.1490  0.1263
 3342SOL     OW13133   4.803   3.454   1.510 -0.8191  0.1522 -0.5625
 3342SOL    HW213134   4.744   3.438   1.436  1.8194 -1.9471 -2.4107
 3342SOL    HW313135   4.835   3.543   1.496 -3.0420  1.1307  0.1860
 3342SOL    MW413136   4.799   3.464   1.498 -0.7642  0.0043 -0.7076
 3343SOL     OW13137   2.093   3.266   1.382  0.0006 -0.1218 -0.1236
 3343SOL    HW213138   2.175   3.222   1.359 -0.6445 -0.9211 -0.9910
 3343SOL    HW313139   2.065   3.308   1.301  0.8952  2.4652  0.8212
 3343SOL    MW413140   2.100   3.266   1.368  0.0335  0.1141 -0.1134
 3344SOL     OW13141   3.430   5.916   3.648  0.4727 -0.7270 -0.5993
 3344SOL    HW213142   3.423   5.833   3.601  0.3849 -0.4606 -1.0662
 3344SOL    HW313143   3.506   5.906   3.704  0.2516 -1.2541 -0.3897
 3344SOL    MW413144   3.439   5.904   3.649  0.4319 -0.7614 -0.6332
 3345SOL     OW13145   6.386   6.321   1.230 -0.0324 -0.9349 -0.0899
 3345SOL    HW213146   6.328   6.296   1.157 -0.0023 -1.0307 -0.0811
 3345SOL    HW313147   6.449   6.249   1.235  0.2470 -0.7042 -0.2680
 3345SOL    MW413148   6.387   6.308   1.221  0.0085 -0.9171 -0.1122
 3346SOL     OW13149   3.123   1.141   4.790 -0.0027 -0.4724  0.2256
 3346SOL    HW213150   3.166   1.156   4.874 -2.4936  0.0282  1.5277
 3346SOL    HW313151   3.191   1.105   4.733  2.7493  2.6640  1.2602
 3346SOL    MW413152   3.137   1.138   4.793  0.0317  0.0075  0.5339
 3347SOL     OW13153   3.301   4.564   1.717 -0.0563  0.4468 -0.0952
 3347SOL    HW213154   3.295   4.659   1.723 -0.0313  0.3783  1.1132
 3347SOL    HW313155   3.311   4.534   1.807  1.1339 -0.6231 -0.5518
 3347SOL    MW413156   3.302   4.573   1.729  0.1041  0.2966  0.0040
 3348SOL     OW13157   2.265   3.628   4.358  0.0770 -0.2475 -0.1085
 3348SOL    HW213158   2.205   3.555   4.343  0.8528 -0.6161 -1.5636
 3348SOL    HW313159   2.323   3.596   4.427  0.7352 -1.2426 -1.0845
 3348SOL    MW413160   2.265   3.614   4.366  0.2662 -0.4275 -0.4293
 3349SOL     OW13161   2.119   4.098   5.561  0.2833  0.4035  0.1402
 3349SOL    HW213162   2.104   4.132   5.473 -2.1567  1.0950  0.7421
 3349SOL    HW313163   2.171   4.166   5.604 -0.0887  0.9312 -0.2338
 3349SOL    MW413164   2.124   4.112   5.555 -0.0877  0.5643  0.1703
 3350SOL     OW13165   0.625   0.596   5.972 -0.5980 -0.4052  0.2266
 3350SOL    HW213166   0.686   0.526   5.997  1.7380  1.8409  1.3641
 3350SOL    HW313167   0.571   0.558   5.903  2.4677 -2.4636 -1.2621
 3350SOL    MW413168   0.626   0.582   5.966  0.1147 -0.3804  0.1803
 3351SOL     OW13169   0.712   2.251   6.033 -0.5600 -0.6097  0.2117
 3351SOL    HW213170   0.673   2.239   5.947 -3.7851 -1.1930  1.6302
 3351SOL    HW313171   0.753   2.167   6.053 -0.7706 -0.8317 -0.2815
 3351SOL    MW413172   0.713   2.238   6.025 -1.0133 -0.7160  0.3338
 3352SOL     OW13173   5.387   4.112   4.225 -0.2793 -0.2781  0.1971
 3352SOL    HW213174   5.476   4.131   4.198 -0.2911 -0.7333 -0.1643
 3352SOL    HW313175   5.395   4.079   4.315  0.1210 -2.2043 -0.5108
 3352SOL    MW413176   5.400   4.110   4.233 -0.2280 -0.5923  0.0560
 3353SOL     OW13177   2.466   1.857   4.061 -0.3086  0.0928  0.5009
 3353SOL    HW213178   2.448   1.798   3.988  1.6532  1.2018 -0.9912
 3353SOL    HW313179   2.433   1.942   4.032 -1.6586  0.1047  1.9486
 3353SOL    MW413180   2.459   1.861   4.047 -0.2279  0.2407  0.4950
 3354SOL     OW13181   3.814   0.876   4.355  0.3329  0.6499 -0.6444
 3354SOL    HW213182   3.809   0.781   4.357 -2.2769  0.7138  0.2822
 3354SOL    HW313183   3.818   0.902   4.447  1.7852  1.4648 -0.9039
 3354SOL    MW413184   3.814   0.867   4.367  0.1802  0.7659 -0.5564
 3355SOL     OW13185   2.199   5.909   3.072  0.0137 -0.0661 -0.2779
 3355SOL    HW213186   2.141   5.898   3.147 -0.7541 -2.7452 -1.1780
 3355SOL    HW313187   2.287   5.894   3.107 -0.2956 -0.8173  0.1897
 3355SOL    MW413188   2.203   5.906   3.087 -0.1284 -0.5187 -0.3350
 3356SOL     OW13189   0.489   1.561   3.188 -0.3799  0.6493  0.1214
 3356SOL    HW213190   0.485   1.657   3.185  0.9843  0.7129 -0.6679
 3356SOL    HW313191   0.528   1.536   3.104 -1.8640 -0.6959 -0.2126
 3356SOL    MW413192   0.494   1.570   3.177 -0.3957  0.4802 -0.0268
 3357SOL     OW13193   4.314   0.082   6.083 -0.8565 -0.0408 -0.2021
 3357SOL    HW213194   4.268   0.086   5.999 -0.4058  0.3733 -0.4344
 3357SOL    HW313195   4.368   0.003   6.078  0.1249  0.6477 -0.8114
 3357SOL    MW413196   4.315   0.072   6.071 -0.6676  0.1046 -0.3131
 3358SOL     OW13197   5.942   2.077   2.831 -0.1366 -0.7887 -0.6784
 3358SOL    HW213198   6.020   2.023   2.820  0.7679  0.1650  0.6546
 3358SOL    HW313199   5.912   2.058   2.920  0.9132  1.6853  0.2975
 3358SOL    MW413200   5.948   2.068   2.841  0.1212 -0.3364 -0.3738
 3359SOL     OW13201   4.606   1.454   0.457  0.3027 -0.2251 -0.2368
 3359SOL    HW213202   4.582   1.477   0.547 -0.4991  1.3515 -0.8070
 3359SOL    HW313203   4.678   1.514   0.436 -0.4385  0.3918 -1.0871
 3359SOL    MW413204   4.613   1.465   0.466  0.0991  0.0643 -0.4242
 3360SOL     OW13205   1.974   2.932   1.233 -0.5027 -0.3356  0.2609
 3360SOL    HW213206   1.883   2.903   1.225 -0.5622 -0.1331  0.2023
 3360SOL    HW313207   1.978   3.015   1.185 -0.5200  0.1691  1.1148
 3360SOL    MW413208   1.963   2.939   1.226 -0.5129 -0.2423  0.3658
 3361SOL     OW13209   4.058   3.732   3.372  0.3636  0.0550 -0.0720
 3361SOL    HW213210   4.134   3.756   3.425 -0.4722  0.9656  0.7508
 3361SOL    HW313211   3.983   3.742   3.431 -0.3563 -1.5246 -0.6404
 3361SOL    MW413212   4.058   3.736   3.387  0.1583 -0.0332 -0.0385
 3362SOL     OW13213   3.034   4.544   3.896 -0.0476  0.2824  0.0418
 3362SOL    HW213214   3.006   4.454   3.881 -0.1582  0.3736 -0.3152
 3362SOL    HW313215   3.081   4.541   3.979  0.2791 -0.1806 -0.1540
 3362SOL    MW413216   3.037   4.531   3.905 -0.0191  0.2334 -0.0311
 3363SOL     OW13217   5.417   3.098   5.138 -0.2519 -0.5352 -0.0530
 3363SOL    HW213218   5.440   3.191   5.137  0.5799 -0.7223  0.4780
 3363SOL    HW313219   5.469   3.061   5.209  1.6936 -1.9447 -2.0492
 3363SOL    MW413220   5.427   3.105   5.147  0.1145 -0.7459 -0.2463
 3364SOL     OW13221   0.617   5.233   5.790 -0.4808 -0.0088 -0.6730
 3364SOL    HW213222   0.586   5.188   5.711  1.6658 -0.8253 -1.1370
 3364SOL    HW313223   0.643   5.320   5.760  1.6059 -0.7593 -1.2447
 3364SOL    MW413224   0.616   5.239   5.776  0.0777 -0.2155 -0.8097
 3365SOL     OW13225   5.113   0.472   4.436  0.2375  0.3831 -0.2041
 3365SOL    HW213226   5.083   0.446   4.349 -1.2020  0.2411  0.3075
 3365SOL    HW313227   5.198   0.512   4.421 -0.4871  1.4212 -1.8342
 3365SOL    MW413228   5.120   0.474   4.423 -0.0480  0.5013 -0.3517
 3366SOL     OW13229   2.895   5.182   4.174 -0.6010 -0.3994  0.0672
 3366SOL    HW213230   2.844   5.173   4.093  0.6642  0.1896 -0.8367
 3366SOL    HW313231   2.896   5.094   4.212 -0.2591 -0.9539 -1.1776
 3366SOL    MW413232   2.889   5.170   4.168 -0.3889 -0.3948 -0.2163
 3367SOL     OW13233   5.089   5.611   1.498 -0.1101 -0.2851  0.1483
 3367SOL    HW213234   5.129   5.679   1.552 -1.6320  0.8539 -0.0825
 3367SOL    HW313235   5.157   5.585   1.436  0.6356  0.7130  0.5255
 3367SOL    MW413236   5.103   5.617   1.497 -0.2125 -0.0031  0.1676
 3368SOL     OW13237   5.531   2.788   1.444  0.8839 -0.7926 -0.1079
 3368SOL    HW213238   5.489   2.704   1.424  0.5227 -0.7133  0.3054
 3368SOL    HW313239   5.476   2.852   1.398  0.2374 -0.6392  0.8497
 3368SOL    MW413240   5.518   2.785   1.435  0.7509 -0.7619  0.0730
 3369SOL     OW13241   5.162   2.954   0.902  0.1338 -0.2752 -0.0229
 3369SOL    HW213242   5.171   3.045   0.872 -0.7892 -0.8364 -2.1837
 3369SOL    HW313243   5.116   2.961   0.985 -0.2203  1.2375 -0.3142
 3369SOL    MW413244   5.157   2.967   0.909 -0.0347 -0.1496 -0.3464
 3370SOL     OW13245   0.427   2.301   4.534  0.3837  0.4910  0.2121
 3370SOL    HW213246   0.404   2.209   4.546 -0.4719  0.7726  0.8143
 3370SOL    HW313247   0.518   2.307   4.565 -0.1363  0.1903  1.9371
 3370SOL    MW413248   0.436   2.290   4.540  0.2022  0.4884  0.5191
 3371SOL     OW13249   4.317   0.781   5.840  0.0457 -0.2604  0.7091
 3371SOL    HW213250   4.388   0.724   5.868 -0.2303 -0.0954  1.8026
 3371SOL    HW313251   4.277   0.736   5.766  1.7663  0.0212 -0.4506
 3371SOL    MW413252   4.321   0.768   5.834  0.2363 -0.2015  0.7004
 3372SOL     OW13253   6.218   2.198   0.781  0.2250  0.2969  0.4066
 3372SOL    HW213254   6.185   2.273   0.831  0.4865 -0.5881  1.9666
 3372SOL    HW313255   6.311   2.193   0.803  0.8335  1.0508 -1.7434
 3372SOL    MW413256   6.226   2.208   0.790  0.3398  0.2796  0.3287
 3373SOL     OW13257   5.881   3.247   3.678  0.1624 -0.2471 -0.6293
 3373SOL    HW213258   5.796   3.246   3.635 -1.2232 -0.4120  1.9256
 3373SOL    HW313259   5.869   3.304   3.754  2.0819 -1.0083  0.3146
 3373SOL    MW413260   5.868   3.255   3.682  0.2328 -0.3693 -0.1677
 3374SOL     OW13261   3.758   4.194   0.451 -0.5517  0.2592 -0.3605
 3374SOL    HW213262   3.837   4.231   0.491  0.6690  0.0440 -2.4007
 3374SOL    HW313263   3.772   4.099   0.453 -0.4369  0.2459 -1.2923
 3374SOL    MW413264   3.770   4.186   0.456 -0.3755  0.2291 -0.7527
 3375SOL     OW13265   4.054   2.094   0.700 -0.0087 -0.1564 -0.3875
 3375SOL    HW213266   4.091   2.024   0.648  0.8773 -0.0408  0.0595
 3375SOL    HW313267   3.962   2.071   0.711  0.2875 -1.2873 -0.1848
 3375SOL    MW413268   4.047   2.082   0.695  0.1473 -0.2903 -0.3018
 3376SOL     OW13269   2.888   5.334   6.109  0.7559 -0.0327  0.2702
 3376SOL    HW213270   2.953   5.357   6.043 -0.6173  0.7815 -0.8538
 3376SOL    HW313271   2.927   5.362   6.192  1.3023  1.6447 -0.5187
 3376SOL    MW413272   2.902   5.340   6.111  0.6468  0.2961  0.0178
 3377SOL     OW13273   3.602   2.071   2.822 -0.1096  0.2154 -0.1640
 3377SOL    HW213274   3.595   2.119   2.739 -1.1904  1.9689  0.8709
 3377SOL    HW313275   3.523   2.096   2.870  0.7690 -0.2996  1.6253
 3377SOL    MW413276   3.590   2.081   2.817 -0.1363  0.3788  0.2086
 3378SOL     OW13277   4.381   0.468   1.403  0.1259  0.4865 -0.3755
 3378SOL    HW213278   4.336   0.451   1.486 -0.9427  1.2327 -0.7727
 3378SOL    HW313279   4.474   0.462   1.424 -0.1202  0.8777  0.9352
 3378SOL    MW413280   4.387   0.465   1.417 -0.0476  0.6366 -0.2550
 3379SOL     OW13281   1.138   0.849   1.686 -0.0594 -0.1734  0.4713
 3379SOL    HW213282   1.090   0.868   1.767 -1.4438 -1.9540  0.1399
 3379SOL    HW313283   1.072   0.858   1.617  0.7754  0.0023 -0.3231
 3379SOL    MW413284   1.123   0.853   1.688 -0.1319 -0.3852  0.3228
 3380SOL     OW13285   5.864   0.356   1.059  0.1218 -0.3899 -0.1657
 3380SOL    HW213286   5.851   0.448   1.081 -1.6711 -0.1825 -1.7918
 3380SOL    HW313287   5.914   0.320   1.132  0.7040  1.8150  0.5959
 3380SOL    MW413288   5.869   0.363   1.071 -0.0379 -0.0716 -0.2797
 3381SOL     OW13289   4.408   6.446   0.819 -0.1652 -0.4258  0.2824
 3381SOL    HW213290   4.398   6.397   0.737 -0.3050  0.0532  0.0005
 3381SOL    HW313291   4.334   6.419   0.872 -0.6137 -0.0356 -0.1312
 3381SOL    MW413292   4.397   6.436   0.815 -0.2428 -0.3111  0.1907
 3382SOL     OW13293   3.095   1.746   4.545 -0.1380  0.6571 -0.0556
 3382SOL    HW213294   3.097   1.751   4.449 -1.3325  0.3729 -0.1095
 3382SOL    HW313295   3.006   1.769   4.568  0.1489  0.7412  1.0027
 3382SOL    MW413296   3.084   1.749   4.535 -0.2578  0.6307  0.0769
 3383SOL     OW13297   3.730   3.613   0.522  0.3662  0.2447  0.1640
 3383SOL    HW213298   3.667   3.653   0.582  0.3668  0.9709 -0.3035
 3383SOL    HW313299   3.709   3.520   0.523  0.9422  0.1098  1.9764
 3383SOL    MW413300   3.719   3.606   0.530  0.4422  0.3227  0.3415
 3384SOL     OW13301   1.812   4.870   1.573 -0.1791  0.0891 -0.0363
 3384SOL    HW213302   1.732   4.839   1.530  1.0609 -1.2913 -1.5206
 3384SOL    HW313303   1.859   4.917   1.504 -0.5391  2.5930  1.3409
 3384SOL    MW413304   1.807   4.872   1.558 -0.0630  0.2373 -0.0504
 3385SOL     OW13305   6.332   0.246   4.304 -0.0793 -0.3112  0.4100
 3385SOL    HW213306   6.307   0.223   4.394  1.9484 -0.4821  0.9813
 3385SOL    HW313307   6.358   0.163   4.264 -2.0188 -0.4236 -0.7579
 3385SOL    MW413308   6.332   0.232   4.311 -0.0676 -0.3486  0.3313
 3386SOL     OW13309   3.934   1.576   0.393  0.9241  0.1949  0.1399
 3386SOL    HW213310   3.883   1.566   0.312  1.8336  1.5079 -0.6396
 3386SOL    HW313311   3.898   1.654   0.434  0.6709 -0.2960  0.8673
 3386SOL    MW413312   3.922   1.585   0.388  1.0107  0.3034  0.1331
 3387SOL     OW13313   2.201   4.163   2.287 -0.1457  0.0804  0.3595
 3387SOL    HW213314   2.168   4.174   2.198  0.6248  0.4209  0.1136
 3387SOL    HW313315   2.205   4.068   2.299 -0.4973  0.0318  0.1331
 3387SOL    MW413316   2.197   4.152   2.277 -0.0904  0.1189  0.2972
 3388SOL     OW13317   1.471   3.642   1.042 -0.1595  0.5591 -0.3589
 3388SOL    HW213318   1.516   3.707   1.096  1.3492  0.5268 -1.5195
 3388SOL    HW313319   1.396   3.690   1.006 -0.6071  0.8620  0.9251
 3388SOL    MW413320   1.467   3.657   1.044 -0.0195  0.5948 -0.3426
 3389SOL     OW13321   1.019   4.837   1.421 -0.0381 -0.1729 -0.0133
 3389SOL    HW213322   0.955   4.865   1.486  0.3654  0.8114 -0.0247
 3389SOL    HW313323   1.022   4.742   1.430  0.4411 -0.0234  1.8204
 3389SOL    MW413324   1.011   4.828   1.431  0.0784 -0.0233  0.2272
 3390SOL     OW13325   6.208   5.682   0.255  0.2805 -0.7672 -0.4095
 3390SOL    HW213326   6.229   5.633   0.175 -3.0094 -0.7702 -1.4481
 3390SOL    HW313327   6.120   5.653   0.278 -0.2728  1.8144  1.1814
 3390SOL    MW413328   6.199   5.672   0.247 -0.2265 -0.4270 -0.3366
 3391SOL     OW13329   1.517   3.581   3.929  0.2841 -0.1573  0.3411
 3391SOL    HW213330   1.593   3.617   3.974  0.0899  2.2363 -1.0662
 3391SOL    HW313331   1.442   3.610   3.981  0.1941 -0.1175  0.1881
 3391SOL    MW413332   1.517   3.589   3.942  0.2466  0.1638  0.1353
 3392SOL     OW13333   5.664   3.449   4.773  0.1209  0.1016 -0.1352
 3392SOL    HW213334   5.738   3.482   4.824  0.1544 -0.2403  0.0369
 3392SOL    HW313335   5.685   3.357   4.757 -0.5581 -0.1628  0.4403
 3392SOL    MW413336   5.676   3.441   4.777  0.0357  0.0216 -0.0366
 3393SOL     OW13337   3.401   5.480   4.237  0.1700  0.3500 -0.1843
 3393SOL    HW213338   3.443   5.430   4.167  0.4781 -1.2235  1.0818
 3393SOL    HW313339   3.370   5.560   4.193  0.9226 -0.2775 -1.9673
 3393SOL    MW413340   3.402   5.484   4.222  0.3100  0.0596 -0.2525
 3394SOL     OW13341   0.625   4.342   6.180 -1.0720  0.4829 -0.3550
 3394SOL    HW213342   0.705   4.304   6.144 -1.4362  0.4914 -1.1960
 3394SOL    HW313343   0.633   4.436   6.164 -0.8021  0.6129  0.4753
 3394SOL    MW413344   0.636   4.350   6.173 -1.0844  0.5012 -0.3564
 3395SOL     OW13345   0.205   5.388   0.192  0.2234  0.3310  0.1102
 3395SOL    HW213346   0.276   5.436   0.149  0.2236 -1.1845 -1.6736
 3395SOL    HW313347   0.239   5.370   0.280  1.9597 -0.1178 -0.6103
 3395SOL    MW413348   0.219   5.392   0.198  0.4525  0.0718 -0.2202
 3396SOL     OW13349   2.668   2.354   3.636 -0.1517 -0.4544  0.0142
 3396SOL    HW213350   2.643   2.325   3.548 -2.0703 -3.1841  1.3304
 3396SOL    HW313351   2.758   2.324   3.646 -0.2400 -0.9692 -0.6595
 3396SOL    MW413352   2.676   2.347   3.626 -0.4165 -0.8825  0.0990
 3397SOL     OW13353   5.202   5.446   6.470 -0.1499 -0.2485 -0.1835
 3397SOL    HW213354   5.268   5.434   6.538 -1.2636  2.2055  1.4917
 3397SOL    HW313355   5.176   5.357   6.446  2.5790 -1.2757  0.1836
 3397SOL    MW413356   5.208   5.433   6.476  0.0632 -0.0603  0.0860
 3398SOL     OW13357   4.941   0.761   0.636  0.7619  0.6507  0.4380
 3398SOL    HW213358   5.013   0.797   0.688  1.4548 -0.5245  0.3349
 3398SOL    HW313359   4.862   0.792   0.681  1.2664  2.9842 -0.1594
 3398SOL    MW413360   4.940   0.769   0.649  0.9199  0.8035  0.3456
 3399SOL     OW13361   1.958   5.337   3.435 -1.0468 -0.7125 -0.6007
 3399SOL    HW213362   1.966   5.282   3.357 -2.1579 -0.2544 -1.0601
 3399SOL    HW313363   1.943   5.276   3.506  0.3576 -1.1648 -0.6535
 3399SOL    MW413364   1.957   5.322   3.434 -1.0081 -0.7117 -0.6682
 3400SOL     OW13365   5.446   3.706   2.714 -0.0567 -0.2841 -0.3469
 3400SOL    HW213366   5.368   3.742   2.671 -0.2625  1.3257  1.2577
 3400SOL    HW313367   5.420   3.617   2.739 -0.4192 -0.7363 -2.1925
 3400SOL    MW413368   5.432   3.699   2.711 -0.1317 -0.1313 -0.3787
 3401SOL     OW13369   3.312   1.103   6.066 -0.0910 -0.4603 -0.0010
 3401SOL    HW213370   3.222   1.099   6.034  0.2360  1.0855 -1.2572
 3401SOL    HW313371   3.364   1.064   5.996  0.4232  0.8946 -0.4026
 3401SOL    MW413372   3.307   1.097   6.052  0.0200 -0.0776 -0.2197
 3402SOL     OW13373   4.939   4.379   3.617  0.4986 -0.3547  0.2345
 3402SOL    HW213374   4.980   4.319   3.679 -0.9303 -1.0656  0.5282
 3402SOL    HW313375   4.988   4.461   3.626  2.4604 -1.4279 -0.1371
 3402SOL    MW413376   4.951   4.382   3.626  0.5689 -0.5901  0.2242
 3403SOL     OW13377   1.641   4.015   0.196  0.9112  0.5620 -0.2428
 3403SOL    HW213378   1.721   3.968   0.176  2.0174  2.7542 -1.3617
 3403SOL    HW313379   1.621   4.064   0.116 -0.4404  1.5763  0.6651
 3403SOL    MW413380   1.649   4.015   0.183  0.8788  0.9851 -0.2707
 3404SOL     OW13381   1.794   3.048   5.023  0.2484 -0.2465  0.1059
 3404SOL    HW213382   1.816   3.098   4.945  1.7301 -1.4792 -0.3347
 3404SOL    HW313383   1.740   3.107   5.076  0.9570  1.3652 -0.8903
 3404SOL    MW413384   1.790   3.062   5.020  0.5374 -0.1965 -0.0837
 3405SOL     OW13385   4.467   0.371   6.397  0.4290  0.0000 -0.1000
 3405SOL    HW213386   4.386   0.323   6.417  0.5744 -0.0222  0.4745
 3405SOL    HW313387   4.490   0.345   6.308  0.8797 -1.5301  0.4419
 3405SOL    MW413388   4.459   0.361   6.388  0.5077 -0.2048  0.0473
 3406SOL     OW13389   2.828   1.401   6.386  0.1908 -0.0277  0.1555
 3406SOL    HW213390   2.800   1.409   6.477 -1.7494 -0.8042 -0.3418
 3406SOL    HW313391   2.748   1.411   6.335  1.0698 -0.7209 -1.4205
 3406SOL    MW413392   2.814   1.403   6.392  0.0508 -0.2216 -0.1181
 3407SOL     OW13393   1.285   0.458   3.079  0.3200 -0.1266 -0.6071
 3407SOL    HW213394   1.354   0.399   3.049  1.1970  0.2231  0.6678
 3407SOL    HW313395   1.224   0.401   3.125  0.9551 -0.1203  0.2638
 3407SOL    MW413396   1.286   0.443   3.081  0.5195 -0.0797 -0.3240
 3408SOL     OW13397   6.064   2.756   3.141 -0.2404  0.0296 -0.3145
 3408SOL    HW213398   6.031   2.846   3.151 -0.0166  0.1073 -0.2626
 3408SOL    HW313399   6.156   2.767   3.114 -0.6091 -0.1783 -1.7486
 3408SOL    MW413400   6.072   2.770   3.139 -0.2595  0.0124 -0.4969
 3409SOL     OW13401   2.467   5.061   5.587  0.1549 -0.0407  0.3631
 3409SOL    HW213402   2.484   5.012   5.668  1.4068 -0.0893  0.0857
 3409SOL    HW313403   2.418   5.138   5.616  0.2307 -0.2595  1.1133
 3409SOL    MW413404   2.463   5.065   5.602  0.3301 -0.0760  0.4255
 3410SOL     OW13405   5.208   4.845   2.370 -0.0773 -0.4370 -0.0477
 3410SOL    HW213406   5.174   4.816   2.454 -0.7213 -0.7107 -0.3939
 3410SOL    HW313407   5.166   4.787   2.306  0.7050 -0.4859 -0.5257
 3410SOL    MW413408   5.198   4.834   2.372 -0.0591 -0.4796 -0.1564
 3411SOL     OW13409   2.168   2.387   4.996 -0.2242 -0.7583  0.2283
 3411SOL    HW213410   2.189   2.480   5.003  1.6354 -1.0439 -1.0409
 3411SOL    HW313411   2.074   2.383   5.015 -0.5260  1.4760 -0.4882
 3411SOL    MW413412   2.158   2.399   5.000 -0.0187 -0.5012 -0.0337
 3412SOL     OW13413   2.645   0.821   1.682 -1.3210  0.0645  0.0494
 3412SOL    HW213414   2.598   0.882   1.625 -1.4983 -0.5420 -0.4639
 3412SOL    HW313415   2.733   0.816   1.643 -1.6616 -0.9243 -0.6300
 3412SOL    MW413416   2.651   0.828   1.669 -1.3893 -0.1460 -0.1080
 3413SOL     OW13417   1.680   6.182   1.811  0.1310  0.4154  0.6013
 3413SOL    HW213418   1.619   6.142   1.749  0.4013  0.6786  0.1622
 3413SOL    HW313419   1.759   6.198   1.760 -1.1590  5.0546 -0.3841
 3413SOL    MW413420   1.683   6.179   1.796 -0.0036  1.0622  0.4133
 3414SOL     OW13421   5.102   6.052   3.594 -0.2971 -0.0383  0.2930
 3414SOL    HW213422   5.108   5.974   3.538 -0.7099 -1.0331  1.5802
 3414SOL    HW313423   5.009   6.057   3.617 -0.4705  1.4732 -0.6136
 3414SOL    MW413424   5.090   6.042   3.590 -0.3744  0.0299  0.3432
 3415SOL     OW13425   1.470   4.403   4.603 -0.4439 -0.3501 -0.0518
 3415SOL    HW213426   1.388   4.411   4.651  0.3464  0.9606  1.1526
 3415SOL    HW313427   1.531   4.365   4.667  0.1451 -0.3924 -0.6310
 3415SOL    MW413428   1.467   4.399   4.618 -0.2619 -0.1827  0.0307
 3416SOL     OW13429   5.293   5.851   5.694 -0.5084 -0.0152  0.2424
 3416SOL    HW213430   5.229   5.831   5.762  0.4794  0.8618  1.4839
 3416SOL    HW313431   5.259   5.929   5.650 -1.3611 -0.8295 -0.5949
 3416SOL    MW413432   5.280   5.859   5.697 -0.4906 -0.0070  0.2957
 3417SOL     OW13433   3.772   2.240   6.178 -0.3048  0.0391 -0.4735
 3417SOL    HW213434   3.716   2.316   6.164 -1.7970 -0.9248 -0.0242
 3417SOL    HW313435   3.797   2.212   6.090 -2.3854 -0.8012 -0.8504
 3417SOL    MW413436   3.768   2.246   6.164 -0.7762 -0.1990 -0.4639
 3418SOL     OW13437   1.131   1.732   6.292  0.3210  0.1630  0.3105
 3418SOL    HW213438   1.135   1.749   6.198 -2.8993  1.5662  0.2893
 3418SOL    HW313439   1.164   1.813   6.332 -2.4939  1.4663  0.2508
 3418SOL    MW413440   1.136   1.745   6.285 -0.4753  0.5201  0.2999
 3419SOL     OW13441   2.162   2.087   2.340  0.3812 -0.2631  0.1750
 3419SOL    HW213442   2.174   2.129   2.425 -0.0562 -0.2303  0.2226
 3419SOL    HW313443   2.227   2.017   2.339 -1.3613 -2.0016  1.6593
 3419SOL    MW413444   2.172   2.083   2.351  0.0936 -0.4882  0.3771
 3420SOL     OW13445   3.129   6.283   5.219 -0.0819 -0.0770 -0.8231
 3420SOL    HW213446   3.088   6.360   5.259 -0.7671 -1.2627  0.8897
 3420SOL    HW313447   3.218   6.311   5.199 -0.4143  1.2486 -0.5293
 3420SOL    MW413448   3.135   6.297   5.222 -0.2162 -0.0585 -0.5584
 3421SOL     OW13449   5.667   4.655   4.337 -0.1437  0.2735  0.2238
 3421SOL    HW213450   5.745   4.604   4.315  0.2280  1.1318 -0.5002
 3421SOL    HW313451   5.604   4.589   4.367  0.4024 -0.5843 -0.4392
 3421SOL    MW413452   5.669   4.639   4.338 -0.0226  0.2736  0.0408
 3422SOL     OW13453   4.078   1.662   3.522 -0.7072 -0.1710 -0.1594
 3422SOL    HW213454   3.991   1.645   3.487 -1.1327 -0.7704  1.1260
 3422SOL    HW313455   4.071   1.748   3.563 -0.5708 -0.0322 -0.4256
 3422SOL    MW413456   4.066   1.671   3.522 -0.7454 -0.2318 -0.0249
 3423SOL     OW13457   2.545   1.553   4.174  0.7295 -0.3337  0.4897
 3423SOL    HW213458   2.618   1.607   4.204  0.5894 -0.3472  0.8571
 3423SOL    HW313459   2.477   1.566   4.240 -0.2740  1.0850 -0.7874
 3423SOL    MW413460   2.546   1.562   4.187  0.5787 -0.1483  0.3697
 3424SOL     OW13461   1.341   5.736   1.101  0.5547  0.6442 -0.7985
 3424SOL    HW213462   1.337   5.652   1.147  2.0041  0.0938 -1.6138
 3424SOL    HW313463   1.362   5.800   1.168 -1.7007  0.6018  0.0568
 3424SOL    MW413464   1.343   5.733   1.116  0.4483  0.5660 -0.7932
 3425SOL     OW13465   5.260   2.761   6.084 -0.2582 -0.2621 -0.3686
 3425SOL    HW213466   5.295   2.701   6.150 -2.9330 -2.0472 -0.4049
 3425SOL    HW313467   5.317   2.749   6.009  0.5769 -1.1186  0.3714
 3425SOL    MW413468   5.272   2.751   6.083 -0.5010 -0.6106 -0.2757
 3426SOL     OW13469   5.532   0.356   1.676  1.2014  0.4320 -0.6733
 3426SOL    HW213470   5.596   0.321   1.737  1.3610  0.1824 -0.9787
 3426SOL    HW313471   5.508   0.281   1.621 -0.6915  0.0511  0.5637
 3426SOL    MW413472   5.537   0.341   1.677  0.9727  0.3488 -0.5504
 3427SOL     OW13473   3.062   3.846   4.918 -0.2587 -0.3925  0.4307
 3427SOL    HW213474   2.972   3.816   4.931 -0.7241  1.6730  2.9931
 3427SOL    HW313475   3.078   3.905   4.992  2.5738  0.7988 -0.9755
 3427SOL    MW413476   3.052   3.850   4.930  0.0536  0.0372  0.5833
 3428SOL     OW13477   1.532   4.524   1.554 -0.0814  0.3747  0.3451
 3428SOL    HW213478   1.544   4.533   1.648 -2.6556  1.0693  0.6753
 3428SOL    HW313479   1.536   4.614   1.521 -1.0572  0.3355  0.0872
 3428SOL    MW413480   1.534   4.537   1.562 -0.5498  0.4612  0.3546
 3429SOL     OW13481   1.547   3.156   5.965 -0.4592 -0.0246  0.0021
 3429SOL    HW213482   1.527   3.233   6.018 -1.2925 -0.2508  0.0404
 3429SOL    HW313483   1.461   3.115   5.951  0.0664 -1.4013  0.6756
 3429SOL    MW413484   1.533   3.161   5.970 -0.4998 -0.2361  0.0960
 3430SOL     OW13485   2.631   3.758   6.281 -0.3243 -0.3133  0.0202
 3430SOL    HW213486   2.638   3.821   6.352 -1.2740 -0.4722  0.2635
 3430SOL    HW313487   2.721   3.747   6.250  0.2700 -1.0209  1.8666
 3430SOL    MW413488   2.644   3.765   6.286 -0.3712 -0.4276  0.2959
 3431SOL     OW13489   5.401   4.602   6.197 -0.5093 -0.1259 -0.0619
 3431SOL    HW213490   5.390   4.516   6.157 -0.1853 -0.4608  0.5627
 3431SOL    HW313491   5.487   4.631   6.169 -0.2754 -0.3678  0.4038
 3431SOL    MW413492   5.411   4.595   6.188 -0.4357 -0.2020  0.0819
 3432SOL     OW13493   5.561   2.849   6.419  0.1147  0.1651  0.0690
 3432SOL    HW213494   5.525   2.777   6.368 -0.8162  1.6747 -1.5148
 3432SOL    HW313495   5.493   2.916   6.418  1.3869  1.5324  0.4727
 3432SOL    MW413496   5.547   2.849   6.412  0.1597  0.5447 -0.0867
 3433SOL     OW13497   0.175   5.805   2.007  0.3344  0.5151  0.3167
 3433SOL    HW213498   0.244   5.808   1.940 -1.8001 -2.1942 -2.2384
 3433SOL    HW313499   0.112   5.871   1.978 -0.4298 -0.4248 -0.1964
 3433SOL    MW413500   0.176   5.814   1.994 -0.0481  0.0337 -0.0881
 3434SOL     OW13501   1.321   5.309   6.011  0.7543  0.2478  0.5249
 3434SOL    HW213502   1.364   5.307   5.925 -0.0078 -0.3086  0.1470
 3434SOL    HW313503   1.392   5.326   6.073  2.0011 -3.0481  0.1964
 3434SOL    MW413504   1.336   5.311   6.008  0.8183 -0.2605  0.4317
 3435SOL     OW13505   3.424   4.397   3.795  0.5297  0.1658  0.0247
 3435SOL    HW213506   3.419   4.305   3.820  1.6394  0.3902  1.1975
 3435SOL    HW313507   3.503   4.403   3.741 -0.0372  0.2858 -0.8153
 3435SOL    MW413508   3.434   4.386   3.791  0.6013  0.2112  0.0686
 3436SOL     OW13509   1.338   3.375   3.821 -0.4461  0.1419  0.1333
 3436SOL    HW213510   1.404   3.440   3.844 -1.3199  0.9383  0.4509
 3436SOL    HW313511   1.283   3.366   3.899 -0.7246 -0.4937 -0.1236
 3436SOL    MW413512   1.339   3.382   3.834 -0.5981  0.1631  0.1413
 3437SOL     OW13513   1.641   0.560   2.063 -0.3768 -0.1661  0.3023
 3437SOL    HW213514   1.710   0.614   2.102  0.4717  1.2360 -2.8322
 3437SOL    HW313515   1.590   0.621   2.010 -3.5118 -1.3555  1.6903
 3437SOL    MW413516   1.643   0.575   2.061 -0.6785 -0.1381  0.0719
 3438SOL     OW13517   4.386   5.954   3.524 -0.1111  0.4076  0.2348
 3438SOL    HW213518   4.375   6.025   3.587 -1.9871 -0.8296  1.3743
 3438SOL    HW313519   4.440   5.889   3.569  0.0112  0.2638 -0.1091
 3438SOL    MW413520   4.392   5.955   3.538 -0.3425  0.2254  0.3398
 3439SOL     OW13521   5.633   6.263   2.600 -0.3534 -0.0018 -0.2116
 3439SOL    HW213522   5.551   6.284   2.645 -1.0681 -1.3892 -0.8024
 3439SOL    HW313523   5.696   6.326   2.634 -0.7850 -1.0447  2.8988
 3439SOL    MW413524   5.630   6.274   2.611 -0.5047 -0.3224  0.1209
 3440SOL     OW13525   3.996   2.327   0.519  0.0238 -0.3951 -0.4609
 3440SOL    HW213526   3.972   2.246   0.563  0.7036  0.6524  1.9680
 3440SOL    HW313527   3.913   2.362   0.486 -0.2804 -2.0038 -1.4936
 3440SOL    MW413528   3.982   2.321   0.520  0.0733 -0.4692 -0.2767
 3441SOL     OW13529   1.728   0.645   4.527 -0.2643  0.2671 -0.9454
 3441SOL    HW213530   1.770   0.611   4.448 -1.3987 -0.2274 -1.3596
 3441SOL    HW313531   1.660   0.704   4.495  0.3709  1.4059 -0.2703
 3441SOL    MW413532   1.724   0.648   4.512 -0.3301  0.3521 -0.9110
 3442SOL     OW13533   4.569   2.675   2.742 -0.7304 -0.1380 -0.2363
 3442SOL    HW213534   4.517   2.708   2.816 -1.5887  0.7347 -1.2022
 3442SOL    HW313535   4.540   2.727   2.667  2.3789  1.2099 -0.6523
 3442SOL    MW413536   4.558   2.686   2.742 -0.4334  0.1550 -0.4186
 3443SOL     OW13537   1.675   0.599   3.907  0.2234  0.5970 -0.3717
 3443SOL    HW213538   1.756   0.564   3.944 -0.0941 -0.8929 -1.0152
 3443SOL    HW313539   1.703   0.655   3.835  0.6809 -0.4224 -1.0100
 3443SOL    MW413540   1.689   0.602   3.903  0.2419  0.2659 -0.5408
 3444SOL     OW13541   0.337   5.018   6.123  0.2710  0.1739  0.0536
 3444SOL    HW213542   0.397   4.945   6.107  0.7189  0.5602 -0.0671
 3444SOL    HW313543   0.386   5.095   6.094 -0.0628  0.5576  0.5093
 3444SOL    MW413544   0.352   5.018   6.117  0.2861  0.2755  0.0978
 3445SOL     OW13545   1.078   6.310   4.163  0.0003  0.2265  0.3322
 3445SOL    HW213546   1.054   6.226   4.123 -3.4045  1.1491  0.1335
 3445SOL    HW313547   1.121   6.359   4.093  0.6457 -0.7649  0.0086
 3445SOL    MW413548   1.080   6.305   4.149 -0.3638  0.2174  0.2633
 3446SOL     OW13549   5.138   2.588   2.427 -0.2619 -0.2520 -0.2339
 3446SOL    HW213550   5.103   2.526   2.491  2.8433 -1.6578  0.2790
 3446SOL    HW313551   5.159   2.534   2.350  0.3000  0.5976 -0.6899
 3446SOL    MW413552   5.136   2.573   2.425  0.2219 -0.3254 -0.2264
 3447SOL     OW13553   1.326   4.266   1.958 -0.1174 -0.1136  0.6534
 3447SOL    HW213554   1.309   4.172   1.951 -1.2244 -0.0211  1.7260
 3447SOL    HW313555   1.405   4.280   1.906 -0.6736 -1.4069 -0.6156
 3447SOL    MW413556   1.334   4.255   1.950 -0.3369 -0.2720  0.6275
 3448SOL     OW13557   4.165   0.361   4.011  0.4134 -0.0672 -0.1274
 3448SOL    HW213558   4.227   0.288   4.006 -0.2542 -0.5591 -2.5399
 3448SOL    HW313559   4.216   0.438   3.986  0.9850  0.2842  1.9039
 3448SOL    MW413560   4.180   0.361   4.007  0.4007 -0.0857 -0.1777
 3449SOL     OW13561   1.481   2.505   0.635  0.1495  0.7276  0.0908
 3449SOL    HW213562   1.474   2.540   0.546  1.7676 -0.3099 -0.5001
 3449SOL    HW313563   1.551   2.557   0.675  1.1733 -0.4234 -0.1257
 3449SOL    MW413564   1.489   2.517   0.628  0.4980  0.4388 -0.0157
 3450SOL     OW13565   1.466   5.725   1.831  0.5673 -0.2091  0.1866
 3450SOL    HW213566   1.390   5.769   1.792 -0.6274 -0.2583  2.2930
 3450SOL    HW313567   1.481   5.648   1.776  0.9795  1.3112 -1.9646
 3450SOL    MW413568   1.458   5.721   1.819  0.4641 -0.0150  0.1807
 3451SOL     OW13569   5.937   3.395   3.912 -0.8607 -0.6579 -0.4566
 3451SOL    HW213570   5.945   3.312   3.959 -1.0904 -1.1290 -1.2351
 3451SOL    HW313571   5.875   3.447   3.964 -0.5700 -0.8944  0.1350
 3451SOL    MW413572   5.930   3.391   3.925 -0.8526 -0.7513 -0.4813
 3452SOL     OW13573   4.569   6.331   5.537 -0.1826  0.5489  0.7485
 3452SOL    HW213574   4.648   6.366   5.580 -0.0453  0.2853  0.7134
 3452SOL    HW313575   4.544   6.400   5.475  1.0384 -0.0863 -0.5048
 3452SOL    MW413576   4.576   6.345   5.534 -0.0034  0.4303  0.5785
 3453SOL     OW13577   4.251   2.129   5.618  0.1815 -0.3618  0.2548
 3453SOL    HW213578   4.246   2.225   5.614 -0.5527 -0.3528  1.1895
 3453SOL    HW313579   4.264   2.102   5.527  1.7319  0.6933  0.1267
 3453SOL    MW413580   4.252   2.138   5.605  0.2892 -0.2214  0.3612
 3454SOL     OW13581   3.292   3.649   3.562 -0.0678 -0.4122 -0.1680
 3454SOL    HW213582   3.260   3.615   3.479  0.6708  1.5768 -1.3433
 3454SOL    HW313583   3.284   3.575   3.623 -0.0437 -2.1357 -2.1286
 3454SOL    MW413584   3.287   3.635   3.559  0.0329 -0.3772 -0.5818
 3455SOL     OW13585   5.208   4.584   3.757  0.2212  0.0102  0.3838
 3455SOL    HW213586   5.238   4.633   3.681 -0.8239  0.2980  0.1332
 3455SOL    HW313587   5.283   4.581   3.815  0.3362  1.8845  0.3919
 3455SOL    MW413588   5.222   4.590   3.754  0.0985  0.2955  0.3518
 3456SOL     OW13589   1.125   6.206   0.873 -0.4683 -0.1463 -0.0460
 3456SOL    HW213590   1.052   6.149   0.850 -0.6985  0.4882 -0.9274
 3456SOL    HW313591   1.121   6.278   0.810  1.6816 -0.7569 -1.0124
 3456SOL    MW413592   1.115   6.208   0.861 -0.2150 -0.1431 -0.2898
 3457SOL     OW13593   4.764   0.872   3.748 -0.2758 -0.5891  0.2193
 3457SOL    HW213594   4.796   0.895   3.836  0.0860 -0.3649  0.0317
 3457SOL    HW313595   4.691   0.931   3.733 -1.2258 -1.5367  0.9144
 3457SOL    MW413596   4.759   0.883   3.758 -0.3534 -0.6845  0.2863
 3458SOL     OW13597   1.933   2.595   0.842  0.2453 -0.5045  0.7923
 3458SOL    HW213598   1.849   2.625   0.807  1.0450 -0.0620 -0.8456
 3458SOL    HW313599   1.921   2.501   0.856 -0.4629 -0.4862  0.3607
 3458SOL    MW413600   1.920   2.587   0.839  0.2574 -0.4437  0.5192
 3459SOL     OW13601   1.147   4.309   3.449  0.4499 -0.4029 -0.1034
 3459SOL    HW213602   1.161   4.277   3.539 -2.1247 -0.6566  0.2597
 3459SOL    HW313603   1.162   4.403   3.455 -1.6119 -0.0980  1.1015
 3459SOL    MW413604   1.151   4.317   3.462 -0.1618 -0.3962  0.1035
 3460SOL     OW13605   5.766   3.530   6.168 -0.6657  0.0680 -0.1821
 3460SOL    HW213606   5.777   3.624   6.182  0.7497  0.3882 -2.8417
 3460SOL    HW313607   5.828   3.490   6.229  0.4546  0.9922 -0.6759
 3460SOL    MW413608   5.776   3.537   6.178 -0.3311  0.2322 -0.5981
 3461SOL     OW13609   2.594   3.444   1.696 -0.2168 -0.2938 -0.4746
 3461SOL    HW213610   2.580   3.538   1.684 -1.0153 -0.2941  0.4054
 3461SOL    HW313611   2.507   3.405   1.687  0.0199 -0.8839 -0.2642
 3461SOL    MW413612   2.581   3.452   1.693 -0.2909 -0.3717 -0.3307
 3462SOL     OW13613   4.988   0.534   3.335  0.7091  0.3477 -0.6672
 3462SOL    HW213614   4.918   0.595   3.359 -0.8229 -1.1461 -1.0892
 3462SOL    HW313615   5.047   0.534   3.410 -0.2978  0.9150  0.1582
 3462SOL    MW413616   4.987   0.542   3.348  0.3741  0.2255 -0.6140
 3463SOL     OW13617   3.593   5.748   1.142 -0.3085  0.3489 -0.4741
 3463SOL    HW213618   3.497   5.751   1.147 -0.2462  0.0964  1.8573
 3463SOL    HW313619   3.616   5.663   1.181  0.9047  0.8793  0.0126
 3463SOL    MW413620   3.583   5.737   1.148 -0.1402  0.3856 -0.1023
 3464SOL     OW13621   3.860   0.881   0.127  0.4880 -0.2145 -0.1724
 3464SOL    HW213622   3.902   0.814   0.073 -1.3079  0.5611 -2.7076
 3464SOL    HW313623   3.882   0.857   0.217  4.2513 -1.1712 -1.1818
 3464SOL    MW413624   3.868   0.869   0.132  0.7475 -0.2384 -0.6400
 3465SOL     OW13625   0.358   2.334   1.168 -0.2376  0.8824 -0.1688
 3465SOL    HW213626   0.396   2.410   1.212  1.0393  0.2828 -0.2021
 3465SOL    HW313627   0.419   2.262   1.187 -1.7438 -0.2934  0.4173
 3465SOL    MW413628   0.371   2.334   1.177 -0.2679  0.6482 -0.0959
 3466SOL     OW13629   4.487   4.909   3.984 -0.0844  0.4656 -0.1146
 3466SOL    HW213630   4.558   4.855   3.949 -0.1661  0.8470 -0.8848
 3466SOL    HW313631   4.423   4.914   3.913 -2.1455 -2.0102  1.4192
 3466SOL    MW413632   4.488   4.902   3.970 -0.3671  0.1893 -0.0139
 3467SOL     OW13633   5.281   2.692   5.153 -0.2597  0.0311 -0.1174
 3467SOL    HW213634   5.210   2.754   5.139 -0.0453  0.8241  1.9371
 3467SOL    HW313635   5.240   2.618   5.198 -0.3591 -1.0358 -1.8492
 3467SOL    MW413636   5.267   2.690   5.157 -0.2445 -0.0050 -0.0748
 3468SOL     OW13637   5.931   0.194   4.811 -0.5560  0.5106 -0.3152
 3468SOL    HW213638   5.922   0.104   4.842  0.5864  0.1400 -0.9656
 3468SOL    HW313639   5.919   0.249   4.888 -1.0266 -0.2170  0.1283
 3468SOL    MW413640   5.928   0.190   4.825 -0.4674  0.3657 -0.3425
 3469SOL     OW13641   2.573   3.707   1.651  0.5520 -0.0062  0.0856
 3469SOL    HW213642   2.478   3.715   1.642  0.8580  1.9208 -3.6254
 3469SOL    HW313643   2.593   3.750   1.734 -1.7770 -0.7067  1.1037
 3469SOL    MW413644   2.563   3.713   1.660  0.2851  0.1556 -0.2697
 3470SOL     OW13645   3.917   4.657   2.073  0.1456  0.0455  0.3835
 3470SOL    HW213646   3.825   4.661   2.049  0.3314 -2.0207 -0.9391
 3470SOL    HW313647   3.964   4.678   1.993  0.8157 -0.0633  0.7337
 3470SOL    MW413648   3.911   4.660   2.059  0.2585 -0.2415  0.2552
 3471SOL     OW13649   4.963   3.087   5.304 -0.3199 -0.2075  0.3008
 3471SOL    HW213650   4.928   3.173   5.325 -1.5013 -0.4476 -0.5388
 3471SOL    HW313651   5.041   3.077   5.359  0.3879  1.7723 -0.2809
 3471SOL    MW413652   4.969   3.097   5.314 -0.3824  0.0220  0.1133
 3472SOL     OW13653   3.082   5.187   0.955 -0.0217  0.2322  0.1342
 3472SOL    HW213654   3.088   5.114   0.893 -2.1300  0.8487 -0.8988
 3472SOL    HW313655   3.144   5.252   0.922  0.7575 -0.4593  0.1956
 3472SOL    MW413656   3.091   5.186   0.942 -0.1970  0.2223  0.0060
 3473SOL     OW13657   3.664   3.057   0.935  0.0095  0.1045 -0.1976
 3473SOL    HW213658   3.620   3.141   0.924 -1.3934 -0.6793 -0.8876
 3473SOL    HW313659   3.623   3.018   1.012  0.1015 -0.2764 -0.3375
 3473SOL    MW413660   3.653   3.063   0.944 -0.1635 -0.0491 -0.3071
 3474SOL     OW13661   2.879   0.955   1.086  0.1030  0.2590 -0.4832
 3474SOL    HW213662   2.821   0.879   1.089 -1.0981  1.1643 -0.2695
 3474SOL    HW313663   2.967   0.917   1.074 -0.4509 -1.1578 -0.2872
 3474SOL    MW413664   2.883   0.940   1.085 -0.1285  0.1915 -0.4291
 3475SOL     OW13665   2.083   5.776   6.175 -0.4161 -0.2077 -0.1510
 3475SOL    HW213666   2.062   5.853   6.121 -2.0869  0.3148  1.1427
 3475SOL    HW313667   2.019   5.710   6.147  0.0113 -0.6114 -0.1841
 3475SOL    MW413668   2.072   5.777   6.164 -0.5802 -0.1921  0.0153
 3476SOL     OW13669   3.316   1.394   3.153 -0.2659  0.1827  0.4979
 3476SOL    HW213670   3.226   1.361   3.153 -0.1508 -0.1645 -0.4974
 3476SOL    HW313671   3.368   1.322   3.188 -0.2417 -0.0200  0.0462
 3476SOL    MW413672   3.311   1.380   3.158 -0.2475  0.1102  0.3070
 3477SOL     OW13673   2.394   2.433   2.174 -0.0689  0.4657  0.0260
 3477SOL    HW213674   2.420   2.463   2.087  1.3569 -3.8151 -1.3197
 3477SOL    HW313675   2.306   2.398   2.162  0.9483 -2.2293 -0.5288
 3477SOL    MW413676   2.386   2.432   2.161  0.2534 -0.4547 -0.2247
 3478SOL     OW13677   5.338   2.262   3.395  0.4082  0.5586  0.5948
 3478SOL    HW213678   5.423   2.278   3.354  0.7644  0.6780  1.3689
 3478SOL    HW313679   5.309   2.348   3.425  0.5586  0.3554  1.3570
 3478SOL    MW413680   5.345   2.275   3.394  0.4751  0.5475  0.7975
 3479SOL     OW13681   5.283   2.166   2.864  0.0272  0.0573  0.3767
 3479SOL    HW213682   5.283   2.261   2.851  2.1424  0.1489  0.6296
 3479SOL    HW313683   5.260   2.155   2.957 -0.2252  0.3107  0.3482
 3479SOL    MW413684   5.280   2.177   2.875  0.2730  0.1028  0.4063
 3480SOL     OW13685   4.027   0.948   1.315 -0.0226  0.2432  1.0807
 3480SOL    HW213686   3.981   0.903   1.385  0.4353 -1.2504  0.4717
 3480SOL    HW313687   3.960   1.000   1.272 -0.5296  0.3351  1.9635
 3480SOL    MW413688   4.012   0.949   1.318 -0.0291  0.0582  1.1168
 3481SOL     OW13689   3.757   3.842   3.406 -0.2973 -0.7791  0.5857
 3481SOL    HW213690   3.788   3.930   3.385 -1.3629 -0.8199 -1.4006
 3481SOL    HW313691   3.705   3.816   3.330 -0.6982 -2.8092  1.4842
 3481SOL    MW413692   3.754   3.850   3.393 -0.4908 -1.0523  0.4422
 3482SOL     OW13693   2.138   2.600   4.494 -0.0768 -0.5261 -0.0421
 3482SOL    HW213694   2.161   2.527   4.552 -2.1593 -0.3233  1.1759
 3482SOL    HW313695   2.059   2.570   4.449  1.0845 -0.3866 -2.3160
 3482SOL    MW413696   2.130   2.586   4.496 -0.1984 -0.4809 -0.1814
 3483SOL     OW13697   5.231   5.547   2.435 -0.0636  0.6430 -0.1419
 3483SOL    HW213698   5.240   5.483   2.364 -0.0665  2.1893 -1.5882
 3483SOL    HW313699   5.207   5.494   2.511  1.0049 -1.1967 -1.0066
 3483SOL    MW413700   5.229   5.532   2.435  0.0770  0.6043 -0.4468
 3484SOL     OW13701   5.349   4.176   5.338 -0.4034 -0.2174 -0.4063
 3484SOL    HW213702   5.390   4.256   5.372 -0.7607 -0.5168  0.7738
 3484SOL    HW313703   5.306   4.204   5.257 -1.3233  1.0233  0.4635
 3484SOL    MW413704   5.349   4.191   5.332 -0.5719 -0.0932 -0.1359
 3485SOL     OW13705   4.865   5.649   0.749  0.1229 -0.1973 -0.3928
 3485SOL    HW213706   4.953   5.612   0.754  0.0078 -0.3971  0.1901
 3485SOL    HW313707   4.837   5.633   0.659  0.9627  0.5123 -0.7954
 3485SOL    MW413708   4.873   5.642   0.738  0.2185 -0.1301 -0.3690
 3486SOL     OW13709   3.408   1.154   1.525 -0.2109 -0.0548  0.3030
 3486SOL    HW213710   3.353   1.084   1.560 -1.7938  0.3395 -1.2382
 3486SOL    HW313711   3.352   1.199   1.462  1.2001  1.7703  0.2692
 3486SOL    MW413712   3.393   1.151   1.521 -0.2336  0.2380  0.0952
 3487SOL     OW13713   5.149   6.453   0.232  0.3349  0.1849 -0.6083
 3487SOL    HW213714   5.070   6.481   0.278  1.1426 -0.6247  1.4033
 3487SOL    HW313715   5.119   6.387   0.169 -0.3839 -1.9340  1.8083
 3487SOL    MW413716   5.134   6.448   0.230  0.3466 -0.2015 -0.0241
 3488SOL     OW13717   3.688   1.119   0.442 -0.1726  0.5143 -0.0470
 3488SOL    HW213718   3.660   1.029   0.428  1.1945  0.2633 -1.3148
 3488SOL    HW313719   3.675   1.134   0.536  1.2963 -1.5986  0.5418
 3488SOL    MW413720   3.682   1.109   0.452  0.2016  0.2024 -0.1366
 3489SOL     OW13721   5.462   5.709   0.101  0.4790  0.0882  0.8699
 3489SOL    HW213722   5.401   5.782   0.090  1.2242  0.7782  1.2262
 3489SOL    HW313723   5.541   5.749   0.139  2.0760 -0.3447 -1.7236
 3489SOL    MW413724   5.465   5.724   0.105  0.7881  0.1221  0.5748
 3490SOL     OW13725   2.522   6.299   6.293 -0.3277  0.1070 -0.4193
 3490SOL    HW213726   2.600   6.316   6.242 -0.3358 -0.8380 -0.7682
 3490SOL    HW313727   2.526   6.205   6.313 -1.7074 -0.1156 -1.0340
 3490SOL    MW413728   2.533   6.289   6.289 -0.5108 -0.0470 -0.5465
 3491SOL     OW13729   3.028   1.101   0.595  0.2382  0.1846  0.3891
 3491SOL    HW213730   3.022   1.141   0.682  1.8996  1.7596 -0.1508
 3491SOL    HW313731   3.118   1.069   0.589 -0.0503 -0.5165 -0.5267
 3491SOL    MW413732   3.039   1.102   0.606  0.4193  0.2999  0.1971
 3492SOL     OW13733   4.193   0.120   4.542  0.3807  0.3223 -0.1302
 3492SOL    HW213734   4.225   0.204   4.509 -2.6148  1.1202 -1.3225
 3492SOL    HW313735   4.153   0.141   4.626 -1.2885  0.3472 -0.8980
 3492SOL    MW413736   4.192   0.134   4.549 -0.2348  0.4309 -0.3888
 3493SOL     OW13737   3.532   2.153   4.805  0.1165  0.0486  0.1375
 3493SOL    HW213738   3.560   2.225   4.861 -1.7252  1.1032 -0.2093
 3493SOL    HW313739   3.555   2.180   4.717  1.6972 -0.9651  0.1954
 3493SOL    MW413740   3.538   2.166   4.801  0.0820  0.0540  0.0993
 3494SOL     OW13741   5.848   2.604   3.046 -0.4303 -0.2209  0.8339
 3494SOL    HW213742   5.927   2.651   3.073 -0.6651 -0.4176  1.8917
 3494SOL    HW313743   5.876   2.513   3.036  0.1104  0.1247 -1.5683
 3494SOL    MW413744   5.862   2.598   3.048 -0.3899 -0.2012  0.6565
 3495SOL     OW13745   2.851   4.084   0.845 -0.3354  0.4481 -0.3267
 3495SOL    HW213746   2.898   4.049   0.921 -0.7765  2.7055  1.0906
 3495SOL    HW313747   2.887   4.036   0.771  0.3061 -1.6739  1.2565
 3495SOL    MW413748   2.862   4.073   0.846 -0.3089  0.4660  0.0692
 3496SOL     OW13749   6.367   1.398   1.711  0.4303  0.5141 -0.7342
 3496SOL    HW213750   6.356   1.436   1.798  1.1244 -2.7786  0.9889
 3496SOL    HW313751   6.461   1.391   1.700  0.3459 -0.5519 -0.9522
 3496SOL    MW413752   6.378   1.402   1.721  0.5107 -0.0610 -0.5356
 3497SOL     OW13753   2.857   0.158   0.371  0.3457 -0.1521  0.8593
 3497SOL    HW213754   2.775   0.117   0.344 -0.4400  0.3364  2.3895
 3497SOL    HW313755   2.895   0.191   0.290 -1.3725  0.3220  0.1891
 3497SOL    MW413756   2.851   0.157   0.357  0.0153 -0.0251  0.9728
 3498SOL     OW13757   4.293   4.614   0.756 -0.1266  0.3319 -0.3772
 3498SOL    HW213758   4.295   4.700   0.797  1.2769  0.0888  0.1244
 3498SOL    HW313759   4.201   4.599   0.734 -0.7540  0.9637  1.6457
 3498SOL    MW413760   4.281   4.623   0.759 -0.0242  0.3832 -0.0441
 3499SOL     OW13761   2.031   1.319   3.108  0.3211  0.4222 -0.4582
 3499SOL    HW213762   2.017   1.338   3.015 -0.4072  2.2789 -0.0183
 3499SOL    HW313763   2.083   1.239   3.109 -1.2965 -0.7440 -2.4223
 3499SOL    MW413764   2.036   1.311   3.096  0.0116  0.5133 -0.6593
 3500SOL     OW13765   3.259   3.160   3.039 -0.6011  0.0049  0.6425
 3500SOL    HW213766   3.234   3.103   2.967  0.4064 -0.3989  0.5963
 3500SOL    HW313767   3.292   3.101   3.107 -1.9946  0.3300  1.6561
 3500SOL    MW413768   3.260   3.145   3.039 -0.6520 -0.0055  0.7701
 3501SOL     OW13769   3.878   6.341   5.790  0.0487  0.2294  0.3739
 3501SOL    HW213770   3.972   6.328   5.772 -0.2036 -1.6708  0.1722
 3501SOL    HW313771   3.876   6.378   5.879  0.9975  0.2402  0.4045
 3501SOL    MW413772   3.890   6.344   5.800  0.1406 -0.0199  0.3513
 3502SOL     OW13773   1.635   1.416   4.977 -0.0065 -0.2732 -0.1212
 3502SOL    HW213774   1.622   1.506   5.007  0.7077 -0.7732  1.8363
 3502SOL    HW313775   1.548   1.376   4.984 -0.6703  0.5734 -2.3976
 3502SOL    MW413776   1.622   1.423   4.982  0.0001 -0.2275 -0.1633
 3503SOL     OW13777   4.281   2.016   5.344  0.0698 -0.4317 -0.5681
 3503SOL    HW213778   4.369   1.993   5.315  0.5309  0.8627 -0.2492
 3503SOL    HW313779   4.241   1.932   5.369  2.0147 -0.8353  1.5272
 3503SOL    MW413780   4.287   2.002   5.344  0.3872 -0.3142 -0.2496
 3504SOL     OW13781   0.288   4.657   3.410  1.0190  0.6643 -0.9276
 3504SOL    HW213782   0.277   4.564   3.433 -1.1369  0.7484 -1.3830
 3504SOL    HW313783   0.297   4.701   3.495 -1.0567  0.3343 -0.4837
 3504SOL    MW413784   0.287   4.651   3.424  0.4607  0.6319 -0.9291
 3505SOL     OW13785   1.221   6.295   3.510 -0.0893  0.2256  0.3445
 3505SOL    HW213786   1.267   6.227   3.460  0.5547 -1.4225  2.9511
 3505SOL    HW313787   1.291   6.343   3.554 -0.6649 -0.1917  1.7855
 3505SOL    MW413788   1.236   6.292   3.509 -0.0803 -0.0469  0.8785
 3506SOL     OW13789   4.563   4.681   3.716  0.4061  1.2275  0.3967
 3506SOL    HW213790   4.552   4.623   3.792  0.8112  0.0303 -0.4256
 3506SOL    HW313791   4.654   4.709   3.720  0.3544  1.3811  0.5000
 3506SOL    MW413792   4.574   4.677   3.726  0.4528  1.0898  0.3019
 3507SOL     OW13793   0.026   5.573   5.483 -0.3464 -0.1828 -0.5537
 3507SOL    HW213794   0.014   5.667   5.469  1.3662  0.1326 -0.0754
 3507SOL    HW313795   0.014   5.562   5.578  0.7207 -0.2144 -0.4096
 3507SOL    MW413796   0.022   5.584   5.494  0.0203 -0.1453 -0.4715
 3508SOL     OW13797   4.975   5.657   2.411  0.5563  0.6389 -0.5248
 3508SOL    HW213798   4.932   5.627   2.331 -0.4752 -0.3527  0.3648
 3508SOL    HW313799   5.058   5.608   2.413 -0.0942 -0.4859 -0.2395
 3508SOL    MW413800   4.980   5.647   2.401  0.3344  0.3597 -0.3698
 3509SOL     OW13801   5.882   2.758   3.725  0.1727  0.5303  0.3390
 3509SOL    HW213802   5.888   2.678   3.776 -0.1756  0.7065  0.6576
 3509SOL    HW313803   5.964   2.760   3.675  1.1885  1.0640  1.9290
 3509SOL    MW413804   5.894   2.748   3.725  0.2607  0.6239  0.5908
 3510SOL     OW13805   5.182   4.673   3.227  0.6220  0.0820  0.3249
 3510SOL    HW213806   5.123   4.743   3.254  0.2647 -0.4906  1.0472
 3510SOL    HW313807   5.163   4.601   3.286  1.0785 -0.5882 -0.3226
 3510SOL    MW413808   5.172   4.673   3.238  0.6351 -0.0819  0.3348
 3511SOL     OW13809   0.182   5.345   0.662  0.4177  0.6907  0.4784
 3511SOL    HW213810   0.116   5.393   0.711  1.6034  2.4230  0.4806
 3511SOL    HW313811   0.195   5.264   0.711  1.5206  2.3163  3.0699
 3511SOL    MW413812   0.175   5.341   0.675  0.7196  1.1337  0.8206
 3512SOL     OW13813   0.478   3.729   3.964 -0.5145  0.0518  0.2008
 3512SOL    HW213814   0.566   3.700   3.939 -1.0333 -1.2874 -0.1549
 3512SOL    HW313815   0.431   3.735   3.881 -1.2590 -0.9961  0.5278
 3512SOL    MW413816   0.484   3.726   3.949 -0.6811 -0.2631  0.1970
 3513SOL     OW13817   2.552   2.322   3.373  0.2353  0.0616 -0.6344
 3513SOL    HW213818   2.560   2.415   3.352 -0.0638 -0.2071 -2.0589
 3513SOL    HW313819   2.494   2.287   3.305  0.8901 -1.2954 -0.5298
 3513SOL    MW413820   2.546   2.330   3.361  0.2823 -0.1529 -0.8086
 3514SOL     OW13821   0.852   3.986   6.223  0.1564  0.0335  0.1318
 3514SOL    HW213822   0.881   3.958   6.136 -2.2020  0.9120 -1.0379
 3514SOL    HW313823   0.884   4.076   6.232 -1.7279  0.8873 -1.0188
 3514SOL    MW413824   0.860   3.994   6.212 -0.4034  0.2621 -0.1743
 3515SOL     OW13825   4.401   3.113   3.652 -0.0409  0.4963 -0.5528
 3515SOL    HW213826   4.403   3.149   3.563  0.0523  2.0325  0.0396
 3515SOL    HW313827   4.478   3.151   3.695  0.3004 -0.7787 -0.0019
 3515SOL    MW413828   4.411   3.123   3.646  0.0165  0.5307 -0.4020
 3516SOL     OW13829   1.221   4.714   3.620  0.0286  0.2904  0.3176
 3516SOL    HW213830   1.131   4.692   3.597  0.3937  0.0334 -0.9447
 3516SOL    HW313831   1.263   4.630   3.636  0.5173  0.2602 -1.0006
 3516SOL    MW413832   1.214   4.700   3.619  0.1412  0.2525 -0.0228
 3517SOL     OW13833   5.990   3.181   4.895  0.0602 -0.1775 -0.3325
 3517SOL    HW213834   6.034   3.123   4.833  0.8224 -2.0541  1.8191
 3517SOL    HW313835   6.033   3.266   4.883 -0.5773 -0.1701 -3.0505
 3517SOL    MW413836   6.002   3.185   4.886  0.0767 -0.4241 -0.4072
 3518SOL     OW13837   1.360   3.240   5.050 -0.5668  1.0926  0.2164
 3518SOL    HW213838   1.369   3.330   5.080 -2.5844  1.2869  0.4122
 3518SOL    HW313839   1.265   3.224   5.050 -0.4504 -0.1391 -2.4677
 3518SOL    MW413840   1.348   3.250   5.054 -0.8176  0.9557 -0.1119
 3519SOL     OW13841   0.357   0.871   5.693  0.0578  0.0760 -0.7175
 3519SOL    HW213842   0.435   0.850   5.641 -1.0818 -0.5790 -2.2230
 3519SOL    HW313843   0.392   0.893   5.780  1.8287 -1.5012 -0.9593
 3519SOL    MW413844   0.372   0.871   5.698  0.1411 -0.2185 -0.9480
 3520SOL     OW13845   5.496   2.044   5.582  0.2071 -0.1460  0.5267
 3520SOL    HW213846   5.405   2.023   5.559  0.4273  0.4002 -0.9939
 3520SOL    HW313847   5.543   1.961   5.573  0.1791 -0.0660 -0.5798
 3520SOL    MW413848   5.490   2.031   5.577  0.2325 -0.0634  0.1801
 3521SOL     OW13849   0.160   3.687   0.094  0.0436 -0.7833  0.2880
 3521SOL    HW213850   0.253   3.709   0.093  0.2717 -1.5923  1.8765
 3521SOL    HW313851   0.154   3.608   0.148 -1.7052 -0.0371  1.2577
 3521SOL    MW413852   0.172   3.679   0.101 -0.1570 -0.7916  0.6255
 3522SOL     OW13853   5.291   4.397   1.230  0.7898 -0.2067 -0.0343
 3522SOL    HW213854   5.361   4.446   1.186  0.0885 -0.1636 -1.1645
 3522SOL    HW313855   5.211   4.427   1.186  0.2223 -1.4518  0.1194
 3522SOL    MW413856   5.290   4.408   1.218  0.6224 -0.3653 -0.1631
 3523SOL     OW13857   0.616   3.814   6.275 -0.2517  0.0298 -0.7901
 3523SOL    HW213858   0.686   3.880   6.266  0.1856 -0.2815  0.1430
 3523SOL    HW313859   0.615   3.768   6.191  0.7250 -0.0051 -0.7967
 3523SOL    MW413860   0.625   3.817   6.263 -0.0651 -0.0159 -0.6678
 3524SOL     OW13861   5.758   2.607   3.469 -0.2955  0.0015  0.0652
 3524SOL    HW213862   5.707   2.646   3.399 -0.2432 -1.2200 -0.6695
 3524SOL    HW313863   5.849   2.625   3.445 -0.3009  0.7810  0.5570
 3524SOL    MW413864   5.764   2.615   3.457 -0.2893 -0.0568  0.0332
 3525SOL     OW13865   1.855   4.599   1.551  0.0718  0.1466  0.0947
 3525SOL    HW213866   1.781   4.568   1.499  0.6801 -0.6679 -0.3168
 3525SOL    HW313867   1.842   4.694   1.558 -1.1882 -0.0294  0.3394
 3525SOL    MW413868   1.844   4.608   1.545 -0.0142  0.0160  0.0727
 3526SOL     OW13869   2.759   6.002   4.318 -0.1401 -0.3965 -0.4021
 3526SOL    HW213870   2.710   6.084   4.309  0.3472 -0.1868 -1.2327
 3526SOL    HW313871   2.716   5.942   4.257  0.9528 -0.0406 -1.5777
 3526SOL    MW413872   2.747   6.005   4.309  0.0684 -0.3219 -0.6668
 3527SOL     OW13873   1.254   6.440   2.720  0.0779  0.6750  0.1157
 3527SOL    HW213874   1.325   6.391   2.762  1.1972  1.9933 -0.1539
 3527SOL    HW313875   1.235   6.512   2.780 -1.7208 -0.1720  0.6282
 3527SOL    MW413876   1.261   6.443   2.734 -0.0117  0.7371  0.1478
 3528SOL     OW13877   0.648   2.920   0.316  0.1135  0.0958 -0.2546
 3528SOL    HW213878   0.704   2.908   0.393 -0.7090 -0.8856  0.2196
 3528SOL    HW313879   0.663   3.010   0.289  3.5600 -0.7102 -1.4862
 3528SOL    MW413880   0.657   2.930   0.323  0.4597 -0.1400 -0.3546
 3529SOL     OW13881   1.163   1.692   1.906 -0.2504 -0.4612 -0.4836
 3529SOL    HW213882   1.180   1.627   1.838  0.3173  0.9452 -1.7222
 3529SOL    HW313883   1.215   1.768   1.881 -1.9291  0.9838  0.1683
 3529SOL    MW413884   1.172   1.693   1.894 -0.3970 -0.0850 -0.5610
 3530SOL     OW13885   5.777   1.628   2.804  0.6427  0.5214  0.4204
 3530SOL    HW213886   5.785   1.704   2.747  0.6443 -0.3714 -0.8085
 3530SOL    HW313887   5.689   1.594   2.786  0.7331  0.0899  0.7731
 3530SOL    MW413888   5.766   1.633   2.794  0.6548  0.3467  0.3048
 3531SOL     OW13889   5.676   0.592   1.943  0.0803  0.2610 -0.1556
 3531SOL    HW213890   5.732   0.593   2.020  0.0644  0.5953 -0.1479
 3531SOL    HW313891   5.608   0.528   1.963  1.4155 -1.4594 -0.8399
 3531SOL    MW413892   5.674   0.583   1.956  0.2543  0.0781 -0.2449
 3532SOL     OW13893   3.790   5.826   5.176 -0.3528  0.5650 -0.0860
 3532SOL    HW213894   3.868   5.858   5.132 -0.3329  0.1078 -0.3864
 3532SOL    HW313895   3.722   5.827   5.109 -0.3817  0.1002 -0.0678
 3532SOL    MW413896   3.791   5.830   5.161 -0.3540  0.4433 -0.1232
 3533SOL     OW13897   0.514   5.708   4.291  0.2426 -0.3037  0.7437
 3533SOL    HW213898   0.551   5.750   4.214 -1.2058 -1.8438 -0.8862
 3533SOL    HW313899   0.589   5.675   4.340  1.1537 -0.2004 -0.5521
 3533SOL    MW413900   0.528   5.709   4.287  0.1717 -0.4933  0.3577
 3534SOL     OW13901   2.930   3.980   2.694 -0.1037 -0.4470 -0.6590
 3534SOL    HW213902   2.923   4.014   2.783  1.6415 -0.6737 -0.4011
 3534SOL    HW313903   2.945   4.058   2.640  3.7488 -0.5838 -0.0862
 3534SOL    MW413904   2.931   3.995   2.699  0.6349 -0.4950 -0.5494
 3535SOL     OW13905   4.410   2.025   0.698 -0.1821  0.4653 -0.0255
 3535SOL    HW213906   4.445   2.096   0.645  0.3604  0.3135  0.1193
 3535SOL    HW313907   4.484   1.965   0.709 -1.2709 -1.4110 -2.2653
 3535SOL    MW413908   4.424   2.026   0.693 -0.2541  0.1977 -0.3019
 3536SOL     OW13909   3.770   1.992   5.811  0.5856  0.3704 -0.4752
 3536SOL    HW213910   3.784   1.995   5.717  0.5269  0.6182 -0.4751
 3536SOL    HW313911   3.820   2.066   5.846  1.8341 -0.5787 -0.1594
 3536SOL    MW413912   3.779   2.002   5.803  0.7426  0.2779 -0.4335
 3537SOL     OW13913   6.131   3.619   0.912 -0.3008  0.2445 -0.1900
 3537SOL    HW213914   6.082   3.675   0.972 -2.5772 -0.9793 -0.8057
 3537SOL    HW313915   6.138   3.670   0.832  0.8840  1.0475  0.3980
 3537SOL    MW413916   6.125   3.633   0.910 -0.4448  0.1890 -0.1936
 3538SOL     OW13917   4.782   2.053   5.065  0.0001 -0.0362  0.1374
 3538SOL    HW213918   4.764   2.118   5.133 -0.5667  0.7695 -0.7432
 3538SOL    HW313919   4.833   1.985   5.109  0.8686  1.1510  1.0237
 3538SOL    MW413920   4.786   2.053   5.080  0.0399  0.2267  0.1381
 3539SOL     OW13921   3.617   3.903   2.454  0.2102  0.1262  0.5131
 3539SOL    HW213922   3.687   3.860   2.406  0.5654 -0.4554  1.5216
 3539SOL    HW313923   3.651   3.992   2.471  0.7819 -0.1984  1.1292
 3539SOL    MW413924   3.631   3.909   2.450  0.3325  0.0066  0.7274
 3540SOL     OW13925   1.714   2.356   1.420  0.3015 -0.3723 -0.0711
 3540SOL    HW213926   1.713   2.445   1.453 -2.2267 -1.2527  2.6767
 3540SOL    HW313927   1.806   2.330   1.419  0.8155  1.0874  2.6599
 3540SOL    MW413928   1.726   2.364   1.424  0.0357 -0.2958  0.6517
 3541SOL     OW13929   6.088   4.185   5.775 -0.2584  0.0965  0.5868
 3541SOL    HW213930   6.037   4.133   5.713 -0.6170  1.9200 -0.7134
 3541SOL    HW313931   6.126   4.255   5.723  2.3386 -0.2789  1.8102
 3541SOL    MW413932   6.086   4.187   5.760  0.0369  0.2876  0.5767
 3542SOL     OW13933   4.377   1.428   5.206 -0.2625  0.4472  0.2244
 3542SOL    HW213934   4.403   1.431   5.114 -1.2856  1.8491 -0.0496
 3542SOL    HW313935   4.311   1.359   5.210  1.1304 -0.9357  0.3114
 3542SOL    MW413936   4.372   1.419   5.194 -0.2137  0.4497  0.1997
 3543SOL     OW13937   2.059   2.351   3.555  0.2244 -0.1456 -0.1434
 3543SOL    HW213938   2.096   2.427   3.511 -0.7516  0.9803  0.8847
 3543SOL    HW313939   2.083   2.363   3.647  0.4430 -1.3406 -0.0259
 3543SOL    MW413940   2.067   2.363   3.562  0.1244 -0.1547  0.0077
 3544SOL     OW13941   6.211   4.162   2.842  0.2232  0.3062 -0.6770
 3544SOL    HW213942   6.236   4.245   2.802  0.7489  0.0892 -0.8090
 3544SOL    HW313943   6.195   4.104   2.768  2.5488 -0.5024 -0.6370
 3544SOL    MW413944   6.212   4.165   2.827  0.5994  0.1709 -0.6892
 3545SOL     OW13945   0.896   1.989   2.021 -0.1940  0.4528  0.0994
 3545SOL    HW213946   0.932   2.051   1.957  1.0853 -0.7057 -0.3584
 3545SOL    HW313947   0.853   2.044   2.086  2.2996  1.9743  0.6039
 3545SOL    MW413948   0.896   2.004   2.021  0.3038  0.5007  0.1056
 3546SOL     OW13949   4.155   0.965   0.551  0.5791 -0.2437 -0.2156
 3546SOL    HW213950   4.136   0.949   0.643  0.7669 -0.1103 -0.1518
 3546SOL    HW313951   4.186   1.055   0.548 -1.0545  0.3356 -0.6572
 3546SOL    MW413952   4.157   0.975   0.563  0.3883 -0.1497 -0.2654
 3547SOL     OW13953   2.128   5.491   5.604  0.0786 -0.2045 -0.0656
 3547SOL    HW213954   2.097   5.454   5.522  1.7005 -1.7914 -0.0258
 3547SOL    HW313955   2.049   5.503   5.657 -0.6476 -2.6192 -0.5140
 3547SOL    MW413956   2.114   5.488   5.600  0.1968 -0.7325 -0.1195
 3548SOL     OW13957   4.228   0.732   6.221  0.1437  0.6035 -0.5454
 3548SOL    HW213958   4.259   0.718   6.310 -0.2860 -0.3994 -0.5478
 3548SOL    HW313959   4.198   0.824   6.221  0.5765  0.7568  0.2020
 3548SOL    MW413960   4.228   0.743   6.233  0.1441  0.4914 -0.4471
 3549SOL     OW13961   2.494   0.746   6.222 -0.7736  0.1492 -0.2635
 3549SOL    HW213962   2.458   0.830   6.251  1.3925  1.2508 -0.5198
 3549SOL    HW313963   2.500   0.753   6.127  0.7659  0.3425 -0.1830
 3549SOL    MW413964   2.490   0.758   6.213 -0.2847  0.3201 -0.2867
 3550SOL     OW13965   5.372   3.867   0.853  0.6336 -0.0300  0.1450
 3550SOL    HW213966   5.422   3.945   0.876  0.1687  0.8409 -1.5793
 3550SOL    HW313967   5.437   3.797   0.853  0.9897  0.2400  2.0894
 3550SOL    MW413968   5.387   3.868   0.856  0.6193  0.1205  0.1740
 3551SOL     OW13969   6.321   4.477   3.571  0.2150 -0.1282 -0.1229
 3551SOL    HW213970   6.226   4.468   3.580  0.1379  0.2416 -0.5403
 3551SOL    HW313971   6.356   4.448   3.655 -0.1571 -1.8933 -0.5338
 3551SOL    MW413972   6.313   4.472   3.583  0.1557 -0.3123 -0.2322
 3552SOL     OW13973   0.802   5.812   5.972  0.1089  0.4493 -0.1695
 3552SOL    HW213974   0.726   5.860   5.939 -1.8908 -1.3376  1.5188
 3552SOL    HW313975   0.801   5.825   6.067  0.9165 -0.9547  0.0703
 3552SOL    MW413976   0.792   5.820   5.980 -0.0484  0.0283  0.0849
 3553SOL     OW13977   6.043   2.262   3.743  0.4143  0.0870  0.4990
 3553SOL    HW213978   6.117   2.238   3.799  1.3271 -1.3565 -1.2185
 3553SOL    HW313979   6.081   2.322   3.678 -0.1446  0.0629  0.1439
 3553SOL    MW413980   6.058   2.267   3.741  0.4610 -0.1066  0.2255
 3554SOL     OW13981   3.128   0.576   0.810 -0.1847  0.2757  0.5332
 3554SOL    HW213982   3.090   0.597   0.895 -1.7185  0.4708 -0.1510
 3554SOL    HW313983   3.063   0.519   0.769 -0.4895  1.8075 -1.2870
 3554SOL    MW413984   3.114   0.571   0.815 -0.4273  0.5035  0.2028
 3555SOL     OW13985   4.792   0.746   3.130 -0.0009 -0.1236  0.0043
 3555SOL    HW213986   4.752   0.686   3.193 -0.1627 -0.1028 -0.0784
 3555SOL    HW313987   4.829   0.816   3.183 -0.5048  0.1105  0.0477
 3555SOL    MW413988   4.792   0.747   3.145 -0.0887 -0.0899 -0.0009
 3556SOL     OW13989   5.566   5.628   4.740  0.3640  0.0271  0.1826
 3556SOL    HW213990   5.537   5.642   4.650  1.9788 -1.2542 -0.5861
 3556SOL    HW313991   5.599   5.538   4.741  1.0913  0.2801  1.8631
 3556SOL    MW413992   5.566   5.618   4.729  0.6730 -0.1086  0.3029
 3557SOL     OW13993   5.492   0.881   1.860 -0.0242  0.7450  0.0915
 3557SOL    HW213994   5.566   0.863   1.918  0.7161  1.0488 -0.7231
 3557SOL    HW313995   5.416   0.847   1.906  0.8058 -0.8712  0.3446
 3557SOL    MW413996   5.492   0.874   1.873  0.1829  0.5718  0.0174
 3558SOL     OW13997   5.732   1.226   0.683 -0.1277 -0.6204 -0.1195
 3558SOL    HW213998   5.694   1.307   0.650  0.0802 -0.5282 -0.1339
 3558SOL    HW313999   5.696   1.157   0.627  2.1407 -0.2522 -2.2187
 3558SOL    MW414000   5.723   1.228   0.671  0.1990 -0.5597 -0.3984
 3559SOL     OW14001   1.567   4.549   3.531 -0.3758 -0.2408 -0.2712
 3559SOL    HW214002   1.527   4.598   3.459 -2.1722 -1.0978  0.0801
 3559SOL    HW314003   1.579   4.614   3.600 -1.2468  0.0344 -0.3690
 3559SOL    MW414004   1.563   4.564   3.531 -0.7277 -0.3176 -0.2377
 3560SOL     OW14005   4.712   4.184   4.411 -0.3510 -0.1630  0.3608
 3560SOL    HW214006   4.690   4.205   4.320  1.5262  1.9804  0.3163
 3560SOL    HW314007   4.663   4.248   4.462  1.1757  0.8898  0.5863
 3560SOL    MW414008   4.703   4.196   4.405  0.0981  0.2587  0.3847
 3561SOL     OW14009   5.682   1.726   1.859 -0.1486 -0.0269 -0.0722
 3561SOL    HW214010   5.720   1.654   1.809  0.9475  0.0274  0.6630
 3561SOL    HW314011   5.681   1.696   1.949  0.3197  0.8670  0.2438
 3561SOL    MW414012   5.687   1.713   1.864  0.0578  0.0982  0.0665
 3562SOL     OW14013   1.901   5.593   5.232  0.5659 -0.3647  0.5203
 3562SOL    HW214014   1.968   5.650   5.193 -0.0602  0.7353  0.9895
 3562SOL    HW314015   1.860   5.647   5.300 -1.1794 -0.7934 -0.1269
 3562SOL    MW414016   1.904   5.608   5.236  0.2530 -0.2761  0.4968
 3563SOL     OW14017   2.653   3.794   2.147 -0.1501 -0.0462  0.6162
 3563SOL    HW214018   2.712   3.835   2.210 -1.1355  0.0918  1.4792
 3563SOL    HW314019   2.648   3.703   2.175  0.1235 -0.1959  0.1808
 3563SOL    MW414020   2.660   3.788   2.159 -0.2440 -0.0477  0.6726
 3564SOL     OW14021   3.158   3.254   4.121  0.0657  0.1138 -0.1801
 3564SOL    HW214022   3.078   3.224   4.164  0.0722  1.2620  0.6810
 3564SOL    HW314023   3.131   3.330   4.070  0.2251 -0.7405 -1.5948
 3564SOL    MW414024   3.144   3.260   4.120  0.0876  0.1525 -0.2532
 3565SOL     OW14025   2.460   5.494   1.665 -0.3230  0.0014  0.1971
 3565SOL    HW214026   2.494   5.579   1.694 -2.0716  0.0645  2.2906
 3565SOL    HW314027   2.536   5.436   1.668  0.5184  1.0822  0.4465
 3565SOL    MW414028   2.475   5.498   1.669 -0.4427  0.1523  0.5062
 3566SOL     OW14029   1.005   0.228   4.081 -0.1268 -0.0340  0.2486
 3566SOL    HW214030   0.930   0.169   4.071 -0.8573  0.8212  0.5100
 3566SOL    HW314031   1.081   0.170   4.077 -0.6988 -0.7282 -1.6993
 3566SOL    MW414032   1.005   0.212   4.079 -0.2987 -0.0128  0.0261
 3567SOL     OW14033   1.642   5.969   4.288  0.0687  0.3072  0.8113
 3567SOL    HW214034   1.662   5.941   4.378 -0.1054  0.2444  0.8303
 3567SOL    HW314035   1.669   6.061   4.286 -0.7748  0.5771  1.2048
 3567SOL    MW414036   1.648   5.978   4.300 -0.0656  0.3345  0.8657
 3568SOL     OW14037   5.463   1.958   2.840 -0.2766 -0.4053 -0.3015
 3568SOL    HW214038   5.464   1.934   2.748 -0.8746 -1.8556  0.0530
 3568SOL    HW314039   5.399   2.029   2.846  1.4862  1.3835 -1.3469
 3568SOL    MW414040   5.455   1.964   2.829 -0.1229 -0.3606 -0.3927
 3569SOL     OW14041   6.114   6.338   6.353 -0.1631 -0.6769  0.5616
 3569SOL    HW214042   6.019   6.338   6.364 -0.0241  0.0423  1.9971
 3569SOL    HW314043   6.131   6.411   6.293 -0.3430  1.0683  2.5305
 3569SOL    MW414044   6.104   6.347   6.347 -0.1685 -0.3518  1.0107
 3570SOL     OW14045   4.789   0.337   1.723 -0.7576 -0.6368  0.3622
 3570SOL    HW214046   4.861   0.375   1.772 -0.5664  0.9275 -1.0518
 3570SOL    HW314047   4.829   0.267   1.671 -0.2994 -0.0496 -0.0988
 3570SOL    MW414048   4.804   0.333   1.722 -0.6719 -0.3529  0.1148
 3571SOL     OW14049   1.417   2.043   2.721  0.2907 -0.5873 -1.0886
 3571SOL    HW214050   1.381   2.112   2.664 -0.9174 -1.3362 -1.2643
 3571SOL    HW314051   1.461   1.983   2.661 -0.5382 -1.1027 -1.2007
 3571SOL    MW414052   1.418   2.044   2.706  0.0220 -0.7541 -1.1266
 3572SOL     OW14053   2.464   3.754   0.957  0.1875 -0.1898  0.4584
 3572SOL    HW214054   2.530   3.694   0.992 -1.2351 -1.8152  0.4263
 3572SOL    HW314055   2.411   3.778   1.033 -1.0289 -1.3088 -0.0134
 3572SOL    MW414056   2.466   3.750   0.972 -0.1607 -0.5519  0.3919
 3573SOL     OW14057   4.787   0.986   1.247  0.3063  0.4503  0.0024
 3573SOL    HW214058   4.730   0.923   1.291  0.5787  0.3536  0.2273
 3573SOL    HW314059   4.733   1.063   1.233 -0.3853 -0.2314 -1.3203
 3573SOL    MW414060   4.773   0.988   1.251  0.2510  0.3476 -0.1424
 3574SOL     OW14061   3.726   2.393   0.481 -0.0085 -0.1377  0.6939
 3574SOL    HW214062   3.715   2.303   0.513 -1.7171  0.4059  1.7672
 3574SOL    HW314063   3.649   2.408   0.426 -0.5302  1.1449  1.7341
 3574SOL    MW414064   3.714   2.383   0.478 -0.3028  0.1032  0.9728
 3575SOL     OW14065   0.984   5.586   2.978  0.3341  0.2967 -0.2906
 3575SOL    HW214066   1.045   5.522   2.940 -0.0315 -0.1175 -0.1853
 3575SOL    HW314067   0.998   5.577   3.073  0.2292  0.3187 -0.2735
 3575SOL    MW414068   0.994   5.576   2.986  0.2721  0.2449 -0.2745
 3576SOL     OW14069   6.422   0.167   5.592  0.5058  0.4912  0.2259
 3576SOL    HW214070   6.513   0.156   5.620  0.2869 -1.0346  0.3735
 3576SOL    HW314071   6.382   0.219   5.662  0.8603 -0.2260  0.9788
 3576SOL    MW414072   6.429   0.173   5.605  0.5237  0.1953  0.3447
 3577SOL     OW14073   3.960   1.251   0.344 -0.0279  0.0020  0.4450
 3577SOL    HW214074   3.939   1.158   0.347 -3.4513  0.6154 -0.0417
 3577SOL    HW314075   3.918   1.287   0.423  0.2951  1.2574  0.0622
 3577SOL    MW414076   3.951   1.243   0.355 -0.4370  0.2486  0.3303
 3578SOL     OW14077   4.291   2.727   4.640  0.0931  0.2246  0.3846
 3578SOL    HW214078   4.247   2.719   4.725 -2.2936  0.2239 -0.7715
 3578SOL    HW314079   4.221   2.749   4.579  1.6518 -0.3144 -1.6973
 3578SOL    MW414080   4.276   2.729   4.644 -0.0161  0.1534 -0.0426
 3579SOL     OW14081   3.172   2.132   3.811 -0.1680  0.1336 -0.4848
 3579SOL    HW214082   3.234   2.203   3.796  0.4304  0.5914  3.2484
 3579SOL    HW314083   3.225   2.052   3.804 -0.2305  0.1810 -1.8266
 3579SOL    MW414084   3.187   2.131   3.808 -0.0973  0.2003 -0.1693
 3580SOL     OW14085   1.682   4.561   0.259 -0.0732  0.1619 -0.1010
 3580SOL    HW214086   1.634   4.607   0.190 -1.0344  0.8362  0.9826
 3580SOL    HW314087   1.744   4.505   0.212 -2.3343 -1.2452 -1.5697
 3580SOL    MW414088   1.684   4.560   0.244 -0.4983  0.0652 -0.1518
 3581SOL     OW14089   1.507   5.038   2.436  0.4168  0.1549  0.0174
 3581SOL    HW214090   1.436   5.031   2.372 -0.1924  2.2504  0.4109
 3581SOL    HW314091   1.463   5.049   2.520  1.2322 -1.0156  0.6395
 3581SOL    MW414092   1.492   5.038   2.439  0.4440  0.2769  0.1514
 3582SOL     OW14093   0.390   3.968   6.260  0.2974  0.2213  0.0719
 3582SOL    HW214094   0.477   3.929   6.257  0.4774  0.2658  2.4674
 3582SOL    HW314095   0.390   4.034   6.191  1.0510 -1.8292 -2.0166
 3582SOL    MW414096   0.401   3.971   6.250  0.4206 -0.0433  0.1124
 3583SOL     OW14097   2.146   3.060   2.414  0.0821 -0.7083  0.4108
 3583SOL    HW214098   2.065   3.009   2.418 -0.6954  0.4698  0.1522
 3583SOL    HW314099   2.207   3.013   2.470 -1.3944 -0.5447  2.2426
 3583SOL    MW414100   2.144   3.047   2.422 -0.2153 -0.5313  0.6184
 3584SOL     OW14101   1.785   2.772   4.401 -0.0725  0.0518  0.1992
 3584SOL    HW214102   1.696   2.806   4.397 -0.1082 -0.1139 -2.0088
 3584SOL    HW314103   1.838   2.846   4.431 -0.8489  0.3760  0.7964
 3584SOL    MW414104   1.780   2.786   4.404 -0.1796  0.0727 -0.0133
 3585SOL     OW14105   2.988   0.547   6.234  0.0786 -0.0849 -0.1748
 3585SOL    HW214106   3.031   0.577   6.314 -0.4404  0.3887 -0.0692
 3585SOL    HW314107   2.896   0.572   6.244 -0.3979 -1.7397 -0.0661
 3585SOL    MW414108   2.981   0.554   6.246 -0.0528 -0.2408 -0.1465
 3586SOL     OW14109   5.847   4.767   1.131 -0.0680 -0.1423  0.7042
 3586SOL    HW214110   5.886   4.855   1.131  1.0886 -0.6483  0.9317
 3586SOL    HW314111   5.775   4.774   1.068  2.3122 -0.0199 -2.2026
 3586SOL    MW414112   5.843   4.780   1.123  0.3986 -0.1929  0.3507
 3587SOL     OW14113   3.345   0.784   3.030 -0.0434  0.0803  0.0597
 3587SOL    HW214114   3.320   0.864   2.983 -0.6291  1.1103  2.0099
 3587SOL    HW314115   3.440   0.793   3.044  0.5078 -1.0825 -2.3315
 3587SOL    MW414116   3.354   0.796   3.026 -0.0479  0.0628  0.0015
 3588SOL     OW14117   5.246   0.237   3.058 -0.5442 -0.0970 -0.0376
 3588SOL    HW214118   5.197   0.318   3.049  1.3084  1.1254  0.2765
 3588SOL    HW314119   5.181   0.172   3.084 -1.7939  1.7071  1.6144
 3588SOL    MW414120   5.231   0.239   3.060 -0.4647  0.3023  0.2218
 3589SOL     OW14121   0.186   2.191   2.139  0.2705  0.2748 -0.1860
 3589SOL    HW214122   0.129   2.253   2.184 -0.1123 -0.2638  0.0877
 3589SOL    HW314123   0.166   2.106   2.179  2.2679  0.2593  0.9156
 3589SOL    MW414124   0.176   2.188   2.150  0.4835  0.2017 -0.0045
 3590SOL     OW14125   0.286   2.887   2.221 -0.2310  0.1303 -0.4663
 3590SOL    HW214126   0.293   2.809   2.165 -0.3636  0.8771 -1.5587
 3590SOL    HW314127   0.310   2.856   2.308 -0.2478 -1.1259 -0.8839
 3590SOL    MW414128   0.290   2.873   2.225 -0.2507  0.0631 -0.6655
 3591SOL     OW14129   4.716   2.903   2.409  0.3895 -0.0725  0.4039
 3591SOL    HW214130   4.671   2.851   2.343 -0.5609 -1.3107  1.9643
 3591SOL    HW314131   4.807   2.874   2.404  0.4865  0.3625 -0.8000
 3591SOL    MW414132   4.722   2.892   2.399  0.2769 -0.1785  0.4509
 3592SOL     OW14133   3.616   1.870   2.338  0.0370  0.2325  0.3279
 3592SOL    HW214134   3.526   1.899   2.324  0.0403 -0.2169 -0.7128
 3592SOL    HW314135   3.665   1.950   2.360  0.1194  1.1441 -2.7841
 3592SOL    MW414136   3.611   1.884   2.339  0.0483  0.2935 -0.2200
 3593SOL     OW14137   1.419   2.780   3.947 -0.3358 -0.0873 -0.3084
 3593SOL    HW214138   1.379   2.697   3.970 -1.4718  0.6048  0.2871
 3593SOL    HW314139   1.449   2.817   4.031 -0.8347  0.5960 -0.4229
 3593SOL    MW414140   1.418   2.774   3.961 -0.5515  0.0942 -0.2449
 3594SOL     OW14141   4.449   1.909   0.216  0.0226 -0.2848 -0.1011
 3594SOL    HW214142   4.448   1.816   0.236  1.0192 -0.4467 -0.7657
 3594SOL    HW314143   4.442   1.914   0.121 -0.5391  0.3431 -0.0385
 3594SOL    MW414144   4.448   1.897   0.206  0.0799 -0.2234 -0.1805
 3595SOL     OW14145   5.060   4.455   1.069  0.0209 -0.0105  0.3431
 3595SOL    HW214146   4.995   4.485   1.133 -1.4252 -2.0123 -0.0936
 3595SOL    HW314147   5.011   4.441   0.989  0.8518 -2.0123  0.1148
 3595SOL    MW414148   5.045   4.457   1.067 -0.0602 -0.5387  0.2554
 3596SOL     OW14149   3.648   5.413   5.744  1.2814  0.4156  0.6863
 3596SOL    HW214150   3.693   5.390   5.663 -2.5549 -1.2651 -1.2492
 3596SOL    HW314151   3.598   5.492   5.722  1.5164  0.9473  1.9873
 3596SOL    MW414152   3.647   5.420   5.731  0.8063  0.2640  0.6026
 3597SOL     OW14153   3.031   0.056   2.480  0.6436  0.3924 -0.3944
 3597SOL    HW214154   2.955   0.096   2.522  0.1470  0.6305 -1.4799
 3597SOL    HW314155   3.084   0.024   2.552 -0.0826  0.9618  0.4158
 3597SOL    MW414156   3.028   0.057   2.495  0.4823  0.4989 -0.4307
 3598SOL     OW14157   1.177   2.096   0.875  0.7859  0.4071  0.7700
 3598SOL    HW214158   1.198   2.132   0.789 -0.7178 -1.2509 -0.3665
 3598SOL    HW314159   1.119   2.160   0.915 -0.6687  0.0123 -0.6046
 3598SOL    MW414160   1.172   2.109   0.869  0.3956  0.1362  0.4387
 3599SOL     OW14161   0.998   2.676   1.522 -0.6611  0.6441 -0.7603
 3599SOL    HW214162   1.052   2.609   1.480 -2.6830 -0.3537 -1.9463
 3599SOL    HW314163   0.920   2.682   1.467 -1.5515  2.3918  0.5713
 3599SOL    MW414164   0.995   2.668   1.509 -1.0454  0.7430 -0.7411
 3600SOL     OW14165   5.181   1.687   2.431  0.2592  0.2451 -0.0167
 3600SOL    HW214166   5.124   1.611   2.443 -0.7617  1.1264  0.8655
 3600SOL    HW314167   5.203   1.686   2.338  1.1319 -1.7249  0.1753
 3600SOL    MW414168   5.176   1.677   2.420  0.2397  0.1015  0.1250
 3601SOL     OW14169   3.936   2.246   2.183 -0.2080  0.2676 -0.7932
 3601SOL    HW214170   3.868   2.286   2.128  0.0773  1.6789 -0.1633
 3601SOL    HW314171   3.990   2.320   2.211  0.8640 -0.6887 -0.2855
 3601SOL    MW414172   3.934   2.261   2.179 -0.0290  0.3277 -0.6431
 3602SOL     OW14173   5.495   2.602   1.950  0.5299  0.2086 -0.1067
 3602SOL    HW214174   5.571   2.560   1.989 -0.0350 -0.1449  0.6484
 3602SOL    HW314175   5.467   2.667   2.014 -1.1264 -1.2032  0.7137
 3602SOL    MW414176   5.501   2.605   1.964  0.2369 -0.0243  0.1011
 3603SOL     OW14177   2.449   6.366   2.652 -0.3337 -0.2933 -0.7590
 3603SOL    HW214178   2.388   6.391   2.722 -0.7251  1.0777 -1.5650
 3603SOL    HW314179   2.418   6.280   2.624 -2.5996  0.7955 -1.8539
 3603SOL    MW414180   2.437   6.358   2.658 -0.6843  0.0312 -1.0098
 3604SOL     OW14181   4.849   5.156   4.749  0.0398  0.0239  0.8584
 3604SOL    HW214182   4.802   5.072   4.748 -0.4393  0.2921  0.3180
 3604SOL    HW314183   4.780   5.222   4.751  0.3772  0.4328 -0.3695
 3604SOL    MW414184   4.834   5.153   4.749  0.0211  0.1132  0.6251
 3605SOL     OW14185   4.042   4.672   0.190 -0.0907  0.1817 -0.2467
 3605SOL    HW214186   4.128   4.678   0.149 -0.4586  1.1048 -0.9016
 3605SOL    HW314187   3.986   4.631   0.123 -0.6994  1.7217 -0.7123
 3605SOL    MW414188   4.046   4.667   0.176 -0.2196  0.5067 -0.3946
 3606SOL     OW14189   3.986   0.091   5.509 -0.4658 -0.5041  0.1563
 3606SOL    HW214190   3.937   0.010   5.496 -1.0475  0.0371 -1.2542
 3606SOL    HW314191   4.070   0.076   5.465  0.3334 -1.1064  1.8021
 3606SOL    MW414192   3.991   0.078   5.501 -0.4371 -0.5122  0.1873
 3607SOL     OW14193   0.055   3.007   6.325 -0.3950 -0.4977 -0.7740
 3607SOL    HW214194   0.052   2.992   6.419  0.9810 -1.6618 -0.8739
 3607SOL    HW314195  -0.033   2.981   6.294 -0.3369 -1.7193  0.0000
 3607SOL    MW414196   0.043   3.001   6.333 -0.2058 -0.8125 -0.6850
 3608SOL     OW14197   6.369   6.238   2.303  0.4582  0.1442  0.4695
 3608SOL    HW214198   6.422   6.264   2.227 -1.5670 -0.7710 -1.3767
 3608SOL    HW314199   6.367   6.316   2.359  2.0031  0.8594 -0.4092
 3608SOL    MW414200   6.376   6.252   2.300  0.3949  0.1178  0.1100
 3609SOL     OW14201   3.166   0.407   5.019  0.2332 -0.5459  0.2099
 3609SOL    HW214202   3.131   0.322   5.045  1.1978 -0.9972  0.0776
 3609SOL    HW314203   3.110   0.436   4.947  0.1574 -1.2751 -0.0326
 3609SOL    MW414204   3.154   0.399   5.013  0.3504 -0.7016  0.1605
 3610SOL     OW14205   2.636   1.207   3.627  0.4318  0.6908  0.2137
 3610SOL    HW214206   2.718   1.157   3.626  0.1478  0.2242  0.0838
 3610SOL    HW314207   2.626   1.239   3.537 -0.6287 -1.0763 -0.3364
 3610SOL    MW414208   2.646   1.205   3.615  0.2544  0.3961  0.1240
 3611SOL     OW14209   5.803   2.486   5.987 -0.2474  0.3616 -0.2164
 3611SOL    HW214210   5.765   2.478   5.900  0.0306  1.0866 -0.4083
 3611SOL    HW314211   5.857   2.565   5.983  0.0735  0.1873  0.4972
 3611SOL    MW414212   5.805   2.495   5.975 -0.1684  0.4342 -0.1476
 3612SOL     OW14213   2.187   0.150   1.760 -0.2084 -0.3075 -0.7177
 3612SOL    HW214214   2.146   0.070   1.793  0.9087 -0.5331  0.1866
 3612SOL    HW314215   2.118   0.194   1.712 -1.4083 -0.8585  0.4320
 3612SOL    MW414216   2.173   0.145   1.758 -0.2193 -0.4099 -0.4467
 3613SOL     OW14217   5.352   1.020   5.885 -0.1778 -0.1027  0.5247
 3613SOL    HW214218   5.391   1.001   5.799 -0.8179 -0.4167  0.2900
 3613SOL    HW314219   5.275   1.074   5.864 -2.2305 -2.7930  0.5515
 3613SOL    MW414220   5.347   1.025   5.871 -0.5331 -0.4991  0.4973
 3614SOL     OW14221   0.426   5.841   4.834 -0.2052 -0.0720 -0.0228
 3614SOL    HW214222   0.399   5.906   4.900  0.3836 -1.1719  1.3633
 3614SOL    HW314223   0.468   5.893   4.765 -0.4735  1.0915  0.6566
 3614SOL    MW414224   0.428   5.857   4.834 -0.1629 -0.0636  0.2497
 3615SOL     OW14225   0.532   4.369   2.472 -0.4150 -0.2873  0.3160
 3615SOL    HW214226   0.457   4.367   2.413 -1.0959  0.0938  1.1397
 3615SOL    HW314227   0.538   4.461   2.499  0.9812 -0.1074 -0.5136
 3615SOL    MW414228   0.523   4.381   2.468 -0.3207 -0.2133  0.3152
 3616SOL     OW14229   1.798   0.353   1.743  0.2099  0.0391  0.1175
 3616SOL    HW214230   1.774   0.263   1.764  0.7580  0.2965  1.9775
 3616SOL    HW314231   1.722   0.388   1.697  0.2810 -1.5763 -1.3711
 3616SOL    MW414232   1.785   0.345   1.740  0.2916 -0.1401  0.1665
 3617SOL     OW14233   0.484   4.052   0.264  0.0594 -0.3579 -0.6210
 3617SOL    HW214234   0.544   3.981   0.238  0.9055  0.4540 -0.9562
 3617SOL    HW314235   0.436   4.072   0.184 -0.1271 -0.4980 -0.5448
 3617SOL    MW414236   0.486   4.045   0.250  0.1464 -0.2692 -0.6552
 3618SOL     OW14237   5.163   5.313   5.542 -0.0423  0.2484 -0.3572
 3618SOL    HW214238   5.218   5.389   5.562  0.0935  0.2539 -0.7448
 3618SOL    HW314239   5.127   5.331   5.455  1.9738 -1.2443 -1.5826
 3618SOL    MW414240   5.165   5.326   5.534  0.2416  0.0522 -0.5700
 3619SOL     OW14241   1.484   1.991   6.168 -0.0401 -0.0722  0.2673
 3619SOL    HW214242   1.552   1.963   6.107 -0.0869  0.0187  0.1748
 3619SOL    HW314243   1.477   1.918   6.229  2.8725  1.3964  2.6507
 3619SOL    MW414244   1.492   1.978   6.168  0.3380  0.1335  0.5696
 3620SOL     OW14245   1.996   0.231   1.576 -0.1431 -0.0124  0.1173
 3620SOL    HW214246   1.930   0.264   1.637  0.4549  0.3538  0.5767
 3620SOL    HW314247   2.038   0.309   1.540 -0.1674 -0.2340 -0.4063
 3620SOL    MW414248   1.993   0.245   1.580 -0.0674  0.0067  0.1088
 3621SOL     OW14249   0.854   5.325   5.372  0.3912  0.1790  0.3095
 3621SOL    HW214250   0.782   5.388   5.373  0.5584  0.3876  1.9819
 3621SOL    HW314251   0.919   5.363   5.313 -1.0405 -0.2753 -1.6792
 3621SOL    MW414252   0.853   5.338   5.364  0.2244  0.1466  0.2678
 3622SOL     OW14253   4.246   3.545   0.559  0.1551 -0.2395 -0.1688
 3622SOL    HW214254   4.293   3.597   0.494 -1.3127 -0.3159 -1.3407
 3622SOL    HW314255   4.168   3.596   0.579 -0.6360 -1.3480 -0.3280
 3622SOL    MW414256   4.242   3.558   0.553 -0.1429 -0.3959 -0.3444
 3623SOL     OW14257   0.246   4.072   2.312 -0.4308  0.0353  0.8975
 3623SOL    HW214258   0.166   4.037   2.350  0.6726 -0.3689  2.9779
 3623SOL    HW314259   0.317   4.031   2.363  1.0794  0.8888 -0.4301
 3623SOL    MW414260   0.245   4.062   2.324 -0.0859  0.0946  0.9968
 3624SOL     OW14261   3.478   0.728   1.394  0.5482  0.4042 -0.8280
 3624SOL    HW214262   3.553   0.739   1.452 -0.6542  1.0291  0.6691
 3624SOL    HW314263   3.442   0.642   1.416  0.4389  0.3755 -1.1036
 3624SOL    MW414264   3.484   0.718   1.404  0.3752  0.4828 -0.6668
 3625SOL     OW14265   3.525   5.803   1.584 -0.3895  0.6260  0.3072
 3625SOL    HW214266   3.604   5.857   1.592  0.4727 -0.3240 -1.2749
 3625SOL    HW314267   3.481   5.837   1.506  1.4691 -2.3587 -2.3104
 3625SOL    MW414268   3.530   5.815   1.575 -0.0305  0.1069 -0.2469
 3626SOL     OW14269   5.299   3.280   0.181 -0.3893  0.7464  0.4204
 3626SOL    HW214270   5.216   3.273   0.135  0.4158  1.1141 -1.1424
 3626SOL    HW314271   5.330   3.368   0.163 -0.1013  0.9622  1.8117
 3626SOL    MW414272   5.292   3.290   0.173 -0.2451  0.8234  0.3977
 3627SOL     OW14273   4.604   2.263   3.106 -0.3714  0.0938  0.1008
 3627SOL    HW214274   4.566   2.321   3.040 -0.7470 -0.2604  0.0010
 3627SOL    HW314275   4.698   2.265   3.090 -0.3839  0.6669  0.0901
 3627SOL    MW414276   4.611   2.271   3.095 -0.4226  0.1227  0.0862
 3628SOL     OW14277   1.810   3.102   2.174  0.0932 -0.0700  0.1005
 3628SOL    HW214278   1.823   3.061   2.260 -1.8047  1.0108  0.9807
 3628SOL    HW314279   1.804   3.029   2.113 -1.0928 -1.0401  1.3073
 3628SOL    MW414280   1.811   3.087   2.177 -0.3137 -0.0554  0.3759
 3629SOL     OW14281   3.478   3.561   2.620 -0.5171 -0.4506 -0.4859
 3629SOL    HW214282   3.568   3.593   2.617 -0.7932  0.6209  1.0751
 3629SOL    HW314283   3.485   3.475   2.661 -0.2151 -0.2512 -0.1042
 3629SOL    MW414284   3.491   3.554   2.625 -0.5137 -0.2830 -0.2296
 3630SOL     OW14285   5.043   1.886   4.011 -0.1851 -0.2402  0.4300
 3630SOL    HW214286   5.097   1.870   3.934 -1.7651 -0.1624 -0.7401
 3630SOL    HW314287   5.077   1.967   4.048 -2.5176  2.7248 -3.2060
 3630SOL    MW414288   5.055   1.895   4.006 -0.7013  0.1612 -0.2041
 3631SOL     OW14289   3.347   0.405   6.346 -0.3633 -0.7539 -0.1394
 3631SOL    HW214290   3.403   0.448   6.282 -1.2766  0.2855 -0.2656
 3631SOL    HW314291   3.376   0.439   6.430  1.3098 -2.6456  0.1332
 3631SOL    MW414292   3.358   0.415   6.348 -0.2630 -0.8663 -0.1201
 3632SOL     OW14293   0.678   1.617   1.657 -0.2858 -0.0773 -0.7240
 3632SOL    HW214294   0.675   1.550   1.588  1.9669 -0.4692 -0.5340
 3632SOL    HW314295   0.624   1.581   1.727  1.6540 -2.2810 -0.2257
 3632SOL    MW414296   0.670   1.603   1.657  0.2674 -0.4198 -0.6332
 3633SOL     OW14297   3.587   6.205   1.427 -0.7878  0.4271 -0.1843
 3633SOL    HW214298   3.569   6.150   1.503 -0.9414  0.1231 -0.4411
 3633SOL    HW314299   3.527   6.279   1.436 -0.2168  0.8326  0.4417
 3633SOL    MW414300   3.577   6.208   1.438 -0.7328  0.4405 -0.1356
 3634SOL     OW14301   4.180   1.046   4.923 -0.4644  0.0549  0.7321
 3634SOL    HW214302   4.202   1.040   4.830  0.2580 -1.0658  0.9596
 3634SOL    HW314303   4.095   1.090   4.924 -0.3956  0.2646 -0.4413
 3634SOL    MW414304   4.171   1.051   4.911 -0.3600 -0.0653  0.6073
 3635SOL     OW14305   0.874   4.244   3.405 -0.0375  0.6967  0.1179
 3635SOL    HW214306   0.958   4.285   3.385  0.0623 -0.3068 -1.6673
 3635SOL    HW314307   0.821   4.316   3.441  1.7041  1.2339  1.8263
 3635SOL    MW414308   0.878   4.259   3.407  0.2054  0.6352  0.1078
 3636SOL     OW14309   4.149   6.379   2.008 -0.7181 -0.2948  0.5131
 3636SOL    HW214310   4.186   6.462   1.979 -2.1079  0.2035  0.0685
 3636SOL    HW314311   4.217   6.314   1.989  0.5674  0.7673  1.2610
 3636SOL    MW414312   4.163   6.381   2.002 -0.7319 -0.0889  0.5531
 3637SOL     OW14313   2.839   5.174   3.022 -0.1621 -0.1131 -0.2729
 3637SOL    HW214314   2.863   5.224   3.101 -0.1856  3.4878 -2.3300
 3637SOL    HW314315   2.745   5.187   3.014  0.0097  0.5113 -1.4483
 3637SOL    MW414316   2.830   5.182   3.032 -0.1425  0.4443 -0.6994
 3638SOL     OW14317   4.979   2.708   5.106 -0.3745  0.0229  0.1825
 3638SOL    HW214318   4.947   2.645   5.171  0.5342  0.3082  0.9180
 3638SOL    HW314319   4.961   2.666   5.021 -2.1425 -0.0852  0.5690
 3638SOL    MW414320   4.972   2.694   5.103 -0.4879  0.0463  0.3305
 3639SOL     OW14321   0.006   6.020   6.413  0.2980  0.4079 -0.3654
 3639SOL    HW214322  -0.079   5.978   6.428 -0.8709  2.5723 -0.5469
 3639SOL    HW314323   0.045   6.028   6.500 -0.4976  1.0059 -0.0544
 3639SOL    MW414324  -0.000   6.016   6.426  0.0388  0.7724 -0.3483
 3640SOL     OW14325   4.582   3.902   1.290  0.0319 -0.1135 -0.7087
 3640SOL    HW214326   4.545   3.915   1.203 -3.5714  0.2085  0.7145
 3640SOL    HW314327   4.577   3.987   1.333  1.3664 -0.3532  0.0047
 3640SOL    MW414328   4.576   3.915   1.285 -0.2674 -0.1027 -0.4268
 3641SOL     OW14329   2.977   5.945   6.145  0.1130  0.4130 -0.5751
 3641SOL    HW214330   3.039   5.893   6.094 -0.3735 -0.8182  0.0372
 3641SOL    HW314331   2.944   6.010   6.083  0.4616 -0.2501 -1.4920
 3641SOL    MW414332   2.981   5.947   6.130  0.0948  0.1631 -0.6153
 3642SOL     OW14333   1.165   6.202   3.843 -0.4813  0.6775  0.3531
 3642SOL    HW214334   1.188   6.154   3.923  1.5316  0.1015 -0.5169
 3642SOL    HW314335   1.213   6.158   3.773 -2.5656  0.8612 -1.3050
 3642SOL    MW414336   1.174   6.190   3.844 -0.4908  0.6258  0.0196
 3643SOL     OW14337   2.452   5.910   5.091 -0.0346  0.0854  0.0799
 3643SOL    HW214338   2.460   5.817   5.071  2.2055  0.7887 -3.3761
 3643SOL    HW314339   2.527   5.929   5.147 -0.6178 -0.2091  0.9690
 3643SOL    MW414340   2.463   5.901   5.095  0.1840  0.1393 -0.2588
 3644SOL     OW14341   6.090   5.152   4.050  0.1604  0.0032 -0.1972
 3644SOL    HW214342   6.084   5.219   3.981  1.1728 -0.1920 -0.4962
 3644SOL    HW314343   6.145   5.084   4.012  0.0157 -0.5093  0.4970
 3644SOL    MW414344   6.097   5.152   4.036  0.2749 -0.0902 -0.1450
 3645SOL     OW14345   2.140   2.132   4.661 -0.3375  0.2564 -0.2190
 3645SOL    HW214346   2.175   2.093   4.740 -0.1187 -1.0829 -0.9551
 3645SOL    HW314347   2.051   2.158   4.685  0.6265  2.4864  1.2709
 3645SOL    MW414348   2.133   2.130   4.674 -0.1815  0.3739 -0.1196
 3646SOL     OW14349   4.367   4.316   1.893 -0.4224  0.0129 -0.0968
 3646SOL    HW214350   4.446   4.269   1.919  0.5254  1.2279 -0.6633
 3646SOL    HW314351   4.347   4.284   1.805  0.7424  1.2251 -0.8547
 3646SOL    MW414352   4.375   4.306   1.885 -0.1437  0.3332 -0.2715
 3647SOL     OW14353   3.021   0.988   1.421  0.1014 -0.4948  0.2633
 3647SOL    HW214354   3.079   0.933   1.368 -1.2442  0.1120 -1.9873
 3647SOL    HW314355   2.982   1.050   1.358  0.8221  2.4526  2.4975
 3647SOL    MW414356   3.023   0.989   1.406  0.0190 -0.0258  0.2611
 3648SOL     OW14357   2.012   5.821   1.650  0.3170  0.4372 -0.3909
 3648SOL    HW214358   1.938   5.802   1.707 -1.1049  1.0503 -1.9444
 3648SOL    HW314359   2.001   5.761   1.576  2.1718 -0.4151 -0.0282
 3648SOL    MW414360   2.001   5.811   1.648  0.3741  0.4056 -0.5480
 3649SOL     OW14361   0.179   1.634   2.101 -0.0582  0.1132  0.0640
 3649SOL    HW214362   0.228   1.552   2.104  0.5817  0.5128  0.9048
 3649SOL    HW314363   0.220   1.683   2.029  0.0725  0.0098  0.0671
 3649SOL    MW414364   0.191   1.630   2.092  0.0435  0.1523  0.1753
 3650SOL     OW14365   6.239   5.478   0.530 -0.1305  0.2574 -0.1248
 3650SOL    HW214366   6.293   5.516   0.599  0.6407 -2.2783  0.7983
 3650SOL    HW314367   6.301   5.427   0.477 -0.7766  1.7724 -2.4804
 3650SOL    MW414368   6.255   5.476   0.532 -0.1140  0.1228 -0.3138
 3651SOL     OW14369   0.853   5.570   0.801 -0.1463 -0.4142  0.2065
 3651SOL    HW214370   0.813   5.631   0.863  0.7077  0.5839 -0.2090
 3651SOL    HW314371   0.936   5.610   0.777 -0.5822 -0.6266 -1.8357
 3651SOL    MW414372   0.859   5.583   0.806 -0.0911 -0.3106 -0.1178
 3652SOL     OW14373   0.803   1.768   0.913 -0.0341 -0.0998 -0.2467
 3652SOL    HW214374   0.831   1.797   0.999  0.6074  3.0901 -1.4076
 3652SOL    HW314375   0.709   1.785   0.911  0.1075  0.6646 -0.4702
 3652SOL    MW414376   0.794   1.774   0.924  0.0692  0.4219 -0.4293
 3653SOL     OW14377   2.867   2.951   4.427  0.4270 -0.1210 -0.8824
 3653SOL    HW214378   2.814   3.024   4.459  1.4589  1.1735 -2.0039
 3653SOL    HW314379   2.928   2.932   4.498 -0.1718 -0.2215 -0.3951
 3653SOL    MW414380   2.868   2.958   4.440  0.4841  0.0365 -0.9661
 3654SOL     OW14381   6.262   3.158   3.948  0.1329  0.2915  0.3215
 3654SOL    HW214382   6.342   3.109   3.931  1.1090  1.2827  1.8303
 3654SOL    HW314383   6.198   3.091   3.973  0.2728 -0.5686 -1.4581
 3654SOL    MW414384   6.264   3.142   3.949  0.2801  0.3088  0.2858
 3655SOL     OW14385   1.972   5.174   5.204 -0.2542  0.1268  0.0420
 3655SOL    HW214386   2.025   5.100   5.234  0.2895 -0.4763 -2.2493
 3655SOL    HW314387   2.003   5.248   5.256  2.6656 -0.2666 -0.9571
 3655SOL    MW414388   1.983   5.174   5.215  0.2027 -0.0047 -0.3921
 3656SOL     OW14389   2.260   1.240   2.623  0.4093 -0.1824 -0.5704
 3656SOL    HW214390   2.275   1.334   2.608 -1.6860  0.3697  0.4622
 3656SOL    HW314391   2.184   1.219   2.569  0.9287 -1.3640 -0.8858
 3656SOL    MW414392   2.252   1.250   2.614  0.2014 -0.2655 -0.4758
 3657SOL     OW14393   0.171   3.524   1.951  0.1291 -0.2990 -0.0433
 3657SOL    HW214394   0.137   3.450   2.002 -1.9752 -0.3779 -1.4406
 3657SOL    HW314395   0.094   3.562   1.910  1.3539  1.8355 -0.4982
 3657SOL    MW414396   0.157   3.519   1.952  0.0130 -0.0278 -0.2877
 3658SOL     OW14397   1.729   3.864   3.947  0.2795 -0.0371 -0.1939
 3658SOL    HW214398   1.818   3.856   3.981  0.2218 -1.3913 -0.2919
 3658SOL    HW314399   1.673   3.868   4.024  0.3529 -0.1855 -0.1341
 3658SOL    MW414400   1.733   3.863   3.961  0.2816 -0.2353 -0.1989
 3659SOL     OW14401   3.175   4.454   0.329 -0.2859  0.7251 -0.3485
 3659SOL    HW214402   3.145   4.470   0.419  1.2833  1.0925  0.1445
 3659SOL    HW314403   3.116   4.507   0.275 -1.1282  0.6635  0.4625
 3659SOL    MW414404   3.163   4.463   0.334 -0.1900  0.7654 -0.1765
 3660SOL     OW14405   1.039   5.348   4.731 -0.2870  0.1064 -0.0985
 3660SOL    HW214406   1.002   5.303   4.655  0.3872  0.5462 -0.7074
 3660SOL    HW314407   1.124   5.307   4.744 -1.0467 -1.0631  1.4364
 3660SOL    MW414408   1.045   5.337   4.723 -0.2983  0.0102  0.0236
 3661SOL     OW14409   5.161   4.876   2.069 -0.0697  0.4391 -0.3636
 3661SOL    HW214410   5.235   4.898   2.012 -1.4450  0.4959 -2.2203
 3661SOL    HW314411   5.127   4.794   2.033  0.1181 -0.5199  1.5411
 3661SOL    MW414412   5.166   4.868   2.056 -0.2264  0.3201 -0.3573
 3662SOL     OW14413   4.228   0.264   6.473 -0.0292  0.0112  0.1641
 3662SOL    HW214414   4.178   0.282   6.393  0.1029 -1.6400 -0.3210
 3662SOL    HW314415   4.220   0.345   6.524 -1.5753  0.4825 -0.7368
 3662SOL    MW414416   4.220   0.277   6.469 -0.2157 -0.1445 -0.0188
 3663SOL     OW14417   4.114   6.168   6.337  0.0498 -0.8629  0.2061
 3663SOL    HW214418   4.198   6.165   6.292 -0.2956 -0.5902 -0.4662
 3663SOL    HW314419   4.090   6.076   6.349 -0.9373 -1.0027 -2.2491
 3663SOL    MW414420   4.122   6.155   6.333 -0.1260 -0.8453 -0.2065
 3664SOL     OW14421   5.060   1.093   3.620 -0.5029 -0.2934 -0.3095
 3664SOL    HW214422   4.971   1.091   3.585 -1.3729 -1.9894  1.7366
 3664SOL    HW314423   5.056   1.156   3.692 -0.3738 -1.2063  0.5107
 3664SOL    MW414424   5.048   1.101   3.625 -0.6006 -0.6376  0.0687
 3665SOL     OW14425   0.892   5.671   2.638 -0.0950 -0.2284 -0.2616
 3665SOL    HW214426   0.951   5.741   2.611 -1.1772  0.7025 -0.2811
 3665SOL    HW314427   0.867   5.694   2.728 -2.1169  0.6015 -0.9902
 3665SOL    MW414428   0.897   5.683   2.646 -0.5045  0.0039 -0.3603
 3666SOL     OW14429   1.062   6.011   1.912 -0.1881  0.0357 -0.4639
 3666SOL    HW214430   1.043   5.993   2.004 -0.4844 -1.7582 -0.8364
 3666SOL    HW314431   0.980   5.995   1.866  0.3140 -0.4876 -1.2053
 3666SOL    MW414432   1.049   6.007   1.918 -0.1610 -0.2700 -0.6109
 3667SOL     OW14433   4.556   1.601   1.492 -0.0608  0.0326  0.0362
 3667SOL    HW214434   4.488   1.655   1.531 -1.3402 -1.5642  0.1241
 3667SOL    HW314435   4.589   1.548   1.565  1.2808  0.7453 -0.0127
 3667SOL    MW414436   4.551   1.601   1.507 -0.0526 -0.0840  0.0413
 3668SOL     OW14437   1.888   2.227   4.676 -0.1059  0.6716  0.1243
 3668SOL    HW214438   1.841   2.146   4.696  0.1421  0.5640  0.2823
 3668SOL    HW314439   1.843   2.295   4.726  0.7231  0.3465  1.3465
 3668SOL    MW414440   1.876   2.225   4.685  0.0362  0.6145  0.3064
 3669SOL     OW14441   3.624   4.208   6.336  0.2020 -0.7421  0.2516
 3669SOL    HW214442   3.543   4.223   6.287  1.1105  1.2211 -0.8000
 3669SOL    HW314443   3.689   4.189   6.268  1.7216  3.0057  0.3991
 3669SOL    MW414444   3.622   4.207   6.320  0.5223  0.0114  0.1323
 3670SOL     OW14445   0.701   5.357   0.704  0.0298 -0.3125  0.4012
 3670SOL    HW214446   0.738   5.426   0.760  0.9278 -1.4963  1.3148
 3670SOL    HW314447   0.671   5.404   0.626 -0.0522  1.2036  1.2981
 3670SOL    MW414448   0.702   5.373   0.701  0.1375 -0.2687  0.6401
 3671SOL     OW14449   5.707   1.724   3.071 -0.1481  0.8512 -0.1539
 3671SOL    HW214450   5.779   1.682   3.119  0.1805  1.8688  0.2621
 3671SOL    HW314451   5.716   1.692   2.982 -0.2566 -0.4135  0.2624
 3671SOL    MW414452   5.718   1.714   3.066 -0.1191  0.8186 -0.0441
 3672SOL     OW14453   5.926   3.583   5.186 -0.1547 -0.3493 -0.6448
 3672SOL    HW214454   5.936   3.536   5.269 -1.8019  0.8228  0.2834
 3672SOL    HW314455   6.005   3.638   5.181 -1.1994  1.5418  1.5643
 3672SOL    MW414456   5.938   3.584   5.197 -0.5099  0.0549 -0.2309
 3673SOL     OW14457   2.150   3.592   5.828 -0.4717  0.4161  0.2565
 3673SOL    HW214458   2.189   3.557   5.908 -2.4481  1.9725  1.9982
 3673SOL    HW314459   2.154   3.519   5.766  1.9837 -0.5428  1.4127
 3673SOL    MW414460   2.156   3.578   5.830 -0.4085  0.4949  0.6388
 3674SOL     OW14461   2.522   4.165   4.454 -0.0482  0.5105 -0.4288
 3674SOL    HW214462   2.592   4.195   4.397  0.8207 -0.1744  0.2623
 3674SOL    HW314463   2.480   4.245   4.485  0.0921  0.9084 -1.2374
 3674SOL    MW414464   2.525   4.179   4.450  0.0850  0.4727 -0.4443
 3675SOL     OW14465   5.908   1.592   3.206  0.2588  0.0448 -0.2621
 3675SOL    HW214466   6.004   1.590   3.207  0.2951 -0.5592  2.2872
 3675SOL    HW314467   5.883   1.522   3.146  1.3756  0.6876 -1.5345
 3675SOL    MW414468   5.917   1.583   3.198  0.4109  0.0500 -0.0936
 3676SOL     OW14469   2.027   4.298   6.325 -0.3199 -0.0181  0.0539
 3676SOL    HW214470   1.967   4.354   6.374 -1.0062 -0.9353  0.2808
 3676SOL    HW314471   2.001   4.310   6.233  0.9173  1.6415 -0.1318
 3676SOL    MW414472   2.015   4.307   6.319 -0.2472  0.0798  0.0594
 3677SOL     OW14473   4.852   1.614   0.388 -0.1635 -0.1408 -0.0366
 3677SOL    HW214474   4.948   1.606   0.388 -0.3009 -2.4284 -0.4387
 3677SOL    HW314475   4.834   1.687   0.329  1.2825 -1.3930 -2.1725
 3677SOL    MW414476   4.863   1.623   0.381  0.0091 -0.6078 -0.3715
 3678SOL     OW14477   0.842   1.595   3.799  0.1493 -0.5193 -0.1711
 3678SOL    HW214478   0.912   1.630   3.743  0.2399 -0.7412 -0.1952
 3678SOL    HW314479   0.788   1.672   3.819  0.8825 -0.1695  0.5568
 3678SOL    MW414480   0.844   1.610   3.794  0.2580 -0.5024 -0.0782
 3679SOL     OW14481   1.424   1.707   5.634 -0.1616  0.3223  0.6057
 3679SOL    HW214482   1.425   1.778   5.699  0.7589 -0.4309  1.4391
 3679SOL    HW314483   1.335   1.672   5.638 -0.7323  1.6051 -0.0428
 3679SOL    MW414484   1.412   1.712   5.643 -0.1154  0.3922  0.6301
 3680SOL     OW14485   6.214   2.088   3.080  0.5243 -0.2759 -0.4454
 3680SOL    HW214486   6.151   2.047   3.139 -0.1259  0.9057 -0.2995
 3680SOL    HW314487   6.214   2.031   3.002 -0.9670 -0.1400 -0.5769
 3680SOL    MW414488   6.206   2.075   3.077  0.2418 -0.1021 -0.4435
 3681SOL     OW14489   3.529   5.389   5.192  0.4048 -0.1805 -0.1610
 3681SOL    HW214490   3.454   5.392   5.133 -0.2793 -1.0934  0.6414
 3681SOL    HW314491   3.500   5.435   5.271  0.9102  0.0018 -0.0764
 3681SOL    MW414492   3.516   5.396   5.194  0.3812 -0.2769 -0.0439
 3682SOL     OW14493   5.821   3.205   0.063  0.3005  0.0158 -0.7171
 3682SOL    HW214494   5.813   3.300   0.072 -2.1766  0.0078 -1.8146
 3682SOL    HW314495   5.850   3.192  -0.028  0.1441 -0.2754 -0.7270
 3682SOL    MW414496   5.824   3.216   0.052 -0.0469 -0.0236 -0.8632
 3683SOL     OW14497   1.059   4.104   0.393 -0.4043 -0.1961 -0.5372
 3683SOL    HW214498   1.014   4.117   0.309  0.1339  0.4454 -0.7353
 3683SOL    HW314499   1.072   4.192   0.427 -0.8154 -0.4622  0.3346
 3683SOL    MW414500   1.055   4.117   0.386 -0.3875 -0.1465 -0.4483
 3684SOL     OW14501   3.117   4.847   3.301  0.3860 -0.3047  0.6083
 3684SOL    HW214502   3.195   4.853   3.355  3.1422 -2.0244 -2.7792
 3684SOL    HW314503   3.119   4.927   3.248  1.6663 -1.6556 -1.5167
 3684SOL    MW414504   3.128   4.859   3.301  0.9186 -0.7098 -0.1190
 3685SOL     OW14505   5.727   5.097   0.958  0.2130 -0.1488 -0.6414
 3685SOL    HW214506   5.683   5.129   0.879  2.2574 -0.6906 -2.0978
 3685SOL    HW314507   5.665   5.112   1.029 -3.1739 -2.6935 -2.7503
 3685SOL    MW414508   5.713   5.103   0.957  0.0359 -0.5560 -1.1118
 3686SOL     OW14509   5.015   4.126   2.302 -0.1095 -0.3986 -0.0906
 3686SOL    HW214510   4.942   4.105   2.244 -0.8941  1.0343  0.3302
 3686SOL    HW314511   5.084   4.064   2.278 -0.8546 -0.6571 -1.6806
 3686SOL    MW414512   5.015   4.115   2.291 -0.3113 -0.2437 -0.2448
 3687SOL     OW14513   6.234   0.513   3.314 -0.0351 -0.2036  0.2538
 3687SOL    HW214514   6.242   0.566   3.393  0.3609  1.1695 -0.6792
 3687SOL    HW314515   6.140   0.508   3.298 -0.0699  0.3015  0.2885
 3687SOL    MW414516   6.223   0.519   3.323  0.0125  0.0442  0.1353
 3688SOL     OW14517   3.350   0.372   3.535  0.0649  0.0105 -0.5850
 3688SOL    HW214518   3.263   0.338   3.553  0.7021 -1.6255 -0.3832
 3688SOL    HW314519   3.353   0.381   3.439 -0.1633 -0.4069 -0.6345
 3688SOL    MW414520   3.339   0.369   3.524  0.1189 -0.2604 -0.5649
 3689SOL     OW14521   5.480   5.744   4.494  0.4232 -0.2091  0.0515
 3689SOL    HW214522   5.394   5.778   4.469  1.0069  3.0783  1.9216
 3689SOL    HW314523   5.538   5.772   4.422  0.4537  0.6150  0.3805
 3689SOL    MW414524   5.476   5.752   4.481  0.5042  0.3334  0.3417
 3690SOL     OW14525   6.251   1.160   1.617 -0.2621 -0.4217  0.3047
 3690SOL    HW214526   6.262   1.095   1.686 -2.4943 -0.3093  0.8456
 3690SOL    HW314527   6.281   1.242   1.656  1.6560 -0.8994 -0.0581
 3690SOL    MW414528   6.257   1.162   1.631 -0.3035 -0.4699  0.3282
 3691SOL     OW14529   1.366   4.469   3.723  0.6203  0.8933 -0.2504
 3691SOL    HW214530   1.410   4.466   3.808  1.2671  1.4620 -0.5558
 3691SOL    HW314531   1.435   4.452   3.659 -0.2204 -1.6433 -0.6024
 3691SOL    MW414532   1.381   4.466   3.726  0.5947  0.6336 -0.3371
 3692SOL     OW14533   1.137   1.531   5.152  0.1638 -0.0243 -0.0245
 3692SOL    HW214534   1.088   1.524   5.234 -0.4562  1.0033 -0.2889
 3692SOL    HW314535   1.070   1.527   5.084  0.4698  1.0862 -0.4038
 3692SOL    MW414536   1.122   1.529   5.154  0.1224  0.2578 -0.1094
 3693SOL     OW14537   0.030   0.169   1.295  0.2685  0.0582  0.7061
 3693SOL    HW214538  -0.052   0.219   1.289  0.3762  0.3339  1.3739
 3693SOL    HW314539   0.003   0.077   1.289  0.0911  0.1925 -0.7728
 3693SOL    MW414540   0.015   0.163   1.293  0.2593  0.1123  0.5991
 3694SOL     OW14541   1.503   3.314   6.225  0.1729 -0.9869 -0.0196
 3694SOL    HW214542   1.447   3.390   6.238  0.1637 -1.0021  0.0280
 3694SOL    HW314543   1.476   3.252   6.293  1.5668 -0.2372  1.2655
 3694SOL    MW414544   1.492   3.316   6.235  0.3556 -0.8900  0.1562
 3695SOL     OW14545   1.248   2.586   5.763 -0.2125 -0.2004 -0.2452
 3695SOL    HW214546   1.327   2.532   5.752 -0.2184 -0.4724  0.9078
 3695SOL    HW314547   1.181   2.524   5.794 -0.6007  0.2204 -0.2339
 3695SOL    MW414548   1.249   2.571   5.766 -0.2645 -0.1808 -0.0916
 3696SOL     OW14549   3.084   0.521   0.412  0.3961 -0.0711  0.0545
 3696SOL    HW214550   3.037   0.485   0.336  1.0844 -0.4616 -0.2032
 3696SOL    HW314551   3.052   0.471   0.486 -0.5220  0.5300  0.0840
 3696SOL    MW414552   3.074   0.510   0.411  0.3658 -0.0433  0.0244
 3697SOL     OW14553   5.732   1.470   1.759  0.8479  0.1823  0.0074
 3697SOL    HW214554   5.786   1.483   1.681 -0.3057  0.7564 -0.7198
 3697SOL    HW314555   5.647   1.444   1.725  1.0390 -2.2722  1.1759
 3697SOL    MW414556   5.728   1.468   1.744  0.7209 -0.0658  0.0656
 3698SOL     OW14557   3.437   1.248   4.832  0.0905 -0.5099  0.5302
 3698SOL    HW214558   3.453   1.157   4.808  1.3964 -0.4289  1.0307
 3698SOL    HW314559   3.354   1.245   4.881  0.2017 -1.4548  0.6836
 3698SOL    MW414560   3.428   1.235   4.835  0.2775 -0.6239  0.6165
 3699SOL     OW14561   0.978   6.408   3.841 -0.3272 -0.0181 -0.5528
 3699SOL    HW214562   0.899   6.400   3.893  0.1257 -0.0204  0.1418
 3699SOL    HW314563   1.014   6.319   3.838 -0.2423  0.0198 -0.7038
 3699SOL    MW414564   0.972   6.395   3.847 -0.2562 -0.0134 -0.4811
 3700SOL     OW14565   4.584   0.089   4.614 -0.7194  0.2948 -0.2358
 3700SOL    HW214566   4.580   0.184   4.627  1.6092  0.4499 -0.1904
 3700SOL    HW314567   4.571   0.077   4.520  2.2136  1.0226 -0.8215
 3700SOL    MW414568   4.582   0.100   4.603 -0.0252  0.4113 -0.3071
 3701SOL     OW14569   1.175   1.328   1.202 -0.3362 -0.3723  0.5826
 3701SOL    HW214570   1.141   1.309   1.289  0.7412 -1.9303  0.7203
 3701SOL    HW314571   1.098   1.327   1.145 -0.9491 -0.1590  1.3942
 3701SOL    MW414572   1.160   1.325   1.206 -0.2749 -0.5497  0.7079
 3702SOL     OW14573   6.028   2.555   2.507 -0.0371 -0.7052  0.3265
 3702SOL    HW214574   6.065   2.506   2.581  0.2465  0.5194  1.0202
 3702SOL    HW314575   5.945   2.589   2.540  0.2035  0.0543  0.1725
 3702SOL    MW414576   6.022   2.553   2.521  0.0321 -0.4434  0.3977
 3703SOL     OW14577   1.260   2.117   5.475 -0.3365 -0.1066 -0.5627
 3703SOL    HW214578   1.215   2.066   5.541  0.0758  0.7020  0.3688
 3703SOL    HW314579   1.267   2.205   5.513  3.4724 -0.5414  0.1205
 3703SOL    MW414580   1.255   2.122   5.489  0.2204 -0.0573 -0.3497
 3704SOL     OW14581   3.797   3.245   2.292 -0.5726 -0.1598 -0.4839
 3704SOL    HW214582   3.763   3.189   2.222 -2.8787  0.0536  0.3788
 3704SOL    HW314583   3.735   3.318   2.297  2.1067  2.3483 -1.2964
 3704SOL    MW414584   3.785   3.248   2.284 -0.5233  0.1993 -0.4773
 3705SOL     OW14585   3.454   1.785   6.265 -0.5127 -0.2096 -0.1234
 3705SOL    HW214586   3.462   1.851   6.334  0.9582  0.6784 -1.0822
 3705SOL    HW314587   3.435   1.836   6.186  2.4425 -0.6179 -1.2520
 3705SOL    MW414588   3.453   1.801   6.264  0.0713 -0.1463 -0.3988
 3706SOL     OW14589   3.358   4.606   4.729  0.0171  0.3129  0.1443
 3706SOL    HW214590   3.323   4.645   4.809 -0.9377 -0.4545  0.1109
 3706SOL    HW314591   3.399   4.680   4.683  1.1646  0.6320  1.6338
 3706SOL    MW414592   3.359   4.621   4.733  0.0425  0.2538  0.3364
 3707SOL     OW14593   4.347   0.726   3.305  0.5528  0.2944  0.3029
 3707SOL    HW214594   4.297   0.790   3.355  1.9852  1.2327  0.6107
 3707SOL    HW314595   4.293   0.647   3.305 -1.0309  1.3462  0.3398
 3707SOL    MW414596   4.334   0.724   3.312  0.5329  0.5569  0.3484
 3708SOL     OW14597   0.359   0.190   5.434 -0.4287 -0.4104 -0.0123
 3708SOL    HW214598   0.429   0.216   5.493  0.6706 -1.3567 -0.8559
 3708SOL    HW314599   0.285   0.246   5.458  1.1670  1.9770 -0.4010
 3708SOL    MW414600   0.358   0.201   5.445 -0.0732 -0.2203 -0.1749
 3709SOL     OW14601   1.071   2.775   5.005 -0.2514 -0.2544 -0.1363
 3709SOL    HW214602   1.077   2.686   5.040  1.1142  0.1409  0.6891
 3709SOL    HW314603   1.120   2.828   5.067 -1.6529  1.2133 -0.2290
 3709SOL    MW414604   1.078   2.770   5.018 -0.2561 -0.0086 -0.0396
 3710SOL     OW14605   2.588   4.198   4.048 -0.3018  0.4856 -0.2372
 3710SOL    HW214606   2.635   4.275   4.016 -1.2144  1.4977  0.7279
 3710SOL    HW314607   2.511   4.192   3.991 -0.1988  0.2532 -0.3508
 3710SOL    MW414608   2.584   4.207   4.036 -0.4086  0.5885 -0.1249
 3711SOL     OW14609   6.069   4.967   4.346  0.4681 -0.5364 -0.3357
 3711SOL    HW214610   6.120   4.975   4.265 -1.2540 -1.1845 -1.5324
 3711SOL    HW314611   6.075   4.874   4.369 -2.4554 -1.3031 -2.1475
 3711SOL    MW414612   6.077   4.956   4.338 -0.1449 -0.7230 -0.7326
 3712SOL     OW14613   3.285   2.732   6.337  0.3561 -0.0690 -0.4286
 3712SOL    HW214614   3.214   2.679   6.302 -0.0130 -0.9371  1.4804
 3712SOL    HW314615   3.283   2.715   6.432  1.5548  1.7662 -0.0138
 3712SOL    MW414616   3.276   2.723   6.345  0.4655  0.0586 -0.1220
 3713SOL     OW14617   2.194   2.961   1.791  0.5166  0.3713  0.0495
 3713SOL    HW214618   2.126   3.025   1.768  0.0763  0.0409  0.4057
 3713SOL    HW314619   2.197   2.901   1.717  1.1510  0.9732 -0.4274
 3713SOL    MW414620   2.185   2.961   1.778  0.5422  0.4071  0.0336
 3714SOL     OW14621   2.230   2.222   2.578  0.0314 -0.4699  0.1914
 3714SOL    HW214622   2.324   2.205   2.575 -0.3575 -2.8712  0.0153
 3714SOL    HW314623   2.213   2.252   2.667  0.8498 -0.7895  0.4563
 3714SOL    MW414624   2.240   2.224   2.589  0.0881 -0.8289  0.2031
 3715SOL     OW14625   4.009   5.873   4.451 -1.0225 -0.7611  0.0222
 3715SOL    HW214626   4.024   5.896   4.543  1.2832  0.2189 -0.5141
 3715SOL    HW314627   4.003   5.777   4.451 -0.1965 -0.8337  1.1273
 3715SOL    MW414628   4.010   5.863   4.463 -0.6093 -0.6414  0.0973
 3716SOL     OW14629   5.718   6.112   3.451 -0.0286  0.0403  0.4760
 3716SOL    HW214630   5.786   6.151   3.507  0.9988 -1.3797  0.2724
 3716SOL    HW314631   5.759   6.033   3.415 -1.7379 -0.7662  0.1940
 3716SOL    MW414632   5.732   6.107   3.454 -0.1186 -0.2534  0.4119
 3717SOL     OW14633   3.135   4.285   6.152  0.1247  0.0841  0.0471
 3717SOL    HW214634   3.103   4.346   6.219 -1.3681 -0.0530 -0.5164
 3717SOL    HW314635   3.229   4.303   6.147 -0.3208  2.6781 -0.4039
 3717SOL    MW414636   3.144   4.296   6.160 -0.1311  0.4083 -0.0867
 3718SOL     OW14637   5.918   1.890   3.508  0.0661 -0.3194 -0.1813
 3718SOL    HW214638   5.847   1.836   3.473  1.1850 -1.2311 -1.1209
 3718SOL    HW314639   5.964   1.832   3.568  1.9032 -0.7997 -1.9735
 3718SOL    MW414640   5.914   1.875   3.511  0.4561 -0.5031 -0.5417
 3719SOL     OW14641   3.573   1.818   5.894 -0.0752 -0.0858 -0.3436
 3719SOL    HW214642   3.523   1.821   5.813  0.9226 -0.0053 -0.9646
 3719SOL    HW314643   3.655   1.862   5.874 -0.0945  0.5579  0.9180
 3719SOL    MW414644   3.577   1.824   5.881  0.0539  0.0097 -0.2591
 3720SOL     OW14645   1.391   4.803   5.212  0.2828 -0.1264  0.0243
 3720SOL    HW214646   1.435   4.737   5.157 -1.9049 -0.6145 -1.2695
 3720SOL    HW314647   1.382   4.760   5.297 -0.2422 -1.1438 -0.5210
 3720SOL    MW414648   1.396   4.789   5.216 -0.0751 -0.3250 -0.2183
 3721SOL     OW14649   5.825   0.528   3.065 -0.2729  0.4142 -0.0283
 3721SOL    HW214650   5.856   0.545   3.154  0.0950 -0.1211 -0.0536
 3721SOL    HW314651   5.846   0.437   3.048  0.2302  0.6741 -0.8951
 3721SOL    MW414652   5.831   0.518   3.074 -0.1580  0.3779 -0.1460
 3722SOL     OW14653   1.156   0.966   5.789 -0.3432  0.2373  0.3253
 3722SOL    HW214654   1.139   0.874   5.809 -0.2507  0.3822  1.0906
 3722SOL    HW314655   1.241   0.984   5.829  0.1509  0.3717 -0.7516
 3722SOL    MW414656   1.165   0.956   5.797 -0.2658  0.2742  0.2842
 3723SOL     OW14657   4.826   6.150   1.554 -0.5476  0.2978  0.2109
 3723SOL    HW214658   4.803   6.185   1.468  3.0006  1.7001 -0.3248
 3723SOL    HW314659   4.846   6.227   1.607 -0.3601 -0.6549  1.5728
 3723SOL    MW414660   4.825   6.165   1.550 -0.0547  0.3571  0.3199
 3724SOL     OW14661   3.624   5.226   1.575 -0.0031 -0.1996 -0.1045
 3724SOL    HW214662   3.647   5.175   1.498 -0.0752  0.6746 -0.7184
 3724SOL    HW314663   3.609   5.161   1.644 -1.7830 -1.1341 -1.2946
 3724SOL    MW414664   3.625   5.211   1.574 -0.2474 -0.2076 -0.3425
 3725SOL     OW14665   3.422   4.006   2.283 -0.4183 -0.4627 -0.2483
 3725SOL    HW214666   3.438   3.992   2.190  0.2209  0.1557 -0.2375
 3725SOL    HW314667   3.490   3.955   2.327 -1.9537 -2.4699 -0.0336
 3725SOL    MW414668   3.433   3.998   2.277 -0.5365 -0.6459 -0.2186
 3726SOL     OW14669   3.405   0.924   3.385  0.4367 -0.1362 -0.0974
 3726SOL    HW214670   3.314   0.903   3.409  0.1907  2.2689  1.4460
 3726SOL    HW314671   3.438   0.974   3.460  2.3814  0.8119 -1.5065
 3726SOL    MW414672   3.397   0.928   3.398  0.6608  0.3062 -0.0797
 3727SOL     OW14673   5.474   0.067   2.730 -0.5634 -0.7128  0.3339
 3727SOL    HW214674   5.440  -0.017   2.762  0.4550 -1.1814  0.2489
 3727SOL    HW314675   5.529   0.099   2.802 -1.9049  0.5068  0.8667
 3727SOL    MW414676   5.477   0.060   2.744 -0.6061 -0.6137  0.3930
 3728SOL     OW14677   4.837   5.761   3.758 -0.0006 -0.2039 -0.3040
 3728SOL    HW214678   4.913   5.725   3.712  0.3829 -0.6301  0.6372
 3728SOL    HW314679   4.870   5.839   3.802 -0.4729  0.4610 -1.1094
 3728SOL    MW414680   4.851   5.766   3.758 -0.0123 -0.1724 -0.2861
 3729SOL     OW14681   4.508   3.751   1.679  0.2266 -0.2875 -0.4580
 3729SOL    HW214682   4.543   3.685   1.738 -1.2599 -2.7776 -2.1898
 3729SOL    HW314683   4.448   3.803   1.734  1.9360  0.1540  1.0898
 3729SOL    MW414684   4.504   3.749   1.694  0.2560 -0.5578 -0.4823
 3730SOL     OW14685   1.433   1.250   3.408 -0.1724  0.2883  0.3780
 3730SOL    HW214686   1.481   1.206   3.338 -0.6850  0.2765  0.0309
 3730SOL    HW314687   1.343   1.253   3.378 -0.3668  0.4582  0.9556
 3730SOL    MW414688   1.428   1.245   3.395 -0.2657  0.3092  0.4084
 3731SOL     OW14689   5.357   3.021   6.059 -0.3261 -0.4280  0.1479
 3731SOL    HW214690   5.306   2.943   6.081 -1.2261 -0.1231 -0.7603
 3731SOL    HW314691   5.297   3.074   6.007  0.0901  1.1271  1.2035
 3731SOL    MW414692   5.342   3.018   6.055 -0.3899 -0.1826  0.1673
 3732SOL     OW14693   4.516   1.519   3.446  0.0466  0.5190  0.1795
 3732SOL    HW214694   4.495   1.534   3.538  0.3441 -1.7190  0.6816
 3732SOL    HW314695   4.461   1.581   3.399 -0.3983  1.4560  1.8420
 3732SOL    MW414696   4.506   1.529   3.452  0.0272  0.3474  0.4651
 3733SOL     OW14697   0.860   1.992   6.103  0.3863  0.0108 -0.4615
 3733SOL    HW214698   0.852   1.936   6.180 -0.6539 -1.1683 -1.3920
 3733SOL    HW314699   0.859   1.932   6.029  1.8247  1.0737 -1.4170
 3733SOL    MW414700   0.859   1.977   6.103  0.4388 -0.0045 -0.7104
 3734SOL     OW14701   5.759   3.474   1.243 -0.0451  0.6406  0.5391
 3734SOL    HW214702   5.734   3.454   1.334  3.0939  0.4032  1.4987
 3734SOL    HW314703   5.730   3.564   1.229 -0.5948  0.6777  1.7972
 3734SOL    MW414704   5.752   3.483   1.254  0.2965  0.6142  0.8317
 3735SOL     OW14705   5.678   5.233   5.884 -0.3927  0.2402  0.2491
 3735SOL    HW214706   5.704   5.141   5.885  1.8814  0.8122  2.4275
 3735SOL    HW314707   5.603   5.236   5.824 -1.4967 -3.2438  1.2286
 3735SOL    MW414708   5.671   5.221   5.876 -0.2383 -0.1440  0.6658
 3736SOL     OW14709   4.536   1.874   4.242  0.6576 -0.1771 -0.1913
 3736SOL    HW214710   4.476   1.877   4.167 -0.6525 -1.7362  0.7199
 3736SOL    HW314711   4.575   1.961   4.246 -0.3406  0.3721 -1.8031
 3736SOL    MW414712   4.533   1.886   4.233  0.3530 -0.3104 -0.2838
 3737SOL     OW14713   4.235   4.887   2.783 -0.2973 -0.0232  0.3144
 3737SOL    HW214714   4.250   4.853   2.871 -1.5493 -0.3095  0.4331
 3737SOL    HW314715   4.207   4.811   2.732 -0.4633  0.3109 -0.1001
 3737SOL    MW414716   4.233   4.872   2.788 -0.4844 -0.0169  0.2754
 3738SOL     OW14717   0.822   1.286   2.589 -0.4600  0.0190 -0.1257
 3738SOL    HW214718   0.835   1.240   2.671  0.6554  0.9149  0.2277
 3738SOL    HW314719   0.837   1.379   2.610 -0.7892  0.3370 -1.1943
 3738SOL    MW414720   0.826   1.292   2.602 -0.3563  0.1792 -0.2201
 3739SOL     OW14721   2.164   2.354   3.817  0.2343 -0.2430 -0.1657
 3739SOL    HW214722   2.179   2.448   3.806  0.9605 -0.4576 -1.0547
 3739SOL    HW314723   2.233   2.312   3.767 -0.3885 -1.2621 -0.2038
 3739SOL    MW414724   2.175   2.361   3.809  0.2480 -0.4058 -0.2880
 3740SOL     OW14725   5.347   3.859   6.335  0.4968  0.1806  0.1107
 3740SOL    HW214726   5.357   3.919   6.261 -1.2278  1.6416  1.0087
 3740SOL    HW314727   5.332   3.773   6.294 -0.4089  0.9583 -1.2585
 3740SOL    MW414728   5.346   3.855   6.320  0.1498  0.4760  0.0486
 3741SOL     OW14729   1.770   4.619   0.532 -0.3115  0.1130  0.3132
 3741SOL    HW214730   1.780   4.553   0.600  3.2940  0.0444 -0.0727
 3741SOL    HW314731   1.713   4.579   0.467  0.5440 -2.0231  0.8117
 3741SOL    MW414732   1.764   4.605   0.532  0.2771 -0.1779  0.3281
 3742SOL     OW14733   1.841   1.748   5.079 -0.2080  0.2960 -1.0794
 3742SOL    HW214734   1.769   1.696   5.115  0.1408  0.0710 -0.6838
 3742SOL    HW314735   1.799   1.825   5.042 -0.6696  0.0752 -1.0245
 3742SOL    MW414736   1.826   1.751   5.079 -0.2229  0.2372 -1.0200
 3743SOL     OW14737   3.777   3.985   3.717  0.1830 -0.2044  0.0714
 3743SOL    HW214738   3.702   4.046   3.713 -0.8281 -1.0780  3.0442
 3743SOL    HW314739   3.745   3.905   3.676  0.8005  0.5130 -1.9281
 3743SOL    MW414740   3.763   3.983   3.711  0.1311 -0.2250  0.1998
 3744SOL     OW14741   1.119   3.156   1.284  0.1428  0.2859 -0.0647
 3744SOL    HW214742   1.161   3.144   1.200  0.1423 -0.2771  0.0129
 3744SOL    HW314743   1.139   3.247   1.308  1.3545  0.0252 -0.0052
 3744SOL    MW414744   1.127   3.167   1.276  0.3026  0.1772 -0.0466
 3745SOL     OW14745   2.730   0.261   2.212 -0.1096  0.4876 -0.5126
 3745SOL    HW214746   2.651   0.217   2.244  0.1588  0.8687  0.7089
 3745SOL    HW314747   2.730   0.244   2.118 -2.5720  1.8651 -0.8597
 3745SOL    MW414748   2.719   0.253   2.204 -0.3991  0.7197 -0.3972
 3746SOL     OW14749   0.917   0.406   2.068  0.0359  0.1471 -0.2238
 3746SOL    HW214750   1.004   0.367   2.063 -0.4554 -0.8503 -1.4353
 3746SOL    HW314751   0.932   0.494   2.103  1.2493 -0.8604  1.9929
 3746SOL    MW414752   0.930   0.412   2.072  0.1312 -0.1174 -0.0912
 3747SOL     OW14753   4.305   6.156   6.124  0.8649 -0.2993 -0.4078
 3747SOL    HW214754   4.388   6.188   6.087  0.7968 -0.1695 -0.4494
 3747SOL    HW314755   4.290   6.073   6.081  0.6901 -0.0600 -0.8112
 3747SOL    MW414756   4.314   6.149   6.113  0.8329 -0.2506 -0.4665
 3748SOL     OW14757   0.438   0.478   0.950  0.8557  0.1399 -0.2998
 3748SOL    HW214758   0.445   0.407   1.015  1.0971  1.9099  1.7364
 3748SOL    HW314759   0.527   0.487   0.916  0.4905 -1.5978 -1.8638
 3748SOL    MW414760   0.451   0.469   0.954  0.8393  0.1441 -0.2375
 3749SOL     OW14761   2.555   5.756   3.853  0.0683 -0.1176  0.2130
 3749SOL    HW214762   2.561   5.849   3.833 -2.0720  0.4253  1.7277
 3749SOL    HW314763   2.470   5.729   3.818  0.5579 -1.4439 -0.0081
 3749SOL    MW414764   2.544   5.765   3.846 -0.1495 -0.2210  0.3837
 3750SOL     OW14765   6.421   3.816   6.308  0.3489 -0.3935 -0.5391
 3750SOL    HW214766   6.461   3.787   6.389 -0.5259 -1.5885 -0.5073
 3750SOL    HW314767   6.494   3.839   6.251  0.9732  2.0063  1.0743
 3750SOL    MW414768   6.436   3.815   6.311  0.3158 -0.2345 -0.3221
 3751SOL     OW14769   4.639   3.025   1.559  0.5216  0.2029  0.2754
 3751SOL    HW214770   4.681   2.939   1.550 -1.2385 -0.8552  1.3881
 3751SOL    HW314771   4.546   3.007   1.541  0.4608  2.4018 -2.0131
 3751SOL    MW414772   4.632   3.011   1.556  0.2814  0.3534  0.1202
 3752SOL     OW14773   0.835   1.133   0.262  0.1861 -0.3840  0.0543
 3752SOL    HW214774   0.927   1.133   0.236 -0.1785 -0.0735 -1.3265
 3752SOL    HW314775   0.814   1.040   0.274  0.7617 -0.4338  0.7248
 3752SOL    MW414776   0.844   1.120   0.260  0.2139 -0.3496 -0.0394
 3753SOL     OW14777   0.565   5.828   0.864  0.0343  0.0714 -0.6253
 3753SOL    HW214778   0.529   5.762   0.923 -0.0045  0.7857  0.1785
 3753SOL    HW314779   0.568   5.785   0.778  2.5301 -1.9379  0.3287
 3753SOL    MW414780   0.561   5.814   0.860  0.3584 -0.0995 -0.3934
 3754SOL     OW14781   1.140   2.242   4.898 -0.7768 -0.4828 -0.0435
 3754SOL    HW214782   1.188   2.275   4.974 -0.3490 -1.9014  0.3388
 3754SOL    HW314783   1.058   2.290   4.899 -0.8259 -0.5553  1.4089
 3754SOL    MW414784   1.136   2.252   4.909 -0.7269 -0.6795  0.1986
 3755SOL     OW14785   5.495   3.736   1.600 -0.1720 -0.1243  0.3115
 3755SOL    HW214786   5.538   3.814   1.566 -1.2870 -1.0024 -3.6079
 3755SOL    HW314787   5.408   3.737   1.559 -0.9605 -2.4019  1.7446
 3755SOL    MW414788   5.489   3.747   1.590 -0.4231 -0.5407 -0.0165
 3756SOL     OW14789   1.620   3.839   1.170 -0.1480  0.2376  0.2866
 3756SOL    HW214790   1.560   3.914   1.174  1.2612  1.4104  0.3823
 3756SOL    HW314791   1.677   3.859   1.096 -0.4053 -1.2874 -0.3468
 3756SOL    MW414792   1.620   3.852   1.161  0.0040  0.1912  0.2157
 3757SOL     OW14793   3.549   0.235   2.530  0.2892  0.0565 -0.0574
 3757SOL    HW214794   3.511   0.304   2.476  0.7819  1.4035  1.2451
 3757SOL    HW314795   3.627   0.207   2.481 -0.2052  0.0444 -0.8517
 3757SOL    MW414796   3.554   0.241   2.517  0.2889  0.2326  0.0097
 3758SOL     OW14797   6.310   3.655   4.780 -0.3858 -0.1412 -0.2050
 3758SOL    HW214798   6.285   3.737   4.823  1.0602  1.3708 -2.0543
 3758SOL    HW314799   6.397   3.636   4.815 -0.1575 -0.1292 -0.7584
 3758SOL    MW414800   6.318   3.664   4.791 -0.1649  0.0599 -0.5220
 3759SOL     OW14801   5.645   5.302   1.841  0.7559 -0.3193 -0.3707
 3759SOL    HW214802   5.621   5.363   1.772 -0.9097 -0.4251  0.0892
 3759SOL    HW314803   5.615   5.217   1.810 -3.3440  0.0748  1.8786
 3759SOL    MW414804   5.638   5.299   1.828 -0.0048 -0.2813 -0.0133
 3760SOL     OW14805   3.240   4.346   5.732 -0.1241 -0.0776 -0.2465
 3760SOL    HW214806   3.204   4.262   5.704 -0.3909  0.1046 -0.4538
 3760SOL    HW314807   3.277   4.384   5.652  1.1096 -0.5492  0.0831
 3760SOL    MW414808   3.240   4.340   5.717  0.0035 -0.1158 -0.2304
 3761SOL     OW14809   3.786   0.163   4.108 -0.7655  0.0213  0.0507
 3761SOL    HW214810   3.803   0.084   4.057 -0.3268  1.4400 -2.1183
 3761SOL    HW314811   3.859   0.168   4.170  0.9821  0.3516 -1.9308
 3761SOL    MW414812   3.798   0.153   4.110 -0.4770  0.2520 -0.4969
 3762SOL     OW14813   1.107   3.458   3.420 -0.1881 -0.0962  0.8932
 3762SOL    HW214814   1.044   3.389   3.441  0.0020 -0.5242  0.0985
 3762SOL    HW314815   1.058   3.518   3.362  0.5057 -1.1620 -0.8707
 3762SOL    MW414816   1.092   3.457   3.415 -0.0715 -0.2933  0.5557
 3763SOL     OW14817   3.275   1.542   0.441 -0.7021  0.5882  0.5776
 3763SOL    HW214818   3.246   1.511   0.355  0.2382  0.5310  0.2755
 3763SOL    HW314819   3.262   1.637   0.438 -1.9057  0.4445  0.8573
 3763SOL    MW414820   3.269   1.551   0.429 -0.7369  0.5617  0.5746
 3764SOL     OW14821   1.132   5.457   0.555 -0.4852  0.0496  0.1937
 3764SOL    HW214822   1.063   5.509   0.514  0.4114  1.3220  0.2546
 3764SOL    HW314823   1.206   5.465   0.495  0.0007 -0.2951  0.7391
 3764SOL    MW414824   1.133   5.465   0.541 -0.3028  0.1720  0.2737
 3765SOL     OW14825   5.486   6.139   1.382 -1.0826 -0.7800 -0.5036
 3765SOL    HW214826   5.462   6.069   1.320 -1.4255 -1.7096  0.6406
 3765SOL    HW314827   5.536   6.094   1.450 -0.6614  0.2421 -0.1312
 3765SOL    MW414828   5.489   6.124   1.383 -1.0722 -0.7678 -0.3035
 3766SOL     OW14829   0.572   0.881   0.329 -0.0526 -0.4317 -0.5096
 3766SOL    HW214830   0.518   0.802   0.326  1.4541 -1.4694 -1.8443
 3766SOL    HW314831   0.534   0.938   0.261 -0.8741 -0.1608  0.1580
 3766SOL    MW414832   0.560   0.878   0.319  0.0378 -0.5329 -0.5976
 3767SOL     OW14833   0.371   6.082   1.529 -0.1868  0.7087 -0.0080
 3767SOL    HW214834   0.450   6.046   1.491 -0.0186  0.6911  0.3550
 3767SOL    HW314835   0.398   6.115   1.615 -0.5902  0.6180  0.1575
 3767SOL    MW414836   0.385   6.082   1.535 -0.2178  0.6944  0.0617
 3768SOL     OW14837   3.971   5.507   4.721 -0.3982  0.5851 -0.4512
 3768SOL    HW214838   3.996   5.536   4.808  1.3370  0.0311 -0.7216
 3768SOL    HW314839   3.875   5.508   4.721 -0.4179  0.8015  1.3685
 3768SOL    MW414840   3.961   5.511   4.732 -0.1719  0.5405 -0.2468
 3769SOL     OW14841   2.540   3.170   1.511 -0.3115 -0.4653  0.4223
 3769SOL    HW214842   2.634   3.165   1.491 -0.3968  1.2684 -0.5739
 3769SOL    HW314843   2.497   3.152   1.427 -0.8679 -0.6166  0.7329
 3769SOL    MW414844   2.547   3.167   1.497 -0.3962 -0.2565  0.3319
 3770SOL     OW14845   3.109   1.435   3.428  0.0340 -0.3959  0.1091
 3770SOL    HW214846   3.083   1.363   3.372  0.7920 -0.0452 -0.7250
 3770SOL    HW314847   3.087   1.514   3.379  3.4808 -0.0528 -1.1660
 3770SOL    MW414848   3.103   1.436   3.414  0.5888 -0.3044 -0.1692
 3771SOL     OW14849   1.167   4.634   2.841 -0.2052  0.3124 -0.3527
 3771SOL    HW214850   1.085   4.663   2.882  0.4249 -0.0340  1.1949
 3771SOL    HW314851   1.214   4.714   2.822 -0.6244  0.4876 -0.6824
 3771SOL    MW414852   1.162   4.648   2.844 -0.1774  0.2898 -0.1920
 3772SOL     OW14853   3.917   3.328   3.202  0.4338  0.0995 -0.4792
 3772SOL    HW214854   3.955   3.363   3.122  2.5875 -0.4320  0.2407
 3772SOL    HW314855   3.840   3.382   3.218  1.1845  1.6172 -1.7271
 3772SOL    MW414856   3.912   3.340   3.194  0.8170  0.2296 -0.5488
 3773SOL     OW14857   4.721   1.195   5.740  0.0013 -0.0467 -0.0217
 3773SOL    HW214858   4.796   1.212   5.683  0.4400  1.7720  0.9962
 3773SOL    HW314859   4.740   1.112   5.783  1.5996  0.5087  0.4175
 3773SOL    MW414860   4.733   1.187   5.738  0.2701  0.2665  0.1706
 3774SOL     OW14861   1.018   4.238   6.227 -0.4199  0.1875  0.6609
 3774SOL    HW214862   1.016   4.299   6.153 -0.9647 -2.1618 -1.4071
 3774SOL    HW314863   1.046   4.291   6.301 -2.5040  3.3153 -0.5830
 3774SOL    MW414864   1.021   4.253   6.227 -0.7667  0.2902  0.2240
 3775SOL     OW14865   1.584   3.144   4.239  0.4638 -0.4351  0.2548
 3775SOL    HW214866   1.582   3.217   4.177 -1.6144  0.7759  1.5917
 3775SOL    HW314867   1.672   3.147   4.276  0.3446  1.7265  0.5435
 3775SOL    MW414868   1.595   3.154   4.236  0.1739  0.0099  0.4693
 3776SOL     OW14869   2.504   3.376   4.873 -0.5548 -0.1572  0.0667
 3776SOL    HW214870   2.506   3.441   4.944  3.2634 -1.0489  0.9985
 3776SOL    HW314871   2.496   3.292   4.918 -0.1109 -0.6289 -0.7177
 3776SOL    MW414872   2.503   3.374   4.888  0.0075 -0.3371  0.0861
 3777SOL     OW14873   4.872   0.349   0.246  0.4752  0.0114 -1.0153
 3777SOL    HW214874   4.909   0.435   0.223 -1.0505  1.1794  0.6202
 3777SOL    HW314875   4.778   0.364   0.250  0.2951 -1.2436  1.0843
 3777SOL    MW414876   4.865   0.363   0.244  0.2501 -0.0001 -0.5225
 3778SOL     OW14877   3.589   0.752   0.735  0.0983  0.1765  0.4031
 3778SOL    HW214878   3.649   0.700   0.788 -1.6439 -2.4583  0.0250
 3778SOL    HW314879   3.562   0.824   0.791  2.0003  0.2616  1.2775
 3778SOL    MW414880   3.593   0.755   0.749  0.1194 -0.1599  0.4686
 3779SOL     OW14881   4.670   5.964   1.686 -0.3233 -0.2197 -0.1878
 3779SOL    HW214882   4.722   5.884   1.683 -0.3556 -0.2650  0.3283
 3779SOL    HW314883   4.718   6.026   1.632  1.0555  0.1847  1.4061
 3779SOL    MW414884   4.683   5.962   1.679 -0.1457 -0.1723  0.0906
 3780SOL     OW14885   5.564   1.552   3.264  0.2776 -0.5118  0.1988
 3780SOL    HW214886   5.469   1.556   3.251 -0.2269  1.4998  3.4620
 3780SOL    HW314887   5.599   1.604   3.192 -1.5781  2.8171  1.4612
 3780SOL    MW414888   5.556   1.559   3.253 -0.0338  0.1928  0.7959
 3781SOL     OW14889   5.635   4.924   2.935 -0.3544  0.5058  0.5006
 3781SOL    HW214890   5.610   4.905   2.844  0.4688  1.2417  0.1006
 3781SOL    HW314891   5.624   4.841   2.981  0.0432 -0.0913 -0.4620
 3781SOL    MW414892   5.630   4.911   2.929 -0.1933  0.5241  0.3208
 3782SOL     OW14893   2.364   4.827   0.257  0.1177  0.0103 -0.0419
 3782SOL    HW214894   2.312   4.818   0.177 -1.4817 -1.4129  1.0864
 3782SOL    HW314895   2.455   4.828   0.227 -0.4728  1.1223 -1.9691
 3782SOL    MW414896   2.369   4.826   0.242 -0.1712 -0.0308 -0.1473
 3783SOL     OW14897   1.698   1.093   5.893  0.2079 -0.0441  0.4794
 3783SOL    HW214898   1.755   1.023   5.860 -0.2235 -0.1541 -0.0436
 3783SOL    HW314899   1.714   1.166   5.834 -0.6642 -0.2844 -0.0771
 3783SOL    MW414900   1.708   1.093   5.881  0.0359 -0.0903  0.3370
 3784SOL     OW14901   1.438   2.778   4.932  0.5797 -0.0893 -0.6421
 3784SOL    HW214902   1.381   2.785   4.855  2.1426  2.0284 -1.7293
 3784SOL    HW314903   1.379   2.794   5.006 -0.3501  1.9258 -1.7045
 3784SOL    MW414904   1.422   2.781   4.931  0.6632  0.4560 -0.9257
 3785SOL     OW14905   3.889   3.472   5.460 -0.3239 -0.5590 -0.4857
 3785SOL    HW214906   3.926   3.456   5.373 -2.4492 -0.2257 -1.5223
 3785SOL    HW314907   3.854   3.387   5.488 -2.6639 -0.0185 -1.5332
 3785SOL    MW414908   3.889   3.459   5.452 -0.9130 -0.4437 -0.7607
 3786SOL     OW14909   4.396   5.094   5.657 -0.0403 -0.3249  0.0293
 3786SOL    HW214910   4.394   5.172   5.602  1.5469  0.3779  0.8953
 3786SOL    HW314911   4.468   5.041   5.623 -0.0181 -0.6087  0.5043
 3786SOL    MW414912   4.405   5.097   5.645  0.1720 -0.2696  0.2062
 3787SOL     OW14913   6.237   3.318   4.186 -0.5380 -0.3614  0.2193
 3787SOL    HW214914   6.310   3.339   4.244 -2.0439  0.9367  1.7101
 3787SOL    HW314915   6.279   3.283   4.107  1.6717  0.1578  1.0997
 3787SOL    MW414916   6.252   3.316   4.183 -0.4452 -0.1217  0.5321
 3788SOL     OW14917   3.651   6.321   2.130  0.4446  0.1281 -0.1960
 3788SOL    HW214918   3.657   6.287   2.220 -0.1604 -2.2008 -0.9715
 3788SOL    HW314919   3.742   6.330   2.102  0.6574 -1.5022 -0.1402
 3788SOL    MW414920   3.664   6.318   2.138  0.3929 -0.3943 -0.2910
 3789SOL     OW14921   1.332   1.203   6.145  0.8469  0.2890 -0.5962
 3789SOL    HW214922   1.314   1.287   6.187  0.0743 -0.7046  1.1654
 3789SOL    HW314923   1.422   1.183   6.169  0.4911 -0.1526  0.4366
 3789SOL    MW414924   1.341   1.211   6.154  0.6980  0.0997 -0.2275
 3790SOL     OW14925   2.868   2.278   2.914  0.1676 -0.8466 -0.2192
 3790SOL    HW214926   2.778   2.244   2.910 -0.7462  0.9985  2.1369
 3790SOL    HW314927   2.904   2.241   2.994  1.6101 -1.6395 -1.1929
 3790SOL    MW414928   2.861   2.269   2.924  0.2373 -0.7078 -0.0368
 3791SOL     OW14929   5.360   2.823   1.661 -0.0917 -0.0501 -0.7068
 3791SOL    HW214930   5.272   2.786   1.655 -0.7066  1.2183  0.0859
 3791SOL    HW314931   5.376   2.862   1.576  0.2663 -1.4220 -1.3017
 3791SOL    MW414932   5.350   2.823   1.649 -0.1256 -0.0637 -0.6807
 3792SOL     OW14933   0.631   4.732   3.966 -0.6155  0.6380  0.1399
 3792SOL    HW214934   0.696   4.736   3.896  0.1932  0.6206  0.8782
 3792SOL    HW314935   0.657   4.657   4.019 -1.5481  0.3064  0.1595
 3792SOL    MW414936   0.643   4.723   3.964 -0.6319  0.5919  0.2399
 3793SOL     OW14937   6.012   1.124   5.598 -0.3907  0.0961  0.0114
 3793SOL    HW214938   5.985   1.041   5.637  0.2328  0.4990  1.3378
 3793SOL    HW314939   6.104   1.111   5.575 -0.6240  0.0229 -0.9245
 3793SOL    MW414940   6.021   1.111   5.600 -0.3392  0.1396  0.0629
 3794SOL     OW14941   0.191   1.992   6.473 -0.7029 -0.1829  0.6489
 3794SOL    HW214942   0.135   2.017   6.546  0.1551 -1.1681  1.6761
 3794SOL    HW314943   0.209   1.899   6.487 -0.1657 -0.2775 -0.5775
 3794SOL    MW414944   0.186   1.983   6.484 -0.5188 -0.3254  0.6226
 3795SOL     OW14945   3.573   0.170   2.965 -0.0207 -0.1627  0.0533
 3795SOL    HW214946   3.623   0.144   3.042  1.7840 -0.3934 -1.1136
 3795SOL    HW314947   3.509   0.233   2.997  1.0156  0.1230  1.6574
 3795SOL    MW414948   3.572   0.175   2.979  0.3541 -0.1554  0.1109
 3796SOL     OW14949   6.146   2.822   3.596  0.7915  0.1884 -0.3530
 3796SOL    HW214950   6.234   2.786   3.598  0.8156 -0.0671  4.3268
 3796SOL    HW314951   6.157   2.915   3.613  0.1705  0.0151  1.0968
 3796SOL    MW414952   6.159   2.829   3.598  0.7127  0.1318  0.4557
 3797SOL     OW14953   0.645   6.400   1.541 -0.0275  0.3511  0.2362
 3797SOL    HW214954   0.673   6.457   1.613 -0.3347  1.1815 -0.2784
 3797SOL    HW314955   0.720   6.344   1.524  0.5903  1.1568  0.2273
 3797SOL    MW414956   0.658   6.400   1.548  0.0135  0.5670  0.1671
 3798SOL     OW14957   4.407   0.992   4.534  0.6611 -0.9956  0.2679
 3798SOL    HW214958   4.393   0.919   4.473  0.4822 -0.6418 -0.1209
 3798SOL    HW314959   4.438   1.063   4.478  1.0994 -0.8600  0.6883
 3798SOL    MW414960   4.409   0.991   4.518  0.6953 -0.9310  0.2721
 3799SOL     OW14961   5.620   0.827   5.448  0.6585 -0.4848 -0.0851
 3799SOL    HW214962   5.630   0.883   5.372  0.4292  0.7765  0.7872
 3799SOL    HW314963   5.708   0.793   5.466  0.7085 -0.8018 -0.9007
 3799SOL    MW414964   5.633   0.830   5.440  0.6348 -0.3603 -0.0776
 3800SOL     OW14965   3.331   3.750   1.742  0.7064 -0.0253  0.1109
 3800SOL    HW214966   3.390   3.770   1.670  0.2427  0.9533 -0.0135
 3800SOL    HW314967   3.388   3.736   1.818  1.3726 -3.0664 -0.7912
 3800SOL    MW414968   3.346   3.751   1.742  0.7331 -0.2974 -0.0246
 3801SOL     OW14969   0.012   5.289   0.421 -0.1795 -0.2913  0.0410
 3801SOL    HW214970   0.053   5.353   0.480 -0.4188 -0.5980  0.5468
 3801SOL    HW314971   0.006   5.335   0.337 -2.1034  1.0890  0.8502
 3801SOL    MW414972   0.016   5.303   0.418 -0.4649 -0.1497  0.2145
 3802SOL     OW14973   2.977   1.542   6.007  0.3804 -0.1009 -0.5304
 3802SOL    HW214974   3.023   1.625   5.999 -0.6379  0.3567 -2.2755
 3802SOL    HW314975   3.003   1.492   5.930 -0.2302 -0.7622 -0.3233
 3802SOL    MW414976   2.986   1.547   5.996  0.1655 -0.1278 -0.7333
 3803SOL     OW14977   1.148   3.717   2.534  0.7527 -0.3015  0.0329
 3803SOL    HW214978   1.095   3.637   2.534  0.2608  0.0165  0.6075
 3803SOL    HW314979   1.109   3.771   2.465  0.9941 -0.4946 -0.2572
 3803SOL    MW414980   1.136   3.713   2.525  0.7196 -0.2851  0.0705
 3804SOL     OW14981   4.508   5.768   3.045 -0.0797 -0.2931 -0.4202
 3804SOL    HW214982   4.493   5.860   3.025  0.0587 -0.1915 -0.0758
 3804SOL    HW314983   4.510   5.765   3.141 -1.6860 -0.9212 -0.3772
 3804SOL    MW414984   4.506   5.780   3.055 -0.2734 -0.3626 -0.3691
 3805SOL     OW14985   3.385   2.776   5.913  0.0018 -0.5282  0.4219
 3805SOL    HW214986   3.356   2.692   5.876 -1.8810  0.2320  0.0459
 3805SOL    HW314987   3.462   2.799   5.862  0.5950 -2.0432  0.5672
 3805SOL    MW414988   3.391   2.768   5.902 -0.1683 -0.6278  0.3914
 3806SOL     OW14989   4.138   3.868   5.087  0.4244 -0.3076  0.0514
 3806SOL    HW214990   4.058   3.920   5.072  0.9848  1.0546  1.4802
 3806SOL    HW314991   4.203   3.907   5.028  1.1613  1.4902  1.9244
 3806SOL    MW414992   4.136   3.880   5.077  0.5956  0.1094  0.4870
 3807SOL     OW14993   4.655   2.025   1.508 -0.4735 -0.1876 -0.2698
 3807SOL    HW214994   4.692   1.944   1.473 -2.7253 -0.7914 -1.4594
 3807SOL    HW314995   4.725   2.089   1.501  1.2300 -1.9096  0.3193
 3807SOL    MW414996   4.669   2.023   1.503 -0.5458 -0.4945 -0.3490
 3808SOL     OW14997   4.679   6.261   2.595 -0.5919  0.0334 -0.1726
 3808SOL    HW214998   4.589   6.230   2.586 -0.8770  0.9435 -0.6301
 3808SOL    HW314999   4.724   6.224   2.518 -0.1173 -1.8449  0.9432
 3808SOL    MW415000   4.673   6.252   2.583 -0.5669 -0.0943 -0.0857
 3809SOL     OW15001   0.601   5.932   5.852  0.0426 -0.0437  0.2800
 3809SOL    HW215002   0.551   5.854   5.827 -0.4390  0.6738 -1.1643
 3809SOL    HW315003   0.536   5.992   5.889  0.2180  0.0667  0.4129
 3809SOL    MW415004   0.586   5.930   5.853  0.0022  0.0655  0.1070
 3810SOL     OW15005   5.970   3.277   5.995  0.0440  0.3140 -0.0838
 3810SOL    HW215006   6.036   3.300   5.929  0.1019  0.4720  0.0292
 3810SOL    HW315007   5.893   3.327   5.970 -0.1177 -0.0720 -0.3686
 3810SOL    MW415008   5.969   3.287   5.983  0.0303  0.2839 -0.1065
 3811SOL     OW15009   0.900   0.704   4.707  0.1230  0.2341  0.4609
 3811SOL    HW215010   0.921   0.612   4.691 -1.5807 -0.5838  2.5070
 3811SOL    HW315011   0.953   0.729   4.782 -0.5302  0.4463  0.8630
 3811SOL    MW415012   0.910   0.695   4.714 -0.1880  0.1542  0.7839
 3812SOL     OW15013   1.782   0.690   1.125 -0.1086  0.0615  0.6545
 3812SOL    HW215014   1.803   0.743   1.202  0.0077 -1.2332  1.5557
 3812SOL    HW315015   1.745   0.610   1.161 -1.4725  0.0341 -0.7106
 3812SOL    MW415016   1.780   0.687   1.140 -0.2732 -0.1129  0.5933
 3813SOL     OW15017   3.252   0.533   4.237  0.2113 -0.0279 -0.1170
 3813SOL    HW215018   3.325   0.471   4.229  0.3603  0.2062 -0.5957
 3813SOL    HW315019   3.263   0.571   4.324  0.7929  0.1684 -0.2724
 3813SOL    MW415020   3.263   0.530   4.247  0.3077  0.0288 -0.2007
 3814SOL     OW15021   3.798   2.781   1.017  0.0181  0.0872  0.1006
 3814SOL    HW215022   3.711   2.811   1.042 -0.0270  1.5774 -1.6237
 3814SOL    HW315023   3.857   2.823   1.080 -0.3941  0.3774  0.2980
 3814SOL    MW415024   3.794   2.791   1.029 -0.0422  0.3221 -0.1009
 3815SOL     OW15025   2.031   4.888   0.901  0.3987 -0.0983  0.3061
 3815SOL    HW215026   1.961   4.935   0.946  0.2335 -0.6953  0.6979
 3815SOL    HW315027   2.111   4.915   0.947  0.3138 -0.1382  0.4800
 3815SOL    MW415028   2.032   4.898   0.913  0.3657 -0.1824  0.3807
 3816SOL     OW15029   2.801   2.136   5.543  0.3949 -0.1330  0.0915
 3816SOL    HW215030   2.853   2.216   5.536 -2.2011  1.6043 -0.7892
 3816SOL    HW315031   2.769   2.135   5.633  2.5284 -1.6736  0.9022
 3816SOL    MW415032   2.803   2.146   5.554  0.3339 -0.1071  0.0823
 3817SOL     OW15033   1.683   1.934   3.377  0.1296 -0.1370  0.7322
 3817SOL    HW215034   1.605   1.977   3.411  0.5694 -0.2093  1.8585
 3817SOL    HW315035   1.686   1.961   3.285 -1.0886  0.0416  0.7288
 3817SOL    MW415036   1.673   1.943   3.369  0.0269 -0.1230  0.8804
 3818SOL     OW15037   2.112   3.398   0.388  0.3001  0.0733 -0.5545
 3818SOL    HW215038   2.163   3.372   0.464  0.3925  0.5035 -0.4671
 3818SOL    HW315039   2.085   3.488   0.407 -1.2523 -0.4402 -0.1836
 3818SOL    MW415040   2.115   3.407   0.400  0.1075  0.0623 -0.4940
 3819SOL     OW15041   2.944   5.720   1.990  0.5841 -0.4634 -0.7984
 3819SOL    HW215042   2.938   5.815   1.983 -0.6670 -0.6090 -2.3414
 3819SOL    HW315043   3.037   5.700   1.984  0.9438  0.6997  0.5080
 3819SOL    MW415044   2.955   5.730   1.989  0.4665 -0.3292 -0.8296
 3820SOL     OW15045   2.492   5.065   0.082  0.6611 -0.6922 -1.5284
 3820SOL    HW215046   2.459   5.103   0.164  0.7176 -0.4388 -1.6233
 3820SOL    HW315047   2.573   5.113   0.065 -0.6735  1.1811 -3.1462
 3820SOL    MW415048   2.498   5.077   0.091  0.4925 -0.4116 -1.7544
 3821SOL     OW15049   4.311   5.657   2.658  0.3214  0.2319 -0.1189
 3821SOL    HW215050   4.261   5.641   2.577  2.7562 -2.4209 -1.2701
 3821SOL    HW315051   4.249   5.640   2.728 -1.0551 -0.5655 -1.4576
 3821SOL    MW415052   4.296   5.653   2.656  0.4610 -0.2233 -0.4474
 3822SOL     OW15053   1.228   1.273   4.219  0.0907 -0.0970 -0.0542
 3822SOL    HW215054   1.229   1.186   4.261 -2.9210 -0.0644  0.2724
 3822SOL    HW315055   1.267   1.258   4.133  2.2251 -1.1247  0.9992
 3822SOL    MW415056   1.234   1.259   4.213 -0.0251 -0.2283  0.1279
 3823SOL     OW15057   1.532   0.433   5.781  0.2405  0.1934 -0.1543
 3823SOL    HW215058   1.499   0.438   5.871  0.4802 -0.3502 -0.0321
 3823SOL    HW315059   1.487   0.504   5.735  1.8133  1.9510  0.9211
 3823SOL    MW415060   1.522   0.443   5.787  0.4797  0.3536  0.0037
 3824SOL     OW15061   2.043   3.866   3.015 -0.4813  0.4945 -0.1702
 3824SOL    HW215062   1.987   3.944   3.016 -0.9136  0.1916  0.9209
 3824SOL    HW315063   1.984   3.794   2.993 -0.3160  0.3176 -0.0412
 3824SOL    MW415064   2.028   3.867   3.013 -0.5165  0.4312 -0.0092
 3825SOL     OW15065   2.580   1.866   4.531  0.1962 -0.2093 -0.1625
 3825SOL    HW215066   2.601   1.878   4.438  0.7072  1.4511  0.1339
 3825SOL    HW315067   2.520   1.937   4.551  1.3428  0.4304  1.1545
 3825SOL    MW415068   2.575   1.877   4.521  0.4149  0.0942  0.0504
 3826SOL     OW15069   6.182   5.429   4.896  0.0586  0.7248  0.4602
 3826SOL    HW215070   6.232   5.506   4.870  1.1659 -0.4418 -1.0641
 3826SOL    HW315071   6.170   5.379   4.815  1.4260 -1.8353  1.7024
 3826SOL    MW415072   6.187   5.433   4.882  0.3851  0.2331  0.4230
 3827SOL     OW15073   1.359   1.428   6.336 -0.2173 -0.3701  0.8556
 3827SOL    HW215074   1.288   1.465   6.284 -0.0531 -2.0606 -0.6867
 3827SOL    HW315075   1.439   1.457   6.292 -0.0766 -1.8996  0.0121
 3827SOL    MW415076   1.360   1.436   6.323 -0.1771 -0.7950  0.5408
 3828SOL     OW15077   0.457   2.511   6.068  0.5675 -0.7296  0.3810
 3828SOL    HW215078   0.480   2.502   5.975 -0.8267  0.2062 -0.0800
 3828SOL    HW315079   0.465   2.422   6.103  2.4377 -0.8754 -0.2811
 3828SOL    MW415080   0.461   2.498   6.060  0.6303 -0.6254  0.2328
 3829SOL     OW15081   5.948   3.722   1.788 -0.5720 -0.0039 -0.2161
 3829SOL    HW215082   5.904   3.707   1.872 -3.2153  1.1945 -1.2788
 3829SOL    HW315083   5.885   3.693   1.722  2.1574 -2.7403 -1.8840
 3829SOL    MW415084   5.934   3.716   1.790 -0.5606 -0.2068 -0.5764
 3830SOL     OW15085   6.314   0.363   2.132 -0.1641  0.1360 -0.3673
 3830SOL    HW215086   6.246   0.430   2.128  0.2242  0.6116  0.8666
 3830SOL    HW315087   6.380   0.398   2.191  1.2300 -0.2743 -1.6200
 3830SOL    MW415088   6.313   0.376   2.139  0.0710  0.1446 -0.3697
 3831SOL     OW15089   1.031   1.265   5.458 -0.4233  0.3996  0.7881
 3831SOL    HW215090   0.971   1.289   5.388  2.3712 -0.6110 -2.1923
 3831SOL    HW315091   1.014   1.172   5.473  0.5571  0.0128 -0.3399
 3831SOL    MW415092   1.021   1.256   5.451  0.0748  0.2153  0.2461
 3832SOL     OW15093   3.241   2.080   1.259 -0.2191  0.0929 -0.5423
 3832SOL    HW215094   3.245   2.108   1.351  0.9242 -0.4690 -0.3984
 3832SOL    HW315095   3.150   2.095   1.233 -0.1244  2.0829  0.1044
 3832SOL    MW415096   3.230   2.086   1.268 -0.0558  0.2813 -0.4380
 3833SOL     OW15097   2.137   6.290   5.871 -0.3435 -0.3433 -0.0818
 3833SOL    HW215098   2.232   6.288   5.881 -0.4322 -0.2734  0.9002
 3833SOL    HW315099   2.109   6.367   5.921 -1.1008 -1.6232  1.5452
 3833SOL    MW415100   2.146   6.300   5.879 -0.4551 -0.5030  0.2624
 3834SOL     OW15101   2.163   2.547   3.399  0.2571 -0.2091  0.1130
 3834SOL    HW215102   2.137   2.500   3.320  0.7197 -0.9872  0.4061
 3834SOL    HW315103   2.161   2.639   3.374  0.3879 -0.4414 -0.8036
 3834SOL    MW415104   2.159   2.553   3.385  0.3354 -0.3424  0.0307
 3835SOL     OW15105   4.793   6.422   6.079  0.4482  0.0743 -0.0699
 3835SOL    HW215106   4.809   6.514   6.102 -0.1237 -0.0288  0.7613
 3835SOL    HW315107   4.881   6.385   6.071  0.9019  1.4754 -3.9458
 3835SOL    MW415108   4.807   6.430   6.081  0.4326  0.2455 -0.4716
 3836SOL     OW15109   0.374   2.361   2.055  0.3264  0.4135 -0.0918
 3836SOL    HW215110   0.341   2.438   2.102 -1.3109 -0.8736  0.9522
 3836SOL    HW315111   0.310   2.293   2.071  1.6777 -1.1840 -1.0928
 3836SOL    MW415112   0.361   2.362   2.063  0.2887  0.0329 -0.0861
 3837SOL     OW15113   2.636   5.604   3.558  0.2302 -0.0107 -0.1072
 3837SOL    HW215114   2.727   5.575   3.569 -0.3210 -1.3864  1.1081
 3837SOL    HW315115   2.615   5.583   3.467  1.0270  0.0205 -0.3047
 3837SOL    MW415116   2.646   5.597   3.548  0.2626 -0.1881  0.0271
 3838SOL     OW15117   3.935   3.533   4.693  0.2243  0.6017  0.2616
 3838SOL    HW215118   3.906   3.502   4.779  2.0957 -1.0367  0.3663
 3838SOL    HW315119   3.869   3.597   4.668 -2.2816 -1.3382  1.3932
 3838SOL    MW415120   3.922   3.537   4.701  0.1406  0.1296  0.4247
 3839SOL     OW15121   1.117   4.929   5.931  0.0788 -0.6029 -0.2875
 3839SOL    HW215122   1.149   4.862   5.991  0.4065 -0.0657  0.1597
 3839SOL    HW315123   1.118   5.010   5.983  0.0224 -0.1893 -0.9073
 3839SOL    MW415124   1.122   4.931   5.946  0.1146 -0.4775 -0.3103
 3840SOL     OW15125   1.517   5.340   4.260 -0.0445 -0.0395 -0.4629
 3840SOL    HW215126   1.596   5.286   4.258 -0.2675 -0.3576 -0.7885
 3840SOL    HW315127   1.541   5.414   4.316  0.4496 -0.1840 -0.4717
 3840SOL    MW415128   1.531   5.343   4.267 -0.0087 -0.1005 -0.5070
 3841SOL     OW15129   2.357   5.525   0.937 -0.0027  0.4677  0.3545
 3841SOL    HW215130   2.340   5.458   0.870 -0.1857 -0.6433  1.4683
 3841SOL    HW315131   2.431   5.575   0.902  0.4780 -0.6454 -0.2978
 3841SOL    MW415132   2.365   5.522   0.923  0.0366  0.1743  0.4154
 3842SOL     OW15133   5.262   6.155   5.670 -0.6487 -0.6893 -0.4621
 3842SOL    HW215134   5.332   6.107   5.627  0.9110 -0.0131  1.1896
 3842SOL    HW315135   5.280   6.247   5.648  0.8764 -0.1972  2.3729
 3842SOL    MW415136   5.274   6.161   5.661 -0.2417 -0.5351  0.1299
 3843SOL     OW15137   5.264   3.714   4.782  0.3963 -0.1258  0.1097
 3843SOL    HW215138   5.275   3.809   4.777 -0.0229 -0.1250 -1.2053
 3843SOL    HW315139   5.213   3.701   4.862  0.7019  0.7283  0.4592
 3843SOL    MW415140   5.259   3.725   4.792  0.3813 -0.0130 -0.0177
 3844SOL     OW15141   0.553   3.403   5.551 -0.1016 -0.0662 -0.3198
 3844SOL    HW215142   0.586   3.491   5.568 -0.0041 -0.2055  0.2198
 3844SOL    HW315143   0.539   3.401   5.456 -0.0890  0.5218 -0.3390
 3844SOL    MW415144   0.556   3.414   5.541 -0.0871 -0.0070 -0.2511
 3845SOL     OW15145   4.835   3.609   0.819  0.3082 -0.5147  0.0550
 3845SOL    HW215146   4.927   3.633   0.829 -0.1351  0.3517  2.8806
 3845SOL    HW315147   4.793   3.637   0.901 -2.2142 -2.1278 -0.5540
 3845SOL    MW415148   4.841   3.616   0.831 -0.0831 -0.6132  0.3474
 3846SOL     OW15149   5.672   2.566   1.015  0.2974 -0.1509  0.0106
 3846SOL    HW215150   5.683   2.484   1.064 -1.0749 -0.3187  0.0773
 3846SOL    HW315151   5.636   2.540   0.931  1.2295  0.2794 -0.5452
 3846SOL    MW415152   5.669   2.552   1.011  0.2393 -0.1162 -0.0539
 3847SOL     OW15153   0.792   2.190   2.194 -0.2269  0.2711 -0.0275
 3847SOL    HW215154   0.760   2.222   2.278  1.1264  1.3815  0.0962
 3847SOL    HW315155   0.883   2.221   2.189  1.0638 -3.1160 -0.1594
 3847SOL    MW415156   0.800   2.199   2.204  0.1219 -0.0293 -0.0286
 3848SOL     OW15157   2.580   2.562   6.426 -0.0868  0.3919 -0.0966
 3848SOL    HW215158   2.630   2.590   6.503 -0.0436 -0.0620  0.0414
 3848SOL    HW315159   2.529   2.640   6.402 -2.8489 -0.3803  2.5479
 3848SOL    MW415160   2.580   2.576   6.433 -0.4455  0.2301  0.2705
 3849SOL     OW15161   5.938   4.789   3.986  0.1050 -0.2521 -0.0972
 3849SOL    HW215162   5.860   4.783   4.041  0.8358  1.7191  1.2598
 3849SOL    HW315163   5.915   4.740   3.907 -1.9452 -0.9725  0.8590
 3849SOL    MW415164   5.925   4.782   3.983 -0.0691 -0.0871  0.2080
 3850SOL     OW15165   2.801   0.425   1.163 -0.7135  0.0292 -0.0806
 3850SOL    HW215166   2.834   0.354   1.109 -0.1568  0.9016 -0.9046
 3850SOL    HW315167   2.783   0.384   1.248 -0.4745 -1.1017 -0.5598
 3850SOL    MW415168   2.803   0.410   1.167 -0.6085 -0.0049 -0.2525
 3851SOL     OW15169   0.310   5.757   3.007 -0.0673 -0.5418  0.1810
 3851SOL    HW215170   0.390   5.733   2.960  0.2308  0.4367  0.1842
 3851SOL    HW315171   0.276   5.833   2.960 -0.0396  0.1453  1.2568
 3851SOL    MW415172   0.316   5.764   2.994 -0.0243 -0.3220  0.3234
 3852SOL     OW15173   4.317   5.728   1.143  0.1081  0.3629 -0.2595
 3852SOL    HW215174   4.388   5.686   1.192  0.2898  0.7068 -0.2251
 3852SOL    HW315175   4.360   5.769   1.068 -0.2965 -1.0283 -1.2915
 3852SOL    MW415176   4.332   5.728   1.139  0.0787  0.2247 -0.3911
 3853SOL     OW15177   2.306   1.834   0.282  0.4255  0.5075 -0.2370
 3853SOL    HW215178   2.237   1.838   0.349  0.3924 -0.2966 -0.2149
 3853SOL    HW315179   2.387   1.820   0.331  0.2689 -1.1880 -0.4049
 3853SOL    MW415180   2.307   1.833   0.297  0.4005  0.1777 -0.2562
 3854SOL     OW15181   4.596   0.657   0.284  1.1020 -0.6054 -0.3640
 3854SOL    HW215182   4.680   0.691   0.315  1.2659 -0.6334 -0.7611
 3854SOL    HW315183   4.557   0.729   0.234  0.2686 -0.1340  0.9212
 3854SOL    MW415184   4.602   0.671   0.281  1.0137 -0.5469 -0.2468
 3855SOL     OW15185   0.964   2.279   0.991 -0.4036 -0.1765  0.0533
 3855SOL    HW215186   0.976   2.373   1.000  1.0605 -0.2797 -0.4961
 3855SOL    HW315187   0.911   2.269   0.912  0.4258  0.1697 -0.5672
 3855SOL    MW415188   0.959   2.290   0.981 -0.1010 -0.1444 -0.1011
 3856SOL     OW15189   0.546   1.754   5.800 -0.6038 -0.4647 -0.7175
 3856SOL    HW215190   0.593   1.674   5.819 -2.0979 -1.3866 -0.7345
 3856SOL    HW315191   0.529   1.750   5.705  2.8615  1.9068 -1.6184
 3856SOL    MW415192   0.550   1.743   5.790 -0.3437 -0.2734 -0.8386
 3857SOL     OW15193   1.456   6.065   5.041 -0.1948 -0.8499  0.2799
 3857SOL    HW215194   1.469   6.094   4.950 -0.6512 -0.1981  0.4185
 3857SOL    HW315195   1.364   6.084   5.059  0.1722  0.0966  1.2574
 3857SOL    MW415196   1.446   6.071   5.031 -0.2066 -0.6390  0.4272
 3858SOL     OW15197   0.739   2.068   1.080 -0.0643  0.4758 -0.0619
 3858SOL    HW215198   0.798   2.141   1.065  0.8398 -0.4515 -1.2930
 3858SOL    HW315199   0.794   1.999   1.117 -0.7233  0.1386  0.3154
 3858SOL    MW415200   0.754   2.068   1.083 -0.0320  0.3090 -0.1745
 3859SOL     OW15201   1.776   5.921   2.671 -0.1676 -0.3920  0.2783
 3859SOL    HW215202   1.730   5.986   2.617 -1.3909 -1.3320  0.1696
 3859SOL    HW315203   1.864   5.917   2.633 -0.2846  0.6839 -0.1469
 3859SOL    MW415204   1.782   5.929   2.659 -0.3444 -0.3741  0.2079
 3860SOL     OW15205   3.313   0.973   0.495  0.5737 -0.5468  0.1319
 3860SOL    HW215206   3.261   0.902   0.458 -1.1119  0.7225 -0.0373
 3860SOL    HW315207   3.324   1.035   0.422  0.5396  0.1693  0.7274
 3860SOL    MW415208   3.308   0.972   0.480  0.3468 -0.2849  0.1881
 3861SOL     OW15209   3.971   2.209   5.634  0.1327  0.3571 -0.4185
 3861SOL    HW215210   4.047   2.150   5.633 -0.5557 -0.6403  1.3159
 3861SOL    HW315211   3.971   2.245   5.723 -1.2999  0.5226 -0.4731
 3861SOL    MW415212   3.981   2.206   5.646 -0.1472  0.2473 -0.1969
 3862SOL     OW15213   3.645   5.167   5.983  0.1445 -0.1635  0.6761
 3862SOL    HW215214   3.623   5.257   6.007  0.5233 -0.0980  0.7711
 3862SOL    HW315215   3.668   5.125   6.066 -2.7867 -1.1487  1.1319
 3862SOL    MW415216   3.645   5.173   5.997 -0.1922 -0.2848  0.7487
 3863SOL     OW15217   5.790   3.569   2.968  0.7946 -0.1134  0.1362
 3863SOL    HW215218   5.750   3.512   2.903  0.4027 -0.3952  0.6213
 3863SOL    HW315219   5.793   3.655   2.927  0.6949 -0.3238 -0.3113
 3863SOL    MW415220   5.785   3.572   2.954  0.7297 -0.1783  0.1412
 3864SOL     OW15221   2.210   4.232   3.280 -0.2399 -0.0360  0.4078
 3864SOL    HW215222   2.175   4.315   3.312 -2.9006 -0.2858 -1.5124
 3864SOL    HW315223   2.134   4.173   3.281  1.1691 -1.9412  0.0609
 3864SOL    MW415224   2.195   4.235   3.285 -0.4050 -0.3203  0.1087
 3865SOL     OW15225   1.001   0.611   0.912  0.0507  0.5487 -0.1472
 3865SOL    HW215226   1.065   0.650   0.972 -0.3392 -0.7174  1.1520
 3865SOL    HW315227   0.946   0.685   0.885  0.0335  1.1205  1.3453
 3865SOL    MW415228   1.002   0.626   0.917 -0.0030  0.4571  0.2211
 3866SOL     OW15229   5.881   4.472   2.312 -0.1441 -0.0583 -0.2884
 3866SOL    HW215230   5.793   4.435   2.308  0.0831 -0.6458 -0.0503
 3866SOL    HW315231   5.928   4.414   2.373  0.4293  0.1944 -0.4862
 3866SOL    MW415232   5.876   4.460   2.320 -0.0385 -0.1025 -0.2831
 3867SOL     OW15233   2.121   1.511   3.937  0.5067 -0.4985  0.7851
 3867SOL    HW215234   2.212   1.518   3.910  0.1039  3.5711 -0.2122
 3867SOL    HW315235   2.124   1.507   4.032  1.7217 -0.7135  0.7509
 3867SOL    MW415236   2.133   1.511   3.946  0.6139  0.0101  0.6490
 3868SOL     OW15237   2.083   0.619   2.073  0.0010 -0.0904  0.0273
 3868SOL    HW215238   2.031   0.571   2.137  0.3053 -2.2136 -1.1981
 3868SOL    HW315239   2.048   0.590   1.988  1.1336  0.8382 -0.7878
 3868SOL    MW415240   2.071   0.609   2.070  0.1906 -0.2480 -0.2419
 3869SOL     OW15241   1.224   2.532   1.442  0.0061 -0.0184  0.2110
 3869SOL    HW215242   1.219   2.491   1.355 -1.6660 -1.2373  0.8342
 3869SOL    HW315243   1.251   2.462   1.500 -0.7660  0.2962  0.9698
 3869SOL    MW415244   1.226   2.518   1.438 -0.3163 -0.1377  0.3933
 3870SOL     OW15245   1.442   5.406   6.394 -0.3090  0.2031  0.5592
 3870SOL    HW215246   1.508   5.392   6.462  0.8882  3.0117  0.1067
 3870SOL    HW315247   1.488   5.394   6.311  0.1192  3.2909  0.2062
 3870SOL    MW415248   1.457   5.403   6.392 -0.0946  0.9811  0.4529
 3871SOL     OW15249   3.540   3.928   5.816 -0.1094  0.4407  0.5248
 3871SOL    HW215250   3.586   3.996   5.866  0.6448 -0.9093  1.7419
 3871SOL    HW315251   3.602   3.855   5.814 -1.0487 -0.3426 -0.4274
 3871SOL    MW415252   3.554   3.928   5.823 -0.1338  0.1592  0.5598
 3872SOL     OW15253   1.165   3.003   1.033  0.5401 -0.1800  0.1479
 3872SOL    HW215254   1.216   2.935   0.989 -1.0626 -0.5320 -1.2806
 3872SOL    HW315255   1.128   2.958   1.110  0.5829 -0.5378 -0.0369
 3872SOL    MW415256   1.167   2.988   1.038  0.3343 -0.2737 -0.0650
 3873SOL     OW15257   0.167   5.097   3.530 -0.2581 -0.2839  0.8485
 3873SOL    HW215258   0.214   5.146   3.597 -0.1789 -0.9350  1.2765
 3873SOL    HW315259   0.186   5.143   3.449  0.9602 -0.4059  1.0463
 3873SOL    MW415260   0.176   5.109   3.528 -0.0869 -0.3859  0.9311
 3874SOL     OW15261   3.428   4.936   0.325 -0.3484  0.1569 -0.2145
 3874SOL    HW215262   3.410   5.028   0.306 -0.3289  0.2370  0.1432
 3874SOL    HW315263   3.510   4.917   0.279 -0.4871  0.2459 -0.5012
 3874SOL    MW415264   3.436   4.946   0.316 -0.3641  0.1792 -0.2052
 3875SOL     OW15265   3.899   4.030   5.087 -0.5297  0.5266 -0.0428
 3875SOL    HW215266   3.830   3.964   5.097 -0.1658  0.2256  0.5821
 3875SOL    HW315267   3.895   4.080   5.168 -0.5371  1.0222 -0.3483
 3875SOL    MW415268   3.889   4.028   5.099 -0.4827  0.5522 -0.0007
 3876SOL     OW15269   1.867   3.501   1.241  0.0930  0.1842 -0.8971
 3876SOL    HW215270   1.862   3.589   1.276  1.4000  0.3612 -1.0756
 3876SOL    HW315271   1.778   3.468   1.243 -0.0513  0.6020  1.5058
 3876SOL    MW415272   1.855   3.508   1.246  0.2464  0.2627 -0.6036
 3877SOL     OW15273   5.780   6.197   3.804 -0.3916  0.1605 -0.5478
 3877SOL    HW215274   5.769   6.103   3.820  1.8519  0.0476  0.6911
 3877SOL    HW315275   5.737   6.239   3.879 -0.8827  0.1220 -0.8014
 3877SOL    MW415276   5.773   6.190   3.816 -0.1604  0.1405 -0.4178
 3878SOL     OW15277   5.085   5.499   0.761 -0.2812 -0.2613  0.8805
 3878SOL    HW215278   5.044   5.419   0.728 -0.8041  0.7483 -1.0341
 3878SOL    HW315279   5.151   5.521   0.696 -0.0567  0.8216  1.4504
 3878SOL    MW415280   5.088   5.491   0.748 -0.3206  0.0148  0.7031
 3879SOL     OW15281   3.314   1.112   0.260 -0.2324  0.1216  1.3876
 3879SOL    HW215282   3.221   1.100   0.240  0.5450 -2.1650 -1.6884
 3879SOL    HW315283   3.342   1.182   0.201  0.4445 -0.9324  0.4208
 3879SOL    MW415284   3.305   1.119   0.250 -0.0405 -0.3191  0.8542
 3880SOL     OW15285   4.286   3.983   5.507  0.0021 -0.0031 -0.6261
 3880SOL    HW215286   4.353   3.943   5.562  0.0827 -0.5913 -1.1330
 3880SOL    HW315287   4.332   4.052   5.460 -0.3379  1.3408  0.9213
 3880SOL    MW415288   4.301   3.987   5.508 -0.0322  0.0966 -0.4888
 3881SOL     OW15289   2.951   2.508   1.000 -0.3234  0.0790  0.2853
 3881SOL    HW215290   2.874   2.505   0.945 -0.6940  1.6825  0.6415
 3881SOL    HW315291   2.917   2.505   1.090  0.2687 -2.5289  0.4810
 3881SOL    MW415292   2.937   2.507   1.005 -0.2942 -0.0535  0.3581
 3882SOL     OW15293   1.277   4.424   5.939 -0.1711  0.0747  0.2558
 3882SOL    HW215294   1.190   4.458   5.959 -0.2855 -0.5506  0.8612
 3882SOL    HW315295   1.336   4.478   5.991 -0.2229  0.2828  0.1005
 3882SOL    MW415296   1.273   4.435   5.949 -0.1930  0.0197  0.3152
 3883SOL     OW15297   2.234   0.438   5.465 -0.3328  0.1547 -0.3365
 3883SOL    HW215298   2.152   0.394   5.486  0.5072 -0.6608  1.5110
 3883SOL    HW315299   2.255   0.488   5.545  1.2042 -0.0770 -0.5633
 3883SOL    MW415300   2.226   0.439   5.479 -0.0192  0.0166 -0.1227
 3884SOL     OW15301   2.102   4.257   4.325 -0.1271 -0.0573  0.1778
 3884SOL    HW215302   2.045   4.232   4.398 -0.6432 -0.6346 -0.4228
 3884SOL    HW315303   2.085   4.351   4.313 -1.7218 -0.4336 -0.6564
 3884SOL    MW415304   2.092   4.266   4.333 -0.4056 -0.1831 -0.0115
 3885SOL     OW15305   1.703   1.717   2.650  0.1187 -0.6221 -0.0333
 3885SOL    HW215306   1.776   1.775   2.675  0.3461 -0.9873  0.1521
 3885SOL    HW315307   1.634   1.777   2.622 -0.2031 -0.1620  1.5858
 3885SOL    MW415308   1.703   1.733   2.650  0.1062 -0.6096  0.2048
 3886SOL     OW15309   1.569   3.298   0.599 -0.1879  0.1614  0.1793
 3886SOL    HW215310   1.613   3.382   0.611 -1.0906  0.8926 -1.4650
 3886SOL    HW315311   1.500   3.297   0.665  0.0769  0.5054  0.4686
 3886SOL    MW415312   1.566   3.309   0.609 -0.2721  0.3032  0.0006
 3887SOL     OW15313   1.543   2.165   4.110 -0.8511 -0.1354 -0.0545
 3887SOL    HW215314   1.610   2.232   4.098  1.6379 -1.6489  3.7983
 3887SOL    HW315315   1.460   2.214   4.106  0.6690  2.6521 -0.2474
 3887SOL    MW415316   1.541   2.181   4.108 -0.3221  0.0327  0.4283
 3888SOL     OW15317   2.812   3.136   2.955 -0.1781 -0.2662 -0.0897
 3888SOL    HW215318   2.860   3.218   2.950  2.2107 -1.4200  1.6479
 3888SOL    HW315319   2.805   3.106   2.865 -0.6425  1.5589 -0.7002
 3888SOL    MW415320   2.817   3.143   2.943  0.0758 -0.1776  0.0590
 3889SOL     OW15321   5.872   0.490   0.814  0.2481  0.4560  0.0035
 3889SOL    HW215322   5.868   0.435   0.892  2.1941  1.1543  0.6544
 3889SOL    HW315323   5.885   0.429   0.741  0.1512 -0.0817  0.4342
 3889SOL    MW415324   5.873   0.475   0.815  0.4921  0.4772  0.1462
 3890SOL     OW15325   3.647   4.690   1.975 -0.0059  0.0321  0.1419
 3890SOL    HW215326   3.614   4.616   1.923 -2.2266  0.1904  1.1907
 3890SOL    HW315327   3.632   4.766   1.920 -1.2141  0.0673  0.4884
 3890SOL    MW415328   3.641   4.690   1.961 -0.4583  0.0576  0.3260
 3891SOL     OW15329   6.195   1.299   5.016 -0.3924 -0.3186 -0.2143
 3891SOL    HW215330   6.163   1.388   5.024  0.7047  0.0482  0.2877
 3891SOL    HW315331   6.261   1.290   5.085  1.4401 -0.6354 -1.8939
 3891SOL    MW415332   6.200   1.309   5.026 -0.0059 -0.3120 -0.3697
 3892SOL     OW15333   1.144   1.219   1.921  0.2315 -0.2493  0.5414
 3892SOL    HW215334   1.082   1.260   1.861  0.2875 -0.4158  0.3654
 3892SOL    HW315335   1.210   1.180   1.863  0.9840  0.6800  0.7493
 3892SOL    MW415336   1.145   1.219   1.905  0.3382 -0.1486  0.5456
 3893SOL     OW15337   1.009   4.543   1.484 -0.2466  0.1235 -0.4202
 3893SOL    HW215338   0.964   4.539   1.568  0.6328  0.2860  0.0796
 3893SOL    HW315339   1.096   4.505   1.501  0.8409  2.3258 -0.6238
 3893SOL    MW415340   1.015   4.537   1.497  0.0129  0.4355 -0.3811
 3894SOL     OW15341   4.138   5.021   6.383  0.2097  0.2624 -0.1282
 3894SOL    HW215342   4.062   4.963   6.387 -0.0322  0.5218 -0.8365
 3894SOL    HW315343   4.149   5.041   6.290  1.2596  0.0865 -0.0549
 3894SOL    MW415344   4.130   5.016   6.371  0.3163  0.2734 -0.2120
 3895SOL     OW15345   1.704   0.324   5.574 -0.6533  0.1547  0.0726
 3895SOL    HW215346   1.668   0.236   5.587  3.4425 -1.4796  2.5736
 3895SOL    HW315347   1.671   0.375   5.648  0.2103 -0.6092  1.0138
 3895SOL    MW415348   1.695   0.319   5.586  0.0010 -0.1617  0.5267
 3896SOL     OW15349   0.927   6.139   2.498 -0.4374  0.1403 -0.1525
 3896SOL    HW215350   0.956   6.054   2.531  1.6917  0.6010 -0.7212
 3896SOL    HW315351   0.966   6.203   2.558  0.1044  0.8058 -1.1791
 3896SOL    MW415352   0.936   6.137   2.511 -0.0850  0.2889 -0.3630
 3897SOL     OW15353   1.161   4.933   0.349 -0.7052 -0.2110  0.3232
 3897SOL    HW215354   1.110   4.854   0.330 -1.4759 -0.4293  2.8382
 3897SOL    HW315355   1.249   4.900   0.366 -0.2227 -0.1036 -1.8145
 3897SOL    MW415356   1.166   4.918   0.349 -0.7433 -0.2257  0.3730
 3898SOL     OW15357   2.941   1.563   2.388  0.3978  0.3663 -0.1025
 3898SOL    HW215358   2.912   1.558   2.479 -0.7673  1.3418 -0.3915
 3898SOL    HW315359   2.925   1.475   2.353 -0.8199  0.4517  0.1748
 3898SOL    MW415360   2.935   1.551   2.396  0.0834  0.5063 -0.1041
 3899SOL     OW15361   1.984   4.208   4.557 -0.8327  0.2967  0.4096
 3899SOL    HW215362   2.057   4.257   4.594 -0.6951  0.9431 -0.6937
 3899SOL    HW315363   1.963   4.143   4.624 -1.0956  1.9126  1.9912
 3899SOL    MW415364   1.991   4.206   4.571 -0.8492  0.5952  0.4727
 3900SOL     OW15365   3.010   0.895   4.156  0.5842 -0.0465 -0.0050
 3900SOL    HW215366   2.964   0.976   4.177  2.1230  1.1782 -1.1443
 3900SOL    HW315367   2.940   0.830   4.144 -0.7943  1.5172 -0.8066
 3900SOL    MW415368   2.994   0.897   4.157  0.6054  0.3214 -0.2611
 3901SOL     OW15369   1.589   5.628   4.374 -0.0612  0.0516  0.3018
 3901SOL    HW215370   1.495   5.633   4.392 -0.2086 -0.7225 -0.2184
 3901SOL    HW315371   1.629   5.685   4.440 -0.8933  0.4148  0.5046
 3901SOL    MW415372   1.582   5.637   4.385 -0.1904 -0.0026  0.2599
 3902SOL     OW15373   5.050   2.117   0.309  0.1823 -0.0579  0.2302
 3902SOL    HW215374   5.035   2.197   0.258  0.6370  0.0203  0.2120
 3902SOL    HW315375   5.144   2.101   0.300  0.0763 -0.6418  0.1689
 3902SOL    MW415376   5.060   2.126   0.301  0.2283 -0.1247  0.2197
 3903SOL     OW15377   4.646   5.260   3.703  0.2824 -0.3153  0.0764
 3903SOL    HW215378   4.710   5.283   3.770 -1.3094 -0.5864  1.7823
 3903SOL    HW315379   4.668   5.315   3.628  2.4704 -0.4087  0.5908
 3903SOL    MW415380   4.657   5.270   3.702  0.3611 -0.3634  0.3693
 3904SOL     OW15381   6.336   1.166   3.160  0.1921 -0.5436 -0.0401
 3904SOL    HW215382   6.346   1.106   3.086 -0.2104  1.4111 -1.7726
 3904SOL    HW315383   6.242   1.183   3.165  0.4713  1.8235 -1.2610
 3904SOL    MW415384   6.325   1.161   3.151  0.1758  0.0266 -0.4298
 3905SOL     OW15385   5.815   2.613   0.297 -0.3666  0.0540  0.4431
 3905SOL    HW215386   5.752   2.541   0.292 -0.8574  0.4293  1.0358
 3905SOL    HW315387   5.763   2.692   0.283  0.0847  0.3262  0.2723
 3905SOL    MW415388   5.800   2.614   0.295 -0.3718  0.1394  0.4988
 3906SOL     OW15389   3.251   4.112   5.351 -0.0054 -0.1958 -0.7413
 3906SOL    HW215390   3.292   4.030   5.323  0.6052  0.2104 -1.0534
 3906SOL    HW315391   3.165   4.111   5.309  0.6087  0.0565 -2.0564
 3906SOL    MW415392   3.245   4.101   5.342  0.1562 -0.1089 -0.9560
 3907SOL     OW15393   2.971   2.812   4.218  0.2869 -0.1103 -0.3099
 3907SOL    HW215394   2.947   2.868   4.292 -0.1570 -0.3940 -0.2347
 3907SOL    HW315395   2.960   2.869   4.141  0.6590  0.1568 -0.1691
 3907SOL    MW415396   2.967   2.827   4.218  0.2774 -0.1125 -0.2814
 3908SOL     OW15397   2.073   1.146   2.410  0.6966  0.0772 -0.3620
 3908SOL    HW215398   2.110   1.076   2.356 -0.4716  0.1338 -1.2584
 3908SOL    HW315399   1.979   1.129   2.411  0.3648  1.7418 -0.7544
 3908SOL    MW415400   2.066   1.135   2.403  0.4987  0.3043 -0.5320
 3909SOL     OW15401   3.708   3.070   2.861  0.1069  0.2516  0.3613
 3909SOL    HW215402   3.656   3.120   2.925 -2.6708 -1.5758 -0.3114
 3909SOL    HW315403   3.648   3.052   2.790  2.2361 -0.5089 -1.3509
 3909SOL    MW415404   3.694   3.074   2.860  0.0214 -0.0898  0.0466
 3910SOL     OW15405   4.679   2.715   3.158 -0.0368  0.4679 -0.4677
 3910SOL    HW215406   4.673   2.640   3.217 -0.5283  1.4991  0.8363
 3910SOL    HW315407   4.731   2.779   3.206 -3.4457  2.7445  0.4863
 3910SOL    MW415408   4.685   2.713   3.172 -0.5514  0.9043 -0.1698
 3911SOL     OW15409   6.302   5.868   3.466 -0.1663 -0.0023 -0.3719
 3911SOL    HW215410   6.327   5.949   3.510 -2.3489  0.2126  0.6454
 3911SOL    HW315411   6.257   5.897   3.387 -1.0001 -0.1816  0.0221
 3911SOL    MW415412   6.299   5.883   3.461 -0.5642  0.0024 -0.1857
 3912SOL     OW15413   4.560   4.126   1.929 -0.2732 -0.1346  0.0490
 3912SOL    HW215414   4.588   4.184   2.000 -2.4493  1.7341 -0.4937
 3912SOL    HW315415   4.624   4.054   1.930 -0.2683 -0.3001  3.9731
 3912SOL    MW415416   4.572   4.124   1.938 -0.5596  0.0901  0.4951
 3913SOL     OW15417   0.223   4.798   2.329  0.6344  0.0883 -0.1220
 3913SOL    HW215418   0.280   4.749   2.388  1.1414 -0.6290 -1.1728
 3913SOL    HW315419   0.155   4.735   2.304 -1.6170  1.3366  2.2913
 3913SOL    MW415420   0.221   4.783   2.334  0.4042  0.1583  0.0578
 3914SOL     OW15421   0.751   1.008   1.197 -0.0510  0.1596 -0.2256
 3914SOL    HW215422   0.791   1.073   1.253 -0.2950  0.3119 -0.2243
 3914SOL    HW315423   0.809   1.002   1.121 -0.0598  0.4213 -0.2534
 3914SOL    MW415424   0.764   1.016   1.194 -0.0843  0.2142 -0.2291
 3915SOL     OW15425   5.427   1.853   5.290 -0.5669  0.3171  0.3954
 3915SOL    HW215426   5.364   1.819   5.227  1.5148 -0.5426 -1.3627
 3915SOL    HW315427   5.402   1.812   5.373 -0.7334 -2.2231 -0.7956
 3915SOL    MW415428   5.415   1.843   5.293 -0.3142 -0.1314  0.0063
 3916SOL     OW15429   4.441   6.036   2.893 -0.2218  0.3171  0.8625
 3916SOL    HW215430   4.347   6.051   2.883 -0.2938 -0.8742 -0.5036
 3916SOL    HW315431   4.482   6.097   2.832 -0.2340 -0.6019 -0.0983
 3916SOL    MW415432   4.434   6.046   2.884 -0.2329  0.0387  0.5555
 3917SOL     OW15433   4.213   1.087   3.970  0.0949 -0.2006  0.7499
 3917SOL    HW215434   4.153   1.032   3.919  0.9549 -0.3800 -0.1099
 3917SOL    HW315435   4.183   1.078   4.060  0.7494 -2.8348  0.7987
 3917SOL    MW415436   4.201   1.078   3.975  0.2947 -0.5719  0.6429
 3918SOL     OW15437   0.599   3.939   2.948 -0.1317 -0.4705  0.4308
 3918SOL    HW215438   0.650   3.990   3.012 -2.2252  0.2616  1.5923
 3918SOL    HW315439   0.544   3.881   3.001 -1.7989  0.0163 -0.6898
 3918SOL    MW415440   0.599   3.938   2.963 -0.6279 -0.3097  0.4362
 3919SOL     OW15441   3.088   6.106   3.368  0.4706  0.1090  0.3770
 3919SOL    HW215442   3.069   6.074   3.457 -0.3601  1.2171  0.6204
 3919SOL    HW315443   3.008   6.091   3.319  0.6334  0.3032  0.0450
 3919SOL    MW415444   3.075   6.100   3.374  0.3825  0.2808  0.3653
 3920SOL     OW15445   1.203   1.305   0.185 -0.9336 -0.2682 -0.0217
 3920SOL    HW215446   1.154   1.241   0.134  0.8133 -0.9041 -1.0192
 3920SOL    HW315447   1.202   1.384   0.131  1.6744 -1.1986 -1.6649
 3920SOL    MW415448   1.197   1.307   0.171 -0.3590 -0.4748 -0.3701
 3921SOL     OW15449   3.237   0.647   3.989  0.3284 -0.3061  0.5932
 3921SOL    HW215450   3.240   0.740   3.968  1.7754 -0.0913  1.6109
 3921SOL    HW315451   3.255   0.642   4.082 -0.5105 -1.5798  0.7266
 3921SOL    MW415452   3.240   0.659   3.998  0.4086 -0.4458  0.7451
 3922SOL     OW15453   5.575   5.040   1.740  0.0816  0.3983  0.6227
 3922SOL    HW215454   5.508   5.040   1.671 -0.3909  0.1878  1.0747
 3922SOL    HW315455   5.654   5.007   1.697 -1.0010 -2.8366  0.8994
 3922SOL    MW415456   5.577   5.036   1.725 -0.1236 -0.0563  0.7188
 3923SOL     OW15457   0.863   1.993   4.412  0.1020 -0.1214 -0.6085
 3923SOL    HW215458   0.833   2.034   4.331  1.2471  1.8582 -0.0971
 3923SOL    HW315459   0.957   2.007   4.413  0.2036 -0.7112  0.7495
 3923SOL    MW415460   0.871   2.000   4.401  0.2665  0.0620 -0.3619
 3924SOL     OW15461   4.738   2.911   4.425  0.2708 -0.4051 -0.1381
 3924SOL    HW215462   4.646   2.907   4.451  0.1333  0.6839 -0.4153
 3924SOL    HW315463   4.786   2.900   4.508 -0.0957 -1.0223  0.0001
 3924SOL    MW415464   4.733   2.909   4.440  0.2043 -0.3429 -0.1564
 3925SOL     OW15465   4.963   5.996   1.258 -0.1328 -0.2332 -0.6702
 3925SOL    HW215466   4.943   5.994   1.165 -0.7981  2.4569 -0.6769
 3925SOL    HW315467   4.879   6.017   1.300  0.4500  0.0722  0.3770
 3925SOL    MW415468   4.949   5.998   1.251 -0.1437  0.1620 -0.5329
 3926SOL     OW15469   5.143   6.191   0.637 -0.2780 -0.3118  0.1029
 3926SOL    HW215470   5.123   6.212   0.728  1.0213  0.4081  0.2355
 3926SOL    HW315471   5.152   6.096   0.636  0.0408 -0.2907  0.7960
 3926SOL    MW415472   5.142   6.181   0.649 -0.0645 -0.2141  0.2119
 3927SOL     OW15473   5.481   6.104   3.589  0.9250 -0.6209  0.4753
 3927SOL    HW215474   5.555   6.114   3.529  0.5689  0.6072  0.2032
 3927SOL    HW315475   5.496   6.020   3.632  2.1378 -0.6913 -0.0364
 3927SOL    MW415476   5.493   6.094   3.587  1.0380 -0.4681  0.3719
 3928SOL     OW15477   4.623   5.702   4.359 -0.0314  0.3917  0.0192
 3928SOL    HW215478   4.583   5.747   4.434 -2.3372 -0.7358 -0.4279
 3928SOL    HW315479   4.591   5.751   4.283  0.0487 -0.0909 -0.3294
 3928SOL    MW415480   4.613   5.714   4.359 -0.3250  0.1793 -0.0858
 3929SOL     OW15481   2.587   2.459   2.874 -0.0518  0.2791 -0.1135
 3929SOL    HW215482   2.669   2.504   2.892 -0.5338  1.3665 -0.5932
 3929SOL    HW315483   2.524   2.498   2.935 -0.1622 -0.7457  0.4494
 3929SOL    MW415484   2.589   2.470   2.884 -0.1299  0.2874 -0.1026
 3930SOL     OW15485   1.486   1.965   4.819  0.1832  0.4858 -0.8048
 3930SOL    HW215486   1.579   1.968   4.798  0.6101  0.0292  0.8730
 3930SOL    HW315487   1.455   1.885   4.777  0.8309  0.0143 -0.4217
 3930SOL    MW415488   1.494   1.955   4.811  0.3250  0.3634 -0.5329
 3931SOL     OW15489   3.501   2.291   5.274  0.3764  0.3377  0.3590
 3931SOL    HW215490   3.432   2.265   5.214 -0.1727  1.1941  0.5941
 3931SOL    HW315491   3.522   2.381   5.248  0.5185  0.5230  1.0857
 3931SOL    MW415492   3.495   2.300   5.263  0.3227  0.4751  0.4859
 3932SOL     OW15493   0.374   2.466   0.685  0.4127  0.5410  0.0389
 3932SOL    HW215494   0.362   2.379   0.647 -0.0817 -0.2750  1.9381
 3932SOL    HW315495   0.286   2.492   0.715  0.7195  1.2739  0.3345
 3932SOL    MW415496   0.361   2.458   0.684  0.3880  0.5300  0.3285
 3933SOL     OW15497   0.175   6.359   4.471  1.0093  0.5956 -0.6303
 3933SOL    HW215498   0.236   6.292   4.502  0.8454  0.4389 -0.6496
 3933SOL    HW315499   0.175   6.349   4.376  0.2737  0.0065 -0.5749
 3933SOL    MW415500   0.183   6.349   4.463  0.8906  0.4972 -0.6256
 3934SOL     OW15501   6.196   3.908   4.881  0.5724 -0.2535 -0.5234
 3934SOL    HW215502   6.243   3.965   4.941 -2.1170  0.7063  0.8052
 3934SOL    HW315503   6.218   3.941   4.794  0.4520  1.7198  0.1656
 3934SOL    MW415504   6.205   3.920   4.877  0.2017  0.1335 -0.2572
 3935SOL     OW15505   2.844   4.480   3.097  0.0170 -0.0188 -0.4261
 3935SOL    HW215506   2.784   4.504   3.027 -0.7597 -1.0051 -0.1200
 3935SOL    HW315507   2.850   4.559   3.151 -2.5174 -0.4371  0.6018
 3935SOL    MW415508   2.837   4.494   3.095 -0.4198 -0.2041 -0.2501
 3936SOL     OW15509   0.417   2.907   2.861  0.0899  0.3088 -0.5135
 3936SOL    HW215510   0.429   2.819   2.827 -1.8875 -0.1365 -0.2145
 3936SOL    HW315511   0.361   2.951   2.796 -0.4197  0.7416  0.1956
 3936SOL    MW415512   0.411   2.901   2.848 -0.2382  0.3072 -0.3805
 3937SOL     OW15513   5.959   0.974   5.281  0.5564  0.5474  0.3812
 3937SOL    HW215514   5.956   1.004   5.190 -0.2156  1.6224  0.7475
 3937SOL    HW315515   5.937   1.051   5.333  0.3792 -0.2047  1.4564
 3937SOL    MW415516   5.956   0.988   5.275  0.4312  0.5900  0.5714
 3938SOL     OW15517   3.043   0.609   2.100 -0.7887  0.0169 -0.6070
 3938SOL    HW215518   2.980   0.619   2.029 -0.6813  0.2282 -0.6754
 3938SOL    HW315519   3.053   0.698   2.136  0.0024  0.1275 -1.0624
 3938SOL    MW415520   3.036   0.622   2.095 -0.6702  0.0594 -0.6761
 3939SOL     OW15521   4.779   1.338   2.365  0.6415 -0.2789 -0.4289
 3939SOL    HW215522   4.730   1.308   2.442  1.6273 -1.5650 -0.2545
 3939SOL    HW315523   4.732   1.415   2.335 -0.7089 -0.6945  0.5054
 3939SOL    MW415524   4.767   1.344   2.371  0.5934 -0.5034 -0.2826
 3940SOL     OW15525   0.873   4.801   2.478 -0.1918  0.1424  0.2594
 3940SOL    HW215526   0.872   4.719   2.428  1.0569 -0.0287  0.4760
 3940SOL    HW315527   0.808   4.856   2.435  1.0332  0.1209 -1.7886
 3940SOL    MW415528   0.864   4.797   2.466  0.1346  0.1169  0.0178
 3941SOL     OW15529   2.709   3.791   1.875 -0.1169 -0.4116 -0.1574
 3941SOL    HW215530   2.735   3.884   1.872 -0.5258 -0.3100 -0.5228
 3941SOL    HW315531   2.695   3.774   1.968  1.6290 -0.5720  0.1147
 3941SOL    MW415532   2.711   3.801   1.887  0.0595 -0.4194 -0.1697
 3942SOL     OW15533   3.987   2.258   1.191  0.1420 -0.3528 -0.1256
 3942SOL    HW215534   3.912   2.210   1.226  0.9108 -1.5405 -0.0274
 3942SOL    HW315535   4.029   2.296   1.268  1.0331 -1.7901  0.1454
 3942SOL    MW415536   3.983   2.257   1.206  0.3610 -0.6991 -0.0769
 3943SOL     OW15537   6.401   5.264   1.695 -0.0113  0.0982 -0.0937
 3943SOL    HW215538   6.455   5.303   1.764 -1.9371 -0.1365  1.6295
 3943SOL    HW315539   6.314   5.258   1.733 -0.9370 -0.9928 -2.2225
 3943SOL    MW415540   6.397   5.268   1.709 -0.3875 -0.0767 -0.1472
 3944SOL     OW15541   2.700   5.182   4.459 -0.0399  0.5308 -0.1718
 3944SOL    HW215542   2.757   5.259   4.468 -0.5066  0.9414 -0.6453
 3944SOL    HW315543   2.757   5.116   4.419  0.1938  0.8401 -0.3598
 3944SOL    MW415544   2.715   5.184   4.455 -0.0706  0.6258 -0.2591
 3945SOL     OW15545   3.918   4.503   1.262  0.1507 -0.4506 -0.0549
 3945SOL    HW215546   3.882   4.591   1.276  0.4988  0.1529 -2.4659
 3945SOL    HW315547   3.847   4.454   1.222  0.9647 -0.1460 -2.0193
 3945SOL    MW415548   3.904   4.508   1.259  0.3041 -0.3308 -0.6322
 3946SOL     OW15549   1.900   2.391   5.082 -0.7694  0.0204  0.6132
 3946SOL    HW215550   1.850   2.405   5.001  1.7851  0.6369 -0.9534
 3946SOL    HW315551   1.892   2.297   5.099 -0.2628 -0.3699 -1.1238
 3946SOL    MW415552   1.892   2.381   5.073 -0.3656  0.0503  0.1773
 3947SOL     OW15553   3.297   1.938   4.599 -0.1890 -1.0362  0.1417
 3947SOL    HW215554   3.219   1.887   4.577 -0.7357  0.3802 -1.4107
 3947SOL    HW315555   3.362   1.873   4.626 -1.7045 -2.2911  0.8629
 3947SOL    MW415556   3.296   1.923   4.600 -0.4611 -1.0149  0.0320
 3948SOL     OW15557   3.062   1.567   6.440 -0.2433  0.0467 -0.4247
 3948SOL    HW215558   3.128   1.578   6.371  0.9800  0.5708  0.7665
 3948SOL    HW315559   2.994   1.513   6.401  0.1767  0.7391 -2.1866
 3948SOL    MW415560   3.062   1.562   6.426 -0.0265  0.2072 -0.5000
 3949SOL     OW15561   5.608   4.228   2.810  0.7225 -0.3252  0.7233
 3949SOL    HW215562   5.634   4.270   2.728  0.5767  0.1450  0.9142
 3949SOL    HW315563   5.516   4.206   2.798  0.3174  1.0107  1.2725
 3949SOL    MW415564   5.599   4.230   2.797  0.6498 -0.0869  0.8209
 3950SOL     OW15565   1.275   2.805   0.858  0.1293 -0.3234 -0.0583
 3950SOL    HW215566   1.326   2.852   0.791 -0.2504  1.2758  0.7132
 3950SOL    HW315567   1.255   2.720   0.818 -0.6814  0.8124 -2.2640
 3950SOL    MW415568   1.279   2.800   0.844 -0.0277  0.0375 -0.2476
 3951SOL     OW15569   1.432   2.235   1.850 -0.2106 -0.0308  0.0068
 3951SOL    HW215570   1.398   2.157   1.894 -1.3220  0.2435 -0.3326
 3951SOL    HW315571   1.382   2.240   1.769  0.0161  0.8991 -0.0853
 3951SOL    MW415572   1.421   2.225   1.845 -0.3273  0.1281 -0.0501
 3952SOL     OW15573   0.279   1.222   1.904 -0.3961 -0.2182 -0.0197
 3952SOL    HW215574   0.264   1.128   1.905 -1.9531 -0.0033  1.3172
 3952SOL    HW315575   0.256   1.249   1.815 -0.0584 -1.0793 -0.3730
 3952SOL    MW415576   0.274   1.213   1.892 -0.5570 -0.3035  0.1101
 3953SOL     OW15577   4.570   5.786   3.724 -0.2758  0.2159 -0.4389
 3953SOL    HW215578   4.545   5.719   3.787 -1.6071 -0.5543 -1.7289
 3953SOL    HW315579   4.666   5.785   3.724 -0.2732 -1.2893 -0.0321
 3953SOL    MW415580   4.579   5.777   3.732 -0.4511 -0.0843 -0.5554
 3954SOL     OW15581   3.261   3.507   3.312 -0.1906  0.0209 -0.4105
 3954SOL    HW215582   3.204   3.436   3.283 -0.1470  0.8239 -2.7068
 3954SOL    HW315583   3.278   3.558   3.232  3.1747  0.2171  0.2761
 3954SOL    MW415584   3.256   3.504   3.297  0.2591  0.1527 -0.6229
 3955SOL     OW15585   5.076   5.727   0.347 -0.5153 -0.2256  0.0713
 3955SOL    HW215586   5.112   5.771   0.270  3.1755 -1.2235  1.0298
 3955SOL    HW315587   4.990   5.767   0.359  0.6896  3.3793 -1.7751
 3955SOL    MW415588   5.069   5.738   0.338  0.1306  0.1184 -0.0458
 3956SOL     OW15589   1.369   3.245   4.771  0.2772  0.3708 -0.3827
 3956SOL    HW215590   1.368   3.223   4.864  1.1966 -0.1311 -0.4839
 3956SOL    HW315591   1.306   3.185   4.731 -0.6531  1.0654  0.0061
 3956SOL    MW415592   1.360   3.234   4.778  0.2757  0.3962 -0.3448
 3957SOL     OW15593   5.539   3.576   3.978 -0.3592  0.5890 -0.4200
 3957SOL    HW215594   5.594   3.505   4.011  0.1781  1.2252  0.0827
 3957SOL    HW315595   5.470   3.532   3.928 -1.4482 -0.4771  1.8702
 3957SOL    MW415596   5.537   3.561   3.976 -0.4320  0.5323 -0.0515
 3958SOL     OW15597   0.415   6.223   1.185 -0.2892 -0.8406 -0.0870
 3958SOL    HW215598   0.493   6.181   1.222 -0.2164 -1.8690 -1.2993
 3958SOL    HW315599   0.389   6.288   1.250  1.3840 -0.7000  0.4977
 3958SOL    MW415600   0.422   6.226   1.198 -0.0588 -0.9578 -0.1698
 3959SOL     OW15601   5.027   4.778   5.185  0.3691  0.2066 -0.1728
 3959SOL    HW215602   4.981   4.729   5.254 -0.1512  1.0927  0.1242
 3959SOL    HW315603   5.110   4.733   5.176  0.1157 -0.4194  0.4677
 3959SOL    MW415604   5.032   4.765   5.193  0.2670  0.2409 -0.0491
 3960SOL     OW15605   0.618   0.286   3.608  0.4559 -0.1789 -0.0236
 3960SOL    HW215606   0.712   0.272   3.601  0.9666  1.5526  2.3166
 3960SOL    HW315607   0.590   0.226   3.676 -0.2417 -0.9299 -0.9428
 3960SOL    MW415608   0.627   0.276   3.616  0.4312 -0.0495  0.1639
 3961SOL     OW15609   2.158   2.891   0.401 -0.4077 -0.1343  0.6994
 3961SOL    HW215610   2.128   2.962   0.344  0.5380 -1.4157 -1.4967
 3961SOL    HW315611   2.099   2.818   0.382  0.4841 -0.8655  0.6574
 3961SOL    MW415612   2.146   2.891   0.391 -0.1653 -0.3999  0.4041
 3962SOL     OW15613   2.698   4.550   2.876 -0.0129 -0.5404 -0.3231
 3962SOL    HW215614   2.627   4.512   2.825 -1.6853  2.0590 -0.1582
 3962SOL    HW315615   2.739   4.613   2.816 -1.1473  1.5714  0.9576
 3962SOL    MW415616   2.694   4.554   2.861 -0.3832  0.0812 -0.1323
 3963SOL     OW15617   0.986   2.572   0.931  0.0084 -0.6382  0.3913
 3963SOL    HW215618   1.066   2.557   0.881 -0.4879 -2.4821  0.0552
 3963SOL    HW315619   0.937   2.636   0.880 -0.2671 -2.1245 -1.2829
 3963SOL    MW415620   0.990   2.579   0.918 -0.0934 -1.0776  0.1261
 3964SOL     OW15621   6.260   5.950   0.314 -0.0287 -0.0553  0.4014
 3964SOL    HW215622   6.310   5.975   0.391  0.1740 -0.1637  0.3084
 3964SOL    HW315623   6.257   5.854   0.317  0.5157 -0.0928 -0.0504
 3964SOL    MW415624   6.266   5.940   0.324  0.0698 -0.0746  0.3295
 3965SOL     OW15625   1.040   0.736   5.452  0.2978 -0.0747 -0.0881
 3965SOL    HW215626   1.074   0.650   5.476 -1.7471 -0.4481  1.8481
 3965SOL    HW315627   1.031   0.734   5.357  2.7838 -0.9576 -0.3771
 3965SOL    MW415628   1.043   0.725   5.443  0.3560 -0.2405  0.1292
 3966SOL     OW15629   4.748   5.490   3.537  0.2296 -0.4629  0.2148
 3966SOL    HW215630   4.698   5.565   3.505  1.8354 -0.0657 -1.5314
 3966SOL    HW315631   4.832   5.526   3.565  0.4830 -1.4242  0.7521
 3966SOL    MW415632   4.752   5.504   3.536  0.4749 -0.5373  0.0553
 3967SOL     OW15633   1.960   5.764   3.221 -0.4397 -0.1272 -0.2612
 3967SOL    HW215634   1.955   5.741   3.314  2.2689  1.5385  0.3993
 3967SOL    HW315635   1.992   5.684   3.178 -0.5659 -0.5530  0.4178
 3967SOL    MW415636   1.963   5.750   3.227 -0.0990  0.0364 -0.0844
 3968SOL     OW15637   0.331   6.116   5.513  0.0295 -0.0829 -0.2066
 3968SOL    HW215638   0.363   6.027   5.527  1.0681  0.2005 -0.6167
 3968SOL    HW315639   0.409   6.171   5.522 -0.2898  0.6264 -1.4606
 3968SOL    MW415640   0.346   6.112   5.516  0.1244  0.0480 -0.4262
 3969SOL     OW15641   2.889   3.197   4.720 -0.3878  0.4247 -0.1063
 3969SOL    HW215642   2.916   3.228   4.806  3.2032 -2.0485 -0.0852
 3969SOL    HW315643   2.940   3.250   4.659  0.8422 -0.9378 -0.3466
 3969SOL    MW415644   2.899   3.208   4.723  0.2483 -0.0814 -0.1352
 3970SOL     OW15645   5.323   0.417   5.298 -0.4942  0.1137 -0.5940
 3970SOL    HW215646   5.410   0.451   5.322  0.3992 -1.1390 -1.8751
 3970SOL    HW315647   5.266   0.444   5.370  1.2970 -0.4624  1.1308
 3970SOL    MW415648   5.327   0.425   5.310 -0.1400 -0.1276 -0.5355
 3971SOL     OW15649   5.373   5.895   1.065 -0.3348 -0.2413  0.2645
 3971SOL    HW215650   5.430   5.829   1.103  0.1328 -0.7544 -1.2948
 3971SOL    HW315651   5.428   5.944   1.005 -0.6466  1.6723  1.4245
 3971SOL    MW415652   5.388   5.893   1.062 -0.3142 -0.0566  0.2118
 3972SOL     OW15653   0.701   5.701   4.491  0.0253  0.2084  0.3368
 3972SOL    HW215654   0.792   5.732   4.493  0.2743 -0.4927  0.2709
 3972SOL    HW315655   0.703   5.618   4.539  0.2768 -1.9648 -3.0859
 3972SOL    MW415656   0.713   5.694   4.498  0.0914 -0.1708 -0.1235
 3973SOL     OW15657   1.199   5.683   2.157  0.5599 -0.0962 -0.1609
 3973SOL    HW215658   1.250   5.607   2.186  2.7967  1.5504  0.5639
 3973SOL    HW315659   1.171   5.661   2.069  2.1264 -1.3219 -0.4013
 3973SOL    MW415660   1.202   5.670   2.149  1.0617 -0.0407 -0.0970
 3974SOL     OW15661   4.130   3.531   5.265  1.2035  0.5157  0.0650
 3974SOL    HW215662   4.161   3.612   5.306  2.4244 -0.5486  1.3549
 3974SOL    HW315663   4.126   3.551   5.172  0.5642  2.3300  0.4366
 3974SOL    MW415664   4.133   3.545   5.258  1.2803  0.6146  0.2842
 3975SOL     OW15665   6.087   1.574   6.251 -0.1167  0.0078 -0.1403
 3975SOL    HW215666   6.013   1.523   6.285  0.0309 -0.2860 -0.2591
 3975SOL    HW315667   6.133   1.604   6.330 -0.1385 -0.1395 -0.0712
 3975SOL    MW415668   6.083   1.571   6.266 -0.1001 -0.0504 -0.1468
 3976SOL     OW15669   4.229   2.485   4.088  0.4707  0.2761 -0.0651
 3976SOL    HW215670   4.150   2.512   4.042  0.6740 -1.2875 -1.4134
 3976SOL    HW315671   4.203   2.410   4.141  0.7173  0.7260  0.7062
 3976SOL    MW415672   4.215   2.479   4.089  0.5301  0.1291 -0.1412
 3977SOL     OW15673   0.094   3.027   3.965 -0.7566  0.0776  0.2659
 3977SOL    HW215674   0.156   3.078   3.912  0.0324 -1.4700 -0.3578
 3977SOL    HW315675   0.138   3.016   4.049  0.1248 -1.4829 -0.3515
 3977SOL    MW415676   0.108   3.033   3.969 -0.5362 -0.3325  0.1021
 3978SOL     OW15677   5.635   3.734   3.135 -0.3573 -0.1824 -0.0319
 3978SOL    HW215678   5.585   3.785   3.072 -0.9369 -0.3705  0.2719
 3978SOL    HW315679   5.670   3.661   3.085 -0.3697 -0.0442 -0.2453
 3978SOL    MW415680   5.633   3.731   3.120 -0.4354 -0.1890 -0.0200
 3979SOL     OW15681   2.788   3.184   3.775 -0.4946 -0.2521  0.4588
 3979SOL    HW215682   2.792   3.155   3.866 -1.4726 -1.0095  0.2779
 3979SOL    HW315683   2.717   3.248   3.773 -0.0909  0.1972  0.3374
 3979SOL    MW415684   2.779   3.189   3.787 -0.5704 -0.2928  0.4189
 3980SOL     OW15685   6.007   1.309   1.619  0.4303 -0.0522 -0.2395
 3980SOL    HW215686   5.951   1.241   1.656 -0.0824  0.2932 -0.3750
 3980SOL    HW315687   6.076   1.261   1.573 -1.5707 -0.5848 -2.9750
 3980SOL    MW415688   6.009   1.294   1.618  0.0987 -0.0769 -0.6183
 3981SOL     OW15689   3.789   0.134   1.314  0.0887 -0.0845  0.2830
 3981SOL    HW215690   3.864   0.184   1.281 -1.3899  0.7418 -2.0966
 3981SOL    HW315691   3.786   0.056   1.258 -0.8495 -0.0622  0.2897
 3981SOL    MW415692   3.799   0.131   1.302 -0.2302  0.0275 -0.0301
 3982SOL     OW15693   2.557   1.643   0.784  0.3183  0.0598  0.0327
 3982SOL    HW215694   2.573   1.643   0.879  0.8387 -1.2926 -0.0260
 3982SOL    HW315695   2.540   1.734   0.762  0.5215  0.4408  1.3835
 3982SOL    MW415696   2.557   1.655   0.794  0.4138 -0.0684  0.2032
 3983SOL     OW15697   3.141   3.776   4.213 -0.8525  0.4941 -0.1773
 3983SOL    HW215698   3.189   3.736   4.140  0.6801  1.7810  0.0698
 3983SOL    HW315699   3.149   3.712   4.284  0.3816  0.5907 -0.2015
 3983SOL    MW415700   3.148   3.762   4.213 -0.4874  0.6766 -0.1479
 3984SOL     OW15701   1.784   0.412   5.911 -0.0503 -0.4686 -0.5261
 3984SOL    HW215702   1.696   0.408   5.873 -0.6498 -2.1661  0.9069
 3984SOL    HW315703   1.825   0.330   5.883  1.0565  0.2581 -1.0885
 3984SOL    MW415704   1.778   0.400   5.902  0.0166 -0.5967 -0.4112
 3985SOL     OW15705   3.320   4.120   2.623 -0.5733 -0.2756  0.3039
 3985SOL    HW215706   3.284   4.128   2.711 -1.5084 -0.4708 -0.0514
 3985SOL    HW315707   3.367   4.202   2.609  0.2445 -0.5580  1.2630
 3985SOL    MW415708   3.322   4.132   2.633 -0.5888 -0.3386  0.3836
 3986SOL     OW15709   3.310   6.431   3.655 -0.0310  0.1623  0.0438
 3986SOL    HW215710   3.377   6.499   3.662 -0.4575  0.6598 -0.6576
 3986SOL    HW315711   3.356   6.357   3.613  0.6683 -0.3366  1.5871
 3986SOL    MW415712   3.325   6.430   3.651  0.0050  0.1621  0.1549
 3987SOL     OW15713   1.619   3.494   0.061  0.0171  0.0641 -0.7204
 3987SOL    HW215714   1.603   3.431   0.130  1.9004  1.0889  0.7611
 3987SOL    HW315715   1.532   3.523   0.033 -0.8264  0.2380  1.8380
 3987SOL    MW415716   1.605   3.490   0.066  0.1543  0.2222 -0.1874
 3988SOL     OW15717   6.420   5.793   4.186 -0.8719 -0.3412 -0.1920
 3988SOL    HW215718   6.395   5.807   4.277  0.3684 -0.3404  0.1652
 3988SOL    HW315719   6.376   5.712   4.161 -0.3574 -0.9317  0.7538
 3988SOL    MW415720   6.411   5.784   4.195 -0.6404 -0.4190 -0.0201
 3989SOL     OW15721   0.339   0.800   4.358 -0.5077 -0.2327 -0.1979
 3989SOL    HW215722   0.337   0.814   4.453  2.1030 -0.1967 -0.0647
 3989SOL    HW315723   0.337   0.705   4.348  0.7527 -0.3104  0.0403
 3989SOL    MW415724   0.339   0.789   4.369  0.0030 -0.2382 -0.1489
 3990SOL     OW15725   5.961   0.949   0.831  0.1031 -0.4103  0.1617
 3990SOL    HW215726   5.883   0.971   0.882  0.7284  1.0075  0.5774
 3990SOL    HW315727   5.970   0.854   0.839  1.3130 -0.1361  4.4584
 3990SOL    MW415728   5.952   0.940   0.838  0.3452 -0.1871  0.7835
 3991SOL     OW15729   2.001   4.460   1.265  0.2916 -0.3676 -0.4349
 3991SOL    HW215730   2.039   4.393   1.208 -0.1578 -1.5063  0.5462
 3991SOL    HW315731   1.920   4.421   1.297  0.9891 -0.1883  1.7185
 3991SOL    MW415732   1.995   4.446   1.262  0.3243 -0.4942 -0.0213
 3992SOL     OW15733   0.280   0.405   1.500 -0.0828  0.2914  0.0804
 3992SOL    HW215734   0.290   0.500   1.506 -0.2882  0.2628  1.1965
 3992SOL    HW315735   0.260   0.388   1.408 -0.5268  1.3779 -0.0349
 3992SOL    MW415736   0.279   0.415   1.489 -0.1685  0.4310  0.2125
 3993SOL     OW15737   6.020   1.091   2.061 -0.1246 -0.5358 -0.0338
 3993SOL    HW215738   6.062   1.005   2.057  1.4781  0.1761  0.7618
 3993SOL    HW315739   5.967   1.088   2.140  1.0193 -0.3519  0.7664
 3993SOL    MW415740   6.018   1.079   2.071  0.2378 -0.4176  0.1768
 3994SOL     OW15741   0.483   4.323   3.084  0.4463 -0.3109  0.0311
 3994SOL    HW215742   0.443   4.407   3.060  3.3891  0.9947 -0.9132
 3994SOL    HW315743   0.491   4.276   3.001  0.9300 -0.4837  0.1714
 3994SOL    MW415744   0.479   4.328   3.070  0.8984 -0.1615 -0.0750
 3995SOL     OW15745   4.780   4.086   3.049  0.3378 -0.3681 -0.3558
 3995SOL    HW215746   4.818   4.050   3.129  3.3170  1.0574 -1.0025
 3995SOL    HW315747   4.786   4.015   2.985 -3.6185 -2.1141  0.9182
 3995SOL    MW415748   4.786   4.072   3.051  0.2089 -0.4104 -0.2730
 3996SOL     OW15749   4.766   1.642   0.851  0.0880  0.2400 -0.8784
 3996SOL    HW215750   4.751   1.685   0.766 -0.1010  1.0268 -0.4582
 3996SOL    HW315751   4.830   1.574   0.832 -0.4360 -0.0278 -1.7860
 3996SOL    MW415752   4.772   1.639   0.837 -0.0060  0.3085 -0.9427
 3997SOL     OW15753   3.467   2.278   6.358 -0.1510 -0.6747  0.0643
 3997SOL    HW215754   3.508   2.194   6.339  1.1724 -0.4646  1.7488
 3997SOL    HW315755   3.411   2.261   6.434 -0.7788 -0.2817 -0.3022
 3997SOL    MW415756   3.465   2.265   6.366 -0.0592 -0.5951  0.2382
 3998SOL     OW15757   1.964   2.084   2.750 -0.2921  0.1342 -0.2366
 3998SOL    HW215758   1.912   2.074   2.830 -0.7463 -2.6407 -0.7707
 3998SOL    HW315759   1.902   2.116   2.685 -0.2246  1.1619  0.1879
 3998SOL    MW415760   1.949   2.087   2.752 -0.3431 -0.0963 -0.2511
 3999SOL     OW15761   0.556   5.670   2.930  0.0922 -0.3216  0.6542
 3999SOL    HW215762   0.560   5.633   2.842  1.4155  1.2851 -0.0099
 3999SOL    HW315763   0.609   5.612   2.984  1.2737  0.0027 -0.1377
 3999SOL    MW415764   0.563   5.657   2.926  0.4226 -0.0668  0.4621
 4000SOL     OW15765   0.542   5.558   2.673  0.6390 -0.2683  0.1796
 4000SOL    HW215766   0.529   5.605   2.591  1.1289 -0.9073 -0.2780
 4000SOL    HW315767   0.477   5.488   2.671  1.0339 -0.6383  0.0558
 4000SOL    MW415768   0.531   5.555   2.662  0.7557 -0.4014  0.1029
 4001SOL     OW15769   2.478   5.862   2.558 -0.4398 -0.2420  0.6626
 4001SOL    HW215770   2.522   5.858   2.642 -0.9458 -1.2141  0.8928
 4001SOL    HW315771   2.544   5.894   2.497  0.3348 -0.8925  1.1544
 4001SOL    MW415772   2.492   5.866   2.561 -0.4043 -0.4560  0.7578
 4002SOL     OW15773   4.929   5.510   4.955 -0.2607 -0.3827 -0.0869
 4002SOL    HW215774   4.926   5.416   4.974 -1.1766 -0.2889  0.2771
 4002SOL    HW315775   4.843   5.543   4.981 -0.9207  0.0979 -2.5883
 4002SOL    MW415776   4.917   5.502   4.961 -0.4687 -0.3070 -0.3689
 4003SOL     OW15777   0.660   1.549   5.113 -0.0136 -0.6261 -0.0482
 4003SOL    HW215778   0.602   1.513   5.179  1.2452 -0.0373  1.4415
 4003SOL    HW315779   0.603   1.571   5.040 -1.5656 -0.5964  1.1250
 4003SOL    MW415780   0.645   1.547   5.112 -0.0523 -0.5445  0.3031
 4004SOL     OW15781   3.346   3.448   0.220 -0.0126 -0.5101 -0.0040
 4004SOL    HW215782   3.321   3.409   0.303  2.5124  1.4427  1.8497
 4004SOL    HW315783   3.441   3.433   0.214 -0.0999 -0.6221 -2.6143
 4004SOL    MW415784   3.356   3.441   0.230  0.3090 -0.2672 -0.1038
 4005SOL     OW15785   0.314   2.709   3.158 -0.3464 -0.0192 -0.6074
 4005SOL    HW215786   0.268   2.696   3.075  0.4369  1.2232 -1.2730
 4005SOL    HW315787   0.267   2.654   3.220 -0.5204 -1.5325 -2.0110
 4005SOL    MW415788   0.301   2.700   3.155 -0.2660 -0.0550 -0.8804
 4006SOL     OW15789   1.089   3.100   1.875 -0.5109 -0.2312  0.0358
 4006SOL    HW215790   1.125   3.074   1.790  1.5214  1.9371  0.1048
 4006SOL    HW315791   1.123   3.035   1.937  0.0677 -0.4331 -0.4801
 4006SOL    MW415792   1.099   3.088   1.872 -0.1664  0.0283 -0.0232
 4007SOL     OW15793   3.461   5.137   0.711 -0.1754 -0.0280  0.0397
 4007SOL    HW215794   3.425   5.117   0.624  2.6036 -2.2559 -0.7455
 4007SOL    HW315795   3.519   5.212   0.696  0.2588 -0.3747 -0.0197
 4007SOL    MW415796   3.463   5.144   0.697  0.2485 -0.3677 -0.0717
 4008SOL     OW15797   3.191   5.518   2.473 -0.2612 -0.1390  0.2621
 4008SOL    HW215798   3.150   5.495   2.390  0.8199  0.3714 -0.4348
 4008SOL    HW315799   3.135   5.587   2.509  0.4338  1.2248 -1.1272
 4008SOL    MW415800   3.178   5.524   2.467 -0.0268  0.1082 -0.0131
 4009SOL     OW15801   5.427   2.439   3.728  0.6477 -0.5136 -0.1255
 4009SOL    HW215802   5.508   2.489   3.716  1.6875 -2.0831 -0.0105
 4009SOL    HW315803   5.446   2.354   3.690 -2.2365  0.1355 -3.4235
 4009SOL    MW415804   5.440   2.434   3.722  0.4044 -0.6351 -0.5454
 4010SOL     OW15805   0.314   3.609   4.147  0.6159  0.0616  0.3951
 4010SOL    HW215806   0.330   3.519   4.116  0.6492 -0.4526  1.8367
 4010SOL    HW315807   0.385   3.660   4.108  1.3940 -0.7944  0.6373
 4010SOL    MW415808   0.326   3.604   4.138  0.7229 -0.1192  0.6173
 4011SOL     OW15809   5.227   2.777   2.196 -0.8467 -0.1923  0.7161
 4011SOL    HW215810   5.317   2.807   2.207 -0.1246 -1.0531 -2.0333
 4011SOL    HW315811   5.183   2.849   2.150 -0.4293 -1.2710 -1.4891
 4011SOL    MW415812   5.233   2.791   2.191 -0.6963 -0.4482  0.0624
 4012SOL     OW15813   0.496   1.326   6.013 -0.9526  0.1912  0.5521
 4012SOL    HW215814   0.441   1.253   5.981 -0.8935  1.0068 -1.5587
 4012SOL    HW315815   0.540   1.290   6.090 -2.8066 -1.1932  1.0457
 4012SOL    MW415816   0.494   1.311   6.019 -1.1895  0.1161  0.3387
 4013SOL     OW15817   5.760   5.031   5.581 -0.5436  0.4527 -0.1925
 4013SOL    HW215818   5.836   5.078   5.546 -0.4840  1.5201  1.2719
 4013SOL    HW315819   5.795   4.948   5.613 -0.0176  0.8453  0.2633
 4013SOL    MW415820   5.774   5.026   5.581 -0.4664  0.6454  0.0608
 4014SOL     OW15821   5.208   1.880   3.791  0.2202  0.0609 -0.1015
 4014SOL    HW215822   5.239   1.799   3.832 -1.7083  0.7200  2.9777
 4014SOL    HW315823   5.287   1.925   3.763  1.4878 -1.7757  0.3693
 4014SOL    MW415824   5.222   1.875   3.793  0.1330 -0.0945  0.3669
 4015SOL     OW15825   1.615   6.459   1.641  0.4253  0.6631 -0.1816
 4015SOL    HW215826   1.532   6.438   1.683  0.1619  0.7272 -0.6562
 4015SOL    HW315827   1.680   6.451   1.710 -0.0427  1.1343  0.3257
 4015SOL    MW415828   1.612   6.455   1.656  0.3288  0.7337 -0.1773
 4016SOL     OW15829   3.701   4.927   1.102  0.4267  0.3584  0.2837
 4016SOL    HW215830   3.656   4.984   1.164  0.1544  0.5860 -0.1148
 4016SOL    HW315831   3.744   4.861   1.156  0.5344  0.7946  0.7391
 4016SOL    MW415832   3.701   4.926   1.117  0.4050  0.4460  0.2912
 4017SOL     OW15833   0.356   0.973   1.781 -0.3575  0.4038  0.2024
 4017SOL    HW215834   0.359   0.954   1.687  1.1561 -0.1694  0.3453
 4017SOL    HW315835   0.287   0.916   1.814 -0.0297 -0.3477 -0.3707
 4017SOL    MW415836   0.347   0.963   1.773 -0.1146  0.2291  0.1457
 4018SOL     OW15837   4.853   6.150   2.406 -0.1086  0.3480  0.3433
 4018SOL    HW215838   4.878   6.175   2.318  0.4986 -1.5155 -0.0684
 4018SOL    HW315839   4.931   6.168   2.459  0.1047 -0.0696  0.1745
 4018SOL    MW415840   4.866   6.155   2.402 -0.0004  0.0470  0.2667
 4019SOL     OW15841   2.249   5.355   3.324 -0.3581  0.1394  0.5158
 4019SOL    HW215842   2.255   5.295   3.399  0.9400  0.4311  0.6709
 4019SOL    HW315843   2.248   5.297   3.248  1.8672 -0.1169  0.6152
 4019SOL    MW415844   2.250   5.339   3.324  0.1067  0.1441  0.5494
 4020SOL     OW15845   0.223   1.681   4.962 -0.3106 -0.2769  0.0101
 4020SOL    HW215846   0.269   1.764   4.971  1.7310 -1.1620 -1.4112
 4020SOL    HW315847   0.163   1.694   4.889 -0.4643  0.1296  0.2072
 4020SOL    MW415848   0.221   1.694   4.954 -0.0615 -0.3400 -0.1514
 4021SOL     OW15849   3.833   3.387   2.687 -0.7703 -0.1051 -0.0486
 4021SOL    HW215850   3.805   3.300   2.660  2.1595 -1.4112  0.7549
 4021SOL    HW315851   3.770   3.412   2.755 -1.2742 -1.8952  0.1969
 4021SOL    MW415852   3.821   3.379   2.693 -0.4502 -0.5136  0.0898
 4022SOL     OW15853   2.497   0.364   0.065 -0.0079 -0.0164  0.0488
 4022SOL    HW215854   2.485   0.404   0.151  1.0805  0.7811 -0.1536
 4022SOL    HW315855   2.436   0.410   0.008 -1.3830 -1.1486  0.5414
 4022SOL    MW415856   2.487   0.375   0.069 -0.0457 -0.0605  0.0871
 4023SOL     OW15857   1.828   2.182   2.223  0.4200 -0.1822 -0.2552
 4023SOL    HW215858   1.894   2.139   2.169 -0.0893  0.1992 -1.2223
 4023SOL    HW315859   1.745   2.158   2.182 -0.0718 -0.8404  1.0668
 4023SOL    MW415860   1.826   2.173   2.210  0.2879 -0.2187 -0.2084
 4024SOL     OW15861   4.178   1.880   0.573 -0.5686 -0.5056 -0.5657
 4024SOL    HW215862   4.158   1.873   0.479 -0.9942 -1.8022 -0.4011
 4024SOL    HW315863   4.268   1.914   0.575 -1.8055  3.1774 -1.3355
 4024SOL    MW415864   4.188   1.883   0.561 -0.7879 -0.1907 -0.6456
 4025SOL     OW15865  -0.003   1.597   4.066 -0.0889  0.2283  0.0625
 4025SOL    HW215866   0.060   1.524   4.067 -0.0280  0.2714 -0.3828
 4025SOL    HW315867  -0.084   1.558   4.035  0.0011  0.3916 -0.3871
 4025SOL    MW415868  -0.005   1.582   4.062 -0.0690  0.2555 -0.0556
 4026SOL     OW15869   5.245   5.981   1.297 -0.1220  0.5005 -0.1223
 4026SOL    HW215870   5.270   5.959   1.207 -1.0548 -1.3087  0.0255
 4026SOL    HW315871   5.150   5.976   1.297 -0.1117 -0.0544  1.0853
 4026SOL    MW415872   5.236   5.977   1.285 -0.2437  0.1886  0.0565
 4027SOL     OW15873   4.361   5.655   4.569  0.0391  0.4291 -0.4524
 4027SOL    HW215874   4.365   5.605   4.487 -0.3886 -0.0737 -0.1734
 4027SOL    HW315875   4.363   5.747   4.541 -0.0501  0.2621 -1.0258
 4027SOL    MW415876   4.362   5.661   4.554 -0.0291  0.3407 -0.4912
 4028SOL     OW15877   4.002   3.174   1.747  0.7204 -0.3236  0.2680
 4028SOL    HW215878   3.972   3.248   1.694  0.2983 -0.4174  0.3741
 4028SOL    HW315879   4.037   3.214   1.827  0.7509 -0.2218  0.2036
 4028SOL    MW415880   4.003   3.189   1.751  0.6687 -0.3225  0.2735
 4029SOL     OW15881   4.763   0.636   4.367 -0.0683  0.1255 -0.5228
 4029SOL    HW215882   4.809   0.605   4.445  1.1037 -0.6072 -1.4652
 4029SOL    HW315883   4.690   0.575   4.357  0.1659 -0.1880 -0.3725
 4029SOL    MW415884   4.760   0.624   4.376  0.1172 -0.0126 -0.6273
 4030SOL     OW15885   4.848   0.358   4.859  0.4534  0.1431  0.1725
 4030SOL    HW215886   4.845   0.401   4.773  1.1444  0.3853  0.2558
 4030SOL    HW315887   4.855   0.265   4.839 -0.4193  0.1094 -0.0179
 4030SOL    MW415888   4.849   0.352   4.845  0.4295  0.1706  0.1584
 4031SOL     OW15889   2.657   5.969   2.354  0.0802  0.0530 -0.0465
 4031SOL    HW215890   2.614   6.037   2.302 -2.3484 -1.0406  0.4129
 4031SOL    HW315891   2.645   5.889   2.303  2.7397 -0.1609 -0.4945
 4031SOL    MW415892   2.650   5.967   2.340  0.1107 -0.1195 -0.0450
 4032SOL     OW15893   2.981   4.843   0.418  0.1910 -0.1036  0.2334
 4032SOL    HW215894   2.915   4.804   0.476 -0.4413  1.7945  0.8971
 4032SOL    HW315895   3.065   4.819   0.457 -0.1618 -0.9848  0.4670
 4032SOL    MW415896   2.983   4.835   0.431  0.0610  0.0306  0.3518
 4033SOL     OW15897   1.605   5.954   0.253  0.3902 -0.1158 -0.6763
 4033SOL    HW215898   1.656   6.002   0.188  0.4709  0.4434 -0.2124
 4033SOL    HW315899   1.517   5.990   0.246  0.4680  0.1539 -0.2744
 4033SOL    MW415900   1.600   5.965   0.244  0.4111 -0.0064 -0.5621
 4034SOL     OW15901   5.105   2.885   2.566  0.2230  0.0883  0.5147
 4034SOL    HW215902   5.093   2.823   2.638 -2.1975  1.4485  1.4182
 4034SOL    HW315903   5.055   2.848   2.494  0.0914  0.2113  0.5421
 4034SOL    MW415904   5.097   2.872   2.566 -0.1137  0.2840  0.6375
 4035SOL     OW15905   1.738   5.782   2.381  0.5021 -0.2702 -0.3072
 4035SOL    HW215906   1.652   5.768   2.342  0.3399 -1.8075  0.5310
 4035SOL    HW315907   1.722   5.844   2.453 -0.1680 -1.4983  0.6461
 4035SOL    MW415908   1.725   5.788   2.386  0.3923 -0.6350 -0.0708
 4036SOL     OW15909   5.523   1.768   4.652 -0.4641 -0.1437 -0.0972
 4036SOL    HW215910   5.524   1.864   4.652 -0.7743 -0.1357  0.6220
 4036SOL    HW315911   5.568   1.743   4.732  2.4704 -0.6765 -1.7931
 4036SOL    MW415912   5.529   1.778   4.662 -0.1178 -0.2129 -0.2261
 4037SOL     OW15913   1.502   5.012   0.155  0.9754  0.1501  0.2258
 4037SOL    HW215914   1.471   5.102   0.141  0.1791 -0.3024 -1.0438
 4037SOL    HW315915   1.584   5.008   0.104 -0.0201 -0.3980 -1.4237
 4037SOL    MW415916   1.509   5.023   0.146  0.7390  0.0181 -0.1593
 4038SOL     OW15917   1.926   3.806   3.662  0.5839  0.1654 -0.1504
 4038SOL    HW215918   1.926   3.878   3.725  0.9995 -0.4969  0.6121
 4038SOL    HW315919   1.978   3.839   3.588  0.1228  0.9306 -0.1462
 4038SOL    MW415920   1.933   3.820   3.661  0.5779  0.1790 -0.0492
 4039SOL     OW15921   6.191   4.457   4.655 -0.3876  0.3352 -0.3037
 4039SOL    HW215922   6.253   4.498   4.716  0.3607 -1.3656  0.1421
 4039SOL    HW315923   6.120   4.521   4.647  0.5130  1.5191  0.6687
 4039SOL    MW415924   6.190   4.471   4.662 -0.1701  0.2670 -0.1166
 4040SOL     OW15925   2.834   1.705   5.096  0.6498  0.3219 -0.3042
 4040SOL    HW215926   2.752   1.739   5.132  0.8478  2.0816 -1.3782
 4040SOL    HW315927   2.807   1.651   5.021  0.4010 -0.8902  0.6228
 4040SOL    MW415928   2.819   1.702   5.091  0.6431  0.3942 -0.3236
 4041SOL     OW15929   3.286   5.245   3.651  0.5804  0.6425 -0.3319
 4041SOL    HW215930   3.373   5.275   3.623  0.2865  2.2143  0.3441
 4041SOL    HW315931   3.298   5.152   3.672  2.5003  1.1763  1.2445
 4041SOL    MW415932   3.299   5.237   3.650  0.7949  0.9203 -0.0347
 4042SOL     OW15933   0.307   6.475   1.648  0.0568 -0.1693 -0.1728
 4042SOL    HW215934   0.369   6.403   1.660 -0.4962 -0.5329  0.6066
 4042SOL    HW315935   0.362   6.553   1.641  0.7267 -0.7623 -2.1066
 4042SOL    MW415936   0.322   6.476   1.649  0.0722 -0.2955 -0.3251
 4043SOL     OW15937   4.093   4.195   0.246  0.2507 -0.2982 -0.2997
 4043SOL    HW215938   4.142   4.209   0.165  0.0902 -1.6949 -0.6569
 4043SOL    HW315939   4.004   4.178   0.218 -0.2316  1.0825  0.2935
 4043SOL    MW415940   4.088   4.195   0.232  0.1659 -0.3003 -0.2686
 4044SOL     OW15941   1.484   6.350   4.221  0.7015  0.1620  0.2608
 4044SOL    HW215942   1.438   6.302   4.290 -0.2560 -0.2098 -0.6149
 4044SOL    HW315943   1.576   6.330   4.236  0.3669 -1.6271  0.1935
 4044SOL    MW415944   1.490   6.341   4.232  0.5310 -0.1231  0.1364
 4045SOL     OW15945   1.125   5.624   1.893  0.2010  0.5284  0.4539
 4045SOL    HW215946   1.036   5.656   1.908  0.8879  2.5467  0.4043
 4045SOL    HW315947   1.171   5.697   1.853  1.8063 -0.6066  0.1389
 4045SOL    MW415948   1.119   5.638   1.890  0.5034  0.6449  0.4058
 4046SOL     OW15949   3.019   5.214   4.865  0.0279  0.4878 -0.1692
 4046SOL    HW215950   2.947   5.245   4.811 -1.2007 -0.8445  0.6292
 4046SOL    HW315951   3.088   5.191   4.802 -0.3463  1.4585 -0.9613
 4046SOL    MW415952   3.019   5.215   4.850 -0.1836  0.4401 -0.1684
 4047SOL     OW15953   6.365   3.165   2.431 -0.7959  0.1541  0.1384
 4047SOL    HW215954   6.301   3.227   2.396  0.5776  0.3815 -2.1451
 4047SOL    HW315955   6.413   3.134   2.355  1.7384 -0.1173  1.7239
 4047SOL    MW415956   6.363   3.169   2.416 -0.2803  0.1483  0.0463
 4048SOL     OW15957   1.143   4.833   2.439  0.2052  0.1430  0.0579
 4048SOL    HW215958   1.049   4.846   2.434  0.3512  0.9030 -1.3048
 4048SOL    HW315959   1.181   4.913   2.401  1.4130  0.0809  1.0546
 4048SOL    MW415960   1.136   4.845   2.433  0.3838  0.2351  0.0096
 4049SOL     OW15961   5.192   5.993   2.679  0.5619 -0.4174 -0.5977
 4049SOL    HW215962   5.115   6.045   2.655  1.1431  1.0932  0.7113
 4049SOL    HW315963   5.247   5.994   2.600 -0.3145 -0.7354 -1.2320
 4049SOL    MW415964   5.189   6.000   2.665  0.5230 -0.2600 -0.5087
 4050SOL     OW15965   4.354   3.719   0.358 -0.2741 -0.0276 -0.5103
 4050SOL    HW215966   4.437   3.767   0.354 -0.6470  0.8371  1.1736
 4050SOL    HW315967   4.296   3.776   0.409 -1.4745 -1.2366 -0.4767
 4050SOL    MW415968   4.358   3.733   0.364 -0.4816 -0.0730 -0.2837
 4051SOL     OW15969   3.705   4.339   1.431  0.1188  0.2602 -0.0388
 4051SOL    HW215970   3.736   4.327   1.341  1.7676 -1.2273  0.6693
 4051SOL    HW315971   3.785   4.353   1.482 -0.7007  0.1175  1.3388
 4051SOL    MW415972   3.720   4.339   1.426  0.2282  0.0451  0.2364
 4052SOL     OW15973   0.698   2.653   5.834  0.5186 -0.4515 -0.1399
 4052SOL    HW215974   0.608   2.679   5.813  0.2173 -0.7114  0.7674
 4052SOL    HW315975   0.720   2.585   5.770 -0.0898 -0.6986 -0.0909
 4052SOL    MW415976   0.689   2.648   5.823  0.3986 -0.5184 -0.0138
 4053SOL     OW15977   2.704   3.450   5.849 -0.1249 -0.3509 -0.3659
 4053SOL    HW215978   2.643   3.384   5.883  1.8189 -2.1148 -0.1043
 4053SOL    HW315979   2.722   3.422   5.759  1.6396 -0.9326  0.1330
 4053SOL    MW415980   2.698   3.437   5.842  0.3644 -0.6604 -0.2655
 4054SOL     OW15981   6.307   1.758   4.527 -0.5523 -0.2098 -0.6706
 4054SOL    HW215982   6.359   1.725   4.454 -0.3117  0.4473 -0.8024
 4054SOL    HW315983   6.370   1.805   4.583 -1.1483  1.5344 -1.3805
 4054SOL    MW415984   6.322   1.760   4.525 -0.5992  0.1070 -0.7816
 4055SOL     OW15985   1.193   4.590   3.311 -0.1650 -0.8498  0.3769
 4055SOL    HW215986   1.286   4.574   3.298  0.0473  0.8018 -0.3150
 4055SOL    HW315987   1.188   4.678   3.348 -1.4751 -0.7691  0.0606
 4055SOL    MW415988   1.205   4.599   3.314 -0.3098 -0.6212  0.2439
 4056SOL     OW15989   0.819   0.532   1.130 -0.5347  0.0609  0.1293
 4056SOL    HW215990   0.863   0.550   1.046  2.1104  1.3026  1.6640
 4056SOL    HW315991   0.740   0.585   1.127 -1.1443 -0.8302 -2.0067
 4056SOL    MW415992   0.814   0.541   1.118 -0.2661  0.1072  0.0499
 4057SOL     OW15993   5.789   5.044   2.223 -0.0383 -0.3047 -0.4895
 4057SOL    HW215994   5.853   5.003   2.164 -0.3956  1.9995 -2.6273
 4057SOL    HW315995   5.834   5.120   2.259 -0.7009 -0.2227  0.1966
 4057SOL    MW415996   5.804   5.048   2.220 -0.1728  0.0102 -0.6810
 4058SOL     OW15997   2.891   3.739   4.027 -0.2350  0.8768 -1.1490
 4058SOL    HW215998   2.796   3.737   4.026 -0.2730  0.4417  0.8738
 4058SOL    HW315999   2.917   3.699   3.943 -1.7993  0.1403 -1.3055
 4058SOL    MW416000   2.882   3.734   4.016 -0.4464  0.7222 -0.9028
 4059SOL     OW16001   4.038   5.986   4.194  0.4083 -0.3313  0.1159
 4059SOL    HW216002   3.949   5.993   4.160  0.6050 -0.3513 -0.4037
 4059SOL    HW316003   4.031   5.922   4.265 -0.2546  0.7060  1.0049
 4059SOL    MW416004   4.025   5.979   4.199  0.3468 -0.1971  0.1647
 4060SOL     OW16005   0.700   3.695   4.962  0.2375 -0.1512 -0.6860
 4060SOL    HW216006   0.677   3.690   4.869  3.6206  0.0112 -1.6728
 4060SOL    HW316007   0.723   3.605   4.986 -2.7252 -0.6273  0.7195
 4060SOL    MW416008   0.700   3.683   4.953  0.2929 -0.1926 -0.6308
 4061SOL     OW16009   0.587   6.338   2.357 -0.3202 -0.4849 -0.0438
 4061SOL    HW216010   0.600   6.253   2.400 -0.1426 -1.6689 -2.2904
 4061SOL    HW316011   0.675   6.372   2.344 -0.2937  2.6545  5.3110
 4061SOL    MW416012   0.600   6.331   2.361 -0.2933 -0.2269  0.3662
 4062SOL     OW16013   2.940   3.365   3.946  0.0038  0.4506 -0.1464
 4062SOL    HW216014   2.929   3.457   3.920 -0.7784  0.3733 -0.1250
 4062SOL    HW316015   2.937   3.316   3.864  0.3930  0.4381 -0.1553
 4062SOL    MW416016   2.938   3.371   3.932 -0.0480  0.4388 -0.1448
 4063SOL     OW16017   3.894   5.707   3.913  0.3901 -0.1260 -0.1704
 4063SOL    HW216018   3.965   5.761   3.879 -1.6613  2.2072 -1.0264
 4063SOL    HW316019   3.869   5.651   3.840 -0.4771  1.0806 -0.8289
 4063SOL    MW416020   3.900   5.707   3.899  0.0050  0.3410 -0.3702
 4064SOL     OW16021   5.530   4.405   0.636 -0.4050  0.6940 -0.2782
 4064SOL    HW216022   5.511   4.392   0.729  2.0528  3.1173  0.6658
 4064SOL    HW316023   5.579   4.327   0.610  2.5019  1.7429  1.6518
 4064SOL    MW416024   5.534   4.393   0.644  0.3028  1.1521  0.1010
 4065SOL     OW16025   3.479   2.858   0.774  0.2173  0.3502 -0.0741
 4065SOL    HW216026   3.549   2.923   0.764  0.3498  0.5003  1.4596
 4065SOL    HW316027   3.433   2.885   0.854 -0.3376 -0.8880  0.0518
 4065SOL    MW416028   3.482   2.870   0.784  0.1616  0.2066  0.1448
 4066SOL     OW16029   3.663   1.234   1.904 -0.1667  0.6903 -0.1092
 4066SOL    HW216030   3.620   1.149   1.896  0.6660  0.2087  0.4069
 4066SOL    HW316031   3.752   1.220   1.872 -0.0895  1.4358 -0.2596
 4066SOL    MW416032   3.669   1.221   1.899 -0.0466  0.7252 -0.0610
 4067SOL     OW16033   2.076   4.141   1.430  0.6904  0.0073 -0.4012
 4067SOL    HW216034   2.037   4.105   1.509 -0.1969  0.2440 -0.7195
 4067SOL    HW316035   2.038   4.089   1.359  3.0049 -1.5944 -0.5988
 4067SOL    MW416036   2.066   4.129   1.431  0.8787 -0.1728 -0.4692
 4068SOL     OW16037   0.273   5.030   1.089 -0.6547 -0.3416  0.0469
 4068SOL    HW216038   0.181   5.026   1.063 -0.7274  1.0467  0.0368
 4068SOL    HW316039   0.287   5.121   1.116  0.5365 -0.6967  0.7175
 4068SOL    MW416040   0.263   5.041   1.090 -0.5071 -0.2053  0.1340
 4069SOL     OW16041   2.445   4.579   0.078 -0.4583  0.3153 -0.8259
 4069SOL    HW216042   2.532   4.582   0.037 -0.7763  1.0006 -1.4705
 4069SOL    HW316043   2.392   4.528   0.017 -0.2269 -1.1640  0.1551
 4069SOL    MW416044   2.449   4.573   0.064 -0.4697  0.2106 -0.7815
 4070SOL     OW16045   2.703   2.561   2.484  0.0037  0.0111 -0.5743
 4070SOL    HW216046   2.753   2.631   2.527  0.7650 -0.1890 -1.1101
 4070SOL    HW316047   2.762   2.528   2.416  0.4830 -2.4582  0.8839
 4070SOL    MW416048   2.718   2.566   2.481  0.1674 -0.3411 -0.4526
 4071SOL     OW16049   2.380   0.352   2.127 -0.1813 -0.1633 -0.0754
 4071SOL    HW216050   2.352   0.410   2.198  0.3099  0.5076 -0.4170
 4071SOL    HW316051   2.300   0.308   2.098 -0.4331 -0.2260  0.6995
 4071SOL    MW416052   2.366   0.354   2.133 -0.1497 -0.0831 -0.0182
 4072SOL     OW16053   5.583   1.941   0.893  0.3380 -0.6507 -0.4222
 4072SOL    HW216054   5.576   2.030   0.856  1.6536  0.6503  2.1779
 4072SOL    HW316055   5.676   1.923   0.892  0.2489 -1.2220  0.7588
 4072SOL    MW416056   5.594   1.951   0.888  0.4998 -0.5544  0.0767
 4073SOL     OW16057   4.077   0.673   0.281 -0.2054  0.2552  0.2039
 4073SOL    HW216058   4.141   0.727   0.328  0.5509  0.4172 -0.9539
 4073SOL    HW316059   4.084   0.702   0.190 -0.3020 -1.2987 -0.3286
 4073SOL    MW416060   4.086   0.684   0.275 -0.1183  0.0716 -0.0192
 4074SOL     OW16061   0.713   4.671   6.407  0.1438 -0.0635 -0.0004
 4074SOL    HW216062   0.691   4.634   6.322 -1.1189 -0.7704  0.6021
 4074SOL    HW316063   0.670   4.613   6.470  1.0461  0.4453  1.1300
 4074SOL    MW416064   0.705   4.658   6.404  0.0962 -0.0896  0.2282
 4075SOL     OW16065   1.186   0.772   6.270 -0.1512  0.3167  0.5249
 4075SOL    HW216066   1.281   0.766   6.268 -0.0326  0.5118  2.8438
 4075SOL    HW316067   1.161   0.732   6.353 -2.0641  0.6867  0.1840
 4075SOL    MW416068   1.195   0.766   6.280 -0.3880  0.3912  0.7859
 4076SOL     OW16069   2.930   2.263   3.736  0.2145  0.2425  0.1148
 4076SOL    HW216070   3.013   2.216   3.732  0.1022  0.0902 -0.5578
 4076SOL    HW316071   2.892   2.237   3.820  1.5379  1.5193  1.1675
 4076SOL    MW416072   2.936   2.254   3.747  0.3743  0.3909  0.1650
 4077SOL     OW16073   2.841   6.352   6.439 -0.0976  0.7230 -0.1246
 4077SOL    HW216074   2.895   6.333   6.516  0.0583 -1.7513 -0.7597
 4077SOL    HW316075   2.903   6.384   6.373 -0.2304  2.8319  0.6841
 4077SOL    MW416076   2.856   6.354   6.440 -0.0946  0.6748 -0.1017
 4078SOL     OW16077   1.068   2.159   0.164  0.3173  0.1461 -0.5695
 4078SOL    HW216078   1.123   2.202   0.230 -0.0197  1.2010 -0.9546
 4078SOL    HW316079   1.070   2.067   0.188  1.8422  0.2295 -0.2809
 4078SOL    MW416080   1.076   2.153   0.176  0.4740  0.2963 -0.5822
 4079SOL     OW16081   4.718   5.008   3.528  0.0135 -0.0521 -0.0025
 4079SOL    HW216082   4.725   5.056   3.611 -1.4303  0.3385 -0.0764
 4079SOL    HW316083   4.738   5.073   3.461  1.0765 -0.3408  0.0295
 4079SOL    MW416084   4.721   5.023   3.530 -0.0367 -0.0387 -0.0080
 4080SOL     OW16085   4.304   1.905   3.553 -0.1170  0.1734  0.3647
 4080SOL    HW216086   4.232   1.958   3.518  1.8377  1.3434 -2.2523
 4080SOL    HW316087   4.378   1.966   3.560  0.4018 -0.6365  4.3219
 4080SOL    MW416088   4.304   1.920   3.549  0.2093  0.2209  0.5415
 4081SOL     OW16089   4.017   2.706   0.785 -0.3726  0.1549 -0.3479
 4081SOL    HW216090   4.040   2.683   0.695  0.1670  1.0090 -0.4420
 4081SOL    HW316091   3.998   2.800   0.782 -1.0592  0.0465  0.2930
 4081SOL    MW416092   4.018   2.715   0.773 -0.3920  0.2533 -0.2758
 4082SOL     OW16093   1.266   2.481   4.730 -0.1067 -0.6204  0.1298
 4082SOL    HW216094   1.172   2.469   4.736 -0.2879 -0.0696 -1.2653
 4082SOL    HW316095   1.282   2.501   4.637  1.4209 -1.1116  0.2558
 4082SOL    MW416096   1.256   2.482   4.718  0.0709 -0.6125 -0.0376
 4083SOL     OW16097   1.043   2.116   3.766  0.0214  0.0061 -0.6444
 4083SOL    HW216098   0.963   2.065   3.771  0.2417 -0.6226 -2.6334
 4083SOL    HW316099   1.110   2.061   3.806  0.0159 -0.7572 -1.6597
 4083SOL    MW416100   1.041   2.102   3.772  0.0497 -0.1776 -1.0408
 4084SOL     OW16101   1.601   1.639   3.603 -0.1529 -0.2943  0.1858
 4084SOL    HW216102   1.534   1.692   3.560  0.5412 -1.9033 -3.2616
 4084SOL    HW316103   1.552   1.574   3.654 -1.1424 -0.1010 -0.5019
 4084SOL    MW416104   1.585   1.638   3.604 -0.1919 -0.4811 -0.3598
 4085SOL     OW16105   0.143   2.714   2.860  0.1075 -0.3471  0.1307
 4085SOL    HW216106   0.097   2.632   2.839 -0.5448  0.2321 -0.7910
 4085SOL    HW316107   0.093   2.752   2.931 -0.4599 -0.0530 -0.4144
 4085SOL    MW416108   0.130   2.708   2.866 -0.0534 -0.2319 -0.0628
 4086SOL     OW16109   0.362   2.968   4.681  0.4535 -0.1188  0.0347
 4086SOL    HW216110   0.348   2.882   4.641  3.7821 -0.9983  0.4037
 4086SOL    HW316111   0.457   2.980   4.678  0.3205  2.4456  2.2519
 4086SOL    MW416112   0.373   2.958   4.675  0.8751  0.1035  0.3759
 4087SOL     OW16113   6.422   3.239   0.861 -0.5781  0.6410 -0.1497
 4087SOL    HW216114   6.472   3.294   0.802  0.0650  0.8840  0.6177
 4087SOL    HW316115   6.447   3.267   0.949 -1.7170  0.4649  0.2521
 4087SOL    MW416116   6.432   3.250   0.865 -0.6435  0.6498  0.0045
 4088SOL     OW16117   1.084   2.429   5.945 -0.1491 -0.2607  0.5023
 4088SOL    HW216118   1.079   2.348   5.997 -0.3319 -0.0811  0.7670
 4088SOL    HW316119   1.009   2.481   5.975  0.1867  0.1673  0.6018
 4088SOL    MW416120   1.073   2.425   5.956 -0.1289 -0.1805  0.5504
 4089SOL     OW16121   1.105   6.385   0.666 -0.6043 -0.6370 -0.3498
 4089SOL    HW216122   1.046   6.459   0.683 -1.7357 -1.6778  0.4852
 4089SOL    HW316123   1.179   6.423   0.620 -0.3820  1.3169  1.4635
 4089SOL    MW416124   1.107   6.400   0.662 -0.7243 -0.5165 -0.0004
 4090SOL     OW16125   0.340   1.846   2.313  0.5189 -0.0541  0.1031
 4090SOL    HW216126   0.251   1.869   2.284  1.2900  1.7279 -1.0509
 4090SOL    HW316127   0.392   1.851   2.233  1.3782 -3.0652  0.3548
 4090SOL    MW416128   0.335   1.850   2.298  0.7340 -0.2163 -0.0159
 4091SOL     OW16129   6.155   0.931   4.080 -0.4925  0.0773 -0.3524
 4091SOL    HW216130   6.171   0.923   3.986  0.0811 -0.2171 -0.2332
 4091SOL    HW316131   6.196   0.854   4.118 -3.5142 -1.5967 -0.1579
 4091SOL    MW416132   6.162   0.920   4.073 -0.8155 -0.1824 -0.3110
 4092SOL     OW16133   4.217   5.638   0.761  0.0819  0.3430 -0.2432
 4092SOL    HW216134   4.292   5.580   0.775 -0.3072 -0.2297 -0.4529
 4092SOL    HW316135   4.157   5.617   0.832  0.8202  2.0340  0.9573
 4092SOL    MW416136   4.219   5.627   0.772  0.1280  0.4905 -0.1125
 4093SOL     OW16137   1.627   0.419   3.548 -0.0696  0.2543 -0.8317
 4093SOL    HW216138   1.698   0.470   3.509  0.0192  0.5610 -0.2818
 4093SOL    HW316139   1.671   0.357   3.607 -0.1636 -0.6045 -1.6473
 4093SOL    MW416140   1.642   0.417   3.551 -0.0703  0.1815 -0.8667
 4094SOL     OW16141   5.193   4.341   4.866 -0.0287  0.2609 -0.7471
 4094SOL    HW216142   5.146   4.257   4.863  0.2636  0.0659 -0.0254
 4094SOL    HW316143   5.133   4.403   4.825 -0.4698 -0.1951 -0.8081
 4094SOL    MW416144   5.179   4.338   4.860 -0.0483  0.1750 -0.6599
 4095SOL     OW16145   5.158   3.694   6.111  0.3463  0.1332 -0.2587
 4095SOL    HW216146   5.080   3.641   6.128  0.7633  0.0501  1.5298
 4095SOL    HW316147   5.206   3.644   6.045  0.5241 -1.5344  1.0756
 4095SOL    MW416148   5.154   3.680   6.104  0.4248 -0.0978  0.1533
 4096SOL     OW16149   1.178   3.685   0.933 -0.1764  0.3802  0.1099
 4096SOL    HW216150   1.109   3.627   0.967  0.5940 -1.4526 -1.3044
 4096SOL    HW316151   1.131   3.746   0.877 -0.9393  0.8181  1.1812
 4096SOL    MW416152   1.162   3.685   0.930 -0.1754  0.1962  0.0646
 4097SOL     OW16153   6.344   4.713   0.836 -0.4187  0.4783 -0.2462
 4097SOL    HW216154   6.343   4.795   0.886 -0.3478 -0.2571  0.9914
 4097SOL    HW316155   6.296   4.651   0.891  1.0187 -0.7686 -0.3418
 4097SOL    MW416156   6.338   4.716   0.850 -0.2197  0.2168 -0.0955
 4098SOL     OW16157   5.773   5.320   3.513  0.3735 -0.1231 -0.0276
 4098SOL    HW216158   5.696   5.371   3.490 -0.1695 -0.7083  0.4597
 4098SOL    HW316159   5.762   5.300   3.607  1.5776  0.5790  0.2803
 4098SOL    MW416160   5.762   5.324   3.523  0.4608 -0.1076  0.0773
 4099SOL     OW16161   4.410   3.423   1.861 -0.7670  0.4651  0.1090
 4099SOL    HW216162   4.337   3.485   1.863 -1.1963 -0.0446  2.0410
 4099SOL    HW316163   4.486   3.476   1.885 -1.0036  0.4199  0.9872
 4099SOL    MW416164   4.411   3.438   1.864 -0.8548  0.3919  0.4798
 4100SOL     OW16165   4.767   1.469   2.040 -0.4753  0.5682 -0.0882
 4100SOL    HW216166   4.673   1.474   2.059 -0.2061  1.2403  1.1827
 4100SOL    HW316167   4.784   1.376   2.027 -0.9101  0.1333  2.0922
 4100SOL    MW416168   4.757   1.457   2.041 -0.4972  0.5995  0.3671
 4101SOL     OW16169   5.912   5.124   6.033  0.2531  0.1001  0.6250
 4101SOL    HW216170   5.841   5.178   5.998  0.5127  0.2993  0.3932
 4101SOL    HW316171   5.890   5.111   6.125 -1.3314 -1.8649  0.0317
 4101SOL    MW416172   5.900   5.129   6.041  0.0783 -0.1329  0.5161
 4102SOL     OW16173   3.323   0.736   5.877  0.1197  0.5404 -0.3988
 4102SOL    HW216174   3.268   0.695   5.810 -2.1411  1.2857  0.9017
 4102SOL    HW316175   3.289   0.703   5.960  1.3049  1.4614  0.4883
 4102SOL    MW416176   3.311   0.726   5.879 -0.0222  0.7602 -0.1101
 4103SOL     OW16177   0.722   2.479   5.620  0.3682  0.2725 -0.6571
 4103SOL    HW216178   0.805   2.453   5.581 -0.1343 -1.3184 -0.7503
 4103SOL    HW316179   0.673   2.519   5.548 -0.9231 -3.4660 -2.1509
 4103SOL    MW416180   0.726   2.481   5.605  0.1316 -0.4306 -0.8665
 4104SOL     OW16181   5.317   2.494   5.925  0.2353  1.0090 -0.1030
 4104SOL    HW216182   5.403   2.500   5.967  0.6228 -0.8019 -0.5649
 4104SOL    HW316183   5.263   2.444   5.987 -1.5370  4.6983  1.6662
 4104SOL    MW416184   5.321   2.488   5.939  0.0526  1.2568  0.0695
 4105SOL     OW16185   0.286   5.142   1.504 -0.0373 -0.0561 -0.8084
 4105SOL    HW216186   0.349   5.074   1.527  1.1128  0.6147 -1.8549
 4105SOL    HW316187   0.277   5.195   1.584 -0.2685 -0.9023 -0.2623
 4105SOL    MW416188   0.293   5.140   1.518  0.0840 -0.0792 -0.8744
 4106SOL     OW16189   3.479   2.504   1.928 -0.2044  0.2364  0.1034
 4106SOL    HW216190   3.556   2.487   1.982  0.1210  0.5981 -0.2435
 4106SOL    HW316191   3.468   2.599   1.930  0.5752  0.4000 -1.4779
 4106SOL    MW416192   3.488   2.514   1.936 -0.0586  0.3057 -0.1510
 4107SOL     OW16193   4.817   0.300   3.175 -0.2991 -0.2121  0.0197
 4107SOL    HW216194   4.748   0.349   3.129 -0.3714  2.5243  2.6804
 4107SOL    HW316195   4.866   0.368   3.222  1.6043 -2.4955  1.5341
 4107SOL    MW416196   4.814   0.316   3.175 -0.0575 -0.1524  0.5706
 4108SOL     OW16197   5.920   1.741   4.356  0.7335 -0.2135  0.5848
 4108SOL    HW216198   5.971   1.816   4.387  0.9854  0.4029 -1.2408
 4108SOL    HW316199   5.874   1.710   4.434 -0.3206  2.5684  1.1787
 4108SOL    MW416200   5.921   1.747   4.371  0.6276  0.2349  0.4223
 4109SOL     OW16201   3.201   5.245   1.880 -0.1329 -0.6840  0.0700
 4109SOL    HW216202   3.215   5.306   1.953 -0.1226 -0.8147  0.1776
 4109SOL    HW316203   3.230   5.293   1.803 -0.0156 -0.5938  0.1693
 4109SOL    MW416204   3.206   5.259   1.880 -0.1161 -0.6893  0.0973
 4110SOL     OW16205   2.709   5.213   6.475 -0.0073 -0.4218 -0.6706
 4110SOL    HW216206   2.759   5.168   6.406  0.7560  0.4516 -0.6969
 4110SOL    HW316207   2.771   5.224   6.546 -0.3438  0.1324 -0.4633
 4110SOL    MW416208   2.724   5.208   6.475  0.0490 -0.2335 -0.6467
 4111SOL     OW16209   1.505   6.272   3.137  0.1745  0.2239  0.0715
 4111SOL    HW216210   1.483   6.354   3.181 -0.1913 -0.4022  1.1150
 4111SOL    HW316211   1.460   6.205   3.189  1.3616 -0.7366 -0.0909
 4111SOL    MW416212   1.496   6.274   3.150  0.2829  0.0146  0.1877
 4112SOL     OW16213   4.510   1.216   5.536  0.5099 -0.4490  0.1407
 4112SOL    HW216214   4.567   1.187   5.607 -0.5023 -0.7046  0.8693
 4112SOL    HW316215   4.459   1.288   5.573  1.0229  0.4372 -0.8034
 4112SOL    MW416216   4.511   1.221   5.550  0.4440 -0.3658  0.1122
 4113SOL     OW16217   4.659   5.738   3.386  0.0716  0.0761  0.1731
 4113SOL    HW216218   4.621   5.816   3.347  1.9535  0.0171 -1.9919
 4113SOL    HW316219   4.749   5.736   3.353  0.2808 -2.6692  0.6526
 4113SOL    MW416220   4.666   5.748   3.377  0.3475 -0.2939 -0.0493
 4114SOL     OW16221   2.737   4.682   5.511 -0.5625 -0.2838 -0.3613
 4114SOL    HW216222   2.797   4.629   5.459 -1.7143  0.1966 -2.2951
 4114SOL    HW316223   2.779   4.768   5.515 -0.2384 -0.4508 -0.0319
 4114SOL    MW416224   2.751   4.687   5.504 -0.6717 -0.2425 -0.5730
 4115SOL     OW16225   0.107   0.978   2.476 -0.3115  0.2707 -0.2076
 4115SOL    HW216226   0.111   0.946   2.385 -2.3484  0.4725 -0.4279
 4115SOL    HW316227   0.128   1.071   2.470  2.7716 -0.3207  0.0337
 4115SOL    MW416228   0.110   0.986   2.463 -0.1734  0.2193 -0.2048
 4116SOL     OW16229   2.123   1.790   5.080 -0.3544  0.4748 -0.1012
 4116SOL    HW216230   2.033   1.790   5.113  0.5207  0.8921  2.4353
 4116SOL    HW316231   2.163   1.713   5.119  0.1849 -0.2989 -2.0316
 4116SOL    MW416232   2.116   1.780   5.089 -0.1678  0.4278 -0.0212
 4117SOL     OW16233   2.111   2.295   5.371  0.4461  0.0246 -0.0979
 4117SOL    HW216234   2.046   2.287   5.440  0.5066 -1.5257 -0.1719
 4117SOL    HW316235   2.151   2.381   5.385 -1.8518  1.1947 -0.2941
 4117SOL    MW416236   2.108   2.305   5.382  0.1509 -0.0255 -0.1335
 4118SOL     OW16237   1.590   2.174   5.820 -0.1874 -0.2503  0.0702
 4118SOL    HW216238   1.628   2.199   5.904  0.0700 -0.7196  0.0942
 4118SOL    HW316239   1.661   2.130   5.773 -0.5725 -0.7408 -0.0592
 4118SOL    MW416240   1.604   2.171   5.825 -0.2042 -0.3769  0.0563
 4119SOL     OW16241   4.842   2.170   2.455 -0.1686 -0.5079  0.2206
 4119SOL    HW216242   4.786   2.129   2.389  0.6160  0.4664 -1.0659
 4119SOL    HW316243   4.819   2.263   2.452 -0.0930 -0.4361  1.3124
 4119SOL    MW416244   4.831   2.177   2.446 -0.0551 -0.3699  0.1949
 4120SOL     OW16245   0.593   6.413   2.778 -0.1402 -0.0034 -0.1809
 4120SOL    HW216246   0.539   6.365   2.716  1.2372 -1.8335 -0.0711
 4120SOL    HW316247   0.659   6.456   2.724  0.4581 -0.7824 -0.0956
 4120SOL    MW416248   0.595   6.412   2.763  0.1205 -0.3477 -0.1552
 4121SOL     OW16249   2.874   1.765   0.120 -0.0366  0.0284 -0.0694
 4121SOL    HW216250   2.939   1.699   0.096 -0.4549 -0.4341  0.0401
 4121SOL    HW316251   2.797   1.742   0.068  0.2582  1.2982 -1.1139
 4121SOL    MW416252   2.873   1.753   0.110 -0.0529  0.1349 -0.1928
 4122SOL     OW16253   2.044   0.273   4.606  0.1913  0.0460  0.0483
 4122SOL    HW216254   2.135   0.254   4.631  0.6765  0.8932 -0.9822
 4122SOL    HW316255   2.002   0.300   4.687  0.0466 -3.1323  1.1588
 4122SOL    MW416256   2.051   0.274   4.620  0.2362 -0.2616  0.0589
 4123SOL     OW16257   4.655   3.751   0.638 -0.0061  0.3166  0.1754
 4123SOL    HW216258   4.611   3.667   0.652  1.8087 -0.7601 -0.2184
 4123SOL    HW316259   4.701   3.768   0.720 -0.7276  1.1868  0.4178
 4123SOL    MW416260   4.655   3.742   0.651  0.1382  0.2894  0.1555
 4124SOL     OW16261   6.281   0.577   3.032  1.0364  0.6234  0.2086
 4124SOL    HW216262   6.276   0.672   3.035 -1.2009  0.5254  1.2555
 4124SOL    HW316263   6.253   0.548   3.119  0.4563 -1.0294 -0.4840
 4124SOL    MW416264   6.277   0.585   3.044  0.6647  0.3924  0.2554
 4125SOL     OW16265   6.368   4.788   1.334  0.7507 -0.5417  0.0945
 4125SOL    HW216266   6.320   4.863   1.299 -1.8081 -1.0573  2.2214
 4125SOL    HW316267   6.457   4.800   1.301  0.0120  2.3708 -1.2063
 4125SOL    MW416268   6.373   4.799   1.325  0.3157 -0.2255  0.2035
 4126SOL     OW16269   5.536   3.198   6.418  0.0023 -0.0077 -0.6141
 4126SOL    HW216270   5.465   3.174   6.477 -1.2669  3.1355 -0.6784
 4126SOL    HW316271   5.608   3.222   6.476 -0.7081  1.5466 -0.3358
 4126SOL    MW416272   5.536   3.198   6.433 -0.2588  0.6121 -0.5858
 4127SOL     OW16273   6.390   3.589   1.059 -0.1443  0.0860 -0.2055
 4127SOL    HW216274   6.385   3.615   1.150  0.7139  1.1909 -0.4477
 4127SOL    HW316275   6.300   3.573   1.033 -0.4613  0.4285  0.6553
 4127SOL    MW416276   6.378   3.590   1.067 -0.0729  0.2770 -0.1239
 4128SOL     OW16277   3.967   4.246   3.241 -0.6281 -0.2772 -0.0235
 4128SOL    HW216278   4.044   4.217   3.192  0.1006 -2.2136  2.0853
 4128SOL    HW316279   3.996   4.323   3.289 -0.3575 -0.2915 -0.1646
 4128SOL    MW416280   3.981   4.252   3.241 -0.4962 -0.5346  0.2361
 4129SOL     OW16281   1.084   2.962   0.492 -0.7777  0.3331 -0.8425
 4129SOL    HW216282   1.066   3.002   0.577 -0.3202  0.3653 -0.7561
 4129SOL    HW316283   1.101   2.870   0.512  1.9544  0.8083 -0.5183
 4129SOL    MW416284   1.084   2.956   0.506 -0.3568  0.4000 -0.7883
 4130SOL     OW16285   2.632   0.842   4.033  0.7034  0.3184  0.5069
 4130SOL    HW216286   2.614   0.926   4.074 -1.5490 -0.8092  2.0730
 4130SOL    HW316287   2.571   0.836   3.960  0.7079 -0.0451  0.5285
 4130SOL    MW416288   2.622   0.852   4.029  0.4069  0.1216  0.7163
 4131SOL     OW16289   3.159   4.123   3.538  0.0950 -0.2051 -0.1650
 4131SOL    HW216290   3.240   4.115   3.589  0.6146 -1.5599 -1.1343
 4131SOL    HW316291   3.089   4.104   3.599  0.6041 -0.3426  0.3833
 4131SOL    MW416292   3.161   4.120   3.553  0.2307 -0.4020 -0.2206
 4132SOL     OW16293   0.946   5.166   2.533  0.0675 -0.1351 -0.4438
 4132SOL    HW216294   0.896   5.236   2.576 -2.6142 -1.0316 -1.8340
 4132SOL    HW316295   0.931   5.089   2.587  0.7470 -0.2290 -0.3812
 4132SOL    MW416296   0.937   5.165   2.546 -0.1966 -0.2658 -0.6189
 4133SOL     OW16297   4.135   1.544   1.985  0.0787 -0.3734  0.1272
 4133SOL    HW216298   4.106   1.506   2.068 -0.9580 -1.1600 -0.5799
 4133SOL    HW316299   4.124   1.638   1.997 -1.4680 -0.5634  0.3722
 4133SOL    MW416300   4.130   1.552   1.998 -0.2622 -0.5022  0.0662
 4134SOL     OW16301   1.623   5.774   3.447 -0.4266  0.2142 -0.5347
 4134SOL    HW216302   1.693   5.715   3.476  0.1289  1.2047  0.2270
 4134SOL    HW316303   1.619   5.841   3.516 -2.4063 -0.0356 -0.3681
 4134SOL    MW416304   1.632   5.775   3.460 -0.6145  0.3119 -0.4123
 4135SOL     OW16305   4.513   5.970   3.290 -0.4731  0.3200  0.0750
 4135SOL    HW216306   4.515   6.058   3.252 -0.5866  0.4388  0.3439
 4135SOL    HW316307   4.468   5.981   3.373  2.0180  0.5237  1.4848
 4135SOL    MW416308   4.507   5.983   3.296 -0.1594  0.3625  0.2965
 4136SOL     OW16309   5.048   4.715   2.645  0.6120 -0.4059 -0.1741
 4136SOL    HW216310   5.002   4.766   2.578  0.0036 -0.4218  0.2277
 4136SOL    HW316311   5.023   4.624   2.627 -0.5313 -0.3134  0.7945
 4136SOL    MW416312   5.039   4.710   2.634  0.3809 -0.3958  0.0067
 4137SOL     OW16313   5.700   6.281   3.220 -0.0740  0.2828 -0.3641
 4137SOL    HW216314   5.614   6.282   3.177 -0.0606 -1.0747 -0.4606
 4137SOL    HW316315   5.687   6.232   3.300  0.6104  0.0716 -0.3741
 4137SOL    MW416316   5.687   6.275   3.225  0.0181  0.0758 -0.3782
 4138SOL     OW16317   2.522   3.183   0.261 -0.0788 -0.2478  0.0775
 4138SOL    HW216318   2.608   3.188   0.221  0.3174 -1.1647  0.7843
 4138SOL    HW316319   2.492   3.274   0.266  1.8426  0.3403  1.9770
 4138SOL    MW416320   2.529   3.195   0.256  0.2270 -0.2912  0.4214
 4139SOL     OW16321   6.396   4.229   1.451  0.1673  0.3765 -0.7475
 4139SOL    HW216322   6.478   4.184   1.469 -0.5789 -0.2118  1.5398
 4139SOL    HW316323   6.332   4.159   1.440 -0.2606  0.8418 -1.2986
 4139SOL    MW416324   6.398   4.214   1.452  0.0124  0.3603 -0.5184
 4140SOL     OW16325   0.979   3.587   5.128 -0.7875 -0.3202  0.2656
 4140SOL    HW216326   0.942   3.520   5.070 -2.1184  1.5562 -1.1868
 4140SOL    HW316327   1.053   3.622   5.080  1.9458 -2.7472  2.3597
 4140SOL    MW416328   0.984   3.583   5.114 -0.6025 -0.3928  0.3502
 4141SOL     OW16329   2.393   3.431   1.075  0.3464  0.1759  0.0914
 4141SOL    HW216330   2.420   3.494   1.141  1.6285  0.9448 -1.1012
 4141SOL    HW316331   2.319   3.471   1.031  1.0382  0.7996 -0.5366
 4141SOL    MW416332   2.387   3.444   1.078  0.6068  0.3596 -0.1488
 4142SOL     OW16333   1.088   2.547   5.209 -0.4679  0.2767  0.1572
 4142SOL    HW216334   1.000   2.511   5.218 -0.1952 -0.0359  1.9491
 4142SOL    HW316335   1.099   2.606   5.284 -0.6514  3.7516 -2.2956
 4142SOL    MW416336   1.078   2.550   5.220 -0.4561  0.6939  0.0700
 4143SOL     OW16337   0.755   0.233   3.176  0.3074  0.4253  0.5488
 4143SOL    HW216338   0.796   0.174   3.239 -0.6277  1.0320  1.7660
 4143SOL    HW316339   0.790   0.319   3.198 -2.0411  1.0727  2.0725
 4143SOL    MW416340   0.765   0.236   3.187 -0.1258  0.5908  0.9104
 4144SOL     OW16341   1.306   0.114   0.520 -0.3475 -0.8923  0.1241
 4144SOL    HW216342   1.296   0.209   0.513  0.4748 -0.8495 -0.5729
 4144SOL    HW316343   1.400   0.099   0.511 -0.5307 -1.8156 -0.3444
 4144SOL    MW416344   1.317   0.125   0.518 -0.2632 -1.0085 -0.0297
 4145SOL     OW16345   5.078   3.699   1.103  0.0141  0.5805 -0.3293
 4145SOL    HW216346   5.067   3.641   1.178 -1.5882  1.4690  0.1835
 4145SOL    HW316347   5.010   3.765   1.114  0.3550  1.2808 -2.0725
 4145SOL    MW416348   5.068   3.700   1.114 -0.1523  0.7901 -0.4916
 4146SOL     OW16349   3.293   2.662   4.602 -0.4189  0.1167 -0.6366
 4146SOL    HW216350   3.200   2.662   4.625 -0.0955  1.0140  0.8514
 4146SOL    HW316351   3.329   2.586   4.649 -0.3810 -0.1760 -1.1363
 4146SOL    MW416352   3.285   2.652   4.611 -0.3712  0.1965 -0.5062
 4147SOL     OW16353   1.407   6.180   1.409 -0.2448 -0.0240  0.2127
 4147SOL    HW216354   1.485   6.235   1.410  0.2642 -0.7201  1.1862
 4147SOL    HW316355   1.345   6.225   1.350  0.5037  1.0608  0.2378
 4147SOL    MW416356   1.409   6.193   1.401 -0.0789  0.0273  0.3445
 4148SOL     OW16357   1.383   4.308   5.691  0.1477  0.5611  0.0571
 4148SOL    HW216358   1.460   4.353   5.658  0.6395  0.2995  0.8230
 4148SOL    HW316359   1.362   4.354   5.773  0.4723 -0.3775  0.6918
 4148SOL    MW416360   1.390   4.320   5.698  0.2554  0.4028  0.2419
 4149SOL     OW16361   5.947   5.958   4.087  0.1538 -0.4553  0.1135
 4149SOL    HW216362   5.979   5.877   4.047 -0.4492 -2.5177  3.4115
 4149SOL    HW316363   6.020   6.020   4.078  0.5068 -1.1495 -2.7892
 4149SOL    MW416364   5.961   5.956   4.081  0.1208 -0.8190  0.1657
 4150SOL     OW16365   2.102   3.792   0.853  0.1023  0.4977  0.3358
 4150SOL    HW216366   2.115   3.716   0.910  2.7668  1.3344  0.9827
 4150SOL    HW316367   2.186   3.804   0.809 -1.3082  1.0411 -2.4147
 4150SOL    MW416368   2.115   3.784   0.855  0.2678  0.6798  0.0583
 4151SOL     OW16369   3.762   5.837   4.779 -0.0473  0.1689 -0.1375
 4151SOL    HW216370   3.807   5.921   4.770 -0.6659  0.4132 -1.1657
 4151SOL    HW316371   3.830   5.772   4.765  0.0963  0.5313 -1.2449
 4151SOL    MW416372   3.777   5.840   4.776 -0.1099  0.2489 -0.4193
 4152SOL     OW16373   5.843   4.219   3.737 -0.0499 -0.0327  0.2382
 4152SOL    HW216374   5.873   4.129   3.749  0.3637  0.1755  0.8446
 4152SOL    HW316375   5.916   4.272   3.769 -0.8962  0.4908  1.3950
 4152SOL    MW416376   5.857   4.214   3.743 -0.1070  0.0638  0.4708
 4153SOL     OW16377   3.771   2.879   4.994  0.1531 -0.4113  0.6297
 4153SOL    HW216378   3.797   2.786   4.990  0.2149 -0.4258  1.3120
 4153SOL    HW316379   3.747   2.900   4.904  1.5621 -0.6784  0.1651
 4153SOL    MW416380   3.771   2.869   4.981  0.3472 -0.4484  0.6584
 4154SOL     OW16381   0.291   4.216   1.727 -0.5051  0.1793  0.2737
 4154SOL    HW216382   0.247   4.134   1.750 -4.2237  1.8721 -0.0973
 4154SOL    HW316383   0.220   4.276   1.707  2.1304  2.7342 -2.3338
 4154SOL    MW416384   0.276   4.213   1.728 -0.6480  0.7398 -0.1193
 4155SOL     OW16385   3.566   3.105   3.929  0.1150 -0.2374 -0.4435
 4155SOL    HW216386   3.480   3.076   3.961  0.1516 -0.2391 -0.3467
 4155SOL    HW316387   3.547   3.148   3.846  0.0888 -0.7399 -0.6980
 4155SOL    MW416388   3.552   3.107   3.922  0.1164 -0.3039 -0.4643
 4156SOL     OW16389   4.304   4.817   2.494  0.0312  0.4898 -0.1772
 4156SOL    HW216390   4.318   4.778   2.408  0.2501  1.3363 -0.5281
 4156SOL    HW316391   4.308   4.911   2.479  0.0271  0.6444  0.7491
 4156SOL    MW416392   4.307   4.824   2.481  0.0595  0.6219 -0.1013
 4157SOL     OW16393   0.151   2.925   5.945 -0.2083 -0.2299 -0.3251
 4157SOL    HW216394   0.081   2.865   5.972 -0.5710  0.2760 -0.1387
 4157SOL    HW316395   0.229   2.893   5.991 -0.3684 -0.6295 -0.3227
 4157SOL    MW416396   0.152   2.913   5.955 -0.2773 -0.2159 -0.3002
 4158SOL     OW16397   5.881   1.109   1.795  0.0394  0.3840 -0.2746
 4158SOL    HW216398   5.796   1.151   1.809  1.6738  3.7478  0.6579
 4158SOL    HW316399   5.931   1.129   1.874  2.4662  0.6590 -1.7742
 4158SOL    MW416400   5.876   1.117   1.808  0.5752  0.8641 -0.3495
 4159SOL     OW16401   4.495   0.722   4.978 -0.2268 -0.1061  0.8997
 4159SOL    HW216402   4.564   0.779   5.013 -0.1638  0.0045  0.6001
 4159SOL    HW316403   4.542   0.645   4.945 -0.0738  0.6016 -0.6358
 4159SOL    MW416404   4.510   0.720   4.978 -0.1983  0.0019  0.6576
 4160SOL     OW16405   1.369   2.616   2.171  0.1772 -0.3722  0.6184
 4160SOL    HW216406   1.418   2.544   2.209  2.6674  0.2154 -1.2711
 4160SOL    HW316407   1.376   2.686   2.237  1.4631 -0.4791  0.6224
 4160SOL    MW416408   1.376   2.616   2.185  0.6754 -0.3088  0.3696
 4161SOL     OW16409   0.554   3.229   1.722  0.8963 -0.3237 -0.1368
 4161SOL    HW216410   0.523   3.151   1.675 -0.1397 -0.4348  0.6897
 4161SOL    HW316411   0.520   3.303   1.672 -0.8820 -0.4458  0.8323
 4161SOL    MW416412   0.546   3.228   1.709  0.5250 -0.3544  0.1001
 4162SOL     OW16413   3.445   3.686   2.010  0.4146  0.2650 -0.5140
 4162SOL    HW216414   3.410   3.655   2.094 -1.7127 -0.4716 -1.6029
 4162SOL    HW316415   3.538   3.664   2.013  0.4583  0.5074  1.7426
 4162SOL    MW416416   3.453   3.679   2.022  0.1397  0.1998 -0.3599
 4163SOL     OW16417   4.318   1.424   2.710 -0.2751 -1.0730 -0.0463
 4163SOL    HW216418   4.319   1.418   2.615  0.7489  0.7220 -0.1898
 4163SOL    HW316419   4.226   1.441   2.732  0.0546  3.1964 -1.1590
 4163SOL    MW416420   4.306   1.426   2.701 -0.0965 -0.2728 -0.2120
 4164SOL     OW16421   5.056   0.211   5.976  0.1729 -0.4161  0.5788
 4164SOL    HW216422   5.145   0.238   5.994 -0.3599  1.5958  0.3787
 4164SOL    HW316423   5.039   0.242   5.887 -0.8798 -0.3384  0.7895
 4164SOL    MW416424   5.065   0.218   5.966 -0.0363 -0.1404  0.5802
 4165SOL     OW16425   4.073   5.014   3.438  0.4152  0.0128 -0.1263
 4165SOL    HW216426   4.015   5.036   3.365 -0.2021 -0.1051  0.3221
 4165SOL    HW316427   4.059   4.921   3.453  0.9480 -0.0840 -0.2052
 4165SOL    MW416428   4.063   5.005   3.430  0.4041 -0.0155 -0.0775
 4166SOL     OW16429   4.859   3.594   4.449  0.2629  0.4539  0.5119
 4166SOL    HW216430   4.895   3.544   4.523 -1.0301 -0.5852  0.4712
 4166SOL    HW316431   4.795   3.653   4.488  0.5360  0.8454  0.3675
 4166SOL    MW416432   4.855   3.595   4.464  0.1284  0.3685  0.4875
 4167SOL     OW16433   3.213   4.975   2.163 -0.8622  0.4059 -0.0421
 4167SOL    HW216434   3.257   4.931   2.091 -0.0016 -1.0827  1.3231
 4167SOL    HW316435   3.122   4.948   2.155 -0.9877  1.0686 -1.1188
 4167SOL    MW416436   3.207   4.966   2.153 -0.7652  0.2969 -0.0041
 4168SOL     OW16437   1.184   3.226   0.143 -0.1291 -0.9566  0.3346
 4168SOL    HW216438   1.212   3.284   0.213  2.1345 -1.1770 -0.2901
 4168SOL    HW316439   1.218   3.266   0.063 -0.8818 -1.7478 -0.4142
 4168SOL    MW416440   1.192   3.239   0.141  0.0702 -1.0901  0.1534
 4169SOL     OW16441   2.566   4.287   1.897  0.0507  0.5077 -0.2096
 4169SOL    HW216442   2.551   4.315   1.807 -0.3651  2.6278  0.4648
 4169SOL    HW316443   2.647   4.330   1.922  0.1419 -0.0330  0.4405
 4169SOL    MW416444   2.574   4.296   1.888  0.0079  0.7161 -0.0348
 4170SOL     OW16445   3.347   1.086   0.762  0.2367  0.7173  0.6120
 4170SOL    HW216446   3.354   1.037   0.680 -0.4096  0.7758  0.5216
 4170SOL    HW316447   3.371   1.176   0.738 -0.8171  0.9206  0.2984
 4170SOL    MW416448   3.351   1.091   0.748  0.0124  0.7518  0.5587
 4171SOL     OW16449   0.264   4.224   3.687  0.1511 -0.3810 -0.1300
 4171SOL    HW216450   0.358   4.230   3.698  0.4134 -2.6328 -0.6361
 4171SOL    HW316451   0.246   4.269   3.605  1.1845 -2.0497 -1.3418
 4171SOL    MW416452   0.274   4.230   3.678  0.3220 -0.8983 -0.3567
 4172SOL     OW16453   0.244   0.898   0.259  0.4049  0.1449 -0.6502
 4172SOL    HW216454   0.233   0.846   0.179  0.8570 -0.0546 -0.5870
 4172SOL    HW316455   0.214   0.985   0.235 -1.9071 -0.4926 -0.2940
 4172SOL    MW416456   0.239   0.903   0.245  0.1595  0.0345 -0.5949
 4173SOL     OW16457   1.134   3.913   1.676 -0.3046  0.0630 -0.2496
 4173SOL    HW216458   1.132   3.848   1.606 -1.2294 -1.7423  1.3403
 4173SOL    HW316459   1.153   3.863   1.755 -4.6888  0.9526  1.6926
 4173SOL    MW416460   1.136   3.898   1.677 -1.0051 -0.0578  0.2164
 4174SOL     OW16461   6.414   3.562   2.305 -0.5148 -0.1530  0.2828
 4174SOL    HW216462   6.423   3.489   2.244 -1.5809 -1.2414  1.4024
 4174SOL    HW316463   6.483   3.549   2.369 -0.2710  0.2206  0.1017
 4174SOL    MW416464   6.424   3.551   2.305 -0.6233 -0.2473  0.4066
 4175SOL     OW16465   1.434   1.752   4.629  0.3540 -0.1095  0.4068
 4175SOL    HW216466   1.399   1.828   4.582  0.0562 -0.5999 -0.1815
 4175SOL    HW316467   1.423   1.679   4.568  2.2046 -0.3312  0.2584
 4175SOL    MW416468   1.428   1.752   4.614  0.5589 -0.2034  0.3096
 4176SOL     OW16469   5.373   6.322   0.840 -0.2241  0.0002 -0.4434
 4176SOL    HW216470   5.290   6.283   0.868  0.3739  0.8882  3.1019
 4176SOL    HW316471   5.351   6.411   0.815 -0.4763 -0.0716 -0.4808
 4176SOL    MW416472   5.359   6.328   0.841 -0.1784  0.1079  0.0194
 4177SOL     OW16473   6.210   2.892   6.354 -0.1188  0.0348 -0.7096
 4177SOL    HW216474   6.197   2.877   6.448  0.9281  0.1911 -0.5239
 4177SOL    HW316475   6.234   2.806   6.320  3.2010  0.5820 -0.1276
 4177SOL    MW416476   6.211   2.879   6.362  0.4573  0.1276 -0.6083
 4178SOL     OW16477   1.062   4.809   1.982  0.6140 -0.5266  0.2024
 4178SOL    HW216478   1.100   4.773   2.062  1.7551 -1.4521 -0.6982
 4178SOL    HW316479   0.987   4.753   1.963  1.3254 -1.3522 -0.2378
 4178SOL    MW416480   1.057   4.797   1.990  0.8584 -0.7576  0.0255
 4179SOL     OW16481   2.008   5.957   0.130  0.0628 -0.0500  0.1588
 4179SOL    HW216482   1.987   5.882   0.185 -1.1583 -0.0653 -0.3080
 4179SOL    HW316483   1.925   6.003   0.119  0.4461  0.3831 -1.0374
 4179SOL    MW416484   1.994   5.953   0.136 -0.0477  0.0051 -0.0606
 4180SOL     OW16485   1.349   3.571   2.130  0.3330 -0.1168 -0.5724
 4180SOL    HW216486   1.259   3.538   2.123 -0.5773  1.9447  0.5818
 4180SOL    HW316487   1.353   3.641   2.064  1.3333 -0.6590 -1.0994
 4180SOL    MW416488   1.337   3.576   2.120  0.3449  0.0836 -0.4897
 4181SOL     OW16489   5.390   0.691   5.668  0.0028 -0.1226 -0.7322
 4181SOL    HW216490   5.470   0.731   5.705 -0.1767 -0.9032  0.5854
 4181SOL    HW316491   5.349   0.761   5.619  0.6761  0.7724 -0.0628
 4181SOL    MW416492   5.395   0.706   5.667  0.0679 -0.1075 -0.4700
 4182SOL     OW16493   2.883   2.721   6.087 -0.2807 -0.5090  0.5355
 4182SOL    HW216494   2.955   2.658   6.080 -0.4504 -0.7850  1.2312
 4182SOL    HW316495   2.852   2.732   5.997  1.1000  0.1681  0.1098
 4182SOL    MW416496   2.889   2.714   6.074 -0.1209 -0.4560  0.5711
 4183SOL     OW16497   1.100   4.859   0.662  0.0608  0.0875 -0.6580
 4183SOL    HW216498   1.177   4.915   0.669  0.5760 -0.7321  0.4085
 4183SOL    HW316499   1.040   4.908   0.606  0.7074  1.4627 -0.1830
 4183SOL    MW416500   1.102   4.873   0.655  0.2141  0.1608 -0.4546
 4184SOL     OW16501   4.650   4.636   5.457  0.2297  0.2710 -0.3099
 4184SOL    HW216502   4.619   4.553   5.491 -1.0208  0.8356 -0.0196
 4184SOL    HW316503   4.717   4.664   5.519 -1.9419  1.2363  1.7680
 4184SOL    MW416504   4.655   4.629   5.470 -0.2218  0.4728  0.0026
 4185SOL     OW16505   6.148   6.166   4.042 -0.3939  0.3708  0.2442
 4185SOL    HW216506   6.175   6.226   3.972  0.6597  0.0550  0.3658
 4185SOL    HW316507   6.169   6.212   4.123  1.4747 -0.5776  0.3466
 4185SOL    MW416508   6.154   6.180   4.043 -0.0083  0.2040  0.2738
 4186SOL     OW16509   4.807   3.961   1.966  0.6985  0.2411  0.8389
 4186SOL    HW216510   4.862   4.025   1.920 -0.1174  0.2263 -0.1813
 4186SOL    HW316511   4.789   4.002   2.050  1.3047  0.7575  0.7332
 4186SOL    MW416512   4.812   3.975   1.971  0.6708  0.3073  0.6903
 4187SOL     OW16513   1.592   0.890   1.875 -0.1652 -0.4934  0.1321
 4187SOL    HW216514   1.677   0.851   1.856  0.0566 -0.0376  0.1630
 4187SOL    HW316515   1.573   0.944   1.798  0.1808  0.4222  0.6745
 4187SOL    MW416516   1.601   0.892   1.862 -0.0903 -0.3125  0.2077
 4188SOL     OW16517   2.526   0.165   0.752  0.0753  0.2331 -0.6144
 4188SOL    HW216518   2.504   0.121   0.670  0.8097 -0.3277 -0.5193
 4188SOL    HW316519   2.570   0.098   0.804  0.1735  0.7610 -0.0062
 4188SOL    MW416520   2.529   0.150   0.748  0.1851  0.2287 -0.5216
 4189SOL     OW16521   3.966   2.290   2.654 -0.4868 -0.8766 -0.0090
 4189SOL    HW216522   3.965   2.303   2.749 -1.6656 -1.8794  0.1452
 4189SOL    HW316523   4.054   2.257   2.635  0.2063  0.5534  0.5236
 4189SOL    MW416524   3.977   2.287   2.664 -0.5509 -0.8202  0.0816
 4190SOL     OW16525   0.657   5.801   2.556 -0.1923  1.0057  0.7480
 4190SOL    HW216526   0.611   5.831   2.635 -1.5263  0.2283  0.2903
 4190SOL    HW316527   0.740   5.766   2.589 -1.0798 -0.0781  1.9159
 4190SOL    MW416528   0.662   5.800   2.571 -0.4854  0.7601  0.8417
 4191SOL     OW16529   1.116   4.908   5.280  0.0686 -0.2120  0.1931
 4191SOL    HW216530   1.153   4.835   5.330 -0.5554 -0.6192  0.0773
 4191SOL    HW316531   1.027   4.917   5.314  0.5426  1.3465  1.1038
 4191SOL    MW416532   1.109   4.900   5.291  0.0488 -0.0601  0.2980
 4192SOL     OW16533   3.582   2.900   1.181  0.2599  0.2691  0.1953
 4192SOL    HW216534   3.510   2.837   1.191  0.4206 -0.1131 -0.8546
 4192SOL    HW316535   3.631   2.894   1.263 -0.2600 -0.2992  0.4761
 4192SOL    MW416536   3.579   2.891   1.193  0.2125  0.1437  0.0938
 4193SOL     OW16537   2.607   2.910   3.693 -0.1671  0.4409  0.0222
 4193SOL    HW216538   2.621   2.817   3.711 -0.6435  0.3499 -0.0650
 4193SOL    HW316539   2.686   2.953   3.726  0.8454 -0.1788 -1.4866
 4193SOL    MW416540   2.620   2.903   3.700 -0.0963  0.3472 -0.1884
 4194SOL     OW16541   2.968   4.621   0.141  0.4444 -0.3444 -0.9271
 4194SOL    HW216542   2.973   4.716   0.149  0.2704 -0.4468  0.7439
 4194SOL    HW316543   3.006   4.602   0.055 -0.8288  1.3274 -1.9304
 4194SOL    MW416544   2.974   4.631   0.131  0.2535 -0.1374 -0.8390
 4195SOL     OW16545   5.658   4.527   2.717  0.5269  0.1141 -0.3977
 4195SOL    HW216546   5.750   4.538   2.739 -0.0643 -0.4237  2.8372
 4195SOL    HW316547   5.658   4.461   2.647  2.5453 -1.1481  0.6884
 4195SOL    MW416548   5.670   4.520   2.710  0.7152 -0.1234  0.1724
 4196SOL     OW16549   5.164   5.108   1.779 -0.5353  0.0758 -0.4753
 4196SOL    HW216550   5.222   5.068   1.843 -0.2776  0.5343 -0.4164
 4196SOL    HW316551   5.082   5.059   1.787 -0.1175 -0.6600 -0.6521
 4196SOL    MW416552   5.161   5.096   1.789 -0.4462  0.0392 -0.4909
 4197SOL     OW16553   3.752   3.447   1.135 -0.3417  0.2906  0.1464
 4197SOL    HW216554   3.709   3.365   1.158  1.1197 -1.5733 -2.9497
 4197SOL    HW316555   3.837   3.442   1.179  0.4674 -0.8473 -1.4257
 4197SOL    MW416556   3.758   3.435   1.144 -0.0422 -0.1055 -0.4696
 4198SOL     OW16557   2.827   2.540   2.987  0.0574  0.4772 -0.4696
 4198SOL    HW216558   2.851   2.450   2.963 -0.2855  0.3310 -0.2639
 4198SOL    HW316559   2.860   2.551   3.076 -0.9114  0.1713 -0.0699
 4198SOL    MW416560   2.835   2.530   2.996 -0.1157  0.4176 -0.3897
 4199SOL     OW16561   1.034   1.708   5.986 -0.1891  0.2059 -0.4990
 4199SOL    HW216562   0.958   1.729   5.930 -0.9685  0.1175  0.4951
 4199SOL    HW316563   1.082   1.790   5.992 -1.5917  0.9926  0.9006
 4199SOL    MW416564   1.030   1.722   5.979 -0.4770  0.2980 -0.1832
 4200SOL     OW16565   5.330   2.730   4.606  0.1046 -0.4353  0.2091
 4200SOL    HW216566   5.363   2.812   4.641 -1.1285 -0.2215  0.9244
 4200SOL    HW316567   5.331   2.669   4.680 -1.3166 -0.3433  0.3385
 4200SOL    MW416568   5.334   2.733   4.620 -0.2456 -0.3949  0.3206
 4201SOL     OW16569   0.039   1.021   2.951  0.1242 -0.2134 -0.0515
 4201SOL    HW216570  -0.004   1.066   2.879  1.2375 -0.1431 -0.6981
 4201SOL    HW316571   0.123   1.066   2.961  0.9207 -1.6039 -0.1869
 4201SOL    MW416572   0.045   1.033   2.943  0.3761 -0.3876 -0.1547
 4202SOL     OW16573   2.982   1.308   3.000  0.3699  0.0646 -0.2399
 4202SOL    HW216574   2.993   1.250   3.075  0.4632  1.3897  0.8027
 4202SOL    HW316575   2.891   1.338   3.006  0.4628  0.4010 -0.4860
 4202SOL    MW416576   2.971   1.304   3.011  0.3945  0.2838 -0.1349
 4203SOL     OW16577   4.351   5.683   5.202 -0.4536 -0.0695  0.3138
 4203SOL    HW216578   4.278   5.642   5.247 -0.4459 -0.1355  0.2658
 4203SOL    HW316579   4.428   5.657   5.253 -0.4643  0.0095  0.3710
 4203SOL    MW416580   4.352   5.674   5.215 -0.4540 -0.0678  0.3150
 4204SOL     OW16581   6.337   3.539   2.783 -0.0142 -0.7876 -0.5914
 4204SOL    HW216582   6.406   3.499   2.730 -0.2435 -0.6184 -1.0278
 4204SOL    HW316583   6.372   3.542   2.871  0.2228 -1.4432 -0.6590
 4204SOL    MW416584   6.350   3.534   2.788 -0.0132 -0.8518 -0.6579
 4205SOL     OW16585   5.749   0.826   4.615 -0.2894 -0.0330  0.4211
 4205SOL    HW216586   5.668   0.876   4.605  0.3335  0.9836  0.2741
 4205SOL    HW316587   5.723   0.734   4.604 -1.1997  0.3645 -0.9986
 4205SOL    MW416588   5.735   0.820   4.612 -0.3273  0.1536  0.2144
 4206SOL     OW16589   0.591   6.331   4.061  0.3211 -0.1688 -0.4144
 4206SOL    HW216590   0.524   6.390   4.096  1.7497  1.4636 -0.3482
 4206SOL    HW316591   0.569   6.323   3.968 -0.6747 -0.6670 -0.1523
 4206SOL    MW416592   0.579   6.338   4.053  0.3782 -0.0192 -0.3711
 4207SOL     OW16593   2.122   1.007   2.959  0.4188 -0.7510  0.0630
 4207SOL    HW216594   2.202   1.031   3.004  0.0510 -0.6659  0.6701
 4207SOL    HW316595   2.058   0.991   3.028 -0.4880  0.5229 -0.4363
 4207SOL    MW416596   2.124   1.008   2.974  0.2507 -0.5717  0.0772
 4208SOL     OW16597   2.866   2.550   3.260  0.3064 -0.1556 -0.0752
 4208SOL    HW216598   2.863   2.639   3.292 -3.9626 -0.7050  1.6442
 4208SOL    HW316599   2.922   2.503   3.322  0.2265  0.7633  0.7000
 4208SOL    MW416600   2.873   2.555   3.272 -0.2674 -0.1069  0.2539
 4209SOL     OW16601   2.506   4.237   6.375  0.1680 -0.6167 -0.4791
 4209SOL    HW216602   2.423   4.205   6.411  0.4566 -1.5044 -0.5831
 4209SOL    HW316603   2.563   4.247   6.451 -0.0206 -0.0089 -0.4078
 4209SOL    MW416604   2.503   4.234   6.390  0.1812 -0.6536 -0.4834
 4210SOL     OW16605   2.931   0.569   3.552 -0.1320  0.0707  0.9095
 4210SOL    HW216606   2.852   0.522   3.581 -1.2385  1.1180 -0.2736
 4210SOL    HW316607   2.965   0.609   3.632 -0.5769 -0.7068  1.5084
 4210SOL    MW416608   2.925   0.568   3.566 -0.3367  0.1063  0.8324
 4211SOL     OW16609   4.735   2.861   5.091  0.3729 -0.2143 -0.3628
 4211SOL    HW216610   4.815   2.811   5.107  0.8868  0.2692 -1.3410
 4211SOL    HW316611   4.715   2.845   4.999 -1.2158 -1.0949  0.0925
 4211SOL    MW416612   4.743   2.852   5.081  0.2311 -0.2667 -0.4318
 4212SOL     OW16613   5.674   2.314   1.154 -0.5045  0.0566  0.9929
 4212SOL    HW216614   5.744   2.306   1.219 -0.5263 -0.5310  0.9531
 4212SOL    HW316615   5.653   2.223   1.131  0.0092  0.2678 -0.3786
 4212SOL    MW416616   5.681   2.301   1.160 -0.4396  0.0070  0.8067
 4213SOL     OW16617   5.623   4.727   3.111 -0.5974 -0.7241 -0.1825
 4213SOL    HW216618   5.575   4.660   3.064 -1.0764 -1.4916  1.3315
 4213SOL    HW316619   5.565   4.752   3.183  0.2636  0.1186  0.2398
 4213SOL    MW416620   5.609   4.722   3.115 -0.5470 -0.7142  0.0730
 4214SOL     OW16621   6.185   0.738   0.586 -0.0393  0.2353  0.9060
 4214SOL    HW216622   6.133   0.712   0.662 -2.0083  0.0003 -0.4285
 4214SOL    HW316623   6.179   0.834   0.584 -1.4778  0.1629  0.1305
 4214SOL    MW416624   6.177   0.747   0.596 -0.4889  0.1948  0.6276
 4215SOL     OW16625   2.110   4.609   0.090 -0.0844 -0.0856 -0.9146
 4215SOL    HW216626   2.119   4.527   0.138  0.3743 -0.3716 -1.4715
 4215SOL    HW316627   2.053   4.663   0.145  0.1150 -0.5416 -0.2441
 4215SOL    MW416628   2.104   4.606   0.104  0.0024 -0.1835 -0.8996
 4216SOL     OW16629   2.960   0.432   4.823  0.4560 -0.0781 -0.0768
 4216SOL    HW216630   2.904   0.413   4.898  0.5736 -1.3040 -0.2868
 4216SOL    HW316631   2.920   0.510   4.783 -0.2306 -0.0548  0.6331
 4216SOL    MW416632   2.947   0.440   4.828  0.3809 -0.2368 -0.0108
 4217SOL     OW16633   0.455   3.196   0.511 -0.0464 -0.1424  0.2079
 4217SOL    HW216634   0.519   3.245   0.563 -0.9360  1.8753 -0.4877
 4217SOL    HW316635   0.437   3.118   0.564  1.2312  0.3827  1.5151
 4217SOL    MW416636   0.461   3.193   0.525  0.0048  0.1931  0.2886
 4218SOL     OW16637   4.369   3.246   3.392  0.4271 -0.5772  0.4734
 4218SOL    HW216638   4.290   3.267   3.443  0.2066 -0.1379 -0.0348
 4218SOL    HW316639   4.399   3.331   3.360  0.5290 -0.8538 -0.1711
 4218SOL    MW416640   4.362   3.260   3.395  0.4115 -0.5557  0.3213
 4219SOL     OW16641   1.344   5.937   1.300 -0.3537  0.1410  0.2979
 4219SOL    HW216642   1.355   5.886   1.380 -0.7312  2.2642  1.7857
 4219SOL    HW316643   1.401   6.013   1.312  0.3846  0.0178 -1.9392
 4219SOL    MW416644   1.353   5.940   1.312 -0.3061  0.4049  0.1990
 4220SOL     OW16645   4.021   2.773   2.262  0.8141  0.6396  0.0427
 4220SOL    HW216646   4.031   2.824   2.182 -0.1528  0.7875  0.0059
 4220SOL    HW316647   4.012   2.682   2.232  1.3223  0.5856  0.0410
 4220SOL    MW416648   4.021   2.768   2.248  0.7536  0.6520  0.0376
 4221SOL     OW16649   2.319   1.834   2.321 -1.0202  0.4602  0.2476
 4221SOL    HW216650   2.363   1.763   2.370  0.2738 -0.0427 -1.5424
 4221SOL    HW316651   2.327   1.808   2.229 -2.0325  2.1195 -0.3456
 4221SOL    MW416652   2.326   1.821   2.316 -0.9830  0.6128 -0.0668
 4222SOL     OW16653   2.233   5.175   6.438 -0.0331  0.2024  0.5271
 4222SOL    HW216654   2.295   5.112   6.475  1.2763  0.8181 -0.4932
 4222SOL    HW316655   2.149   5.130   6.438  0.7172 -1.2609  0.5277
 4222SOL    MW416656   2.230   5.161   6.443  0.2387  0.0906  0.3925
 4223SOL     OW16657   4.798   3.316   2.405  0.0980  0.2301 -0.2914
 4223SOL    HW216658   4.818   3.257   2.477  1.0514  1.7624  0.7321
 4223SOL    HW316659   4.873   3.309   2.346  0.3257  0.6131 -0.0452
 4223SOL    MW416660   4.810   3.307   2.406  0.2538  0.4828 -0.1239
 4224SOL     OW16661   3.617   3.810   5.448 -0.1400 -0.1528 -0.1683
 4224SOL    HW216662   3.603   3.741   5.512  0.4580 -1.6878 -1.6266
 4224SOL    HW316663   3.701   3.789   5.407  0.1225  1.5206 -0.5620
 4224SOL    MW416664   3.626   3.798   5.451 -0.0265 -0.1346 -0.4127
 4225SOL     OW16665   2.054   5.503   0.995 -0.0261 -0.8139 -0.3671
 4225SOL    HW216666   2.039   5.489   1.088  1.2061 -0.9558 -0.1723
 4225SOL    HW316667   2.127   5.445   0.973  0.0117 -0.4328 -1.3018
 4225SOL    MW416668   2.062   5.494   1.004  0.1415 -0.7823 -0.4647
 4226SOL     OW16669   6.063   4.841   1.750 -0.1284 -0.0392  0.5601
 4226SOL    HW216670   5.980   4.792   1.751 -1.3960  1.9742  0.3401
 4226SOL    HW316671   6.036   4.932   1.760  2.0522  0.7197 -0.0668
 4226SOL    MW416672   6.048   4.846   1.751 -0.0079  0.3266  0.4484
 4227SOL     OW16673   1.509   0.566   2.512 -0.3646 -0.1547  0.4640
 4227SOL    HW216674   1.460   0.649   2.507 -0.2217 -0.1233 -0.7402
 4227SOL    HW316675   1.601   0.592   2.511 -0.3060 -0.2784  1.4666
 4227SOL    MW416676   1.514   0.580   2.511 -0.3381 -0.1668  0.4374
 4228SOL     OW16677   0.839   1.865   1.626 -0.0817  0.0715 -0.3130
 4228SOL    HW216678   0.799   1.885   1.710  0.2416 -1.8769  0.3576
 4228SOL    HW316679   0.768   1.875   1.562 -1.0442 -1.0024  0.5447
 4228SOL    MW416680   0.824   1.869   1.628 -0.1661 -0.3272 -0.1114
 4229SOL     OW16681   2.651   3.526   2.248  0.3881 -0.2015 -0.1544
 4229SOL    HW216682   2.657   3.459   2.180 -2.2816  0.0082 -0.6860
 4229SOL    HW316683   2.582   3.495   2.306 -0.0945  1.5062  0.2492
 4229SOL    MW416684   2.643   3.513   2.247 -0.0278  0.0515 -0.1713
 4230SOL     OW16685   3.220   4.389   1.120  0.5417  0.3274  0.3633
 4230SOL    HW216686   3.236   4.305   1.162  0.3158 -0.2589 -0.6898
 4230SOL    HW316687   3.269   4.452   1.173  0.3239 -0.3886  1.4460
 4230SOL    MW416688   3.229   4.386   1.132  0.4832  0.1556  0.3672
 4231SOL     OW16689   4.193   1.401   3.655  0.3782 -0.8219 -0.0355
 4231SOL    HW216690   4.199   1.495   3.643  0.1528 -1.0677 -2.5259
 4231SOL    HW316691   4.105   1.379   3.623  0.9369 -2.0237 -0.8080
 4231SOL    MW416692   4.182   1.410   3.649  0.4222 -1.0129 -0.4660
 4232SOL     OW16693   1.555   2.801   5.513  0.0778  0.4807 -0.0393
 4232SOL    HW216694   1.542   2.804   5.608 -2.9967 -0.6179 -0.3077
 4232SOL    HW316695   1.639   2.756   5.502 -0.5344 -1.4149  2.1904
 4232SOL    MW416696   1.564   2.795   5.524 -0.4086  0.0857  0.2195
 4233SOL     OW16697   1.476   3.147   0.392 -0.0785  0.3072  0.2093
 4233SOL    HW216698   1.514   3.176   0.475 -1.9946  0.7748  0.9801
 4233SOL    HW316699   1.381   3.160   0.403 -0.4954 -0.8267 -1.5781
 4233SOL    MW416700   1.468   3.152   0.404 -0.3863  0.2193  0.0751
 4234SOL     OW16701   1.841   0.645   0.692  0.1756 -0.3669 -0.0485
 4234SOL    HW216702   1.892   0.665   0.771  1.2892 -1.8488 -0.3324
 4234SOL    HW316703   1.881   0.565   0.658  0.3287  0.7023 -2.6279
 4234SOL    MW416704   1.853   0.637   0.698  0.3428 -0.4213 -0.4263
 4235SOL     OW16705   2.067   5.113   1.130  0.4951  0.7292 -0.0139
 4235SOL    HW216706   1.972   5.106   1.124  0.5425  1.1088 -1.6697
 4235SOL    HW316707   2.082   5.189   1.186 -0.1593  0.1496  0.9666
 4235SOL    MW416708   2.056   5.122   1.137  0.4150  0.7028 -0.1030
 4236SOL     OW16709   5.761   5.500   5.936 -0.4578  0.0007 -0.0604
 4236SOL    HW216710   5.744   5.405   5.931  0.8039 -0.2627  0.3366
 4236SOL    HW316711   5.677   5.540   5.914 -0.6405 -1.1941 -1.7561
 4236SOL    MW416712   5.748   5.493   5.933 -0.3154 -0.1917 -0.2318
 4237SOL     OW16713   1.208   4.825   1.123  0.6117  0.6915 -0.8948
 4237SOL    HW216714   1.145   4.855   1.190  1.0861  0.7211 -0.4579
 4237SOL    HW316715   1.243   4.744   1.159 -1.1979 -0.8560 -2.3949
 4237SOL    MW416716   1.204   4.819   1.137  0.4356  0.4913 -1.0351
 4238SOL     OW16717   2.989   1.454   0.631  0.8443 -0.0542  0.0498
 4238SOL    HW216718   2.901   1.489   0.624  0.6830 -0.5511 -0.4304
 4238SOL    HW316719   2.998   1.429   0.723 -0.4458 -2.3761 -0.3747
 4238SOL    MW416720   2.979   1.455   0.643  0.6528 -0.4261 -0.0695
 4239SOL     OW16721   5.333   4.436   2.467  0.3225 -0.3935  1.0172
 4239SOL    HW216722   5.255   4.390   2.500 -1.2404  0.6315 -1.0205
 4239SOL    HW316723   5.333   4.519   2.514 -0.1178 -0.1929  0.6694
 4239SOL    MW416724   5.323   4.440   2.477  0.0582 -0.2318  0.7025
 4240SOL     OW16725   5.844   1.180   6.252 -0.3914 -0.3372 -0.1506
 4240SOL    HW216726   5.896   1.159   6.330  1.0556 -0.4954 -1.1229
 4240SOL    HW316727   5.898   1.150   6.179 -0.5445  2.1608 -1.3602
 4240SOL    MW416728   5.858   1.173   6.253 -0.2207 -0.0285 -0.4385
 4241SOL     OW16729   4.663   5.125   5.114 -0.1655  0.2725  0.4835
 4241SOL    HW216730   4.667   5.039   5.073  1.7806  0.3954  0.3445
 4241SOL    HW316731   4.658   5.107   5.208  0.2840 -0.0001  0.4562
 4241SOL    MW416732   4.663   5.111   5.121  0.1506  0.2528  0.4616
 4242SOL     OW16733   3.876   6.395   1.987 -0.8769 -0.2471  0.7829
 4242SOL    HW216734   3.971   6.390   1.986 -0.7814  1.1337 -0.4310
 4242SOL    HW316735   3.850   6.376   1.896 -1.5139  2.3008  0.3473
 4242SOL    MW416736   3.885   6.392   1.975 -0.9484  0.2713  0.5653
 4243SOL     OW16737   4.906   5.291   3.838 -0.6994  0.4852 -0.1316
 4243SOL    HW216738   4.934   5.355   3.903  0.9458 -1.9546  1.7611
 4243SOL    HW316739   4.989   5.255   3.804 -1.5439 -1.3565 -0.3329
 4243SOL    MW416740   4.921   5.294   3.842 -0.5937 -0.0797  0.0916
 4244SOL     OW16741   5.293   0.963   6.408  0.4560  0.4564  0.4213
 4244SOL    HW216742   5.349   1.040   6.408 -1.1253  1.6935 -1.5360
 4244SOL    HW316743   5.351   0.891   6.382  1.1207  1.7622 -1.9734
 4244SOL    MW416744   5.308   0.964   6.405  0.3351  0.7919 -0.1529
 4245SOL     OW16745   0.809   4.824   5.440  0.2477  0.8504  0.0075
 4245SOL    HW216746   0.804   4.838   5.534 -1.5971  0.8748 -0.0543
 4245SOL    HW316747   0.803   4.912   5.402 -1.2641  0.7157 -0.1469
 4245SOL    MW416748   0.807   4.837   5.447 -0.1952  0.8359 -0.0210
 4246SOL     OW16749   4.029   2.843   5.730  0.2415 -0.5742  0.3331
 4246SOL    HW216750   4.087   2.772   5.761  0.5726 -0.3516  0.2307
 4246SOL    HW316751   4.079   2.923   5.747  0.4367 -0.4457 -0.7848
 4246SOL    MW416752   4.043   2.844   5.737  0.3109 -0.5279  0.1721
 4247SOL     OW16753   3.524   5.278   4.074  0.0861 -0.4382  0.2018
 4247SOL    HW216754   3.508   5.213   4.006 -1.0331  0.1580 -0.1129
 4247SOL    HW316755   3.529   5.226   4.155  2.0806 -1.2283 -0.3534
 4247SOL    MW416756   3.523   5.262   4.076  0.2016 -0.4638  0.0871
 4248SOL     OW16757   6.423   1.829   1.281 -0.1328 -0.1763  0.0581
 4248SOL    HW216758   6.336   1.815   1.320 -0.4798  0.1262 -0.6028
 4248SOL    HW316759   6.481   1.838   1.357 -0.4521 -1.6891  0.5278
 4248SOL    MW416760   6.419   1.828   1.296 -0.2207 -0.3360  0.0329
 4249SOL     OW16761   3.297   3.276   1.517  0.4641 -0.8587  0.3655
 4249SOL    HW216762   3.207   3.308   1.511  0.4170 -0.8174  1.2499
 4249SOL    HW316763   3.342   3.340   1.572  1.7744  0.7123 -2.3293
 4249SOL    MW416764   3.291   3.289   1.523  0.6308 -0.6460  0.1266
 4250SOL     OW16765   6.342   4.584   4.058 -0.3373  0.0622  0.1079
 4250SOL    HW216766   6.433   4.606   4.076  0.1390 -1.4791 -0.2649
 4250SOL    HW316767   6.299   4.669   4.046  1.0072  0.8240  0.4193
 4250SOL    MW416768   6.348   4.598   4.058 -0.0971 -0.0407  0.0998
 4251SOL     OW16769   4.461   1.187   4.343  0.2140  0.3058  0.4306
 4251SOL    HW216770   4.365   1.196   4.338  0.3392  0.9932 -1.4426
 4251SOL    HW316771   4.485   1.139   4.264  1.4147 -0.1132  1.0223
 4251SOL    MW416772   4.451   1.182   4.332  0.3889  0.3412  0.2615
 4252SOL     OW16773   5.357   0.596   4.344  0.0818 -0.4890  0.5259
 4252SOL    HW216774   5.384   0.556   4.261  0.9559  0.0688  0.5274
 4252SOL    HW316775   5.333   0.685   4.320  1.3789  0.0124  1.0210
 4252SOL    MW416776   5.357   0.602   4.330  0.3683 -0.3493  0.5914
 4253SOL     OW16777   5.953   6.012   6.366 -0.1264 -0.0138  0.2591
 4253SOL    HW216778   5.943   6.009   6.271  3.4794  3.0257 -0.4440
 4253SOL    HW316779   6.026   5.954   6.385  2.3961  2.9659  0.3287
 4253SOL    MW416780   5.961   6.004   6.356  0.6821  0.7803  0.1755
 4254SOL     OW16781   2.767   0.400   5.048  0.4886 -0.6004  0.2300
 4254SOL    HW216782   2.706   0.326   5.050 -0.5309  0.2217  0.7905
 4254SOL    HW316783   2.710   0.477   5.038  1.2283  0.3870  2.7930
 4254SOL    MW416784   2.751   0.400   5.047  0.4517 -0.3617  0.6421
 4255SOL     OW16785   0.390   1.190   1.228  0.0450 -0.0386  0.1723
 4255SOL    HW216786   0.336   1.248   1.175  0.1420 -0.1341 -0.0321
 4255SOL    HW316787   0.476   1.233   1.230 -0.0473  0.1328  0.5286
 4255SOL    MW416788   0.394   1.203   1.221  0.0456 -0.0286  0.1924
 4256SOL     OW16789   2.572   1.897   3.559  0.5876 -0.1369  0.3443
 4256SOL    HW216790   2.590   1.913   3.466 -1.1124  2.2219  0.3220
 4256SOL    HW316791   2.640   1.945   3.606 -0.9731  2.3991  0.2313
 4256SOL    MW416792   2.583   1.905   3.553  0.1574  0.5089  0.3265
 4257SOL     OW16793   0.111   2.620   5.808  0.5376 -0.0397  0.6732
 4257SOL    HW216794   0.107   2.548   5.744  1.1761  1.7577 -1.5054
 4257SOL    HW316795   0.106   2.576   5.893 -3.4034 -2.3679 -0.5157
 4257SOL    MW416796   0.110   2.604   5.810  0.1019 -0.1097  0.2289
 4258SOL     OW16797   1.326   6.050   0.752 -0.3215  0.0631 -0.0804
 4258SOL    HW216798   1.300   6.038   0.660 -1.0504 -1.7729  0.3233
 4258SOL    HW316799   1.264   6.114   0.786 -0.6944  0.0005 -0.6281
 4258SOL    MW416800   1.314   6.057   0.744 -0.4669 -0.1874 -0.0994
 4259SOL     OW16801   0.565   1.250   1.697 -0.5352 -0.3955  0.4802
 4259SOL    HW216802   0.611   1.167   1.684  0.4085 -0.5648  3.9467
 4259SOL    HW316803   0.479   1.225   1.732 -0.3811  0.0384  1.1967
 4259SOL    MW416804   0.560   1.236   1.700 -0.3904 -0.3606  1.0321
 4260SOL     OW16805   6.111   2.998   6.105  0.0566  0.4705 -0.1438
 4260SOL    HW216806   6.119   2.953   6.189  0.2831  0.8962  0.0634
 4260SOL    HW316807   6.182   3.062   6.105 -0.2275  0.7900 -0.4656
 4260SOL    MW416808   6.121   3.000   6.116  0.0490  0.5688 -0.1589
 4261SOL     OW16809   1.068   5.039   4.796 -0.2080 -0.4601 -0.0420
 4261SOL    HW216810   1.114   4.963   4.760 -0.6399 -0.5630 -0.3818
 4261SOL    HW316811   1.130   5.077   4.858  0.5044 -0.3586 -0.7993
 4261SOL    MW416812   1.082   5.034   4.799 -0.1710 -0.4603 -0.1867
 4262SOL     OW16813   3.570   2.526   6.448  0.1655  0.0729 -0.2536
 4262SOL    HW216814   3.528   2.448   6.412  1.8559 -1.5398  1.0324
 4262SOL    HW316815   3.535   2.598   6.397 -1.4014 -1.5297 -1.5832
 4262SOL    MW416816   3.560   2.525   6.437  0.1818 -0.3514 -0.2593
 4263SOL     OW16817   6.367   4.947   0.568 -0.6486 -0.2287  0.5005
 4263SOL    HW216818   6.454   4.979   0.546 -1.2192  0.1666 -1.3427
 4263SOL    HW316819   6.373   4.852   0.555 -0.6613 -0.1251 -0.3342
 4263SOL    MW416820   6.379   4.938   0.563 -0.7255 -0.1629  0.1472
 4264SOL     OW16821   3.305   4.254   4.743 -0.3701 -0.6309 -0.0083
 4264SOL    HW216822   3.242   4.325   4.757  0.5819  0.3003 -0.3136
 4264SOL    HW316823   3.360   4.256   4.822  2.0108  1.4901 -1.5603
 4264SOL    MW416824   3.304   4.264   4.756  0.0697 -0.2282 -0.2534
 4265SOL     OW16825   3.730   3.622   2.568 -0.0789 -0.0176  0.0702
 4265SOL    HW216826   3.765   3.685   2.631  0.1397 -0.1096  0.0418
 4265SOL    HW316827   3.776   3.541   2.586  0.5024  0.1354 -0.6676
 4265SOL    MW416828   3.740   3.620   2.579  0.0267 -0.0096 -0.0309
 4266SOL     OW16829   5.606   3.805   2.024 -0.6741 -0.0766  0.1890
 4266SOL    HW216830   5.635   3.869   1.959  2.1105 -0.8984  0.5000
 4266SOL    HW316831   5.537   3.851   2.072 -0.8963  1.5453 -1.5401
 4266SOL    MW416832   5.601   3.820   2.022 -0.3361  0.0290  0.0019
 4267SOL     OW16833   1.139   3.937   2.347 -0.1129  0.6197 -0.9750
 4267SOL    HW216834   1.234   3.939   2.334  0.0598  2.2165  0.2352
 4267SOL    HW316835   1.124   3.983   2.429 -1.9449  0.2746 -1.0535
 4267SOL    MW416836   1.149   3.943   2.356 -0.3319  0.7849 -0.8257
 4268SOL     OW16837   3.490   5.568   1.706 -0.9375  0.1283  0.6246
 4268SOL    HW216838   3.506   5.649   1.659 -0.9801 -0.2464 -0.0531
 4268SOL    HW316839   3.568   5.514   1.688 -1.4574 -0.4458  0.0486
 4268SOL    MW416840   3.503   5.571   1.698 -1.0117  0.0031  0.4592
 4269SOL     OW16841   1.747   6.008   4.779 -0.2179 -0.3529  0.7614
 4269SOL    HW216842   1.773   5.975   4.865  0.0005 -1.9219  0.1270
 4269SOL    HW316843   1.655   6.035   4.790  0.0014  0.0638  1.6270
 4269SOL    MW416844   1.738   6.007   4.791 -0.1601 -0.5049  0.7919
 4270SOL     OW16845   1.466   2.175   0.233  0.4759 -0.6079 -0.2290
 4270SOL    HW216846   1.443   2.086   0.206 -0.1156 -0.3992 -0.4225
 4270SOL    HW316847   1.452   2.228   0.154  0.8403 -0.3465 -0.1178
 4270SOL    MW416848   1.461   2.170   0.219  0.4460 -0.5459 -0.2398
 4271SOL     OW16849   4.019   2.797   4.725  0.1579 -0.3667  0.0518
 4271SOL    HW216850   4.050   2.837   4.806  1.2180  0.3571 -0.6821
 4271SOL    HW316851   4.046   2.706   4.732  1.2282 -0.0638  0.0470
 4271SOL    MW416852   4.026   2.790   4.737  0.4390 -0.2312 -0.0457
 4272SOL     OW16853   1.861   4.081   4.792  0.4400 -0.1705  0.0434
 4272SOL    HW216854   1.882   4.105   4.883  1.6270 -1.7867  0.2261
 4272SOL    HW316855   1.776   4.036   4.798  0.6944 -0.6072  0.4091
 4272SOL    MW416856   1.852   4.078   4.805  0.6302 -0.4414  0.1158
 4273SOL     OW16857   2.606   5.589   2.450  0.0433 -0.0822 -0.0123
 4273SOL    HW216858   2.561   5.667   2.482 -1.1099 -0.8516  0.3145
 4273SOL    HW316859   2.643   5.548   2.528  1.4382  0.5972 -0.2922
 4273SOL    MW416860   2.605   5.594   2.464  0.0752 -0.0940 -0.0061
 4274SOL     OW16861   4.550   4.150   0.975  0.1186  0.4898 -0.1846
 4274SOL    HW216862   4.558   4.162   0.880  0.2623  0.0851 -0.2267
 4274SOL    HW316863   4.486   4.216   1.002 -0.9845 -0.3027 -0.7746
 4274SOL    MW416864   4.543   4.160   0.966 -0.0080  0.3319 -0.2680
 4275SOL     OW16865   2.665   0.616   2.775 -0.1340  0.3795  0.0027
 4275SOL    HW216866   2.585   0.616   2.827  0.4439  3.3815  1.0967
 4275SOL    HW316867   2.735   0.630   2.839  1.0548 -0.1917 -1.1340
 4275SOL    MW416868   2.664   0.618   2.790  0.0991  0.7002 -0.0029
 4276SOL     OW16869   2.923   6.248   5.726 -0.1527  0.2556 -1.0870
 4276SOL    HW216870   2.972   6.192   5.665  0.6106 -0.0805 -0.1873
 4276SOL    HW316871   2.983   6.321   5.743 -0.5428  0.5741 -1.0832
 4276SOL    MW416872   2.938   6.250   5.720 -0.1034  0.2533 -0.9678
 4277SOL     OW16873   0.569   5.166   1.314  0.3161  0.7006  0.0944
 4277SOL    HW216874   0.595   5.199   1.228  1.4865 -0.7181 -0.1372
 4277SOL    HW316875   0.478   5.194   1.324 -0.3477 -0.3222 -2.2486
 4277SOL    MW416876   0.560   5.174   1.304  0.3829  0.3785 -0.2453
 4278SOL     OW16877   2.149   0.564   5.755  0.6023 -0.3787 -0.0799
 4278SOL    HW216878   2.168   0.511   5.832  0.6087 -1.2450 -0.6716
 4278SOL    HW316879   2.203   0.643   5.766  1.2401 -0.8727  0.3796
 4278SOL    MW416880   2.158   0.568   5.766  0.6873 -0.5582 -0.0973
 4279SOL     OW16881   3.743   5.053   6.259  0.3005 -0.4703 -0.4155
 4279SOL    HW216882   3.787   5.137   6.273 -0.0540  0.0563 -2.2851
 4279SOL    HW316883   3.775   4.997   6.331 -0.8166  1.7397  1.9693
 4279SOL    MW416884   3.753   5.057   6.271  0.1063 -0.1093 -0.3476
 4280SOL     OW16885   0.683   2.357   4.664 -0.2324 -0.2906  0.2849
 4280SOL    HW216886   0.696   2.262   4.656 -0.6113 -0.4546  1.4025
 4280SOL    HW316887   0.721   2.393   4.584 -3.7574 -1.6871 -2.2400
 4280SOL    MW416888   0.690   2.349   4.653 -0.7474 -0.4965  0.0992
 4281SOL     OW16889   4.511   0.080   1.473  0.0177  0.0972 -0.0965
 4281SOL    HW216890   4.492   0.080   1.379  1.6254  0.1074 -0.4668
 4281SOL    HW316891   4.485  -0.007   1.503  0.3713 -0.2534 -0.7745
 4281SOL    MW416892   4.505   0.069   1.464  0.2764  0.0523 -0.2348
 4282SOL     OW16893   0.200   3.198   5.919  0.0422 -0.3128  0.0952
 4282SOL    HW216894   0.192   3.110   5.957 -0.8624 -0.3089 -0.0657
 4282SOL    HW316895   0.240   3.250   5.989 -1.2654 -0.3932  0.9441
 4282SOL    MW416896   0.204   3.193   5.933 -0.2497 -0.3229  0.1860
 4283SOL     OW16897   3.850   5.425   4.309 -0.3589 -0.0976  0.2546
 4283SOL    HW216898   3.928   5.371   4.324 -1.6524 -1.9693  0.6220
 4283SOL    HW316899   3.810   5.387   4.231  0.5525  2.6873 -1.7218
 4283SOL    MW416900   3.855   5.413   4.301 -0.4093  0.0229  0.0423
 4284SOL     OW16901   6.352   5.121   6.040  0.0642 -1.0138 -0.8611
 4284SOL    HW216902   6.377   5.062   6.111  1.3593  0.1619 -0.2973
 4284SOL    HW316903   6.431   5.128   5.986  1.3225  3.0050  1.1023
 4284SOL    MW416904   6.366   5.114   6.042  0.4011 -0.3284 -0.5276
 4285SOL     OW16905   4.744   5.217   0.785  0.0942 -0.0790  0.0063
 4285SOL    HW216906   4.668   5.166   0.755  0.7306 -0.5409 -0.8699
 4285SOL    HW316907   4.711   5.307   0.792 -0.7101 -0.3801  0.3302
 4285SOL    MW416908   4.729   5.222   0.782  0.0721 -0.1796 -0.0666
 4286SOL     OW16909   0.299   4.332   2.343  0.3201  0.6366 -0.0393
 4286SOL    HW216910   0.279   4.240   2.329 -0.3152  1.1613 -3.7339
 4286SOL    HW316911   0.218   4.369   2.379  0.6078 -0.1986  1.5389
 4286SOL    MW416912   0.286   4.325   2.346  0.2742  0.5957 -0.3185
 4287SOL     OW16913   2.690   0.648   0.635 -0.0194 -0.1518  0.0974
 4287SOL    HW216914   2.701   0.612   0.722  0.5672  0.6028  0.3545
 4287SOL    HW316915   2.711   0.576   0.576  1.2425 -0.2125  0.5909
 4287SOL    MW416916   2.695   0.634   0.639  0.2245 -0.0603  0.1964
 4288SOL     OW16917   4.276   4.946   3.786  0.3180 -0.4402 -0.6026
 4288SOL    HW216918   4.330   4.961   3.708  2.0089 -0.3805  0.5188
 4288SOL    HW316919   4.235   4.862   3.771  0.3350 -0.2603 -1.7193
 4288SOL    MW416920   4.278   4.937   3.774  0.5434 -0.4086 -0.6019
 4289SOL     OW16921   0.817   3.252   3.861  0.1886 -0.1574 -0.5746
 4289SOL    HW216922   0.909   3.229   3.866  1.1056  2.8574 -1.5369
 4289SOL    HW316923   0.788   3.220   3.776  0.2781 -1.2326 -0.2107
 4289SOL    MW416924   0.825   3.245   3.851  0.3214  0.0985 -0.6536
 4290SOL     OW16925   3.405   3.930   2.983 -0.3453  0.3990 -0.1823
 4290SOL    HW216926   3.449   3.854   2.946 -2.1008 -1.6470  1.6960
 4290SOL    HW316927   3.357   3.968   2.908 -0.7663 -1.3377 -0.8321
 4290SOL    MW416928   3.405   3.925   2.968 -0.6325 -0.1001 -0.0202
 4291SOL     OW16929   1.997   2.301   1.435 -0.0785  0.0259 -0.1171
 4291SOL    HW216930   2.030   2.245   1.506  0.5117  1.3654  0.7033
 4291SOL    HW316931   2.038   2.266   1.356  0.1215 -0.8174  0.3477
 4291SOL    MW416932   2.007   2.289   1.434  0.0258  0.0914  0.0525
 4292SOL     OW16933   3.192   4.484   4.531  0.3393  0.4447 -0.4814
 4292SOL    HW216934   3.279   4.509   4.561  0.6616  0.2151 -1.1939
 4292SOL    HW316935   3.151   4.444   4.607  1.4327 -0.8961 -0.5625
 4292SOL    MW416936   3.198   4.482   4.545  0.5261  0.2375 -0.5861
 4293SOL     OW16937   2.259   2.872   5.667  0.5513  0.4986  0.4657
 4293SOL    HW216938   2.324   2.900   5.602 -0.4961  2.4707  0.1798
 4293SOL    HW316939   2.310   2.852   5.745  1.5647  1.6587  0.1395
 4293SOL    MW416940   2.274   2.873   5.669  0.5468  0.9119  0.3849
 4294SOL     OW16941   5.658   0.593   2.629 -0.1768  0.4973 -0.5047
 4294SOL    HW216942   5.725   0.526   2.643  0.5873  1.5651  1.3600
 4294SOL    HW316943   5.680   0.663   2.691 -3.1078  0.8367  0.3185
 4294SOL    MW416944   5.670   0.594   2.639 -0.4627  0.6830 -0.1501
 4295SOL     OW16945   0.795   2.463   4.112  0.0653  0.1245 -0.2591
 4295SOL    HW216946   0.762   2.413   4.187 -0.6502  1.7708  0.5803
 4295SOL    HW316947   0.762   2.415   4.036 -2.5923  0.5019  0.5268
 4295SOL    MW416948   0.786   2.450   4.112 -0.3798  0.3915 -0.0446
 4296SOL     OW16949   5.170   2.197   1.646 -0.2296  0.7893  0.0077
 4296SOL    HW216950   5.145   2.130   1.709  2.1246 -0.0040  0.1759
 4296SOL    HW316951   5.203   2.269   1.699 -3.1161  2.3695 -0.1505
 4296SOL    MW416952   5.171   2.198   1.661 -0.2998  0.8931  0.0090
 4297SOL     OW16953   0.964   5.140   4.568 -0.1114 -0.3545 -0.1798
 4297SOL    HW216954   0.996   5.104   4.650  0.4948  0.3898 -0.0745
 4297SOL    HW316955   1.029   5.113   4.503  0.1544  0.2180 -0.1623
 4297SOL    MW416956   0.977   5.132   4.570  0.0036 -0.1808 -0.1636
 4298SOL     OW16957   3.775   2.118   1.314  0.2681  0.0661  0.7322
 4298SOL    HW216958   3.732   2.033   1.303 -1.8339  0.8484  2.3598
 4298SOL    HW316959   3.704   2.181   1.317  1.7527  1.8548  0.2680
 4298SOL    MW416960   3.760   2.115   1.313  0.1866  0.4053  0.8857
 4299SOL     OW16961   1.932   4.905   3.844  0.8881 -0.6265 -0.3446
 4299SOL    HW216962   2.008   4.924   3.789 -0.3254 -0.5529 -2.0923
 4299SOL    HW316963   1.857   4.933   3.792 -0.3382 -0.3268  1.4916
 4299SOL    MW416964   1.932   4.911   3.830  0.5662 -0.5773 -0.3330
 4300SOL     OW16965   2.823   4.588   0.496 -0.4281 -0.1507 -0.1423
 4300SOL    HW216966   2.754   4.582   0.431 -0.8546  2.3873 -0.0117
 4300SOL    HW316967   2.793   4.653   0.559  1.7500  0.5229  0.3150
 4300SOL    MW416968   2.810   4.596   0.496 -0.1970  0.2730 -0.0648
 4301SOL     OW16969   4.478   3.895   1.027 -0.4391 -0.2852 -0.8349
 4301SOL    HW216970   4.385   3.909   1.015 -0.6272 -1.1053 -0.4354
 4301SOL    HW316971   4.520   3.969   0.984 -1.2788  0.2139 -0.8065
 4301SOL    MW416972   4.471   3.906   1.020 -0.5747 -0.3275 -0.7784
 4302SOL     OW16973   3.996   2.300   3.762 -0.2466  0.1521  0.4087
 4302SOL    HW216974   4.084   2.316   3.728 -0.2062  1.9593  1.2586
 4302SOL    HW316975   3.938   2.330   3.692 -0.1616  1.4100  0.8534
 4302SOL    MW416976   4.000   2.306   3.748 -0.2301  0.5565  0.5795
 4303SOL     OW16977   2.668   2.162   5.793 -0.1036 -0.0119  0.2996
 4303SOL    HW216978   2.614   2.095   5.835 -1.5957  0.8019 -0.2287
 4303SOL    HW316979   2.627   2.245   5.818  1.5228  0.7106  0.6981
 4303SOL    MW416980   2.655   2.164   5.802 -0.0859  0.1908  0.2825
 4304SOL     OW16981   0.674   4.406   3.505  0.2982 -0.2414 -0.4356
 4304SOL    HW216982   0.709   4.416   3.593 -0.0598 -1.7028 -0.1106
 4304SOL    HW316983   0.698   4.488   3.461  2.5687 -0.4422  0.2834
 4304SOL    MW416984   0.682   4.418   3.511  0.5505 -0.4607 -0.2978
 4305SOL     OW16985   2.379   4.760   2.352 -0.3688  0.6842  0.4494
 4305SOL    HW216986   2.406   4.716   2.432 -0.3200  0.9021  0.5526
 4305SOL    HW316987   2.349   4.846   2.381  1.7684  1.6331 -0.0159
 4305SOL    MW416988   2.378   4.765   2.366 -0.0804  0.8382  0.4016
 4306SOL     OW16989   3.629   2.784   5.314  0.2964 -0.3924 -0.0960
 4306SOL    HW216990   3.560   2.810   5.253 -1.6240 -2.2145  1.1697
 4306SOL    HW316991   3.706   2.771   5.259 -1.1124 -1.0630 -1.9978
 4306SOL    MW416992   3.630   2.786   5.299 -0.1429 -0.7213 -0.1800
 4307SOL     OW16993   0.969   5.980   2.171  0.3817 -0.2891  0.4059
 4307SOL    HW216994   0.899   5.954   2.230  0.5279  0.8039  1.0908
 4307SOL    HW316995   1.043   6.000   2.229  0.9608 -0.5265 -0.2390
 4307SOL    MW416996   0.970   5.979   2.186  0.4774 -0.1762  0.4112
 4308SOL     OW16997   1.583   2.919   6.134 -0.1915  0.1200  0.0250
 4308SOL    HW216998   1.572   2.990   6.071  0.8773  0.0832 -0.2253
 4308SOL    HW316999   1.539   2.949   6.213 -0.1521  0.8479 -0.2279
 4308SOL    MW417000   1.576   2.932   6.136 -0.0453  0.2112 -0.0414
 4309SOL     OW17001   1.060   3.135   3.958 -0.3559 -0.5149  0.3894
 4309SOL    HW217002   1.133   3.077   3.936 -0.0788  0.4906 -1.5748
 4309SOL    HW317003   1.099   3.202   4.015 -0.1014 -0.8377  0.5997
 4309SOL    MW417004   1.075   3.136   3.963 -0.2858 -0.4248  0.1580
 4310SOL     OW17005   4.556   0.165   2.771  0.4602 -0.0812  0.2298
 4310SOL    HW217006   4.592   0.160   2.682  1.6254  0.9989  0.6111
 4310SOL    HW317007   4.507   0.247   2.772 -1.1768 -0.9985  0.0589
 4310SOL    MW417008   4.554   0.175   2.759  0.3980 -0.0597  0.2576
 4311SOL     OW17009   0.048   2.089   4.702 -0.8036  0.2692  0.1374
 4311SOL    HW217010   0.032   2.171   4.747 -1.7903  0.4066 -0.4513
 4311SOL    HW317011   0.045   2.111   4.609 -0.8033 -0.3850 -0.0243
 4311SOL    MW417012   0.046   2.102   4.695 -0.9337  0.2010  0.0384
 4312SOL     OW17013   2.458   3.490   3.521  0.1026 -0.2701  0.7357
 4312SOL    HW217014   2.483   3.423   3.458 -1.7143 -1.1280  0.8632
 4312SOL    HW317015   2.541   3.530   3.548  1.0316 -0.7761 -1.1713
 4312SOL    MW417016   2.472   3.487   3.516 -0.0145 -0.4501  0.5009
 4313SOL     OW17017   0.940   1.312   1.023 -0.1223 -0.5710  0.0202
 4313SOL    HW217018   0.939   1.216   1.018 -0.3669 -0.5380 -0.7308
 4313SOL    HW317019   0.878   1.340   0.955 -1.6808  0.0691  1.6308
 4313SOL    MW417020   0.932   1.303   1.013 -0.3602 -0.4822  0.1336
 4314SOL     OW17021   1.319   1.050   1.763 -0.1123 -0.2712  0.4727
 4314SOL    HW217022   1.328   1.101   1.682 -0.5999  1.1119  1.2552
 4314SOL    HW317023   1.296   0.962   1.734  4.1647 -1.1106 -1.1601
 4314SOL    MW417024   1.317   1.045   1.749  0.3877 -0.1994  0.3605
 4315SOL     OW17025   3.660   2.388   2.916 -0.0303 -0.0710  0.1210
 4315SOL    HW217026   3.745   2.343   2.913 -0.1817 -0.3319 -0.2648
 4315SOL    HW317027   3.676   2.473   2.875 -0.1295 -0.4119 -0.6428
 4315SOL    MW417028   3.673   2.393   2.910 -0.0634 -0.1504 -0.0307
 4316SOL     OW17029   5.122   0.395   4.852  0.3476  0.2620  0.4099
 4316SOL    HW217030   5.027   0.388   4.853  0.4040 -1.5319  3.0893
 4316SOL    HW317031   5.145   0.429   4.939  2.1768  0.8920 -0.2536
 4316SOL    MW417032   5.113   0.399   4.864  0.5964  0.1084  0.6759
 4317SOL     OW17033   5.362   3.408   0.473 -0.0904  0.2885  0.3833
 4317SOL    HW217034   5.330   3.322   0.497 -0.6509 -0.1058 -1.6326
 4317SOL    HW317035   5.293   3.468   0.501 -1.6286 -0.3395 -1.8035
 4317SOL    MW417036   5.349   3.405   0.480 -0.3673  0.1536 -0.1712
 4318SOL     OW17037   5.172   2.802   5.425 -0.2396  0.0575 -0.0899
 4318SOL    HW217038   5.245   2.806   5.486 -0.4122  1.5249  0.0577
 4318SOL    HW317039   5.188   2.873   5.363  0.5267 -2.0804 -2.4917
 4318SOL    MW417040   5.184   2.812   5.425 -0.1613 -0.0310 -0.3873
 4319SOL     OW17041   3.902   5.424   3.026 -0.0953  0.1343 -0.3268
 4319SOL    HW217042   3.993   5.399   3.043  0.2092  1.1034 -0.4691
 4319SOL    HW317043   3.875   5.471   3.104 -1.0579 -1.5897  0.4503
 4319SOL    MW417044   3.910   5.427   3.038 -0.1822  0.0347 -0.2431
 4320SOL     OW17045   3.267   1.536   0.991  0.6339  0.0018 -0.3330
 4320SOL    HW217046   3.258   1.531   1.086  1.0258 -0.3658 -0.3130
 4320SOL    HW317047   3.347   1.486   0.972 -1.0571 -2.6187 -1.1300
 4320SOL    MW417048   3.276   1.528   1.001  0.4625 -0.3924 -0.4355
 4321SOL     OW17049   5.021   4.961   4.970 -0.2467  0.1840 -0.1446
 4321SOL    HW217050   4.996   5.041   5.016  0.1255 -1.3448  2.9859
 4321SOL    HW317051   4.980   4.890   5.021  2.4667 -1.8069 -0.4913
 4321SOL    MW417052   5.012   4.962   4.983  0.1604 -0.2804  0.2227
 4322SOL     OW17053   6.226   0.935   6.104 -0.2932 -0.4230  0.3210
 4322SOL    HW217054   6.282   1.003   6.065 -1.9145  2.4773  2.7053
 4322SOL    HW317055   6.288   0.873   6.143  1.2549  0.3518 -0.7903
 4322SOL    MW417056   6.242   0.936   6.104 -0.3029  0.0619  0.4890
 4323SOL     OW17057   3.691   2.497   4.307  0.0072 -0.1600 -0.0102
 4323SOL    HW217058   3.781   2.529   4.302 -0.2374  0.8292  1.4113
 4323SOL    HW317059   3.646   2.561   4.361 -1.8772  0.0493 -1.7201
 4323SOL    MW417060   3.697   2.509   4.313 -0.2737 -0.0019 -0.0482
 4324SOL     OW17061   1.095   5.451   1.005  0.5925  0.4471  0.1546
 4324SOL    HW217062   1.124   5.499   0.928  0.9439 -0.3290 -0.2114
 4324SOL    HW317063   1.004   5.477   1.018  0.2344 -0.1407 -1.0939
 4324SOL    MW417064   1.087   5.460   0.997  0.5916  0.2672 -0.0584
 4325SOL     OW17065   5.628   4.118   3.280 -0.4054  0.1801  0.1688
 4325SOL    HW217066   5.696   4.125   3.213 -0.2962  1.1431  0.3663
 4325SOL    HW317067   5.605   4.025   3.281  0.9004 -0.1620  0.1061
 4325SOL    MW417068   5.634   4.107   3.271 -0.2187  0.2620  0.1865
 4326SOL     OW17069   3.845   1.661   5.651  0.4097  0.0077  0.2949
 4326SOL    HW217070   3.931   1.623   5.633 -0.3082 -1.7356  0.3549
 4326SOL    HW317071   3.840   1.665   5.747 -0.7262 -2.8858  0.4599
 4326SOL    MW417072   3.856   1.656   5.661  0.1651 -0.6041  0.3246
 4327SOL     OW17073   0.890   3.433   5.710  0.0766  1.2883 -0.2463
 4327SOL    HW217074   0.801   3.462   5.689  0.8146  3.6828 -0.3959
 4327SOL    HW317075   0.887   3.410   5.803 -0.6524  1.5928 -0.1918
 4327SOL    MW417076   0.878   3.434   5.720  0.0778  1.6444 -0.2588
 4328SOL     OW17077   3.784   1.093   1.235  0.6669  0.2063 -0.0430
 4328SOL    HW217078   3.724   1.020   1.223 -0.2431  0.5452  2.0628
 4328SOL    HW317079   3.730   1.171   1.219  1.1330  0.4658 -0.3660
 4328SOL    MW417080   3.769   1.094   1.231  0.6084  0.2852  0.1922
 4329SOL     OW17081   2.038   2.782   2.687  0.1747  0.3119  0.1372
 4329SOL    HW217082   1.999   2.705   2.647 -1.5555  1.5897 -0.7549
 4329SOL    HW317083   2.132   2.762   2.691 -0.1864 -1.6955 -0.3178
 4329SOL    MW417084   2.045   2.769   2.682 -0.1012  0.2156 -0.0405
 4330SOL     OW17085   1.027   3.593   3.164 -0.0717  0.8170 -0.0499
 4330SOL    HW217086   1.088   3.655   3.205 -0.3678  0.6363  0.6812
 4330SOL    HW317087   0.940   3.631   3.181 -0.4231 -0.8858  2.3699
 4330SOL    MW417088   1.023   3.606   3.172 -0.1571  0.5685  0.3659
 4331SOL     OW17089   5.085   0.163   5.004 -0.2088 -0.3240  0.2888
 4331SOL    HW217090   5.111   0.206   4.923 -1.1395  0.1312  0.2242
 4331SOL    HW317091   5.013   0.216   5.038 -0.7959 -1.3274  0.6673
 4331SOL    MW417092   5.079   0.176   4.998 -0.4090 -0.3963  0.3302
 4332SOL     OW17093   2.283   1.778   4.829 -0.2068 -0.2393  0.0457
 4332SOL    HW217094   2.207   1.793   4.772 -1.3663  1.0271  1.8079
 4332SOL    HW317095   2.244   1.759   4.915  1.3971  2.7254  1.5684
 4332SOL    MW417096   2.268   1.778   4.833 -0.1482  0.3189  0.4791
 4333SOL     OW17097   3.216   5.534   0.339  0.2618 -0.2205 -0.2482
 4333SOL    HW217098   3.218   5.438   0.346  0.8756 -0.1562  0.7545
 4333SOL    HW317099   3.146   5.552   0.277 -0.6926 -1.2885  0.4577
 4333SOL    MW417100   3.207   5.524   0.332  0.2168 -0.3529 -0.0228
 4334SOL     OW17101   5.182   5.475   1.008  0.0135 -0.0817 -0.5542
 4334SOL    HW217102   5.147   5.496   0.922  0.3502 -0.4538 -0.7869
 4334SOL    HW317103   5.180   5.557   1.056  1.9724  0.6831 -1.6716
 4334SOL    MW417104   5.177   5.488   1.003  0.3164 -0.0299 -0.7324
 4335SOL     OW17105   5.863   5.059   2.996  0.0424 -0.0099 -0.0295
 4335SOL    HW217106   5.854   5.047   3.090  0.3796  0.7627  0.1102
 4335SOL    HW317107   5.791   5.008   2.958 -0.5358  0.2552  0.6855
 4335SOL    MW417108   5.852   5.051   3.003  0.0106  0.1270  0.0833
 4336SOL     OW17109   2.779   5.117   3.323 -0.0326 -0.1632  0.4189
 4336SOL    HW217110   2.753   5.028   3.299  3.0740 -1.2491  0.6703
 4336SOL    HW317111   2.746   5.128   3.413  0.5315 -1.5233  0.8138
 4336SOL    MW417112   2.771   5.107   3.332  0.4517 -0.4859  0.5041
 4337SOL     OW17113   6.257   1.236   1.963  0.3881  0.3552  0.4389
 4337SOL    HW217114   6.202   1.188   2.025  1.0488  0.3491  1.0412
 4337SOL    HW317115   6.197   1.294   1.917 -0.1780  0.0678  0.8094
 4337SOL    MW417116   6.242   1.237   1.965  0.4006  0.3165  0.5673
 4338SOL     OW17117   0.620   1.844   4.699 -0.3080 -0.3036 -0.3297
 4338SOL    HW217118   0.634   1.832   4.605 -0.9353 -0.2891 -0.4302
 4338SOL    HW317119   0.664   1.927   4.719 -0.7436  0.0343 -0.7491
 4338SOL    MW417120   0.628   1.853   4.689 -0.4482 -0.2571 -0.3983
 4339SOL     OW17121   3.984   5.393   1.129  0.5600  0.0439  0.0201
 4339SOL    HW217122   4.029   5.424   1.207 -0.1099 -0.3539  0.5742
 4339SOL    HW317123   4.028   5.310   1.107  0.4395 -0.0828  0.2555
 4339SOL    MW417124   3.995   5.386   1.136  0.4558 -0.0253  0.1243
 4340SOL     OW17125   3.379   4.574   6.446 -0.1410  0.2661 -0.3181
 4340SOL    HW217126   3.344   4.639   6.506  1.3168  0.2297  0.6201
 4340SOL    HW317127   3.363   4.490   6.488  2.3931  0.3212  0.9361
 4340SOL    MW417128   3.372   4.572   6.459  0.3857  0.2686 -0.0288
 4341SOL     OW17129   4.376   1.222   2.885 -0.2636  0.3083 -0.2879
 4341SOL    HW217130   4.376   1.283   2.811 -0.5488 -0.4967 -0.9618
 4341SOL    HW317131   4.455   1.243   2.934 -0.1949  1.0051 -0.6837
 4341SOL    MW417132   4.386   1.233   2.882 -0.2921  0.2940 -0.4291
 4342SOL     OW17133   2.797   1.592   4.859  0.0159 -0.1676 -0.2112
 4342SOL    HW217134   2.876   1.560   4.815 -0.8187 -2.0791 -0.3784
 4342SOL    HW317135   2.730   1.526   4.841 -1.5041  1.1539  0.3576
 4342SOL    MW417136   2.799   1.579   4.851 -0.2947 -0.2454 -0.1582
 4343SOL     OW17137   5.458   4.385   5.908  0.5883 -0.0987  0.3555
 4343SOL    HW217138   5.488   4.312   5.853 -0.7822  1.1273 -2.1759
 4343SOL    HW317139   5.539   4.431   5.932  1.2038 -0.3089 -1.1926
 4343SOL    MW417140   5.473   4.381   5.904  0.4887  0.0354 -0.1827
 4344SOL     OW17141   4.403   2.340   1.241 -0.2351  0.4269  0.6574
 4344SOL    HW217142   4.401   2.253   1.279  0.5853  0.6071  1.1476
 4344SOL    HW317143   4.385   2.327   1.148 -1.5596 -0.1000  0.9721
 4344SOL    MW417144   4.401   2.327   1.234 -0.3016  0.3812  0.7636
 4345SOL     OW17145   0.759   0.559   3.862  0.3585 -0.0854 -0.7529
 4345SOL    HW217146   0.824   0.628   3.875  0.7497 -0.4895 -0.5363
 4345SOL    HW317147   0.733   0.568   3.770 -1.2544  1.7686 -0.1700
 4345SOL    MW417148   0.764   0.569   3.852  0.1973  0.1059 -0.6474
 4346SOL     OW17149   2.283   1.894   6.427  0.5304 -0.6638 -0.0831
 4346SOL    HW217150   2.284   1.863   6.518 -1.7739  0.3686  0.3716
 4346SOL    HW317151   2.245   1.822   6.378 -1.2158 -0.1103  0.3559
 4346SOL    MW417152   2.278   1.881   6.433 -0.0040 -0.4546  0.0348
 4347SOL     OW17153   4.249   3.033   5.443 -0.1723 -0.5787  0.6214
 4347SOL    HW217154   4.207   3.093   5.381 -0.8589 -0.9424  0.7264
 4347SOL    HW317155   4.218   3.062   5.529 -0.6850 -1.2127  0.6588
 4347SOL    MW417156   4.239   3.045   5.446 -0.3305 -0.7104  0.6402
 4348SOL     OW17157   3.157   5.370   4.357  0.0250  0.4402  0.3549
 4348SOL    HW217158   3.245   5.390   4.326  0.2881  1.6502  1.7533
 4348SOL    HW317159   3.100   5.385   4.282  1.0250 -0.6657 -0.6584
 4348SOL    MW417160   3.161   5.374   4.343  0.1917  0.4539  0.4057
 4349SOL     OW17161   4.214   0.833   3.035 -0.4614  0.0993 -0.4130
 4349SOL    HW217162   4.304   0.822   3.064 -0.5171  0.2322 -0.1807
 4349SOL    HW317163   4.178   0.899   3.094 -1.0178 -0.7165  0.1879
 4349SOL    MW417164   4.221   0.840   3.047 -0.5421  0.0092 -0.3031
 4350SOL     OW17165   4.073   2.098   3.422 -0.0031  0.1230  0.6828
 4350SOL    HW217166   4.061   2.190   3.402  0.3199  0.4503  1.8889
 4350SOL    HW317167   4.125   2.064   3.349 -2.8474  0.0718 -1.4991
 4350SOL    MW417168   4.079   2.105   3.410 -0.3357  0.1594  0.5541
 4351SOL     OW17169   3.096   1.261   4.291  0.1550 -0.8180 -0.0126
 4351SOL    HW217170   3.173   1.214   4.325 -0.3357 -0.1049  2.3009
 4351SOL    HW317171   3.024   1.200   4.304 -0.1502 -0.2713  0.9501
 4351SOL    MW417172   3.097   1.247   4.297  0.0500 -0.6518  0.4196
 4352SOL     OW17173   5.846   5.871   0.934  0.4637  0.0637  0.4704
 4352SOL    HW217174   5.842   5.777   0.952  1.9701  0.2590  2.1167
 4352SOL    HW317175   5.792   5.911   1.002  1.6054  0.4923  1.1560
 4352SOL    MW417176   5.838   5.864   0.945  0.8131  0.1460  0.7781
 4353SOL     OW17177   0.912   4.012   0.986  0.1613  0.3096 -0.5523
 4353SOL    HW217178   0.969   3.955   0.935  0.1133 -0.6226  0.4192
 4353SOL    HW317179   0.824   3.989   0.959  0.1109 -0.5527  0.3036
 4353SOL    MW417180   0.908   4.002   0.976  0.1483  0.0728 -0.3112
 4354SOL     OW17181   1.383   4.055   2.962  1.1350  0.9147  0.0055
 4354SOL    HW217182   1.377   3.967   2.999  0.1777  1.2611  0.6786
 4354SOL    HW317183   1.362   4.042   2.869 -0.3498  0.6139  0.3537
 4354SOL    MW417184   1.380   4.041   2.954  0.8128  0.9207  0.1402
 4355SOL     OW17185   5.640   2.584   2.274 -0.8750 -0.4607  0.3527
 4355SOL    HW217186   5.653   2.595   2.368  0.2546  1.2677  0.0373
 4355SOL    HW317187   5.726   2.560   2.240 -1.1419 -0.5024 -0.3172
 4355SOL    MW417188   5.653   2.583   2.282 -0.7612 -0.2382  0.2227
 4356SOL     OW17189   1.828   1.226   5.318 -0.3101 -0.0083  0.6345
 4356SOL    HW217190   1.858   1.316   5.310 -0.2712 -0.0983 -0.2772
 4356SOL    HW317191   1.732   1.232   5.315 -0.4402  0.2325  3.0890
 4356SOL    MW417192   1.819   1.239   5.317 -0.3221  0.0116  0.8381
 4357SOL     OW17193   3.136   6.038   6.375 -0.0916  0.3682 -0.7178
 4357SOL    HW217194   3.055   6.023   6.325  0.5190 -0.7827 -1.4157
 4357SOL    HW317195   3.176   6.115   6.335 -0.5075  0.5355 -0.8137
 4357SOL    MW417196   3.130   6.046   6.364 -0.0659  0.2384 -0.8226
 4358SOL     OW17197   4.662   3.176   5.525  0.5626  0.1694  0.1740
 4358SOL    HW217198   4.651   3.091   5.484  0.9327 -0.0462  0.5155
 4358SOL    HW317199   4.721   3.224   5.467  0.7346  0.0214  0.2251
 4358SOL    MW417200   4.669   3.171   5.512  0.6341  0.1214  0.2258
 4359SOL     OW17201   2.400   3.227   2.835 -0.3384  0.1110  0.5642
 4359SOL    HW217202   2.477   3.232   2.892 -1.1439  1.4245  1.5792
 4359SOL    HW317203   2.366   3.139   2.849  0.6337 -0.2846  0.5378
 4359SOL    MW417204   2.406   3.216   2.844 -0.3164  0.2321  0.6946
 4360SOL     OW17205   1.792   5.211   4.382 -0.0365  0.1273  0.1673
 4360SOL    HW217206   1.781   5.241   4.472 -2.0376 -1.5103  0.5496
 4360SOL    HW317207   1.790   5.116   4.388 -1.1923 -0.0212 -1.6617
 4360SOL    MW417208   1.790   5.203   4.395 -0.4530 -0.1084 -0.0236
 4361SOL     OW17209   3.171   0.800   1.834 -0.0544  0.3188  0.3729
 4361SOL    HW217210   3.149   0.845   1.916 -0.4617  1.7516 -0.4845
 4361SOL    HW317211   3.091   0.806   1.782  0.2794 -0.3597 -0.2247
 4361SOL    MW417212   3.157   0.807   1.838 -0.0641  0.4183  0.1810
 4362SOL     OW17213   1.942   5.835   3.651  0.8203 -0.4718 -0.3045
 4362SOL    HW217214   1.958   5.746   3.684  1.1536 -0.4277 -0.3382
 4362SOL    HW317215   2.019   5.885   3.679  0.8279 -0.2924 -0.6372
 4362SOL    MW417216   1.955   5.830   3.659  0.8653 -0.4423 -0.3528
 4363SOL     OW17217   2.670   1.980   1.240  0.4894 -0.2170  0.2081
 4363SOL    HW217218   2.730   1.985   1.315  2.1795  0.1620 -1.1181
 4363SOL    HW317219   2.725   1.953   1.167 -1.3508 -1.7586 -0.6900
 4363SOL    MW417220   2.685   1.977   1.240  0.4696 -0.3704 -0.0854
 4364SOL     OW17221   3.835   0.627   6.151  0.0013 -0.3507 -0.0860
 4364SOL    HW217222   3.818   0.695   6.086  3.2655  0.2141 -0.5564
 4364SOL    HW317223   3.775   0.647   6.223 -0.0921  2.2388 -0.7620
 4364SOL    MW417224   3.825   0.639   6.152  0.4197  0.0654 -0.2372
 4365SOL     OW17225   0.091   1.400   4.420  0.8718  0.2199  0.0840
 4365SOL    HW217226   0.141   1.418   4.500  2.5520  1.2379 -1.1357
 4365SOL    HW317227   0.147   1.342   4.369 -0.9723 -1.9315  0.3622
 4365SOL    MW417228   0.105   1.395   4.424  0.8501  0.0704 -0.0402
 4366SOL     OW17229   2.515   4.000   4.686  0.5677 -0.0803  0.3267
 4366SOL    HW217230   2.509   4.047   4.603  1.1844  1.1629  0.9457
 4366SOL    HW317231   2.432   4.018   4.730 -0.5988 -2.3708 -0.7872
 4366SOL    MW417232   2.503   4.009   4.681  0.4952 -0.2185  0.2614
 4367SOL     OW17233   3.246   5.020   6.083 -0.1561 -0.0357  0.5204
 4367SOL    HW217234   3.295   4.992   6.006  2.3546 -0.0929  2.0073
 4367SOL    HW317235   3.254   5.115   6.084 -0.6774  0.0090  0.3988
 4367SOL    MW417236   3.253   5.029   6.073  0.1064 -0.0374  0.7005
 4368SOL     OW17237   6.211   4.004   1.472  0.2385 -0.5975 -0.5371
 4368SOL    HW217238   6.178   3.978   1.386 -0.1387 -1.8041 -0.0452
 4368SOL    HW317239   6.132   4.020   1.524  0.4590  0.8715 -0.5989
 4368SOL    MW417240   6.196   4.003   1.468  0.2178 -0.5628 -0.4804
 4369SOL     OW17241   5.040   3.475   4.625  0.5651  0.4102 -0.0713
 4369SOL    HW217242   5.120   3.520   4.599  0.4055  1.6667  1.4794
 4369SOL    HW317243   5.048   3.462   4.719 -1.3559  1.2515  0.2645
 4369SOL    MW417244   5.052   3.479   4.634  0.2906  0.6870  0.1776
 4370SOL     OW17245   3.633   4.211   3.635 -0.3069  0.9378 -0.3639
 4370SOL    HW217246   3.589   4.202   3.550 -0.3708 -0.8455 -0.1913
 4370SOL    HW317247   3.721   4.243   3.612 -0.3948  0.6916 -1.0935
 4370SOL    MW417248   3.639   4.214   3.621 -0.3270  0.6701 -0.4374
 4371SOL     OW17249   5.684   1.959   0.568 -0.5700  0.5154 -0.7568
 4371SOL    HW217250   5.645   2.031   0.616  0.5868  2.1467 -2.1308
 4371SOL    HW317251   5.748   2.000   0.510  1.7068 -1.7996 -0.1023
 4371SOL    MW417252   5.687   1.974   0.567 -0.1170  0.4252 -0.8517
 4372SOL     OW17253   3.977   2.720   0.329 -0.3943  0.4597 -0.6158
 4372SOL    HW217254   3.892   2.732   0.372  0.6938  0.4471  1.7215
 4372SOL    HW317255   4.027   2.665   0.390  2.3801  3.0874 -0.2833
 4372SOL    MW417256   3.972   2.714   0.343  0.1153  0.8048 -0.2635
 4373SOL     OW17257   0.332   1.407   6.303 -0.3442 -0.0398  0.6722
 4373SOL    HW217258   0.361   1.358   6.380 -0.6537 -1.1681  0.1029
 4373SOL    HW317259   0.388   1.376   6.232 -1.1243 -0.2158  0.1234
 4373SOL    MW417260   0.343   1.396   6.303 -0.4879 -0.2119  0.5247
 4374SOL     OW17261   3.665   0.839   1.174 -0.4977  0.0259  0.0416
 4374SOL    HW217262   3.609   0.805   1.243 -0.3106 -0.5615 -0.0938
 4374SOL    HW317263   3.606   0.861   1.102 -0.4483 -1.8617 -0.6244
 4374SOL    MW417264   3.650   0.838   1.174 -0.4665 -0.3006 -0.0641
 4375SOL     OW17265   5.128   1.438   1.534 -0.0052 -0.4974  0.6544
 4375SOL    HW217266   5.119   1.343   1.533 -2.1195 -0.3926  1.9173
 4375SOL    HW317267   5.073   1.468   1.462  0.0613 -0.2144  0.7203
 4375SOL    MW417268   5.120   1.429   1.525 -0.2753 -0.4462  0.8297
 4376SOL     OW17269   2.156   1.076   3.465 -0.3207  0.2079 -0.0229
 4376SOL    HW217270   2.234   1.109   3.510 -0.1925  1.0427 -0.8368
 4376SOL    HW317271   2.084   1.125   3.505 -0.2891  0.3830 -0.1800
 4376SOL    MW417272   2.157   1.087   3.477 -0.2996  0.3411 -0.1510
 4377SOL     OW17273   0.225   0.848   0.543 -0.6002 -0.9062 -0.3136
 4377SOL    HW217274   0.280   0.838   0.466 -0.9222 -0.1492 -0.6653
 4377SOL    HW317275   0.145   0.800   0.521 -0.5665 -0.9592 -0.3210
 4377SOL    MW417276   0.221   0.841   0.530 -0.6383 -0.8133 -0.3610
 4378SOL     OW17277   4.262   6.347   1.043  0.4383 -0.2776 -0.0756
 4378SOL    HW217278   4.234   6.256   1.046 -0.1285 -0.0670  1.6142
 4378SOL    HW317279   4.198   6.395   1.096  1.9112  0.7719  0.8491
 4378SOL    MW417280   4.250   6.342   1.050  0.5579 -0.1113  0.2693
 4379SOL     OW17281   3.753   2.611   3.749  0.1185 -0.3055  0.3839
 4379SOL    HW217282   3.707   2.616   3.833  0.6773 -0.7328  0.7169
 4379SOL    HW317283   3.833   2.662   3.761 -1.2256  2.3206 -0.8705
 4379SOL    MW417284   3.757   2.619   3.761  0.0149 -0.0154  0.2623
 4380SOL     OW17285   4.521   1.600   1.009 -0.3462 -0.2732  0.6764
 4380SOL    HW217286   4.597   1.602   0.952 -1.1198 -0.3740 -0.3804
 4380SOL    HW317287   4.497   1.692   1.020  0.9258 -0.0984  2.4239
 4380SOL    MW417288   4.528   1.613   1.003 -0.2804 -0.2634  0.7675
 4381SOL     OW17289   2.512   5.769   5.766  1.0315 -0.4313 -0.4587
 4381SOL    HW217290   2.570   5.693   5.756  1.2005 -0.4541  0.5637
 4381SOL    HW317291   2.424   5.734   5.752  1.1790 -0.6234 -0.9276
 4381SOL    MW417292   2.508   5.754   5.763  1.0733 -0.4597 -0.3857
 4382SOL     OW17293   2.806   2.779   2.591  0.2245 -0.1346  0.5295
 4382SOL    HW217294   2.786   2.765   2.684 -2.3585 -1.0692 -0.0678
 4382SOL    HW317295   2.873   2.848   2.591  0.6164 -0.4087  3.0767
 4382SOL    MW417296   2.812   2.787   2.603 -0.0646 -0.2941  0.7868
 4383SOL     OW17297   0.805   5.734   1.043 -0.7073  0.0033 -0.0645
 4383SOL    HW217298   0.891   5.776   1.038  0.6035 -2.1695  2.0447
 4383SOL    HW317299   0.750   5.797   1.090  0.8167  0.0010  1.8332
 4383SOL    MW417300   0.809   5.748   1.048 -0.3333 -0.2837  0.4641
 4384SOL     OW17301   4.283   4.184   4.459  0.0479  0.5522  0.0094
 4384SOL    HW217302   4.229   4.132   4.400 -1.2965  2.0934 -0.1708
 4384SOL    HW317303   4.328   4.246   4.403 -1.2856  2.0711  0.5593
 4384SOL    MW417304   4.282   4.185   4.444 -0.3054  0.9560  0.0582
 4385SOL     OW17305   4.686   2.462   3.302 -0.1464  0.3900 -0.4916
 4385SOL    HW217306   4.767   2.421   3.333 -0.4837  0.0650 -0.0288
 4385SOL    HW317307   4.648   2.399   3.241  0.2314  0.7892 -1.1542
 4385SOL    MW417308   4.692   2.448   3.298 -0.1411  0.3998 -0.5180
 4386SOL     OW17309   2.185   5.730   2.840 -0.4550 -0.3269 -0.1553
 4386SOL    HW217310   2.197   5.789   2.914 -1.9711  0.2392 -0.3390
 4386SOL    HW317311   2.097   5.696   2.850 -0.3076 -1.0456 -1.1400
 4386SOL    MW417312   2.175   5.733   2.851 -0.6356 -0.3470 -0.3095
 4387SOL     OW17313   4.650   2.921   5.379 -0.3583  0.4181  0.1764
 4387SOL    HW217314   4.664   2.910   5.285 -3.2205  0.5174 -0.3499
 4387SOL    HW317315   4.611   2.837   5.407 -1.9355  1.2717  0.6835
 4387SOL    MW417316   4.646   2.908   5.370 -0.9441  0.5438  0.1739
 4388SOL     OW17317   2.207   3.547   2.431  0.4940 -0.5229  0.4418
 4388SOL    HW217318   2.242   3.552   2.342  1.4182  0.6994  0.8432
 4388SOL    HW317319   2.147   3.473   2.429 -0.8545  0.5449 -1.6680
 4388SOL    MW417320   2.204   3.538   2.419  0.4380 -0.2207  0.2164
 4389SOL     OW17321   2.025   4.563   6.100  0.1146 -0.1518 -0.7609
 4389SOL    HW217322   2.019   4.481   6.050 -2.1756 -0.3404 -0.3008
 4389SOL    HW317323   1.961   4.621   6.059 -2.1922 -0.4510  2.0292
 4389SOL    MW417324   2.015   4.560   6.088 -0.4920 -0.2162 -0.3321
 4390SOL     OW17325   1.747   4.754   5.306  0.3396 -0.7980  0.2132
 4390SOL    HW217326   1.740   4.784   5.215 -0.2855  1.1844  0.8537
 4390SOL    HW317327   1.840   4.759   5.326  0.3766 -0.3460 -0.0537
 4390SOL    MW417328   1.758   4.759   5.296  0.2620 -0.4768  0.2625
 4391SOL     OW17329   3.515   2.122   1.148  0.3563  0.4375 -0.9334
 4391SOL    HW217330   3.527   2.050   1.086 -0.4505  0.0422 -0.6466
 4391SOL    HW317331   3.424   2.115   1.176 -0.1598  2.4130 -1.9407
 4391SOL    MW417332   3.505   2.111   1.144  0.1818  0.6460 -1.0285
 4392SOL     OW17333   0.846   3.149   1.339 -0.0980 -0.5584  0.0380
 4392SOL    HW217334   0.871   3.179   1.426  0.5344  0.3288 -0.4361
 4392SOL    HW317335   0.929   3.137   1.293 -0.4499  1.6433 -1.2999
 4392SOL    MW417336   0.860   3.152   1.344 -0.0610 -0.1508 -0.2011
 4393SOL     OW17337   4.332   2.689   4.267  0.5792 -0.3576 -0.3025
 4393SOL    HW217338   4.358   2.621   4.329  0.9420 -0.4538 -0.5615
 4393SOL    HW317339   4.318   2.643   4.185  1.2355 -0.0649 -0.5865
 4393SOL    MW417340   4.333   2.674   4.265  0.7136 -0.3317 -0.3741
 4394SOL     OW17341   2.514   2.924   5.538 -0.5880  0.0410  0.3976
 4394SOL    HW217342   2.568   2.923   5.618 -1.1803  1.4159  0.8581
 4394SOL    HW317343   2.578   2.923   5.467 -0.0206 -0.3606  0.8962
 4394SOL    MW417344   2.530   2.924   5.539 -0.5913  0.1694  0.5242
 4395SOL     OW17345   6.107   3.862   2.957 -0.4761 -0.1044 -0.6210
 4395SOL    HW217346   6.173   3.920   2.995 -1.4049  1.0472 -0.7135
 4395SOL    HW317347   6.119   3.779   3.003  0.5270  0.3220 -0.0927
 4395SOL    MW417348   6.117   3.858   2.968 -0.4663  0.1038 -0.5635
 4396SOL     OW17349   5.393   2.338   1.255  0.4298 -0.2011 -0.1353
 4396SOL    HW217350   5.389   2.245   1.278 -0.5585  0.0481  0.7980
 4396SOL    HW317351   5.486   2.356   1.241  0.5763 -1.4589 -0.9237
 4396SOL    MW417352   5.405   2.328   1.256  0.3187 -0.3341 -0.1162
 4397SOL     OW17353   2.847   5.419   0.513  0.3851 -0.1560  0.2554
 4397SOL    HW217354   2.778   5.484   0.494 -0.9656 -1.3517  0.8481
 4397SOL    HW317355   2.816   5.375   0.592  1.4188 -1.3369  0.0242
 4397SOL    MW417356   2.834   5.422   0.521  0.3432 -0.4696  0.3031
 4398SOL     OW17357   4.528   6.197   3.142  0.2773 -0.5633 -0.1752
 4398SOL    HW217358   4.595   6.242   3.092 -0.6946  1.9440  0.6238
 4398SOL    HW317359   4.462   6.173   3.077  0.8803 -1.0031 -0.6346
 4398SOL    MW417360   4.528   6.199   3.127  0.2286 -0.2905 -0.1304
 4399SOL     OW17361   3.490   0.297   0.554 -0.0410 -0.1901  0.2414
 4399SOL    HW217362   3.509   0.377   0.505 -1.2989  0.0013  0.0232
 4399SOL    HW317363   3.418   0.256   0.505  1.8634 -2.5109 -0.8147
 4399SOL    MW417364   3.483   0.302   0.541  0.0443 -0.4711  0.0733
 4400SOL     OW17365   1.481   2.883   4.200 -0.1342 -0.4224  0.0016
 4400SOL    HW217366   1.469   2.831   4.280  0.0177 -0.4821 -0.0132
 4400SOL    HW317367   1.521   2.965   4.230 -2.2909  0.5766  0.2965
 4400SOL    MW417368   1.485   2.887   4.214 -0.3987 -0.2985  0.0385
 4401SOL     OW17369   3.800   1.252   1.520 -0.1871 -0.6282  0.0160
 4401SOL    HW217370   3.826   1.231   1.430 -0.3852 -0.9758  0.0383
 4401SOL    HW317371   3.863   1.206   1.575  1.0757  1.0505  0.0626
 4401SOL    MW417372   3.812   1.243   1.515 -0.0466 -0.4525  0.0251
 4402SOL     OW17373   0.108   6.317   0.860  0.1085  0.3149 -0.1299
 4402SOL    HW217374   0.140   6.382   0.797 -0.4439  0.4079 -0.3298
 4402SOL    HW317375   0.057   6.369   0.923 -0.5496  0.0502 -0.4367
 4402SOL    MW417376   0.105   6.333   0.860 -0.0512  0.2922 -0.1967
 4403SOL     OW17377   6.159   4.235   4.404 -0.0051 -0.0811  0.7346
 4403SOL    HW217378   6.185   4.323   4.379 -0.5820 -0.3905 -1.0679
 4403SOL    HW317379   6.076   4.246   4.450 -0.3336  0.2762  0.0632
 4403SOL    MW417380   6.152   4.248   4.407 -0.1246 -0.0748  0.4082
 4404SOL     OW17381   5.279   4.835   4.046  0.6220  0.7953  0.4700
 4404SOL    HW217382   5.186   4.811   4.048 -0.3568  3.9585 -0.5460
 4404SOL    HW317383   5.291   4.891   4.123  1.4597  1.1397  0.0996
 4404SOL    MW417384   5.268   4.839   4.056  0.6034  1.2581  0.2871
 4405SOL     OW17385   4.117   5.338   3.148 -0.1908  0.1232 -0.3048
 4405SOL    HW217386   4.138   5.248   3.123 -1.2221 -0.6526  1.4179
 4405SOL    HW317387   4.199   5.371   3.187 -0.0230 -0.3523 -0.2441
 4405SOL    MW417388   4.131   5.331   3.150 -0.3048 -0.0419 -0.0695
 4406SOL     OW17389   1.114   0.918   0.218 -0.5647  0.1756  0.1088
 4406SOL    HW217390   1.185   0.879   0.168 -1.3372  0.2188 -1.0826
 4406SOL    HW317391   1.157   0.969   0.287  0.4842 -1.4667  0.7112
 4406SOL    MW417392   1.129   0.920   0.220 -0.5282 -0.0354  0.0311
 4407SOL     OW17393   3.087   6.129   2.741  0.2427 -0.1163 -0.4821
 4407SOL    HW217394   3.005   6.110   2.695  0.0906  1.1608 -0.7727
 4407SOL    HW317395   3.132   6.191   2.684 -0.3002  2.1584  1.3895
 4407SOL    MW417396   3.082   6.134   2.727  0.1510  0.3523 -0.2735
 4408SOL     OW17397   4.519   5.556   0.472 -0.0461  0.0980  0.2874
 4408SOL    HW217398   4.496   5.573   0.381  2.6730 -2.3247 -1.0107
 4408SOL    HW317399   4.497   5.638   0.518  0.1764  2.0975 -2.8603
 4408SOL    MW417400   4.513   5.569   0.466  0.3420  0.0421 -0.2992
 4409SOL     OW17401   2.935   4.593   5.754  0.3027 -0.3191 -0.0888
 4409SOL    HW217402   2.873   4.627   5.690 -0.6051 -0.6983  0.5621
 4409SOL    HW317403   3.015   4.643   5.740  0.8576 -1.8219 -2.9485
 4409SOL    MW417404   2.938   4.604   5.744  0.2561 -0.5674 -0.3802
 4410SOL     OW17405   1.561   0.966   1.304  0.4588 -0.4279  0.6196
 4410SOL    HW217406   1.572   0.940   1.213  0.9178  2.4537 -0.2400
 4410SOL    HW317407   1.642   0.940   1.347  0.4375 -1.3635  0.1046
 4410SOL    MW417408   1.573   0.959   1.298  0.5165 -0.1712  0.4382
 4411SOL     OW17409   2.984   1.632   3.240 -0.5769  0.3460 -0.8958
 4411SOL    HW217410   2.958   1.663   3.154 -2.0681 -0.3041 -0.7213
 4411SOL    HW317411   2.901   1.608   3.282  0.0872  0.8997  0.8168
 4411SOL    MW417412   2.969   1.633   3.234 -0.6861  0.3333 -0.6468
 4412SOL     OW17413   4.513   2.573   0.231  0.1221  0.3684 -0.4186
 4412SOL    HW217414   4.447   2.640   0.249 -0.2132  0.0711 -0.5222
 4412SOL    HW317415   4.551   2.554   0.317  0.3087  0.7773 -0.4069
 4412SOL    MW417416   4.509   2.579   0.245  0.1025  0.3831 -0.4307
 4413SOL     OW17417   4.736   3.443   3.156  0.4725  0.1081  0.4010
 4413SOL    HW217418   4.794   3.449   3.232 -1.4479 -2.2551  2.2310
 4413SOL    HW317419   4.720   3.349   3.146 -1.4811  0.5492 -1.1965
 4413SOL    MW417420   4.741   3.431   3.165 -0.0386 -0.1455  0.4316
 4414SOL     OW17421   4.154   6.186   2.571 -0.0794 -0.2391  0.5892
 4414SOL    HW217422   4.137   6.095   2.547  0.2396 -0.3699  0.8556
 4414SOL    HW317423   4.068   6.228   2.570 -0.2406 -0.5684  0.5731
 4414SOL    MW417424   4.140   6.180   2.568 -0.0586 -0.2998  0.6222
 4415SOL     OW17425   5.869   6.217   1.089  0.1604  0.1694 -0.7049
 4415SOL    HW217426   5.839   6.306   1.109 -0.4206  0.0264 -0.8991
 4415SOL    HW317427   5.918   6.226   1.008 -0.0313  0.2941 -0.8091
 4415SOL    MW417428   5.871   6.230   1.081  0.0585  0.1670 -0.7443
 4416SOL     OW17429   0.970   0.782   3.366  0.3987 -0.0417  1.2224
 4416SOL    HW217430   0.949   0.876   3.362 -0.0213 -0.1593 -1.0463
 4416SOL    HW317431   1.037   0.770   3.299  0.2010 -1.4244  1.2482
 4416SOL    MW417432   0.976   0.793   3.357  0.3172 -0.2397  0.9265
 4417SOL     OW17433   1.892   2.521   4.372  0.2856  0.2039 -0.6284
 4417SOL    HW217434   1.836   2.448   4.400 -0.0755  0.7566  0.1240
 4417SOL    HW317435   1.843   2.599   4.397  1.2191  0.6992 -0.3155
 4417SOL    MW417436   1.878   2.521   4.379  0.3611  0.3422 -0.4878
 4418SOL     OW17437   2.755   3.316   1.116 -1.1122 -0.1236 -0.1712
 4418SOL    HW217438   2.738   3.312   1.022 -0.2799 -2.0344 -0.2944
 4418SOL    HW317439   2.712   3.238   1.151 -1.8051  0.8091  1.1335
 4418SOL    MW417440   2.747   3.305   1.108 -1.0938 -0.2527 -0.0153
 4419SOL     OW17441   4.126   5.519   1.345  0.2690 -0.3165  0.0376
 4419SOL    HW217442   4.161   5.579   1.280 -0.2184 -0.4545 -0.3519
 4419SOL    HW317443   4.063   5.571   1.395  2.5227  0.5681  2.1603
 4419SOL    MW417444   4.122   5.534   1.343  0.5020 -0.2180  0.2663
 4420SOL     OW17445   1.408   0.623   5.640 -0.2663  0.0794  0.0827
 4420SOL    HW217446   1.334   0.644   5.697 -1.7519  0.1337 -1.7609
 4420SOL    HW317447   1.368   0.591   5.559  1.6944  0.8810 -1.2930
 4420SOL    MW417448   1.393   0.622   5.637 -0.2037  0.1923 -0.3421
 4421SOL     OW17449   2.213   0.835   5.610 -0.5927  0.1106 -0.3762
 4421SOL    HW217450   2.155   0.798   5.543 -0.3755  0.1426 -0.5835
 4421SOL    HW317451   2.240   0.920   5.574 -2.0500  1.0524  0.6211
 4421SOL    MW417452   2.209   0.841   5.596 -0.7563  0.2391 -0.2720
 4422SOL     OW17453   5.292   6.022   2.416  0.4281  0.1674 -0.2406
 4422SOL    HW217454   5.199   6.021   2.393  0.1662  0.5058  0.7575
 4422SOL    HW317455   5.322   5.932   2.398 -0.1821 -0.0417 -0.2340
 4422SOL    MW417456   5.284   6.010   2.411  0.3130  0.1845 -0.1081
 4423SOL     OW17457   4.419   5.555   5.630 -0.6570  0.3804  0.0370
 4423SOL    HW217458   4.495   5.612   5.622 -1.3239  1.6268  1.8512
 4423SOL    HW317459   4.439   5.499   5.705 -1.2314  0.2574  0.1055
 4423SOL    MW417460   4.432   5.555   5.639 -0.8207  0.5286  0.2854
 4424SOL     OW17461   2.779   1.729   2.234 -0.4226  0.0183  0.3513
 4424SOL    HW217462   2.840   1.777   2.180 -1.1515 -0.6052 -1.0715
 4424SOL    HW317463   2.834   1.678   2.294  0.4043  0.4232 -0.0625
 4424SOL    MW417464   2.794   1.729   2.235 -0.4096 -0.0106  0.1090
 4425SOL     OW17465   3.672   0.172   4.914  0.3635 -0.1335 -0.3252
 4425SOL    HW217466   3.630   0.147   4.996 -0.9739 -1.3897 -1.3341
 4425SOL    HW317467   3.732   0.242   4.938  0.9251 -1.2763  1.9232
 4425SOL    MW417468   3.675   0.178   4.928  0.2611 -0.4500 -0.1617
 4426SOL     OW17469   3.183   5.990   5.803 -0.1566 -0.3770  0.1580
 4426SOL    HW217470   3.103   5.970   5.753  0.0383 -0.9211  0.0533
 4426SOL    HW317471   3.254   5.972   5.741  0.0357  1.0413 -0.0795
 4426SOL    MW417472   3.182   5.985   5.788 -0.1055 -0.2617  0.1129
 4427SOL     OW17473   5.751   2.768   4.624 -0.3636  0.5727 -0.1035
 4427SOL    HW217474   5.769   2.674   4.616 -0.4936  0.6499 -1.6847
 4427SOL    HW317475   5.762   2.802   4.535  2.7426  2.6243  0.8650
 4427SOL    MW417476   5.755   2.760   4.611  0.0291  0.8536 -0.1843
 4428SOL     OW17477   4.324   2.212   6.333  0.7150  0.0840 -0.2948
 4428SOL    HW217478   4.401   2.257   6.370 -0.4902  0.5126  1.9013
 4428SOL    HW317479   4.333   2.122   6.363 -0.2483  0.4231  1.1095
 4428SOL    MW417480   4.336   2.206   6.342  0.4289  0.1852  0.1802
 4429SOL     OW17481   6.196   0.865   2.019  0.0565 -0.4888  0.1263
 4429SOL    HW217482   6.247   0.914   1.954  1.1609 -0.7194  0.7861
 4429SOL    HW317483   6.211   0.773   1.997 -1.5270 -0.5718 -0.7410
 4429SOL    MW417484   6.205   0.859   2.007 -0.0067 -0.5302  0.0990
 4430SOL     OW17485   1.237   0.764   0.662  0.2097  0.3983  0.0174
 4430SOL    HW217486   1.146   0.792   0.659 -0.2701 -0.7509  2.0124
 4430SOL    HW317487   1.287   0.842   0.640 -1.2136  1.6043  0.8731
 4430SOL    MW417488   1.232   0.778   0.659 -0.0414  0.4058  0.3935
 4431SOL     OW17489   5.980   1.121   1.249 -0.7355  0.1014  0.9703
 4431SOL    HW217490   6.014   1.207   1.274 -2.2859  0.8990  0.4589
 4431SOL    HW317491   5.962   1.077   1.332  0.2686  0.1777  1.2345
 4431SOL    MW417492   5.982   1.126   1.263 -0.8076  0.2167  0.9377
 4432SOL     OW17493   1.771   0.507   0.351  0.7452 -0.4727  0.3080
 4432SOL    HW217494   1.790   0.599   0.334  0.8580 -0.6432 -0.5495
 4432SOL    HW317495   1.784   0.464   0.266 -1.0199 -0.9895  0.2557
 4432SOL    MW417496   1.775   0.513   0.338  0.5272 -0.5634  0.1879
 4433SOL     OW17497   4.648   6.106   4.148 -0.3880  0.0118 -0.0085
 4433SOL    HW217498   4.633   6.012   4.159  2.7579 -0.5637  0.2196
 4433SOL    HW317499   4.654   6.118   4.053  2.0222 -0.6338  0.0004
 4433SOL    MW417500   4.647   6.095   4.137  0.3451 -0.1493  0.0228
 4434SOL     OW17501   3.939   2.349   5.356 -0.0994 -0.8032 -0.4068
 4434SOL    HW217502   4.024   2.334   5.315  0.4467  1.3604 -0.2050
 4434SOL    HW317503   3.953   2.332   5.449  0.2512 -0.0649 -0.3150
 4434SOL    MW417504   3.952   2.345   5.362  0.0189 -0.4203 -0.3681
 4435SOL     OW17505   2.407   0.521   1.921 -0.4460 -0.1447  0.0892
 4435SOL    HW217506   2.390   0.456   1.989  2.0603 -1.2849 -0.2681
 4435SOL    HW317507   2.417   0.471   1.841  2.0699  0.5334 -0.1060
 4435SOL    MW417508   2.406   0.506   1.919  0.2166 -0.2056  0.0163
 4436SOL     OW17509   6.076   0.692   0.839 -0.3731 -0.0920 -0.1535
 4436SOL    HW217510   6.159   0.646   0.852 -0.3819  0.2094  1.1143
 4436SOL    HW317511   6.009   0.625   0.852 -0.3583 -0.5005 -1.8755
 4436SOL    MW417512   6.078   0.677   0.843 -0.3723 -0.1061 -0.2134
 4437SOL     OW17513   0.270   4.529   3.159  0.0157 -0.1786 -0.2817
 4437SOL    HW217514   0.319   4.579   3.094 -0.4752 -0.2042 -0.6765
 4437SOL    HW317515   0.237   4.594   3.220  0.8273 -0.1930  0.1859
 4437SOL    MW417516   0.272   4.544   3.158  0.0580 -0.1839 -0.2721
 4438SOL     OW17517   5.811   5.049   4.258 -0.0155 -0.0128  0.2487
 4438SOL    HW217518   5.892   5.008   4.288  0.5160  0.5874 -0.3638
 4438SOL    HW317519   5.794   5.010   4.173 -0.2455  0.0402  0.2690
 4438SOL    MW417520   5.819   5.039   4.251  0.0243  0.0734  0.1706
 4439SOL     OW17521   3.329   3.287   4.543 -0.2753 -0.6698 -0.0540
 4439SOL    HW217522   3.261   3.320   4.602 -0.5898 -2.3114  0.5554
 4439SOL    HW317523   3.290   3.208   4.504  0.4738 -0.4145 -1.3732
 4439SOL    MW417524   3.315   3.281   4.545 -0.2180 -0.8527 -0.1477
 4440SOL     OW17525   3.714   3.967   4.732 -0.3522 -0.3109 -0.4513
 4440SOL    HW217526   3.740   3.875   4.732 -0.8605 -0.4578 -0.1987
 4440SOL    HW317527   3.638   3.971   4.789 -2.7070 -0.4451 -3.3150
 4440SOL    MW417528   3.708   3.956   4.739 -0.7299 -0.3480 -0.7958
 4441SOL     OW17529   2.107   0.562   4.216 -0.5660  0.1382 -0.6573
 4441SOL    HW217530   2.162   0.575   4.293 -0.7684  2.0830 -0.7875
 4441SOL    HW317531   2.146   0.486   4.171 -0.0913 -0.6444  1.0055
 4441SOL    MW417532   2.120   0.554   4.220 -0.5301  0.2915 -0.4551
 4442SOL     OW17533   0.548   5.566   0.999 -0.0883  0.3639 -0.4907
 4442SOL    HW217534   0.511   5.622   1.068  0.5270  1.6104 -1.1348
 4442SOL    HW317535   0.640   5.592   0.994  0.5149 -1.5018 -0.0748
 4442SOL    MW417536   0.555   5.577   1.008  0.0724  0.2822 -0.5208
 4443SOL     OW17537   5.631   0.998   5.215 -0.2447  0.2884  0.1688
 4443SOL    HW217538   5.561   0.939   5.189  0.0988 -0.2845  0.5139
 4443SOL    HW317539   5.705   0.973   5.159  0.2367 -0.3669  1.0799
 4443SOL    MW417540   5.632   0.987   5.204 -0.1359  0.1264  0.3346
 4444SOL     OW17541   3.588   6.130   4.529  0.1866 -0.1966 -0.0658
 4444SOL    HW217542   3.564   6.221   4.511  1.0970 -0.0079 -0.4356
 4444SOL    HW317543   3.607   6.094   4.442  1.4088 -0.2539  0.2020
 4444SOL    MW417544   3.588   6.137   4.515  0.4680 -0.1792 -0.0792
 4445SOL     OW17545   3.809   0.628   1.289  0.3678 -0.1961  0.0344
 4445SOL    HW217546   3.898   0.659   1.274 -0.4431  2.8928  0.8210
 4445SOL    HW317547   3.754   0.688   1.238 -1.4616  0.7922  2.8859
 4445SOL    MW417548   3.814   0.640   1.280  0.0194  0.3418  0.5144
 4446SOL     OW17549   6.350   0.952   6.456  0.1103 -0.1483 -0.5111
 4446SOL    HW217550   6.343   0.935   6.550  0.2449 -0.4251 -0.5482
 4446SOL    HW317551   6.341   1.047   6.447 -2.6086 -0.3134 -0.4604
 4446SOL    MW417552   6.348   0.962   6.467 -0.2307 -0.2066 -0.5093
 4447SOL     OW17553   0.546   2.355   1.429 -0.7910  0.0885  0.3801
 4447SOL    HW217554   0.506   2.277   1.468 -1.2012  0.1428  0.0755
 4447SOL    HW317555   0.494   2.428   1.463 -2.5988  0.0122 -1.9304
 4447SOL    MW417556   0.534   2.354   1.438 -1.0837  0.0856  0.0351
 4448SOL     OW17557   0.497   0.261   6.067 -0.2382  0.6374 -0.2783
 4448SOL    HW217558   0.494   0.340   6.121  0.3972  1.1172 -0.9253
 4448SOL    HW317559   0.571   0.275   6.008 -0.6742 -0.0542 -1.0043
 4448SOL    MW417560   0.507   0.273   6.067 -0.2119  0.6095 -0.4595
 4449SOL     OW17561   0.946   6.089   4.046  0.6523  0.1868  0.1057
 4449SOL    HW217562   0.934   6.063   3.955  0.0176 -0.1924  0.2934
 4449SOL    HW317563   0.987   6.013   4.088  1.6915  0.6519 -0.0302
 4449SOL    MW417564   0.950   6.076   4.039  0.7057  0.1981  0.1125
 4450SOL     OW17565   5.533   6.016   4.048  0.0153 -0.2945  0.1307
 4450SOL    HW217566   5.444   5.980   4.045  0.2842 -1.0385  0.8883
 4450SOL    HW317567   5.582   5.962   3.987 -0.1412  0.4126 -0.6425
 4450SOL    MW417568   5.527   6.004   4.040  0.0301 -0.2994  0.1286
 4451SOL     OW17569   2.642   5.200   6.017 -0.3233 -0.0758 -0.1298
 4451SOL    HW217570   2.709   5.250   6.063 -0.2584  1.4099 -1.7347
 4451SOL    HW317571   2.567   5.259   6.011 -1.7552 -1.5980  1.3709
 4451SOL    MW417572   2.641   5.214   6.022 -0.5036 -0.0806 -0.1435
 4452SOL     OW17573   4.087   1.991   2.939 -0.0853  0.7226  0.0888
 4452SOL    HW217574   3.998   2.006   2.969  0.2331  1.2176  0.8122
 4452SOL    HW317575   4.114   1.909   2.981  0.2900  1.3106  1.0083
 4452SOL    MW417576   4.079   1.982   2.948  0.0062  0.8655  0.3055
 4453SOL     OW17577   2.565   1.293   0.495 -0.0527  0.0217  0.2222
 4453SOL    HW217578   2.548   1.283   0.402 -0.5631  2.2783  0.0117
 4453SOL    HW317579   2.489   1.342   0.528 -0.1415 -1.2030  1.9426
 4453SOL    MW417580   2.553   1.298   0.487 -0.1318  0.1579  0.4214
 4454SOL     OW17581   2.676   3.596   1.092 -0.7202  0.2350  0.7688
 4454SOL    HW217582   2.687   3.621   1.184  2.6975 -0.4244  0.6897
 4454SOL    HW317583   2.693   3.502   1.091  0.0010  0.3566 -0.5854
 4454SOL    MW417584   2.680   3.587   1.104 -0.1741  0.1640  0.5797
 4455SOL     OW17585   2.703   1.782   5.760  0.4301 -0.4396  0.2326
 4455SOL    HW217586   2.747   1.701   5.735  0.7064  0.1817 -1.4722
 4455SOL    HW317587   2.770   1.850   5.751 -0.1335  0.1420  0.3300
 4455SOL    MW417588   2.718   1.781   5.755  0.3922 -0.2809  0.0205
 4456SOL     OW17589   3.939   2.689   1.320  0.0452  0.7690 -0.2029
 4456SOL    HW217590   4.033   2.705   1.316  0.0809  0.9135  0.8452
 4456SOL    HW317591   3.902   2.775   1.341 -0.1258  0.3133  1.4583
 4456SOL    MW417592   3.947   2.703   1.322  0.0273  0.7279  0.1545
 4457SOL     OW17593   5.508   5.163   5.655 -0.3307  0.4280 -0.3943
 4457SOL    HW217594   5.579   5.111   5.618 -0.2411  1.4321 -1.7466
 4457SOL    HW317595   5.428   5.116   5.629 -0.2119  0.2558 -0.4476
 4457SOL    MW417596   5.507   5.150   5.646 -0.3032  0.5377 -0.5797
 4458SOL     OW17597   2.413   6.365   4.093  0.0599 -0.6575  0.2292
 4458SOL    HW217598   2.348   6.408   4.038 -0.0266 -1.7273 -0.5258
 4458SOL    HW317599   2.390   6.391   4.182  1.2192  2.4990 -0.2564
 4458SOL    MW417600   2.402   6.374   4.098  0.2015 -0.3822  0.0655
 4459SOL     OW17601   4.775   0.860   5.660 -0.6622 -0.4536  0.2852
 4459SOL    HW217602   4.736   0.773   5.657 -1.7320 -0.0908  2.1756
 4459SOL    HW317603   4.746   0.897   5.743  0.4520  1.4028 -0.0849
 4459SOL    MW417604   4.766   0.853   5.670 -0.6563 -0.1608  0.4858
 4460SOL     OW17605   5.628   5.613   3.291  0.3772  0.2293  0.0831
 4460SOL    HW217606   5.661   5.523   3.283 -1.4063 -0.6138  1.4412
 4460SOL    HW317607   5.590   5.632   3.205 -0.2298 -0.7568  0.1194
 4460SOL    MW417608   5.628   5.603   3.279  0.0618 -0.0120  0.2671
 4461SOL     OW17609   1.801   0.725   3.671 -0.0320 -0.5898  0.5623
 4461SOL    HW217610   1.895   0.737   3.656 -0.3487  0.2351 -0.9588
 4461SOL    HW317611   1.760   0.744   3.586 -1.4480 -2.6431  0.7231
 4461SOL    MW417612   1.808   0.729   3.658 -0.2606 -0.7519  0.3828
 4462SOL     OW17613   5.184   2.460   4.020 -0.0447 -0.2603  0.1034
 4462SOL    HW217614   5.092   2.466   4.046 -0.2389  0.6607 -0.7357
 4462SOL    HW317615   5.183   2.475   3.925  1.1431  1.8942  0.3669
 4462SOL    MW417616   5.171   2.463   4.011  0.0864  0.1455  0.0275
 4463SOL     OW17617   0.103   2.165   5.271  0.6610 -0.1074  0.2117
 4463SOL    HW217618   0.030   2.212   5.312  0.0057 -0.9512  0.0517
 4463SOL    HW317619   0.069   2.141   5.184  1.6785  0.8043 -0.4635
 4463SOL    MW417620   0.089   2.168   5.265  0.7088 -0.0985  0.1015
 4464SOL     OW17621   2.112   3.338   3.535  0.1990  0.1332 -0.4565
 4464SOL    HW217622   2.056   3.365   3.608 -2.1869 -0.0184 -2.1063
 4464SOL    HW317623   2.144   3.419   3.497  1.0350  0.2262  0.4018
 4464SOL    MW417624   2.109   3.352   3.540 -0.0054  0.1255 -0.5609
 4465SOL     OW17625   1.552   5.518   1.679  0.1643  0.3415 -0.0690
 4465SOL    HW217626   1.539   5.424   1.668 -0.0314  0.4320 -0.6834
 4465SOL    HW317627   1.646   5.531   1.673  0.2753  0.0871  0.9140
 4465SOL    MW417628   1.562   5.507   1.677  0.1532  0.3199 -0.0204
 4466SOL     OW17629   6.218   2.550   4.424  0.4198  0.2669  0.0077
 4466SOL    HW217630   6.170   2.633   4.421 -1.2092 -0.5940  0.6883
 4466SOL    HW317631   6.169   2.497   4.487  2.5152 -0.5729  0.9966
 4466SOL    MW417632   6.205   2.554   4.432  0.4813  0.0425  0.2280
 4467SOL     OW17633   2.045   5.305   4.337 -0.5962  0.3037  0.2592
 4467SOL    HW217634   2.080   5.236   4.280 -0.8424  0.8072 -0.5225
 4467SOL    HW317635   1.957   5.276   4.360 -0.6596  0.3036  0.0180
 4467SOL    MW417636   2.038   5.292   4.333 -0.6370  0.3701  0.1243
 4468SOL     OW17637   1.801   0.725   2.213 -0.0717 -0.2394 -0.1620
 4468SOL    HW217638   1.844   0.799   2.171  1.4054  1.3178  3.5987
 4468SOL    HW317639   1.711   0.756   2.229  0.2919  0.4682  0.6122
 4468SOL    MW417640   1.795   0.739   2.210  0.1712  0.0594  0.4363
 4469SOL     OW17641   5.368   0.292   3.898 -0.3906 -0.8210 -0.1759
 4469SOL    HW217642   5.305   0.333   3.838 -0.8324 -1.4547 -0.1444
 4469SOL    HW317643   5.426   0.242   3.840  1.5483  1.5695 -0.4710
 4469SOL    MW417644   5.368   0.291   3.882 -0.1931 -0.5892 -0.2107
 4470SOL     OW17645   3.663   3.187   1.243  0.0285  0.3014  1.0190
 4470SOL    HW217646   3.587   3.141   1.278  0.0826 -0.2534  0.4407
 4470SOL    HW317647   3.739   3.140   1.278  0.1235 -2.1007 -1.9612
 4470SOL    MW417648   3.663   3.175   1.252  0.0482 -0.0887  0.5495
 4471SOL     OW17649   3.280   5.334   6.209 -0.2369  0.2598  0.4564
 4471SOL    HW217650   3.369   5.349   6.177 -0.4122  0.9109  0.2466
 4471SOL    HW317651   3.291   5.294   6.295  0.2545  0.2781  0.4036
 4471SOL    MW417652   3.293   5.331   6.216 -0.1952  0.3481  0.4218
 4472SOL     OW17653   5.740   3.174   3.031  0.0524 -0.1804  0.2296
 4472SOL    HW217654   5.684   3.101   3.057 -0.6020  0.1349 -0.2971
 4472SOL    HW317655   5.722   3.242   3.095 -1.4891  0.5612 -0.9451
 4472SOL    MW417656   5.730   3.173   3.043 -0.2373 -0.0409  0.0052
 4473SOL     OW17657   4.878   2.603   5.669 -0.5363 -0.3541 -0.3238
 4473SOL    HW217658   4.964   2.624   5.704 -0.4123 -1.5571  0.1354
 4473SOL    HW317659   4.856   2.678   5.614  0.5360  0.2406  0.0218
 4473SOL    MW417660   4.886   2.615   5.666 -0.3785 -0.4344 -0.2176
 4474SOL     OW17661   2.540   3.333   3.753 -0.4036  0.2974  0.2716
 4474SOL    HW217662   2.524   3.365   3.664 -1.4644 -0.2567  0.2531
 4474SOL    HW317663   2.523   3.409   3.808  1.9052  1.1414 -0.0672
 4474SOL    MW417664   2.535   3.347   3.748 -0.2389  0.3357  0.2244
 4475SOL     OW17665   3.210   5.513   3.577 -0.0931 -0.1509  0.3794
 4475SOL    HW217666   3.207   5.417   3.576 -0.9970 -0.1219  0.1992
 4475SOL    HW317667   3.141   5.539   3.638 -1.0337  0.4381 -0.9028
 4475SOL    MW417668   3.201   5.504   3.585 -0.3365 -0.0693  0.1865
 4476SOL     OW17669   6.095   5.672   6.313  0.3367 -0.3235  0.0520
 4476SOL    HW217670   6.037   5.621   6.369  0.2452 -0.7182 -0.4011
 4476SOL    HW317671   6.047   5.681   6.231  0.6450 -0.1006 -0.1042
 4476SOL    MW417672   6.081   5.667   6.310  0.3653 -0.3462 -0.0284
 4477SOL     OW17673   0.562   3.221   6.347  0.0076 -0.3732  0.1819
 4477SOL    HW217674   0.540   3.185   6.432  1.4272 -0.6618  0.4546
 4477SOL    HW317675   0.519   3.307   6.345 -0.9798 -0.8424  0.7084
 4477SOL    MW417676   0.553   3.228   6.358  0.0646 -0.4732  0.2873
 4478SOL     OW17677   0.496   4.984   1.584 -0.2323  0.4935  0.0110
 4478SOL    HW217678   0.564   5.045   1.558 -0.7767  0.7261 -0.9314
 4478SOL    HW317679   0.503   4.978   1.679  2.4912 -1.1373 -0.1824
 4478SOL    MW417680   0.506   4.991   1.593  0.0552  0.3091 -0.1389
 4479SOL     OW17681   2.087   2.665   5.983 -0.3202 -0.0624 -0.1822
 4479SOL    HW217682   2.083   2.757   5.957  2.1902 -0.1559 -1.1009
 4479SOL    HW317683   2.140   2.664   6.063  0.0180 -0.7446 -0.4063
 4479SOL    MW417684   2.093   2.677   5.990  0.0556 -0.1648 -0.3330
 4480SOL     OW17685   4.253   4.302   6.036  0.2165  0.1727  0.3030
 4480SOL    HW217686   4.176   4.275   5.987  1.4082 -1.1302 -0.9200
 4480SOL    HW317687   4.288   4.376   5.987  0.3883  0.0331  0.2154
 4480SOL    MW417688   4.248   4.308   6.023  0.3964 -0.0176  0.1301
 4481SOL     OW17689   5.778   2.640   1.364  0.6581  0.0863 -0.0062
 4481SOL    HW217690   5.697   2.691   1.355  1.2107  1.0919  0.5585
 4481SOL    HW317691   5.760   2.581   1.437  1.0179  1.5307  1.3027
 4481SOL    MW417692   5.765   2.639   1.373  0.7785  0.4096  0.2410
 4482SOL     OW17693   3.346   1.921   6.049  0.2252 -0.6833  0.2919
 4482SOL    HW217694   3.419   1.901   5.991  0.1558 -1.5766  0.4959
 4482SOL    HW317695   3.281   1.854   6.029  0.6190 -1.6798  2.1415
 4482SOL    MW417696   3.347   1.909   6.039  0.2680 -0.9326  0.5629
 4483SOL     OW17697   6.341   1.462   1.330 -0.2997  0.5631  0.5087
 4483SOL    HW217698   6.362   1.491   1.241  0.5230  1.4617  0.9720
 4483SOL    HW317699   6.419   1.415   1.359 -0.5415  0.3234  0.7785
 4483SOL    MW417700   6.354   1.460   1.322 -0.2230  0.6500  0.6054
 4484SOL     OW17701   4.608   4.596   2.748  0.2777 -0.3204  0.3259
 4484SOL    HW217702   4.541   4.624   2.686  1.7229  0.0573 -1.1459
 4484SOL    HW317703   4.668   4.671   2.753 -0.1159 -0.0860  2.7121
 4484SOL    MW417704   4.607   4.610   2.741  0.4165 -0.2396  0.4465
 4485SOL     OW17705   3.958   5.274   0.688 -0.1136  0.3895  0.1186
 4485SOL    HW217706   3.911   5.218   0.750 -0.4145  1.1237  0.5657
 4485SOL    HW317707   3.924   5.362   0.704  0.1295  0.6635 -0.7894
 4485SOL    MW417708   3.947   5.278   0.698 -0.1212  0.5225  0.0578
 4486SOL     OW17709   4.516   0.172   1.178 -0.3637  0.5102 -0.2412
 4486SOL    HW217710   4.427   0.205   1.170 -2.2164 -3.8742 -0.7805
 4486SOL    HW317711   4.526   0.112   1.104  2.6531 -0.0608  0.4745
 4486SOL    MW417712   4.506   0.168   1.167 -0.2101 -0.1436 -0.2179
 4487SOL     OW17713   2.396   3.096   1.056 -0.0284 -0.3618  0.1942
 4487SOL    HW217714   2.423   3.187   1.072  0.6208 -0.6367  0.7416
 4487SOL    HW317715   2.419   3.080   0.965 -2.0331  0.6497 -0.5422
 4487SOL    MW417716   2.403   3.106   1.046 -0.2072 -0.2646  0.1692
 4488SOL     OW17717   1.588   5.096   1.905 -0.4330  0.0077 -0.2178
 4488SOL    HW217718   1.551   5.027   1.851  1.9895 -1.4761 -0.0886
 4488SOL    HW317719   1.672   5.118   1.865 -0.4691  1.8844  0.5786
 4488SOL    MW417720   1.594   5.090   1.893 -0.1181  0.0595 -0.0957
 4489SOL     OW17721   0.050   6.040   2.460  0.9620  0.1686 -0.3238
 4489SOL    HW217722   0.013   6.106   2.401 -2.5716 -2.6728 -1.6926
 4489SOL    HW317723   0.095   5.978   2.402 -0.9072 -1.6357  0.0004
 4489SOL    MW417724   0.051   6.040   2.444  0.2492 -0.4443 -0.4616
 4490SOL     OW17725   5.845   6.421   2.704  0.9805  0.3243  0.8842
 4490SOL    HW217726   5.913   6.381   2.650  0.0388 -1.2786  0.8383
 4490SOL    HW317727   5.860   6.385   2.792 -0.7619 -1.3449  0.5442
 4490SOL    MW417728   5.856   6.411   2.709  0.6264 -0.1074  0.8333
 4491SOL     OW17729   5.295   0.922   3.718  0.3366 -0.7841 -0.2757
 4491SOL    HW217730   5.376   0.972   3.717 -0.5346  0.8289  2.0109
 4491SOL    HW317731   5.236   0.971   3.662  0.0923 -0.3350  0.3633
 4491SOL    MW417732   5.298   0.935   3.711  0.1894 -0.5120  0.1103
 4492SOL     OW17733   0.186   0.113   2.334  0.1724 -0.0098  0.1480
 4492SOL    HW217734   0.174   0.053   2.261 -1.4092 -1.4998  1.5439
 4492SOL    HW317735   0.266   0.084   2.377 -0.0491 -0.4979  0.2350
 4492SOL    MW417736   0.195   0.102   2.330 -0.0655 -0.2708  0.3437
 4493SOL     OW17737   1.271   5.835   6.248 -0.3661  0.0964  0.0201
 4493SOL    HW217738   1.304   5.793   6.328  0.5600  0.5534 -0.1112
 4493SOL    HW317739   1.203   5.895   6.278  0.7479  1.0993  0.6095
 4493SOL    MW417740   1.266   5.837   6.262 -0.0969  0.2890  0.0806
 4494SOL     OW17741   0.416   3.149   5.716 -0.1524  0.6134  0.7834
 4494SOL    HW217742   0.380   3.214   5.656  0.1293 -0.1221 -0.2137
 4494SOL    HW317743   0.348   3.139   5.783 -1.5770 -0.2651 -0.7119
 4494SOL    MW417744   0.402   3.156   5.717 -0.3032  0.4005  0.4546
 4495SOL     OW17745   4.077   1.017   4.223 -0.3980  0.5938 -0.2073
 4495SOL    HW217746   3.982   1.029   4.232 -0.6585 -2.0070  1.8096
 4495SOL    HW317747   4.115   1.082   4.281 -1.0585  0.4883  0.3649
 4495SOL    MW417748   4.069   1.027   4.232 -0.5195  0.2367  0.1343
 4496SOL     OW17749   1.456   1.462   1.864  0.1553 -0.3798  0.2165
 4496SOL    HW217750   1.380   1.470   1.807  0.5589 -1.0491 -0.4333
 4496SOL    HW317751   1.426   1.405   1.936 -0.5436  0.9832  1.0402
 4496SOL    MW417752   1.442   1.455   1.866  0.1163 -0.2883  0.2394
 4497SOL     OW17753   5.710   3.664   4.424  0.5790 -0.4698  0.2722
 4497SOL    HW217754   5.792   3.702   4.456  0.2896  1.3408 -1.0209
 4497SOL    HW317755   5.653   3.662   4.501  2.3070 -3.4517  1.6603
 4497SOL    MW417756   5.713   3.669   4.439  0.7688 -0.6243  0.2848
 4498SOL     OW17757   1.334   2.257   3.021 -0.5206  0.1347 -0.0668
 4498SOL    HW217758   1.277   2.251   2.944  1.3532 -0.1589 -1.5095
 4498SOL    HW317759   1.337   2.168   3.055 -1.8375  0.3753  0.7839
 4498SOL    MW417760   1.326   2.244   3.016 -0.4472  0.1277 -0.1449
 4499SOL     OW17761   6.290   1.244   0.760 -0.3789 -0.0056  0.0150
 4499SOL    HW217762   6.299   1.157   0.801 -0.4501  0.0004  0.0435
 4499SOL    HW317763   6.215   1.283   0.805  1.2046  1.1035  1.8322
 4499SOL    MW417764   6.281   1.237   0.772 -0.1793  0.1416  0.2585
 4500SOL     OW17765   3.729   3.702   5.851 -0.8607  0.4092  0.3378
 4500SOL    HW217766   3.718   3.648   5.929 -0.2192  0.1569  0.2576
 4500SOL    HW317767   3.822   3.696   5.830 -1.2279 -0.6341 -1.2409
 4500SOL    MW417768   3.740   3.694   5.858 -0.8245  0.2382  0.1189
 4501SOL     OW17769   3.770   4.524   2.282  0.0310  0.0810 -0.3327
 4501SOL    HW217770   3.795   4.589   2.348 -0.5879  1.5748 -1.5173
 4501SOL    HW317771   3.820   4.549   2.204 -1.4604  0.1483 -1.2879
 4501SOL    MW417772   3.780   4.536   2.281 -0.2475  0.2870 -0.6150
 4502SOL     OW17773   0.322   3.771   3.741 -0.1326  0.4051  0.0891
 4502SOL    HW217774   0.309   3.850   3.690  0.1459  0.9330  0.8234
 4502SOL    HW317775   0.249   3.769   3.802  1.3320  1.6009  1.9606
 4502SOL    MW417776   0.310   3.781   3.742  0.0973  0.6325  0.4329
 4503SOL     OW17777   5.920   5.487   5.159  0.4594  0.2550  0.2197
 4503SOL    HW217778   5.844   5.438   5.189 -2.4797  3.6329 -1.0467
 4503SOL    HW317779   5.911   5.488   5.063  1.8948  1.1157  0.0678
 4503SOL    MW417780   5.909   5.480   5.150  0.2610  0.8142  0.0325
 4504SOL     OW17781   3.496   1.549   5.133  0.6787  0.1417  0.7519
 4504SOL    HW217782   3.443   1.604   5.075  0.2525 -0.1122  0.8980
 4504SOL    HW317783   3.586   1.565   5.105  0.5520  0.8653  0.7586
 4504SOL    MW417784   3.501   1.558   5.121  0.6058  0.2036  0.7720
 4505SOL     OW17785   4.435   1.667   2.768  0.2721  0.3422 -0.5116
 4505SOL    HW217786   4.359   1.707   2.726 -0.9150 -1.4614 -0.1865
 4505SOL    HW317787   4.415   1.573   2.770  1.5221  0.0624  1.5770
 4505SOL    MW417788   4.422   1.660   2.762  0.2804  0.0674 -0.1931
 4506SOL     OW17789   0.983   2.255   4.214  0.1616 -0.1269 -0.6314
 4506SOL    HW217790   0.990   2.243   4.309  0.2496 -0.6613 -0.6988
 4506SOL    HW317791   0.893   2.233   4.193  0.0792  0.2175 -0.6429
 4506SOL    MW417792   0.972   2.250   4.224  0.1623 -0.1520 -0.6418
 4507SOL     OW17793   1.194   3.663   4.955  0.0985  0.3816 -0.3538
 4507SOL    HW217794   1.184   3.611   4.875  1.4682 -1.1399  0.3879
 4507SOL    HW317795   1.274   3.629   4.996 -0.5589  1.0913  1.6712
 4507SOL    MW417796   1.203   3.651   4.950  0.1925  0.2745  0.0112
 4508SOL     OW17797   4.316   5.265   0.199 -0.4038 -0.3080  0.2703
 4508SOL    HW217798   4.288   5.337   0.257 -2.4918 -1.0377  0.2647
 4508SOL    HW317799   4.245   5.258   0.135  0.1798 -1.8235 -0.2382
 4508SOL    MW417800   4.303   5.274   0.199 -0.6023 -0.6042  0.2024
 4509SOL     OW17801   4.016   0.903   2.597 -0.0070 -0.4900 -0.1565
 4509SOL    HW217802   3.946   0.854   2.640 -1.4669  0.9950 -0.7585
 4509SOL    HW317803   4.032   0.856   2.515 -0.8642 -0.3975 -0.3830
 4509SOL    MW417804   4.009   0.890   2.592 -0.3127 -0.2819 -0.2658
 4510SOL     OW17805   1.977   1.821   2.671  0.4728 -0.1663 -0.0785
 4510SOL    HW217806   2.052   1.770   2.700  0.0348  0.0360  1.5407
 4510SOL    HW317807   1.982   1.902   2.721 -1.5272 -0.6977  1.1282
 4510SOL    MW417808   1.987   1.825   2.681  0.1512 -0.2097  0.2944
 4511SOL     OW17809   1.472   0.555   0.454  0.1354 -0.0630  0.2493
 4511SOL    HW217810   1.500   0.516   0.371 -2.1614  3.1019 -2.2830
 4511SOL    HW317811   1.532   0.627   0.468 -0.5421  0.5044  0.3079
 4511SOL    MW417812   1.483   0.559   0.445 -0.2570  0.4294 -0.0771
 4512SOL     OW17813   1.368   1.904   0.108 -0.1770 -0.6880 -0.1730
 4512SOL    HW217814   1.319   1.835   0.153  0.3999 -0.9895  0.0036
 4512SOL    HW317815   1.450   1.861   0.081  0.8283  0.3010  1.2005
 4512SOL    MW417816   1.372   1.889   0.110  0.0317 -0.5973  0.0315
 4513SOL     OW17817   2.003   0.425   0.617  0.0385  0.1929  0.1340
 4513SOL    HW217818   2.014   0.424   0.522 -0.7479 -2.2911 -0.0075
 4513SOL    HW317819   2.083   0.384   0.651  0.9761  2.3504  0.7142
 4513SOL    MW417820   2.015   0.419   0.609  0.0584  0.1499  0.1919
 4514SOL     OW17821   5.200   1.859   5.136 -0.1049 -0.6728 -0.8913
 4514SOL    HW217822   5.130   1.794   5.133 -0.9378  0.2252 -1.8336
 4514SOL    HW317823   5.189   1.910   5.055  0.1937  0.9725  0.0623
 4514SOL    MW417824   5.189   1.858   5.125 -0.1754 -0.3372 -0.8898
 4515SOL     OW17825   6.347   4.411   3.836 -0.4175  0.1179  0.0779
 4515SOL    HW217826   6.377   4.330   3.877  0.6850  0.1879 -0.5445
 4515SOL    HW317827   6.351   4.476   3.906  1.2805  0.2006 -0.0575
 4515SOL    MW417828   6.352   4.409   3.850 -0.0480  0.1381 -0.0221
 4516SOL     OW17829   5.590   2.183   0.714 -0.2023  0.6019  0.2866
 4516SOL    HW217830   5.682   2.205   0.728  0.0646 -0.4696  0.3557
 4516SOL    HW317831   5.547   2.267   0.697  1.1590  0.9422 -1.9234
 4516SOL    MW417832   5.597   2.197   0.714  0.0126  0.5054  0.0041
 4517SOL     OW17833   2.691   5.545   3.034  0.2284  1.0395  0.2189
 4517SOL    HW217834   2.687   5.466   3.088  1.9527 -0.5770 -1.8718
 4517SOL    HW317835   2.627   5.531   2.965 -1.2482  2.6650  1.1613
 4517SOL    MW417836   2.682   5.533   3.032  0.2611  1.0407  0.0674
 4518SOL     OW17837   1.631   1.102   0.472  0.0534 -0.7361  0.0161
 4518SOL    HW217838   1.608   1.058   0.390 -1.0693  1.0070 -0.6661
 4518SOL    HW317839   1.726   1.108   0.471  0.0218 -0.1517 -1.5038
 4518SOL    MW417840   1.641   1.097   0.461 -0.0989 -0.4290 -0.2744
 4519SOL     OW17841   5.701   1.077   0.182 -0.6246 -0.4696  0.4754
 4519SOL    HW217842   5.756   1.043   0.252  0.1547 -1.1635 -0.4445
 4519SOL    HW317843   5.679   1.001   0.128  0.2845  0.2774 -1.0324
 4519SOL    MW417844   5.705   1.063   0.184 -0.4018 -0.4626  0.1551
 4520SOL     OW17845   2.762   0.486   3.298 -0.3212 -0.5723  0.4493
 4520SOL    HW217846   2.838   0.438   3.266  0.8408  0.4739  1.5476
 4520SOL    HW317847   2.791   0.577   3.302 -1.2023 -0.3339  2.1115
 4520SOL    MW417848   2.776   0.492   3.294 -0.2842 -0.4028  0.8135
 4521SOL     OW17849   0.137   3.045   1.139 -0.2047 -0.2988  0.1505
 4521SOL    HW217850   0.082   3.100   1.194 -0.8650 -1.8103  1.0604
 4521SOL    HW317851   0.206   3.104   1.108 -0.0703  0.7258  2.2015
 4521SOL    MW417852   0.139   3.060   1.142 -0.2741 -0.3631  0.5411
 4522SOL     OW17853   1.760   3.625   2.402 -0.1877 -0.0469  0.2518
 4522SOL    HW217854   1.695   3.657   2.466  0.0195 -1.1812  1.0619
 4522SOL    HW317855   1.843   3.662   2.433 -0.1446 -0.2862  0.4260
 4522SOL    MW417856   1.762   3.634   2.415 -0.1547 -0.2282  0.3817
 4523SOL     OW17857   1.471   3.026   6.385  0.4834  0.4346  0.4223
 4523SOL    HW217858   1.501   3.073   6.463  1.3068  0.5323  0.0529
 4523SOL    HW317859   1.376   3.027   6.391  0.5431  0.0732  1.6492
 4523SOL    MW417860   1.462   3.032   6.396  0.5999  0.3998  0.5355
 4524SOL     OW17861   1.619   0.993   5.035 -0.0498  0.3060  0.0674
 4524SOL    HW217862   1.598   0.900   5.029 -1.0987  0.5899 -1.1052
 4524SOL    HW317863   1.690   0.998   5.099 -2.6066 -0.8715  3.2309
 4524SOL    MW417864   1.626   0.982   5.043 -0.5255  0.1881  0.3301
 4525SOL     OW17865   5.599   4.450   2.305  0.0650  0.7337 -0.7035
 4525SOL    HW217866   5.607   4.521   2.241 -1.1016  1.6163  0.0857
 4525SOL    HW317867   5.511   4.461   2.342 -0.0795 -1.0343 -0.4394
 4525SOL    MW417868   5.588   4.461   2.301 -0.1079  0.6169 -0.5645
 4526SOL     OW17869   0.769   5.431   5.039 -0.3640 -0.4888 -0.2004
 4526SOL    HW217870   0.779   5.392   4.952 -2.0868 -1.4212 -0.0294
 4526SOL    HW317871   0.680   5.406   5.066  0.2244 -0.4420  1.9414
 4526SOL    MW417872   0.758   5.423   5.031 -0.5136 -0.6057  0.1047
 4527SOL     OW17873   3.606   6.268   5.779 -0.0709 -0.2107  0.1631
 4527SOL    HW217874   3.562   6.338   5.827 -0.4312 -1.5460  1.8932
 4527SOL    HW317875   3.697   6.295   5.775 -0.4306  0.9939 -0.4509
 4527SOL    MW417876   3.612   6.280   5.785 -0.1659 -0.2280  0.3104
 4528SOL     OW17877   4.261   3.929   2.790  0.1956  0.1898  0.1573
 4528SOL    HW217878   4.231   4.019   2.775  1.3242  0.5757  0.1474
 4528SOL    HW317879   4.344   3.938   2.837  0.7678 -0.8238 -0.6190
 4528SOL    MW417880   4.268   3.942   2.794  0.4200  0.1070  0.0536
 4529SOL     OW17881   5.734   5.179   1.402 -0.2061 -0.5729 -0.3268
 4529SOL    HW217882   5.732   5.100   1.456 -0.4611  0.1283  0.6984
 4529SOL    HW317883   5.815   5.223   1.426 -1.1609  0.6403  0.8248
 4529SOL    MW417884   5.744   5.174   1.412 -0.3658 -0.3203 -0.0396
 4530SOL     OW17885   3.695   2.652   3.433 -0.2958  0.1211 -0.1878
 4530SOL    HW217886   3.626   2.585   3.429 -0.3315  0.1337  0.2144
 4530SOL    HW317887   3.667   2.711   3.503  0.3762 -0.1589  0.3274
 4530SOL    MW417888   3.682   2.651   3.442 -0.2118  0.0858 -0.0667
 4531SOL     OW17889   3.445   6.194   3.581 -0.3783  0.2668  0.5010
 4531SOL    HW217890   3.446   6.209   3.486  1.8455 -0.6479  0.3086
 4531SOL    HW317891   3.425   6.101   3.589  0.3419  0.1343  0.8523
 4531SOL    MW417892   3.443   6.184   3.569  0.0101  0.1286  0.5220
 4532SOL     OW17893   3.362   3.130   0.296 -0.5037  0.1397 -0.1918
 4532SOL    HW217894   3.352   3.037   0.315  1.2616  0.2951  1.8938
 4532SOL    HW317895   3.446   3.137   0.251 -0.3048  0.7914  0.2660
 4532SOL    MW417896   3.372   3.119   0.292 -0.2446  0.2462  0.1438
 4533SOL     OW17897   3.261   3.643   4.924 -0.3850 -0.9851  0.3885
 4533SOL    HW217898   3.179   3.692   4.925 -0.3987 -0.9843 -0.3500
 4533SOL    HW317899   3.241   3.561   4.879  0.1664 -0.6935 -0.4191
 4533SOL    MW417900   3.248   3.639   4.918 -0.3141 -0.9465  0.1845
 4534SOL     OW17901   0.822   4.341   4.255  0.3160 -0.2459 -0.8405
 4534SOL    HW217902   0.908   4.340   4.213  0.1305  1.0450 -1.3035
 4534SOL    HW317903   0.841   4.368   4.345  0.2820  1.4766 -1.3176
 4534SOL    MW417904   0.836   4.344   4.262  0.2870  0.1517 -0.9645
 4535SOL     OW17905   6.355   3.887   0.344  0.2961 -0.3186 -0.0482
 4535SOL    HW217906   6.311   3.971   0.331  0.7590  0.2033  1.5606
 4535SOL    HW317907   6.381   3.887   0.436  1.2493 -1.7743 -0.2797
 4535SOL    MW417908   6.353   3.898   0.354  0.4830 -0.4418  0.1335
 4536SOL     OW17909   0.202   1.682   0.715 -0.1882 -0.1158 -0.0382
 4536SOL    HW217910   0.175   1.590   0.720 -0.0519 -0.1264  0.6076
 4536SOL    HW317911   0.233   1.693   0.626  0.5722 -0.9190  0.1098
 4536SOL    MW417912   0.202   1.671   0.704 -0.0699 -0.2231  0.0665
 4537SOL     OW17913   3.465   3.139   2.368 -0.6399 -0.2792  0.2554
 4537SOL    HW217914   3.504   3.060   2.406  2.0697  0.4718 -0.7573
 4537SOL    HW317915   3.528   3.208   2.386 -1.0941  0.8785 -2.1684
 4537SOL    MW417916   3.478   3.138   2.376 -0.3423 -0.0274 -0.1980
 4538SOL     OW17917   3.653   1.318   3.922  0.5913 -0.0710  0.2619
 4538SOL    HW217918   3.721   1.319   3.855 -0.3792 -0.5538 -0.7457
 4538SOL    HW317919   3.671   1.239   3.973 -0.6191 -1.5716 -1.5198
 4538SOL    MW417920   3.665   1.308   3.920  0.3036 -0.3327 -0.1061
 4539SOL     OW17921   1.336   3.513   2.841  0.8056 -0.2192  0.4895
 4539SOL    HW217922   1.352   3.463   2.761  0.6645  0.1917  0.2013
 4539SOL    HW317923   1.359   3.453   2.912  0.6006 -0.7084  0.1484
 4539SOL    MW417924   1.341   3.499   2.840  0.7600 -0.2295  0.4064
 4540SOL     OW17925   0.381   4.196   6.075 -0.4221  0.7996  0.0458
 4540SOL    HW217926   0.457   4.233   6.120 -0.4236 -0.8559  1.5456
 4540SOL    HW317927   0.380   4.239   5.990  1.5464  1.6790  0.4071
 4540SOL    MW417928   0.391   4.206   6.070 -0.1626  0.6972  0.2914
 4541SOL     OW17929   3.832   1.111   0.963  0.4639  0.3142  0.4663
 4541SOL    HW217930   3.803   1.073   1.046 -0.2319  1.9035  1.0059
 4541SOL    HW317931   3.876   1.192   0.989 -1.4269  1.8272 -0.7734
 4541SOL    MW417932   3.834   1.117   0.977  0.1226  0.7235  0.3740
 4542SOL     OW17933   4.240   4.876   0.836  0.5056 -0.1887 -0.5805
 4542SOL    HW217934   4.227   4.921   0.752  0.9365 -0.2748 -0.6962
 4542SOL    HW317935   4.151   4.864   0.871  0.3913  1.0022 -0.4115
 4542SOL    MW417936   4.226   4.880   0.830  0.5474 -0.0429 -0.5734
 4543SOL     OW17937   3.554   1.689   4.122  0.6128  0.2681  0.2493
 4543SOL    HW217938   3.649   1.690   4.115  0.5308  0.9982 -1.1697
 4543SOL    HW317939   3.529   1.599   4.102  1.0644 -0.3403  2.2250
 4543SOL    MW417940   3.563   1.678   4.118  0.6615  0.2842  0.3227
 4544SOL     OW17941   5.208   4.538   2.967  0.0474  0.1065  0.7969
 4544SOL    HW217942   5.230   4.588   3.045 -0.9889  0.8496  0.6375
 4544SOL    HW317943   5.292   4.514   2.929  0.5572  0.3875  1.7273
 4544SOL    MW417944   5.222   4.542   2.972 -0.0221  0.2416  0.8987
 4545SOL     OW17945   5.227   5.648   1.862 -0.0472  0.4032 -0.2587
 4545SOL    HW217946   5.246   5.564   1.819 -3.4763 -0.6702  0.0153
 4545SOL    HW317947   5.272   5.642   1.946  0.0268 -1.0554 -0.3609
 4545SOL    MW417948   5.235   5.636   1.867 -0.4898  0.0692 -0.2361
 4546SOL     OW17949   2.658   1.878   4.257  0.8422 -0.6603  0.1841
 4546SOL    HW217950   2.594   1.881   4.186  2.3230  1.6949 -1.1647
 4546SOL    HW317951   2.698   1.791   4.249 -1.2983 -1.7345  0.3479
 4546SOL    MW417952   2.655   1.867   4.247  0.7551 -0.4913  0.0278
 4547SOL     OW17953   6.154   5.951   3.228  0.4324  0.2471 -0.1083
 4547SOL    HW217954   6.206   5.930   3.151  1.2261 -0.2320  0.5440
 4547SOL    HW317955   6.068   5.912   3.211 -0.2493  2.2882 -1.8508
 4547SOL    MW417956   6.150   5.943   3.216  0.4472  0.4532 -0.2521
 4548SOL     OW17957   0.221   1.303   1.056  0.1237  0.3527  0.0142
 4548SOL    HW217958   0.161   1.231   1.036  0.5719 -0.3553  1.1043
 4548SOL    HW317959   0.186   1.377   1.007 -0.6738 -0.4635 -0.6946
 4548SOL    MW417960   0.208   1.303   1.047  0.0776  0.1516  0.0645
 4549SOL     OW17961   5.489   1.993   1.726  0.1310 -0.5136 -0.2773
 4549SOL    HW217962   5.485   2.088   1.733  1.1856 -0.5362  1.1553
 4549SOL    HW317963   5.505   1.963   1.816 -0.3428 -2.0526 -0.6725
 4549SOL    MW417964   5.491   2.001   1.739  0.2076 -0.7196 -0.1404
 4550SOL     OW17965   6.319   2.461   4.182  0.0876  0.1364  0.1862
 4550SOL    HW217966   6.286   2.513   4.255  1.5617  0.9702  0.2956
 4550SOL    HW317967   6.323   2.522   4.108 -0.2005 -0.3735 -0.2585
 4550SOL    MW417968   6.315   2.476   4.182  0.2441  0.1792  0.1420
 4551SOL     OW17969   4.494   1.194   1.498  0.6527 -0.3591 -0.7069
 4551SOL    HW217970   4.510   1.211   1.405  0.6839  0.9594 -0.4769
 4551SOL    HW317971   4.538   1.266   1.544 -2.0545  0.8724  0.1710
 4551SOL    MW417972   4.502   1.205   1.492  0.2996 -0.0227 -0.5607
 4552SOL     OW17973   2.127   5.871   5.396  0.1097  0.0614  0.0111
 4552SOL    HW217974   2.164   5.873   5.484  0.8898 -0.3306 -0.3050
 4552SOL    HW317975   2.159   5.950   5.354 -0.3928  0.3307  0.1245
 4552SOL    MW417976   2.136   5.882   5.402  0.1463  0.0453 -0.0156
 4553SOL     OW17977   0.183   1.249   5.854  0.0759  0.2342 -1.0164
 4553SOL    HW217978   0.233   1.177   5.893 -1.8268  0.0814  1.3747
 4553SOL    HW317979   0.176   1.226   5.762 -1.1703 -3.1676 -0.2286
 4553SOL    MW417980   0.189   1.237   5.847 -0.3395 -0.2348 -0.5970
 4554SOL     OW17981   0.215   4.611   6.112  0.2738  0.6313 -0.2128
 4554SOL    HW217982   0.159   4.556   6.168  0.9765 -0.6066 -0.6828
 4554SOL    HW317983   0.153   4.664   6.062 -0.3888  1.2233  1.1830
 4554SOL    MW417984   0.199   4.611   6.113  0.2791  0.5460 -0.0906
 4555SOL     OW17985   3.023   4.715   0.868 -0.4011 -0.0562 -0.1241
 4555SOL    HW217986   3.031   4.745   0.959 -2.0145 -3.0732  1.1800
 4555SOL    HW317987   3.084   4.641   0.862 -3.5137 -2.8711  0.1109
 4555SOL    MW417988   3.032   4.709   0.879 -1.0246 -0.8257  0.0790
 4556SOL     OW17989   0.738   5.722   3.854  0.3239  0.1894 -0.0250
 4556SOL    HW217990   0.780   5.649   3.898 -0.2103  0.7683  1.5339
 4556SOL    HW317991   0.792   5.740   3.777  0.2864 -2.0146 -0.6116
 4556SOL    MW417992   0.750   5.715   3.850  0.2484 -0.0250  0.1033
 4557SOL     OW17993   3.935   4.203   5.308  0.3686  0.1325 -0.6663
 4557SOL    HW217994   3.854   4.239   5.345  0.6280  0.4064 -0.3577
 4557SOL    HW317995   4.005   4.256   5.347  0.8126 -1.1545  0.3507
 4557SOL    MW417996   3.933   4.215   5.318  0.4614 -0.0011 -0.4914
 4558SOL     OW17997   2.349   3.429   6.290  0.3958  0.2506  0.2162
 4558SOL    HW217998   2.275   3.483   6.320  0.1150 -0.9762  1.9336
 4558SOL    HW317999   2.423   3.459   6.343  0.4256 -0.4750  0.5940
 4558SOL    MW418000   2.349   3.440   6.301  0.3627 -0.0070  0.4927
 4559SOL     OW18001   1.187   5.859   3.534  0.0168  0.2145  0.0877
 4559SOL    HW218002   1.172   5.767   3.513 -1.2852  0.5330 -0.4794
 4559SOL    HW318003   1.179   5.905   3.451  0.1350  0.9122  0.4463
 4559SOL    MW418004   1.184   5.853   3.521 -0.1394  0.3486  0.0602
 4560SOL     OW18005   4.387   4.387   1.020 -0.2485 -0.1944  0.1797
 4560SOL    HW218006   4.343   4.459   0.974 -0.4158 -0.3796  0.0434
 4560SOL    HW318007   4.318   4.321   1.032  0.3636 -1.2308 -1.5758
 4560SOL    MW418008   4.372   4.388   1.016 -0.1898 -0.3555 -0.0699
 4561SOL     OW18009   3.731   0.503   3.053  0.1500 -0.4087  0.1746
 4561SOL    HW218010   3.734   0.432   3.117  2.0701  0.3887  1.0504
 4561SOL    HW318011   3.818   0.503   3.013 -0.2245  0.6695 -0.6946
 4561SOL    MW418012   3.743   0.494   3.056  0.3539 -0.1612  0.1755
 4562SOL     OW18013   2.956   1.337   4.770  0.7702 -0.3842  0.1146
 4562SOL    HW218014   3.017   1.264   4.768 -0.1306 -1.1395 -0.1329
 4562SOL    HW318015   2.908   1.331   4.688 -0.9311 -0.9335  1.1090
 4562SOL    MW418016   2.958   1.327   4.759  0.4269 -0.5563  0.2132
 4563SOL     OW18017   3.346   4.459   5.442 -0.5899  0.2693  0.3658
 4563SOL    HW218018   3.430   4.497   5.416 -0.7062  0.6014  0.4745
 4563SOL    HW318019   3.314   4.416   5.363 -0.9953  1.3703 -0.0858
 4563SOL    MW418020   3.353   4.458   5.428 -0.6587  0.4584  0.3206
 4564SOL     OW18021   0.348   5.525   1.993 -0.3076  0.1624 -0.7840
 4564SOL    HW218022   0.321   5.522   2.085  1.2043  2.5681 -0.1681
 4564SOL    HW318023   0.419   5.460   1.987 -1.2733 -0.9330 -0.6066
 4564SOL    MW418024   0.354   5.516   2.004 -0.2356  0.3353 -0.6794
 4565SOL     OW18025   5.594   0.574   4.834  0.0911  0.5332 -0.2369
 4565SOL    HW218026   5.553   0.557   4.750 -1.6573 -0.8909  0.8525
 4565SOL    HW318027   5.677   0.525   4.831 -0.7638 -0.9366 -0.4964
 4565SOL    MW418028   5.600   0.565   4.822 -0.2524  0.1514 -0.1274
 4566SOL     OW18029   2.000   4.013   2.605 -0.0462  0.5789  0.1528
 4566SOL    HW218030   1.966   3.952   2.670 -0.2361  1.1985  0.6487
 4566SOL    HW318031   2.095   4.000   2.607 -0.0262  0.7969  0.7639
 4566SOL    MW418032   2.008   4.003   2.614 -0.0686  0.6894  0.2989
 4567SOL     OW18033   4.551   4.057   0.215 -0.8409 -0.0600 -0.2066
 4567SOL    HW218034   4.614   4.055   0.287 -1.1023  1.7349  0.1316
 4567SOL    HW318035   4.539   4.150   0.197 -1.4235 -0.4499 -2.0217
 4567SOL    MW418036   4.558   4.069   0.222 -0.9523  0.1253 -0.4015
 4568SOL     OW18037   0.788   1.325   0.052 -0.3209  0.5959  0.0044
 4568SOL    HW218038   0.840   1.262   0.102 -0.5545  0.2806 -0.1472
 4568SOL    HW318039   0.734   1.368   0.119 -0.6218  0.1854  0.0289
 4568SOL    MW418040   0.788   1.322   0.068 -0.3914  0.5002 -0.0124
 4569SOL     OW18041   0.928   5.368   1.225  0.1705  0.5282 -0.2315
 4569SOL    HW218042   0.846   5.358   1.176  0.8578 -1.0148 -1.1391
 4569SOL    HW318043   0.925   5.296   1.289 -0.2979  1.9707  1.4456
 4569SOL    MW418044   0.916   5.357   1.227  0.1994  0.5150 -0.1299
 4570SOL     OW18045   1.204   3.501   6.014 -0.1317  0.5672  0.4525
 4570SOL    HW218046   1.193   3.566   5.945 -0.5793  0.0317  0.0084
 4570SOL    HW318047   1.249   3.428   5.971  0.2251  0.5100  0.9071
 4570SOL    MW418048   1.209   3.500   5.999 -0.1437  0.4890  0.4539
 4571SOL     OW18049   2.155   3.160   4.465 -0.5116  0.1606 -0.1572
 4571SOL    HW218050   2.127   3.221   4.533  0.9962 -0.4987  1.1040
 4571SOL    HW318051   2.087   3.093   4.463 -0.9731  0.6183  0.1237
 4571SOL    MW418052   2.142   3.159   4.474 -0.3735  0.1340  0.0463
 4572SOL     OW18053   0.235   3.979   3.561  0.5663  0.0245 -0.2296
 4572SOL    HW218054   0.242   4.056   3.618  2.4172  0.0367 -0.3976
 4572SOL    HW318055   0.143   3.953   3.567 -0.1824  2.3791 -0.3722
 4572SOL    MW418056   0.224   3.986   3.569  0.7117  0.3367 -0.2706
 4573SOL     OW18057   2.901   2.504   5.092  0.1166 -0.3026  0.0739
 4573SOL    HW218058   2.947   2.490   5.010 -2.2540 -1.4363 -1.1607
 4573SOL    HW318059   2.841   2.429   5.100 -1.5018  1.0482  1.5461
 4573SOL    MW418060   2.899   2.492   5.082 -0.4097 -0.2740  0.1053
 4574SOL     OW18061   4.210   5.080   3.117  0.0120  0.2673 -0.2127
 4574SOL    HW218062   4.224   5.031   3.199  0.5641  1.2564  0.2996
 4574SOL    HW318063   4.150   5.024   3.067 -1.0465  0.0255  1.2305
 4574SOL    MW418064   4.204   5.066   3.121 -0.0548  0.3659  0.0453
 4575SOL     OW18065   5.406   5.844   1.755 -0.8869  0.0316  0.2050
 4575SOL    HW218066   5.344   5.775   1.779  0.3751 -1.1470  0.1834
 4575SOL    HW318067   5.385   5.917   1.814 -1.7266 -0.6390  0.7567
 4575SOL    MW418068   5.395   5.845   1.766 -0.8312 -0.2124  0.2750
 4576SOL     OW18069   0.503   3.553   5.820 -0.1848  0.7929  0.1119
 4576SOL    HW218070   0.420   3.587   5.852 -0.9686 -0.6081 -0.3410
 4576SOL    HW318071   0.511   3.588   5.732 -0.5803  0.5016 -0.0450
 4576SOL    MW418072   0.493   3.562   5.813 -0.3404  0.5696  0.0314
 4577SOL     OW18073   3.568   5.614   3.696 -0.2322  0.0953  0.9299
 4577SOL    HW218074   3.522   5.585   3.775 -0.0083 -1.8250  0.4112
 4577SOL    HW318075   3.656   5.577   3.705 -0.6060 -1.3796 -0.8024
 4577SOL    MW418076   3.574   5.605   3.708 -0.2520 -0.3527  0.6329
 4578SOL     OW18077   0.607   3.511   1.039  0.1775  0.2217  0.3984
 4578SOL    HW218078   0.555   3.444   0.995  0.7499 -1.1657  1.7491
 4578SOL    HW318079   0.687   3.517   0.988 -0.0485  0.1834  0.0378
 4578SOL    MW418080   0.610   3.503   1.026  0.2232  0.0336  0.5290
 4579SOL     OW18081   4.420   0.230   5.730  0.4477  0.2456 -0.9117
 4579SOL    HW218082   4.381   0.169   5.793  0.5865 -2.7483 -3.5088
 4579SOL    HW318083   4.508   0.247   5.765 -0.0933  0.1199  0.5887
 4579SOL    MW418084   4.427   0.224   5.743  0.3946 -0.1660 -1.0564
 4580SOL     OW18085   1.453   5.761   2.326 -0.0256  0.3956 -0.2889
 4580SOL    HW218086   1.380   5.820   2.346  0.1152 -0.3094  2.8270
 4580SOL    HW318087   1.464   5.767   2.231 -1.3405  3.7661 -0.3496
 4580SOL    MW418088   1.445   5.769   2.316 -0.1805  0.7473  0.1142
 4581SOL     OW18089   1.216   5.923   2.320  0.0157 -0.1068 -0.0454
 4581SOL    HW218090   1.271   5.979   2.265 -1.2516 -0.7343 -2.0710
 4581SOL    HW318091   1.198   5.846   2.266 -1.0669 -0.9127  1.3783
 4581SOL    MW418092   1.221   5.920   2.306 -0.2943 -0.2959 -0.1248
 4582SOL     OW18093   1.678   2.687   0.774 -0.8161  0.4610  0.0351
 4582SOL    HW218094   1.643   2.730   0.852 -1.4178  1.6140 -0.8266
 4582SOL    HW318095   1.702   2.760   0.716  0.8037 -0.3483 -0.3541
 4582SOL    MW418096   1.676   2.702   0.777 -0.6817  0.5064 -0.1299
 4583SOL     OW18097   5.499   3.552   3.281 -0.4916  0.0079  0.0871
 4583SOL    HW218098   5.408   3.565   3.252 -0.3077  0.3130 -0.3560
 4583SOL    HW318099   5.543   3.634   3.261 -0.4381  0.3746  1.5762
 4583SOL    MW418100   5.493   3.564   3.275 -0.4603  0.0965  0.2251
 4584SOL     OW18101   6.348   4.883   5.729  0.3267  0.3457 -0.5965
 4584SOL    HW218102   6.315   4.973   5.718 -0.0132  0.1701 -1.0265
 4584SOL    HW318103   6.374   4.879   5.821  0.3292  0.8817 -0.5677
 4584SOL    MW418104   6.347   4.894   5.740  0.2822  0.3933 -0.6495
 4585SOL     OW18105   0.979   5.168   1.434  0.2931  0.4630 -0.0149
 4585SOL    HW218106   1.059   5.179   1.485  2.0089  0.0789 -2.4498
 4585SOL    HW318107   0.996   5.092   1.378 -1.9997  0.0454 -0.2494
 4585SOL    MW418108   0.992   5.160   1.433  0.2170  0.3572 -0.3671
 4586SOL     OW18109   4.679   3.902   4.296  0.4629  0.3843  0.0211
 4586SOL    HW218110   4.663   3.964   4.367 -1.1816 -0.6599  0.6211
 4586SOL    HW318111   4.595   3.896   4.250  1.1484  0.0852 -1.2389
 4586SOL    MW418112   4.665   3.909   4.299  0.3364  0.2071 -0.0660
 4587SOL     OW18113   4.168   1.955   0.242  0.0095  0.2055  0.2567
 4587SOL    HW218114   4.260   1.927   0.239 -0.2112 -0.6593  1.0904
 4587SOL    HW318115   4.172   2.047   0.267  0.7082  0.7196 -1.5283
 4587SOL    MW418116   4.181   1.963   0.245  0.0726  0.1592  0.1312
 4588SOL     OW18117   4.183   2.329   4.314 -0.4285  0.1303  0.0442
 4588SOL    HW218118   4.131   2.249   4.308 -1.1956  0.7211 -2.0580
 4588SOL    HW318119   4.267   2.300   4.351 -1.3603 -1.2533  1.2056
 4588SOL    MW418120   4.187   2.314   4.318 -0.6526  0.0257 -0.0799
 4589SOL     OW18121   0.205   3.482   2.484  0.2325  0.0900  0.2153
 4589SOL    HW218122   0.168   3.436   2.560  2.7857  1.1727  2.2996
 4589SOL    HW318123   0.247   3.560   2.522 -0.9253  2.3320 -2.7272
 4589SOL    MW418124   0.206   3.486   2.499  0.4166  0.5286  0.1021
 4590SOL     OW18125   4.664   0.066   2.997 -0.6073  0.0967  0.1243
 4590SOL    HW218126   4.603   0.099   2.931 -0.9159 -0.5901  0.0593
 4590SOL    HW318127   4.750   0.099   2.969 -0.3615 -2.0204 -1.9104
 4590SOL    MW418128   4.667   0.075   2.984 -0.6156 -0.2733 -0.1527
 4591SOL     OW18129   0.791   2.470   4.449  0.4144 -0.3580 -0.1100
 4591SOL    HW218130   0.885   2.489   4.453  0.3756 -0.3832  2.1093
 4591SOL    HW318131   0.750   2.554   4.431  0.6746  0.5270  2.8923
 4591SOL    MW418132   0.798   2.483   4.447  0.4436 -0.2446  0.5790
 4592SOL     OW18133   0.395   2.014   3.631 -0.3924  0.0480  0.0281
 4592SOL    HW218134   0.335   2.026   3.557  0.7077 -1.3210 -1.1385
 4592SOL    HW318135   0.370   1.930   3.668  1.0083 -0.7362 -0.7222
 4592SOL    MW418136   0.384   2.005   3.626 -0.0625 -0.2361 -0.2248
 4593SOL     OW18137   2.471   1.634   4.655  0.1308 -0.1906 -0.1671
 4593SOL    HW218138   2.519   1.707   4.616  0.3721  1.0275  2.2444
 4593SOL    HW318139   2.409   1.674   4.715 -1.0941 -1.9273 -0.1856
 4593SOL    MW418140   2.470   1.649   4.658  0.0010 -0.2591  0.1486
 4594SOL     OW18141   5.910   5.522   6.451 -0.5703  0.0530  0.3926
 4594SOL    HW218142   5.864   5.535   6.368 -0.1995  1.6981  0.4116
 4594SOL    HW318143   5.953   5.437   6.442 -0.6357  0.1524 -1.0516
 4594SOL    MW418144   5.910   5.513   6.439 -0.5300  0.2832  0.2046
 4595SOL     OW18145   4.713   3.737   1.486  0.1277 -0.5055  0.1119
 4595SOL    HW218146   4.662   3.760   1.409  0.5220 -1.4829 -0.4499
 4595SOL    HW318147   4.671   3.785   1.558 -1.6475 -1.3801 -0.3030
 4595SOL    MW418148   4.701   3.746   1.485 -0.0545 -0.7498 -0.0169
 4596SOL     OW18149   3.889   1.418   6.077  0.0730  0.1373 -0.1492
 4596SOL    HW218150   3.928   1.369   6.149  0.1874  1.2897  0.6001
 4596SOL    HW318151   3.837   1.354   6.029  1.5272 -1.0667 -0.1763
 4596SOL    MW418152   3.887   1.403   6.080  0.2800  0.1305 -0.0539
 4597SOL     OW18153   0.364   2.880   3.650  0.2277  0.3704  0.1940
 4597SOL    HW218154   0.399   2.859   3.564 -0.5335  1.1110 -0.3158
 4597SOL    HW318155   0.437   2.920   3.697  0.6734 -0.1217 -0.0689
 4597SOL    MW418156   0.378   2.883   3.645  0.1861  0.4032  0.0920
 4598SOL     OW18157   4.748   1.295   3.715  0.2419  0.2854 -0.1360
 4598SOL    HW218158   4.708   1.357   3.776 -0.8015 -1.0993  0.6673
 4598SOL    HW318159   4.833   1.275   3.754 -0.6925 -1.1286  1.3720
 4598SOL    MW418160   4.754   1.300   3.728 -0.0190 -0.0838  0.1690
 4599SOL     OW18161   5.363   5.261   6.008 -0.3146  0.1545 -0.0891
 4599SOL    HW218162   5.427   5.310   5.957  0.5965 -1.2150 -0.2995
 4599SOL    HW318163   5.388   5.276   6.099 -0.0611  0.1104 -0.1522
 4599SOL    MW418164   5.375   5.270   6.014 -0.1609 -0.0320 -0.1252
 4600SOL     OW18165   2.455   4.421   5.387  0.1223  0.3168  0.1632
 4600SOL    HW218166   2.424   4.436   5.476 -2.1551 -0.4180 -0.4200
 4600SOL    HW318167   2.375   4.409   5.336  1.3878 -0.2940 -1.7983
 4600SOL    MW418168   2.440   4.421   5.392 -0.0112  0.1393 -0.1725
 4601SOL     OW18169   0.750   3.618   5.359  0.4545  0.0799 -0.0646
 4601SOL    HW218170   0.841   3.588   5.364  0.1519 -0.8241  0.2855
 4601SOL    HW318171   0.752   3.690   5.296  1.4195  0.0985 -0.0298
 4601SOL    MW418172   0.762   3.623   5.351  0.5419 -0.0369 -0.0138
 4602SOL     OW18173   2.423   0.793   2.293  0.8665  0.2957 -0.2118
 4602SOL    HW218174   2.415   0.698   2.306  0.7365  0.4100  0.5533
 4602SOL    HW318175   2.498   0.802   2.234  1.9430 -0.2001  1.0350
 4602SOL    MW418176   2.432   0.781   2.287  0.9914  0.2454  0.0537
 4603SOL     OW18177   2.811   2.199   3.397  0.2371 -0.4565 -0.1934
 4603SOL    HW218178   2.857   2.209   3.314  0.4395 -0.2141 -0.0559
 4603SOL    HW318179   2.721   2.224   3.379  0.4593  0.3975 -0.1514
 4603SOL    MW418180   2.806   2.204   3.384  0.2931 -0.3119 -0.1697
 4604SOL     OW18181   5.759   3.452   0.146  0.1367  0.6376  0.1440
 4604SOL    HW218182   5.728   3.417   0.229  1.8426 -0.4810  0.3579
 4604SOL    HW318183   5.844   3.490   0.167  1.0199 -0.4845 -1.2378
 4604SOL    MW418184   5.766   3.453   0.159  0.4783  0.3419 -0.0101
 4605SOL     OW18185   3.041   6.425   0.473  0.0709 -0.1045  0.2153
 4605SOL    HW218186   2.980   6.491   0.442  0.9173  0.5066 -0.2039
 4605SOL    HW318187   2.989   6.367   0.528 -1.4308 -1.0363 -2.0764
 4605SOL    MW418188   3.026   6.426   0.476 -0.0156 -0.1468 -0.1424
 4606SOL     OW18189   4.381   3.694   6.061 -0.1105  0.2036  0.3320
 4606SOL    HW218190   4.339   3.713   6.145  0.1191 -0.6096  0.6472
 4606SOL    HW318191   4.317   3.720   5.996 -0.4268  0.5355  0.7671
 4606SOL    MW418192   4.367   3.700   6.064 -0.1219  0.1401  0.4310
 4607SOL     OW18193   1.795   4.926   6.082  0.0640 -0.3376  0.2342
 4607SOL    HW218194   1.867   4.895   6.137 -0.7968 -0.9475  1.0375
 4607SOL    HW318195   1.789   5.019   6.102  0.5650 -0.3055  0.2457
 4607SOL    MW418196   1.804   4.934   6.092  0.0165 -0.4138  0.3417
 4608SOL     OW18197   2.742   3.743   3.073 -0.5057  0.1276 -0.0700
 4608SOL    HW218198   2.716   3.739   3.165 -0.9438 -0.1118 -0.2036
 4608SOL    HW318199   2.677   3.799   3.031  0.2449  1.0283 -0.0522
 4608SOL    MW418200   2.730   3.750   3.079 -0.4645  0.2149 -0.0853
 4609SOL     OW18201   5.174   5.524   4.349  0.7197 -0.0787  0.0121
 4609SOL    HW218202   5.243   5.492   4.292  2.2037  0.4618  1.3996
 4609SOL    HW318203   5.191   5.482   4.433  1.1447  2.2026  1.1642
 4609SOL    MW418204   5.185   5.515   4.353  0.9715  0.2936  0.3472
 4610SOL     OW18205   0.624   5.312   2.867  0.4895  0.0548 -0.0753
 4610SOL    HW218206   0.669   5.354   2.794  0.1115  0.8794  0.1549
 4610SOL    HW318207   0.648   5.364   2.944 -0.6963  0.4039  0.0802
 4610SOL    MW418208   0.633   5.324   2.868  0.2832  0.2097 -0.0244
 4611SOL     OW18209   2.038   5.068   5.966  0.1663 -0.8860  0.3116
 4611SOL    HW218210   2.048   5.061   5.871  0.9200 -0.1148  0.3276
 4611SOL    HW318211   2.103   5.008   6.002  1.0595  0.0771  0.3482
 4611SOL    MW418212   2.048   5.059   5.959  0.3836 -0.6572  0.3185
 4612SOL     OW18213   1.260   6.281   1.185 -0.7020 -0.4968  0.0549
 4612SOL    HW218214   1.191   6.347   1.184 -0.1246  0.1118 -0.0149
 4612SOL    HW318215   1.237   6.221   1.114 -0.6883  0.1995 -0.5507
 4612SOL    MW418216   1.248   6.282   1.175 -0.6240 -0.3247 -0.0342
 4613SOL     OW18217   1.146   2.856   4.258  0.2928 -0.7230 -0.0032
 4613SOL    HW218218   1.073   2.849   4.197  0.1339 -1.6220  0.2784
 4613SOL    HW318219   1.218   2.891   4.206 -0.5741  1.0769 -0.0704
 4613SOL    MW418220   1.146   2.860   4.243  0.1575 -0.6041  0.0251
 4614SOL     OW18221   1.575   4.350   2.849  0.1449  0.4123  0.6689
 4614SOL    HW218222   1.494   4.355   2.899 -0.0988  0.1026  0.3164
 4614SOL    HW318223   1.575   4.261   2.812 -0.5103  1.1640 -1.2427
 4614SOL    MW418224   1.565   4.339   2.851  0.0263  0.4706  0.3702
 4615SOL     OW18225   0.201   6.157   4.713 -0.2166  0.4524  0.7934
 4615SOL    HW218226   0.207   6.106   4.632  1.6365  1.0226  0.5264
 4615SOL    HW318227   0.290   6.154   4.750 -0.7443  1.1880  2.1963
 4615SOL    MW418228   0.214   6.150   4.708 -0.0417  0.6247  0.9433
 4616SOL     OW18229   3.545   2.853   2.454 -0.2138  0.2447 -0.2308
 4616SOL    HW218230   3.537   2.891   2.541  1.1429 -0.6142  0.2993
 4616SOL    HW318231   3.469   2.795   2.445  0.8470 -1.4998  1.3697
 4616SOL    MW418232   3.534   2.850   2.464  0.1052 -0.0988  0.0503
 4617SOL     OW18233   0.925   0.177   5.979  0.2317 -0.0879 -0.3387
 4617SOL    HW218234   0.977   0.159   5.901 -1.0981  0.7064 -1.4621
 4617SOL    HW318235   0.918   0.093   6.024  0.3583 -0.7391 -1.4998
 4617SOL    MW418236   0.931   0.164   5.974  0.0730 -0.0690 -0.6401
 4618SOL     OW18237   3.747   2.510   1.430  0.1116 -0.3748 -0.1995
 4618SOL    HW218238   3.820   2.564   1.399  0.5268 -1.0527 -0.4396
 4618SOL    HW318239   3.722   2.457   1.354 -1.6686  0.9347 -0.5776
 4618SOL    MW418240   3.753   2.510   1.416 -0.0685 -0.2915 -0.2811
 4619SOL     OW18241   1.529   4.127   4.461  0.4008  0.1941  0.1540
 4619SOL    HW218242   1.563   4.211   4.494 -1.1420  0.4006  1.3206
 4619SOL    HW318243   1.468   4.098   4.528  0.3395 -1.5163 -0.6002
 4619SOL    MW418244   1.526   4.134   4.474  0.1892 -0.0043  0.2084
 4620SOL     OW18245   3.346   2.413   1.603 -0.2841  0.1607  0.4494
 4620SOL    HW218246   3.290   2.407   1.681  0.4271  0.3037  0.9886
 4620SOL    HW318247   3.430   2.446   1.637  0.0660  0.1253 -0.3652
 4620SOL    MW418248   3.350   2.417   1.618 -0.1441  0.1749  0.4131
 4621SOL     OW18249   2.055   2.666   5.639 -0.2055 -0.4795 -0.5854
 4621SOL    HW218250   2.008   2.681   5.721  1.3566 -0.1945  0.2977
 4621SOL    HW318251   2.123   2.734   5.637  0.1769 -0.8565 -1.8179
 4621SOL    MW418252   2.058   2.677   5.649  0.0511 -0.4917 -0.6315
 4622SOL     OW18253   5.085   5.300   1.986  0.0686 -0.0001  0.5189
 4622SOL    HW218254   5.055   5.386   1.956  0.1469 -0.0686  0.2436
 4622SOL    HW318255   5.099   5.250   1.906  1.2550  0.1336  0.6320
 4622SOL    MW418256   5.083   5.305   1.972  0.2354  0.0085  0.4975
 4623SOL     OW18257   6.139   4.478   6.178 -0.4417  0.6573  0.1642
 4623SOL    HW218258   6.205   4.492   6.110 -2.4004 -0.4074 -2.0956
 4623SOL    HW318259   6.172   4.405   6.231 -0.2029 -0.5015 -1.5288
 4623SOL    MW418260   6.152   4.470   6.176 -0.6686  0.3639 -0.3573
 4624SOL     OW18261   1.979   2.728   1.824 -0.2749 -0.6221 -0.1531
 4624SOL    HW218262   1.972   2.784   1.902  0.6807 -0.0114 -0.4839
 4624SOL    HW318263   1.957   2.640   1.856  1.9452 -0.7418  1.2861
 4624SOL    MW418264   1.975   2.724   1.839  0.1441 -0.5573 -0.0069
 4625SOL     OW18265   1.728   0.337   0.569  0.2111  1.0141  0.2024
 4625SOL    HW218266   1.726   0.392   0.491 -0.9079 -0.5972 -0.9804
 4625SOL    HW318267   1.817   0.348   0.603  0.5961  2.1057 -1.0554
 4625SOL    MW418268   1.740   0.346   0.563  0.1142  0.9455 -0.1196
 4626SOL     OW18269   1.194   3.006   6.369  0.0252 -0.7531  0.5422
 4626SOL    HW218270   1.135   2.931   6.375 -1.9696  0.8114  1.8556
 4626SOL    HW318271   1.137   3.081   6.353  2.0085  0.4524 -1.4569
 4626SOL    MW418272   1.179   3.006   6.368  0.0237 -0.3877  0.4518
 4627SOL     OW18273   3.881   1.651   5.938 -0.4224  0.4520  0.0824
 4627SOL    HW218274   3.878   1.576   5.998 -1.0096  0.7310  0.4077
 4627SOL    HW318275   3.973   1.678   5.938  0.0089 -0.8929 -0.8281
 4627SOL    MW418276   3.893   1.644   5.946 -0.4429  0.3114  0.0052
 4628SOL     OW18277   4.666   2.867   1.916  0.3685  0.0104 -0.2175
 4628SOL    HW218278   4.586   2.852   1.865  0.4331 -1.5822  0.1017
 4628SOL    HW318279   4.734   2.816   1.871  0.4174 -1.4663  1.4027
 4628SOL    MW418280   4.664   2.858   1.903  0.3835 -0.3945  0.0384
 4629SOL     OW18281   5.509   1.620   0.281 -0.5181  0.0395 -0.0256
 4629SOL    HW218282   5.504   1.553   0.214  0.9945  2.3229 -2.6349
 4629SOL    HW318283   5.603   1.632   0.296 -0.7966  0.2730  1.8657
 4629SOL    MW418284   5.521   1.613   0.274 -0.3552  0.3716 -0.1204
 4630SOL     OW18285   3.542   0.669   3.991 -0.3533 -0.1106 -0.4646
 4630SOL    HW218286   3.510   0.586   3.956 -0.0625 -0.5868  0.3802
 4630SOL    HW318287   3.528   0.732   3.920  0.0955 -1.0231 -1.3825
 4630SOL    MW418288   3.536   0.667   3.977 -0.2557 -0.2938 -0.4743
 4631SOL     OW18289   5.111   2.688   1.684  0.3412 -0.3141 -0.6207
 4631SOL    HW218290   5.103   2.670   1.591  0.5073 -2.1479 -0.3119
 4631SOL    HW318291   5.131   2.603   1.724  1.7699  0.6689  0.9197
 4631SOL    MW418292   5.113   2.674   1.677  0.5516 -0.4264 -0.3767
 4632SOL     OW18293   4.197   0.532   5.371  0.6740  0.0859 -0.0043
 4632SOL    HW218294   4.266   0.469   5.388  0.3156  0.2468  2.4412
 4632SOL    HW318295   4.116   0.485   5.391  0.2010  0.5034 -0.8742
 4632SOL    MW418296   4.195   0.518   5.376  0.5643  0.1622  0.2035
 4633SOL     OW18297   0.858   3.038   2.021 -0.0397 -0.0472 -0.2153
 4633SOL    HW218298   0.802   3.114   2.010 -0.9052 -0.6355 -0.0328
 4633SOL    HW318299   0.944   3.066   1.991 -0.2650  1.0993  0.1778
 4633SOL    MW418300   0.862   3.051   2.016 -0.1836  0.0265 -0.1394
 4634SOL     OW18301   6.397   2.292   5.530 -0.0228 -0.7945 -0.1415
 4634SOL    HW218302   6.404   2.196   5.530  2.6890 -0.6750  0.4799
 4634SOL    HW318303   6.309   2.309   5.563 -0.9433 -3.0635 -1.1904
 4634SOL    MW418304   6.386   2.282   5.535  0.2135 -1.0781 -0.1979
 4635SOL     OW18305   5.078   4.092   3.270 -0.4521 -0.1305 -0.0728
 4635SOL    HW218306   5.048   4.180   3.289 -2.5216 -0.4496 -1.5761
 4635SOL    HW318307   4.998   4.042   3.252  0.7487 -1.9610 -0.6735
 4635SOL    MW418308   5.064   4.097   3.270 -0.5667 -0.4141 -0.3504
 4636SOL     OW18309   2.938   4.677   1.934 -0.6905  0.2683 -0.1110
 4636SOL    HW218310   2.897   4.741   1.876  1.6262  0.6430 -1.4332
 4636SOL    HW318311   2.868   4.615   1.955 -2.0432  1.1241 -1.8618
 4636SOL    MW418312   2.923   4.677   1.929 -0.5633  0.4306 -0.5165
 4637SOL     OW18313   5.272   0.054   1.321  0.1015 -0.3260 -0.2322
 4637SOL    HW218314   5.260  -0.039   1.337  1.5957 -0.7074 -1.1337
 4637SOL    HW318315   5.287   0.092   1.407  0.5996 -1.1019  0.0323
 4637SOL    MW418316   5.272   0.047   1.334  0.3644 -0.4787 -0.3163
 4638SOL     OW18317   3.175   2.978   0.688 -0.1969  0.4949 -0.3502
 4638SOL    HW218318   3.096   3.030   0.671 -0.7786 -0.2014  0.1523
 4638SOL    HW318319   3.220   3.023   0.759 -0.0587  0.9821 -0.7450
 4638SOL    MW418320   3.171   2.990   0.695 -0.2554  0.4673 -0.3360
 4639SOL     OW18321   1.736   6.289   3.872  0.1199 -0.1345  0.2671
 4639SOL    HW218322   1.757   6.258   3.784 -1.0821  2.0072 -0.8649
 4639SOL    HW318323   1.654   6.244   3.895  0.8003 -1.2250  0.6248
 4639SOL    MW418324   1.728   6.279   3.864  0.0511  0.0042  0.1649
 4640SOL     OW18325   3.664   6.376   0.121  0.0247  0.3782  0.0218
 4640SOL    HW218326   3.735   6.388   0.058  0.5322 -1.4055  0.1948
 4640SOL    HW318327   3.608   6.310   0.081  0.0868 -0.4049  1.2019
 4640SOL    MW418328   3.666   6.369   0.107  0.0999  0.0396  0.2003
 4641SOL     OW18329   3.558   5.712   2.975  0.5747 -0.2297 -0.6586
 4641SOL    HW218330   3.557   5.675   3.063 -0.6792  0.6839 -0.2569
 4641SOL    HW318331   3.603   5.646   2.922  1.3860 -0.7812  0.6574
 4641SOL    MW418332   3.564   5.698   2.980  0.5163 -0.1819 -0.4320
 4642SOL     OW18333   3.136   6.090   1.543 -0.0285  0.4606  0.0590
 4642SOL    HW218334   3.202   6.103   1.475  0.5059 -0.3777  0.4032
 4642SOL    HW318335   3.054   6.079   1.496 -0.2073  2.8939 -0.3424
 4642SOL    MW418336   3.134   6.090   1.528  0.0184  0.6711  0.0515
 4643SOL     OW18337   1.916   4.750   0.231  0.7016  0.1209 -0.0055
 4643SOL    HW218338   1.863   4.674   0.254  0.7118 -0.3179 -1.3498
 4643SOL    HW318339   1.891   4.817   0.295 -0.0718 -0.6756  0.5471
 4643SOL    MW418340   1.906   4.749   0.242  0.6009 -0.0421 -0.1100
 4644SOL     OW18341   3.691   3.701   3.709  0.5146  0.3763  0.1532
 4644SOL    HW218342   3.622   3.751   3.666 -0.2195 -1.5443 -1.0726
 4644SOL    HW318343   3.749   3.674   3.638  1.5431  0.4558  0.9326
 4644SOL    MW418344   3.690   3.704   3.694  0.5534  0.1334  0.0943
 4645SOL     OW18345   5.874   2.170   1.279  0.5249 -0.1482 -0.0761
 4645SOL    HW218346   5.960   2.202   1.255  0.3922  0.2150 -0.0771
 4645SOL    HW318347   5.875   2.077   1.256  1.1835 -0.3369  0.6637
 4645SOL    MW418348   5.885   2.162   1.273  0.5943 -0.1252  0.0213
 4646SOL     OW18349   0.455   2.995   1.590  0.1412 -0.3066 -0.0649
 4646SOL    HW218350   0.510   2.957   1.522  0.0624 -0.3148 -0.1240
 4646SOL    HW318351   0.369   3.007   1.549 -0.4366 -2.0093  0.5504
 4646SOL    MW418352   0.451   2.992   1.576  0.0546 -0.5323  0.0085
 4647SOL     OW18353   4.667   5.102   5.383  0.1258 -0.2320 -0.3955
 4647SOL    HW218354   4.752   5.058   5.376  0.2317  0.1180 -1.4447
 4647SOL    HW318355   4.613   5.040   5.432  1.4267  0.2405  1.7758
 4647SOL    MW418356   4.671   5.088   5.389  0.3114 -0.1235 -0.2475
 4648SOL     OW18357   1.767   3.356   2.445 -0.3063  0.2146  0.6213
 4648SOL    HW218358   1.772   3.451   2.436  0.8759  0.2095  0.9574
 4648SOL    HW318359   1.766   3.341   2.540 -0.2872 -0.1009  0.5722
 4648SOL    MW418360   1.768   3.367   2.457 -0.1478  0.1723  0.6592
 4649SOL     OW18361   0.300   2.651   4.737  0.4661 -0.0654  0.5886
 4649SOL    HW218362   0.326   2.682   4.824 -2.2972 -0.1285  1.5557
 4649SOL    HW318363   0.295   2.556   4.745  0.9485 -0.1386  0.1006
 4649SOL    MW418364   0.303   2.643   4.749  0.1652 -0.0834  0.6518
 4650SOL     OW18365   3.302   0.483   2.055  0.3485  0.2096  0.0784
 4650SOL    HW218366   3.383   0.534   2.062  0.5870 -0.2995  1.4775
 4650SOL    HW318367   3.235   0.540   2.093  0.3716 -0.0002  0.4407
 4650SOL    MW418368   3.304   0.497   2.061  0.3830  0.1148  0.3108
 4651SOL     OW18369   1.207   1.047   4.359 -0.2958 -0.1449  0.2377
 4651SOL    HW218370   1.213   1.098   4.439  0.6534  0.1082  0.0199
 4651SOL    HW318371   1.273   0.979   4.369 -1.0196 -0.8677  0.1916
 4651SOL    MW418372   1.216   1.045   4.371 -0.2661 -0.2069  0.2029
 4652SOL     OW18373   2.563   3.234   0.545  0.4544 -0.3859  0.0920
 4652SOL    HW218374   2.591   3.153   0.587  3.0651  0.1717 -0.3690
 4652SOL    HW318375   2.566   3.214   0.451  2.5729  0.5816 -0.0990
 4652SOL    MW418376   2.567   3.220   0.538  1.0784 -0.1847  0.0060
 4653SOL     OW18377   4.931   3.151   6.116  0.1454 -0.2254 -0.1896
 4653SOL    HW218378   4.925   3.075   6.059  0.6636  0.5107 -1.2604
 4653SOL    HW318379   4.898   3.120   6.200 -0.0969 -1.4961 -0.7225
 4653SOL    MW418380   4.926   3.137   6.119  0.1818 -0.2959 -0.4012
 4654SOL     OW18381   1.293   0.542   4.553 -0.1055  0.2049 -0.1477
 4654SOL    HW218382   1.274   0.538   4.459  0.8269  0.0637 -0.3442
 4654SOL    HW318383   1.263   0.457   4.587  1.0903 -0.4527 -0.6446
 4654SOL    MW418384   1.287   0.530   4.545  0.1753  0.0995 -0.2392
 4655SOL     OW18385   3.388   3.496   5.774 -0.7165 -0.5952 -0.5859
 4655SOL    HW218386   3.359   3.555   5.843  1.1531  1.0723 -1.1354
 4655SOL    HW318387   3.308   3.452   5.745 -1.7019 -0.5593  1.8694
 4655SOL    MW418388   3.374   3.498   5.779 -0.5998 -0.3704 -0.3345
 4656SOL     OW18389   0.724   5.807   5.516 -0.2831  0.0785  0.1532
 4656SOL    HW218390   0.629   5.809   5.522 -0.3074 -0.6616  0.0791
 4656SOL    HW318391   0.753   5.773   5.601 -0.1076 -0.1014  0.0226
 4656SOL    MW418392   0.716   5.803   5.528 -0.2631 -0.0429  0.1262
 4657SOL     OW18393   6.363   3.094   4.966  0.3506 -0.3493  0.1291
 4657SOL    HW218394   6.304   3.156   5.008  0.1773  1.0201 -1.9798
 4657SOL    HW318395   6.306   3.024   4.935 -0.0064  0.2982 -0.7158
 4657SOL    MW418396   6.348   3.093   4.968  0.2806 -0.0832 -0.2606
 4658SOL     OW18397   4.799   0.174   1.292  0.0854  0.4479  0.1669
 4658SOL    HW218398   4.849   0.228   1.231 -0.6296 -0.3152 -1.1232
 4658SOL    HW318399   4.708   0.188   1.268 -0.1208 -1.3203 -0.1907
 4658SOL    MW418400   4.794   0.183   1.281 -0.0361  0.1139 -0.0505
 4659SOL     OW18401   5.275   4.018   1.867  0.1899 -0.2062  0.0818
 4659SOL    HW218402   5.184   4.048   1.874  0.4915  0.4411  1.8893
 4659SOL    HW318403   5.303   4.046   1.780 -1.4247 -0.6843 -0.6144
 4659SOL    MW418404   5.267   4.026   1.857  0.0167 -0.1839  0.2284
 4660SOL     OW18405   0.384   1.316   2.767 -0.0801  0.3582  0.9401
 4660SOL    HW218406   0.374   1.403   2.806 -1.4416  0.3724  0.6080
 4660SOL    HW318407   0.344   1.324   2.680 -2.5151 -1.2054  1.7996
 4660SOL    MW418408   0.378   1.328   2.760 -0.5810  0.1537  1.0097
 4661SOL     OW18409   5.368   1.886   2.542  0.2109  0.0338 -0.2069
 4661SOL    HW218410   5.361   1.975   2.506  2.1924 -0.4360 -1.9521
 4661SOL    HW318411   5.297   1.837   2.499  0.7978  0.1648 -1.3730
 4661SOL    MW418412   5.357   1.891   2.532  0.5498 -0.0109 -0.5910
 4662SOL     OW18413   4.281   1.393   2.427 -0.3500 -0.4258  0.2014
 4662SOL    HW218414   4.205   1.407   2.372  0.7055 -0.3924 -1.2993
 4662SOL    HW318415   4.342   1.463   2.404  0.2705 -0.6344  1.1358
 4662SOL    MW418416   4.279   1.404   2.417 -0.1289 -0.4489  0.1267
 4663SOL     OW18417   1.848   0.124   5.860  0.3358  0.2191 -0.4230
 4663SOL    HW218418   1.940   0.108   5.838  0.1580 -1.3563 -0.1125
 4663SOL    HW318419   1.798   0.083   5.789 -0.1448 -0.8737  0.5099
 4663SOL    MW418420   1.854   0.116   5.848  0.2489 -0.1329 -0.2589
 4664SOL     OW18421   2.193   0.133   0.465 -0.0099 -0.2316 -0.2195
 4664SOL    HW218422   2.200   0.228   0.476  3.3307 -0.3346 -0.3298
 4664SOL    HW318423   2.158   0.101   0.549  1.0243  0.9389  0.6870
 4664SOL    MW418424   2.189   0.141   0.477  0.5673 -0.0907 -0.1144
 4665SOL     OW18425   5.338   5.289   3.712 -0.4222  0.2532  0.3436
 4665SOL    HW218426   5.279   5.353   3.753 -0.7345 -0.8361  1.6671
 4665SOL    HW318427   5.422   5.304   3.756 -1.2563 -2.3629  3.1630
 4665SOL    MW418428   5.341   5.300   3.724 -0.5734 -0.2357  0.8902
 4666SOL     OW18429   3.241   3.209   3.731  0.0018  0.4058 -0.0749
 4666SOL    HW218430   3.199   3.135   3.775  2.1372 -1.5547 -1.0889
 4666SOL    HW318431   3.196   3.215   3.646  0.4700 -0.4270 -0.3924
 4666SOL    MW418432   3.230   3.200   3.726  0.3453  0.0372 -0.2506
 4667SOL     OW18433   1.587   4.805   0.647  0.3635  0.3930  0.0026
 4667SOL    HW218434   1.555   4.762   0.726 -2.4676 -0.2250 -1.3454
 4667SOL    HW318435   1.642   4.739   0.605  0.2226 -0.0172  0.4491
 4667SOL    MW418436   1.590   4.791   0.652 -0.0286  0.2573 -0.1164
 4668SOL     OW18437   3.224   2.646   3.154 -0.2433  0.0620  0.2060
 4668SOL    HW218438   3.272   2.635   3.236 -0.6396  0.7128  0.5295
 4668SOL    HW318439   3.200   2.557   3.128  1.5591 -0.3488 -0.2289
 4668SOL    MW418440   3.227   2.633   3.161 -0.0578  0.0937  0.1913
 4669SOL     OW18441   4.146   0.797   5.353 -0.3319  0.0099  0.2380
 4669SOL    HW218442   4.173   0.706   5.345  1.0374  0.5044 -1.3375
 4669SOL    HW318443   4.168   0.837   5.268  1.9315  2.4957  1.8361
 4669SOL    MW418444   4.153   0.790   5.341  0.1474  0.4031  0.2410
 4670SOL     OW18445   5.016   4.635   3.499  0.0251 -0.6365 -0.2701
 4670SOL    HW218446   5.091   4.694   3.505 -0.6337  0.2840 -0.7895
 4670SOL    HW318447   4.944   4.684   3.538 -0.7381 -0.7266 -1.5132
 4670SOL    MW418448   5.016   4.649   3.505 -0.1625 -0.5269 -0.5026
 4671SOL     OW18449   0.606   0.461   1.772 -0.0198  0.0179  0.2605
 4671SOL    HW218450   0.577   0.420   1.854 -0.7271  1.1114  0.5810
 4671SOL    HW318451   0.591   0.394   1.706 -0.8147 -0.3855  0.8227
 4671SOL    MW418452   0.600   0.447   1.774 -0.2180  0.1089  0.3770
 4672SOL     OW18453   0.353   5.279   2.951  0.8608  0.2336 -0.5611
 4672SOL    HW218454   0.328   5.356   3.003  1.3339 -0.1322  0.2251
 4672SOL    HW318455   0.448   5.278   2.953  0.8925  0.3508 -1.6600
 4672SOL    MW418456   0.362   5.289   2.958  0.9274  0.2008 -0.6024
 4673SOL     OW18457   0.663   1.272   0.928  0.3071  0.4915  0.1847
 4673SOL    HW218458   0.581   1.237   0.894  0.9866  1.4275 -2.7477
 4673SOL    HW318459   0.639   1.357   0.964 -0.1038  0.5628 -0.2410
 4673SOL    MW418460   0.649   1.279   0.928  0.3425  0.6244 -0.2583
 4674SOL     OW18461   3.595   6.283   3.799  0.2517  0.3366 -0.5126
 4674SOL    HW218462   3.669   6.229   3.825 -1.8220 -3.4671 -1.5801
 4674SOL    HW318463   3.558   6.237   3.723 -2.4582  2.7228 -0.8209
 4674SOL    MW418464   3.600   6.270   3.792 -0.3794  0.1496 -0.6941
 4675SOL     OW18465   0.712   0.269   0.463  0.0042  0.1474  0.0313
 4675SOL    HW218466   0.673   0.202   0.519 -0.1480  0.0449 -0.1915
 4675SOL    HW318467   0.640   0.295   0.405 -0.3447  1.5067  1.0215
 4675SOL    MW418468   0.697   0.264   0.463 -0.0619  0.3132  0.1326
 4676SOL     OW18469   0.426   5.050   0.313 -0.9238 -0.2682 -0.1936
 4676SOL    HW218470   0.409   5.042   0.219 -1.0165  0.9923 -0.3044
 4676SOL    HW318471   0.372   5.124   0.341 -0.4570 -0.2621  0.7253
 4676SOL    MW418472   0.417   5.059   0.304 -0.8744 -0.1011 -0.0870
 4677SOL     OW18473   4.149   2.051   6.001  0.3554 -0.1205 -0.1070
 4677SOL    HW218474   4.148   1.957   5.984 -0.7070 -0.2928  0.7531
 4677SOL    HW318475   4.120   2.059   6.092 -0.9995  1.0976 -0.5904
 4677SOL    MW418476   4.145   2.040   6.011  0.0365  0.0175 -0.0573
 4678SOL     OW18477   6.253   5.824   6.001  0.5997 -0.5417  0.8367
 4678SOL    HW218478   6.303   5.905   6.000 -2.5763  1.6430  2.0811
 4678SOL    HW318479   6.196   5.829   5.924 -0.1559 -1.2040  1.3302
 4678SOL    MW418480   6.252   5.835   5.991  0.0810 -0.3408  1.0660
 4679SOL     OW18481   0.975   2.263   5.747 -0.2200 -0.5802  0.5178
 4679SOL    HW218482   0.891   2.217   5.749 -0.4899 -0.1154  2.7882
 4679SOL    HW318483   0.971   2.324   5.822  0.8224  1.8606 -1.2582
 4679SOL    MW418484   0.963   2.265   5.758 -0.1181 -0.1968  0.5830
 4680SOL     OW18485   2.202   4.016   4.726 -0.4170 -0.5768  0.0818
 4680SOL    HW218486   2.118   3.978   4.749 -2.5836  2.3590 -2.0997
 4680SOL    HW318487   2.236   3.960   4.656 -0.9925 -1.3009  0.3771
 4680SOL    MW418488   2.196   4.004   4.720 -0.7788 -0.2850 -0.1671
 4681SOL     OW18489   5.546   2.638   4.960 -0.3898 -0.0201  0.1707
 4681SOL    HW218490   5.591   2.715   4.925  0.4467  0.0711  1.3827
 4681SOL    HW318491   5.527   2.661   5.051 -2.2265 -0.3633 -0.0983
 4681SOL    MW418492   5.550   2.652   4.968 -0.5217 -0.0534  0.2951
 4682SOL     OW18493   5.342   0.433   5.774  0.0109 -0.0946  0.3935
 4682SOL    HW218494   5.364   0.521   5.744  1.4604  0.0252  1.7112
 4682SOL    HW318495   5.255   0.442   5.814 -0.0584  0.6321  0.0857
 4682SOL    MW418496   5.333   0.446   5.775  0.1930  0.0171  0.5268
 4683SOL     OW18497   3.381   4.396   1.941 -0.1225 -0.3206  0.2038
 4683SOL    HW218498   3.339   4.313   1.961 -0.3533 -0.3763 -0.4710
 4683SOL    HW318499   3.445   4.409   2.011 -0.6458 -0.6707  0.7506
 4683SOL    MW418500   3.384   4.387   1.953 -0.2220 -0.3741  0.1869
 4684SOL     OW18501   4.183   2.170   2.521 -0.1180  0.0905  0.1441
 4684SOL    HW218502   4.247   2.118   2.570  0.4945 -1.0766 -1.8096
 4684SOL    HW318503   4.235   2.239   2.479 -0.4604  0.3805  0.1904
 4684SOL    MW418504   4.199   2.173   2.522 -0.0824 -0.0252 -0.1076
 4685SOL     OW18505   6.354   5.598   6.473 -0.2243  0.3861 -0.3580
 4685SOL    HW218506   6.356   5.641   6.387  2.1841 -1.1087 -1.1332
 4685SOL    HW318507   6.355   5.505   6.453 -1.3548 -0.0361  1.3262
 4685SOL    MW418508   6.354   5.591   6.459 -0.0557  0.1332 -0.2381
 4686SOL     OW18509   4.435   2.763   2.968  0.2063  0.2732 -0.2070
 4686SOL    HW218510   4.351   2.801   2.991  0.7406  0.5067  1.4869
 4686SOL    HW318511   4.487   2.767   3.049  2.5487  1.9436 -1.6577
 4686SOL    MW418512   4.431   2.768   2.982  0.5858  0.5244 -0.1749
 4687SOL     OW18513   3.754   2.120   0.571  0.2299  0.8668 -0.2953
 4687SOL    HW218514   3.783   2.031   0.550  3.1898  1.8257 -0.6818
 4687SOL    HW318515   3.748   2.121   0.667  1.3624  0.5602 -0.2115
 4687SOL    MW418516   3.757   2.108   0.581  0.7698  0.9528 -0.3352
 4688SOL     OW18517   1.932   1.208   3.607 -0.0675  0.1478  0.5920
 4688SOL    HW218518   1.876   1.286   3.617  1.3073  1.2689 -0.0972
 4688SOL    HW318519   1.895   1.144   3.668 -2.4213  0.6294 -0.2124
 4688SOL    MW418520   1.920   1.210   3.616 -0.1967  0.3593  0.3949
 4689SOL     OW18521   5.060   2.795   4.549 -0.3497  0.7743 -0.2334
 4689SOL    HW218522   5.069   2.890   4.548  0.2261  0.7245 -0.2329
 4689SOL    HW318523   5.145   2.763   4.580 -0.2144  0.2270 -1.1272
 4689SOL    MW418524   5.073   2.803   4.553 -0.2558  0.6956 -0.3513
 4690SOL     OW18525   1.701   0.388   4.121 -0.1389 -0.3019  0.4395
 4690SOL    HW218526   1.715   0.309   4.068 -0.1763  0.5691 -0.9001
 4690SOL    HW318527   1.655   0.356   4.199  0.7806 -1.7584  0.4277
 4690SOL    MW418528   1.697   0.373   4.124 -0.0225 -0.3792  0.2612
 4691SOL     OW18529   0.762   5.863   1.326  0.3562 -0.5896 -0.0073
 4691SOL    HW218530   0.837   5.895   1.376  0.1992 -2.8672  1.8380
 4691SOL    HW318531   0.782   5.771   1.308 -1.4094 -0.8936 -0.6611
 4691SOL    MW418532   0.775   5.855   1.330  0.1025 -0.9302  0.1499
 4692SOL     OW18533   2.865   1.632   3.730  0.1142 -0.1988 -0.0145
 4692SOL    HW218534   2.858   1.708   3.788 -1.1531 -0.7307  0.5653
 4692SOL    HW318535   2.852   1.557   3.787  2.2499 -0.9460 -0.4138
 4692SOL    MW418536   2.863   1.632   3.745  0.2288 -0.3676  0.0093
 4693SOL     OW18537   5.925   0.603   4.980  0.2202  0.3051  0.0761
 4693SOL    HW218538   5.892   0.690   4.958  0.6573  1.0412  2.1286
 4693SOL    HW318539   6.015   0.603   4.949  0.9120  1.4247  1.9308
 4693SOL    MW418540   5.932   0.615   4.973  0.3692  0.5500  0.5916
 4694SOL     OW18541   5.070   2.675   1.405  0.2415  0.1609 -0.3477
 4694SOL    HW218542   5.161   2.650   1.387  0.0861 -0.1709 -0.6669
 4694SOL    HW318543   5.072   2.771   1.401  0.3655  0.1255 -1.4221
 4694SOL    MW418544   5.083   2.685   1.402  0.2374  0.1125 -0.5316
 4695SOL     OW18545   4.626   3.193   1.806 -0.4482 -0.0233 -0.5088
 4695SOL    HW218546   4.664   3.128   1.747 -0.1625 -2.1581  1.8645
 4695SOL    HW318547   4.686   3.268   1.801  2.0308 -1.8211  0.2397
 4695SOL    MW418548   4.639   3.195   1.797 -0.0834 -0.5422 -0.0969
 4696SOL     OW18549   6.317   0.136   3.579  0.1276 -0.2049 -0.1487
 4696SOL    HW218550   6.411   0.124   3.565 -0.1762 -0.1736 -2.9194
 4696SOL    HW318551   6.280   0.048   3.565 -0.1918 -0.4936  2.2065
 4696SOL    MW418552   6.324   0.123   3.575  0.0453 -0.2389 -0.2035
 4697SOL     OW18553   3.449   5.582   4.531  0.2934  0.1820  0.2333
 4697SOL    HW218554   3.476   5.672   4.516 -2.3246  0.9676 -0.2992
 4697SOL    HW318555   3.429   5.548   4.444  0.3259 -0.5870  0.5160
 4697SOL    MW418556   3.450   5.589   4.517 -0.0477  0.1842  0.2003
 4698SOL     OW18557   3.124   3.331   6.364  0.6226 -0.5470  0.2805
 4698SOL    HW218558   3.038   3.316   6.323  0.6587 -0.6799  0.2509
 4698SOL    HW318559   3.132   3.260   6.428  1.5785 -1.7446 -1.1211
 4698SOL    MW418560   3.114   3.320   6.367  0.7535 -0.7225  0.0917
 4699SOL     OW18561   6.297   2.906   1.170 -0.4801 -0.0327 -0.3350
 4699SOL    HW218562   6.255   2.889   1.086  0.9921 -0.2801 -1.0414
 4699SOL    HW318563   6.379   2.949   1.148 -0.3360  0.4329  1.0175
 4699SOL    MW418564   6.302   2.909   1.156 -0.2669 -0.0039 -0.2498
 4700SOL     OW18565   1.569   4.022   4.813  0.3799  0.1995  0.2636
 4700SOL    HW218566   1.485   3.978   4.821  0.5699 -0.0496  0.9655
 4700SOL    HW318567   1.555   4.107   4.855  0.0017  0.8563 -1.1226
 4700SOL    MW418568   1.556   4.028   4.819  0.3551  0.2533  0.1733
 4701SOL     OW18569   4.147   4.474   4.532  0.1394  0.1439 -1.0060
 4701SOL    HW218570   4.139   4.565   4.503  0.3904  0.0240 -1.4557
 4701SOL    HW318571   4.220   4.439   4.481  0.9177  0.0696  0.1114
 4701SOL    MW418572   4.156   4.481   4.521  0.2752  0.1182 -0.9179
 4702SOL     OW18573   3.228   4.720   5.532  0.0357 -0.3965  0.5286
 4702SOL    HW218574   3.252   4.628   5.519 -0.9588 -0.3643 -2.3532
 4702SOL    HW318575   3.303   4.759   5.576  0.7086 -2.4586  1.3023
 4702SOL    MW418576   3.241   4.713   5.536 -0.0068 -0.6643  0.2505
 4703SOL     OW18577   0.126   3.913   5.357 -0.4236  0.2445  0.5736
 4703SOL    HW218578   0.069   3.966   5.412  0.0293  0.7424  0.5724
 4703SOL    HW318579   0.069   3.879   5.289 -0.7720  0.5292  0.7209
 4703SOL    MW418580   0.111   3.916   5.355 -0.4098  0.3477  0.5929
 4704SOL     OW18581   6.145   0.095   0.375  0.1310 -0.3379  0.5596
 4704SOL    HW218582   6.186   0.100   0.462  0.9335 -1.0429  0.2373
 4704SOL    HW318583   6.177   0.012   0.339 -1.5363 -0.8879  0.2550
 4704SOL    MW418584   6.154   0.085   0.382  0.0169 -0.5035  0.4769
 4705SOL     OW18585   2.584   6.058   6.005  0.1540  0.0093  0.2863
 4705SOL    HW218586   2.564   6.084   6.095 -0.5274  2.0183 -0.3887
 4705SOL    HW318587   2.571   5.963   6.004 -2.0202  0.2186  1.7583
 4705SOL    MW418588   2.580   6.049   6.017 -0.2227  0.3020  0.3915
 4706SOL     OW18589   0.776   5.804   0.485  0.3883  0.2333  0.0130
 4706SOL    HW218590   0.763   5.862   0.410 -0.7952  1.3753  1.0462
 4706SOL    HW318591   0.688   5.788   0.518  0.8635 -0.5097  0.9678
 4706SOL    MW418592   0.763   5.810   0.480  0.2948  0.2860  0.2753
 4707SOL     OW18593   6.228   0.257   4.561  0.0199  0.1305 -0.3223
 4707SOL    HW218594   6.153   0.313   4.546 -0.1184 -0.6450 -2.9234
 4707SOL    HW318595   6.191   0.178   4.602 -0.3904  0.2473 -0.4678
 4707SOL    MW418596   6.214   0.254   4.565 -0.0525  0.0436 -0.6847
 4708SOL     OW18597   3.827   5.042   2.902  0.4403 -0.3773 -0.2252
 4708SOL    HW218598   3.849   5.132   2.877  1.8075 -0.3109  1.0891
 4708SOL    HW318599   3.737   5.030   2.872  0.8423  0.7910 -2.0946
 4708SOL    MW418600   3.818   5.053   2.895  0.6738 -0.2144 -0.2984
 4709SOL     OW18601   5.842   4.904   0.221  0.0579 -0.1458 -0.0308
 4709SOL    HW218602   5.924   4.875   0.182  1.1438 -0.3090  2.2208
 4709SOL    HW318603   5.855   4.997   0.239  0.0495 -0.3329  1.0005
 4709SOL    MW418604   5.854   4.912   0.219  0.2001 -0.1920  0.4023
 4710SOL     OW18605   2.165   1.905   5.382  0.0406 -0.5505  0.4264
 4710SOL    HW218606   2.090   1.846   5.391  1.8204 -2.9408  0.6181
 4710SOL    HW318607   2.161   1.937   5.292 -1.5456 -0.0637  0.6379
 4710SOL    MW418608   2.155   1.902   5.371  0.0661 -0.8016  0.4796
 4711SOL     OW18609   6.054   6.046   0.877 -0.0831 -0.3213 -0.2683
 4711SOL    HW218610   5.989   5.987   0.914  0.4577 -1.1536 -0.6082
 4711SOL    HW318611   6.005   6.103   0.818 -0.6135 -0.4264  0.0720
 4711SOL    MW418612   6.039   6.046   0.874 -0.0818 -0.4450 -0.2683
 4712SOL     OW18613   2.260   1.211   6.099 -0.1517  0.3835  0.2758
 4712SOL    HW218614   2.257   1.307   6.106  3.7635  0.6409  1.0340
 4712SOL    HW318615   2.220   1.191   6.015 -2.3621  2.4678  0.7110
 4712SOL    MW418616   2.254   1.221   6.089  0.0732  0.6925  0.4332
 4713SOL     OW18617   1.471   6.037   5.529 -0.1221 -0.6174  0.5149
 4713SOL    HW218618   1.443   6.049   5.620 -1.7934  0.4993 -0.0871
 4713SOL    HW318619   1.423   5.960   5.499 -0.5390 -0.2663  0.2537
 4713SOL    MW418620   1.461   6.029   5.537 -0.3976 -0.4238  0.4010
 4714SOL     OW18621   0.131   1.068   3.297 -0.2605  0.0815  0.2974
 4714SOL    HW218622   0.063   1.099   3.237 -0.7095 -1.7309 -0.2045
 4714SOL    HW318623   0.083   1.019   3.364  0.3982  0.4302  1.0396
 4714SOL    MW418624   0.116   1.066   3.298 -0.2329 -0.1116  0.3291
 4715SOL     OW18625   1.846   0.619   5.469 -0.2680  0.2491 -0.3547
 4715SOL    HW218626   1.760   0.586   5.443 -0.4668  0.1171  0.4458
 4715SOL    HW318627   1.863   0.578   5.553  1.6224 -1.5685 -1.5159
 4715SOL    MW418628   1.837   0.610   5.476 -0.0448 -0.0081 -0.4023
 4716SOL     OW18629   5.586   5.084   3.340  0.3058 -0.1001 -0.0021
 4716SOL    HW218630   5.541   5.065   3.258 -0.4812  3.3938 -0.5562
 4716SOL    HW318631   5.516   5.095   3.404  0.6282  0.8771  0.2096
 4716SOL    MW418632   5.571   5.083   3.338  0.2445  0.4898 -0.0473
 4717SOL     OW18633   3.436   0.769   5.528 -0.4246  0.1393  0.2644
 4717SOL    HW218634   3.381   0.726   5.594 -0.3182  0.5010  0.5894
 4717SOL    HW318635   3.377   0.786   5.455 -0.3883 -0.9053 -0.0332
 4717SOL    MW418636   3.421   0.765   5.527 -0.4058  0.0492  0.2680
 4718SOL     OW18637   2.682   2.103   6.284 -0.4755  0.7819  0.3294
 4718SOL    HW218638   2.766   2.071   6.253  0.4307  1.2870  2.1556
 4718SOL    HW318639   2.658   2.044   6.355 -2.2316 -0.0157 -0.8582
 4718SOL    MW418640   2.690   2.091   6.289 -0.5876  0.7433  0.4137
 4719SOL     OW18641   4.076   4.735   3.463 -0.3465  0.1477 -0.0488
 4719SOL    HW218642   4.145   4.680   3.500 -0.9207  0.3570  1.3691
 4719SOL    HW318643   4.065   4.701   3.374  0.9249 -0.4971  0.0149
 4719SOL    MW418644   4.084   4.723   3.456 -0.2545  0.0902  0.1467
 4720SOL     OW18645   4.021   0.727   4.637  0.0395  0.7860  0.2643
 4720SOL    HW218646   3.967   0.806   4.632 -0.2595  0.8154  2.6328
 4720SOL    HW318647   4.106   0.759   4.668  0.0777  0.2413  0.7221
 4720SOL    MW418648   4.025   0.742   4.641  0.0051  0.7180  0.6372
 4721SOL     OW18649   3.948   5.437   2.567  0.0172  0.3919 -0.1345
 4721SOL    HW218650   3.928   5.388   2.487 -0.8510  1.4737 -0.6090
 4721SOL    HW318651   4.008   5.507   2.538 -1.7215  1.9156 -0.2491
 4721SOL    MW418652   3.954   5.440   2.552 -0.3267  0.7356 -0.2122
 4722SOL     OW18653   0.140   0.171   0.737  0.3536 -0.3630 -0.4486
 4722SOL    HW218654   0.103   0.141   0.820  1.2104 -1.8590 -0.5803
 4722SOL    HW318655   0.235   0.160   0.747  0.4963 -0.2241 -1.4975
 4722SOL    MW418656   0.148   0.166   0.749  0.4854 -0.5421 -0.6043
 4723SOL     OW18657   2.661   5.070   5.383  0.4023  0.3760 -0.2862
 4723SOL    HW218658   2.667   5.165   5.378 -1.7912  0.5666 -0.4679
 4723SOL    HW318659   2.586   5.054   5.439  1.4123 -1.3005  0.6655
 4723SOL    MW418660   2.652   5.080   5.390  0.2461  0.1799 -0.1846
 4724SOL     OW18661   5.037   2.934   5.712  0.2080  0.2624  0.0027
 4724SOL    HW218662   5.092   2.858   5.734 -0.8133 -0.7337 -0.7465
 4724SOL    HW318663   4.980   2.902   5.642 -0.7196  1.5345  0.1505
 4724SOL    MW418664   5.037   2.920   5.705 -0.0492  0.2988 -0.0767
 4725SOL     OW18665   1.253   3.582   3.644  0.1696 -0.1385 -0.0058
 4725SOL    HW218666   1.263   3.500   3.691 -1.4036  0.0391  0.6972
 4725SOL    HW318667   1.205   3.559   3.564  0.6229 -0.0441 -0.3124
 4725SOL    MW418668   1.248   3.568   3.640  0.0219 -0.1026  0.0465
 4726SOL     OW18669   2.016   6.038   1.471  0.0798  0.3367  0.2266
 4726SOL    HW218670   2.006   5.959   1.525  0.2979  0.7638  0.8969
 4726SOL    HW318671   2.105   6.069   1.490  0.1652  0.4905 -0.3907
 4726SOL    MW418672   2.027   6.031   1.481  0.1198  0.4133  0.2336
 4727SOL     OW18673   2.769   4.169   5.023  0.2670 -0.2658  0.2187
 4727SOL    HW218674   2.851   4.218   5.015  0.9113 -1.1591  1.1005
 4727SOL    HW318675   2.767   4.112   4.947 -0.5062  1.1146 -0.8349
 4727SOL    MW418676   2.779   4.168   5.012  0.2500 -0.2016  0.1960
 4728SOL     OW18677   2.826   2.252   0.060  0.4610 -0.2415  0.3034
 4728SOL    HW218678   2.769   2.225  -0.012  1.2944  1.3012 -0.9570
 4728SOL    HW318679   2.888   2.180   0.070  2.0240  0.6340 -2.3516
 4728SOL    MW418680   2.826   2.239   0.052  0.7772  0.0776 -0.2132
 4729SOL     OW18681   1.354   2.187   4.721  0.0856 -0.4788  0.6399
 4729SOL    HW218682   1.304   2.240   4.783 -1.3999 -0.5152 -0.4841
 4729SOL    HW318683   1.391   2.117   4.775  0.3945  0.5360  1.7889
 4729SOL    MW418684   1.352   2.185   4.737 -0.0697 -0.3497  0.6432
 4730SOL     OW18685   5.393   5.018   1.947 -0.1224  0.2307  0.3723
 4730SOL    HW218686   5.437   5.021   2.032  0.4467 -2.0035  0.2180
 4730SOL    HW318687   5.461   5.044   1.884 -0.7971  2.8305  0.5914
 4730SOL    MW418688   5.408   5.022   1.950 -0.1363  0.2789  0.3808
 4731SOL     OW18689   5.021   6.478   3.137  0.0134  0.1960 -0.1742
 4731SOL    HW218690   4.968   6.518   3.069  1.5257  1.5090 -0.6418
 4731SOL    HW318691   4.979   6.503   3.219 -1.2252 -0.5122 -0.5713
 4731SOL    MW418692   5.009   6.486   3.139  0.0495  0.2758 -0.2883
 4732SOL     OW18693   2.137   4.294   2.758 -0.0159 -0.1577 -0.0785
 4732SOL    HW218694   2.167   4.266   2.844 -0.5427  0.2461  0.2416
 4732SOL    HW318695   2.045   4.319   2.771  0.1495  0.7452 -0.5664
 4732SOL    MW418696   2.129   4.294   2.771 -0.0635  0.0147 -0.1006
 4733SOL     OW18697   0.268   4.395   6.457 -0.5889  0.1365  0.2040
 4733SOL    HW218698   0.276   4.300   6.446 -0.4576  0.0218  1.2685
 4733SOL    HW318699   0.192   4.418   6.403 -0.8135 -0.6189  0.1839
 4733SOL    MW418700   0.259   4.386   6.448 -0.6012  0.0217  0.3418
 4734SOL     OW18701   1.440   3.602   6.183 -1.0663  0.3692  0.5917
 4734SOL    HW218702   1.535   3.593   6.173 -0.8706  1.3378  1.3700
 4734SOL    HW318703   1.405   3.594   6.094 -0.1207  1.3895  0.1074
 4734SOL    MW418704   1.448   3.600   6.170 -0.9157  0.6316  0.6305
 4735SOL     OW18705   6.245   1.741   3.463 -0.1615 -0.0467  0.4839
 4735SOL    HW218706   6.195   1.711   3.539  0.4379 -2.8452 -0.1113
 4735SOL    HW318707   6.301   1.666   3.440  1.6079  1.6495 -1.1184
 4735SOL    MW418708   6.246   1.727   3.470  0.1510 -0.1921  0.1940
 4736SOL     OW18709   3.608   2.433   1.660  0.2691  0.0171  1.0073
 4736SOL    HW218710   3.659   2.447   1.579  0.5100  0.0238  1.1592
 4736SOL    HW318711   3.584   2.341   1.657 -0.8480  0.3009  0.2793
 4736SOL    MW418712   3.612   2.423   1.649  0.1535  0.0554  0.9313
 4737SOL     OW18713   4.295   2.569   1.770 -0.0464 -0.3708  0.0423
 4737SOL    HW218714   4.292   2.547   1.676 -0.0173  0.3348 -0.1300
 4737SOL    HW318715   4.352   2.646   1.774 -0.8559  0.2154  0.5198
 4737SOL    MW418716   4.302   2.576   1.758 -0.1494 -0.2003  0.0826
 4738SOL     OW18717   0.506   1.772   6.425 -0.3909  0.3684  0.1974
 4738SOL    HW218718   0.553   1.854   6.436 -2.1017  1.4838 -0.3615
 4738SOL    HW318719   0.442   1.771   6.496 -0.0590 -0.7444  0.5013
 4738SOL    MW418720   0.504   1.783   6.435 -0.5728  0.3687  0.1637
 4739SOL     OW18721   2.367   0.856   1.263 -0.7027 -0.4936 -0.3099
 4739SOL    HW218722   2.274   0.876   1.249 -0.7869 -0.9322 -0.4111
 4739SOL    HW318723   2.368   0.763   1.284 -0.4414 -0.1569  1.3031
 4739SOL    MW418724   2.354   0.846   1.264 -0.6793 -0.5071 -0.1104
 4740SOL     OW18725   1.986   1.469   5.316  0.2532 -0.0612 -0.4995
 4740SOL    HW218726   2.031   1.501   5.238  2.4003  3.5863  1.8781
 4740SOL    HW318727   2.046   1.404   5.353 -0.1568 -0.8386 -1.1683
 4740SOL    MW418728   2.000   1.465   5.311  0.4824  0.3175 -0.2740
 4741SOL     OW18729   2.678   2.724   4.235  0.1064 -0.3806  0.3708
 4741SOL    HW218730   2.751   2.742   4.175 -1.1418 -0.3166 -1.2002
 4741SOL    HW318731   2.629   2.806   4.239 -0.8314 -0.9077  0.0258
 4741SOL    MW418732   2.681   2.738   4.228 -0.1820 -0.4417  0.1180
 4742SOL     OW18733   6.040   3.732   6.035 -0.0480 -0.5043  0.1736
 4742SOL    HW218734   6.088   3.719   5.953  1.1045 -0.7618  0.8685
 4742SOL    HW318735   6.103   3.710   6.104 -0.3212  1.6820  1.2100
 4742SOL    MW418736   6.055   3.727   6.033  0.0680 -0.2498  0.4020
 4743SOL     OW18737   4.619   1.936   2.582  0.3834 -0.2156  0.5879
 4743SOL    HW218738   4.612   1.921   2.488  0.0904  1.2079  0.3627
 4743SOL    HW318739   4.696   1.885   2.608 -0.6610 -2.1970 -0.0468
 4743SOL    MW418740   4.628   1.927   2.573  0.2070 -0.2892  0.4744
 4744SOL     OW18741   6.308   2.964   1.842  0.5921 -0.0810  0.0621
 4744SOL    HW218742   6.379   2.964   1.777  0.2873  1.4312 -0.3144
 4744SOL    HW318743   6.228   2.962   1.790  0.3200 -1.9675  0.4922
 4744SOL    MW418744   6.307   2.964   1.826  0.5160 -0.1304  0.0692
 4745SOL     OW18745   2.913   0.865   5.964  0.3291 -0.6905  0.3983
 4745SOL    HW218746   2.829   0.872   5.920  0.0662 -0.2267  0.9602
 4745SOL    HW318747   2.944   0.778   5.942 -0.3475 -0.9046  0.2623
 4745SOL    MW418748   2.906   0.854   5.955  0.2052 -0.6575  0.4545
 4746SOL     OW18749   3.651   4.202   2.519 -0.0186 -0.3972 -0.0234
 4746SOL    HW218750   3.733   4.226   2.476 -0.4389  1.0710 -0.0744
 4746SOL    HW318751   3.665   4.222   2.611 -1.1895  2.6281 -0.3890
 4746SOL    MW418752   3.664   4.208   2.526 -0.2285  0.1957 -0.0783
 4747SOL     OW18753   5.480   1.503   5.091  0.5987  0.3108  0.4071
 4747SOL    HW218754   5.409   1.524   5.151  0.3063 -0.1520  0.2348
 4747SOL    HW318755   5.447   1.530   5.005  0.3161 -0.5927  0.2180
 4747SOL    MW418756   5.467   1.509   5.087  0.5228  0.1305  0.3594
 4748SOL     OW18757   4.227   4.568   2.575  0.0149  0.6742 -0.1447
 4748SOL    HW218758   4.229   4.656   2.536  0.9853  1.2839  1.2105
 4748SOL    HW318759   4.314   4.532   2.557 -1.5038 -1.6841 -4.1602
 4748SOL    MW418760   4.239   4.575   2.567 -0.0575  0.4435 -0.4957
 4749SOL     OW18761   4.749   4.014   4.657 -0.5355  0.2619 -0.0147
 4749SOL    HW218762   4.830   3.976   4.623 -0.3732 -0.0844  0.7455
 4749SOL    HW318763   4.724   4.079   4.591  0.6383  0.7523 -0.0174
 4749SOL    MW418764   4.757   4.018   4.644 -0.3592  0.2809  0.0853
 4750SOL     OW18765   1.521   2.377   3.519 -0.0315  0.0522  1.0348
 4750SOL    HW218766   1.533   2.399   3.612  0.4572 -2.9508  1.7698
 4750SOL    HW318767   1.607   2.345   3.491  0.1273  1.9099 -0.8284
 4750SOL    MW418768   1.534   2.376   3.527  0.0539 -0.0989  0.8860
 4751SOL     OW18769   1.875   4.582   3.776 -0.1858  0.1360  0.0535
 4751SOL    HW218770   1.856   4.561   3.867 -0.6707 -1.0351 -0.2975
 4751SOL    HW318771   1.794   4.620   3.742  0.2039  1.2028  0.2699
 4751SOL    MW418772   1.862   4.584   3.784 -0.1984  0.1222  0.0357
 4752SOL     OW18773   2.308   3.092   5.463  1.0301  0.2019  0.0188
 4752SOL    HW218774   2.344   3.181   5.459 -0.2605  0.8076  0.8723
 4752SOL    HW318775   2.382   3.037   5.487  1.7996  1.0785 -0.2619
 4752SOL    MW418776   2.322   3.096   5.466  0.9614  0.3975  0.0943
 4753SOL     OW18777   3.748   3.052   1.716 -0.0534 -0.2617 -0.3226
 4753SOL    HW218778   3.836   3.088   1.702  0.8931 -1.6577  1.4517
 4753SOL    HW318779   3.690   3.127   1.709  1.7327  1.6405  2.6809
 4753SOL    MW418780   3.752   3.066   1.713  0.3072 -0.1950  0.3078
 4754SOL     OW18781   0.198   0.700   4.987  0.3226 -0.4251 -0.1015
 4754SOL    HW218782   0.149   0.713   5.068  0.6994 -0.1333  0.0834
 4754SOL    HW318783   0.288   0.723   5.010  0.2884  0.4277 -0.8109
 4754SOL    MW418784   0.203   0.704   5.001  0.3678 -0.2741 -0.1707
 4755SOL     OW18785   2.633   2.242   0.957 -0.3184  0.6159 -0.0547
 4755SOL    HW218786   2.544   2.207   0.967  0.2072 -0.6955  0.2721
 4755SOL    HW318787   2.671   2.190   0.886  0.1251  1.3014 -0.3246
 4755SOL    MW418788   2.626   2.231   0.949 -0.1905  0.5333 -0.0472
 4756SOL     OW18789   4.341   1.660   5.436 -0.2369  0.2294 -0.1659
 4756SOL    HW218790   4.331   1.596   5.366 -0.4689  2.3622 -2.2325
 4756SOL    HW318791   4.299   1.620   5.512 -0.8931 -1.7906 -1.5151
 4756SOL    MW418792   4.334   1.647   5.437 -0.3540  0.2443 -0.6166
 4757SOL     OW18793   0.501   1.915   4.230  0.3110  0.4927 -0.1908
 4757SOL    HW218794   0.534   1.937   4.143  1.4423  0.8397  0.3065
 4757SOL    HW318795   0.473   1.998   4.267 -0.1271  0.3528 -0.2092
 4757SOL    MW418796   0.502   1.929   4.223  0.4024  0.5200 -0.1276
 4758SOL     OW18797   3.312   0.194   2.108 -0.5616  0.6845  0.0992
 4758SOL    HW218798   3.229   0.192   2.155 -0.1388  1.6704  0.9586
 4758SOL    HW318799   3.318   0.283   2.073 -0.7068  0.0644 -1.5677
 4758SOL    MW418800   3.302   0.206   2.110 -0.5250  0.7327 -0.0074
 4759SOL     OW18801   4.108   6.360   1.374 -0.0474 -0.0431 -0.2137
 4759SOL    HW218802   4.072   6.419   1.309  1.9756  0.7788 -0.6828
 4759SOL    HW318803   4.040   6.294   1.389 -1.3433  0.9356 -1.5982
 4759SOL    MW418804   4.095   6.359   1.368  0.0485  0.1945 -0.4582
 4760SOL     OW18805   0.537   5.698   0.604  0.0774  0.5434  0.3655
 4760SOL    HW218806   0.518   5.612   0.643 -0.5118  0.5530  0.1102
 4760SOL    HW318807   0.460   5.718   0.551 -0.1696  1.6273  1.1027
 4760SOL    MW418808   0.525   5.689   0.602 -0.0329  0.6877  0.4291
 4761SOL     OW18809   3.475   3.350   4.311 -0.0249 -0.0638  0.2405
 4761SOL    HW218810   3.527   3.279   4.349 -0.0297 -0.2086 -0.0177
 4761SOL    HW318811   3.398   3.356   4.368  0.6637  0.7073  1.1046
 4761SOL    MW418812   3.472   3.341   4.324  0.0653  0.0188  0.3204
 4762SOL     OW18813   6.346   4.782   5.306  0.4168  0.2017 -0.1910
 4762SOL    HW218814   6.330   4.776   5.400  1.7598 -2.5848 -0.0337
 4762SOL    HW318815   6.431   4.826   5.300  0.0009  1.0146 -0.1451
 4762SOL    MW418816   6.355   4.787   5.318  0.5392 -0.0587 -0.1642
 4763SOL     OW18817   0.350   3.868   0.762  0.5486 -0.5685  0.1128
 4763SOL    HW218818   0.397   3.900   0.685 -2.1061 -0.0683 -1.4201
 4763SOL    HW318819   0.331   3.947   0.813  0.5055 -0.6539  0.2298
 4763SOL    MW418820   0.354   3.882   0.758  0.1927 -0.5138 -0.0740
 4764SOL     OW18821   0.537   3.494   2.509  0.1929  0.2683 -0.1288
 4764SOL    HW218822   0.563   3.436   2.437  1.8274  1.7835 -0.8366
 4764SOL    HW318823   0.482   3.560   2.468  0.6170  0.7804  0.1086
 4764SOL    MW418824   0.533   3.495   2.494  0.4645  0.5357 -0.1909
 4765SOL     OW18825   3.474   4.599   0.916 -0.2248  0.6136 -0.6579
 4765SOL    HW218826   3.412   4.566   0.852 -0.7550 -0.4381  0.3616
 4765SOL    HW318827   3.434   4.680   0.948  0.3432  1.4911 -2.0531
 4765SOL    MW418828   3.460   4.606   0.912 -0.2198  0.5907 -0.7075
 4766SOL     OW18829   5.014   2.122   1.307  0.0209 -0.2020 -0.1619
 4766SOL    HW218830   4.949   2.063   1.268  0.2220  0.6348 -1.8642
 4766SOL    HW318831   5.095   2.104   1.259  0.6142 -0.0163  0.7527
 4766SOL    MW418832   5.016   2.112   1.296  0.1257 -0.0671 -0.2658
 4767SOL     OW18833   3.760   1.973   1.929  0.6450 -0.2853  0.0612
 4767SOL    HW218834   3.696   1.913   1.891 -0.4637 -0.4932  2.0835
 4767SOL    HW318835   3.804   2.012   1.854 -1.9374 -0.0397 -1.4458
 4767SOL    MW418836   3.758   1.970   1.914  0.1580 -0.2803  0.1292
 4768SOL     OW18837   1.367   3.411   5.616  0.2060  0.4976 -0.1432
 4768SOL    HW218838   1.458   3.433   5.598  1.5687 -2.7327  1.7828
 4768SOL    HW318839   1.357   3.322   5.581 -2.2587  0.7974 -0.3660
 4768SOL    MW418840   1.378   3.402   5.609  0.0606  0.1110  0.0815
 4769SOL     OW18841   5.025   2.288   0.524 -0.2518  0.9681 -0.2324
 4769SOL    HW218842   5.047   2.219   0.461 -0.8920  1.0053 -0.5115
 4769SOL    HW318843   5.107   2.307   0.570  0.6156  2.0100 -2.0933
 4769SOL    MW418844   5.038   2.282   0.522 -0.2218  1.1105 -0.5147
 4770SOL     OW18845   5.206   2.713   0.093 -0.0300  0.0650 -0.1633
 4770SOL    HW218846   5.213   2.755   0.179 -0.9117 -0.9938  0.4624
 4770SOL    HW318847   5.240   2.778   0.031 -0.9110  1.5140  0.8030
 4770SOL    MW418848   5.211   2.727   0.096 -0.2626  0.1165  0.0467
 4771SOL     OW18849   6.320   2.724   5.958  0.3488 -0.2542  0.4614
 4771SOL    HW218850   6.388   2.704   5.894 -0.1006  0.4674 -0.2575
 4771SOL    HW318851   6.250   2.765   5.907 -0.5098 -0.7273  1.2350
 4771SOL    MW418852   6.320   2.727   5.943  0.1762 -0.2214  0.4686
 4772SOL     OW18853   4.765   0.557   5.219  0.1261 -0.1925  0.4843
 4772SOL    HW218854   4.674   0.543   5.247  0.1950 -2.0313 -0.0821
 4772SOL    HW318855   4.759   0.619   5.147 -0.7730 -0.8429 -0.0207
 4772SOL    MW418856   4.752   0.563   5.213  0.0166 -0.5209  0.3430
 4773SOL     OW18857   5.532   1.688   1.396  0.3031  0.4619 -0.0384
 4773SOL    HW218858   5.450   1.664   1.438 -0.9939  0.7299 -2.2502
 4773SOL    HW318859   5.586   1.609   1.401 -1.2042 -0.6809 -1.0157
 4773SOL    MW418860   5.529   1.675   1.402 -0.0669  0.3465 -0.4591
 4774SOL     OW18861   5.690   5.465   3.991  0.1713 -0.1466  0.2217
 4774SOL    HW218862   5.641   5.538   4.028  1.6888  1.2786 -0.4180
 4774SOL    HW318863   5.701   5.404   4.063 -1.6550 -0.0525  0.6248
 4774SOL    MW418864   5.685   5.467   4.005  0.1306  0.0538  0.1904
 4775SOL     OW18865   5.406   6.476   4.660 -0.6662 -0.4145 -0.3563
 4775SOL    HW218866   5.379   6.562   4.625  0.0409 -0.3139 -0.6731
 4775SOL    HW318867   5.324   6.435   4.688 -1.1831 -0.2288 -1.5446
 4775SOL    MW418868   5.392   6.482   4.659 -0.6411 -0.3767 -0.5549
 4776SOL     OW18869   0.015   1.261   2.517 -0.4834  0.3703 -0.6652
 4776SOL    HW218870   0.110   1.271   2.507 -0.5508 -0.1672 -2.0732
 4776SOL    HW318871   0.004   1.220   2.603  0.7841 -2.2185 -1.6195
 4776SOL    MW418872   0.026   1.257   2.527 -0.3251 -0.0422 -0.9769
 4777SOL     OW18873   3.276   0.988   4.615 -0.1004  0.0364 -0.0717
 4777SOL    HW218874   3.215   0.914   4.614  0.5658 -0.5576 -2.4331
 4777SOL    HW318875   3.355   0.953   4.656 -1.0162  0.6321  2.4145
 4777SOL    MW418876   3.278   0.973   4.621 -0.1334  0.0366 -0.0552
 4778SOL     OW18877   5.454   6.027   5.508  0.5030  0.0218 -0.0831
 4778SOL    HW218878   5.543   5.992   5.517  1.0600  0.9494 -1.5756
 4778SOL    HW318879   5.459   6.084   5.431 -1.0995  1.0152  0.5111
 4778SOL    MW418880   5.466   6.030   5.499  0.3650  0.2752 -0.2016
 4779SOL     OW18881   4.047   5.144   1.033  0.3984  0.1233 -0.0917
 4779SOL    HW218882   4.017   5.113   1.118 -0.1233  0.0559 -0.3012
 4779SOL    HW318883   3.980   5.116   0.971  0.1145  1.2874 -0.3455
 4779SOL    MW418884   4.035   5.136   1.036  0.2921  0.2680 -0.1528
 4780SOL     OW18885   1.906   1.730   0.971  0.2385  0.4889 -0.2265
 4780SOL    HW218886   1.824   1.717   1.018  0.4086 -1.1840 -0.3309
 4780SOL    HW318887   1.898   1.675   0.893  1.5347  0.1136 -0.1265
 4780SOL    MW418888   1.894   1.721   0.967  0.4320  0.2187 -0.2271
 4781SOL     OW18889   4.878   4.223   4.790  0.1601  0.5068 -0.4049
 4781SOL    HW218890   4.820   4.269   4.851  1.0217  0.2241  0.6666
 4781SOL    HW318891   4.846   4.133   4.791  1.0255  0.1864  0.7543
 4781SOL    MW418892   4.866   4.217   4.799  0.3879  0.4273 -0.1106
 4782SOL     OW18893   3.837   3.573   3.508  0.7436  0.2606 -0.8566
 4782SOL    HW218894   3.794   3.572   3.423 -2.6864  0.7878  0.6903
 4782SOL    HW318895   3.815   3.488   3.547  0.8920  0.6339  0.0765
 4782SOL    MW418896   3.828   3.561   3.502  0.3106  0.3794 -0.5294
 4783SOL     OW18897   0.233   3.645   5.496  1.0628  0.5561  0.4715
 4783SOL    HW218898   0.316   3.686   5.519  0.6988  1.3580  0.3932
 4783SOL    HW318899   0.242   3.622   5.404  1.1635  0.7227  0.4397
 4783SOL    MW418900   0.245   3.648   5.487  1.0281  0.6839  0.4570
 4784SOL     OW18901   0.637   1.738   0.327 -0.1409  0.2505  0.0630
 4784SOL    HW218902   0.579   1.814   0.318  0.6875  0.9506  0.3944
 4784SOL    HW318903   0.662   1.738   0.420  2.6134  1.7121 -0.5765
 4784SOL    MW418904   0.633   1.748   0.338  0.3318  0.5357  0.0223
 4785SOL     OW18905   5.956   5.478   5.697  0.4262  0.7392  0.0702
 4785SOL    HW218906   5.914   5.432   5.624 -0.7275  2.8969 -0.7102
 4785SOL    HW318907   5.886   5.492   5.761  0.9620  0.6697  0.6896
 4785SOL    MW418908   5.941   5.473   5.696  0.3447  1.0147  0.0489
 4786SOL     OW18909   4.593   5.057   2.941 -0.3983  0.2607  0.2815
 4786SOL    HW218910   4.533   5.028   2.871 -3.5353 -0.3865  2.9741
 4786SOL    HW318911   4.537   5.107   3.000  2.1204  0.8234  2.3249
 4786SOL    MW418912   4.578   5.060   2.939 -0.4799  0.2495  0.9064
 4787SOL     OW18913   3.613   0.427   1.957 -0.0072  0.6651  0.3234
 4787SOL    HW218914   3.591   0.491   2.024 -1.2595  0.2038  0.3633
 4787SOL    HW318915   3.606   0.342   2.002 -2.6684  0.2070 -0.7843
 4787SOL    MW418916   3.610   0.424   1.972 -0.5235  0.5438  0.1825
 4788SOL     OW18917   2.291   4.873   4.321  0.0883 -0.2137 -0.0498
 4788SOL    HW218918   2.332   4.958   4.308 -0.1374 -0.0252  0.4267
 4788SOL    HW318919   2.351   4.810   4.281 -0.5217  0.3131 -1.8575
 4788SOL    MW418920   2.304   4.876   4.314 -0.0220 -0.1193 -0.2254
 4789SOL     OW18921   5.391   5.204   4.582  0.2776 -0.6166  0.2912
 4789SOL    HW218922   5.322   5.267   4.562  0.7230 -0.4470 -0.7672
 4789SOL    HW318923   5.344   5.123   4.600 -0.2141 -0.5268 -0.5239
 4789SOL    MW418924   5.376   5.201   4.582  0.2715 -0.5823  0.0440
 4790SOL     OW18925   1.134   0.994   5.491  0.3379  0.0593  0.2409
 4790SOL    HW218926   1.084   0.913   5.485  0.3592  0.0787 -0.2604
 4790SOL    HW318927   1.155   1.003   5.584  0.9877 -0.9017  0.1951
 4790SOL    MW418928   1.130   0.985   5.503  0.4264 -0.0649  0.1687
 4791SOL     OW18929   1.486   0.383   0.225 -0.5227  0.5815  0.8189
 4791SOL    HW218930   1.479   0.452   0.159 -0.6669 -0.3198 -0.1379
 4791SOL    HW318931   1.398   0.345   0.229 -0.2478 -0.0822  0.7242
 4791SOL    MW418932   1.473   0.387   0.216 -0.5055  0.3750  0.6802
 4792SOL     OW18933   4.646   1.670   3.149  0.4867 -0.6485 -0.0286
 4792SOL    HW218934   4.702   1.647   3.223  0.0768 -2.3389 -0.1858
 4792SOL    HW318935   4.603   1.587   3.126 -0.1656  0.0677 -1.4961
 4792SOL    MW418936   4.648   1.656   3.155  0.3465 -0.7770 -0.2430
 4793SOL     OW18937   5.166   3.200   1.118  0.2746 -0.3048  0.5222
 4793SOL    HW218938   5.192   3.292   1.105  1.2426 -0.3924  1.6233
 4793SOL    HW318939   5.076   3.196   1.086  1.3484  0.1644 -2.8834
 4793SOL    MW418940   5.158   3.212   1.112  0.5440 -0.2544  0.2181
 4794SOL     OW18941   1.510   2.862   4.491 -0.0312 -0.5809 -0.2625
 4794SOL    HW218942   1.541   2.888   4.578 -1.7506  1.2654 -0.1371
 4794SOL    HW318943   1.482   2.771   4.502  0.7091 -0.7000  0.8432
 4794SOL    MW418944   1.511   2.853   4.504 -0.1604 -0.3530 -0.1000
 4795SOL     OW18945   3.435   3.597   4.480  0.0490  0.3270  0.2067
 4795SOL    HW218946   3.394   3.657   4.542  1.9948  1.7087  0.2510
 4795SOL    HW318947   3.484   3.535   4.535 -0.5713 -0.2526  0.1136
 4795SOL    MW418948   3.436   3.597   4.495  0.2239  0.4328  0.2003
 4796SOL     OW18949   2.477   4.810   1.424 -0.0515  0.7068 -0.3959
 4796SOL    HW218950   2.409   4.833   1.487 -0.5031 -2.4793  0.4797
 4796SOL    HW318951   2.558   4.845   1.461 -0.5422  0.2221  1.1934
 4796SOL    MW418952   2.479   4.818   1.437 -0.1759  0.2225 -0.0707
 4797SOL     OW18953   0.410   1.280   0.131 -0.3304  0.2075  0.3505
 4797SOL    HW218954   0.490   1.328   0.154 -0.2142 -1.1030  3.0670
 4797SOL    HW318955   0.440   1.191   0.113 -1.0751 -0.0527  0.3839
 4797SOL    MW418956   0.425   1.275   0.132 -0.4133  0.0002  0.7133
 4798SOL     OW18957   3.694   1.796   4.393 -0.5813 -0.6711  0.4016
 4798SOL    HW218958   3.736   1.819   4.475  0.3389 -0.6649 -0.0585
 4798SOL    HW318959   3.758   1.819   4.325 -2.0666  1.1613 -0.4708
 4798SOL    MW418960   3.708   1.802   4.395 -0.6558 -0.4285  0.2258
 4799SOL     OW18961   6.176   1.771   5.669  0.2121 -0.1140 -1.0708
 4799SOL    HW218962   6.232   1.723   5.608 -0.2552  0.0531 -1.6303
 4799SOL    HW318963   6.235   1.795   5.741  0.7595 -0.3199 -1.4459
 4799SOL    MW418964   6.191   1.768   5.671  0.2226 -0.1191 -1.1941
 4800SOL     OW18965   5.046   5.708   1.146 -0.6251 -0.0399 -0.1780
 4800SOL    HW218966   5.055   5.758   1.227 -1.2255 -0.1315 -0.0514
 4800SOL    HW318967   4.965   5.740   1.106 -1.5348 -1.5461  0.3770
 4800SOL    MW418968   5.037   5.718   1.152 -0.8244 -0.2507 -0.0881
 4801SOL     OW18969   1.553   1.333   5.315 -0.6698 -0.5655 -0.1391
 4801SOL    HW218970   1.601   1.416   5.307 -0.4014 -0.6978  0.0981
 4801SOL    HW318971   1.497   1.346   5.392  0.4917 -1.1518  0.8441
 4801SOL    MW418972   1.552   1.346   5.324 -0.4811 -0.6603  0.0219
 4802SOL     OW18973   4.754   0.530   6.124  0.2395  0.5880  0.6882
 4802SOL    HW218974   4.803   0.451   6.147 -1.0701 -0.3971  0.1969
 4802SOL    HW318975   4.819   0.600   6.127  1.1693 -0.2818  2.4061
 4802SOL    MW418976   4.769   0.529   6.128  0.1894  0.3433  0.8500
 4803SOL     OW18977   4.662   3.184   3.748 -0.3493 -0.0316 -0.0888
 4803SOL    HW218978   4.752   3.214   3.754 -0.9707  1.6731  1.9053
 4803SOL    HW318979   4.653   3.120   3.818 -1.0742  1.0528  0.8558
 4803SOL    MW418980   4.673   3.180   3.758 -0.5270  0.3364  0.2989
 4804SOL     OW18981   3.990   6.368   4.005  0.4687 -0.2120  0.0750
 4804SOL    HW218982   4.045   6.352   4.082 -0.5091  2.5439  1.4774
 4804SOL    HW318983   4.052   6.388   3.935  1.3982 -3.2686 -0.1065
 4804SOL    MW418984   4.005   6.369   4.006  0.4623 -0.2517  0.2361
 4805SOL     OW18985   4.108   0.367   5.828 -0.8433  0.6896 -0.2722
 4805SOL    HW218986   4.145   0.396   5.911  1.4729 -1.4885 -0.4130
 4805SOL    HW318987   4.130   0.437   5.766 -0.1201  1.0879  0.4120
 4805SOL    MW418988   4.116   0.380   5.830 -0.4423  0.4548 -0.2005
 4806SOL     OW18989   3.648   1.217   2.181 -0.1291  0.6171 -0.1453
 4806SOL    HW218990   3.701   1.292   2.207  0.2914  0.0793  0.6069
 4806SOL    HW318991   3.629   1.232   2.089  0.8618  1.1110 -0.2893
 4806SOL    MW418992   3.653   1.229   2.173  0.0571  0.6113 -0.0651
 4807SOL     OW18993   5.601   1.576   4.470 -0.1909 -0.5511  0.0599
 4807SOL    HW218994   5.533   1.575   4.403 -0.2268 -1.6406  0.1018
 4807SOL    HW318995   5.593   1.662   4.511 -0.8641 -0.2811 -0.6186
 4807SOL    MW418996   5.591   1.587   4.467 -0.2845 -0.6593 -0.0241
 4808SOL     OW18997   5.361   1.228   1.308 -0.0920 -0.5258 -0.1695
 4808SOL    HW218998   5.346   1.297   1.243  0.8928 -0.5265 -0.4113
 4808SOL    HW318999   5.403   1.157   1.258  0.5271 -0.5884  0.4274
 4808SOL    MW419000   5.365   1.228   1.293  0.1196 -0.5342 -0.1226
 4809SOL     OW19001   2.280   5.670   2.553  0.9702 -0.0152 -0.2183
 4809SOL    HW219002   2.244   5.695   2.637  0.2693 -0.5891 -0.3346
 4809SOL    HW319003   2.343   5.738   2.532  1.2349  0.0729  0.8178
 4809SOL    MW419004   2.283   5.682   2.561  0.9126 -0.0793 -0.0970
 4810SOL     OW19005   4.924   2.791   0.265 -0.2764  0.3335 -0.0312
 4810SOL    HW219006   4.870   2.850   0.317 -1.3658 -0.8771  0.2786
 4810SOL    HW319007   4.965   2.733   0.330 -0.0931  0.0568 -0.3919
 4810SOL    MW419008   4.923   2.791   0.281 -0.3959  0.1373 -0.0379
 4811SOL     OW19009   1.956   3.552   5.401 -0.3104  0.4383 -0.2418
 4811SOL    HW219010   1.892   3.603   5.451 -1.7766 -0.5510 -1.0582
 4811SOL    HW319011   1.910   3.472   5.377  1.1843 -0.2276 -1.0234
 4811SOL    MW419012   1.941   3.548   5.405 -0.3067  0.2199 -0.4526
 4812SOL     OW19013   4.117   2.112   4.554  0.2562  0.4388 -0.1844
 4812SOL    HW219014   4.059   2.186   4.540 -0.9997 -0.3815  0.4675
 4812SOL    HW319015   4.083   2.069   4.633  1.5849 -0.2357  0.0656
 4812SOL    MW419016   4.105   2.116   4.563  0.2658  0.2416 -0.0654
 4813SOL     OW19017   4.617   5.819   4.104  0.5306  0.4057 -0.2151
 4813SOL    HW219018   4.661   5.764   4.039  0.4192  1.9228 -1.6322
 4813SOL    HW319019   4.536   5.846   4.062  1.0464  2.4615  0.0213
 4813SOL    MW419020   4.612   5.815   4.090  0.5840  0.8771 -0.3709
 4814SOL     OW19021   0.017   2.139   4.417 -0.6200  0.2829  0.8119
 4814SOL    HW219022  -0.077   2.141   4.396 -0.0297 -0.4843 -2.3466
 4814SOL    HW319023   0.054   2.211   4.366  0.7738 -0.6594  0.4636
 4814SOL    MW419024   0.009   2.149   4.408 -0.3583  0.0574  0.3492
 4815SOL     OW19025   5.822   4.067   5.080  0.2323 -0.1640  0.0028
 4815SOL    HW219026   5.865   3.998   5.031  0.3727  1.1539 -1.8405
 4815SOL    HW319027   5.728   4.047   5.072  0.2757 -0.1878 -0.4651
 4815SOL    MW419028   5.815   4.055   5.072  0.2565  0.0068 -0.3022
 4816SOL     OW19029   5.904   0.650   4.096 -0.3226 -0.0485  0.3446
 4816SOL    HW219030   5.947   0.672   4.179 -1.8472  1.2188  0.8590
 4816SOL    HW319031   5.968   0.598   4.048  0.9773  0.0516  1.8973
 4816SOL    MW419032   5.918   0.646   4.101 -0.3523  0.1319  0.6173
 4817SOL     OW19033   5.348   6.069   6.328 -0.2469 -0.0268 -0.5670
 4817SOL    HW219034   5.401   6.103   6.256  0.7282 -0.4142 -0.0533
 4817SOL    HW319035   5.370   6.125   6.402  0.7074 -1.1908  0.0624
 4817SOL    MW419036   5.358   6.081   6.328  0.0077 -0.2315 -0.4161
 4818SOL     OW19037   4.877   3.177   1.531 -0.3535  0.4148  0.1212
 4818SOL    HW219038   4.839   3.261   1.504 -0.2823  1.2586  2.4243
 4818SOL    HW319039   4.802   3.119   1.541 -0.4615  0.3644 -0.8752
 4818SOL    MW419040   4.862   3.180   1.529 -0.3584  0.5194  0.2936
 4819SOL     OW19041   4.974   2.651   6.174  0.1829 -0.0964  0.0904
 4819SOL    HW219042   4.962   2.636   6.268  0.8759  1.1626  0.3935
 4819SOL    HW319043   5.049   2.710   6.168  0.5372 -0.6353 -1.2961
 4819SOL    MW419044   4.983   2.657   6.186  0.3211 -0.0014 -0.0525
 4820SOL     OW19045   2.876   4.575   4.896 -0.0878 -0.0605  0.3355
 4820SOL    HW219046   2.896   4.617   4.980 -0.0717  2.7440 -0.9785
 4820SOL    HW319047   2.834   4.643   4.844 -0.4112 -1.8170 -1.8446
 4820SOL    MW419048   2.873   4.589   4.900 -0.1283  0.0778 -0.1255
 4821SOL     OW19049   4.072   0.926   5.861 -0.3039 -0.3104  0.2929
 4821SOL    HW219050   4.076   1.000   5.922 -0.4750  0.1256 -0.2222
 4821SOL    HW319051   4.160   0.888   5.863 -0.3617 -0.4297  0.9644
 4821SOL    MW419052   4.084   0.931   5.869 -0.3341 -0.2686  0.3136
 4822SOL     OW19053   5.986   6.392   1.767  0.6478  0.1301  0.2018
 4822SOL    HW219054   5.962   6.371   1.676  0.1050 -1.6766  0.7196
 4822SOL    HW319055   6.029   6.478   1.761  0.9547 -0.1078 -1.7991
 4822SOL    MW419056   5.988   6.401   1.754  0.6167 -0.1397  0.0062
 4823SOL     OW19057   1.481   4.610   5.067 -0.5372 -0.2109  0.1219
 4823SOL    HW219058   1.563   4.655   5.043 -1.3157  1.7709  0.9914
 4823SOL    HW319059   1.510   4.532   5.113  0.8906  0.3407  0.2270
 4823SOL    MW419060   1.496   4.606   5.070 -0.4515  0.1234  0.2505
 4824SOL     OW19061   5.647   0.826   3.549 -0.6335  0.3097 -0.6465
 4824SOL    HW219062   5.620   0.895   3.610  0.9903  1.7362 -1.4376
 4824SOL    HW319063   5.639   0.745   3.599 -1.4283  1.1901  0.7305
 4824SOL    MW419064   5.642   0.825   3.564 -0.5241  0.6141 -0.5692
 4825SOL     OW19065   2.305   1.535   0.832 -0.0400 -0.1955  0.7312
 4825SOL    HW219066   2.295   1.518   0.925  0.0673  0.2210  0.8225
 4825SOL    HW319067   2.388   1.583   0.825 -1.0896  1.7077  0.6871
 4825SOL    MW419068   2.315   1.539   0.843 -0.1643  0.1105  0.7374
 4826SOL     OW19069   6.121   0.578   4.675 -0.3956  0.0352  0.2636
 4826SOL    HW219070   6.143   0.513   4.741  0.0370 -1.3657 -1.2153
 4826SOL    HW319071   6.110   0.660   4.724  0.3619 -0.8688  1.9881
 4826SOL    MW419072   6.123   0.580   4.690 -0.2386 -0.2689  0.2960
 4827SOL     OW19073   4.558   3.125   2.591 -0.2582  0.3003  0.4817
 4827SOL    HW219074   4.654   3.132   2.589 -0.1194 -1.4014 -0.8298
 4827SOL    HW319075   4.538   3.109   2.683  0.6716  0.9714  0.8252
 4827SOL    MW419076   4.568   3.124   2.603 -0.1172  0.1643  0.3539
 4828SOL     OW19077   6.237   2.643   6.217  0.6307  0.0344 -0.1936
 4828SOL    HW219078   6.273   2.651   6.129 -0.0352  0.3924 -0.4417
 4828SOL    HW319079   6.252   2.551   6.241  1.5936  0.1496 -0.3246
 4828SOL    MW419080   6.244   2.632   6.208  0.6699  0.0969 -0.2436
 4829SOL     OW19081   5.788   5.634   3.733  0.2785 -0.4953 -0.0911
 4829SOL    HW219082   5.830   5.618   3.649 -0.3922 -0.0395 -0.5265
 4829SOL    HW319083   5.740   5.553   3.752  1.5778 -1.1353  0.5631
 4829SOL    MW419084   5.787   5.621   3.724  0.3615 -0.5196 -0.0622
 4830SOL     OW19085   4.069   5.542   0.501  0.3265 -0.9696  0.1208
 4830SOL    HW219086   4.012   5.613   0.472  1.6860 -0.7226 -2.2408
 4830SOL    HW319087   4.123   5.580   0.570 -0.2495 -0.2894  0.2066
 4830SOL    MW419088   4.068   5.556   0.506  0.4299 -0.8473 -0.1795
 4831SOL     OW19089   3.319   0.143   5.720 -0.0321  0.3191 -0.0438
 4831SOL    HW219090   3.335   0.237   5.730  1.6360  0.1820 -1.0902
 4831SOL    HW319091   3.306   0.130   5.626  0.9417 -0.6460 -0.0676
 4831SOL    MW419092   3.319   0.153   5.709  0.3165  0.1737 -0.1850
 4832SOL     OW19093   0.270   3.971   2.876 -0.0574 -0.3338  0.8157
 4832SOL    HW219094   0.233   4.023   2.947 -0.4961 -0.7049  0.8704
 4832SOL    HW319095   0.195   3.922   2.841  0.1283 -0.0598  0.0170
 4832SOL    MW419096   0.255   3.971   2.881 -0.0908 -0.3466  0.7175
 4833SOL     OW19097   0.545   3.196   0.212 -0.2669  0.0781  0.6421
 4833SOL    HW219098   0.494   3.183   0.292 -0.5370  1.4513  0.7235
 4833SOL    HW319099   0.590   3.279   0.226  0.4211 -0.1270 -0.2610
 4833SOL    MW419100   0.544   3.205   0.225 -0.2118  0.2322  0.5337
 4834SOL     OW19101   4.090   4.010   1.905  0.1637 -0.0972 -0.0994
 4834SOL    HW219102   4.056   4.099   1.908  0.3877 -0.0199  2.9257
 4834SOL    HW319103   4.012   3.954   1.908  0.1103  0.0092  0.4038
 4834SOL    MW419104   4.075   4.014   1.905  0.1862 -0.0730  0.3661
 4835SOL     OW19105   5.452   4.695   4.965 -0.5308  0.1668 -0.0325
 4835SOL    HW219106   5.450   4.789   4.947 -0.7655  0.3846  1.0417
 4835SOL    HW319107   5.481   4.656   4.883  2.6482  1.4332  0.3208
 4835SOL    MW419108   5.456   4.703   4.952 -0.1423  0.3626  0.1559
 4836SOL     OW19109   0.644   3.743   0.627 -0.2349 -0.1633  0.0315
 4836SOL    HW219110   0.696   3.821   0.609  0.4500 -0.7667 -0.7242
 4836SOL    HW319111   0.594   3.729   0.546  1.4926 -1.8773 -0.8214
 4836SOL    MW419112   0.644   3.751   0.614  0.0834 -0.4690 -0.1807
 4837SOL     OW19113   3.123   2.119   2.381 -0.5217 -0.0758 -0.2299
 4837SOL    HW219114   3.117   2.057   2.454 -1.3684 -0.6671 -0.7798
 4837SOL    HW319115   3.080   2.198   2.414  0.3451  0.1445  0.3904
 4837SOL    MW419116   3.116   2.121   2.395 -0.5191 -0.1247 -0.2206
 4838SOL     OW19117   3.826   0.627   0.375  0.1381 -0.3357 -0.3106
 4838SOL    HW219118   3.912   0.667   0.363 -1.4229  3.0669 -1.8356
 4838SOL    HW319119   3.830   0.545   0.326  2.8707 -1.0060  0.8623
 4838SOL    MW419120   3.838   0.622   0.367  0.2927  0.0248 -0.3571
 4839SOL     OW19121   3.750   2.797   0.436 -0.1137 -0.9699  0.0660
 4839SOL    HW219122   3.667   2.814   0.390  0.2746  0.6618 -0.0907
 4839SOL    HW319123   3.726   2.741   0.509 -1.0180 -2.2340 -1.1606
 4839SOL    MW419124   3.736   2.792   0.440 -0.1818 -0.9214 -0.1165
 4840SOL     OW19125   5.867   5.006   4.789  0.0204 -0.5507  0.0425
 4840SOL    HW219126   5.829   4.972   4.708 -0.9562 -1.4177  0.8337
 4840SOL    HW319127   5.942   4.949   4.806  0.1742 -0.4226 -0.2077
 4840SOL    MW419128   5.872   4.994   4.781 -0.0882 -0.6482  0.1139
 4841SOL     OW19129   0.895   0.168   2.337 -0.0765  0.4104  0.4613
 4841SOL    HW219130   0.824   0.205   2.283 -0.5456 -2.0939 -0.7984
 4841SOL    HW319131   0.854   0.152   2.422 -0.4099  0.9362  0.4065
 4841SOL    MW419132   0.880   0.171   2.341 -0.1824  0.1494  0.2878
 4842SOL     OW19133   6.030   2.497   4.827 -0.6916 -0.0378  0.2769
 4842SOL    HW219134   5.939   2.499   4.854 -0.3987 -0.3216  1.3150
 4842SOL    HW319135   6.041   2.576   4.774 -2.2054 -1.3110 -2.1153
 4842SOL    MW419136   6.020   2.508   4.823 -0.8526 -0.2432  0.0983
 4843SOL     OW19137   0.287   3.297   2.291 -0.5672  0.2473  0.4427
 4843SOL    HW219138   0.274   3.376   2.344 -2.0511 -0.2107  0.8155
 4843SOL    HW319139   0.235   3.230   2.335 -1.5705 -0.2389 -1.3726
 4843SOL    MW419140   0.278   3.299   2.304 -0.8953  0.1228  0.2524
 4844SOL     OW19141   1.354   1.011   3.555  0.0613 -0.5419 -0.0820
 4844SOL    HW219142   1.393   1.094   3.525  1.1266 -0.9745  0.0838
 4844SOL    HW319143   1.272   1.038   3.597  1.2707  0.6634  1.6686
 4844SOL    MW419144   1.348   1.026   3.557  0.3614 -0.4399  0.1709
 4845SOL     OW19145   3.611   3.954   3.954 -0.1775 -0.3066 -0.5927
 4845SOL    HW219146   3.655   4.032   3.988  0.7484 -1.6300  1.4280
 4845SOL    HW319147   3.653   3.939   3.869  0.7556  0.4789 -0.2945
 4845SOL    MW419148   3.623   3.963   3.947  0.0678 -0.3776 -0.2868
 4846SOL     OW19149   4.515   4.408   5.555  0.2900 -0.0222 -0.5978
 4846SOL    HW219150   4.557   4.389   5.639  1.9845  1.8325 -0.9584
 4846SOL    HW319151   4.422   4.411   5.575  0.6280 -0.1296  1.1121
 4846SOL    MW419152   4.508   4.406   5.569  0.5582  0.2083 -0.4198
 4847SOL     OW19153   2.860   6.141   5.975 -0.1417 -0.2004 -0.0412
 4847SOL    HW219154   2.765   6.136   5.960 -0.1648 -1.6435  0.3774
 4847SOL    HW319155   2.896   6.167   5.890 -0.8841 -0.1825 -0.3577
 4847SOL    MW419156   2.852   6.144   5.962 -0.2427 -0.3884 -0.0277
 4848SOL     OW19157   3.039   0.405   5.830  0.1402  0.2122  0.3458
 4848SOL    HW219158   3.133   0.402   5.812  0.4100 -0.3599  1.7024
 4848SOL    HW319159   3.017   0.315   5.856 -1.0145  0.0885 -0.9419
 4848SOL    MW419160   3.049   0.393   5.831  0.0234  0.1204  0.3549
 4849SOL     OW19161   3.861   4.169   6.159 -0.2424 -0.0593  0.3843
 4849SOL    HW219162   3.848   4.085   6.117  1.5225  0.0164 -0.4241
 4849SOL    HW319163   3.941   4.158   6.210  1.4676  1.7477 -1.6709
 4849SOL    MW419164   3.870   4.157   6.160  0.2160  0.1891  0.0065
 4850SOL     OW19165   3.885   0.964   4.622 -0.7186  0.5887  0.0335
 4850SOL    HW219166   3.847   1.051   4.609 -0.0836  0.9046  0.2574
 4850SOL    HW319167   3.845   0.933   4.704 -1.1414  0.5571 -0.1820
 4850SOL    MW419168   3.875   0.972   4.631 -0.6906  0.6262  0.0346
 4851SOL     OW19169   0.314   6.004   1.043  0.6227  0.3473  0.3663
 4851SOL    HW219170   0.326   6.083   1.097 -1.1080  0.2642  0.9246
 4851SOL    HW319171   0.220   5.988   1.045  0.7361 -0.6934 -1.2568
 4851SOL    MW419172   0.303   6.012   1.050  0.4093  0.1990  0.2258
 4852SOL     OW19173   0.196   3.746   2.141  0.0654 -0.7084  0.1022
 4852SOL    HW219174   0.149   3.816   2.096  1.2767  0.4796  0.5831
 4852SOL    HW319175   0.171   3.666   2.095  1.9625  0.4833 -3.3683
 4852SOL    MW419176   0.187   3.745   2.129  0.4755 -0.3945 -0.2922
 4853SOL     OW19177   2.495   3.375   2.419 -0.2903 -0.0051 -0.0515
 4853SOL    HW219178   2.505   3.284   2.394 -1.0471  0.3742 -1.8231
 4853SOL    HW319179   2.410   3.380   2.462 -0.1125 -0.1814  0.3242
 4853SOL    MW419180   2.485   3.364   2.422 -0.3667  0.0217 -0.2357
 4854SOL     OW19181   3.041   6.088   3.650  0.2740 -0.3056  0.0172
 4854SOL    HW219182   3.036   6.163   3.709 -0.3517 -1.0960  1.0079
 4854SOL    HW319183   2.951   6.068   3.628  0.2522 -1.9918  1.4137
 4854SOL    MW419184   3.029   6.095   3.655  0.1886 -0.6324  0.3322
 4855SOL     OW19185   3.403   5.975   5.643  0.5269 -0.0637  0.6248
 4855SOL    HW219186   3.494   5.953   5.660  0.1474 -2.2490  0.2333
 4855SOL    HW319187   3.393   5.964   5.548 -0.0282  0.6434  0.5917
 4855SOL    MW419188   3.414   5.970   5.633  0.4036 -0.2587  0.5688
 4856SOL     OW19189   5.852   4.760   0.463 -0.2984 -0.0122 -0.3681
 4856SOL    HW219190   5.851   4.806   0.379 -0.1975  0.8588  0.0979
 4856SOL    HW319191   5.855   4.830   0.529 -2.7701 -0.5805  0.4640
 4856SOL    MW419192   5.852   4.776   0.461 -0.6112  0.0277 -0.1968
 4857SOL     OW19193   5.189   4.089   0.195 -0.4777 -0.0257 -0.1035
 4857SOL    HW219194   5.216   4.115   0.107 -0.7042  1.9503  0.3808
 4857SOL    HW319195   5.265   4.107   0.251 -1.8143  3.3527  0.8639
 4857SOL    MW419196   5.202   4.095   0.191 -0.6840  0.6808  0.0880
 4858SOL     OW19197   3.837   2.127   2.437  0.7794 -0.8197 -0.3720
 4858SOL    HW219198   3.839   2.171   2.352 -1.7857  0.2932  0.0658
 4858SOL    HW319199   3.879   2.188   2.497 -0.7370  0.0865 -0.1920
 4858SOL    MW419200   3.843   2.141   2.434  0.2409 -0.5533 -0.2905
 4859SOL     OW19201   6.224   4.561   3.024 -0.1675  0.0857  0.4186
 4859SOL    HW219202   6.236   4.478   3.071  0.4636 -0.5569 -0.8313
 4859SOL    HW319203   6.272   4.625   3.076  2.8148 -1.1000 -0.6369
 4859SOL    MW419204   6.232   4.558   3.037  0.3093 -0.1556  0.1144
 4860SOL     OW19205   0.515   1.198   5.215  0.0374  0.1060 -0.1200
 4860SOL    HW219206   0.436   1.172   5.168 -0.9910  1.1362  0.9680
 4860SOL    HW319207   0.495   1.286   5.248  0.9425 -0.3172  1.6880
 4860SOL    MW419208   0.502   1.207   5.213  0.0211  0.1861  0.2621
 4861SOL     OW19209   0.474   2.045   2.481 -0.6784 -0.4273  0.3357
 4861SOL    HW219210   0.441   1.957   2.461 -2.8260  0.4135 -0.1391
 4861SOL    HW319211   0.462   2.054   2.575  2.2272 -1.6010  0.9202
 4861SOL    MW419212   0.468   2.035   2.490 -0.5784 -0.4712  0.3502
 4862SOL     OW19213   3.601   5.507   6.425  0.1882 -0.1683  0.3244
 4862SOL    HW219214   3.614   5.496   6.519  1.6292  0.9173  0.2834
 4862SOL    HW319215   3.516   5.551   6.418  1.4628  2.6609  1.3526
 4862SOL    MW419216   3.591   5.511   6.436  0.5465  0.3482  0.4547
 4863SOL     OW19217   2.107   0.070   6.081 -0.0422  0.7200  0.1358
 4863SOL    HW219218   2.035   0.027   6.126 -0.1055 -0.4789 -1.0506
 4863SOL    HW319219   2.156   0.114   6.150 -0.8713  0.0249  1.1908
 4863SOL    MW419220   2.104   0.070   6.096 -0.1599  0.4701  0.1185
 4864SOL     OW19221   4.531   2.081   3.571  0.4676 -0.5579 -1.0042
 4864SOL    HW219222   4.611   2.127   3.545  0.2157  0.6291  0.2063
 4864SOL    HW319223   4.544   2.063   3.665 -0.6157 -0.4948 -0.8349
 4864SOL    MW419224   4.543   2.085   3.580  0.2914 -0.3930 -0.8222
 4865SOL     OW19225   4.044   5.719   5.534  0.7516  0.0480  0.0786
 4865SOL    HW219226   4.102   5.795   5.544  0.5043  0.0807  1.4582
 4865SOL    HW319227   4.098   5.653   5.492  1.3416  0.5758 -0.0113
 4865SOL    MW419228   4.059   5.721   5.530  0.7969  0.1219  0.2487
 4866SOL     OW19229   5.971   3.998   1.968 -0.1237 -0.3743  0.0872
 4866SOL    HW219230   6.022   3.918   1.981  0.8942 -0.2928 -2.7104
 4866SOL    HW319231   5.897   3.972   1.913 -0.1450  0.4516 -0.3004
 4866SOL    MW419232   5.968   3.984   1.962  0.0077 -0.2546 -0.3330
 4867SOL     OW19233   6.371   4.674   0.548  0.0525  0.4332  0.1757
 4867SOL    HW219234   6.465   4.662   0.553  0.1474  0.6878 -0.7849
 4867SOL    HW319235   6.339   4.655   0.636  0.6910 -2.1943 -0.0753
 4867SOL    MW419236   6.379   4.670   0.560  0.1492  0.1201  0.0159
 4868SOL     OW19237   5.799   3.765   0.351 -0.0094  0.2338 -0.8352
 4868SOL    HW219238   5.859   3.839   0.363 -1.3830  1.4186 -1.0619
 4868SOL    HW319239   5.834   3.718   0.276  1.7812 -0.2821  0.2711
 4868SOL    MW419240   5.812   3.769   0.343  0.0457  0.3221 -0.7192
 4869SOL     OW19241   3.381   5.923   4.277  0.2327  0.4206  1.0623
 4869SOL    HW219242   3.344   5.937   4.364 -2.6222 -0.5236  0.1452
 4869SOL    HW319243   3.311   5.878   4.229  1.0566  2.3131 -2.1976
 4869SOL    MW419244   3.367   5.919   4.282 -0.0352  0.5457  0.5112
 4870SOL     OW19245   1.944   5.696   1.372 -0.6603  0.8544 -0.2497
 4870SOL    HW219246   1.876   5.642   1.333 -0.2080  1.3238 -1.7915
 4870SOL    HW319247   1.902   5.780   1.389 -1.1246  0.3393  1.2908
 4870SOL    MW419248   1.930   5.700   1.369 -0.6619  0.8484 -0.2499
 4871SOL     OW19249  -0.001   6.026   6.104 -0.1495  0.6541 -0.1245
 4871SOL    HW219250  -0.078   6.075   6.132 -0.9698  0.5364 -2.0373
 4871SOL    HW319251   0.008   5.957   6.170 -1.9890  0.3637 -0.1209
 4871SOL    MW419252  -0.010   6.023   6.116 -0.5004  0.6002 -0.3764
 4872SOL     OW19253   4.517   2.307   5.796  0.3860 -0.2028 -0.3113
 4872SOL    HW219254   4.485   2.287   5.884  1.4429 -2.4293 -0.3598
 4872SOL    HW319255   4.581   2.376   5.809 -1.8022  1.8677  0.1920
 4872SOL    MW419256   4.521   2.313   5.809  0.2367 -0.2234 -0.2513
 4873SOL     OW19257   5.170   2.042   3.477  0.2812 -0.2585  1.1638
 4873SOL    HW219258   5.258   2.008   3.498  0.3934  0.4285  1.8182
 4873SOL    HW319259   5.186   2.124   3.430  0.0130 -1.2369 -0.7448
 4873SOL    MW419260   5.184   2.048   3.474  0.2606 -0.2970  0.9984
 4874SOL     OW19261   2.197   0.294   0.133 -0.4362 -0.5971  0.2333
 4874SOL    HW219262   2.136   0.358   0.170 -1.6519 -1.2714 -0.5305
 4874SOL    HW319263   2.276   0.302   0.187 -0.8824  0.8903  0.7235
 4874SOL    MW419264   2.200   0.303   0.145 -0.6554 -0.4898  0.1972
 4875SOL     OW19265   0.752   4.598   5.265  0.2480 -0.3114  0.1603
 4875SOL    HW219266   0.829   4.576   5.212  0.7373  1.2346  0.1721
 4875SOL    HW319267   0.777   4.677   5.312 -0.6136 -0.9630  1.8134
 4875SOL    MW419268   0.765   4.605   5.264  0.1989 -0.1934  0.3800
 4876SOL     OW19269   1.387   2.597   4.484 -0.5343  0.3624 -0.2893
 4876SOL    HW219270   1.439   2.532   4.437 -0.8448  0.2410 -0.4722
 4876SOL    HW319271   1.303   2.599   4.437 -0.9508  0.0345  0.4190
 4876SOL    MW419272   1.382   2.589   4.472 -0.6302  0.3031 -0.2200
 4877SOL     OW19273   2.829   0.440   5.327  0.2795  0.6939  0.4137
 4877SOL    HW219274   2.752   0.493   5.346  0.2615  0.5701  0.6865
 4877SOL    HW319275   2.829   0.431   5.232  0.8484  2.0518  0.2610
 4877SOL    MW419276   2.819   0.446   5.317  0.3522  0.8567  0.4296
 4878SOL     OW19277   4.892   2.838   5.483  0.4343 -0.1704  0.4446
 4878SOL    HW219278   4.807   2.873   5.458 -1.0626 -1.7414  2.9301
 4878SOL    HW319279   4.945   2.845   5.403 -1.7289  1.5960 -0.9542
 4878SOL    MW419280   4.888   2.843   5.469 -0.0486 -0.1446  0.5880
 4879SOL     OW19281   5.673   5.975   6.255  0.2741  0.0295 -0.2041
 4879SOL    HW219282   5.672   6.001   6.347 -0.2279 -2.0272  0.4060
 4879SOL    HW319283   5.591   6.011   6.219  0.1694  0.2988  0.2941
 4879SOL    MW419284   5.662   5.983   6.262  0.1940 -0.2063 -0.0579
 4880SOL     OW19285   5.711   6.106   5.960  0.1321 -0.4634 -0.3065
 4880SOL    HW219286   5.664   6.041   5.909  0.6389 -0.5074 -0.7191
 4880SOL    HW319287   5.786   6.059   5.997  0.6154 -0.0696 -0.7739
 4880SOL    MW419288   5.715   6.091   5.958  0.2627 -0.4172 -0.4226
 4881SOL     OW19289   3.278   1.124   2.442  0.9989 -0.1202  0.5270
 4881SOL    HW219290   3.246   1.158   2.359  1.3529  0.1940  0.5193
 4881SOL    HW319291   3.371   1.145   2.443  1.2271 -1.0819  0.5218
 4881SOL    MW419292   3.286   1.131   2.431  1.0757 -0.2056  0.5253
 4882SOL     OW19293   3.003   4.256   3.144 -1.1205 -0.0350 -0.6435
 4882SOL    HW219294   2.988   4.194   3.073 -0.7180  0.3955 -1.1165
 4882SOL    HW319295   2.953   4.333   3.120 -0.3607  0.4035 -0.8709
 4882SOL    MW419296   2.995   4.258   3.132 -0.9671  0.0797 -0.7359
 4883SOL     OW19297   4.929   4.388   4.570  0.0839 -0.0136 -0.0018
 4883SOL    HW219298   5.012   4.351   4.538 -0.1438 -0.5936  0.0620
 4883SOL    HW319299   4.899   4.325   4.635  0.8325  1.4223  1.8436
 4883SOL    MW419300   4.936   4.375   4.575  0.1526  0.0993  0.2501
 4884SOL     OW19301   2.450   0.749   5.928 -0.2431 -0.0773  0.5294
 4884SOL    HW219302   2.360   0.764   5.958  0.0845  0.0883  1.4784
 4884SOL    HW319303   2.440   0.694   5.850 -1.1746  0.1105  0.4990
 4884SOL    MW419304   2.437   0.744   5.922 -0.3228 -0.0307  0.6506
 4885SOL     OW19305   3.079   0.284   4.116 -0.7042  0.4681 -0.4251
 4885SOL    HW219306   3.056   0.196   4.088 -2.5486  1.0667 -0.9307
 4885SOL    HW319307   3.153   0.309   4.061 -1.7586  0.1453 -2.0300
 4885SOL    MW419308   3.086   0.276   4.105 -1.0867  0.5045 -0.7036
 4886SOL     OW19309   2.212   5.328   4.814  0.3746 -0.4647 -0.7007
 4886SOL    HW219310   2.253   5.414   4.805 -1.3924  0.3324 -1.6582
 4886SOL    HW319311   2.199   5.298   4.724 -0.2542 -1.0914 -0.4092
 4886SOL    MW419312   2.215   5.336   4.801  0.0585 -0.4422 -0.7886
 4887SOL     OW19313   4.053   5.118   5.323 -0.1789 -0.8443 -0.2085
 4887SOL    HW219314   3.976   5.074   5.288  1.4459 -1.7505 -2.9100
 4887SOL    HW319315   4.063   5.196   5.268 -0.9853  1.1516  2.2583
 4887SOL    MW419316   4.044   5.123   5.311 -0.0709 -0.7005 -0.2395
 4888SOL     OW19317   3.171   2.390   1.815  0.5657 -0.6404 -0.5445
 4888SOL    HW219318   3.123   2.432   1.887  1.7087  1.1025 -0.7359
 4888SOL    HW319319   3.218   2.318   1.857  0.0921 -0.5448  0.1789
 4888SOL    MW419320   3.171   2.386   1.830  0.6540 -0.3979 -0.4743
 4889SOL     OW19321   1.478   4.871   1.768 -0.0794 -0.1939  0.0836
 4889SOL    HW219322   1.535   4.800   1.797  0.1819 -0.5374 -1.1885
 4889SOL    HW319323   1.389   4.838   1.781  0.0111 -0.0799  1.0645
 4889SOL    MW419324   1.474   4.857   1.774 -0.0330 -0.2242  0.0452
 4890SOL     OW19325   2.914   1.116   2.061 -0.3758  0.3764 -0.1384
 4890SOL    HW219326   2.970   1.154   1.994  0.9782 -0.4061  0.5138
 4890SOL    HW319327   2.911   1.022   2.040 -1.3776  0.3829 -0.0989
 4890SOL    MW419328   2.921   1.109   2.049 -0.3294  0.2740 -0.0471
 4891SOL     OW19329   2.963   3.065   6.139 -0.5299 -0.3503  0.6233
 4891SOL    HW219330   3.054   3.050   6.116 -0.0100  1.2287  1.5260
 4891SOL    HW319331   2.915   3.058   6.057  0.5400 -0.2108 -0.0197
 4891SOL    MW419332   2.968   3.062   6.125 -0.3202 -0.1236  0.6576
 4892SOL     OW19333   0.330   2.464   1.765  0.5195  0.2173 -0.3447
 4892SOL    HW219334   0.262   2.403   1.736  0.4619  0.7076 -1.3026
 4892SOL    HW319335   0.357   2.432   1.851 -0.3216 -0.4787 -0.3293
 4892SOL    MW419336   0.325   2.452   1.773  0.4009  0.1901 -0.4691
 4893SOL     OW19337   2.513   1.746   5.045 -0.3975  0.0305  0.4258
 4893SOL    HW219338   2.442   1.781   4.991 -1.1968 -1.9739  0.0916
 4893SOL    HW319339   2.482   1.757   5.135 -1.2196 -0.8870  0.2809
 4893SOL    MW419340   2.499   1.752   5.050 -0.6114 -0.3550  0.3626
 4894SOL     OW19341   6.250   6.255   3.269 -0.5018  0.1371  0.6078
 4894SOL    HW219342   6.258   6.279   3.362 -3.4516  0.0665  0.9773
 4894SOL    HW319343   6.212   6.167   3.270 -0.8393  0.2520 -0.6506
 4894SOL    MW419344   6.246   6.247   3.282 -0.9355  0.1430  0.4905
 4895SOL     OW19345   1.059   2.752   6.051  0.0311 -0.4323 -0.0232
 4895SOL    HW219346   1.063   2.823   5.987 -0.3147  0.1057  0.5312
 4895SOL    HW319347   1.145   2.753   6.094 -0.6509  1.0941  1.4516
 4895SOL    MW419348   1.071   2.762   6.048 -0.1045 -0.1599  0.2445
 4896SOL     OW19349   2.104   1.022   0.657  0.4283  0.1400  0.3241
 4896SOL    HW219350   2.086   0.931   0.632 -0.6957  0.8244 -1.6187
 4896SOL    HW319351   2.198   1.031   0.647  0.3698 -0.4397 -0.9636
 4896SOL    MW419352   2.114   1.011   0.652  0.2723  0.1538 -0.1022
 4897SOL     OW19353   1.341   3.983   3.693 -0.5606  0.2200 -0.3030
 4897SOL    HW219354   1.436   3.971   3.693 -0.6586 -0.6463 -0.1999
 4897SOL    HW319355   1.314   3.967   3.602 -0.7586 -0.9830 -0.0514
 4897SOL    MW419356   1.350   3.980   3.681 -0.5997 -0.0530 -0.2562
 4898SOL     OW19357   1.857   5.802   5.451  0.2998 -0.4159  0.0110
 4898SOL    HW219358   1.804   5.879   5.429  1.2191  0.4386  0.7048
 4898SOL    HW319359   1.948   5.833   5.448  0.6205 -0.9721  2.0736
 4898SOL    MW419360   1.862   5.816   5.448  0.4634 -0.3766  0.3747
 4899SOL     OW19361   2.887   5.646   2.267  0.4559  0.4928 -0.3556
 4899SOL    HW219362   2.925   5.679   2.185  0.4776  0.4611 -0.3585
 4899SOL    HW319363   2.796   5.630   2.245  0.3987  0.7333 -0.3012
 4899SOL    MW419364   2.880   5.648   2.253  0.4513  0.5204 -0.3488
 4900SOL     OW19365   4.233   3.802   0.897  0.0078  0.1332  0.1478
 4900SOL    HW219366   4.275   3.815   0.812  1.4312  2.7666  1.1421
 4900SOL    HW319367   4.280   3.729   0.936  1.0605  0.5072 -0.3643
 4900SOL    MW419368   4.245   3.794   0.891  0.3345  0.5300  0.2114
 4901SOL     OW19369   3.478   5.619   0.319 -0.2013 -0.0003  0.1089
 4901SOL    HW219370   3.532   5.540   0.312 -0.0050  0.0868  0.6444
 4901SOL    HW319371   3.389   5.586   0.326 -0.1968 -0.1533 -0.4682
 4901SOL    MW419372   3.474   5.604   0.319 -0.1748 -0.0090  0.1034
 4902SOL     OW19373   0.054   1.606   2.362 -0.3092 -0.4810  1.1583
 4902SOL    HW219374  -0.006   1.533   2.344 -2.6490  1.4006  0.7204
 4902SOL    HW319375   0.076   1.641   2.275 -1.5563  1.0307  1.4081
 4902SOL    MW419376   0.049   1.601   2.348 -0.7825 -0.0333  1.1335
 4903SOL     OW19377   0.444   0.553   4.608 -0.3942 -0.0618 -0.2725
 4903SOL    HW219378   0.537   0.557   4.589  0.2197 -1.3167  2.0391
 4903SOL    HW319379   0.404   0.524   4.526  1.2061  0.6447 -1.3518
 4903SOL    MW419380   0.451   0.549   4.595 -0.1021 -0.1341 -0.1099
 4904SOL     OW19381   2.081   0.251   2.228  0.0905  0.0048  0.0771
 4904SOL    HW219382   2.000   0.265   2.179 -0.1084 -0.4407  0.2757
 4904SOL    HW319383   2.100   0.158   2.217  1.9512  0.5507 -2.0759
 4904SOL    MW419384   2.073   0.241   2.220  0.3098  0.0181 -0.1807
 4905SOL     OW19385   4.835   2.044   3.890 -0.7341 -0.1125  0.2080
 4905SOL    HW219386   4.878   1.966   3.925 -0.5022  0.2604  0.7736
 4905SOL    HW319387   4.745   2.016   3.874 -0.2254 -1.0056 -1.3415
 4905SOL    MW419388   4.829   2.030   3.893 -0.6364 -0.1811  0.0782
 4906SOL     OW19389   5.453   6.473   1.085  0.0404  0.3464 -0.2371
 4906SOL    HW219390   5.436   6.405   1.019 -0.3682  0.4647 -0.2566
 4906SOL    HW319391   5.392   6.453   1.156  0.5881  0.1315  0.1754
 4906SOL    MW419392   5.443   6.461   1.085  0.0587  0.3337 -0.1853
 4907SOL     OW19393   5.354   2.965   4.877 -0.0673  0.3115 -0.2709
 4907SOL    HW219394   5.445   2.935   4.876 -0.4543 -1.0130  0.5907
 4907SOL    HW319395   5.342   3.004   4.964  0.2650  2.5774 -1.1755
 4907SOL    MW419396   5.364   2.966   4.888 -0.0745  0.4357 -0.2766
 4908SOL     OW19397   1.747   4.959   2.859  0.4413  0.4435 -0.5472
 4908SOL    HW219398   1.705   4.930   2.777  0.1668 -1.9986  0.3715
 4908SOL    HW319399   1.829   4.910   2.862 -1.4015 -2.9254  2.5284
 4908SOL    MW419400   1.752   4.949   2.848  0.1620 -0.3232 -0.0202
 4909SOL     OW19401   4.691   1.320   4.480  0.5203  0.6065 -0.1114
 4909SOL    HW219402   4.615   1.275   4.443 -0.6122  0.6417  1.9825
 4909SOL    HW319403   4.755   1.251   4.495 -0.2094  0.0850  0.6930
 4909SOL    MW419404   4.690   1.305   4.477  0.2746  0.5424  0.2710
 4910SOL     OW19405   1.729   0.732   3.138  0.4731  0.2322  0.2775
 4910SOL    HW219406   1.775   0.763   3.061  1.0994  1.6302  1.1723
 4910SOL    HW319407   1.722   0.637   3.126  2.0980  0.2052 -0.6649
 4910SOL    MW419408   1.734   0.724   3.126  0.7701  0.4131  0.2712
 4911SOL     OW19409   6.075   4.834   4.869 -0.1270 -0.1258  0.4273
 4911SOL    HW219410   6.086   4.776   4.944  1.7726 -1.7549 -0.9863
 4911SOL    HW319411   6.130   4.910   4.888  1.5651 -1.2117  0.1265
 4911SOL    MW419412   6.084   4.836   4.881  0.3469 -0.4840  0.2011
 4912SOL     OW19413   4.952   1.643   2.209 -0.1887 -0.2461  0.1772
 4912SOL    HW219414   4.922   1.564   2.164  0.5898 -0.7568  0.5126
 4912SOL    HW319415   4.959   1.709   2.141 -0.7334 -0.5086 -0.1333
 4912SOL    MW419416   4.949   1.641   2.194 -0.1579 -0.3481  0.1805
 4913SOL     OW19417   2.134   0.697   4.693  0.2494  0.5888  0.0497
 4913SOL    HW219418   2.104   0.648   4.770  0.9185 -0.6552 -0.4517
 4913SOL    HW319419   2.059   0.750   4.667 -0.8131 -0.8663  0.0698
 4913SOL    MW419420   2.120   0.698   4.700  0.1975  0.2327 -0.0138
 4914SOL     OW19421   5.092   3.433   5.372 -0.5041  0.4336  0.0130
 4914SOL    HW219422   5.174   3.405   5.412  0.5975  2.2012 -0.8760
 4914SOL    HW319423   5.043   3.474   5.443 -0.3214 -0.0090  0.3952
 4914SOL    MW419424   5.096   3.435   5.386 -0.3347  0.6084 -0.0539
 4915SOL     OW19425   3.431   1.810   0.691  0.2206 -0.3884  0.1740
 4915SOL    HW219426   3.462   1.863   0.764  1.7070 -1.6382  0.4858
 4915SOL    HW319427   3.363   1.755   0.729  0.8718 -0.9160  0.5986
 4915SOL    MW419428   3.426   1.810   0.706  0.5026 -0.6229  0.2712
 4916SOL     OW19429   0.387   5.548   6.449 -0.6413  0.0085 -0.5348
 4916SOL    HW219430   0.471   5.568   6.490 -1.9389  2.0728  1.3701
 4916SOL    HW319431   0.408   5.530   6.358  1.9386 -0.3949  0.0668
 4916SOL    MW419432   0.401   5.548   6.442 -0.4721  0.2276 -0.2041
 4917SOL     OW19433   5.289   2.397   4.546  0.0586  0.6342 -0.0139
 4917SOL    HW219434   5.259   2.382   4.635  1.3050 -0.2921  0.2839
 4917SOL    HW319435   5.218   2.446   4.504 -1.1704 -0.1549  1.0712
 4917SOL    MW419436   5.276   2.401   4.552  0.0609  0.4079  0.1685
 4918SOL     OW19437   0.621   4.638   2.537  0.2449 -0.2608 -0.0392
 4918SOL    HW219438   0.707   4.596   2.542 -0.3276 -1.4027  0.5157
 4918SOL    HW319439   0.615   4.691   2.616  0.0958 -0.8656  0.3579
 4918SOL    MW419440   0.632   4.640   2.548  0.1497 -0.4912  0.0864
 4919SOL     OW19441   6.153   3.331   3.253 -0.4745  0.4478  0.1806
 4919SOL    HW219442   6.092   3.389   3.207  0.0210  0.4743 -0.4706
 4919SOL    HW319443   6.171   3.375   3.336 -2.0387 -0.0090  0.7871
 4919SOL    MW419444   6.147   3.345   3.258 -0.6155  0.3910  0.1747
 4920SOL     OW19445   5.845   2.160   4.196  0.2513  0.7313  0.0215
 4920SOL    HW219446   5.902   2.084   4.181  2.4877  2.3220 -0.0102
 4920SOL    HW319447   5.860   2.217   4.120 -2.2626  0.7681 -0.5380
 4920SOL    MW419448   5.855   2.157   4.184  0.2147  0.9461 -0.0565
 4921SOL     OW19449   3.457   0.697   1.820 -0.6441  0.5336  0.1599
 4921SOL    HW219450   3.363   0.713   1.834 -1.1687 -1.0292 -1.1639
 4921SOL    HW319451   3.459   0.620   1.763  1.4273  1.4859 -1.1426
 4921SOL    MW419452   3.445   0.689   1.814 -0.4400  0.4530 -0.1866
 4922SOL     OW19453   0.485   5.319   3.839  0.3225 -1.0502 -0.4427
 4922SOL    HW219454   0.550   5.347   3.774 -0.2678 -0.1888 -0.6852
 4922SOL    HW319455   0.512   5.231   3.864  2.0874 -0.4019  0.1025
 4922SOL    MW419456   0.497   5.311   3.834  0.4775 -0.8510 -0.4028
 4923SOL     OW19457   2.978   6.042   5.105  0.2728  1.2643  0.2157
 4923SOL    HW219458   2.975   6.059   5.011  0.6443 -1.0456 -0.2904
 4923SOL    HW319459   3.045   6.101   5.138  2.1315  0.2613 -1.5043
 4923SOL    MW419460   2.987   6.052   5.097  0.5671  0.8272 -0.0780
 4924SOL     OW19461   3.371   3.859   5.295 -0.0651 -0.3261  0.0132
 4924SOL    HW219462   3.449   3.837   5.345 -0.5279 -1.6769  0.1637
 4924SOL    HW319463   3.341   3.777   5.257  0.0044  0.5836 -2.1542
 4924SOL    MW419464   3.377   3.846   5.297 -0.1170 -0.3843 -0.2529
 4925SOL     OW19465   5.339   1.720   2.929  0.4786 -0.1121  0.3073
 4925SOL    HW219466   5.387   1.642   2.902  0.2252  0.2280 -1.2217
 4925SOL    HW319467   5.386   1.792   2.885 -0.5534  0.3661 -0.0318
 4925SOL    MW419468   5.352   1.719   2.919  0.3090 -0.0041  0.0608
 4926SOL     OW19469   5.897   3.973   3.859 -0.4675 -0.0095 -0.5933
 4926SOL    HW219470   5.868   4.001   3.945  0.3487 -2.2241  0.4803
 4926SOL    HW319471   5.830   3.911   3.830 -0.5313  0.4189 -1.3949
 4926SOL    MW419472   5.885   3.968   3.866 -0.3683 -0.2451 -0.5574
 4927SOL     OW19473   4.449   1.173   2.440 -0.6659 -0.6252  0.5358
 4927SOL    HW219474   4.382   1.242   2.445 -0.9422 -0.7915 -0.4799
 4927SOL    HW319475   4.430   1.116   2.513 -2.9196 -1.7572 -0.8153
 4927SOL    MW419476   4.438   1.175   2.450 -0.9997 -0.7965  0.2235
 4928SOL     OW19477   0.438   2.887   4.352 -0.3166 -0.3894  0.0381
 4928SOL    HW219478   0.495   2.963   4.365  1.1391 -1.3835 -0.2895
 4928SOL    HW319479   0.493   2.812   4.371 -1.8896 -1.3742  0.9218
 4928SOL    MW419480   0.453   2.887   4.356 -0.3320 -0.6505  0.1115
 4929SOL     OW19481   0.205   5.825   1.315  0.5495 -0.0470 -0.3997
 4929SOL    HW219482   0.174   5.915   1.322 -0.0342 -0.3620  1.5236
 4929SOL    HW319483   0.198   5.789   1.403  0.2974 -2.1407 -1.1990
 4929SOL    MW419484   0.200   5.832   1.327  0.4392 -0.3648 -0.2514
 4930SOL     OW19485   0.912   0.443   4.213  0.2482 -0.2258  0.3933
 4930SOL    HW219486   0.945   0.369   4.161 -0.7397  0.4522 -1.2713
 4930SOL    HW319487   0.989   0.497   4.230  0.9825 -1.5858  1.6250
 4930SOL    MW419488   0.926   0.440   4.209  0.2147 -0.3158  0.3362
 4931SOL     OW19489   3.855   4.717   2.500 -0.5964 -0.7150 -0.3936
 4931SOL    HW219490   3.923   4.784   2.501 -1.1547 -0.1453 -0.3439
 4931SOL    HW319491   3.774   4.763   2.524 -1.1176 -1.2560 -1.0569
 4931SOL    MW419492   3.853   4.732   2.503 -0.7389 -0.7112 -0.4745
 4932SOL     OW19493   0.064   1.486   6.188  0.0920 -0.0613  0.2382
 4932SOL    HW219494   0.145   1.449   6.222 -0.7702  0.5052  3.2528
 4932SOL    HW319495   0.091   1.547   6.120  2.1463 -0.3420  0.7485
 4932SOL    MW419496   0.078   1.489   6.183  0.2493 -0.0236  0.7033
 4933SOL     OW19497   5.349   2.998   1.161 -0.8999 -0.0340  0.1399
 4933SOL    HW219498   5.279   3.053   1.126 -0.3533  0.8640  0.4060
 4933SOL    HW319499   5.427   3.025   1.113 -0.0169  1.6486  2.3733
 4933SOL    MW419500   5.350   3.009   1.150 -0.7113  0.3065  0.4697
 4934SOL     OW19501   4.682   0.456   1.419  0.9277  0.5757  0.0030
 4934SOL    HW219502   4.643   0.526   1.472  0.8113 -0.4071  1.2644
 4934SOL    HW319503   4.716   0.394   1.483  2.2104  0.1116 -1.0966
 4934SOL    MW419504   4.681   0.457   1.435  1.0815  0.3848  0.0243
 4935SOL     OW19505   4.397   1.635   2.364  0.2483 -0.0339  0.1253
 4935SOL    HW219506   4.344   1.714   2.366  0.0947 -0.0446 -1.7375
 4935SOL    HW319507   4.465   1.649   2.430 -0.2603  1.2829  0.3908
 4935SOL    MW419508   4.399   1.647   2.373  0.1609  0.1384 -0.0854
 4936SOL     OW19509   3.234   6.228   1.324 -0.6235 -0.3811 -0.0679
 4936SOL    HW219510   3.297   6.300   1.329 -2.2442  1.0920  0.3148
 4936SOL    HW319511   3.254   6.183   1.242  0.2397  0.6944 -0.4646
 4936SOL    MW419512   3.245   6.232   1.314 -0.7235 -0.0448 -0.0697
 4937SOL     OW19513   2.259   5.472   2.955  0.1988 -0.2025 -0.2227
 4937SOL    HW219514   2.213   5.406   2.902  0.7730 -0.7558 -0.0477
 4937SOL    HW319515   2.230   5.556   2.920 -2.8526 -0.4270  1.4357
 4937SOL    MW419516   2.249   5.474   2.944 -0.1280 -0.3051  0.0192
 4938SOL     OW19517   3.479   5.641   5.660 -0.1158  0.1388  0.3848
 4938SOL    HW219518   3.399   5.628   5.712  0.9483 -0.8474  1.8566
 4938SOL    HW319519   3.518   5.721   5.695 -0.4023  0.5769 -0.2800
 4938SOL    MW419520   3.473   5.649   5.672 -0.0132  0.0665  0.4913
 4939SOL     OW19521   3.272   3.301   5.313  0.2827  0.1289  0.0919
 4939SOL    HW219522   3.186   3.305   5.356 -0.3299  0.6480 -1.1271
 4939SOL    HW319523   3.334   3.332   5.379 -0.4268 -0.5008  1.0793
 4939SOL    MW419524   3.269   3.306   5.328  0.1083  0.1143  0.0613
 4940SOL     OW19525   2.645   0.524   2.261 -0.4739  0.5529 -0.5959
 4940SOL    HW219526   2.646   0.555   2.171  1.9451  1.2031 -0.4090
 4940SOL    HW319527   2.664   0.430   2.255 -2.9073  0.0167 -0.8596
 4940SOL    MW419528   2.647   0.516   2.249 -0.4758  0.5679 -0.6060
 4941SOL     OW19529   6.322   2.969   2.617 -0.4848 -0.3392  0.2364
 4941SOL    HW219530   6.249   2.916   2.583  1.8421 -2.9479 -1.1562
 4941SOL    HW319531   6.335   3.036   2.551 -1.2841 -0.1408  0.2619
 4941SOL    MW419532   6.314   2.971   2.604 -0.2832 -0.6572  0.0560
 4942SOL     OW19533   0.858   4.855   6.010 -0.1193 -0.5409  0.0707
 4942SOL    HW219534   0.944   4.885   5.980  0.1153 -1.4491 -0.2139
 4942SOL    HW319535   0.839   4.780   5.953 -2.6217  1.6084 -2.1678
 4942SOL    MW419536   0.867   4.849   5.999 -0.4185 -0.3771 -0.2622
 4943SOL     OW19537   1.560   5.959   3.221 -0.0924  0.6556 -0.4131
 4943SOL    HW219538   1.598   5.888   3.272 -1.3827 -0.1439 -0.5221
 4943SOL    HW319539   1.632   6.021   3.208  0.9994 -0.5265 -0.1413
 4943SOL    MW419540   1.574   5.958   3.226 -0.1186  0.3942 -0.3916
 4944SOL     OW19541   1.804   5.782   5.742  0.0480 -0.4391 -0.4256
 4944SOL    HW219542   1.854   5.701   5.753  3.0350  1.4199  1.0474
 4944SOL    HW319543   1.812   5.803   5.649  2.7704  0.1612 -0.1146
 4944SOL    MW419544   1.811   5.774   5.731  0.8013 -0.1147 -0.1902
 4945SOL     OW19545   0.981   5.969   4.981  0.1009 -0.2436 -0.8239
 4945SOL    HW219546   1.007   5.878   4.998 -0.8118 -0.6949 -1.7211
 4945SOL    HW319547   0.940   5.966   4.894  1.4014  1.2938 -1.5360
 4945SOL    MW419548   0.979   5.956   4.972  0.1521 -0.1003 -1.0362
 4946SOL     OW19549   1.106   4.050   1.301 -0.2458  0.1399  0.1403
 4946SOL    HW219550   1.045   4.110   1.344  1.3247  0.6490  1.7790
 4946SOL    HW319551   1.056   3.970   1.288 -1.7163  1.0487 -0.0130
 4946SOL    MW419552   1.091   4.048   1.305 -0.2326  0.3269  0.3363
 4947SOL     OW19553   2.813   5.577   4.526 -0.7896 -0.1148  0.6606
 4947SOL    HW219554   2.780   5.527   4.451  0.9908  0.6215 -0.7062
 4947SOL    HW319555   2.883   5.522   4.562  0.7763  1.0229 -0.4881
 4947SOL    MW419556   2.818   5.563   4.521 -0.3481  0.1325  0.3287
 4948SOL     OW19557   4.259   1.781   4.722  0.3533 -0.3812 -0.1771
 4948SOL    HW219558   4.279   1.839   4.649  0.4314  1.3249  1.1464
 4948SOL    HW319559   4.171   1.749   4.704 -0.0616  0.8885 -0.4854
 4948SOL    MW419560   4.250   1.784   4.710  0.3089  0.0114 -0.0432
 4949SOL     OW19561   2.273   3.903   2.310  0.5957 -0.2078  0.2501
 4949SOL    HW219562   2.270   3.902   2.406 -0.4046 -0.0462  0.2251
 4949SOL    HW319563   2.315   3.820   2.287  0.6751 -0.3330  0.8201
 4949SOL    MW419564   2.278   3.892   2.320  0.4742 -0.2030  0.3220
 4950SOL     OW19565   0.120   2.738   1.871  0.4512  0.4762 -0.2885
 4950SOL    HW219566   0.118   2.698   1.784 -1.5270 -0.9930  0.3713
 4950SOL    HW319567   0.169   2.820   1.858 -0.1815  0.5407 -2.8678
 4950SOL    MW419568   0.127   2.744   1.857  0.1067  0.2909 -0.5417
 4951SOL     OW19569   5.119   3.464   4.887 -0.4060  0.0262  0.0270
 4951SOL    HW219570   5.044   3.408   4.906  0.5949 -1.2091  0.4318
 4951SOL    HW319571   5.182   3.407   4.844  0.6663  0.8136  0.5049
 4951SOL    MW419572   5.118   3.449   4.884 -0.1325 -0.0329  0.1435
 4952SOL     OW19573   2.523   1.675   1.080  0.4166  0.0075  0.8379
 4952SOL    HW219574   2.451   1.735   1.061  0.1487 -0.2173  1.1340
 4952SOL    HW319575   2.577   1.720   1.144  0.2334 -0.0561  1.0358
 4952SOL    MW419576   2.521   1.689   1.086  0.3571 -0.0305  0.9031
 4953SOL     OW19577   0.976   3.640   0.603  0.3797 -0.3718  0.0973
 4953SOL    HW219578   1.053   3.672   0.555 -0.2032  2.0483  0.6325
 4953SOL    HW319579   0.904   3.646   0.540 -0.0399  1.0434  0.6674
 4953SOL    MW419580   0.977   3.645   0.588  0.2474  0.1342  0.2432
 4954SOL     OW19581   0.655   6.260   0.773 -0.5505 -0.1859 -0.1963
 4954SOL    HW219582   0.655   6.323   0.701 -1.4242  1.3042  1.0461
 4954SOL    HW319583   0.567   6.266   0.811 -0.6627 -2.1702 -0.0209
 4954SOL    MW419584   0.643   6.269   0.769 -0.6806 -0.2511 -0.0093
 4955SOL     OW19585   2.540   4.682   3.064  0.1564 -0.5664 -0.0537
 4955SOL    HW219586   2.584   4.636   2.993  0.4605  0.2483 -0.4102
 4955SOL    HW319587   2.448   4.681   3.040  0.2698 -0.1949 -0.5271
 4955SOL    MW419588   2.534   4.676   3.052  0.2115 -0.4099 -0.1632
 4956SOL     OW19589   0.829   3.750   4.605 -0.2010  0.0159  0.3008
 4956SOL    HW219590   0.849   3.689   4.534  0.0061 -0.0073  0.3783
 4956SOL    HW319591   0.744   3.721   4.638 -1.6278  1.6463 -1.6791
 4956SOL    MW419592   0.821   3.738   4.600 -0.3619  0.2279  0.0498
 4957SOL     OW19593   1.204   3.674   0.439  0.5659 -0.0207 -1.0149
 4957SOL    HW219594   1.288   3.673   0.485 -0.2138  1.5401  0.5512
 4957SOL    HW319595   1.199   3.760   0.398  0.2365 -0.5538 -2.1425
 4957SOL    MW419596   1.214   3.685   0.440  0.4196  0.1149 -0.9571
 4958SOL     OW19597   0.032   3.790   5.643 -0.3855  0.3983 -0.2197
 4958SOL    HW219598   0.094   3.738   5.593 -0.6205 -0.4387  0.3414
 4958SOL    HW319599   0.084   3.831   5.712 -0.6372 -1.4039  1.1077
 4958SOL    MW419600   0.047   3.789   5.645 -0.4497  0.0501  0.0295
 4959SOL     OW19601   2.196   3.579   3.428  0.2958 -0.1431 -0.1513
 4959SOL    HW219602   2.176   3.655   3.483  1.2466 -0.1318  0.1829
 4959SOL    HW319603   2.291   3.573   3.429  0.2419 -1.1178 -0.4880
 4959SOL    MW419604   2.206   3.588   3.435  0.4141 -0.2702 -0.1516
 4960SOL     OW19605   0.196   2.802   4.477 -0.5686  0.5070 -0.1015
 4960SOL    HW219606   0.199   2.709   4.454  1.3134  0.6351 -0.5385
 4960SOL    HW319607   0.270   2.840   4.430  0.1914  1.7792  2.0261
 4960SOL    MW419608   0.206   2.794   4.468 -0.2200  0.6918  0.1215
 4961SOL     OW19609   4.463   4.001   6.301  0.4063 -0.3456  0.4602
 4961SOL    HW219610   4.551   3.969   6.283  0.1516 -1.5745  1.3135
 4961SOL    HW319611   4.411   3.923   6.318 -0.5978  0.4247  1.0856
 4961SOL    MW419612   4.467   3.987   6.300  0.2403 -0.4061  0.6553
 4962SOL     OW19613   5.671   4.746   1.350  0.0686  0.0003  0.6921
 4962SOL    HW219614   5.736   4.735   1.280 -0.1390 -0.3142  0.5431
 4962SOL    HW319615   5.591   4.771   1.304  0.5911  2.6226  1.0397
 4962SOL    MW419616   5.669   4.748   1.335  0.1102  0.3048  0.7183
 4963SOL     OW19617   5.066   5.509   3.132  0.0711 -0.1161 -0.4114
 4963SOL    HW219618   5.106   5.492   3.217 -0.7735  0.2042  0.0624
 4963SOL    HW319619   5.087   5.432   3.080 -0.7101 -1.0372  0.5794
 4963SOL    MW419620   5.074   5.497   3.137 -0.1434 -0.1953 -0.2182
 4964SOL     OW19621   3.292   6.291   2.130  0.1775 -0.1547 -0.4474
 4964SOL    HW219622   3.348   6.292   2.053  0.2159  0.0255 -0.4182
 4964SOL    HW319623   3.271   6.199   2.144  0.1489 -0.1827 -0.6890
 4964SOL    MW419624   3.297   6.279   2.122  0.1788 -0.1346 -0.4754
 4965SOL     OW19625   5.243   4.602   4.581 -0.4325 -0.8951 -0.0680
 4965SOL    HW219626   5.211   4.644   4.501 -1.2201  0.5186  0.9492
 4965SOL    HW319627   5.164   4.587   4.633  0.2260 -0.2867  1.1444
 4965SOL    MW419628   5.228   4.606   4.577 -0.4496 -0.6283  0.2262
 4966SOL     OW19629   0.911   5.567   0.422 -0.1453 -0.5018 -0.0183
 4966SOL    HW219630   0.887   5.655   0.450  0.1570  0.3450 -2.2329
 4966SOL    HW319631   0.919   5.573   0.327 -0.6436 -3.0692 -0.2981
 4966SOL    MW419632   0.909   5.579   0.413 -0.1712 -0.7288 -0.3474
 4967SOL     OW19633   1.777   2.312   3.431  0.6114  0.2577 -0.5645
 4967SOL    HW219634   1.772   2.243   3.497 -3.0747  1.0564  0.2364
 4967SOL    HW319635   1.839   2.375   3.467 -1.4333  0.7812  2.4277
 4967SOL    MW419636   1.784   2.311   3.445 -0.1447  0.4321 -0.0640
 4968SOL     OW19637   3.897   5.923   0.692  0.5050  0.7019  0.2747
 4968SOL    HW219638   3.987   5.944   0.670  0.5952 -1.2360 -1.4999
 4968SOL    HW319639   3.857   5.895   0.610 -0.9924 -0.8911  1.4592
 4968SOL    MW419640   3.903   5.922   0.678  0.3193  0.2360  0.1968
 4969SOL     OW19641   2.782   3.459   6.461  0.5923  0.7624  0.0585
 4969SOL    HW219642   2.803   3.458   6.368  0.5369  2.1345  0.0040
 4969SOL    HW319643   2.808   3.547   6.490  0.8807  0.2597  1.3966
 4969SOL    MW419644   2.788   3.471   6.453  0.6230  0.8771  0.2279
 4970SOL     OW19645   0.222   3.143   2.538  0.0209  0.0625  0.1545
 4970SOL    HW219646   0.206   3.084   2.612 -0.8191  0.7124  0.5137
 4970SOL    HW319647   0.239   3.228   2.579 -1.8122  0.7462 -0.4091
 4970SOL    MW419648   0.222   3.147   2.553 -0.3318  0.2384  0.1276
 4971SOL     OW19649   5.040   0.751   3.761  0.1110 -0.1004  0.4219
 4971SOL    HW219650   5.100   0.825   3.757  0.0160 -0.0747 -0.7812
 4971SOL    HW319651   4.954   0.789   3.742  0.2175 -0.6732 -1.3488
 4971SOL    MW419652   5.037   0.766   3.758  0.1125 -0.1725  0.0295
 4972SOL     OW19653   0.478   4.368   1.850 -0.8008 -0.5473 -0.0147
 4972SOL    HW219654   0.419   4.301   1.818 -0.5473 -0.5281 -0.5220
 4972SOL    HW319655   0.440   4.396   1.933 -0.2303 -2.2079  0.8450
 4972SOL    MW419656   0.465   4.363   1.857 -0.6921 -0.7639  0.0318
 4973SOL     OW19657   6.201   5.843   1.383  0.4052 -0.0655  0.2185
 4973SOL    HW219658   6.256   5.772   1.351 -0.6846 -0.6138 -0.4691
 4973SOL    HW319659   6.135   5.801   1.437 -0.8921  0.2653 -1.0449
 4973SOL    MW419660   6.200   5.828   1.386  0.0902 -0.0942 -0.0389
 4974SOL     OW19661   3.328   1.903   3.844  0.7595  0.9089  0.6818
 4974SOL    HW219662   3.379   1.822   3.841  0.1277  0.5158  0.0510
 4974SOL    HW319663   3.334   1.933   3.934  0.1970 -0.3804  1.1650
 4974SOL    MW419664   3.335   1.896   3.855  0.6019  0.6869  0.6624
 4975SOL     OW19665   0.905   6.216   6.271 -0.3040 -0.5271  0.0186
 4975SOL    HW219666   0.940   6.304   6.259  0.2422 -0.3837  2.1509
 4975SOL    HW319667   0.810   6.228   6.263 -0.3778  0.6401  1.9227
 4975SOL    MW419668   0.897   6.229   6.269 -0.2417 -0.3542  0.5512
 4976SOL     OW19669   5.418   2.558   1.684 -0.5629 -0.7997  0.6522
 4976SOL    HW219670   5.394   2.648   1.661  0.2808 -0.7839 -0.2005
 4976SOL    HW319671   5.434   2.562   1.779  1.4904  0.4561  0.3212
 4976SOL    MW419672   5.417   2.570   1.694 -0.1807 -0.6319  0.4960
 4977SOL     OW19673   1.465   4.439   3.984  0.1871  0.4952  0.0156
 4977SOL    HW219674   1.512   4.357   3.998  0.8060  0.6736 -0.9507
 4977SOL    HW319675   1.450   4.473   4.072  1.0852 -0.0076  0.3757
 4977SOL    MW419676   1.469   4.432   3.997  0.3872  0.4524 -0.0644
 4978SOL     OW19677   6.288   0.747   5.844  0.0383 -0.2137  0.1380
 4978SOL    HW219678   6.248   0.666   5.877 -1.1049  0.7913  1.3050
 4978SOL    HW319679   6.250   0.817   5.897  1.0877  1.1057 -0.7631
 4978SOL    MW419680   6.278   0.745   5.856  0.0259  0.0930  0.1731
 4979SOL     OW19681   4.333   0.164   3.178 -0.3313 -0.0396 -0.0232
 4979SOL    HW219682   4.277   0.220   3.125  0.2687  0.0781 -0.5450
 4979SOL    HW319683   4.272   0.107   3.226 -0.8709 -1.4803 -2.2747
 4979SOL    MW419684   4.318   0.164   3.177 -0.3233 -0.2142 -0.3891
 4980SOL     OW19685   4.940   1.858   2.026  0.2466  0.4418  0.2350
 4980SOL    HW219686   4.892   1.907   1.959  0.2255 -0.8949 -0.7610
 4980SOL    HW319687   5.017   1.912   2.045 -0.7235  1.7627  0.5673
 4980SOL    MW419688   4.944   1.872   2.020  0.1158  0.4397  0.1474
 4981SOL     OW19689   0.980   3.606   0.118 -0.4414  0.0214 -0.9236
 4981SOL    HW219690   0.975   3.696   0.085 -1.6644  0.9407  1.5437
 4981SOL    HW319691   1.072   3.582   0.106  1.1189  3.3347  2.3058
 4981SOL    MW419692   0.992   3.615   0.112 -0.3969  0.5798 -0.1720
 4982SOL     OW19693   1.215   0.541   3.498 -0.0674  0.2169 -0.3470
 4982SOL    HW219694   1.151   0.504   3.560  0.1557  2.4255  1.3058
 4982SOL    HW319695   1.293   0.557   3.551  0.5251  1.1532 -1.4731
 4982SOL    MW419696   1.217   0.538   3.513  0.0402  0.6318 -0.2775
 4983SOL     OW19697   6.375   0.999   1.833 -0.3849 -0.2773 -0.2069
 4983SOL    HW219698   6.376   1.091   1.859 -0.0215 -0.4385  0.3587
 4983SOL    HW319699   6.437   0.957   1.892 -0.3117 -0.8313 -0.6716
 4983SOL    MW419700   6.383   1.006   1.844 -0.3273 -0.3717 -0.1936
 4984SOL     OW19701   0.254   5.680   6.131  0.1808  0.0102 -0.5319
 4984SOL    HW219702   0.290   5.756   6.177 -0.8531  0.8462 -1.0719
 4984SOL    HW319703   0.329   5.621   6.121  0.9869  0.9147 -0.0412
 4984SOL    MW419704   0.268   5.682   6.136  0.1508  0.2399 -0.5384
 4985SOL     OW19705   3.378   1.441   1.648 -0.0880  0.0492  0.3147
 4985SOL    HW219706   3.415   1.354   1.631  1.7841  0.9227 -0.3237
 4985SOL    HW319707   3.441   1.482   1.707 -0.4478  1.3157 -0.1630
 4985SOL    MW419708   3.391   1.435   1.654  0.1116  0.3316  0.1674
 4986SOL     OW19709   1.024   1.129   0.063 -0.5541  0.4277  0.3457
 4986SOL    HW219710   1.064   1.056   0.111  2.0545  1.2418 -0.4266
 4986SOL    HW319711   1.042   1.110  -0.029 -2.4817  0.6177 -0.1248
 4986SOL    MW419712   1.031   1.117   0.057 -0.4643  0.5602  0.1817
 4987SOL     OW19713   3.427   0.419   2.387  0.1540  0.1191  0.1771
 4987SOL    HW219714   3.348   0.366   2.375 -1.1242  1.6981  1.0862
 4987SOL    HW319715   3.400   0.487   2.449  1.6605  1.8634 -0.9795
 4987SOL    MW419716   3.413   0.421   2.393  0.1841  0.5576  0.1445
 4988SOL     OW19717   1.608   0.163   2.575  0.5908  0.1551  0.3995
 4988SOL    HW219718   1.548   0.192   2.507 -0.2411 -0.4916  0.8397
 4988SOL    HW319719   1.555   0.106   2.631  1.5354 -0.1761  0.9781
 4988SOL    MW419720   1.593   0.160   2.574  0.6056  0.0260  0.5339
 4989SOL     OW19721   3.063   5.102   0.395  0.4376 -0.5224  0.1027
 4989SOL    HW219722   3.031   5.014   0.411 -3.8845  0.8481  0.1103
 4989SOL    HW319723   3.036   5.122   0.305  0.0202  1.2541  0.5793
 4989SOL    MW419724   3.055   5.093   0.385 -0.1877 -0.1072  0.1666
 4990SOL     OW19725   3.605   2.670   4.519 -0.1470 -0.2978 -0.1461
 4990SOL    HW219726   3.676   2.733   4.504 -1.1009  1.5079  2.2847
 4990SOL    HW319727   3.532   2.704   4.468 -0.3463  0.0175  0.3358
 4990SOL    MW419728   3.605   2.683   4.510 -0.2991 -0.0180  0.2382
 4991SOL     OW19729   4.877   3.514   2.809  0.4787 -0.7013  0.2470
 4991SOL    HW219730   4.804   3.539   2.866  0.6851 -1.2060  0.7483
 4991SOL    HW319731   4.842   3.519   2.720  0.5603  1.5001  0.2957
 4991SOL    MW419732   4.863   3.518   2.805  0.5167 -0.4774  0.3196
 4992SOL     OW19733   0.357   1.830   5.467 -0.5569  0.3848  0.2307
 4992SOL    HW219734   0.448   1.813   5.489 -0.4096  1.1534  0.2621
 4992SOL    HW319735   0.318   1.865   5.547 -1.1123 -0.7388  0.4704
 4992SOL    MW419736   0.364   1.832   5.480 -0.6108  0.3379  0.2665
 4993SOL     OW19737   1.816   2.063   3.578 -0.0008  0.0317  0.9400
 4993SOL    HW219738   1.771   2.024   3.503  1.7952 -0.9005  0.2881
 4993SOL    HW319739   1.769   2.029   3.654  0.4850 -2.1113  0.3320
 4993SOL    MW419740   1.804   2.053   3.578  0.3003 -0.3740  0.7738
 4994SOL     OW19741   2.329   3.177   2.237  0.4836 -0.4681  0.0728
 4994SOL    HW219742   2.279   3.164   2.156  0.9817 -1.4777 -0.0868
 4994SOL    HW319743   2.272   3.144   2.306  0.6488 -0.9848 -0.0346
 4994SOL    MW419744   2.315   3.171   2.235  0.5711 -0.6694  0.0376
 4995SOL     OW19745   5.788   3.419   0.878  0.2555  0.1368 -0.2446
 4995SOL    HW219746   5.779   3.406   0.783  1.2905  1.8111 -0.6129
 4995SOL    HW319747   5.882   3.434   0.891 -0.2301  3.4092  0.4835
 4995SOL    MW419748   5.799   3.420   0.867  0.3280  0.7895 -0.1971
 4996SOL     OW19749  -0.001   4.760   5.981  0.0532  0.0526 -0.6315
 4996SOL    HW219750  -0.048   4.761   6.064  1.2072 -2.0829  0.1371
 4996SOL    HW319751   0.052   4.840   5.983  0.5326 -0.2665  0.9930
 4996SOL    MW419752  -0.000   4.771   5.992  0.2687 -0.2713 -0.3158
 4997SOL     OW19753   1.768   2.426   4.843  0.3331 -0.1890 -0.3353
 4997SOL    HW219754   1.677   2.452   4.852 -0.0190 -1.0818 -1.0771
 4997SOL    HW319755   1.806   2.490   4.782 -0.1630 -0.5803 -1.0728
 4997SOL    MW419756   1.761   2.438   4.836  0.2212 -0.3584 -0.5304
 4998SOL     OW19757   1.526   3.207   2.453 -0.4205 -0.0347  0.0471
 4998SOL    HW219758   1.557   3.137   2.510 -0.7209 -0.5008 -0.3515
 4998SOL    HW319759   1.603   3.262   2.438 -0.3755  0.1787  1.0098
 4998SOL    MW419760   1.541   3.205   2.459 -0.4542 -0.0680  0.1215
 4999SOL     OW19761   0.454   3.507   6.329  0.7986 -0.7394 -0.2071
 4999SOL    HW219762   0.528   3.546   6.282  0.1475 -0.1565 -0.7583
 4999SOL    HW319763   0.434   3.570   6.398 -0.1520 -0.1442 -1.0000
 4999SOL    MW419764   0.461   3.520   6.332  0.5873 -0.5839 -0.3844
 5000SOL     OW19765   4.384   4.427   4.339  0.3286 -0.5075  0.0415
 5000SOL    HW219766   4.453   4.414   4.404  1.3028 -2.0103 -1.2105
 5000SOL    HW319767   4.408   4.507   4.294  0.9360 -0.7004  0.0152
 5000SOL    MW419768   4.396   4.436   4.342  0.5372 -0.7312 -0.1271
 5001SOL     OW19769   3.811   1.167   4.261  0.0361 -0.8103 -0.2027
 5001SOL    HW219770   3.829   1.255   4.228  1.1006 -0.9896 -0.1220
 5001SOL    HW319771   3.782   1.119   4.183 -0.0549 -0.5269 -0.3469
 5001SOL    MW419772   3.809   1.172   4.246  0.1645 -0.7966 -0.2111
 5002SOL     OW19773   2.717   1.510   5.974 -0.5326 -0.5391  0.2238
 5002SOL    HW219774   2.724   1.418   5.949 -0.6318 -0.6093  0.4555
 5002SOL    HW319775   2.807   1.538   5.991 -0.5707 -0.7826  0.8362
 5002SOL    MW419776   2.729   1.501   5.973 -0.5507 -0.5805  0.3351
 5003SOL     OW19777   0.775   1.026   5.439  0.1997 -0.0954 -0.3283
 5003SOL    HW219778   0.724   1.106   5.450 -0.4453 -0.5095 -0.2765
 5003SOL    HW319779   0.726   0.959   5.486  0.1302 -0.7682 -1.3258
 5003SOL    MW419780   0.762   1.028   5.447  0.1055 -0.2388 -0.4531
 5004SOL     OW19781   6.262   1.947   4.140  0.2860 -0.1562 -0.0115
 5004SOL    HW219782   6.174   1.955   4.105  1.0194  0.9878 -1.7027
 5004SOL    HW319783   6.250   1.948   4.235 -1.4498  0.9041 -0.2044
 5004SOL    MW419784   6.249   1.948   4.148  0.1538  0.1346 -0.2601
 5005SOL     OW19785   4.484   2.726   0.990 -0.0712  0.2704 -0.5417
 5005SOL    HW219786   4.394   2.706   1.014  0.3167  1.0793  1.9590
 5005SOL    HW319787   4.481   2.816   0.958 -0.1204  0.4310 -0.0957
 5005SOL    MW419788   4.472   2.735   0.989 -0.0265  0.3983 -0.1529
 5006SOL     OW19789   3.876   0.958   1.814 -0.0630 -0.3987 -0.1283
 5006SOL    HW219790   3.852   0.902   1.888  1.8733 -0.6395  0.3763
 5006SOL    HW319791   3.792   0.981   1.773 -1.1670 -0.5476  1.9096
 5006SOL    MW419792   3.862   0.953   1.818  0.0468 -0.4501  0.2071
 5007SOL     OW19793   0.149   5.354   5.876 -0.5074 -0.2741 -0.0747
 5007SOL    HW219794   0.125   5.440   5.841  1.4785  0.5508  0.4397
 5007SOL    HW319795   0.144   5.365   5.971 -0.7665 -0.8927 -0.0167
 5007SOL    MW419796   0.145   5.367   5.884 -0.2795 -0.2468  0.0009
 5008SOL     OW19797   1.784   5.139   1.714  0.1465  0.0436 -0.0380
 5008SOL    HW219798   1.781   5.047   1.686 -1.3268  0.5964 -1.8758
 5008SOL    HW319799   1.874   5.152   1.745  0.9042 -1.5489 -1.4327
 5008SOL    MW419800   1.796   5.128   1.715  0.0521 -0.0936 -0.4645
 5009SOL     OW19801   2.053   0.470   0.358  0.1392  0.3416 -0.3347
 5009SOL    HW219802   2.102   0.552   0.347 -0.1801  0.6278  0.3058
 5009SOL    HW319803   1.967   0.489   0.321  0.3200  0.0285 -0.9235
 5009SOL    MW419804   2.048   0.483   0.352  0.1209  0.3380 -0.3279
 5010SOL     OW19805   1.710   5.349   2.529  0.6407  0.0192  0.3803
 5010SOL    HW219806   1.743   5.437   2.545 -1.0736  0.7471  0.1984
 5010SOL    HW319807   1.621   5.363   2.496  0.0879 -1.7969  0.9931
 5010SOL    MW419808   1.702   5.363   2.527  0.3416 -0.1244  0.4371
 5011SOL     OW19809   1.673   1.317   2.279 -0.1635 -0.1589 -0.0940
 5011SOL    HW219810   1.681   1.387   2.344 -2.2668 -0.2248  0.3070
 5011SOL    HW319811   1.666   1.364   2.195 -2.2799  0.2214  0.2386
 5011SOL    MW419812   1.673   1.333   2.276 -0.7203 -0.1174  0.0028
 5012SOL     OW19813   2.731   5.069   3.970  0.2018 -0.2436  0.1946
 5012SOL    HW219814   2.795   5.021   3.918 -0.9427 -0.3768 -1.1638
 5012SOL    HW319815   2.657   5.008   3.979 -0.7919  0.8049 -0.5386
 5012SOL    MW419816   2.730   5.054   3.964 -0.0803 -0.1229 -0.0814
 5013SOL     OW19817   0.984   2.109   0.534  0.2996  0.1866 -0.1315
 5013SOL    HW219818   0.966   2.124   0.441  0.1521  1.8041  0.1231
 5013SOL    HW319819   1.042   2.033   0.536 -0.0977 -0.1800 -1.5007
 5013SOL    MW419820   0.989   2.101   0.522  0.2278  0.3516 -0.2785
 5014SOL     OW19821   5.562   3.098   0.935  0.0888 -0.3823  0.0643
 5014SOL    HW219822   5.651   3.092   0.901  1.1312  1.3448  2.1921
 5014SOL    HW319823   5.508   3.052   0.871  2.6584 -2.7223 -0.6210
 5014SOL    MW419824   5.567   3.091   0.922  0.5654 -0.4632  0.2547
 5015SOL     OW19825   2.808   2.861   0.333  0.2356 -0.1051  0.4009
 5015SOL    HW219826   2.829   2.950   0.362 -0.2009 -0.1073  0.7396
 5015SOL    HW319827   2.878   2.807   0.371  1.5500  0.3046 -1.3146
 5015SOL    MW419828   2.820   2.866   0.342  0.3514 -0.0513  0.2192
 5016SOL     OW19829   2.581   4.366   3.500  0.2438 -0.4876  0.4403
 5016SOL    HW219830   2.535   4.392   3.580  0.1676 -1.1437  0.6132
 5016SOL    HW319831   2.532   4.407   3.429 -0.4841 -1.0051  0.6339
 5016SOL    MW419832   2.569   4.375   3.501  0.1377 -0.6424  0.4886
 5017SOL     OW19833   0.336   1.501   5.750  0.3796  0.5418 -0.2058
 5017SOL    HW219834   0.402   1.460   5.694  1.0588  0.6268  0.5154
 5017SOL    HW319835   0.310   1.431   5.810  0.4210  0.7375  0.0406
 5017SOL    MW419836   0.341   1.486   5.750  0.4747  0.5788 -0.0781
 5018SOL     OW19837   0.820   6.016   1.784  0.9754  0.1072  0.6019
 5018SOL    HW219838   0.834   6.077   1.712  1.3664  0.0939  0.6615
 5018SOL    HW319839   0.800   6.072   1.859 -1.7821  0.0389  0.0017
 5018SOL    MW419840   0.820   6.032   1.784  0.6632  0.0964  0.5306
 5019SOL     OW19841   1.307   5.555   3.845 -0.0488  0.9715  0.6316
 5019SOL    HW219842   1.321   5.519   3.758 -3.1078  1.4118 -0.1842
 5019SOL    HW319843   1.307   5.480   3.904 -0.7201  0.3206 -0.1888
 5019SOL    MW419844   1.308   5.541   3.842 -0.5410  0.9437  0.4157
 5020SOL     OW19845   6.368   4.498   1.241  0.6572 -0.6378 -0.0527
 5020SOL    HW219846   6.293   4.520   1.185 -0.1257 -1.5365  0.6168
 5020SOL    HW319847   6.394   4.581   1.280 -0.2100 -0.3594 -0.0409
 5020SOL    MW419848   6.361   4.512   1.239  0.4395 -0.7196  0.0372
 5021SOL     OW19849   5.115   2.193   4.127  0.3860  0.3315  0.2072
 5021SOL    HW219850   5.134   2.178   4.220  2.2184 -0.9940 -0.3493
 5021SOL    HW319851   5.178   2.260   4.100  0.8908 -0.4004 -0.4474
 5021SOL    MW419852   5.126   2.200   4.136  0.6944  0.0601  0.0474
 5022SOL     OW19853   1.764   1.081   3.394 -0.1812 -0.5929  0.0384
 5022SOL    HW219854   1.792   1.146   3.459  0.1561  0.0813 -0.7591
 5022SOL    HW319855   1.728   1.009   3.446 -2.1584  0.9397  0.9340
 5022SOL    MW419856   1.763   1.080   3.409 -0.3976 -0.3018  0.0514
 5023SOL     OW19857   6.317   1.756   5.020 -0.3435 -0.5158 -0.1673
 5023SOL    HW219858   6.234   1.791   5.052 -0.8243  0.1523 -2.0452
 5023SOL    HW319859   6.293   1.676   4.974  0.2953 -1.2966  0.8251
 5023SOL    MW419860   6.303   1.750   5.018 -0.3226 -0.5306 -0.2842
 5024SOL     OW19861   2.144   2.302   2.818  0.0029  0.3781  0.5068
 5024SOL    HW219862   2.083   2.229   2.807  0.1113  0.3863 -0.1699
 5024SOL    HW319863   2.225   2.261   2.847 -0.1888  0.3254  0.9875
 5024SOL    MW419864   2.147   2.287   2.820 -0.0081  0.3723  0.4809
 5025SOL     OW19865   2.900   5.862   0.918 -0.2053  0.0206 -0.1909
 5025SOL    HW219866   2.806   5.856   0.931 -0.1750 -0.4456 -0.1614
 5025SOL    HW319867   2.927   5.773   0.895  0.1543  0.2546 -0.6988
 5025SOL    MW419868   2.891   5.850   0.917 -0.1539 -0.0100 -0.2540
 5026SOL     OW19869   3.428   4.828   2.410  0.3270  0.2264 -0.7575
 5026SOL    HW219870   3.368   4.783   2.469 -0.1536  0.9940 -0.6451
 5026SOL    HW319871   3.412   4.788   2.324 -0.1649  0.2506 -0.6788
 5026SOL    MW419872   3.418   4.817   2.406  0.1987  0.3309 -0.7323
 5027SOL     OW19873   3.524   5.816   5.883 -0.2250 -0.3789  0.4854
 5027SOL    HW219874   3.495   5.902   5.915 -0.6773 -1.8453  4.6539
 5027SOL    HW319875   3.618   5.814   5.901 -0.4747 -1.2168  1.8438
 5027SOL    MW419876   3.533   5.827   5.890 -0.3176 -0.6829  1.2146
 5028SOL     OW19877   4.709   4.574   5.939 -0.1279 -0.5612 -0.2443
 5028SOL    HW219878   4.646   4.645   5.936  0.2340 -0.2611 -1.3121
 5028SOL    HW319879   4.794   4.616   5.923  0.0012 -1.3138 -1.6847
 5028SOL    MW419880   4.712   4.589   5.936 -0.0631 -0.6209 -0.5752
 5029SOL     OW19881   1.104   3.731   1.432  0.0896  0.2675 -0.2925
 5029SOL    HW219882   1.142   3.646   1.409  0.8361  0.6544 -0.5123
 5029SOL    HW319883   1.040   3.747   1.363  0.0817 -0.0314 -0.3559
 5029SOL    MW419884   1.101   3.722   1.420  0.1870  0.2791 -0.3298
 5030SOL     OW19885   3.804   4.117   4.081  0.2818  0.1088  0.2911
 5030SOL    HW219886   3.786   4.039   4.133  1.6458 -0.7565 -0.4575
 5030SOL    HW319887   3.876   4.091   4.023  0.2489  1.6890 -0.5252
 5030SOL    MW419888   3.811   4.103   4.080  0.4574  0.2031  0.0847
 5031SOL     OW19889   0.217   6.475   4.796  0.6122  0.4634 -0.4150
 5031SOL    HW219890   0.215   6.413   4.723 -0.7723  0.7664 -0.6657
 5031SOL    HW319891   0.201   6.422   4.873 -1.3030  0.5443 -0.6989
 5031SOL    MW419892   0.215   6.460   4.796  0.1768  0.5140 -0.4856
 5032SOL     OW19893   4.357   5.841   0.867  0.3951  0.3747 -0.0609
 5032SOL    HW219894   4.292   5.785   0.825  0.4534  1.7511 -2.1223
 5032SOL    HW319895   4.330   5.930   0.844  0.8995  1.1941  2.2205
 5032SOL    MW419896   4.345   5.846   0.858  0.4694  0.6644 -0.0319
 5033SOL     OW19897   2.820   4.796   0.694 -0.3952 -0.1851  1.2984
 5033SOL    HW219898   2.834   4.891   0.693  1.7848 -0.4301  2.0072
 5033SOL    HW319899   2.896   4.762   0.741  0.2157 -2.4926 -1.1635
 5033SOL    MW419900   2.832   4.804   0.700 -0.0270 -0.5219  1.0671
 5034SOL     OW19901   1.089   0.551   2.415 -0.2156 -0.5050 -0.4387
 5034SOL    HW219902   1.173   0.587   2.387 -0.0589  2.3237  3.0128
 5034SOL    HW319903   1.030   0.568   2.342  0.5134  4.8101 -0.1517
 5034SOL    MW419904   1.093   0.558   2.402 -0.0987  0.5695  0.0545
 5035SOL     OW19905   6.408   4.217   1.152  0.6252  0.3811  0.2180
 5035SOL    HW219906   6.376   4.252   1.235  1.8863  3.0986 -0.3424
 5035SOL    HW319907   6.443   4.131   1.175 -0.5054  0.3810  2.1674
 5035SOL    MW419908   6.409   4.210   1.166  0.6425  0.7397  0.4012
 5036SOL     OW19909   1.543   6.473   4.556  0.4842  0.1172  0.2937
 5036SOL    HW219910   1.482   6.446   4.625  0.1705  1.1279  0.4219
 5036SOL    HW319911   1.599   6.396   4.542 -0.2331 -0.5113  0.8128
 5036SOL    MW419912   1.542   6.459   4.563  0.3482  0.1676  0.3791
 5037SOL     OW19913   5.169   1.028   2.026  0.2087 -0.0756  0.2646
 5037SOL    HW219914   5.216   1.067   2.100  3.1838  1.4626 -2.1929
 5037SOL    HW319915   5.214   0.946   2.009 -0.1957 -0.2298 -0.0904
 5037SOL    MW419916   5.181   1.022   2.033  0.5478  0.1070 -0.1064
 5038SOL     OW19917   4.840   2.253   4.071 -0.0559 -1.2336 -0.1670
 5038SOL    HW219918   4.832   2.186   4.004  0.2710 -1.9833  0.5295
 5038SOL    HW319919   4.930   2.247   4.101  0.2477  0.1468 -0.7262
 5038SOL    MW419920   4.851   2.244   4.067  0.0273 -1.1504 -0.1489
 5039SOL     OW19921   4.027   0.899   2.155  0.4780 -0.2946  0.1113
 5039SOL    HW219922   4.037   0.847   2.234 -1.2213  1.8275  1.8372
 5039SOL    HW319923   4.035   0.836   2.084  0.0312 -2.6408  2.0177
 5039SOL    MW419924   4.029   0.884   2.156  0.1948 -0.3242  0.5905
 5040SOL     OW19925   5.609   3.703   1.265 -0.4126  0.7049  0.1484
 5040SOL    HW219926   5.591   3.695   1.171 -0.6879 -0.5362  0.2945
 5040SOL    HW319927   5.524   3.714   1.305 -0.4352 -0.3383  0.3943
 5040SOL    MW419928   5.596   3.704   1.258 -0.4519  0.4035  0.2001
 5041SOL     OW19929   4.244   5.305   2.153 -0.4186 -0.4138  0.0266
 5041SOL    HW219930   4.277   5.390   2.180 -1.3080 -0.0568  0.0002
 5041SOL    HW319931   4.216   5.317   2.062  0.2662 -0.9691 -0.2711
 5041SOL    MW419932   4.245   5.318   2.145 -0.4456 -0.4400 -0.0162
 5042SOL     OW19933   1.249   3.366   0.367 -0.1869  0.0168  0.1547
 5042SOL    HW219934   1.179   3.376   0.432  0.5114 -2.5772  1.4692
 5042SOL    HW319935   1.322   3.416   0.404 -0.3750  0.1178  0.3968
 5042SOL    MW419936   1.249   3.374   0.381 -0.1196 -0.3121  0.3601
 5043SOL     OW19937   1.797   2.344   6.039  0.1994  0.1186  0.4329
 5043SOL    HW219938   1.804   2.408   6.110 -0.1724  0.1572  0.4344
 5043SOL    HW319939   1.848   2.382   5.967  0.4502  0.1499  0.6261
 5043SOL    MW419940   1.805   2.358   6.039  0.1834  0.1278  0.4586
 5044SOL     OW19941   5.183   1.955   2.109  0.1094  0.3430 -0.0753
 5044SOL    HW219942   5.156   2.034   2.156  2.0829  0.6947  0.5970
 5044SOL    HW319943   5.227   1.988   2.030  0.6758 -0.0705  0.0588
 5044SOL    MW419944   5.185   1.970   2.105  0.4445  0.3349  0.0311
 5045SOL     OW19945   0.226   0.300   4.198 -0.1070 -0.3810  0.0157
 5045SOL    HW219946   0.151   0.340   4.154  0.8755  1.0831 -0.3975
 5045SOL    HW319947   0.190   0.265   4.280 -0.9233  2.1322  0.8339
 5045SOL    MW419948   0.211   0.301   4.203 -0.0851  0.1437  0.0692
 5046SOL     OW19949   1.527   4.808   6.220  0.2346  0.7359  0.2623
 5046SOL    HW219950   1.451   4.862   6.243 -1.0640 -0.5339 -0.8618
 5046SOL    HW319951   1.598   4.871   6.209 -0.6898  1.9867  1.0998
 5046SOL    MW419952   1.526   4.823   6.222 -0.0587  0.7334  0.2245
 5047SOL     OW19953   4.454   3.177   0.087  0.0296  0.3136 -0.1093
 5047SOL    HW219954   4.361   3.168   0.103 -0.2648  1.0522 -1.2947
 5047SOL    HW319955   4.472   3.117   0.014  0.7729 -0.8780  1.0186
 5047SOL    MW419956   4.444   3.168   0.079  0.0888  0.2538 -0.1169
 5048SOL     OW19957   3.371   4.562   0.627  0.2419  0.1761  0.3817
 5048SOL    HW219958   3.296   4.530   0.676  0.1493  1.6280  1.2487
 5048SOL    HW319959   3.399   4.487   0.573 -2.5424 -0.0435 -0.8992
 5048SOL    MW419960   3.365   4.548   0.627 -0.1377  0.3387  0.3271
 5049SOL     OW19961   1.473   3.035   1.285 -0.4502 -0.4897 -0.0331
 5049SOL    HW219962   1.436   2.948   1.304 -0.7245 -0.8944 -2.0887
 5049SOL    HW319963   1.457   3.086   1.364  1.1162 -2.7151  1.8824
 5049SOL    MW419964   1.466   3.030   1.298 -0.2797 -0.8367 -0.0516
 5050SOL     OW19965   1.072   0.463   3.743  0.3630  0.6308  0.3049
 5050SOL    HW219966   0.985   0.498   3.765 -0.4680 -1.6664  0.9025
 5050SOL    HW319967   1.093   0.403   3.815  1.5231 -0.4031 -0.8557
 5050SOL    MW419968   1.063   0.460   3.755  0.4064  0.1913  0.2306
 5051SOL     OW19969   5.162   0.575   3.579  0.0067 -0.0318 -0.7321
 5051SOL    HW219970   5.257   0.581   3.591 -0.0731 -1.9556  1.6994
 5051SOL    HW319971   5.127   0.642   3.638 -0.1648  0.2458 -1.1485
 5051SOL    MW419972   5.170   0.585   3.588 -0.0265 -0.2490 -0.4662
 5052SOL     OW19973   5.999   3.814   1.068 -0.1335 -0.4877 -0.1936
 5052SOL    HW219974   6.051   3.886   1.106 -1.2000  0.9053 -1.2709
 5052SOL    HW319975   5.937   3.858   1.010  0.2070 -2.4057 -2.1078
 5052SOL    MW419976   5.998   3.829   1.065 -0.2293 -0.5570 -0.5883
 5053SOL     OW19977   6.147   5.872   5.732  0.8836  0.0089  0.4450
 5053SOL    HW219978   6.233   5.908   5.713  1.5233 -1.0078  1.3136
 5053SOL    HW319979   6.135   5.802   5.668  1.4334 -0.9283  1.3241
 5053SOL    MW419980   6.157   5.867   5.721  1.0405 -0.2489  0.6756
 5054SOL     OW19981   0.467   3.963   2.432 -0.2733  0.5466  0.3970
 5054SOL    HW219982   0.544   3.965   2.374  1.4521 -1.1094  2.4688
 5054SOL    HW319983   0.490   4.022   2.504 -1.6661  1.2557  0.2957
 5054SOL    MW419984   0.481   3.971   2.434 -0.2294  0.4216  0.6570
 5055SOL     OW19985   3.649   4.817   0.168  0.3875  0.1512 -0.1053
 5055SOL    HW219986   3.714   4.833   0.236 -1.0094 -1.9646  1.8938
 5055SOL    HW319987   3.639   4.722   0.167 -3.4989  0.4080  0.5998
 5055SOL    MW419988   3.656   4.806   0.177 -0.3096 -0.0941  0.2515
 5056SOL     OW19989   2.952   3.371   0.560 -0.1455 -0.3778 -0.6827
 5056SOL    HW219990   3.041   3.384   0.528  0.0338  0.4530  0.1103
 5056SOL    HW319991   2.896   3.404   0.489  0.1959 -0.2681 -0.9022
 5056SOL    MW419992   2.956   3.377   0.547 -0.0768 -0.2537 -0.6070
 5057SOL     OW19993   2.317   1.835   0.954 -0.1324 -0.2509  0.4784
 5057SOL    HW219994   2.318   1.855   0.861 -0.4975 -0.3125  0.4613
 5057SOL    HW319995   2.355   1.913   0.995 -1.1704  0.3356  0.3792
 5057SOL    MW419996   2.322   1.848   0.947 -0.3175 -0.1817  0.4631
 5058SOL     OW19997   4.568   1.545   0.087 -0.6175  0.6539  0.1701
 5058SOL    HW219998   4.500   1.552   0.154  0.2805  0.7171  1.0858
 5058SOL    HW319999   4.639   1.498   0.129 -0.5125 -0.4146 -1.1408
 5058SOL    MW420000   4.568   1.540   0.101 -0.4851  0.5213  0.1179
 5059SOL     OW20001   6.220   5.062   0.342  0.3237  0.5823 -0.3620
 5059SOL    HW220002   6.271   5.140   0.319 -0.7702  1.2061 -0.7067
 5059SOL    HW320003   6.264   5.027   0.419  1.2517  1.1340 -0.6235
 5059SOL    MW420004   6.233   5.068   0.349  0.3018  0.7374 -0.4420
 5060SOL     OW20005   0.129   1.143   3.868  0.5349  0.1645  0.5519
 5060SOL    HW220006   0.061   1.141   3.800  2.2122 -3.1506 -1.3218
 5060SOL    HW320007   0.192   1.208   3.837  1.1562 -1.1300 -1.0851
 5060SOL    MW420008   0.128   1.151   3.855  0.8382 -0.4437  0.0887
 5061SOL     OW20009   4.591   2.571   4.792  0.1228 -0.3168 -0.2700
 5061SOL    HW220010   4.632   2.567   4.706  2.8110  2.1912  0.7274
 5061SOL    HW320011   4.575   2.664   4.807 -2.4402 -0.8828  1.0622
 5061SOL    MW420012   4.594   2.583   4.783  0.1393 -0.0606  0.0373
 5062SOL     OW20013   2.455   2.267   6.154  0.0180 -0.1203  0.0891
 5062SOL    HW220014   2.464   2.246   6.247 -0.5171  1.1041  0.4413
 5062SOL    HW320015   2.490   2.356   6.145  1.1164 -0.6372 -1.1079
 5062SOL    MW420016   2.461   2.276   6.165  0.0923 -0.0269 -0.0224
 5063SOL     OW20017   3.900   4.893   6.416 -0.0048  0.0263  0.0904
 5063SOL    HW220018   3.907   4.799   6.398 -0.3466 -0.2097  1.0900
 5063SOL    HW320019   3.865   4.897   6.505 -0.6790  1.1087 -0.2088
 5063SOL    MW420020   3.896   4.881   6.426 -0.1388  0.1380  0.1828
 5064SOL     OW20021   0.897   1.887   1.210  0.1568 -0.0649 -0.7167
 5064SOL    HW220022   0.900   1.794   1.232  3.1809 -0.1889 -1.2749
 5064SOL    HW320023   0.888   1.931   1.295  0.5642 -0.8016 -0.2786
 5064SOL    MW420024   0.896   1.880   1.224  0.6096 -0.1785 -0.7325
 5065SOL     OW20025   5.352   2.085   1.428 -0.3737  0.1327 -0.7337
 5065SOL    HW220026   5.435   2.112   1.467 -0.5232  2.3350 -1.7637
 5065SOL    HW320027   5.285   2.124   1.484 -0.7068 -0.8898 -0.4076
 5065SOL    MW420028   5.354   2.094   1.440 -0.4374  0.2884 -0.8266
 5066SOL     OW20029   0.339   5.973   5.072  0.6890  0.1439 -0.0613
 5066SOL    HW220030   0.250   5.940   5.056  0.2227  1.9548 -1.7378
 5066SOL    HW320031   0.325   6.063   5.102  1.9466 -0.2581  1.8679
 5066SOL    MW420032   0.325   5.981   5.074  0.7934  0.3298 -0.0279
 5067SOL     OW20033   5.461   2.374   3.053  0.5364 -0.4392 -0.1239
 5067SOL    HW220034   5.376   2.415   3.034 -0.4144 -1.7059  1.0830
 5067SOL    HW320035   5.496   2.348   2.968 -1.2031 -1.5456 -0.5602
 5067SOL    MW420036   5.454   2.376   3.040  0.1814 -0.7523 -0.0222
 5068SOL     OW20037   2.741   1.563   0.573 -0.0088 -0.7894  0.3223
 5068SOL    HW220038   2.699   1.594   0.653 -0.4609  1.0271 -0.5652
 5068SOL    HW320039   2.688   1.488   0.545 -2.3781  1.0248 -0.4085
 5068SOL    MW420040   2.729   1.557   0.580 -0.3810 -0.3103  0.1088
 5069SOL     OW20041   3.585   5.707   1.937 -0.0410 -0.5880  0.0496
 5069SOL    HW220042   3.556   5.652   1.864  0.6981 -0.2466 -0.5129
 5069SOL    HW320043   3.651   5.765   1.899 -0.9018  0.8040  0.6036
 5069SOL    MW420044   3.590   5.707   1.922 -0.0570 -0.3593  0.0485
 5070SOL     OW20045   3.691   5.841   5.620 -0.1624  0.3579  0.2580
 5070SOL    HW220046   3.682   5.764   5.564 -0.2752 -0.5375  1.4817
 5070SOL    HW320047   3.774   5.828   5.665  0.4484  1.5911 -0.4401
 5070SOL    MW420048   3.701   5.829   5.619 -0.0967  0.4024  0.3273
 5071SOL     OW20049   5.259   0.661   0.914  0.5271  0.4472  0.0134
 5071SOL    HW220050   5.226   0.619   0.993  0.4549 -0.5279 -0.5063
 5071SOL    HW320051   5.351   0.635   0.910  0.2059 -0.6374 -0.9013
 5071SOL    MW420052   5.267   0.652   0.924  0.4752  0.1755 -0.1759
 5072SOL     OW20053   0.839   3.648   2.151  0.0811  0.8063 -0.2371
 5072SOL    HW220054   0.770   3.583   2.134  1.5402 -1.0138  0.4442
 5072SOL    HW320055   0.811   3.690   2.233 -0.2532  0.1373  0.0013
 5072SOL    MW420056   0.826   3.645   2.160  0.2295  0.4779 -0.1157
 5073SOL     OW20057   6.104   3.110   5.446 -0.4917 -0.3914 -0.1120
 5073SOL    HW220058   6.040   3.148   5.386  2.0281 -0.4219 -3.0568
 5073SOL    HW320059   6.189   3.122   5.403  1.0507 -4.5696  1.2315
 5073SOL    MW420060   6.107   3.116   5.433  0.0443 -0.9467 -0.3233
 5074SOL     OW20061   5.300   4.963   0.722 -0.1870  0.2514  0.2429
 5074SOL    HW220062   5.366   4.895   0.711 -1.3817 -0.7489 -1.1034
 5074SOL    HW320063   5.295   5.006   0.637 -1.6726 -0.1212  0.1103
 5074SOL    MW420064   5.308   4.959   0.710 -0.5406  0.0703  0.0477
 5075SOL     OW20065   4.321   1.794   6.123 -0.0333  0.1307 -0.0331
 5075SOL    HW220066   4.353   1.722   6.177 -0.9172 -1.3167 -1.3597
 5075SOL    HW320067   4.399   1.827   6.079  0.3067 -0.3972  0.1648
 5075SOL    MW420068   4.336   1.789   6.124 -0.1051 -0.1299 -0.1820
 5076SOL     OW20069   6.155   0.911   4.418  0.1570 -0.2708  0.2370
 5076SOL    HW220070   6.202   0.829   4.402 -0.8965 -1.0367  0.8773
 5076SOL    HW320071   6.210   0.979   4.380  0.5897 -1.3736 -1.1711
 5076SOL    MW420072   6.168   0.909   4.411  0.0751 -0.5174  0.1357
 5077SOL     OW20073   0.452   5.864   5.509 -0.5337 -0.6120 -0.4810
 5077SOL    HW220074   0.397   5.786   5.510 -0.1905 -0.8978 -1.7903
 5077SOL    HW320075   0.478   5.874   5.417  3.0534 -1.5657  0.2476
 5077SOL    MW420076   0.448   5.855   5.497 -0.0151 -0.7755 -0.5576
 5078SOL     OW20077   2.120   2.970   5.055 -0.1999  0.5507 -0.3904
 5078SOL    HW220078   2.051   2.926   5.005 -2.0349  1.4709  1.2228
 5078SOL    HW320079   2.121   2.925   5.139  1.4320  0.3510 -0.4910
 5078SOL    MW420080   2.111   2.958   5.059 -0.2267  0.6458 -0.1909
 5079SOL     OW20081   1.676   6.066   2.087 -0.1052  0.8936  0.0200
 5079SOL    HW220082   1.630   5.989   2.052 -0.0303  0.9273 -0.1514
 5079SOL    HW320083   1.685   6.125   2.013 -1.3363  1.6471  0.4319
 5079SOL    MW420084   1.671   6.063   2.073 -0.2577  0.9975  0.0517
 5080SOL     OW20085   2.376   1.759   5.291 -0.2693  0.6354 -0.0482
 5080SOL    HW220086   2.452   1.780   5.345 -0.7250 -0.1835  0.9539
 5080SOL    HW320087   2.306   1.816   5.325 -0.1152  1.4060 -0.9818
 5080SOL    MW420088   2.377   1.769   5.302 -0.3091  0.6290 -0.0392
 5081SOL     OW20089   1.392   1.937   5.829 -0.3023  0.0402  0.1307
 5081SOL    HW220090   1.449   2.013   5.846  0.6332 -0.9383  1.5920
 5081SOL    HW320091   1.304   1.974   5.823  0.1542  1.2769  0.6475
 5081SOL    MW420092   1.388   1.952   5.831 -0.1187  0.0742  0.3917
 5082SOL     OW20093   5.764   6.284   1.461  0.0039  0.5225  0.4420
 5082SOL    HW220094   5.761   6.236   1.544  0.6143  0.4060  0.4044
 5082SOL    HW320095   5.716   6.228   1.400  1.8676 -0.7433  0.0683
 5082SOL    MW420096   5.757   6.270   1.464  0.3303  0.3401  0.3878
 5083SOL     OW20097   2.130   5.746   2.078 -0.4048 -0.5862  0.1212
 5083SOL    HW220098   2.084   5.819   2.035 -0.0315 -0.4969 -0.1351
 5083SOL    HW320099   2.173   5.700   2.006 -0.1469 -0.7057  0.3497
 5083SOL    MW420100   2.129   5.750   2.063 -0.3216 -0.5901  0.1175
 5084SOL     OW20101   5.334   5.732   3.880  0.0136  0.4223 -0.7411
 5084SOL    HW220102   5.323   5.827   3.887 -0.0174  0.4943 -1.6668
 5084SOL    HW320103   5.376   5.707   3.962 -0.5184  1.1524 -0.2309
 5084SOL    MW420104   5.338   5.741   3.892 -0.0607  0.5281 -0.7959
 5085SOL     OW20105   3.628   0.816   0.446  0.3521 -0.1501  0.0564
 5085SOL    HW220106   3.698   0.759   0.413 -0.2456 -0.7392 -0.2184
 5085SOL    HW320107   3.622   0.794   0.539  1.7710  1.2305  0.5204
 5085SOL    MW420108   3.636   0.805   0.454  0.4604 -0.0456  0.0813
 5086SOL     OW20109   1.875   3.597   3.030 -0.4163 -0.2081 -0.1789
 5086SOL    HW220110   1.780   3.587   3.030 -0.5267  0.6630 -1.1666
 5086SOL    HW320111   1.901   3.577   3.119 -1.5978  0.1870  0.2764
 5086SOL    MW420112   1.866   3.593   3.041 -0.5867 -0.0410 -0.2492
 5087SOL     OW20113   2.826   3.485   4.197 -0.0283 -0.3153  0.4959
 5087SOL    HW220114   2.866   3.426   4.133 -1.1635 -0.9604  0.3585
 5087SOL    HW320115   2.851   3.573   4.168  1.1773 -0.6945  0.3572
 5087SOL    MW420116   2.834   3.489   4.185 -0.0190 -0.4504  0.4595
 5088SOL     OW20117   3.419   1.323   0.640 -0.0387  0.0661 -0.4215
 5088SOL    HW220118   3.380   1.367   0.564  1.4721  1.0105 -0.6877
 5088SOL    HW320119   3.502   1.288   0.608  0.3818  0.0422  0.6600
 5088SOL    MW420120   3.424   1.324   0.626  0.2161  0.1875 -0.3140
 5089SOL     OW20121   4.524   4.104   5.121 -0.5829  0.0391 -0.1358
 5089SOL    HW220122   4.537   4.009   5.129  0.1796  0.1850  0.4071
 5089SOL    HW320123   4.437   4.113   5.081 -2.0960 -0.8214  2.7144
 5089SOL    MW420124   4.514   4.093   5.117 -0.6819 -0.0552  0.3119
 5090SOL     OW20125   4.670   4.386   3.556 -0.1053 -0.1466 -0.1978
 5090SOL    HW220126   4.638   4.404   3.467  0.8304  1.9865 -0.1621
 5090SOL    HW320127   4.762   4.364   3.544 -0.2239 -0.8597  0.1693
 5090SOL    MW420128   4.678   4.385   3.543  0.0025  0.0407 -0.1446
 5091SOL     OW20129   1.375   2.496   4.051  0.2118 -0.3092 -0.3405
 5091SOL    HW220130   1.284   2.480   4.076  0.3493 -0.7969 -0.1394
 5091SOL    HW320131   1.426   2.467   4.127  0.6509 -2.0035 -1.2244
 5091SOL    MW420132   1.370   2.490   4.065  0.2879 -0.5971 -0.4306
 5092SOL     OW20133   5.753   2.801   1.657 -0.4837  0.3921  0.2722
 5092SOL    HW220134   5.770   2.817   1.565  0.8860  2.6924  0.8517
 5092SOL    HW320135   5.658   2.810   1.666 -0.5743  0.6046 -0.8348
 5092SOL    MW420136   5.743   2.804   1.646 -0.3149  0.7237  0.2026
 5093SOL     OW20137   4.677   0.570   1.942 -0.1402 -0.3859  0.4507
 5093SOL    HW220138   4.705   0.484   1.912  2.0313  0.5581 -0.3782
 5093SOL    HW320139   4.608   0.595   1.880  0.2487 -0.9043 -0.2102
 5093SOL    MW420140   4.671   0.562   1.930  0.1976 -0.3297  0.2541
 5094SOL     OW20141   6.305   2.617   1.951  0.1325  0.1803  0.0736
 5094SOL    HW220142   6.388   2.650   1.917  0.3933 -0.0533  0.4774
 5094SOL    HW320143   6.318   2.609   2.045  0.3726 -1.8649 -0.0854
 5094SOL    MW420144   6.317   2.620   1.959  0.1986 -0.1203  0.1059
 5095SOL     OW20145   5.144   0.396   3.785  0.0156  0.5641  0.1335
 5095SOL    HW220146   5.062   0.347   3.778 -0.9196  2.2361 -1.9838
 5095SOL    HW320147   5.141   0.457   3.711  2.3699  1.8988  1.0413
 5095SOL    MW420148   5.133   0.398   3.774  0.2029  0.9608 -0.0261
 5096SOL     OW20149   5.143   5.570   5.738  0.0825  0.3196 -0.2600
 5096SOL    HW220150   5.103   5.645   5.783  1.1847 -0.0687  1.4371
 5096SOL    HW320151   5.137   5.498   5.801  0.0746 -0.7335 -1.4314
 5096SOL    MW420152   5.137   5.571   5.752  0.2269  0.1294 -0.1906
 5097SOL     OW20153   2.485   0.370   5.388 -0.0344  0.1484  0.2825
 5097SOL    HW220154   2.391   0.386   5.377  0.3438  1.7413 -0.8191
 5097SOL    HW320155   2.512   0.328   5.307  0.3678  0.4510  0.2576
 5097SOL    MW420156   2.476   0.366   5.376  0.0686  0.3985  0.1339
 5098SOL     OW20157   1.155   1.868   1.232  0.2247  0.4933  0.6679
 5098SOL    HW220158   1.169   1.774   1.224 -0.3774  0.2536  2.2583
 5098SOL    HW320159   1.061   1.880   1.222  0.2368  0.8653  0.9738
 5098SOL    MW420160   1.145   1.857   1.230  0.1468  0.5107  0.9181
 5099SOL     OW20161   4.110   3.525   2.019  0.3091  0.0852  0.4598
 5099SOL    HW220162   4.101   3.429   2.017 -1.1045  0.1962  0.7996
 5099SOL    HW320163   4.142   3.544   2.107 -0.2669 -0.0135  0.6923
 5099SOL    MW420164   4.113   3.515   2.030  0.0466  0.0868  0.5353
 5100SOL     OW20165   6.408   1.909   1.922  0.0752  0.0691 -0.1583
 5100SOL    HW220166   6.493   1.874   1.948  0.3297 -0.1101 -1.1987
 5100SOL    HW320167   6.347   1.876   1.988  0.9831  1.1801  1.2940
 5100SOL    MW420168   6.411   1.900   1.934  0.2286  0.1920 -0.1040
 5101SOL     OW20169   5.529   5.204   0.242  0.5625  0.0217 -0.4024
 5101SOL    HW220170   5.511   5.298   0.236  1.3636  0.1441 -1.0519
 5101SOL    HW320171   5.573   5.183   0.160 -0.5875 -1.1527 -0.7615
 5101SOL    MW420172   5.532   5.214   0.230  0.5165 -0.1171 -0.5355
 5102SOL     OW20173   3.824   0.787   5.886  0.4198  0.1225  0.0347
 5102SOL    HW220174   3.782   0.832   5.813  1.8866 -1.8226 -2.1676
 5102SOL    HW320175   3.906   0.834   5.899  0.8079 -0.3854 -0.5555
 5102SOL    MW420176   3.829   0.799   5.878  0.6645 -0.2012 -0.3338
 5103SOL     OW20177   4.930   3.455   5.603  0.7595  0.4113 -0.2108
 5103SOL    HW220178   4.989   3.525   5.632  0.9714  0.5876 -1.0334
 5103SOL    HW320179   4.843   3.493   5.611  0.7087  0.0146  1.3859
 5103SOL    MW420180   4.927   3.470   5.608  0.7807  0.3822 -0.1086
 5104SOL     OW20181   3.872   1.758   3.146 -0.1912  0.1562 -0.3728
 5104SOL    HW220182   3.819   1.709   3.083 -2.7504  0.9786  0.9811
 5104SOL    HW320183   3.851   1.850   3.128  0.8338  0.5165  0.2007
 5104SOL    MW420184   3.862   1.764   3.136 -0.3936  0.3123 -0.1185
 5105SOL     OW20185   1.903   2.106   6.186  0.2424  0.3094 -0.3541
 5105SOL    HW220186   1.897   2.191   6.142  2.7219  0.9337  0.3241
 5105SOL    HW320187   1.995   2.081   6.176 -0.4564 -2.4031 -0.6408
 5105SOL    MW420188   1.915   2.114   6.179  0.4774  0.0339 -0.3025
 5106SOL     OW20189   4.287   6.112   4.172 -0.6788 -0.7745 -0.0916
 5106SOL    HW220190   4.205   6.063   4.170 -0.8907 -0.4221 -0.9121
 5106SOL    HW320191   4.260   6.204   4.166 -0.2916 -0.5478  1.3999
 5106SOL    MW420192   4.273   6.118   4.171 -0.6557 -0.6981 -0.0031
 5107SOL     OW20193   1.036   3.490   1.826  0.2154  0.3607 -0.9085
 5107SOL    HW220194   1.005   3.481   1.916 -1.0089  1.5510 -1.1859
 5107SOL    HW320195   1.010   3.408   1.783  2.3693 -0.9905  0.2087
 5107SOL    MW420196   1.029   3.478   1.832  0.3381  0.3394 -0.7977
 5108SOL     OW20197   6.399   3.212   1.312 -0.3533  0.0868 -0.4612
 5108SOL    HW220198   6.344   3.238   1.238  0.0706  0.6869 -0.5714
 5108SOL    HW320199   6.448   3.291   1.335  1.9562 -0.8939 -1.6539
 5108SOL    MW420200   6.398   3.226   1.306  0.0074  0.0366 -0.6331
 5109SOL     OW20201   4.160   3.395   0.306  0.9577  0.3931 -0.2769
 5109SOL    HW220202   4.086   3.454   0.325  1.5020  1.4138 -1.2119
 5109SOL    HW320203   4.221   3.410   0.378  1.2144  1.2117 -0.6471
 5109SOL    MW420204   4.158   3.405   0.318  1.0634  0.6357 -0.4491
 5110SOL     OW20205   2.841   4.034   3.256 -0.0328  0.1068  0.2908
 5110SOL    HW220206   2.787   3.957   3.275  2.2388 -1.2782  1.6578
 5110SOL    HW320207   2.832   4.089   3.334 -1.2003  1.0252 -0.4476
 5110SOL    MW420208   2.832   4.031   3.269  0.1128  0.0452  0.3737
 5111SOL     OW20209   4.129   1.706   1.430 -0.2010 -0.2872  0.3653
 5111SOL    HW220210   4.132   1.716   1.525  0.9871 -3.2164  0.7299
 5111SOL    HW320211   4.101   1.615   1.416 -0.4549  0.1033 -2.1105
 5111SOL    MW420212   4.126   1.695   1.441 -0.0778 -0.6221  0.0868
 5112SOL     OW20213   4.319   2.763   2.176 -0.1359 -0.3499  0.3952
 5112SOL    HW220214   4.240   2.759   2.230  0.0995 -0.5593  0.7278
 5112SOL    HW320215   4.294   2.819   2.102 -0.7276 -0.7544  0.2767
 5112SOL    MW420216   4.305   2.770   2.173 -0.1829 -0.4309  0.4235
 5113SOL     OW20217   0.626   2.932   1.380  0.0746  0.0515  0.1986
 5113SOL    HW220218   0.607   2.917   1.287  0.4648 -0.0481  0.1319
 5113SOL    HW320219   0.668   3.018   1.383  0.3038 -0.0611  0.2493
 5113SOL    MW420220   0.629   2.941   1.368  0.1563  0.0235  0.1965
 5114SOL     OW20221   3.722   1.182   3.298 -0.6565 -0.0576  0.0019
 5114SOL    HW220222   3.728   1.087   3.287  1.3571 -0.2116  1.7435
 5114SOL    HW320223   3.787   1.217   3.237 -0.4257  0.1162  0.3493
 5114SOL    MW420224   3.731   1.174   3.288 -0.3603 -0.0550  0.2775
 5115SOL     OW20225   3.036   3.854   1.370  0.3049  0.2294 -0.2129
 5115SOL    HW220226   3.101   3.786   1.384 -0.7026 -1.0102 -1.2477
 5115SOL    HW320227   3.007   3.878   1.458  0.8274 -0.5295  0.1807
 5115SOL    MW420228   3.041   3.848   1.383  0.2409 -0.0343 -0.2975
 5116SOL     OW20229   4.063   5.945   4.725  0.0260  0.2173  0.5760
 5116SOL    HW220230   4.156   5.932   4.706 -0.1089  0.0295  0.0470
 5116SOL    HW320231   4.051   6.040   4.723 -0.1370  0.1820 -1.0019
 5116SOL    MW420232   4.074   5.956   4.722 -0.0133  0.1879  0.2980
 5117SOL     OW20233   6.049   6.311   5.738 -0.3084 -0.2506 -0.1564
 5117SOL    HW220234   6.115   6.328   5.670  0.7746  1.2171  1.1623
 5117SOL    HW320235   6.022   6.221   5.724  0.8654 -0.4029 -1.6994
 5117SOL    MW420236   6.054   6.302   5.727 -0.0106 -0.0770 -0.1860
 5118SOL     OW20237   1.555   3.902   3.374  0.3250 -0.0160 -0.1136
 5118SOL    HW220238   1.554   3.969   3.305 -1.7805 -0.1864 -0.3157
 5118SOL    HW320239   1.579   3.949   3.453  2.1559  0.3062 -0.8109
 5118SOL    MW420240   1.558   3.917   3.375  0.2888  0.0040 -0.2323
 5119SOL     OW20241   3.203   4.094   2.869 -0.2893 -0.0395 -0.3561
 5119SOL    HW220242   3.199   4.188   2.890 -0.9585  0.4432 -2.4610
 5119SOL    HW320243   3.112   4.064   2.876 -0.1463 -0.4287 -0.1444
 5119SOL    MW420244   3.190   4.102   2.873 -0.3588 -0.0272 -0.6059
 5120SOL     OW20245   4.515   1.231   0.317 -0.3652  0.1292 -0.4898
 5120SOL    HW220246   4.456   1.285   0.265 -0.9103 -1.0112 -1.0657
 5120SOL    HW320247   4.553   1.293   0.380 -2.0577  0.9216 -0.1780
 5120SOL    MW420248   4.512   1.246   0.319 -0.6604  0.0833 -0.5246
 5121SOL     OW20249   6.169   2.327   2.967 -0.0326 -0.0033  0.2329
 5121SOL    HW220250   6.199   2.389   3.033  0.4928  0.9288 -0.8482
 5121SOL    HW320251   6.189   2.241   3.004  1.0785  0.5199  0.9069
 5121SOL    MW420252   6.176   2.324   2.980  0.1833  0.1887  0.1792
 5122SOL     OW20253   2.144   5.469   3.602  0.8993 -0.3911 -0.2167
 5122SOL    HW220254   2.101   5.431   3.525  0.5893 -0.1904 -0.1421
 5122SOL    HW320255   2.073   5.508   3.653  1.3940  2.1060 -1.2839
 5122SOL    MW420256   2.129   5.469   3.598  0.9237 -0.0352 -0.3477
 5123SOL     OW20257   1.798   5.339   1.369  0.4171 -0.0992  0.0904
 5123SOL    HW220258   1.740   5.284   1.421  0.5336  0.1561  0.4978
 5123SOL    HW320259   1.759   5.339   1.281 -0.5395  0.5392  0.4869
 5123SOL    MW420260   1.785   5.332   1.364  0.3062  0.0187  0.1964
 5124SOL     OW20261   3.517   3.414   3.408 -0.2394 -0.2357  0.5052
 5124SOL    HW220262   3.494   3.402   3.500 -2.1024 -4.3966 -0.3076
 5124SOL    HW320263   3.437   3.448   3.368  0.8566  2.5491  0.3886
 5124SOL    MW420264   3.503   3.417   3.415 -0.3406 -0.4173  0.3825
 5125SOL     OW20265   5.529   1.222   2.824 -0.2099 -0.9849 -0.0329
 5125SOL    HW220266   5.497   1.222   2.914  0.1408 -0.3643  0.0944
 5125SOL    HW320267   5.599   1.157   2.823 -0.0275 -0.7903  0.2081
 5125SOL    MW420268   5.534   1.214   2.836 -0.1396 -0.8774  0.0157
 5126SOL     OW20269   0.915   2.957   1.590 -0.2423 -0.4021 -0.6024
 5126SOL    HW220270   0.867   2.911   1.659  1.0906 -0.4868  0.3162
 5126SOL    HW320271   0.972   2.890   1.552 -0.3216 -0.1472 -1.1711
 5126SOL    MW420272   0.916   2.942   1.594 -0.0769 -0.3797 -0.5562
 5127SOL     OW20273   2.602   5.877   2.796 -0.1085  0.0733  0.0163
 5127SOL    HW220274   2.666   5.811   2.768 -3.0082 -2.5022 -1.2171
 5127SOL    HW320275   2.646   5.961   2.782  2.7896 -1.4827 -1.1379
 5127SOL    MW420276   2.616   5.879   2.791 -0.1087 -0.4718 -0.2987
 5128SOL     OW20277   0.150   0.692   2.106  0.5727  0.2551  0.3618
 5128SOL    HW220278   0.100   0.619   2.144  0.6655 -0.7901 -1.4195
 5128SOL    HW320279   0.230   0.697   2.159 -0.8812  1.3038  2.6189
 5128SOL    MW420280   0.154   0.683   2.118  0.3931  0.2556  0.4246
 5129SOL     OW20281   3.913   2.633   3.292 -0.1718 -0.2135  0.1858
 5129SOL    HW220282   3.835   2.633   3.346 -0.3537  0.4063 -0.0662
 5129SOL    HW320283   3.949   2.544   3.301 -1.3343 -0.7576 -0.3267
 5129SOL    MW420284   3.908   2.621   3.300 -0.3492 -0.2035  0.0849
 5130SOL     OW20285   4.113   5.395   6.404 -0.3960  0.8629  0.2733
 5130SOL    HW220286   4.086   5.405   6.312  0.4673 -0.6238 -0.1867
 5130SOL    HW320287   4.058   5.324   6.437  0.3065  0.3923  0.4516
 5130SOL    MW420288   4.103   5.387   6.396 -0.1894  0.6047  0.2361
 5131SOL     OW20289   1.173   4.180   5.555  0.1051 -0.2245  0.5369
 5131SOL    HW220290   1.251   4.228   5.583 -0.5777  0.9044  0.5487
 5131SOL    HW320291   1.113   4.186   5.630 -0.0489 -0.9823  0.4857
 5131SOL    MW420292   1.175   4.187   5.569 -0.0053 -0.1755  0.5317
 5132SOL     OW20293   2.243   4.579   1.762 -0.2195  0.1699 -0.3956
 5132SOL    HW220294   2.240   4.485   1.779  1.4096 -0.1755 -1.6819
 5132SOL    HW320295   2.225   4.587   1.669  0.8486  0.9943 -0.5498
 5132SOL    MW420296   2.241   4.567   1.752  0.1363  0.2331 -0.5857
 5133SOL     OW20297   6.017   6.351   2.961  0.1586  0.1683 -0.5066
 5133SOL    HW220298   6.102   6.318   2.932  1.0184  0.3939  1.6221
 5133SOL    HW320299   6.038   6.419   3.024 -1.5956 -0.5243  0.8982
 5133SOL    MW420300   6.031   6.356   2.965  0.0406  0.1067 -0.0404
 5134SOL     OW20301   1.699   3.916   0.543  0.1077 -0.1030 -0.2403
 5134SOL    HW220302   1.620   3.890   0.589  0.6808  0.5372  1.1723
 5134SOL    HW320303   1.702   4.011   0.552  0.4734 -0.0033 -1.2381
 5134SOL    MW420304   1.689   3.925   0.550  0.2316 -0.0054 -0.1856
 5135SOL     OW20305   5.464   0.196   5.691 -0.1558 -0.1031 -0.4119
 5135SOL    HW220306   5.423   0.272   5.732 -1.0687 -1.2081  0.8252
 5135SOL    HW320307   5.501   0.147   5.764 -0.3652 -1.2953 -1.0846
 5135SOL    MW420308   5.464   0.200   5.706 -0.3039 -0.4062 -0.3374
 5136SOL     OW20309   3.398   3.203   6.079 -0.3878  0.1076  0.0727
 5136SOL    HW220310   3.431   3.218   5.990  0.5082  0.0817  0.3929
 5136SOL    HW320311   3.326   3.265   6.088 -0.9138 -0.3367 -0.8970
 5136SOL    MW420312   3.393   3.213   6.069 -0.3390  0.0456 -0.0130
 5137SOL     OW20313   2.963   5.418   1.867 -0.6175  0.1376  0.1138
 5137SOL    HW220314   3.034   5.355   1.879  0.2100  1.2331  1.1361
 5137SOL    HW320315   2.893   5.387   1.924 -0.1256  0.2726  0.7931
 5137SOL    MW420316   2.963   5.405   1.876 -0.4434  0.2999  0.3383
 5138SOL     OW20317   5.912   4.531   4.328  0.0607  0.4408  0.4263
 5138SOL    HW220318   5.937   4.498   4.242 -0.4026 -0.9384  0.8004
 5138SOL    HW320319   5.909   4.454   4.384  0.9908  1.3852  1.8590
 5138SOL    MW420320   5.915   4.517   4.324  0.1223  0.3834  0.6647
 5139SOL     OW20321   4.738   6.296   1.301  0.3376  0.0555  0.0739
 5139SOL    HW220322   4.671   6.257   1.246  1.6887  1.1018 -2.4623
 5139SOL    HW320323   4.730   6.390   1.287  1.1613  0.3088  1.1597
 5139SOL    MW420324   4.728   6.303   1.292  0.6245  0.2270 -0.1174
 5140SOL     OW20325   5.897   3.566   4.903  0.6072 -0.0094  0.2631
 5140SOL    HW220326   5.975   3.519   4.874  1.1973  1.2996 -0.3762
 5140SOL    HW320327   5.901   3.561   4.998  0.8762 -0.8880  0.2148
 5140SOL    MW420328   5.908   3.559   4.912  0.7205  0.0474  0.1723
 5141SOL     OW20329   6.055   1.411   1.865 -0.1359  0.3872 -0.5367
 5141SOL    HW220330   6.057   1.409   1.769  3.2531  0.7524 -0.6014
 5141SOL    HW320331   6.068   1.503   1.888  1.8998 -0.0150  0.1599
 5141SOL    MW420332   6.057   1.423   1.855  0.5798  0.3823 -0.4533
 5142SOL     OW20333   2.494   0.145   2.298  0.3209  0.2781  0.1141
 5142SOL    HW220334   2.431   0.196   2.247 -0.2477 -0.4782  0.0286
 5142SOL    HW320335   2.448   0.128   2.381  0.9174  0.8054  0.5550
 5142SOL    MW420336   2.479   0.149   2.302  0.3246  0.2479  0.1610
 5143SOL     OW20337   1.230   3.701   5.808  0.4853  0.0667 -0.9417
 5143SOL    HW220338   1.229   3.780   5.862 -1.2994 -1.1254  0.9350
 5143SOL    HW320339   1.315   3.661   5.825  0.0218 -0.2156  1.0174
 5143SOL    MW420340   1.241   3.706   5.818  0.1887 -0.1278 -0.4356
 5144SOL     OW20341   2.829   2.683   5.809 -0.1552  0.1623  0.4055
 5144SOL    HW220342   2.906   2.731   5.778  0.9249  0.9485  3.8764
 5144SOL    HW320343   2.838   2.596   5.771  2.8848  0.0116  1.1878
 5144SOL    MW420344   2.841   2.678   5.800  0.3884  0.2461  0.9666
 5145SOL     OW20345   2.925   3.626   3.779 -0.2843  0.5817 -0.4309
 5145SOL    HW220346   2.919   3.543   3.732  0.3259  0.5910 -0.5291
 5145SOL    HW320347   2.982   3.680   3.725 -0.1755  0.8462 -0.0506
 5145SOL    MW420348   2.932   3.622   3.766 -0.1894  0.6178 -0.3937
 5146SOL     OW20349   0.885   1.607   1.838 -0.2479  0.3266  0.4065
 5146SOL    HW220350   0.944   1.682   1.832 -0.4504  0.4392 -0.2959
 5146SOL    HW320351   0.828   1.615   1.761  0.3455 -1.0742 -0.2054
 5146SOL    MW420352   0.885   1.618   1.827 -0.1964  0.1566  0.2331
 5147SOL     OW20353   6.023   2.760   4.682  0.6307  0.0661  0.0621
 5147SOL    HW220354   6.042   2.770   4.589  1.6690  1.1933  0.3678
 5147SOL    HW320355   5.927   2.767   4.687  0.6231  0.9428 -0.8345
 5147SOL    MW420356   6.013   2.762   4.671  0.7667  0.3305 -0.0159
 5148SOL     OW20357   4.575   0.647   2.506 -0.1415 -0.2153 -0.0994
 5148SOL    HW220358   4.549   0.664   2.415  0.8052  1.4454 -0.1132
 5148SOL    HW320359   4.522   0.572   2.533 -0.4955 -0.7072 -1.9935
 5148SOL    MW420360   4.565   0.640   2.497 -0.0633 -0.0611 -0.3511
 5149SOL     OW20361   1.955   2.460   5.845 -0.0566  0.6156 -0.2645
 5149SOL    HW220362   2.020   2.390   5.837  0.1215  0.8830 -1.4338
 5149SOL    HW320363   2.002   2.532   5.888  0.4233  0.7756 -1.0262
 5149SOL    MW420364   1.970   2.461   5.850  0.0302  0.6720 -0.5193
 5150SOL     OW20365   4.086   0.671   1.219  0.4096  0.1893  0.2082
 5150SOL    HW220366   4.167   0.667   1.269  0.9846  1.2516 -0.6153
 5150SOL    HW320367   4.067   0.764   1.210  1.2030  0.1408 -2.8858
 5150SOL    MW420368   4.094   0.683   1.225  0.5902  0.3231 -0.3087
 5151SOL     OW20369   2.464   4.919   2.034  0.0251  0.3617 -0.4059
 5151SOL    HW220370   2.430   4.974   2.104 -1.3688 -1.8759  0.7963
 5151SOL    HW320371   2.462   4.830   2.070  0.1867 -0.7683 -2.9388
 5151SOL    MW420372   2.459   4.914   2.048 -0.1375 -0.0826 -0.5815
 5152SOL     OW20373   0.849   0.513   3.217  0.2832  0.0991  0.0138
 5152SOL    HW220374   0.775   0.572   3.200 -0.7314 -1.1193  0.0458
 5152SOL    HW320375   0.897   0.555   3.289 -2.2996 -0.6618  2.3691
 5152SOL    MW420376   0.846   0.526   3.224 -0.1915 -0.1621  0.3288
 5153SOL     OW20377   0.200   5.986   4.496  0.4579  0.0550  0.1006
 5153SOL    HW220378   0.241   5.959   4.414  1.5713  1.6575  0.0675
 5153SOL    HW320379   0.207   5.910   4.553  0.0665 -0.9406 -1.1380
 5153SOL    MW420380   0.207   5.973   4.492  0.5532  0.1351 -0.0672
 5154SOL     OW20381   4.889   0.732   1.997 -0.3434 -0.4188  0.0595
 5154SOL    HW220382   4.805   0.691   1.974  0.2094 -1.3059 -0.4311
 5154SOL    HW320383   4.955   0.673   1.962  0.5190 -0.3877  1.5385
 5154SOL    MW420384   4.886   0.719   1.989 -0.1567 -0.5317  0.1899
 5155SOL     OW20385   2.905   5.978   3.170 -0.1285 -0.4485 -0.0334
 5155SOL    HW220386   2.856   6.055   3.143 -1.0242 -1.2239 -0.6957
 5155SOL    HW320387   2.941   5.943   3.088  1.5167  0.0652  0.4253
 5155SOL    MW420388   2.903   5.983   3.155 -0.0296 -0.4830 -0.0602
 5156SOL     OW20389   3.396   5.537   5.408  0.1738 -0.2892 -0.1182
 5156SOL    HW220390   3.328   5.474   5.433  0.6287 -0.9176 -0.4261
 5156SOL    HW320391   3.416   5.583   5.490 -1.8317  1.1438 -0.3605
 5156SOL    MW420392   3.390   5.535   5.422 -0.0308 -0.1830 -0.1908
 5157SOL     OW20393   4.566   0.663   2.202  0.7933  0.3696  0.9218
 5157SOL    HW220394   4.607   0.748   2.218  0.6373  0.3096  1.6964
 5157SOL    HW320395   4.597   0.637   2.116 -0.8034  2.1719 -0.2725
 5157SOL    MW420396   4.576   0.671   2.193  0.5620  0.5995  0.8664
 5158SOL     OW20397   5.207   5.846   0.133 -0.3268 -0.3121 -0.0580
 5158SOL    HW220398   5.228   5.930   0.174  2.7153 -0.6413 -0.6806
 5158SOL    HW320399   5.135   5.865   0.074 -0.4224  1.6124  0.6150
 5158SOL    MW420400   5.201   5.859   0.131  0.0619 -0.1016 -0.0513
 5159SOL     OW20401   5.903   1.963   4.979 -0.3045 -0.2070 -0.3689
 5159SOL    HW220402   5.833   1.984   5.040  0.4401  2.0035 -0.1757
 5159SOL    HW320403   5.978   1.941   5.034 -0.4740 -1.3135 -0.5577
 5159SOL    MW420404   5.904   1.963   4.994 -0.2286 -0.0614 -0.3683
 5160SOL     OW20405   1.655   5.975   0.665  0.1250  0.1882 -0.6935
 5160SOL    HW220406   1.716   5.985   0.739 -0.1812 -1.0326 -0.2485
 5160SOL    HW320407   1.572   5.951   0.706 -0.3930  0.8091 -1.3635
 5160SOL    MW420408   1.652   5.973   0.680  0.0162  0.1091 -0.7232
 5161SOL     OW20409   3.734   1.179   4.545 -0.1722  0.0562  0.5365
 5161SOL    HW220410   3.775   1.198   4.460 -0.5368 -0.8430  0.1375
 5161SOL    HW320411   3.660   1.122   4.523  1.4678 -2.7234  1.6854
 5161SOL    MW420412   3.730   1.174   4.531 -0.0039 -0.4292  0.6354
 5162SOL     OW20413   2.386   5.761   3.256 -0.5840 -0.1190  0.1893
 5162SOL    HW220414   2.413   5.834   3.312  0.1028  1.3280 -1.9042
 5162SOL    HW320415   2.311   5.723   3.301 -0.0964  0.9695  2.0519
 5162SOL    MW420416   2.380   5.766   3.270 -0.4291  0.2155  0.1588
 5163SOL     OW20417   0.487   2.206   4.276  0.0304 -0.0133 -0.2159
 5163SOL    HW220418   0.472   2.239   4.365  1.2138 -0.5384  0.2087
 5163SOL    HW320419   0.415   2.242   4.225 -1.0736 -0.2623  1.0953
 5163SOL    MW420420   0.476   2.215   4.281  0.0409 -0.1154  0.0131
 5164SOL     OW20421   6.133   5.545   1.435 -0.1538  0.0290  0.5514
 5164SOL    HW220422   6.192   5.581   1.501 -1.1487 -1.3415  2.2414
 5164SOL    HW320423   6.060   5.607   1.431 -0.4672 -0.2828  1.3269
 5164SOL    MW420424   6.131   5.558   1.443 -0.3264 -0.1929  0.8767
 5165SOL     OW20425   6.217   6.376   0.809  0.4139 -0.0849  0.0932
 5165SOL    HW220426   6.236   6.327   0.889  1.3940  0.2375  0.0706
 5165SOL    HW320427   6.141   6.429   0.831  1.9026  1.5870  1.5358
 5165SOL    MW420428   6.209   6.376   0.822  0.7396  0.1782  0.2806
 5166SOL     OW20429   1.081   5.273   2.280 -0.5420 -0.2069  0.1606
 5166SOL    HW220430   1.032   5.239   2.355  0.5752  1.6592  1.8485
 5166SOL    HW320431   1.083   5.368   2.294 -0.2683  0.2048 -2.2592
 5166SOL    MW420432   1.075   5.281   2.292 -0.3585  0.0936  0.0640
 5167SOL     OW20433   3.025   5.720   3.433 -0.1843 -0.1907  0.2638
 5167SOL    HW220434   2.964   5.649   3.451 -2.0199  1.3674  0.5242
 5167SOL    HW320435   3.110   5.688   3.463 -1.1700 -1.8061  1.4586
 5167SOL    MW420436   3.028   5.706   3.439 -0.5566 -0.1983  0.4558
 5168SOL     OW20437   1.169   0.215   5.445 -0.0266  0.1606  0.0483
 5168SOL    HW220438   1.200   0.198   5.356 -0.4703 -0.6341  0.0344
 5168SOL    HW320439   1.077   0.187   5.444  0.1766 -0.5831  0.9547
 5168SOL    MW420440   1.161   0.209   5.433 -0.0583 -0.0424  0.1661
 5169SOL     OW20441   4.184   5.528   5.399  0.3696  0.3589  0.3842
 5169SOL    HW220442   4.147   5.461   5.342  1.4311  2.2690 -2.8268
 5169SOL    HW320443   4.264   5.489   5.433  0.5638 -0.3254 -0.8094
 5169SOL    MW420444   4.190   5.514   5.396  0.5353  0.5207 -0.1970
 5170SOL     OW20445   2.982   1.808   6.242 -0.2619 -0.3584  0.1539
 5170SOL    HW220446   2.989   1.838   6.151 -0.8753 -0.9754 -0.1054
 5170SOL    HW320447   3.040   1.731   6.246  1.0984  0.6520  0.7454
 5170SOL    MW420448   2.991   1.802   6.230 -0.1634 -0.3065  0.1977
 5171SOL     OW20449   1.553   0.731   5.066  0.5047 -0.2726  0.4951
 5171SOL    HW220450   1.476   0.737   5.123 -0.3324  0.6637 -0.6677
 5171SOL    HW320451   1.527   0.670   4.997  1.6834 -1.7848  1.3388
 5171SOL    MW420452   1.539   0.724   5.064  0.5498 -0.3485  0.4530
 5172SOL     OW20453   3.340   2.930   3.204 -0.1275  0.1328  0.3210
 5172SOL    HW220454   3.432   2.907   3.194 -0.2482  0.5685 -2.6358
 5172SOL    HW320455   3.292   2.850   3.182 -0.4659  0.2479  0.6286
 5172SOL    MW420456   3.346   2.917   3.200 -0.1881  0.2054 -0.0285
 5173SOL     OW20457   5.290   1.538   5.297  0.2511  0.0410  0.0572
 5173SOL    HW220458   5.229   1.608   5.272  0.6899  0.5931  0.5102
 5173SOL    HW320459   5.257   1.506   5.381 -0.1607 -0.5557 -0.3252
 5173SOL    MW420460   5.278   1.543   5.304  0.2547  0.0351  0.0665
 5174SOL     OW20461   1.702   4.306   2.290 -0.2001 -0.1238  0.4331
 5174SOL    HW220462   1.712   4.384   2.235  1.4581 -0.9100 -0.4788
 5174SOL    HW320463   1.781   4.303   2.343  0.8255 -2.2211 -1.0259
 5174SOL    MW420464   1.714   4.316   2.290  0.1540 -0.5042  0.1203
 5175SOL     OW20465   2.895   0.962   4.870  0.7288 -0.1350 -0.3767
 5175SOL    HW220466   2.978   0.974   4.825  1.0863 -1.6410 -0.1821
 5175SOL    HW320467   2.907   1.003   4.955  1.2800 -0.3269 -0.3567
 5175SOL    MW420468   2.907   0.969   4.875  0.8487 -0.3590 -0.3484
 5176SOL     OW20469   2.751   0.434   0.059  0.2254  0.0007 -0.3215
 5176SOL    HW220470   2.656   0.430   0.068  0.1783  1.9467  0.6192
 5176SOL    HW320471   2.766   0.498  -0.011  0.8422  0.2216  0.0045
 5176SOL    MW420472   2.741   0.442   0.051  0.3005  0.2866 -0.1544
 5177SOL     OW20473   3.342   2.588   5.292 -0.5123  0.0283  0.3321
 5177SOL    HW220474   3.386   2.662   5.250 -0.2827  1.5955  3.1139
 5177SOL    HW320475   3.249   2.604   5.274 -0.3567 -0.0044 -0.5621
 5177SOL    MW420476   3.335   2.600   5.284 -0.4615  0.2307  0.5811
 5178SOL     OW20477   3.462   1.804   1.257  0.6972 -0.1046  0.9045
 5178SOL    HW220478   3.424   1.773   1.339  0.0507  2.2805  1.6005
 5178SOL    HW320479   3.387   1.828   1.203  1.1371  0.7474  0.6475
 5178SOL    MW420480   3.447   1.803   1.261  0.6699  0.3225  0.9624
 5179SOL     OW20481   5.175   0.777   5.232 -0.1037 -0.2125 -0.1879
 5179SOL    HW220482   5.097   0.832   5.235  0.0954  0.0381  0.5131
 5179SOL    HW320483   5.142   0.691   5.204 -0.5302  0.0522 -0.5205
 5179SOL    MW420484   5.160   0.773   5.228 -0.1337 -0.1445 -0.1393
 5180SOL     OW20485   5.356   5.032   4.257 -0.5356  0.1658 -0.6034
 5180SOL    HW220486   5.398   4.965   4.310 -0.0015 -0.0439 -1.2809
 5180SOL    HW320487   5.268   5.039   4.292  0.5560  1.9579  2.1340
 5180SOL    MW420488   5.350   5.024   4.268 -0.3211  0.3746 -0.3316
 5181SOL     OW20489   2.374   1.032   0.606 -0.3965  0.0690  0.2329
 5181SOL    HW220490   2.395   1.044   0.513  0.1773 -0.5445  0.2731
 5181SOL    HW320491   2.440   0.969   0.637 -1.2915 -0.6275  0.7668
 5181SOL    MW420492   2.386   1.025   0.598 -0.4389 -0.1039  0.3086
 5182SOL     OW20493   2.405   4.436   0.585  0.2575  0.0973 -0.2472
 5182SOL    HW220494   2.449   4.514   0.620 -0.7524 -0.3754  2.3002
 5182SOL    HW320495   2.475   4.387   0.543  1.6181  0.7663  1.1051
 5182SOL    MW420496   2.420   4.440   0.584  0.3037  0.1232  0.2673
 5183SOL     OW20497   2.395   3.476   4.608  0.3556 -0.2775 -0.6468
 5183SOL    HW220498   2.450   3.554   4.609 -0.0396  0.0013  0.7242
 5183SOL    HW320499   2.410   3.435   4.693 -0.5553 -0.8988 -0.7745
 5183SOL    MW420500   2.405   3.481   4.619  0.1832 -0.3227 -0.4827
 5184SOL     OW20501   1.222   2.450   3.229 -0.2976  0.0433  0.4952
 5184SOL    HW220502   1.251   2.539   3.212  0.5557 -0.2499  0.3588
 5184SOL    HW320503   1.278   2.395   3.174 -0.6076 -0.5978  0.7983
 5184SOL    MW420504   1.234   2.454   3.220 -0.2259 -0.0800  0.5172
 5185SOL     OW20505   4.029   2.535   5.898 -0.1086 -0.4236 -0.0126
 5185SOL    HW220506   3.945   2.520   5.853 -0.4645  0.8814  0.1618
 5185SOL    HW320507   4.090   2.558   5.827 -0.4837  0.8758  0.0473
 5185SOL    MW420508   4.026   2.536   5.882 -0.2051 -0.0800  0.0183
 5186SOL     OW20509   1.369   1.953   3.003  0.3491  0.0064 -0.1405
 5186SOL    HW220510   1.382   1.944   2.909 -0.1410 -0.6501 -0.1505
 5186SOL    HW320511   1.449   1.919   3.043  0.7693  0.7470 -0.3202
 5186SOL    MW420512   1.381   1.947   2.996  0.3399  0.0175 -0.1655
 5187SOL     OW20513   0.536   0.372   2.360 -0.3720  0.3668  0.0822
 5187SOL    HW220514   0.443   0.368   2.334 -0.5259  2.1946  0.2826
 5187SOL    HW320515   0.535   0.410   2.448  0.5786  0.3802  0.0971
 5187SOL    MW420516   0.523   0.376   2.368 -0.2669  0.6097  0.1106
 5188SOL     OW20517   4.992   5.132   2.698 -0.4259 -0.1804  0.2945
 5188SOL    HW220518   4.922   5.136   2.763  0.0892  2.5411  0.7874
 5188SOL    HW320519   5.068   5.098   2.747 -0.3444  0.7703  0.8464
 5188SOL    MW420520   4.993   5.128   2.713 -0.3472  0.3041  0.4324
 5189SOL     OW20521   2.166   5.802   4.143 -0.6694 -0.1974 -0.0036
 5189SOL    HW220522   2.093   5.835   4.196 -0.7833 -0.3167 -0.0843
 5189SOL    HW320523   2.123   5.761   4.068 -0.4902  0.8348 -0.7026
 5189SOL    MW420524   2.151   5.801   4.140 -0.6608 -0.0770 -0.1065
 5190SOL     OW20525   2.571   6.141   5.624 -0.1951 -0.1314  0.0416
 5190SOL    HW220526   2.650   6.092   5.647  0.4154  0.6808 -0.2810
 5190SOL    HW320527   2.539   6.099   5.544 -1.6615 -2.2082  1.5950
 5190SOL    MW420528   2.577   6.129   5.617 -0.3080 -0.2983  0.2040
 5191SOL     OW20529   4.826   2.234   5.255 -0.0815 -0.2280  0.2146
 5191SOL    HW220530   4.910   2.202   5.288  0.0822  0.9636  1.0119
 5191SOL    HW320531   4.762   2.204   5.320 -0.1828 -0.5021 -0.0082
 5191SOL    MW420532   4.828   2.225   5.268 -0.0733 -0.1070  0.2904
 5192SOL     OW20533   2.076   3.668   0.434  0.7826  0.1060 -0.3410
 5192SOL    HW220534   2.171   3.676   0.442  0.6063  2.5702  0.0330
 5192SOL    HW320535   2.043   3.688   0.522 -0.1055 -0.0706 -0.6266
 5192SOL    MW420536   2.084   3.672   0.447  0.6422  0.4078 -0.3293
 5193SOL     OW20537   2.183   3.876   6.342 -0.1262  0.7023 -0.1321
 5193SOL    HW220538   2.266   3.900   6.301  0.0340  2.1351  0.9464
 5193SOL    HW320539   2.116   3.914   6.284  0.0822  2.2424  0.5845
 5193SOL    MW420540   2.185   3.884   6.329 -0.0776  1.0945  0.1047
 5194SOL     OW20541   3.897   5.248   1.643 -0.0224  0.2270 -0.1581
 5194SOL    HW220542   3.880   5.173   1.699  0.2078 -0.8640 -1.4787
 5194SOL    HW320543   3.827   5.310   1.663  0.2071 -0.0015  1.4894
 5194SOL    MW420544   3.886   5.246   1.653  0.0382  0.0529 -0.1149
 5195SOL     OW20545   5.345   5.057   2.660 -0.2030 -0.2135 -0.0574
 5195SOL    HW220546   5.381   5.143   2.680 -1.7750  0.2166  1.1025
 5195SOL    HW320547   5.421   5.003   2.639  0.9259  1.0922  0.5753
 5195SOL    MW420548   5.360   5.061   2.660 -0.2615  0.0155  0.1791
 5196SOL     OW20549   3.947   0.468   2.760 -0.2312 -0.0365 -0.2880
 5196SOL    HW220550   3.870   0.412   2.747  0.0588 -0.5560  0.1702
 5196SOL    HW320551   4.018   0.423   2.713  0.1985 -0.5161  0.7744
 5196SOL    MW420552   3.947   0.455   2.752 -0.1362 -0.1684 -0.0874
 5197SOL     OW20553   2.597   3.903   1.322  0.2268  0.0044 -0.3008
 5197SOL    HW220554   2.520   3.882   1.269 -0.1022  1.5732 -0.4933
 5197SOL    HW320555   2.571   3.979   1.374  0.9760 -0.7082  1.1808
 5197SOL    MW420556   2.584   3.911   1.322  0.2823  0.1174 -0.1307
 5198SOL     OW20557   3.666   1.222   0.724 -0.0219  0.5761  0.1142
 5198SOL    HW220558   3.706   1.187   0.804  0.5101  0.3112 -0.2543
 5198SOL    HW320559   3.732   1.284   0.690  1.6764 -2.2687 -2.2729
 5198SOL    MW420560   3.680   1.226   0.730  0.2723  0.1658 -0.2494
 5199SOL     OW20561   6.361   1.107   4.483 -0.0206 -0.0734 -0.3263
 5199SOL    HW220562   6.442   1.116   4.534 -0.9050  1.8293  0.8449
 5199SOL    HW320563   6.358   1.185   4.428 -0.1091 -1.1105 -1.8428
 5199SOL    MW420564   6.371   1.118   4.483 -0.1490  0.0408 -0.3719
 5200SOL     OW20565   3.313   2.155   1.873  0.2213  0.1913 -0.3281
 5200SOL    HW220566   3.352   2.165   1.960  0.8202  0.6202 -0.6406
 5200SOL    HW320567   3.387   2.134   1.816 -0.2287 -0.5081 -0.6668
 5200SOL    MW420568   3.328   2.153   1.877  0.2410  0.1556 -0.4140
 5201SOL     OW20569   5.644   5.548   0.481 -0.6821  0.1662 -0.6712
 5201SOL    HW220570   5.622   5.455   0.470 -1.3976  0.1886  0.4137
 5201SOL    HW320571   5.687   5.572   0.399 -0.4239 -1.1406 -0.9456
 5201SOL    MW420572   5.647   5.539   0.469 -0.7424 -0.0032 -0.5642
 5202SOL     OW20573   1.955   1.872   2.408 -0.4371  0.3618  0.0831
 5202SOL    HW220574   1.977   1.863   2.501  0.8377  2.9294  0.1089
 5202SOL    HW320575   2.028   1.923   2.371 -2.1705  1.6462 -1.7517
 5202SOL    MW420576   1.968   1.878   2.416 -0.4976  0.8700 -0.1556
 5203SOL     OW20577   4.596   1.825   4.502 -0.4204  0.2104  0.3796
 5203SOL    HW220578   4.691   1.824   4.491 -0.3319  2.6761  0.3129
 5203SOL    HW320579   4.561   1.838   4.413 -0.6468  1.6100  0.6377
 5203SOL    MW420580   4.604   1.827   4.489 -0.4386  0.7204  0.4048
 5204SOL     OW20581   1.233   2.541   2.810 -0.4997 -0.5075  0.0844
 5204SOL    HW220582   1.303   2.553   2.745 -0.8248 -1.8207 -0.5441
 5204SOL    HW320583   1.167   2.606   2.785 -0.0746 -0.1411 -0.1104
 5204SOL    MW420584   1.233   2.551   2.798 -0.4865 -0.6325 -0.0242
 5205SOL     OW20585   5.857   1.667   3.877 -0.4173 -0.3220  0.2858
 5205SOL    HW220586   5.896   1.645   3.962 -0.9867 -1.0988  0.3587
 5205SOL    HW320587   5.795   1.596   3.860 -2.3017  1.1849  0.4797
 5205SOL    MW420588   5.854   1.655   3.886 -0.7410 -0.2256  0.3210
 5206SOL     OW20589   0.900   3.278   3.251 -0.3183  0.0479 -0.3410
 5206SOL    HW220590   0.918   3.371   3.237  1.9605 -0.3439 -0.3885
 5206SOL    HW320591   0.838   3.256   3.181 -0.8709  1.4987 -0.3591
 5206SOL    MW420592   0.894   3.288   3.240 -0.0905  0.1876 -0.3496
 5207SOL     OW20593   1.676   3.795   4.931 -0.0753  0.1544 -0.3599
 5207SOL    HW220594   1.655   3.716   4.880  0.8700 -0.4775  0.2042
 5207SOL    HW320595   1.624   3.864   4.889 -1.4523 -0.8817 -0.4450
 5207SOL    MW420596   1.666   3.793   4.919 -0.1323 -0.0657 -0.2967
 5208SOL     OW20597   1.531   0.858   3.691 -0.6343  0.1357  0.6122
 5208SOL    HW220598   1.499   0.770   3.673  0.3669 -0.0806 -0.1826
 5208SOL    HW320599   1.466   0.916   3.651  0.1761 -0.3003 -1.4584
 5208SOL    MW420600   1.518   0.854   3.683 -0.3953  0.0496  0.2341
 5209SOL     OW20601   4.656   5.799   6.162  0.4541 -0.6047 -0.0824
 5209SOL    HW220602   4.722   5.749   6.210  0.2620 -0.3571  0.4469
 5209SOL    HW320603   4.583   5.739   6.152  0.4047 -0.5809  0.1375
 5209SOL    MW420604   4.655   5.785   6.167  0.4222 -0.5689  0.0165
 5210SOL     OW20605   5.974   6.062   5.639  1.0828 -0.8208 -0.1602
 5210SOL    HW220606   6.038   5.992   5.651  2.1991  0.0892 -0.6246
 5210SOL    HW320607   5.987   6.091   5.549  0.1445 -0.4890 -0.1939
 5210SOL    MW420608   5.984   6.056   5.629  1.1063 -0.6570 -0.2259
 5211SOL     OW20609   3.023   2.458   4.835  0.8067 -0.0184  0.0205
 5211SOL    HW220610   3.029   2.515   4.758 -0.8495 -0.2892 -0.3457
 5211SOL    HW320611   2.985   2.376   4.802 -2.4665  0.7309  1.4612
 5211SOL    MW420612   3.019   2.455   4.820  0.1563  0.0448  0.1623
 5212SOL     OW20613   5.837   6.340   6.450  0.2205 -0.4698  0.5224
 5212SOL    HW220614   5.819   6.246   6.447  3.8218 -1.2962  0.3148
 5212SOL    HW320615   5.874   6.355   6.537 -1.4065  1.0639  1.0010
 5212SOL    MW420616   5.839   6.330   6.461  0.4810 -0.3765  0.5581
 5213SOL     OW20617   5.683   6.005   1.123 -0.0966  0.4735 -0.0903
 5213SOL    HW220618   5.643   6.051   1.050 -1.1135 -0.3957 -0.0954
 5213SOL    HW320619   5.761   6.057   1.144 -0.8911  1.8701 -0.4600
 5213SOL    MW420620   5.688   6.018   1.116 -0.3356  0.5431 -0.1398
 5214SOL     OW20621   5.526   6.138   5.267 -0.4787  0.3794  0.2575
 5214SOL    HW220622   5.482   6.127   5.183 -1.5927  1.8508  0.6015
 5214SOL    HW320623   5.508   6.229   5.292 -0.0135  0.0402  1.9807
 5214SOL    MW420624   5.518   6.149   5.259 -0.5643  0.5288  0.5302
 5215SOL     OW20625   4.032   5.255   4.787 -0.0439 -0.1923 -0.1466
 5215SOL    HW220626   3.965   5.244   4.854  0.7850  1.1777  0.9783
 5215SOL    HW320627   4.021   5.345   4.756  0.6699 -0.2584 -0.6206
 5215SOL    MW420628   4.022   5.265   4.792  0.1597 -0.0202 -0.0607
 5216SOL     OW20629   4.594   1.841   1.851 -0.0527  0.2947 -0.1836
 5216SOL    HW220630   4.547   1.917   1.886  0.0212  0.3088 -0.1167
 5216SOL    HW320631   4.548   1.820   1.769 -0.1069  0.3775 -0.1739
 5216SOL    MW420632   4.582   1.848   1.844 -0.0501  0.3075 -0.1735
 5217SOL     OW20633   6.391   1.477   4.808 -0.8417 -0.5666  0.1378
 5217SOL    HW220634   6.335   1.543   4.768  0.5999  1.2275  0.8922
 5217SOL    HW320635   6.357   1.393   4.777 -1.6467  0.5916 -2.2986
 5217SOL    MW420636   6.379   1.475   4.799 -0.7577 -0.1771 -0.0841
 5218SOL     OW20637   3.723   1.840   1.307 -0.3095 -0.3961 -0.4616
 5218SOL    HW220638   3.636   1.801   1.293 -0.0492 -1.5593  0.8540
 5218SOL    HW320639   3.760   1.788   1.379  1.2755  0.4150 -0.6647
 5218SOL    MW420640   3.716   1.828   1.315 -0.0660 -0.4425 -0.3148
 5219SOL     OW20641   3.931   1.114   6.411 -0.5089  0.1174 -0.2069
 5219SOL    HW220642   3.912   1.044   6.474  0.9243  1.2528  1.5723
 5219SOL    HW320643   3.894   1.193   6.450  0.7526  0.9286 -0.5769
 5219SOL    MW420644   3.923   1.115   6.424 -0.1534  0.3742 -0.0210
 5220SOL     OW20645   2.098   0.169   5.729  0.0085  0.2310 -0.3168
 5220SOL    HW220646   2.050   0.215   5.660 -1.8253 -0.9619  0.1003
 5220SOL    HW320647   2.152   0.105   5.683  2.5312  2.5636 -0.9042
 5220SOL    MW420648   2.099   0.167   5.714  0.0994  0.3813 -0.3392
 5221SOL     OW20649   1.436   6.078   2.242 -0.0779 -0.7028 -0.9246
 5221SOL    HW220650   1.526   6.080   2.211  1.0314  0.5288  2.0069
 5221SOL    HW320651   1.398   6.161   2.213  0.8230  0.2656  0.5553
 5221SOL    MW420652   1.443   6.089   2.234  0.1873 -0.4126 -0.3426
 5222SOL     OW20653   4.232   1.857   1.936 -0.4391 -0.2397 -0.3138
 5222SOL    HW220654   4.177   1.927   1.969  0.7049  0.2472  0.6574
 5222SOL    HW320655   4.310   1.859   1.992  0.6995 -0.7038 -1.7850
 5222SOL    MW420656   4.235   1.866   1.948 -0.1379 -0.2367 -0.3798
 5223SOL     OW20657   4.873   1.495   2.870  0.0724  0.3205 -0.0197
 5223SOL    HW220658   4.953   1.494   2.818  0.9098 -1.3919  1.2241
 5223SOL    HW320659   4.850   1.588   2.876  2.1134  0.8857 -0.1530
 5223SOL    MW420660   4.880   1.507   2.864  0.4522  0.1691  0.1268
 5224SOL     OW20661   4.329   2.510   1.451  0.1461 -0.6060 -0.1941
 5224SOL    HW220662   4.309   2.588   1.400 -1.1069 -0.7583  0.0135
 5224SOL    HW320663   4.370   2.450   1.389  1.3254  0.2786 -0.3048
 5224SOL    MW420664   4.331   2.512   1.436  0.1364 -0.5093 -0.1813
 5225SOL     OW20665   0.537   4.300   5.624 -0.0137  0.4998 -0.0357
 5225SOL    HW220666   0.561   4.332   5.711 -2.1062  2.9386 -0.2457
 5225SOL    HW320667   0.545   4.377   5.567 -1.8375 -0.1996 -1.3290
 5225SOL    MW420668   0.542   4.314   5.628 -0.5304  0.7293 -0.2340
 5226SOL     OW20669   4.128   5.990   0.553 -0.3169 -0.2378 -0.6482
 5226SOL    HW220670   4.167   5.931   0.489 -1.5276 -1.1632 -0.5800
 5226SOL    HW320671   4.085   6.058   0.501  0.0617 -0.0859 -0.7633
 5226SOL    MW420672   4.128   5.991   0.538 -0.4267 -0.3398 -0.6544
 5227SOL     OW20673   4.793   3.898   2.854 -0.1670 -0.3873 -0.2524
 5227SOL    HW220674   4.880   3.867   2.880 -0.2142  0.9909  1.7454
 5227SOL    HW320675   4.735   3.825   2.877  0.2010 -0.4445  0.5456
 5227SOL    MW420676   4.797   3.884   2.860 -0.1247 -0.2130  0.1165
 5228SOL     OW20677   4.272   3.522   3.888 -0.4301  0.3685  0.1344
 5228SOL    HW220678   4.278   3.433   3.922  1.0660  0.0363 -0.8868
 5228SOL    HW320679   4.208   3.516   3.818 -0.2585  0.0586 -0.0004
 5228SOL    MW420680   4.265   3.509   3.883 -0.2100  0.2838 -0.0181
 5229SOL     OW20681   1.827   0.841   1.358 -0.1019  0.1201  0.6962
 5229SOL    HW220682   1.903   0.897   1.373  0.9696 -1.2361  0.6145
 5229SOL    HW320683   1.822   0.785   1.435 -1.4486  0.6170  1.0011
 5229SOL    MW420684   1.836   0.841   1.370 -0.1382  0.0068  0.7257
 5230SOL     OW20685   2.556   3.863   2.867  0.3117  0.2394  0.1044
 5230SOL    HW220686   2.586   3.888   2.780 -0.2713  1.9398  0.3644
 5230SOL    HW320687   2.465   3.835   2.855 -0.4332  2.3324  0.3884
 5230SOL    MW420688   2.548   3.863   2.854  0.1365  0.7399  0.1762
 5231SOL     OW20689   5.838   2.040   0.295 -0.3350  0.3397 -0.0945
 5231SOL    HW220690   5.794   1.964   0.256  0.1674 -0.5328  0.9771
 5231SOL    HW320691   5.819   2.112   0.235 -2.1198 -0.2849 -0.3458
 5231SOL    MW420692   5.829   2.039   0.282 -0.5042  0.1422  0.0137
 5232SOL     OW20693   3.866   5.286   0.400 -0.1869  0.1156 -0.4714
 5232SOL    HW220694   3.923   5.343   0.451 -1.5910  0.0527  1.2760
 5232SOL    HW320695   3.922   5.251   0.330  1.3077  1.7245 -0.1354
 5232SOL    MW420696   3.881   5.289   0.397 -0.1750  0.3195 -0.1965
 5233SOL     OW20697   0.627   1.916   1.451  0.4755 -0.4968 -0.3334
 5233SOL    HW220698   0.571   1.838   1.452  2.0822 -1.7262  1.1339
 5233SOL    HW320699   0.627   1.945   1.360 -2.3936 -0.4832 -0.4253
 5233SOL    MW420700   0.620   1.909   1.439  0.3089 -0.6572 -0.1519
 5234SOL     OW20701   3.446   2.117   3.637 -0.5652 -0.2274 -0.0246
 5234SOL    HW220702   3.454   2.212   3.649  0.9687 -0.2559 -0.5538
 5234SOL    HW320703   3.375   2.107   3.575 -1.3891  0.5078  0.7554
 5234SOL    MW420704   3.438   2.128   3.631 -0.4716 -0.1342  0.0085
 5235SOL     OW20705   0.243   4.136   1.448 -0.0800  0.5595  0.4536
 5235SOL    HW220706   0.286   4.150   1.532  1.2296 -0.6877  0.0209
 5235SOL    HW320707   0.298   4.072   1.403 -2.0235 -0.5811 -0.4139
 5235SOL    MW420708   0.256   4.130   1.453 -0.1636  0.2445  0.2820
 5236SOL     OW20709   5.097   0.154   5.424  0.1538 -0.0315 -1.2555
 5236SOL    HW220710   5.054   0.070   5.409  0.4229 -0.0691 -1.8581
 5236SOL    HW320711   5.138   0.175   5.340 -1.3861  1.5600 -1.6707
 5236SOL    MW420712   5.097   0.146   5.411 -0.0139  0.1735 -1.3898
 5237SOL     OW20713   3.272   4.981   2.920  0.1324  0.1562 -0.0475
 5237SOL    HW220714   3.219   5.025   2.986 -0.1676 -0.0217 -0.1668
 5237SOL    HW320715   3.223   4.990   2.839 -1.8481 -3.5172  0.5225
 5237SOL    MW420716   3.259   4.988   2.918 -0.1684 -0.3520  0.0120
 5238SOL     OW20717   1.733   2.953   1.766 -0.3630  0.3784  0.6733
 5238SOL    HW220718   1.777   2.886   1.713 -0.5370  1.1459 -0.4695
 5238SOL    HW320719   1.704   2.906   1.844 -2.4214 -1.4310 -1.0528
 5238SOL    MW420720   1.735   2.938   1.770 -0.6575  0.2409  0.2948
 5239SOL     OW20721   4.742   6.324   0.627  0.4585  0.3463 -0.0720
 5239SOL    HW220722   4.774   6.315   0.538  0.0318  0.2305 -0.2167
 5239SOL    HW320723   4.759   6.239   0.668 -1.4895 -0.4376 -0.7564
 5239SOL    MW420724   4.748   6.312   0.621  0.1452  0.2276 -0.1814
 5240SOL     OW20725   5.421   6.245   3.824 -0.2778  0.1215  0.6995
 5240SOL    HW220726   5.459   6.231   3.737  0.1146  1.8684  0.5468
 5240SOL    HW320727   5.490   6.288   3.874 -1.2759  1.3239  1.1092
 5240SOL    MW420728   5.435   6.249   3.819 -0.3577  0.5107  0.7334
 5241SOL     OW20729   0.257   6.215   3.078  0.1361  0.2288 -0.2606
 5241SOL    HW220730   0.317   6.289   3.081  0.4802 -0.0570  2.8947
 5241SOL    HW320731   0.170   6.255   3.070  0.4004  0.9549  0.3514
 5241SOL    MW420732   0.254   6.230   3.077  0.2164  0.2869  0.2365
 5242SOL     OW20733   5.552   0.530   5.419 -0.1201  0.7780  0.2481
 5242SOL    HW220734   5.511   0.596   5.475 -0.8644  1.3013 -0.8783
 5242SOL    HW320735   5.591   0.580   5.347  2.2282  0.2726  1.0582
 5242SOL    MW420736   5.552   0.545   5.417  0.0915  0.7804  0.2063
 5243SOL     OW20737   1.955   5.119   3.241  0.1318 -0.6084  0.3803
 5243SOL    HW220738   1.936   5.025   3.246 -0.5608 -0.4419  1.0364
 5243SOL    HW320739   1.886   5.154   3.185  0.9604 -0.6240 -0.6929
 5243SOL    MW420740   1.944   5.111   3.234  0.1498 -0.5885  0.3253
 5244SOL     OW20741   2.948   2.084   6.153 -0.1676 -0.3510 -0.2148
 5244SOL    HW220742   2.909   2.171   6.139  1.2891  0.7154  1.8105
 5244SOL    HW320743   3.042   2.101   6.156  0.0257 -1.4467  3.2553
 5244SOL    MW420744   2.955   2.098   6.151  0.0501 -0.3549  0.5103
 5245SOL     OW20745   2.198   5.162   3.089 -0.1653 -0.3884  0.0373
 5245SOL    HW220746   2.119   5.135   3.135 -1.2683  2.6744  0.1454
 5245SOL    HW320747   2.169   5.182   3.000  0.4823  0.6137  0.0277
 5245SOL    MW420748   2.184   5.161   3.083 -0.2254  0.1479  0.0503
 5246SOL     OW20749   2.955   4.134   1.145  0.8083 -0.2528  0.4810
 5246SOL    HW220750   2.897   4.058   1.151  0.4595  0.0925  1.7919
 5246SOL    HW320751   3.043   4.096   1.136  0.7979 -0.8874  2.4787
 5246SOL    MW420752   2.959   4.119   1.145  0.7609 -0.2910  0.9175
 5247SOL     OW20753   5.043   4.571   4.778  0.1819 -0.5734 -0.9335
 5247SOL    HW220754   5.006   4.539   4.860  1.2916 -0.0328 -0.1999
 5247SOL    HW320755   4.983   4.540   4.711 -1.0922 -0.4827  0.1342
 5247SOL    MW420756   5.030   4.563   4.780  0.1602 -0.4901 -0.6959
 5248SOL     OW20757   4.056   5.931   6.460  0.2387 -0.2193  0.1451
 5248SOL    HW220758   3.991   5.991   6.498  0.1199 -0.3929  0.2157
 5248SOL    HW320759   4.136   5.946   6.510  0.7161  1.1290 -0.9398
 5248SOL    MW420760   4.058   5.941   6.471  0.2860 -0.0643  0.0113
 5249SOL     OW20761   6.107   1.876   5.135  0.1656 -0.0959 -0.0663
 5249SOL    HW220762   6.053   1.818   5.190  2.3097 -2.6963 -0.4926
 5249SOL    HW320763   6.148   1.937   5.197 -2.5305  1.4616  0.3424
 5249SOL    MW420764   6.105   1.876   5.150  0.0927 -0.2335 -0.0686
 5250SOL     OW20765   2.442   4.067   3.267 -0.0382 -0.4762 -0.3608
 5250SOL    HW220766   2.361   4.117   3.275  0.9686  1.0466  0.9143
 5250SOL    HW320767   2.473   4.086   3.179 -1.0653 -1.1452 -0.8980
 5250SOL    MW420768   2.435   4.076   3.257 -0.0409 -0.3635 -0.2634
 5251SOL     OW20769   3.955   1.538   1.767  0.4435 -1.0744 -0.5172
 5251SOL    HW220770   4.016   1.557   1.839  0.4994  1.2701 -1.1074
 5251SOL    HW320771   3.927   1.448   1.783  1.1623 -0.9392  1.9028
 5251SOL    MW420772   3.960   1.528   1.779  0.5457 -0.7472 -0.2758
 5252SOL     OW20773   1.712   1.938   6.037  0.0908  0.7564  0.1858
 5252SOL    HW220774   1.721   1.945   5.942  0.9495  0.2952  0.2158
 5252SOL    HW320775   1.772   2.004   6.072 -0.6296  1.3038  0.4155
 5252SOL    MW420776   1.721   1.947   6.029  0.1090  0.7678  0.2200
 5253SOL     OW20777   4.780   1.745   4.184  0.3635  0.3688  0.5177
 5253SOL    HW220778   4.782   1.651   4.205 -0.9492  0.7502  2.6274
 5253SOL    HW320779   4.687   1.768   4.189  0.6765  1.8118  0.0196
 5253SOL    MW420780   4.768   1.735   4.187  0.2316  0.6095  0.7303
 5254SOL     OW20781   5.490   3.272   2.528  0.1736 -0.3653 -0.4199
 5254SOL    HW220782   5.409   3.324   2.520  0.0613 -0.0304  2.1378
 5254SOL    HW320783   5.473   3.214   2.602  2.2274 -0.4011  0.0622
 5254SOL    MW420784   5.477   3.271   2.536  0.4297 -0.3258 -0.0188
 5255SOL     OW20785   3.316   4.770   3.491  0.0897  0.4612  1.2161
 5255SOL    HW220786   3.303   4.697   3.551  0.9035 -1.2039 -0.4951
 5255SOL    HW320787   3.406   4.798   3.506  0.7761 -0.8873 -0.0890
 5255SOL    MW420788   3.326   4.764   3.501  0.2876  0.0636  0.8182
 5256SOL     OW20789   3.351   1.104   4.359  0.1184  0.6705  0.4074
 5256SOL    HW220790   3.392   1.190   4.368 -0.8868  1.1716  0.2961
 5256SOL    HW320791   3.318   1.083   4.446  3.7906 -1.4583  1.5406
 5256SOL    MW420792   3.352   1.112   4.371  0.4703  0.4557  0.5422
 5257SOL     OW20793   2.872   4.072   0.490  0.5410 -0.1958 -0.0276
 5257SOL    HW220794   2.817   4.147   0.515  0.6122  0.0529 -0.6018
 5257SOL    HW320795   2.928   4.106   0.420  0.2804 -0.9042 -0.5900
 5257SOL    MW420796   2.872   4.086   0.484  0.5160 -0.2564 -0.1775
 5258SOL     OW20797   1.809   4.426   0.711 -1.1016  0.4042  0.1415
 5258SOL    HW220798   1.901   4.426   0.738 -1.0178  1.4199 -0.1352
 5258SOL    HW320799   1.792   4.335   0.687  0.8537  0.7994 -3.3253
 5258SOL    MW420800   1.819   4.414   0.712 -0.8326  0.5904 -0.3524
 5259SOL     OW20801   3.083   5.258   1.519 -1.0098 -0.6517 -0.0123
 5259SOL    HW220802   3.037   5.177   1.544 -2.0261 -0.3507 -0.8238
 5259SOL    HW320803   3.013   5.317   1.491 -0.0473 -0.7681 -3.0188
 5259SOL    MW420804   3.067   5.255   1.518 -1.0169 -0.6274 -0.5160
 5260SOL     OW20805   6.363   3.514   5.254  0.3338 -0.1023  0.3372
 5260SOL    HW220806   6.303   3.457   5.204 -1.0365  1.7379 -0.2315
 5260SOL    HW320807   6.415   3.453   5.306  0.0536 -1.9656 -1.4190
 5260SOL    MW420808   6.362   3.498   5.255  0.1161 -0.1053  0.0305
 5261SOL     OW20809   6.272   1.057   5.474  0.1347  0.0733 -0.2200
 5261SOL    HW220810   6.317   1.050   5.558 -1.0329  0.0721  0.4149
 5261SOL    HW320811   6.256   0.967   5.447  1.7812  0.0145 -1.1811
 5261SOL    MW420812   6.276   1.044   5.481  0.1979  0.0654 -0.2631
 5262SOL     OW20813   4.865   3.779   5.230 -0.5854 -0.0367 -0.1854
 5262SOL    HW220814   4.951   3.781   5.270 -0.3466  1.0198 -0.7150
 5262SOL    HW320815   4.834   3.689   5.243  0.3558 -0.2755  0.4822
 5262SOL    MW420816   4.872   3.767   5.237 -0.4297  0.0711 -0.1672
 5263SOL     OW20817   0.977   0.059   6.245  0.1922 -0.5387 -0.5955
 5263SOL    HW220818   1.068   0.083   6.266  0.6943 -3.1366  0.6804
 5263SOL    HW320819   0.924   0.126   6.288  1.4879 -0.1225  0.4344
 5263SOL    MW420820   0.982   0.071   6.253  0.4294 -0.8265 -0.2913
 5264SOL     OW20821   1.091   3.131   5.062  0.5882  0.0170  0.3475
 5264SOL    HW220822   1.042   3.054   5.034 -0.1657  0.6250 -0.0412
 5264SOL    HW320823   1.071   3.140   5.156  2.0392 -1.2337  0.8076
 5264SOL    MW420824   1.082   3.122   5.071  0.6802 -0.0678  0.3569
 5265SOL     OW20825   1.233   4.749   1.765 -0.2593  0.3166  0.4571
 5265SOL    HW220826   1.211   4.665   1.724 -1.2293  1.3549 -1.2810
 5265SOL    HW320827   1.165   4.763   1.830 -1.2599  0.6350 -0.6195
 5265SOL    MW420828   1.221   4.740   1.768 -0.5193  0.4956  0.0857
 5266SOL     OW20829   1.250   2.721   0.225  0.1523 -0.4198 -0.2538
 5266SOL    HW220830   1.319   2.670   0.266 -0.1589 -1.3921 -0.8895
 5266SOL    HW320831   1.279   2.812   0.232  1.5083 -0.8079 -0.5363
 5266SOL    MW420832   1.263   2.727   0.231  0.2902 -0.5993 -0.3749
 5267SOL     OW20833   5.749   0.713   0.929  0.1849  0.0745  0.7540
 5267SOL    HW220834   5.774   0.639   0.874  0.7526  0.1337  0.9266
 5267SOL    HW320835   5.801   0.703   1.008  0.5388  0.8440  0.6341
 5267SOL    MW420836   5.759   0.702   0.932  0.3065  0.1839  0.7610
 5268SOL     OW20837   2.978   1.563   1.976  0.6757 -0.1601  0.2779
 5268SOL    HW220838   2.925   1.595   1.904 -2.2114 -0.9989  1.8884
 5268SOL    HW320839   2.989   1.640   2.033 -2.5694 -0.7999  1.9998
 5268SOL    MW420840   2.973   1.578   1.974 -0.1334 -0.3552  0.7176
 5269SOL     OW20841   0.536   5.593   4.878  0.2571  0.3907  0.0575
 5269SOL    HW220842   0.625   5.625   4.863 -0.0759  1.6988  0.8133
 5269SOL    HW320843   0.480   5.669   4.867 -0.6692 -0.1672  0.7385
 5269SOL    MW420844   0.541   5.607   4.875  0.0909  0.4897  0.2470
 5270SOL     OW20845   5.051   4.925   5.580 -0.0319 -0.0593  0.1812
 5270SOL    HW220846   5.140   4.960   5.580 -0.0626  0.0866  1.7796
 5270SOL    HW320847   5.001   4.986   5.635 -0.9916 -0.4821 -0.1903
 5270SOL    MW420848   5.056   4.938   5.587 -0.1626 -0.0959  0.3431
 5271SOL     OW20849   5.270   4.959   0.996 -0.5293 -0.5661  0.1836
 5271SOL    HW220850   5.220   5.033   1.032 -0.3268  0.3900 -1.3906
 5271SOL    HW320851   5.274   4.977   0.902 -0.8335 -2.8169 -0.3251
 5271SOL    MW420852   5.264   4.971   0.989 -0.5427 -0.7369 -0.0912
 5272SOL     OW20853   4.661   3.163   3.164 -0.0890  1.0076  0.3051
 5272SOL    HW220854   4.572   3.127   3.166  0.0774  0.6002  0.3102
 5272SOL    HW320855   4.718   3.089   3.185  0.1824  1.5008  1.3747
 5272SOL    MW420856   4.656   3.149   3.167 -0.0312  1.0189  0.4469
 5273SOL     OW20857   2.447   4.698   2.641  0.7438 -0.6159  0.3541
 5273SOL    HW220858   2.505   4.624   2.626  0.8492 -0.6895  1.1027
 5273SOL    HW320859   2.489   4.749   2.710  1.1360  0.6563 -0.7852
 5273SOL    MW420860   2.460   4.695   2.648  0.8094 -0.4577  0.3026
 5274SOL     OW20861   6.102   6.426   4.580 -0.4207 -0.1729  0.1262
 5274SOL    HW220862   6.037   6.364   4.613 -1.6218  0.3023 -1.1968
 5274SOL    HW320863   6.186   6.381   4.589 -0.9650 -0.9395  1.5783
 5274SOL    MW420864   6.104   6.412   4.585 -0.6510 -0.2113  0.1432
 5275SOL     OW20865   5.996   4.933   2.070  0.4770 -0.0512 -0.3591
 5275SOL    HW220866   6.071   4.944   2.128  0.4759  0.1818 -0.3994
 5275SOL    HW320867   5.991   4.839   2.054  0.7358 -0.0711 -0.3263
 5275SOL    MW420868   6.005   4.922   2.076  0.5110 -0.0231 -0.3600
 5276SOL     OW20869   1.495   3.529   0.380 -0.1107 -0.0277  0.3918
 5276SOL    HW220870   1.524   3.590   0.312 -1.2159  1.7657  1.4603
 5276SOL    HW320871   1.571   3.519   0.437 -0.1683  1.0702  0.6860
 5276SOL    MW420872   1.509   3.535   0.378 -0.2641  0.3538  0.5716
 5277SOL     OW20873   2.582   2.912   4.652  0.1438 -0.0334 -0.0111
 5277SOL    HW220874   2.608   2.831   4.608 -1.8627 -0.7212 -0.0464
 5277SOL    HW320875   2.584   2.890   4.745 -1.7104 -0.6205 -0.0632
 5277SOL    MW420876   2.586   2.898   4.659 -0.3656 -0.2016 -0.0227
 5278SOL     OW20877   4.615   3.873   4.880  0.5728 -0.1293  0.0337
 5278SOL    HW220878   4.670   3.903   4.808 -0.4017  1.2608 -0.1687
 5278SOL    HW320879   4.654   3.911   4.958  1.1315 -0.9255  0.1487
 5278SOL    MW420880   4.627   3.882   4.881  0.5179 -0.0510  0.0222
 5279SOL     OW20881   3.316   5.306   2.617 -0.0291 -0.0793  0.3635
 5279SOL    HW220882   3.332   5.251   2.540  1.6699  0.5126  0.2503
 5279SOL    HW320883   3.251   5.370   2.587  0.6352  0.1631 -0.5994
 5279SOL    MW420884   3.309   5.307   2.603  0.2827  0.0308  0.2216
 5280SOL     OW20885   4.590   0.429   4.304 -0.2657 -0.5280 -0.0772
 5280SOL    HW220886   4.549   0.397   4.223  1.5375  0.3550 -1.4023
 5280SOL    HW320887   4.646   0.356   4.332 -1.8839 -1.3535  1.1872
 5280SOL    MW420888   4.592   0.415   4.297 -0.2413 -0.5204 -0.0852
 5281SOL     OW20889   5.050   1.711   3.561  0.3025  0.0331  0.0747
 5281SOL    HW220890   5.068   1.794   3.605  0.0416  0.1988 -0.1296
 5281SOL    HW320891   5.000   1.735   3.483 -0.7286 -0.3983  0.5734
 5281SOL    MW420892   5.046   1.725   3.556  0.1321 -0.0020  0.1135
 5282SOL     OW20893   3.219   3.198   2.494 -0.1298 -0.0587  0.5752
 5282SOL    HW220894   3.295   3.170   2.442  0.2847 -0.5561  1.4370
 5282SOL    HW320895   3.148   3.205   2.431  0.8297  1.3058 -0.4325
 5282SOL    MW420896   3.220   3.196   2.479  0.0515  0.0557  0.5560
 5283SOL     OW20897   3.239   2.109   6.462  1.0645 -0.2466  0.3311
 5283SOL    HW220898   3.155   2.070   6.487  0.0700  1.8798  0.4718
 5283SOL    HW320899   3.234   2.117   6.367 -0.1795  2.4449  0.5211
 5283SOL    MW420900   3.227   2.105   6.453  0.7691  0.3891  0.3747
 5284SOL     OW20901   1.663   2.669   1.463 -0.1308 -0.1155 -0.3608
 5284SOL    HW220902   1.723   2.721   1.517 -0.9663 -0.0368  0.5070
 5284SOL    HW320903   1.576   2.697   1.489 -0.6531 -2.3977  0.6447
 5284SOL    MW420904   1.660   2.679   1.473 -0.3099 -0.4062 -0.1137
 5285SOL     OW20905   5.923   0.779   2.132 -0.0896  0.1927 -0.0744
 5285SOL    HW220906   5.899   0.771   2.224  0.3868 -0.0800  0.0280
 5285SOL    HW320907   6.018   0.788   2.132 -0.1428  0.8452 -0.5003
 5285SOL    MW420908   5.932   0.779   2.144 -0.0338  0.2428 -0.1171
 5286SOL     OW20909   2.999   4.602   2.344 -0.0218 -0.0744 -0.3537
 5286SOL    HW220910   3.054   4.537   2.302 -0.1677 -1.1299  1.0369
 5286SOL    HW320911   2.910   4.566   2.338  0.1162 -0.9548  2.0541
 5286SOL    MW420912   2.994   4.589   2.338 -0.0228 -0.3298  0.1474
 5287SOL     OW20913   6.254   0.428   0.793  0.2961 -0.0874  0.7916
 5287SOL    HW220914   6.187   0.422   0.725 -0.0283 -2.1856  1.2207
 5287SOL    HW320915   6.335   0.451   0.746  0.5393 -3.4955 -0.7286
 5287SOL    MW420916   6.256   0.430   0.778  0.2854 -0.8139  0.6476
 5288SOL     OW20917   5.399   2.624   3.265  0.5446 -0.0247  0.2487
 5288SOL    HW220918   5.486   2.654   3.240 -0.3623  0.8435 -2.0994
 5288SOL    HW320919   5.344   2.702   3.258 -0.6252 -0.7785  0.7133
 5288SOL    MW420920   5.403   2.638   3.261  0.2706 -0.0096  0.0002
 5289SOL     OW20921   1.645   6.070   2.472  0.1032 -0.0984  0.5099
 5289SOL    HW220922   1.570   6.063   2.413  0.7478 -1.0808 -0.2326
 5289SOL    HW320923   1.673   6.162   2.465 -1.0335  0.2871  0.8307
 5289SOL    MW420924   1.639   6.081   2.463  0.0383 -0.1772  0.4543
 5290SOL     OW20925   0.515   2.817   3.430 -0.3538 -0.5353  0.1259
 5290SOL    HW220926   0.546   2.729   3.450 -0.9325 -0.8257 -0.2120
 5290SOL    HW320927   0.446   2.803   3.364  0.2217  0.2388 -0.6586
 5290SOL    MW420928   0.510   2.804   3.424 -0.3542 -0.4715 -0.0222
 5291SOL     OW20929   2.983   2.052   4.387 -0.1889  0.2642 -0.1500
 5291SOL    HW220930   2.922   2.032   4.458  0.8962 -1.9590  0.2243
 5291SOL    HW320931   3.048   2.110   4.427 -0.3344  0.1225  0.2993
 5291SOL    MW420932   2.984   2.057   4.402 -0.0649 -0.0478 -0.0413
 5292SOL     OW20933   3.399   5.203   0.211 -0.0428  0.0546 -0.1953
 5292SOL    HW220934   3.304   5.195   0.219 -0.2809  2.0969 -0.4160
 5292SOL    HW320935   3.416   5.200   0.117  0.2161 -1.0485 -0.1269
 5292SOL    MW420936   3.389   5.202   0.200 -0.0401  0.1785 -0.2154
 5293SOL     OW20937   5.824   6.146   3.016 -0.0095 -0.1648 -0.2656
 5293SOL    HW220938   5.784   6.180   3.096  0.1609 -1.0520  0.2033
 5293SOL    HW320939   5.879   6.217   2.984  1.0807 -0.3190  1.2138
 5293SOL    MW420940   5.826   6.160   3.022  0.1569 -0.3022 -0.0086
 5294SOL     OW20941   4.313   4.592   0.183 -0.4901  0.2745 -0.3769
 5294SOL    HW220942   4.362   4.607   0.264 -0.0885 -1.1200 -0.3390
 5294SOL    HW320943   4.326   4.672   0.132  0.4772  0.5818  0.3187
 5294SOL    MW420944   4.321   4.604   0.187 -0.3095  0.1311 -0.2801
 5295SOL     OW20945   3.953   4.830   0.961 -0.4159  0.2113 -0.5852
 5295SOL    HW220946   3.907   4.747   0.970 -0.2630  0.2314  0.4910
 5295SOL    HW320947   3.888   4.890   0.926 -0.8084 -0.1053 -0.4016
 5295SOL    MW420948   3.939   4.827   0.957 -0.4475  0.1722 -0.4190
 5296SOL     OW20949   3.422   1.872   5.645 -0.4122 -0.3575  0.0848
 5296SOL    HW220950   3.337   1.896   5.611 -0.7413 -1.7882 -0.1689
 5296SOL    HW320951   3.473   1.847   5.568  0.5528  1.3383  0.1367
 5296SOL    MW420952   3.418   1.872   5.631 -0.3283 -0.3226  0.0581
 5297SOL     OW20953   5.898   6.358   2.355  0.2025  0.1583  0.6834
 5297SOL    HW220954   5.931   6.281   2.402  1.6175 -0.3475 -1.0674
 5297SOL    HW320955   5.970   6.420   2.357  0.3711  0.0576 -0.9210
 5297SOL    MW420956   5.911   6.356   2.362  0.4114  0.0783  0.2407
 5298SOL     OW20957   0.465   3.726   5.149  0.1756  0.0954  0.8046
 5298SOL    HW220958   0.528   3.672   5.101 -0.1239  0.9181 -0.5665
 5298SOL    HW320959   0.395   3.666   5.173  0.7346 -0.5038  0.9684
 5298SOL    MW420960   0.464   3.711   5.145  0.2098  0.1249  0.6453
 5299SOL     OW20961   0.025   4.986   0.945 -0.3030 -0.6372 -0.3072
 5299SOL    HW220962  -0.062   5.025   0.935 -0.9721 -1.2296  2.3885
 5299SOL    HW320963   0.077   5.024   0.873 -2.3725  0.8703 -1.1016
 5299SOL    MW420964   0.021   4.996   0.934 -0.6643 -0.5164 -0.0563
 5300SOL     OW20965   2.182   5.170   1.501  0.5723 -0.1531 -0.3634
 5300SOL    HW220966   2.213   5.171   1.592 -0.3467 -1.0467 -0.0327
 5300SOL    HW320967   2.192   5.261   1.472  1.9170 -0.0688  0.2563
 5300SOL    MW420968   2.188   5.182   1.509  0.6285 -0.2599 -0.2380
 5301SOL     OW20969   3.972   2.314   0.136 -0.1345 -0.5844  0.2698
 5301SOL    HW220970   3.917   2.236   0.133  0.6030 -1.0896 -0.7504
 5301SOL    HW320971   3.950   2.356   0.220 -2.2947 -0.5841 -0.2284
 5301SOL    MW420972   3.962   2.309   0.147 -0.3222 -0.6510  0.0695
 5302SOL     OW20973   1.456   0.557   2.802 -0.7583 -1.2587 -0.1253
 5302SOL    HW220974   1.520   0.530   2.867 -0.4768  0.4836  0.3604
 5302SOL    HW320975   1.500   0.544   2.718  1.2228  2.0460  0.2487
 5302SOL    MW420976   1.470   0.551   2.799 -0.4598 -0.5928 -0.0119
 5303SOL     OW20977   4.942   1.241   2.166  0.1254 -0.3820  0.4193
 5303SOL    HW220978   4.880   1.272   2.232  0.3761  1.2785 -0.0917
 5303SOL    HW320979   5.022   1.290   2.183  0.9509 -1.6567  0.3427
 5303SOL    MW420980   4.944   1.251   2.177  0.2674 -0.3311  0.3418
 5304SOL     OW20981   5.211   5.795   3.076 -0.2964  0.2500 -0.0700
 5304SOL    HW220982   5.218   5.772   2.984 -0.0125 -0.3289  0.0939
 5304SOL    HW320983   5.163   5.722   3.116 -2.4528  1.5397 -0.1548
 5304SOL    MW420984   5.206   5.782   3.069 -0.5434  0.3438 -0.0596
 5305SOL     OW20985   3.949   4.409   1.550 -0.0838 -0.1227  0.0901
 5305SOL    HW220986   4.034   4.429   1.588 -1.1339  2.1511  1.4592
 5305SOL    HW320987   3.952   4.447   1.462  0.1565  0.4126  0.3243
 5305SOL    MW420988   3.960   4.417   1.543 -0.1906  0.2480  0.3017
 5306SOL     OW20989   2.472   2.513   4.275  0.0344 -0.0202 -0.3007
 5306SOL    HW220990   2.431   2.550   4.353  1.0874  0.5530 -0.0064
 5306SOL    HW320991   2.538   2.577   4.250  0.1167 -0.4848 -1.3173
 5306SOL    MW420992   2.475   2.526   4.282  0.1842 -0.0058 -0.3960
 5307SOL     OW20993   4.146   3.240   2.006  0.1839  0.4219 -0.1545
 5307SOL    HW220994   4.232   3.280   2.000  0.0316  0.6201 -1.2061
 5307SOL    HW320995   4.129   3.234   2.100  0.5982  2.0080  0.0523
 5307SOL    MW420996   4.155   3.244   2.018  0.2184  0.6574 -0.2660
 5308SOL     OW20997   5.685   0.902   2.055  0.0650  0.0688  0.1251
 5308SOL    HW220998   5.706   0.994   2.068 -0.1796 -0.0966  2.1177
 5308SOL    HW320999   5.768   0.856   2.074 -0.1444 -0.1766  0.4633
 5308SOL    MW421000   5.699   0.908   2.059  0.0051  0.0146  0.4326
 5309SOL     OW21001   2.606   1.136   2.164  0.2803 -0.1761  0.1131
 5309SOL    HW221002   2.606   1.043   2.140  1.3401 -0.2649  0.4499
 5309SOL    HW321003   2.658   1.141   2.243  0.3051  0.7299  0.0482
 5309SOL    MW421004   2.613   1.125   2.171  0.4234 -0.0683  0.1490
 5310SOL     OW21005   5.194   2.365   4.803  0.1014  0.6483 -0.6018
 5310SOL    HW221006   5.152   2.337   4.884  1.0500  0.6651 -0.0934
 5310SOL    HW321007   5.218   2.456   4.819  2.0425  0.0999 -0.1378
 5310SOL    MW421008   5.191   2.373   4.816  0.4827  0.5781 -0.4735
 5311SOL     OW21009   0.961   3.641   6.180 -0.3972  0.1085 -0.0249
 5311SOL    HW221010   0.927   3.714   6.127 -1.9771 -0.1809  0.5145
 5311SOL    HW321011   0.973   3.569   6.118 -0.1043  0.4316 -0.3466
 5311SOL    MW421012   0.958   3.641   6.165 -0.5670  0.1130  0.0038
 5312SOL     OW21013   5.702   0.987   3.018 -0.5962  0.0769 -0.7184
 5312SOL    HW221014   5.621   0.937   3.014 -0.5922  0.0067 -0.0943
 5312SOL    HW321015   5.684   1.059   3.078  0.1269 -0.5898  0.3405
 5312SOL    MW421016   5.689   0.990   3.026 -0.5002 -0.0203 -0.4963
 5313SOL     OW21017   1.445   1.170   2.419 -0.7415  0.7835 -0.2879
 5313SOL    HW221018   1.467   1.253   2.460  0.2155  0.4206 -0.0345
 5313SOL    HW321019   1.496   1.169   2.337 -1.3902  0.8036 -0.7024
 5313SOL    MW421020   1.455   1.181   2.413 -0.7008  0.7383 -0.3091
 5314SOL     OW21021   5.513   0.542   0.890  0.2607  0.2622  0.7948
 5314SOL    HW221022   5.568   0.614   0.920  0.0407  1.2410 -1.0378
 5314SOL    HW321023   5.523   0.475   0.958  1.8257  1.3321  1.6880
 5314SOL    MW421024   5.521   0.542   0.903  0.4382  0.5325  0.6709
 5315SOL     OW21025   0.147   4.967   5.281 -0.0565  0.6599 -0.6335
 5315SOL    HW221026   0.086   4.987   5.211 -1.9832 -1.0154  0.4566
 5315SOL    HW321027   0.117   5.018   5.356 -0.3191 -0.3409 -0.0250
 5315SOL    MW421028   0.135   4.976   5.282 -0.3453  0.3068 -0.4094
 5316SOL     OW21029   4.817   3.335   0.850  0.4697  0.0839 -0.0867
 5316SOL    HW221030   4.827   3.430   0.851 -1.3556  0.3057  1.0136
 5316SOL    HW321031   4.735   3.319   0.804  0.6741 -0.9685 -0.1197
 5316SOL    MW421032   4.808   3.345   0.844  0.2559 -0.0257  0.0541
 5317SOL     OW21033   2.034   4.818   6.214 -0.9243 -0.3064  0.2553
 5317SOL    HW221034   2.111   4.839   6.267 -0.2676  2.3716 -1.5750
 5317SOL    HW321035   2.065   4.753   6.151 -0.5157 -0.1631  0.3083
 5317SOL    MW421036   2.048   4.812   6.212 -0.7837  0.0658  0.0208
 5318SOL     OW21037   3.181   4.300   4.306  0.4255  0.4248  0.8284
 5318SOL    HW221038   3.273   4.275   4.296 -0.0445 -1.5017  0.8192
 5318SOL    HW321039   3.176   4.336   4.395  1.1145  0.1472  0.9935
 5318SOL    MW421040   3.193   4.301   4.317  0.4544  0.1340  0.8490
 5319SOL     OW21041   0.103   4.459   2.937  0.4337  0.1690  0.3483
 5319SOL    HW221042   0.153   4.468   3.019  1.9124 -0.0835 -0.4917
 5319SOL    HW321043   0.156   4.400   2.883  1.0816  2.7217 -2.0026
 5319SOL    MW421044   0.116   4.452   2.941  0.7143  0.4725 -0.0727
 5320SOL     OW21045   0.905   3.196   0.895 -0.4823  0.5962 -0.5520
 5320SOL    HW221046   0.856   3.252   0.834  0.3349  0.4962 -1.3320
 5320SOL    HW321047   0.928   3.119   0.843 -1.9667 -0.7136  0.6275
 5320SOL    MW421048   0.902   3.194   0.880 -0.5703  0.4102 -0.4993
 5321SOL     OW21049   2.990   5.903   5.622 -0.3979 -0.1811 -0.1584
 5321SOL    HW221050   2.895   5.893   5.620 -0.5685  0.6062  1.8616
 5321SOL    HW321051   3.013   5.928   5.532 -2.3287  1.4378 -0.2850
 5321SOL    MW421052   2.981   5.905   5.610 -0.6751  0.1364  0.0914
 5322SOL     OW21053   6.056   4.788   5.427 -0.4430  0.0208  0.2416
 5322SOL    HW221054   6.094   4.863   5.382 -0.7801  1.4082  2.1456
 5322SOL    HW321055   5.988   4.756   5.368  0.6490  0.2951 -1.2201
 5322SOL    MW421056   6.052   4.793   5.413 -0.3434  0.2400  0.3000
 5323SOL     OW21057   0.457   4.669   0.730 -0.1440  0.0985  0.6729
 5323SOL    HW221058   0.441   4.581   0.765  1.3278 -0.3721  0.2557
 5323SOL    HW321059   0.420   4.728   0.795  1.5985 -0.7620  2.5709
 5323SOL    MW421060   0.450   4.665   0.743  0.2801 -0.0771  0.8682
 5324SOL     OW21061   3.931   1.272   3.134 -0.0452 -0.6660  0.1227
 5324SOL    HW221062   3.938   1.318   3.217  1.7188 -1.0324  0.2172
 5324SOL    HW321063   4.017   1.284   3.093 -0.5346 -1.3805 -1.1725
 5324SOL    MW421064   3.944   1.279   3.139  0.1230 -0.8086 -0.0357
 5325SOL     OW21065   6.321   3.099   0.569  0.3204 -0.2736 -0.0275
 5325SOL    HW221066   6.261   3.169   0.595  1.2623  0.3113  0.6371
 5325SOL    HW321067   6.355   3.065   0.652  0.2652 -1.1839 -0.3635
 5325SOL    MW421068   6.318   3.104   0.584  0.4374 -0.3165  0.0159
 5326SOL     OW21069   3.750   1.340   5.303  0.0050  0.1397  0.5627
 5326SOL    HW221070   3.785   1.259   5.341  0.7590 -0.8462 -2.0125
 5326SOL    HW321071   3.666   1.315   5.266  0.1386  0.5785 -0.0489
 5326SOL    MW421072   3.744   1.326   5.303  0.1221  0.0675  0.1422
 5327SOL     OW21073   0.808   2.841   6.235  0.0878  0.2179 -0.0863
 5327SOL    HW221074   0.892   2.823   6.193 -0.2564  0.8664 -1.0907
 5327SOL    HW321075   0.826   2.838   6.329  1.2877  0.6277 -0.2927
 5327SOL    MW421076   0.821   2.838   6.242  0.2007  0.3575 -0.2460
 5328SOL     OW21077   2.769   6.347   2.338 -0.3349 -0.0886  0.0919
 5328SOL    HW221078   2.795   6.306   2.256  0.0540 -0.1481  0.2454
 5328SOL    HW321079   2.777   6.441   2.322  3.3289 -0.0809  1.1782
 5328SOL    MW421080   2.773   6.354   2.325  0.1998 -0.0954  0.2555
 5329SOL     OW21081   3.103   6.423   3.333 -0.4876  0.3240 -0.4621
 5329SOL    HW221082   3.122   6.336   3.367  1.8252  0.6020 -0.9040
 5329SOL    HW321083   3.118   6.482   3.407  0.7241  0.5674 -0.8733
 5329SOL    MW421084   3.107   6.420   3.347 -0.0226  0.3928 -0.5747
 5330SOL     OW21085   0.946   4.507   3.166  0.7456 -1.0765  0.0123
 5330SOL    HW221086   0.941   4.571   3.095  0.2822  0.7091  1.5929
 5330SOL    HW321087   1.000   4.549   3.233 -2.6092 -0.6763  2.6877
 5330SOL    MW421088   0.953   4.521   3.166  0.2419 -0.7881  0.5738
 5331SOL     OW21089   3.051   5.424   4.605 -0.5239  0.0777  0.8579
 5331SOL    HW221090   3.126   5.417   4.665 -0.1758  2.1700  0.7334
 5331SOL    HW321091   3.088   5.407   4.518 -0.2446  0.7586  0.8374
 5331SOL    MW421092   3.066   5.421   4.601 -0.4411  0.4436  0.8388
 5332SOL     OW21093   1.336   5.489   0.364  0.2038  0.0577  0.1779
 5332SOL    HW221094   1.365   5.571   0.405 -0.8390  0.1435  0.7701
 5332SOL    HW321095   1.304   5.515   0.278 -0.2511  0.3022  0.4167
 5332SOL    MW421096   1.336   5.503   0.358  0.0062  0.1013  0.2875
 5333SOL     OW21097   0.743   4.228   2.039 -0.3701  0.0245  0.3483
 5333SOL    HW221098   0.743   4.226   2.134  0.2695  0.2576  0.3571
 5333SOL    HW321099   0.675   4.164   2.014 -0.2612 -0.3374  0.9513
 5333SOL    MW421100   0.734   4.219   2.048 -0.2714  0.0075  0.4290
 5334SOL     OW21101   0.477   6.411   3.034 -0.2497  0.5266 -0.0367
 5334SOL    HW221102   0.458   6.504   3.030 -1.4371  0.2439 -1.6559
 5334SOL    HW321103   0.530   6.393   2.957 -0.5106 -0.2433 -0.0504
 5334SOL    MW421104   0.481   6.421   3.024 -0.4408  0.3877 -0.2521
 5335SOL     OW21105   1.924   5.949   0.810 -0.2318 -0.2911 -0.0740
 5335SOL    HW221106   1.976   5.873   0.835 -1.1335 -0.4654  1.4348
 5335SOL    HW321107   1.938   6.012   0.881 -0.4320  0.4750 -0.7060
 5335SOL    MW421108   1.932   5.947   0.823 -0.3772 -0.2131  0.0417
 5336SOL     OW21109   6.311   5.231   5.259 -0.0026  0.3777 -0.1902
 5336SOL    HW221110   6.275   5.320   5.263  0.5464  0.6344 -0.7909
 5336SOL    HW321111   6.343   5.214   5.347 -0.7456  0.5057  0.1089
 5336SOL    MW421112   6.310   5.241   5.271 -0.0282  0.4284 -0.2300
 5337SOL     OW21113   0.644   3.725   1.200  0.0951 -0.7010  0.3168
 5337SOL    HW221114   0.644   3.700   1.293  0.4802 -2.2708 -0.0833
 5337SOL    HW321115   0.621   3.645   1.153  0.2537 -0.0166 -0.9726
 5337SOL    MW421116   0.641   3.711   1.206  0.1668 -0.8178  0.0939
 5338SOL     OW21117   6.241   1.370   4.446 -0.2298 -0.7004  0.2169
 5338SOL    HW221118   6.336   1.388   4.445 -0.6057  1.6676  0.6407
 5338SOL    HW321119   6.220   1.350   4.355  0.4032  0.6313 -0.2454
 5338SOL    MW421120   6.251   1.370   4.434 -0.1959 -0.2123  0.2118
 5339SOL     OW21121   0.423   2.009   5.957 -0.1639 -0.3068 -0.1320
 5339SOL    HW221122   0.453   1.934   5.907  0.7239 -1.3931  1.8985
 5339SOL    HW321123   0.336   1.985   5.987 -1.3894  1.0047 -2.3295
 5339SOL    MW421124   0.416   1.996   5.954 -0.2085 -0.2771 -0.1540
 5340SOL     OW21125   5.248   4.183   4.604  0.1470 -0.1314 -0.3063
 5340SOL    HW221126   5.237   4.267   4.559  1.8997  0.1463 -0.2759
 5340SOL    HW321127   5.281   4.124   4.536 -1.1462 -0.8392 -0.3428
 5340SOL    MW421128   5.251   4.186   4.589  0.2077 -0.1882 -0.3071
 5341SOL     OW21129   1.513   4.069   1.414  0.0140  0.7841 -0.2121
 5341SOL    HW221130   1.570   4.107   1.480  1.4341  1.2117 -1.6466
 5341SOL    HW321131   1.425   4.097   1.440  0.3334 -0.2678  2.2912
 5341SOL    MW421132   1.509   4.077   1.426  0.2435  0.7017 -0.0711
 5342SOL     OW21133   2.105   1.107   5.152  0.3395  0.3680  0.4670
 5342SOL    HW221134   2.140   1.069   5.071  1.3433  2.6321 -0.2604
 5342SOL    HW321135   2.022   1.147   5.126  0.3773  0.5956  0.6948
 5342SOL    MW421136   2.099   1.107   5.138  0.4769  0.6968  0.4011
 5343SOL     OW21137   5.739   2.844   4.352  0.1793  0.1469  0.1388
 5343SOL    HW221138   5.748   2.918   4.292 -1.1858  0.0960 -0.1736
 5343SOL    HW321139   5.790   2.774   4.312  1.4425  0.8936  0.4136
 5343SOL    MW421140   5.747   2.844   4.339  0.1659  0.2387  0.1339
 5344SOL     OW21141   1.767   4.997   0.724 -0.5733 -0.2117  0.1004
 5344SOL    HW221142   1.791   5.009   0.815 -0.3386  0.6836 -0.0704
 5344SOL    HW321143   1.697   4.931   0.726 -1.7742  1.0270  1.0959
 5344SOL    MW421144   1.761   4.989   0.736 -0.7008  0.0699  0.2092
 5345SOL     OW21145   1.343   5.237   0.568  0.1899 -0.6451  0.2101
 5345SOL    HW221146   1.253   5.271   0.563 -0.5311 -2.3597  0.5625
 5345SOL    HW321147   1.336   5.162   0.628  1.5598 -1.7260 -0.9180
 5345SOL    MW421148   1.330   5.232   0.575  0.2756 -1.0140  0.1078
 5346SOL     OW21149   4.255   1.360   6.025  0.5081 -0.0285 -0.4748
 5346SOL    HW221150   4.339   1.352   5.979  0.1078  1.1981 -1.4752
 5346SOL    HW321151   4.210   1.277   6.007  1.3077 -0.4952 -0.3391
 5346SOL    MW421152   4.260   1.348   6.017  0.5608  0.0718 -0.5889
 5347SOL     OW21153   5.520   4.061   0.973  0.1060 -0.1400 -0.0392
 5347SOL    HW221154   5.511   4.154   0.955  1.9225  0.0179 -0.3363
 5347SOL    HW321155   5.540   4.056   1.067  0.5587 -0.1788 -0.1351
 5347SOL    MW421156   5.522   4.072   0.983  0.4054 -0.1243 -0.0910
 5348SOL     OW21157   3.596   3.485   6.040 -0.2686  0.3669  0.4351
 5348SOL    HW221158   3.603   3.466   6.133 -2.5119 -0.5442  0.4786
 5348SOL    HW321159   3.532   3.556   6.034  1.0135  1.5209 -0.3581
 5348SOL    MW421160   3.589   3.492   6.051 -0.3954  0.3990  0.3362
 5349SOL     OW21161   0.417   2.892   6.425 -0.1487  0.3048 -0.4420
 5349SOL    HW221162   0.336   2.868   6.379  0.7221  0.4544 -2.1331
 5349SOL    HW321163   0.486   2.843   6.380  0.6852 -0.1260  1.2212
 5349SOL    MW421164   0.415   2.883   6.413  0.0762  0.2677 -0.4457
 5350SOL     OW21165   6.285   5.058   3.266 -0.1127  0.2811  0.1328
 5350SOL    HW221166   6.360   5.099   3.223 -0.1014  1.0501  0.8461
 5350SOL    HW321167   6.306   5.063   3.359 -1.2642  0.9616  0.3708
 5350SOL    MW421168   6.298   5.064   3.273 -0.2631  0.4724  0.2583
 5351SOL     OW21169   0.862   5.696   5.717  0.3876  0.3344  0.2466
 5351SOL    HW221170   0.868   5.720   5.809 -0.7387  0.9054  0.1940
 5351SOL    HW321171   0.803   5.620   5.717  0.7284  0.0682  0.0330
 5351SOL    MW421172   0.855   5.689   5.729  0.2840  0.3746  0.2115
 5352SOL     OW21173   5.809   2.269   1.835  0.3894 -0.1590  0.4711
 5352SOL    HW221174   5.823   2.268   1.930  0.0280 -1.1395  0.5213
 5352SOL    HW321175   5.776   2.182   1.815  0.4302  0.0557 -0.5576
 5352SOL    MW421176   5.807   2.257   1.845  0.3471 -0.2600  0.3420
 5353SOL     OW21177   2.570   1.810   1.916  0.2494 -0.5218  0.5408
 5353SOL    HW221178   2.497   1.825   1.855  0.7782 -1.5740 -0.3666
 5353SOL    HW321179   2.527   1.802   2.002 -0.6126 -0.2440  0.1521
 5353SOL    MW421180   2.554   1.811   1.919  0.2055 -0.6239  0.3698
 5354SOL     OW21181   1.112   1.032   6.222 -0.6027  0.0193  0.0762
 5354SOL    HW221182   1.131   0.939   6.229 -1.0961 -0.2158 -1.4241
 5354SOL    HW321183   1.194   1.071   6.192 -1.0419 -0.3053 -1.6569
 5354SOL    MW421184   1.125   1.025   6.219 -0.7257 -0.0545 -0.3504
 5355SOL     OW21185   1.387   2.773   2.404  0.1553  0.2053 -0.1144
 5355SOL    HW221186   1.330   2.714   2.453  2.2628 -1.2236  0.7117
 5355SOL    HW321187   1.476   2.750   2.430  1.1446  3.1049 -0.4952
 5355SOL    MW421188   1.391   2.762   2.414  0.5639  0.3993 -0.0556
 5356SOL     OW21189   1.662   2.160   5.245 -0.7850 -0.2537 -0.0974
 5356SOL    HW221190   1.594   2.107   5.203  0.3650 -0.5864 -1.6385
 5356SOL    HW321191   1.619   2.244   5.263 -1.4332 -0.2002 -1.6960
 5356SOL    MW421192   1.647   2.164   5.242 -0.7188 -0.2905 -0.5116
 5357SOL     OW21193   2.468   2.190   3.978 -0.5442 -0.4269 -0.1468
 5357SOL    HW221194   2.450   2.218   3.888 -0.3109 -0.6196 -0.2532
 5357SOL    HW321195   2.396   2.226   4.029  0.2135  1.1824 -0.1326
 5357SOL    MW421196   2.456   2.199   3.973 -0.4135 -0.2400 -0.1589
 5358SOL     OW21197   2.902   3.621   2.681 -0.1051 -0.3288 -0.1932
 5358SOL    HW221198   2.814   3.646   2.710 -0.3295 -1.1155 -0.1769
 5358SOL    HW321199   2.908   3.656   2.592 -0.7523 -0.9743 -0.5034
 5358SOL    MW421200   2.891   3.629   2.673 -0.2201 -0.5178 -0.2319
 5359SOL     OW21201   3.083   2.522   6.144 -0.4198  0.4765  0.0089
 5359SOL    HW221202   3.086   2.521   6.240 -0.1534  0.9046  0.0062
 5359SOL    HW321203   3.171   2.497   6.117  0.3283  2.9449 -0.1009
 5359SOL    MW421204   3.095   2.519   6.153 -0.2860  0.8586 -0.0059
 5360SOL     OW21205   0.331   1.276   0.611  0.0411 -0.2281  0.5256
 5360SOL    HW221206   0.340   1.216   0.685  1.3729  0.7612  1.2117
 5360SOL    HW321207   0.294   1.222   0.541 -0.4024 -1.4083  1.6320
 5360SOL    MW421208   0.328   1.261   0.611  0.1583 -0.2533  0.7621
 5361SOL     OW21209   6.060   1.517   5.072  0.1095 -0.1847  0.3155
 5361SOL    HW221210   5.978   1.468   5.072  0.0842 -0.1555 -0.2963
 5361SOL    HW321211   6.083   1.527   5.164  0.6826 -2.2729  0.4625
 5361SOL    MW421212   6.052   1.512   5.084  0.1817 -0.4563  0.2542
 5362SOL     OW21213   4.371   5.462   4.792 -0.6240 -0.1329  0.2213
 5362SOL    HW221214   4.449   5.408   4.778  0.7551  1.6699  0.5961
 5362SOL    HW321215   4.363   5.514   4.713 -2.2575 -1.1925 -0.3576
 5362SOL    MW421216   4.380   5.462   4.780 -0.6576 -0.0348  0.1944
 5363SOL     OW21217   2.945   0.451   2.319 -0.1426  0.0503 -0.0314
 5363SOL    HW221218   2.950   0.512   2.245 -1.9728  0.2708 -0.0234
 5363SOL    HW321219   2.880   0.386   2.293 -1.4946  0.6249  1.6924
 5363SOL    MW421220   2.937   0.451   2.306 -0.5624  0.1552  0.1971
 5364SOL     OW21221   0.779   4.605   1.731 -0.5079 -0.6482 -0.0783
 5364SOL    HW221222   0.744   4.635   1.647  0.2532 -0.9945 -0.5276
 5364SOL    HW321223   0.761   4.511   1.733 -3.0395 -0.2179  1.4005
 5364SOL    MW421224   0.772   4.597   1.720 -0.7415 -0.6371  0.0575
 5365SOL     OW21225   4.040   5.629   0.102 -1.0145 -0.2124 -0.1299
 5365SOL    HW221226   4.053   5.550   0.050 -1.4643 -0.1130 -0.3912
 5365SOL    HW321227   4.019   5.697   0.039 -0.6209  0.1212  0.0950
 5365SOL    MW421228   4.039   5.627   0.087 -1.0219 -0.1553 -0.1347
 5366SOL     OW21229   4.930   0.199   2.478  0.2371 -0.1274  0.3062
 5366SOL    HW221230   4.897   0.288   2.465 -0.7972 -0.1886  2.1413
 5366SOL    HW321231   4.851   0.145   2.489  0.8356 -1.3167 -0.9447
 5366SOL    MW421232   4.915   0.203   2.478  0.1796 -0.2924  0.3833
 5367SOL     OW21233   0.548   4.203   3.749 -0.2298  0.5053  0.1324
 5367SOL    HW221234   0.615   4.163   3.694  2.2044  2.3536  1.5012
 5367SOL    HW321235   0.532   4.139   3.818 -1.7537 -0.9441 -1.4635
 5367SOL    MW421236   0.555   4.189   3.751 -0.1097  0.5580  0.1025
 5368SOL     OW21237   1.640   3.392   1.776  0.4745  0.0724 -0.2100
 5368SOL    HW221238   1.619   3.351   1.860 -1.5182 -0.4364 -0.8806
 5368SOL    HW321239   1.601   3.480   1.783  1.9577  0.7313  0.0608
 5368SOL    MW421240   1.632   3.399   1.788  0.4073  0.0922 -0.2628
 5369SOL     OW21241   3.966   5.224   0.111  0.1274  0.1034  0.2841
 5369SOL    HW221242   3.879   5.187   0.099 -0.0495  0.5869  0.0788
 5369SOL    HW321243   4.020   5.150   0.140  0.0749 -0.6249 -1.3942
 5369SOL    MW421244   3.962   5.209   0.113  0.0972  0.0711  0.0356
 5370SOL     OW21245   2.741   3.496   0.400  0.0439  0.3592  0.4290
 5370SOL    HW221246   2.677   3.425   0.397  1.4990 -1.1450  2.1279
 5370SOL    HW321247   2.720   3.544   0.480 -0.9332  1.9364 -0.7082
 5370SOL    MW421248   2.730   3.493   0.410  0.1069  0.3688  0.5031
 5371SOL     OW21249   3.212   5.304   3.923  0.5680 -0.7541  0.3027
 5371SOL    HW221250   3.195   5.215   3.955 -3.7285 -0.2534 -0.0364
 5371SOL    HW321251   3.251   5.291   3.836  1.8773 -2.2310  1.0697
 5371SOL    MW421252   3.215   5.290   3.915  0.1739 -0.8829  0.3591
 5372SOL     OW21253   1.845   2.629   0.398 -0.0781  0.0930 -0.2721
 5372SOL    HW221254   1.927   2.606   0.357  0.4667  1.6479 -0.1249
 5372SOL    HW321255   1.840   2.573   0.476  0.7597 -0.1205 -0.3685
 5372SOL    MW421256   1.855   2.619   0.403  0.1043  0.2700 -0.2654
 5373SOL     OW21257   4.713   4.038   2.601 -0.5762  0.2943  0.4909
 5373SOL    HW221258   4.710   4.018   2.695  1.4276  1.2263  0.8099
 5373SOL    HW321259   4.801   4.012   2.574 -1.3031 -0.4848 -1.2940
 5373SOL    MW421260   4.724   4.032   2.610 -0.4077  0.3145  0.2975
 5374SOL     OW21261   3.540   1.469   0.387  0.2256 -0.2454  0.1309
 5374SOL    HW221262   3.549   1.391   0.333 -0.4760  0.4272 -0.9830
 5374SOL    HW321263   3.446   1.482   0.397  0.3195 -0.6828  2.0482
 5374SOL    MW421264   3.529   1.460   0.381  0.1455 -0.2144  0.2369
 5375SOL     OW21265   4.480   3.511   4.576  0.1235 -0.4400  0.2632
 5375SOL    HW221266   4.452   3.500   4.486  0.0565  1.2864  0.0360
 5375SOL    HW321267   4.553   3.573   4.571 -0.0628 -0.0991  1.3993
 5375SOL    MW421268   4.486   3.518   4.564  0.0901 -0.1672  0.3831
 5376SOL     OW21269   3.431   4.405   3.358 -0.7236  0.2001 -0.7758
 5376SOL    HW221270   3.384   4.328   3.327 -1.4648  0.8260 -1.2531
 5376SOL    HW321271   3.365   4.475   3.358 -0.5430  0.4373  1.4018
 5376SOL    MW421272   3.416   4.404   3.354 -0.7975  0.3140 -0.5515
 5377SOL     OW21273   5.297   4.005   4.805 -0.3094 -0.1209 -0.1602
 5377SOL    HW221274   5.389   3.980   4.811 -0.3553  0.0342  2.5981
 5377SOL    HW321275   5.296   4.074   4.739  1.0695 -1.8801 -2.1508
 5377SOL    MW421276   5.309   4.011   4.797 -0.1335 -0.3326 -0.0589
 5378SOL     OW21277   3.885   4.933   5.567 -0.1036  0.1718 -0.0993
 5378SOL    HW221278   3.935   4.922   5.486 -1.8126  0.1521 -1.2278
 5378SOL    HW321279   3.845   5.020   5.558 -0.5605  0.0407  0.5777
 5378SOL    MW421280   3.886   4.943   5.555 -0.3893  0.1519 -0.1589
 5379SOL     OW21281   5.614   4.406   3.084  0.0491 -0.5636 -0.0177
 5379SOL    HW221282   5.706   4.434   3.079 -0.2569  0.8095  1.3308
 5379SOL    HW321283   5.609   4.331   3.024  2.4188 -1.6980  1.0443
 5379SOL    MW421284   5.625   4.400   3.075  0.3214 -0.5321  0.3003
 5380SOL     OW21285   5.349   3.882   0.576  0.0253  0.0460 -0.4438
 5380SOL    HW221286   5.329   3.888   0.670  2.0812 -1.8583  0.2060
 5380SOL    HW321287   5.274   3.838   0.538  0.3588 -1.8345  0.8874
 5380SOL    MW421288   5.337   3.877   0.584  0.3406 -0.4533 -0.1824
 5381SOL     OW21289   1.776   3.108   5.576 -0.1152 -1.0480 -0.0771
 5381SOL    HW221290   1.695   3.063   5.554 -1.3414  1.9633 -2.6249
 5381SOL    HW321291   1.845   3.057   5.533 -0.9663 -2.3034  0.0106
 5381SOL    MW421292   1.775   3.096   5.567 -0.3892 -0.8163 -0.4017
 5382SOL     OW21293   5.598   3.987   6.433 -0.2881 -0.1899  0.1669
 5382SOL    HW221294   5.519   3.947   6.396 -0.0276  0.5038 -1.2214
 5382SOL    HW321295   5.666   3.920   6.423  0.0715  0.4104 -1.8495
 5382SOL    MW421296   5.596   3.973   6.427 -0.2063 -0.0191 -0.2823
 5383SOL     OW21297   2.512   3.320   5.457  0.0922  0.2876  0.1338
 5383SOL    HW221298   2.529   3.403   5.502 -0.9348 -0.0107  1.1095
 5383SOL    HW321299   2.591   3.268   5.472 -0.2476  0.1655  1.7170
 5383SOL    MW421300   2.525   3.324   5.465 -0.0881  0.2321  0.4714
 5384SOL     OW21301   0.168   2.189   1.309  0.1914 -0.2051 -0.0450
 5384SOL    HW221302   0.220   2.247   1.253 -0.1909  1.5801  1.3450
 5384SOL    HW321303   0.220   2.181   1.389  0.2221 -1.8107 -0.2042
 5384SOL    MW421304   0.182   2.196   1.312  0.1450 -0.1814  0.1174
 5385SOL     OW21305   6.257   0.277   5.810  0.5169 -0.2450  0.2378
 5385SOL    HW221306   6.185   0.218   5.788  0.3725  0.0061  0.0335
 5385SOL    HW321307   6.215   0.351   5.854  0.5726  0.2028 -0.4494
 5385SOL    MW421308   6.242   0.279   5.813  0.5052 -0.1528  0.1202
 5386SOL     OW21309   2.468   4.711   0.678  0.2014 -0.1512  0.5712
 5386SOL    HW221310   2.455   4.788   0.622  0.1934  0.7473  1.7795
 5386SOL    HW321311   2.384   4.699   0.722  0.9038  0.6505  2.2001
 5386SOL    MW421312   2.455   4.720   0.676  0.2930  0.0731  0.9455
 5387SOL     OW21313   0.577   0.328   3.953 -0.4369  0.1094  0.4222
 5387SOL    HW221314   0.525   0.382   4.013 -0.4372 -0.4289  0.9201
 5387SOL    HW321315   0.634   0.390   3.908 -0.8203  0.5896  0.5844
 5387SOL    MW421316   0.578   0.343   3.955 -0.4876  0.1017  0.5093
 5388SOL     OW21317   3.393   6.251   5.574 -0.2774 -0.4950 -0.6294
 5388SOL    HW221318   3.356   6.164   5.561  0.2731 -0.9368  0.6549
 5388SOL    HW321319   3.464   6.238   5.636  0.1548  0.7937 -0.8323
 5388SOL    MW421320   3.397   6.238   5.580 -0.1478 -0.3832 -0.4867
 5389SOL     OW21321   4.624   0.955   1.593 -0.9614 -0.5610  0.1971
 5389SOL    HW221322   4.610   0.980   1.684 -0.9705  0.2071 -0.0083
 5389SOL    HW321323   4.591   1.029   1.542  0.4435 -0.2961 -0.3852
 5389SOL    MW421324   4.618   0.968   1.598 -0.7773 -0.4247  0.0931
 5390SOL     OW21325   1.534   5.164   2.913 -0.0198 -0.0222  0.2191
 5390SOL    HW221326   1.599   5.095   2.920  1.6044  1.5247  1.1081
 5390SOL    HW321327   1.499   5.173   3.002 -2.8787 -2.0424 -0.5456
 5390SOL    MW421328   1.538   5.156   2.926 -0.1827 -0.0846  0.2355
 5391SOL     OW21329   3.385   4.068   0.563  0.2206  0.1346  0.1133
 5391SOL    HW221330   3.355   4.080   0.653  1.4094  2.4463  0.2669
 5391SOL    HW321331   3.405   4.156   0.532  2.6669 -0.8432 -1.4138
 5391SOL    MW421332   3.384   4.081   0.571  0.7002  0.3106 -0.0679
 5392SOL     OW21333   4.912   4.367   1.793 -0.1308  0.8173  0.7400
 5392SOL    HW221334   4.855   4.436   1.827 -0.8786 -0.4656  2.2263
 5392SOL    HW321335   4.997   4.409   1.783 -0.3515  1.7662  2.4584
 5392SOL    MW421336   4.916   4.381   1.796 -0.2586  0.7733  1.1628
 5393SOL     OW21337   2.296   2.850   1.412  0.3472  0.3501 -0.7239
 5393SOL    HW221338   2.292   2.804   1.495  1.5680 -0.9721 -1.3711
 5393SOL    HW321339   2.269   2.785   1.347  2.3815  0.4194 -1.6921
 5393SOL    MW421340   2.292   2.836   1.414  0.7767  0.1848 -0.9370
 5394SOL     OW21341   3.444   4.906   5.621  0.0925  0.4506  0.4825
 5394SOL    HW221342   3.440   4.929   5.714  0.3832  0.4836  0.4865
 5394SOL    HW321343   3.434   4.990   5.575 -4.1884  0.1041  0.3797
 5394SOL    MW421344   3.442   4.920   5.627 -0.4340  0.4093  0.4695
 5395SOL     OW21345   4.780   3.082   2.924 -0.2336  0.4128  0.0713
 5395SOL    HW221346   4.757   2.994   2.893 -1.1373 -0.5490  3.0928
 5395SOL    HW321347   4.711   3.103   2.988 -0.9877  4.0622 -1.6870
 5395SOL    MW421348   4.768   3.073   2.928 -0.4523  0.7674  0.2380
 5396SOL     OW21349   5.372   4.006   3.855 -0.4719 -0.0114 -0.1700
 5396SOL    HW221350   5.450   4.028   3.804  0.4850 -1.7000  0.4679
 5396SOL    HW321351   5.308   4.074   3.832  0.2389 -0.1256 -2.8061
 5396SOL    MW421352   5.374   4.018   3.845 -0.2518 -0.2493 -0.4337
 5397SOL     OW21353   4.082   5.362   5.192  0.0596 -0.5061  0.0402
 5397SOL    HW221354   4.129   5.363   5.109  1.2239 -1.3933  0.6628
 5397SOL    HW321355   3.998   5.404   5.172  0.7961  0.4376 -1.2771
 5397SOL    MW421356   4.077   5.368   5.178  0.3104 -0.4987 -0.0514
 5398SOL     OW21357   0.946   6.186   3.552 -0.3282  0.0365 -0.0628
 5398SOL    HW221358   0.885   6.260   3.549  0.4218  0.6293 -1.4883
 5398SOL    HW321359   1.033   6.226   3.552  0.0803 -0.8377  0.0020
 5398SOL    MW421360   0.949   6.201   3.552 -0.1753 -0.0006 -0.2423
 5399SOL     OW21361   2.583   5.373   3.981  0.0286 -0.8849 -0.2519
 5399SOL    HW221362   2.558   5.415   3.899 -0.4533  0.3039  0.4866
 5399SOL    HW321363   2.652   5.311   3.955  1.1038  0.6813 -1.3179
 5399SOL    MW421364   2.589   5.370   3.967  0.1069 -0.5214 -0.2951
 5400SOL     OW21365   5.024   3.269   4.407  0.0032 -0.1089 -0.1555
 5400SOL    HW221366   4.945   3.221   4.431  1.0030 -1.2003  1.1311
 5400SOL    HW321367   5.036   3.332   4.478  0.6301 -0.4114  0.0227
 5400SOL    MW421368   5.015   3.271   4.420  0.2178 -0.2928  0.0378
 5401SOL     OW21369   2.554   1.687   3.778 -0.2636  0.1444 -0.3313
 5401SOL    HW221370   2.629   1.731   3.817 -0.6300  0.6369 -0.1745
 5401SOL    HW321371   2.548   1.722   3.690  1.5878 -2.1908 -1.4935
 5401SOL    MW421372   2.563   1.697   3.772 -0.0677 -0.0987 -0.4639
 5402SOL     OW21373   5.722   5.176   0.644 -0.5949 -0.1146  0.2186
 5402SOL    HW221374   5.629   5.175   0.623 -0.5347 -0.2877 -0.0450
 5402SOL    HW321375   5.749   5.084   0.644 -0.3939 -0.0587  0.1424
 5402SOL    MW421376   5.714   5.164   0.641 -0.5605 -0.1300  0.1737
 5403SOL     OW21377   3.194   3.974   1.162  0.4198 -0.4077 -0.3982
 5403SOL    HW221378   3.273   3.922   1.143  0.6553  0.1174 -0.8900
 5403SOL    HW321379   3.151   3.927   1.233  0.8576 -1.0412 -0.5420
 5403SOL    MW421380   3.199   3.961   1.169  0.5086 -0.4220 -0.4821
 5404SOL     OW21381   3.407   0.372   3.033 -0.2403 -0.3452  0.0645
 5404SOL    HW221382   3.386   0.436   2.965 -0.8778 -0.5668  0.0404
 5404SOL    HW321383   3.416   0.423   3.113  3.7391  0.4030 -0.6307
 5404SOL    MW421384   3.405   0.387   3.034  0.2006 -0.2757 -0.0304
 5405SOL     OW21385   6.068   2.367   4.579 -0.0634 -0.0655  0.2643
 5405SOL    HW221386   6.069   2.392   4.671  0.9613  1.3788 -0.1106
 5405SOL    HW321387   5.977   2.374   4.553 -0.1740  0.8415  0.8488
 5405SOL    MW421388   6.056   2.371   4.588  0.0572  0.2447  0.2920
 5406SOL     OW21389   3.265   4.148   1.939 -0.0572 -0.2327 -0.4238
 5406SOL    HW221390   3.234   4.139   1.848  0.4128  0.2849 -0.6398
 5406SOL    HW321391   3.324   4.074   1.951  1.7008  0.9344 -1.3220
 5406SOL    MW421392   3.269   4.137   1.928  0.2368 -0.0104 -0.5708
 5407SOL     OW21393   4.069   4.063   6.307 -0.2822  0.5902 -0.0596
 5407SOL    HW221394   4.134   4.116   6.355  0.8962 -2.2521  1.7202
 5407SOL    HW321395   4.121   3.997   6.261 -1.7814 -0.1416 -0.7654
 5407SOL    MW421396   4.085   4.062   6.308 -0.3245  0.1186  0.0821
 5408SOL     OW21397   2.734   0.718   1.073 -0.6525  0.1177  0.1350
 5408SOL    HW221398   2.730   0.641   1.015 -0.5544  0.9068 -0.9537
 5408SOL    HW321399   2.737   0.681   1.161  0.1057 -1.1491 -0.3849
 5408SOL    MW421400   2.734   0.703   1.077 -0.5395  0.0547 -0.0772
 5409SOL     OW21401   0.942   5.249   1.968 -0.2058 -0.2164 -0.5363
 5409SOL    HW221402   1.028   5.248   2.010 -0.5523 -0.5270  0.1947
 5409SOL    HW321403   0.897   5.171   2.003 -0.8575  0.0551 -0.7416
 5409SOL    MW421404   0.947   5.238   1.978 -0.3375 -0.2215 -0.4669
 5410SOL     OW21405   3.440   4.684   2.160 -0.1890 -0.6354 -0.3167
 5410SOL    HW221406   3.371   4.693   2.094 -0.8860 -0.9854  0.3500
 5410SOL    HW321407   3.521   4.688   2.110 -0.5677  2.2314 -0.9042
 5410SOL    MW421408   3.441   4.686   2.144 -0.3309 -0.3034 -0.3063
 5411SOL     OW21409   4.216   1.291   3.094  0.1094  0.1656  0.0246
 5411SOL    HW221410   4.265   1.276   3.013  1.5529  0.6799  0.7738
 5411SOL    HW321411   4.245   1.221   3.153  1.0485  1.2923  0.9485
 5411SOL    MW421412   4.226   1.280   3.091  0.4238  0.3821  0.2454
 5412SOL     OW21413   1.855   3.115   4.726  0.3649  0.3976  0.7096
 5412SOL    HW221414   1.930   3.157   4.770  2.1721 -0.2207 -1.5745
 5412SOL    HW321415   1.793   3.186   4.711  1.3278  1.3244  0.9672
 5412SOL    MW421416   1.857   3.130   4.730  0.7304  0.4383  0.4422
 5413SOL     OW21417   4.312   2.419   5.638  0.1222  0.2531  0.0758
 5413SOL    HW221418   4.368   2.400   5.713  0.3027 -1.5827 -0.4727
 5413SOL    HW321419   4.300   2.514   5.640  2.9662  0.6789  0.3986
 5413SOL    MW421420   4.318   2.429   5.648  0.5212  0.0670  0.0460
 5414SOL     OW21421   5.052   2.307   5.028  0.2643  0.6982 -0.2348
 5414SOL    HW221422   4.972   2.275   5.071 -0.6315  1.7467 -1.0667
 5414SOL    HW321423   5.111   2.327   5.100 -0.7941  1.3487  0.4858
 5414SOL    MW421424   5.049   2.305   5.043  0.0064  0.9224 -0.2495
 5415SOL     OW21425   4.128   4.152   2.645  0.0140 -0.1055  0.4204
 5415SOL    HW221426   4.088   4.238   2.634 -0.3037 -0.3511 -0.4470
 5415SOL    HW321427   4.198   4.150   2.581 -0.5562 -0.8224 -0.2026
 5415SOL    MW421428   4.132   4.163   2.635 -0.1032 -0.2325  0.2237
 5416SOL     OW21429   5.636   3.993   1.242  0.1440 -0.2942 -0.7783
 5416SOL    HW221430   5.723   4.029   1.261 -0.7529  0.6668  2.1817
 5416SOL    HW321431   5.650   3.899   1.237  1.4434 -0.1172 -0.8140
 5416SOL    MW421432   5.649   3.986   1.244  0.1971 -0.1441 -0.3925
 5417SOL     OW21433   1.085   3.998   4.235  0.2523  0.0951 -0.5551
 5417SOL    HW221434   1.094   4.092   4.220 -1.5887  0.2654 -0.9114
 5417SOL    HW321435   1.006   3.990   4.289  2.5034 -1.0313  2.8876
 5417SOL    MW421436   1.076   4.010   4.240  0.3064 -0.0311 -0.1479
 5418SOL     OW21437   0.547   1.431   0.493 -0.2138 -0.0076 -0.0545
 5418SOL    HW221438   0.483   1.382   0.544 -0.2591  1.5837  1.5035
 5418SOL    HW321439   0.631   1.389   0.513 -0.3899 -0.1686  0.3634
 5418SOL    MW421440   0.550   1.419   0.502 -0.2430  0.1811  0.2062
 5419SOL     OW21441   0.012   1.883   5.288 -0.6570  0.2776 -0.1980
 5419SOL    HW221442   0.051   1.898   5.202  1.2337 -1.3424  0.2940
 5419SOL    HW321443   0.002   1.788   5.294  0.1933  0.2498  1.7140
 5419SOL    MW421444   0.016   1.873   5.277 -0.2954  0.0602  0.1192
 5420SOL     OW21445   3.014   0.381   0.655  0.1435  0.3674  0.4646
 5420SOL    HW221446   2.920   0.361   0.659  0.0822  0.0222 -1.5984
 5420SOL    HW321447   3.054   0.323   0.719 -0.9345 -0.2836  0.5677
 5420SOL    MW421448   3.007   0.371   0.664 -0.0068  0.2360  0.2060
 5421SOL     OW21449   5.416   4.326   3.664 -0.1260  0.2955  0.0475
 5421SOL    HW221450   5.465   4.280   3.596  1.2115  3.9520 -1.7248
 5421SOL    HW321451   5.479   4.338   3.735  0.6501  2.1595 -0.8894
 5421SOL    MW421452   5.431   4.321   3.665  0.1529  1.0239 -0.3100
 5422SOL     OW21453   0.753   2.651   3.876  0.2702 -0.1257 -1.0387
 5422SOL    HW221454   0.659   2.650   3.895  0.6101 -2.1297  1.0103
 5422SOL    HW321455   0.768   2.735   3.833 -2.1298  1.1613  0.4033
 5422SOL    MW421456   0.743   2.662   3.873 -0.0016 -0.2203 -0.5781
 5423SOL     OW21457   5.428   4.087   6.183  0.1595  1.1791  0.0505
 5423SOL    HW221458   5.515   4.124   6.164  0.7204  0.5214  1.2074
 5423SOL    HW321459   5.386   4.081   6.097  1.9542 -0.1963 -0.8150
 5423SOL    MW421460   5.434   4.091   6.169  0.4703  0.9108  0.0890
 5424SOL     OW21461   0.264   6.255   5.956  0.2230  0.3523 -0.5428
 5424SOL    HW221462   0.190   6.305   5.991 -0.9101 -1.1119 -0.7567
 5424SOL    HW321463   0.341   6.306   5.981 -0.7730  1.2836  0.7789
 5424SOL    MW421464   0.264   6.268   5.964 -0.0579  0.2820 -0.3966
 5425SOL     OW21465   1.874   5.583   2.593  0.0061 -0.3127  0.1685
 5425SOL    HW221466   1.814   5.657   2.596 -2.3464 -2.0586 -0.2729
 5425SOL    HW321467   1.942   5.609   2.530 -1.6991  0.8365 -1.2972
 5425SOL    MW421468   1.875   5.596   2.585 -0.5292 -0.3914 -0.0831
 5426SOL     OW21469   5.728   5.282   3.788 -0.2732 -0.1656 -0.0513
 5426SOL    HW221470   5.748   5.198   3.830 -0.1918 -0.2798 -0.3151
 5426SOL    HW321471   5.701   5.339   3.859  0.1008 -0.2861  0.1862
 5426SOL    MW421472   5.727   5.278   3.803 -0.2131 -0.1965 -0.0548
 5427SOL     OW21473   5.747   0.628   3.741  0.3682  0.4885 -0.2011
 5427SOL    HW221474   5.760   0.677   3.822  2.2801 -0.6529  0.2488
 5427SOL    HW321475   5.771   0.538   3.763  1.3836  0.2344 -2.1515
 5427SOL    MW421476   5.752   0.623   3.754  0.7544  0.3044 -0.3991
 5428SOL     OW21477   2.860   1.209   1.306 -0.1273 -0.7113  0.0573
 5428SOL    HW221478   2.837   1.272   1.238  0.0918 -1.2580 -0.5335
 5428SOL    HW321479   2.890   1.263   1.379  0.4427 -0.1341 -0.5789
 5428SOL    MW421480   2.861   1.225   1.307 -0.0232 -0.7073 -0.1045
 5429SOL     OW21481   2.348   2.537   0.907  0.4616 -0.1695  0.5724
 5429SOL    HW221482   2.425   2.527   0.852  0.1864  0.5169  0.0473
 5429SOL    HW321483   2.362   2.619   0.954 -0.3045  0.3904 -0.1382
 5429SOL    MW421484   2.360   2.546   0.906  0.3242 -0.0050  0.4094
 5430SOL     OW21485   1.432   3.338   3.045 -0.0762  0.0312 -0.0204
 5430SOL    HW221486   1.394   3.332   3.133 -0.3344 -1.1546 -0.1950
 5430SOL    HW321487   1.404   3.257   3.002  0.0520  0.5994 -1.1971
 5430SOL    MW421488   1.423   3.326   3.051 -0.0934 -0.0503 -0.1987
 5431SOL     OW21489   3.528   1.566   5.979  0.6587  0.2104  0.2353
 5431SOL    HW221490   3.546   1.658   5.962 -0.1912  0.6385  1.5169
 5431SOL    HW321491   3.572   1.548   6.062  0.3000 -0.3759  0.3055
 5431SOL    MW421492   3.536   1.576   5.988  0.4992  0.1895  0.4137
 5432SOL     OW21493   1.125   0.112   5.816  0.3450 -1.2476  0.3529
 5432SOL    HW221494   1.173   0.078   5.740 -1.6929  0.1164 -1.6604
 5432SOL    HW321495   1.191   0.160   5.866  1.2862 -0.0143 -1.9374
 5432SOL    MW421496   1.140   0.114   5.813  0.2003 -0.9049 -0.2149
 5433SOL     OW21497   1.061   1.765   4.807  0.0585 -0.1886 -0.0998
 5433SOL    HW221498   0.977   1.725   4.785 -1.1044  1.0981  1.7119
 5433SOL    HW321499   1.062   1.847   4.757  0.0682 -0.0506  0.1244
 5433SOL    MW421500   1.050   1.770   4.797 -0.0936 -0.0006  0.1688
 5434SOL     OW21501   3.564   3.732   0.715  0.3515  0.0171  0.1438
 5434SOL    HW221502   3.479   3.762   0.747  0.5687  1.6449 -0.7139
 5434SOL    HW321503   3.590   3.663   0.777 -1.0078  0.3728  1.1483
 5434SOL    MW421504   3.556   3.727   0.728  0.2009  0.2788  0.1632
 5435SOL     OW21505   6.380   3.785   3.322  0.1784  0.4499 -0.1284
 5435SOL    HW221506   6.328   3.757   3.246 -0.4841  0.4235  0.3228
 5435SOL    HW321507   6.360   3.879   3.330  1.4295  0.8021 -0.8939
 5435SOL    MW421508   6.370   3.794   3.313  0.2561  0.4929 -0.1699
 5436SOL     OW21509   0.407   4.188   4.853  0.4466 -0.2320  0.7398
 5436SOL    HW221510   0.414   4.107   4.904 -2.1063 -2.0990 -1.6026
 5436SOL    HW321511   0.374   4.253   4.916  0.4267 -1.5742  2.1778
 5436SOL    MW421512   0.404   4.186   4.868  0.1071 -0.6554  0.6204
 5437SOL     OW21513   2.069   4.765   3.619 -0.1079 -0.1355  0.4733
 5437SOL    HW221514   2.004   4.714   3.669 -1.0583  0.6352  0.0600
 5437SOL    HW321515   2.139   4.782   3.681 -0.8405  0.0047  1.2807
 5437SOL    MW421516   2.069   4.760   3.634 -0.3300 -0.0153  0.5253
 5438SOL     OW21517   2.399   1.583   4.393 -0.1590  0.2194 -0.0083
 5438SOL    HW221518   2.407   1.588   4.489 -1.1937  0.3879  0.0828
 5438SOL    HW321519   2.340   1.655   4.371 -1.5165 -1.0244 -0.5518
 5438SOL    MW421520   2.392   1.593   4.403 -0.4746  0.0775 -0.0680
 5439SOL     OW21521   5.685   3.057   1.264  0.1221 -0.1999  0.0535
 5439SOL    HW221522   5.649   3.141   1.235  0.1239 -0.7520 -1.6945
 5439SOL    HW321523   5.631   2.991   1.220  0.7894 -1.0958  0.5276
 5439SOL    MW421524   5.673   3.059   1.254  0.2104 -0.3909 -0.1145
 5440SOL     OW21525   5.881   0.616   1.138 -0.3131 -0.5566 -0.4623
 5440SOL    HW221526   5.825   0.624   1.216 -0.7688 -0.7152 -0.7712
 5440SOL    HW321527   5.970   0.623   1.172 -0.5288  0.0160 -0.0013
 5440SOL    MW421528   5.885   0.618   1.153 -0.4017 -0.5020 -0.4422
 5441SOL     OW21529   4.536   6.135   4.407  0.6576  0.3427  0.0497
 5441SOL    HW221530   4.542   6.155   4.313 -1.6361 -2.0041 -0.7030
 5441SOL    HW321531   4.462   6.186   4.438  0.9315  0.5176  0.4255
 5441SOL    MW421532   4.527   6.145   4.399  0.3911  0.0561 -0.0000
 5442SOL     OW21533   2.476   4.377   2.404  0.2973  0.1848  1.0190
 5442SOL    HW221534   2.495   4.288   2.374 -0.1819  0.0222  1.1801
 5442SOL    HW321535   2.392   4.369   2.450  0.3120  0.6978  1.1417
 5442SOL    MW421536   2.467   4.364   2.406  0.2360  0.2311  1.0564
 5443SOL     OW21537   0.259   1.796   1.865 -0.1897 -0.0354  0.2834
 5443SOL    HW221538   0.260   1.721   1.806  1.3826 -0.8735  1.2904
 5443SOL    HW321539   0.349   1.829   1.864 -0.0008 -0.2996  2.4051
 5443SOL    MW421540   0.271   1.791   1.857  0.0427 -0.1808  0.6962
 5444SOL     OW21541   4.516   0.304   4.059 -0.2857  0.4515  0.0404
 5444SOL    HW221542   4.603   0.266   4.049  0.0028  1.2997 -0.8636
 5444SOL    HW321543   4.456   0.229   4.057  0.2453  0.0233 -1.8828
 5444SOL    MW421544   4.520   0.289   4.057 -0.1776  0.5069 -0.3327
 5445SOL     OW21545   4.158   4.244   1.158  0.0252 -0.4161 -0.2445
 5445SOL    HW221546   4.174   4.259   1.251 -0.9994 -1.9078  0.2118
 5445SOL    HW321547   4.147   4.332   1.121  2.1754  0.2935  0.6675
 5445SOL    MW421548   4.158   4.258   1.165  0.1737 -0.5193 -0.0640
 5446SOL     OW21549   5.166   2.096   0.868 -0.1895  0.4572  0.4390
 5446SOL    HW221550   5.202   2.008   0.862 -1.2313  0.0884 -0.8075
 5446SOL    HW321551   5.188   2.125   0.957  1.7473 -0.3402  0.2798
 5446SOL    MW421552   5.174   2.088   0.879 -0.0714  0.3033  0.2536
 5447SOL     OW21553   6.249   6.044   1.588 -0.3083 -0.5723  0.1200
 5447SOL    HW221554   6.167   6.045   1.638 -1.0853  0.9818 -1.0854
 5447SOL    HW321555   6.226   6.003   1.505  0.1452 -0.2024 -0.1942
 5447SOL    MW421556   6.235   6.039   1.584 -0.3510 -0.3185 -0.0805
 5448SOL     OW21557   5.465   4.594   3.859  0.0636 -0.3314  0.4397
 5448SOL    HW221558   5.511   4.511   3.848  0.2804 -0.0533 -0.9366
 5448SOL    HW321559   5.452   4.602   3.954 -1.3262 -2.6513  0.5300
 5448SOL    MW421560   5.469   4.584   3.870 -0.0911 -0.6008  0.2700
 5449SOL     OW21561   0.313   0.130   6.386 -0.1921  0.0211  0.2865
 5449SOL    HW221562   0.274   0.138   6.299  0.0373  0.0086  0.1819
 5449SOL    HW321563   0.240   0.141   6.447 -0.3514  0.0309  0.0914
 5449SOL    MW421564   0.299   0.133   6.383 -0.1828  0.0208  0.2469
 5450SOL     OW21565   6.106   4.845   0.146  0.0217 -0.6714 -0.0505
 5450SOL    HW221566   6.088   4.760   0.187  0.7911 -0.0275  1.7317
 5450SOL    HW321567   6.150   4.895   0.215 -2.3689  1.9786 -0.2886
 5450SOL    MW421568   6.110   4.840   0.161 -0.1922 -0.2368  0.1532
 5451SOL     OW21569   1.965   4.034   6.255 -0.1903  0.2838  0.2215
 5451SOL    HW221570   1.922   3.999   6.332 -0.2421  3.0391  1.5637
 5451SOL    HW321571   1.976   4.127   6.274  2.1487  0.5767 -2.0182
 5451SOL    MW421572   1.961   4.042   6.268  0.1114  0.6859  0.1030
 5452SOL     OW21573   4.846   0.098   3.375  0.2084 -0.3424 -0.0658
 5452SOL    HW221574   4.803   0.173   3.335  2.0897  0.8917  0.0950
 5452SOL    HW321575   4.776   0.033   3.386 -1.4458  1.3022 -0.3667
 5452SOL    MW421576   4.831   0.099   3.371  0.2383  0.0374 -0.0843
 5453SOL     OW21577   3.052   4.360   3.422 -0.2742  0.0068  0.1688
 5453SOL    HW221578   3.014   4.325   3.342  1.2008  0.9305 -0.9844
 5453SOL    HW321579   3.105   4.288   3.457  1.6736  0.5791 -1.4648
 5453SOL    MW421580   3.054   4.346   3.416  0.1774  0.2042 -0.1989
 5454SOL     OW21581   4.179   6.283   0.175 -0.8620 -0.5794  0.1941
 5454SOL    HW221582   4.160   6.243   0.090  0.9323 -1.1778  0.0234
 5454SOL    HW321583   4.115   6.354   0.184 -0.5974 -0.0016 -2.0138
 5454SOL    MW421584   4.168   6.287   0.165 -0.5904 -0.5821 -0.1197
 5455SOL     OW21585   3.151   5.392   5.426  0.0926  0.2743 -0.7846
 5455SOL    HW221586   3.165   5.298   5.437  0.9047  0.6165  1.6846
 5455SOL    HW321587   3.101   5.399   5.344  2.4121 -2.0640 -2.5673
 5455SOL    MW421588   3.146   5.381   5.417  0.5058  0.0109 -0.6940
 5456SOL     OW21589   2.162   2.061   6.100 -0.5326 -0.3959  0.1996
 5456SOL    HW221590   2.244   2.064   6.149 -0.0169 -0.3878 -0.6553
 5456SOL    HW321591   2.161   1.974   6.059 -0.0962  0.2446 -1.2228
 5456SOL    MW421592   2.173   2.050   6.101 -0.4070 -0.3104 -0.1009
 5457SOL     OW21593   0.360   5.334   0.422 -0.1194  0.0040 -0.5927
 5457SOL    HW221594   0.345   5.321   0.515 -0.0624 -1.6380 -0.7848
 5457SOL    HW321595   0.453   5.354   0.414  0.8062 -3.6831 -0.5685
 5457SOL    MW421596   0.370   5.335   0.433  0.0103 -0.6991 -0.6149
 5458SOL     OW21597   2.178   5.145   3.804  0.5544  0.1635  0.4875
 5458SOL    HW221598   2.175   5.213   3.872 -0.2133  1.2366 -0.5666
 5458SOL    HW321599   2.099   5.161   3.752  0.4477 -1.4653  0.1181
 5458SOL    MW421600   2.167   5.156   3.806  0.4391  0.0902  0.2997
 5459SOL     OW21601   6.378   5.092   2.612 -0.2354  0.1184  0.0588
 5459SOL    HW221602   6.302   5.145   2.638 -0.0571 -0.5735  2.2209
 5459SOL    HW321603   6.341   5.009   2.584 -0.3804  0.5539 -1.0827
 5459SOL    MW421604   6.363   5.088   2.612 -0.2310  0.0846  0.1935
 5460SOL     OW21605   3.484   6.054   1.876  1.1269 -0.1636  0.2209
 5460SOL    HW221606   3.508   6.035   1.966  2.4594  0.4247  0.0151
 5460SOL    HW321607   3.479   6.150   1.873 -0.7782 -0.2266  0.1055
 5460SOL    MW421608   3.486   6.064   1.887  1.0513 -0.0943  0.1785
 5461SOL     OW21609   5.535   1.730   1.131 -0.3521  0.0969 -0.4801
 5461SOL    HW221610   5.603   1.674   1.095 -0.1910  0.0928 -0.1723
 5461SOL    HW321611   5.533   1.708   1.225 -1.0788 -0.2221 -0.5652
 5461SOL    MW421612   5.544   1.720   1.139 -0.4267  0.0543 -0.4507
 5462SOL     OW21613   5.563   1.199   5.458  0.4269  0.6439  0.3140
 5462SOL    HW221614   5.630   1.163   5.400 -0.1742  1.1146 -0.6969
 5462SOL    HW321615   5.562   1.140   5.534  1.9713  0.6243  0.3541
 5462SOL    MW421616   5.572   1.187   5.461  0.5513  0.7034  0.1859
 5463SOL     OW21617   0.988   2.431   3.001 -0.3127  0.5602 -0.0173
 5463SOL    HW221618   1.030   2.400   2.921 -0.0701 -0.7839  0.6031
 5463SOL    HW321619   1.036   2.510   3.025  0.3420  0.3436 -0.5954
 5463SOL    MW421620   1.000   2.437   2.994 -0.1943  0.3543 -0.0117
 5464SOL     OW21621   0.268   4.660   5.309 -0.1381  0.0336  0.8299
 5464SOL    HW221622   0.350   4.700   5.339 -0.8763  1.7245  0.6618
 5464SOL    HW321623   0.200   4.701   5.362 -1.1909  1.0486 -1.2204
 5464SOL    MW421624   0.270   4.671   5.320 -0.3744  0.3906  0.5372
 5465SOL     OW21625   2.986   4.115   4.499  0.0259  0.4201  0.7198
 5465SOL    HW221626   2.920   4.175   4.535 -0.5379 -1.2852  2.7070
 5465SOL    HW321627   2.943   4.073   4.425 -0.0542  1.4295  0.1748
 5465SOL    MW421628   2.972   4.118   4.494 -0.0591  0.3283  0.9101
 5466SOL     OW21629   0.652   5.447   0.412 -0.0472  0.1935  0.3578
 5466SOL    HW221630   0.689   5.364   0.382 -0.9150  1.1723 -4.1340
 5466SOL    HW321631   0.728   5.497   0.444  1.4044 -0.4731 -1.8419
 5466SOL    MW421632   0.667   5.443   0.412  0.0298  0.2347 -0.5251
 5467SOL     OW21633   1.019   4.243   2.800 -0.2927  0.5016  0.4402
 5467SOL    HW221634   0.952   4.177   2.816  0.2901 -0.3287 -0.4549
 5467SOL    HW321635   0.970   4.324   2.787 -1.0590  0.0994  0.7692
 5467SOL    MW421636   1.004   4.245   2.801 -0.3169  0.3390  0.3655
 5468SOL     OW21637   4.023   2.135   4.204  0.1939 -0.0487 -0.2078
 5468SOL    HW221638   4.071   2.116   4.123 -0.5791 -1.4488 -0.3718
 5468SOL    HW321639   3.953   2.195   4.178  1.0536  0.9797 -0.2069
 5468SOL    MW421640   4.020   2.140   4.190  0.2053 -0.0978 -0.2293
 5469SOL     OW21641   4.959   2.231   1.885 -0.0978  0.4239  0.4273
 5469SOL    HW221642   4.938   2.153   1.835 -1.3411  0.1427  1.3339
 5469SOL    HW321643   4.997   2.198   1.966 -2.3551  0.6144  1.6319
 5469SOL    MW421644   4.961   2.217   1.889 -0.5596  0.4120  0.7059
 5470SOL     OW21645   1.548   0.304   4.367 -0.2063 -0.3000 -0.4494
 5470SOL    HW221646   1.546   0.211   4.390  0.2603 -0.5384 -1.2916
 5470SOL    HW321647   1.580   0.348   4.445  0.2083 -0.9331 -0.2516
 5470SOL    MW421648   1.552   0.297   4.380 -0.0900 -0.4150 -0.5344
 5471SOL     OW21649   5.507   1.375   1.597  0.4854  0.3528  0.6135
 5471SOL    HW221650   5.473   1.305   1.542  1.4861 -1.2222  1.9025
 5471SOL    HW321651   5.431   1.403   1.649  0.1167  0.1101  0.2172
 5471SOL    MW421652   5.492   1.369   1.597  0.5688  0.1130  0.7313
 5472SOL     OW21653   2.549   0.173   6.105  0.8565  0.7786  0.4191
 5472SOL    HW221654   2.599   0.253   6.093 -0.3855  2.0492  2.8686
 5472SOL    HW321655   2.581   0.136   6.187  1.1431 -1.0597 -0.4803
 5472SOL    MW421656   2.560   0.178   6.114  0.7305  0.7037  0.6236
 5473SOL     OW21657   1.434   5.409   0.763  0.2703  0.0200 -0.7422
 5473SOL    HW221658   1.395   5.341   0.707  1.7491 -0.9937 -0.6214
 5473SOL    HW321659   1.448   5.365   0.847  0.4864  0.7298 -0.4038
 5473SOL    MW421660   1.431   5.394   0.767  0.4940 -0.0201 -0.6816
 5474SOL     OW21661   0.151   5.997   2.926  0.1900  0.0618  0.0533
 5474SOL    HW221662   0.206   6.050   2.983  0.1469 -0.6575  0.7786
 5474SOL    HW321663   0.128   6.056   2.853  1.2867  0.5978  0.1183
 5474SOL    MW421664   0.155   6.012   2.924  0.3290  0.0377  0.1576
 5475SOL     OW21665   1.075   3.953   2.076  0.4423 -0.0834  0.0628
 5475SOL    HW221666   0.988   3.913   2.066  1.7305 -2.8543 -0.9568
 5475SOL    HW321667   1.097   3.938   2.168  0.0625  0.1822  0.2012
 5475SOL    MW421668   1.066   3.946   2.087  0.5622 -0.4139 -0.0534
 5476SOL     OW21669   4.671   0.100   2.508 -0.0783 -0.1548 -0.5257
 5476SOL    HW221670   4.666   0.013   2.548  1.0557 -0.0297 -0.0698
 5476SOL    HW321671   4.647   0.086   2.417  0.0881 -0.9541 -0.4555
 5476SOL    MW421672   4.667   0.087   2.501  0.0932 -0.2438 -0.4563
 5477SOL     OW21673   0.627   6.384   2.026  0.1223  0.4201  0.1339
 5477SOL    HW221674   0.561   6.315   2.020  1.9131 -1.6241  2.2864
 5477SOL    HW321675   0.600   6.436   2.102 -0.0679  0.8386 -0.2123
 5477SOL    MW421676   0.615   6.382   2.036  0.3334  0.2056  0.3722
 5478SOL     OW21677   5.493   1.671   2.402  0.0016  0.1458 -0.0318
 5478SOL    HW221678   5.494   1.763   2.429 -1.4010 -0.0384  0.7365
 5478SOL    HW321679   5.429   1.668   2.331 -0.6742 -0.3937  0.5891
 5478SOL    MW421680   5.485   1.682   2.396 -0.2726  0.0503  0.1515
 5479SOL     OW21681   3.331   2.713   2.905  0.2126 -0.0613  0.2088
 5479SOL    HW221682   3.304   2.669   2.985  0.6701 -2.4811 -0.8870
 5479SOL    HW321683   3.422   2.738   2.922  0.6013 -1.3763  0.1552
 5479SOL    MW421684   3.340   2.711   2.918  0.3242 -0.5541  0.0571
 5480SOL     OW21685   2.800   4.378   1.096  0.1784 -0.8588  0.0785
 5480SOL    HW221686   2.808   4.377   1.001  1.4117 -0.2159  0.1580
 5480SOL    HW321687   2.843   4.298   1.125 -0.3950 -1.1674  0.0901
 5480SOL    MW421688   2.807   4.367   1.087  0.2655 -0.8147  0.0905
 5481SOL     OW21689   0.367   5.498   5.675  0.1444  0.1531  0.2482
 5481SOL    HW221690   0.359   5.406   5.699  1.9800 -0.7299 -2.0464
 5481SOL    HW321691   0.322   5.505   5.590 -0.6926  1.5863  0.7716
 5481SOL    MW421692   0.360   5.487   5.667  0.2761  0.2257  0.0145
 5482SOL     OW21693   2.506   6.226   2.257  0.6958 -0.2103 -0.0714
 5482SOL    HW221694   2.443   6.206   2.326  0.9225  0.2125  0.2654
 5482SOL    HW321695   2.562   6.293   2.295  1.2383 -0.4532 -0.4292
 5482SOL    MW421696   2.505   6.232   2.271  0.7973 -0.1866 -0.0742
 5483SOL     OW21697   1.484   5.498   2.814  0.0454  0.0709  0.3647
 5483SOL    HW221698   1.561   5.441   2.811 -0.2570 -0.4577  1.8096
 5483SOL    HW321699   1.483   5.541   2.729  1.4523 -0.5529 -0.0013
 5483SOL    MW421700   1.494   5.496   2.802  0.1911 -0.0812  0.5070
 5484SOL     OW21701   4.784   5.716   1.506  0.5324 -0.1657 -0.1822
 5484SOL    HW221702   4.738   5.786   1.460 -0.9672 -0.6493  0.5147
 5484SOL    HW321703   4.876   5.726   1.481  0.1126  1.1028 -1.2798
 5484SOL    MW421704   4.790   5.726   1.497  0.2792 -0.0621 -0.2351
 5485SOL     OW21705   5.858   1.205   4.416 -0.1578 -0.3484  0.0204
 5485SOL    HW221706   5.773   1.164   4.429  0.2129 -1.1134  0.0878
 5485SOL    HW321707   5.900   1.152   4.348 -0.1071  0.6059 -0.7103
 5485SOL    MW421708   5.852   1.192   4.409 -0.1022 -0.3234 -0.0671
 5486SOL     OW21709   5.595   3.980   3.658  0.2755  0.3886  0.3826
 5486SOL    HW221710   5.527   3.968   3.591  0.2563  0.2078  0.4335
 5486SOL    HW321711   5.595   3.897   3.707 -0.9484  1.1381  1.7486
 5486SOL    MW421712   5.586   3.967   3.656  0.1115  0.4637  0.5695
 5487SOL     OW21713   1.479   4.506   3.250  0.2830  0.6938  0.2481
 5487SOL    HW221714   1.434   4.495   3.166 -3.8034  0.3414  2.1954
 5487SOL    HW321715   1.472   4.420   3.293  0.7150  1.2996  1.5990
 5487SOL    MW421716   1.472   4.493   3.245 -0.1991  0.7272  0.6833
 5488SOL     OW21717   3.989   4.050   4.765 -0.5987 -0.1697  0.1301
 5488SOL    HW221718   3.895   4.043   4.749 -0.4876  0.1226 -0.7055
 5488SOL    HW321719   4.021   3.960   4.763 -0.6298 -0.1616 -1.1040
 5488SOL    MW421720   3.981   4.037   4.763 -0.5882 -0.1301 -0.1430
 5489SOL     OW21721   4.943   0.956   3.264  0.8758  0.1996 -0.0415
 5489SOL    HW221722   5.038   0.959   3.258  0.9024  1.9468  0.6183
 5489SOL    HW321723   4.915   1.047   3.252 -0.7009 -0.2509 -0.0533
 5489SOL    MW421724   4.952   0.969   3.262  0.6713  0.3707  0.0440
 5490SOL     OW21725   6.088   4.128   4.153 -0.2570 -0.2855 -0.1098
 5490SOL    HW221726   6.110   4.172   4.235  0.1396  0.5698 -0.6527
 5490SOL    HW321727   6.165   4.141   4.098 -0.2989 -1.3295 -0.4294
 5490SOL    MW421728   6.101   4.135   4.157 -0.2102 -0.3104 -0.2236
 5491SOL     OW21729   3.922   1.387   4.911  0.7138 -0.2136  0.1754
 5491SOL    HW221730   3.984   1.365   4.842  2.6192  0.0099  1.7000
 5491SOL    HW321731   3.936   1.321   4.979 -1.5305 -0.7970  0.1624
 5491SOL    MW421732   3.932   1.375   4.911  0.6691 -0.2611  0.3749
 5492SOL     OW21733   3.963   2.921   2.504 -0.2006 -0.0844  0.1496
 5492SOL    HW221734   3.957   2.858   2.577  0.8849 -0.2255  0.1291
 5492SOL    HW321735   3.997   2.869   2.431 -1.2519  0.0657 -0.4671
 5492SOL    MW421736   3.967   2.906   2.504 -0.1961 -0.0832  0.0655
 5493SOL     OW21737   5.413   5.874   4.814 -0.1492  0.6735 -0.2092
 5493SOL    HW221738   5.451   5.794   4.778 -1.9156 -0.2095 -0.2353
 5493SOL    HW321739   5.400   5.931   4.738 -2.1140 -0.4429 -0.7879
 5493SOL    MW421740   5.416   5.871   4.799 -0.6415  0.4097 -0.2890
 5494SOL     OW21741   4.374   5.453   3.240 -0.1813 -0.1192 -0.3095
 5494SOL    HW221742   4.458   5.486   3.208  0.7850 -2.7045 -0.7165
 5494SOL    HW321743   4.375   5.474   3.334  0.6674  0.3690 -0.4141
 5494SOL    MW421744   4.385   5.460   3.248  0.0582 -0.3959 -0.3770
 5495SOL     OW21745   2.838   6.234   3.125 -0.3067  0.3131 -0.2199
 5495SOL    HW221746   2.914   6.260   3.072  0.1342 -0.3245  0.0858
 5495SOL    HW321747   2.767   6.289   3.093  0.6149  1.9720  0.4982
 5495SOL    MW421748   2.839   6.245   3.114 -0.1270  0.4479 -0.0848
 5496SOL     OW21749   3.657   4.557   0.233 -0.3083 -0.0244 -0.2997
 5496SOL    HW221750   3.698   4.573   0.318 -0.1117 -0.5713 -0.2881
 5496SOL    HW321751   3.605   4.477   0.247 -1.7744  0.9028 -0.1688
 5496SOL    MW421752   3.655   4.548   0.246 -0.4758  0.0258 -0.2809
 5497SOL     OW21753   4.667   1.998   2.941 -0.2923 -0.6725  0.2647
 5497SOL    HW221754   4.657   2.047   3.023 -0.7416 -1.0247  0.4203
 5497SOL    HW321755   4.583   1.956   2.927 -0.0345 -1.0883 -0.0764
 5497SOL    MW421756   4.655   1.999   2.950 -0.3176 -0.7738  0.2402
 5498SOL     OW21757   4.260   0.407   3.701  0.5875 -0.0586  0.3613
 5498SOL    HW221758   4.298   0.447   3.623 -0.7712 -0.8983 -0.7733
 5498SOL    HW321759   4.267   0.474   3.768  1.7462  0.7026 -0.4766
 5498SOL    MW421760   4.266   0.421   3.700  0.5611 -0.0689  0.1010
 5499SOL     OW21761   1.490   1.435   2.535 -0.0832 -0.4301  0.0541
 5499SOL    HW221762   1.459   1.457   2.448 -1.3176  1.1134  0.8242
 5499SOL    HW321763   1.585   1.443   2.530  0.0823 -2.6266 -1.6837
 5499SOL    MW421764   1.499   1.439   2.523 -0.2242 -0.5162 -0.0735
 5500SOL     OW21765   5.273   3.498   4.467  0.4218 -0.3740  0.7903
 5500SOL    HW221766   5.333   3.572   4.480 -0.7290  0.3245  2.4964
 5500SOL    HW321767   5.297   3.463   4.382  0.9831  2.0191 -0.1323
 5500SOL    MW421768   5.284   3.503   4.458  0.3441  0.0339  0.8937
 5501SOL     OW21769   6.076   6.265   2.598 -0.1128 -0.3592  0.3829
 5501SOL    HW221770   6.163   6.258   2.637 -0.2158 -1.2783  0.4882
 5501SOL    HW321771   6.065   6.181   2.552  0.1547  0.8010 -1.9300
 5501SOL    MW421772   6.086   6.253   2.597 -0.0911 -0.3274  0.0916
 5502SOL     OW21773   3.036   1.853   0.646  0.0254  0.7816  0.1406
 5502SOL    HW221774   3.006   1.802   0.570 -1.2091  0.0817  1.0644
 5502SOL    HW321775   3.096   1.794   0.692  0.2184  0.9439  0.0984
 5502SOL    MW421776   3.040   1.838   0.642 -0.1120  0.7107  0.2569
 5503SOL     OW21777   4.063   1.196   1.625  0.6333 -0.1509  0.1051
 5503SOL    HW221778   4.119   1.272   1.614 -0.0292  0.3468  0.1263
 5503SOL    HW321779   4.123   1.123   1.641  1.2340  0.5268  1.0052
 5503SOL    MW421780   4.078   1.196   1.626  0.6252  0.0042  0.2267
 5504SOL     OW21781   0.080   0.428   0.996  0.3811  0.0487  0.0995
 5504SOL    HW221782   0.118   0.459   0.914  0.9016 -0.9571 -0.0529
 5504SOL    HW321783   0.076   0.333   0.986  1.0762 -0.1414  1.5096
 5504SOL    MW421784   0.084   0.419   0.984  0.5415 -0.1091  0.2654
 5505SOL     OW21785   2.303   2.973   2.874 -0.6013 -0.3541 -0.2987
 5505SOL    HW221786   2.366   2.958   2.945  1.3161  1.9896 -1.3451
 5505SOL    HW321787   2.217   2.958   2.914  0.4861 -0.9637  1.9702
 5505SOL    MW421788   2.300   2.969   2.888 -0.2048 -0.1253 -0.1374
 5506SOL     OW21789   6.318   0.379   2.738 -0.0587 -0.0265  0.0202
 5506SOL    HW221790   6.226   0.394   2.762 -0.7141 -2.3540 -0.7455
 5506SOL    HW321791   6.365   0.385   2.821 -1.1772 -0.5382  0.7196
 5506SOL    MW421792   6.312   0.382   2.752 -0.2927 -0.4011  0.0115
 5507SOL     OW21793   2.101   5.088   2.370 -0.2046 -0.8372  0.0915
 5507SOL    HW221794   2.084   5.009   2.319 -1.2151  0.0177 -0.9431
 5507SOL    HW321795   2.014   5.122   2.392  0.1114  1.4933 -1.8939
 5507SOL    MW421796   2.088   5.082   2.366 -0.2962 -0.4169 -0.3069
 5508SOL     OW21797   3.066   1.089   5.968  0.0444 -0.2594  0.0647
 5508SOL    HW221798   3.086   1.102   5.876  0.3768 -0.0314  0.1676
 5508SOL    HW321799   3.011   1.011   5.970  0.6550 -0.7016 -0.2531
 5508SOL    MW421800   3.061   1.081   5.956  0.1688 -0.2877  0.0363
 5509SOL     OW21801   2.009   1.591   2.432 -0.5450 -0.2453 -0.0572
 5509SOL    HW221802   1.922   1.565   2.463 -0.8688  0.3562 -0.4499
 5509SOL    HW321803   1.999   1.681   2.404  0.0528 -0.3834 -0.7433
 5509SOL    MW421804   1.997   1.599   2.433 -0.5089 -0.1842 -0.1995
 5510SOL     OW21805   3.253   3.450   1.177 -0.2283 -0.2318  0.5279
 5510SOL    HW221806   3.206   3.490   1.104 -1.7702 -0.1455  1.5251
 5510SOL    HW321807   3.218   3.361   1.183 -0.3930 -0.1207  1.3765
 5510SOL    MW421808   3.242   3.443   1.168 -0.4534 -0.2057  0.7715
 5511SOL     OW21809   3.316   3.670   3.103 -0.0551  0.3070  0.1581
 5511SOL    HW221810   3.250   3.740   3.101  0.2486  0.7390  2.3432
 5511SOL    HW321811   3.361   3.677   3.019 -1.8313  0.9435 -0.7889
 5511SOL    MW421812   3.313   3.680   3.092 -0.2494  0.4479  0.3214
 5512SOL     OW21813   6.374   1.629   0.432 -0.0699 -0.0299  0.3203
 5512SOL    HW221814   6.289   1.598   0.400 -0.4754  0.7379  0.6285
 5512SOL    HW321815   6.429   1.551   0.431 -1.5657 -1.2871  2.8148
 5512SOL    MW421816   6.370   1.614   0.428 -0.3207 -0.0945  0.6901
 5513SOL     OW21817   4.446   3.269   4.309 -0.4114 -0.3443  0.1340
 5513SOL    HW221818   4.408   3.356   4.305  1.3867  0.4592 -1.8457
 5513SOL    HW321819   4.514   3.269   4.241  0.9486 -2.6631  1.3249
 5513SOL    MW421820   4.450   3.280   4.300  0.0053 -0.5442  0.0300
 5514SOL     OW21821   3.613   2.373   3.815  0.4207  0.2321  0.2925
 5514SOL    HW221822   3.677   2.338   3.878 -1.0509  3.6180  4.1409
 5514SOL    HW321823   3.666   2.414   3.747  2.1580 -1.7292  0.3694
 5514SOL    MW421824   3.628   2.374   3.814  0.4557  0.4200  0.8104
 5515SOL     OW21825   1.002   6.337   2.684 -0.1662 -0.1461  0.0008
 5515SOL    HW221826   1.096   6.351   2.694 -0.2230  0.3502 -0.1100
 5515SOL    HW321827   0.970   6.321   2.773 -0.1728  0.9807  0.2158
 5515SOL    MW421828   1.010   6.337   2.697 -0.1746  0.0680  0.0146
 5516SOL     OW21829   5.664   1.261   3.218 -0.1840 -0.3815  0.3187
 5516SOL    HW221830   5.710   1.316   3.154 -2.1765  2.1818  0.9498
 5516SOL    HW321831   5.572   1.281   3.204 -0.8163 -1.5968  2.4192
 5516SOL    MW421832   5.658   1.271   3.207 -0.5303 -0.2036  0.6791
 5517SOL     OW21833   5.659   2.016   2.420  0.1565  0.3338 -0.3459
 5517SOL    HW221834   5.685   2.108   2.422 -1.0621  0.6762  0.1230
 5517SOL    HW321835   5.587   2.009   2.482  0.0522 -0.8905 -0.5730
 5517SOL    MW421836   5.653   2.027   2.428 -0.0181  0.2174 -0.3140
 5518SOL     OW21837   6.119   1.033   3.492 -0.5761 -0.0768  0.0644
 5518SOL    HW221838   6.091   1.125   3.490 -0.0342  0.1594  1.8917
 5518SOL    HW321839   6.038   0.984   3.478 -0.9012  0.6565 -0.7575
 5518SOL    MW421840   6.104   1.039   3.490 -0.5475  0.0511  0.1971
 5519SOL     OW21841   0.144   1.107   0.478  0.1891 -0.2678  0.3585
 5519SOL    HW221842   0.169   1.023   0.516 -0.4182 -1.0227 -0.8673
 5519SOL    HW321843   0.109   1.086   0.392 -1.2950  1.1074  0.5753
 5519SOL    MW421844   0.143   1.093   0.472 -0.0868 -0.1860  0.2254
 5520SOL     OW21845   1.647   3.533   0.827  0.0385  0.3891  0.3291
 5520SOL    HW221846   1.575   3.567   0.879 -1.3471 -0.5548 -0.8672
 5520SOL    HW321847   1.676   3.607   0.773 -1.2874  0.3417 -0.4869
 5520SOL    MW421848   1.642   3.547   0.827 -0.3192  0.2583  0.0636
 5521SOL     OW21849   0.869   6.232   4.672 -0.2170 -0.1391  0.0579
 5521SOL    HW221850   0.829   6.245   4.586  0.0905  0.7150  0.0394
 5521SOL    HW321851   0.834   6.148   4.701  1.2482 -1.4829 -1.7839
 5521SOL    MW421852   0.859   6.223   4.664  0.0169 -0.2037 -0.1876
 5522SOL     OW21853   1.435   2.121   3.401 -0.1664 -0.0165 -0.5853
 5522SOL    HW221854   1.365   2.114   3.336 -0.0430  0.1404 -0.7355
 5522SOL    HW321855   1.403   2.185   3.464 -0.4640 -0.4728 -0.2640
 5522SOL    MW421856   1.422   2.128   3.400 -0.1894 -0.0560 -0.5627
 5523SOL     OW21857   5.330   6.181   3.382  0.5028  0.3999 -0.1351
 5523SOL    HW221858   5.247   6.223   3.403 -0.3673 -0.8988 -0.8469
 5523SOL    HW321859   5.359   6.141   3.464  0.0273  0.1785 -0.0764
 5523SOL    MW421860   5.323   6.181   3.396  0.3253  0.1994 -0.2213
 5524SOL     OW21861   2.164   4.755   5.802 -0.5472  0.2607 -0.1360
 5524SOL    HW221862   2.218   4.815   5.855  0.6910 -1.3801  0.5308
 5524SOL    HW321863   2.075   4.772   5.831  0.0021  0.1363  1.7822
 5524SOL    MW421864   2.160   4.765   5.813 -0.3114  0.0278  0.2051
 5525SOL     OW21865   3.499   4.457   2.832 -0.8375 -0.4150 -0.0152
 5525SOL    HW221866   3.415   4.462   2.787 -1.1054  0.4867  0.5725
 5525SOL    HW321867   3.483   4.497   2.917 -0.1059 -1.2942  0.5539
 5525SOL    MW421868   3.486   4.463   2.837 -0.7763 -0.4120  0.1374
 5526SOL     OW21869   5.643   2.337   3.410 -0.2419 -0.1673  0.4194
 5526SOL    HW221870   5.679   2.424   3.425 -0.6089 -0.3013  2.3259
 5526SOL    HW321871   5.637   2.298   3.497 -0.0622 -2.1177 -0.3874
 5526SOL    MW421872   5.647   2.343   3.423 -0.2666 -0.4423  0.5645
 5527SOL     OW21873   5.636   3.108   0.573  0.3237  0.6888  0.3333
 5527SOL    HW221874   5.729   3.112   0.552 -0.0111  1.4414 -1.1329
 5527SOL    HW321875   5.612   3.197   0.597 -0.0165  0.4876  0.7775
 5527SOL    MW421876   5.645   3.120   0.574  0.2346  0.7616  0.1984
 5528SOL     OW21877   4.190   3.477   1.547 -0.1262 -0.1458 -0.6190
 5528SOL    HW221878   4.237   3.544   1.498  0.4826  0.1505  0.3579
 5528SOL    HW321879   4.258   3.416   1.575 -0.2884  0.3456  0.9031
 5528SOL    MW421880   4.205   3.477   1.544 -0.0673 -0.0419 -0.2893
 5529SOL     OW21881   0.709   4.931   1.242  0.1366  0.0635  0.1948
 5529SOL    HW221882   0.655   5.008   1.256  0.6553  0.4327  0.2101
 5529SOL    HW321883   0.694   4.877   1.320 -0.8295 -0.2253 -0.1775
 5529SOL    MW421884   0.700   4.934   1.254  0.0776  0.0741  0.1477
 5530SOL     OW21885   5.839   5.989   1.419  0.1028  0.2075 -0.2379
 5530SOL    HW221886   5.915   6.041   1.392 -0.1468  0.1502 -1.0441
 5530SOL    HW321887   5.808   6.034   1.498  0.2453  0.9402 -0.5864
 5530SOL    MW421888   5.845   6.002   1.426  0.0886  0.2966 -0.3902
 5531SOL     OW21889   0.500   6.365   4.594 -0.1233 -0.0939  0.2698
 5531SOL    HW221890   0.571   6.344   4.534 -0.9324 -1.7108 -0.1765
 5531SOL    HW321891   0.477   6.456   4.573  0.9262  0.0218 -0.4735
 5531SOL    MW421892   0.506   6.375   4.583 -0.0916 -0.2919  0.1128
 5532SOL     OW21893   5.418   1.954   3.126  0.9702 -0.2774 -0.0216
 5532SOL    HW221894   5.459   1.922   3.045 -0.1880 -0.1443 -0.6837
 5532SOL    HW321895   5.484   2.011   3.165  1.1511  0.5528 -1.4573
 5532SOL    MW421896   5.432   1.957   3.120  0.8413 -0.1503 -0.2984
 5533SOL     OW21897   5.087   4.624   1.944  0.1225  0.6937  0.6117
 5533SOL    HW221898   5.145   4.571   1.889  1.2952  0.9608  1.5407
 5533SOL    HW321899   5.011   4.641   1.889  0.0491 -1.2875  0.0242
 5533SOL    MW421900   5.085   4.619   1.929  0.2676  0.4675  0.6568
 5534SOL     OW21901   3.737   1.610   4.985 -0.5594  0.6182 -0.2575
 5534SOL    HW221902   3.808   1.547   4.975 -1.2958  0.0180 -2.3484
 5534SOL    HW321903   3.771   1.676   5.046  1.4465 -0.1083 -0.5136
 5534SOL    MW421904   3.751   1.611   4.992 -0.3919  0.4432 -0.5671
 5535SOL     OW21905   2.620   2.323   2.274  0.6301  0.4396  0.3347
 5535SOL    HW221906   2.643   2.251   2.215  1.6934 -0.3008  1.5903
 5535SOL    HW321907   2.536   2.354   2.242 -0.3706 -2.0114  0.3029
 5535SOL    MW421908   2.612   2.317   2.262  0.6384  0.0185  0.4962
 5536SOL     OW21909   4.492   0.578   5.939  0.8063  0.0979  0.8714
 5536SOL    HW221910   4.543   0.573   5.859  0.5600 -2.8846  0.7867
 5536SOL    HW321911   4.547   0.536   6.005 -1.2817 -3.0251  0.8188
 5536SOL    MW421912   4.506   0.572   5.937  0.4983 -0.7076  0.8533
 5537SOL     OW21913   1.188   0.128   1.262 -0.2662 -0.0968 -0.3140
 5537SOL    HW221914   1.283   0.141   1.269 -0.0752 -1.3053 -0.4613
 5537SOL    HW321915   1.164   0.172   1.181 -0.2628  2.3039  0.8912
 5537SOL    MW421916   1.197   0.135   1.252 -0.2405  0.0605 -0.1744
 5538SOL     OW21917   4.189   1.734   3.007 -0.1677 -0.0454 -0.6014
 5538SOL    HW221918   4.168   1.677   3.081 -0.9790 -0.0846 -0.8569
 5538SOL    HW321919   4.281   1.756   3.019 -0.5670  0.8960  1.0767
 5538SOL    MW421920   4.198   1.729   3.019 -0.3274  0.0736 -0.4137
 5539SOL     OW21921   4.956   2.666   2.079  0.4648  0.2246  0.2046
 5539SOL    HW221922   4.903   2.587   2.068  0.8083 -0.0846  0.7176
 5539SOL    HW321923   4.942   2.715   1.998  0.7408 -0.6598 -0.3999
 5539SOL    MW421924   4.947   2.662   2.067  0.5465  0.0671  0.1925
 5540SOL     OW21925   5.177   0.395   0.415 -0.7599  0.0357 -0.0280
 5540SOL    HW221926   5.228   0.359   0.487 -1.2382 -2.3083 -0.7723
 5540SOL    HW321927   5.102   0.437   0.457 -1.0043 -1.2385  0.8590
 5540SOL    MW421928   5.174   0.396   0.430 -0.8552 -0.4416 -0.0091
 5541SOL     OW21929   0.248   1.441   4.062 -0.6517 -0.0334  0.4679
 5541SOL    HW221930   0.288   1.527   4.074  0.4183 -0.5618  0.8343
 5541SOL    HW321931   0.308   1.395   4.003  0.3130 -1.4722  2.4529
 5541SOL    MW421932   0.261   1.446   4.056 -0.3832 -0.2929  0.7782
 5542SOL     OW21933   1.723   4.926   4.377 -0.4516 -0.4377  0.3857
 5542SOL    HW221934   1.644   4.871   4.382 -0.8394  0.0070 -0.5793
 5542SOL    HW321935   1.758   4.909   4.289  0.1859 -0.1667  0.5850
 5542SOL    MW421936   1.717   4.916   4.366 -0.4186 -0.3432  0.2847
 5543SOL     OW21937   0.726   3.891   0.246 -0.2978 -0.0401 -0.7656
 5543SOL    HW221938   0.714   3.937   0.329  1.4258 -1.3410  0.2809
 5543SOL    HW321939   0.799   3.937   0.204  1.3361 -1.5982  0.2192
 5543SOL    MW421940   0.734   3.903   0.251  0.1452 -0.4173 -0.4976
 5544SOL     OW21941   6.295   1.223   6.433 -0.0804 -0.2484  0.4570
 5544SOL    HW221942   6.311   1.292   6.497 -0.1934  0.0610  0.1573
 5544SOL    HW321943   6.252   1.268   6.360 -3.7428 -1.1939  1.7858
 5544SOL    MW421944   6.291   1.238   6.432 -0.5785 -0.3323  0.5928
 5545SOL     OW21945   3.523   3.316   1.706  0.7844  0.3111 -0.6921
 5545SOL    HW221946   3.538   3.352   1.794  0.3796  1.3369 -1.0291
 5545SOL    HW321947   3.484   3.230   1.721  0.2075  0.7047  0.1317
 5545SOL    MW421948   3.520   3.309   1.720  0.6549  0.4983 -0.6278
 5546SOL     OW21949   4.671   5.577   5.855  0.4912  0.2249 -0.1716
 5546SOL    HW221950   4.639   5.493   5.822  0.9979 -0.6006  1.3447
 5546SOL    HW321951   4.601   5.608   5.914 -1.6175  2.9455 -3.7074
 5546SOL    MW421952   4.658   5.570   5.859  0.2798  0.4749 -0.4380
 5547SOL     OW21953   1.916   4.665   1.125 -0.3525 -0.2073 -0.2702
 5547SOL    HW221954   1.930   4.609   1.201 -0.7373  0.7665  0.5398
 5547SOL    HW321955   2.000   4.710   1.112 -0.4447  0.0148 -0.0979
 5547SOL    MW421956   1.929   4.664   1.133 -0.4154 -0.0495 -0.1406
 5548SOL     OW21957   4.363   3.528   4.292 -0.1137 -0.4103 -0.5095
 5548SOL    HW221958   4.448   3.564   4.267 -0.6377  0.3151 -1.2905
 5548SOL    HW321959   4.300   3.572   4.235 -1.1027 -0.3831  0.5601
 5548SOL    MW421960   4.366   3.538   4.281 -0.3133 -0.3110 -0.4714
 5549SOL     OW21961   3.881   5.768   3.156  0.0799 -0.2832 -0.2439
 5549SOL    HW221962   3.843   5.855   3.145  0.0019  0.1006  2.4175
 5549SOL    HW321963   3.974   5.780   3.137  0.1483  0.4883  0.5326
 5549SOL    MW421964   3.888   5.781   3.152  0.0786 -0.1308  0.2097
 5550SOL     OW21965   1.457   0.144   1.317  0.0303  0.7185  0.9302
 5550SOL    HW221966   1.500   0.060   1.330 -1.7304 -0.4451 -0.3388
 5550SOL    HW321967   1.526   0.201   1.282  0.9846 -0.5218  0.7077
 5550SOL    MW421968   1.472   0.141   1.314 -0.0761  0.4014  0.7334
 5551SOL     OW21969   1.850   6.418   6.127 -0.0371  0.9911 -0.1259
 5551SOL    HW221970   1.836   6.448   6.037 -1.8347 -0.0965 -0.2596
 5551SOL    HW321971   1.842   6.322   6.122  1.7064  0.7396  0.9143
 5551SOL    MW421972   1.847   6.409   6.114 -0.0443  0.8144 -0.0063
 5552SOL     OW21973   1.424   1.060   5.192 -0.4293 -0.0150 -0.4187
 5552SOL    HW221974   1.454   1.146   5.224  0.2986 -0.2534 -0.4449
 5552SOL    HW321975   1.474   1.046   5.112 -0.4725 -0.5142 -0.3563
 5552SOL    MW421976   1.435   1.070   5.186 -0.3389 -0.1123 -0.4139
 5553SOL     OW21977   6.360   3.648   1.333  0.1438  0.2117 -0.1675
 5553SOL    HW221978   6.273   3.643   1.374 -0.2400  0.4265 -0.9383
 5553SOL    HW321979   6.409   3.710   1.387  0.2150 -0.7865  0.9658
 5553SOL    MW421980   6.355   3.656   1.346  0.1026  0.1084 -0.1196
 5554SOL     OW21981   5.971   0.855   4.809  0.1174 -0.0139 -0.5671
 5554SOL    HW221982   5.904   0.845   4.741  0.1801  0.4941 -0.7050
 5554SOL    HW321983   6.047   0.889   4.763 -0.5152  2.4903  0.0797
 5554SOL    MW421984   5.972   0.858   4.794  0.0422  0.3835 -0.4999
 5555SOL     OW21985   2.910   1.921   2.531  0.4237  0.2446 -0.2394
 5555SOL    HW221986   2.872   1.852   2.477 -1.7556  0.2559  1.1818
 5555SOL    HW321987   2.836   1.959   2.578  1.8219  2.3018  0.4542
 5555SOL    MW421988   2.895   1.917   2.530  0.3207  0.5175  0.0396
 5556SOL     OW21989   2.049   2.543   2.888 -0.0019  0.7742  0.3783
 5556SOL    HW221990   2.093   2.465   2.855  0.1005  0.4895  1.1868
 5556SOL    HW321991   2.088   2.615   2.838 -0.2892  0.2986 -0.5714
 5556SOL    MW421992   2.060   2.542   2.877 -0.0263  0.6739  0.3597
 5557SOL     OW21993   5.746   6.148   4.160 -0.0286 -0.1435  0.1141
 5557SOL    HW221994   5.666   6.115   4.119  0.3718  0.6875 -1.3875
 5557SOL    HW321995   5.812   6.081   4.143  0.7104  1.1357 -2.6827
 5557SOL    MW421996   5.744   6.135   4.152  0.1217  0.1349 -0.4530
 5558SOL     OW21997   5.379   3.074   3.350 -0.2225 -0.4182  0.8710
 5558SOL    HW221998   5.466   3.095   3.315  0.1227 -1.9860  0.7432
 5558SOL    HW321999   5.353   3.154   3.396  1.6119 -0.1855  1.5971
 5558SOL    MW422000   5.387   3.088   3.351  0.0651 -0.5944  0.9500
 5559SOL     OW22001   0.319   1.991   5.244  0.0984  0.3283  0.2860
 5559SOL    HW222002   0.236   2.037   5.255  0.4877  1.1092  0.0059
 5559SOL    HW322003   0.324   1.934   5.321 -1.6725 -1.3065 -0.7074
 5559SOL    MW422004   0.308   1.990   5.256 -0.0839  0.2156  0.1180
 5560SOL     OW22005   0.721   5.571   6.062  0.4749  0.2193 -0.0741
 5560SOL    HW222006   0.787   5.502   6.065  0.4703  0.1477 -1.2872
 5560SOL    HW322007   0.751   5.631   5.994 -1.0015 -0.1577 -1.1337
 5560SOL    MW422008   0.733   5.570   6.053  0.2795  0.1601 -0.3739
 5561SOL     OW22009   3.731   5.822   6.214 -0.3576 -0.4844  0.3255
 5561SOL    HW222010   3.728   5.788   6.303  1.5447  0.0850  0.6445
 5561SOL    HW322011   3.645   5.800   6.177 -0.7867 -1.6658  1.9307
 5561SOL    MW422012   3.719   5.815   6.221 -0.1632 -0.5651  0.5793
 5562SOL     OW22013   5.895   5.323   4.505 -0.0759  0.4281 -0.0267
 5562SOL    HW222014   5.843   5.401   4.526 -1.3156 -0.2909 -0.3115
 5562SOL    HW322015   5.837   5.250   4.525  0.2152 -0.3761 -1.9408
 5562SOL    MW422016   5.881   5.324   4.510 -0.2011  0.2271 -0.3169
 5563SOL     OW22017   5.181   0.138   1.594 -0.5887 -0.1266  0.3526
 5563SOL    HW222018   5.200   0.062   1.650  1.1605 -0.0002 -0.0032
 5563SOL    HW322019   5.187   0.213   1.653 -0.8517 -0.1573  0.4170
 5563SOL    MW422020   5.185   0.138   1.609 -0.3926 -0.1140  0.3141
 5564SOL     OW22021   5.554   3.890   4.879  0.1514  0.0396  0.5577
 5564SOL    HW222022   5.602   3.884   4.796 -0.7890 -1.7806  0.0959
 5564SOL    HW322023   5.526   3.801   4.897 -1.6193  0.7691  1.6622
 5564SOL    MW422024   5.556   3.878   4.870 -0.2063 -0.1043  0.6425
 5565SOL     OW22025   6.254   3.038   3.211 -0.2498  0.2138 -0.0925
 5565SOL    HW222026   6.174   3.051   3.159 -0.3272 -0.0100 -0.0299
 5565SOL    HW322027   6.316   3.102   3.175 -1.2397  2.2239  1.5127
 5565SOL    MW422028   6.252   3.048   3.199 -0.3906  0.4495  0.1275
 5566SOL     OW22029   1.289   3.093   2.905  0.1278 -0.6015  0.6610
 5566SOL    HW222030   1.209   3.095   2.957 -0.2254  2.0793  0.1514
 5566SOL    HW322031   1.262   3.122   2.818  1.1310 -2.7847 -0.4704
 5566SOL    MW422032   1.275   3.097   2.900  0.2135 -0.5359  0.4445
 5567SOL     OW22033   5.223   6.059   0.294  0.5853 -0.1285  0.3833
 5567SOL    HW222034   5.214   6.121   0.366  1.3957  1.8027 -1.0891
 5567SOL    HW322035   5.289   6.098   0.236  0.0153 -1.6126 -1.3885
 5567SOL    MW422036   5.230   6.072   0.296  0.6170 -0.0695 -0.0447
 5568SOL     OW22037   4.139   1.760   1.698 -0.0827  0.1278 -0.0443
 5568SOL    HW222038   4.045   1.742   1.702  0.0601 -0.7674 -0.5007
 5568SOL    HW322039   4.161   1.794   1.785 -0.9890  1.2308 -0.2232
 5568SOL    MW422040   4.130   1.763   1.710 -0.1834  0.1552 -0.1281
 5569SOL     OW22041   0.468   4.346   4.478 -0.2257  0.0948  0.0572
 5569SOL    HW222042   0.419   4.267   4.498  0.1553  0.1566  1.3550
 5569SOL    HW322043   0.425   4.383   4.401 -1.3818 -0.5428  0.3732
 5569SOL    MW422044   0.456   4.341   4.470 -0.3280  0.0188  0.2701
 5570SOL     OW22045   2.204   3.837   2.005  0.5775  0.3316 -0.4536
 5570SOL    HW222046   2.211   3.763   2.065 -0.8205  1.0962  0.7260
 5570SOL    HW322047   2.147   3.899   2.051 -0.2459  1.1173 -2.4416
 5570SOL    MW422048   2.198   3.836   2.019  0.2844  0.5362 -0.5602
 5571SOL     OW22049   5.552   1.023   3.751  0.2607 -0.1757 -0.2986
 5571SOL    HW222050   5.608   0.999   3.825  1.1948  1.3684 -0.4681
 5571SOL    HW322051   5.594   1.100   3.713 -1.2911  0.2524 -1.2287
 5571SOL    MW422052   5.565   1.030   3.756  0.1792  0.0845 -0.4437
 5572SOL     OW22053   5.347   6.371   2.162 -0.2048  0.3659  0.0662
 5572SOL    HW222054   5.301   6.446   2.200 -2.1941 -0.8032  0.1130
 5572SOL    HW322055   5.379   6.321   2.237  2.0495  1.6275  0.0316
 5572SOL    MW422056   5.345   6.374   2.177 -0.1698  0.3781  0.0678
 5573SOL     OW22057   1.112   2.616   4.387 -0.1509 -0.0506  0.2027
 5573SOL    HW222058   1.144   2.698   4.349  0.3099  0.4329  1.5585
 5573SOL    HW322059   1.091   2.561   4.312  0.3047  1.0116 -0.7330
 5573SOL    MW422060   1.113   2.619   4.372 -0.0300  0.1533  0.2581
 5574SOL     OW22061   1.867   4.791   2.230  0.6234  0.0010 -0.3038
 5574SOL    HW222062   1.826   4.877   2.218  0.3116 -0.0790  0.1582
 5574SOL    HW322063   1.961   4.808   2.221  0.7249  0.7484  1.7402
 5574SOL    MW422064   1.874   4.805   2.227  0.5957  0.0890  0.0268
 5575SOL     OW22065   2.877   4.878   1.476  0.1181  0.3838 -0.1953
 5575SOL    HW222066   2.840   4.790   1.480 -0.6829  0.6771 -0.8950
 5575SOL    HW322067   2.873   4.901   1.383  1.5764  0.6389 -0.2228
 5575SOL    MW422068   2.872   4.869   1.464  0.2048  0.4562 -0.2913
 5576SOL     OW22069   2.294   2.656   2.302 -0.1741  0.5000 -0.1772
 5576SOL    HW222070   2.229   2.636   2.370  2.4144  1.3350  2.7600
 5576SOL    HW322071   2.320   2.570   2.268  1.3365 -0.3858  2.8611
 5576SOL    MW422072   2.289   2.642   2.307  0.3667  0.4933  0.6112
 5577SOL     OW22073   5.046   5.727   6.127 -0.0644 -0.3485 -0.4243
 5577SOL    HW222074   5.012   5.665   6.191 -1.6563 -0.9717 -1.8038
 5577SOL    HW322075   5.065   5.806   6.178 -2.0792 -0.5283  0.6979
 5577SOL    MW422076   5.044   5.729   6.142 -0.5402 -0.4544 -0.4583
 5578SOL     OW22077   1.909   5.168   2.715  0.1796 -0.2049 -0.1398
 5578SOL    HW222078   1.844   5.101   2.737  1.6075 -1.2249  1.1727
 5578SOL    HW322079   1.910   5.169   2.619  0.5642 -2.5647 -0.2364
 5578SOL    MW422080   1.900   5.159   2.705  0.4187 -0.6508  0.0207
 5579SOL     OW22081   2.459   3.497   1.408 -0.3658  0.3979  0.2727
 5579SOL    HW222082   2.504   3.415   1.428  0.9327  1.0316  0.0357
 5579SOL    HW322083   2.529   3.561   1.399 -1.2532  1.2483 -0.9621
 5579SOL    MW422084   2.474   3.494   1.409 -0.3115  0.5937  0.0785
 5580SOL     OW22085   1.036   0.940   1.925  0.5915  0.0536 -0.2941
 5580SOL    HW222086   1.052   1.034   1.924 -1.3125  0.5676  3.1414
 5580SOL    HW322087   1.090   0.907   1.997  0.5526 -1.3404 -0.8722
 5580SOL    MW422088   1.045   0.948   1.935  0.3352 -0.0625  0.0829
 5581SOL     OW22089   6.002   1.643   1.211 -0.3399  0.0540  0.1415
 5581SOL    HW222090   6.048   1.644   1.128  0.7942 -1.9540  0.6827
 5581SOL    HW322091   6.057   1.694   1.270  0.0403 -0.4596  0.2313
 5581SOL    MW422092   6.015   1.650   1.208 -0.1401 -0.2787  0.2248
 5582SOL     OW22093   3.687   0.609   2.461 -0.0707  0.1215 -0.0583
 5582SOL    HW222094   3.650   0.695   2.444  0.3256  0.0954 -1.1286
 5582SOL    HW322095   3.670   0.593   2.554 -0.3922  1.2283  0.0815
 5582SOL    MW422096   3.680   0.618   2.471 -0.0609  0.2641 -0.1810
 5583SOL     OW22097   5.028   5.743   4.495 -0.2171  0.2844  0.1204
 5583SOL    HW222098   5.110   5.784   4.470  1.6542 -4.2171 -2.2182
 5583SOL    HW322099   5.037   5.727   4.589  1.1508  0.7209  0.0760
 5583SOL    MW422100   5.040   5.746   4.504  0.2103 -0.2519 -0.1940
 5584SOL     OW22101   2.185   6.397   1.259 -0.4234  0.2718 -0.3148
 5584SOL    HW222102   2.219   6.318   1.301  0.0275 -0.4021 -1.8447
 5584SOL    HW322103   2.221   6.469   1.310 -1.6626 -0.4870  1.7440
 5584SOL    MW422104   2.194   6.396   1.271 -0.5274  0.0828 -0.2450
 5585SOL     OW22105   5.188   2.001   6.275 -0.2424  0.0901 -0.6542
 5585SOL    HW222106   5.283   1.988   6.267 -0.1621  1.1055 -1.6874
 5585SOL    HW322107   5.177   2.096   6.274 -1.3387 -0.0228 -1.7651
 5585SOL    MW422108   5.199   2.011   6.274 -0.3765  0.2092 -0.9371
 5586SOL     OW22109   3.815   1.270   2.707 -0.1080 -0.5310 -0.2484
 5586SOL    HW222110   3.777   1.286   2.793 -0.1149  4.0439 -0.8873
 5586SOL    HW322111   3.902   1.233   2.726  0.0246  0.6847  1.7519
 5586SOL    MW422112   3.822   1.267   2.721 -0.0914  0.2330 -0.0688
 5587SOL     OW22113   4.477   4.978   1.563  0.1577 -0.3024 -0.2127
 5587SOL    HW222114   4.489   5.072   1.551  1.9381 -0.6074 -1.1839
 5587SOL    HW322115   4.531   4.938   1.495 -0.9475 -2.0377 -0.1341
 5587SOL    MW422116   4.485   4.985   1.553  0.2468 -0.5716 -0.3305
 5588SOL     OW22117   2.667   1.975   2.662  0.1190 -0.5880 -0.6773
 5588SOL    HW222118   2.639   1.886   2.680 -0.5708 -0.1567  0.4590
 5588SOL    HW322119   2.587   2.022   2.639 -0.0143  0.3772  1.4794
 5588SOL    MW422120   2.653   1.969   2.661  0.0104 -0.4037 -0.2428
 5589SOL     OW22121   4.019   0.163   5.045  0.2203  0.2120  0.0849
 5589SOL    HW222122   3.975   0.227   5.100 -1.0673 -0.7875  0.2555
 5589SOL    HW322123   4.005   0.079   5.089  0.8033 -0.3569 -0.7763
 5589SOL    MW422124   4.012   0.160   5.058  0.1273  0.0050 -0.0062
 5590SOL     OW22125   4.860   3.913   3.263 -0.0395 -0.7160  0.3845
 5590SOL    HW222126   4.834   3.921   3.355 -0.6241 -2.3147  0.3795
 5590SOL    HW322127   4.919   3.837   3.261  0.3080 -0.4446 -0.5051
 5590SOL    MW422128   4.865   3.904   3.275 -0.0708 -0.8911  0.2664
 5591SOL     OW22129   1.804   5.205   6.029  0.5209 -0.3135 -1.0034
 5591SOL    HW222130   1.885   5.155   6.018  0.4681 -0.5182 -0.4799
 5591SOL    HW322131   1.803   5.229   6.122  0.1696  0.0117 -1.0897
 5591SOL    MW422132   1.815   5.202   6.040  0.4676 -0.2976 -0.9457
 5592SOL     OW22133   3.830   4.602   4.382  0.2111  0.4378 -0.6159
 5592SOL    HW222134   3.752   4.547   4.394  1.8613 -1.4891  2.2618
 5592SOL    HW322135   3.879   4.559   4.312  0.0808 -0.0334 -0.4216
 5592SOL    MW422136   3.826   4.589   4.374  0.4116  0.1214 -0.2106
 5593SOL     OW22137   2.329   2.786   1.989  0.2429 -0.2840  0.2504
 5593SOL    HW222138   2.281   2.813   1.911 -0.2070 -0.6434  0.3994
 5593SOL    HW322139   2.275   2.814   2.062  0.5432 -0.1702  0.4306
 5593SOL    MW422140   2.316   2.793   1.988  0.2232 -0.3164  0.2938
 5594SOL     OW22141   0.071   2.871   1.572 -0.1145 -0.8604 -0.6408
 5594SOL    HW222142   0.046   2.778   1.567 -1.1112 -0.6201 -0.2361
 5594SOL    HW322143   0.001   2.917   1.527 -0.1033 -0.2211 -0.0112
 5594SOL    MW422144   0.058   2.865   1.565 -0.2446 -0.7443 -0.5044
 5595SOL     OW22145   0.295   1.267   3.413 -0.1352  0.4722  0.4069
 5595SOL    HW222146   0.382   1.227   3.416  0.8787  2.4455 -0.7736
 5595SOL    HW322147   0.240   1.203   3.368  1.6211  0.6688 -2.1845
 5595SOL    MW422148   0.299   1.254   3.408  0.2303  0.7585 -0.0907
 5596SOL     OW22149   2.882   5.388   3.878  0.3812  0.3559  0.2856
 5596SOL    HW222150   2.908   5.311   3.828 -1.2288 -1.6287  2.3206
 5596SOL    HW322151   2.916   5.372   3.966 -0.4191  1.7454  0.8689
 5596SOL    MW422152   2.890   5.376   3.883  0.0632  0.2773  0.6310
 5597SOL     OW22153   6.124   0.692   1.253 -0.0221  0.6062 -0.2507
 5597SOL    HW222154   6.120   0.787   1.238 -1.9730  0.5797 -0.0795
 5597SOL    HW322155   6.198   0.663   1.199  1.0161  2.2939  0.1729
 5597SOL    MW422156   6.134   0.701   1.244 -0.1425  0.8253 -0.1722
 5598SOL     OW22157   4.008   4.746   3.189  0.1282 -0.0580  0.5581
 5598SOL    HW222158   3.932   4.698   3.157  0.0851  0.5392 -0.2468
 5598SOL    HW322159   4.081   4.716   3.135 -0.3013  2.4501 -1.6478
 5598SOL    MW422160   4.008   4.736   3.178  0.0659  0.3517  0.1609
 5599SOL     OW22161   2.698   5.348   1.648 -0.0030 -0.3128  0.0789
 5599SOL    HW222162   2.758   5.276   1.669  1.0187  0.7951  1.0857
 5599SOL    HW322163   2.754   5.415   1.610 -0.1819  1.4972  2.7374
 5599SOL    MW422164   2.714   5.347   1.646  0.1082  0.0722  0.5625
 5600SOL     OW22165   4.498   3.018   0.322 -0.1442 -0.1253 -0.0094
 5600SOL    HW222166   4.587   3.038   0.348 -1.4827  2.2760  3.4336
 5600SOL    HW322167   4.480   3.077   0.248  0.3796  1.2497  0.9319
 5600SOL    MW422168   4.507   3.028   0.316 -0.2517  0.3730  0.5691
 5601SOL     OW22169   6.115   4.536   1.406  1.1051 -0.6979  0.8396
 5601SOL    HW222170   6.198   4.530   1.358 -0.0898 -0.7988 -1.3024
 5601SOL    HW322171   6.106   4.629   1.426  0.3223 -0.1576 -1.6695
 5601SOL    MW422172   6.125   4.547   1.402  0.8442 -0.6400  0.2259
 5602SOL     OW22173   1.722   3.733   0.324 -0.1305 -0.4097  0.0165
 5602SOL    HW222174   1.735   3.658   0.382 -0.9868 -1.5162 -1.1467
 5602SOL    HW322175   1.697   3.805   0.382  1.0499 -0.9196  1.1966
 5602SOL    MW422176   1.720   3.733   0.339 -0.0878 -0.6229  0.0187
 5603SOL     OW22177   1.097   0.803   2.568  0.0352  0.2327 -0.0652
 5603SOL    HW222178   1.101   0.751   2.648 -1.0574  1.5550  0.9083
 5603SOL    HW322179   1.059   0.744   2.503 -0.8064 -0.3200  0.8951
 5603SOL    MW422180   1.092   0.788   2.570 -0.2200  0.3342  0.1900
 5604SOL     OW22181   0.033   5.126   0.063  0.3701  0.4132 -0.2610
 5604SOL    HW222182   0.068   5.049   0.108  1.2929  0.8021 -0.2887
 5604SOL    HW322183   0.111   5.178   0.040 -0.2340  1.3709 -0.2053
 5604SOL    MW422184   0.048   5.123   0.066  0.4121  0.5909 -0.2573
 5605SOL     OW22185   0.386   6.117   3.624 -0.3021  0.2935 -0.5357
 5605SOL    HW222186   0.302   6.146   3.661 -0.8214 -0.6152 -0.9620
 5605SOL    HW322187   0.362   6.051   3.560  0.7218  0.4280 -1.0719
 5605SOL    MW422188   0.372   6.112   3.621 -0.2356  0.1914 -0.6627
 5606SOL     OW22189   1.868   4.342   2.763  0.4948 -0.2420  0.1888
 5606SOL    HW222190   1.808   4.280   2.721  0.1896  0.1670  0.0055
 5606SOL    HW322191   1.811   4.411   2.796  0.9217  0.5361 -0.6515
 5606SOL    MW422192   1.852   4.343   2.762  0.5109 -0.0854  0.0538
 5607SOL     OW22193   4.462   3.449   5.801 -0.8615 -0.8181 -0.1040
 5607SOL    HW222194   4.451   3.357   5.778  0.2031 -1.2746  1.1097
 5607SOL    HW322195   4.456   3.451   5.896  1.8180 -0.0894  0.1483
 5607SOL    MW422196   4.460   3.437   5.810 -0.3675 -0.7822  0.0894
 5608SOL     OW22197   6.417   5.583   0.711 -0.0691 -0.4705 -0.3460
 5608SOL    HW222198   6.489   5.644   0.697  0.6174 -1.0203  0.6633
 5608SOL    HW322199   6.351   5.635   0.757 -0.0296 -0.1583 -0.6339
 5608SOL    MW422200   6.418   5.598   0.715  0.0267 -0.5018 -0.2508
 5609SOL     OW22201   1.706   1.834   1.260 -0.4298 -0.5105 -0.1634
 5609SOL    HW222202   1.618   1.865   1.241  0.4247  1.7133 -0.6970
 5609SOL    HW322203   1.758   1.913   1.270  1.1852 -1.7228  1.8754
 5609SOL    MW422204   1.701   1.848   1.259 -0.1040 -0.3770  0.0352
 5610SOL     OW22205   0.766   4.137   5.572  0.0736  0.0137  0.4258
 5610SOL    HW222206   0.805   4.174   5.493  0.4245 -0.2957  0.4484
 5610SOL    HW322207   0.679   4.176   5.577 -0.6884 -1.3472 -1.1163
 5610SOL    MW422208   0.760   4.147   5.562  0.0193 -0.2067  0.2253
 5611SOL     OW22209   3.054   3.820   0.367  0.0413  0.3260  0.1544
 5611SOL    HW222210   2.975   3.777   0.334 -0.3721  0.8128  0.4901
 5611SOL    HW322211   3.120   3.751   0.368 -0.6117 -0.3037  0.6958
 5611SOL    MW422212   3.052   3.805   0.363 -0.0994  0.3071  0.2701
 5612SOL     OW22213   5.614   4.453   1.439  0.7905 -0.0646  0.2585
 5612SOL    HW222214   5.665   4.373   1.440 -0.6277 -1.0218 -0.8574
 5612SOL    HW322215   5.677   4.521   1.414  1.6918 -1.0542 -0.2599
 5612SOL    MW422216   5.629   4.452   1.436  0.7223 -0.3215  0.0429
 5613SOL     OW22217   4.455   1.847   1.615  0.1326  0.2080  0.1034
 5613SOL    HW222218   4.496   1.925   1.577  0.3406 -0.5292 -1.2650
 5613SOL    HW322219   4.378   1.880   1.660  0.9432  1.3510  0.7012
 5613SOL    MW422220   4.451   1.862   1.616  0.2670  0.2615  0.0017
 5614SOL     OW22221   5.791   6.236   5.375  0.0537  0.3250 -0.6449
 5614SOL    HW222222   5.749   6.301   5.430  0.5868  1.5389 -1.6295
 5614SOL    HW322223   5.719   6.188   5.335 -0.3355 -0.5324  1.0150
 5614SOL    MW422224   5.776   6.238   5.377  0.0727  0.3720 -0.5558
 5615SOL     OW22225   2.228   5.243   5.694 -0.5162  0.3134 -0.1349
 5615SOL    HW222226   2.183   5.323   5.667  0.6653  0.5971 -1.3446
 5615SOL    HW322227   2.162   5.174   5.683 -0.8458  0.7912 -1.3278
 5615SOL    MW422228   2.213   5.244   5.689 -0.4038  0.4139 -0.4519
 5616SOL     OW22229   6.022   4.137   3.274  0.1704  0.2951  0.0768
 5616SOL    HW222230   6.094   4.088   3.314 -1.4836 -1.0487  1.5906
 5616SOL    HW322231   5.969   4.071   3.230 -0.4375  1.1758 -0.5590
 5616SOL    MW422232   6.024   4.122   3.274 -0.1280  0.2340  0.1927
 5617SOL     OW22233   1.101   1.244   2.884 -0.1880  0.7872  0.0100
 5617SOL    HW222234   1.012   1.216   2.864 -0.3847  1.0908  0.4489
 5617SOL    HW322235   1.144   1.164   2.916 -0.3421  0.6715 -0.0678
 5617SOL    MW422236   1.095   1.230   2.886 -0.2343  0.8120  0.0576
 5618SOL     OW22237   4.480   2.919   4.486  0.3723  0.4056 -0.6981
 5618SOL    HW222238   4.442   2.844   4.531  0.0895  0.0919 -1.4440
 5618SOL    HW322239   4.476   2.990   4.550 -0.2207  0.0220 -0.3052
 5618SOL    MW422240   4.474   2.919   4.501  0.2567  0.3136 -0.7446
 5619SOL     OW22241   3.186   5.022   5.759  0.0250 -0.0911 -0.2855
 5619SOL    HW222242   3.241   5.086   5.804  0.0008 -0.2345 -0.0507
 5619SOL    HW322243   3.098   5.059   5.759  0.0417 -0.0520 -0.2930
 5619SOL    MW422244   3.182   5.035   5.765  0.0240 -0.1049 -0.2555
 5620SOL     OW22245   3.038   0.444   5.551  0.1103  0.7711  0.2352
 5620SOL    HW222246   2.972   0.402   5.496  1.8063 -0.9339 -0.6574
 5620SOL    HW322247   3.022   0.409   5.639  0.0453  0.0541 -0.0546
 5620SOL    MW422248   3.028   0.434   5.556  0.3255  0.4516  0.0792
 5621SOL     OW22249   4.352   2.393   4.795  0.0390  0.5468  0.5312
 5621SOL    HW222250   4.371   2.364   4.706  0.4563  2.0314  0.0963
 5621SOL    HW322251   4.433   2.435   4.824 -0.6483  1.6586  0.9203
 5621SOL    MW422252   4.365   2.395   4.787  0.0034  0.8893  0.5251
 5622SOL     OW22253   0.440   2.058   2.750  0.1930 -0.5361  1.0211
 5622SOL    HW222254   0.402   2.083   2.834  0.2278  0.0544  0.8675
 5622SOL    HW322255   0.534   2.049   2.767  0.5357  1.6803  0.6119
 5622SOL    MW422256   0.448   2.060   2.763  0.2428 -0.1657  0.9468
 5623SOL     OW22257   6.362   1.962   6.255  0.1256  0.3071 -0.2647
 5623SOL    HW222258   6.436   2.013   6.222 -1.0536  0.5754 -2.7366
 5623SOL    HW322259   6.333   2.008   6.334  0.7245  1.9467 -0.9655
 5623SOL    MW422260   6.368   1.975   6.261  0.0490  0.5588 -0.6833
 5624SOL     OW22261   0.904   6.053   0.862 -0.3479 -0.2705 -0.6425
 5624SOL    HW222262   0.816   6.048   0.899  0.2125 -0.4005  0.7818
 5624SOL    HW322263   0.955   5.990   0.914  0.2750 -1.3096 -2.4259
 5624SOL    MW422264   0.899   6.044   0.874 -0.1918 -0.4248 -0.6899
 5625SOL     OW22265   3.794   1.822   4.672 -0.2500  0.6632  0.3528
 5625SOL    HW222266   3.706   1.794   4.695  0.3729 -0.4885  1.4700
 5625SOL    HW322267   3.823   1.875   4.746 -0.0298  1.1639 -0.0743
 5625SOL    MW422268   3.786   1.826   4.684 -0.1387  0.5773  0.4438
 5626SOL     OW22269   3.821   6.409   4.736  0.1325  0.8493 -0.0276
 5626SOL    HW222270   3.743   6.394   4.682 -0.2202 -1.3782  0.9832
 5626SOL    HW322271   3.791   6.470   4.804 -0.7902 -0.0640  0.4150
 5626SOL    MW422272   3.807   6.415   4.738 -0.0358  0.4349  0.1641
 5627SOL     OW22273   0.035   0.691   3.746  0.0742 -0.2638  0.0384
 5627SOL    HW222274  -0.045   0.738   3.769 -0.4640 -0.5725 -1.1197
 5627SOL    HW322275   0.105   0.752   3.770 -0.4959  0.0451  0.9965
 5627SOL    MW422276   0.034   0.706   3.752 -0.0720 -0.2638  0.0120
 5628SOL     OW22277   2.044   3.655   6.110 -0.2350 -0.3269 -0.2227
 5628SOL    HW222278   2.043   3.566   6.076 -1.8894 -0.3508 -0.1967
 5628SOL    HW322279   2.126   3.662   6.159  0.2261 -1.6059 -0.7923
 5628SOL    MW422280   2.055   3.644   6.112 -0.3924 -0.4988 -0.2944
 5629SOL     OW22281   5.845   2.863   6.395  0.0948 -0.0228 -0.3835
 5629SOL    HW222282   5.852   2.949   6.354 -0.7524  0.2021 -0.0748
 5629SOL    HW322283   5.754   2.857   6.423  0.9546  0.5276  2.9746
 5629SOL    MW422284   5.834   2.873   6.393  0.0965  0.0795  0.1003
 5630SOL     OW22285   4.113   1.731   1.014 -0.0550  0.2609  0.0352
 5630SOL    HW222286   4.033   1.711   1.062  0.3590  0.0836  0.6638
 5630SOL    HW322287   4.131   1.823   1.036  1.5785 -0.5396  2.4123
 5630SOL    MW422288   4.105   1.741   1.023  0.2151  0.1319  0.4318
 5631SOL     OW22289   3.322   2.255   5.489 -0.0578  0.6946 -0.4577
 5631SOL    HW222290   3.328   2.342   5.528  3.1646  0.7452 -0.8086
 5631SOL    HW322291   3.367   2.264   5.405  0.1960 -1.2589 -0.5647
 5631SOL    MW422292   3.329   2.268   5.483  0.4008  0.4436 -0.5181
 5632SOL     OW22293   4.941   1.156   0.248  0.1171 -0.0958 -0.0278
 5632SOL    HW222294   4.973   1.120   0.165  2.7933  1.2626  0.2952
 5632SOL    HW322295   5.009   1.132   0.312  0.1994  2.3083  0.9068
 5632SOL    MW422296   4.954   1.148   0.245  0.4811  0.4006  0.1381
 5633SOL     OW22297   3.746   6.406   3.117 -0.3019 -0.5013  0.3552
 5633SOL    HW222298   3.678   6.355   3.073 -2.0966  1.2245  0.9454
 5633SOL    HW322299   3.732   6.389   3.211  0.3739 -0.4731  0.4635
 5633SOL    MW422300   3.735   6.397   3.124 -0.4495 -0.2699  0.4474
 5634SOL     OW22301   2.522   0.367   3.423  0.1672  0.1260 -0.0910
 5634SOL    HW222302   2.572   0.310   3.482 -2.2397 -2.9398 -0.7156
 5634SOL    HW322303   2.580   0.383   3.349  1.9631  1.0486  1.4462
 5634SOL    MW422304   2.536   0.362   3.421  0.0866 -0.1568  0.0294
 5635SOL     OW22305   5.842   1.763   0.687 -0.1029 -0.1484  0.0600
 5635SOL    HW222306   5.885   1.796   0.766  2.7674 -1.4388 -0.8472
 5635SOL    HW322307   5.783   1.833   0.661  0.7988  1.3942  1.8869
 5635SOL    MW422308   5.840   1.777   0.694  0.3948 -0.1151  0.1814
 5636SOL     OW22309   5.617   6.444   6.243  0.3340 -0.6537 -0.3685
 5636SOL    HW222310   5.678   6.394   6.298  0.4787 -1.3438 -1.1415
 5636SOL    HW322311   5.539   6.389   6.238 -0.2570  0.0792  0.3449
 5636SOL    MW422312   5.615   6.430   6.250  0.2751 -0.6480 -0.3763
 5637SOL     OW22313   4.209   2.227   2.926 -0.2382 -0.1520  0.2972
 5637SOL    HW222314   4.172   2.139   2.933 -0.3616 -0.1900 -0.6651
 5637SOL    HW322315   4.262   2.224   2.846 -0.5614  0.7622  0.0419
 5637SOL    MW422316   4.211   2.215   2.916 -0.2971 -0.0364  0.1366
 5638SOL     OW22317   0.308   5.033   3.275  0.7125 -0.1718  0.1105
 5638SOL    HW222318   0.254   4.971   3.226 -0.7004  0.0069  1.3837
 5638SOL    HW322319   0.397   4.997   3.270  0.4221 -0.7316 -1.6136
 5638SOL    MW422320   0.313   5.020   3.268  0.4878 -0.2221  0.0510
 5639SOL     OW22321   4.034   5.158   4.361  0.2374  0.1585  0.4730
 5639SOL    HW222322   4.014   5.100   4.287 -0.9938 -0.1388  0.9986
 5639SOL    HW322323   4.129   5.166   4.361  0.2221  1.5836 -2.2150
 5639SOL    MW422324   4.044   5.151   4.351  0.0729  0.3073  0.1877
 5640SOL     OW22325   1.846   4.072   3.032 -0.3019  0.0323 -0.7903
 5640SOL    HW222326   1.879   4.159   3.009 -0.3287  0.0255 -0.8551
 5640SOL    HW322327   1.764   4.090   3.078 -0.4928  0.0293 -1.1247
 5640SOL    MW422328   1.839   4.086   3.035 -0.3306  0.0310 -0.8430
 5641SOL     OW22329   4.069   1.430   2.248  0.0992  0.3206 -0.0036
 5641SOL    HW222330   4.079   1.340   2.217  2.4440  0.0129  1.3975
 5641SOL    HW322331   3.974   1.442   2.256 -0.2993 -1.8347 -0.7302
 5641SOL    MW422332   4.058   1.419   2.245  0.3560 -0.0044  0.0854
 5642SOL     OW22333   1.874   4.154   0.924  0.2028  0.5397  0.0958
 5642SOL    HW222334   1.908   4.164   1.013  0.0439 -0.4404  0.2752
 5642SOL    HW322335   1.951   4.141   0.869  0.2732  0.7376  0.1478
 5642SOL    MW422336   1.889   4.154   0.928  0.1911  0.4365  0.1263
 5643SOL     OW22337   6.071   4.901   2.470  0.3174  0.0941 -0.3265
 5643SOL    HW222338   6.039   4.962   2.536  1.8976 -0.2686  0.8350
 5643SOL    HW322339   6.013   4.825   2.479  0.5615  0.0102  0.7383
 5643SOL    MW422340   6.059   4.899   2.480  0.5581  0.0352 -0.0328
 5644SOL     OW22341   5.818   5.878   3.307 -0.1735  0.4300  0.5721
 5644SOL    HW222342   5.729   5.892   3.274 -0.3959  0.9610  1.3528
 5644SOL    HW322343   5.806   5.832   3.390  0.1736  1.8462  1.4407
 5644SOL    MW422344   5.805   5.874   3.314 -0.1571  0.6869  0.7897
 5645SOL     OW22345   1.046   5.418   1.727  0.2714 -0.1139  0.0631
 5645SOL    HW222346   1.097   5.475   1.786 -0.2411  0.3660  0.0527
 5645SOL    HW322347   1.034   5.337   1.777  0.1255  0.1685  0.4896
 5645SOL    MW422348   1.052   5.415   1.742  0.1845 -0.0133  0.1180
 5646SOL     OW22349   2.245   4.622   0.399 -0.6503  0.0967 -0.3479
 5646SOL    HW222350   2.303   4.588   0.467 -1.1649 -0.8707 -0.3802
 5646SOL    HW322351   2.297   4.688   0.354 -0.3852  0.9799  1.1580
 5646SOL    MW422352   2.259   4.626   0.402 -0.6832  0.0856 -0.1534
 5647SOL     OW22353   1.315   2.822   5.174  0.6100  0.1974 -0.0448
 5647SOL    HW222354   1.364   2.888   5.224 -1.9682  0.7275  1.9954
 5647SOL    HW322355   1.327   2.741   5.224  1.0375 -0.1381 -0.6800
 5647SOL    MW422356   1.323   2.820   5.187  0.3262  0.2231  0.1405
 5648SOL     OW22357   5.260   4.380   0.350 -0.5065 -0.1205 -0.2707
 5648SOL    HW222358   5.241   4.394   0.257 -1.8261 -0.1908 -0.0388
 5648SOL    HW322359   5.338   4.325   0.351  0.0813  0.6465 -1.3136
 5648SOL    MW422360   5.268   4.375   0.338 -0.6031 -0.0286 -0.3777
 5649SOL     OW22361   1.717   5.938   1.099 -0.3925 -0.4283  0.2845
 5649SOL    HW222362   1.716   5.992   1.178  0.8958  0.8185 -0.5042
 5649SOL    HW322363   1.649   5.975   1.043 -0.2803 -0.3333  0.2088
 5649SOL    MW422364   1.708   5.950   1.102 -0.2077 -0.2513  0.1705
 5650SOL     OW22365   6.308   1.415   2.239 -0.2877  0.2676  0.0106
 5650SOL    HW222366   6.265   1.335   2.269  0.1897 -0.2381 -0.6139
 5650SOL    HW322367   6.247   1.485   2.260 -1.6222 -0.4750 -1.2315
 5650SOL    MW422368   6.295   1.413   2.245 -0.4008  0.1029 -0.2357
 5651SOL     OW22369   1.546   1.007   2.640  0.2413  0.0050  0.0251
 5651SOL    HW222370   1.580   1.056   2.715 -0.9547  0.5557  0.2222
 5651SOL    HW322371   1.530   1.073   2.573 -0.9510 -0.1547  0.1352
 5651SOL    MW422372   1.549   1.022   2.641 -0.0738  0.0566  0.0657
 5652SOL     OW22373   5.043   4.196   5.420  0.8390 -0.0000 -0.3864
 5652SOL    HW222374   5.138   4.187   5.414  0.9668  1.1684 -0.1883
 5652SOL    HW322375   5.029   4.284   5.452 -0.2719 -0.8006  1.4497
 5652SOL    MW422376   5.054   4.206   5.423  0.7093  0.0485 -0.1180
 5653SOL     OW22377   4.803   5.763   1.004  0.3848  0.0906 -0.4460
 5653SOL    HW222378   4.804   5.706   0.927 -1.3448 -1.2547  0.4421
 5653SOL    HW322379   4.742   5.834   0.981  0.5958  0.2092 -0.6433
 5653SOL    MW422380   4.795   5.765   0.990  0.1844 -0.0712 -0.3548
 5654SOL     OW22381   2.468   1.186   2.483 -0.0386 -0.0228  0.6186
 5654SOL    HW222382   2.428   1.186   2.396 -0.5008  2.9802  0.7257
 5654SOL    HW322383   2.399   1.216   2.542  0.5520 -1.0647  1.8911
 5654SOL    MW422384   2.454   1.190   2.479 -0.0217  0.2360  0.8006
 5655SOL     OW22385   2.001   1.994   0.973 -0.1728  0.1647 -0.7892
 5655SOL    HW222386   1.949   1.914   0.971  1.8603 -1.3312  1.5993
 5655SOL    HW322387   2.062   1.985   0.899  0.6708 -1.0130  0.0133
 5655SOL    MW422388   2.002   1.983   0.963  0.2067 -0.1880 -0.3682
 5656SOL     OW22389   3.764   3.323   5.865 -0.1812  0.0321  0.1669
 5656SOL    HW222390   3.860   3.323   5.862 -0.1453 -0.5335  0.8239
 5656SOL    HW322391   3.743   3.373   5.944 -0.5028  1.6854 -0.9233
 5656SOL    MW422392   3.774   3.330   5.875 -0.2189  0.1756  0.1098
 5657SOL     OW22393   2.206   4.673   0.798 -0.0907 -0.2127  0.2996
 5657SOL    HW222394   2.154   4.729   0.856  1.4407  2.3727 -0.6624
 5657SOL    HW322395   2.167   4.685   0.712  1.0993  0.5341 -0.1554
 5657SOL    MW422396   2.194   4.682   0.794  0.2684  0.2269  0.1126
 5658SOL     OW22397   2.889   2.479   1.734  0.3419  0.2141  0.3164
 5658SOL    HW222398   2.879   2.560   1.782  1.1567  0.5028  0.0182
 5658SOL    HW322399   2.970   2.490   1.684  1.6876 -1.6110  1.9376
 5658SOL    MW422400   2.898   2.491   1.733  0.6269  0.0114  0.4909
 5659SOL     OW22401   1.731   2.526   0.104 -0.1303  0.3804  0.0136
 5659SOL    HW222402   1.826   2.537   0.098 -0.4392  3.7059 -0.6741
 5659SOL    HW322403   1.696   2.615   0.104 -3.3484 -0.7211 -1.0263
 5659SOL    MW422404   1.739   2.539   0.103 -0.5957  0.6739 -0.2143
 5660SOL     OW22405   4.961   3.310   1.962 -0.0633  0.9896  0.4970
 5660SOL    HW222406   4.900   3.246   2.001  0.2059 -0.8478 -1.8586
 5660SOL    HW322407   4.908   3.359   1.900  0.7261 -0.5519 -1.4973
 5660SOL    MW422408   4.946   3.308   1.959  0.0764  0.5438 -0.0769
 5661SOL     OW22409   6.379   4.236   6.255 -0.6353 -0.6059 -0.3493
 5661SOL    HW222410   6.392   4.160   6.312 -0.1663 -1.3068 -1.3585
 5661SOL    HW322411   6.425   4.213   6.174 -0.2967  0.8490 -0.5919
 5661SOL    MW422412   6.387   4.223   6.252 -0.5287 -0.5064 -0.5145
 5662SOL     OW22413   6.419   3.780   5.160 -0.4612 -0.0730 -0.2250
 5662SOL    HW222414   6.421   3.692   5.198 -0.7312  0.9979  2.4919
 5662SOL    HW322415   6.327   3.796   5.141 -0.2673 -0.8008 -1.9231
 5662SOL    MW422416   6.407   3.770   5.162 -0.4713 -0.0278 -0.0906
 5663SOL     OW22417   1.314   2.753   6.161 -0.1173  0.2456 -0.0218
 5663SOL    HW222418   1.397   2.790   6.131 -0.7993  0.8473 -1.1942
 5663SOL    HW322419   1.330   2.732   6.253  0.9982  1.3335  0.0610
 5663SOL    MW422420   1.327   2.755   6.169 -0.0601  0.4685 -0.1656
 5664SOL     OW22421   1.437   0.264   2.956  0.0749 -0.5096  0.2938
 5664SOL    HW222422   1.521   0.310   2.950  0.1430 -0.7146 -0.5403
 5664SOL    HW322423   1.458   0.174   2.930 -0.2275 -0.8004  1.0241
 5664SOL    MW422424   1.451   0.258   2.952  0.0440 -0.5750  0.2801
 5665SOL     OW22425   5.181   4.971   2.861 -0.2213 -0.3346  0.4868
 5665SOL    HW222426   5.245   4.976   2.790 -1.4352  0.8337 -0.5811
 5665SOL    HW322427   5.233   4.983   2.941  1.1507 -1.5250 -0.1764
 5665SOL    MW422428   5.196   4.973   2.862 -0.2005 -0.3375  0.2584
 5666SOL     OW22429   1.905   3.017   4.457  0.1363  0.4129 -0.3493
 5666SOL    HW222430   1.897   3.031   4.551  1.8626 -0.5884 -0.0122
 5666SOL    HW322431   1.884   3.102   4.418  1.8738  1.5656  1.0876
 5666SOL    MW422432   1.901   3.030   4.464  0.5933  0.4329 -0.1152
 5667SOL     OW22433   5.918   0.799   3.436 -0.1484 -0.0698 -0.3420
 5667SOL    HW222434   5.823   0.787   3.440  0.0736 -1.9263  0.5468
 5667SOL    HW322435   5.943   0.819   3.526  0.2197  1.4493 -0.7559
 5667SOL    MW422436   5.908   0.800   3.448 -0.0705 -0.1143 -0.2793
 5668SOL     OW22437   5.963   4.755   3.420  0.1698 -0.6571  0.1272
 5668SOL    HW222438   5.875   4.776   3.451  0.4320  0.8311 -0.0672
 5668SOL    HW322439   5.952   4.737   3.327  0.2961  1.1870 -0.2635
 5668SOL    MW422440   5.950   4.755   3.412  0.2211 -0.2174  0.0500
 5669SOL     OW22441   4.116   4.836   5.740  0.2658  0.3238  0.1973
 5669SOL    HW222442   4.050   4.884   5.690  0.6301  1.9039  1.1719
 5669SOL    HW322443   4.122   4.882   5.823  2.5186  0.1774  0.1796
 5669SOL    MW422444   4.108   4.848   5.744  0.6111  0.5129  0.3235
 5670SOL     OW22445   0.953   1.374   4.399 -0.4612 -0.1905  0.0344
 5670SOL    HW222446   0.882   1.437   4.411  0.4785  0.5452  2.1294
 5670SOL    HW322447   0.914   1.289   4.417 -0.8484  0.2014  1.0892
 5670SOL    MW422448   0.939   1.371   4.403 -0.3883 -0.0417  0.4499
 5671SOL     OW22449   1.076   2.212   2.212  0.6322  0.2009  0.3429
 5671SOL    HW222450   1.098   2.305   2.204  0.9462  0.1418  0.4893
 5671SOL    HW322451   1.141   2.167   2.159  0.6533  0.0473  0.4967
 5671SOL    MW422452   1.087   2.218   2.204  0.6764  0.1728  0.3825
 5672SOL     OW22453   4.259   5.530   0.299 -0.0399 -0.1318  0.4390
 5672SOL    HW222454   4.200   5.510   0.372 -0.4127 -0.5054  0.0470
 5672SOL    HW322455   4.200   5.542   0.224  0.4183 -1.3119 -0.1387
 5672SOL    MW422456   4.243   5.529   0.299 -0.0286 -0.3368  0.3111
 5673SOL     OW22457   5.414   4.750   5.427 -0.3492 -0.0458  0.5269
 5673SOL    HW222458   5.338   4.804   5.404 -0.8185 -0.6182  0.7078
 5673SOL    HW322459   5.459   4.735   5.344 -0.0572  0.8450  0.5119
 5673SOL    MW422460   5.410   4.755   5.413 -0.3726 -0.0038  0.5488
 5674SOL     OW22461   4.832   6.243   3.399 -0.1646  0.2449 -0.5044
 5674SOL    HW222462   4.916   6.287   3.412 -0.3323  0.7654 -1.1248
 5674SOL    HW322463   4.848   6.182   3.327 -0.4823  0.8198 -1.0717
 5674SOL    MW422464   4.845   6.241   3.391 -0.2286  0.3895 -0.6611
 5675SOL     OW22465   5.027   2.985   3.021 -0.4500 -0.0006  0.1366
 5675SOL    HW222466   5.071   3.013   2.941 -0.1356 -0.7960  0.0211
 5675SOL    HW322467   4.934   2.998   3.004 -0.2697  3.0337  0.8829
 5675SOL    MW422468   5.020   2.990   3.008 -0.3848  0.2948  0.2198
 5676SOL     OW22469   4.094   4.780   1.181 -0.1903  0.0014 -0.2921
 5676SOL    HW222470   4.036   4.809   1.110 -1.9708 -4.0750 -0.7508
 5676SOL    HW322471   4.182   4.789   1.144 -0.8873  0.6213 -1.9424
 5676SOL    MW422472   4.098   4.785   1.166 -0.5171 -0.4547 -0.5704
 5677SOL     OW22473   2.000   6.386   4.673 -0.3226  0.2199 -0.0839
 5677SOL    HW222474   1.982   6.479   4.658  2.4476  0.5369 -2.2484
 5677SOL    HW322475   2.066   6.386   4.743  0.6195  0.0274 -0.9455
 5677SOL    MW422476   2.007   6.398   4.680  0.1672  0.2364 -0.4831
 5678SOL     OW22477   1.345   4.995   6.284 -0.0316 -0.4868  0.0411
 5678SOL    HW222478   1.419   5.052   6.260 -0.2686 -0.7229 -1.3388
 5678SOL    HW322479   1.281   5.054   6.323  0.6094 -0.1734  0.6489
 5678SOL    MW422480   1.346   5.010   6.286  0.0217 -0.4766 -0.0608
 5679SOL     OW22481   0.410   4.858   3.882 -0.0878  0.1582 -0.4376
 5679SOL    HW222482   0.493   4.813   3.899 -0.9751 -0.7349  1.9495
 5679SOL    HW322483   0.402   4.920   3.955 -1.0281  1.0407 -1.2583
 5679SOL    MW422484   0.420   4.860   3.894 -0.3290  0.1568 -0.2310
 5680SOL     OW22485   5.602   4.498   3.379 -0.0859 -0.5964  0.2795
 5680SOL    HW222486   5.598   4.415   3.427  1.2910 -0.8710 -0.0411
 5680SOL    HW322487   5.637   4.474   3.293 -1.2373  0.0915 -0.4051
 5680SOL    MW422488   5.606   4.484   3.374 -0.0562 -0.5419  0.1469
 5681SOL     OW22489   2.837   1.547   2.646 -0.3716  0.5550  0.0031
 5681SOL    HW222490   2.897   1.576   2.715  0.2888 -1.2637  0.2491
 5681SOL    HW322491   2.759   1.600   2.658  0.6710  2.0138  0.5506
 5681SOL    MW422492   2.835   1.557   2.657 -0.1469  0.5075  0.1078
 5682SOL     OW22493   3.143   4.148   1.618 -0.0279  0.1278 -0.3522
 5682SOL    HW222494   3.176   4.228   1.578 -1.5482  0.7546 -0.4348
 5682SOL    HW322495   3.070   4.122   1.562 -2.0903  0.8949  1.7946
 5682SOL    MW422496   3.138   4.155   1.605 -0.5006  0.3117 -0.0798
 5683SOL     OW22497   2.725   0.984   1.387  0.1091  0.1858  0.2829
 5683SOL    HW222498   2.761   1.067   1.359  0.4900 -0.0263  0.1397
 5683SOL    HW322499   2.637   1.005   1.419  1.3455  1.1930  3.3941
 5683SOL    MW422500   2.718   0.997   1.388  0.3225  0.2907  0.6745
 5684SOL     OW22501   0.900   1.847   3.141  0.1431 -0.3251 -0.8853
 5684SOL    HW222502   0.813   1.873   3.110  0.4520  0.3856 -1.1703
 5684SOL    HW322503   0.931   1.785   3.075 -0.0048 -0.3200 -0.9612
 5684SOL    MW422504   0.892   1.843   3.128  0.1643 -0.2307 -0.9329
 5685SOL     OW22505   4.111   1.022   3.238 -0.4007  0.1415 -0.4536
 5685SOL    HW222506   4.125   0.984   3.325  0.2371  1.7895  0.2257
 5685SOL    HW322507   4.017   1.015   3.223 -0.7056  0.8744  0.9217
 5685SOL    MW422508   4.101   1.016   3.247 -0.3568  0.4557 -0.1825
 5686SOL     OW22509   1.944   0.622   2.429  0.1853 -0.1412  0.6086
 5686SOL    HW222510   1.981   0.703   2.464  5.6495 -1.8474 -0.3707
 5686SOL    HW322511   1.907   0.648   2.344 -0.2756  1.6217  1.2997
 5686SOL    MW422512   1.944   0.636   2.422  0.8454 -0.1337  0.5705
 5687SOL     OW22513   5.268   0.192   0.880 -0.4212  0.4348 -0.1566
 5687SOL    HW222514   5.313   0.184   0.964  0.6132  2.4269 -0.4899
 5687SOL    HW322515   5.187   0.238   0.900 -0.3963  0.4917 -0.1879
 5687SOL    MW422516   5.263   0.197   0.894 -0.2814  0.7051 -0.2047
 5688SOL     OW22517   4.626   5.429   2.191 -0.5524 -0.3379  0.5209
 5688SOL    HW222518   4.584   5.481   2.123 -0.9034  0.3710  1.2673
 5688SOL    HW322519   4.590   5.463   2.273  2.6650  1.4954  1.3483
 5688SOL    MW422520   4.616   5.440   2.193 -0.1742 -0.0025  0.7285
 5689SOL     OW22521   2.364   3.174   5.167 -0.2865  0.3164 -0.0595
 5689SOL    HW222522   2.358   3.136   5.255  1.3473 -0.2235 -0.1469
 5689SOL    HW322523   2.421   3.250   5.177  0.3154 -0.0377 -0.7328
 5689SOL    MW422524   2.371   3.179   5.180  0.0084  0.1984 -0.1599
 5690SOL     OW22525   2.275   5.445   1.457  0.0238  0.4625  0.0546
 5690SOL    HW222526   2.318   5.492   1.386  0.2506  2.3004  1.3138
 5690SOL    HW322527   2.334   5.456   1.532  0.3266 -2.3270  0.3394
 5690SOL    MW422528   2.288   5.453   1.458  0.0936  0.3369  0.2583
 5691SOL     OW22529   5.436   3.906   3.406  0.0159  0.1636  0.7529
 5691SOL    HW222530   5.404   3.922   3.317  1.8069 -1.7858 -0.3321
 5691SOL    HW322531   5.364   3.861   3.450  0.3472 -2.1772 -0.9337
 5691SOL    MW422532   5.422   3.902   3.400  0.2959 -0.4024  0.3872
 5692SOL     OW22533   2.668   5.786   0.107  0.5972  0.1332  0.1253
 5692SOL    HW222534   2.582   5.815   0.075  0.9305  0.7213 -0.2584
 5692SOL    HW322535   2.725   5.793   0.031  0.8647 -0.8175  0.2281
 5692SOL    MW422536   2.664   5.791   0.092  0.6765  0.0854  0.0883
 5693SOL     OW22537   1.208   0.666   0.403  0.2057 -0.3657 -0.7474
 5693SOL    HW222538   1.223   0.706   0.489 -0.7411  0.2360 -0.8475
 5693SOL    HW322539   1.284   0.610   0.389  0.7480  0.1268  0.1417
 5693SOL    MW422540   1.220   0.664   0.412  0.1523 -0.2213 -0.6433
 5694SOL     OW22541   1.841   4.870   3.269  0.4468  0.2554  0.1062
 5694SOL    HW222542   1.871   4.784   3.298  1.2393 -0.2275 -1.9530
 5694SOL    HW322543   1.755   4.854   3.230  0.5034  0.4177 -0.0918
 5694SOL    MW422544   1.833   4.857   3.267  0.5588  0.2131 -0.1916
 5695SOL     OW22545   0.208   3.385   3.609  0.4141  0.2457 -0.0979
 5695SOL    HW222546   0.114   3.399   3.623  0.1338 -2.1083  0.7497
 5695SOL    HW322547   0.244   3.473   3.600 -1.5967  1.2858  1.3399
 5695SOL    MW422548   0.200   3.399   3.609  0.1118  0.0723  0.2036
 5696SOL     OW22549   1.173   2.589   2.467 -0.9314 -0.4838 -0.8754
 5696SOL    HW222550   1.121   2.514   2.440 -1.2772 -0.2536 -0.8488
 5696SOL    HW322551   1.116   2.665   2.453 -0.4693 -0.1917 -1.2280
 5696SOL    MW422552   1.159   2.589   2.461 -0.9161 -0.4149 -0.9184
 5697SOL     OW22553   2.462   0.395   5.878  0.1226  0.5355 -0.2445
 5697SOL    HW222554   2.543   0.411   5.927  0.1295 -1.3837  0.4689
 5697SOL    HW322555   2.491   0.360   5.794  0.0400 -0.0326 -0.0382
 5697SOL    MW422556   2.477   0.393   5.873  0.1126  0.2073 -0.1232
 5698SOL     OW22557   1.318   0.711   5.206 -0.3616 -0.1191 -0.0625
 5698SOL    HW222558   1.226   0.733   5.188 -1.3664 -2.5441  1.5438
 5698SOL    HW322559   1.346   0.776   5.271 -1.5099 -0.3025  0.6489
 5698SOL    MW422560   1.309   0.722   5.212 -0.6457 -0.4632  0.2433
 5699SOL     OW22561   0.265   2.821   0.828  0.0010  0.2356 -0.2148
 5699SOL    HW222562   0.264   2.826   0.924  2.4678  1.2338 -0.1449
 5699SOL    HW322563   0.189   2.873   0.801 -1.0546 -0.5182  1.1867
 5699SOL    MW422564   0.255   2.829   0.837  0.1872  0.2679 -0.0207
 5700SOL     OW22565   3.394   4.189   4.096  0.1973  0.4051  0.3247
 5700SOL    HW222566   3.372   4.112   4.149 -1.5326  0.0342 -0.8445
 5700SOL    HW322567   3.393   4.157   4.006  0.0317  1.6624 -0.1426
 5700SOL    MW422568   3.391   4.175   4.091 -0.0528  0.5221  0.1088
 5701SOL     OW22569   4.084   2.460   4.997 -0.2206 -0.2683  0.0741
 5701SOL    HW222570   4.028   2.383   4.990  0.8533 -1.2871  1.9458
 5701SOL    HW322571   4.088   2.495   4.908 -1.2026 -2.0304 -0.7082
 5701SOL    MW422572   4.077   2.454   4.984 -0.2085 -0.6352  0.2178
 5702SOL     OW22573   1.941   4.609   2.916  0.1430 -0.2273 -0.5328
 5702SOL    HW222574   1.852   4.603   2.880  0.0113  1.1768 -0.4883
 5702SOL    HW322575   1.998   4.594   2.841 -0.0609 -3.0061 -0.2519
 5702SOL    MW422576   1.936   4.606   2.902  0.0987 -0.4087 -0.4898
 5703SOL     OW22577   0.259   4.673   0.525 -0.1691  0.1067  0.0022
 5703SOL    HW222578   0.313   4.692   0.602 -0.7424  0.8494  0.2253
 5703SOL    HW322579   0.303   4.718   0.453  1.0999 -1.6440 -0.3930
 5703SOL    MW422580   0.272   4.681   0.526 -0.0773 -0.0263 -0.0205
 5704SOL     OW22581   5.457   0.357   2.350  0.1206  0.8609  0.0654
 5704SOL    HW222582   5.496   0.277   2.385  0.4802  0.2113 -1.6913
 5704SOL    HW322583   5.524   0.424   2.364  0.5134  0.4779  0.0321
 5704SOL    MW422584   5.471   0.356   2.356  0.2199  0.7247 -0.1707
 5705SOL     OW22585   2.899   6.035   0.301  0.3582  0.0336 -0.3230
 5705SOL    HW222586   2.939   6.122   0.307 -1.5169  1.0250 -1.3732
 5705SOL    HW322587   2.874   6.026   0.209 -0.7780 -1.0015  0.0646
 5705SOL    MW422588   2.901   6.045   0.290 -0.0391  0.0278 -0.4104
 5706SOL     OW22589   5.205   6.238   1.435 -1.0381  0.1179  0.0085
 5706SOL    HW222590   5.260   6.160   1.422 -0.8675  0.0978  0.8153
 5706SOL    HW322591   5.135   6.228   1.370 -2.1031 -1.7082  1.3348
 5706SOL    MW422592   5.203   6.226   1.424 -1.1561 -0.1257  0.2899
 5707SOL     OW22593   0.826   2.749   0.768 -0.1280 -0.3888  0.9102
 5707SOL    HW222594   0.742   2.708   0.789 -0.7190  0.4495  0.2839
 5707SOL    HW322595   0.859   2.698   0.694  0.2573 -1.1476  1.5932
 5707SOL    MW422596   0.819   2.737   0.761 -0.1551 -0.3783  0.9177
 5708SOL     OW22597   6.057   2.543   0.611 -0.2888  0.0510 -0.6239
 5708SOL    HW222598   5.990   2.599   0.650 -0.1334 -0.5115  0.4728
 5708SOL    HW322599   6.140   2.576   0.646 -0.0977 -0.1367 -0.8893
 5708SOL    MW422600   6.059   2.555   0.620 -0.2431 -0.0480 -0.5142
 5709SOL     OW22601   5.103   6.411   4.612  0.2643  0.1852 -0.5074
 5709SOL    HW222602   5.145   6.453   4.536  0.3002 -0.3225 -0.7749
 5709SOL    HW322603   5.038   6.474   4.641  0.8851  0.7879 -0.3846
 5709SOL    MW422604   5.100   6.425   4.606  0.3509  0.1977 -0.5265
 5710SOL     OW22605   3.425   4.091   1.651  0.1990  0.6137 -0.1807
 5710SOL    HW222606   3.467   4.057   1.572  1.4385  0.4152  0.5362
 5710SOL    HW322607   3.332   4.080   1.635  0.4587 -2.9036 -0.1455
 5710SOL    MW422608   3.419   4.085   1.639  0.3968  0.1235 -0.0815
 5711SOL     OW22609   2.325   2.941   2.596 -0.0304  0.2482 -0.0304
 5711SOL    HW222610   2.314   2.953   2.691  0.1527 -0.3367  0.0645
 5711SOL    HW322611   2.419   2.935   2.583 -0.0541  0.3403 -0.2575
 5711SOL    MW422612   2.336   2.942   2.607 -0.0094  0.1832 -0.0478
 5712SOL     OW22613   1.633   2.364   0.350 -0.1580 -0.1106  0.0435
 5712SOL    HW222614   1.675   2.408   0.276  0.9896 -0.3212  0.5510
 5712SOL    HW322615   1.582   2.293   0.310 -2.9427  2.2065 -0.9036
 5712SOL    MW422616   1.632   2.361   0.335 -0.3740  0.1674 -0.0145
 5713SOL     OW22617   2.947   6.272   1.309  0.2354  0.3936 -0.6707
 5713SOL    HW222618   3.041   6.279   1.328  0.3089  0.2634 -0.9844
 5713SOL    HW322619   2.915   6.206   1.371  0.2637  0.7650 -0.2586
 5713SOL    MW422620   2.956   6.264   1.320  0.2488  0.4254 -0.6577
 5714SOL     OW22621   1.330   2.254   4.333 -0.4871  0.0328  0.1873
 5714SOL    HW222622   1.340   2.181   4.395  0.7101  0.4332  0.4856
 5714SOL    HW322623   1.281   2.216   4.260  0.6457 -1.2667  0.0567
 5714SOL    MW422624   1.325   2.239   4.331 -0.1796 -0.0858  0.2094
 5715SOL     OW22625   1.130   1.654   2.781 -0.1521 -0.2707 -0.5551
 5715SOL    HW222626   1.074   1.699   2.718  0.7027  2.0957  0.2628
 5715SOL    HW322627   1.213   1.641   2.736  0.3014  0.9842 -0.1191
 5715SOL    MW422628   1.133   1.658   2.767  0.0205  0.2071 -0.3897
 5716SOL     OW22629   1.315   0.638   2.222  0.2856  0.0320 -0.0958
 5716SOL    HW222630   1.345   0.552   2.193  0.6527  0.2458 -0.3558
 5716SOL    HW322631   1.395   0.688   2.236  0.0733  0.3458  0.0178
 5716SOL    MW422632   1.329   0.633   2.220  0.3060  0.1016 -0.1151
 5717SOL     OW22633   5.547   5.578   1.023  0.1529 -0.9734  0.5925
 5717SOL    HW222634   5.518   5.488   1.009  0.4987 -1.1527  1.0346
 5717SOL    HW322635   5.544   5.618   0.935 -0.4375 -1.2796  0.4680
 5717SOL    MW422636   5.542   5.572   1.009  0.1206 -1.0374  0.6344
 5718SOL     OW22637   2.412   0.904   2.553  0.3397  0.2323  0.7146
 5718SOL    HW222638   2.426   0.998   2.540  1.3540  0.1424  1.0810
 5718SOL    HW322639   2.391   0.870   2.466  0.8554  0.6559  0.4224
 5718SOL    MW422640   2.411   0.912   2.540  0.5415  0.2764  0.7244
 5719SOL     OW22641   5.250   0.798   1.406  0.0767 -0.0142  0.0468
 5719SOL    HW222642   5.326   0.807   1.463  0.0160  1.3522 -0.0607
 5719SOL    HW322643   5.249   0.705   1.381  1.2396 -0.2072  0.6761
 5719SOL    MW422644   5.260   0.787   1.410  0.2221  0.1406  0.1156
 5720SOL     OW22645   5.941   3.676   5.547 -0.1724 -0.4787 -0.2232
 5720SOL    HW222646   5.970   3.616   5.615 -0.5916 -1.7409 -1.1232
 5720SOL    HW322647   6.015   3.680   5.486 -0.3869 -0.5855 -0.4925
 5720SOL    MW422648   5.955   3.669   5.548 -0.2560 -0.6594 -0.3775
 5721SOL     OW22649   0.855   5.002   2.088 -0.3920 -0.0310  0.0056
 5721SOL    HW222650   0.762   4.996   2.070 -0.1116 -1.4529 -1.1413
 5721SOL    HW322651   0.886   4.912   2.083  1.2077  0.5170 -0.5790
 5721SOL    MW422652   0.847   4.990   2.085 -0.1439 -0.1463 -0.2229
 5722SOL     OW22653   0.823   1.627   4.722 -0.4791  0.7864 -0.9167
 5722SOL    HW222654   0.791   1.571   4.651 -0.2979  0.5715 -0.8278
 5722SOL    HW322655   0.752   1.689   4.736 -1.2587 -0.2400 -0.1181
 5722SOL    MW422656   0.809   1.628   4.714 -0.5580  0.6226 -0.7996
 5723SOL     OW22657   2.808   0.585   5.613 -0.0173  0.2452  0.4764
 5723SOL    HW222658   2.755   0.632   5.548  0.0369 -1.7281 -1.1130
 5723SOL    HW322659   2.891   0.568   5.568  0.1780 -0.8169  1.2068
 5723SOL    MW422660   2.812   0.589   5.598  0.0156 -0.1553  0.3631
 5724SOL     OW22661   4.045   4.120   5.567 -0.3891 -0.8189 -0.0459
 5724SOL    HW222662   4.121   4.065   5.548  0.0392 -0.4886  0.6778
 5724SOL    HW322663   3.986   4.106   5.492  1.2963  0.5635 -1.7464
 5724SOL    MW422664   4.047   4.111   5.554 -0.1102 -0.5929 -0.1748
 5725SOL     OW22665   1.796   5.246   0.594  0.2618 -0.2620  0.0139
 5725SOL    HW222666   1.789   5.315   0.661  2.0383  0.6469 -0.6735
 5725SOL    HW322667   1.779   5.165   0.642 -0.9049  0.5390  1.0563
 5725SOL    MW422668   1.793   5.245   0.609  0.3423 -0.0364  0.0607
 5726SOL     OW22669   4.318   5.987   0.160 -0.4785 -0.2906  0.7014
 5726SOL    HW222670   4.366   6.055   0.207 -0.3629  0.1827 -0.0891
 5726SOL    HW322671   4.380   5.954   0.095 -1.4382  0.9196 -0.9150
 5726SOL    MW422672   4.332   5.992   0.158 -0.5899 -0.0685  0.3838
 5727SOL     OW22673   0.486   1.752   2.913 -0.0878 -0.5303 -0.1505
 5727SOL    HW222674   0.550   1.681   2.910 -0.5862 -1.0854  1.4578
 5727SOL    HW322675   0.531   1.821   2.962 -0.0791 -0.2183 -0.5896
 5727SOL    MW422676   0.501   1.752   2.919 -0.1524 -0.5623  0.0038
 5728SOL     OW22677   3.707   2.631   0.668  0.2705  0.1092 -0.2340
 5728SOL    HW222678   3.621   2.647   0.706 -0.2063 -0.5449 -1.0030
 5728SOL    HW322679   3.692   2.561   0.604  1.4280 -0.2043 -0.1744
 5728SOL    MW422680   3.693   2.624   0.664  0.3603 -0.0185 -0.3276
 5729SOL     OW22681   2.337   6.012   4.167  0.4886  0.6623  0.5722
 5729SOL    HW222682   2.314   6.053   4.083  0.3948 -0.3535  0.0945
 5729SOL    HW322683   2.269   5.947   4.181  1.1557  0.0199  0.8672
 5729SOL    MW422684   2.325   6.009   4.158  0.5642  0.4435  0.5481
 5730SOL     OW22685   4.471   1.822   2.988 -0.3413 -0.7743  0.0074
 5730SOL    HW222686   4.547   1.805   3.043 -0.3645 -0.3906  0.1619
 5730SOL    HW322687   4.469   1.749   2.926  0.6053 -0.3784 -0.5089
 5730SOL    MW422688   4.481   1.810   2.987 -0.2195 -0.6715 -0.0404
 5731SOL     OW22689   2.611   3.350   0.869 -0.1840  0.4436  0.1052
 5731SOL    HW222690   2.585   3.272   0.819  0.2020  0.8009 -0.6693
 5731SOL    HW322691   2.531   3.375   0.916 -0.3656 -0.3031  0.2115
 5731SOL    MW422692   2.597   3.343   0.869 -0.1571  0.3922  0.0170
 5732SOL     OW22693   1.247   3.278   5.835  0.0203 -0.1692  0.6368
 5732SOL    HW222694   1.306   3.315   5.770  0.3344 -1.9778 -0.1687
 5732SOL    HW322695   1.165   3.264   5.789 -0.6826  1.1742  1.4241
 5732SOL    MW422696   1.244   3.281   5.821 -0.0310 -0.2305  0.6344
 5733SOL     OW22697   1.088   4.446   2.134 -0.0188 -0.4154  0.0600
 5733SOL    HW222698   1.069   4.422   2.043 -0.1000 -0.9953  0.2221
 5733SOL    HW322699   1.147   4.377   2.165 -1.2244 -1.0903  0.9175
 5733SOL    MW422700   1.093   4.434   2.126 -0.1886 -0.5809  0.1946
 5734SOL     OW22701   5.931   0.921   3.173  0.0009 -0.5716 -0.0607
 5734SOL    HW222702   5.913   0.887   3.261  0.0143  0.0693  0.1971
 5734SOL    HW322703   5.847   0.916   3.128 -0.0205 -0.8459  0.0055
 5734SOL    MW422704   5.918   0.916   3.179 -0.0001 -0.5232 -0.0180
 5735SOL     OW22705   2.594   0.282   3.059 -0.2768 -0.0100 -0.4328
 5735SOL    HW222706   2.684   0.291   3.030  0.1512 -0.6007  0.6748
 5735SOL    HW322707   2.575   0.365   3.105  0.6212 -0.9026  1.6815
 5735SOL    MW422708   2.603   0.294   3.061 -0.1018 -0.2057 -0.0077
 5736SOL     OW22709   3.491   4.248   4.970  0.0757 -0.4605  0.2633
 5736SOL    HW222710   3.469   4.161   5.002  1.2808 -1.0835 -0.5794
 5736SOL    HW322711   3.586   4.251   4.969  0.0808  1.1539  1.0200
 5736SOL    MW422712   3.500   4.237   4.974  0.2354 -0.3297  0.2520
 5737SOL     OW22713   4.101   3.589   3.666  0.1035  0.0268 -0.1269
 5737SOL    HW222714   4.066   3.678   3.670  1.0763  0.3728  2.6039
 5737SOL    HW322715   4.030   3.537   3.629 -0.5154  1.8798 -1.7051
 5737SOL    MW422716   4.087   3.594   3.661  0.1502  0.3169  0.0252
 5738SOL     OW22717   4.875   2.330   4.399  0.1135  0.2814  0.3795
 5738SOL    HW222718   4.949   2.387   4.379 -0.8340  0.9962 -1.3009
 5738SOL    HW322719   4.800   2.372   4.356 -0.3836 -2.9113 -2.2852
 5738SOL    MW422720   4.875   2.343   4.390 -0.0771 -0.0455 -0.1938
 5739SOL     OW22721   1.511   1.212   2.835  0.0105 -0.1645 -0.6037
 5739SOL    HW222722   1.527   1.299   2.872  0.8801 -0.3902 -0.4131
 5739SOL    HW322723   1.425   1.188   2.867  0.9961 -0.6394  1.9480
 5739SOL    MW422724   1.502   1.220   2.844  0.2553 -0.2569 -0.2419
 5740SOL     OW22725   5.248   0.686   2.278 -1.0373 -0.1892 -0.3221
 5740SOL    HW222726   5.291   0.704   2.361  3.0588  0.4561 -2.3658
 5740SOL    HW322727   5.230   0.592   2.280  1.4127 -0.7069  0.3583
 5740SOL    MW422728   5.251   0.676   2.289 -0.1736 -0.1724 -0.5020
 5741SOL     OW22729   4.730   5.592   3.945 -0.2675 -0.5422 -0.1638
 5741SOL    HW222730   4.803   5.562   3.999  0.6099  0.6847 -0.6373
 5741SOL    HW322731   4.771   5.636   3.871 -1.4873 -0.4996 -0.8440
 5741SOL    MW422732   4.745   5.594   3.943 -0.3127 -0.3747 -0.3160
 5742SOL     OW22733   6.012   2.408   0.150  0.2310 -0.1513  0.1672
 5742SOL    HW222734   5.975   2.479   0.097  0.4607  0.2899  0.5866
 5742SOL    HW322735   6.044   2.452   0.229  0.3894 -0.7241  0.4224
 5742SOL    MW422736   6.012   2.423   0.153  0.2822 -0.1687  0.2562
 5743SOL     OW22737   0.937   2.455   2.396  0.3636  0.2379  0.5608
 5743SOL    HW222738   0.949   2.384   2.460 -0.0699 -0.1540  0.2079
 5743SOL    HW322739   0.843   2.463   2.386  0.4264  0.4128  0.0909
 5743SOL    MW422740   0.926   2.446   2.403  0.3147  0.2093  0.4523
 5744SOL     OW22741   5.896   4.663   2.042  0.0976 -0.0903 -0.6547
 5744SOL    HW222742   5.801   4.672   2.052 -0.2521 -2.3386 -1.3661
 5744SOL    HW322743   5.918   4.585   2.093  1.5949  0.4479 -0.4349
 5744SOL    MW422744   5.887   4.653   2.050  0.2490 -0.3159 -0.7196
 5745SOL     OW22745   5.948   3.970   0.726  0.1718 -0.1872  0.4858
 5745SOL    HW222746   5.955   4.063   0.748 -0.3253  0.8226 -3.0100
 5745SOL    HW322747   5.859   3.947   0.752  0.2053  0.3644  1.1364
 5745SOL    MW422748   5.937   3.979   0.732  0.1106  0.0188  0.1104
 5746SOL     OW22749   3.871   6.306   3.624  0.4746  0.1752  0.1182
 5746SOL    HW222750   3.887   6.257   3.705 -1.8519  0.5557  0.8731
 5746SOL    HW322751   3.860   6.396   3.652 -0.5976  0.2752 -0.5677
 5746SOL    MW422752   3.872   6.311   3.639  0.0262  0.2386  0.1273
 5747SOL     OW22753   3.740   1.996   4.908 -0.1933 -0.3286  0.1414
 5747SOL    HW222754   3.656   2.033   4.881 -0.0011  0.3450  0.4363
 5747SOL    HW322755   3.725   1.967   4.998 -0.2162 -0.5496  0.0656
 5747SOL    MW422756   3.727   1.997   4.917 -0.1710 -0.2689  0.1703
 5748SOL     OW22757   0.351   3.432   1.242  0.5414  0.2077  0.1937
 5748SOL    HW222758   0.310   3.400   1.322 -1.0805 -1.5265 -1.2391
 5748SOL    HW322759   0.435   3.385   1.238 -0.3913 -1.4904 -0.2440
 5748SOL    MW422760   0.357   3.422   1.252  0.2044 -0.2452 -0.0531
 5749SOL     OW22761   3.209   3.402   6.096  0.6162 -0.4832 -0.6103
 5749SOL    HW222762   3.122   3.406   6.057  0.0718 -1.1745  0.4789
 5749SOL    HW322763   3.194   3.410   6.190  1.7514 -0.3722 -0.4193
 5749SOL    MW422764   3.196   3.404   6.104  0.6942 -0.5598 -0.4414
 5750SOL     OW22765   4.767   1.783   1.381 -0.2835 -0.0824  0.0907
 5750SOL    HW222766   4.835   1.782   1.448 -0.3149 -0.4140  0.1210
 5750SOL    HW322767   4.694   1.736   1.421 -0.7560  0.7877  0.2868
 5750SOL    MW422768   4.766   1.777   1.395 -0.3500 -0.0114  0.1206
 5751SOL     OW22769   5.923   5.726   3.097  0.0280  0.3657 -0.4521
 5751SOL    HW222770   5.853   5.757   3.155  0.4317 -0.0380  0.2680
 5751SOL    HW322771   5.966   5.656   3.147 -1.4886 -2.1146 -2.4074
 5751SOL    MW422772   5.919   5.721   3.111 -0.1188 -0.0148 -0.6151
 5752SOL     OW22773   1.035   5.906   2.568 -0.3520  0.1863 -0.2790
 5752SOL    HW222774   1.087   5.937   2.642 -0.6567  0.5699 -0.2209
 5752SOL    HW322775   1.098   5.899   2.496  0.2291 -1.5656  0.3604
 5752SOL    MW422776   1.050   5.909   2.568 -0.3155  0.0058 -0.1870
 5753SOL     OW22777   2.294   4.561   5.977  0.6518  0.3484  0.3249
 5753SOL    HW222778   2.235   4.560   6.052  1.3318 -1.3915  0.8955
 5753SOL    HW322779   2.256   4.626   5.917 -1.1802  0.1155  1.1567
 5753SOL    MW422780   2.281   4.569   5.979  0.4998  0.0881  0.5099
 5754SOL     OW22781   5.400   5.796   5.352 -0.2209 -0.0154  0.2703
 5754SOL    HW222782   5.407   5.877   5.402 -0.9930  0.6855 -0.7133
 5754SOL    HW322783   5.335   5.815   5.284  1.2936 -0.6906 -1.4479
 5754SOL    MW422784   5.392   5.809   5.350 -0.1230 -0.0120 -0.0862
 5755SOL     OW22785   6.168   3.323   0.631  0.2991  0.3827 -0.0241
 5755SOL    HW222786   6.130   3.345   0.546  0.6609 -0.0828 -0.3167
 5755SOL    HW322787   6.238   3.387   0.644 -1.1762  1.8599  0.9685
 5755SOL    MW422788   6.172   3.334   0.621  0.1522  0.5162  0.0682
 5756SOL     OW22789   0.615   0.086   6.412  0.4734  0.0483  0.0077
 5756SOL    HW222790   0.671   0.162   6.426  0.5536 -0.3862  2.6251
 5756SOL    HW322791   0.528   0.122   6.398  0.9891  0.6643 -1.8682
 5756SOL    MW422792   0.611   0.101   6.412  0.5520  0.0722  0.1055
 5757SOL     OW22793   2.077   1.929   3.121  0.0344 -0.3052  0.3724
 5757SOL    HW222794   2.023   2.004   3.145 -1.5703 -0.9321 -1.0516
 5757SOL    HW322795   2.127   1.909   3.200  0.9971  2.6045  0.6144
 5757SOL    MW422796   2.076   1.936   3.135 -0.0503 -0.0040  0.2165
 5758SOL     OW22797   0.711   2.023   2.765  0.5634  0.1297  0.1083
 5758SOL    HW222798   0.776   1.976   2.712 -0.0624  0.0065 -0.5707
 5758SOL    HW322799   0.733   2.115   2.754  1.5769  0.0362  1.1537
 5758SOL    MW422800   0.722   2.029   2.757  0.6145  0.1011  0.1566
 5759SOL     OW22801   2.602   5.840   4.537 -0.8395  0.5059  0.4653
 5759SOL    HW222802   2.648   5.891   4.470 -1.0296  1.1073  0.7761
 5759SOL    HW322803   2.543   5.783   4.488  0.3430 -0.3978  0.0518
 5759SOL    MW422804   2.600   5.840   4.522 -0.7086  0.4660  0.4518
 5760SOL     OW22805   2.417   0.910   3.224 -0.3603  0.2669 -0.0645
 5760SOL    HW222806   2.490   0.913   3.286 -0.1859 -1.1487 -0.1570
 5760SOL    HW322807   2.459   0.908   3.138 -0.3462 -2.4691 -0.0908
 5760SOL    MW422808   2.432   0.910   3.221 -0.3354 -0.2808 -0.0801
 5761SOL     OW22809   5.000   6.191   2.645 -0.1744  0.1629  0.2072
 5761SOL    HW222810   5.034   6.277   2.670 -0.8816  0.7848 -0.8536
 5761SOL    HW322811   4.912   6.189   2.683 -0.5624  0.3604 -0.6640
 5761SOL    MW422812   4.993   6.202   2.654 -0.3189  0.2710 -0.0477
 5762SOL     OW22813   0.125   6.430   5.271 -0.6121 -0.1223  0.0908
 5762SOL    HW222814   0.123   6.524   5.252  0.0170  0.0405  0.7797
 5762SOL    HW322815   0.216   6.412   5.293 -0.6297 -0.9978 -0.5020
 5762SOL    MW422816   0.137   6.440   5.272 -0.5314 -0.2163  0.1035
 5763SOL     OW22817   3.813   3.113   3.593 -0.6081 -0.5565 -0.7648
 5763SOL    HW222818   3.826   3.196   3.638 -2.2690 -1.4579  1.5695
 5763SOL    HW322819   3.896   3.066   3.604  0.1474  0.5260 -1.6244
 5763SOL    MW422820   3.826   3.118   3.600 -0.7275 -0.5326 -0.5702
 5764SOL     OW22821   4.667   2.618   5.401  0.4869 -0.8753 -0.0991
 5764SOL    HW222822   4.753   2.587   5.371 -0.2662 -2.2237 -0.9731
 5764SOL    HW322823   4.613   2.539   5.405 -0.3350 -0.2812  1.8859
 5764SOL    MW422824   4.671   2.603   5.398  0.2791 -0.9748  0.0475
 5765SOL     OW22825   3.761   0.864   3.842 -0.1844 -0.0156  0.0405
 5765SOL    HW222826   3.666   0.865   3.832 -0.3599  0.8055  1.4758
 5765SOL    HW322827   3.785   0.772   3.833 -1.1563 -0.2751 -0.0011
 5765SOL    MW422828   3.752   0.852   3.840 -0.3358  0.0585  0.2244
 5766SOL     OW22829   4.048   0.352   1.016 -0.1162 -0.3247  0.1985
 5766SOL    HW222830   4.088   0.355   0.929 -1.1058 -1.7556 -0.3375
 5766SOL    HW322831   3.960   0.386   1.002  0.0034  0.2610  0.8293
 5766SOL    MW422832   4.042   0.357   1.003 -0.2310 -0.4362  0.2110
 5767SOL     OW22833   1.701   2.161   1.835  0.4712  0.2660  0.3057
 5767SOL    HW222834   1.736   2.143   1.748 -3.0543 -0.1508 -1.1722
 5767SOL    HW322835   1.613   2.195   1.820 -0.4848 -0.2553  3.7289
 5767SOL    MW422836   1.694   2.163   1.822 -0.1201  0.1423  0.5624
 5768SOL     OW22837   3.642   4.916   2.567 -0.3090  0.5717 -0.6235
 5768SOL    HW222838   3.590   4.964   2.631 -0.3199  2.5857 -2.0378
 5768SOL    HW322839   3.578   4.872   2.512 -0.3093 -0.8791  0.4860
 5768SOL    MW422840   3.627   4.917   2.568 -0.3105  0.6460 -0.6637
 5769SOL     OW22841   5.367   4.958   4.667  0.0029 -0.7852  0.3535
 5769SOL    HW222842   5.284   4.917   4.691  0.5058 -1.2240  1.3897
 5769SOL    HW322843   5.402   4.902   4.598 -1.5014  0.5411 -1.6015
 5769SOL    MW422844   5.360   4.945   4.661 -0.1292 -0.6681  0.2323
 5770SOL     OW22845   0.284   5.629   4.463 -0.1315 -0.1146  0.3929
 5770SOL    HW222846   0.209   5.585   4.423 -1.7189  1.3272  1.6274
 5770SOL    HW322847   0.357   5.610   4.405 -1.5575 -1.1132 -1.1663
 5770SOL    MW422848   0.283   5.620   4.450 -0.5291 -0.0561  0.3500
 5771SOL     OW22849   1.131   1.252   1.524  0.2012  0.1021 -0.1378
 5771SOL    HW222850   1.139   1.322   1.590  0.6606  1.3276 -1.4569
 5771SOL    HW322851   1.221   1.229   1.503  0.0716 -1.5047  0.8499
 5771SOL    MW422852   1.144   1.258   1.530  0.2447  0.0518 -0.1815
 5772SOL     OW22853   2.782   3.180   5.411  0.0850  0.1074 -0.1972
 5772SOL    HW222854   2.824   3.108   5.459 -0.0389 -2.6972 -3.8941
 5772SOL    HW322855   2.839   3.194   5.335 -1.4806  1.8518 -1.1133
 5772SOL    MW422856   2.795   3.172   5.407 -0.1379 -0.0324 -0.8058
 5773SOL     OW22857   5.099   0.504   3.085 -0.2638  0.1701  0.3034
 5773SOL    HW222858   5.052   0.549   3.015  0.5822 -0.1900 -0.5140
 5773SOL    HW322859   5.041   0.512   3.161 -1.7938 -0.5084 -0.7317
 5773SOL    MW422860   5.085   0.511   3.086 -0.3541  0.0330  0.0590
 5774SOL     OW22861   5.165   3.803   0.115 -0.7148  0.0990  0.0816
 5774SOL    HW222862   5.234   3.816   0.050 -0.3646 -1.2637  0.1510
 5774SOL    HW322863   5.148   3.891   0.149  2.4660  0.2919  1.5537
 5774SOL    MW422864   5.172   3.816   0.111 -0.2489 -0.0554  0.2850
 5775SOL     OW22865   3.835   3.706   2.333  0.5185  0.1796  0.9240
 5775SOL    HW222866   3.796   3.682   2.417  1.7476  0.4483  1.5936
 5775SOL    HW322867   3.929   3.693   2.346  0.5994 -2.0884 -1.1587
 5775SOL    MW422868   3.842   3.701   2.346  0.6913 -0.0842  0.7375
 5776SOL     OW22869   5.593   3.047   2.001  0.2639 -0.7950 -0.6490
 5776SOL    HW222870   5.556   3.133   2.017 -0.1671 -1.0247 -0.4053
 5776SOL    HW322871   5.581   3.000   2.083  3.1169 -0.1621  0.2509
 5776SOL    MW422872   5.587   3.052   2.014  0.5835 -0.7418 -0.4981
 5777SOL     OW22873   2.739   4.883   0.965  0.1983 -0.2926  0.0342
 5777SOL    HW222874   2.754   4.845   0.878 -1.4653 -0.5469 -0.1766
 5777SOL    HW322875   2.644   4.887   0.973  0.3310  0.5797  1.4910
 5777SOL    MW422876   2.729   4.879   0.954 -0.0037 -0.2110  0.1986
 5778SOL     OW22877   4.835   3.562   0.479 -0.0649  0.1215  0.6538
 5778SOL    HW222878   4.808   3.592   0.392 -2.2377 -1.1067  0.8168
 5778SOL    HW322879   4.801   3.627   0.539 -0.6808 -0.2310  0.7029
 5778SOL    MW422880   4.827   3.574   0.475 -0.4328 -0.0871  0.6818
 5779SOL     OW22881   4.826   0.439   5.883 -0.1447  0.4372  0.6045
 5779SOL    HW222882   4.912   0.481   5.873  0.2527  0.0077  2.0129
 5779SOL    HW322883   4.792   0.475   5.965 -1.4057  0.7457 -0.0398
 5779SOL    MW422884   4.833   0.450   5.893 -0.2587  0.4213  0.7053
 5780SOL     OW22885   0.162   1.921   5.953  0.0138 -1.0297  0.0525
 5780SOL    HW222886   0.196   1.833   5.960  0.4347 -0.9243 -0.5373
 5780SOL    HW322887   0.145   1.932   5.859  0.1097 -0.4383  0.1000
 5780SOL    MW422888   0.164   1.911   5.941  0.0820 -0.9377 -0.0190
 5781SOL     OW22889   2.985   4.674   4.529  0.5551 -0.0953  0.1628
 5781SOL    HW222890   3.056   4.612   4.548  0.0621 -0.8452 -0.3653
 5781SOL    HW322891   2.999   4.746   4.590  2.0352 -0.0033 -0.2389
 5781SOL    MW422892   2.996   4.675   4.539  0.6853 -0.1821  0.0401
 5782SOL     OW22893   1.151   0.613   2.782  0.0712  0.1172  0.2342
 5782SOL    HW222894   1.089   0.607   2.855  0.3533 -1.0736  0.4041
 5782SOL    HW322895   1.237   0.596   2.821  0.2345 -0.4639 -0.3424
 5782SOL    MW422896   1.154   0.610   2.797  0.1300 -0.1166  0.1805
 5783SOL     OW22897   4.753   1.298   3.015  0.2405 -0.5929  0.6772
 5783SOL    HW222898   4.816   1.285   3.087  0.7175  1.1179  0.6070
 5783SOL    HW322899   4.791   1.369   2.963  0.1253 -2.0777 -1.5638
 5783SOL    MW422900   4.767   1.305   3.018  0.2882 -0.5631  0.3723
 5784SOL     OW22901   0.255   0.427   5.560 -0.5552  0.0757 -0.4824
 5784SOL    HW222902   0.316   0.441   5.632  0.8295 -0.4118 -1.5330
 5784SOL    HW322903   0.174   0.468   5.590  0.0763  0.1793  1.2067
 5784SOL    MW422904   0.252   0.434   5.574 -0.2892  0.0251 -0.3982
 5785SOL     OW22905   3.264   0.365   3.936 -0.0928  0.3944  0.4626
 5785SOL    HW222906   3.357   0.349   3.946 -0.3978 -0.2391  2.7071
 5785SOL    HW322907   3.258   0.459   3.917  0.9998  0.3529 -0.1609
 5785SOL    MW422908   3.275   0.376   3.934  0.0111  0.3053  0.6764
 5786SOL     OW22909   0.065   2.102   3.539 -0.4275 -0.1037 -0.3847
 5786SOL    HW222910   0.083   2.195   3.542  0.5860 -0.2765 -0.8849
 5786SOL    HW322911  -0.026   2.096   3.510 -0.7995  0.7361  0.5499
 5786SOL    MW422912   0.055   2.113   3.535 -0.3429 -0.0157 -0.3274
 5787SOL     OW22913   1.467   5.134   5.262 -0.6481  0.0364 -0.2271
 5787SOL    HW222914   1.486   5.123   5.355 -2.3469 -0.4760  0.1002
 5787SOL    HW322915   1.553   5.148   5.221  0.2540 -0.8750  1.2538
 5787SOL    MW422916   1.481   5.134   5.269 -0.7533 -0.1514  0.0114
 5788SOL     OW22917   5.293   1.059   2.289 -0.5779  0.0219 -0.0159
 5788SOL    HW222918   5.354   0.988   2.307 -1.1577 -0.2660  0.8976
 5788SOL    HW322919   5.229   1.054   2.360 -1.0297  1.0143 -0.3359
 5788SOL    MW422920   5.292   1.049   2.301 -0.7140  0.1148  0.0624
 5789SOL     OW22921   5.550   3.309   1.166 -0.4229 -0.0896 -0.0371
 5789SOL    HW222922   5.560   3.282   1.075  2.2377 -2.7388  0.8638
 5789SOL    HW322923   5.620   3.372   1.180 -2.1876  2.0495 -0.2650
 5789SOL    MW422924   5.560   3.313   1.156 -0.3047 -0.1569  0.0517
 5790SOL     OW22925   5.569   4.346   0.927 -0.0636  0.2916 -0.2295
 5790SOL    HW222926   5.663   4.351   0.941  0.0997 -1.4073 -0.4749
 5790SOL    HW322927   5.532   4.414   0.984  1.2072 -0.0494  1.0649
 5790SOL    MW422928   5.576   4.355   0.937  0.1256  0.0224 -0.0911
 5791SOL     OW22929   3.126   5.767   5.971  0.2565  0.0500 -0.2662
 5791SOL    HW222930   3.040   5.729   5.958  0.9882 -1.3268 -1.2267
 5791SOL    HW322931   3.133   5.834   5.903  0.2583 -0.4003 -0.7141
 5791SOL    MW422932   3.115   5.771   5.960  0.3533 -0.1911 -0.4520
 5792SOL     OW22933   5.006   0.336   0.880 -0.7574 -0.0800 -0.4253
 5792SOL    HW222934   4.946   0.276   0.836  0.1795  0.1882 -2.1471
 5792SOL    HW322935   4.949   0.403   0.919 -1.5896  0.6295 -2.7021
 5792SOL    MW422936   4.990   0.337   0.880 -0.7436  0.0490 -0.9528
 5793SOL     OW22937   4.272   4.957   0.557 -0.3903  0.3271  0.2752
 5793SOL    HW222938   4.178   4.964   0.539 -1.1916 -1.1469  3.2022
 5793SOL    HW322939   4.299   4.879   0.509 -1.1693 -0.3884  0.9488
 5793SOL    MW422940   4.263   4.948   0.549 -0.5988  0.0382  0.7503
 5794SOL     OW22941   0.714   3.210   2.812 -0.0587 -0.1722  0.1930
 5794SOL    HW222942   0.783   3.252   2.761 -0.0125 -1.8708 -1.2399
 5794SOL    HW322943   0.672   3.281   2.860  1.6330  1.1122 -0.1695
 5794SOL    MW422944   0.717   3.225   2.811  0.1706 -0.2268 -0.0439
 5795SOL     OW22945   5.710   3.373   1.493  0.7328  0.5202  0.5672
 5795SOL    HW222946   5.753   3.289   1.480  0.4478  0.6369 -1.4951
 5795SOL    HW322947   5.627   3.352   1.535  1.1797 -0.0819  1.1674
 5795SOL    MW422948   5.705   3.359   1.497  0.7541  0.4562  0.3743
 5796SOL     OW22949   2.728   5.772   3.198  0.1394 -0.2940  0.7508
 5796SOL    HW222950   2.792   5.834   3.164 -1.4251  0.1565 -1.5944
 5796SOL    HW322951   2.737   5.695   3.143  1.5927 -2.0196  3.2052
 5796SOL    MW422952   2.737   5.770   3.186  0.1247 -0.4623  0.7652
 5797SOL     OW22953   6.413   3.373   3.868  0.0587 -0.0587  0.2618
 5797SOL    HW222954   6.403   3.352   3.775  1.1892 -1.4362  0.4230
 5797SOL    HW322955   6.349   3.318   3.912  0.6393 -0.6232  0.4143
 5797SOL    MW422956   6.403   3.363   3.861  0.2844 -0.3149  0.3032
 5798SOL     OW22957   0.276   3.604   5.944  0.0644 -0.3703 -0.2239
 5798SOL    HW222958   0.283   3.680   6.003  2.4198  1.0877 -2.1892
 5798SOL    HW322959   0.286   3.528   6.002 -0.0570  0.8994  1.5510
 5798SOL    MW422960   0.279   3.604   5.959  0.3592 -0.0104 -0.2490
 5799SOL     OW22961   4.276   1.880   2.381  0.0434 -0.0995  0.6611
 5799SOL    HW222962   4.308   1.970   2.374  1.7740 -0.7030  0.2496
 5799SOL    HW322963   4.183   1.886   2.361  0.2861  1.4929 -0.1471
 5799SOL    MW422964   4.268   1.893   2.378  0.3038  0.0310  0.5001
 5800SOL     OW22965   4.731   1.006   0.325 -0.0360 -0.2739  0.3754
 5800SOL    HW222966   4.811   1.054   0.306  0.6538 -0.4800  2.4531
 5800SOL    HW322967   4.700   1.043   0.408 -2.7505  0.5731 -0.8750
 5800SOL    MW422968   4.737   1.017   0.334 -0.3032 -0.1893  0.4846
 5801SOL     OW22969   5.216   1.224   2.699  0.5625 -0.7712  0.2618
 5801SOL    HW222970   5.307   1.223   2.730  2.1177 -1.4052 -3.6907
 5801SOL    HW322971   5.164   1.199   2.776  4.0681 -4.1725  1.8933
 5801SOL    MW422972   5.221   1.221   2.714  1.2302 -1.3036 -0.0444
 5802SOL     OW22973   4.864   4.706   1.753  0.7041  0.5761  0.4503
 5802SOL    HW222974   4.879   4.799   1.733 -1.4371  0.6805 -0.9280
 5802SOL    HW322975   4.804   4.707   1.827  0.8001  0.2840  0.5311
 5802SOL    MW422976   4.858   4.718   1.760  0.4343  0.5513  0.2791
 5803SOL     OW22977   3.485   2.245   0.255  0.2534 -0.2722 -0.3158
 5803SOL    HW222978   3.439   2.190   0.319  0.6105 -0.7209 -0.4355
 5803SOL    HW322979   3.570   2.202   0.244  0.4192  0.1350 -0.6471
 5803SOL    MW422980   3.490   2.232   0.262  0.3224 -0.2777 -0.3753
 5804SOL     OW22981   0.642   0.697   1.920  0.3592  0.1816  0.2075
 5804SOL    HW222982   0.619   0.623   1.863  1.1100  0.1057 -0.0029
 5804SOL    HW322983   0.666   0.656   2.004  1.2966  0.1393 -0.0726
 5804SOL    MW422984   0.642   0.682   1.924  0.5820  0.1660  0.1428
 5805SOL     OW22985   2.864   0.108   5.262  0.2983 -0.5035  0.2322
 5805SOL    HW222986   2.801   0.179   5.273  0.8298  0.1654 -0.8719
 5805SOL    HW322987   2.811   0.029   5.254 -0.3087 -0.2220  1.2610
 5805SOL    MW422988   2.849   0.107   5.263  0.2883 -0.3781  0.2223
 5806SOL     OW22989   3.600   2.815   2.947  0.3208  0.4752  0.4572
 5806SOL    HW222990   3.632   2.900   2.916  1.5299 -0.2642 -0.4256
 5806SOL    HW322991   3.641   2.803   3.033  3.2346 -0.8002 -0.9815
 5806SOL    MW422992   3.610   2.825   2.954  0.8648  0.2093  0.1509
 5807SOL     OW22993   6.161   2.401   2.680  0.4491  0.1340 -0.3956
 5807SOL    HW222994   6.239   2.446   2.710 -0.1319  0.1158  1.2111
 5807SOL    HW322995   6.133   2.348   2.754  0.4711 -2.0396 -1.8428
 5807SOL    MW422996   6.167   2.400   2.694  0.3753 -0.1552 -0.3746
 5808SOL     OW22997   5.110   4.265   1.447 -1.0008 -0.4186  0.0055
 5808SOL    HW222998   5.070   4.351   1.457  3.4827  2.0263 -0.2251
 5808SOL    HW322999   5.096   4.242   1.355 -2.5236 -0.1450  0.1535
 5808SOL    MW423000   5.103   4.273   1.436 -0.6102 -0.0599 -0.0054
 5809SOL     OW23001   5.492   5.266   0.924 -0.1482  0.9552 -0.0156
 5809SOL    HW223002   5.398   5.271   0.907 -0.2622  0.3350  0.3928
 5809SOL    HW323003   5.498   5.239   1.016  0.4151 -0.6021 -0.4779
 5809SOL    MW423004   5.480   5.263   0.934 -0.0889  0.6679 -0.0227
 5810SOL     OW23005   1.192   2.251   0.624  0.0233 -0.3961  0.5229
 5810SOL    HW223006   1.102   2.223   0.604  0.3235  0.5345 -2.7400
 5810SOL    HW323007   1.182   2.339   0.660 -0.3969 -0.3081  0.2072
 5810SOL    MW423008   1.179   2.259   0.626  0.0075 -0.2617  0.0507
 5811SOL     OW23009   1.693   0.467   3.230  0.2902 -0.0965  0.9832
 5811SOL    HW223010   1.617   0.453   3.286  0.2977  0.0746  1.0372
 5811SOL    HW323011   1.768   0.455   3.289  0.2843  0.8736  1.1940
 5811SOL    MW423012   1.693   0.463   3.246  0.2904  0.0541  1.0181
 5812SOL     OW23013   6.341   4.788   3.163  0.6495  0.1094  0.0249
 5812SOL    HW223014   6.349   4.739   3.245 -1.2259  0.2935  0.3427
 5812SOL    HW323015   6.301   4.871   3.188 -0.9264 -0.2412 -1.1720
 5812SOL    MW423016   6.337   4.792   3.177  0.1941  0.0875 -0.0911
 5813SOL     OW23017   2.973   0.779   0.682 -0.5725  0.4231  0.1759
 5813SOL    HW223018   2.882   0.752   0.695 -0.1547 -1.4045 -0.4019
 5813SOL    HW323019   3.024   0.709   0.722  0.6072  0.0103 -1.9549
 5813SOL    MW423020   2.967   0.766   0.689 -0.3617  0.1275 -0.1815
 5814SOL     OW23021   0.313   5.327   1.741 -0.6284 -0.0099 -0.2164
 5814SOL    HW223022   0.328   5.239   1.774 -0.5435  0.1245  0.1134
 5814SOL    HW323023   0.237   5.358   1.791 -1.4469 -0.3527 -1.2193
 5814SOL    MW423024   0.305   5.320   1.752 -0.7252 -0.0373 -0.3052
 5815SOL     OW23025   0.642   0.621   2.198 -0.2081 -0.0752 -0.4817
 5815SOL    HW223026   0.620   0.532   2.225 -0.8979 -0.2600 -1.6268
 5815SOL    HW323027   0.632   0.673   2.278  0.2290 -1.0157  0.2036
 5815SOL    MW423028   0.638   0.616   2.212 -0.2414 -0.2236 -0.5423
 5816SOL     OW23029   2.591   4.027   0.877 -0.3564 -0.7382 -0.3648
 5816SOL    HW223030   2.686   4.037   0.876 -0.4492  1.9071  2.1097
 5816SOL    HW323031   2.576   3.951   0.933  0.4133  0.6394  1.8943
 5816SOL    MW423032   2.601   4.019   0.884 -0.2671 -0.2074  0.2597
 5817SOL     OW23033   1.213   0.929   1.361 -0.3132  0.2063 -0.2789
 5817SOL    HW223034   1.203   0.964   1.273  0.4051 -0.4405 -0.6246
 5817SOL    HW323035   1.124   0.931   1.398 -0.6506  0.2865 -1.0819
 5817SOL    MW423036   1.200   0.934   1.354 -0.2629  0.1315 -0.4305
 5818SOL     OW23037   5.500   6.118   4.415  0.0924 -0.0832 -0.1896
 5818SOL    HW223038   5.594   6.124   4.430 -0.0368  1.1483  0.2331
 5818SOL    HW323039   5.461   6.116   4.503 -0.2305 -2.1470 -0.3242
 5818SOL    MW423040   5.507   6.119   4.429  0.0327 -0.1930 -0.1516
 5819SOL     OW23041   1.705   5.324   5.795  0.1262 -0.1813 -0.4394
 5819SOL    HW223042   1.733   5.278   5.875 -1.2747  0.2202  0.3254
 5819SOL    HW323043   1.609   5.322   5.799  0.0403  0.5848 -1.6885
 5819SOL    MW423044   1.696   5.318   5.806 -0.0700 -0.0272 -0.5033
 5820SOL     OW23045   0.227   4.983   4.658  0.3296  0.6412  0.2214
 5820SOL    HW223046   0.176   5.040   4.600 -0.6927 -0.3821  0.0996
 5820SOL    HW323047   0.237   5.034   4.739  0.4126  1.4448 -0.2819
 5820SOL    MW423048   0.222   4.998   4.661  0.2056  0.6122  0.1389
 5821SOL     OW23049   3.643   1.460   1.437 -0.3537  0.2317  0.3324
 5821SOL    HW223050   3.696   1.392   1.480 -1.2629 -0.8557 -0.2109
 5821SOL    HW323051   3.642   1.434   1.345 -1.2405  0.6276  0.2260
 5821SOL    MW423052   3.650   1.448   1.431 -0.5907  0.1405  0.2467
 5822SOL     OW23053   5.229   3.569   5.135  0.7149  0.4897  0.3263
 5822SOL    HW223054   5.171   3.533   5.202  2.4180 -0.7616  1.2223
 5822SOL    HW323055   5.220   3.510   5.061  2.2108 -0.8916  1.1711
 5822SOL    MW423056   5.220   3.556   5.134  1.1370  0.1423  0.5560
 5823SOL     OW23057   1.693   4.161   2.617  0.2743 -0.4880 -0.5283
 5823SOL    HW223058   1.695   4.091   2.683 -0.2986 -1.1404 -1.1737
 5823SOL    HW323059   1.703   4.114   2.533 -1.4532  0.0419 -1.0655
 5823SOL    MW423060   1.695   4.145   2.614 -0.0292 -0.5041 -0.6843
 5824SOL     OW23061   0.897   0.965   4.873  0.6750 -0.3922 -0.3915
 5824SOL    HW223062   0.877   1.015   4.952  0.2395 -1.3047  0.0905
 5824SOL    HW323063   0.824   0.904   4.864  1.3660 -1.1897 -0.7534
 5824SOL    MW423064   0.885   0.964   4.882  0.7087 -0.6178 -0.3756
 5825SOL     OW23065   0.302   5.227   6.332  0.3731  0.0006  0.4250
 5825SOL    HW223066   0.348   5.143   6.342  1.8186  0.6088 -0.6287
 5825SOL    HW323067   0.355   5.289   6.383 -0.0243  0.4753  0.2659
 5825SOL    MW423068   0.315   5.224   6.340  0.5114  0.1435  0.2650
 5826SOL     OW23069   4.777   5.668   6.381  0.7369  0.0876 -0.1272
 5826SOL    HW223070   4.859   5.621   6.371  0.8878  0.4869 -0.9023
 5826SOL    HW323071   4.717   5.605   6.420  1.2933 -0.3323  0.0627
 5826SOL    MW423072   4.780   5.654   6.385  0.8302  0.0849 -0.2044
 5827SOL     OW23073   2.279   5.340   5.311  0.6388 -0.1556  0.1668
 5827SOL    HW223074   2.306   5.300   5.229 -2.1543  0.8787 -1.3918
 5827SOL    HW323075   2.186   5.320   5.318 -0.1656  3.2207  0.9455
 5827SOL    MW423076   2.270   5.332   5.301  0.1642  0.4263  0.0639
 5828SOL     OW23077   5.142   4.344   4.411 -0.0214  0.5674 -0.2489
 5828SOL    HW223078   5.090   4.264   4.399 -0.7976  1.0068  0.0444
 5828SOL    HW323079   5.112   4.402   4.341  1.3157  0.2355 -1.1294
 5828SOL    MW423080   5.131   4.341   4.400  0.0526  0.5816 -0.3264
 5829SOL     OW23081   4.559   0.083   3.264 -0.1266 -0.2543 -0.2656
 5829SOL    HW223082   4.618   0.065   3.190  0.4144  1.2818 -0.2487
 5829SOL    HW323083   4.481   0.121   3.223 -0.8095 -1.5750 -0.2226
 5829SOL    MW423084   4.557   0.086   3.249 -0.1453 -0.2259 -0.2577
 5830SOL     OW23085   2.845   4.857   5.882 -0.0214 -0.3446  0.0929
 5830SOL    HW223086   2.873   4.898   5.964  2.3117 -0.5918 -0.5006
 5830SOL    HW323087   2.926   4.841   5.834 -0.8607 -4.1043 -0.4496
 5830SOL    MW423088   2.859   4.860   5.887  0.1757 -0.8733 -0.0570
 5831SOL     OW23089   4.532   5.550   2.804 -0.2263 -0.4095 -0.0719
 5831SOL    HW223090   4.477   5.571   2.729  0.5041 -0.3153 -0.5891
 5831SOL    HW323091   4.518   5.623   2.865  1.0319  0.7865 -1.1543
 5831SOL    MW423092   4.523   5.562   2.802  0.0361 -0.2393 -0.2829
 5832SOL     OW23093   2.128   0.460   1.568  0.3034 -0.6659 -0.5063
 5832SOL    HW223094   2.127   0.545   1.523 -0.7113 -0.7943 -0.7514
 5832SOL    HW323095   2.219   0.449   1.596  0.1848  1.1437  0.7519
 5832SOL    MW423096   2.140   0.470   1.566  0.1539 -0.4441 -0.3726
 5833SOL     OW23097   5.143   3.319   3.217 -0.0196 -0.2144 -0.5952
 5833SOL    HW223098   5.189   3.304   3.300 -2.0815  0.3224  0.7155
 5833SOL    HW323099   5.184   3.397   3.181  0.4046 -0.0150  0.2859
 5833SOL    MW423100   5.154   3.327   3.223 -0.2357 -0.1172 -0.3060
 5834SOL     OW23101   3.701   0.347   0.752  1.1625  0.0583  0.3536
 5834SOL    HW223102   3.711   0.436   0.786  0.2667  0.4114 -0.2606
 5834SOL    HW323103   3.614   0.346   0.713  1.1566 -1.1040  0.3690
 5834SOL    MW423104   3.691   0.358   0.751  1.0436 -0.0485  0.2746
 5835SOL     OW23105   0.172   5.876   2.276  0.3849  0.0995 -0.0174
 5835SOL    HW223106   0.189   5.860   2.183 -0.0435 -0.4713  0.0009
 5835SOL    HW323107   0.257   5.865   2.318  0.2415 -1.4884 -0.0907
 5835SOL    MW423108   0.185   5.873   2.269  0.3094 -0.1853 -0.0246
 5836SOL     OW23109   0.691   1.508   5.871 -0.1700 -0.8803  0.2866
 5836SOL    HW223110   0.746   1.456   5.812 -1.4570 -0.4506 -1.3851
 5836SOL    HW323111   0.609   1.459   5.877 -1.0706  0.4363 -0.5874
 5836SOL    MW423112   0.688   1.495   5.864 -0.4586 -0.6499 -0.0493
 5837SOL     OW23113   0.109   4.760   5.549  0.0628 -0.7526  0.3911
 5837SOL    HW223114   0.183   4.816   5.570 -0.1960 -0.0586 -0.4745
 5837SOL    HW323115   0.039   4.790   5.607 -0.0720 -0.1719 -0.0653
 5837SOL    MW423116   0.109   4.771   5.559  0.0109 -0.5844  0.2167
 5838SOL     OW23117   3.323   2.290   5.877  0.0927 -0.0926 -0.5819
 5838SOL    HW223118   3.351   2.313   5.966  1.4050 -0.4641 -0.8734
 5838SOL    HW323119   3.390   2.229   5.846 -0.2179  0.2190 -1.9227
 5838SOL    MW423120   3.336   2.285   5.885  0.2248 -0.1005 -0.7973
 5839SOL     OW23121   2.797   6.048   3.576  0.3687  0.3952  0.8564
 5839SOL    HW223122   2.775   5.965   3.533 -1.5453  0.2074  2.1079
 5839SOL    HW323123   2.766   6.115   3.515  0.9627  0.1972  0.3241
 5839SOL    MW423124   2.790   6.046   3.562  0.1945  0.3443  0.9513
 5840SOL     OW23125   1.602   0.489   1.487  0.7085 -0.4627 -0.0774
 5840SOL    HW223126   1.618   0.578   1.518  1.1547 -0.2607 -0.8496
 5840SOL    HW323127   1.555   0.446   1.558  0.2559  0.4678  0.1893
 5840SOL    MW423128   1.598   0.495   1.500  0.7077 -0.3133 -0.1441
 5841SOL     OW23129   1.834   3.850   3.383  0.1717 -0.1685 -0.3086
 5841SOL    HW223130   1.739   3.845   3.374 -0.0271  0.1381  1.3078
 5841SOL    HW323131   1.863   3.759   3.378 -0.0632 -0.1947 -1.8244
 5841SOL    MW423132   1.825   3.837   3.381  0.1145 -0.1315 -0.2953
 5842SOL     OW23133   2.952   0.807   1.650 -0.0505 -0.0855  0.0933
 5842SOL    HW223134   2.938   0.722   1.608 -0.6820 -0.1182  0.3565
 5842SOL    HW323135   2.984   0.864   1.580 -0.3366 -0.3480 -0.2547
 5842SOL    MW423136   2.954   0.803   1.635 -0.1715 -0.1245  0.0821
 5843SOL     OW23137   5.288   1.289   6.233 -0.1608 -0.4664  0.1720
 5843SOL    HW223138   5.358   1.279   6.297 -2.2097  0.2429  2.7030
 5843SOL    HW323139   5.262   1.199   6.211  1.9639 -0.7626 -1.4324
 5843SOL    MW423140   5.294   1.276   6.238 -0.1508 -0.4119  0.2943
 5844SOL     OW23141   2.291   1.445   1.767  0.0961  0.6727  0.0190
 5844SOL    HW223142   2.333   1.450   1.853  1.6188  0.5925 -0.6804
 5844SOL    HW323143   2.197   1.454   1.786  0.4018  0.8898  1.6535
 5844SOL    MW423144   2.284   1.447   1.781  0.3373  0.6907  0.1424
 5845SOL     OW23145   1.402   5.806   4.969  0.0116 -0.5174  0.0267
 5845SOL    HW223146   1.433   5.891   5.001 -1.0721 -0.0104 -0.2039
 5845SOL    HW323147   1.310   5.804   4.993 -0.6987 -0.3744 -2.4541
 5845SOL    MW423148   1.394   5.817   4.976 -0.2251 -0.4316 -0.3310
 5846SOL     OW23149   3.408   5.646   2.354 -0.5448 -0.3813  0.0541
 5846SOL    HW223150   3.382   5.690   2.274 -0.7079 -0.8386 -0.1464
 5846SOL    HW323151   3.327   5.636   2.404 -0.5092 -0.4429  0.1008
 5846SOL    MW423152   3.394   5.650   2.350 -0.5617 -0.4498  0.0338
 5847SOL     OW23153   1.190   0.968   3.992 -0.6803 -0.2165 -0.0272
 5847SOL    HW223154   1.121   1.006   4.046 -0.1969 -1.5173  1.6118
 5847SOL    HW323155   1.265   1.026   4.003 -1.0953  0.4682 -0.7328
 5847SOL    MW423156   1.191   0.981   4.000 -0.6713 -0.2978  0.0960
 5848SOL     OW23157   4.511   1.505   2.135  0.1360  0.2270  0.7397
 5848SOL    HW223158   4.453   1.533   2.205 -1.1160 -1.0339  0.2502
 5848SOL    HW323159   4.452   1.474   2.066  1.3743 -1.1438  0.2467
 5848SOL    MW423160   4.496   1.505   2.135  0.1342 -0.1202  0.6101
 5849SOL     OW23161   0.470   5.246   3.535 -0.2644 -0.1545 -0.4726
 5849SOL    HW223162   0.522   5.324   3.555  0.0562 -0.7504  1.1861
 5849SOL    HW323163   0.460   5.248   3.440  1.0592  1.0728 -0.6299
 5849SOL    MW423164   0.476   5.257   3.525 -0.0474 -0.0712 -0.2745
 5850SOL     OW23165   6.064   3.353   0.888 -0.2574  0.3549  0.6332
 5850SOL    HW223166   6.100   3.324   0.804 -0.5561 -2.4222  1.3680
 5850SOL    HW323167   6.095   3.443   0.897  1.2574  0.1596 -1.6318
 5850SOL    MW423168   6.073   3.361   0.878 -0.0969 -0.0373  0.4313
 5851SOL     OW23169   5.221   6.070   3.150  0.2176  0.6839  0.0489
 5851SOL    HW223170   5.250   6.081   3.241  0.5302  0.1794  0.0160
 5851SOL    HW323171   5.237   5.978   3.131  0.3829  0.8441 -0.6026
 5851SOL    MW423172   5.227   6.059   3.159  0.2807  0.6385 -0.0414
 5852SOL     OW23173   3.523   1.236   2.453  0.6490  0.5501 -0.4337
 5852SOL    HW223174   3.573   1.185   2.517  0.9440  0.7281 -0.5216
 5852SOL    HW323175   3.557   1.208   2.368  0.0866  0.1334 -0.5254
 5852SOL    MW423176   3.534   1.226   2.450  0.6137  0.5186 -0.4574
 5853SOL     OW23177   4.118   4.821   4.231  0.6271  0.0950  0.5453
 5853SOL    HW223178   4.114   4.798   4.324  0.4799 -1.1590  0.2396
 5853SOL    HW323179   4.031   4.855   4.211 -0.2732 -2.2110  0.2408
 5853SOL    MW423180   4.106   4.822   4.241  0.4889 -0.3747  0.4648
 5854SOL     OW23181   2.405   1.995   5.490  0.0347  0.5009  0.3491
 5854SOL    HW223182   2.391   2.046   5.570 -1.3718  1.4567 -0.4578
 5854SOL    HW323183   2.319   1.958   5.470  0.2480  0.6680 -0.9716
 5854SOL    MW423184   2.392   1.997   5.498 -0.1227  0.6490  0.0684
 5855SOL     OW23185   1.593   4.104   3.162 -0.5745  0.7805 -0.3750
 5855SOL    HW223186   1.566   4.173   3.223 -1.2845  2.1618 -2.1585
 5855SOL    HW323187   1.518   4.094   3.103  0.9550  1.2503 -2.4903
 5855SOL    MW423188   1.579   4.112   3.162 -0.4664  1.0248 -0.8894
 5856SOL     OW23189   4.606   1.610   2.556  0.1862  0.3580 -0.5905
 5856SOL    HW223190   4.584   1.667   2.630  0.4228 -0.1111 -0.1519
 5856SOL    HW323191   4.695   1.636   2.532  0.6220 -0.3750  0.1529
 5856SOL    MW423192   4.615   1.621   2.563  0.2750  0.1994 -0.4346
 5857SOL     OW23193   0.757   2.279   0.782  0.2435 -0.1561 -0.4105
 5857SOL    HW223194   0.740   2.185   0.788  0.8068 -0.1972  0.7004
 5857SOL    HW323195   0.698   2.319   0.846 -1.5703  0.4965 -2.3472
 5857SOL    MW423196   0.747   2.272   0.791  0.0785 -0.0754 -0.5195
 5858SOL     OW23197   1.740   2.428   5.605  0.2313  0.3167  0.2362
 5858SOL    HW223198   1.768   2.445   5.695  0.7670 -0.0587  0.1454
 5858SOL    HW323199   1.763   2.508   5.558 -0.3771  0.6511  0.5050
 5858SOL    MW423200   1.747   2.441   5.611  0.2217  0.3113  0.2597
 5859SOL     OW23201   0.416   3.535   1.825 -0.0687  0.3252  0.4930
 5859SOL    HW223202   0.328   3.535   1.861 -0.1626  0.5776  0.2660
 5859SOL    HW323203   0.468   3.587   1.886 -0.0401  0.0418  0.7120
 5859SOL    MW423204   0.411   3.541   1.838 -0.0774  0.3211  0.4919
 5860SOL     OW23205   3.318   5.956   3.311 -0.2664  0.1098 -0.0679
 5860SOL    HW223206   3.234   5.995   3.333 -0.3317  0.2995 -0.6260
 5860SOL    HW323207   3.333   5.890   3.379 -0.5914  0.4701  0.3582
 5860SOL    MW423208   3.309   5.952   3.323 -0.3179  0.1824 -0.0853
 5861SOL     OW23209   5.415   3.697   4.305  0.2484  0.1710  0.5570
 5861SOL    HW223210   5.489   3.637   4.304 -1.0638 -1.5347  0.8725
 5861SOL    HW323211   5.431   3.757   4.233  2.0469  0.0161  0.7932
 5861SOL    MW423212   5.427   3.697   4.296  0.3125 -0.0745  0.6298
 5862SOL     OW23213   3.411   1.784   1.900  0.0748  0.4897  0.2497
 5862SOL    HW223214   3.378   1.694   1.901 -1.3930  1.0028  1.6511
 5862SOL    HW323215   3.482   1.782   1.836 -1.5169 -1.0927 -1.5899
 5862SOL    MW423216   3.416   1.772   1.892 -0.3289  0.3486  0.1919
 5863SOL     OW23217   2.505   2.202   2.561 -0.5322 -0.1267 -0.3053
 5863SOL    HW223218   2.503   2.297   2.571 -1.0622 -0.1300 -0.3090
 5863SOL    HW323219   2.524   2.189   2.468 -2.5145  0.0253 -0.7806
 5863SOL    MW423220   2.507   2.213   2.550 -0.8637 -0.1071 -0.3685
 5864SOL     OW23221   5.210   6.212   4.884  0.3978  0.2120  0.3294
 5864SOL    HW223222   5.149   6.213   4.810 -0.3247  0.0702  0.9171
 5864SOL    HW323223   5.173   6.273   4.947  1.9788  1.7680 -0.1724
 5864SOL    MW423224   5.197   6.220   4.883  0.5111  0.3986  0.3407
 5865SOL     OW23225   3.519   0.425   4.239  0.2735 -0.5580  0.0445
 5865SOL    HW223226   3.552   0.436   4.149  0.1156 -0.9999 -0.0683
 5865SOL    HW323227   3.548   0.338   4.264 -1.1120 -1.1059 -0.1837
 5865SOL    MW423228   3.527   0.415   4.230  0.0699 -0.6886 -0.0005
 5866SOL     OW23229   6.264   0.945   5.086 -0.3508 -0.1358  0.3831
 5866SOL    HW223230   6.250   0.913   5.176  0.7533 -2.2803 -0.1351
 5866SOL    HW323231   6.247   0.869   5.031  0.3127  0.7785 -1.1361
 5866SOL    MW423232   6.260   0.931   5.091 -0.1176 -0.2981  0.1143
 5867SOL     OW23233   5.493   0.195   3.679 -0.0243 -0.1979 -0.3949
 5867SOL    HW223234   5.419   0.148   3.641 -0.6497  0.1061  0.4192
 5867SOL    HW323235   5.513   0.263   3.615 -0.3403 -0.3912 -0.7048
 5867SOL    MW423236   5.486   0.198   3.666 -0.1485 -0.1833 -0.3284
 5868SOL     OW23237   5.695   3.077   4.214  0.2316 -0.1778 -0.1353
 5868SOL    HW223238   5.692   3.115   4.302  1.4363 -1.8616  0.6800
 5868SOL    HW323239   5.603   3.058   4.193  0.0186 -0.7855  1.2450
 5868SOL    MW423240   5.682   3.080   4.223  0.3624 -0.4801  0.1544
 5869SOL     OW23241   3.478   4.989   4.815  0.2996  0.4686 -0.4167
 5869SOL    HW223242   3.566   5.023   4.803  0.3933  0.0989 -0.7593
 5869SOL    HW323243   3.421   5.055   4.774  0.2788  1.5053  1.1521
 5869SOL    MW423244   3.482   5.002   4.808  0.3093  0.5566 -0.2549
 5870SOL     OW23245   0.253   2.644   2.095 -0.1946  0.2558 -0.2494
 5870SOL    HW223246   0.178   2.643   2.155  0.9577 -0.7798  1.2614
 5870SOL    HW323247   0.215   2.666   2.010 -2.1222  0.3362  0.5689
 5870SOL    MW423248   0.238   2.647   2.092 -0.2969  0.1298  0.0579
 5871SOL     OW23249   2.401   4.426   1.032 -0.1373  0.3146 -0.0752
 5871SOL    HW223250   2.474   4.485   1.015 -1.3419  1.4734 -1.4913
 5871SOL    HW323251   2.371   4.449   1.120  2.2370 -1.4038  1.3015
 5871SOL    MW423252   2.407   4.437   1.042  0.0171  0.2408 -0.0804
 5872SOL     OW23253   6.221   5.033   2.250 -0.0278 -0.3944 -0.2140
 5872SOL    HW223254   6.301   5.032   2.302 -0.4285 -1.6987  0.4243
 5872SOL    HW323255   6.152   5.013   2.314 -0.9101  1.0250 -0.6881
 5872SOL    MW423256   6.222   5.030   2.266 -0.1970 -0.3792 -0.1924
 5873SOL     OW23257   6.387   4.302   3.390  0.1699  0.2477 -0.3684
 5873SOL    HW223258   6.351   4.369   3.449 -1.2121 -0.5162 -0.2879
 5873SOL    HW323259   6.326   4.301   3.316  0.2825 -0.7827 -0.4578
 5873SOL    MW423260   6.374   4.311   3.388  0.0024  0.0109 -0.3695
 5874SOL     OW23261   5.462   4.466   4.385 -0.1311  0.2898 -0.1317
 5874SOL    HW223262   5.449   4.512   4.302  1.1944  0.5353 -0.2185
 5874SOL    HW323263   5.391   4.497   4.441 -0.3286  1.0504 -0.7845
 5874SOL    MW423264   5.451   4.476   4.381  0.0177  0.4225 -0.2293
 5875SOL     OW23265   2.001   5.058   4.586  0.0004  0.2064  0.9178
 5875SOL    HW223266   1.922   5.056   4.640  0.1949  0.1728  1.2016
 5875SOL    HW323267   1.983   4.995   4.515  0.0859 -0.4033  1.4234
 5875SOL    MW423268   1.988   5.049   4.584  0.0373  0.1215  1.0220
 5876SOL     OW23269   6.257   5.899   2.555  0.1006  0.3019  0.0064
 5876SOL    HW223270   6.197   5.905   2.481 -2.1838  1.3526  1.8043
 5876SOL    HW323271   6.338   5.941   2.524 -0.7976  0.7808 -1.8438
 5876SOL    MW423272   6.260   5.905   2.541 -0.3193  0.5037 -0.0005
 5877SOL     OW23273   5.512   3.105   2.291  0.2006 -0.4237 -0.3498
 5877SOL    HW223274   5.559   3.125   2.372 -1.8586  2.2338  0.3379
 5877SOL    HW323275   5.526   3.182   2.236 -1.4888 -0.5256 -0.9748
 5877SOL    MW423276   5.520   3.118   2.295 -0.2940 -0.0865 -0.3415
 5878SOL     OW23277   5.039   4.560   6.327 -0.1580  0.5661  0.2843
 5878SOL    HW223278   5.042   4.654   6.345  0.4147  0.6897 -0.4313
 5878SOL    HW323279   5.089   4.521   6.398  2.5190  1.0886 -1.1767
 5878SOL    MW423280   5.046   4.568   6.339  0.2707  0.6513 -0.0028
 5879SOL     OW23281   5.308   0.246   0.195  0.2623  0.4288  1.1019
 5879SOL    HW223282   5.247   0.173   0.184 -0.8669  1.6331 -1.4798
 5879SOL    HW323283   5.263   0.306   0.255  0.5161 -0.2610  2.0019
 5879SOL    MW423284   5.294   0.245   0.201  0.1468  0.4967  0.8800
 5880SOL     OW23285   1.767   1.474   2.527 -0.0403  0.0224 -0.4827
 5880SOL    HW223286   1.751   1.565   2.553  2.4630  0.4296 -0.1275
 5880SOL    HW323287   1.773   1.426   2.610  0.9539 -0.0059 -0.5597
 5880SOL    MW423288   1.765   1.480   2.541  0.4211  0.0724 -0.4460
 5881SOL     OW23289   1.641   6.032   3.553  0.3400  0.0946 -0.0714
 5881SOL    HW223290   1.554   6.058   3.584  1.0893  2.1344  0.5175
 5881SOL    HW323291   1.691   6.014   3.633  1.2432  1.8170 -0.1844
 5881SOL    MW423292   1.636   6.033   3.568  0.5580  0.5910 -0.0086
 5882SOL     OW23293   3.598   6.402   5.380 -0.3535  0.4153  0.1993
 5882SOL    HW223294   3.593   6.443   5.294  1.1302  0.6626  0.1952
 5882SOL    HW323295   3.620   6.474   5.439  0.6584 -0.0661  0.4405
 5882SOL    MW423296   3.600   6.417   5.376 -0.0242  0.3844  0.2306
 5883SOL     OW23297   1.988   5.052   5.658 -0.2866 -0.1121  0.1272
 5883SOL    HW223298   1.927   5.117   5.623  0.4269 -0.0460 -1.0328
 5883SOL    HW323299   1.949   4.968   5.635 -0.3389 -0.0819  0.1051
 5883SOL    MW423300   1.975   5.049   5.651 -0.1994 -0.0994 -0.0288
 5884SOL     OW23301   4.160   3.816   4.783 -0.4670  0.0703  0.0696
 5884SOL    HW223302   4.128   3.733   4.818  0.7379 -0.9830 -1.2023
 5884SOL    HW323303   4.194   3.794   4.696  1.8289  1.4985  0.5351
 5884SOL    MW423304   4.160   3.802   4.776 -0.0051  0.1198 -0.0368
 5885SOL     OW23305   3.612   3.343   6.287  0.0463  0.3208  0.5387
 5885SOL    HW223306   3.703   3.317   6.269  0.0597 -0.0929  1.1531
 5885SOL    HW323307   3.560   3.267   6.262  0.0769 -0.3171  2.2702
 5885SOL    MW423308   3.617   3.329   6.281  0.0521  0.1821  0.8482
 5886SOL     OW23309   4.185   4.229   1.664 -0.0916  0.0865 -0.4026
 5886SOL    HW223310   4.117   4.264   1.722 -0.5646  0.3330 -1.0959
 5886SOL    HW323311   4.142   4.157   1.618 -0.1026  0.6957 -1.3609
 5886SOL    MW423312   4.170   4.224   1.666 -0.1555  0.1994 -0.6205
 5887SOL     OW23313   2.574   1.577   5.494  0.5598 -0.0859  0.0463
 5887SOL    HW223314   2.588   1.531   5.411 -2.0305  2.1634 -1.8124
 5887SOL    HW323315   2.604   1.667   5.476 -2.0784  1.0190  0.6918
 5887SOL    MW423316   2.580   1.583   5.480 -0.1300  0.3566 -0.1137
 5888SOL     OW23317   5.026   0.749   2.455  0.1359 -0.0595  0.3577
 5888SOL    HW223318   5.008   0.842   2.462 -2.9062 -0.4266 -0.9237
 5888SOL    HW323319   5.075   0.739   2.374  1.8395  0.4945  1.2679
 5888SOL    MW423320   5.030   0.760   2.445 -0.0407 -0.0348  0.3087
 5889SOL     OW23321   6.313   1.310   5.335 -0.5551 -0.2523  0.2840
 5889SOL    HW223322   6.299   1.223   5.372 -0.7081 -0.2663  0.1947
 5889SOL    HW323323   6.314   1.368   5.410 -0.8889 -0.2768  0.3094
 5889SOL    MW423324   6.312   1.306   5.349 -0.6193 -0.2574  0.2756
 5890SOL     OW23325   1.337   2.672   1.888  0.3724 -0.4994 -0.1615
 5890SOL    HW223326   1.345   2.630   1.973 -0.0246 -1.1787 -0.4522
 5890SOL    HW323327   1.246   2.660   1.863  0.7793 -1.5274 -1.2888
 5890SOL    MW423328   1.326   2.665   1.896  0.3737 -0.7247 -0.3486
 5891SOL     OW23329   1.621   4.421   5.892 -0.3821  0.0977 -0.8021
 5891SOL    HW223330   1.651   4.337   5.926 -0.6622 -0.3903 -1.7269
 5891SOL    HW323331   1.630   4.413   5.797  1.6306  1.8919 -0.8475
 5891SOL    MW423332   1.626   4.409   5.884 -0.1535  0.2701 -0.9301
 5892SOL     OW23333   0.298   5.463   3.981  0.5120 -0.4615  0.0599
 5892SOL    HW223334   0.303   5.559   3.976 -0.0706 -0.4164  0.3153
 5892SOL    HW323335   0.378   5.433   3.937  1.1790  0.1592  0.8136
 5892SOL    MW423336   0.309   5.472   3.974  0.5231 -0.3737  0.1930
 5893SOL     OW23337   2.792   0.149   2.583  0.5321 -0.1033  0.6449
 5893SOL    HW223338   2.753   0.063   2.598 -1.7059  0.5018 -1.1451
 5893SOL    HW323339   2.774   0.198   2.663 -1.5257 -0.2030  0.3016
 5893SOL    MW423340   2.785   0.144   2.595 -0.0347 -0.0366  0.3635
 5894SOL     OW23341   4.872   1.705   4.825  0.1916 -0.0286  0.1859
 5894SOL    HW223342   4.843   1.653   4.750 -0.0967  0.8893 -0.3541
 5894SOL    HW323343   4.796   1.759   4.847  0.1372 -0.5708  1.4000
 5894SOL    MW423344   4.858   1.705   4.818  0.1464  0.0210  0.2748
 5895SOL     OW23345   4.677   4.431   6.161  0.4514 -0.3553  0.1574
 5895SOL    HW223346   4.729   4.467   6.232 -2.1556  0.2964  1.8707
 5895SOL    HW323347   4.707   4.479   6.083  2.3084  0.0204  1.0413
 5895SOL    MW423348   4.688   4.442   6.160  0.3524 -0.2197  0.5001
 5896SOL     OW23349   6.103   5.359   4.244 -0.1460  0.7053 -0.1673
 5896SOL    HW223350   6.090   5.305   4.166 -0.8540  2.6943 -1.5037
 5896SOL    HW323351   6.045   5.321   4.309 -0.7653 -0.0391 -1.1161
 5896SOL    MW423352   6.093   5.347   4.242 -0.3211  0.8695 -0.4688
 5897SOL     OW23353   2.350   1.188   2.237  0.3061 -0.4967  0.0763
 5897SOL    HW223354   2.286   1.159   2.171 -0.4756  1.9803 -0.3533
 5897SOL    HW323355   2.434   1.159   2.203 -0.3070 -1.2783 -0.8398
 5897SOL    MW423356   2.352   1.180   2.224  0.1221 -0.2730 -0.1012
 5898SOL     OW23357   0.417   5.461   0.747  0.3698 -0.0880 -0.2821
 5898SOL    HW223358   0.390   5.473   0.838 -0.3648  0.8048 -0.6071
 5898SOL    HW323359   0.338   5.429   0.703 -0.2170  2.4886 -1.2387
 5898SOL    MW423360   0.403   5.458   0.753  0.1954  0.3697 -0.4512
 5899SOL     OW23361   2.331   4.366   2.039  0.2992 -0.3204  0.3821
 5899SOL    HW223362   2.271   4.362   1.964 -0.5106 -0.4358  1.0165
 5899SOL    HW323363   2.410   4.322   2.009 -0.3810 -1.2555 -0.0768
 5899SOL    MW423364   2.333   4.360   2.025  0.1026 -0.4590  0.4053
 5900SOL     OW23365   3.572   0.727   3.293 -0.3166 -0.2141  0.2221
 5900SOL    HW223366   3.523   0.803   3.323  2.1056  1.7981 -0.5263
 5900SOL    HW323367   3.599   0.750   3.204  0.2325 -2.0876 -0.1321
 5900SOL    MW423368   3.569   0.740   3.285  0.0754 -0.1958  0.0766
 5901SOL     OW23369   0.261   3.168   6.246 -0.1394  0.3555  0.2735
 5901SOL    HW223370   0.342   3.126   6.275 -0.8924 -1.3138  0.0584
 5901SOL    HW323371   0.193   3.104   6.264 -1.1316  0.8019 -1.6238
 5901SOL    MW423372   0.263   3.154   6.253 -0.3697  0.1942 -0.0052
 5902SOL     OW23373   0.802   2.595   2.694 -0.1444 -0.3549 -0.3550
 5902SOL    HW223374   0.753   2.634   2.622  0.4271  0.7985 -0.1441
 5902SOL    HW323375   0.752   2.618   2.772 -0.5926 -1.3327 -0.3397
 5902SOL    MW423376   0.789   2.604   2.694 -0.1282 -0.3317 -0.3252
 5903SOL     OW23377   2.723   4.550   6.443  0.1594  0.1739 -0.7761
 5903SOL    HW223378   2.797   4.569   6.501 -0.0523  1.3224 -0.8566
 5903SOL    HW323379   2.758   4.486   6.381  0.6590 -0.3726  0.0466
 5903SOL    MW423380   2.738   4.544   6.442  0.1974  0.2533 -0.6782
 5904SOL     OW23381   1.908   0.460   3.421  0.0455  0.3185 -0.0671
 5904SOL    HW223382   1.958   0.378   3.429  0.0660  0.5048  2.7321
 5904SOL    HW323383   1.959   0.514   3.361  1.3200 -0.8342 -0.0608
 5904SOL    MW423384   1.921   0.456   3.414  0.2163  0.1910  0.3031
 5905SOL     OW23385   4.787   2.229   3.525  0.3656  0.2282  0.0004
 5905SOL    HW223386   4.836   2.238   3.607 -0.9755  0.5245  0.8133
 5905SOL    HW323387   4.807   2.140   3.495  2.2570  0.7197 -0.3185
 5905SOL    MW423388   4.796   2.218   3.532  0.4382  0.3322  0.0656
 5906SOL     OW23389   0.779   4.722   1.968 -0.1792 -0.1651  0.0207
 5906SOL    HW223390   0.728   4.654   2.011 -1.4215 -0.1063 -1.3168
 5906SOL    HW323391   0.772   4.703   1.875 -0.3289  1.6315 -0.3715
 5906SOL    MW423392   0.772   4.711   1.961 -0.3628  0.0797 -0.2075
 5907SOL     OW23393   2.790   5.607   1.124 -0.7748  0.3582 -0.2085
 5907SOL    HW223394   2.724   5.620   1.056 -1.4778  1.9615  0.7228
 5907SOL    HW323395   2.869   5.582   1.077 -0.3141  4.4428 -2.0013
 5907SOL    MW423396   2.791   5.605   1.109 -0.8067  1.1087 -0.3221
 5908SOL     OW23397   5.747   5.304   2.983  0.1046 -0.3098 -0.2003
 5908SOL    HW223398   5.785   5.217   2.969 -2.0260 -1.6608  1.7146
 5908SOL    HW323399   5.808   5.364   2.940  0.6770 -2.8569 -3.3240
 5908SOL    MW423400   5.760   5.300   2.976 -0.1010 -0.8241 -0.3598
 5909SOL     OW23401   0.181   6.313   2.168  0.2986 -0.4103  0.2038
 5909SOL    HW223402   0.273   6.295   2.186  0.7059  1.1958 -0.1695
 5909SOL    HW323403   0.180   6.347   2.079 -0.6885 -0.5155  0.1632
 5909SOL    MW423404   0.193   6.315   2.159  0.2221 -0.2123  0.1492
 5910SOL     OW23405   5.142   0.499   5.109 -0.4151 -0.2644  0.3199
 5910SOL    HW223406   5.078   0.432   5.131  0.9900 -1.6363  0.4478
 5910SOL    HW323407   5.219   0.476   5.162 -0.2025  2.0492  1.1462
 5910SOL    MW423408   5.144   0.487   5.119 -0.2016 -0.1401  0.4458
 5911SOL     OW23409   4.098   4.725   3.848  0.0575 -0.1952 -0.5179
 5911SOL    HW223410   4.009   4.752   3.870  0.3160  0.0729  0.2383
 5911SOL    HW323411   4.137   4.703   3.933  0.9200  0.3324 -0.7685
 5911SOL    MW423412   4.091   4.726   3.862  0.2054 -0.0902 -0.4512
 5912SOL     OW23413   5.298   1.471   6.037  0.2181  0.0862  0.1179
 5912SOL    HW223414   5.294   1.405   6.105  0.6289  0.0471  0.1057
 5912SOL    HW323415   5.277   1.553   6.082  0.5831  0.0752  0.3155
 5912SOL    MW423416   5.295   1.473   6.052  0.3205  0.0796  0.1424
 5913SOL     OW23417   2.201   2.755   3.117 -0.3610  0.5585  0.0726
 5913SOL    HW223418   2.112   2.763   3.081 -0.1324  1.1953 -0.3741
 5913SOL    HW323419   2.191   2.780   3.209 -1.2608 -2.6821  0.9940
 5913SOL    MW423420   2.188   2.759   3.124 -0.4496  0.2150  0.1352
 5914SOL     OW23421   1.164   0.277   2.050  0.3651  0.4937  0.5165
 5914SOL    HW223422   1.224   0.318   2.112  0.6917  0.3068  0.3277
 5914SOL    HW323423   1.215   0.267   1.969  0.6002 -1.1318  0.8296
 5914SOL    MW423424   1.179   0.281   2.047  0.4392  0.2546  0.5329
 5915SOL     OW23425   3.839   1.682   4.115  0.3116  0.3301  0.2924
 5915SOL    HW223426   3.858   1.597   4.154  0.2351 -0.2166 -0.8103
 5915SOL    HW323427   3.890   1.682   4.034  2.0584  2.2422  1.3160
 5915SOL    MW423428   3.848   1.671   4.109  0.5319  0.5103  0.2819
 5916SOL     OW23429   2.471   3.524   3.095  0.0381  0.0613  0.1536
 5916SOL    HW223430   2.517   3.525   3.011 -0.9436  0.3560 -0.3897
 5916SOL    HW323431   2.534   3.484   3.155  0.0061 -2.1145 -1.1463
 5916SOL    MW423432   2.486   3.519   3.092 -0.0956 -0.1869 -0.0896
 5917SOL     OW23433   1.969   1.533   3.706 -0.3001 -0.2753  0.6607
 5917SOL    HW223434   1.894   1.480   3.734 -0.5301 -0.4546 -0.2832
 5917SOL    HW323435   2.034   1.520   3.775  0.1196 -2.7867 -0.1171
 5917SOL    MW423436   1.968   1.524   3.719 -0.2751 -0.6303  0.4335
 5918SOL     OW23437   4.506   0.627   3.693 -0.1073 -0.1034 -0.2293
 5918SOL    HW223438   4.535   0.693   3.630 -2.2974  0.6287 -0.5545
 5918SOL    HW323439   4.563   0.552   3.676  2.2629  1.5402 -0.0561
 5918SOL    MW423440   4.517   0.626   3.682 -0.0835  0.2100 -0.2494
 5919SOL     OW23441   4.092   4.122   4.257  0.2072  0.1091  0.8923
 5919SOL    HW223442   4.001   4.150   4.265 -0.0171 -0.6432  1.1077
 5919SOL    HW323443   4.089   4.048   4.196  0.3947 -1.1177  2.3181
 5919SOL    MW423444   4.080   4.116   4.250  0.2024 -0.1520  1.1089
 5920SOL     OW23445   5.232   6.442   3.909  0.1183 -0.0271  0.2261
 5920SOL    HW223446   5.284   6.364   3.895  0.3432  0.5066 -2.4073
 5920SOL    HW323447   5.292   6.504   3.951  0.4853 -0.6218  0.5926
 5920SOL    MW423448   5.247   6.440   3.913  0.1964 -0.0351 -0.0730
 5921SOL     OW23449   5.700   3.992   2.685 -0.1351  0.5784  0.5366
 5921SOL    HW223450   5.652   3.996   2.602 -0.9437 -1.5403  0.8148
 5921SOL    HW323451   5.671   4.069   2.734 -1.8964  0.3271 -0.0458
 5921SOL    MW423452   5.689   4.002   2.681 -0.4741  0.2657  0.4965
 5922SOL     OW23453   1.617   5.817   5.240 -0.9057 -0.1619 -0.6770
 5922SOL    HW223454   1.550   5.757   5.207 -1.2132  0.8673 -2.0218
 5922SOL    HW323455   1.568   5.895   5.264 -0.1241  1.2081 -3.1481
 5922SOL    MW423456   1.601   5.819   5.238 -0.8432  0.1546 -1.1805
 5923SOL     OW23457   5.994   3.659   2.710 -0.0455 -0.5060  0.3589
 5923SOL    HW223458   5.909   3.643   2.669 -0.8084  1.9446  0.7863
 5923SOL    HW323459   6.004   3.589   2.775 -1.8266 -0.7410  0.4275
 5923SOL    MW423460   5.984   3.648   2.713 -0.3811 -0.2137  0.4243
 5924SOL     OW23461   4.732   4.460   3.813  0.0537 -0.3359  0.5426
 5924SOL    HW223462   4.706   4.453   3.721  0.1129  1.6658  0.3272
 5924SOL    HW323463   4.828   4.468   3.810 -0.0867  2.2270  0.5124
 5924SOL    MW423464   4.741   4.460   3.800  0.0430  0.2663  0.5102
 5925SOL     OW23465   1.433   5.579   3.375  0.1545  1.1501  0.2359
 5925SOL    HW223466   1.432   5.563   3.280 -0.0246  1.0652  0.2526
 5925SOL    HW323467   1.494   5.652   3.386  1.6736 -0.0669  0.2444
 5925SOL    MW423468   1.441   5.587   3.364  0.3313  0.9783  0.2392
 5926SOL     OW23469   3.590   2.133   2.097 -0.6748 -0.3903  0.0014
 5926SOL    HW223470   3.534   2.064   2.133  0.1476 -1.6920 -1.1141
 5926SOL    HW323471   3.638   2.090   2.026 -0.3526  1.4200 -0.9305
 5926SOL    MW423472   3.589   2.118   2.092 -0.5238 -0.3232 -0.2687
 5927SOL     OW23473   2.285   0.709   4.024  0.0644 -0.1199 -0.4594
 5927SOL    HW223474   2.320   0.743   3.941  0.7447 -0.3000 -0.2488
 5927SOL    HW323475   2.195   0.741   4.026  0.4422  1.0060 -0.6412
 5927SOL    MW423476   2.277   0.718   4.013  0.2040  0.0049 -0.4556
 5928SOL     OW23477   0.896   4.205   3.933  0.0278  0.5203  0.3652
 5928SOL    HW223478   0.988   4.208   3.960 -0.3392  1.2552  1.5892
 5928SOL    HW323479   0.851   4.161   4.005 -1.1693  3.6214  1.7164
 5928SOL    MW423480   0.902   4.200   3.946 -0.1785  1.0264  0.7050
 5929SOL     OW23481   2.780   4.458   0.819  0.1936  0.6633  0.7036
 5929SOL    HW223482   2.719   4.517   0.864 -0.0982  1.4089 -0.6084
 5929SOL    HW323483   2.859   4.510   0.806 -0.2016  0.9377 -0.8071
 5929SOL    MW423484   2.782   4.473   0.823  0.1030  0.7979  0.3312
 5930SOL     OW23485   5.615   3.693   6.473 -0.4494 -0.4577 -0.0633
 5930SOL    HW223486   5.663   3.622   6.515 -1.9347 -0.7753  1.1827
 5930SOL    HW323487   5.644   3.691   6.382  1.3208 -1.0884  0.4700
 5930SOL    MW423488   5.625   3.683   6.467 -0.4118 -0.5828  0.1715
 5931SOL     OW23489   1.642   3.856   5.219  0.2098  0.1579 -0.9376
 5931SOL    HW223490   1.684   3.942   5.222 -0.4022  0.4601 -0.9852
 5931SOL    HW323491   1.643   3.832   5.127  3.0105 -1.2088 -0.6456
 5931SOL    MW423492   1.648   3.864   5.207  0.4986  0.0174 -0.9054
 5932SOL     OW23493   3.287   5.385   1.213 -0.3399  0.4275  0.5483
 5932SOL    HW223494   3.246   5.456   1.163  0.5728  0.6718  0.1109
 5932SOL    HW323495   3.216   5.325   1.233 -0.7675  0.4097 -0.9183
 5932SOL    MW423496   3.272   5.387   1.209 -0.2759  0.4574  0.2971
 5933SOL     OW23497   5.000   6.283   1.206 -0.4432  0.2525  0.5781
 5933SOL    HW223498   4.907   6.307   1.200 -0.4094  0.1913 -4.1990
 5933SOL    HW323499   5.002   6.188   1.195  0.1946  0.0555  2.1285
 5933SOL    MW423500   4.988   6.274   1.204 -0.3546  0.2185  0.1524
 5934SOL     OW23501   5.880   1.469   6.000 -0.0677 -0.1290  0.3914
 5934SOL    HW223502   5.830   1.523   6.061  1.3868 -1.1932  2.6665
 5934SOL    HW323503   5.955   1.523   5.976 -0.6418  0.2910 -0.5137
 5934SOL    MW423504   5.884   1.483   6.005  0.0484 -0.2140  0.5722
 5935SOL     OW23505   4.344   3.982   4.910 -0.0911  0.5913  0.3095
 5935SOL    HW223506   4.285   3.944   4.845 -0.9228  1.2935  0.6288
 5935SOL    HW323507   4.424   3.929   4.905 -1.3889 -1.5571  1.1578
 5935SOL    MW423508   4.347   3.970   4.900 -0.3721  0.4005  0.4635
 5936SOL     OW23509   5.782   3.902   5.584  0.4067 -0.0490 -0.7189
 5936SOL    HW223510   5.835   3.979   5.564  0.7620 -0.1112 -0.0570
 5936SOL    HW323511   5.843   3.829   5.578  0.6580 -0.0238  1.0053
 5936SOL    MW423512   5.797   3.903   5.580  0.4867 -0.0539 -0.4041
 5937SOL     OW23513   3.292   0.757   1.012 -0.1933 -0.5255 -0.1119
 5937SOL    HW223514   3.226   0.804   0.961  0.8380  1.0385 -0.0826
 5937SOL    HW323515   3.280   0.665   0.989 -1.1127 -0.0685 -1.5758
 5937SOL    MW423516   3.282   0.751   1.002 -0.1786 -0.2588 -0.3012
 5938SOL     OW23517   2.158   2.138   3.419 -0.3981  0.4429  0.4735
 5938SOL    HW223518   2.213   2.088   3.479 -0.4819 -0.7101 -0.3816
 5938SOL    HW323519   2.125   2.211   3.472  0.4579  0.1149  1.4974
 5938SOL    MW423520   2.161   2.141   3.434 -0.2962  0.2475  0.4958
 5939SOL     OW23521   5.789   2.466   4.562 -0.0464  0.9737  0.6272
 5939SOL    HW223522   5.703   2.455   4.522  0.6184  1.0709 -0.9122
 5939SOL    HW323523   5.776   2.444   4.654 -1.5482  0.2435  0.2729
 5939SOL    MW423524   5.776   2.462   4.569 -0.1568  0.8902  0.3773
 5940SOL     OW23525   1.426   4.791   3.441 -0.1742  0.2563 -0.3875
 5940SOL    HW223526   1.454   4.881   3.457 -0.0479  0.1458  0.0295
 5940SOL    HW323527   1.365   4.772   3.513 -1.2506  0.4619 -1.2256
 5940SOL    MW423528   1.421   4.801   3.453 -0.2996  0.2689 -0.4430
 5941SOL     OW23529   4.735   6.373   4.141 -0.1679  0.1058  0.0609
 5941SOL    HW223530   4.690   6.289   4.150  2.6037 -1.5819 -0.4053
 5941SOL    HW323531   4.771   6.391   4.228  0.8150 -0.1903 -0.2733
 5941SOL    MW423532   4.734   6.364   4.154  0.3275 -0.1559 -0.0447
 5942SOL     OW23533   0.983   5.830   0.126  0.0834  0.1451  0.0395
 5942SOL    HW223534   1.050   5.876   0.177 -0.9354  1.4519  0.2505
 5942SOL    HW323535   1.001   5.855   0.035  0.6117 -0.4913 -0.0388
 5942SOL    MW423536   0.995   5.839   0.121  0.0187  0.2335  0.0570
 5943SOL     OW23537   0.173   5.808   0.701 -0.1553 -0.7067 -0.2455
 5943SOL    HW223538   0.195   5.899   0.723  0.1161 -0.7474 -0.3399
 5943SOL    HW323539   0.223   5.790   0.621  0.4626 -1.2089  0.2386
 5943SOL    MW423540   0.182   5.818   0.693 -0.0379 -0.7783 -0.1941
 5944SOL     OW23541   5.024   5.059   6.168  0.1382 -0.5283  0.4001
 5944SOL    HW223542   5.044   5.099   6.083  0.4564 -1.6560 -0.0737
 5944SOL    HW323543   5.079   5.107   6.230  0.5574 -0.2767 -0.1550
 5944SOL    MW423544   5.034   5.071   6.165  0.2355 -0.6439  0.2644
 5945SOL     OW23545   6.164   4.015   5.333 -0.5773 -0.0118  0.4459
 5945SOL    HW223546   6.233   4.005   5.398 -0.6444 -3.8346  0.1277
 5945SOL    HW323547   6.194   4.087   5.277  2.0545 -0.1061  1.5932
 5945SOL    MW423548   6.177   4.023   5.334 -0.2389 -0.5286  0.5553
 5946SOL     OW23549   5.911   5.505   2.886 -0.2461 -0.6501 -0.2856
 5946SOL    HW223550   5.896   5.581   2.943 -0.5676 -1.1604  0.3190
 5946SOL    HW323551   6.004   5.484   2.899  0.1272  0.2820 -1.2713
 5946SOL    MW423552   5.922   5.512   2.895 -0.2393 -0.5944 -0.3359
 5947SOL     OW23553   2.107   4.528   4.333 -0.4034 -0.5262 -0.7404
 5947SOL    HW223554   2.024   4.574   4.342  0.3423  0.4717  2.1740
 5947SOL    HW323555   2.136   4.548   4.243 -3.0072 -0.5127 -1.6445
 5947SOL    MW423556   2.100   4.537   4.322 -0.6486 -0.3927 -0.4752
 5948SOL     OW23557   3.018   2.959   2.975 -0.8954 -0.5925 -0.4221
 5948SOL    HW223558   3.024   2.916   3.060  0.9466  0.7133  0.1749
 5948SOL    HW323559   2.942   3.016   2.982 -1.0000 -0.8009  0.2026
 5948SOL    MW423560   3.009   2.960   2.987 -0.6661 -0.4477 -0.2609
 5949SOL     OW23561   2.894   5.350   1.032 -0.4113  0.0993  0.6322
 5949SOL    HW223562   2.960   5.286   1.007 -0.2860  0.1763  0.7673
 5949SOL    HW323563   2.873   5.330   1.123  0.2544  0.7798  0.9496
 5949SOL    MW423564   2.900   5.339   1.040 -0.3070  0.1992  0.6919
 5950SOL     OW23565   0.880   4.039   2.533 -0.6942  0.3580  0.6408
 5950SOL    HW223566   0.943   4.111   2.530 -1.0878  0.8112  2.1988
 5950SOL    HW323567   0.861   4.028   2.626 -1.0597 -1.4145  0.3913
 5950SOL    MW423568   0.886   4.047   2.545 -0.7944  0.1839  0.8135
 5951SOL     OW23569   1.056   5.752   1.560  0.3203  0.1280  0.2963
 5951SOL    HW223570   1.055   5.693   1.484  1.2127 -0.0887  0.4443
 5951SOL    HW323571   1.001   5.708   1.625 -0.2894  0.2193 -0.1463
 5951SOL    MW423572   1.049   5.738   1.559  0.3576  0.1114  0.2574
 5952SOL     OW23573   4.281   0.571   2.713 -0.3919  0.1192  0.5377
 5952SOL    HW223574   4.300   0.663   2.697  1.2936 -0.1270  1.0014
 5952SOL    HW323575   4.224   0.545   2.640  1.5511  0.7766 -1.2878
 5952SOL    MW423576   4.276   0.579   2.701  0.0869  0.1735  0.3580
 5953SOL     OW23577   4.215   4.002   1.097  0.1769  0.4194 -0.1576
 5953SOL    HW223578   4.202   4.090   1.131  1.2427 -0.0221  1.5107
 5953SOL    HW323579   4.142   3.951   1.133  0.4138  0.3028  0.1675
 5953SOL    MW423580   4.204   4.007   1.106  0.3488  0.3457  0.1054
 5954SOL     OW23581   5.751   3.182   4.774  0.1404  0.1434  0.4391
 5954SOL    HW223582   5.770   3.147   4.687 -0.7727  0.3488  0.1447
 5954SOL    HW323583   5.835   3.178   4.820  0.0932 -2.3943  0.4289
 5954SOL    MW423584   5.765   3.177   4.768  0.0137 -0.1643  0.3989
 5955SOL     OW23585   0.518   4.761   3.300 -0.2766  0.1071 -0.1229
 5955SOL    HW223586   0.444   4.724   3.347  2.2302 -3.9897  1.0997
 5955SOL    HW323587   0.540   4.842   3.348 -1.3130 -0.9017  2.1839
 5955SOL    MW423588   0.511   4.767   3.313 -0.0826 -0.5666  0.3428
 5956SOL     OW23589   1.291   2.750   3.238  0.6230 -0.7027  0.2607
 5956SOL    HW223590   1.339   2.727   3.316  0.1478  0.0448  0.7906
 5956SOL    HW323591   1.286   2.846   3.240  0.4077 -0.6879 -0.5561
 5956SOL    MW423592   1.296   2.760   3.248  0.5319 -0.6021  0.2229
 5957SOL     OW23593   5.011   3.908   0.478  0.4967 -0.6072  0.1201
 5957SOL    HW223594   4.986   3.904   0.570  1.2339 -1.7662  0.2892
 5957SOL    HW323595   4.929   3.894   0.431 -0.0061  0.6978  0.5687
 5957SOL    MW423596   4.997   3.906   0.484  0.5276 -0.5879  0.2016
 5958SOL     OW23597   2.466   0.462   0.340  0.4316  0.0766  0.5650
 5958SOL    HW223598   2.439   0.553   0.326  0.4818  0.4607  2.6020
 5958SOL    HW323599   2.413   0.432   0.414  0.8663 -1.3423  0.3275
 5958SOL    MW423600   2.456   0.470   0.348  0.4955 -0.0600  0.8024
 5959SOL     OW23601   5.233   0.420   1.680  0.2577 -0.1661 -0.1481
 5959SOL    HW223602   5.329   0.418   1.691  0.1233 -0.3687  1.2759
 5959SOL    HW323603   5.220   0.439   1.588  1.6837  0.2700 -0.2979
 5959SOL    MW423604   5.244   0.423   1.670  0.4281 -0.1353  0.0200
 5960SOL     OW23605   2.830   3.348   2.563  0.4175 -0.3471  0.1174
 5960SOL    HW223606   2.859   3.313   2.479 -0.9369 -0.8932 -0.1663
 5960SOL    HW323607   2.835   3.443   2.554  0.5504 -0.4105 -0.4788
 5960SOL    MW423608   2.834   3.356   2.551  0.2563 -0.4275  0.0013
 5961SOL     OW23609   2.808   4.188   3.484 -0.3619 -0.2489  0.1745
 5961SOL    HW223610   2.883   4.220   3.533  0.6390 -2.1590 -0.0154
 5961SOL    HW323611   2.742   4.256   3.493  0.9302  0.8818  1.4528
 5961SOL    MW423612   2.809   4.201   3.491 -0.0594 -0.3517  0.3181
 5962SOL     OW23613   4.293   2.136   1.613 -0.8142 -0.1940  0.5920
 5962SOL    HW223614   4.363   2.125   1.677 -0.6670  1.0765  0.6698
 5962SOL    HW323615   4.217   2.094   1.654 -0.0766 -1.7965  0.3975
 5962SOL    MW423616   4.292   2.129   1.627 -0.6975 -0.2378  0.5766
 5963SOL     OW23617   5.218   5.747   2.806 -0.3667 -0.1332  0.2570
 5963SOL    HW223618   5.229   5.839   2.781  0.7762 -0.0292  1.0835
 5963SOL    HW323619   5.123   5.734   2.809 -0.5763  0.4295 -1.9380
 5963SOL    MW423620   5.207   5.758   2.803 -0.2436 -0.0453  0.0765
 5964SOL     OW23621   0.871   3.184   0.525  0.0768 -0.2597  0.5718
 5964SOL    HW223622   0.842   3.097   0.553  0.1132 -0.4617  0.0064
 5964SOL    HW323623   0.882   3.175   0.430  0.2582  0.3128  0.5390
 5964SOL    MW423624   0.869   3.171   0.516  0.1055 -0.2108  0.4928
 5965SOL     OW23625   4.104   5.104   3.901 -0.2281 -0.0060 -0.0259
 5965SOL    HW223626   4.056   5.135   3.824  0.7795  0.9805 -0.2642
 5965SOL    HW323627   4.167   5.041   3.866  1.4987  1.7966 -0.2998
 5965SOL    MW423628   4.106   5.100   3.886  0.1327  0.3620 -0.0935
 5966SOL     OW23629   2.961   5.797   5.214  0.1672 -0.3843  0.2030
 5966SOL    HW223630   2.972   5.879   5.166 -0.3019  0.2784  1.1949
 5966SOL    HW323631   2.939   5.733   5.147  1.6608  0.0337 -0.7506
 5966SOL    MW423632   2.960   5.800   5.199  0.3024 -0.2417  0.2081
 5967SOL     OW23633   1.709   5.727   6.399 -0.5148 -0.0243 -0.4093
 5967SOL    HW223634   1.750   5.698   6.480 -0.1381  0.7997 -0.3002
 5967SOL    HW323635   1.736   5.662   6.334 -1.1831 -0.9376  0.1996
 5967SOL    MW423636   1.718   5.714   6.401 -0.5533 -0.0361 -0.3146
 5968SOL     OW23637   3.117   5.680   3.810  0.0689  0.4319 -0.3000
 5968SOL    HW223638   3.139   5.773   3.812  2.2065 -0.0146  0.2410
 5968SOL    HW323639   3.024   5.676   3.831 -0.2502  2.4752 -1.1294
 5968SOL    MW423640   3.108   5.692   3.813  0.3088  0.6426 -0.3381
 5969SOL     OW23641   2.204   3.618   1.317  0.0970 -0.1575  0.0995
 5969SOL    HW223642   2.138   3.596   1.383 -0.5412  0.2219 -0.4008
 5969SOL    HW323643   2.286   3.582   1.352 -0.0889  0.6236  1.4244
 5969SOL    MW423644   2.206   3.611   1.330 -0.0118 -0.0044  0.2083
 5970SOL     OW23645   3.590   5.100   1.309 -0.2077 -0.4888  0.4687
 5970SOL    HW223646   3.581   5.168   1.243 -1.0542 -2.8992 -2.1113
 5970SOL    HW323647   3.500   5.073   1.329  0.0701 -0.3432  2.0836
 5970SOL    MW423648   3.577   5.105   1.303 -0.2827 -0.7876  0.3413
 5971SOL     OW23649   3.252   2.913   0.430 -0.1497  0.2856 -0.4745
 5971SOL    HW223650   3.318   2.844   0.443 -0.1162  0.2544 -0.7917
 5971SOL    HW323651   3.229   2.941   0.519  2.2372  2.1628 -0.3465
 5971SOL    MW423652   3.258   2.907   0.444  0.1696  0.5292 -0.4995
 5972SOL     OW23653   0.269   4.837   2.869 -0.8445  0.4102  0.2317
 5972SOL    HW223654   0.242   4.928   2.861 -1.3233  0.4917  2.2523
 5972SOL    HW323655   0.218   4.791   2.803 -0.8486  1.5401 -0.5769
 5972SOL    MW423656   0.259   4.843   2.860 -0.9082  0.5700  0.3916
 5973SOL     OW23657   3.456   1.515   5.728 -0.1958  0.2444 -0.1491
 5973SOL    HW223658   3.536   1.509   5.677  0.5612 -2.2618  1.1832
 5973SOL    HW323659   3.486   1.523   5.819 -1.3159 -2.7039  0.5824
 5973SOL    MW423660   3.470   1.515   5.733 -0.2437 -0.4753  0.1232
 5974SOL     OW23661   0.053   5.114   1.363  0.0580  0.4543  1.3043
 5974SOL    HW223662   0.139   5.112   1.405  0.6937  2.4358  0.2102
 5974SOL    HW323663   0.053   5.193   1.310 -1.4782 -0.8425 -0.8248
 5974SOL    MW423664   0.064   5.124   1.362 -0.0608  0.5446  0.8790
 5975SOL     OW23665   4.878   6.364   1.707  0.3023  0.1253  0.0687
 5975SOL    HW223666   4.876   6.445   1.656  0.5928  0.2037  0.1778
 5975SOL    HW323667   4.966   6.361   1.743  0.0241  0.1915  0.7643
 5975SOL    MW423668   4.889   6.374   1.705  0.3039  0.1444  0.1749
 5976SOL     OW23669   2.532   4.868   3.990 -0.1570 -0.2090  0.2773
 5976SOL    HW223670   2.544   4.810   4.064  0.6203  1.3493  1.4263
 5976SOL    HW323671   2.437   4.868   3.974 -0.1888 -1.5608  0.4027
 5976SOL    MW423672   2.521   4.860   3.998 -0.0587 -0.1818  0.4454
 5977SOL     OW23673   0.497   6.309   3.463  0.0295 -0.2510 -0.4190
 5977SOL    HW223674   0.455   6.234   3.506 -0.9722  1.0386  0.9631
 5977SOL    HW323675   0.424   6.369   3.443  0.7340  0.1380 -2.0257
 5977SOL    MW423676   0.482   6.307   3.466 -0.0097 -0.0295 -0.4487
 5978SOL     OW23677   1.027   1.465   0.475  0.2714 -0.4635  0.0495
 5978SOL    HW223678   1.038   1.509   0.390 -1.2625 -0.0935  0.0160
 5978SOL    HW323679   0.973   1.388   0.456  2.8162 -2.3905  0.1327
 5978SOL    MW423680   1.021   1.461   0.461  0.4048 -0.6689  0.0561
 5979SOL     OW23681   3.756   1.792   3.389  0.2310  0.1663  0.2384
 5979SOL    HW223682   3.753   1.887   3.381  0.6841  0.1151 -0.7655
 5979SOL    HW323683   3.809   1.763   3.314 -3.7618 -1.2061 -2.4048
 5979SOL    MW423684   3.762   1.801   3.378 -0.2361 -0.0215 -0.2428
 5980SOL     OW23685   4.790   2.566   1.402 -0.7555 -0.2590 -0.0285
 5980SOL    HW223686   4.758   2.550   1.314  0.3691  0.9752 -0.6846
 5980SOL    HW323687   4.878   2.601   1.390 -1.3251  1.8466  1.4886
 5980SOL    MW423688   4.798   2.568   1.389 -0.6823  0.1817  0.0851
 5981SOL     OW23689   1.764   6.094   0.066 -0.5626  0.5879  0.3240
 5981SOL    HW223690   1.773   6.185   0.094 -1.0145  0.2290  1.7277
 5981SOL    HW323691   1.753   6.099  -0.029  1.5989  1.8430  0.0578
 5981SOL    MW423692   1.764   6.107   0.057 -0.3370  0.7062  0.4741
 5982SOL     OW23693   6.168   0.259   1.003 -0.1924 -0.2073 -0.1509
 5982SOL    HW223694   6.101   0.211   0.954 -1.4234  1.3176 -0.0166
 5982SOL    HW323695   6.171   0.345   0.961 -0.1232  0.5890  1.4242
 5982SOL    MW423696   6.160   0.264   0.991 -0.3457  0.0989  0.0746
 5983SOL     OW23697   1.651   0.156   0.258  0.5531  0.3214  0.2086
 5983SOL    HW223698   1.651   0.153   0.354 -1.8240  0.9231  0.2983
 5983SOL    HW323699   1.620   0.244   0.237 -3.1721 -1.0840 -0.9604
 5983SOL    MW423700   1.647   0.167   0.268 -0.2520  0.2154  0.0662
 5984SOL     OW23701   6.012   5.341   3.876  0.8071  0.4490  0.0648
 5984SOL    HW223702   6.044   5.375   3.792  1.2815  0.1539  0.1201
 5984SOL    HW323703   5.918   5.332   3.864  1.0147 -0.7813 -0.8774
 5984SOL    MW423704   6.004   5.344   3.863  0.8971  0.2478 -0.0522
 5985SOL     OW23705   5.729   5.989   0.705 -0.3541  0.1951 -0.8134
 5985SOL    HW223706   5.774   5.941   0.774 -0.9604 -0.1605 -0.6590
 5985SOL    HW323707   5.750   5.941   0.625 -0.3594  0.0998 -0.7579
 5985SOL    MW423708   5.737   5.976   0.703 -0.4348  0.1356 -0.7857
 5986SOL     OW23709   0.845   6.042   3.785  0.0648  0.3473 -0.6301
 5986SOL    HW223710   0.872   5.953   3.761  1.9816  0.5697  0.4896
 5986SOL    HW323711   0.882   6.097   3.716  0.9174  0.4753 -0.0851
 5986SOL    MW423712   0.854   6.037   3.773  0.4302  0.3935 -0.4104
 5987SOL     OW23713   1.855   4.390   0.132  0.2463 -0.2591  0.2193
 5987SOL    HW223714   1.930   4.396   0.191 -0.6424 -0.9678  1.4640
 5987SOL    HW323715   1.800   4.322   0.170 -0.4223 -0.6459 -1.3775
 5987SOL    MW423716   1.858   4.382   0.145  0.0408 -0.4036  0.1729
 5988SOL     OW23717   5.744   1.716   5.837 -0.0128  0.0926  0.0024
 5988SOL    HW223718   5.692   1.676   5.907 -1.2044  0.2796 -0.7513
 5988SOL    HW323719   5.807   1.772   5.883 -0.0738 -0.5956  0.9550
 5988SOL    MW423720   5.746   1.718   5.853 -0.1780  0.0265  0.0286
 5989SOL     OW23721   2.295   1.987   3.603  0.0682 -0.0073 -0.3073
 5989SOL    HW223722   2.280   1.990   3.697 -0.8221  4.2568 -0.3970
 5989SOL    HW323723   2.385   1.955   3.594  1.6432  3.0566  2.3561
 5989SOL    MW423724   2.305   1.983   3.614  0.1585  0.9596  0.0323
 5990SOL     OW23725   2.472   0.504   4.097  1.2895  0.2348  0.7443
 5990SOL    HW223726   2.415   0.579   4.119  0.1279 -0.3222 -0.2660
 5990SOL    HW323727   2.516   0.483   4.179  0.2006  0.8381  1.5133
 5990SOL    MW423728   2.470   0.511   4.111  0.9926  0.2409  0.7124
 5991SOL     OW23729   2.085   2.117   5.831  0.1590 -0.0129 -0.3429
 5991SOL    HW223730   2.126   2.032   5.816  1.3067  0.5181 -0.2749
 5991SOL    HW323731   2.124   2.149   5.912 -2.5405 -0.7733  1.4044
 5991SOL    MW423732   2.095   2.110   5.840 -0.0457 -0.0432 -0.1034
 5992SOL     OW23733   1.262   5.035   2.299  0.0382 -0.2977  0.1552
 5992SOL    HW223734   1.278   5.008   2.209  2.0421  2.7985 -0.5532
 5992SOL    HW323735   1.199   5.107   2.292  1.9205  1.5107  0.9103
 5992SOL    MW423736   1.256   5.041   2.286  0.5510  0.3494  0.1614
 5993SOL     OW23737   5.868   3.395   2.127  0.8218 -0.3139  0.4208
 5993SOL    HW223738   5.893   3.488   2.133  0.8878 -0.3637  0.9262
 5993SOL    HW323739   5.828   3.376   2.211 -2.2975  0.1609 -0.8233
 5993SOL    MW423740   5.866   3.405   2.139  0.4190 -0.2578  0.3233
 5994SOL     OW23741   0.732   4.070   3.592 -0.2053  0.4468  1.0997
 5994SOL    HW223742   0.794   4.116   3.536 -0.4564 -0.3600  0.1211
 5994SOL    HW323743   0.782   3.997   3.630 -0.7331 -0.7774 -0.4387
 5994SOL    MW423744   0.746   4.066   3.590 -0.3081  0.1788  0.7676
 5995SOL     OW23745   2.628   6.247   4.245  0.1856  0.0729 -0.2938
 5995SOL    HW223746   2.698   6.251   4.179 -0.8907  0.2030 -1.4819
 5995SOL    HW323747   2.549   6.272   4.197 -0.5061  1.1002  1.2829
 5995SOL    MW423748   2.627   6.251   4.230 -0.0477  0.2256 -0.2426
 5996SOL     OW23749   3.919   6.175   2.254 -0.2041 -0.3603  0.0917
 5996SOL    HW223750   4.010   6.145   2.255 -0.7624 -2.2350 -0.4485
 5996SOL    HW323751   3.923   6.267   2.277  1.8319 -0.4160  0.0892
 5996SOL    MW423752   3.931   6.183   2.257 -0.0091 -0.6150  0.0201
 5997SOL     OW23753   4.706   4.631   0.482 -0.4603  0.0101 -0.1680
 5997SOL    HW223754   4.707   4.717   0.523  0.3058  0.0248 -0.2034
 5997SOL    HW323755   4.642   4.581   0.533  1.3682 -0.3650  1.9003
 5997SOL    MW423756   4.698   4.636   0.494 -0.1180 -0.0374  0.1002
 5998SOL     OW23757   1.003   4.216   1.979  0.0743 -0.0302  0.0229
 5998SOL    HW223758   0.912   4.228   2.007 -1.2275 -1.6478 -3.0789
 5998SOL    HW323759   1.029   4.132   2.016 -0.0391 -0.0330  0.0966
 5998SOL    MW423760   0.995   4.207   1.988 -0.1124 -0.2440 -0.3766
 5999SOL     OW23761   1.754   3.537   0.519  0.5934  0.2506 -0.3684
 5999SOL    HW223762   1.818   3.588   0.569  0.3783 -0.7646  0.9940
 5999SOL    HW323763   1.806   3.467   0.480  0.4442 -0.1164  0.0883
 5999SOL    MW423764   1.770   3.535   0.520  0.5453  0.0682 -0.1284
 6000SOL     OW23765   0.358   2.326   3.589 -0.4491 -0.3603  0.8938
 6000SOL    HW223766   0.361   2.316   3.494 -0.4249 -2.6934  1.0770
 6000SOL    HW323767   0.359   2.237   3.623  0.9877  0.4107  3.1431
 6000SOL    MW423768   0.359   2.313   3.581 -0.2563 -0.5664  1.2147
 6001SOL     OW23769   2.028   1.608   3.454  0.1596  0.1110 -0.0376
 6001SOL    HW223770   1.993   1.574   3.536 -1.0686  0.8747 -0.2226
 6001SOL    HW323771   2.050   1.699   3.473 -1.4047  0.6989 -0.8800
 6001SOL    MW423772   2.026   1.615   3.467 -0.2089  0.2893 -0.1731
 6002SOL     OW23773   2.309   4.274   5.693  0.0393  0.8034  0.1128
 6002SOL    HW223774   2.400   4.302   5.684  0.0372  1.3835  1.5290
 6002SOL    HW323775   2.259   4.355   5.701 -0.7134  0.5090 -1.3523
 6002SOL    MW423776   2.315   4.288   5.693 -0.0603  0.8411  0.1064
 6003SOL     OW23777   1.667   4.751   3.698 -0.1992 -0.2159  0.5719
 6003SOL    HW223778   1.584   4.787   3.731 -0.2840  0.2265 -0.0985
 6003SOL    HW323779   1.701   4.819   3.640 -0.2808 -1.1391 -0.5992
 6003SOL    MW423780   1.660   4.765   3.695 -0.2211 -0.2793  0.3290
 6004SOL     OW23781   1.966   3.036   1.494 -0.0011  0.0653 -0.3152
 6004SOL    HW223782   2.013   3.119   1.483 -0.1740  0.1679 -0.2791
 6004SOL    HW323783   1.978   2.990   1.410 -0.6550  0.5087 -0.6605
 6004SOL    MW423784   1.974   3.041   1.481 -0.1102  0.1374 -0.3560
 6005SOL     OW23785   0.660   0.134   4.319 -0.3035  0.2500 -0.1504
 6005SOL    HW223786   0.716   0.118   4.243 -2.1420 -1.5083 -1.2398
 6005SOL    HW323787   0.646   0.229   4.319  2.2846  0.7036 -0.0417
 6005SOL    MW423788   0.665   0.145   4.309 -0.2046  0.0779 -0.2798
 6006SOL     OW23789   0.953   0.597   0.344  0.1609  0.0241  0.3254
 6006SOL    HW223790   1.044   0.619   0.362 -0.3620  0.7228  2.5518
 6006SOL    HW323791   0.950   0.576   0.251  2.3105  1.3914 -0.1120
 6006SOL    MW423792   0.964   0.597   0.334  0.3755  0.2966  0.5614
 6007SOL     OW23793   1.468   2.995   5.333  0.0370 -0.1193 -0.3327
 6007SOL    HW223794   1.540   3.055   5.312  0.7988 -1.2923 -1.1236
 6007SOL    HW323795   1.506   2.931   5.393 -0.1739 -1.1193 -1.2488
 6007SOL    MW423796   1.482   2.995   5.338  0.1097 -0.4060 -0.5579
 6008SOL     OW23797   3.223   3.619   1.407  0.1208 -0.5097  0.4021
 6008SOL    HW223798   3.199   3.576   1.489 -1.2193  0.5739  0.6363
 6008SOL    HW323799   3.217   3.551   1.341 -0.0333 -1.1173  1.0331
 6008SOL    MW423800   3.219   3.604   1.409 -0.0763 -0.4469  0.5163
 6009SOL     OW23801   1.217   2.617   3.785 -0.2299  0.1783 -0.5476
 6009SOL    HW223802   1.131   2.576   3.787 -0.4327  0.6242  0.1431
 6009SOL    HW323803   1.278   2.545   3.771 -0.2005 -1.1069  4.2996
 6009SOL    MW423804   1.214   2.602   3.784 -0.2528  0.0675  0.1831
 6010SOL     OW23805   0.403   4.997   6.451  0.5438  0.1150  0.0460
 6010SOL    HW223806   0.375   4.911   6.421  1.0098 -0.9278  2.4177
 6010SOL    HW323807   0.495   5.002   6.425  1.0502 -0.9309  1.5394
 6010SOL    MW423808   0.412   4.986   6.443  0.6721 -0.1606  0.5559
 6011SOL     OW23809   2.136   2.519   4.224 -0.0909  0.1789  0.2702
 6011SOL    HW223810   2.050   2.500   4.262  0.5594 -0.7655  1.3425
 6011SOL    HW323811   2.188   2.549   4.298  0.8733 -0.5497 -0.0895
 6011SOL    MW423812   2.132   2.520   4.239  0.1221 -0.0418  0.3642
 6012SOL     OW23813   4.912   1.067   1.475 -0.0182  0.6080  0.2316
 6012SOL    HW223814   4.865   1.008   1.535 -0.3740  0.4857 -0.1576
 6012SOL    HW323815   4.868   1.054   1.391  1.4076 -0.3263 -0.4075
 6012SOL    MW423816   4.900   1.057   1.472  0.1230  0.4686  0.0959
 6013SOL     OW23817   3.578   6.022   2.130 -0.6737 -0.0320 -0.0100
 6013SOL    HW223818   3.607   6.112   2.144  2.1429 -0.4069 -2.5919
 6013SOL    HW323819   3.603   5.976   2.210 -2.6671  1.4416  1.5990
 6013SOL    MW423820   3.585   6.028   2.142 -0.5650  0.1130 -0.1384
 6014SOL     OW23821   0.098   6.152   2.692  0.2571 -0.5819 -0.1050
 6014SOL    HW223822   0.083   6.098   2.614  0.1460 -0.2648 -0.3025
 6014SOL    HW323823   0.177   6.202   2.672  0.7113 -1.1174  0.3226
 6014SOL    MW423824   0.106   6.151   2.679  0.3023 -0.6107 -0.0747
 6015SOL     OW23825   5.878   5.847   2.688  0.0409  0.6141  0.1765
 6015SOL    HW223826   5.814   5.917   2.700 -1.4149 -0.5878 -0.1123
 6015SOL    HW323827   5.931   5.848   2.767 -2.5019 -0.3964  2.0329
 6015SOL    MW423828   5.876   5.856   2.700 -0.4867  0.3222  0.3833
 6016SOL     OW23829   0.180   3.927   5.854 -0.1076  0.8078  0.1755
 6016SOL    HW223830   0.254   3.974   5.817 -0.1353 -0.9698 -2.3710
 6016SOL    HW323831   0.112   3.995   5.865  0.4847  1.7211 -1.5039
 6016SOL    MW423832   0.181   3.942   5.851 -0.0331  0.6937 -0.3821
 6017SOL     OW23833   3.969   6.356   5.185 -0.1194 -0.2630 -0.0103
 6017SOL    HW223834   3.913   6.329   5.258 -0.8092 -1.2155 -0.8647
 6017SOL    HW323835   4.007   6.274   5.152 -0.6215  0.0152 -1.3509
 6017SOL    MW423836   3.967   6.341   5.190 -0.2767 -0.3520 -0.2999
 6018SOL     OW23837   2.880   0.886   6.248  0.0130 -0.2418  0.7809
 6018SOL    HW223838   2.962   0.910   6.291  0.5762  1.1285 -0.9443
 6018SOL    HW323839   2.904   0.876   6.156 -1.8304  0.5494  0.1796
 6018SOL    MW423840   2.894   0.888   6.241 -0.1559  0.0434  0.4740
 6019SOL     OW23841   2.023   6.294   3.983  0.2103  0.1648 -0.1729
 6019SOL    HW223842   1.974   6.329   3.909 -0.3346  0.1141  0.1572
 6019SOL    HW323843   2.013   6.360   4.051 -0.7856 -0.5891  0.4388
 6019SOL    MW423844   2.015   6.307   3.982  0.0070  0.0586 -0.0487
 6020SOL     OW23845   3.697   5.163   0.119  0.0032 -0.2948 -0.1796
 6020SOL    HW223846   3.612   5.122   0.107  0.7647 -2.1542  0.4012
 6020SOL    HW323847   3.677   5.250   0.153 -1.6998  0.2745 -2.4141
 6020SOL    MW423848   3.683   5.169   0.122 -0.1210 -0.4650 -0.3978
 6021SOL     OW23849   4.049   3.292   4.002  1.0388  0.7565  0.2451
 6021SOL    HW223850   4.143   3.281   3.988  1.2110  0.4289  1.5641
 6021SOL    HW323851   4.016   3.204   4.021  0.8699  1.1600  1.9751
 6021SOL    MW423852   4.057   3.279   4.003  1.0392  0.7665  0.6474
 6022SOL     OW23853   1.244   1.539   4.298 -0.0506  0.3946  0.0361
 6022SOL    HW223854   1.288   1.495   4.371  1.0506 -2.0391 -1.9451
 6022SOL    HW323855   1.310   1.600   4.264 -0.6254  1.6649  1.0731
 6022SOL    MW423856   1.259   1.541   4.303  0.0188  0.2411 -0.0885
 6023SOL     OW23857   1.962   2.786   4.946  0.8326 -0.4143  0.5420
 6023SOL    HW223858   1.888   2.782   5.006 -0.3604  1.5943 -0.6947
 6023SOL    HW323859   1.928   2.748   4.864  1.8574 -1.4223  0.5568
 6023SOL    MW423860   1.948   2.780   4.943  0.8104 -0.2823  0.3808
 6024SOL     OW23861   4.728   2.449   1.893  0.0986 -0.2155 -0.4122
 6024SOL    HW223862   4.779   2.368   1.890  1.4003  0.5596 -0.2307
 6024SOL    HW323863   4.708   2.469   1.802  1.0272  0.0069 -0.5746
 6024SOL    MW423864   4.732   2.441   1.881  0.3928 -0.0839 -0.4096
 6025SOL     OW23865   3.679   5.996   3.373  0.6941 -0.7975 -0.0208
 6025SOL    HW223866   3.621   6.070   3.391  3.5139  1.0869  2.2376
 6025SOL    HW323867   3.654   5.967   3.286  0.7563  4.1803 -2.0065
 6025SOL    MW423868   3.668   6.002   3.364  1.0744  0.1079  0.0152
 6026SOL     OW23869   4.041   2.095   6.259 -0.6802 -0.2704  0.4878
 6026SOL    HW223870   3.956   2.135   6.244 -0.9102 -1.2418 -1.0108
 6026SOL    HW323871   4.102   2.169   6.263 -1.5324  0.4066  1.1746
 6026SOL    MW423872   4.038   2.110   6.257 -0.8230 -0.3092  0.3807
 6027SOL     OW23873   5.303   4.052   1.208  0.2695  0.2112  0.0892
 6027SOL    HW223874   5.310   4.037   1.114  0.7440 -0.7094  0.2552
 6027SOL    HW323875   5.308   4.147   1.218 -2.7288  0.5960 -1.0397
 6027SOL    MW423876   5.304   4.062   1.197 -0.0635  0.1405 -0.0379
 6028SOL     OW23877   5.454   2.001   3.915  0.1372  0.0030 -0.2108
 6028SOL    HW223878   5.521   1.933   3.921  0.5031  0.2267 -1.4969
 6028SOL    HW323879   5.429   2.018   4.006  1.8124 -0.0958  0.2910
 6028SOL    MW423880   5.459   1.994   3.928  0.4065  0.0195 -0.3143
 6029SOL     OW23881   4.006   4.279   1.893 -0.0126 -0.2725 -0.6981
 6029SOL    HW223882   4.027   4.278   1.987 -1.5078 -2.1017 -0.3084
 6029SOL    HW323883   3.911   4.290   1.891  0.0692  0.2347 -2.0257
 6029SOL    MW423884   3.996   4.280   1.905 -0.1991 -0.4469 -0.8218
 6030SOL     OW23885   3.664   4.061   1.828  0.4364  0.1506 -0.2230
 6030SOL    HW223886   3.582   4.065   1.780 -0.2761 -1.9402  0.7225
 6030SOL    HW323887   3.731   4.044   1.761  0.1407  1.7851 -0.9840
 6030SOL    MW423888   3.662   4.059   1.813  0.3034  0.0904 -0.1986
 6031SOL     OW23889   1.580   1.193   6.297  0.0202  0.2765 -0.4845
 6031SOL    HW223890   1.582   1.098   6.298  0.1971  0.2822 -0.2234
 6031SOL    HW323891   1.672   1.219   6.299 -0.0427  0.4599  0.2367
 6031SOL    MW423892   1.592   1.184   6.297  0.0353  0.3015 -0.3549
 6032SOL     OW23893   2.887   3.390   1.934  0.5600 -0.3957 -0.6960
 6032SOL    HW223894   2.801   3.432   1.940  1.2390  1.7965 -3.8386
 6032SOL    HW323895   2.874   3.317   1.874  0.9703  0.3338 -1.6945
 6032SOL    MW423896   2.874   3.386   1.927  0.7037 -0.0102 -1.2424
 6033SOL     OW23897   5.017   5.713   5.386  0.1078 -0.5545 -0.2495
 6033SOL    HW223898   5.079   5.655   5.342 -0.0368 -0.5670 -0.4390
 6033SOL    HW323899   5.068   5.792   5.406  0.4009 -0.8792  0.3260
 6033SOL    MW423900   5.032   5.716   5.383  0.1274 -0.5990 -0.1986
 6034SOL     OW23901   3.345   2.582   3.395 -0.4269  0.9065 -0.5650
 6034SOL    HW223902   3.332   2.602   3.488  0.5863  0.8204 -0.3965
 6034SOL    HW323903   3.393   2.499   3.395  1.9717  2.2030 -1.0678
 6034SOL    MW423904   3.349   2.574   3.408  0.0232  1.0662 -0.6091
 6035SOL     OW23905   3.935   4.815   5.311  0.1720  0.1818  0.1771
 6035SOL    HW223906   3.908   4.726   5.285 -0.6293  0.8319 -1.3745
 6035SOL    HW323907   3.865   4.871   5.278  1.1066  1.4741  0.3415
 6035SOL    MW423908   3.922   4.811   5.303  0.1896  0.4380 -0.0059
 6036SOL     OW23909   3.584   5.295   2.737 -0.6352  0.4184  0.0725
 6036SOL    HW223910   3.506   5.302   2.681  0.2502  1.1153 -1.1152
 6036SOL    HW323911   3.612   5.385   2.751  1.2144  0.1307 -1.3656
 6036SOL    MW423912   3.577   5.308   2.731 -0.2744  0.4724 -0.2740
 6037SOL     OW23913   1.268   4.085   2.687 -0.5301  0.2229 -0.4245
 6037SOL    HW223914   1.192   4.108   2.741  0.5889  0.5476  1.1025
 6037SOL    HW323915   1.289   4.165   2.639  0.2907  0.9134  1.0198
 6037SOL    MW423916   1.261   4.098   2.688 -0.2742  0.3568 -0.0325
 6038SOL     OW23917   1.495   1.942   5.466  0.2551 -0.6115  0.4786
 6038SOL    HW223918   1.461   1.872   5.523 -0.3002  0.3087  1.2982
 6038SOL    HW323919   1.423   2.003   5.458  1.1067  0.4433  0.6934
 6038SOL    MW423920   1.481   1.941   5.472  0.2942 -0.3509  0.6151
 6039SOL     OW23921   2.276   0.057   5.363 -0.1931 -0.0310  0.4289
 6039SOL    HW223922   2.346   0.022   5.307 -1.8146 -2.5850 -0.1807
 6039SOL    HW323923   2.315   0.060   5.450  0.7659 -1.2787  0.0930
 6039SOL    MW423924   2.290   0.053   5.367 -0.2805 -0.5326  0.3042
 6040SOL     OW23925   0.443   5.500   1.338 -0.2895 -0.7309 -0.5518
 6040SOL    HW223926   0.464   5.592   1.326  0.0309 -0.9292 -1.6355
 6040SOL    HW323927   0.438   5.488   1.433 -1.0279  0.5451 -0.4101
 6040SOL    MW423928   0.445   5.510   1.349 -0.3446 -0.5887 -0.6761
 6041SOL     OW23929   4.409   4.425   6.413 -0.1039  0.0571 -0.5316
 6041SOL    HW223930   4.427   4.482   6.338  1.1750 -0.1180 -0.3797
 6041SOL    HW323931   4.377   4.484   6.481  1.1370  0.5966 -0.4004
 6041SOL    MW423932   4.407   4.440   6.412  0.2285  0.1052 -0.4943
 6042SOL     OW23933   1.726   1.957   0.222  0.0499  0.2860 -0.2843
 6042SOL    HW223934   1.641   1.918   0.243 -1.1228  2.3573 -0.9112
 6042SOL    HW323935   1.783   1.883   0.203 -1.1701 -1.2444  1.6613
 6042SOL    MW423936   1.722   1.942   0.223 -0.2658  0.3574 -0.1103
 6043SOL     OW23937   0.404   1.169   0.880  0.3664 -0.4169  0.0009
 6043SOL    HW223938   0.350   1.218   0.943 -0.3396  0.0415 -0.9283
 6043SOL    HW323939   0.407   1.080   0.914  0.4815 -0.0522  0.9800
 6043SOL    MW423940   0.397   1.164   0.893  0.2884 -0.3083  0.0075
 6044SOL     OW23941   4.104   0.708   1.931 -0.2202 -0.2811 -0.3272
 6044SOL    HW223942   4.145   0.628   1.963  1.6444  0.7636 -0.0022
 6044SOL    HW323943   4.176   0.770   1.921 -1.2153  0.5794 -3.0804
 6044SOL    MW423944   4.119   0.706   1.934 -0.1055 -0.0298 -0.6476
 6045SOL     OW23945   4.306   5.938   5.951 -0.1627 -0.8966 -0.3755
 6045SOL    HW223946   4.215   5.941   5.920 -0.3580  1.0526  0.2047
 6045SOL    HW323947   4.304   5.875   6.023 -0.2515 -3.4748 -2.4973
 6045SOL    MW423948   4.293   5.930   5.957 -0.2002 -0.9796 -0.5789
 6046SOL     OW23949   6.071   1.474   5.364 -0.0314  0.0882  0.0554
 6046SOL    HW223950   6.081   1.379   5.351  2.6159  0.4555 -1.1665
 6046SOL    HW323951   6.106   1.490   5.451  0.8802  0.0858 -0.2965
 6046SOL    MW423952   6.077   1.464   5.374  0.4381  0.1364 -0.1522
 6047SOL     OW23953   1.747   3.036   3.086 -0.3393  0.1939  0.6052
 6047SOL    HW223954   1.785   2.983   3.016 -4.8892  0.5718 -2.5600
 6047SOL    HW323955   1.758   3.127   3.056 -1.1906  0.4447  1.0193
 6047SOL    MW423956   1.754   3.041   3.072 -1.0519  0.2769  0.2422
 6048SOL     OW23957   1.655   0.441   2.946 -0.2649 -0.0872 -0.0571
 6048SOL    HW223958   1.720   0.440   3.017  0.6990  0.9349 -0.9020
 6048SOL    HW323959   1.699   0.399   2.873  0.7509  3.3945 -1.6697
 6048SOL    MW423960   1.669   0.435   2.946 -0.0037  0.5070 -0.3813
 6049SOL     OW23961   1.136   2.348   6.393  0.3119 -0.5045  0.0996
 6049SOL    HW223962   1.076   2.310   6.457  0.6080  0.0197  0.7063
 6049SOL    HW323963   1.086   2.418   6.351 -0.7638 -2.4935 -2.1345
 6049SOL    MW423964   1.122   2.353   6.396  0.2090 -0.6978 -0.1151
 6050SOL     OW23965   0.100   0.878   5.620  0.2994  0.2452 -0.5750
 6050SOL    HW223966   0.189   0.866   5.652  0.0883 -0.8633 -0.3566
 6050SOL    HW323967   0.075   0.792   5.585 -1.1871  0.1227  0.6976
 6050SOL    MW423968   0.108   0.865   5.620  0.0754  0.0828 -0.3782
 6051SOL     OW23969   5.341   5.567   5.522  0.0767 -0.7918 -0.0832
 6051SOL    HW223970   5.288   5.601   5.594 -0.4563 -0.9472 -0.3922
 6051SOL    HW323971   5.349   5.640   5.461  0.5633 -0.6476  0.1456
 6051SOL    MW423972   5.335   5.581   5.524  0.0706 -0.7933 -0.0938
 6052SOL     OW23973   4.276   4.183   6.446 -0.0811 -0.1804 -0.1251
 6052SOL    HW223974   4.334   4.254   6.420  0.0582  0.6911  2.2638
 6052SOL    HW323975   4.332   4.106   6.452  0.1594 -0.0691 -0.8840
 6052SOL    MW423976   4.291   4.182   6.444 -0.0310 -0.0507  0.0900
 6053SOL     OW23977   0.417   1.931   0.368  0.2262  0.2254 -0.0025
 6053SOL    HW223978   0.374   2.005   0.325  0.2176 -0.0114 -0.4110
 6053SOL    HW323979   0.418   1.954   0.460 -1.6731 -0.2023  0.1620
 6053SOL    MW423980   0.412   1.944   0.374 -0.0255  0.1377 -0.0347
 6054SOL     OW23981   0.098   2.391   3.540  0.2366 -0.1483 -0.3220
 6054SOL    HW223982   0.188   2.381   3.571  0.1977  1.7945  0.5939
 6054SOL    HW323983   0.055   2.444   3.607 -1.5606 -0.8772 -0.8358
 6054SOL    MW423984   0.104   2.397   3.553 -0.0056  0.0118 -0.2690
 6055SOL     OW23985   1.406   1.933   0.583  0.1601 -0.4586 -0.0678
 6055SOL    HW223986   1.409   1.931   0.679  1.3282 -1.5260 -0.1056
 6055SOL    HW323987   1.466   2.004   0.559  0.1396 -0.4242 -0.0164
 6055SOL    MW423988   1.414   1.942   0.592  0.3115 -0.5949 -0.0660
 6056SOL     OW23989   1.834   5.721   2.106 -0.7425 -0.1148  0.2358
 6056SOL    HW223990   1.926   5.731   2.082 -0.1922 -2.3305  1.2377
 6056SOL    HW323991   1.828   5.760   2.194 -0.6558 -0.4314  0.3806
 6056SOL    MW423992   1.845   5.728   2.114 -0.6585 -0.4489  0.3871
 6057SOL     OW23993   0.615   2.708   3.144  0.4075  0.0985  0.3359
 6057SOL    HW223994   0.654   2.640   3.199  1.1956 -0.2429 -0.6179
 6057SOL    HW323995   0.521   2.692   3.149  0.6242 -2.6485 -1.7454
 6057SOL    MW423996   0.608   2.697   3.152  0.5401 -0.3090 -0.0646
 6058SOL     OW23997   2.956   5.703   4.343  0.4534  0.0938 -0.1445
 6058SOL    HW223998   2.987   5.625   4.297  1.5698 -0.0340  0.7990
 6058SOL    HW323999   2.908   5.669   4.419  0.6681  0.3247  0.0959
 6058SOL    MW424000   2.954   5.688   4.347  0.6290  0.1074  0.0117
 6059SOL     OW24001   1.686   2.892   4.764 -0.1112  0.3088  0.6984
 6059SOL    HW224002   1.723   2.979   4.753  0.1353  0.0621 -0.6652
 6059SOL    HW324003   1.616   2.902   4.828 -1.1470  1.8447 -0.5970
 6059SOL    MW424004   1.682   2.905   4.771 -0.2154  0.4789  0.3476
 6060SOL     OW24005   6.295   2.011   1.104 -0.1440 -0.4257  0.5644
 6060SOL    HW224006   6.355   2.055   1.045 -0.3678 -1.2191 -0.2905
 6060SOL    HW324007   6.351   1.959   1.161  0.0054 -1.1215 -0.1938
 6060SOL    MW424008   6.310   2.010   1.103 -0.1538 -0.6222  0.3516
 6061SOL     OW24009   1.426   0.461   3.919 -0.4640  0.7722 -0.1258
 6061SOL    HW224010   1.348   0.517   3.929 -0.2330  1.3043 -1.1247
 6061SOL    HW324011   1.500   0.519   3.936 -0.2734  0.2205  1.0069
 6061SOL    MW424012   1.425   0.476   3.922 -0.4084  0.7696 -0.1081
 6062SOL     OW24013   1.765   1.854   2.197 -0.4922  0.0555  0.0663
 6062SOL    HW224014   1.722   1.769   2.200 -1.5239  0.5574  0.3185
 6062SOL    HW324015   1.805   1.864   2.284  0.1351 -0.4144 -0.1677
 6062SOL    MW424016   1.764   1.844   2.209 -0.5456  0.0598  0.0687
 6063SOL     OW24017   4.022   2.019   4.816 -0.8357 -0.6424 -0.4550
 6063SOL    HW224018   3.930   2.045   4.830 -0.7818 -0.1391 -0.9948
 6063SOL    HW324019   4.037   1.949   4.879 -1.6072 -0.7551 -0.3869
 6063SOL    MW424020   4.011   2.013   4.826 -0.9304 -0.5909 -0.5173
 6064SOL     OW24021   5.822   2.945   2.443  0.4505 -0.0688  0.5095
 6064SOL    HW224022   5.837   2.974   2.353 -0.8617  0.1520  0.3391
 6064SOL    HW324023   5.818   3.026   2.494 -3.9312  0.3232 -0.0734
 6064SOL    MW424024   5.823   2.960   2.438 -0.3008  0.0120  0.4101
 6065SOL     OW24025   4.104   2.603   0.537  0.5687  0.3887 -0.5697
 6065SOL    HW224026   4.196   2.626   0.522  0.6825 -0.4384 -1.2247
 6065SOL    HW324027   4.106   2.510   0.555  0.0125  0.6661  1.0190
 6065SOL    MW424028   4.117   2.594   0.537  0.5103  0.3162 -0.4465
 6066SOL     OW24029   6.110   3.415   4.804  0.0904 -0.4279  0.1949
 6066SOL    HW224030   6.110   3.384   4.714 -0.6101  0.1734 -0.0212
 6066SOL    HW324031   6.180   3.480   4.807 -0.9155  0.7075 -0.3405
 6066SOL    MW424032   6.119   3.419   4.793 -0.1348 -0.1988  0.0958
 6067SOL     OW24033   2.050   2.591   0.213  0.2416 -0.0783  0.0048
 6067SOL    HW224034   2.139   2.558   0.225 -0.0320 -0.8895 -0.0650
 6067SOL    HW324035   2.051   2.634   0.127  0.3942 -0.7297 -0.3295
 6067SOL    MW424036   2.062   2.592   0.203  0.2256 -0.2713 -0.0485
 6068SOL     OW24037   4.960   0.588   1.433  0.4017 -0.0656  0.3012
 6068SOL    HW224038   4.878   0.542   1.418  1.0909 -1.0253 -0.7322
 6068SOL    HW324039   4.988   0.616   1.345  0.9401  0.6662  0.6925
 6068SOL    MW424040   4.953   0.586   1.419  0.5637 -0.0957  0.2165
 6069SOL     OW24041   6.329   2.754   5.610  0.2321  0.0988 -0.1329
 6069SOL    HW224042   6.401   2.816   5.625 -0.5466  1.8205 -2.7077
 6069SOL    HW324043   6.368   2.684   5.558  0.7601 -0.7932  1.4174
 6069SOL    MW424044   6.344   2.753   5.605  0.1990  0.2082 -0.2680
 6070SOL     OW24045   2.220   4.290   4.719 -0.1925 -0.0846 -0.1809
 6070SOL    HW224046   2.209   4.319   4.810 -0.6063 -1.3203  0.1942
 6070SOL    HW324047   2.232   4.195   4.726 -1.6367 -0.4065 -1.5011
 6070SOL    MW424048   2.220   4.281   4.732 -0.4376 -0.2901 -0.3056
 6071SOL     OW24049   5.973   1.086   2.353  0.0844  0.1525  0.5785
 6071SOL    HW224050   5.951   1.180   2.356 -1.6561 -0.2481  2.0103
 6071SOL    HW324051   6.066   1.083   2.375  0.1349  1.5264  0.6928
 6071SOL    MW424052   5.982   1.098   2.356 -0.1386  0.2809  0.7825
 6072SOL     OW24053   2.528   1.236   0.212  0.1066 -0.4122  0.3315
 6072SOL    HW224054   2.434   1.246   0.225  0.1229  2.3155 -1.1303
 6072SOL    HW324055   2.536   1.181   0.134 -0.2700  0.0572 -0.0340
 6072SOL    MW424056   2.517   1.230   0.204  0.0590  0.0096  0.0904
 6073SOL     OW24057   1.217   0.894   2.125 -0.2716  0.4957  0.1466
 6073SOL    HW224058   1.224   0.802   2.149  0.3243  0.3956 -0.3973
 6073SOL    HW324059   1.194   0.938   2.207 -1.1713 -0.2051  0.2877
 6073SOL    MW424060   1.215   0.888   2.139 -0.3117  0.3900  0.0935
 6074SOL     OW24061   0.991   4.823   0.924  0.0175 -0.0191  0.0478
 6074SOL    HW224062   1.046   4.837   0.847 -0.2127  1.0908  0.0708
 6074SOL    HW324063   1.041   4.860   0.997 -0.0907 -0.3989  0.3187
 6074SOL    MW424064   1.005   4.830   0.924 -0.0271  0.0772  0.0866
 6075SOL     OW24065   5.385   5.015   3.871 -0.0340  0.1297  0.7359
 6075SOL    HW224066   5.343   4.954   3.932 -1.3242  0.7024  0.4486
 6075SOL    HW324067   5.366   5.102   3.906 -0.3339  0.4481 -0.1914
 6075SOL    MW424068   5.377   5.018   3.884 -0.2438  0.2473  0.5757
 6076SOL     OW24069   4.918   2.246   0.870 -0.0164 -0.0631 -0.5745
 6076SOL    HW224070   5.000   2.205   0.842 -0.1873 -0.9135  0.1236
 6076SOL    HW324071   4.931   2.264   0.963  0.0093  1.4049 -0.8293
 6076SOL    MW424072   4.931   2.243   0.879 -0.0355  0.0184 -0.5160
 6077SOL     OW24073   4.982   0.382   1.951  1.1224 -0.1616 -0.3157
 6077SOL    HW224074   5.048   0.317   1.973  1.5687  0.3607 -0.1046
 6077SOL    HW324075   5.031   0.459   1.926  0.5962  0.2574 -0.0834
 6077SOL    MW424076   4.997   0.383   1.951  1.1119 -0.0374 -0.2572
 6078SOL     OW24077   0.512   2.094   1.231 -0.0448 -0.0390 -1.0796
 6078SOL    HW224078   0.590   2.101   1.176 -0.2108 -0.2330 -1.3472
 6078SOL    HW324079   0.446   2.054   1.174 -0.0636 -0.7380 -0.5791
 6078SOL    MW424080   0.513   2.090   1.216 -0.0692 -0.1568 -1.0489
 6079SOL     OW24081   3.417   4.580   6.133 -0.1055 -0.2902 -0.0475
 6079SOL    HW224082   3.486   4.647   6.127  1.5967 -1.8559  1.0247
 6079SOL    HW324083   3.376   4.581   6.046 -0.4650  2.4197  0.0663
 6079SOL    MW424084   3.421   4.589   6.121  0.0717 -0.1393  0.1090
 6080SOL     OW24085   5.386   0.695   6.346  0.1286  0.6118  0.1639
 6080SOL    HW224086   5.402   0.614   6.393 -0.7998  0.6640  0.5854
 6080SOL    HW324087   5.394   0.671   6.253  0.8704  0.2734  0.3105
 6080SOL    MW424088   5.389   0.681   6.340  0.1040  0.5740  0.2388
 6081SOL     OW24089   0.732   5.302   1.804 -0.4426  0.5547  0.1556
 6081SOL    HW224090   0.759   5.296   1.713 -1.2631  0.0685 -0.0629
 6081SOL    HW324091   0.814   5.304   1.854  0.0751  2.7661 -0.6820
 6081SOL    MW424092   0.746   5.302   1.799 -0.4825  0.7823  0.0163
 6082SOL     OW24093   3.345   3.539   2.238  0.3732  0.0588 -0.2066
 6082SOL    HW224094   3.322   3.461   2.187 -0.9198  1.1140 -1.3027
 6082SOL    HW324095   3.295   3.531   2.319  0.6747 -0.4933 -0.0653
 6082SOL    MW424096   3.336   3.528   2.242  0.2424  0.1252 -0.3325
 6083SOL     OW24097   5.495   0.183   3.215 -0.4982 -0.0030  0.1715
 6083SOL    HW224098   5.533   0.269   3.200 -0.2838  0.2216  1.8206
 6083SOL    HW324099   5.409   0.187   3.175 -1.1126  1.5329  1.5685
 6083SOL    MW424100   5.489   0.195   3.208 -0.5510  0.2293  0.5734
 6084SOL     OW24101   5.253   1.948   4.463 -0.1600 -0.0676  0.3602
 6084SOL    HW224102   5.283   1.932   4.373 -0.0684  0.4962  0.2864
 6084SOL    HW324103   5.249   1.861   4.503  2.1075 -0.1666  0.5373
 6084SOL    MW424104   5.257   1.934   4.457  0.1513 -0.0062  0.3738
 6085SOL     OW24105   3.086   3.363   2.674 -0.4320 -0.1028 -0.1141
 6085SOL    HW224106   2.991   3.366   2.662 -0.5947 -2.5540  0.2260
 6085SOL    HW324107   3.115   3.290   2.621  1.4745  1.3082 -1.1189
 6085SOL    MW424108   3.077   3.354   2.666 -0.2019 -0.2400 -0.2018
 6086SOL     OW24109   2.160   0.113   3.057  0.0688 -0.5491 -0.0575
 6086SOL    HW224110   2.087   0.057   3.083  0.0152  0.5221  2.2960
 6086SOL    HW324111   2.210   0.126   3.137  0.9499  1.4979 -0.8790
 6086SOL    MW424112   2.157   0.108   3.071  0.1780 -0.1377  0.1446
 6087SOL     OW24113   3.399   2.472   4.126 -0.1813 -0.1101  0.5485
 6087SOL    HW224114   3.452   2.407   4.172 -0.3463 -0.1011  0.7547
 6087SOL    HW324115   3.349   2.516   4.195  0.5942  0.8591  0.5067
 6087SOL    MW424116   3.399   2.469   4.141 -0.1008  0.0189  0.5702
 6088SOL     OW24117   2.519   5.789   6.058  0.1102 -0.1733 -0.2365
 6088SOL    HW224118   2.524   5.761   5.967  0.2772  0.0028 -0.2816
 6088SOL    HW324119   2.452   5.734   6.097  1.1961 -1.4145 -0.0448
 6088SOL    MW424120   2.511   5.778   6.051  0.2755 -0.3138 -0.2171
 6089SOL     OW24121   5.366   1.936   4.194 -0.4348  0.0356 -0.7857
 6089SOL    HW224122   5.331   1.897   4.113 -0.7296 -0.1239 -0.5816
 6089SOL    HW324123   5.459   1.912   4.193  0.3115  2.5794 -2.6002
 6089SOL    MW424124   5.374   1.927   4.183 -0.3752  0.3502 -0.9982
 6090SOL     OW24125   2.488   3.604   5.033  0.3268 -0.0493 -0.1603
 6090SOL    HW224126   2.554   3.557   5.084  1.6371  1.2637 -0.5594
 6090SOL    HW324127   2.426   3.636   5.098  0.7347 -0.3048  0.3604
 6090SOL    MW424128   2.488   3.602   5.048  0.5535  0.0903 -0.1443
 6091SOL     OW24129   1.139   0.711   4.908  0.0591 -0.0194 -0.4417
 6091SOL    HW224130   1.205   0.767   4.866  1.5768 -1.1501  0.3643
 6091SOL    HW324131   1.171   0.622   4.894 -2.2992 -0.7350 -1.6692
 6091SOL    MW424132   1.152   0.707   4.900 -0.0518 -0.2630 -0.4973
 6092SOL     OW24133   5.224   1.419   5.534 -0.0010 -0.4044 -0.4483
 6092SOL    HW224134   5.283   1.401   5.606  1.6395  1.9290 -1.0706
 6092SOL    HW324135   5.139   1.435   5.575  0.5263 -0.6890  0.7809
 6092SOL    MW424136   5.221   1.419   5.549  0.2850 -0.1341 -0.3682
 6093SOL     OW24137   5.409   2.650   6.282 -0.2550  0.5188  0.0267
 6093SOL    HW224138   5.461   2.590   6.229 -1.2419 -0.6951  0.3862
 6093SOL    HW324139   5.378   2.596   6.355 -1.5248  1.3578  0.1250
 6093SOL    MW424140   5.412   2.635   6.285 -0.5527  0.4693  0.0871
 6094SOL     OW24141   3.166   1.832   3.294 -0.3699  0.6812  0.3399
 6094SOL    HW224142   3.100   1.764   3.280 -1.0434  1.2332  0.7880
 6094SOL    HW324143   3.171   1.841   3.389  0.6069  0.4027  0.3172
 6094SOL    MW424144   3.158   1.824   3.305 -0.3299  0.7173  0.3960
 6095SOL     OW24145   0.757   5.253   0.262  0.0460  0.3441 -0.1484
 6095SOL    HW224146   0.852   5.240   0.264  0.2638  1.8313  0.7082
 6095SOL    HW324147   0.744   5.331   0.208 -0.6419  0.5153  0.2502
 6095SOL    MW424148   0.768   5.262   0.255 -0.0160  0.5629  0.0172
 6096SOL     OW24149   4.898   2.807   1.805  0.3028 -0.2792 -0.1521
 6096SOL    HW224150   4.923   2.899   1.795 -0.4698 -0.1632 -1.1211
 6096SOL    HW324151   4.965   2.759   1.756  0.1049 -0.1460 -0.5626
 6096SOL    MW424152   4.910   2.812   1.797  0.1747 -0.2463 -0.3341
 6097SOL     OW24153   0.294   5.620   5.448 -0.2207 -0.2768  0.0224
 6097SOL    HW224154   0.201   5.618   5.470  0.3270 -1.6444  2.5944
 6097SOL    HW324155   0.298   5.586   5.359 -2.0868 -1.3844  0.2981
 6097SOL    MW424156   0.282   5.615   5.440 -0.3947 -0.6034  0.3981
 6098SOL     OW24157   0.926   1.597   1.506 -0.1859  0.0116 -0.2964
 6098SOL    HW224158   1.006   1.645   1.487 -0.4159  0.8204  0.6776
 6098SOL    HW324159   0.866   1.663   1.540 -2.1022 -0.0931 -3.0904
 6098SOL    MW424160   0.928   1.612   1.508 -0.4691  0.1045 -0.5365
 6099SOL     OW24161   0.227   3.301   1.464 -0.3708 -0.6946  0.2039
 6099SOL    HW224162   0.231   3.209   1.437  1.4046 -0.5719 -0.0587
 6099SOL    HW324163   0.194   3.298   1.554 -0.8850 -1.5255  0.0017
 6099SOL    MW424164   0.223   3.288   1.473 -0.2044 -0.7880  0.1425
 6100SOL     OW24165   5.188   4.271   2.128  0.0521  0.3732 -0.7006
 6100SOL    HW224166   5.196   4.363   2.154  0.2019  0.1267  0.1576
 6100SOL    HW324167   5.118   4.237   2.183  0.1067 -0.0674 -0.9013
 6100SOL    MW424168   5.180   4.279   2.139  0.0791  0.2826 -0.6139
 6101SOL     OW24169   2.874   2.041   0.561  0.0535 -0.3310  0.2771
 6101SOL    HW224170   2.943   1.982   0.591 -0.1923 -0.6231  0.2721
 6101SOL    HW324171   2.829   1.993   0.491 -0.4293 -0.3288  0.5741
 6101SOL    MW424172   2.877   2.027   0.556 -0.0426 -0.3693  0.3157
 6102SOL     OW24173   1.667   2.363   2.679 -0.0594  0.1796  0.1474
 6102SOL    HW224174   1.709   2.431   2.732 -2.1802  1.2884  0.5015
 6102SOL    HW324175   1.649   2.293   2.742 -0.0673  0.3147  0.2980
 6102SOL    MW424176   1.670   2.363   2.694 -0.3402  0.3437  0.2140
 6103SOL     OW24177   3.451   2.341   3.087  0.1007  0.0099 -0.3249
 6103SOL    HW224178   3.494   2.360   3.003  0.6800  1.1944  0.2201
 6103SOL    HW324179   3.358   2.361   3.071  0.1833  0.0739 -0.7336
 6103SOL    MW424180   3.444   2.346   3.074  0.1880  0.1746 -0.3069
 6104SOL     OW24181   4.210   1.206   5.239 -0.7462 -0.5939 -0.6087
 6104SOL    HW224182   4.163   1.238   5.315  2.2542  0.7296  0.8496
 6104SOL    HW324183   4.272   1.141   5.274  0.6709  0.0044 -1.8577
 6104SOL    MW424184   4.212   1.202   5.253 -0.1634 -0.3404 -0.5811
 6105SOL     OW24185   6.171   2.331   2.375  0.1539 -0.4514  0.2387
 6105SOL    HW224186   6.132   2.412   2.408  0.7097 -1.0039  2.4238
 6105SOL    HW324187   6.126   2.315   2.292  0.6227  2.5069 -0.7071
 6105SOL    MW424188   6.160   2.339   2.368  0.2890 -0.1340  0.4022
 6106SOL     OW24189   3.860   4.890   0.339 -0.5262 -0.3146 -0.2127
 6106SOL    HW224190   3.951   4.880   0.311 -0.7353  0.2212 -1.1193
 6106SOL    HW324191   3.866   4.925   0.428  0.1504 -0.8559 -0.0347
 6106SOL    MW424192   3.873   4.893   0.347 -0.4646 -0.3153 -0.3088
 6107SOL     OW24193   5.917   2.490   5.243 -0.5815 -0.2474  0.0536
 6107SOL    HW224194   5.957   2.551   5.181 -1.3553  0.1788 -0.0324
 6107SOL    HW324195   5.930   2.531   5.329 -0.9917 -0.0239  0.0079
 6107SOL    MW424196   5.924   2.503   5.246 -0.7377 -0.1617  0.0362
 6108SOL     OW24197   4.494   1.206   4.784 -0.2834  0.1118  0.2702
 6108SOL    HW224198   4.530   1.130   4.737 -2.1580 -0.9354  0.4085
 6108SOL    HW324199   4.531   1.282   4.739 -1.5218 -0.8289 -2.6406
 6108SOL    MW424200   4.503   1.206   4.772 -0.6941 -0.1505 -0.0956
 6109SOL     OW24201   2.124   2.927   6.284 -0.0314 -0.5594 -0.9128
 6109SOL    HW224202   2.162   2.965   6.362  2.0749 -3.7265 -0.2216
 6109SOL    HW324203   2.070   2.854   6.316 -1.8787  0.1207 -2.2757
 6109SOL    MW424204   2.122   2.922   6.298  0.0028 -0.8875 -1.0014
 6110SOL     OW24205   6.376   0.863   2.269 -0.2368  0.1739 -0.3344
 6110SOL    HW224206   6.320   0.852   2.192 -1.6781  1.1113  0.5338
 6110SOL    HW324207   6.410   0.775   2.285 -1.0050 -0.3208 -1.2359
 6110SOL    MW424208   6.373   0.850   2.261 -0.5283  0.2323 -0.3388
 6111SOL     OW24209   2.009   1.439   2.855  0.0085 -0.6445  0.1185
 6111SOL    HW224210   1.959   1.520   2.864 -0.7222 -1.1033  0.2751
 6111SOL    HW324211   1.945   1.375   2.826  0.7183 -1.0214 -0.6458
 6111SOL    MW424212   1.994   1.442   2.853  0.0057 -0.7547  0.0384
 6112SOL     OW24213   5.501   6.051   0.872 -0.1310 -0.1034  0.0895
 6112SOL    HW224214   5.559   6.026   0.800 -1.0512 -1.1356 -0.3238
 6112SOL    HW324215   5.476   6.142   0.852 -0.5451 -0.4447 -1.0216
 6112SOL    MW424216   5.505   6.060   0.860 -0.3070 -0.2846 -0.1116
 6113SOL     OW24217   2.674   3.139   4.545 -0.5669  0.6419 -0.3223
 6113SOL    HW224218   2.739   3.161   4.613  1.7384 -3.2154 -0.9685
 6113SOL    HW324219   2.633   3.059   4.577 -1.3769  0.2301 -2.2643
 6113SOL    MW424220   2.677   3.131   4.559 -0.3696  0.0787 -0.6638
 6114SOL     OW24221   0.756   2.937   0.584 -0.4937  0.5156  0.7307
 6114SOL    HW224222   0.660   2.934   0.587 -0.4754 -0.1051  0.6874
 6114SOL    HW324223   0.784   2.885   0.659 -0.1871 -0.0970  0.2034
 6114SOL    MW424224   0.747   2.930   0.594 -0.4508  0.3529  0.6554
 6115SOL     OW24225   5.433   2.892   3.556  0.2716  0.1350 -0.1887
 6115SOL    HW224226   5.409   2.949   3.483  2.1254  0.0814 -0.8883
 6115SOL    HW324227   5.350   2.862   3.591 -0.6965 -0.7605 -3.0054
 6115SOL    MW424228   5.419   2.895   3.551  0.3885  0.0098 -0.6526
 6116SOL     OW24229   6.117   2.826   4.428  0.4450  0.0202  0.0398
 6116SOL    HW224230   6.083   2.896   4.373  0.9263 -0.4744 -0.9058
 6116SOL    HW324231   6.203   2.858   4.457 -0.5345  1.0448  2.0012
 6116SOL    MW424232   6.124   2.839   4.425  0.3792  0.0901  0.1738
 6117SOL     OW24233   5.709   1.459   3.832  0.1425  0.2778  0.3501
 6117SOL    HW224234   5.742   1.395   3.768 -0.2632  0.9942 -0.6009
 6117SOL    HW324235   5.676   1.405   3.904  0.7680 -0.5446  0.0420
 6117SOL    MW424236   5.709   1.443   3.833  0.1715  0.2638  0.1840
 6118SOL     OW24237   4.269   3.744   4.527  0.0012 -0.0471  0.2494
 6118SOL    HW224238   4.189   3.763   4.480  0.7697  3.1964 -0.0253
 6118SOL    HW324239   4.297   3.658   4.496 -2.5233 -0.5754 -0.7524
 6118SOL    MW424240   4.262   3.735   4.517 -0.2305  0.3112  0.0810
 6119SOL     OW24241   6.029   1.949   2.405  0.0301 -0.1342 -0.3493
 6119SOL    HW224242   6.046   1.886   2.474  0.4906 -0.0814 -0.4137
 6119SOL    HW324243   6.027   2.034   2.450  2.0388  0.1079 -0.6139
 6119SOL    MW424244   6.031   1.952   2.420  0.3559 -0.0953 -0.3927
 6120SOL     OW24245   4.270   5.839   1.936  0.2940 -0.0525 -0.0376
 6120SOL    HW224246   4.360   5.867   1.956  0.4238 -0.3236 -0.2517
 6120SOL    HW324247   4.216   5.906   1.978  0.6047  0.4683 -0.4537
 6120SOL    MW424248   4.275   5.852   1.944  0.3521 -0.0195 -0.1207
 6121SOL     OW24249   2.494   2.494   5.094 -0.6406 -0.6264  0.5068
 6121SOL    HW224250   2.580   2.465   5.123 -0.9118 -0.7186  1.2612
 6121SOL    HW324251   2.443   2.413   5.088 -0.2471 -0.7770 -1.5420
 6121SOL    MW424252   2.498   2.479   5.097 -0.6245 -0.6585  0.3361
 6122SOL     OW24253   2.010   1.531   4.944  0.2723  0.1155  0.1163
 6122SOL    HW224254   2.002   1.554   4.852  0.4558 -0.3512 -0.0168
 6122SOL    HW324255   1.962   1.601   4.990  0.0291  0.2519 -0.3372
 6122SOL    MW424256   2.003   1.544   4.938  0.2644  0.0719  0.0389
 6123SOL     OW24257   3.077   2.925   6.378 -0.0607  0.1079  0.4906
 6123SOL    HW224258   3.036   2.961   6.300  1.1552  0.7223  0.1044
 6123SOL    HW324259   3.140   2.861   6.344  0.7081  0.6070  0.9269
 6123SOL    MW424260   3.080   2.921   6.363  0.2012  0.2548  0.4972
 6124SOL     OW24261   3.145   3.926   2.246 -0.4868  0.0470  0.1159
 6124SOL    HW224262   3.120   3.864   2.316  0.9314 -2.1956 -1.2312
 6124SOL    HW324263   3.237   3.945   2.264 -0.4463  0.3922 -0.4723
 6124SOL    MW424264   3.153   3.920   2.258 -0.2944 -0.2033 -0.1394
 6125SOL     OW24265   5.309   0.283   4.543 -0.2437 -0.3774  0.1381
 6125SOL    HW224266   5.391   0.333   4.538  0.5481 -1.7306 -1.1634
 6125SOL    HW324267   5.243   0.347   4.569  0.6270  1.4781 -1.9339
 6125SOL    MW424268   5.311   0.298   4.546 -0.0244 -0.3111 -0.3070
 6126SOL     OW24269   5.200   5.118   2.422  0.0960 -0.3407  0.1267
 6126SOL    HW224270   5.249   5.110   2.504  0.5002  0.7249  0.0011
 6126SOL    HW324271   5.196   5.028   2.388 -3.0343 -1.4494  2.9223
 6126SOL    MW424272   5.206   5.105   2.428 -0.2637 -0.3464  0.4790
 6127SOL     OW24273   1.865   4.142   5.753 -0.4621  0.2523  0.2074
 6127SOL    HW224274   1.880   4.078   5.822 -1.9913 -0.6209 -0.2344
 6127SOL    HW324275   1.922   4.114   5.682 -0.1768  0.1493  0.4715
 6127SOL    MW424276   1.875   4.130   5.753 -0.6262  0.1235  0.1839
 6128SOL     OW24277   3.008   5.253   2.777 -0.3474 -0.2694  0.3104
 6128SOL    HW224278   3.081   5.306   2.809  0.7210 -2.2624  1.3121
 6128SOL    HW324279   2.950   5.245   2.853 -0.1197 -1.1485  0.3956
 6128SOL    MW424280   3.010   5.259   2.792 -0.1764 -0.6483  0.4538
 6129SOL     OW24281   5.607   3.681   5.837 -0.2224  0.4513 -0.1913
 6129SOL    HW224282   5.666   3.608   5.856 -1.6052 -1.1949 -1.9373
 6129SOL    HW324283   5.652   3.757   5.874  2.1701 -0.9640  0.0329
 6129SOL    MW424284   5.621   3.681   5.845 -0.0892  0.0473 -0.3921
 6130SOL     OW24285   3.900   0.662   3.253  0.3724 -0.0672 -0.6257
 6130SOL    HW224286   3.828   0.610   3.216 -0.0375  0.8658 -1.2020
 6130SOL    HW324287   3.967   0.662   3.185  0.4261  0.0271 -0.5731
 6130SOL    MW424288   3.899   0.655   3.239  0.3254  0.0683 -0.6948
 6131SOL     OW24289   5.408   0.434   6.438 -0.4192  0.2995 -0.0435
 6131SOL    HW224290   5.404   0.379   6.360  0.3758  0.5251 -0.2610
 6131SOL    HW324291   5.379   0.378   6.510 -1.3725  0.1558 -0.5283
 6131SOL    MW424292   5.404   0.419   6.437 -0.4401  0.3103 -0.1362
 6132SOL     OW24293   0.302   0.106   0.430 -0.1359  0.5160 -0.1699
 6132SOL    HW224294   0.297   0.020   0.471 -0.9334  0.1601 -0.9853
 6132SOL    HW324295   0.230   0.156   0.469 -0.3191  0.4728 -0.4471
 6132SOL    MW424296   0.292   0.102   0.441 -0.2653  0.4633 -0.3141
 6133SOL     OW24297   3.416   3.102   1.342 -0.5548  0.1807  0.3092
 6133SOL    HW224298   3.378   3.146   1.418 -0.8675  0.2847  0.0890
 6133SOL    HW324299   3.402   3.009   1.359 -1.6508  0.2473 -0.1642
 6133SOL    MW424300   3.409   3.096   1.354 -0.7406  0.2032  0.2177
 6134SOL     OW24301   6.293   4.015   4.653  0.4706  0.2672  0.3560
 6134SOL    HW224302   6.339   4.085   4.699  0.9753  1.4714 -1.8573
 6134SOL    HW324303   6.327   4.018   4.563  0.5688 -2.8613  0.1595
 6134SOL    MW424304   6.304   4.024   4.647  0.5502  0.0133  0.0380
 6135SOL     OW24305   5.255   1.238   3.476  0.4215  0.2221 -0.2939
 6135SOL    HW224306   5.187   1.193   3.526  1.8355 -0.3038  1.2238
 6135SOL    HW324307   5.242   1.330   3.496  0.2895  0.1052  0.1695
 6135SOL    MW424308   5.244   1.244   3.485  0.5906  0.1373 -0.0325
 6136SOL     OW24309   4.665   5.497   3.197  0.0636  0.6639 -0.3856
 6136SOL    HW224310   4.696   5.419   3.243 -1.0455  0.6064  0.3167
 6136SOL    HW324311   4.705   5.570   3.244  1.5972  0.5268 -1.4248
 6136SOL    MW424312   4.674   5.496   3.209  0.1196  0.6382 -0.4300
 6137SOL     OW24313   4.682   3.637   2.963 -0.9766  0.7063  0.1494
 6137SOL    HW224314   4.600   3.605   2.925 -1.1098 -0.0292  1.0312
 6137SOL    HW324315   4.695   3.584   3.041  1.4008 -0.5755 -1.0229
 6137SOL    MW424316   4.673   3.626   2.968 -0.6805  0.4402  0.1111
 6138SOL     OW24317   0.253   1.729   0.143 -0.7492 -0.0483  0.0241
 6138SOL    HW224318   0.188   1.758   0.207 -0.3780  1.9393 -0.4392
 6138SOL    HW324319   0.201   1.694   0.071 -1.2800  0.6092  0.0766
 6138SOL    MW424320   0.238   1.728   0.142 -0.7703  0.3007 -0.0301
 6139SOL     OW24321   0.427   6.218   2.172  0.2114  0.3025 -0.6443
 6139SOL    HW224322   0.435   6.122   2.179  0.6847  0.3620 -0.2677
 6139SOL    HW324323   0.495   6.251   2.232  1.1736  0.8719 -1.9976
 6139SOL    MW424324   0.437   6.209   2.181  0.4008  0.3855 -0.7731
 6140SOL     OW24325   1.387   1.172   3.999  0.2571  0.3415 -0.4709
 6140SOL    HW224326   1.444   1.225   4.055  1.1292  0.4835 -1.4524
 6140SOL    HW324327   1.426   1.084   4.003 -1.4335 -0.3799  1.4986
 6140SOL    MW424328   1.400   1.167   4.007  0.1491  0.2650 -0.3406
 6141SOL     OW24329   2.767   1.408   1.137 -0.9400  0.4714 -0.6947
 6141SOL    HW224330   2.727   1.360   1.065  0.1875 -0.0920 -0.9752
 6141SOL    HW324331   2.694   1.433   1.194 -1.4939 -2.6940  0.1433
 6141SOL    MW424332   2.752   1.405   1.135 -0.8643 -0.0206 -0.6212
 6142SOL     OW24333   2.413   2.829   5.901  0.4855 -0.3544 -0.7334
 6142SOL    HW224334   2.501   2.847   5.869  0.5717  0.6334  0.0212
 6142SOL    HW324335   2.416   2.737   5.929  1.5318 -0.0690  0.1168
 6142SOL    MW424336   2.425   2.819   5.900  0.6349 -0.1864 -0.5216
 6143SOL     OW24337   0.350   4.776   0.280 -0.1263 -0.2116 -0.5772
 6143SOL    HW224338   0.428   4.832   0.281  0.9879 -1.6968  0.7347
 6143SOL    HW324339   0.373   4.703   0.222 -0.6167 -0.5655 -0.3392
 6143SOL    MW424340   0.363   4.774   0.273 -0.0440 -0.4542 -0.3727
 6144SOL     OW24341   5.113   2.114   2.555  0.0179 -0.3921  0.1270
 6144SOL    HW224342   5.104   2.039   2.614 -2.0737  0.2496  0.7128
 6144SOL    HW324343   5.032   2.115   2.503  0.3008  1.0376 -0.3521
 6144SOL    MW424344   5.101   2.105   2.556 -0.2208 -0.1188  0.1411
 6145SOL     OW24345   4.969   2.339   3.364  0.2264 -0.5031 -0.1233
 6145SOL    HW224346   4.924   2.278   3.423 -0.0833 -1.4227 -1.2706
 6145SOL    HW324347   4.980   2.419   3.416 -1.1294 -0.8649  0.7646
 6145SOL    MW424348   4.965   2.342   3.379  0.0067 -0.6722 -0.1575
 6146SOL     OW24349   6.201   6.297   4.288 -0.6882  0.0854 -0.1286
 6146SOL    HW224350   6.108   6.321   4.282 -0.9372 -0.6102  0.7024
 6146SOL    HW324351   6.207   6.244   4.368  0.5364  0.6152  0.1568
 6146SOL    MW424352   6.190   6.293   4.298 -0.5595  0.0636  0.0187
 6147SOL     OW24353   4.278   5.217   5.919  0.0651 -0.0523  0.0576
 6147SOL    HW224354   4.304   5.166   5.842 -0.3540  0.4987 -0.4613
 6147SOL    HW324355   4.188   5.188   5.938  0.0159  0.1155  0.0815
 6147SOL    MW424356   4.269   5.207   5.911  0.0033  0.0426 -0.0077
 6148SOL     OW24357   3.210   4.797   6.247 -0.4202 -0.7600  0.6438
 6148SOL    HW224358   3.196   4.886   6.214 -1.3464 -0.2399  2.3086
 6148SOL    HW324359   3.292   4.769   6.207 -0.6266  0.4439 -0.7049
 6148SOL    MW424360   3.219   4.805   6.237 -0.5696 -0.5326  0.6855
 6149SOL     OW24361   1.102   6.334   1.462 -0.0979 -0.8474  0.2073
 6149SOL    HW224362   1.144   6.419   1.457  0.0009 -0.8967  0.1957
 6149SOL    HW324363   1.162   6.280   1.513 -0.6894 -0.5964  1.1867
 6149SOL    MW424364   1.116   6.338   1.468 -0.1629 -0.8208  0.3350
 6150SOL     OW24365   4.354   2.745   3.937 -0.3206 -0.3600  0.4907
 6150SOL    HW224366   4.387   2.717   3.851 -0.1122 -0.3039  0.5533
 6150SOL    HW324367   4.420   2.715   3.999  0.5099  1.2840  0.4588
 6150SOL    MW424368   4.367   2.737   3.934 -0.1835 -0.1357  0.4948
 6151SOL     OW24369   4.602   0.390   5.527  0.1566 -0.5900 -0.2497
 6151SOL    HW224370   4.686   0.355   5.495 -0.3253 -1.1346 -0.9335
 6151SOL    HW324371   4.540   0.319   5.514 -0.4833 -0.0780 -0.0302
 6151SOL    MW424372   4.605   0.376   5.521  0.0086 -0.5943 -0.3110
 6152SOL     OW24373   5.560   0.474   3.171  0.2138 -0.4113  0.0374
 6152SOL    HW224374   5.510   0.502   3.094  1.0868  2.1165  0.2974
 6152SOL    HW324375   5.652   0.479   3.143  0.5254  0.1769  1.1027
 6152SOL    MW424376   5.566   0.478   3.157  0.3701 -0.0002  0.2122
 6153SOL     OW24377   2.511   6.085   5.358  0.1991 -0.3790 -0.0776
 6153SOL    HW224378   2.582   6.138   5.320  0.2758 -0.5771 -0.2133
 6153SOL    HW324379   2.529   5.996   5.327  0.1832 -0.5173  0.3113
 6153SOL    MW424380   2.523   6.080   5.349  0.2071 -0.4234 -0.0442
 6154SOL     OW24381   5.919   2.991   0.255  0.2415 -0.6543  0.2175
 6154SOL    HW224382   5.903   3.052   0.183 -0.0497 -0.2053  0.6563
 6154SOL    HW324383   5.844   2.931   0.253 -0.6285  0.3498  1.1461
 6154SOL    MW424384   5.907   2.991   0.245  0.0883 -0.4626  0.3979
 6155SOL     OW24385   3.433   0.902   6.383 -0.1908  0.4685  0.4882
 6155SOL    HW224386   3.341   0.901   6.358 -0.5704 -0.0161  1.8726
 6155SOL    HW324387   3.437   0.856   6.466  1.2714  0.7009  0.5806
 6155SOL    MW424388   3.421   0.896   6.390 -0.0480  0.4352  0.6831
 6156SOL     OW24389   2.748   5.370   0.785 -0.1702  0.4845  0.3591
 6156SOL    HW224390   2.802   5.344   0.860  0.4951 -1.1330 -0.6239
 6156SOL    HW324391   2.694   5.293   0.766 -0.3404  0.8666 -0.8043
 6156SOL    MW424392   2.748   5.357   0.792 -0.1049  0.3215  0.0759
 6157SOL     OW24393   1.250   0.821   4.565 -0.0560  0.2264 -0.2675
 6157SOL    HW224394   1.247   0.854   4.655 -2.7402 -0.2937 -0.0809
 6157SOL    HW324395   1.262   0.726   4.575 -1.6562 -0.0080 -0.3578
 6157SOL    MW424396   1.251   0.813   4.578 -0.6213  0.1268 -0.2548
 6158SOL     OW24397   4.896   2.825   3.803 -0.1064 -0.9293 -0.0189
 6158SOL    HW224398   4.851   2.751   3.845 -1.2193  0.6825  1.8303
 6158SOL    HW324399   4.954   2.860   3.872 -1.0891  1.0853 -0.1437
 6158SOL    MW424400   4.898   2.820   3.818 -0.3829 -0.4509  0.2086
 6159SOL     OW24401   5.494   4.591   4.718  0.4985  0.4689  0.2868
 6159SOL    HW224402   5.497   4.497   4.735  0.6914  0.6821  1.5409
 6159SOL    HW324403   5.409   4.606   4.677 -0.9559  0.1685  2.9821
 6159SOL    MW424404   5.483   4.581   4.715  0.3321  0.4574  0.8078
 6160SOL     OW24405   5.865   0.254   2.962  0.5007 -0.7962 -0.1137
 6160SOL    HW224406   5.845   0.294   2.878  0.5208  0.1794  0.3245
 6160SOL    HW324407   5.960   0.267   2.972 -0.0136  2.7082  1.7764
 6160SOL    MW424408   5.875   0.261   2.952  0.4355 -0.2051  0.1935
 6161SOL     OW24409   0.554   0.278   1.968 -0.1526  0.0119  0.0805
 6161SOL    HW224410   0.580   0.195   1.927  0.8309  0.0623  0.5743
 6161SOL    HW324411   0.460   0.270   1.981 -0.5513  0.0215 -2.2791
 6161SOL    MW424412   0.545   0.266   1.964 -0.0755  0.0198 -0.1657
 6162SOL     OW24413   4.433   1.599   6.284 -0.3834 -0.1483 -0.6496
 6162SOL    HW224414   4.355   1.542   6.286  0.1217 -0.8453  1.3796
 6162SOL    HW324415   4.473   1.587   6.370  0.6270  2.1060 -0.7523
 6162SOL    MW424416   4.428   1.590   6.296 -0.1835  0.0571 -0.3954
 6163SOL     OW24417   1.998   0.391   3.704  0.3025 -0.1650  0.5394
 6163SOL    HW224418   1.966   0.428   3.622  2.7377  1.4118  0.2139
 6163SOL    HW324419   1.931   0.327   3.729 -0.3515 -1.0024 -2.8633
 6163SOL    MW424420   1.985   0.387   3.696  0.5375 -0.0674  0.0475
 6164SOL     OW24421   3.191   2.629   4.227 -0.3965  0.2019 -0.2384
 6164SOL    HW224422   3.166   2.554   4.281 -0.6155 -0.2806 -0.9849
 6164SOL    HW324423   3.108   2.673   4.207 -0.2057  1.0130  0.7113
 6164SOL    MW424424   3.177   2.625   4.231 -0.4002  0.2453 -0.2116
 6165SOL     OW24425   0.130   6.235   5.693  0.4287 -0.0188 -0.2811
 6165SOL    HW224426   0.168   6.231   5.781  0.8154 -0.2502 -0.4540
 6165SOL    HW324427   0.200   6.203   5.636  0.8437  1.8027 -0.8786
 6165SOL    MW424428   0.144   6.231   5.697  0.5345  0.1910 -0.3827
 6166SOL     OW24429   3.559   2.159   1.700  0.2089 -0.3293 -0.1492
 6166SOL    HW224430   3.526   2.102   1.631 -0.7432  0.1446 -0.1007
 6166SOL    HW324431   3.638   2.116   1.731  0.4118 -0.7630 -1.2409
 6166SOL    MW424432   3.565   2.146   1.695  0.1101 -0.3240 -0.2868
 6167SOL     OW24433   0.761   3.875   3.367  0.3078 -0.1150  0.3323
 6167SOL    HW224434   0.716   3.941   3.420 -2.5169 -1.1892 -0.5390
 6167SOL    HW324435   0.790   3.922   3.289  1.7696  0.8194  1.3748
 6167SOL    MW424436   0.759   3.890   3.364  0.1280 -0.1334  0.3549
 6168SOL     OW24437   5.566   1.423   4.693 -0.3922  0.1783  0.0224
 6168SOL    HW224438   5.575   1.490   4.625  0.7599  0.0839  0.0557
 6168SOL    HW324439   5.588   1.468   4.774 -2.7852  0.5603  0.5223
 6168SOL    MW424440   5.570   1.437   4.694 -0.5559  0.2162  0.0927
 6169SOL     OW24441   0.978   3.490   2.509 -0.0486 -0.1818  0.3954
 6169SOL    HW224442   0.971   3.438   2.589 -0.5622 -2.3248 -0.9473
 6169SOL    HW324443   1.021   3.432   2.446  2.5830  2.2732 -0.2762
 6169SOL    MW424444   0.982   3.475   2.511  0.2309 -0.1406  0.1296
 6170SOL     OW24445   0.461   0.561   4.063 -0.3036  0.5634 -0.4655
 6170SOL    HW224446   0.501   0.621   4.000 -0.0930  0.7227 -0.1815
 6170SOL    HW324447   0.372   0.547   4.030  0.8234 -2.1861 -2.8344
 6170SOL    MW424448   0.455   0.567   4.050 -0.1271  0.2217 -0.7406
 6171SOL     OW24449   4.111   3.766   2.382  0.6266 -0.0494 -0.6229
 6171SOL    HW224450   4.146   3.687   2.341  0.6352  0.6198 -1.9542
 6171SOL    HW324451   4.114   3.832   2.313  1.0367  1.2415  0.5856
 6171SOL    MW424452   4.116   3.764   2.367  0.6819  0.2092 -0.6391
 6172SOL     OW24453   2.303   0.646   3.289 -0.7818 -0.4106  0.3094
 6172SOL    HW224454   2.318   0.737   3.262 -1.0195 -0.7361 -1.0016
 6172SOL    HW324455   2.383   0.600   3.263 -0.8045 -0.6447  0.6497
 6172SOL    MW424456   2.315   0.652   3.282 -0.8162 -0.4844  0.1813
 6173SOL     OW24457   2.418   0.586   0.862  0.1811 -0.4655 -0.0391
 6173SOL    HW224458   2.341   0.543   0.899 -2.0569  0.7062 -2.9143
 6173SOL    HW324459   2.419   0.672   0.903 -1.3946  0.2860 -1.4469
 6173SOL    MW424460   2.408   0.592   0.872 -0.3221 -0.2118 -0.6042
 6174SOL     OW24461   5.128   4.072   4.114  0.4236 -0.1124 -0.5077
 6174SOL    HW224462   5.067   4.046   4.183  0.7328 -1.4825 -0.7217
 6174SOL    HW324463   5.213   4.077   4.159  0.2752  1.1408 -0.3476
 6174SOL    MW424464   5.131   4.069   4.129  0.4448 -0.1278 -0.5148
 6175SOL     OW24465   1.965   5.561   2.852  0.4354  0.3098  0.1142
 6175SOL    HW224466   1.903   5.628   2.879 -1.2387 -1.1833  0.1164
 6175SOL    HW324467   1.957   5.559   2.756 -1.0099 -1.2118  0.2327
 6175SOL    MW424468   1.956   5.569   2.843  0.0238 -0.0879  0.1301
 6176SOL     OW24469   4.012   1.654   4.615 -0.3863 -0.0974  0.4119
 6176SOL    HW224470   3.969   1.577   4.651  1.6611 -1.3172  0.4029
 6176SOL    HW324471   3.948   1.725   4.627 -1.8796 -1.5416  1.4623
 6176SOL    MW424472   3.998   1.653   4.622 -0.3132 -0.4489  0.5493
 6177SOL     OW24473   3.260   4.706   4.990 -0.3791  0.1231 -0.0874
 6177SOL    HW224474   3.301   4.669   5.068  0.2646  0.9595 -0.0169
 6177SOL    HW324475   3.259   4.800   5.005  1.8590  0.5387 -2.0194
 6177SOL    MW424476   3.265   4.713   5.002  0.0011  0.2883 -0.3330
 6178SOL     OW24477   2.882   4.679   3.319 -0.2267 -0.1363  0.1544
 6178SOL    HW224478   2.812   4.744   3.310 -0.9757 -0.6532  1.9133
 6178SOL    HW324479   2.962   4.730   3.320 -0.7066  0.6344  0.0857
 6178SOL    MW424480   2.883   4.694   3.318 -0.3888 -0.1028  0.3774
 6179SOL     OW24481   5.097   5.897   4.883 -0.1121  0.1648  0.2930
 6179SOL    HW224482   5.008   5.877   4.915 -0.9907  0.8297 -1.5656
 6179SOL    HW324483   5.083   5.963   4.816  1.3795 -2.1678 -2.5393
 6179SOL    MW424484   5.083   5.903   4.878 -0.0312 -0.0552 -0.3259
 6180SOL     OW24485   1.592   1.525   6.187 -0.2376  0.3140 -0.2300
 6180SOL    HW224486   1.585   1.557   6.097  1.1478 -1.0876 -0.8834
 6180SOL    HW324487   1.683   1.499   6.196 -0.9652 -2.2881  0.5999
 6180SOL    MW424488   1.603   1.526   6.176 -0.1508 -0.2142 -0.2067
 6181SOL     OW24489   2.810   3.095   2.672  0.5752 -0.1528  0.4385
 6181SOL    HW224490   2.799   3.180   2.630 -1.2055 -0.6434 -0.1657
 6181SOL    HW324491   2.889   3.059   2.631 -0.1926  0.0715 -1.3231
 6181SOL    MW424492   2.819   3.102   2.661  0.2390 -0.1879  0.1264
 6182SOL     OW24493   0.550   0.919   2.798 -0.1847 -0.9482 -0.3520
 6182SOL    HW224494   0.488   0.927   2.870  0.8067 -0.5050  0.4740
 6182SOL    HW324495   0.537   0.830   2.764 -0.5009 -1.2364  0.5145
 6182SOL    MW424496   0.540   0.908   2.803 -0.0956 -0.9277 -0.1287
 6183SOL     OW24497   3.515   0.460   1.703  0.1170 -0.0212 -0.1834
 6183SOL    HW224498   3.577   0.471   1.631  1.0781 -0.3066  0.5720
 6183SOL    HW324499   3.570   0.437   1.778 -0.5027  3.0232  1.3493
 6183SOL    MW424500   3.530   0.458   1.704  0.1620  0.3428  0.1185
 6184SOL     OW24501   1.021   4.129   4.597 -0.1833  0.3410  0.1108
 6184SOL    HW224502   1.018   4.224   4.587  0.3534  0.5169  1.3515
 6184SOL    HW324503   0.945   4.108   4.651  1.1378  0.4628  2.1756
 6184SOL    MW424504   1.011   4.139   4.603  0.0618  0.3802  0.5469
 6185SOL     OW24505   5.482   5.564   6.289  0.1139 -0.1322 -0.2420
 6185SOL    HW224506   5.410   5.595   6.234 -0.6273  0.0135  0.7701
 6185SOL    HW324507   5.478   5.620   6.367  1.3684 -0.0903 -0.1945
 6185SOL    MW424508   5.472   5.575   6.292  0.1816 -0.1074 -0.1022
 6186SOL     OW24509   4.762   4.919   6.231  0.0612 -0.1106 -0.5558
 6186SOL    HW224510   4.849   4.936   6.193  0.5734 -0.7609  0.2930
 6186SOL    HW324511   4.706   4.904   6.155  0.6676  0.4086 -1.1243
 6186SOL    MW424512   4.766   4.920   6.216  0.2088 -0.1279 -0.5188
 6187SOL     OW24513   4.147   5.899   3.834 -0.4557  0.3552  0.5924
 6187SOL    HW224514   4.175   5.896   3.742 -0.7233  2.0750  0.4242
 6187SOL    HW324515   4.229   5.902   3.883 -0.2547 -2.2211  0.5637
 6187SOL    MW424516   4.162   5.899   3.828 -0.4645  0.2422  0.5664
 6188SOL     OW24517   5.950   0.110   0.905  0.4135 -0.1538  0.3563
 6188SOL    HW224518   5.903   0.168   0.965 -0.9827 -0.4327 -0.4198
 6188SOL    HW324519   5.883   0.079   0.844  1.3321 -1.7495  0.0937
 6188SOL    MW424520   5.935   0.114   0.905  0.3505 -0.4011  0.2193
 6189SOL     OW24521   5.356   2.124   5.304 -0.0661  0.0618 -0.0473
 6189SOL    HW224522   5.275   2.112   5.256  0.7114  1.2961 -1.8151
 6189SOL    HW324523   5.388   2.036   5.321 -1.6918 -0.4329  0.5744
 6189SOL    MW424524   5.350   2.111   5.300 -0.1780  0.1594 -0.1985
 6190SOL     OW24525   4.427   2.369   1.907 -0.5757 -0.1645 -0.1802
 6190SOL    HW224526   4.523   2.372   1.902 -0.5499 -0.4226  0.1174
 6190SOL    HW324527   4.398   2.439   1.850 -0.1383  2.3306  2.4377
 6190SOL    MW424528   4.436   2.378   1.899 -0.5146  0.1306  0.2045
 6191SOL     OW24529   2.885   3.377   0.822  0.1944 -0.4089  0.3029
 6191SOL    HW224530   2.789   3.381   0.817  0.2518  0.3187 -0.4691
 6191SOL    HW324531   2.914   3.382   0.731  1.0094  0.7840  0.6089
 6191SOL    MW424532   2.876   3.378   0.809  0.3095 -0.1555  0.2414
 6192SOL     OW24533   2.898   1.363   1.556  0.8832 -0.1122  0.3800
 6192SOL    HW224534   2.963   1.297   1.581  0.6107 -1.1669 -1.5230
 6192SOL    HW324535   2.949   1.443   1.544  1.4711 -0.3618  1.1371
 6192SOL    MW424536   2.913   1.365   1.558  0.9249 -0.2843  0.2288
 6193SOL     OW24537   4.609   3.998   3.717  0.7366  0.1533 -0.1602
 6193SOL    HW224538   4.646   3.955   3.794 -3.7235 -0.5563  1.8821
 6193SOL    HW324539   4.620   4.091   3.733  0.2850 -0.0017  1.1384
 6193SOL    MW424540   4.615   4.004   3.729  0.0885  0.0393  0.2806
 6194SOL     OW24541   0.911   1.455   6.281 -0.1307 -0.4069  0.0199
 6194SOL    HW224542   0.837   1.503   6.244 -0.5754 -0.2963  0.9954
 6194SOL    HW324543   0.874   1.412   6.359  0.9901  0.2579  0.9447
 6194SOL    MW424544   0.896   1.456   6.287 -0.0415 -0.3046  0.2706
 6195SOL     OW24545   3.107   3.199   0.873 -0.0336  1.0282 -0.8032
 6195SOL    HW224546   3.034   3.260   0.863 -1.6353 -0.3527  1.4968
 6195SOL    HW324547   3.154   3.231   0.950  0.7968  0.9331 -1.2636
 6195SOL    MW424548   3.103   3.212   0.882 -0.1354  0.8335 -0.5605
 6196SOL     OW24549   5.649   3.375   4.389  0.2204 -0.3168 -0.0606
 6196SOL    HW224550   5.567   3.380   4.437 -0.9722  0.6455 -2.0863
 6196SOL    HW324551   5.697   3.454   4.413  0.4814 -0.7526  0.9182
 6196SOL    MW424552   5.645   3.386   4.399  0.0975 -0.2474 -0.1988
 6197SOL     OW24553   0.100   1.403   0.748 -0.2353  0.3909 -0.1595
 6197SOL    HW224554   0.158   1.356   0.689  0.9129 -0.4964  1.5869
 6197SOL    HW324555   0.028   1.343   0.764 -0.1810  0.3462 -0.0858
 6197SOL    MW424556   0.098   1.389   0.742 -0.0766  0.2680  0.0806
 6198SOL     OW24557   4.815   4.688   4.960  0.1154 -0.1096  0.5120
 6198SOL    HW224558   4.890   4.632   4.979  0.6358  0.2078 -0.4992
 6198SOL    HW324559   4.746   4.627   4.934  0.6498 -0.3207 -0.4874
 6198SOL    MW424560   4.816   4.672   4.959  0.2546 -0.0956  0.2467
 6199SOL     OW24561   2.645   6.391   1.921  0.0906  0.6508  0.0054
 6199SOL    HW224562   2.710   6.347   1.976 -0.5995  1.2330  1.3321
 6199SOL    HW324563   2.642   6.481   1.955  0.1596  1.2431 -1.4728
 6199SOL    MW424564   2.653   6.397   1.933  0.0087  0.8058 -0.0146
 6200SOL     OW24565   6.146   3.482   1.935  0.1075  0.5387  0.2116
 6200SOL    HW224566   6.086   3.475   1.860  0.0485  3.0981 -0.0950
 6200SOL    HW324567   6.143   3.575   1.958  0.1990 -0.1471  3.3744
 6200SOL    MW424568   6.138   3.494   1.928  0.1118  0.7859  0.5885
 6201SOL     OW24569   2.546   0.233   5.153 -0.4967 -0.5994  0.1910
 6201SOL    HW224570   2.507   0.240   5.066 -0.7373 -0.4166  0.3112
 6201SOL    HW324571   2.509   0.153   5.190 -0.9241 -0.3116  0.3869
 6201SOL    MW424572   2.536   0.223   5.146 -0.5848 -0.5373  0.2327
 6202SOL     OW24573   4.546   0.803   3.489 -0.2304 -0.4618  0.5768
 6202SOL    HW224574   4.479   0.783   3.423  0.7151  1.1289 -0.9417
 6202SOL    HW324575   4.569   0.894   3.473  2.9523 -1.1810  0.4459
 6202SOL    MW424576   4.540   0.812   3.478  0.3143 -0.3468  0.3592
 6203SOL     OW24577   6.143   2.880   4.921  0.0477 -0.3979  0.2043
 6203SOL    HW224578   6.110   2.828   4.994 -0.8797 -0.1592 -0.0258
 6203SOL    HW324579   6.120   2.829   4.843  0.6230 -0.4349  0.0562
 6203SOL    MW424580   6.136   2.867   4.920  0.0012 -0.3713  0.1544
 6204SOL     OW24581   0.434   1.842   3.235 -0.7437  0.5486 -0.1932
 6204SOL    HW224582   0.501   1.902   3.269  0.5590  0.4012 -2.3285
 6204SOL    HW324583   0.351   1.888   3.248 -0.1086  1.3370  1.2438
 6204SOL    MW424584   0.432   1.856   3.241 -0.4880  0.6331 -0.2853
 6205SOL     OW24585   0.677   3.999   5.865  0.2518  0.0657 -0.4320
 6205SOL    HW224586   0.713   3.949   5.792  0.0535 -2.6704  1.2034
 6205SOL    HW324587   0.589   4.024   5.837 -0.1561 -1.7116 -0.8645
 6205SOL    MW424588   0.670   3.995   5.852  0.1718 -0.5298 -0.2733
 6206SOL     OW24589   1.083   5.622   4.809 -0.0229  0.5274  0.5352
 6206SOL    HW224590   1.139   5.664   4.743  0.1701  0.3028  0.5562
 6206SOL    HW324591   1.094   5.528   4.793  0.0051  0.4744  0.8734
 6206SOL    MW424592   1.092   5.615   4.798  0.0062  0.4908  0.5826
 6207SOL     OW24593   0.767   5.259   4.804 -0.1609 -0.5631  0.3715
 6207SOL    HW224594   0.725   5.313   4.736 -0.6862  1.4530  2.1936
 6207SOL    HW324595   0.861   5.272   4.791 -0.1795 -1.4164 -0.8521
 6207SOL    MW424596   0.774   5.268   4.793 -0.2327 -0.4097  0.4505
 6208SOL     OW24597   0.654   6.074   2.457  0.0693  0.6211  0.1632
 6208SOL    HW224598   0.741   6.105   2.481  0.7241 -0.9211 -0.0685
 6208SOL    HW324599   0.659   5.978   2.465 -1.0104  0.3371 -1.7091
 6208SOL    MW424600   0.666   6.065   2.461  0.0132  0.3802 -0.1144
 6209SOL     OW24601   2.021   0.637   3.255  0.2510 -0.3082 -0.2185
 6209SOL    HW224602   2.115   0.646   3.271  0.0142  2.4116  0.2709
 6209SOL    HW324603   2.014   0.605   3.165  1.6404 -0.9675 -0.1038
 6209SOL    MW424604   2.032   0.634   3.245  0.4031 -0.0364 -0.1388
 6210SOL     OW24605   0.648   6.267   0.384  0.2195 -0.0191  0.5975
 6210SOL    HW224606   0.660   6.300   0.295  1.2663  0.3724  0.8687
 6210SOL    HW324607   0.737   6.266   0.422 -0.0095 -1.5916  1.1464
 6210SOL    MW424608   0.662   6.272   0.378  0.3274 -0.1749  0.7057
 6211SOL     OW24609   4.148   1.889   3.859  0.3430 -0.4002 -0.0377
 6211SOL    HW224610   4.081   1.823   3.876 -2.6787  2.3253 -0.4173
 6211SOL    HW324611   4.127   1.923   3.772  0.5748  2.2558  0.8515
 6211SOL    MW424612   4.136   1.884   3.849 -0.0251  0.3099  0.0296
 6212SOL     OW24613   0.343   3.456   0.498 -0.0015  0.1737  0.0134
 6212SOL    HW224614   0.388   3.372   0.496  0.8813  0.6456 -1.1984
 6212SOL    HW324615   0.369   3.495   0.581  1.9610  0.4541 -0.6599
 6212SOL    MW424616   0.353   3.450   0.508  0.3739  0.2730 -0.2353
 6213SOL     OW24617   6.413   0.517   4.371 -0.5867 -0.3136 -0.3700
 6213SOL    HW224618   6.412   0.422   4.381 -3.0705 -0.2527  0.5411
 6213SOL    HW324619   6.321   0.543   4.374 -0.0626  2.0189 -1.9224
 6213SOL    MW424620   6.401   0.508   4.373 -0.8453  0.0022 -0.4546
 6214SOL     OW24621   5.974   0.380   6.151  0.3603 -0.0645  0.1328
 6214SOL    HW224622   6.022   0.299   6.167  0.3879  0.1909  1.4507
 6214SOL    HW324623   6.027   0.448   6.194 -2.2875 -0.0748  3.8491
 6214SOL    MW424624   5.988   0.379   6.158  0.0146 -0.0322  0.7970
 6215SOL     OW24625   6.221   4.854   3.502 -0.1487  1.0535 -0.4141
 6215SOL    HW224626   6.133   4.819   3.498 -0.2346  1.2871 -0.5699
 6215SOL    HW324627   6.275   4.792   3.452 -0.2584  1.0215 -0.4921
 6215SOL    MW424628   6.217   4.841   3.495 -0.1745  1.0801 -0.4450
 6216SOL     OW24629   2.072   0.667   1.364  0.0201 -0.0307  0.0889
 6216SOL    HW224630   2.037   0.739   1.311 -0.4582 -0.5260 -0.2771
 6216SOL    HW324631   2.064   0.590   1.308  1.3542 -0.2322  0.1322
 6216SOL    MW424632   2.067   0.666   1.350  0.1330 -0.1227  0.0464
 6217SOL     OW24633   3.735   2.012   3.966  0.0223 -0.2689 -0.2061
 6217SOL    HW224634   3.746   2.100   4.003 -0.5591  0.1730 -1.0332
 6217SOL    HW324635   3.646   1.987   3.989  0.0127 -0.4251 -0.4056
 6217SOL    MW424636   3.725   2.020   3.974 -0.0557 -0.2312 -0.3415
 6218SOL     OW24637   1.128   1.031   2.368  0.6226  0.5624  0.5041
 6218SOL    HW224638   1.207   1.075   2.398  0.8175 -0.0704  0.9346
 6218SOL    HW324639   1.108   0.968   2.437  0.5981 -0.3316 -0.3004
 6218SOL    MW424640   1.136   1.028   2.381  0.6451  0.3610  0.4548
 6219SOL     OW24641   2.070   2.074   1.602 -0.4930 -0.2198  0.4550
 6219SOL    HW224642   2.102   2.031   1.523 -0.7214 -0.2603  0.3843
 6219SOL    HW324643   2.144   2.071   1.662 -0.6974 -1.2578  0.6718
 6219SOL    MW424644   2.084   2.068   1.599 -0.5501 -0.3621  0.4743
 6220SOL     OW24645   4.752   2.961   3.593 -0.1762  0.0747 -0.1338
 6220SOL    HW224646   4.721   3.029   3.652 -0.7692 -0.0339 -0.3196
 6220SOL    HW324647   4.800   2.900   3.650 -1.5992 -0.5602  0.4204
 6220SOL    MW424648   4.754   2.962   3.608 -0.4422 -0.0234 -0.0852
 6221SOL     OW24649   3.424   6.219   3.290 -0.0411  0.3674 -0.0930
 6221SOL    HW224650   3.483   6.212   3.215  1.1769  0.8081  0.7885
 6221SOL    HW324651   3.371   6.140   3.286 -1.3905  1.3045 -2.5298
 6221SOL    MW424652   3.425   6.208   3.280 -0.0585  0.5492 -0.2982
 6222SOL     OW24653   0.764   0.109   4.014 -0.0670  0.0697 -0.7540
 6222SOL    HW224654   0.702   0.040   4.040  0.3937  0.2204  0.8802
 6222SOL    HW324655   0.708   0.179   3.980 -0.5377 -1.0933 -2.5303
 6222SOL    MW424656   0.748   0.109   4.013 -0.0683 -0.0639 -0.7728
 6223SOL     OW24657   0.137   2.346   5.766  0.5044 -0.3593 -0.6576
 6223SOL    HW224658   0.069   2.337   5.832 -0.1852  2.0681 -0.9169
 6223SOL    HW324659   0.096   2.317   5.685  0.6254 -1.2698 -0.3990
 6223SOL    MW424660   0.123   2.341   5.764  0.4293 -0.1592 -0.6577
 6224SOL     OW24661   0.136   1.234   5.292 -0.6299  0.2232  0.1251
 6224SOL    HW224662   0.175   1.288   5.224 -1.6429  0.1116 -0.5750
 6224SOL    HW324663   0.042   1.251   5.285 -0.9354 -1.2634  0.1979
 6224SOL    MW424664   0.128   1.243   5.282 -0.8039  0.0124  0.0423
 6225SOL     OW24665   1.750   4.342   1.338  0.3631  0.1867  0.5482
 6225SOL    HW224666   1.718   4.328   1.427  0.5288  2.4387  1.0235
 6225SOL    HW324667   1.677   4.383   1.292 -0.2383 -2.2756 -0.8531
 6225SOL    MW424668   1.736   4.345   1.343  0.3056  0.1589  0.4261
 6226SOL     OW24669   1.855   3.998   4.254 -0.1383 -0.3110 -0.5968
 6226SOL    HW224670   1.761   4.011   4.240 -0.3786  1.3749  1.9718
 6226SOL    HW324671   1.896   4.076   4.215 -0.2072  0.8113  1.4242
 6226SOL    MW424672   1.848   4.010   4.247 -0.1791  0.0595  0.0087
 6227SOL     OW24673   5.863   1.471   3.481 -0.3514  0.1111 -0.5065
 6227SOL    HW224674   5.861   1.530   3.406 -0.2315  1.0464  0.1953
 6227SOL    HW324675   5.787   1.414   3.469  0.3406 -0.5422 -1.9333
 6227SOL    MW424676   5.853   1.471   3.470 -0.2443  0.1483 -0.6022
 6228SOL     OW24677   4.532   4.366   3.029  0.2982 -0.2394  0.1918
 6228SOL    HW224678   4.525   4.461   3.025  0.7605 -0.2389 -1.0178
 6228SOL    HW324679   4.471   4.334   2.962 -0.3066 -0.8313  0.9972
 6228SOL    MW424680   4.523   4.374   3.020  0.2794 -0.3174  0.1385
 6229SOL     OW24681   0.265   3.210   4.620 -0.2843 -0.4715 -0.1510
 6229SOL    HW224682   0.298   3.125   4.648 -0.5596 -0.6020 -0.2287
 6229SOL    HW324683   0.170   3.204   4.629 -0.4611 -0.8424 -2.0064
 6229SOL    MW424684   0.257   3.198   4.625 -0.3440 -0.5377 -0.4061
 6230SOL     OW24685   3.277   2.743   1.650  0.6260  0.0647  0.8757
 6230SOL    HW224686   3.241   2.729   1.738 -0.3921 -0.4158  0.3947
 6230SOL    HW324687   3.238   2.825   1.621 -2.8594 -2.0400 -0.9543
 6230SOL    MW424688   3.267   2.752   1.658  0.0318 -0.2764  0.5708
 6231SOL     OW24689   0.905   2.984   3.728  0.2821  0.1295 -0.0091
 6231SOL    HW224690   0.915   2.979   3.633 -0.0876 -1.4765 -0.0015
 6231SOL    HW324691   0.994   2.983   3.762  0.4587  1.8010 -0.3405
 6231SOL    MW424692   0.918   2.983   3.720  0.2566  0.1382 -0.0518
 6232SOL     OW24693   3.589   5.508   2.486 -0.2544  0.5166  0.4226
 6232SOL    HW224694   3.609   5.425   2.442  3.5806  2.0988 -1.2163
 6232SOL    HW324695   3.515   5.543   2.437 -0.9336 -1.1671  0.1476
 6232SOL    MW424696   3.582   5.501   2.474  0.1620  0.5032  0.1701
 6233SOL     OW24697   4.387   4.512   3.883 -0.1695  0.3489 -0.4748
 6233SOL    HW224698   4.366   4.419   3.883 -0.3815  0.3774 -1.5712
 6233SOL    HW324699   4.320   4.552   3.939 -0.3283 -0.1077 -0.3324
 6233SOL    MW424700   4.375   4.505   3.890 -0.2185  0.2924 -0.6007
 6234SOL     OW24701   2.796   4.544   3.549 -0.1877 -0.1295 -0.2740
 6234SOL    HW224702   2.830   4.579   3.466 -0.0383  0.7696  0.1499
 6234SOL    HW324703   2.722   4.489   3.523  1.7852 -2.5265 -1.2640
 6234SOL    MW424704   2.791   4.542   3.534  0.0923 -0.3271 -0.3487
 6235SOL     OW24705   2.320   4.319   3.024  0.2195 -0.8026 -0.1302
 6235SOL    HW224706   2.283   4.289   3.107  0.1736 -0.8964 -0.1843
 6235SOL    HW324707   2.396   4.262   3.010  1.8982  0.9846  1.2295
 6235SOL    MW424708   2.325   4.307   3.033  0.4349 -0.5792  0.0420
 6236SOL     OW24709   6.076   5.541   3.221  0.6950 -0.3292 -1.0031
 6236SOL    HW224710   6.097   5.448   3.216  0.9586 -0.2126 -2.3424
 6236SOL    HW324711   6.159   5.585   3.206  1.1529  0.1843  2.2406
 6236SOL    MW424712   6.090   5.535   3.218  0.7902 -0.2460 -0.7518
 6237SOL     OW24713   5.153   3.750   1.878  0.3090 -0.2803 -0.3760
 6237SOL    HW224714   5.211   3.826   1.865 -0.2650  0.0009 -1.4601
 6237SOL    HW324715   5.194   3.680   1.828  1.4311 -1.0481  1.5178
 6237SOL    MW424716   5.166   3.751   1.869  0.3813 -0.3445 -0.2691
 6238SOL     OW24717   0.586   5.074   3.140  0.1197  0.5379 -0.1030
 6238SOL    HW224718   0.680   5.081   3.158 -0.0013  2.0481  0.0716
 6238SOL    HW324719   0.549   5.155   3.174 -1.5295 -0.7468  1.3464
 6238SOL    MW424720   0.594   5.086   3.147 -0.1138  0.5676  0.1113
 6239SOL     OW24721   0.467   5.493   6.170 -0.0569  0.4235  0.1171
 6239SOL    HW224722   0.541   5.530   6.122  1.6197 -0.3147  2.0042
 6239SOL    HW324723   0.466   5.401   6.145 -2.2029  0.9363 -2.0749
 6239SOL    MW424724   0.477   5.486   6.160 -0.1188  0.3938  0.0769
 6240SOL     OW24725   1.282   1.591   1.264  0.4510  0.3985  0.8506
 6240SOL    HW224726   1.347   1.569   1.198  1.5528  1.7372  1.4472
 6240SOL    HW324727   1.216   1.521   1.258  1.1876 -0.1847 -0.7571
 6240SOL    MW424728   1.282   1.579   1.255  0.6935  0.4982  0.7172
 6241SOL     OW24729   0.210   2.179   2.463  0.4975  0.2394 -0.0174
 6241SOL    HW224730   0.175   2.091   2.449  0.9654 -0.3512  2.1327
 6241SOL    HW324731   0.275   2.190   2.394  0.4692 -1.1337 -0.2878
 6241SOL    MW424732   0.214   2.169   2.452  0.5555 -0.0197  0.2306
 6242SOL     OW24733   2.939   5.182   3.730 -0.2292 -0.2383 -0.4958
 6242SOL    HW224734   2.920   5.089   3.742 -1.1094  0.0745  0.6704
 6242SOL    HW324735   2.986   5.186   3.646  1.9995 -1.9903  0.5628
 6242SOL    MW424736   2.943   5.170   3.720 -0.0513 -0.4282 -0.2023
 6243SOL     OW24737   4.004   4.285   0.586 -0.3253 -0.2289 -0.0701
 6243SOL    HW224738   4.077   4.224   0.601  0.6937  0.6122 -1.3604
 6243SOL    HW324739   4.040   4.351   0.527 -1.6554  1.1595  0.6054
 6243SOL    MW424740   4.019   4.286   0.581 -0.3663  0.0652 -0.1512
 6244SOL     OW24741   1.610   2.757   2.718  0.4004  0.2025 -0.3644
 6244SOL    HW224742   1.549   2.803   2.775  0.6145  0.1391 -0.0811
 6244SOL    HW324743   1.641   2.683   2.771 -2.8010 -2.6085 -1.9865
 6244SOL    MW424744   1.606   2.753   2.732  0.0063 -0.1767 -0.5410
 6245SOL     OW24745   1.821   6.346   5.657  0.0573  0.0692 -0.1886
 6245SOL    HW224746   1.841   6.253   5.641  0.6704  0.2745 -0.6553
 6245SOL    HW324747   1.861   6.392   5.583 -3.3325  0.4157 -1.9821
 6245SOL    MW424748   1.829   6.340   5.645 -0.3090  0.1420 -0.4868
 6246SOL     OW24749   2.712   2.651   3.688 -0.0420  0.4270 -0.7321
 6246SOL    HW224750   2.715   2.556   3.678 -0.4873  0.4900 -1.5822
 6246SOL    HW324751   2.742   2.667   3.778 -1.4867 -0.6227 -0.0186
 6246SOL    MW424752   2.716   2.641   3.699 -0.2914  0.2968 -0.7502
 6247SOL     OW24753   0.597   4.342   1.368  0.6862 -0.1876 -0.1233
 6247SOL    HW224754   0.511   4.365   1.332  1.0292  0.0203 -0.8041
 6247SOL    HW324755   0.658   4.403   1.328  1.3443 -1.1363 -0.6050
 6247SOL    MW424756   0.594   4.353   1.358  0.8183 -0.2854 -0.2766
 6248SOL     OW24757   6.204   5.895   6.453 -0.1967  0.1314  0.3412
 6248SOL    HW224758   6.221   5.878   6.546 -0.9938 -0.3518  0.4086
 6248SOL    HW324759   6.189   5.808   6.415  1.1987  0.2192 -0.4788
 6248SOL    MW424760   6.204   5.881   6.461 -0.1178  0.0792  0.2419
 6249SOL     OW24761   4.327   1.710   3.348  0.1016  0.3582 -0.3033
 6249SOL    HW224762   4.251   1.658   3.323  0.2901  0.2268 -0.6031
 6249SOL    HW324763   4.308   1.739   3.437 -0.7523  1.1552 -0.7252
 6249SOL    MW424764   4.315   1.707   3.356  0.0138  0.4460 -0.3985
 6250SOL     OW24765   5.984   3.394   6.299  0.1700 -0.1066  0.1992
 6250SOL    HW224766   5.977   3.356   6.211  0.1417 -1.2059  0.6619
 6250SOL    HW324767   6.052   3.341   6.342 -2.1943 -1.8911  1.9804
 6250SOL    MW424768   5.992   3.382   6.293 -0.1457 -0.4871  0.4953
 6251SOL     OW24769   0.379   6.050   0.482 -0.4392  0.2013 -0.0400
 6251SOL    HW224770   0.456   6.055   0.539 -0.9413 -0.2156  0.6949
 6251SOL    HW324771   0.414   6.055   0.393  0.2615  2.3862  0.2837
 6251SOL    MW424772   0.394   6.051   0.478 -0.4130  0.4345  0.0996
 6252SOL     OW24773   2.997   1.626   1.511  0.3180 -0.1921 -0.4012
 6252SOL    HW224774   2.956   1.672   1.585  2.6564 -0.3947  1.1056
 6252SOL    HW324775   2.961   1.669   1.434 -0.9170  1.1814  0.8637
 6252SOL    MW424776   2.987   1.638   1.511  0.4636 -0.0376 -0.0355
 6253SOL     OW24777   4.617   4.888   0.390 -0.0992  0.1889  0.0118
 6253SOL    HW224778   4.564   4.954   0.345 -1.5433  1.0900  2.8085
 6253SOL    HW324779   4.688   4.937   0.430  0.5499 -0.4283 -0.3570
 6253SOL    MW424780   4.619   4.903   0.389 -0.2041  0.2264  0.3321
 6254SOL     OW24781   3.737   0.779   1.993  0.6344 -0.6119 -0.1832
 6254SOL    HW224782   3.710   0.818   2.076  1.6151 -0.9541  0.3083
 6254SOL    HW324783   3.659   0.733   1.961 -0.7155  1.9950 -0.9784
 6254SOL    MW424784   3.723   0.778   2.000  0.5857 -0.3131 -0.2233
 6255SOL     OW24785   0.656   0.177   2.212 -0.5844 -0.7010 -0.5715
 6255SOL    HW224786   0.615   0.238   2.273  1.9356  0.2752  0.3003
 6255SOL    HW324787   0.644   0.217   2.126 -0.3972  0.1821 -0.1989
 6255SOL    MW424788   0.649   0.190   2.209 -0.2272 -0.4557 -0.4073
 6256SOL     OW24789   5.906   4.815   5.657  0.3984  0.1839 -0.1322
 6256SOL    HW224790   5.949   4.808   5.572  0.4003 -0.4658 -0.0793
 6256SOL    HW324791   5.972   4.854   5.714  2.1033 -3.5348  0.7435
 6256SOL    MW424792   5.920   4.820   5.653  0.6236 -0.3925 -0.0096
 6257SOL     OW24793   5.553   2.502   6.107 -0.1994  0.6917 -0.0062
 6257SOL    HW224794   5.639   2.532   6.076 -0.0773  0.9119  0.5253
 6257SOL    HW324795   5.567   2.409   6.127  0.1569  0.9295  0.8937
 6257SOL    MW424796   5.567   2.494   6.106 -0.1363  0.7521  0.1826
 6258SOL     OW24797   2.512   3.094   0.803  0.0697 -0.7877  0.0352
 6258SOL    HW224798   2.580   3.030   0.827  0.4507 -0.9715 -1.4705
 6258SOL    HW324799   2.467   3.054   0.729 -0.8543 -0.0762  0.2016
 6258SOL    MW424800   2.515   3.080   0.797 -0.0020 -0.7181 -0.1415
 6259SOL     OW24801   0.289   5.732   0.436 -0.7600 -0.3932  0.5195
 6259SOL    HW224802   0.218   5.672   0.414 -0.3988 -0.3758 -0.7705
 6259SOL    HW324803   0.328   5.756   0.352  0.1087  0.4196  1.1246
 6259SOL    MW424804   0.285   5.727   0.422 -0.5977 -0.2836  0.4292
 6260SOL     OW24805   3.764   5.126   2.006  0.1294  0.0228  0.3710
 6260SOL    HW224806   3.811   5.058   2.054  0.9649 -0.1068 -0.5996
 6260SOL    HW324807   3.672   5.105   2.020  0.3678 -1.1386  0.3526
 6260SOL    MW424808   3.758   5.114   2.014  0.2711 -0.1475  0.2405
 6261SOL     OW24809   0.282   1.400   3.178  0.0784 -0.1744  0.1537
 6261SOL    HW224810   0.357   1.458   3.168  1.3781 -1.8794 -0.5170
 6261SOL    HW324811   0.286   1.372   3.270 -0.1218  0.2156  0.2843
 6261SOL    MW424812   0.292   1.404   3.189  0.2235 -0.3479  0.0824
 6262SOL     OW24813   1.363   0.803   3.319 -0.1119  0.7726  0.2823
 6262SOL    HW224814   1.381   0.856   3.396  1.2943  1.6512 -0.6233
 6262SOL    HW324815   1.422   0.836   3.251  0.8108 -1.8782 -0.3595
 6262SOL    MW424816   1.373   0.814   3.320  0.1954  0.5388  0.0781
 6263SOL     OW24817   0.212   4.799   1.232 -0.4809  0.2167 -0.0257
 6263SOL    HW224818   0.226   4.889   1.203 -0.7025  0.7316  1.3779
 6263SOL    HW324819   0.289   4.778   1.285  0.2025 -0.9102 -1.4216
 6263SOL    MW424820   0.224   4.808   1.235 -0.4200  0.1360 -0.0247
 6264SOL     OW24821   2.444   6.207   1.995 -0.2625  0.5136  0.3538
 6264SOL    HW224822   2.457   6.215   2.089  1.5246 -0.5767  0.2452
 6264SOL    HW324823   2.503   6.273   1.957  0.9187 -0.7021 -0.0233
 6264SOL    MW424824   2.453   6.217   2.002  0.1291  0.2093  0.2897
 6265SOL     OW24825   3.605   3.582   5.630  0.2035  0.1719  0.7692
 6265SOL    HW224826   3.533   3.548   5.684  1.4395 -0.2766  2.2003
 6265SOL    HW324827   3.675   3.601   5.692  1.1570  1.0869 -0.5307
 6265SOL    MW424828   3.605   3.580   5.645  0.4924  0.2335  0.7865
 6266SOL     OW24829   2.846   5.668   3.856 -0.0983 -0.1213 -0.3261
 6266SOL    HW224830   2.766   5.720   3.848 -0.3532 -0.6082 -0.9996
 6266SOL    HW324831   2.816   5.578   3.859  0.3138 -0.2370  1.3128
 6266SOL    MW424832   2.831   5.663   3.856 -0.0776 -0.2008 -0.1987
 6267SOL     OW24833   1.911   5.784   0.340 -0.5642  0.7938 -0.2048
 6267SOL    HW224834   1.945   5.699   0.367 -2.3180 -0.2031 -0.9433
 6267SOL    HW324835   1.961   5.847   0.391 -0.6359 -0.7747  1.9535
 6267SOL    MW424836   1.922   5.781   0.351 -0.8050  0.4553 -0.0175
 6268SOL     OW24837   1.323   5.066   0.972  0.7566 -0.4902 -0.0846
 6268SOL    HW224838   1.316   4.988   1.027  1.5055  0.2637  1.1374
 6268SOL    HW324839   1.237   5.108   0.978  0.9077 -0.2806  0.7399
 6268SOL    MW424840   1.311   5.061   0.980  0.8753 -0.3631  0.1854
 6269SOL     OW24841   1.367   1.691   2.623  0.4017 -0.4389  0.4954
 6269SOL    HW224842   1.312   1.710   2.547  0.4432  0.6004  0.7234
 6269SOL    HW324843   1.417   1.614   2.596  2.1334  1.2421 -1.4684
 6269SOL    MW424844   1.366   1.683   2.609  0.6357 -0.0800  0.2664
 6270SOL     OW24845   2.914   3.134   0.353 -0.1734 -0.7903  0.3273
 6270SOL    HW224846   2.855   3.152   0.280 -0.1876  0.0637  0.5338
 6270SOL    HW324847   3.001   3.133   0.313 -0.1644 -0.1457  0.3095
 6270SOL    MW424848   2.918   3.136   0.338 -0.1741 -0.5926  0.3522
 6271SOL     OW24849   5.512   6.332   1.734 -0.2525 -0.4969  0.4804
 6271SOL    HW224850   5.503   6.383   1.815  0.9489 -2.5650  2.0183
 6271SOL    HW324851   5.454   6.257   1.747  0.1399 -0.9771 -0.4766
 6271SOL    MW424852   5.503   6.329   1.747 -0.0423 -0.8331  0.5570
 6272SOL     OW24853   1.224   3.451   1.290 -0.5800  0.6187 -0.1756
 6272SOL    HW224854   1.254   3.464   1.200  3.4921 -2.2160  0.4846
 6272SOL    HW324855   1.295   3.485   1.344 -1.4804 -0.5856  1.8803
 6272SOL    MW424856   1.237   3.457   1.285 -0.1616  0.0858  0.1827
 6273SOL     OW24857   3.042   5.395   5.895 -0.2920 -0.0248  0.1892
 6273SOL    HW224858   3.017   5.309   5.861 -0.5560  0.5146 -1.0443
 6273SOL    HW324859   3.013   5.456   5.828  0.1253  1.0108  0.9317
 6273SOL    MW424860   3.035   5.392   5.882 -0.2718  0.1830  0.1244
 6274SOL     OW24861   1.664   5.841   4.570 -0.4561  0.3855  0.2592
 6274SOL    HW224862   1.605   5.785   4.621  2.0381 -1.3149  1.5233
 6274SOL    HW324863   1.706   5.896   4.636 -0.3196  1.2580 -0.5490
 6274SOL    MW424864   1.662   5.841   4.586 -0.1090  0.2763  0.3194
 6275SOL     OW24865   4.680   0.953   5.892 -0.2997 -0.6919 -0.1195
 6275SOL    HW224866   4.689   0.908   5.976  0.0204 -0.1247  0.1597
 6275SOL    HW324867   4.585   0.967   5.883 -0.2487  0.5357  0.8634
 6275SOL    MW424868   4.668   0.949   5.902 -0.2508 -0.4551  0.0470
 6276SOL     OW24869   0.468   3.171   3.287  0.4202 -0.7706 -0.2736
 6276SOL    HW224870   0.432   3.141   3.370 -0.7285  0.7077 -0.1910
 6276SOL    HW324871   0.425   3.118   3.221 -1.9117  0.8423 -0.1608
 6276SOL    MW424872   0.458   3.160   3.289 -0.0390 -0.3628 -0.2478
 6277SOL     OW24873   4.352   6.065   0.697 -0.1678 -0.6269 -0.4178
 6277SOL    HW224874   4.273   6.047   0.646 -0.0949 -0.3718 -0.6218
 6277SOL    HW324875   4.388   6.145   0.659 -0.2047 -0.3370  0.1424
 6277SOL    MW424876   4.347   6.073   0.686 -0.1631 -0.5550 -0.3708
 6278SOL     OW24877   2.262   6.134   3.934  0.1106  0.4039  0.5757
 6278SOL    HW224878   2.315   6.188   3.876  1.1401 -0.9402  0.2286
 6278SOL    HW324879   2.183   6.186   3.949 -0.9889  0.1301 -3.3799
 6278SOL    MW424880   2.259   6.148   3.928  0.1013  0.1904  0.0080
 6279SOL     OW24881   0.656   4.674   0.530  0.0147  0.2812 -0.2055
 6279SOL    HW224882   0.583   4.678   0.592  0.0601  1.4451 -0.2093
 6279SOL    HW324883   0.687   4.764   0.524 -0.5229  0.3779 -2.5703
 6279SOL    MW424884   0.650   4.686   0.537 -0.0502  0.4475 -0.5180
 6280SOL     OW24885   5.041   6.289   5.955 -0.0740 -0.3778  0.8644
 6280SOL    HW224886   5.094   6.369   5.957  0.5301 -0.6964 -0.8099
 6280SOL    HW324887   5.030   6.269   5.862 -0.5089 -2.0531  1.2332
 6280SOL    MW424888   5.047   6.297   5.943 -0.0516 -0.6409  0.6921
 6281SOL     OW24889   3.057   2.674   0.394 -0.4674 -0.4035 -0.0248
 6281SOL    HW224890   3.119   2.744   0.414 -0.0540 -0.5807 -0.6552
 6281SOL    HW324891   3.100   2.594   0.424 -0.0504 -0.6159 -1.1530
 6281SOL    MW424892   3.071   2.672   0.401 -0.3578 -0.4549 -0.2568
 6282SOL     OW24893   1.595   4.609   1.815  0.0189  0.9430 -0.0479
 6282SOL    HW224894   1.538   4.622   1.891  0.2912  1.7248  0.0266
 6282SOL    HW324895   1.678   4.648   1.841  0.9773 -1.1473  0.2768
 6282SOL    MW424896   1.598   4.616   1.829  0.1812  0.7704  0.0048
 6283SOL     OW24897   0.853   1.614   2.629  0.1529  0.0123  0.1606
 6283SOL    HW224898   0.766   1.653   2.640 -0.9598 -2.2298 -0.1612
 6283SOL    HW324899   0.868   1.616   2.535  0.9585  1.3607  0.2975
 6283SOL    MW424900   0.843   1.620   2.618  0.1124 -0.1056  0.1362
 6284SOL     OW24901   1.221   3.425   6.304 -0.3159  0.0877 -0.0971
 6284SOL    HW224902   1.267   3.476   6.236  1.2066  0.5791  1.2366
 6284SOL    HW324903   1.240   3.472   6.385  0.3718 -2.0958  1.0687
 6284SOL    MW424904   1.230   3.438   6.305 -0.0243 -0.1355  0.2327
 6285SOL     OW24905   2.909   5.056   6.346  0.1857 -0.5434 -0.2747
 6285SOL    HW224906   2.934   5.028   6.258  1.3187 -0.8901  0.1278
 6285SOL    HW324907   2.932   4.981   6.401 -1.7197 -0.8419  0.1619
 6285SOL    MW424908   2.915   5.042   6.342  0.0838 -0.6285 -0.1640
 6286SOL     OW24909   5.803   3.171   4.496  0.3367  0.1639 -0.0800
 6286SOL    HW224910   5.897   3.175   4.479 -0.0724 -1.3361 -3.7712
 6286SOL    HW324911   5.770   3.257   4.471  0.6387  0.4723  0.5718
 6286SOL    MW424912   5.811   3.183   4.490  0.3226  0.0067 -0.4810
 6287SOL     OW24913   4.249   2.842   2.695  0.4508 -0.0534 -0.8380
 6287SOL    HW224914   4.322   2.901   2.716  0.6565 -0.0845 -1.4615
 6287SOL    HW324915   4.226   2.863   2.605 -0.3300 -0.0321 -0.6423
 6287SOL    MW424916   4.255   2.853   2.686  0.3749 -0.0547 -0.8944
 6288SOL     OW24917   2.118   5.769   0.876 -0.3607 -0.2272  0.7767
 6288SOL    HW224918   2.082   5.695   0.924 -0.7668 -0.6909 -0.2182
 6288SOL    HW324919   2.145   5.733   0.792  2.1537  0.1597  1.3262
 6288SOL    MW424920   2.117   5.755   0.871 -0.0826 -0.2373  0.7179
 6289SOL     OW24921   3.996   3.015   2.883  0.2022 -0.2523  0.3908
 6289SOL    HW224922   3.959   2.928   2.867  0.6408 -0.0689 -1.8237
 6289SOL    HW324923   3.924   3.076   2.866 -0.0411 -0.1210  1.7218
 6289SOL    MW424924   3.982   3.012   2.879  0.2280 -0.2108  0.2742
 6290SOL     OW24925   5.460   0.934   3.229  0.5376 -0.2683  0.5019
 6290SOL    HW224926   5.530   0.877   3.262 -0.2292 -1.5918 -0.0886
 6290SOL    HW324927   5.411   0.879   3.168 -0.7038  0.7992  0.5049
 6290SOL    MW424928   5.463   0.919   3.225  0.2727 -0.3021  0.4244
 6291SOL     OW24929   1.771   2.052   0.465 -0.2224  0.1587  0.7807
 6291SOL    HW224930   1.865   2.068   0.476  0.1120 -2.2581  2.0815
 6291SOL    HW324931   1.760   2.038   0.371  0.4020  1.9085  0.3938
 6291SOL    MW424932   1.782   2.052   0.454 -0.0959  0.0707  0.9013
 6292SOL     OW24933   2.584   1.422   6.234 -1.1458  0.2552 -0.4070
 6292SOL    HW224934   2.532   1.495   6.201  0.5745  1.5360 -0.3928
 6292SOL    HW324935   2.635   1.392   6.159 -2.6022 -1.6909 -0.6932
 6292SOL    MW424936   2.584   1.428   6.220 -1.1110  0.1674 -0.4429
 6293SOL     OW24937   3.497   5.712   4.064  0.2536  0.4809 -0.1502
 6293SOL    HW224938   3.575   5.683   4.112 -0.2877  0.3641  0.6834
 6293SOL    HW324939   3.468   5.633   4.017 -0.9187 -0.2786  1.7089
 6293SOL    MW424940   3.504   5.697   4.064  0.0275  0.3653  0.2051
 6294SOL     OW24941   2.596   2.127   4.812 -0.1307 -0.0683 -1.0274
 6294SOL    HW224942   2.525   2.126   4.748 -0.0348  0.3371 -1.1437
 6294SOL    HW324943   2.553   2.150   4.894 -0.4207 -1.5804 -0.7268
 6294SOL    MW424944   2.581   2.130   4.814 -0.1563 -0.2143 -1.0031
 6295SOL     OW24945   5.057   5.347   1.601  0.2043 -0.0729  0.3517
 6295SOL    HW224946   4.974   5.301   1.606  0.8397 -1.1526  1.3652
 6295SOL    HW324947   5.034   5.435   1.570 -1.2832 -0.3927  0.4913
 6295SOL    MW424948   5.043   5.353   1.598  0.0919 -0.2576  0.5038
 6296SOL     OW24949   2.178   2.901   0.877  0.4519  0.1392 -0.1577
 6296SOL    HW224950   2.173   2.986   0.919  1.6763  0.4655 -0.6391
 6296SOL    HW324951   2.094   2.860   0.896  0.6501  0.5775  1.9210
 6296SOL    MW424952   2.166   2.906   0.885  0.6396  0.2401  0.0530
 6297SOL     OW24953   3.985   3.916   1.278 -0.3404  0.2689 -0.0793
 6297SOL    HW224954   3.924   3.982   1.245 -0.6793  0.0882  0.1924
 6297SOL    HW324955   3.932   3.839   1.296  0.1197 -0.2258 -0.7874
 6297SOL    MW424956   3.970   3.915   1.276 -0.3244  0.1798 -0.1369
 6298SOL     OW24957   4.665   0.226   5.897 -0.0282 -0.1230 -0.0053
 6298SOL    HW224958   4.721   0.301   5.917 -0.0912 -0.4875  1.7468
 6298SOL    HW324959   4.722   0.150   5.909 -0.5372 -0.4368  0.4936
 6298SOL    MW424960   4.680   0.226   5.901 -0.1037 -0.2125  0.2917
 6299SOL     OW24961   5.245   0.769   3.132  0.1418  0.1764 -0.3616
 6299SOL    HW224962   5.207   0.822   3.062 -2.0878 -2.0320 -0.9301
 6299SOL    HW324963   5.171   0.721   3.169  1.8949 -1.7551  0.8350
 6299SOL    MW424964   5.230   0.770   3.128  0.0789 -0.3698 -0.2788
 6300SOL     OW24965   3.353   4.185   1.241 -0.1029  0.1372 -0.2364
 6300SOL    HW224966   3.424   4.152   1.296  0.0203 -1.6443 -1.3921
 6300SOL    HW324967   3.301   4.107   1.220 -0.2819  0.7943 -2.4364
 6300SOL    MW424968   3.356   4.170   1.246 -0.1102 -0.0112 -0.6792
 6301SOL     OW24969   0.160   6.110   3.327 -0.4872 -0.0424  0.2715
 6301SOL    HW224970   0.210   6.031   3.350  0.8951  0.8987  0.6447
 6301SOL    HW324971   0.185   6.129   3.237 -0.5641  0.1525  0.2905
 6301SOL    MW424972   0.170   6.102   3.319 -0.3149  0.1075  0.3232
 6302SOL     OW24973   1.980   4.080   3.284  0.2692  0.0925  0.1169
 6302SOL    HW224974   1.938   4.007   3.330 -1.6272  1.0525 -0.0237
 6302SOL    HW324975   1.962   4.064   3.192  0.3419  0.4414  0.0420
 6302SOL    MW424976   1.972   4.068   3.278  0.0286  0.2652  0.0884
 6303SOL     OW24977   1.380   2.131   3.797 -0.4201 -0.1091 -0.6165
 6303SOL    HW224978   1.340   2.069   3.858 -1.0292  0.7776 -0.0873
 6303SOL    HW324979   1.429   2.077   3.735  0.0239 -1.0507  0.5257
 6303SOL    MW424980   1.382   2.116   3.797 -0.4419 -0.1164 -0.3960
 6304SOL     OW24981   0.319   3.228   4.899 -0.3160  0.1188 -0.4485
 6304SOL    HW224982   0.285   3.192   4.817  1.2755 -2.5392 -0.0437
 6304SOL    HW324983   0.406   3.262   4.876 -0.4189  0.6130 -0.1229
 6304SOL    MW424984   0.326   3.228   4.885 -0.1196 -0.1667 -0.3522
 6305SOL     OW24985   6.224   0.920   2.820 -0.0088  0.5145 -0.3497
 6305SOL    HW224986   6.142   0.878   2.796 -0.1658  0.9975 -0.6836
 6305SOL    HW324987   6.231   0.908   2.914 -0.9241  1.2676 -0.1749
 6305SOL    MW424988   6.214   0.913   2.829 -0.1503  0.6776 -0.3707
 6306SOL     OW24989   1.911   5.536   5.816  0.4114  0.0186 -0.0856
 6306SOL    HW224990   1.929   5.521   5.909  1.1622 -0.7222 -0.3349
 6306SOL    HW324991   1.859   5.461   5.789  0.2170  0.2195 -0.2637
 6306SOL    MW424992   1.907   5.524   5.825  0.4848 -0.0526 -0.1420
 6307SOL     OW24993   2.195   4.722   1.111  0.1341 -0.3782 -0.0146
 6307SOL    HW224994   2.221   4.655   1.175  0.8876  1.2827  1.5091
 6307SOL    HW324995   2.277   4.765   1.086 -0.4351  0.6530 -0.1650
 6307SOL    MW424996   2.209   4.719   1.116  0.1584 -0.0230  0.1666
 6308SOL     OW24997   3.569   5.853   4.989 -0.0046  0.1147  0.1122
 6308SOL    HW224998   3.526   5.933   5.019 -0.1412 -0.3555  1.2009
 6308SOL    HW324999   3.610   5.878   4.906  1.8000  1.9259  1.4475
 6308SOL    MW425000   3.569   5.867   4.982  0.2154  0.2917  0.4320
 6309SOL     OW25001   1.386   0.344   3.412 -0.0094  0.0939 -0.6022
 6309SOL    HW225002   1.324   0.416   3.425  0.5276  0.9185 -2.2802
 6309SOL    HW325003   1.464   0.371   3.461  0.3111  0.8651 -1.4955
 6309SOL    MW425004   1.388   0.357   3.420  0.1038  0.3045 -0.9414
 6310SOL     OW25005   0.599   0.431   0.077  0.0542  0.0953 -0.9334
 6310SOL    HW225006   0.549   0.440  -0.004 -0.5286  0.2612 -0.5602
 6310SOL    HW325007   0.685   0.400   0.049 -0.4488 -0.7828 -1.5317
 6310SOL    MW425008   0.603   0.428   0.062 -0.0890  0.0013 -0.9631
 6311SOL     OW25009   2.780   4.270   4.616 -0.2199  0.4543  0.5620
 6311SOL    HW225010   2.740   4.247   4.532  0.0888  1.1825  0.2093
 6311SOL    HW325011   2.776   4.189   4.667  0.6685 -0.3581 -0.5798
 6311SOL    MW425012   2.775   4.256   4.611 -0.0619  0.4432  0.3648
 6312SOL     OW25013   3.071   1.689   2.781 -0.4504 -0.1452 -0.2046
 6312SOL    HW225014   3.110   1.775   2.763 -1.4103  0.5674  0.9521
 6312SOL    HW325015   3.144   1.636   2.813 -0.4874  1.4417  2.8469
 6312SOL    MW425016   3.086   1.694   2.783 -0.5819  0.1582  0.3506
 6313SOL     OW25017   4.429   3.305   5.434 -0.1315 -0.0546 -0.4363
 6313SOL    HW225018   4.505   3.253   5.461 -0.5892  0.2607  1.6919
 6313SOL    HW325019   4.366   3.240   5.401  0.3710 -0.5255 -0.4822
 6313SOL    MW425020   4.431   3.289   5.433 -0.1256 -0.0751 -0.1616
 6314SOL     OW25021   3.080   2.624   5.277 -0.3457 -0.7691  0.5803
 6314SOL    HW225022   3.012   2.597   5.215  1.4300 -0.4022 -1.6648
 6314SOL    HW325023   3.089   2.719   5.262  0.7395 -0.8427  0.7065
 6314SOL    MW425024   3.072   2.633   5.266  0.0318 -0.7304  0.3007
 6315SOL     OW25025   1.786   4.999   1.014 -0.1292  0.0006  0.4034
 6315SOL    HW225026   1.732   5.063   1.059 -0.5030 -0.6916  0.9555
 6315SOL    HW325027   1.770   4.917   1.061  0.6665 -0.4062 -0.0259
 6315SOL    MW425028   1.777   4.996   1.026 -0.0736 -0.1444  0.4196
 6316SOL     OW25029   1.610   3.437   4.447  0.7167  0.5804 -0.1597
 6316SOL    HW225030   1.520   3.430   4.415  0.3112 -0.1609  1.0670
 6316SOL    HW325031   1.618   3.528   4.476  0.3214  0.6186 -0.1638
 6316SOL    MW425032   1.599   3.448   4.446  0.6110  0.4876  0.0016
 6317SOL     OW25033   2.821   2.354   1.478 -0.5190 -0.0851 -0.3627
 6317SOL    HW225034   2.874   2.275   1.474 -0.8712 -0.3274 -0.3360
 6317SOL    HW325035   2.827   2.382   1.569 -0.1072  0.1174 -0.4538
 6317SOL    MW425036   2.829   2.347   1.490 -0.5112 -0.0903 -0.3712
 6318SOL     OW25037   2.047   6.175   2.719  0.2539  0.4817  0.2122
 6318SOL    HW225038   1.962   6.177   2.763  0.3985  0.8102  0.4914
 6318SOL    HW325039   2.036   6.228   2.641 -0.7901 -2.3243 -1.6807
 6318SOL    MW425040   2.035   6.182   2.715  0.1352  0.1548 -0.0007
 6319SOL     OW25041   5.366   1.401   4.043  0.3223 -0.1939 -0.1046
 6319SOL    HW225042   5.287   1.351   4.022 -0.9518  1.4318  0.5724
 6319SOL    HW325043   5.358   1.421   4.136  1.1026  0.7058 -0.2190
 6319SOL    MW425044   5.355   1.397   4.052  0.2572  0.1393 -0.0304
 6320SOL     OW25045   0.157   2.389   0.975 -0.8708 -0.3487  0.1406
 6320SOL    HW225046   0.242   2.398   1.017 -0.4784 -2.2016 -0.1801
 6320SOL    HW325047   0.097   2.437   1.033  0.5147  1.9778 -0.2410
 6320SOL    MW425048   0.160   2.396   0.988 -0.6362 -0.2862  0.0479
 6321SOL     OW25049   5.632   4.391   3.844  0.1974  0.0092  0.6038
 6321SOL    HW225050   5.675   4.465   3.800 -2.0392  0.7761 -0.4832
 6321SOL    HW325051   5.686   4.315   3.821  2.1026  1.1487  1.0591
 6321SOL    MW425052   5.645   4.391   3.835  0.1537  0.2607  0.5204
 6322SOL     OW25053   5.718   2.164   5.103  0.4065 -0.1789 -0.9747
 6322SOL    HW225054   5.682   2.251   5.121 -1.0569 -0.4382 -2.4193
 6322SOL    HW325055   5.641   2.107   5.098  1.4184 -2.0702  2.1714
 6322SOL    MW425056   5.703   2.168   5.105  0.3469 -0.4627 -0.7502
 6323SOL     OW25057   5.534   2.841   2.198 -0.4637 -0.1970  0.3650
 6323SOL    HW225058   5.568   2.765   2.245 -0.3444 -1.7981 -2.1587
 6323SOL    HW325059   5.527   2.909   2.265  0.8676 -1.9525  2.4128
 6323SOL    MW425060   5.538   2.840   2.213 -0.2723 -0.6398  0.3022
 6324SOL     OW25061   0.983   1.387   2.130  0.1901  0.1349 -0.1598
 6324SOL    HW225062   1.001   1.345   2.046  4.3451 -0.2113  0.7047
 6324SOL    HW325063   0.988   1.315   2.194 -2.0756  0.5322  0.5620
 6324SOL    MW425064   0.986   1.372   2.127  0.4394  0.1416  0.0495
 6325SOL     OW25065   4.209   0.824   5.088  0.5616  0.5022  0.3923
 6325SOL    HW225066   4.188   0.907   5.045 -0.5510 -0.1213 -0.2976
 6325SOL    HW325067   4.304   0.815   5.078  0.1620 -1.0128 -4.6477
 6325SOL    MW425068   4.219   0.834   5.081  0.3621  0.2200 -0.3637
 6326SOL     OW25069   0.055   6.389   6.083 -0.0504 -0.1691  0.4589
 6326SOL    HW225070   0.057   6.353   6.171 -1.6271 -1.0492  0.1894
 6326SOL    HW325071  -0.031   6.362   6.048  0.4687  0.2685 -1.2812
 6326SOL    MW425072   0.044   6.381   6.090 -0.1899 -0.2275  0.1938
 6327SOL     OW25073   2.980   2.010   6.462  0.0343 -0.1148  0.2243
 6327SOL    HW225074   2.981   1.971   6.375 -0.6614 -0.3629  0.3210
 6327SOL    HW325075   2.952   1.938   6.520 -0.4069  0.2985  0.5253
 6327SOL    MW425076   2.977   1.995   6.458 -0.1157 -0.0930  0.2768
 6328SOL     OW25077   1.390   4.183   0.309  0.4446  0.3353 -0.7017
 6328SOL    HW225078   1.331   4.110   0.294  1.2944 -0.1189 -1.9924
 6328SOL    HW325079   1.477   4.144   0.308  0.8922  1.3064 -1.0624
 6328SOL    MW425080   1.394   4.168   0.307  0.6157  0.4035 -0.9196
 6329SOL     OW25081   3.426   4.299   6.177 -0.0287 -0.3292 -0.0530
 6329SOL    HW225082   3.426   4.270   6.086 -1.9787  0.9726 -0.5484
 6329SOL    HW325083   3.424   4.394   6.172 -1.6609 -0.2415  1.2750
 6329SOL    MW425084   3.425   4.308   6.164 -0.5013 -0.1459  0.0569
 6330SOL     OW25085   3.266   0.604   4.510  0.2455 -0.5300  0.0489
 6330SOL    HW225086   3.260   0.510   4.525  0.3597 -0.6468 -0.6137
 6330SOL    HW325087   3.202   0.642   4.571 -0.1596 -1.0705 -0.0326
 6330SOL    MW425088   3.257   0.596   4.520  0.2071 -0.6167 -0.0493
 6331SOL     OW25089   2.601   4.485   4.951 -0.1771  0.1457 -0.1843
 6331SOL    HW225090   2.575   4.412   5.006 -0.3355 -0.7189 -1.3626
 6331SOL    HW325091   2.696   4.482   4.950 -0.1829 -0.0659 -0.2361
 6331SOL    MW425092   2.610   4.475   4.958 -0.1988  0.0037 -0.3466
 6332SOL     OW25093   1.177   1.764   3.035  0.0469 -0.2921  0.1827
 6332SOL    HW225094   1.230   1.843   3.029 -0.7433  0.2032 -0.4844
 6332SOL    HW325095   1.168   1.733   2.945  2.0787 -2.3492  0.6008
 6332SOL    MW425096   1.183   1.770   3.022  0.2107 -0.4982  0.1499
 6333SOL     OW25097   5.099   3.700   0.797  0.3077 -0.2771 -0.4931
 6333SOL    HW225098   5.114   3.675   0.706  0.2794  0.1198 -0.6077
 6333SOL    HW325099   5.183   3.736   0.826  0.9613 -2.2670  0.2728
 6333SOL    MW425100   5.112   3.701   0.789  0.3902 -0.4873 -0.4071
 6334SOL     OW25101   5.393   5.663   5.057  0.1732 -0.0747  0.1355
 6334SOL    HW225102   5.473   5.679   5.108 -0.5860  0.6287  1.1500
 6334SOL    HW325103   5.403   5.717   4.979  0.3556  0.6152  0.6252
 6334SOL    MW425104   5.405   5.672   5.054  0.0971  0.1091  0.3339
 6335SOL     OW25105   4.405   5.940   3.964  0.7875 -0.0846 -0.5867
 6335SOL    HW225106   4.384   5.995   4.039 -1.4077  1.1536 -2.0142
 6335SOL    HW325107   4.460   5.995   3.908 -0.9001  0.5021 -1.7260
 6335SOL    MW425108   4.410   5.954   3.967  0.2752  0.1561 -0.9253
 6336SOL     OW25109   4.422   4.223   4.777  0.1533 -0.1461 -0.7490
 6336SOL    HW225110   4.402   4.208   4.684 -1.4639  0.6530 -0.5741
 6336SOL    HW325111   4.403   4.140   4.820 -2.8027  0.4649 -0.6451
 6336SOL    MW425112   4.417   4.210   4.770 -0.4500  0.0399 -0.7122
 6337SOL     OW25113   4.911   0.153   1.545 -0.2701 -0.3274 -0.5249
 6337SOL    HW225114   4.856   0.150   1.467  1.2615  1.8796 -1.8214
 6337SOL    HW325115   5.001   0.158   1.510  0.3832  2.7697  1.2008
 6337SOL    MW425116   4.916   0.154   1.530  0.0181  0.3724 -0.4683
 6338SOL     OW25117   5.818   0.786   6.038 -0.4221 -0.1412 -0.5703
 6338SOL    HW225118   5.864   0.870   6.033  0.4269 -0.6304 -1.4115
 6338SOL    HW325119   5.819   0.763   6.130  0.9787 -0.1012 -0.5577
 6338SOL    MW425120   5.824   0.794   6.049 -0.1253 -0.2005 -0.6796
 6339SOL     OW25121   6.179   5.009   0.773  0.1053  0.0330 -0.4533
 6339SOL    HW225122   6.239   4.965   0.713 -0.6630 -0.0621 -1.1599
 6339SOL    HW325123   6.181   5.101   0.748  0.8959  0.2475  0.3367
 6339SOL    MW425124   6.187   5.015   0.762  0.1082  0.0488 -0.4423
 6340SOL     OW25125   0.783   0.399   5.416  0.0359 -0.1154 -0.4139
 6340SOL    HW225126   0.793   0.431   5.506 -1.6383  0.2542 -0.3252
 6340SOL    HW325127   0.721   0.460   5.376 -0.8410 -1.4617 -1.1881
 6340SOL    MW425128   0.776   0.411   5.423 -0.3007 -0.2443 -0.5043
 6341SOL     OW25129   5.450   0.334   4.924  0.0527  0.0109  0.0178
 6341SOL    HW225130   5.517   0.298   4.866 -0.8174 -0.1045 -0.9312
 6341SOL    HW325131   5.465   0.429   4.922 -0.6319  0.1163 -1.2710
 6341SOL    MW425132   5.461   0.342   4.916 -0.1524  0.0096 -0.2775
 6342SOL     OW25133   2.590   1.533   1.848 -0.1344 -0.6012  0.3877
 6342SOL    HW225134   2.580   1.620   1.888  0.6025 -0.8681  1.1959
 6342SOL    HW325135   2.597   1.551   1.754  1.2100  0.3510  0.6284
 6342SOL    MW425136   2.590   1.547   1.841  0.1402 -0.5108  0.5261
 6343SOL     OW25137   4.000   5.598   4.976 -0.1890 -0.6216  0.1546
 6343SOL    HW225138   3.930   5.555   5.024 -0.2872 -1.0794 -0.3883
 6343SOL    HW325139   3.993   5.691   5.000 -0.1301 -0.8581  1.1395
 6343SOL    MW425140   3.990   5.605   4.985 -0.1942 -0.7132  0.2129
 6344SOL     OW25141   3.176   4.539   4.136 -0.0843 -0.2578 -0.5387
 6344SOL    HW225142   3.196   4.459   4.185 -0.8366 -1.8012 -2.6222
 6344SOL    HW325143   3.261   4.571   4.106  0.1799 -0.4959 -0.0669
 6344SOL    MW425144   3.190   4.532   4.139 -0.1487 -0.4928 -0.7513
 6345SOL     OW25145   2.019   1.349   1.127  0.5799 -0.1396 -0.1605
 6345SOL    HW225146   2.014   1.275   1.188 -0.0849 -1.3069 -1.5599
 6345SOL    HW325147   1.931   1.354   1.088  1.0430  0.4025 -1.1756
 6345SOL    MW425148   2.007   1.340   1.130  0.5533 -0.2221 -0.4791
 6346SOL     OW25149   0.937   6.193   3.192  0.6749  0.0706 -0.0516
 6346SOL    HW225150   0.846   6.200   3.220  0.5669 -1.6079  0.0664
 6346SOL    HW325151   0.982   6.265   3.237 -0.6911  1.3276 -0.6245
 6346SOL    MW425152   0.931   6.204   3.202  0.4804  0.0150 -0.1116
 6347SOL     OW25153   1.511   6.441   2.881  0.4464  0.3696  0.8231
 6347SOL    HW225154   1.525   6.392   2.962 -0.0715 -0.3334  0.4829
 6347SOL    HW325155   1.592   6.428   2.831 -0.1208 -1.0903  0.2400
 6347SOL    MW425156   1.524   6.433   2.885  0.3033  0.0843  0.7013
 6348SOL     OW25157   2.652   0.489   3.871  0.1359  0.0636  0.8160
 6348SOL    HW225158   2.586   0.492   3.939  0.1788  0.5872  0.8410
 6348SOL    HW325159   2.730   0.453   3.914 -0.4490 -1.6742  0.4995
 6348SOL    MW425160   2.654   0.485   3.885  0.0644 -0.0966  0.7775
 6349SOL     OW25161   6.257   2.425   6.451 -0.2777 -0.0632 -0.2086
 6349SOL    HW225162   6.321   2.473   6.503  0.6775 -0.4489 -0.9965
 6349SOL    HW325163   6.173   2.444   6.492 -0.2831  4.0330 -1.7251
 6349SOL    MW425164   6.254   2.434   6.463 -0.1524  0.4264 -0.5126
 6350SOL     OW25165   0.155   6.195   3.774  0.1480  0.4626  0.3159
 6350SOL    HW225166   0.197   6.161   3.852  2.4291  2.0704 -0.1017
 6350SOL    HW325167   0.128   6.284   3.798 -0.4558  0.4514 -0.2910
 6350SOL    MW425168   0.157   6.202   3.787  0.3693  0.6733  0.1808
 6351SOL     OW25169   2.176   2.643   3.771 -0.2096  0.1427  0.2694
 6351SOL    HW225170   2.126   2.686   3.840 -0.6652 -0.6411  0.4428
 6351SOL    HW325171   2.221   2.715   3.726 -0.9867  0.8048  0.5140
 6351SOL    MW425172   2.175   2.658   3.774 -0.3723  0.1266  0.3246
 6352SOL     OW25173   2.737   3.774   3.393  0.3670 -0.1286  0.0303
 6352SOL    HW225174   2.743   3.833   3.468  0.7194  0.6973 -0.6372
 6352SOL    HW325175   2.644   3.758   3.381  0.3042 -0.1855  0.5763
 6352SOL    MW425176   2.726   3.779   3.401  0.4052 -0.0271  0.0143
 6353SOL     OW25177   3.228   3.010   5.998 -0.5048 -0.7511 -0.0310
 6353SOL    HW225178   3.265   2.922   5.992 -0.1414 -0.5536 -0.8068
 6353SOL    HW325179   3.302   3.066   6.019  0.1039 -0.0884 -3.3593
 6353SOL    MW425180   3.243   3.005   6.000 -0.3765 -0.6376 -0.5725
 6354SOL     OW25181   4.602   6.227   2.115 -0.3152  0.0066 -0.3393
 6354SOL    HW225182   4.603   6.263   2.027 -2.6465 -1.9493 -1.2670
 6354SOL    HW325183   4.692   6.197   2.129 -0.1711 -0.8804 -2.6453
 6354SOL    MW425184   4.614   6.228   2.105 -0.6038 -0.3685 -0.7659
 6355SOL     OW25185   2.768   4.865   5.014  0.0055  0.4749  0.1669
 6355SOL    HW225186   2.736   4.841   4.927 -2.0156  0.0138  0.9690
 6355SOL    HW325187   2.689   4.887   5.063  1.1678  1.4907  1.6730
 6355SOL    MW425188   2.753   4.865   5.009 -0.1078  0.5480  0.4714
 6356SOL     OW25189   2.283   0.964   6.230 -0.1213  0.0481 -0.3477
 6356SOL    HW225190   2.277   1.047   6.182  1.7641  0.5690  0.2204
 6356SOL    HW325191   2.199   0.957   6.276  0.6910  3.2040  1.9759
 6356SOL    MW425192   2.271   0.974   6.230  0.2346  0.5332  0.0338
 6357SOL     OW25193   2.336   5.633   6.206 -0.0756  0.0236  0.0485
 6357SOL    HW225194   2.366   5.661   6.292 -0.8515 -1.3070  0.8026
 6357SOL    HW325195   2.249   5.671   6.197 -0.2074 -0.2615  0.0909
 6357SOL    MW425196   2.329   5.642   6.216 -0.1954 -0.1896  0.1536
 6358SOL     OW25197   4.954   3.233   0.278  0.1220 -0.6900 -0.5353
 6358SOL    HW225198   4.859   3.238   0.272  0.1545  0.0360 -0.6350
 6358SOL    HW325199   4.985   3.294   0.210  0.6125  1.3654  1.4076
 6358SOL    MW425200   4.945   3.242   0.268  0.1910 -0.3230 -0.2921
 6359SOL     OW25201   1.026   1.704   3.615 -0.8567 -0.2798  0.6741
 6359SOL    HW225202   1.119   1.724   3.625 -0.6129 -1.2044  0.3874
 6359SOL    HW325203   1.004   1.736   3.528 -0.2510 -1.9652 -0.1408
 6359SOL    MW425204   1.035   1.711   3.605 -0.7446 -0.6242  0.5288
 6360SOL     OW25205   6.123   0.701   1.668  0.1740 -1.1143 -0.3750
 6360SOL    HW225206   6.081   0.615   1.665 -1.3466 -0.4684  0.9941
 6360SOL    HW325207   6.070   0.751   1.730  0.6282  1.0329 -1.6516
 6360SOL    MW425208   6.110   0.696   1.676  0.0333 -0.7458 -0.3628
 6361SOL     OW25209   0.269   3.547   5.250  0.2400  0.2422 -0.3438
 6361SOL    HW225210   0.222   3.495   5.185 -0.2647  1.2922 -0.8357
 6361SOL    HW325211   0.346   3.495   5.271 -0.6536 -1.0923 -0.2020
 6361SOL    MW425212   0.273   3.533   5.245  0.0555  0.2046 -0.3900
 6362SOL     OW25213   3.797   1.681   1.592 -0.2839  0.0731  0.1761
 6362SOL    HW225214   3.720   1.646   1.547 -0.9622  1.1210  0.4769
 6362SOL    HW325215   3.842   1.605   1.626 -0.7148 -0.6247 -0.7596
 6362SOL    MW425216   3.793   1.666   1.590 -0.4303  0.1193  0.0923
 6363SOL     OW25217   3.695   1.025   5.728  0.6542  0.0370  0.0974
 6363SOL    HW225218   3.756   1.057   5.661  0.6550 -0.1400  0.0153
 6363SOL    HW325219   3.721   1.072   5.807  0.3585  0.5984 -0.1272
 6363SOL    MW425220   3.707   1.036   5.729  0.6153  0.0878  0.0570
 6364SOL     OW25221   4.810   2.274   5.987 -0.3302 -0.6389  0.2294
 6364SOL    HW225222   4.855   2.221   5.921  0.3288  0.0609  0.1097
 6364SOL    HW325223   4.787   2.211   6.056 -0.0280 -1.1770 -0.1549
 6364SOL    MW425224   4.813   2.258   5.988 -0.2034 -0.6176  0.1629
 6365SOL     OW25225   5.445   3.085   2.764  0.0955  0.3611  0.5775
 6365SOL    HW225226   5.473   3.001   2.801  0.4359  0.9704  1.7520
 6365SOL    HW325227   5.349   3.083   2.772  0.1827  0.6787  2.0002
 6365SOL    MW425228   5.436   3.073   2.770  0.1519  0.4834  0.9202
 6366SOL     OW25229   0.528   5.495   1.622  0.4092 -0.0901  0.8119
 6366SOL    HW225230   0.476   5.421   1.652 -0.3385 -0.2719 -0.8443
 6366SOL    HW325231   0.614   5.484   1.664  1.0863 -3.1740 -1.1130
 6366SOL    MW425232   0.533   5.484   1.631  0.3999 -0.5209  0.3394
 6367SOL     OW25233   6.313   4.367   0.349 -0.0615  0.7142  0.2972
 6367SOL    HW225234   6.340   4.324   0.430  1.9934  1.2666 -0.0313
 6367SOL    HW325235   6.395   4.400   0.311 -0.9387  0.3829 -2.0665
 6367SOL    MW425236   6.327   4.366   0.355  0.0939  0.7434 -0.0580
 6368SOL     OW25237   2.194   1.856   5.773 -0.0129 -0.1266 -0.4008
 6368SOL    HW225238   2.275   1.808   5.790  0.5003  0.6258 -0.6813
 6368SOL    HW325239   2.134   1.789   5.739 -0.4465 -1.2855  2.3619
 6368SOL    MW425240   2.197   1.841   5.771 -0.0024 -0.1803 -0.0733
 6369SOL     OW25241   0.295   4.572   2.544 -0.0811 -0.5263 -0.2300
 6369SOL    HW225242   0.376   4.612   2.575  0.2559 -1.1736 -0.2588
 6369SOL    HW325243   0.226   4.632   2.572  0.4400  0.2515 -0.5837
 6369SOL    MW425244   0.296   4.585   2.552  0.0321 -0.5091 -0.2805
 6370SOL     OW25245   0.508   2.149   4.848 -0.1300 -0.1858  0.8746
 6370SOL    HW225246   0.506   2.211   4.921 -1.6742 -0.8926  1.4780
 6370SOL    HW325247   0.600   2.123   4.841  0.2926  1.0736  1.5486
 6370SOL    MW425248   0.520   2.154   4.857 -0.2780 -0.1129  1.0432
 6371SOL     OW25249   0.863   3.968   4.407  0.2247  0.3098  0.2148
 6371SOL    HW225250   0.854   3.889   4.460  2.5186 -1.3632 -1.7027
 6371SOL    HW325251   0.898   4.034   4.468  1.0896 -1.0100  1.1876
 6371SOL    MW425252   0.866   3.967   4.422  0.6415 -0.0851  0.0902
 6372SOL     OW25253   1.975   5.530   6.091  0.1748  0.2970  0.7630
 6372SOL    HW225254   2.026   5.473   6.148 -0.3288  1.1608  2.1537
 6372SOL    HW325255   1.884   5.514   6.116 -0.1074  0.2749 -0.2230
 6372SOL    MW425256   1.970   5.521   6.102  0.0711  0.4081  0.8164
 6373SOL     OW25257   5.373   0.711   2.544 -0.1665 -0.4974  0.4008
 6373SOL    HW225258   5.446   0.652   2.561 -0.3106 -0.8447 -0.1531
 6373SOL    HW325259   5.298   0.669   2.587 -0.2927 -0.7811 -0.0908
 6373SOL    MW425260   5.372   0.698   2.552 -0.2022 -0.5807  0.2628
 6374SOL     OW25261   4.823   5.032   1.266  0.2476  0.0686 -0.2061
 6374SOL    HW225262   4.773   5.100   1.221  1.1972  1.3313  0.5968
 6374SOL    HW325263   4.757   4.970   1.296 -0.7974  1.3553  0.2559
 6374SOL    MW425264   4.808   5.033   1.264  0.2350  0.4050 -0.0392
 6375SOL     OW25265   0.959   0.507   1.368  0.4653  0.0255 -0.1336
 6375SOL    HW225266   0.905   0.563   1.425  1.6806  1.8319 -0.6505
 6375SOL    HW325267   0.919   0.516   1.281  1.0262  0.6414 -0.3398
 6375SOL    MW425268   0.946   0.516   1.364  0.6997  0.3451 -0.2290
 6376SOL     OW25269   5.556   5.912   5.819 -0.1233 -0.7909  0.7834
 6376SOL    HW225270   5.615   5.916   5.744 -0.7038 -0.7790  0.3253
 6376SOL    HW325271   5.472   5.886   5.783 -0.5030 -0.4210  1.3723
 6376SOL    MW425272   5.553   5.909   5.804 -0.2500 -0.7405  0.8007
 6377SOL     OW25273   2.828   0.914   3.844  0.7328 -0.3306 -0.0489
 6377SOL    HW225274   2.860   1.003   3.858 -0.6109  0.3213 -0.9993
 6377SOL    HW325275   2.765   0.900   3.914 -0.1806  0.0437 -0.7798
 6377SOL    MW425276   2.824   0.924   3.855  0.4350 -0.1952 -0.2707
 6378SOL     OW25277   5.322   3.781   1.267  0.2312  0.1617 -0.2089
 6378SOL    HW225278   5.262   3.745   1.202  0.8944  1.9436 -1.9062
 6378SOL    HW325279   5.323   3.875   1.250  3.3128  0.2562 -0.1606
 6378SOL    MW425280   5.314   3.789   1.256  0.7253  0.4093 -0.4265
 6379SOL     OW25281   3.125   1.767   5.918 -0.2044  0.0767 -0.1652
 6379SOL    HW225282   3.148   1.698   5.857  1.6088 -0.9801  1.5663
 6379SOL    HW325283   3.052   1.813   5.877 -0.7027 -2.1131 -1.9222
 6379SOL    MW425284   3.119   1.764   5.905 -0.0309 -0.3517 -0.1686
 6380SOL     OW25285   1.742   4.684   2.450 -0.1206  0.0724 -0.5273
 6380SOL    HW225286   1.805   4.626   2.491  1.4819  3.0123  1.5333
 6380SOL    HW325287   1.780   4.703   2.364  0.0032 -0.8368 -0.6851
 6380SOL    MW425288   1.755   4.679   2.444  0.1072  0.3403 -0.2763
 6381SOL     OW25289   0.203   0.131   2.784  0.2791  0.0006 -0.1710
 6381SOL    HW225290   0.238   0.198   2.725  1.4831  0.1539  0.6790
 6381SOL    HW325291   0.251   0.051   2.759 -0.2683 -0.2697 -0.3677
 6381SOL    MW425292   0.214   0.129   2.773  0.3658 -0.0148 -0.0848
 6382SOL     OW25293   1.491   2.557   1.241 -0.0419  0.1509 -0.3261
 6382SOL    HW225294   1.553   2.567   1.313  0.6022 -2.0011 -0.5030
 6382SOL    HW325295   1.545   2.551   1.163 -0.5532 -0.1864 -0.6646
 6382SOL    MW425296   1.506   2.557   1.241 -0.0244 -0.1775 -0.3941
 6383SOL     OW25297   5.892   4.018   1.319 -0.3290  0.0767 -0.3832
 6383SOL    HW225298   5.859   4.077   1.387 -1.4384  0.1535 -0.9700
 6383SOL    HW325299   5.877   3.930   1.353 -0.5084  0.1171 -0.3595
 6383SOL    MW425300   5.886   4.014   1.333 -0.4991  0.0921 -0.4575
 6384SOL     OW25301   5.985   5.655   2.206 -0.6312  0.0345  0.4569
 6384SOL    HW225302   5.954   5.610   2.284 -0.6856 -0.5290  0.1122
 6384SOL    HW325303   5.906   5.685   2.162 -0.6131  0.0661  0.4453
 6384SOL    MW425304   5.971   5.653   2.210 -0.6360 -0.0357  0.4099
 6385SOL     OW25305   3.825   3.774   4.023 -0.4874  0.0464 -0.2718
 6385SOL    HW225306   3.810   3.680   4.023  0.4857 -0.1421 -1.9756
 6385SOL    HW325307   3.746   3.810   3.983  0.6818 -0.4162 -3.2087
 6385SOL    MW425308   3.812   3.767   4.018 -0.2048 -0.0395 -0.8841
 6386SOL     OW25309   0.855   2.945   4.963 -0.5376 -0.6347  0.1040
 6386SOL    HW225310   0.764   2.930   4.936 -0.2139 -0.6175 -1.0672
 6386SOL    HW325311   0.897   2.859   4.952 -0.1624 -0.3882 -0.4656
 6386SOL    MW425312   0.848   2.931   4.958 -0.4454 -0.5999 -0.1257
 6387SOL     OW25313   4.482   0.065   4.347 -0.2690  0.2523  0.7807
 6387SOL    HW225314   4.407   0.012   4.319 -0.7087  0.1394  2.1207
 6387SOL    HW325315   4.447   0.153   4.357  0.6723  1.1232 -2.4108
 6387SOL    MW425316   4.467   0.069   4.345 -0.2028  0.3523  0.5364
 6388SOL     OW25317   1.908   1.016   2.765 -0.0155  0.0988  0.9557
 6388SOL    HW225318   1.945   0.974   2.688 -1.3726  0.4068  0.1039
 6388SOL    HW325319   1.982   1.026   2.825  0.9568 -0.6158 -0.0897
 6388SOL    MW425320   1.923   1.012   2.763 -0.0663  0.0451  0.7054
 6389SOL     OW25321   4.141   5.324   1.890  0.3191 -0.1721  0.0870
 6389SOL    HW225322   4.130   5.254   1.826 -1.4270 -1.1556  1.3482
 6389SOL    HW325323   4.165   5.401   1.838 -1.8466 -0.7080 -1.8884
 6389SOL    MW425324   4.142   5.325   1.875 -0.1970 -0.3725 -0.0073
 6390SOL     OW25325   2.003   3.666   1.728 -0.7104 -0.0622 -0.2257
 6390SOL    HW225326   2.007   3.595   1.664 -0.2644  0.2758 -0.5814
 6390SOL    HW325327   2.037   3.628   1.808 -1.7370 -0.6323 -0.0453
 6390SOL    MW425328   2.008   3.652   1.730 -0.7870 -0.0928 -0.2488
 6391SOL     OW25329   1.256   3.835   3.095 -0.4192  0.5050 -0.1517
 6391SOL    HW225330   1.252   3.799   3.006 -0.0708  2.5031 -1.0150
 6391SOL    HW325331   1.308   3.770   3.144  0.5878  0.0390 -1.7483
 6391SOL    MW425332   1.263   3.821   3.089 -0.2404  0.7071 -0.4763
 6392SOL     OW25333   6.418   2.783   3.549  0.5686  0.0536 -0.1546
 6392SOL    HW225334   6.397   2.870   3.513 -0.5621  0.5308  1.5101
 6392SOL    HW325335   6.464   2.802   3.631 -0.5900 -0.8678  0.7419
 6392SOL    MW425336   6.421   2.797   3.555  0.2666 -0.0050  0.1834
 6393SOL     OW25337   2.143   2.845   3.373 -0.1115 -0.2631  0.0641
 6393SOL    HW225338   2.085   2.832   3.448  0.1067  0.5546  0.3848
 6393SOL    HW325339   2.127   2.935   3.345  0.6889 -0.1635 -0.1126
 6393SOL    MW425340   2.133   2.855   3.379  0.0229 -0.1421  0.0831
 6394SOL     OW25341   2.177   6.405   2.184 -0.0636  0.4037  0.3846
 6394SOL    HW225342   2.239   6.343   2.145 -1.6895 -2.0912  1.5631
 6394SOL    HW325343   2.200   6.406   2.277 -1.9116 -0.7976  0.8968
 6394SOL    MW425344   2.188   6.397   2.191 -0.5219 -0.0840  0.6077
 6395SOL     OW25345   5.647   2.121   4.383  0.0386 -0.2480  0.1420
 6395SOL    HW225346   5.730   2.136   4.339  0.1465 -1.9713 -0.3076
 6395SOL    HW325347   5.591   2.192   4.353  0.5917 -0.4939 -1.5882
 6395SOL    MW425348   5.650   2.132   4.373  0.1258 -0.5078 -0.1456
 6396SOL     OW25349   1.181   3.234   1.605  0.2952  0.4860  0.0042
 6396SOL    HW225350   1.114   3.285   1.560  0.0765  1.9719  1.8766
 6396SOL    HW325351   1.264   3.260   1.564 -0.0065  0.8909 -0.3524
 6396SOL    MW425352   1.183   3.244   1.594  0.2266  0.7354  0.2042
 6397SOL     OW25353   1.902   5.220   2.074 -0.1750 -0.3983  0.5424
 6397SOL    HW225354   1.968   5.241   2.140 -1.5505 -0.5451  2.0362
 6397SOL    HW325355   1.831   5.180   2.124 -1.3168 -0.4285 -1.0394
 6397SOL    MW425356   1.901   5.217   2.090 -0.5071 -0.4217  0.5308
 6398SOL     OW25357   3.885   4.043   0.830  0.8442 -0.0814  0.1303
 6398SOL    HW225358   3.979   4.057   0.813  0.3717  1.1774 -1.6674
 6398SOL    HW325359   3.849   4.016   0.746 -0.5689  0.3837  0.5583
 6398SOL    MW425360   3.893   4.041   0.817  0.5954  0.1461 -0.0504
 6399SOL     OW25361   4.944   5.014   5.324 -0.6664  0.0415 -0.2015
 6399SOL    HW225362   4.987   5.004   5.409 -1.1201 -2.0045 -0.1524
 6399SOL    HW325363   4.955   4.929   5.281 -1.3174  0.7122 -1.7865
 6399SOL    MW425364   4.951   5.002   5.330 -0.8121 -0.1400 -0.4042
 6400SOL     OW25365   0.326   4.092   4.401 -0.1863 -0.1953  0.0034
 6400SOL    HW225366   0.363   4.030   4.465  0.6460 -0.7394 -0.9749
 6400SOL    HW325367   0.232   4.077   4.406 -0.1299 -0.3053  1.0206
 6400SOL    MW425368   0.319   4.082   4.410 -0.0690 -0.2816  0.0085
 6401SOL     OW25369   1.719   1.377   3.490  0.7609  0.1854 -0.4550
 6401SOL    HW225370   1.758   1.373   3.403  0.7827  0.5935 -0.4677
 6401SOL    HW325371   1.717   1.471   3.511  2.5246 -0.0037  0.7799
 6401SOL    MW425372   1.724   1.389   3.482  0.9965  0.2143 -0.2937
 6402SOL     OW25373   6.346   2.812   3.066 -0.7398 -0.2253  0.0863
 6402SOL    HW225374   6.353   2.865   3.145  0.5163  0.1009 -0.2107
 6402SOL    HW325375   6.305   2.871   3.002 -0.9488 -0.1996  0.2412
 6402SOL    MW425376   6.342   2.827   3.068 -0.6017 -0.1789  0.0675
 6403SOL     OW25377   6.233   3.618   0.311  0.4078 -0.2173 -0.1944
 6403SOL    HW225378   6.270   3.568   0.238 -0.0510 -1.6743  0.5371
 6403SOL    HW325379   6.278   3.702   0.306  1.7784 -0.9442 -1.0180
 6403SOL    MW425380   6.244   3.622   0.300  0.5281 -0.5054 -0.2065
 6404SOL     OW25381   5.857   3.378   3.420 -0.4028 -0.2259  0.0521
 6404SOL    HW225382   5.891   3.403   3.334  0.1653  1.0081  0.6012
 6404SOL    HW325383   5.925   3.321   3.457  0.6022  1.3129  0.6833
 6404SOL    MW425384   5.871   3.374   3.414 -0.1952  0.1399  0.2079
 6405SOL     OW25385   1.244   0.388   0.535  0.2291  0.5318 -0.2984
 6405SOL    HW225386   1.206   0.403   0.621  0.0840 -0.5363 -0.1688
 6405SOL    HW325387   1.327   0.436   0.536 -0.9659  2.7353 -0.5147
 6405SOL    MW425388   1.250   0.396   0.546  0.0523  0.6816 -0.3099
 6406SOL     OW25389   0.757   2.281   3.901 -0.5880  0.2165 -0.3222
 6406SOL    HW225390   0.775   2.197   3.859  0.7865  1.4910 -2.4531
 6406SOL    HW325391   0.678   2.314   3.858 -0.7905  0.2990  0.1001
 6406SOL    MW425392   0.749   2.275   3.890 -0.4334  0.3956 -0.5476
 6407SOL     OW25393   5.631   2.245   1.458 -0.5536  0.0675 -0.0639
 6407SOL    HW225394   5.673   2.310   1.514 -1.4409 -0.1512  0.8901
 6407SOL    HW325395   5.704   2.193   1.424 -0.0145 -0.4663  1.7623
 6407SOL    MW425396   5.647   2.246   1.461 -0.5996 -0.0318  0.3029
 6408SOL     OW25397   1.778   4.445   3.265 -0.5577  0.0790  0.6639
 6408SOL    HW225398   1.692   4.485   3.254  0.4409  1.6124 -2.8840
 6408SOL    HW325399   1.831   4.513   3.306 -0.8146 -0.6428  2.2613
 6408SOL    MW425400   1.773   4.459   3.269 -0.4599  0.1860  0.4066
 6409SOL     OW25401   0.060   5.463   4.420 -0.1690  0.2407 -0.3604
 6409SOL    HW225402   0.071   5.373   4.451  0.3159  0.2905 -0.3741
 6409SOL    HW325403   0.014   5.454   4.337  0.4839 -0.0460 -0.6972
 6409SOL    MW425404   0.055   5.450   4.413 -0.0189  0.2095 -0.4066
 6410SOL     OW25405   3.994   0.534   3.484 -0.0421  0.1385 -0.0449
 6410SOL    HW225406   4.063   0.472   3.461  0.4140  0.6616 -0.1160
 6410SOL    HW325407   3.981   0.586   3.405 -0.5647  0.0043 -0.0507
 6410SOL    MW425408   4.001   0.533   3.471 -0.0509  0.1898 -0.0551
 6411SOL     OW25409   6.338   5.318   0.934  0.2898 -0.4069  0.3011
 6411SOL    HW225410   6.289   5.311   0.852  1.7736  0.5178 -0.7068
 6411SOL    HW325411   6.290   5.263   0.995 -1.2073 -0.6277 -1.0163
 6411SOL    MW425412   6.325   5.310   0.931  0.2880 -0.3140 -0.0057
 6412SOL     OW25413   3.854   3.373   0.064 -0.1603 -0.2966 -0.1481
 6412SOL    HW225414   3.841   3.458   0.022 -1.7880  1.0570  2.7707
 6412SOL    HW325415   3.918   3.391   0.134  1.1544 -2.0336 -0.8476
 6412SOL    MW425416   3.861   3.387   0.068 -0.2016 -0.3472  0.1447
 6413SOL     OW25417   0.725   5.502   3.036 -0.2536  0.0146  0.2316
 6413SOL    HW225418   0.813   5.534   3.013 -0.6059 -0.5874 -2.0920
 6413SOL    HW325419   0.731   5.484   3.130  2.2967 -0.5454  0.0389
 6413SOL    MW425420   0.738   5.504   3.046  0.0364 -0.1387 -0.1004
 6414SOL     OW25421   5.112   2.455   3.749 -0.1543  0.0569 -0.0096
 6414SOL    HW225422   5.180   2.442   3.682 -1.0414  0.8799 -1.1066
 6414SOL    HW325423   5.078   2.367   3.765 -0.5372 -0.0601 -1.3211
 6414SOL    MW425424   5.117   2.442   3.742 -0.3218  0.1500 -0.3273
 6415SOL     OW25425   4.772   4.409   0.304 -0.1394 -0.0445 -0.3234
 6415SOL    HW225426   4.810   4.443   0.223  0.5662 -0.3192 -0.1190
 6415SOL    HW325427   4.758   4.487   0.358  1.4033 -0.0218  0.1144
 6415SOL    MW425428   4.775   4.424   0.300  0.1572 -0.0777 -0.2387
 6416SOL     OW25429   2.329   5.398   0.686  0.0721  0.2635  0.1332
 6416SOL    HW225430   2.255   5.343   0.659  0.1539  0.3617 -0.3041
 6416SOL    HW325431   2.402   5.367   0.633 -0.4997  2.6061 -2.2193
 6416SOL    MW425432   2.329   5.386   0.675  0.0074  0.5855 -0.2349
 6417SOL     OW25433   3.613   0.188   2.127 -0.2038 -0.0270 -0.4348
 6417SOL    HW225434   3.523   0.204   2.154  0.5430  1.0710  1.7445
 6417SOL    HW325435   3.621   0.093   2.123 -1.6504 -0.1251 -1.5138
 6417SOL    MW425436   3.602   0.178   2.130 -0.2962  0.1049 -0.2896
 6418SOL     OW25437   1.715   2.578   2.134 -0.2446  0.5632 -0.0831
 6418SOL    HW225438   1.647   2.630   2.092 -0.3986  1.0879  0.7747
 6418SOL    HW325439   1.767   2.543   2.062 -0.7109  1.1318 -0.7091
 6418SOL    MW425440   1.713   2.581   2.119 -0.3264  0.7075 -0.0525
 6419SOL     OW25441   1.541   0.516   0.735 -0.3589 -0.0969  0.4046
 6419SOL    HW225442   1.616   0.459   0.722 -0.0921  0.5903 -1.3954
 6419SOL    HW325443   1.501   0.523   0.648 -1.3605  1.0944  0.9251
 6419SOL    MW425444   1.545   0.510   0.722 -0.4559  0.1509  0.2358
 6420SOL     OW25445   3.445   3.180   0.554 -0.2873 -0.3634  0.5421
 6420SOL    HW225446   3.414   3.186   0.463  0.7012 -0.4078  0.1960
 6420SOL    HW325447   3.507   3.107   0.553 -1.5901 -1.5665  1.6452
 6420SOL    MW425448   3.449   3.171   0.542 -0.3288 -0.5280  0.6419
 6421SOL     OW25449   2.683   2.677   4.529  0.7507  0.0944  0.3585
 6421SOL    HW225450   2.710   2.682   4.437  0.5222 -0.0290  0.2836
 6421SOL    HW325451   2.655   2.586   4.541  2.0908 -0.2617  0.9246
 6421SOL    MW425452   2.683   2.666   4.518  0.8973  0.0311  0.4233
 6422SOL     OW25453   0.443   6.004   1.906  0.0960 -0.1057 -0.3238
 6422SOL    HW225454   0.370   6.060   1.881  0.1013  0.2714  0.4824
 6422SOL    HW325455   0.422   5.919   1.867 -2.6173 -1.0672  2.7458
 6422SOL    MW425456   0.431   6.000   1.897 -0.2613 -0.1828  0.1875
 6423SOL     OW25457   0.044   6.000   0.489  0.0514 -0.1937  0.2592
 6423SOL    HW225458   0.079   6.089   0.481  0.4940 -0.3057  0.8223
 6423SOL    HW325459   0.121   5.944   0.483 -0.3958 -0.6552 -1.7078
 6423SOL    MW425460   0.059   6.004   0.487  0.0508 -0.2693  0.0740
 6424SOL     OW25461   3.420   3.294   2.696 -0.0980  0.6984  0.3618
 6424SOL    HW225462   3.342   3.260   2.652  0.3487  0.2058 -0.0740
 6424SOL    HW325463   3.389   3.323   2.781 -0.0879 -3.6039  2.1182
 6424SOL    MW425464   3.405   3.293   2.701 -0.0378  0.0658  0.5360
 6425SOL     OW25465   0.916   3.104   4.734 -0.5665 -0.2219 -0.0480
 6425SOL    HW225466   1.010   3.100   4.718 -0.5645 -2.5301  0.2852
 6425SOL    HW325467   0.899   3.034   4.797 -2.4158  0.5805  0.3990
 6425SOL    MW425468   0.926   3.094   4.740 -0.8102 -0.4205  0.0550
 6426SOL     OW25469   0.064   5.936   5.086 -0.0610  0.1672 -0.2996
 6426SOL    HW225470   0.046   5.842   5.098 -0.0825  0.1535 -0.4421
 6426SOL    HW325471   0.040   5.954   4.995  0.4731  0.1924 -0.4398
 6426SOL    MW425472   0.058   5.926   5.076  0.0066  0.1687 -0.3369
 6427SOL     OW25473   5.784   1.234   4.764 -0.0282 -0.4875 -0.1334
 6427SOL    HW225474   5.864   1.269   4.723  0.2027 -1.0561 -0.1845
 6427SOL    HW325475   5.713   1.281   4.721  0.2719 -0.1313 -0.2485
 6427SOL    MW425476   5.785   1.245   4.753  0.0418 -0.5156 -0.1554
 6428SOL     OW25477   6.206   5.315   2.662 -0.2271  0.0335 -0.2726
 6428SOL    HW225478   6.251   5.344   2.583  1.0485  0.6182  0.6369
 6428SOL    HW325479   6.246   5.366   2.733 -0.8277 -0.9968  0.8466
 6428SOL    MW425480   6.217   5.326   2.661 -0.1380 -0.0253 -0.0050
 6429SOL     OW25481   2.005   2.250   1.955  0.0421 -0.1217 -0.0464
 6429SOL    HW225482   2.073   2.266   1.891 -0.1282 -0.3243 -0.2814
 6429SOL    HW325483   1.976   2.160   1.937  0.3853 -0.3861  0.6784
 6429SOL    MW425484   2.010   2.240   1.944  0.0649 -0.1833  0.0182
 6430SOL     OW25485   2.252   0.812   1.635 -0.1527  0.0000 -0.2183
 6430SOL    HW225486   2.263   0.796   1.728 -0.2179 -1.5265 -0.4393
 6430SOL    HW325487   2.333   0.855   1.607  0.4569 -0.8102  0.2795
 6430SOL    MW425488   2.264   0.816   1.643 -0.0809 -0.3083 -0.1817
 6431SOL     OW25489   6.314   4.793   1.864  0.4803 -0.0434 -0.3485
 6431SOL    HW225490   6.372   4.767   1.793  0.1073  1.0594 -1.0894
 6431SOL    HW325491   6.229   4.806   1.822  0.4209  1.3268  0.1420
 6431SOL    MW425492   6.311   4.791   1.849  0.4233  0.2829 -0.3815
 6432SOL     OW25493   5.312   3.141   0.540  0.2158  0.0208  0.3448
 6432SOL    HW225494   5.364   3.103   0.469 -0.4699 -0.0742 -0.1166
 6432SOL    HW325495   5.232   3.089   0.541  1.1845 -1.6079  2.8207
 6432SOL    MW425496   5.309   3.129   0.531  0.2532 -0.2066  0.6106
 6433SOL     OW25497   6.242   3.273   5.140  0.3467  0.3788 -0.6302
 6433SOL    HW225498   6.154   3.245   5.166 -0.5102  1.1639 -2.5027
 6433SOL    HW325499   6.300   3.233   5.205 -1.3794 -0.1314  0.6761
 6433SOL    MW425500   6.238   3.264   5.152  0.0059  0.4151 -0.7049
 6434SOL     OW25501   3.448   1.661   3.787 -0.1665 -0.1786 -0.4574
 6434SOL    HW225502   3.450   1.694   3.697 -0.6127 -1.2479 -0.8778
 6434SOL    HW325503   3.451   1.566   3.778 -1.1157 -0.3400  0.6076
 6434SOL    MW425504   3.448   1.653   3.774 -0.3506 -0.3409 -0.3723
 6435SOL     OW25505   0.834   2.452   0.098 -0.0726  0.3230  0.2020
 6435SOL    HW225506   0.878   2.494   0.023  0.6438 -0.3834  0.2189
 6435SOL    HW325507   0.814   2.364   0.067  2.5099 -0.8618  1.6489
 6435SOL    MW425508   0.837   2.446   0.084  0.3627  0.0735  0.3952
 6436SOL     OW25509   0.290   0.766   6.409 -0.4122 -0.0822 -0.1795
 6436SOL    HW225510   0.385   0.763   6.398 -0.3909  0.2563 -0.1080
 6436SOL    HW325511   0.259   0.824   6.340 -0.5623 -0.1558 -0.1752
 6436SOL    MW425512   0.298   0.774   6.398 -0.4292 -0.0472 -0.1695
 6437SOL     OW25513   0.557   3.433   3.247  0.2946 -0.5794  0.1400
 6437SOL    HW225514   0.587   3.456   3.335 -2.5737 -0.1902  1.1267
 6437SOL    HW325515   0.561   3.338   3.244  2.7264 -0.5227 -0.2798
 6437SOL    MW425516   0.561   3.424   3.259  0.2370 -0.5206  0.2148
 6438SOL     OW25517   4.717   0.427   3.578  0.0721 -0.1776 -0.3024
 6438SOL    HW225518   4.658   0.358   3.549 -1.6201  0.3191  1.7054
 6438SOL    HW325519   4.791   0.382   3.616  0.8647 -0.8142 -2.4300
 6438SOL    MW425520   4.719   0.412   3.579 -0.0466 -0.1961 -0.3182
 6439SOL     OW25521   5.680   1.346   5.827 -0.4148 -0.1771  0.0536
 6439SOL    HW225522   5.750   1.390   5.875 -0.6093  0.4956 -0.2720
 6439SOL    HW325523   5.666   1.399   5.749 -1.3015 -0.2846  0.1209
 6439SOL    MW425524   5.687   1.358   5.823 -0.5575 -0.1025  0.0195
 6440SOL     OW25525   5.526   2.052   1.178  0.0381  0.2050  0.0773
 6440SOL    HW225526   5.534   1.965   1.139  1.6848  0.6444 -0.6629
 6440SOL    HW325527   5.532   2.036   1.272 -0.1929 -0.5363 -0.0265
 6440SOL    MW425528   5.528   2.038   1.185  0.2249  0.1652 -0.0341
 6441SOL     OW25529   3.804   5.859   3.639  0.4478  0.0872  1.1930
 6441SOL    HW225530   3.750   5.897   3.569  0.7065 -1.0737  0.3206
 6441SOL    HW325531   3.746   5.798   3.683  0.2093  1.0102  2.1925
 6441SOL    MW425532   3.789   5.856   3.636  0.4505  0.0558  1.2098
 6442SOL     OW25533   0.248   3.856   1.074 -0.3365 -0.1294 -0.5132
 6442SOL    HW225534   0.242   3.792   1.004  1.4012  0.7544 -1.5301
 6442SOL    HW325535   0.157   3.878   1.095 -0.9019 -1.5501 -1.4018
 6442SOL    MW425536   0.235   3.851   1.068 -0.1819 -0.2002 -0.7646
 6443SOL     OW25537   1.820   2.910   0.352  0.2788 -0.4358 -0.2095
 6443SOL    HW225538   1.820   2.814   0.347 -0.3495 -0.4621  0.2151
 6443SOL    HW325539   1.768   2.937   0.277  1.1794 -0.3896 -0.8294
 6443SOL    MW425540   1.813   2.901   0.341  0.3147 -0.4332 -0.2352
 6444SOL     OW25541   1.567   5.783   2.067  0.1663  0.3691 -0.0882
 6444SOL    HW225542   1.662   5.772   2.056  0.1475  0.5415 -0.4472
 6444SOL    HW325543   1.529   5.748   1.986 -0.1349 -0.4989  0.4178
 6444SOL    MW425544   1.575   5.777   2.055  0.1241  0.2773 -0.0688
 6445SOL     OW25545   0.782   5.980   4.733  0.3838 -0.1829  0.1423
 6445SOL    HW225546   0.818   5.933   4.658 -0.1560  0.5277 -0.5748
 6445SOL    HW325547   0.689   5.993   4.712  0.3555  0.5449  0.6504
 6445SOL    MW425548   0.775   5.976   4.720  0.3088  0.0069  0.1147
 6446SOL     OW25549   3.903   5.576   1.800  0.8982 -0.2334  0.0776
 6446SOL    HW225550   3.838   5.517   1.837 -2.2933  2.6129 -0.4717
 6446SOL    HW325551   3.976   5.574   1.861  0.5695 -3.8484  0.5668
 6446SOL    MW425552   3.904   5.568   1.813  0.4338 -0.3348  0.0697
 6447SOL     OW25553   4.983   3.249   2.847 -0.7742 -0.0022 -0.2717
 6447SOL    HW225554   4.916   3.207   2.900 -0.5338  1.6525  1.4457
 6447SOL    HW325555   4.949   3.337   2.828  0.2701  0.3494 -0.6245
 6447SOL    MW425556   4.970   3.255   2.851 -0.6047  0.2625 -0.0916
 6448SOL     OW25557   0.139   3.787   3.958  0.0804 -0.4651  0.2091
 6448SOL    HW225558   0.095   3.710   3.994 -0.3115  0.0235  0.8020
 6448SOL    HW325559   0.223   3.790   4.005  0.8369 -1.4752 -1.0208
 6448SOL    MW425560   0.144   3.777   3.969  0.1285 -0.5339  0.1251
 6449SOL     OW25561   0.518   2.682   2.725 -0.6268 -0.0151  0.0666
 6449SOL    HW225562   0.479   2.707   2.641  2.8534  2.1874 -1.1530
 6449SOL    HW325563   0.480   2.597   2.745 -2.5189 -0.0979 -3.1208
 6449SOL    MW425564   0.508   2.674   2.717 -0.4173  0.2646 -0.5148
 6450SOL     OW25565   2.497   5.503   3.301 -0.4214 -0.1709 -0.4861
 6450SOL    HW225566   2.411   5.460   3.310  0.1304 -0.9673  1.5049
 6450SOL    HW325567   2.476   5.595   3.284 -1.6394 -0.6157 -1.5829
 6450SOL    MW425568   2.483   5.509   3.300 -0.5093 -0.3347 -0.3681
 6451SOL     OW25569   3.914   4.514   3.471  0.1538  0.2408  0.5188
 6451SOL    HW225570   3.823   4.544   3.476  0.2204  0.6242 -0.3929
 6451SOL    HW325571   3.966   4.591   3.491  0.3487  1.0875 -2.6438
 6451SOL    MW425572   3.909   4.528   3.474  0.1883  0.4031 -0.0188
 6452SOL     OW25573   1.364   0.828   2.489  0.2224  0.0086  0.1421
 6452SOL    HW225574   1.409   0.870   2.562 -0.4972  0.8931  0.0895
 6452SOL    HW325575   1.276   0.810   2.522  0.6567 -1.9557  0.3333
 6452SOL    MW425576   1.359   0.831   2.503  0.1848 -0.1338  0.1604
 6453SOL     OW25577   1.102   4.582   0.662  0.5390 -0.2907 -0.6803
 6453SOL    HW225578   1.100   4.676   0.642 -1.0174 -0.6308 -2.4566
 6453SOL    HW325579   1.095   4.540   0.576 -2.6732 -1.9600  0.2601
 6453SOL    MW425580   1.101   4.589   0.648 -0.0901 -0.5558 -0.7906
 6454SOL     OW25581   4.524   5.935   4.834 -0.7629 -0.2688  0.2061
 6454SOL    HW225582   4.501   5.853   4.878  0.9563 -0.4084  0.9221
 6454SOL    HW325583   4.566   5.908   4.753 -0.3245 -0.1090  0.3763
 6454SOL    MW425584   4.527   5.920   4.829 -0.4782 -0.2661  0.3230
 6455SOL     OW25585   4.608   6.312   0.215  0.3584 -0.3249  0.4471
 6455SOL    HW225586   4.612   6.219   0.192  2.5487 -0.4506  1.0616
 6455SOL    HW325587   4.651   6.357   0.142 -0.1116  0.1386  0.4513
 6455SOL    MW425588   4.615   6.306   0.202  0.5854 -0.2803  0.5287
 6456SOL     OW25589   5.566   5.134   1.174  0.0404 -0.2926 -0.5547
 6456SOL    HW225590   5.630   5.152   1.243 -1.1049  0.4382  0.3586
 6456SOL    HW325591   5.534   5.046   1.193 -0.0554 -0.2074 -0.3146
 6456SOL    MW425592   5.570   5.125   1.185 -0.1233 -0.1850 -0.4025
 6457SOL     OW25593   0.858   0.220   4.961 -0.1730 -0.7746 -0.3693
 6457SOL    HW225594   0.909   0.270   4.898  2.0947 -0.7572  1.3439
 6457SOL    HW325595   0.788   0.279   4.988  1.1668  0.7069  0.0201
 6457SOL    MW425596   0.855   0.234   4.956  0.3030 -0.5768 -0.0919
 6458SOL     OW25597   5.147   1.348   0.326 -0.1932 -0.2140  0.3423
 6458SOL    HW225598   5.122   1.282   0.392 -3.1980  1.2637  0.8867
 6458SOL    HW325599   5.100   1.321   0.247  0.4472  0.0040 -0.1149
 6458SOL    MW425600   5.137   1.336   0.324 -0.5051  0.0097  0.3538
 6459SOL     OW25601   4.906   2.934   1.121  0.1001 -0.2750  0.4026
 6459SOL    HW225602   4.932   2.948   1.212 -0.9515  1.8859  0.4261
 6459SOL    HW325603   4.915   2.839   1.109  0.3977 -0.6169  2.6992
 6459SOL    MW425604   4.911   2.923   1.132  0.0006 -0.0350  0.7087
 6460SOL     OW25605   3.696   4.199   3.242  0.3522  0.2860  0.1823
 6460SOL    HW225606   3.791   4.194   3.248  0.3902  0.0739 -0.5333
 6460SOL    HW325607   3.675   4.171   3.153 -0.3815  0.3259  0.3299
 6460SOL    MW425608   3.706   4.195   3.232  0.2604  0.2633  0.1074
 6461SOL     OW25609   0.363   2.842   2.501 -0.5225 -0.0253 -0.5578
 6461SOL    HW225610   0.354   2.926   2.545  2.2762 -0.6611  1.5077
 6461SOL    HW325611   0.274   2.806   2.499 -1.2296  1.3741  1.9188
 6461SOL    MW425612   0.350   2.848   2.507 -0.2466  0.0754  0.0415
 6462SOL     OW25613   6.004   5.095   2.663  0.2334 -0.0936 -0.8401
 6462SOL    HW225614   6.054   5.176   2.671  2.5263 -1.4698  0.1445
 6462SOL    HW325615   6.016   5.051   2.748  0.6998 -2.2703 -1.9427
 6462SOL    MW425616   6.012   5.100   2.676  0.5975 -0.5623 -0.8557
 6463SOL     OW25617   3.478   3.684   2.897 -0.4532 -0.5031 -0.0652
 6463SOL    HW225618   3.450   3.677   2.805  0.2710 -1.2397 -0.2429
 6463SOL    HW325619   3.563   3.640   2.899  0.6022  1.4632  0.5072
 6463SOL    MW425620   3.485   3.677   2.885 -0.2184 -0.3409 -0.0131
 6464SOL     OW25621   5.725   0.065   1.150 -0.1091  1.1113  0.3474
 6464SOL    HW225622   5.635   0.037   1.137  0.1737 -0.0255  0.7500
 6464SOL    HW325623   5.729   0.091   1.242  0.0402  0.8892  0.4048
 6464SOL    MW425624   5.714   0.065   1.160 -0.0521  0.9320  0.4081
 6465SOL     OW25625   4.419   2.366   2.211 -0.5293  0.1525  0.0636
 6465SOL    HW225626   4.509   2.396   2.200 -0.9406  1.0180 -1.1630
 6465SOL    HW325627   4.379   2.377   2.125 -1.9376  0.2394  0.6956
 6465SOL    MW425628   4.425   2.372   2.198 -0.7694  0.2782 -0.0149
 6466SOL     OW25629   0.143   3.461   0.268 -0.6912 -0.1548 -0.3298
 6466SOL    HW225630   0.088   3.393   0.304 -2.0634  2.3223  2.7095
 6466SOL    HW325631   0.193   3.494   0.343 -1.0496  2.9820 -1.3271
 6466SOL    MW425632   0.143   3.457   0.283 -0.9195  0.5859 -0.0604
 6467SOL     OW25633   0.614   1.439   0.225 -0.1823 -0.3726 -0.3149
 6467SOL    HW225634   0.602   1.442   0.320 -1.3529  0.1742 -0.4601
 6467SOL    HW325635   0.587   1.525   0.194 -0.2881 -0.7059 -1.1895
 6467SOL    MW425636   0.609   1.451   0.234 -0.3507 -0.3444 -0.4494
 6468SOL     OW25637   6.095   2.603   0.334 -0.1768 -0.6683 -0.2856
 6468SOL    HW225638   6.005   2.630   0.316 -1.2001 -3.2233  0.4807
 6468SOL    HW325639   6.094   2.580   0.427  1.6367  0.4283  0.0387
 6468SOL    MW425640   6.083   2.603   0.344 -0.0725 -0.8607 -0.1417
 6469SOL     OW25641   0.386   1.632   2.508 -0.4691  0.2030  0.9400
 6469SOL    HW225642   0.402   1.691   2.581 -1.8371  1.9291 -0.0633
 6469SOL    HW325643   0.359   1.690   2.436  0.6881 -1.4271 -0.9093
 6469SOL    MW425644   0.384   1.648   2.508 -0.4969  0.2156  0.5636
 6470SOL     OW25645   5.280   4.042   1.577 -0.0177 -0.0419  0.3098
 6470SOL    HW225646   5.229   4.100   1.520  1.2261  0.5791 -0.2031
 6470SOL    HW325647   5.245   3.955   1.560 -1.1020  0.4052  0.1937
 6470SOL    MW425648   5.269   4.038   1.567  0.0033  0.0991  0.2268
 6471SOL     OW25649   5.466   5.350   2.610  0.0003 -0.0246  0.2853
 6471SOL    HW225650   5.516   5.343   2.528 -1.1049  1.2680 -0.5367
 6471SOL    HW325651   5.474   5.442   2.635 -0.1830 -0.2840  1.3254
 6471SOL    MW425652   5.474   5.361   2.602 -0.1697  0.1117  0.3141
 6472SOL     OW25653   2.946   1.654   5.427  0.1238  0.9374 -0.1822
 6472SOL    HW225654   2.948   1.747   5.406 -0.2871  0.7153 -1.2874
 6472SOL    HW325655   3.015   1.616   5.373  0.7892  0.6992  0.8209
 6472SOL    MW425656   2.955   1.661   5.417  0.1574  0.8767 -0.1957
 6473SOL     OW25657   5.349   5.021   1.582  0.0850  0.1992 -0.1776
 6473SOL    HW225658   5.319   5.066   1.502  0.3009  1.1529  0.2584
 6473SOL    HW325659   5.275   5.028   1.642 -0.8684 -2.2952 -0.9214
 6473SOL    MW425660   5.335   5.028   1.579 -0.0123 -0.0041 -0.2182
 6474SOL     OW25661   2.860   5.382   5.629 -0.5841  0.3358 -0.0271
 6474SOL    HW225662   2.928   5.434   5.588  0.1354 -0.1666  0.5121
 6474SOL    HW325663   2.897   5.295   5.638  0.3087  0.9195  3.8711
 6474SOL    MW425664   2.874   5.377   5.625 -0.3714  0.3465  0.5583
 6475SOL     OW25665   4.153   2.644   2.872  0.1409 -0.7427 -0.0518
 6475SOL    HW225666   4.189   2.570   2.823  0.9388 -1.0122  0.9256
 6475SOL    HW325667   4.189   2.721   2.828 -0.6975 -0.9177 -1.0759
 6475SOL    MW425668   4.163   2.645   2.860  0.1355 -0.8013 -0.0580
 6476SOL     OW25669   4.809   6.370   4.904 -0.1756  0.0448  0.5055
 6476SOL    HW225670   4.745   6.303   4.929 -1.0791  1.2018  1.4030
 6476SOL    HW325671   4.817   6.426   4.981 -0.4602  1.7465 -0.6434
 6476SOL    MW425672   4.801   6.368   4.918 -0.3323  0.4220  0.4724
 6477SOL     OW25673   1.208   2.939   3.783 -0.5970  0.3572  0.0462
 6477SOL    HW225674   1.225   2.854   3.822 -2.4804 -0.2662 -0.3474
 6477SOL    HW325675   1.294   2.978   3.768  0.3683 -1.9858 -0.8745
 6477SOL    MW425676   1.221   2.933   3.786 -0.7182 -0.0342 -0.1272
 6478SOL     OW25677   5.462   1.374   2.153 -0.7137 -0.5081  0.0955
 6478SOL    HW225678   5.427   1.370   2.065  0.8878 -1.1065 -0.5586
 6478SOL    HW325679   5.389   1.351   2.210 -1.6970 -0.3662 -1.0840
 6478SOL    MW425680   5.448   1.370   2.149 -0.6321 -0.5683 -0.1464
 6479SOL     OW25681   4.472   2.157   5.124  0.5035 -0.5402 -0.6354
 6479SOL    HW225682   4.395   2.140   5.071  1.2233 -0.2121 -1.8181
 6479SOL    HW325683   4.478   2.253   5.129 -0.1428 -0.5487  0.9470
 6479SOL    MW425684   4.463   2.168   5.118  0.5132 -0.4980 -0.5826
 6480SOL     OW25685   1.825   4.813   5.608 -0.2510  0.4718  0.3149
 6480SOL    HW225686   1.883   4.762   5.551 -0.5600  1.3959 -0.8553
 6480SOL    HW325687   1.770   4.863   5.548 -0.0982  2.0349  1.4135
 6480SOL    MW425688   1.826   4.813   5.593 -0.2716  0.8000  0.3055
 6481SOL     OW25689   3.390   1.905   0.139  0.0084  0.2771  0.6971
 6481SOL    HW225690   3.332   1.978   0.120  1.3657  1.6920  1.7403
 6481SOL    HW325691   3.343   1.854   0.205 -1.9608 -1.1811 -1.6622
 6481SOL    MW425692   3.376   1.908   0.145 -0.0724  0.2714  0.5234
 6482SOL     OW25693   2.415   1.674   6.114 -0.1202  0.3221  0.0036
 6482SOL    HW225694   2.417   1.764   6.146  1.3609 -0.0564  1.0698
 6482SOL    HW325695   2.451   1.679   6.026 -0.9603  0.8952 -0.3181
 6482SOL    MW425696   2.420   1.686   6.107 -0.0356  0.3477  0.1018
 6483SOL     OW25697   5.762   3.485   5.903 -0.3721  0.1437  0.3055
 6483SOL    HW225698   5.850   3.483   5.864 -0.7095 -1.7172 -0.4772
 6483SOL    HW325699   5.778   3.489   5.997  0.5138  1.1373  0.1370
 6483SOL    MW425700   5.776   3.485   5.910 -0.2997  0.0293  0.1800
 6484SOL     OW25701   2.267   1.764   3.287 -0.1976 -0.0484  0.2263
 6484SOL    HW225702   2.234   1.690   3.236 -0.2501 -0.9226  1.5032
 6484SOL    HW325703   2.279   1.730   3.376 -0.0357  1.4180  0.8011
 6484SOL    MW425704   2.264   1.750   3.292 -0.1832  0.0297  0.4706
 6485SOL     OW25705   5.897   5.943   6.082 -0.0970  0.5313 -0.5187
 6485SOL    HW225706   5.813   5.923   6.122  0.1525  0.3290 -0.0889
 6485SOL    HW325707   5.936   5.857   6.065  0.3511  0.6268 -0.0048
 6485SOL    MW425708   5.891   5.929   6.085 -0.0049  0.5172 -0.3942
 6486SOL     OW25709   5.332   1.358   1.038  0.0055  0.3962 -0.4885
 6486SOL    HW225710   5.353   1.451   1.032  3.4637 -0.1479  1.0072
 6486SOL    HW325711   5.395   1.315   0.981 -1.8472 -1.0794 -1.5232
 6486SOL    MW425712   5.343   1.365   1.030  0.2173  0.1297 -0.4277
 6487SOL     OW25713   2.575   3.223   3.039 -0.1003  0.1954  0.0292
 6487SOL    HW225714   2.659   3.184   3.014  1.6239  2.8192  1.2628
 6487SOL    HW325715   2.577   3.226   3.135 -1.8552 -0.1138  0.1139
 6487SOL    MW425716   2.586   3.218   3.048 -0.1043  0.5008  0.2032
 6488SOL     OW25717   0.595   4.409   5.875  0.1213  0.3199 -0.3212
 6488SOL    HW225718   0.643   4.490   5.891 -1.5923  0.9047  2.7159
 6488SOL    HW325719   0.506   4.428   5.903 -1.4155 -1.4145 -3.5417
 6488SOL    MW425720   0.590   4.422   5.881 -0.3076  0.1682 -0.3454
 6489SOL     OW25721   5.989   0.830   3.695  0.2372 -0.0366  0.5555
 6489SOL    HW225722   6.003   0.735   3.704  0.7066  0.1489  2.1240
 6489SOL    HW325723   5.919   0.849   3.758 -0.3926  0.5676 -0.3007
 6489SOL    MW425724   5.981   0.820   3.705  0.2160  0.0676  0.6495
 6490SOL     OW25725   2.043   5.915   5.718  0.1246  0.2754  0.0546
 6490SOL    HW225726   2.047   5.952   5.806  2.0620  0.3313 -0.0207
 6490SOL    HW325727   1.962   5.863   5.718 -0.5918  1.3083  1.4241
 6490SOL    MW425728   2.033   5.913   5.730  0.2857  0.4191  0.2254
 6491SOL     OW25729   3.828   2.407   3.555 -0.4339  0.0442  0.1930
 6491SOL    HW225730   3.887   2.399   3.480  0.2921 -0.6890  0.8240
 6491SOL    HW325731   3.821   2.501   3.571  0.5336  0.1394  0.0824
 6491SOL    MW425732   3.835   2.418   3.547 -0.2104 -0.0400  0.2617
 6492SOL     OW25733   2.159   4.977   0.607  0.3529 -0.4953 -0.0701
 6492SOL    HW225734   2.094   4.911   0.630  1.5331 -1.3280  1.0530
 6492SOL    HW325735   2.111   5.060   0.606 -0.3123 -0.7123  3.1839
 6492SOL    MW425736   2.144   4.979   0.610  0.4208 -0.6338  0.5074
 6493SOL     OW25737   2.818   3.856   2.345 -0.0543 -0.2591 -0.1028
 6493SOL    HW225738   2.852   3.767   2.349 -1.8153 -0.9385  0.5916
 6493SOL    HW325739   2.788   3.874   2.434  3.2418  2.3139  0.6959
 6493SOL    MW425740   2.818   3.847   2.358  0.1482 -0.0093  0.0942
 6494SOL     OW25741   3.818   2.734   5.600 -0.3203 -0.3839  0.5356
 6494SOL    HW225742   3.897   2.758   5.649  0.4215 -2.3022  0.3581
 6494SOL    HW325743   3.804   2.808   5.541  1.0889  0.1936  0.8680
 6494SOL    MW425744   3.827   2.747   5.599 -0.0365 -0.5608  0.5560
 6495SOL     OW25745   4.956   2.764   2.338 -0.0051 -0.0430  0.7067
 6495SOL    HW225746   4.943   2.756   2.243  2.2419  1.1718  0.2394
 6495SOL    HW325747   5.024   2.700   2.358  3.1463  2.9696  0.5187
 6495SOL    MW425748   4.963   2.754   2.328  0.7072  0.5147  0.6203
 6496SOL     OW25749   4.048   4.744   1.837 -0.2809 -0.1949 -0.1134
 6496SOL    HW225750   4.122   4.801   1.816 -0.3516 -0.9711 -2.8689
 6496SOL    HW325751   4.054   4.673   1.773 -2.2071 -1.3960  0.9552
 6496SOL    MW425752   4.059   4.742   1.825 -0.5443 -0.4557 -0.3359
 6497SOL     OW25753   2.502   2.243   4.346  0.6577 -0.0746  0.2391
 6497SOL    HW225754   2.506   2.336   4.325  1.7105  0.0754  1.0372
 6497SOL    HW325755   2.479   2.201   4.263 -0.3280  0.9250 -0.0150
 6497SOL    MW425756   2.500   2.250   4.332  0.6665  0.0771  0.3108
 6498SOL     OW25757   4.154   5.836   3.084  0.1878 -0.1807  0.0648
 6498SOL    HW225758   4.156   5.922   3.042 -2.9745  0.2023  0.4039
 6498SOL    HW325759   4.183   5.852   3.174 -0.2798  0.5497  0.0945
 6498SOL    MW425760   4.158   5.849   3.090 -0.2911 -0.0338  0.1135
 6499SOL     OW25761   3.797   5.530   3.310  0.1295 -0.4136 -0.8218
 6499SOL    HW225762   3.822   5.479   3.387 -2.2602  0.2539  0.5068
 6499SOL    HW325763   3.840   5.615   3.321  1.2158 -0.8958 -1.1868
 6499SOL    MW425764   3.806   5.535   3.321 -0.0424 -0.3891 -0.6946
 6500SOL     OW25765   4.486   5.848   1.548 -0.3823  0.1364  0.0998
 6500SOL    HW225766   4.416   5.914   1.542  1.0053  1.4920 -2.9856
 6500SOL    HW325767   4.554   5.890   1.601 -1.0796 -0.4854  1.5600
 6500SOL    MW425768   4.486   5.862   1.554 -0.2913  0.2332 -0.1146
 6501SOL     OW25769   1.175   1.711   1.527  0.1924 -0.8726 -0.4142
 6501SOL    HW225770   1.177   1.782   1.590  0.4736 -1.0870 -0.1764
 6501SOL    HW325771   1.254   1.723   1.474  0.1903 -0.9523 -0.4358
 6501SOL    MW425772   1.186   1.722   1.528  0.2292 -0.9114 -0.3857
 6502SOL     OW25773   0.086   5.196   3.172 -0.0284  0.4197 -0.4267
 6502SOL    HW225774   0.085   5.260   3.243 -0.6369  1.0623 -1.0013
 6502SOL    HW325775   0.168   5.148   3.184 -0.0083  0.6909  0.5553
 6502SOL    MW425776   0.097   5.198   3.183 -0.1061  0.5402 -0.3730
 6503SOL     OW25777   3.289   1.834   0.397 -0.5453 -0.0017 -0.3989
 6503SOL    HW225778   3.349   1.858   0.468  1.2298 -1.0781 -1.4596
 6503SOL    HW325779   3.227   1.906   0.393  0.9954  1.4400  0.4205
 6503SOL    MW425780   3.288   1.846   0.406 -0.1078  0.0465 -0.4307
 6504SOL     OW25781   0.141   1.868   5.674 -0.3770  0.0217 -0.1391
 6504SOL    HW225782   0.075   1.918   5.625  0.7107  0.9982 -0.6515
 6504SOL    HW325783   0.131   1.779   5.642 -2.8067 -0.3003  1.2693
 6504SOL    MW425784   0.131   1.863   5.663 -0.5541  0.1080 -0.0209
 6505SOL     OW25785   2.744   4.318   5.270 -0.5822 -0.0241  0.4385
 6505SOL    HW225786   2.765   4.251   5.205 -1.2715 -1.6361  1.7894
 6505SOL    HW325787   2.649   4.322   5.272 -0.5588  1.3073  0.1265
 6505SOL    MW425788   2.734   4.310   5.262 -0.6701 -0.0611  0.5755
 6506SOL     OW25789   5.234   4.062   5.082  0.4815 -0.4990  0.0097
 6506SOL    HW225790   5.236   4.030   4.992 -0.3723  0.0443 -0.2063
 6506SOL    HW325791   5.216   3.984   5.135  1.3219 -0.8790 -0.2504
 6506SOL    MW425792   5.232   4.048   5.077  0.4798 -0.4775 -0.0531
 6507SOL     OW25793   1.442   5.714   1.466  0.2642 -0.3536 -0.2330
 6507SOL    HW225794   1.441   5.666   1.550  0.0757 -0.8478 -0.5105
 6507SOL    HW325795   1.517   5.679   1.419  0.1263 -0.3817 -0.4366
 6507SOL    MW425796   1.452   5.703   1.471  0.2211 -0.4225 -0.2965
 6508SOL     OW25797   6.302   2.835   0.477  0.2609  0.2267 -0.3921
 6508SOL    HW225798   6.293   2.923   0.512 -0.5925 -0.1660  0.3906
 6508SOL    HW325799   6.239   2.831   0.405 -0.4352 -0.0794  0.2357
 6508SOL    MW425800   6.293   2.846   0.472  0.0564  0.1345 -0.2060
 6509SOL     OW25801   3.251   4.059   4.547  0.1989 -0.0268 -0.1249
 6509SOL    HW225802   3.275   4.121   4.616  2.2473 -0.3588 -0.4674
 6509SOL    HW325803   3.156   4.068   4.538  0.0394  0.8399  1.9291
 6509SOL    MW425804   3.242   4.069   4.555  0.4481  0.0437  0.1009
 6510SOL     OW25805   2.295   0.337   3.674  0.5834  0.3830 -0.2804
 6510SOL    HW225806   2.224   0.331   3.737  0.5503  1.1417 -0.2319
 6510SOL    HW325807   2.270   0.410   3.616  0.7526 -0.1099 -0.9873
 6510SOL    MW425808   2.282   0.346   3.674  0.6014  0.4180 -0.3673
 6511SOL     OW25809   0.319   0.814   4.672 -0.0981  0.4567 -0.6390
 6511SOL    HW225810   0.346   0.722   4.675 -1.0535  0.1435 -1.2816
 6511SOL    HW325811   0.372   0.857   4.739 -0.2651 -0.7289  0.2751
 6511SOL    MW425812   0.329   0.808   4.681 -0.2462  0.2589 -0.6032
 6512SOL     OW25813   3.245   5.025   4.036  0.2597 -0.0073  0.6202
 6512SOL    HW225814   3.211   4.992   4.119 -0.0511  1.0447  0.9299
 6512SOL    HW325815   3.203   4.971   3.969 -1.5971  0.8521  1.0208
 6512SOL    MW425816   3.235   5.014   4.038 -0.0263  0.2449  0.7139
 6513SOL     OW25817   4.737   4.153   1.210 -0.1805 -0.3160 -0.3060
 6513SOL    HW225818   4.676   4.169   1.283  1.5550 -1.3309  1.4637
 6513SOL    HW325819   4.719   4.224   1.148 -0.4922  1.7218  1.9605
 6513SOL    MW425820   4.727   4.164   1.212  0.0074 -0.1810  0.2266
 6514SOL     OW25821   5.972   0.381   2.488 -0.6010  0.4284 -0.2807
 6514SOL    HW225822   5.943   0.308   2.544  0.9414 -0.6178 -0.7635
 6514SOL    HW325823   6.010   0.444   2.549  2.2649 -1.2855 -0.1312
 6514SOL    MW425824   5.973   0.379   2.504 -0.0194  0.0643 -0.3247
 6515SOL     OW25825   3.107   1.182   1.601 -0.3147 -0.1494  0.1975
 6515SOL    HW225826   3.188   1.214   1.562  0.1481 -0.6160  0.7618
 6515SOL    HW325827   3.083   1.106   1.548 -1.1882  0.8343 -0.8805
 6515SOL    MW425828   3.115   1.176   1.589 -0.3689 -0.0812  0.1297
 6516SOL     OW25829   5.342   1.366   5.778  0.1722 -0.4443 -0.2436
 6516SOL    HW225830   5.322   1.436   5.840 -1.0425 -0.3066 -0.7542
 6516SOL    HW325831   5.434   1.345   5.794  0.0157 -0.1035  1.2676
 6516SOL    MW425832   5.352   1.373   5.788 -0.0087 -0.3812 -0.1116
 6517SOL     OW25833   5.669   1.304   0.360 -0.1733  0.1503  0.0284
 6517SOL    HW225834   5.584   1.312   0.404 -0.7880  3.0889 -1.4637
 6517SOL    HW325835   5.660   1.228   0.303 -1.7367  0.2778  0.0649
 6517SOL    MW425836   5.656   1.295   0.359 -0.4607  0.5548 -0.1636
 6518SOL     OW25837   4.457   5.687   4.951 -0.4007  0.3768  0.6218
 6518SOL    HW225838   4.416   5.613   4.906 -1.1122  1.2231 -0.1578
 6518SOL    HW325839   4.394   5.712   5.019  0.3111 -0.3791  1.5992
 6518SOL    MW425840   4.443   5.680   4.954 -0.4006  0.3888  0.6479
 6519SOL     OW25841   6.131   4.413   0.617 -0.4500 -0.2613 -0.0015
 6519SOL    HW225842   6.172   4.460   0.545  0.2635 -1.0754 -0.1452
 6519SOL    HW325843   6.203   4.396   0.679 -0.4469 -2.0300 -0.4294
 6519SOL    MW425844   6.146   4.417   0.616 -0.3555 -0.6020 -0.0770
 6520SOL     OW25845   2.456   3.315   5.930  0.0496 -0.2234  0.3934
 6520SOL    HW225846   2.388   3.272   5.878 -0.0402  0.9482 -0.4948
 6520SOL    HW325847   2.417   3.398   5.959  1.4188  0.9945 -1.0493
 6520SOL    MW425848   2.442   3.320   5.927  0.2184  0.0919  0.0859
 6521SOL     OW25849   2.218   5.370   2.519 -0.0719  0.3429 -0.2450
 6521SOL    HW225850   2.227   5.462   2.541 -3.1105  0.6522  0.1545
 6521SOL    HW325851   2.202   5.327   2.603 -0.9604 -0.1398 -0.6375
 6521SOL    MW425852   2.217   5.376   2.533 -0.5900  0.3200 -0.2440
 6522SOL     OW25853   2.422   2.056   1.104 -0.4694  0.5922 -0.1748
 6522SOL    HW225854   2.372   2.137   1.101 -1.0499  0.3810  1.8135
 6522SOL    HW325855   2.500   2.078   1.155 -0.3283  0.0662 -0.1544
 6522SOL    MW425856   2.426   2.069   1.111 -0.5274  0.4950  0.0902
 6523SOL     OW25857   5.537   4.162   5.741 -0.5087 -0.3386  0.3586
 6523SOL    HW225858   5.598   4.220   5.695 -0.6007  0.9176  1.7368
 6523SOL    HW325859   5.462   4.154   5.682 -0.5143  1.0215  0.1493
 6523SOL    MW425860   5.535   4.168   5.727 -0.5216  0.0066  0.5128
 6524SOL     OW25861   4.614   3.167   1.156 -0.0049 -0.0508  0.3468
 6524SOL    HW225862   4.612   3.073   1.139  1.4938  0.1599 -1.1690
 6524SOL    HW325863   4.557   3.205   1.089 -0.0830  0.1718  0.5389
 6524SOL    MW425864   4.606   3.159   1.145  0.1825  0.0064  0.1722
 6525SOL     OW25865   2.709   5.623   6.219 -0.8355 -0.6193 -0.1484
 6525SOL    HW225866   2.654   5.667   6.154 -0.7108 -0.5802 -0.2278
 6525SOL    HW325867   2.658   5.547   6.245  0.0762 -1.9619 -2.0212
 6525SOL    MW425868   2.695   5.619   6.214 -0.6988 -0.7912 -0.4060
 6526SOL     OW25869   4.597   2.740   4.102 -0.4785  0.2979 -0.1031
 6526SOL    HW225870   4.632   2.655   4.074  0.5731  0.5153  0.5409
 6526SOL    HW325871   4.560   2.723   4.189 -2.1687  0.0366 -0.8211
 6526SOL    MW425872   4.597   2.726   4.110 -0.5627  0.2921 -0.1128
 6527SOL     OW25873   0.610   2.687   1.838 -0.1360  0.5701 -0.0208
 6527SOL    HW225874   0.611   2.650   1.926 -2.4814  0.0553 -0.1594
 6527SOL    HW325875   0.672   2.760   1.843 -0.0451  0.4240  1.9712
 6527SOL    MW425876   0.618   2.692   1.850 -0.4335  0.4829  0.2237
 6528SOL     OW25877   1.134   1.015   3.712 -0.1065 -0.0604 -0.5770
 6528SOL    HW225878   1.109   0.930   3.676 -1.7741  0.4854 -0.7801
 6528SOL    HW325879   1.141   1.000   3.807 -2.6790  0.0494 -0.3175
 6528SOL    MW425880   1.132   1.002   3.720 -0.6659  0.0261 -0.5696
 6529SOL     OW25881   2.642   3.647   3.633 -0.1401 -0.2113 -0.2396
 6529SOL    HW225882   2.735   3.630   3.645 -0.3129 -0.5797  0.5995
 6529SOL    HW325883   2.635   3.742   3.633  0.1074 -0.1885  0.7398
 6529SOL    MW425884   2.653   3.657   3.634 -0.1302 -0.2569  0.0004
 6530SOL     OW25885   3.624   1.069   2.665 -0.4568 -0.4963  0.7763
 6530SOL    HW225886   3.577   1.104   2.740 -1.3440  0.1779 -0.0744
 6530SOL    HW325887   3.702   1.125   2.657 -1.4810  0.8580 -0.1141
 6530SOL    MW425888   3.628   1.081   2.674 -0.7090 -0.2286  0.5466
 6531SOL     OW25889   0.058   3.810   2.774  0.7391 -0.1764  0.2502
 6531SOL    HW225890  -0.018   3.758   2.748  0.2538 -0.1198  1.4752
 6531SOL    HW325891   0.132   3.749   2.767  0.5025 -0.4001 -0.3893
 6531SOL    MW425892   0.058   3.795   2.769  0.6439 -0.1985  0.3274
 6532SOL     OW25893   4.654   0.594   5.741 -0.0334 -1.1355  0.5338
 6532SOL    HW225894   4.654   0.545   5.658  1.6921  0.4390 -0.4866
 6532SOL    HW325895   4.711   0.543   5.798 -0.5417 -1.7857  0.4743
 6532SOL    MW425896   4.662   0.581   5.738  0.1272 -1.0136  0.3913
 6533SOL     OW25897   3.334   3.049   4.039  0.3647  0.4517 -0.4408
 6533SOL    HW225898   3.278   3.022   3.967  0.8039  1.3984 -1.1615
 6533SOL    HW325899   3.288   3.122   4.080  0.3495  0.2385 -0.0738
 6533SOL    MW425900   3.321   3.055   4.035  0.4207  0.5485 -0.4874
 6534SOL     OW25901   3.176   0.233   3.085  0.3984  0.0356 -0.6338
 6534SOL    HW225902   3.253   0.290   3.073 -0.1660  0.9917  0.1509
 6534SOL    HW325903   3.212   0.144   3.085  1.2194  0.3150 -2.6113
 6534SOL    MW425904   3.191   0.229   3.084  0.4322  0.1986 -0.7912
 6535SOL     OW25905   4.841   3.616   6.126 -0.5387 -0.3802  0.0442
 6535SOL    HW225906   4.829   3.522   6.141  0.2968 -0.6886 -1.1325
 6535SOL    HW325907   4.768   3.657   6.174 -2.1416 -1.7342 -1.1203
 6535SOL    MW425908   4.830   3.609   6.134 -0.6399 -0.5995 -0.2647
 6536SOL     OW25909   3.138   1.917   1.850 -0.2906  0.0809  0.7918
 6536SOL    HW225910   3.193   1.843   1.822 -2.9378 -1.4415 -0.8815
 6536SOL    HW325911   3.200   1.986   1.872  2.3098 -2.2076  1.2281
 6536SOL    MW425912   3.154   1.916   1.849 -0.2968 -0.4219  0.6286
 6537SOL     OW25913   0.214   0.354   1.238 -0.7512  0.2581  0.5011
 6537SOL    HW225914   0.183   0.403   1.162 -1.2983  0.6228  0.9529
 6537SOL    HW325915   0.148   0.287   1.252 -1.7191  1.4422  1.8648
 6537SOL    MW425916   0.202   0.352   1.230 -0.9511  0.4625  0.7406
 6538SOL     OW25917   2.376   5.552   1.221  0.0567 -0.0029 -0.9101
 6538SOL    HW225918   2.329   5.635   1.215  1.6137  1.1595  1.4788
 6538SOL    HW325919   2.370   5.515   1.133 -2.7413  1.4413 -1.4507
 6538SOL    MW425920   2.369   5.558   1.209 -0.1071  0.3410 -0.6662
 6539SOL     OW25921   2.327   1.304   2.883 -0.2350 -0.1754 -0.5095
 6539SOL    HW225922   2.294   1.285   2.796 -0.9000  0.1013 -0.3269
 6539SOL    HW325923   2.253   1.344   2.929  0.2988  0.2848 -0.0256
 6539SOL    MW425924   2.313   1.307   2.878 -0.2523 -0.0782 -0.4215
 6540SOL     OW25925   2.069   3.358   4.643 -0.1823  0.3293 -0.2796
 6540SOL    HW225926   2.012   3.430   4.616  0.2167  0.9350  0.4539
 6540SOL    HW325927   2.133   3.399   4.700  0.6528 -0.4470 -0.6474
 6540SOL    MW425928   2.070   3.373   4.647 -0.0195  0.3068 -0.2314
 6541SOL     OW25929   3.159   3.535   1.658  0.3030 -0.2360 -0.5351
 6541SOL    HW225930   3.213   3.607   1.691 -1.2369  1.4443 -1.5210
 6541SOL    HW325931   3.069   3.567   1.665 -0.3051 -1.2131 -2.9313
 6541SOL    MW425932   3.155   3.549   1.664  0.0196 -0.1432 -0.9813
 6542SOL     OW25933   2.126   6.047   1.200 -0.1799 -0.1657 -0.5208
 6542SOL    HW225934   2.075   6.042   1.281  1.3136 -1.4114  0.4065
 6542SOL    HW325935   2.177   5.966   1.199 -0.2483 -0.2454 -2.8043
 6542SOL    MW425936   2.126   6.036   1.211  0.0081 -0.3406 -0.6997
 6543SOL     OW25937   0.883   1.673   0.179  0.3269 -0.1059  0.0446
 6543SOL    HW225938   0.849   1.700   0.094  0.1433 -0.2636  0.0692
 6543SOL    HW325939   0.809   1.681   0.239  1.1886  3.2233  0.9151
 6543SOL    MW425940   0.869   1.678   0.176  0.4164  0.3126  0.1627
 6544SOL     OW25941   6.377   6.344   1.922 -0.3700 -0.1023 -0.6009
 6544SOL    HW225942   6.302   6.297   1.887 -1.3217  0.4656  0.6064
 6544SOL    HW325943   6.340   6.405   1.986  0.8941  1.6959 -1.4816
 6544SOL    MW425944   6.362   6.346   1.926 -0.3288  0.2099 -0.5578
 6545SOL     OW25945   0.073   4.009   1.701 -0.2707  0.3461  0.5884
 6545SOL    HW225946   0.042   3.962   1.779 -1.3900  0.2939  0.1308
 6545SOL    HW325947  -0.001   4.063   1.675 -0.0893 -0.0120 -0.7346
 6545SOL    MW425948   0.059   4.010   1.708 -0.3945  0.2919  0.3535
 6546SOL     OW25949   4.501   4.494   0.602 -0.0360  0.5012  0.0572
 6546SOL    HW225950   4.475   4.440   0.528  0.6178 -1.0776  0.9287
 6546SOL    HW325951   4.419   4.525   0.639 -0.4070  0.4997 -0.7325
 6546SOL    MW425952   4.487   4.491   0.597  0.0013  0.2927  0.0680
 6547SOL     OW25953   0.903   4.089   0.152  0.1904 -0.0002  0.0270
 6547SOL    HW225954   0.848   4.157   0.114  3.3019  2.3717 -0.6607
 6547SOL    HW325955   0.952   4.054   0.078  1.1681 -0.4429  0.8592
 6547SOL    MW425956   0.902   4.093   0.138  0.7299  0.2543  0.0460
 6548SOL     OW25957   2.934   2.497   4.346 -0.7236  0.2493 -0.0310
 6548SOL    HW225958   2.857   2.459   4.388 -0.9816 -0.5774 -1.1904
 6548SOL    HW325959   2.996   2.425   4.341 -0.8912  0.1630 -1.4767
 6548SOL    MW425960   2.932   2.482   4.351 -0.7798  0.1289 -0.3747
 6549SOL     OW25961   5.099   1.124   0.482  0.2088 -0.3053  0.0851
 6549SOL    HW225962   5.130   1.034   0.480  1.7642  0.2129 -1.7367
 6549SOL    HW325963   5.061   1.135   0.570  1.3887 -2.2515  0.8867
 6549SOL    MW425964   5.098   1.114   0.494  0.5697 -0.4937 -0.0495
 6550SOL     OW25965   1.587   4.276   1.845  0.3977 -0.4637  0.0974
 6550SOL    HW225966   1.634   4.221   1.908  1.9205  0.4062 -0.2227
 6550SOL    HW325967   1.630   4.361   1.851 -1.0078  0.3159 -0.4037
 6550SOL    MW425968   1.599   4.280   1.854  0.4132 -0.2461 -0.0110
 6551SOL     OW25969   5.337   6.340   4.284 -0.2797  0.3618  0.2624
 6551SOL    HW225970   5.277   6.294   4.225  0.6451  0.1202 -0.5204
 6551SOL    HW325971   5.372   6.271   4.340 -2.0198  0.7530  1.9177
 6551SOL    MW425972   5.333   6.325   4.283 -0.3873  0.3815  0.3775
 6552SOL     OW25973   4.441   1.038   6.345  0.1082  0.2359 -0.2437
 6552SOL    HW225974   4.489   1.115   6.312  0.3860 -0.5159 -1.6716
 6552SOL    HW325975   4.474   0.965   6.293 -0.0521 -0.9019  1.1856
 6552SOL    MW425976   4.451   1.039   6.334  0.1237 -0.0134 -0.2435
 6553SOL     OW25977   6.060   5.352   3.572 -0.3359 -0.4714 -0.4608
 6553SOL    HW225978   6.113   5.274   3.587  0.8751  0.5025  0.5598
 6553SOL    HW325979   5.980   5.320   3.529  0.0583 -2.2696  0.0944
 6553SOL    MW425980   6.056   5.338   3.568 -0.1241 -0.5802 -0.2529
 6554SOL     OW25981   6.006   2.564   3.901  0.0857  0.8044 -0.6375
 6554SOL    HW225982   5.984   2.559   3.994  2.3906  1.0654 -0.0175
 6554SOL    HW325983   5.994   2.475   3.868  2.0573 -0.0106  0.6595
 6554SOL    MW425984   6.002   2.551   3.908  0.6499  0.7313 -0.3846
 6555SOL     OW25985   3.463   1.333   4.384 -0.3611  0.1789 -0.3118
 6555SOL    HW225986   3.396   1.361   4.446  0.2252  0.7170  0.0978
 6555SOL    HW325987   3.536   1.393   4.400  1.1257 -1.8365  0.9245
 6555SOL    MW425988   3.464   1.344   4.394 -0.0876 -0.0160 -0.0946
 6556SOL     OW25989   4.060   0.279   3.298 -0.4725  0.4422 -0.1694
 6556SOL    HW225990   4.082   0.186   3.296 -0.5052  0.4198  0.3466
 6556SOL    HW325991   3.977   0.285   3.250  0.2179  0.4143 -1.4182
 6556SOL    MW425992   4.052   0.268   3.291 -0.3857  0.4356 -0.2661
 6557SOL     OW25993   4.172   0.440   1.998  0.4748  0.0491 -0.1426
 6557SOL    HW225994   4.081   0.430   2.025  0.8558  0.6324  1.4727
 6557SOL    HW325995   4.221   0.439   2.080  1.9245 -0.2014 -0.9832
 6557SOL    MW425996   4.166   0.438   2.013  0.7163  0.0930 -0.0404
 6558SOL     OW25997   4.678   0.429   0.565 -0.1601 -0.6365 -0.0615
 6558SOL    HW225998   4.771   0.441   0.587 -0.2281 -1.4372  0.7344
 6558SOL    HW325999   4.646   0.368   0.631 -0.2491 -3.7111 -2.7061
 6558SOL    MW426000   4.686   0.423   0.576 -0.1808 -1.1478 -0.3054
 6559SOL     OW26001   0.586   3.257   4.779  0.3166 -0.1887 -0.0625
 6559SOL    HW226002   0.648   3.325   4.752 -0.3870  0.4945  0.0003
 6559SOL    HW326003   0.619   3.177   4.738  0.0271  0.5678 -1.8461
 6559SOL    MW426004   0.599   3.256   4.770  0.1855  0.0012 -0.2896
 6560SOL     OW26005   2.446   3.952   2.027 -0.6409 -0.2044  0.3320
 6560SOL    HW226006   2.517   3.894   2.056  0.4806  0.6321 -0.5972
 6560SOL    HW326007   2.367   3.898   2.032 -0.1489 -0.8126  2.5067
 6560SOL    MW426008   2.445   3.937   2.031 -0.4281 -0.1743  0.4963
 6561SOL     OW26009   6.289   4.776   6.226 -0.2278 -0.5261 -0.2618
 6561SOL    HW226010   6.288   4.716   6.301  1.6501 -2.0237 -1.3510
 6561SOL    HW326011   6.362   4.835   6.244 -1.1357  0.5423  0.0759
 6561SOL    MW426012   6.299   4.776   6.238 -0.0998 -0.5828 -0.3609
 6562SOL     OW26013   4.049   4.649   6.054 -0.1161  0.0509  0.2417
 6562SOL    HW226014   3.958   4.658   6.080 -1.4011 -2.8385 -2.5242
 6562SOL    HW326015   4.091   4.605   6.127 -1.7229 -1.2741  0.4187
 6562SOL    MW426016   4.043   4.644   6.067 -0.4976 -0.5052 -0.0998
 6563SOL     OW26017   3.539   4.639   5.350 -0.3490 -0.0859  0.5232
 6563SOL    HW226018   3.584   4.572   5.298  0.0462 -0.0540  0.8210
 6563SOL    HW326019   3.606   4.674   5.407 -0.8703 -0.4011  1.3475
 6563SOL    MW426020   3.554   4.635   5.350 -0.3656 -0.1232  0.6712
 6564SOL     OW26021   0.414   4.910   2.575 -0.0169  0.0377  0.5425
 6564SOL    HW226022   0.498   4.931   2.535  0.0418 -0.1516  0.5659
 6564SOL    HW326023   0.433   4.903   2.668  0.2263 -1.3856  0.4094
 6564SOL    MW426024   0.428   4.912   2.582  0.0230 -0.1751  0.5280
 6565SOL     OW26025   4.573   2.995   5.936  0.2480 -0.2339 -0.5388
 6565SOL    HW226026   4.561   2.914   5.886  0.7331 -1.3789  1.1053
 6565SOL    HW326027   4.662   2.987   5.972 -0.3564  0.1437  1.1234
 6565SOL    MW426028   4.583   2.983   5.934  0.2322 -0.3352 -0.1026
 6566SOL     OW26029   1.619   5.073   0.436  0.4010  0.2383  0.3282
 6566SOL    HW226030   1.586   5.155   0.473 -0.4474 -0.0240  0.1761
 6566SOL    HW326031   1.577   5.068   0.350  1.6343  0.3905 -0.3072
 6566SOL    MW426032   1.609   5.083   0.429  0.4518  0.2238  0.2243
 6567SOL     OW26033   4.191   1.459   0.411  0.2001  0.3644 -0.2311
 6567SOL    HW226034   4.197   1.384   0.352  1.2106 -1.0930  1.6264
 6567SOL    HW326035   4.102   1.493   0.397 -0.5947 -1.6851 -0.5311
 6567SOL    MW426036   4.180   1.454   0.401  0.2286 -0.0983 -0.0256
 6568SOL     OW26037   0.664   2.874   2.162  0.1481 -0.3546  0.5340
 6568SOL    HW226038   0.625   2.941   2.107 -0.2037 -1.1893 -0.2725
 6568SOL    HW326039   0.754   2.865   2.128 -0.2653 -1.3208 -0.3714
 6568SOL    MW426040   0.671   2.881   2.150  0.0472 -0.5922  0.3082
 6569SOL     OW26041   1.638   0.230   4.721 -0.3963 -0.2712  0.3804
 6569SOL    HW226042   1.590   0.309   4.696 -0.4142 -0.0547  1.0719
 6569SOL    HW326043   1.612   0.164   4.657 -0.4947  0.2440 -0.1150
 6569SOL    MW426044   1.628   0.232   4.709 -0.4117 -0.1746  0.4062
 6570SOL     OW26045   2.933   4.071   2.966 -0.7346 -0.0698 -0.0386
 6570SOL    HW226046   2.865   4.137   2.959  1.0796  2.2935  2.5611
 6570SOL    HW326047   2.910   4.020   3.043 -0.3469 -0.2138 -0.0132
 6570SOL    MW426048   2.921   4.073   2.975 -0.4441  0.2230  0.3078
 6571SOL     OW26049   3.821   0.166   4.528  0.5082 -0.0660 -0.7911
 6571SOL    HW226050   3.848   0.253   4.558 -2.4348  1.2633 -1.6234
 6571SOL    HW326051   3.849   0.107   4.597  0.0551  1.9698  1.2612
 6571SOL    MW426052   3.828   0.170   4.541  0.0602  0.3780 -0.6301
 6572SOL     OW26053   5.721   0.731   2.871 -0.5781 -0.0973 -0.2978
 6572SOL    HW226054   5.735   0.655   2.927 -1.2715  0.0240  0.0409
 6572SOL    HW326055   5.641   0.772   2.904 -0.8334  0.1457 -1.1866
 6572SOL    MW426056   5.713   0.726   2.883 -0.7033 -0.0492 -0.3704
 6573SOL     OW26057   2.118   3.475   4.997  0.0946  0.1329  0.1127
 6573SOL    HW226058   2.156   3.521   5.071  0.8253 -0.7328  0.3043
 6573SOL    HW326059   2.127   3.536   4.923 -1.1930  1.2355  0.8379
 6573SOL    MW426060   2.124   3.489   4.997  0.0212  0.1641  0.2337
 6574SOL     OW26061   0.089   5.015   1.698 -0.8689  0.0716 -0.2284
 6574SOL    HW226062   0.164   5.031   1.755 -0.5302 -1.0279 -0.3385
 6574SOL    HW326063   0.060   5.102   1.671 -1.2153  0.6432  1.8247
 6574SOL    MW426064   0.095   5.028   1.702 -0.8699  0.0020  0.0280
 6575SOL     OW26065   4.301   3.016   2.462  0.6504  0.0733 -0.4237
 6575SOL    HW226066   4.360   3.076   2.507 -0.9070  1.9240 -0.7122
 6575SOL    HW326067   4.279   3.061   2.380 -2.5374  0.3773  0.4737
 6575SOL    MW426068   4.306   3.030   2.457  0.0243  0.3576 -0.3434
 6576SOL     OW26069   5.684   4.297   2.559  0.4038 -0.1650  0.1763
 6576SOL    HW226070   5.656   4.347   2.483 -0.2062  1.5894  1.5001
 6576SOL    HW326071   5.779   4.286   2.547  0.4766  0.9463 -0.3397
 6576SOL    MW426072   5.693   4.302   2.548  0.3329  0.2131  0.2829
 6577SOL     OW26073   6.185   3.326   5.598 -0.0129  0.2057 -0.0498
 6577SOL    HW226074   6.136   3.273   5.536 -0.6152  1.1798 -0.4192
 6577SOL    HW326075   6.236   3.262   5.648  0.0436 -0.6367 -1.1421
 6577SOL    MW426076   6.186   3.311   5.597 -0.0849  0.2231 -0.2426
 6578SOL     OW26077   6.212   0.062   2.095  0.0167 -0.3542 -0.0443
 6578SOL    HW226078   6.248   0.148   2.078 -0.3398 -0.2130 -0.0949
 6578SOL    HW326079   6.185   0.064   2.187  2.7905 -1.4215  0.8851
 6578SOL    MW426080   6.213   0.073   2.105  0.3356 -0.4764  0.0716
 6579SOL     OW26081   4.243   5.345   2.588 -0.1265  0.2103  0.0968
 6579SOL    HW226082   4.285   5.315   2.669  0.0493  2.4859  0.9317
 6579SOL    HW326083   4.150   5.353   2.611 -0.2755 -0.2913 -0.3125
 6579SOL    MW426084   4.236   5.342   2.602 -0.1229  0.4444  0.1529
 6580SOL     OW26085   5.967   1.810   6.437 -0.3426 -0.0958 -0.6303
 6580SOL    HW226086   6.051   1.776   6.466 -0.2192  0.1147 -0.7380
 6580SOL    HW326087   5.987   1.898   6.404 -0.7856  0.4308  0.4467
 6580SOL    MW426088   5.981   1.817   6.437 -0.3848  0.0014 -0.5024
 6581SOL     OW26089   2.396   2.529   1.903 -0.0920 -0.3750 -0.1649
 6581SOL    HW226090   2.458   2.531   1.830  0.3765 -1.8535  0.1664
 6581SOL    HW326091   2.364   2.619   1.909  0.3369 -0.0759 -1.7716
 6581SOL    MW426092   2.400   2.541   1.894  0.0264 -0.5306 -0.3332
 6582SOL     OW26093   4.385   4.790   2.200  0.5235 -0.2092 -0.0386
 6582SOL    HW226094   4.301   4.746   2.212  0.9182 -0.6840  1.1240
 6582SOL    HW326095   4.364   4.883   2.202 -0.0227 -0.3294 -0.0898
 6582SOL    MW426096   4.371   4.796   2.202  0.5035 -0.2877  0.1081
 6583SOL     OW26097   5.852   2.617   1.838 -0.1704 -0.3870  0.2135
 6583SOL    HW226098   5.920   2.655   1.893  1.8108 -0.4979 -2.0452
 6583SOL    HW326099   5.813   2.691   1.792 -1.2664 -0.3913  1.0673
 6583SOL    MW426100   5.856   2.632   1.840 -0.0536 -0.4022  0.0281
 6584SOL     OW26101   6.366   4.671   0.262 -0.0089  0.4225  0.0296
 6584SOL    HW226102   6.430   4.602   0.245  0.0063  0.1311  1.1474
 6584SOL    HW326103   6.353   4.669   0.357 -1.4396  0.6874 -0.1276
 6584SOL    MW426104   6.373   4.662   0.273 -0.1956  0.4190  0.1563
 6585SOL     OW26105   4.355   3.881   1.460 -0.3126  0.5573  0.7623
 6585SOL    HW226106   4.394   3.820   1.523  0.1003  2.6809  2.6917
 6585SOL    HW326107   4.422   3.890   1.392  0.0845 -0.2824  1.0219
 6585SOL    MW426108   4.369   3.874   1.459 -0.2057  0.7267  1.0511
 6586SOL     OW26109   1.696   3.602   4.726 -0.5406 -0.0654 -0.6510
 6586SOL    HW226110   1.652   3.517   4.720 -1.4968  0.5129 -2.6074
 6586SOL    HW326111   1.782   3.588   4.687 -1.3830  0.2426 -2.7499
 6586SOL    MW426112   1.701   3.589   4.720 -0.7779  0.0516 -1.1861
 6587SOL     OW26113   1.890   1.271   4.994 -0.5400 -0.2652 -0.4216
 6587SOL    HW226114   1.929   1.356   4.977 -1.1095  0.3359  1.1272
 6587SOL    HW326115   1.796   1.288   4.996 -0.5703 -0.1915  3.2179
 6587SOL    MW426116   1.883   1.284   4.992 -0.6191 -0.1762  0.2629
 6588SOL     OW26117   2.543   3.667   5.953  0.2001 -0.8213 -0.4424
 6588SOL    HW226118   2.607   3.599   5.933  0.4901 -0.4459 -0.8026
 6588SOL    HW326119   2.490   3.674   5.874  0.8937  0.1621 -0.8418
 6588SOL    MW426120   2.545   3.659   5.940  0.3298 -0.6420 -0.5426
 6589SOL     OW26121   0.280   5.779   3.930 -0.3846  0.0613  0.3372
 6589SOL    HW226122   0.323   5.851   3.976  0.4580 -0.2558  0.0679
 6589SOL    HW326123   0.350   5.740   3.877 -1.1877  0.0036 -0.6979
 6589SOL    MW426124   0.295   5.783   3.929 -0.3794  0.0119  0.1651
 6590SOL     OW26125   3.722   3.033   0.592 -0.0077  1.0211  0.3871
 6590SOL    HW226126   3.785   3.014   0.662 -0.5768  1.4010  1.0084
 6590SOL    HW326127   3.732   2.959   0.531 -0.3577  0.0528  1.4618
 6590SOL    MW426128   3.732   3.021   0.593 -0.1290  0.9435  0.6109
 6591SOL     OW26129   3.937   4.533   5.217 -0.1573  0.1263  0.2367
 6591SOL    HW226130   3.978   4.590   5.152 -1.5111 -0.0981 -0.8437
 6591SOL    HW326131   3.850   4.516   5.183 -0.9616  0.0912  2.1754
 6591SOL    MW426132   3.931   4.539   5.204 -0.4420  0.0921  0.3500
 6592SOL     OW26133   3.595   2.621   2.199 -0.1069  0.0325 -0.2783
 6592SOL    HW226134   3.656   2.694   2.208 -0.4025  0.1552  0.7990
 6592SOL    HW326135   3.517   2.660   2.160 -0.0758  0.1848 -0.1886
 6592SOL    MW426136   3.593   2.636   2.195 -0.1418  0.0688 -0.1243
 6593SOL     OW26137   3.629   2.497   0.933  0.1574  0.3674 -0.2595
 6593SOL    HW226138   3.639   2.438   1.009 -0.1335  1.6100  0.7826
 6593SOL    HW326139   3.541   2.533   0.943  1.1051  2.6597  0.4032
 6593SOL    MW426140   3.618   2.494   0.945  0.2440  0.8338 -0.0346
 6594SOL     OW26141   5.025   4.211   0.451 -0.1045 -0.3993  0.7300
 6594SOL    HW226142   5.095   4.230   0.389 -2.0142  1.1203 -1.1024
 6594SOL    HW326143   5.034   4.117   0.468  2.5582 -0.1966  0.8930
 6594SOL    MW426144   5.035   4.201   0.445 -0.0052 -0.1721  0.5097
 6595SOL     OW26145   2.691   0.439   6.072 -0.0907  0.0383  0.6416
 6595SOL    HW226146   2.778   0.398   6.081  0.9911  2.2627  0.9892
 6595SOL    HW326147   2.709   0.533   6.075 -2.4136  0.5769 -0.5059
 6595SOL    MW426148   2.705   0.446   6.074 -0.2544  0.4029  0.5360
 6596SOL     OW26149   2.418   5.451   4.427 -0.0744  0.5024 -0.4173
 6596SOL    HW226150   2.486   5.445   4.493 -0.5425  1.7747  0.2208
 6596SOL    HW326151   2.465   5.462   4.344  0.5043  1.1313 -0.0126
 6596SOL    MW426152   2.433   5.452   4.425 -0.0598  0.7532 -0.2797
 6597SOL     OW26153   6.201   3.647   5.451 -0.0549 -0.2079 -0.0819
 6597SOL    HW226154   6.243   3.726   5.484 -1.8127  1.0272 -0.6733
 6597SOL    HW326155   6.246   3.629   5.368  0.1512  0.3469 -0.0954
 6597SOL    MW426156   6.213   3.655   5.444 -0.2596  0.0282 -0.1617
 6598SOL     OW26157   2.655   2.590   0.981 -0.1850 -0.6177 -0.0643
 6598SOL    HW226158   2.665   2.679   0.948 -0.2039 -0.9856 -1.1092
 6598SOL    HW326159   2.577   2.593   1.036 -0.2292 -0.0044 -0.1571
 6598SOL    MW426160   2.646   2.602   0.984 -0.1933 -0.5853 -0.2144
 6599SOL     OW26161   2.202   6.390   0.976 -0.4548 -0.4089 -0.2030
 6599SOL    HW226162   2.141   6.458   0.947 -0.4232  0.0087  0.6749
 6599SOL    HW326163   2.206   6.401   1.071  1.3955 -0.0620 -0.2792
 6599SOL    MW426164   2.195   6.401   0.985 -0.2065 -0.3080 -0.0973
 6600SOL     OW26165   1.852   2.874   4.152 -0.6301 -0.5402  0.4424
 6600SOL    HW226166   1.913   2.932   4.197 -0.8143 -0.2274  0.2952
 6600SOL    HW326167   1.804   2.829   4.222 -0.3692 -0.6384  0.5569
 6600SOL    MW426168   1.854   2.876   4.167 -0.6200 -0.5119  0.4381
 6601SOL     OW26169   2.224   2.632   6.213  0.7213 -0.1371 -0.1017
 6601SOL    HW226170   2.261   2.557   6.166  1.5500  0.0168  0.2795
 6601SOL    HW326171   2.298   2.692   6.223 -0.0370  0.9763 -0.8580
 6601SOL    MW426172   2.239   2.630   6.208  0.7306  0.0301 -0.1512
 6602SOL     OW26173   5.552   2.688   5.230  0.9923 -0.0808 -0.0510
 6602SOL    HW226174   5.595   2.764   5.192  1.8102 -0.2272  0.5263
 6602SOL    HW326175   5.459   2.700   5.213  1.2932  0.0051 -1.7855
 6602SOL    MW426176   5.546   2.699   5.223  1.1399 -0.0888 -0.2037
 6603SOL     OW26177   6.139   0.105   2.359  0.3451 -0.6300 -0.3271
 6603SOL    HW226178   6.148   0.199   2.376 -1.3996 -0.4496 -0.1886
 6603SOL    HW326179   6.222   0.067   2.386  0.4152  0.6489  1.3912
 6603SOL    MW426180   6.151   0.112   2.365  0.1242 -0.4375 -0.0821
 6604SOL     OW26181   1.656   6.357   1.374 -0.1386  0.2312  0.1231
 6604SOL    HW226182   1.650   6.398   1.460 -0.3004 -0.3795  0.4124
 6604SOL    HW326183   1.737   6.391   1.336  2.0459 -2.3232  2.0693
 6604SOL    MW426184   1.666   6.367   1.380  0.1283 -0.1864  0.4180
 6605SOL     OW26185   0.490   1.665   0.760 -0.5577  0.1815  0.0803
 6605SOL    HW226186   0.396   1.677   0.746 -0.6085  1.9959  1.5456
 6605SOL    HW326187   0.514   1.733   0.823  1.3669 -1.4315  1.2422
 6605SOL    MW426188   0.481   1.675   0.767 -0.3105  0.2081  0.4269
 6606SOL     OW26189   6.232   0.882   3.821  0.1616 -0.7402 -0.3066
 6606SOL    HW226190   6.278   0.951   3.774 -0.0787 -0.2181  0.2219
 6606SOL    HW326191   6.149   0.873   3.773 -0.4414  0.3673  0.4815
 6606SOL    MW426192   6.227   0.890   3.808  0.0503 -0.5252 -0.1329
 6607SOL     OW26193   1.125   5.680   5.595  0.5781 -0.0391  0.3140
 6607SOL    HW226194   1.042   5.716   5.628 -0.1972 -1.9560  0.5793
 6607SOL    HW326195   1.176   5.660   5.673  0.8813  0.1977  0.1800
 6607SOL    MW426196   1.121   5.682   5.609  0.5158 -0.2608  0.3313
 6608SOL     OW26197   1.892   4.757   5.894 -0.4169  0.0023  0.2844
 6608SOL    HW226198   1.839   4.757   5.815 -1.3799 -0.9600  0.9139
 6608SOL    HW326199   1.860   4.832   5.945 -0.4883  0.0160  0.2180
 6608SOL    MW426200   1.881   4.767   5.890 -0.5534 -0.1229  0.3587
 6609SOL     OW26201   5.746   6.015   2.349  0.2624 -0.0795 -0.0572
 6609SOL    HW226202   5.775   6.037   2.261 -0.9879 -0.0455 -0.4793
 6609SOL    HW326203   5.688   6.087   2.375 -2.6219 -1.9359 -0.8480
 6609SOL    MW426204   5.742   6.027   2.341 -0.2831 -0.3199 -0.2172
 6610SOL     OW26205   0.378   5.574   5.178 -0.2646  0.2607 -0.0454
 6610SOL    HW226206   0.362   5.479   5.171 -0.0191  0.1918  0.3090
 6610SOL    HW326207   0.458   5.588   5.128 -0.8854  0.4586 -1.0203
 6610SOL    MW426208   0.386   5.563   5.170 -0.3141  0.2777 -0.1273
 6611SOL     OW26209   5.658   0.322   5.555 -0.3220  0.6069  0.0089
 6611SOL    HW226210   5.591   0.265   5.592 -0.2183  0.7501  0.4190
 6611SOL    HW326211   5.610   0.383   5.499 -0.3066 -0.8042 -1.6381
 6611SOL    MW426212   5.643   0.322   5.552 -0.3063  0.4396 -0.1543
 6612SOL     OW26213   0.280   4.404   5.446 -0.0658 -0.5575 -0.1180
 6612SOL    HW226214   0.365   4.366   5.422 -0.5417 -0.7745 -1.5261
 6612SOL    HW326215   0.272   4.481   5.391 -0.8161 -0.5814 -0.0475
 6612SOL    MW426216   0.290   4.409   5.436 -0.2276 -0.5893 -0.2945
 6613SOL     OW26217   0.309   0.070   3.346  0.0491 -0.3881 -0.5367
 6613SOL    HW226218   0.371   0.140   3.330 -0.3954 -0.1005 -1.0255
 6613SOL    HW326219   0.247   0.075   3.273 -0.9508 -0.2146  0.2983
 6613SOL    MW426220   0.309   0.080   3.334 -0.1414 -0.3273 -0.4910
 6614SOL     OW26221   3.501   2.512   0.283 -0.5049 -0.0427 -0.0809
 6614SOL    HW226222   3.490   2.417   0.282 -0.5280 -0.0410  0.0065
 6614SOL    HW326223   3.543   2.532   0.199  0.4540 -0.2486  0.3393
 6614SOL    MW426224   3.505   2.502   0.272 -0.3815 -0.0696 -0.0139
 6615SOL     OW26225   5.157   1.570   0.698 -0.6188 -0.1055 -0.1109
 6615SOL    HW226226   5.216   1.604   0.766 -1.1820  0.5267  0.0662
 6615SOL    HW326227   5.208   1.573   0.618  0.5674 -2.1799  0.4696
 6615SOL    MW426228   5.171   1.575   0.697 -0.5366 -0.2958 -0.0109
 6616SOL     OW26229   5.198   5.345   2.923 -0.0238  0.5639  0.1981
 6616SOL    HW226230   5.171   5.370   2.835 -0.5057 -2.9476 -0.8025
 6616SOL    HW326231   5.293   5.330   2.915  0.1501  1.3889  0.6197
 6616SOL    MW426232   5.207   5.346   2.910 -0.0644  0.2095  0.1217
 6617SOL     OW26233   4.533   0.318   6.133 -0.5608 -0.4366  0.2278
 6617SOL    HW226234   4.467   0.253   6.110 -0.8625 -0.6623  1.6204
 6617SOL    HW326235   4.617   0.276   6.112 -0.7428 -1.3666  1.2441
 6617SOL    MW426236   4.535   0.304   6.127 -0.6246 -0.5890  0.5456
 6618SOL     OW26237   0.751   4.240   2.326 -0.3864  0.4647 -0.1190
 6618SOL    HW226238   0.688   4.295   2.371 -0.3638 -0.6351  1.3419
 6618SOL    HW326239   0.837   4.275   2.351 -0.3343  2.2359 -2.4573
 6618SOL    MW426240   0.754   4.252   2.336 -0.3766  0.5533 -0.2348
 6619SOL     OW26241   6.130   4.700   4.371 -0.5094  0.3146  0.4186
 6619SOL    HW226242   6.052   4.644   4.369  0.1706 -0.7616  2.0259
 6619SOL    HW326243   6.200   4.646   4.333 -0.6852  1.6587 -2.0741
 6619SOL    MW426244   6.129   4.686   4.365 -0.4429  0.3500  0.3018
 6620SOL     OW26245   2.848   6.217   2.101  0.3348 -0.1096  0.1698
 6620SOL    HW226246   2.936   6.254   2.093  0.8899 -1.1826  1.0450
 6620SOL    HW326247   2.852   6.135   2.052 -0.2276 -0.1035  0.1061
 6620SOL    MW426248   2.860   6.211   2.094  0.3339 -0.2504  0.2769
 6621SOL     OW26249   5.146   5.210   1.115  0.0222  0.4507  0.6858
 6621SOL    HW226250   5.057   5.209   1.078  0.5141  0.3828 -0.5581
 6621SOL    HW326251   5.181   5.295   1.091  0.4429  0.3078  0.7894
 6621SOL    MW426252   5.139   5.221   1.107  0.1426  0.4229  0.5353
 6622SOL     OW26253   0.137   1.230   2.222 -0.1080 -0.4732 -0.6295
 6622SOL    HW226254   0.190   1.275   2.156  1.0415  0.3702  0.8215
 6622SOL    HW326255   0.064   1.290   2.238  1.0265  0.5957  0.7583
 6622SOL    MW426256   0.134   1.244   2.215  0.1934 -0.2209 -0.2549
 6623SOL     OW26257   2.686   2.541   6.141  0.2562  0.0734 -0.4841
 6623SOL    HW226258   2.751   2.608   6.118 -0.1062  1.0517  1.1529
 6623SOL    HW326259   2.670   2.555   6.234 -0.1568 -2.0534 -0.1805
 6623SOL    MW426260   2.693   2.552   6.151  0.1539 -0.0781 -0.2281
 6624SOL     OW26261   3.314   0.429   5.762  0.3872 -0.7446 -0.1722
 6624SOL    HW226262   3.312   0.429   5.666  0.6669  0.3056 -0.1903
 6624SOL    HW326263   3.402   0.459   5.784  0.3707 -1.1103  0.4247
 6624SOL    MW426264   3.325   0.433   5.752  0.4219 -0.6543 -0.0958
 6625SOL     OW26265   4.533   1.661   4.708 -0.1699  0.3623  0.0841
 6625SOL    HW226266   4.557   1.708   4.629 -1.4208  0.2218 -0.4011
 6625SOL    HW326267   4.456   1.708   4.741 -0.6283 -0.5420  0.3224
 6625SOL    MW426268   4.526   1.674   4.702 -0.3954  0.2244  0.0515
 6626SOL     OW26269   5.884   3.007   2.838 -0.7451 -0.1624 -0.9277
 6626SOL    HW226270   5.847   3.053   2.914 -1.5005 -1.2448 -0.6132
 6626SOL    HW326271   5.979   3.012   2.852 -0.7173  2.2806 -1.5212
 6626SOL    MW426272   5.892   3.014   2.850 -0.8411  0.0171 -0.9645
 6627SOL     OW26273   5.884   2.322   3.033 -0.4494  0.0269  0.6931
 6627SOL    HW226274   5.975   2.317   3.003 -0.9016  0.4714 -0.8376
 6627SOL    HW326275   5.888   2.291   3.123  1.2268  0.0799  0.6843
 6627SOL    MW426276   5.897   2.317   3.041 -0.2879  0.0925  0.4899
 6628SOL     OW26277   1.307   6.322   5.644 -0.1808 -0.2877  0.3253
 6628SOL    HW226278   1.336   6.414   5.639 -1.8159  0.1845 -1.4812
 6628SOL    HW326279   1.297   6.295   5.553 -3.3802 -1.0301  0.7742
 6628SOL    MW426280   1.310   6.331   5.631 -0.8186 -0.3234  0.1462
 6629SOL     OW26281   4.990   4.689   5.926 -0.3648  0.3698 -0.4256
 6629SOL    HW226282   5.056   4.753   5.952  0.6474 -0.0474 -1.8361
 6629SOL    HW326283   5.034   4.604   5.939 -0.4000  0.1070 -1.9221
 6629SOL    MW426284   5.004   4.686   5.931 -0.2359  0.2801 -0.8091
 6630SOL     OW26285   4.156   1.026   6.261 -0.0460 -0.5560  0.2567
 6630SOL    HW226286   4.235   1.043   6.314 -0.2133 -1.9094  0.9907
 6630SOL    HW326287   4.085   1.067   6.311 -0.0823 -1.0995  0.6653
 6630SOL    MW426288   4.157   1.033   6.275 -0.0729 -0.8062  0.4075
 6631SOL     OW26289   4.189   1.435   0.992  0.1307 -0.1288 -0.4751
 6631SOL    HW226290   4.163   1.426   0.900  2.2442 -0.1391 -1.1089
 6631SOL    HW326291   4.184   1.529   1.009 -1.6348 -0.2416 -0.1223
 6631SOL    MW426292   4.185   1.446   0.982  0.1766 -0.1451 -0.5122
 6632SOL     OW26293   2.156   4.322   5.003 -0.0412 -0.0954  0.6542
 6632SOL    HW226294   2.064   4.340   4.984  0.1376 -1.4416 -1.8471
 6632SOL    HW326295   2.176   4.379   5.077 -2.3941  1.5532  0.1449
 6632SOL    MW426296   2.147   4.332   5.011 -0.3281 -0.0555  0.2569
 6633SOL     OW26297   6.006   4.998   3.235  0.1424  0.3178  0.2648
 6633SOL    HW226298   6.096   5.017   3.262 -0.5696  1.0895  2.2907
 6633SOL    HW326299   5.960   4.980   3.317 -1.6300  0.2783 -0.6923
 6633SOL    MW426300   6.012   4.998   3.249 -0.1854  0.4144  0.4058
 6634SOL     OW26301   3.494   2.129   5.755  0.2661  0.0798  0.3269
 6634SOL    HW226302   3.457   2.050   5.717  1.5015  0.4689 -1.8682
 6634SOL    HW326303   3.583   2.104   5.782 -0.2316  0.0852  2.1287
 6634SOL    MW426304   3.501   2.116   5.754  0.3634  0.1318  0.2750
 6635SOL     OW26305   2.068   3.929   0.333 -0.3306  0.1691  0.3061
 6635SOL    HW226306   2.006   3.861   0.360  0.0371 -0.7676 -1.1044
 6635SOL    HW326307   2.135   3.929   0.402  0.4788 -2.0206 -0.3791
 6635SOL    MW426308   2.069   3.920   0.346 -0.1753 -0.2434  0.0296
 6636SOL     OW26309   2.385   4.140   3.874  0.2480  0.1023  0.0108
 6636SOL    HW226310   2.359   4.125   3.783  1.5558 -0.3243 -0.3126
 6636SOL    HW326311   2.398   4.053   3.911 -0.4438  0.2653  0.6777
 6636SOL    MW426312   2.383   4.126   3.867  0.3293  0.0675  0.0561
 6637SOL     OW26313   2.295   4.310   1.487 -0.2741  0.4351 -0.2212
 6637SOL    HW226314   2.291   4.368   1.411  0.2721  2.5284  1.2447
 6637SOL    HW326315   2.236   4.238   1.466 -1.3530  1.7513 -1.9800
 6637SOL    MW426316   2.286   4.308   1.474 -0.3444  0.8849 -0.2598
 6638SOL     OW26317   3.562   6.120   6.457  0.3537 -0.0401  0.2325
 6638SOL    HW226318   3.516   6.054   6.508  2.7602 -2.3396 -0.3633
 6638SOL    HW326319   3.554   6.090   6.366 -1.1149  2.2538 -0.4989
 6638SOL    MW426320   3.555   6.108   6.452  0.4775 -0.0408  0.0574
 6639SOL     OW26321   6.200   1.622   1.625 -0.4188 -0.1093  0.4165
 6639SOL    HW226322   6.258   1.551   1.650 -1.2752 -1.0003 -0.0846
 6639SOL    HW326323   6.157   1.648   1.707 -0.8362 -0.8389  0.4303
 6639SOL    MW426324   6.202   1.616   1.639 -0.5868 -0.3231  0.3522
 6640SOL     OW26325   5.198   3.219   0.806  0.7598 -0.1967 -0.4176
 6640SOL    HW226326   5.127   3.227   0.742 -0.4495 -0.7303  0.8159
 6640SOL    HW326327   5.193   3.301   0.856  1.9662  0.4004 -1.2224
 6640SOL    MW426328   5.188   3.231   0.804  0.7594 -0.1883 -0.3611
 6641SOL     OW26329   3.244   4.484   2.253 -0.5055  0.6890 -0.2282
 6641SOL    HW226330   3.317   4.543   2.237  0.5342  0.2853  2.4596
 6641SOL    HW326331   3.283   4.411   2.302 -2.6286  0.3577  1.1122
 6641SOL    MW426332   3.259   4.482   2.258 -0.6484  0.5920  0.3033
 6642SOL     OW26333   3.736   3.121   2.055 -0.0542 -0.0120  0.0867
 6642SOL    HW226334   3.668   3.059   2.082  0.7787 -1.4208 -0.9322
 6642SOL    HW326335   3.791   3.072   1.995  0.7040  1.7168 -0.6947
 6642SOL    MW426336   3.734   3.106   2.051  0.1557  0.0302 -0.1509
 6643SOL     OW26337   4.265   4.436   2.126  0.5346  0.5024  0.3928
 6643SOL    HW226338   4.328   4.397   2.186  0.3445 -0.3005  0.0834
 6643SOL    HW326339   4.285   4.397   2.041 -1.3275 -0.9396  0.5585
 6643SOL    MW426340   4.276   4.426   2.123  0.2639  0.2063  0.3738
 6644SOL     OW26341   1.798   3.269   2.699  0.0331 -0.2611 -0.5250
 6644SOL    HW226342   1.877   3.219   2.719  0.7258  1.1511  0.4119
 6644SOL    HW326343   1.750   3.273   2.782 -0.5930 -0.3361 -0.8738
 6644SOL    MW426344   1.802   3.263   2.713  0.0419 -0.0847 -0.4474
 6645SOL     OW26345   0.774   0.772   0.808  0.5444  0.2457 -0.1946
 6645SOL    HW226346   0.715   0.705   0.843  0.1289  0.1060 -1.1264
 6645SOL    HW326347   0.725   0.854   0.818  0.0826  0.1006 -1.1756
 6645SOL    MW426348   0.760   0.774   0.814  0.4286  0.2081 -0.4470
 6646SOL     OW26349   4.699   5.477   0.879 -0.1057 -0.8470  0.3888
 6646SOL    HW226350   4.762   5.540   0.844  0.1841 -1.1690  0.3298
 6646SOL    HW326351   4.712   5.479   0.974  0.0511 -0.9720  0.3706
 6646SOL    MW426352   4.709   5.485   0.887 -0.0468 -0.9060  0.3786
 6647SOL     OW26353   2.606   4.423   1.320 -0.9724 -0.0143  0.0357
 6647SOL    HW226354   2.656   4.404   1.241 -0.6505 -1.1769  0.4956
 6647SOL    HW326355   2.660   4.486   1.368 -0.9816  0.3888 -0.4729
 6647SOL    MW426356   2.619   4.429   1.316 -0.9311 -0.1145  0.0293
 6648SOL     OW26357   2.314   6.161   4.395 -0.1882  0.0898  0.1452
 6648SOL    HW226358   2.329   6.110   4.316 -0.9640  1.2830 -0.8026
 6648SOL    HW326359   2.219   6.164   4.404 -0.1357  0.8661  0.5179
 6648SOL    MW426360   2.304   6.155   4.386 -0.2836  0.3497  0.0693
 6649SOL     OW26361   4.801   1.842   0.228  0.2019  0.1536  0.3466
 6649SOL    HW226362   4.878   1.888   0.194  0.8143 -1.0648  0.0344
 6649SOL    HW326363   4.747   1.911   0.267  1.5688  1.0031  0.8116
 6649SOL    MW426364   4.804   1.857   0.229  0.4630  0.1049  0.3667
 6650SOL     OW26365   5.093   5.123   3.706 -0.2481  0.7341  0.7756
 6650SOL    HW226366   5.186   5.146   3.713  0.0888 -0.6138  1.0274
 6650SOL    HW326367   5.080   5.106   3.613  0.5561 -2.0439  1.0848
 6650SOL    MW426368   5.104   5.124   3.695 -0.0975  0.1897  0.8496
 6651SOL     OW26369   3.812   1.543   2.964  0.3413  0.3296 -0.7147
 6651SOL    HW226370   3.782   1.457   2.992  1.3867 -0.0786 -0.8117
 6651SOL    HW326371   3.733   1.586   2.930 -0.2513 -0.4612 -0.3755
 6651SOL    MW426372   3.798   1.538   2.963  0.4010  0.1714 -0.6828
 6652SOL     OW26373   1.428   6.170   2.705 -0.4687  0.3385 -0.0060
 6652SOL    HW226374   1.480   6.214   2.637 -1.6770 -1.1016 -1.9562
 6652SOL    HW326375   1.452   6.077   2.697 -0.7236  0.1148  1.4983
 6652SOL    MW426376   1.438   6.163   2.695 -0.6617  0.1190 -0.0648
 6653SOL     OW26377   4.186   6.469   1.629 -0.2258  1.2812  0.4219
 6653SOL    HW226378   4.149   6.432   1.549 -2.0860  1.1992  1.2695
 6653SOL    HW326379   4.267   6.419   1.643 -1.2576 -0.5966  0.0424
 6653SOL    MW426380   4.192   6.457   1.621 -0.6073  1.0226  0.4837
 6654SOL     OW26381   5.076   4.982   4.363 -0.3803 -0.0114  0.0257
 6654SOL    HW226382   5.065   5.049   4.431 -3.2549 -0.0542 -0.2879
 6654SOL    HW326383   5.035   5.021   4.286  0.4750 -1.0376 -0.9704
 6654SOL    MW426384   5.069   4.996   4.362 -0.6467 -0.1524 -0.1471
 6655SOL     OW26385   2.461   4.039   0.592 -0.3627 -0.2583  0.2456
 6655SOL    HW226386   2.541   3.988   0.581  0.1248  0.5056  0.1849
 6655SOL    HW326387   2.454   4.053   0.686  1.3277  2.3458  0.0995
 6655SOL    MW426388   2.471   4.034   0.603 -0.0754  0.1861  0.2183
 6656SOL     OW26389   1.896   2.036   5.325  0.3107  0.0673  0.5809
 6656SOL    HW226390   1.817   2.089   5.320  0.7206  0.9093  2.3196
 6656SOL    HW326391   1.939   2.063   5.407  2.8313  0.2554 -0.6923
 6656SOL    MW426392   1.891   2.047   5.335  0.6973  0.2032  0.6423
 6657SOL     OW26393   6.188   1.672   4.765  0.0820  0.5921 -0.2718
 6657SOL    HW226394   6.104   1.709   4.793 -0.9802 -1.3915 -0.6445
 6657SOL    HW326395   6.223   1.737   4.704 -1.0622  1.5869  0.0911
 6657SOL    MW426396   6.181   1.685   4.760 -0.2091  0.4616 -0.2731
 6658SOL     OW26397   6.370   2.873   4.562  0.1042  0.1698 -0.2741
 6658SOL    HW226398   6.457   2.862   4.524  0.5970  2.2253  0.1585
 6658SOL    HW326399   6.376   2.831   4.648  0.3560 -0.5441 -0.6333
 6658SOL    MW426400   6.382   2.866   4.568  0.2024  0.3468 -0.2644
 6659SOL     OW26401   3.770   3.105   3.309  0.1852  0.0737  0.1298
 6659SOL    HW226402   3.833   3.160   3.262 -1.8493  1.8863 -0.6825
 6659SOL    HW326403   3.788   3.122   3.401  0.9827  0.4484 -0.0816
 6659SOL    MW426404   3.781   3.115   3.315  0.0220  0.3623 -0.0053
 6660SOL     OW26405   1.662   4.274   4.149  0.5600 -0.0031 -0.4259
 6660SOL    HW226406   1.634   4.184   4.165 -0.1778 -0.0247 -1.7560
 6660SOL    HW326407   1.615   4.326   4.214  2.1466 -0.7058  1.3716
 6660SOL    MW426408   1.652   4.269   4.160  0.6720 -0.0986 -0.3642
 6661SOL     OW26409   1.779   1.896   0.717 -0.3755  0.0026 -0.0983
 6661SOL    HW226410   1.768   1.913   0.623  1.0464  0.3242 -0.2320
 6661SOL    HW326411   1.861   1.941   0.740 -0.7323 -0.0225  1.3144
 6661SOL    MW426412   1.788   1.905   0.707 -0.2350  0.0417  0.0704
 6662SOL     OW26413   0.897   6.337   2.269 -0.2293 -0.2554 -0.0298
 6662SOL    HW226414   0.900   6.429   2.295  0.1429  0.0361 -1.0698
 6662SOL    HW326415   0.917   6.289   2.349 -2.8097  0.4462  1.1420
 6662SOL    MW426416   0.900   6.343   2.283 -0.5206 -0.1244 -0.0124
 6663SOL     OW26417   2.099   0.912   1.211  0.0792 -0.1236  0.0398
 6663SOL    HW226418   2.077   1.001   1.240  0.1140 -0.0035 -0.2938
 6663SOL    HW326419   2.054   0.904   1.127 -1.3897 -1.0537  0.8683
 6663SOL    MW426420   2.090   0.923   1.204 -0.1100 -0.2305  0.1051
 6664SOL     OW26421   4.667   5.756   2.218  0.1274 -0.1056 -0.1339
 6664SOL    HW226422   4.582   5.799   2.216  0.7056  1.1857  1.1578
 6664SOL    HW326423   4.728   5.822   2.183  0.7643 -0.5669  0.0830
 6664SOL    MW426424   4.664   5.770   2.213  0.2877  0.0039  0.0652
 6665SOL     OW26425   1.738   4.221   0.323 -0.0943  0.1179  0.0457
 6665SOL    HW226426   1.811   4.193   0.379 -0.3478  1.2650  0.9828
 6665SOL    HW326427   1.698   4.139   0.295  0.7239 -0.5076  0.6361
 6665SOL    MW426428   1.743   4.206   0.327 -0.0198  0.1867  0.2473
 6666SOL     OW26429   4.316   5.959   5.280  0.4876  0.4935  0.0218
 6666SOL    HW226430   4.365   5.977   5.360  0.0749 -0.2144  0.4469
 6666SOL    HW326431   4.345   5.872   5.252 -0.2916  0.1892  0.1184
 6666SOL    MW426432   4.326   5.950   5.287  0.3304  0.3599  0.0906
 6667SOL     OW26433   4.509   4.732   4.583 -0.7792  0.7924 -0.1490
 6667SOL    HW226434   4.449   4.677   4.633 -0.8851  1.3259  0.3299
 6667SOL    HW326435   4.481   4.723   4.492 -0.7169 -0.0286 -0.0948
 6667SOL    MW426436   4.498   4.724   4.578 -0.7849  0.7545 -0.0787
 6668SOL     OW26437   5.597   5.880   3.016 -0.3056 -0.2134 -0.1583
 6668SOL    HW226438   5.554   5.796   3.001 -1.6866  0.6625 -1.2852
 6668SOL    HW326439   5.603   5.920   2.930 -0.5013  1.2571  0.4807
 6668SOL    MW426440   5.592   5.874   3.003 -0.5136  0.0962 -0.2226
 6669SOL     OW26441   1.718   0.192   3.161  0.1930  0.3325 -0.8939
 6669SOL    HW226442   1.804   0.182   3.120  1.2747  0.4129  1.2526
 6669SOL    HW326443   1.710   0.286   3.176 -0.0356  0.2628 -0.5925
 6669SOL    MW426444   1.728   0.203   3.157  0.3056  0.3339 -0.5709
 6670SOL     OW26445   3.902   6.079   3.788  0.8629  0.4320  0.3122
 6670SOL    HW226446   3.987   6.046   3.816  1.3422  0.2337 -1.3288
 6670SOL    HW326447   3.857   6.002   3.752  0.7050  0.8891 -0.4934
 6670SOL    MW426448   3.907   6.064   3.787  0.9053  0.4662 -0.0106
 6671SOL     OW26449   5.026   4.920   0.402  0.3065 -0.1267  0.4318
 6671SOL    HW226450   5.108   4.929   0.450  0.6540  1.4655 -0.4089
 6671SOL    HW326451   5.036   4.838   0.353  2.2418  0.9804 -1.1756
 6671SOL    MW426452   5.038   4.911   0.402  0.6077  0.2294  0.1088
 6672SOL     OW26453   1.456   4.665   2.058  0.3845  0.3042 -0.2507
 6672SOL    HW226454   1.369   4.647   2.093  1.3439 -0.1406  2.0616
 6672SOL    HW326455   1.516   4.645   2.130  2.5816 -1.5075 -2.4115
 6672SOL    MW426456   1.453   4.660   2.072  0.8010  0.0065 -0.2307
 6673SOL     OW26457   4.953   2.665   1.061  0.1794 -0.3643  0.1105
 6673SOL    HW226458   5.008   2.687   0.986  0.6828 -0.2311  0.5098
 6673SOL    HW326459   5.002   2.597   1.108  0.2195  0.0693  0.7085
 6673SOL    MW426460   4.967   2.659   1.057  0.2511 -0.2895  0.2421
 6674SOL     OW26461   3.216   3.397   4.809 -0.0638  0.5803  0.4230
 6674SOL    HW226462   3.122   3.390   4.824 -0.1241 -1.0302 -0.4020
 6674SOL    HW326463   3.247   3.306   4.809  1.2827  1.0034 -0.4862
 6674SOL    MW426464   3.208   3.384   4.811  0.1059  0.4237  0.1942
 6675SOL     OW26465   4.507   5.093   4.819  0.8069  0.0141 -0.0261
 6675SOL    HW226466   4.440   5.102   4.751  1.4913 -0.3170 -0.7658
 6675SOL    HW326467   4.463   5.047   4.890  0.1722  0.0324 -0.3961
 6675SOL    MW426468   4.492   5.088   4.819  0.8135 -0.0271 -0.1725
 6676SOL     OW26469   3.868   2.948   5.439 -0.3448  0.3092  0.0500
 6676SOL    HW226470   3.885   3.026   5.491 -0.0967  0.5733 -0.4178
 6676SOL    HW326471   3.954   2.924   5.403  0.1383 -1.7502  2.3100
 6676SOL    MW426472   3.882   2.955   5.441 -0.2483  0.0724  0.2864
 6677SOL     OW26473   2.211   5.226   0.905  0.0267 -0.2093 -0.0708
 6677SOL    HW226474   2.161   5.193   0.980 -1.2115 -2.1469 -1.6238
 6677SOL    HW326475   2.277   5.160   0.889  0.0485 -0.0047 -0.8870
 6677SOL    MW426476   2.213   5.213   0.913 -0.1338 -0.4379 -0.3834
 6678SOL     OW26477   1.044   1.865   3.365  0.2886 -0.2616 -0.1940
 6678SOL    HW226478   0.990   1.930   3.409 -0.0233 -0.0183 -0.9128
 6678SOL    HW326479   1.000   1.851   3.281  1.0442 -0.4739 -0.5582
 6678SOL    MW426480   1.031   1.872   3.360  0.3472 -0.2575 -0.3369
 6679SOL     OW26481   5.334   4.750   1.651 -0.5711  0.2448  0.1924
 6679SOL    HW226482   5.325   4.694   1.574 -1.2736 -0.3041  0.6675
 6679SOL    HW326483   5.331   4.839   1.616 -0.3442  0.0007 -0.4680
 6679SOL    MW426484   5.333   4.754   1.636 -0.6338  0.1402  0.1680
 6680SOL     OW26485   2.412   2.139   2.027 -0.0721  0.1928 -0.0255
 6680SOL    HW226486   2.350   2.185   2.084 -0.1659  0.3351 -0.2418
 6680SOL    HW326487   2.491   2.128   2.080  0.8207  2.6580 -0.7100
 6680SOL    MW426488   2.414   2.144   2.041  0.0333  0.5368 -0.1444
 6681SOL     OW26489   5.659   1.918   1.490 -0.2325 -0.2907  0.5932
 6681SOL    HW226490   5.614   1.836   1.467  0.9232 -1.1771  1.3951
 6681SOL    HW326491   5.605   1.956   1.560 -1.0529 -0.0783 -0.1283
 6681SOL    MW426492   5.646   1.912   1.496 -0.1882 -0.3796  0.6038
 6682SOL     OW26493   1.334   3.365   3.312 -0.5332  0.1102 -0.3845
 6682SOL    HW226494   1.257   3.407   3.350 -0.9381  0.3770 -1.4589
 6682SOL    HW326495   1.341   3.282   3.358 -2.9611 -1.0613 -1.8739
 6682SOL    MW426496   1.324   3.360   3.323 -0.9070 -0.0092 -0.7228
 6683SOL     OW26497   4.411   4.529   1.733 -0.8617 -0.5710 -0.8565
 6683SOL    HW226498   4.449   4.606   1.776  2.9402 -1.9069 -1.4231
 6683SOL    HW326499   4.398   4.466   1.804  1.2291 -1.2368 -1.0122
 6683SOL    MW426500   4.414   4.531   1.748 -0.0842 -0.8351 -0.9518
 6684SOL     OW26501   0.471   4.790   6.051  0.4312  0.0973  0.4553
 6684SOL    HW226502   0.408   4.718   6.051  0.2894  0.2216  0.2611
 6684SOL    HW326503   0.503   4.794   5.961  1.5628 -0.7063  0.7970
 6684SOL    MW426504   0.467   4.781   6.039  0.5618  0.0077  0.4748
 6685SOL     OW26505   0.926   4.840   6.422 -0.0796 -0.1668  0.2199
 6685SOL    HW226506   0.982   4.800   6.489 -0.5862 -0.2409  0.6113
 6685SOL    HW326507   0.860   4.773   6.403  0.3037 -0.2995 -0.6615
 6685SOL    MW426508   0.924   4.826   6.428 -0.0959 -0.1941  0.1553
 6686SOL     OW26509   0.115   3.372   1.069  0.0980  0.4493  0.4837
 6686SOL    HW226510   0.197   3.410   1.102  1.3812  0.7969 -2.7544
 6686SOL    HW326511   0.054   3.446   1.066 -0.5708  0.1284  3.2081
 6686SOL    MW426512   0.118   3.387   1.073  0.1790  0.4528  0.4159
 6687SOL     OW26513   3.056   4.947   5.287 -0.3682 -0.0824 -0.4363
 6687SOL    HW226514   3.026   5.004   5.217 -1.2726 -1.8030 -1.5144
 6687SOL    HW326515   3.105   4.878   5.242  1.3240  0.1608  0.8910
 6687SOL    MW426516   3.059   4.946   5.272 -0.2643 -0.2773 -0.4034
 6688SOL     OW26517   0.151   5.692   2.737  0.1932 -0.0571 -0.0953
 6688SOL    HW226518   0.113   5.755   2.797  0.4483 -1.0812  1.1842
 6688SOL    HW326519   0.232   5.734   2.706 -0.8771  1.2554 -1.2350
 6688SOL    MW426520   0.157   5.706   2.741  0.0856 -0.0190 -0.0769
 6689SOL     OW26521   5.492   4.322   4.784  0.0160 -0.5755 -0.1790
 6689SOL    HW226522   5.398   4.328   4.801  0.1839  1.9869  0.1872
 6689SOL    HW326523   5.533   4.339   4.869  0.8857 -3.2656  0.0469
 6689SOL    MW426524   5.485   4.325   4.798  0.1529 -0.5924 -0.1009
 6690SOL     OW26525   1.694   3.427   5.891  0.2209  0.3284 -0.2530
 6690SOL    HW226526   1.673   3.345   5.936  1.2716  0.4347  0.4745
 6690SOL    HW326527   1.760   3.402   5.826  0.7844  0.6319  0.1897
 6690SOL    MW426528   1.700   3.413   5.888  0.4339  0.3825 -0.0986
 6691SOL     OW26529   4.233   2.331   0.713  0.0733 -0.1901 -0.5498
 6691SOL    HW226530   4.295   2.333   0.785  1.1609 -0.0018 -1.4664
 6691SOL    HW326531   4.179   2.254   0.729 -0.1015  0.1876  0.7754
 6691SOL    MW426532   4.234   2.321   0.724  0.1938 -0.1154 -0.4959
 6692SOL     OW26533   6.038   2.895   1.495  0.8273 -0.4310 -0.0823
 6692SOL    HW226534   5.974   2.966   1.489  1.0123 -0.2582 -0.0257
 6692SOL    HW326535   6.028   2.846   1.414  1.6354  0.4526 -0.7376
 6692SOL    MW426536   6.028   2.898   1.484  0.9583 -0.2916 -0.1613
 6693SOL     OW26537   2.308   2.691   1.637  0.1634  0.1748  0.0863
 6693SOL    HW226538   2.240   2.628   1.614 -0.1133 -0.3281  2.0603
 6693SOL    HW326539   2.389   2.639   1.641  0.7637  0.7882 -2.3562
 6693SOL    MW426540   2.310   2.676   1.635  0.2061  0.1894  0.0245
 6694SOL     OW26541   5.385   5.884   0.468  0.0216 -0.1188  0.0800
 6694SOL    HW226542   5.428   5.961   0.505 -0.6544  0.3507 -0.0924
 6694SOL    HW326543   5.312   5.920   0.417 -0.4776 -0.8869  0.2431
 6694SOL    MW426544   5.381   5.899   0.466 -0.1335 -0.1582  0.0787
 6695SOL     OW26545   6.295   2.133   2.605  0.1364 -0.1696 -0.0571
 6695SOL    HW226546   6.274   2.224   2.625 -0.0794 -0.0467 -0.8154
 6695SOL    HW326547   6.280   2.125   2.510  2.1996 -0.4298 -0.4144
 6695SOL    MW426548   6.290   2.144   2.595  0.3802 -0.1877 -0.2043
 6696SOL     OW26549   4.767   3.458   5.879  0.3926 -0.1374  0.1687
 6696SOL    HW226550   4.742   3.516   5.950  0.5551  1.1114 -0.7642
 6696SOL    HW326551   4.723   3.493   5.802  3.9306  1.5245 -1.3336
 6696SOL    MW426552   4.758   3.470   5.878  0.8809  0.2467 -0.1526
 6697SOL     OW26553   2.876   5.674   5.949  0.3040  0.3039 -0.0036
 6697SOL    HW226554   2.855   5.640   6.036 -1.5035  0.5777 -0.2816
 6697SOL    HW326555   2.803   5.644   5.894 -0.2023  2.6657 -0.7475
 6697SOL    MW426556   2.863   5.666   5.953 -0.0013  0.6517 -0.1385
 6698SOL     OW26557   2.041   4.474   0.880  0.3012  0.0971 -0.0662
 6698SOL    HW226558   2.099   4.549   0.889  1.3483 -0.7932  0.8777
 6698SOL    HW326559   2.051   4.425   0.961 -1.2146 -0.4931 -0.1937
 6698SOL    MW426560   2.050   4.477   0.892  0.2394 -0.0982  0.0415
 6699SOL     OW26561   4.580   0.778   1.075 -0.3816  0.7324 -0.5175
 6699SOL    HW226562   4.506   0.778   1.014 -1.2418  0.3666  0.5015
 6699SOL    HW326563   4.601   0.686   1.089 -0.4422  0.7916  0.0133
 6699SOL    MW426564   4.573   0.766   1.069 -0.5031  0.6919 -0.3130
 6700SOL     OW26565   5.232   3.371   2.538  0.2610  0.0299 -0.0605
 6700SOL    HW226566   5.158   3.431   2.529  0.2697  0.0608  0.0700
 6700SOL    HW326567   5.207   3.293   2.489  0.9526  0.7832 -1.6867
 6700SOL    MW426568   5.219   3.369   2.530  0.3534  0.1334 -0.2578
 6701SOL     OW26569   2.901   2.950   5.514 -0.3588  0.1118 -0.2947
 6701SOL    HW226570   2.960   2.961   5.439  0.5068 -0.0561  0.3524
 6701SOL    HW326571   2.902   2.856   5.531 -0.8003  0.1128 -0.2681
 6701SOL    MW426572   2.909   2.939   5.506 -0.3029  0.0898 -0.2058
 6702SOL     OW26573   1.154   5.610   0.785  0.2794 -0.1398 -0.0376
 6702SOL    HW226574   1.157   5.554   0.708  0.7399  1.2155 -1.0392
 6702SOL    HW326575   1.222   5.676   0.771  0.3417  0.1844  1.5035
 6702SOL    MW426576   1.163   5.611   0.773  0.3484  0.0818  0.0336
 6703SOL     OW26577   2.079   4.191   2.032  0.9424  0.2827 -0.0538
 6703SOL    HW226578   2.113   4.218   1.947  0.5091  0.2329 -0.2471
 6703SOL    HW326579   2.024   4.115   2.013 -0.3704  1.1643  0.0458
 6703SOL    MW426580   2.076   4.185   2.019  0.7120  0.3924 -0.0662
 6704SOL     OW26581   3.969   1.666   3.869 -0.6440  0.5277  0.7008
 6704SOL    HW226582   3.888   1.666   3.818  0.2797  0.0170 -0.8323
 6704SOL    HW326583   3.982   1.574   3.894  0.0774  0.3881 -0.1280
 6704SOL    MW426584   3.960   1.654   3.866 -0.4269  0.4419  0.3892
 6705SOL     OW26585   1.080   2.655   1.800 -0.0857 -0.0508 -0.1725
 6705SOL    HW226586   1.086   2.560   1.806  0.0949 -0.1727 -1.6897
 6705SOL    HW326587   1.055   2.671   1.708 -1.5963  1.3021  0.4164
 6705SOL    MW426588   1.077   2.644   1.788 -0.2612  0.1117 -0.2950
 6706SOL     OW26589   0.768   5.770   6.244  0.0736  0.3346 -0.0960
 6706SOL    HW226590   0.858   5.745   6.265 -0.5790 -1.7440  0.4690
 6706SOL    HW326591   0.737   5.702   6.185 -1.0851  1.1043 -0.4035
 6706SOL    MW426592   0.776   5.758   6.239 -0.1654  0.1619 -0.0620
 6707SOL     OW26593   6.178   2.210   0.502  0.1039  0.5453 -0.0495
 6707SOL    HW226594   6.155   2.227   0.593  1.0681  0.9694  0.1243
 6707SOL    HW326595   6.265   2.249   0.491 -0.0807  0.6644 -1.2022
 6707SOL    MW426596   6.187   2.217   0.513  0.2068  0.6170 -0.1786
 6708SOL     OW26597   3.227   1.065   2.002  0.0925 -0.5885  0.1300
 6708SOL    HW226598   3.232   1.107   2.088  0.1072 -1.0896  0.3740
 6708SOL    HW326599   3.184   1.130   1.946  1.3971  0.3424  0.1436
 6708SOL    MW426600   3.222   1.079   2.006  0.2666 -0.5318  0.1640
 6709SOL     OW26601   4.362   1.870   4.972 -0.4178  0.2686  0.1656
 6709SOL    HW226602   4.334   1.848   4.884 -3.5498  0.0610  1.1017
 6709SOL    HW326603   4.352   1.965   4.978 -0.2876  0.2731  0.3410
 6709SOL    MW426604   4.357   1.880   4.961 -0.8139  0.2418  0.3122
 6710SOL     OW26605   4.275   2.476   2.438 -0.2155 -0.0966 -0.2949
 6710SOL    HW226606   4.337   2.444   2.372  0.4807 -0.2937  0.4329
 6710SOL    HW326607   4.272   2.571   2.424  0.1886 -0.0967 -0.3947
 6710SOL    MW426608   4.283   2.485   2.427 -0.0703 -0.1226 -0.2120
 6711SOL     OW26609   3.424   5.906   0.186 -0.1813  0.2587 -0.3620
 6711SOL    HW226610   3.330   5.892   0.197  0.0351 -0.6812  0.3913
 6711SOL    HW326611   3.462   5.818   0.184  0.9182  0.6158  1.6230
 6711SOL    MW426612   3.417   5.892   0.187 -0.0077  0.1818 -0.0007
 6712SOL     OW26613   6.100   4.459   1.674  0.0153 -0.1361  0.0072
 6712SOL    HW226614   6.034   4.519   1.710  2.0014  1.8546  0.5259
 6712SOL    HW326615   6.109   4.486   1.583 -1.0253 -1.5325 -0.5540
 6712SOL    MW426616   6.092   4.470   1.667  0.1400 -0.0577  0.0016
 6713SOL     OW26617   1.837   5.158   4.102  0.1902 -0.4297 -0.0470
 6713SOL    HW226618   1.846   5.200   4.187  0.4306 -0.0595 -0.2546
 6713SOL    HW326619   1.928   5.142   4.074  0.1174 -0.2374 -0.3894
 6713SOL    MW426620   1.850   5.161   4.110  0.2123 -0.3555 -0.1196
 6714SOL     OW26621   0.347   0.494   3.443 -0.0511  0.4009  0.5105
 6714SOL    HW226622   0.270   0.509   3.389 -0.4818 -0.3289  0.8942
 6714SOL    HW326623   0.389   0.417   3.404  0.3516  0.6570  0.4394
 6714SOL    MW426624   0.343   0.486   3.431 -0.0548  0.3384  0.5518
 6715SOL     OW26625   2.713   4.776   4.759 -0.2852  0.1289 -0.1054
 6715SOL    HW226626   2.713   4.866   4.727 -1.4189  0.1754 -0.0052
 6715SOL    HW326627   2.632   4.738   4.725  0.9380 -1.3641 -1.5074
 6715SOL    MW426628   2.703   4.782   4.750 -0.2734 -0.0619 -0.2772
 6716SOL     OW26629   4.777   2.941   4.721  0.1960 -0.3651  0.3254
 6716SOL    HW226630   4.686   2.947   4.753  0.2156 -0.5170  0.4106
 6716SOL    HW326631   4.816   3.025   4.745 -0.4209  0.4194 -1.2777
 6716SOL    MW426632   4.770   2.953   4.729  0.1172 -0.2817  0.1251
 6717SOL     OW26633   5.815   0.269   5.934 -0.4989 -0.6753 -0.6784
 6717SOL    HW226634   5.873   0.205   5.892 -0.2351 -1.4149  0.7457
 6717SOL    HW326635   5.871   0.312   5.999 -1.2645 -0.6251 -0.0451
 6717SOL    MW426636   5.830   0.266   5.937 -0.5651 -0.7662 -0.4069
 6718SOL     OW26637   1.171   1.571   5.620  0.9267 -0.4521 -0.0506
 6718SOL    HW226638   1.171   1.530   5.706  1.7318 -0.7242 -0.1702
 6718SOL    HW326639   1.183   1.498   5.559  2.7568 -0.0303 -0.2418
 6718SOL    MW426640   1.172   1.556   5.623  1.2744 -0.4323 -0.0916
 6719SOL     OW26641   0.118   2.291   2.707  0.2420  0.3484 -0.6778
 6719SOL    HW226642   0.121   2.251   2.620 -1.7824  1.0220 -1.1050
 6719SOL    HW326643   0.154   2.224   2.766  0.0834 -0.7656 -1.8142
 6719SOL    MW426644   0.124   2.277   2.703 -0.0460  0.2903 -0.8841
 6720SOL     OW26645   1.156   0.707   3.151  0.0254 -0.3662 -0.1981
 6720SOL    HW226646   1.187   0.618   3.135 -0.6353 -0.5077 -0.7071
 6720SOL    HW326647   1.216   0.741   3.218  0.3766 -1.1355 -0.1090
 6720SOL    MW426648   1.168   0.700   3.158 -0.0154 -0.4864 -0.2535
 6721SOL     OW26649   3.778   0.978   5.128 -0.0810 -0.2915 -0.5437
 6721SOL    HW226650   3.719   1.047   5.157  0.9781  0.6123 -0.4741
 6721SOL    HW326651   3.790   0.923   5.206 -1.4573 -0.9854 -0.7819
 6721SOL    MW426652   3.772   0.980   5.142 -0.1229 -0.2638 -0.5659
 6722SOL     OW26653   2.130   1.729   1.884 -0.3066 -0.3705  0.4954
 6722SOL    HW226654   2.075   1.787   1.938 -0.6332 -0.6484  0.4628
 6722SOL    HW326655   2.077   1.711   1.807 -0.8979 -2.0503  1.2452
 6722SOL    MW426656   2.116   1.735   1.881 -0.4277 -0.6288  0.5900
 6723SOL     OW26657   4.512   0.305   3.452 -0.7024 -0.0045  0.0468
 6723SOL    HW226658   4.531   0.235   3.390 -0.7352 -1.3709  1.5013
 6723SOL    HW326659   4.486   0.259   3.532 -1.9880  1.7036  0.6592
 6723SOL    MW426660   4.511   0.290   3.455 -0.8763  0.0406  0.3195
 6724SOL     OW26661   3.673   4.255   5.813  0.4050  0.4438  0.1500
 6724SOL    HW226662   3.671   4.208   5.730 -1.1511  0.5314  0.1185
 6724SOL    HW326663   3.651   4.345   5.791  0.6261  0.6087  0.5776
 6724SOL    MW426664   3.670   4.261   5.799  0.2288  0.4771  0.2023
 6725SOL     OW26665   4.242   2.608   0.988  0.4161 -0.3667 -0.1442
 6725SOL    HW226666   4.176   2.615   0.919 -1.2568 -0.3798  1.3813
 6725SOL    HW326667   4.267   2.515   0.988 -0.8619 -0.7398  0.3612
 6725SOL    MW426668   4.236   2.596   0.979  0.0268 -0.4177  0.1238
 6726SOL     OW26669   5.970   5.677   3.960 -0.8944 -0.0866  0.3148
 6726SOL    HW226670   6.020   5.596   3.974 -0.7221 -0.0754 -0.2025
 6726SOL    HW326671   5.939   5.670   3.870  1.4982  1.6799 -0.7499
 6726SOL    MW426672   5.973   5.665   3.950 -0.5560  0.1479  0.1061
 6727SOL     OW26673   0.666   1.061   4.207  0.0368  0.0868  0.4872
 6727SOL    HW226674   0.658   0.966   4.203 -0.6883  0.1666 -0.1557
 6727SOL    HW326675   0.599   1.088   4.271 -0.1548  0.2113  0.2336
 6727SOL    MW426676   0.656   1.052   4.215 -0.0841  0.1138  0.3689
 6728SOL     OW26677   3.227   5.027   5.037  0.2135 -0.2870 -0.2594
 6728SOL    HW226678   3.306   5.019   5.089  0.0931 -0.4767 -0.1040
 6728SOL    HW326679   3.256   5.014   4.946  0.3154 -0.6565 -0.1771
 6728SOL    MW426680   3.241   5.024   5.032  0.2111 -0.3608 -0.2280
 6729SOL     OW26681   5.765   5.248   4.885 -0.0623 -0.1084  0.7812
 6729SOL    HW226682   5.815   5.170   4.861  1.6344  0.6153  1.8488
 6729SOL    HW326683   5.674   5.217   4.890  0.5802 -2.0280  1.2408
 6729SOL    MW426684   5.759   5.234   4.882  0.2464 -0.2662  0.9827
 6730SOL     OW26685   6.346   3.290   3.617 -0.0141 -0.4862  0.4913
 6730SOL    HW226686   6.349   3.211   3.562 -0.8673 -0.5847  0.5687
 6730SOL    HW326687   6.280   3.345   3.575  0.0511 -0.1303  0.8533
 6730SOL    MW426688   6.338   3.287   3.604 -0.1181 -0.4522  0.5493
 6731SOL     OW26689   5.847   1.214   5.347  0.6209 -0.2250  0.4650
 6731SOL    HW226690   5.868   1.215   5.441  3.3935  1.5077 -0.0604
 6731SOL    HW326691   5.784   1.286   5.337  0.9424  0.1260  0.8929
 6731SOL    MW426692   5.841   1.224   5.358  1.0291  0.0500  0.4522
 6732SOL     OW26693   6.363   4.444   5.937 -0.5779  0.1195 -0.3963
 6732SOL    HW226694   6.388   4.536   5.940 -0.8446  0.1806  1.0831
 6732SOL    HW326695   6.330   4.430   5.849 -1.8502  1.8029 -0.2406
 6732SOL    MW426696   6.362   4.454   5.926 -0.7810  0.3497 -0.1806
 6733SOL     OW26697   2.798   2.804   2.868  0.0052  0.0330 -0.2929
 6733SOL    HW226698   2.819   2.711   2.872 -0.1937  0.0391  1.2378
 6733SOL    HW326699   2.877   2.848   2.897 -0.3053  0.2906  0.1675
 6733SOL    MW426700   2.811   2.797   2.872 -0.0620  0.0678 -0.0302
 6734SOL     OW26701   4.068   1.558   2.822 -0.1908  0.6538  0.2424
 6734SOL    HW226702   3.981   1.550   2.862 -0.1438 -0.3391  0.1932
 6734SOL    HW326703   4.112   1.626   2.872 -0.0974 -0.6288  2.0082
 6734SOL    MW426704   4.062   1.566   2.834 -0.1723  0.3536  0.4689
 6735SOL     OW26705   1.948   4.337   3.056 -0.8165  0.0175 -0.3636
 6735SOL    HW226706   1.894   4.356   3.133 -1.1287  1.2514 -0.8556
 6735SOL    HW326707   1.980   4.423   3.028 -1.5730 -0.2735 -2.2529
 6735SOL    MW426708   1.945   4.351   3.062 -0.9575  0.1419 -0.6778
 6736SOL     OW26709   3.622   4.531   3.504 -0.0963 -0.0284 -0.7367
 6736SOL    HW226710   3.601   4.623   3.486  1.4271  0.2280 -1.4490
 6736SOL    HW326711   3.559   4.481   3.452  0.7721  0.6794 -2.5931
 6736SOL    MW426712   3.611   4.537   3.494  0.2193  0.0988 -1.0756
 6737SOL     OW26713   2.073   0.521   4.905 -0.2657  0.2219 -0.7998
 6737SOL    HW226714   2.023   0.449   4.866 -2.8768 -0.3358  3.0769
 6737SOL    HW326715   2.164   0.496   4.892 -1.0648 -3.0753 -0.9310
 6737SOL    MW426716   2.078   0.508   4.898 -0.7156 -0.2867 -0.3056
 6738SOL     OW26717   0.314   4.453   5.917 -0.2410  0.4179 -0.1226
 6738SOL    HW226718   0.290   4.497   5.998 -0.3668 -0.0880  0.1213
 6738SOL    HW326719   0.297   4.517   5.849  0.2480  0.9921  0.2849
 6738SOL    MW426720   0.309   4.467   5.919 -0.1930  0.4269 -0.0366
 6739SOL     OW26721   1.625   1.870   3.078 -0.5891  0.5905 -0.3724
 6739SOL    HW226722   1.692   1.923   3.035 -0.2217  1.2893  0.9889
 6739SOL    HW326723   1.608   1.797   3.018  1.0181  0.6863 -0.9668
 6739SOL    MW426724   1.631   1.867   3.065 -0.3286  0.6953 -0.2712
 6740SOL     OW26725   3.233   3.975   6.325 -0.4591  0.3585  0.3260
 6740SOL    HW226726   3.226   3.879   6.327  1.7469  0.1358  1.7473
 6740SOL    HW326727   3.146   4.005   6.299 -1.4378 -2.0042  0.5791
 6740SOL    MW426728   3.221   3.966   6.322 -0.2972  0.0174  0.5469
 6741SOL     OW26729   6.366   5.684   2.300 -0.7592  0.7435  0.0030
 6741SOL    HW226730   6.457   5.711   2.313 -1.0752  1.4498  0.8261
 6741SOL    HW326731   6.334   5.741   2.230 -0.8636  1.2121  0.4252
 6741SOL    MW426732   6.374   5.695   2.293 -0.8147  0.8985  0.1673
 6742SOL     OW26733   4.083   3.512   5.645  0.0809  0.2126 -0.0386
 6742SOL    HW226734   4.173   3.513   5.611 -0.2135  0.4628 -0.8291
 6742SOL    HW326735   4.029   3.493   5.569 -0.5118 -0.3165  0.5089
 6742SOL    MW426736   4.088   3.510   5.631 -0.0362  0.1758 -0.0707
 6743SOL     OW26737   0.246   3.853   4.784 -0.2433 -0.0621 -0.2754
 6743SOL    HW226738   0.302   3.882   4.856 -1.3253  1.7252 -0.0761
 6743SOL    HW326739   0.199   3.777   4.819  0.7901 -0.5368  0.1289
 6743SOL    MW426740   0.247   3.847   4.798 -0.2497  0.1111 -0.1958
 6744SOL     OW26741   2.000   1.711   5.440 -0.0793  0.7020 -0.3790
 6744SOL    HW226742   2.016   1.626   5.397  0.7397  0.2877  0.7081
 6744SOL    HW326743   1.907   1.728   5.425  0.0490  0.3063 -1.8279
 6744SOL    MW426744   1.990   1.702   5.432  0.0457  0.5951 -0.4268
 6745SOL     OW26745   0.690   4.118   0.782 -0.3401  0.3794  1.1180
 6745SOL    HW226746   0.641   4.087   0.858  1.3102 -1.5684  1.4881
 6745SOL    HW326747   0.624   4.153   0.723 -2.0828 -1.3474  1.9413
 6745SOL    MW426748   0.675   4.118   0.785 -0.3523 -0.1054  1.2755
 6746SOL     OW26749   4.369   5.314   5.483 -0.4704 -0.0369 -0.2479
 6746SOL    HW226750   4.414   5.392   5.515 -2.2404  0.7852  0.3329
 6746SOL    HW326751   4.419   5.288   5.405  1.3050  0.4950  0.6633
 6746SOL    MW426752   4.381   5.321   5.477 -0.4697  0.1418 -0.0511
 6747SOL     OW26753   3.013   1.400   5.782 -0.1718 -0.0416 -0.2885
 6747SOL    HW226754   2.929   1.442   5.761 -0.8616 -0.6084  1.2282
 6747SOL    HW326755   3.079   1.462   5.749 -1.1204 -0.2397 -2.8192
 6747SOL    MW426756   3.011   1.414   5.775 -0.3880 -0.1425 -0.4223
 6748SOL     OW26757   4.679   0.604   3.328 -0.0117  0.1683 -0.4724
 6748SOL    HW226758   4.704   0.549   3.402  1.6898 -0.0571 -1.1747
 6748SOL    HW326759   4.619   0.669   3.366  0.7618  0.0147  1.0934
 6748SOL    MW426760   4.674   0.605   3.343  0.3149  0.1183 -0.3585
 6749SOL     OW26761   2.438   0.861   0.925  0.0608 -0.0326 -0.3008
 6749SOL    HW226762   2.505   0.897   0.983  0.4326 -1.5615  0.2767
 6749SOL    HW326763   2.361   0.915   0.941  0.8761  1.1734 -0.2941
 6749SOL    MW426764   2.437   0.873   0.935  0.2174 -0.0752 -0.2237
 6750SOL     OW26765   6.307   5.435   2.151  0.0891  0.4751 -0.6969
 6750SOL    HW226766   6.320   5.366   2.216 -2.1164 -0.1610 -0.8559
 6750SOL    HW326767   6.337   5.515   2.195  0.1196 -0.1678  0.4987
 6750SOL    MW426768   6.313   5.437   2.165 -0.1978  0.3063 -0.5601
 6751SOL     OW26769   2.171   3.619   6.392  0.3805 -0.1784 -0.0267
 6751SOL    HW226770   2.083   3.594   6.420  1.3390 -1.8655  1.6571
 6751SOL    HW326771   2.171   3.715   6.397 -1.4177 -0.1272 -0.3212
 6751SOL    MW426772   2.159   3.628   6.396  0.2697 -0.3942  0.1566
 6752SOL     OW26773   0.321   2.572   2.406 -0.3831 -0.5185 -0.0093
 6752SOL    HW226774   0.255   2.615   2.460  1.2648  1.1428  0.8137
 6752SOL    HW326775   0.347   2.495   2.456  0.8675  0.8101  1.5189
 6752SOL    MW426776   0.316   2.567   2.420 -0.0007 -0.1240  0.3009
 6753SOL     OW26777   4.523   0.816   6.178 -0.3758  0.7126 -0.0587
 6753SOL    HW226778   4.437   0.780   6.155 -1.2184  1.0466  2.2612
 6753SOL    HW326779   4.557   0.756   6.245 -0.0234  1.9884  0.9557
 6753SOL    MW426780   4.516   0.804   6.184 -0.4405  0.9250  0.3812
 6754SOL     OW26781   0.861   3.442   1.240 -0.2420  0.0842  0.0123
 6754SOL    HW226782   0.918   3.399   1.303  2.1842  3.4579  0.3442
 6754SOL    HW326783   0.794   3.484   1.294  0.7503  1.4214  0.2406
 6754SOL    MW426784   0.859   3.442   1.256  0.2090  0.7057  0.0862
 6755SOL     OW26785   0.696   5.057   6.466  0.3792  0.3017 -0.0217
 6755SOL    HW226786   0.736   4.974   6.492  0.2933  0.4283  0.5276
 6755SOL    HW326787   0.705   5.113   6.543 -1.1188  0.2384  0.2224
 6755SOL    MW426788   0.703   5.054   6.480  0.1703  0.3101  0.0830
 6756SOL     OW26789   5.615   3.009   5.304 -0.1654  0.5573 -0.8127
 6756SOL    HW226790   5.572   2.992   5.388 -1.4782  0.0558 -1.5678
 6756SOL    HW326791   5.631   3.103   5.303 -0.7931  0.6746 -0.3012
 6756SOL    MW426792   5.612   3.019   5.315 -0.4214  0.5066 -0.8448
 6757SOL     OW26793   0.552   6.322   3.772  0.4152  0.6853 -0.3613
 6757SOL    HW226794   0.487   6.391   3.774 -1.6934 -1.2013  1.0121
 6757SOL    HW326795   0.507   6.247   3.732  1.0064 -1.2778  2.3623
 6757SOL    MW426796   0.538   6.321   3.767  0.2150  0.1774  0.1792
 6758SOL     OW26797   3.201   4.557   3.276 -0.4519 -0.3517  0.9334
 6758SOL    HW226798   3.165   4.641   3.303  0.7530 -0.4270  3.0296
 6758SOL    HW326799   3.155   4.493   3.331  1.5172 -0.6040  2.4064
 6758SOL    MW426800   3.190   4.559   3.287 -0.0331 -0.3949  1.4043
 6759SOL     OW26801   1.084   5.721   3.941 -0.1474  0.0556 -0.6490
 6759SOL    HW226802   1.159   5.664   3.921 -0.6681 -0.6657 -0.5824
 6759SOL    HW326803   1.012   5.660   3.956 -1.0550  0.7797 -1.9272
 6759SOL    MW426804   1.085   5.705   3.940 -0.3359  0.0560 -0.8088
 6760SOL     OW26805   4.029   5.480   4.047  0.0460  0.0906 -0.5526
 6760SOL    HW226806   3.982   5.549   4.000 -1.1577  0.2174  0.7610
 6760SOL    HW326807   3.969   5.405   4.043  0.7561 -0.4725 -0.8053
 6760SOL    MW426808   4.015   5.479   4.040 -0.0191  0.0330 -0.4126
 6761SOL     OW26809   1.377   6.056   3.690  0.2327 -0.1705 -0.0032
 6761SOL    HW226810   1.311   6.027   3.627  1.3580 -0.0639 -1.2712
 6761SOL    HW326811   1.398   5.978   3.741  1.2304 -0.9602 -1.5591
 6761SOL    MW426812   1.371   6.042   3.689  0.5128 -0.2606 -0.3758
 6762SOL     OW26813   6.040   1.260   5.862 -0.0250  0.7674 -0.4393
 6762SOL    HW226814   5.998   1.249   5.777 -0.4611  1.1684 -0.2809
 6762SOL    HW326815   5.987   1.326   5.907 -0.6603 -0.4781  0.7032
 6762SOL    MW426816   6.028   1.267   5.857 -0.1663  0.6560 -0.2677
 6763SOL     OW26817   5.721   3.971   1.805 -0.0729 -0.7654 -0.3608
 6763SOL    HW226818   5.715   4.065   1.821  0.7991 -0.5099 -1.3931
 6763SOL    HW326819   5.658   3.954   1.735 -1.8247 -1.3683  1.2935
 6763SOL    MW426820   5.712   3.981   1.797 -0.1890 -0.8112 -0.2788
 6764SOL     OW26821   4.412   3.577   2.660 -0.2891 -0.5275  0.3454
 6764SOL    HW226822   4.412   3.507   2.596  1.4617  0.8689 -1.2955
 6764SOL    HW326823   4.398   3.657   2.609 -1.5440  0.4266  2.0623
 6764SOL    MW426824   4.410   3.578   2.645 -0.2236 -0.2174  0.3554
 6765SOL     OW26825   4.478   3.127   2.037  0.7262 -0.4696 -0.1198
 6765SOL    HW226826   4.521   3.154   1.955 -0.1658  0.9767 -0.1537
 6765SOL    HW326827   4.550   3.113   2.098  1.3751 -0.8455 -0.9411
 6765SOL    MW426828   4.493   3.129   2.034  0.6941 -0.3284 -0.2327
 6766SOL     OW26829   5.732   5.933   5.573  0.0776  0.1132  0.5306
 6766SOL    HW226830   5.805   5.992   5.591  0.2601 -0.6204  2.3831
 6766SOL    HW326831   5.773   5.850   5.550 -0.1930  0.4122 -1.2351
 6766SOL    MW426832   5.747   5.930   5.572  0.0660  0.0559  0.5420
 6767SOL     OW26833   6.016   2.968   0.707  0.0298 -0.0790  0.3094
 6767SOL    HW226834   5.955   3.023   0.757  1.9119  1.6044  0.8867
 6767SOL    HW326835   5.974   2.882   0.705 -1.8501  0.7239  1.5844
 6767SOL    MW426836   6.002   2.964   0.713  0.0301  0.2490  0.5538
 6768SOL     OW26837   1.820   1.678   3.267  0.1225 -0.1415  0.2133
 6768SOL    HW226838   1.890   1.694   3.330 -1.0346  1.3417  1.1953
 6768SOL    HW326839   1.770   1.759   3.265 -0.5350 -0.5359 -1.8260
 6768SOL    MW426840   1.823   1.691   3.275 -0.1169  0.0022  0.0738
 6769SOL     OW26841   4.500   6.070   5.800  0.2319 -0.3457  0.0893
 6769SOL    HW226842   4.454   6.005   5.854  1.3467 -0.1840  1.2587
 6769SOL    HW326843   4.452   6.151   5.813 -1.5058 -0.9713 -1.8031
 6769SOL    MW426844   4.487   6.072   5.809  0.1497 -0.4069 -0.0061
 6770SOL     OW26845   4.078   2.351   1.438 -0.4196 -0.6284  0.5495
 6770SOL    HW226846   4.157   2.401   1.458 -0.4190 -0.3853 -0.0415
 6770SOL    HW326847   4.094   2.265   1.477  0.6193 -0.9421 -0.5213
 6770SOL    MW426848   4.091   2.346   1.446 -0.2824 -0.6377  0.3303
 6771SOL     OW26849   3.050   3.768   3.050  0.7168 -0.4084 -0.1012
 6771SOL    HW226850   2.958   3.749   3.031  1.0146 -0.7626 -1.3137
 6771SOL    HW326851   3.096   3.746   2.969  1.7643  0.5858  0.1890
 6771SOL    MW426852   3.044   3.763   3.036  0.8943 -0.3240 -0.2229
 6772SOL     OW26853   6.152   0.719   2.414  0.1292 -0.3365  0.3445
 6772SOL    HW226854   6.207   0.777   2.466 -0.2028 -0.7852  1.2222
 6772SOL    HW326855   6.065   0.758   2.418  0.1962 -0.1194 -0.2758
 6772SOL    MW426856   6.148   0.731   2.421  0.0942 -0.3670  0.3785
 6773SOL     OW26857   4.524   2.315   2.538  0.0067 -0.5174  0.2146
 6773SOL    HW226858   4.571   2.260   2.600 -2.6260 -0.7101  2.1695
 6773SOL    HW326859   4.591   2.374   2.503  2.4090 -3.1915 -0.0594
 6773SOL    MW426860   4.539   2.316   2.541 -0.0237 -0.8956  0.4364
 6774SOL     OW26861   2.909   1.710   0.426  0.3275 -0.2737  0.1891
 6774SOL    HW226862   2.835   1.666   0.467  0.7968 -1.3855 -0.1155
 6774SOL    HW326863   2.885   1.716   0.334  0.3000  0.0279  0.2171
 6774SOL    MW426864   2.896   1.705   0.420  0.3858 -0.3806  0.1526
 6775SOL     OW26865   0.827   0.333   2.612 -0.6063 -0.3551 -0.4354
 6775SOL    HW226866   0.794   0.390   2.543 -1.0264 -1.2345 -0.9720
 6775SOL    HW326867   0.919   0.359   2.623 -1.0018  0.9885 -0.0765
 6775SOL    MW426868   0.835   0.344   2.605 -0.7139 -0.2938 -0.4589
 6776SOL     OW26869   6.324   1.408   0.225 -0.6344  0.4692 -0.0280
 6776SOL    HW226870   6.317   1.354   0.304  0.1838 -0.5189 -0.6038
 6776SOL    HW326871   6.416   1.433   0.222 -0.6540  0.4679 -0.6898
 6776SOL    MW426872   6.335   1.404   0.235 -0.5290  0.3387 -0.1913
 6777SOL     OW26873   6.270   0.372   0.094 -0.2199  0.2147 -0.9552
 6777SOL    HW226874   6.179   0.394   0.073  0.2270  2.6752 -0.5479
 6777SOL    HW326875   6.269   0.351   0.188 -0.4657 -0.4306 -1.0987
 6777SOL    MW426876   6.258   0.372   0.104 -0.1934  0.4542 -0.9204
 6778SOL     OW26877   2.146   5.734   5.143 -0.0169 -0.0329 -0.1134
 6778SOL    HW226878   2.148   5.809   5.083  1.2902  1.6593  1.9063
 6778SOL    HW326879   2.145   5.773   5.231 -0.6758 -2.4034  1.0137
 6778SOL    MW426880   2.146   5.749   5.147  0.0686 -0.1224  0.3018
 6779SOL     OW26881   3.442   3.776   1.491 -0.0344  0.8918 -0.0631
 6779SOL    HW226882   3.446   3.840   1.420 -0.9432  0.2113 -0.7431
 6779SOL    HW326883   3.374   3.714   1.464  1.6478 -1.0640  0.0223
 6779SOL    MW426884   3.433   3.777   1.478  0.0676  0.5440 -0.1415
 6780SOL     OW26885   2.693   3.872   0.525 -0.2353  0.7502 -0.0809
 6780SOL    HW226886   2.643   3.858   0.445  0.6002 -0.0176 -0.4945
 6780SOL    HW326887   2.766   3.929   0.498  1.7906 -1.8897 -0.6563
 6780SOL    MW426888   2.696   3.878   0.511  0.1422  0.3006 -0.2114
 6781SOL     OW26889   5.553   2.976   3.090 -0.4665 -0.0809 -0.2861
 6781SOL    HW226890   5.520   2.905   3.035 -3.0208 -0.4584  1.5589
 6781SOL    HW326891   5.489   3.047   3.079  0.2657  0.7030  0.3968
 6781SOL    MW426892   5.540   2.976   3.081 -0.7069 -0.0273  0.0474
 6782SOL     OW26893   0.784   2.752   0.106 -0.0355 -0.2654  0.3237
 6782SOL    HW226894   0.734   2.805   0.168 -0.8144 -1.9579  1.2001
 6782SOL    HW326895   0.744   2.665   0.111  0.1215 -0.5778 -2.2823
 6782SOL    MW426896   0.772   2.747   0.115 -0.1176 -0.5299  0.0955
 6783SOL     OW26897   4.658   5.002   2.392 -0.2638  0.2495  0.3321
 6783SOL    HW226898   4.625   4.912   2.401  0.6122 -0.1822 -0.5086
 6783SOL    HW326899   4.605   5.040   2.323  0.5929 -0.2639 -0.6370
 6783SOL    MW426900   4.647   4.995   2.384 -0.0352  0.1248  0.0933
 6784SOL     OW26901   3.709   4.275   2.777  0.2314 -0.4051 -0.5364
 6784SOL    HW226902   3.646   4.344   2.800 -0.8486 -2.1162  2.0970
 6784SOL    HW326903   3.782   4.290   2.837  0.5056 -0.8415 -0.7590
 6784SOL    MW426904   3.710   4.286   2.788  0.1251 -0.6884 -0.2183
 6785SOL     OW26905   3.115   1.492   5.088 -0.6598 -0.1755 -0.4605
 6785SOL    HW226906   3.022   1.472   5.081 -0.7488  0.3132 -0.7108
 6785SOL    HW326907   3.124   1.580   5.051 -0.1230 -0.1570 -0.3011
 6785SOL    MW426908   3.104   1.501   5.082 -0.6007 -0.1086 -0.4725
 6786SOL     OW26909   4.304   4.878   0.127  0.3869 -0.0166 -0.5945
 6786SOL    HW226910   4.253   4.927   0.062  0.8847  0.5240 -0.5860
 6786SOL    HW326911   4.373   4.939   0.154  0.6667 -0.5234 -0.1511
 6786SOL    MW426912   4.306   4.893   0.122  0.4895 -0.0122 -0.5349
 6787SOL     OW26913   2.379   4.394   4.516 -0.8535  0.0782 -0.0777
 6787SOL    HW226914   2.416   4.464   4.569 -0.7328 -0.3709  0.4418
 6787SOL    HW326915   2.303   4.364   4.566 -1.1712  0.1450 -0.5172
 6787SOL    MW426916   2.374   4.399   4.530 -0.8795  0.0278 -0.0671
 6788SOL     OW26917   2.106   1.842   4.611  0.0796  0.2005 -0.1934
 6788SOL    HW226918   2.076   1.933   4.610 -0.8507 -0.0885  0.2413
 6788SOL    HW326919   2.136   1.826   4.521  1.0701  1.1842 -0.0591
 6788SOL    MW426920   2.106   1.852   4.599  0.0875  0.2921 -0.1183
 6789SOL     OW26921   0.614   3.316   1.244  0.2908 -0.4274 -0.3007
 6789SOL    HW226922   0.690   3.279   1.289 -0.7540  0.3481  2.2544
 6789SOL    HW326923   0.650   3.387   1.191  1.4838 -0.8445 -0.0852
 6789SOL    MW426924   0.629   3.320   1.243  0.3104 -0.3801  0.0649
 6790SOL     OW26925   4.690   2.726   6.138 -0.0013  0.3688  0.0749
 6790SOL    HW226926   4.663   2.781   6.212 -1.4701 -0.5664  0.2686
 6790SOL    HW326927   4.778   2.696   6.162  0.2111  1.4241  0.6514
 6790SOL    MW426928   4.698   2.729   6.151 -0.1670  0.3847  0.1765
 6791SOL     OW26929   2.408   1.507   3.927 -0.1765  0.1768 -0.2193
 6791SOL    HW226930   2.477   1.534   3.867  1.4633  1.5532  2.1392
 6791SOL    HW326931   2.442   1.527   4.014 -1.2716 -4.2050  1.4940
 6791SOL    MW426932   2.421   1.513   3.931 -0.1047 -0.2197  0.3179
 6792SOL     OW26933   1.682   3.973   2.833 -0.1081 -0.1815 -0.4047
 6792SOL    HW226934   1.652   3.889   2.867 -0.8942  0.6246  0.9823
 6792SOL    HW326935   1.740   4.008   2.901 -0.3864  0.7218 -0.6118
 6792SOL    MW426936   1.686   3.967   2.847 -0.2485  0.0440 -0.2490
 6793SOL     OW26937   4.927   2.554   4.092 -0.3976  0.5247 -0.4938
 6793SOL    HW226938   4.923   2.640   4.133 -2.1165 -0.7136  2.1958
 6793SOL    HW326939   4.841   2.515   4.109  0.8585 -2.3333 -0.1668
 6793SOL    MW426940   4.915   2.560   4.100 -0.4587 -0.0158 -0.0958
 6794SOL     OW26941   0.014   3.950   1.197 -0.5778 -0.2814  0.0729
 6794SOL    HW226942  -0.071   3.914   1.170 -1.1250  1.0668 -0.1061
 6794SOL    HW326943   0.027   3.918   1.286 -0.6220 -1.6072 -0.3842
 6794SOL    MW426944   0.005   3.941   1.205 -0.6558 -0.2785 -0.0110
 6795SOL     OW26945   6.393   2.431   3.152  0.1470 -0.0605  0.0889
 6795SOL    HW226946   6.315   2.406   3.202  0.8378 -0.9759  0.7454
 6795SOL    HW326947   6.435   2.499   3.205 -0.0811  0.2771 -0.1582
 6795SOL    MW426948   6.388   2.437   3.165  0.2081 -0.1367  0.1429
 6796SOL     OW26949   4.456   3.866   4.079 -0.3331 -0.2015 -0.1962
 6796SOL    HW226950   4.428   3.955   4.098 -0.8669 -0.4631  0.2888
 6796SOL    HW326951   4.536   3.876   4.027  0.5851  0.5708  1.2748
 6796SOL    MW426952   4.463   3.879   4.075 -0.2824 -0.1341  0.0619
 6797SOL     OW26953   3.692   4.620   4.048  0.5213 -0.6207 -0.4512
 6797SOL    HW226954   3.700   4.568   3.968 -0.0101 -1.2111 -0.1314
 6797SOL    HW326955   3.693   4.555   4.119  0.8425 -0.1174  0.0094
 6797SOL    MW426956   3.693   4.605   4.047  0.4936 -0.6322 -0.3483
 6798SOL     OW26957   2.301   2.271   0.950 -0.1235 -0.2292 -0.5378
 6798SOL    HW226958   2.206   2.281   0.953 -0.2660 -0.4536 -2.7373
 6798SOL    HW326959   2.335   2.360   0.948 -0.3389 -0.1524 -0.7557
 6798SOL    MW426960   2.293   2.284   0.950 -0.1707 -0.2487 -0.8568
 6799SOL     OW26961   0.359   4.754   4.397  0.1777  0.4216 -0.3371
 6799SOL    HW226962   0.400   4.733   4.481  0.0893 -0.6861 -0.5484
 6799SOL    HW326963   0.406   4.831   4.365  0.6070  0.4927  0.4513
 6799SOL    MW426964   0.371   4.761   4.404  0.2227  0.2848 -0.2610
 6800SOL     OW26965   3.059   1.261   1.880 -0.0969 -0.2283  0.0879
 6800SOL    HW226966   3.059   1.238   1.787  1.2645  0.4292 -0.1088
 6800SOL    HW326967   2.986   1.321   1.890 -0.2480 -0.2934 -0.5621
 6800SOL    MW426968   3.050   1.266   1.869  0.0628 -0.1502 -0.0238
 6801SOL     OW26969   3.407   1.907   2.143 -0.2194 -0.2638 -0.1271
 6801SOL    HW226970   3.443   1.865   2.064  1.9070 -0.4028  0.8559
 6801SOL    HW326971   3.322   1.864   2.155  0.2733 -1.6594 -1.2289
 6801SOL    MW426972   3.401   1.896   2.134  0.1261 -0.4662 -0.1428
 6802SOL     OW26973   2.854   4.131   0.060  0.3781  0.1978 -0.1813
 6802SOL    HW226974   2.921   4.114   0.125 -0.4060  1.3938  1.0028
 6802SOL    HW326975   2.801   4.201   0.098  0.6011  1.8241 -2.6089
 6802SOL    MW426976   2.856   4.138   0.074  0.3040  0.5701 -0.3453
 6803SOL     OW26977   2.935   2.969   2.033  0.0143 -0.3451 -0.3314
 6803SOL    HW226978   2.874   2.919   2.088 -1.1401  1.2470 -0.0839
 6803SOL    HW326979   2.879   3.016   1.971  0.0388  5.6256  3.3032
 6803SOL    MW426980   2.919   2.969   2.032 -0.1348  0.6527  0.1808
 6804SOL     OW26981   5.393   1.593   1.829  0.0052 -0.0508 -0.0041
 6804SOL    HW226982   5.484   1.619   1.840 -0.2480  1.0112 -0.2922
 6804SOL    HW326983   5.374   1.611   1.737 -0.2481 -1.0976 -0.1644
 6804SOL    MW426984   5.403   1.599   1.819 -0.0616 -0.0488 -0.0632
 6805SOL     OW26985   0.802   5.221   3.256  0.1754 -0.2570  0.6440
 6805SOL    HW226986   0.784   5.314   3.271  0.2501  0.0766 -1.0802
 6805SOL    HW326987   0.896   5.218   3.237 -0.2992 -0.1782 -2.2208
 6805SOL    MW426988   0.812   5.233   3.255  0.1227 -0.2026  0.0385
 6806SOL     OW26989   3.799   5.666   2.394 -0.2766 -0.2758  0.3921
 6806SOL    HW226990   3.740   5.603   2.434  1.2149 -2.0963 -0.1134
 6806SOL    HW326991   3.801   5.642   2.301 -0.3575  1.1189  0.0010
 6806SOL    MW426992   3.792   5.655   2.387 -0.0905 -0.3320  0.2738
 6807SOL     OW26993   2.894   4.025   2.132  0.1567 -0.5930 -0.2077
 6807SOL    HW226994   2.986   4.052   2.127  0.3776 -1.3472 -0.2708
 6807SOL    HW326995   2.883   3.997   2.223 -0.3647  0.7146  0.1526
 6807SOL    MW426996   2.905   4.025   2.143  0.1171 -0.5200 -0.1685
 6808SOL     OW26997   5.714   5.419   2.113 -0.1284 -0.1691 -0.3039
 6808SOL    HW226998   5.704   5.382   2.026  1.0995  0.9407 -0.9579
 6808SOL    HW326999   5.785   5.368   2.153 -1.4695 -1.4479  0.5196
 6808SOL    MW427000   5.722   5.407   2.107 -0.1434 -0.1914 -0.2815
 6809SOL     OW27001   6.012   4.227   4.948  0.1746 -0.1327  0.2069
 6809SOL    HW227002   5.967   4.311   4.934 -0.4292 -0.3316  0.8927
 6809SOL    HW327003   5.952   4.177   5.004  1.2017 -0.4415  1.0678
 6809SOL    MW427004   5.998   4.232   4.954  0.2304 -0.1997  0.4110
 6810SOL     OW27005   3.304   0.410   5.480 -0.7407 -0.6147  0.3960
 6810SOL    HW227006   3.299   0.352   5.404 -0.0023  0.6768 -0.6761
 6810SOL    HW327007   3.213   0.421   5.507 -1.3607  1.0298 -2.0083
 6810SOL    MW427008   3.291   0.404   5.474 -0.7251 -0.2273 -0.0627
 6811SOL     OW27009   6.198   4.115   0.330  0.3524  0.7143 -0.2706
 6811SOL    HW227010   6.141   4.118   0.253  0.6066  0.6615 -0.4616
 6811SOL    HW327011   6.247   4.197   0.328 -1.5828  2.0157  1.3502
 6811SOL    MW427012   6.197   4.126   0.320  0.1306  0.8791 -0.0820
 6812SOL     OW27013   0.346   5.225   2.305 -0.0741 -0.0419 -0.9725
 6812SOL    HW227014   0.328   5.203   2.397 -0.7466 -2.4608 -1.6136
 6812SOL    HW327015   0.431   5.185   2.288 -1.0914 -1.8618 -2.0463
 6812SOL    MW427016   0.355   5.217   2.315 -0.2970 -0.6011 -1.1988
 6813SOL     OW27017   6.411   4.194   0.559  0.1641  0.4125  0.0653
 6813SOL    HW227018   6.449   4.201   0.647 -0.1904 -0.0967  0.2643
 6813SOL    HW327019   6.483   4.162   0.505  0.0159 -0.6615  0.4672
 6813SOL    MW427020   6.426   4.191   0.563  0.0977  0.2036  0.1446
 6814SOL     OW27021   3.330   2.804   1.285 -0.3960 -0.1428  0.0630
 6814SOL    HW227022   3.370   2.724   1.319  1.6762  1.0703  0.7343
 6814SOL    HW327023   3.269   2.775   1.217 -1.9284 -2.4502  2.2427
 6814SOL    MW427024   3.327   2.790   1.281 -0.3248 -0.2872  0.4391
 6815SOL     OW27025   3.777   3.149   2.565 -0.4202 -0.4479 -0.3954
 6815SOL    HW227026   3.843   3.079   2.569 -0.5979 -0.7478 -2.0476
 6815SOL    HW327027   3.783   3.181   2.475 -0.6674  1.3691  0.2067
 6815SOL    MW427028   3.787   3.144   2.554 -0.4762 -0.2477 -0.5339
 6816SOL     OW27029   3.613   4.132   2.972 -0.0142 -0.3559 -0.0600
 6816SOL    HW227030   3.646   4.169   2.891  0.9942 -2.3107 -0.5961
 6816SOL    HW327031   3.535   4.083   2.947 -1.6602  1.6699  0.7273
 6816SOL    MW427032   3.607   4.130   2.958 -0.0983 -0.3465 -0.0269
 6817SOL     OW27033   0.455   3.754   0.080 -0.1286  0.1001  1.2837
 6817SOL    HW227034   0.506   3.734   0.159  0.3647 -2.1768  0.4751
 6817SOL    HW327035   0.519   3.791   0.019 -0.2008  0.5026  1.4496
 6817SOL    MW427036   0.470   3.756   0.082 -0.0730 -0.1472  1.1989
 6818SOL     OW27037   1.627   2.455   3.083 -0.5509 -0.2779 -0.0311
 6818SOL    HW227038   1.542   2.498   3.067 -1.4303 -1.1507  1.9704
 6818SOL    HW327039   1.661   2.499   3.161  0.0326 -1.0906  0.1772
 6818SOL    MW427040   1.620   2.467   3.091 -0.5900 -0.5003  0.2604
 6819SOL     OW27041   0.477   5.311   3.260  0.3244  0.7304 -0.3057
 6819SOL    HW227042   0.561   5.358   3.264 -0.1714  1.5761  0.4452
 6819SOL    HW327043   0.411   5.380   3.254 -0.4823  0.2173  1.6644
 6819SOL    MW427044   0.480   5.326   3.260  0.1526  0.7743  0.0533
 6820SOL     OW27045   5.898   1.351   2.352 -0.0539  0.1973 -0.0723
 6820SOL    HW227046   5.812   1.377   2.385 -0.3124  0.4803 -0.9347
 6820SOL    HW327047   5.908   1.399   2.270 -0.2043 -1.8029 -1.3373
 6820SOL    MW427048   5.888   1.361   2.346 -0.1079 -0.0292 -0.3530
 6821SOL     OW27049   2.437   5.613   5.054 -0.0178  0.3533 -0.1748
 6821SOL    HW227050   2.376   5.629   5.126  1.0191 -0.8839  1.0552
 6821SOL    HW327051   2.510   5.567   5.096  1.0549  0.4499 -1.8710
 6821SOL    MW427052   2.439   5.609   5.069  0.2605  0.2028 -0.2363
 6822SOL     OW27053   4.329   1.486   4.537 -1.0396 -0.6785  0.0731
 6822SOL    HW227054   4.287   1.525   4.460 -1.8961 -1.3406  0.1861
 6822SOL    HW327055   4.334   1.558   4.600  0.9126  0.2401 -1.0436
 6822SOL    MW427056   4.324   1.501   4.535 -0.8950 -0.6446 -0.0593
 6823SOL     OW27057   5.507   1.975   2.014 -0.3242 -0.0241  0.6372
 6823SOL    HW227058   5.511   2.071   2.011 -0.7699  0.0182  1.1815
 6823SOL    HW327059   5.575   1.950   2.076 -0.9468  0.0175  1.3552
 6823SOL    MW427060   5.516   1.985   2.022 -0.4651 -0.0130  0.8038
 6824SOL     OW27061   5.888   5.104   6.304 -0.1585 -0.3549  0.6497
 6824SOL    HW227062   5.926   5.016   6.305  0.2107 -0.2031  0.1354
 6824SOL    HW327063   5.962   5.162   6.323 -0.1493 -0.0613 -0.2689
 6824SOL    MW427064   5.903   5.100   6.307 -0.1086 -0.2961  0.4606
 6825SOL     OW27065   1.990   4.531   2.450  0.0917  0.3182 -0.0209
 6825SOL    HW227066   2.059   4.535   2.384 -0.4335 -1.0666 -0.6984
 6825SOL    HW327067   1.983   4.438   2.472 -1.8198  0.3533 -0.2723
 6825SOL    MW427068   1.998   4.519   2.444 -0.2298  0.1401 -0.1435
 6826SOL     OW27069   5.963   1.463   2.635  0.1688 -0.2822 -0.2413
 6826SOL    HW227070   5.896   1.500   2.693 -0.8407 -0.0708 -1.5008
 6826SOL    HW327071   5.918   1.451   2.551  1.0936 -2.2730 -0.5028
 6826SOL    MW427072   5.948   1.467   2.632  0.1576 -0.5170 -0.4419
 6827SOL     OW27073   3.681   5.559   2.749 -0.0002 -0.0224 -0.2280
 6827SOL    HW227074   3.663   5.546   2.656 -0.6354  2.0526 -0.4563
 6827SOL    HW327075   3.774   5.582   2.752 -0.4012  1.8962 -0.6651
 6827SOL    MW427076   3.691   5.560   2.737 -0.1369  0.5045 -0.3158
 6828SOL     OW27077   2.102   1.562   0.095  0.0977  0.0854  0.2987
 6828SOL    HW227078   2.142   1.553   0.181 -0.4386 -0.4946  0.5020
 6828SOL    HW327079   2.103   1.473   0.059  0.9027  0.4283 -0.5711
 6828SOL    MW427080   2.107   1.549   0.102  0.1332  0.0541  0.2108
 6829SOL     OW27081   5.724   0.683   1.653  0.1042  0.1430  0.4527
 6829SOL    HW227082   5.709   0.650   1.742  1.3477 -1.6390  0.0479
 6829SOL    HW327083   5.787   0.754   1.665  1.6721 -1.2545  0.8892
 6829SOL    MW427084   5.730   0.688   1.666  0.4751 -0.2765  0.4569
 6830SOL     OW27085   2.969   4.266   1.812 -0.3290  0.0792  0.1535
 6830SOL    HW227086   3.022   4.214   1.752  1.5329 -1.3362  2.8009
 6830SOL    HW327087   2.908   4.203   1.851  0.5570  0.2559  1.9016
 6830SOL    MW427088   2.968   4.251   1.809  0.0336 -0.0842  0.7334
 6831SOL     OW27089   4.030   1.394   5.746 -0.4166  0.3176  0.2567
 6831SOL    HW227090   3.990   1.459   5.804  0.8402  0.1245  1.3761
 6831SOL    HW327091   4.087   1.342   5.803  0.1220 -0.4958 -0.9790
 6831SOL    MW427092   4.032   1.396   5.761 -0.1797  0.1848  0.2414
 6832SOL     OW27093   5.866   2.740   0.769  0.4055  0.1097  0.0621
 6832SOL    HW227094   5.878   2.727   0.863 -0.7655  3.3318  0.7657
 6832SOL    HW327095   5.772   2.737   0.756  0.4135  1.8879 -0.5876
 6832SOL    MW427096   5.855   2.738   0.780  0.2520  0.7694  0.0692
 6833SOL     OW27097   5.339   1.497   2.602  0.3503 -0.1918  0.0477
 6833SOL    HW227098   5.382   1.556   2.540  0.1958  0.9293  0.9629
 6833SOL    HW327099   5.371   1.410   2.580  0.0836  0.1323 -1.7772
 6833SOL    MW427100   5.349   1.493   2.591  0.2948 -0.0011 -0.0723
 6834SOL     OW27101   6.382   4.322   2.321  0.5742 -0.3807 -0.1847
 6834SOL    HW227102   6.386   4.245   2.265  0.1794 -0.5774  0.0503
 6834SOL    HW327103   6.378   4.286   2.410  0.2949 -0.0916 -0.0792
 6834SOL    MW427104   6.382   4.307   2.326  0.4852 -0.3685 -0.1397
 6835SOL     OW27105   4.445   1.653   3.719 -0.3023 -0.3618 -0.3172
 6835SOL    HW227106   4.512   1.697   3.666  0.5798 -0.6489  0.5327
 6835SOL    HW327107   4.374   1.717   3.726  0.8024  0.8172  0.6067
 6835SOL    MW427108   4.445   1.667   3.713 -0.0402 -0.2441 -0.0832
 6836SOL     OW27109   6.003   2.741   1.263 -0.6109  0.0583  0.0037
 6836SOL    HW227110   6.081   2.696   1.295  0.6398  2.4668  0.5878
 6836SOL    HW327111   5.930   2.694   1.303  0.6806 -0.2230  2.2136
 6836SOL    MW427112   6.003   2.729   1.272 -0.2755  0.3390  0.3723
 6837SOL     OW27113   0.306   6.061   0.755 -0.4391 -0.3091  0.3413
 6837SOL    HW227114   0.387   6.043   0.707 -0.2706 -3.0863  1.4930
 6837SOL    HW327115   0.335   6.080   0.844 -1.0176 -0.3384  0.5409
 6837SOL    MW427116   0.321   6.061   0.760 -0.4932 -0.6794  0.5196
 6838SOL     OW27117   0.161   4.861   3.128  0.4254  0.0932  0.1588
 6838SOL    HW227118   0.172   4.837   3.036 -0.3287  1.3626 -0.2836
 6838SOL    HW327119   0.072   4.833   3.149  1.8567 -4.0644  1.8020
 6838SOL    MW427120   0.151   4.854   3.118  0.5147 -0.2879  0.3172
 6839SOL     OW27121   2.062   6.213   4.429  0.1689  0.4723  0.3122
 6839SOL    HW227122   2.039   6.205   4.521 -2.4777  2.0069 -0.1013
 6839SOL    HW327123   2.042   6.128   4.391  0.8328 -0.0208  1.0412
 6839SOL    MW427124   2.057   6.201   4.436 -0.0927  0.6097  0.3538
 6840SOL     OW27125   1.581   5.362   0.392  0.2545 -0.1070  0.1967
 6840SOL    HW227126   1.612   5.386   0.479 -1.4607  0.1558  0.7695
 6840SOL    HW327127   1.491   5.394   0.388  0.1333 -0.5285 -1.5079
 6840SOL    MW427128   1.573   5.369   0.403  0.0122 -0.1280  0.0474
 6841SOL     OW27129   5.271   1.527   3.517  0.0182 -0.4911 -0.3158
 6841SOL    HW227130   5.218   1.606   3.507 -2.3718 -1.9950 -0.3664
 6841SOL    HW327131   5.347   1.555   3.569 -1.8267  1.4044  1.5833
 6841SOL    MW427132   5.274   1.541   3.523 -0.5405 -0.4394 -0.0719
 6842SOL     OW27133   6.099   0.442   0.570  0.1475 -0.5631  0.3741
 6842SOL    HW227134   6.160   0.408   0.504  0.8828  0.6540  0.3872
 6842SOL    HW327135   6.073   0.527   0.537  0.3816 -0.0098  1.5570
 6842SOL    MW427136   6.104   0.448   0.557  0.2754 -0.3296  0.5319
 6843SOL     OW27137   4.185   2.955   3.749  0.2686 -0.7151  0.0530
 6843SOL    HW227138   4.234   2.874   3.736 -0.8712 -1.0583 -3.0556
 6843SOL    HW327139   4.248   3.025   3.730  1.5503 -0.6504  3.7544
 6843SOL    MW427140   4.200   2.954   3.745  0.2873 -0.7519  0.1312
 6844SOL     OW27141   2.644   2.874   5.784  0.0529 -0.2608 -0.3407
 6844SOL    HW227142   2.710   2.810   5.757  0.2837 -0.0305 -0.3330
 6844SOL    HW327143   2.689   2.927   5.850  0.0577  0.2964 -0.7883
 6844SOL    MW427144   2.659   2.873   5.789  0.0840 -0.1569 -0.3988
 6845SOL     OW27145   4.402   2.179   3.978  0.4837  0.0528  0.2236
 6845SOL    HW227146   4.309   2.156   3.974  0.2697  0.7304  0.9329
 6845SOL    HW327147   4.407   2.263   3.932  0.7218  0.0863  0.3100
 6845SOL    MW427148   4.390   2.187   3.971  0.4869  0.1466  0.3286
 6846SOL     OW27149   1.011   5.253   0.170 -0.2772 -0.7587  0.2178
 6846SOL    HW227150   1.010   5.348   0.157 -0.5627 -0.8666 -0.5981
 6846SOL    HW327151   1.089   5.237   0.224  0.2741 -0.1578 -0.3838
 6846SOL    MW427152   1.021   5.264   0.175 -0.2421 -0.6936  0.0308
 6847SOL     OW27153   4.933   4.467   0.567  0.0521 -0.1499  0.3549
 6847SOL    HW227154   4.933   4.392   0.508 -1.7666 -0.3632  0.5837
 6847SOL    HW327155   4.861   4.522   0.536  2.4054  2.5061 -0.9647
 6847SOL    MW427156   4.924   4.465   0.555  0.1227  0.1724  0.2109
 6848SOL     OW27157   4.966   2.099   4.717  0.0503 -0.1449  0.4667
 6848SOL    HW227158   4.918   2.025   4.754 -0.8643 -0.8716 -2.0163
 6848SOL    HW327159   5.054   2.091   4.755 -0.5063 -1.4504  1.5876
 6848SOL    MW427160   4.971   2.088   4.727 -0.1438 -0.4130  0.2870
 6849SOL     OW27161   1.972   1.059   1.789  0.1460 -0.6309  0.7306
 6849SOL    HW227162   2.059   1.080   1.822  0.3039  2.1611 -1.1214
 6849SOL    HW327163   1.983   1.054   1.694 -1.4217 -1.9345  0.5847
 6849SOL    MW427164   1.985   1.061   1.781 -0.0400 -0.4346  0.4670
 6850SOL     OW27165   5.198   2.684   4.881  0.2629  0.2475  0.1704
 6850SOL    HW227166   5.202   2.779   4.880  1.9692  0.2068  0.6858
 6850SOL    HW327167   5.248   2.658   4.959 -0.5155 -1.0637  0.2738
 6850SOL    MW427168   5.205   2.693   4.891  0.3853  0.0691  0.2520
 6851SOL     OW27169   3.036   1.180   3.573 -0.0977 -0.3149 -0.0543
 6851SOL    HW227170   3.021   1.274   3.564 -3.2340 -0.7080 -0.1253
 6851SOL    HW327171   3.055   1.168   3.666 -0.1632  0.3603  0.0536
 6851SOL    MW427172   3.036   1.191   3.584 -0.5201 -0.2776 -0.0494
 6852SOL     OW27173   5.681   1.195   2.089  0.2429  0.6082  0.1545
 6852SOL    HW227174   5.622   1.257   2.132 -0.6339 -0.5080  0.6054
 6852SOL    HW327175   5.645   1.186   2.000  0.3306  0.6824  0.1107
 6852SOL    MW427176   5.668   1.202   2.083  0.1388  0.4707  0.2082
 6853SOL     OW27177   1.361   0.054   0.980  0.5903  0.2679 -0.0502
 6853SOL    HW227178   1.325  -0.017   1.034  2.5502 -0.9622 -0.2456
 6853SOL    HW327179   1.296   0.124   0.985  0.2890 -0.1163  3.1930
 6853SOL    MW427180   1.348   0.054   0.987  0.8091  0.0549  0.3519
 6854SOL     OW27181   3.967   3.047   0.056 -0.7106 -0.6086  0.1336
 6854SOL    HW227182   3.887   3.060   0.107 -0.5862  0.2169  0.1380
 6854SOL    HW327183   3.980   2.952   0.055 -0.3117 -0.6296  2.2759
 6854SOL    MW427184   3.958   3.036   0.062 -0.6416 -0.5024  0.4168
 6855SOL     OW27185   1.541   0.690   4.160  0.2158  0.0742 -0.3560
 6855SOL    HW227186   1.599   0.691   4.083  0.5315  1.0864 -0.1217
 6855SOL    HW327187   1.598   0.666   4.233  0.5093  1.6410 -0.0263
 6855SOL    MW427188   1.556   0.687   4.159  0.2962  0.4145 -0.2816
 6856SOL     OW27189   0.731   6.287   4.432 -0.4289  0.2645 -0.5314
 6856SOL    HW227190   0.713   6.246   4.348  1.0671  0.2804 -0.8837
 6856SOL    HW327191   0.769   6.372   4.410  0.7358 -0.0633  0.1430
 6856SOL    MW427192   0.733   6.293   4.418 -0.0778  0.2234 -0.4889
 6857SOL     OW27193   0.356   5.750   5.837 -0.2845  0.4448  0.2272
 6857SOL    HW227194   0.319   5.730   5.924 -1.3147  0.0197 -0.2841
 6857SOL    HW327195   0.347   5.669   5.788  0.1851  0.7167 -0.3214
 6857SOL    MW427196   0.350   5.737   5.842 -0.3585  0.4246  0.0873
 6858SOL     OW27197   5.841   4.067   2.320 -0.0457  0.3007  0.4136
 6858SOL    HW227198   5.899   4.135   2.355  0.8135 -0.1481 -0.1128
 6858SOL    HW327199   5.787   4.113   2.255  1.1949  0.3204 -0.6507
 6858SOL    MW427200   5.841   4.082   2.316  0.2314  0.2441  0.2037
 6859SOL     OW27201   5.646   2.286   2.858 -0.2995 -0.2349 -0.3922
 6859SOL    HW227202   5.723   2.300   2.913 -0.5069  0.5013 -0.2793
 6859SOL    HW327203   5.646   2.192   2.839  1.6833  0.0010 -1.9450
 6859SOL    MW427204   5.656   2.276   2.862 -0.0652 -0.1066 -0.5822
 6860SOL     OW27205   4.929   0.669   5.402  0.0881  0.0414  0.5675
 6860SOL    HW227206   4.874   0.625   5.338  0.5026  0.6116 -0.1919
 6860SOL    HW327207   4.925   0.762   5.379  0.8745  0.1652  0.8654
 6860SOL    MW427208   4.921   0.676   5.391  0.2465  0.1330  0.5066
 6861SOL     OW27209   3.605   3.369   1.974 -0.2694 -0.1046  0.4419
 6861SOL    HW227210   3.516   3.351   2.005 -0.6497  0.6276 -0.1948
 6861SOL    HW327211   3.654   3.289   1.994 -1.4524 -1.1498 -0.6784
 6861SOL    MW427212   3.600   3.356   1.981 -0.4756 -0.1459  0.2101
 6862SOL     OW27213   4.988   0.608   0.185  0.5832 -0.0684  0.1714
 6862SOL    HW227214   4.939   0.681   0.223 -0.4160 -0.2872 -0.6587
 6862SOL    HW327215   5.074   0.613   0.227 -0.8992 -1.2473  3.6344
 6862SOL    MW427216   4.993   0.618   0.195  0.2558 -0.2528  0.5188
 6863SOL     OW27217   4.766   0.196   3.993  0.2406  0.4271  0.0456
 6863SOL    HW227218   4.755   0.105   4.021 -1.9713  0.3928 -0.7126
 6863SOL    HW327219   4.811   0.239   4.066  2.1457 -1.4393  0.0486
 6863SOL    MW427220   4.770   0.190   4.006  0.2001  0.1763 -0.0540
 6864SOL     OW27221   5.101   6.338   3.501 -0.0283 -0.2799  0.0170
 6864SOL    HW227222   5.137   6.419   3.538  0.6024 -0.3854 -0.3395
 6864SOL    HW327223   5.122   6.271   3.566  1.4895 -0.5471 -0.7072
 6864SOL    MW427224   5.109   6.340   3.514  0.2552 -0.3291 -0.1255
 6865SOL     OW27225   1.136   4.093   4.939 -0.2015 -0.8008 -0.2404
 6865SOL    HW227226   1.108   4.078   5.030 -0.7028  0.5714 -0.1530
 6865SOL    HW327227   1.071   4.046   4.887 -0.3049 -1.0317  0.0893
 6865SOL    MW427228   1.124   4.085   4.944 -0.2813 -0.6502 -0.1854
 6866SOL     OW27229   4.834   5.358   0.250  0.5113 -0.1506 -0.4485
 6866SOL    HW227230   4.795   5.350   0.338  0.9003  0.0519 -0.2549
 6866SOL    HW327231   4.919   5.399   0.266  0.3944  0.2962 -0.9654
 6866SOL    MW427232   4.840   5.362   0.264  0.5472 -0.0649 -0.4911
 6867SOL     OW27233   5.127   5.567   5.168  0.1737  0.1579  0.2533
 6867SOL    HW227234   5.061   5.567   5.098 -0.2885  1.4604  0.6500
 6867SOL    HW327235   5.209   5.588   5.123  0.0107  0.2445 -0.0096
 6867SOL    MW427236   5.129   5.570   5.153  0.0912  0.3412  0.2710
 6868SOL     OW27237   2.676   5.544   1.983 -0.1963  0.4186  0.4553
 6868SOL    HW227238   2.618   5.593   2.041  0.3051  1.9657 -0.3073
 6868SOL    HW327239   2.756   5.595   1.980  0.4097 -0.5356 -0.2505
 6868SOL    MW427240   2.679   5.557   1.990 -0.0502  0.4968  0.2616
 6869SOL     OW27241   1.647   6.431   5.459 -0.0673 -0.6465  0.1660
 6869SOL    HW227242   1.636   6.378   5.537 -1.2915  0.4585  0.7730
 6869SOL    HW327243   1.569   6.413   5.406 -1.0850  1.3546  0.9018
 6869SOL    MW427244   1.635   6.422   5.462 -0.3631 -0.2367  0.3431
 6870SOL     OW27245   0.496   4.718   5.776 -0.3002 -0.5168  0.4651
 6870SOL    HW227246   0.577   4.683   5.739 -0.7508 -0.3995 -0.6764
 6870SOL    HW327247   0.427   4.664   5.737 -0.9006  0.6444 -0.1232
 6870SOL    MW427248   0.498   4.706   5.766 -0.4389 -0.3481  0.2369
 6871SOL     OW27249   3.371   3.841   0.929 -0.2429 -0.0547  0.3418
 6871SOL    HW227250   3.412   3.793   1.001  1.1858 -2.5362 -1.8988
 6871SOL    HW327251   3.304   3.780   0.896  1.5185 -0.6666 -2.5110
 6871SOL    MW427252   3.368   3.826   0.934  0.1780 -0.4628 -0.3302
 6872SOL     OW27253   4.814   3.186   5.759  0.0758 -0.4204  0.0059
 6872SOL    HW227254   4.816   3.278   5.786  0.3201  0.2879 -2.2369
 6872SOL    HW327255   4.756   3.185   5.682  0.8126 -1.9840 -0.5696
 6872SOL    MW427256   4.806   3.198   5.752  0.2052 -0.5332 -0.3659
 6873SOL     OW27257   5.813   2.231   6.448 -0.3485 -0.4368 -0.3245
 6873SOL    HW227258   5.833   2.268   6.362  0.1654  0.7188  0.2762
 6873SOL    HW327259   5.844   2.296   6.511 -0.2816 -1.4657  0.7583
 6873SOL    MW427260   5.820   2.244   6.445 -0.2719 -0.4201 -0.1024
 6874SOL     OW27261   4.308   3.789   3.491  0.3893  0.5641 -0.3166
 6874SOL    HW227262   4.322   3.779   3.585 -0.1108  1.7453 -0.0896
 6874SOL    HW327263   4.385   3.750   3.451 -0.3681 -1.9060  0.4648
 6874SOL    MW427264   4.320   3.783   3.498  0.2234  0.3940 -0.1835
 6875SOL     OW27265   1.372   0.896   5.390 -0.0812 -0.2119  0.3842
 6875SOL    HW227266   1.392   0.973   5.336 -0.9772 -0.0570  0.2564
 6875SOL    HW327267   1.286   0.915   5.427 -1.2728 -1.9849 -1.2516
 6875SOL    MW427268   1.364   0.909   5.387 -0.3566 -0.4254  0.1515
 6876SOL     OW27269   3.376   1.689   4.337  0.7054  0.2605  0.2193
 6876SOL    HW227270   3.316   1.752   4.297  0.2484 -0.3615 -0.1089
 6876SOL    HW327271   3.452   1.687   4.279  1.0701  1.0822  0.6572
 6876SOL    MW427272   3.378   1.697   4.324  0.6932  0.2868  0.2337
 6877SOL     OW27273   0.116   0.747   3.031  0.1426  0.5493  0.0800
 6877SOL    HW227274   0.157   0.716   2.951  0.1229  0.3387  0.1500
 6877SOL    HW327275   0.054   0.814   3.003  0.3149  0.6516 -0.0558
 6877SOL    MW427276   0.114   0.752   3.017  0.1627  0.5350  0.0713
 6878SOL     OW27277   3.155   5.597   6.197 -0.0643 -0.6107 -0.5447
 6878SOL    HW227278   3.179   5.505   6.189 -0.7953 -0.7154 -1.9957
 6878SOL    HW327279   3.164   5.632   6.108  0.5527  0.8186  0.0493
 6878SOL    MW427280   3.159   5.589   6.184 -0.0793 -0.4359 -0.6578
 6879SOL     OW27281   0.963   5.032   1.178 -0.3518 -0.6033 -0.1266
 6879SOL    HW227282   0.950   5.086   1.100 -0.0881 -0.6562 -0.2082
 6879SOL    HW327283   0.877   4.996   1.197 -0.0332 -2.3312 -1.6815
 6879SOL    MW427284   0.950   5.034   1.170 -0.2749 -0.8382 -0.3425
 6880SOL     OW27285   0.284   3.641   2.764 -0.1783  0.7228  0.4586
 6880SOL    HW227286   0.379   3.652   2.758 -0.1489  0.5922  0.6887
 6880SOL    HW327287   0.270   3.592   2.845 -0.2349 -1.8167 -0.9681
 6880SOL    MW427288   0.295   3.636   2.774 -0.1819  0.3705  0.3007
 6881SOL     OW27289   5.156   1.575   1.967  0.3246 -0.5826  0.2000
 6881SOL    HW227290   5.087   1.585   1.901  0.4472 -1.9730 -0.1661
 6881SOL    HW327291   5.237   1.572   1.917  0.6450  0.6320  0.6039
 6881SOL    MW427292   5.158   1.576   1.952  0.3830 -0.6058  0.2050
 6882SOL     OW27293   6.141   4.032   1.187  0.7187  0.2443  0.3970
 6882SOL    HW227294   6.156   4.105   1.128  0.7143 -0.8448 -1.0180
 6882SOL    HW327295   6.053   4.047   1.222  0.7631  0.9587  0.2116
 6882SOL    MW427296   6.131   4.043   1.184  0.7240  0.1949  0.1858
 6883SOL     OW27297   1.463   2.192   1.449 -0.4450  0.0240  0.0273
 6883SOL    HW227298   1.552   2.223   1.432 -0.1511 -0.4985  0.5700
 6883SOL    HW327299   1.417   2.204   1.366  0.5323 -1.0794 -0.7161
 6883SOL    MW427300   1.469   2.198   1.436 -0.2773 -0.1905  0.0008
 6884SOL     OW27301   5.387   2.160   4.847 -0.1321 -0.4620 -0.5370
 6884SOL    HW227302   5.445   2.142   4.773  0.7161  0.6898 -0.1828
 6884SOL    HW327303   5.322   2.221   4.813  0.3752  0.2263 -0.3225
 6884SOL    MW427304   5.386   2.166   4.833  0.0467 -0.2192 -0.4620
 6885SOL     OW27305   5.975   5.936   2.916  0.6654 -0.2626 -0.9859
 6885SOL    HW227306   5.943   6.013   2.963  3.0771  0.6257 -0.6581
 6885SOL    HW327307   5.963   5.864   2.978  1.6822  0.4946  0.1318
 6885SOL    MW427308   5.969   5.937   2.931  1.1178 -0.0455 -0.7952
 6886SOL     OW27309   1.494   5.544   3.100 -0.0287 -0.1771 -0.3999
 6886SOL    HW227310   1.563   5.506   3.154 -0.8984 -0.4004  0.5866
 6886SOL    HW327311   1.510   5.509   3.012  1.3845  0.1713 -0.2914
 6886SOL    MW427312   1.505   5.534   3.095  0.0430 -0.1606 -0.2554
 6887SOL     OW27313   0.697   2.553   4.950  0.4449  0.4429  0.0469
 6887SOL    HW227314   0.611   2.514   4.968  1.8297 -2.7395  0.3777
 6887SOL    HW327315   0.696   2.636   4.997 -2.6053  0.7998 -0.4170
 6887SOL    MW427316   0.685   2.559   4.958  0.2251  0.0701  0.0293
 6888SOL     OW27317   6.309   3.822   2.335 -0.0547  0.3436 -0.0937
 6888SOL    HW227318   6.219   3.795   2.355 -0.4029  0.8407 -0.9706
 6888SOL    HW327319   6.356   3.740   2.319 -0.8791  0.1868 -1.8050
 6888SOL    MW427320   6.304   3.808   2.336 -0.2094  0.3885 -0.4351
 6889SOL     OW27321   3.611   5.923   3.893  0.0731 -0.0662 -0.1809
 6889SOL    HW227322   3.590   5.840   3.935  2.8979 -0.3682  0.8659
 6889SOL    HW327323   3.564   5.989   3.944  0.2452 -0.7958  0.9586
 6889SOL    MW427324   3.602   5.921   3.905  0.4685 -0.2023  0.1075
 6890SOL     OW27325   5.466   4.871   1.214  0.0353  0.5983 -0.1253
 6890SOL    HW227326   5.449   4.841   1.125  0.1167  1.3179 -0.3861
 6890SOL    HW327327   5.379   4.877   1.254 -0.0458  0.8289 -0.3361
 6890SOL    MW427328   5.452   4.868   1.208  0.0354  0.7236 -0.1875
 6891SOL     OW27329   3.128   2.403   0.462 -0.4907 -0.4440  0.7562
 6891SOL    HW227330   3.124   2.388   0.368 -0.3251  1.9245  0.3082
 6891SOL    HW327331   3.038   2.391   0.492 -1.3240  2.2554 -0.3788
 6891SOL    MW427332   3.116   2.400   0.454 -0.5788  0.2246  0.5474
 6892SOL     OW27333   2.766   4.302   0.578 -0.2863 -0.1816 -0.0626
 6892SOL    HW227334   2.798   4.382   0.536 -2.7214  0.4309 -0.9348
 6892SOL    HW327335   2.752   4.327   0.669  2.2052 -0.6631  0.5124
 6892SOL    MW427336   2.768   4.316   0.584 -0.2789 -0.1644 -0.1018
 6893SOL     OW27337   3.537   0.693   4.326 -0.3275 -0.1194 -0.1473
 6893SOL    HW227338   3.503   0.717   4.412  0.5524 -1.0863  0.4906
 6893SOL    HW327339   3.526   0.598   4.322  1.9600 -0.4420 -0.0335
 6893SOL    MW427340   3.531   0.684   4.337  0.0904 -0.2895 -0.0481
 6894SOL     OW27341   5.696   1.477   1.403 -0.5127 -0.0057 -0.4253
 6894SOL    HW227342   5.639   1.413   1.445 -1.0889  1.0605  0.4497
 6894SOL    HW327343   5.723   1.435   1.321 -2.7741 -0.4263 -1.0177
 6894SOL    MW427344   5.692   1.463   1.398 -0.8871  0.0795 -0.3880
 6895SOL     OW27345   0.386   1.312   4.842 -0.3182  0.6377  0.1677
 6895SOL    HW227346   0.338   1.253   4.900  0.5138  0.5878  0.8244
 6895SOL    HW327347   0.318   1.357   4.792 -0.9887 -1.8729 -1.3804
 6895SOL    MW427348   0.371   1.310   4.843 -0.2969  0.2999  0.0501
 6896SOL     OW27349   3.348   3.797   4.651 -0.1568  0.0558  0.5882
 6896SOL    HW227350   3.355   3.767   4.741 -0.6789 -1.0634  0.2693
 6896SOL    HW327351   3.355   3.893   4.657 -0.8047  0.0386  1.8778
 6896SOL    MW427352   3.350   3.806   4.663 -0.3112 -0.0941  0.7163
 6897SOL     OW27353   3.119   2.320   0.205 -0.5229  0.0603 -0.3172
 6897SOL    HW227354   3.084   2.388   0.148 -0.5188 -0.2164 -0.6464
 6897SOL    HW327355   3.150   2.251   0.146 -0.1778 -0.0630 -0.0009
 6897SOL    MW427356   3.119   2.320   0.190 -0.4769  0.0075 -0.3189
 6898SOL     OW27357   3.645   2.394   4.911 -0.4241 -0.2351 -0.3256
 6898SOL    HW227358   3.574   2.454   4.934 -0.6010 -0.6583  0.2431
 6898SOL    HW327359   3.723   2.436   4.947 -0.4418  0.0090 -0.5642
 6898SOL    MW427360   3.646   2.408   4.919 -0.4498 -0.2587 -0.2820
 6899SOL     OW27361   3.069   2.704   2.232 -0.6735 -0.3156 -0.3270
 6899SOL    HW227362   2.990   2.662   2.266 -0.5979  0.5076  0.8881
 6899SOL    HW327363   3.038   2.780   2.183 -0.6345  0.0526  0.2167
 6899SOL    MW427364   3.055   2.708   2.230 -0.6584 -0.1584 -0.0950
 6900SOL     OW27365   3.942   5.031   4.127 -0.2474  0.1069  0.3471
 6900SOL    HW227366   3.982   5.046   4.042  0.5775 -0.1398  0.6795
 6900SOL    HW327367   3.867   4.975   4.109  0.8234 -1.2579 -0.0507
 6900SOL    MW427368   3.938   5.025   4.113  0.0027 -0.1057  0.3384
 6901SOL     OW27369   3.760   2.285   4.027  0.6407 -0.5396 -0.2866
 6901SOL    HW227370   3.697   2.312   4.094  1.0501 -0.1616 -0.0523
 6901SOL    HW327371   3.818   2.360   4.016  0.7107 -0.6787 -0.9115
 6901SOL    MW427372   3.759   2.298   4.035  0.7040 -0.5081 -0.3381
 6902SOL     OW27373   0.623   2.031   0.091 -0.2002 -0.0912 -0.0622
 6902SOL    HW227374   0.680   2.056   0.018  0.0259  0.3700  0.2667
 6902SOL    HW327375   0.544   2.083   0.078  0.5458  1.4013  1.0188
 6902SOL    MW427376   0.620   2.041   0.079 -0.0720  0.1666  0.1238
 6903SOL     OW27377   2.195   6.140   0.233 -1.0625  0.1471  0.6797
 6903SOL    HW227378   2.192   6.137   0.329 -0.1606 -0.2313  0.7110
 6903SOL    HW327379   2.128   6.078   0.205 -2.2958  1.2848  1.0345
 6903SOL    MW427380   2.186   6.131   0.242 -1.1062  0.2473  0.7306
 6904SOL     OW27381   6.375   2.547   5.411 -0.6244  0.3284 -0.1181
 6904SOL    HW227382   6.306   2.543   5.344 -0.7325  0.3944 -0.0105
 6904SOL    HW327383   6.389   2.456   5.436  0.9805  0.0463 -1.8243
 6904SOL    MW427384   6.368   2.534   5.405 -0.4269  0.2999 -0.3290
 6905SOL     OW27385   3.112   2.714   3.855 -0.4334  0.2226 -0.0207
 6905SOL    HW227386   3.151   2.636   3.895  2.8237  2.2974  1.2563
 6905SOL    HW327387   3.050   2.679   3.790 -0.6178 -3.3506  1.8041
 6905SOL    MW427388   3.109   2.699   3.852 -0.0280  0.0249  0.3886
 6906SOL     OW27389   5.411   1.550   0.536 -0.5255  0.3356  0.2060
 6906SOL    HW227390   5.416   1.455   0.534  0.4521  0.3846  0.0946
 6906SOL    HW327391   5.442   1.578   0.450  0.6214  0.7992  0.7475
 6906SOL    MW427392   5.416   1.541   0.524 -0.2452  0.4033  0.2628
 6907SOL     OW27393   5.202   5.419   4.593 -0.1842 -0.9251 -0.1012
 6907SOL    HW227394   5.119   5.372   4.592 -1.2750  0.9236 -1.1051
 6907SOL    HW327395   5.182   5.504   4.631  1.1552 -0.2845 -0.7507
 6907SOL    MW427396   5.189   5.424   4.598 -0.1514 -0.5966 -0.3194
 6908SOL     OW27397   2.116   2.823   4.643  0.2574 -0.2562 -0.1753
 6908SOL    HW227398   2.154   2.748   4.597  1.8341  1.5039 -1.9341
 6908SOL    HW327399   2.173   2.835   4.720 -0.0785 -0.9210  0.1809
 6908SOL    MW427400   2.129   2.815   4.647  0.4211 -0.1117 -0.3603
 6909SOL     OW27401   1.459   6.035   6.291 -0.0940 -0.3838 -0.0452
 6909SOL    HW227402   1.426   6.107   6.237 -0.5695 -0.7561 -0.2580
 6909SOL    HW327403   1.401   5.962   6.272 -0.3689 -0.4806  1.1040
 6909SOL    MW427404   1.447   6.035   6.281 -0.1930 -0.4457  0.0783
 6910SOL     OW27405   5.750   4.612   0.684 -0.3071 -0.2566  0.3384
 6910SOL    HW227406   5.775   4.650   0.600  2.2974 -1.9083  0.2194
 6910SOL    HW327407   5.689   4.541   0.661 -1.5906  0.8824  0.1364
 6910SOL    MW427408   5.745   4.607   0.670 -0.1328 -0.3243  0.2960
 6911SOL     OW27409   1.296   5.859   5.441 -0.2694 -0.7227 -0.0681
 6911SOL    HW227410   1.235   5.833   5.510 -0.5290 -1.0385 -0.4126
 6911SOL    HW327411   1.344   5.778   5.420  0.8832 -0.2953  0.8037
 6911SOL    MW427412   1.294   5.845   5.447 -0.1515 -0.7080  0.0015
 6912SOL     OW27413   6.108   4.415   2.020 -0.0235  0.1277 -0.2602
 6912SOL    HW227414   6.141   4.498   2.055  1.0660  0.3568 -1.7254
 6912SOL    HW327415   6.163   4.398   1.944 -0.9625 -1.3831 -0.6393
 6912SOL    MW427416   6.119   4.424   2.015 -0.0037 -0.0414 -0.5036
 6913SOL     OW27417   4.441   5.290   5.203  0.7384  0.0974  0.2643
 6913SOL    HW227418   4.517   5.247   5.162 -0.7900 -2.4243 -0.1068
 6913SOL    HW327419   4.388   5.320   5.129 -0.2596 -1.2091  0.4285
 6913SOL    MW427420   4.444   5.288   5.188  0.4050 -0.4077  0.2370
 6914SOL     OW27421   3.551   6.128   4.981 -0.0300  0.3344  0.4922
 6914SOL    HW227422   3.584   6.107   5.069 -0.1039 -1.7228  0.0681
 6914SOL    HW327423   3.626   6.113   4.924 -0.7797 -1.2719 -0.1141
 6914SOL    MW427424   3.565   6.123   4.985 -0.1387 -0.1489  0.3563
 6915SOL     OW27425   3.824   4.195   4.378 -0.5179  0.4809 -0.7483
 6915SOL    HW227426   3.736   4.192   4.417 -0.9314 -0.6675 -1.7296
 6915SOL    HW327427   3.880   4.224   4.450 -1.4304 -0.5046  0.3998
 6915SOL    MW427428   3.819   4.199   4.393 -0.6928  0.1993 -0.7263
 6916SOL     OW27429   4.360   3.143   0.594  0.1375  0.2110  0.6191
 6916SOL    HW227430   4.346   3.057   0.633  0.0784  0.7506  1.8478
 6916SOL    HW327431   4.358   3.128   0.499  1.7849 -1.4091  0.7764
 6916SOL    MW427432   4.358   3.130   0.586  0.3471  0.0685  0.8020
 6917SOL     OW27433   1.929   1.771   0.179  0.1187  0.1919  0.1656
 6917SOL    HW227434   1.985   1.823   0.121  0.3558 -0.4732 -0.2071
 6917SOL    HW327435   1.952   1.680   0.160  0.9735 -0.0485  2.0267
 6917SOL    MW427436   1.940   1.766   0.169  0.2627  0.0725  0.3620
 6918SOL     OW27437   1.741   2.431   2.369  0.6107 -0.3304 -0.3570
 6918SOL    HW227438   1.785   2.348   2.351  0.4456 -0.1325 -1.7765
 6918SOL    HW327439   1.721   2.467   2.283 -1.2276  0.1889  0.2449
 6918SOL    MW427440   1.744   2.425   2.355  0.3464 -0.2358 -0.4649
 6919SOL     OW27441   3.508   5.446   2.104 -0.3880 -0.5880 -0.0180
 6919SOL    HW227442   3.515   5.530   2.148  0.3077 -0.6360 -0.0148
 6919SOL    HW327443   3.414   5.428   2.100 -0.5030 -0.1863  0.6872
 6919SOL    MW427444   3.497   5.454   2.110 -0.3114 -0.5414  0.0754
 6920SOL     OW27445   4.744   1.185   1.945 -0.1733 -0.1641 -0.4178
 6920SOL    HW227446   4.811   1.164   2.010 -1.6895 -0.7271  1.0416
 6920SOL    HW327447   4.793   1.212   1.867  1.7326 -1.1290  0.3887
 6920SOL    MW427448   4.760   1.186   1.943 -0.1219 -0.3657 -0.1188
 6921SOL     OW27449   3.181   2.459   3.944 -0.4937  0.7390 -0.5503
 6921SOL    HW227450   3.097   2.453   3.991  0.2084 -1.0531  0.5664
 6921SOL    HW327451   3.246   2.466   4.013  0.2828  2.9565 -1.4275
 6921SOL    MW427452   3.178   2.459   3.959 -0.2986  0.7951 -0.5187
 6922SOL     OW27453   1.754   5.955   3.802  0.1262 -0.5876 -0.2082
 6922SOL    HW227454   1.826   5.910   3.757 -0.1296 -0.9543 -0.2529
 6922SOL    HW327455   1.720   5.890   3.863 -2.0665 -1.4598 -2.2067
 6922SOL    MW427456   1.759   5.941   3.804 -0.1968 -0.7510 -0.4778
 6923SOL     OW27457   0.094   2.946   0.196  0.1255 -0.8486  0.9929
 6923SOL    HW227458   0.030   2.913   0.260  1.0684  0.5870  2.7784
 6923SOL    HW327459   0.175   2.954   0.246  0.6259  1.4273 -0.0749
 6923SOL    MW427460   0.096   2.942   0.211  0.3159 -0.3589  1.0876
 6924SOL     OW27461   0.564   2.705   6.265  0.5888  0.3079  0.0425
 6924SOL    HW227462   0.653   2.735   6.248  0.7881  0.1719  0.8252
 6924SOL    HW327463   0.541   2.655   6.187  2.4269 -2.4818  1.1552
 6924SOL    MW427464   0.573   2.703   6.252  0.8576 -0.0781  0.2926
 6925SOL     OW27465   5.593   5.929   1.544 -0.2423  0.3694  0.1533
 6925SOL    HW227466   5.528   5.886   1.600  0.6684 -0.4607  0.6079
 6925SOL    HW327467   5.606   5.868   1.472 -1.8980  1.7285 -1.3865
 6925SOL    MW427468   5.586   5.915   1.542 -0.3406  0.4392  0.0101
 6926SOL     OW27469   3.811   1.818   0.505 -0.0423 -0.1939  0.6833
 6926SOL    HW227470   3.775   1.864   0.429  1.5522 -0.3641 -0.2119
 6926SOL    HW327471   3.741   1.758   0.531 -0.3390 -0.7608 -1.2156
 6926SOL    MW427472   3.797   1.816   0.498  0.1290 -0.2912  0.3146
 6927SOL     OW27473   4.617   1.569   4.948 -0.0552  0.3131  0.0939
 6927SOL    HW227474   4.703   1.530   4.937  0.1634  0.6198  0.6330
 6927SOL    HW327475   4.603   1.620   4.869  0.6708  1.0140  0.4009
 6927SOL    MW427476   4.626   1.571   4.936  0.0694  0.4461  0.2056
 6928SOL     OW27477   3.054   5.923   1.142  0.1005 -0.1250 -0.5251
 6928SOL    HW227478   3.012   5.878   1.069 -0.2718 -1.5614  0.5051
 6928SOL    HW327479   3.003   5.895   1.219  1.0128  0.6299  0.3820
 6928SOL    MW427480   3.042   5.913   1.143  0.1718 -0.2149 -0.2695
 6929SOL     OW27481   6.118   2.040   5.680 -0.4786 -0.6627  0.4797
 6929SOL    HW227482   6.196   2.053   5.733 -0.4688 -1.5229  0.6827
 6929SOL    HW327483   6.120   1.948   5.654  0.4025  0.0792 -2.4505
 6929SOL    MW427484   6.128   2.030   5.684 -0.3611 -0.6783  0.1199
 6930SOL     OW27485   3.235   0.075   1.845  0.1884 -0.1246 -0.1121
 6930SOL    HW227486   3.244   0.120   1.929 -0.2005  0.0048 -0.1363
 6930SOL    HW327487   3.143   0.047   1.843  0.8022 -2.5302  0.7116
 6930SOL    MW427488   3.224   0.077   1.856  0.2180 -0.4249 -0.0066
 6931SOL     OW27489   2.213   2.061   0.744  0.8269 -0.2463 -0.6937
 6931SOL    HW227490   2.303   2.044   0.716  0.7837  1.9328 -2.4534
 6931SOL    HW327491   2.219   2.140   0.799  0.2633 -1.6685  1.5583
 6931SOL    MW427492   2.225   2.069   0.748  0.7468 -0.1464 -0.6288
 6932SOL     OW27493   0.963   5.835   4.171  0.3248 -0.0814 -0.2302
 6932SOL    HW227494   0.884   5.799   4.130  0.0046  0.2013  0.1331
 6932SOL    HW327495   1.035   5.788   4.129  0.0402  0.6711 -1.6121
 6932SOL    MW427496   0.962   5.824   4.160  0.2450  0.0552 -0.3646
 6933SOL     OW27497   2.095   2.462   2.434 -0.3642 -0.0845 -0.3944
 6933SOL    HW227498   2.095   2.420   2.348 -1.7052 -0.7961 -0.0659
 6933SOL    HW327499   2.155   2.408   2.486  1.1504  0.8600 -1.0828
 6933SOL    MW427500   2.103   2.449   2.429 -0.3413 -0.0537 -0.4419
 6934SOL     OW27501   6.224   0.997   0.559  0.7233 -0.6285 -0.7149
 6934SOL    HW227502   6.254   0.999   0.650 -0.5494  0.6680 -0.2739
 6934SOL    HW327503   6.138   1.040   0.562 -0.3416 -2.5382 -2.1805
 6934SOL    MW427504   6.216   1.003   0.571  0.4149 -0.7094 -0.8501
 6935SOL     OW27505   1.912   0.857   4.614 -0.2229 -0.3148  0.6577
 6935SOL    HW227506   1.898   0.888   4.704 -0.8410  1.2286  0.0633
 6935SOL    HW327507   1.849   0.786   4.602 -1.2155  0.5075  0.9519
 6935SOL    MW427508   1.902   0.852   4.624 -0.4354 -0.0027  0.6181
 6936SOL     OW27509   1.806   2.070   3.000 -0.1310 -0.1322 -0.1386
 6936SOL    HW227510   1.743   2.124   2.952 -1.0331  0.3644  1.5168
 6936SOL    HW327511   1.833   2.124   3.074 -1.5084 -2.0545  1.9174
 6936SOL    MW427512   1.801   2.084   3.003 -0.4318 -0.3203  0.3511
 6937SOL     OW27513   5.883   1.217   3.998  0.0747 -0.0423 -0.1513
 6937SOL    HW227514   5.792   1.241   4.015 -0.1337  0.2195 -1.5337
 6937SOL    HW327515   5.902   1.148   4.061 -0.8692  0.3523  0.5906
 6937SOL    MW427516   5.874   1.211   4.009 -0.0773  0.0443 -0.2358
 6938SOL     OW27517   4.809   4.382   2.871  0.2616  0.1568 -0.4010
 6938SOL    HW227518   4.859   4.459   2.898  0.9067 -0.5069  0.3350
 6938SOL    HW327519   4.739   4.376   2.936  0.8610 -0.5051  0.1967
 6938SOL    MW427520   4.806   4.391   2.883  0.4258 -0.0181 -0.2251
 6939SOL     OW27521   1.807   3.330   5.314 -0.1892  0.4055  0.2719
 6939SOL    HW227522   1.873   3.264   5.331 -0.0408  0.3816 -0.3891
 6939SOL    HW327523   1.807   3.341   5.219 -0.4387  1.1176  0.3452
 6939SOL    MW427524   1.816   3.323   5.304 -0.2026  0.4963  0.1944
 6940SOL     OW27525   5.811   3.584   4.157  0.9385  0.4979 -0.2036
 6940SOL    HW227526   5.777   3.626   4.236 -0.1821 -0.6930 -0.0224
 6940SOL    HW327527   5.900   3.557   4.180  0.9458  0.9732  0.3395
 6940SOL    MW427528   5.818   3.586   4.170  0.7916  0.4035 -0.1081
 6941SOL     OW27529   3.528   2.019   4.390 -0.1379  0.6004 -0.4963
 6941SOL    HW227530   3.461   1.980   4.446 -0.9321 -0.4958 -2.1288
 6941SOL    HW327531   3.595   1.951   4.383  0.7232  1.3371  0.3730
 6941SOL    MW427532   3.528   2.005   4.396 -0.1291  0.5529 -0.5970
 6942SOL     OW27533   3.247   5.999   4.928 -0.3744  0.4521  0.5316
 6942SOL    HW227534   3.156   6.011   4.898 -0.0540  0.5745 -0.4366
 6942SOL    HW327535   3.300   6.043   4.861  0.4684 -0.6046  0.4847
 6942SOL    MW427536   3.242   6.006   4.915 -0.2209  0.3288  0.3977
 6943SOL     OW27537   2.156   1.077   4.392  0.1464 -0.0174  0.3693
 6943SOL    HW227538   2.181   1.162   4.356 -4.3402  2.2192  1.8002
 6943SOL    HW327539   2.181   1.083   4.484  0.2089 -0.4405  0.3792
 6943SOL    MW427540   2.163   1.089   4.399 -0.4373  0.2219  0.5594
 6944SOL     OW27541   0.595   1.230   2.946 -0.3488  0.6254  0.3013
 6944SOL    HW227542   0.551   1.215   3.030 -0.7995 -1.2272 -0.2166
 6944SOL    HW327543   0.525   1.228   2.881  0.4371 -3.9471 -0.7233
 6944SOL    MW427544   0.580   1.228   2.948 -0.3046 -0.2223  0.0978
 6945SOL     OW27545   5.611   5.429   4.362 -0.0716 -0.1892 -0.0255
 6945SOL    HW227546   5.590   5.429   4.455 -0.0822 -2.2377  0.0113
 6945SOL    HW327547   5.655   5.513   4.347  2.7996 -1.0989  2.4828
 6945SOL    MW427548   5.614   5.440   4.372  0.3058 -0.5795  0.3103
 6946SOL     OW27549   0.373   0.090   4.100 -0.2827 -0.2299 -0.0536
 6946SOL    HW227550   0.340   0.172   4.136  0.6053  0.7297 -1.3008
 6946SOL    HW327551   0.359   0.099   4.005  2.5017 -0.1775 -0.5617
 6946SOL    MW427552   0.367   0.102   4.092  0.2019 -0.0964 -0.2852
 6947SOL     OW27553   1.018   6.388   1.054 -0.1695  0.2734 -0.8288
 6947SOL    HW227554   1.059   6.344   0.979 -0.4799 -0.2940 -0.6726
 6947SOL    HW327555   0.931   6.412   1.023 -1.6900 -3.0762  0.3390
 6947SOL    MW427556   1.012   6.385   1.040 -0.4111 -0.2434 -0.6541
 6948SOL     OW27557   3.031   2.102   1.667  0.0150 -0.5280 -0.3479
 6948SOL    HW227558   2.987   2.163   1.726  0.7718  1.4255 -1.7064
 6948SOL    HW327559   3.073   2.039   1.726  1.0781  1.5655  1.2846
 6948SOL    MW427560   3.031   2.102   1.682  0.2551  0.0060 -0.3117
 6949SOL     OW27561   2.781   0.054   1.256  0.8002 -0.0100 -0.4629
 6949SOL    HW227562   2.724   0.013   1.191 -0.8869 -0.2531  1.0903
 6949SOL    HW327563   2.830  -0.019   1.294 -0.3224 -0.2867  0.5070
 6949SOL    MW427564   2.780   0.039   1.253  0.4295 -0.0786 -0.1300
 6950SOL     OW27565   4.271   0.595   3.913  0.1768  0.4162  0.7965
 6950SOL    HW227566   4.196   0.641   3.952  0.1884  0.3591  0.8843
 6950SOL    HW327567   4.347   0.640   3.949  0.1814  0.8379  0.2785
 6950SOL    MW427568   4.271   0.607   3.923  0.1789  0.4643  0.7397
 6951SOL     OW27569   5.638   0.596   2.348  0.3544 -0.0574  0.0726
 6951SOL    HW227570   5.720   0.566   2.309  1.0809  0.0978  1.4119
 6951SOL    HW327571   5.655   0.597   2.442 -0.2154  2.7885  0.2432
 6951SOL    MW427572   5.651   0.592   2.355  0.3750  0.3385  0.2718
 6952SOL     OW27573   4.543   5.243   1.859  0.6497 -0.0029 -0.4095
 6952SOL    HW227574   4.497   5.303   1.917 -0.6205 -1.0784 -0.2731
 6952SOL    HW327575   4.609   5.202   1.915 -0.4247 -0.8776  0.2515
 6952SOL    MW427576   4.546   5.245   1.874  0.3404 -0.2602 -0.3043
 6953SOL     OW27577   1.962   1.664   3.005 -0.0568 -0.3854 -0.1344
 6953SOL    HW227578   1.977   1.663   3.100 -0.6364 -0.1053 -0.0322
 6953SOL    HW327579   1.873   1.697   2.996  1.0359  2.7127 -0.9038
 6953SOL    MW427580   1.952   1.668   3.017  0.0109  0.0603 -0.2225
 6954SOL     OW27581   0.288   3.170   3.804 -0.2843  0.8328 -0.2733
 6954SOL    HW227582   0.261   3.252   3.763 -0.6843  0.2079 -1.2873
 6954SOL    HW327583   0.317   3.115   3.731  0.4121  0.2239  0.4379
 6954SOL    MW427584   0.288   3.173   3.789 -0.2452  0.6700 -0.3132
 6955SOL     OW27585   4.976   1.812   0.979  0.0440  0.0328  0.1070
 6955SOL    HW227586   4.910   1.746   0.956 -1.5977  1.6774 -0.1834
 6955SOL    HW327587   5.005   1.847   0.895  0.4815  0.0715  0.2722
 6955SOL    MW427588   4.971   1.808   0.965 -0.1149  0.2549  0.0905
 6956SOL     OW27589   0.568   2.650   0.280  0.2099 -1.2099 -0.0056
 6956SOL    HW227590   0.583   2.604   0.363  0.5377 -2.3914 -0.6928
 6956SOL    HW327591   0.602   2.739   0.296  0.3982 -1.4536  1.0732
 6956SOL    MW427592   0.575   2.656   0.293  0.2780 -1.3980  0.0461
 6957SOL     OW27593   4.508   0.495   5.268 -0.2659 -0.2762 -0.2202
 6957SOL    HW227594   4.468   0.577   5.298 -2.8742 -1.9082  1.2530
 6957SOL    HW327595   4.533   0.451   5.349  0.9002 -1.0352 -0.9791
 6957SOL    MW427596   4.506   0.500   5.283 -0.4562 -0.5917 -0.1259
 6958SOL     OW27597   3.638   1.568   6.285 -0.7114 -0.4126  0.3042
 6958SOL    HW227598   3.730   1.594   6.281 -0.5500 -1.0748 -3.0112
 6958SOL    HW327599   3.590   1.651   6.290  0.0240  0.1185 -0.9039
 6958SOL    MW427600   3.644   1.583   6.285 -0.5931 -0.4299 -0.2926
 6959SOL     OW27601   1.217   0.486   1.475  0.5974  0.3172  0.3248
 6959SOL    HW227602   1.134   0.509   1.434 -0.6408 -2.9078  0.7326
 6959SOL    HW327603   1.276   0.558   1.452 -1.9936  2.2309 -0.8241
 6959SOL    MW427604   1.214   0.498   1.466  0.0922  0.1442  0.2270
 6960SOL     OW27605   6.296   4.035   0.740 -0.3036  0.2134  0.4826
 6960SOL    HW227606   6.370   3.976   0.755 -1.0380 -1.5623 -2.1442
 6960SOL    HW327607   6.321   4.086   0.663 -1.1350  0.7800  0.5712
 6960SOL    MW427608   6.309   4.034   0.732 -0.5102  0.0539  0.1477
 6961SOL     OW27609   0.912   5.866   5.339  0.2448  0.0611 -0.4771
 6961SOL    HW227610   0.870   5.912   5.267 -0.3281 -1.5283 -1.2129
 6961SOL    HW327611   0.842   5.851   5.402  0.7231  1.3588  0.4128
 6961SOL    MW427612   0.897   5.870   5.338  0.2323  0.0226 -0.4568
 6962SOL     OW27613   1.306   3.320   0.728 -0.0891 -0.0322 -0.2459
 6962SOL    HW227614   1.222   3.332   0.683  0.0942 -1.4456 -1.0002
 6962SOL    HW327615   1.281   3.298   0.818 -0.4654  1.9150  0.1711
 6962SOL    MW427616   1.291   3.319   0.734 -0.1146  0.0383 -0.2904
 6963SOL     OW27617   1.348   4.988   0.683 -0.8409  0.2965 -0.5041
 6963SOL    HW227618   1.441   4.969   0.666 -1.1278 -1.2474 -0.5242
 6963SOL    HW327619   1.345   5.007   0.777 -0.6953 -1.1624 -0.1753
 6963SOL    MW427620   1.360   4.988   0.693 -0.8595 -0.0997 -0.4634
 6964SOL     OW27621   1.191   0.507   5.473  0.3027  0.1704  0.1192
 6964SOL    HW227622   1.247   0.454   5.416  1.3099  0.3845  0.8836
 6964SOL    HW327623   1.141   0.443   5.524  1.5193 -0.0692  1.0447
 6964SOL    MW427624   1.192   0.492   5.472  0.5961  0.1671  0.3422
 6965SOL     OW27625   1.499   6.039   1.654 -0.3353 -0.3233  0.7829
 6965SOL    HW227626   1.416   6.017   1.696 -0.6530 -0.1697  0.2470
 6965SOL    HW327627   1.480   6.033   1.560  0.3203 -0.5092  0.6601
 6965SOL    MW427628   1.485   6.036   1.647 -0.2907 -0.3276  0.6960
 6966SOL     OW27629   3.531   2.772   6.188 -0.1022 -0.9603  0.5098
 6966SOL    HW227630   3.516   2.745   6.097 -2.1740 -0.0718  0.5265
 6966SOL    HW327631   3.445   2.765   6.229  0.1555  1.4224  1.6140
 6966SOL    MW427632   3.517   2.768   6.181 -0.3415 -0.5287  0.6577
 6967SOL     OW27633   4.861   5.063   0.236  0.3854  0.1462  0.1915
 6967SOL    HW227634   4.873   5.158   0.245  1.9398 -0.1450  1.7141
 6967SOL    HW327635   4.937   5.025   0.279 -1.0142 -1.8265  1.0743
 6967SOL    MW427636   4.873   5.071   0.243  0.4058 -0.1525  0.5089
 6968SOL     OW27637   3.192   3.168   1.183 -0.5150 -0.1432 -0.3386
 6968SOL    HW227638   3.123   3.125   1.234  0.4697 -2.2689 -0.7154
 6968SOL    HW327639   3.274   3.141   1.226  0.2359 -0.4481 -1.9125
 6968SOL    MW427640   3.194   3.159   1.196 -0.2860 -0.4639 -0.5960
 6969SOL     OW27641   2.508   2.398   5.746  0.0697 -0.0868 -0.5270
 6969SOL    HW227642   2.437   2.347   5.707 -1.4230  1.3945  0.1487
 6969SOL    HW327643   2.546   2.445   5.672 -0.0573 -0.4088 -0.8026
 6969SOL    MW427644   2.504   2.397   5.731 -0.1440  0.0661 -0.4742
 6970SOL     OW27645   3.477   4.787   4.333  1.1904  0.4596 -0.2115
 6970SOL    HW227646   3.481   4.693   4.315 -0.5552  0.7330 -2.5243
 6970SOL    HW327647   3.497   4.795   4.426  0.3955 -2.2877  0.2789
 6970SOL    MW427648   3.480   4.775   4.343  0.8552  0.1332 -0.4519
 6971SOL     OW27649   3.545   2.281   0.778 -0.1561  0.4260 -0.3612
 6971SOL    HW227650   3.590   2.347   0.831 -1.0562  2.2077 -1.7077
 6971SOL    HW327651   3.520   2.327   0.698  2.0452 -2.3867 -2.8946
 6971SOL    MW427652   3.548   2.296   0.775  0.0156  0.2900 -0.8731
 6972SOL     OW27653   5.619   0.735   4.214  0.0937 -0.2313 -0.2149
 6972SOL    HW227654   5.597   0.713   4.124 -0.3553  1.0782 -0.4505
 6972SOL    HW327655   5.714   0.742   4.214 -0.0030  1.5649 -1.0579
 6972SOL    MW427656   5.629   0.733   4.202  0.0217  0.1785 -0.3572
 6973SOL     OW27657   0.529   0.782   3.387  0.0597 -0.7891  0.1549
 6973SOL    HW227658   0.568   0.715   3.331  0.2601 -0.6813  0.1663
 6973SOL    HW327659   0.437   0.786   3.358  0.2074 -0.6004 -0.2943
 6973SOL    MW427660   0.522   0.774   3.376  0.1057 -0.7500  0.0972
 6974SOL     OW27661   0.348   0.231   3.013  0.1617 -0.1086  0.5240
 6974SOL    HW227662   0.275   0.206   3.069 -0.2030  0.0083  0.1033
 6974SOL    HW327663   0.322   0.204   2.925  1.4710 -1.9315  0.6351
 6974SOL    MW427664   0.335   0.224   3.009  0.2863 -0.3337  0.4832
 6975SOL     OW27665   5.001   5.526   6.300  0.0978 -0.1917 -0.8191
 6975SOL    HW227666   4.969   5.436   6.297 -0.1440 -0.1034 -0.9844
 6975SOL    HW327667   5.085   5.521   6.345  0.5374 -0.6353 -1.6507
 6975SOL    MW427668   5.008   5.513   6.305  0.1239 -0.2386 -0.9506
 6976SOL     OW27669   3.100   5.321   0.555 -0.0873 -0.2959  0.4294
 6976SOL    HW227670   3.100   5.246   0.495 -0.6801 -0.5020  0.6767
 6976SOL    HW327671   3.014   5.360   0.542 -0.4754 -0.7223  1.6142
 6976SOL    MW427672   3.089   5.316   0.545 -0.2167 -0.3794  0.6183
 6977SOL     OW27673   3.416   1.672   1.495 -0.1879  0.2839  0.1653
 6977SOL    HW227674   3.430   1.582   1.525  1.8657 -0.2056 -1.9392
 6977SOL    HW327675   3.332   1.697   1.532 -1.4119 -2.9207 -0.1149
 6977SOL    MW427676   3.407   1.663   1.504 -0.0784 -0.2035 -0.1494
 6978SOL     OW27677   0.310   4.847   0.879  0.1568 -0.1950  0.0082
 6978SOL    HW227678   0.313   4.928   0.828  1.3506  0.6681  1.3788
 6978SOL    HW327679   0.321   4.876   0.970  1.2903 -1.9454  0.4696
 6978SOL    MW427680   0.312   4.862   0.884  0.4639 -0.3121  0.2499
 6979SOL     OW27681   3.119   0.791   0.422 -0.5433 -0.7097 -0.3356
 6979SOL    HW227682   3.112   0.696   0.418 -0.0792 -0.7128 -1.5651
 6979SOL    HW327683   3.091   0.814   0.510 -0.2822 -2.0173  0.1013
 6979SOL    MW427684   3.115   0.782   0.433 -0.4477 -0.8826 -0.4402
 6980SOL     OW27685   2.289   4.376   3.613  0.5179 -0.1748  1.0306
 6980SOL    HW227686   2.194   4.387   3.609  0.6554  0.6990 -1.8578
 6980SOL    HW327687   2.320   4.452   3.662 -0.0344  2.1177 -1.9393
 6980SOL    MW427688   2.280   4.387   3.619  0.4632  0.2430  0.2577
 6981SOL     OW27689   3.694   6.403   3.393  0.4456 -0.1452 -0.2608
 6981SOL    HW227690   3.721   6.384   3.483  0.9174 -0.5674 -0.4877
 6981SOL    HW327691   3.598   6.407   3.397  0.4975  0.5601  0.3979
 6981SOL    MW427692   3.685   6.401   3.405  0.5147 -0.1079 -0.2038
 6982SOL     OW27693   1.229   4.101   6.438  0.0665  0.1044 -0.4657
 6982SOL    HW227694   1.189   4.187   6.451  0.6979  0.2226  0.8743
 6982SOL    HW327695   1.312   4.119   6.394 -0.2079  0.0981 -0.9829
 6982SOL    MW427696   1.235   4.115   6.434  0.1136  0.1192 -0.3571
 6983SOL     OW27697   4.373   1.398   1.912  0.7848 -0.0023 -0.0297
 6983SOL    HW227698   4.343   1.308   1.926  0.3164  0.2878  0.9635
 6983SOL    HW327699   4.295   1.451   1.929  1.1711  0.6134 -0.1639
 6983SOL    MW427700   4.359   1.393   1.916  0.7740  0.1172  0.0836
 6984SOL     OW27701   2.382   4.953   3.124 -0.4189  0.8214 -0.2812
 6984SOL    HW227702   2.320   5.026   3.119  0.3925  1.4446 -3.2694
 6984SOL    HW327703   2.358   4.896   3.050  0.9620 -0.2700  0.0626
 6984SOL    MW427704   2.370   4.955   3.113 -0.1297  0.7596 -0.6301
 6985SOL     OW27705   5.648   0.720   3.302  0.8051 -0.1378  0.3200
 6985SOL    HW227706   5.589   0.651   3.272 -0.5193  2.3588 -3.5549
 6985SOL    HW327707   5.619   0.739   3.391 -1.2984 -1.9455  0.1059
 6985SOL    MW427708   5.636   0.713   3.310  0.3528 -0.0469 -0.2195
 6986SOL     OW27709   3.474   1.950   1.538 -0.0522 -0.3686 -0.4674
 6986SOL    HW227710   3.490   1.915   1.450 -1.5047 -0.4488 -0.7277
 6986SOL    HW327711   3.385   1.921   1.559  0.2935 -0.4038  1.0670
 6986SOL    MW427712   3.464   1.941   1.529 -0.1982 -0.3838 -0.2993
 6987SOL     OW27713   1.178   1.357   3.715  0.2261 -0.3157  0.1656
 6987SOL    HW227714   1.117   1.403   3.657  0.2144  1.0199  1.1791
 6987SOL    HW327715   1.132   1.278   3.742 -1.6742  1.3247  1.9992
 6987SOL    MW427716   1.164   1.353   3.711 -0.0262  0.0769  0.5413
 6988SOL     OW27717   1.322   3.243   2.244  0.2415  0.4276  0.0177
 6988SOL    HW227718   1.397   3.254   2.303 -0.4673  1.5637  0.7342
 6988SOL    HW327719   1.341   3.299   2.170  0.7206 -0.3248 -0.4380
 6988SOL    MW427720   1.335   3.252   2.242  0.2112  0.4782  0.0521
 6989SOL     OW27721   3.439   6.437   1.388 -0.6360  0.0879  0.0876
 6989SOL    HW227722   3.456   6.512   1.331 -0.8910 -1.0734 -1.5897
 6989SOL    HW327723   3.425   6.475   1.475 -0.4738  1.9358 -0.6577
 6989SOL    MW427724   3.440   6.452   1.392 -0.6482  0.1785 -0.2320
 6990SOL     OW27725   5.878   1.036   1.508 -0.2022  0.0090  0.2122
 6990SOL    HW227726   5.909   1.045   1.598 -0.2308  0.7888  0.1463
 6990SOL    HW327727   5.787   1.008   1.517 -0.4600  0.8920  0.4438
 6990SOL    MW427728   5.870   1.033   1.521 -0.2400  0.2284  0.2341
 6991SOL     OW27729   1.736   4.721   5.015 -0.4157  0.5025 -0.0313
 6991SOL    HW227730   1.772   4.676   4.939 -3.9350 -0.5132 -1.3149
 6991SOL    HW327731   1.720   4.811   4.985  2.5294  1.5265  1.1383
 6991SOL    MW427732   1.738   4.727   5.001 -0.4914  0.5036 -0.0464
 6992SOL     OW27733   5.989   1.353   4.615  0.4323  0.6432 -0.0010
 6992SOL    HW227734   6.083   1.346   4.599  0.1216 -2.6764 -1.1690
 6992SOL    HW327735   5.949   1.323   4.533 -1.7080  2.2551  0.3614
 6992SOL    MW427736   5.996   1.348   4.602  0.1089  0.4179 -0.1073
 6993SOL     OW27737   2.076   1.784   0.444  0.1749  0.4245 -0.4062
 6993SOL    HW227738   2.010   1.777   0.376  0.6793 -1.9870 -0.7543
 6993SOL    HW327739   2.045   1.726   0.513  1.4915 -0.0904 -0.2217
 6993SOL    MW427740   2.063   1.775   0.444  0.4152  0.0384 -0.4278
 6994SOL     OW27741   0.110   0.123   3.143  0.4245  0.1050 -0.3252
 6994SOL    HW227742   0.085   0.037   3.110  1.3885  0.0240 -0.9086
 6994SOL    HW327743   0.030   0.176   3.139 -0.2110 -0.7988  0.1851
 6994SOL    MW427744   0.096   0.119   3.138  0.4679 -0.0249 -0.3348
 6995SOL     OW27745   3.107   3.430   5.497  0.3818  0.2130 -0.4517
 6995SOL    HW227746   3.107   3.403   5.589  0.0675  0.9451 -0.2328
 6995SOL    HW327747   3.155   3.512   5.496  1.2772 -0.3104 -1.1075
 6995SOL    MW427748   3.113   3.437   5.509  0.4584  0.2406 -0.5093
 6996SOL     OW27749   2.833   3.899   1.166 -0.1721  0.1772 -0.0723
 6996SOL    HW227750   2.887   3.853   1.230 -1.0062 -1.1109 -0.2651
 6996SOL    HW327751   2.753   3.921   1.214  0.3453  1.7919  0.1213
 6996SOL    MW427752   2.830   3.896   1.181 -0.2139  0.2203 -0.0722
 6997SOL     OW27753   2.872   0.437   1.927  0.0459 -0.3360  0.0279
 6997SOL    HW227754   2.885   0.353   1.972 -0.9461 -1.4454 -1.6358
 6997SOL    HW327755   2.960   0.461   1.896  0.8921  0.7965  2.9562
 6997SOL    MW427756   2.886   0.429   1.929  0.0267 -0.3330  0.1947
 6998SOL     OW27757   0.054   1.110   0.985  0.6473 -0.0473  0.0062
 6998SOL    HW227758   0.003   1.075   0.913 -0.1310  1.0653  0.0025
 6998SOL    HW327759   0.021   1.065   1.063  0.3044 -0.0075 -0.1175
 6998SOL    MW427760   0.043   1.099   0.986  0.4994  0.1047 -0.0106
 6999SOL     OW27761   1.633   5.833   4.010  0.2713 -0.1410 -0.0534
 6999SOL    HW227762   1.669   5.754   4.050  0.8796 -0.1960 -0.6839
 6999SOL    HW327763   1.639   5.900   4.078  1.7644 -0.1089 -0.1920
 6999SOL    MW427764   1.639   5.832   4.024  0.5485 -0.1440 -0.1549
 7000SOL     OW27765   3.989   2.776   0.060  0.8605 -0.0310  0.1756
 7000SOL    HW227766   4.001   2.769   0.154  1.1308 -1.8194  0.0330
 7000SOL    HW327767   3.962   2.689   0.032  0.2498  0.5992 -1.3362
 7000SOL    MW427768   3.987   2.764   0.069  0.8156 -0.1838 -0.0427
 7001SOL     OW27769   0.094   4.200   6.012  0.2612  0.6896 -0.0588
 7001SOL    HW227770   0.075   4.292   5.998 -0.5465  0.7904  1.4283
 7001SOL    HW327771   0.169   4.199   6.072 -0.5994  0.4339  1.0517
 7001SOL    MW427772   0.101   4.212   6.018  0.0411  0.6691  0.2839
 7002SOL     OW27773   1.934   1.134   3.967 -0.0090  0.5332 -0.5477
 7002SOL    HW227774   1.907   1.060   3.913 -0.6154 -0.9206  1.6326
 7002SOL    HW327775   1.870   1.137   4.038 -1.6404  4.8627 -1.8900
 7002SOL    MW427776   1.922   1.125   3.969 -0.3043  0.9126 -0.4371
 7003SOL     OW27777   2.040   2.050   0.544  0.2891  0.5253  0.3827
 7003SOL    HW227778   2.073   1.974   0.497 -0.1998  1.0297 -0.8143
 7003SOL    HW327779   2.108   2.070   0.608  2.0362  1.1048 -1.5439
 7003SOL    MW427780   2.053   2.043   0.546  0.4551  0.6683 -0.0294
 7004SOL     OW27781   2.446   2.256   6.448  0.2405 -0.1602 -0.2231
 7004SOL    HW227782   2.394   2.249   6.528 -1.1387 -1.5735 -1.1842
 7004SOL    HW327783   2.509   2.326   6.466 -1.4817  1.0889  1.2760
 7004SOL    MW427784   2.448   2.264   6.461 -0.1687 -0.1819 -0.1521
 7005SOL     OW27785   1.064   3.368   0.602  0.0685 -0.0533  0.5594
 7005SOL    HW227786   1.029   3.457   0.601 -0.8749 -0.4251 -0.0744
 7005SOL    HW327787   0.994   3.314   0.566  1.2757 -0.8251 -0.7291
 7005SOL    MW427788   1.050   3.373   0.597  0.1033 -0.2042  0.3058
 7006SOL     OW27789   3.510   0.919   0.941 -0.1911 -0.2044 -0.8862
 7006SOL    HW227790   3.435   0.876   0.980 -0.4893  0.8717 -0.2105
 7006SOL    HW327791   3.473   0.994   0.894  0.5516  1.4265  0.9933
 7006SOL    MW427792   3.495   0.923   0.940 -0.1324  0.1528 -0.5491
 7007SOL     OW27793   6.390   5.599   0.998  0.1343  0.0377 -0.5906
 7007SOL    HW227794   6.486   5.601   1.000  0.1546 -0.6158  0.1679
 7007SOL    HW327795   6.369   5.515   0.956 -0.0774 -0.2832  0.1315
 7007SOL    MW427796   6.400   5.588   0.993  0.1091 -0.0908 -0.3953
 7008SOL     OW27797   2.589   3.371   4.140 -0.2183  0.1693  1.0004
 7008SOL    HW227798   2.524   3.362   4.210 -0.9418  2.1195  0.6439
 7008SOL    HW327799   2.661   3.419   4.180  1.1494 -2.1112  1.4342
 7008SOL    MW427800   2.590   3.376   4.155 -0.1333  0.1257  1.0106
 7009SOL     OW27801   2.402   2.915   0.223 -0.6450 -0.0879 -0.0778
 7009SOL    HW227802   2.316   2.920   0.266 -1.2526  1.1328 -1.3619
 7009SOL    HW327803   2.433   3.006   0.222  1.3176 -0.6532  1.5511
 7009SOL    MW427804   2.395   2.928   0.229 -0.4662 -0.0014 -0.0323
 7010SOL     OW27805   2.163   1.222   6.434  0.0930  0.4445 -0.4022
 7010SOL    HW227806   2.217   1.276   6.376 -1.9883  2.8853 -0.2267
 7010SOL    HW327807   2.218   1.208   6.511  1.4985  0.3755 -1.3754
 7010SOL    MW427808   2.177   1.228   6.436  0.0038  0.7574 -0.5074
 7011SOL     OW27809   1.031   3.737   3.441  0.0354 -0.7521  0.4253
 7011SOL    HW227810   1.108   3.787   3.465  0.7345 -2.6189  2.3439
 7011SOL    HW327811   0.976   3.800   3.393  2.7568  0.5826 -1.2002
 7011SOL    MW427812   1.034   3.752   3.438  0.4867 -0.8223  0.4640
 7012SOL     OW27813   5.822   5.694   5.491  0.5227  0.0138 -0.0317
 7012SOL    HW227814   5.844   5.711   5.400 -1.6578  0.9270 -0.4521
 7012SOL    HW327815   5.813   5.599   5.496 -0.8356  0.0402 -1.2068
 7012SOL    MW427816   5.824   5.684   5.480  0.0558  0.1378 -0.2422
 7013SOL     OW27817   3.554   6.117   5.271 -0.0232 -0.1831  0.1033
 7013SOL    HW227818   3.624   6.057   5.296 -0.3885 -0.5950  0.1506
 7013SOL    HW327819   3.568   6.195   5.325  0.1440 -0.4309  0.4158
 7013SOL    MW427820   3.565   6.120   5.281 -0.0493 -0.2701  0.1508
 7014SOL     OW27821   1.325   1.620   4.838 -0.5380  0.3105 -0.3381
 7014SOL    HW227822   1.242   1.666   4.848 -1.6364 -1.8008  1.0754
 7014SOL    HW327823   1.368   1.662   4.763 -2.9244  1.4019 -1.1631
 7014SOL    MW427824   1.320   1.632   4.829 -0.9977  0.1760 -0.2605
 7015SOL     OW27825   4.764   0.283   6.430 -0.1860 -0.0577 -0.2448
 7015SOL    HW227826   4.670   0.298   6.432 -0.2425 -0.4720  0.3525
 7015SOL    HW327827   4.798   0.329   6.507  0.1086  0.1489 -0.4958
 7015SOL    MW427828   4.756   0.291   6.440 -0.1546 -0.0851 -0.1991
 7016SOL     OW27829   5.991   1.954   4.024 -0.1145 -0.2283 -0.5881
 7016SOL    HW227830   5.946   2.015   3.965  0.8976  0.0951 -1.0449
 7016SOL    HW327831   5.955   1.868   4.001  0.2417 -0.1029 -1.6772
 7016SOL    MW427832   5.980   1.951   4.013  0.0660 -0.1691 -0.7921
 7017SOL     OW27833   5.055   2.986   1.382 -0.2436 -0.0071  0.5296
 7017SOL    HW227834   4.996   3.042   1.433 -2.1565 -2.5706  1.3231
 7017SOL    HW327835   5.143   3.018   1.404 -1.1852  1.6786  2.1096
 7017SOL    MW427836   5.059   2.998   1.392 -0.6202 -0.1229  0.8427
 7018SOL     OW27837   6.344   3.299   1.864 -0.2260 -0.2970  0.2386
 7018SOL    HW227838   6.285   3.374   1.874  0.6738  0.6896 -1.5348
 7018SOL    HW327839   6.302   3.244   1.797  0.2089 -0.2585 -0.0678
 7018SOL    MW427840   6.330   3.302   1.857 -0.0499 -0.1617 -0.0358
 7019SOL     OW27841   2.302   4.904   1.625  0.1459 -0.2051  0.0388
 7019SOL    HW227842   2.310   4.991   1.663 -0.3367 -0.3830  0.5687
 7019SOL    HW327843   2.241   4.915   1.553  1.0107  0.1204 -0.6618
 7019SOL    MW427844   2.295   4.917   1.621  0.1963 -0.1856  0.0162
 7020SOL     OW27845   1.921   0.978   2.157 -0.0772 -0.1076  0.5557
 7020SOL    HW227846   1.973   1.047   2.114  0.4400 -0.3293  0.8067
 7020SOL    HW327847   1.874   1.024   2.226  1.1126 -0.1507  1.4416
 7020SOL    MW427848   1.922   0.994   2.161  0.1480 -0.1425  0.7057
 7021SOL     OW27849   3.995   0.151   4.294 -0.0241 -0.3002  0.6254
 7021SOL    HW227850   3.970   0.154   4.386  0.7698 -0.0644  0.8435
 7021SOL    HW327851   4.046   0.230   4.280  2.2375 -1.6655  0.7081
 7021SOL    MW427852   3.998   0.161   4.304  0.3790 -0.4492  0.6651
 7022SOL     OW27853   0.655   5.329   2.413  0.2432  0.1492  0.2728
 7022SOL    HW227854   0.622   5.417   2.397 -1.4682 -0.5156 -0.0837
 7022SOL    HW327855   0.698   5.304   2.331 -3.5851 -1.1235 -1.5761
 7022SOL    MW427856   0.656   5.337   2.400 -0.4877 -0.1064 -0.0181
 7023SOL     OW27857   5.062   6.476   2.724  0.3644  0.0713 -0.2407
 7023SOL    HW227858   5.024   6.527   2.796  3.9835  2.5747  0.1767
 7023SOL    HW327859   5.027   6.516   2.645 -1.7936 -1.1511  0.0181
 7023SOL    MW427860   5.053   6.488   2.723  0.5572  0.2403 -0.1515
 7024SOL     OW27861   4.639   2.480   1.641 -0.3026  0.1656 -0.2704
 7024SOL    HW227862   4.702   2.516   1.579  0.3120 -0.2715  0.0873
 7024SOL    HW327863   4.553   2.505   1.606  0.0257 -0.1564 -1.3448
 7024SOL    MW427864   4.636   2.488   1.628 -0.1782  0.0654 -0.3650
 7025SOL     OW27865   1.830   5.411   0.849 -0.2307 -0.0364 -0.1968
 7025SOL    HW227866   1.801   5.484   0.795  0.8688  0.6375  0.0887
 7025SOL    HW327867   1.899   5.447   0.904 -0.5919 -0.9641  0.9194
 7025SOL    MW427868   1.835   5.425   0.849 -0.1333 -0.0699 -0.0119
 7026SOL     OW27869   2.452   4.501   3.285  0.4085 -0.1298  0.1569
 7026SOL    HW227870   2.501   4.572   3.244 -0.4552  0.5468  0.2669
 7026SOL    HW327871   2.457   4.428   3.223  1.1896  0.0712 -0.0151
 7026SOL    MW427872   2.459   4.501   3.271  0.3976 -0.0140  0.1487
 7027SOL     OW27873   2.427   3.712   5.698 -0.2996 -0.4743 -0.2859
 7027SOL    HW227874   2.336   3.682   5.696 -0.3022 -0.4385 -0.8190
 7027SOL    HW327875   2.421   3.803   5.728 -0.6205  0.1339 -2.0543
 7027SOL    MW427876   2.414   3.720   5.702 -0.3423 -0.3893 -0.5896
 7028SOL     OW27877   4.881   3.900   1.143  0.3783  0.1898 -0.2554
 7028SOL    HW227878   4.814   3.937   1.200  1.3349  1.5232  0.0350
 7028SOL    HW327879   4.911   3.973   1.090  1.5786 -0.3902 -0.4113
 7028SOL    MW427880   4.876   3.914   1.143  0.6629  0.2892 -0.2377
 7029SOL     OW27881   3.822   5.524   3.714 -0.7167  0.4134 -0.4684
 7029SOL    HW227882   3.805   5.430   3.711 -0.3434  0.2883  0.8521
 7029SOL    HW327883   3.899   5.536   3.658 -1.2888  0.0731 -1.3443
 7029SOL    MW427884   3.830   5.513   3.706 -0.7430  0.3520 -0.4098
 7030SOL     OW27885   4.399   2.443   3.872  0.8271  0.0637 -0.3323
 7030SOL    HW227886   4.489   2.463   3.900  0.1866 -0.2189  2.1380
 7030SOL    HW327887   4.346   2.462   3.949 -0.9994 -1.7726 -1.0762
 7030SOL    MW427888   4.404   2.448   3.886  0.5016 -0.2159 -0.1045
 7031SOL     OW27889   2.987   5.983   2.004  0.6002 -0.1882  0.3173
 7031SOL    HW227890   3.061   5.963   1.947  1.0027 -0.3601  0.8991
 7031SOL    HW327891   3.026   6.013   2.086  0.0718  3.3311 -0.5290
 7031SOL    MW427892   3.002   5.984   2.007  0.5836  0.2535  0.2824
 7032SOL     OW27893   4.978   3.890   2.626  0.0809 -0.1378 -0.3335
 7032SOL    HW227894   4.923   3.871   2.551 -0.5694 -0.7356  0.2853
 7032SOL    HW327895   4.924   3.870   2.702  0.6329  0.7093  0.3102
 7032SOL    MW427896   4.964   3.885   2.626  0.0679 -0.1049 -0.1669
 7033SOL     OW27897   2.133   0.104   4.971  0.2382 -0.2051  0.3887
 7033SOL    HW227898   2.054   0.146   4.938  0.0700 -0.0482  0.9820
 7033SOL    HW327899   2.169   0.166   5.034  0.5455 -0.5023  0.5108
 7033SOL    MW427900   2.127   0.117   4.975  0.2566 -0.2236  0.4831
 7034SOL     OW27901   0.005   5.364   3.989  0.0321 -0.3278 -0.4137
 7034SOL    HW227902  -0.037   5.413   3.919  1.2357 -1.1953 -1.7812
 7034SOL    HW327903   0.090   5.407   4.001 -0.5275  0.4252  1.2402
 7034SOL    MW427904   0.011   5.376   3.982  0.1171 -0.3429 -0.3759
 7035SOL     OW27905   3.085   0.390   1.576 -0.0095  0.2340 -0.0789
 7035SOL    HW227906   3.053   0.461   1.521  3.7569  1.1432 -1.4461
 7035SOL    HW327907   3.107   0.432   1.659 -0.1910  0.1053  0.0352
 7035SOL    MW427908   3.084   0.405   1.580  0.4635  0.3370 -0.2442
 7036SOL     OW27909   2.014   4.397   5.680 -0.0078  0.4062 -0.2760
 7036SOL    HW227910   1.950   4.451   5.633 -1.3430 -0.8033  0.0819
 7036SOL    HW327911   1.963   4.324   5.715  1.4684 -0.2608  0.5909
 7036SOL    MW427912   1.999   4.395   5.679  0.0108  0.1586 -0.1144
 7037SOL     OW27913   0.168   2.550   6.083 -0.2552  0.3357 -0.2962
 7037SOL    HW227914   0.262   2.537   6.094 -0.2369 -0.1446 -0.9725
 7037SOL    HW327915   0.128   2.492   6.147 -0.0898  1.8855  1.3011
 7037SOL    MW427916   0.175   2.541   6.092 -0.2310  0.4768 -0.1747
 7038SOL     OW27917   3.390   0.977   5.205  0.4338  0.4396  0.0237
 7038SOL    HW227918   3.466   1.031   5.183  0.7579 -0.6206 -1.6159
 7038SOL    HW327919   3.357   0.945   5.121 -1.3999  0.2653  0.7564
 7038SOL    MW427920   3.396   0.980   5.191  0.2346  0.2767 -0.0959
 7039SOL     OW27921   5.930   0.404   4.436  0.3583 -0.3871  0.5048
 7039SOL    HW227922   5.909   0.310   4.439 -0.1694 -0.2780  0.3654
 7039SOL    HW327923   5.854   0.444   4.393  1.0884 -0.0280 -0.4621
 7039SOL    MW427924   5.917   0.397   4.431  0.3850 -0.3253  0.3588
 7040SOL     OW27925   4.048   3.184   4.481  0.2837 -0.1979  0.2946
 7040SOL    HW227926   4.105   3.143   4.416 -2.6828 -1.0817 -1.9737
 7040SOL    HW327927   4.084   3.271   4.494  1.8594 -0.5477 -1.3798
 7040SOL    MW427928   4.060   3.190   4.474  0.1002 -0.3607 -0.2256
 7041SOL     OW27929   5.250   4.694   1.078 -0.6866  0.2595 -0.1650
 7041SOL    HW227930   5.170   4.643   1.063  1.2582 -2.5409 -1.7551
 7041SOL    HW327931   5.231   4.779   1.037 -2.5785 -0.5472 -1.0905
 7041SOL    MW427932   5.237   4.699   1.071 -0.6796 -0.2164 -0.4969
 7042SOL     OW27933   4.664   1.234   6.266  0.5275  0.2193  0.3730
 7042SOL    HW227934   4.695   1.273   6.348  0.3109  1.4799 -0.1225
 7042SOL    HW327935   4.739   1.184   6.234  0.4119 -0.8221  1.6426
 7042SOL    MW427936   4.678   1.233   6.273  0.4837  0.2482  0.4752
 7043SOL     OW27937   3.783   2.465   5.737 -0.5856 -0.7024 -0.4385
 7043SOL    HW227938   3.758   2.546   5.693 -0.2595 -0.6978 -0.6154
 7043SOL    HW327939   3.715   2.402   5.711 -0.7762 -0.5192 -0.3890
 7043SOL    MW427940   3.771   2.467   5.728 -0.5677 -0.6776 -0.4553
 7044SOL     OW27941   2.060   3.190   4.891 -0.0774  0.5432 -0.6758
 7044SOL    HW227942   2.086   3.264   4.946  1.0584  0.3164 -0.8873
 7044SOL    HW327943   2.081   3.112   4.943 -2.3964  0.3280  0.0611
 7044SOL    MW427944   2.066   3.189   4.906 -0.2335  0.4849 -0.6065
 7045SOL     OW27945   2.400   6.223   0.687 -0.2748 -0.1721 -0.7151
 7045SOL    HW227946   2.421   6.149   0.631 -0.2362 -0.5127 -0.2531
 7045SOL    HW327947   2.431   6.300   0.639 -1.1549 -0.3709 -1.6144
 7045SOL    MW427948   2.407   6.224   0.674 -0.3858 -0.2432 -0.7728
 7046SOL     OW27949   1.947   4.278   3.882 -0.3411  0.2027 -0.0612
 7046SOL    HW227950   1.965   4.326   3.801 -1.0617  0.1446 -0.2661
 7046SOL    HW327951   2.018   4.303   3.941 -1.1457  2.2193  0.1441
 7046SOL    MW427952   1.958   4.288   3.879 -0.5423  0.4611 -0.0611
 7047SOL     OW27953   5.276   0.160   5.203 -0.0148  0.1686  0.5160
 7047SOL    HW227954   5.313   0.244   5.233 -0.1778  0.6880 -0.6663
 7047SOL    HW327955   5.227   0.183   5.124 -0.8809 -0.9007  0.7228
 7047SOL    MW427956   5.275   0.174   5.197 -0.1506  0.0960  0.3873
 7048SOL     OW27957   4.385   3.250   1.069  0.3314 -0.4525 -0.3634
 7048SOL    HW227958   4.327   3.283   1.137 -0.2223 -0.0919 -1.0047
 7048SOL    HW327959   4.329   3.238   0.992  0.8081 -1.5064 -0.5721
 7048SOL    MW427960   4.370   3.253   1.068  0.3212 -0.5440 -0.4756
 7049SOL     OW27961   3.142   2.009   4.828  0.0417  0.2373  0.5972
 7049SOL    HW227962   3.206   1.970   4.769 -0.3368  0.8139 -0.2139
 7049SOL    HW327963   3.107   1.936   4.879  0.3536 -0.2687  0.0900
 7049SOL    MW427964   3.146   1.995   4.827  0.0329  0.2466  0.4233
 7050SOL     OW27965   3.079   5.517   4.102  0.2255  0.3902  0.0845
 7050SOL    HW227966   3.111   5.456   4.035 -2.2350  1.4283 -2.2303
 7050SOL    HW327967   3.103   5.603   4.068  0.9596  0.9075  1.7836
 7050SOL    MW427968   3.086   5.520   4.088 -0.0023  0.5954  0.0032
 7051SOL     OW27969   1.386   2.312   1.193 -0.8145  0.1200  0.4503
 7051SOL    HW227970   1.420   2.398   1.219  2.1783 -0.7136 -0.3316
 7051SOL    HW327971   1.462   2.266   1.158 -2.1466 -3.1257  1.4602
 7051SOL    MW427972   1.400   2.317   1.192 -0.5954 -0.4182  0.4804
 7052SOL     OW27973   4.025   5.122   5.796 -0.4973 -0.0747  0.2264
 7052SOL    HW227974   4.064   5.170   5.723  0.3052 -1.4931 -0.3100
 7052SOL    HW327975   3.931   5.125   5.779 -0.4358  0.9046 -0.0260
 7052SOL    MW427976   4.018   5.129   5.784 -0.3833 -0.1326  0.1223
 7053SOL     OW27977   3.240   1.541   1.285 -0.4012 -0.1648  0.0814
 7053SOL    HW227978   3.283   1.589   1.356  0.6037 -0.0962 -0.5490
 7053SOL    HW327979   3.147   1.563   1.293  0.1239  2.8379 -0.8380
 7053SOL    MW427980   3.233   1.550   1.295 -0.1994  0.2405 -0.1231
 7054SOL     OW27981   4.239   3.363   3.028 -0.2769  0.3990  0.1929
 7054SOL    HW227982   4.273   3.446   2.994 -0.5734  0.5930  0.3700
 7054SOL    HW327983   4.214   3.383   3.118 -3.6626  1.0556 -0.7672
 7054SOL    MW427984   4.240   3.377   3.035 -0.7627  0.5113  0.0896
 7055SOL     OW27985   2.727   2.965   6.356  0.1318 -0.1543 -0.0037
 7055SOL    HW227986   2.774   2.949   6.274  0.4086 -0.2208  0.1660
 7055SOL    HW327987   2.775   2.914   6.421 -0.1524 -0.1901  0.1818
 7055SOL    MW427988   2.739   2.956   6.354  0.1309 -0.1678  0.0431
 7056SOL     OW27989   4.587   0.671   1.538  0.2492 -0.1911 -0.1159
 7056SOL    HW227990   4.543   0.651   1.620 -1.6605 -1.2092 -1.3234
 7056SOL    HW327991   4.595   0.767   1.537 -3.2346  0.2032 -0.4045
 7056SOL    MW427992   4.582   0.681   1.549 -0.4624 -0.2734 -0.3133
 7057SOL     OW27993   0.582   3.688   5.574 -0.0511  0.2094  0.3793
 7057SOL    HW227994   0.623   3.770   5.600  0.2808 -0.0482  0.6742
 7057SOL    HW327995   0.622   3.666   5.490 -1.1332  1.0489 -0.3874
 7057SOL    MW427996   0.593   3.696   5.566 -0.1500  0.2862  0.3171
 7058SOL     OW27997   1.902   3.924   0.092  0.1076 -0.1304 -0.3395
 7058SOL    HW227998   1.965   3.937   0.163  0.7670  0.0334 -0.9420
 7058SOL    HW327999   1.921   3.836   0.060  0.4509  0.1531 -0.9247
 7058SOL    MW428000   1.913   3.914   0.097  0.2399 -0.0714 -0.4962
 7059SOL     OW28001   2.964   3.226   4.312 -0.2377  0.1017 -0.0487
 7059SOL    HW228002   2.948   3.312   4.350 -1.1343  0.0950 -0.3996
 7059SOL    HW328003   2.881   3.201   4.272  0.2138 -0.6178 -0.5665
 7059SOL    MW428004   2.951   3.234   4.312 -0.2964  0.0059 -0.1633
 7060SOL     OW28005   0.202   1.454   4.667  0.2681 -0.2067  0.0338
 7060SOL    HW228006   0.124   1.471   4.721 -0.6714  1.2164 -1.6613
 7060SOL    HW328007   0.244   1.540   4.659  0.0192 -0.2285 -1.9706
 7060SOL    MW428008   0.197   1.468   4.673  0.1113 -0.0218 -0.4543
 7061SOL     OW28009   4.385   4.317   3.625 -0.3398 -0.5200  0.7080
 7061SOL    HW228010   4.392   4.260   3.549 -0.8782  2.1051 -1.4964
 7061SOL    HW328011   4.471   4.358   3.633 -0.5272 -0.1605  0.9451
 7061SOL    MW428012   4.397   4.315   3.616 -0.4356 -0.1262  0.4484
 7062SOL     OW28013   1.659   5.472   3.779  0.1596 -0.2662  0.1232
 7062SOL    HW228014   1.581   5.443   3.732 -0.5105 -0.5974  1.4113
 7062SOL    HW328015   1.690   5.394   3.824 -1.0949  0.6977  2.8355
 7062SOL    MW428016   1.653   5.458   3.779 -0.0943 -0.1827  0.6510
 7063SOL     OW28017   0.113   5.417   1.916 -0.2560 -0.0376 -0.3011
 7063SOL    HW228018   0.197   5.457   1.936 -1.2160  2.2795 -0.5307
 7063SOL    HW328019   0.094   5.361   1.991  0.4757  1.2065  0.8475
 7063SOL    MW428020   0.121   5.415   1.929 -0.2861  0.4323 -0.1799
 7064SOL     OW28021   5.101   0.608   1.824  0.1480 -0.0956  0.1724
 7064SOL    HW228022   5.061   0.668   1.761 -1.6724  0.1920  1.5211
 7064SOL    HW328023   5.148   0.544   1.770  0.2192  1.1957 -1.3733
 7064SOL    MW428024   5.102   0.607   1.809 -0.0828  0.1127  0.1464
 7065SOL     OW28025   5.204   5.524   3.393  0.7519 -0.3913 -0.3037
 7065SOL    HW228026   5.265   5.458   3.360  0.7626  0.2673 -1.6733
 7065SOL    HW328027   5.256   5.604   3.399  0.0719  0.1725 -1.4626
 7065SOL    MW428028   5.219   5.526   3.389  0.6636 -0.2300 -0.6373
 7066SOL     OW28029   3.917   3.896   0.058  0.2449 -0.1308  0.2233
 7066SOL    HW228030   3.835   3.938   0.084 -0.0144 -1.1189  1.0680
 7066SOL    HW328031   3.956   3.957  -0.005 -1.0150  0.4658 -0.0169
 7066SOL    MW428032   3.911   3.909   0.053  0.0444 -0.1825  0.3030
 7067SOL     OW28033   4.118   2.771   4.406 -0.0102  0.5766 -0.3603
 7067SOL    HW228034   4.056   2.834   4.369  0.5628  1.6281  0.4167
 7067SOL    HW328035   4.185   2.761   4.339  0.4777  1.6646 -0.0556
 7067SOL    MW428036   4.118   2.778   4.393  0.1297  0.8589 -0.2176
 7068SOL     OW28037   1.079   6.428   2.003  0.3847  0.2672  0.0191
 7068SOL    HW228038   1.081   6.523   1.989  2.3558  0.3356  0.5208
 7068SOL    HW328039   1.023   6.416   2.080 -1.6451  0.7875 -1.2840
 7068SOL    MW428040   1.072   6.439   2.011  0.3769  0.3449 -0.0866
 7069SOL     OW28041   4.261   2.732   4.934  0.7620  0.3517  0.2331
 7069SOL    HW228042   4.228   2.804   4.988 -2.3391 -1.9811  1.7789
 7069SOL    HW328043   4.284   2.663   4.997 -0.7624 -1.6325 -1.2387
 7069SOL    MW428044   4.260   2.732   4.949  0.1517 -0.2179  0.2429
 7070SOL     OW28045   5.037   3.016   0.131 -0.3557  0.1165 -0.2361
 7070SOL    HW228046   5.010   2.935   0.175 -0.5047  0.4180  0.2382
 7070SOL    HW328047   5.009   3.085   0.191  0.6957  0.4767 -0.1421
 7070SOL    MW428048   5.030   3.014   0.145 -0.2366  0.2038 -0.1611
 7071SOL     OW28049   5.738   5.707   2.094  0.1979 -0.1954 -0.2242
 7071SOL    HW228050   5.740   5.611   2.091  1.7683 -0.1722 -1.5802
 7071SOL    HW328051   5.723   5.733   2.003  1.1133  0.8526 -0.0865
 7071SOL    MW428052   5.736   5.698   2.081  0.5259 -0.0541 -0.3850
 7072SOL     OW28053   2.395   0.785   4.946  0.6399  0.2266  0.5071
 7072SOL    HW228054   2.359   0.698   4.928  0.0166  0.6202 -0.1918
 7072SOL    HW328055   2.426   0.816   4.860  0.3232  0.9328  0.6484
 7072SOL    MW428056   2.395   0.777   4.932  0.5159  0.3717  0.4335
 7073SOL     OW28057   3.178   2.257   4.956  0.2620  0.9380  0.2661
 7073SOL    HW228058   3.108   2.319   4.933  1.4172  1.7268 -1.3074
 7073SOL    HW328059   3.151   2.175   4.916 -0.3912  0.8693  0.8163
 7073SOL    MW428060   3.165   2.254   4.948  0.3282  1.0330  0.1311
 7074SOL     OW28061   1.847   0.190   5.135 -0.6469 -0.0533  0.2147
 7074SOL    HW228062   1.890   0.107   5.157  0.8904  0.4832 -0.6572
 7074SOL    HW328063   1.900   0.257   5.177  0.2849  0.7277 -2.0748
 7074SOL    MW428064   1.860   0.188   5.144 -0.3211  0.1205 -0.2024
 7075SOL     OW28065   2.312   3.380   0.591 -0.1468  0.1712  0.3155
 7075SOL    HW228066   2.399   3.350   0.564 -0.2742  1.2612 -1.4696
 7075SOL    HW328067   2.329   3.460   0.640 -0.1585  1.1187 -1.1559
 7075SOL    MW428068   2.326   3.386   0.594 -0.1651  0.4400 -0.1141
 7076SOL     OW28069   5.289   2.437   2.781 -0.3189 -0.6311  0.2056
 7076SOL    HW228070   5.358   2.477   2.728 -0.3494 -1.6073 -0.5813
 7076SOL    HW328071   5.263   2.507   2.842  0.7372  0.0292 -0.0765
 7076SOL    MW428072   5.295   2.452   2.782 -0.1836 -0.6728  0.0645
 7077SOL     OW28073   5.887   6.455   0.301  0.7035 -0.1970  0.6722
 7077SOL    HW228074   5.978   6.479   0.319  0.1644  1.4541  1.4405
 7077SOL    HW328075   5.868   6.384   0.362  1.7349 -1.2223 -0.1565
 7077SOL    MW428076   5.897   6.449   0.311  0.7684 -0.1145  0.6643
 7078SOL     OW28077   1.799   5.220   5.544 -0.0326  0.1211 -0.1033
 7078SOL    HW228078   1.744   5.147   5.516 -1.1620  0.5452  0.9018
 7078SOL    HW328079   1.772   5.236   5.635  0.2691  1.7058 -0.2644
 7078SOL    MW428080   1.788   5.212   5.553 -0.1418  0.3861  0.0081
 7079SOL     OW28081   4.166   3.260   5.317 -0.2527 -0.0559 -0.2911
 7079SOL    HW228082   4.172   3.355   5.327  2.0419  0.1165 -2.4074
 7079SOL    HW328083   4.105   3.248   5.245 -0.4152 -0.2024 -0.1302
 7079SOL    MW428084   4.159   3.271   5.309  0.0286 -0.0525 -0.5491
 7080SOL     OW28085   0.860   0.725   0.102  0.0939  0.3428  0.2647
 7080SOL    HW228086   0.952   0.697   0.092 -0.2341 -1.0335  0.8210
 7080SOL    HW328087   0.824   0.721   0.014  0.0100 -1.3262  0.3263
 7080SOL    MW428088   0.868   0.721   0.089  0.0396 -0.0590  0.3462
 7081SOL     OW28089   0.379   0.940   2.197  0.4966 -0.8261  0.1213
 7081SOL    HW228090   0.456   0.950   2.141  0.1998 -1.3019 -0.3765
 7081SOL    HW328091   0.305   0.935   2.136  0.1866 -1.5505  0.5413
 7081SOL    MW428092   0.379   0.941   2.182  0.4165 -0.9844  0.1110
 7082SOL     OW28093   5.445   5.343   0.614 -0.0006 -0.3884 -0.4606
 7082SOL    HW228094   5.489   5.354   0.699 -0.4563 -1.4509 -0.0651
 7082SOL    HW328095   5.374   5.281   0.632 -0.9352  0.3990 -1.3373
 7082SOL    MW428096   5.442   5.336   0.628 -0.1840 -0.4247 -0.5241
 7083SOL     OW28097   0.541   1.914   2.120  0.0488  0.0950 -0.5428
 7083SOL    HW228098   0.533   1.992   2.065 -1.4050 -1.1067 -2.1505
 7083SOL    HW328099   0.608   1.861   2.077 -0.7484 -0.6353 -0.9153
 7083SOL    MW428100   0.549   1.917   2.107 -0.2482 -0.1599 -0.8041
 7084SOL     OW28101   1.224   6.475   3.969  0.0170  0.0115  0.3954
 7084SOL    HW228102   1.269   6.395   3.942 -0.9957 -0.7084  0.7856
 7084SOL    HW328103   1.143   6.475   3.919 -1.8518 -1.2847  3.1657
 7084SOL    MW428104   1.219   6.464   3.959 -0.3632 -0.2545  0.8124
 7085SOL     OW28105   0.901   4.079   1.755 -0.0582  0.2422  0.3241
 7085SOL    HW228106   0.931   4.111   1.840 -0.0379 -0.4654  0.5914
 7085SOL    HW328107   0.959   4.006   1.735 -0.7541 -0.2897  0.2203
 7085SOL    MW428108   0.912   4.074   1.763 -0.1473  0.0787  0.3456
 7086SOL     OW28109   4.917   6.055   3.224 -0.5223 -0.3067  0.0183
 7086SOL    HW228110   4.969   6.110   3.166  0.8453 -1.5710  0.0002
 7086SOL    HW328111   4.867   5.999   3.165  0.8460 -1.5716  0.0016
 7086SOL    MW428112   4.917   6.055   3.208 -0.1614 -0.6404  0.0137
 7087SOL     OW28113   2.120   3.216   0.820 -0.3310 -0.3351  0.0101
 7087SOL    HW228114   2.038   3.205   0.773 -0.9802  0.8914  0.8117
 7087SOL    HW328115   2.178   3.260   0.757 -0.2389 -1.2784 -0.5845
 7087SOL    MW428116   2.117   3.220   0.805 -0.4045 -0.2977  0.0374
 7088SOL     OW28117   2.837   2.975   4.008  0.3933  0.6343  0.0141
 7088SOL    HW228118   2.763   2.923   3.975 -1.1003  2.5222  0.2448
 7088SOL    HW328119   2.797   3.039   4.067  2.3694  1.0091  1.0202
 7088SOL    MW428120   2.822   2.977   4.011  0.4569  0.9328  0.1772
 7089SOL     OW28121   0.924   0.293   4.496  0.0676 -0.8048 -0.5694
 7089SOL    HW228122   0.953   0.306   4.406  0.2161  1.8719 -0.2295
 7089SOL    HW328123   0.898   0.201   4.501  1.0735 -1.2823 -3.0238
 7089SOL    MW428124   0.925   0.283   4.485  0.2199 -0.5147 -0.8484
 7090SOL     OW28125   0.468   5.239   4.622  0.2055  0.1853  0.4423
 7090SOL    HW228126   0.526   5.165   4.605 -0.0741  0.2176 -0.7247
 7090SOL    HW328127   0.386   5.216   4.578 -0.6328  0.2141  1.9233
 7090SOL    MW428128   0.465   5.227   4.614  0.0580  0.1934  0.4837
 7091SOL     OW28129   5.903   3.116   0.493  0.2107 -0.4270  0.8778
 7091SOL    HW228130   5.967   3.068   0.546  3.6364  1.3933 -1.2474
 7091SOL    HW328131   5.911   3.078   0.406  0.1344  1.3564  0.0438
 7091SOL    MW428132   5.912   3.105   0.489  0.6526  0.0485  0.4873
 7092SOL     OW28133   0.661   6.288   3.213 -0.0522 -0.4004  0.2669
 7092SOL    HW228134   0.637   6.296   3.305  1.0609  0.9987  0.4758
 7092SOL    HW328135   0.593   6.337   3.166  0.5579  0.7817  0.5697
 7092SOL    MW428136   0.649   6.296   3.219  0.1752 -0.0599  0.3344
 7093SOL     OW28137   3.890   2.060   1.697  0.4200  0.0926 -0.1003
 7093SOL    HW228138   3.911   2.153   1.706  1.3307 -0.1487  0.4005
 7093SOL    HW328139   3.924   2.036   1.611 -0.3352  0.3488 -0.4782
 7093SOL    MW428140   3.897   2.070   1.687  0.4405  0.0946 -0.0840
 7094SOL     OW28141   4.387   3.840   3.774 -0.0365  0.0319  0.4758
 7094SOL    HW228142   4.329   3.881   3.837 -0.3005 -0.5109  0.5873
 7094SOL    HW328143   4.445   3.912   3.744 -2.0872  1.0972 -1.2281
 7094SOL    MW428144   4.387   3.855   3.778 -0.3419  0.1008  0.2657
 7095SOL     OW28145   3.062   2.802   1.061  0.4873 -0.2722 -0.0933
 7095SOL    HW228146   3.022   2.777   1.144 -3.4715  2.6671 -0.8073
 7095SOL    HW328147   3.019   2.746   0.996  1.3182 -0.4684 -0.4945
 7095SOL    MW428148   3.051   2.791   1.063  0.0746  0.0897 -0.2404
 7096SOL     OW28149   4.575   0.278   2.083 -0.1815  0.4168  0.0269
 7096SOL    HW228150   4.579   0.195   2.131  1.0858 -0.6636 -1.7838
 7096SOL    HW328151   4.640   0.334   2.124  1.5445 -0.8131 -0.9150
 7096SOL    MW428152   4.584   0.274   2.095  0.2135  0.1120 -0.3362
 7097SOL     OW28153   2.660   0.267   1.392 -0.6905  0.2451 -0.0109
 7097SOL    HW228154   2.697   0.187   1.356 -0.1799  0.4871 -0.0305
 7097SOL    HW328155   2.669   0.257   1.487  0.1654  0.6549 -0.0470
 7097SOL    MW428156   2.666   0.255   1.400 -0.5102  0.3311 -0.0182
 7098SOL     OW28157   4.328   3.531   0.968  0.3742 -0.5404 -0.1421
 7098SOL    HW228158   4.240   3.496   0.951  0.0669  0.3117 -0.3430
 7098SOL    HW328159   4.372   3.528   0.883 -0.2518  1.1816 -0.5678
 7098SOL    MW428160   4.322   3.526   0.955  0.2510 -0.2008 -0.2248
 7099SOL     OW28161   5.660   2.854   0.253 -0.1481  0.0759  0.2509
 7099SOL    HW228162   5.605   2.931   0.269 -0.9920 -0.4265 -0.1613
 7099SOL    HW328163   5.635   2.825   0.165  0.2934 -0.5682  0.3318
 7099SOL    MW428164   5.650   2.860   0.243 -0.2012 -0.0754  0.2072
 7100SOL     OW28165   3.996   2.360   3.342  0.6626 -0.0346  0.4959
 7100SOL    HW228166   3.927   2.367   3.276 -0.0039 -1.2388  1.0401
 7100SOL    HW328167   4.077   2.377   3.293  0.0998  0.0860 -0.4255
 7100SOL    MW428168   3.998   2.363   3.327  0.5004 -0.1775  0.4462
 7101SOL     OW28169   3.704   3.854   5.126 -0.3819 -0.3883  0.1461
 7101SOL    HW228170   3.666   3.802   5.056  2.6950 -0.8030 -1.3880
 7101SOL    HW328171   3.752   3.791   5.180  0.6660  0.4180  0.1935
 7101SOL    MW428172   3.706   3.839   5.124  0.1623 -0.3366 -0.0501
 7102SOL     OW28173   4.736   1.778   0.610 -0.4866 -0.2296  0.5452
 7102SOL    HW228174   4.819   1.823   0.620  0.7540 -2.6390  1.7210
 7102SOL    HW328175   4.751   1.715   0.540 -1.4012 -0.5573  0.6273
 7102SOL    MW428176   4.749   1.776   0.602 -0.4436 -0.5907  0.7112
 7103SOL     OW28177   4.362   4.108   3.447 -0.1959  0.1020  0.3308
 7103SOL    HW228178   4.361   4.105   3.352 -0.3945  0.2611  0.3251
 7103SOL    HW328179   4.413   4.032   3.474 -0.7001 -0.3219  0.1117
 7103SOL    MW428180   4.369   4.098   3.438 -0.2887  0.0670  0.3011
 7104SOL     OW28181   2.442   1.786   1.354  0.0249  0.3409 -0.1070
 7104SOL    HW228182   2.438   1.776   1.450 -0.4480 -0.5585 -0.2092
 7104SOL    HW328183   2.463   1.878   1.341 -0.0651  0.5168  0.8680
 7104SOL    MW428184   2.444   1.797   1.365 -0.0494  0.2455  0.0082
 7105SOL     OW28185   4.242   0.515   6.062 -0.7541 -0.3778 -0.3272
 7105SOL    HW228186   4.248   0.600   6.107 -2.5386 -0.8386  0.9029
 7105SOL    HW328187   4.329   0.501   6.027  0.1192  1.0902  1.0884
 7105SOL    MW428188   4.254   0.525   6.063 -0.8743 -0.2449  0.0219
 7106SOL     OW28189   3.995   3.194   4.764  0.1033  0.3450  0.4209
 7106SOL    HW228190   4.015   3.186   4.670  0.0187  0.1610  0.4184
 7106SOL    HW328191   3.968   3.285   4.775  0.1518  0.3776  0.2735
 7106SOL    MW428192   3.994   3.205   4.753  0.0985  0.3250  0.4011
 7107SOL     OW28193   0.020   3.607   3.500 -0.4370 -0.1975 -0.0596
 7107SOL    HW228194   0.015   3.657   3.418  0.7316  0.2434  0.1223
 7107SOL    HW328195  -0.004   3.669   3.568 -0.3271 -0.2552  0.0325
 7107SOL    MW428196   0.016   3.622   3.498 -0.2683 -0.1469 -0.0234
 7108SOL     OW28197   3.028   6.450   6.223  0.1749  0.4121  0.1792
 7108SOL    HW228198   2.967   6.493   6.163 -0.6183  0.8246  1.2526
 7108SOL    HW328199   3.064   6.521   6.275  2.2571  0.2835 -1.0000
 7108SOL    MW428200   3.025   6.465   6.222  0.3449  0.4495  0.1653
 7109SOL     OW28201   1.073   5.516   6.007  1.0461  0.0779  0.5391
 7109SOL    HW228202   1.024   5.448   5.962 -0.6113  1.1992  0.5508
 7109SOL    HW328203   1.130   5.554   5.940  0.6142 -0.0925  0.0688
 7109SOL    MW428204   1.074   5.512   5.992  0.7704  0.2033  0.4786
 7110SOL     OW28205   2.503   4.238   5.075 -0.3528  0.0228 -0.2115
 7110SOL    HW228206   2.589   4.197   5.060 -0.5673 -0.3259 -0.4994
 7110SOL    HW328207   2.447   4.202   5.006 -0.8725 -0.1678  0.3002
 7110SOL    MW428208   2.507   4.228   5.064 -0.4497 -0.0484 -0.1820
 7111SOL     OW28209   2.006   3.861   5.668 -0.3343  0.2717 -0.0582
 7111SOL    HW228210   2.055   3.931   5.625  0.1567  0.4392  0.7440
 7111SOL    HW328211   1.929   3.848   5.613  1.2047 -0.8812 -2.0938
 7111SOL    MW428212   2.003   3.868   5.655 -0.0664  0.1417 -0.2210
 7112SOL     OW28213   6.185   5.500   5.310 -0.0664 -0.5018  0.0085
 7112SOL    HW228214   6.095   5.501   5.278  0.3468  2.9908 -1.5044
 7112SOL    HW328215   6.182   5.548   5.392  0.6651  2.2716 -1.4453
 7112SOL    MW428216   6.173   5.507   5.316  0.0846  0.3249 -0.3829
 7113SOL     OW28217   4.960   1.478   6.384 -0.0324 -0.0555  0.1248
 7113SOL    HW228218   4.899   1.449   6.451 -0.3714 -1.9119 -0.9413
 7113SOL    HW328219   5.011   1.547   6.427 -2.3626  1.0809  1.2658
 7113SOL    MW428220   4.959   1.484   6.399 -0.3845 -0.1505  0.1347
 7114SOL     OW28221   3.099   1.144   1.115  0.1389  0.2436  0.0467
 7114SOL    HW228222   3.008   1.129   1.142  0.4333  0.3109  1.1033
 7114SOL    HW328223   3.111   1.086   1.040 -0.7147  0.0813  0.0211
 7114SOL    MW428224   3.089   1.135   1.108  0.0651  0.2311  0.1827
 7115SOL     OW28225   1.755   1.150   1.933  0.8115 -0.0771  0.4291
 7115SOL    HW228226   1.842   1.129   1.899  1.1778 -0.0093  1.2921
 7115SOL    HW328227   1.736   1.078   1.994 -0.6886 -1.2908 -1.3447
 7115SOL    MW428228   1.764   1.137   1.937  0.6619 -0.2283  0.3090
 7116SOL     OW28229   3.042   4.299   5.041 -0.3294 -0.4014  1.0891
 7116SOL    HW228230   3.104   4.361   5.078  0.2920 -0.9125  0.9194
 7116SOL    HW328231   3.050   4.311   4.946 -0.4861 -0.4723  1.0663
 7116SOL    MW428232   3.051   4.309   5.033 -0.2681 -0.4782  1.0637
 7117SOL     OW28233   5.276   3.560   1.739 -0.2653  0.1622 -0.3787
 7117SOL    HW228234   5.252   3.479   1.784 -1.3139  1.0452  0.7193
 7117SOL    HW328235   5.363   3.582   1.774 -0.5066  0.1478  0.2416
 7117SOL    MW428236   5.284   3.552   1.749 -0.4355  0.2768 -0.1520
 7118SOL     OW28237   0.865   3.083   4.145 -0.2354 -0.4245  0.4936
 7118SOL    HW228238   0.781   3.119   4.117 -0.8704 -1.0293  1.5515
 7118SOL    HW328239   0.920   3.085   4.066 -0.8961  0.9428  0.0547
 7118SOL    MW428240   0.861   3.088   4.131 -0.4063 -0.3239  0.5753
 7119SOL     OW28241   5.760   2.292   2.390  0.1603 -0.0962  0.1858
 7119SOL    HW228242   5.835   2.261   2.441 -0.4873  0.0944  1.2643
 7119SOL    HW328243   5.706   2.340   2.452 -0.7142  0.0438 -0.6551
 7119SOL    MW428244   5.763   2.295   2.405 -0.0405 -0.0526  0.2172
 7120SOL     OW28245   0.769   4.936   5.705  0.2142  0.8752 -0.0415
 7120SOL    HW228246   0.775   4.841   5.718 -0.7044  0.8121  0.0295
 7120SOL    HW328247   0.825   4.973   5.773 -0.3435  0.4013  0.6950
 7120SOL    MW428248   0.777   4.928   5.716  0.0195  0.8044  0.0651
 7121SOL     OW28249   5.740   5.554   1.354  0.5550 -0.1487  0.1927
 7121SOL    HW228250   5.787   5.577   1.274  1.4571  0.4200  0.8734
 7121SOL    HW328251   5.783   5.604   1.423 -1.1382  0.5168  0.8301
 7121SOL    MW428252   5.752   5.564   1.352  0.4506  0.0142  0.3666
 7122SOL     OW28253   0.370   0.749   2.602 -0.2149 -0.1622 -0.3497
 7122SOL    HW228254   0.317   0.829   2.595  1.3612  1.1521  1.5524
 7122SOL    HW328255   0.335   0.704   2.679  0.1034 -0.3573 -0.3195
 7122SOL    MW428256   0.358   0.754   2.611  0.0350 -0.0145 -0.0948
 7123SOL     OW28257   6.114   4.297   5.221  0.0773 -0.0706 -0.5165
 7123SOL    HW228258   6.172   4.372   5.236 -1.4274  1.3398 -1.3911
 7123SOL    HW328259   6.129   4.274   5.129  1.4673 -1.7530  0.0634
 7123SOL    MW428260   6.124   4.304   5.211  0.0622 -0.1065 -0.5554
 7124SOL     OW28261   2.869   3.007   0.999 -0.1300  0.1766  0.2796
 7124SOL    HW228262   2.934   2.937   1.005 -1.0134 -0.6695  0.2320
 7124SOL    HW328263   2.910   3.074   0.946  0.7653 -0.2740  0.3944
 7124SOL    MW428264   2.883   3.007   0.993 -0.1284  0.0055  0.2885
 7125SOL     OW28265   2.675   3.561   2.878 -0.2494  0.0347 -0.0864
 7125SOL    HW228266   2.693   3.636   2.935 -2.7863 -1.3635  2.8794
 7125SOL    HW328267   2.756   3.510   2.878  0.5706  1.3002  0.2227
 7125SOL    MW428268   2.688   3.564   2.885 -0.4759  0.0172  0.3457
 7126SOL     OW28269   3.023   5.663   1.692  0.0565 -0.3490  0.1936
 7126SOL    HW228270   3.022   5.594   1.758 -0.6235 -0.1046  0.4522
 7126SOL    HW328271   3.114   5.668   1.663  0.2190 -0.9522  0.5918
 7126SOL    MW428272   3.035   5.655   1.697 -0.0118 -0.3963  0.2803
 7127SOL     OW28273   3.851   5.520   5.911  0.2039  0.0770  0.3017
 7127SOL    HW228274   3.817   5.609   5.923  1.1773  0.6454 -0.9769
 7127SOL    HW328275   3.788   5.478   5.852  0.6057  0.4612 -0.4097
 7127SOL    MW428276   3.838   5.526   5.905  0.3853  0.2027  0.0391
 7128SOL     OW28277   2.486   0.847   4.679  0.0881 -0.1049  0.0886
 7128SOL    HW228278   2.410   0.889   4.639 -0.5201  0.8053  2.0744
 7128SOL    HW328279   2.559   0.908   4.663 -0.1749  0.3091  0.4428
 7128SOL    MW428280   2.486   0.861   4.672 -0.0268  0.0698  0.3973
 7129SOL     OW28281   3.716   3.669   2.050 -0.0614  0.6275  0.0499
 7129SOL    HW228282   3.715   3.573   2.061 -0.4787  0.4974 -1.0524
 7129SOL    HW328283   3.756   3.701   2.131 -0.2487 -0.4571  0.6004
 7129SOL    MW428284   3.721   3.660   2.062 -0.1412  0.4673 -0.0229
 7130SOL     OW28285   0.989   3.499   0.981  0.3069 -0.5221  0.2518
 7130SOL    HW228286   1.047   3.433   0.943  2.1406  0.0542  1.9280
 7130SOL    HW328287   0.948   3.455   1.056 -1.3584 -0.8616 -0.7955
 7130SOL    MW428288   0.991   3.485   0.986  0.3291 -0.4908  0.3348
 7131SOL     OW28289   0.126   1.949   4.088 -0.1061 -0.4096  0.2006
 7131SOL    HW228290   0.031   1.934   4.091  0.2226 -2.9201  0.1321
 7131SOL    HW328291   0.152   1.953   4.180  0.0039 -2.1141  0.2684
 7131SOL    MW428292   0.117   1.948   4.100 -0.0482 -0.9657  0.2005
 7132SOL     OW28293   3.611   6.347   1.163  0.4417  0.2720 -0.3146
 7132SOL    HW228294   3.528   6.396   1.160  0.5811  0.4776 -1.2943
 7132SOL    HW328295   3.603   6.292   1.240 -0.4647  0.5510 -0.1881
 7132SOL    MW428296   3.599   6.346   1.173  0.3405  0.3360 -0.4272
 7133SOL     OW28297   3.548   3.752   4.921  0.4721  0.3320  0.2701
 7133SOL    HW228298   3.571   3.662   4.896  0.3008  0.6911 -1.3030
 7133SOL    HW328299   3.456   3.747   4.947  0.0685  0.2479 -1.0805
 7133SOL    MW428300   3.539   3.739   4.921  0.3963  0.3683 -0.1156
 7134SOL     OW28301   1.732   3.463   1.514 -0.0720 -0.1655 -0.9038
 7134SOL    HW228302   1.653   3.478   1.462 -1.9268 -1.6561  1.3049
 7134SOL    HW328303   1.700   3.435   1.599  2.8746 -1.5034 -0.1091
 7134SOL    MW428304   1.718   3.461   1.518  0.0720 -0.5387 -0.5076
 7135SOL     OW28305   1.225   1.781   2.381  0.5681 -0.0098  0.4376
 7135SOL    HW228306   1.204   1.722   2.309  1.3571  0.8034 -0.4954
 7135SOL    HW328307   1.148   1.837   2.390 -0.3130 -1.3403  1.5394
 7135SOL    MW428308   1.212   1.781   2.373  0.5559 -0.0780  0.4599
 7136SOL     OW28309   3.905   3.175   0.932  0.2697  0.1783 -0.3175
 7136SOL    HW228310   3.813   3.146   0.935  0.5002 -0.5149  0.1195
 7136SOL    HW328311   3.940   3.154   1.018  1.2745 -1.0025 -0.9950
 7136SOL    MW428312   3.897   3.169   0.944  0.4327 -0.0690 -0.3492
 7137SOL     OW28313   0.070   4.482   6.305  0.2864  0.1931 -0.7060
 7137SOL    HW228314   0.003   4.516   6.364  1.2427 -1.8147  1.7048
 7137SOL    HW328315   0.028   4.407   6.262  0.1953  0.5280 -1.2201
 7137SOL    MW428316   0.055   4.477   6.307  0.4006 -0.0276 -0.4557
 7138SOL     OW28317   1.044   2.838   2.455  0.4147 -0.6285 -0.3990
 7138SOL    HW228318   1.092   2.919   2.438  0.3473 -0.5575 -0.2563
 7138SOL    HW328319   0.954   2.867   2.473  0.5558 -0.6649  0.4137
 7138SOL    MW428320   1.038   2.853   2.455  0.4245 -0.6239 -0.2730
 7139SOL     OW28321   6.117   3.085   4.669  0.4522  0.3527 -0.1589
 7139SOL    HW228322   6.161   3.123   4.592  0.6225  0.3955 -0.0398
 7139SOL    HW328323   6.072   3.008   4.635  0.5179  0.3783 -0.3051
 7139SOL    MW428324   6.117   3.080   4.654  0.4833  0.3617 -0.1624
 7140SOL     OW28325   3.881   3.427   4.949 -0.0240 -0.0429 -0.0524
 7140SOL    HW228326   3.954   3.485   4.970 -0.1677 -0.2012  0.9333
 7140SOL    HW328327   3.908   3.341   4.983  0.1277 -0.5319 -1.3645
 7140SOL    MW428328   3.894   3.423   4.956 -0.0229 -0.1283 -0.0954
 7141SOL     OW28329   6.310   1.673   0.725  0.7066 -0.0251 -0.4823
 7141SOL    HW228330   6.342   1.739   0.664  0.0252  0.6115 -0.1685
 7141SOL    HW328331   6.370   1.599   0.714  1.9444  0.9142 -0.3081
 7141SOL    MW428332   6.322   1.672   0.716  0.7800  0.1828 -0.4179
 7142SOL     OW28333   3.096   4.111   2.459 -0.2272  0.6082 -0.4727
 7142SOL    HW228334   3.113   4.040   2.396 -0.6905  0.0889 -0.0190
 7142SOL    HW328335   3.180   4.125   2.501 -0.4342 -0.6534  0.4277
 7142SOL    MW428336   3.109   4.103   2.456 -0.3156  0.3732 -0.2941
 7143SOL     OW28337   2.188   0.452   0.950  0.2283  0.4129 -0.3113
 7143SOL    HW228338   2.119   0.516   0.932  0.8998  0.6519 -2.2742
 7143SOL    HW328339   2.167   0.418   1.037 -1.8060  1.1728 -0.4472
 7143SOL    MW428340   2.176   0.456   0.959  0.0485  0.5447 -0.5882
 7144SOL     OW28341   5.345   3.966   5.543  0.3460 -0.4053  0.0241
 7144SOL    HW228342   5.412   3.897   5.538  0.5014 -0.1577 -2.2402
 7144SOL    HW328343   5.350   4.011   5.459 -2.1946  0.0763  0.0338
 7144SOL    MW428344   5.354   3.963   5.531  0.0313 -0.3091 -0.2734
 7145SOL     OW28345   1.601   3.313   2.176  0.2700  0.3302 -0.1326
 7145SOL    HW228346   1.663   3.240   2.187 -0.3176 -0.2913 -0.9005
 7145SOL    HW328347   1.657   3.390   2.169  1.0499 -0.3515 -2.0264
 7145SOL    MW428348   1.617   3.313   2.177  0.2953  0.1583 -0.4838
 7146SOL     OW28349   2.558   4.507   6.013 -0.1910  0.0555 -0.0835
 7146SOL    HW228350   2.463   4.506   6.004 -0.1978  1.1807 -0.3070
 7146SOL    HW328351   2.589   4.559   5.938  0.5447  0.3305  0.3991
 7146SOL    MW428352   2.550   4.513   6.002 -0.0948  0.2403 -0.0493
 7147SOL     OW28353   3.319   5.041   1.424 -0.2685 -0.5452  0.1406
 7147SOL    HW228354   3.258   4.986   1.474  0.4554 -0.2448  1.4032
 7147SOL    HW328355   3.276   5.126   1.419  1.1875  0.5912  3.6529
 7147SOL    MW428356   3.305   5.045   1.430  0.0191 -0.3556  0.7706
 7148SOL     OW28357   6.096   5.544   1.981 -0.4725  0.2182  0.1844
 7148SOL    HW228358   6.189   5.523   1.982 -0.4812  0.0220 -1.0542
 7148SOL    HW328359   6.077   5.574   2.070  1.3976  3.0252 -0.2246
 7148SOL    MW428360   6.106   5.545   1.993 -0.2269  0.5627 -0.0330
 7149SOL     OW28361   2.090   3.130   3.911 -0.2001  0.2123 -0.1187
 7149SOL    HW228362   2.137   3.059   3.868 -0.4086  1.5688 -2.7820
 7149SOL    HW328363   2.153   3.202   3.914 -0.1592  0.1609  2.0707
 7149SOL    MW428364   2.104   3.130   3.906 -0.2222  0.3845 -0.1813
 7150SOL     OW28365   2.371   1.437   6.398  0.4843 -0.1520  0.8515
 7150SOL    HW228366   2.320   1.470   6.324  1.1398 -1.9988 -0.5251
 7150SOL    HW328367   2.457   1.417   6.360  1.2060 -0.1152  2.3921
 7150SOL    MW428368   2.376   1.439   6.383  0.6660 -0.3908  0.8731
 7151SOL     OW28369   0.916   1.242   3.785  0.2915  0.4028 -0.2174
 7151SOL    HW228370   0.937   1.164   3.734  0.3802 -0.0477  0.4978
 7151SOL    HW328371   0.833   1.273   3.749  0.1269 -0.1701 -0.3428
 7151SOL    MW428372   0.908   1.236   3.774  0.2815  0.2678 -0.1396
 7152SOL     OW28373   3.328   5.481   3.145 -0.1991 -0.4433  0.1337
 7152SOL    HW228374   3.333   5.421   3.070  0.7471  0.7538 -0.7936
 7152SOL    HW328375   3.244   5.526   3.134 -1.1599 -1.9097  1.1195
 7152SOL    MW428376   3.317   5.479   3.133 -0.2010 -0.4789  0.1414
 7153SOL     OW28377   1.614   4.924   3.115  0.2452  0.6050 -0.0839
 7153SOL    HW228378   1.665   4.917   3.034  0.9392  2.8091  0.1020
 7153SOL    HW328379   1.530   4.885   3.094  0.7220  0.3255 -1.5901
 7153SOL    MW428380   1.610   4.918   3.102  0.3997  0.8589 -0.2581
 7154SOL     OW28381   0.978   0.464   2.967  0.1301  0.4805  0.5470
 7154SOL    HW228382   0.960   0.505   3.052  0.9434 -0.3446  1.1547
 7154SOL    HW328383   1.044   0.397   2.987 -1.9235 -1.9347 -0.1331
 7154SOL    MW428384   0.984   0.460   2.981 -0.0336  0.0530  0.5374
 7155SOL     OW28385   1.704   5.197   5.107 -0.0157  0.5453 -0.5540
 7155SOL    HW228386   1.706   5.292   5.094 -0.4616  0.3686 -1.9955
 7155SOL    HW328387   1.794   5.176   5.133 -0.0148  1.4036  0.2087
 7155SOL    MW428388   1.716   5.207   5.109 -0.0744  0.6352 -0.6436
 7156SOL     OW28389   2.969   6.397   1.795 -0.4958 -0.0165 -0.0332
 7156SOL    HW228390   2.930   6.309   1.798 -1.0023  0.2179  0.8003
 7156SOL    HW328391   2.929   6.439   1.719 -0.5598 -0.3744 -0.1977
 7156SOL    MW428392   2.959   6.391   1.786 -0.5710 -0.0328  0.0551
 7157SOL     OW28393   3.068   4.035   5.130 -0.2771 -0.2873  0.2929
 7157SOL    HW228394   2.998   4.034   5.196  1.3455 -0.3979  2.0893
 7157SOL    HW328395   3.051   4.115   5.080 -1.9028 -0.5112  0.4220
 7157SOL    MW428396   3.056   4.045   5.132 -0.2775 -0.3315  0.5470
 7158SOL     OW28397   4.436   1.905   6.362 -0.3841 -0.1424 -0.0033
 7158SOL    HW228398   4.527   1.880   6.350  0.4188  1.6622  1.7386
 7158SOL    HW328399   4.395   1.890   6.277  1.0275 -2.7808 -0.3186
 7158SOL    MW428400   4.442   1.900   6.349 -0.0919 -0.2524  0.1849
 7159SOL     OW28401   0.760   5.141   6.200 -0.2843  0.4556 -0.1229
 7159SOL    HW228402   0.783   5.058   6.158  0.2744  1.4671 -1.9157
 7159SOL    HW328403   0.741   5.117   6.291 -3.4949 -2.1718 -1.2708
 7159SOL    MW428404   0.760   5.127   6.207 -0.6342  0.2424 -0.5109
 7160SOL     OW28405   0.527   0.915   3.638  0.7018 -0.2384 -0.2150
 7160SOL    HW228406   0.603   0.970   3.617  1.8311 -1.1575  1.2078
 7160SOL    HW328407   0.523   0.851   3.567  0.8436  0.2440 -0.6586
 7160SOL    MW428408   0.537   0.914   3.626  0.8695 -0.2961 -0.0858
 7161SOL     OW28409   0.267   0.239   5.885 -0.0124  0.0189 -0.5942
 7161SOL    HW228410   0.267   0.170   5.817  1.1973 -1.2487  0.6146
 7161SOL    HW328411   0.341   0.216   5.941 -1.5187  0.4892  1.7077
 7161SOL    MW428412   0.277   0.227   5.883 -0.0515 -0.0863 -0.1310
 7162SOL     OW28413   4.276   0.191   1.931 -0.0278 -0.0413  0.4458
 7162SOL    HW228414   4.346   0.180   1.866 -1.7583 -1.3728 -1.2894
 7162SOL    HW328415   4.269   0.286   1.942  2.8569  0.1313  1.6645
 7162SOL    MW428416   4.284   0.202   1.923  0.1245 -0.1942  0.3776
 7163SOL     OW28417   4.958   5.064   2.175  0.1045 -0.1754 -0.5156
 7163SOL    HW228418   5.046   5.027   2.179  0.5188  0.8241 -0.0189
 7163SOL    HW328419   4.946   5.106   2.260 -1.1617 -0.9576 -0.2676
 7163SOL    MW428420   4.968   5.065   2.187 -0.0079 -0.1467 -0.4174
 7164SOL     OW28421   1.071   2.233   4.479 -0.2100  0.0290 -0.0625
 7164SOL    HW228422   1.027   2.305   4.525 -0.0612  0.5267 -0.6817
 7164SOL    HW328423   1.160   2.265   4.464  0.4212 -0.9954  1.2504
 7164SOL    MW428424   1.077   2.247   4.483 -0.1071 -0.0405  0.0290
 7165SOL     OW28425   4.711   5.822   1.250  0.2243  0.2630  0.6589
 7165SOL    HW228426   4.641   5.757   1.251 -0.3809  0.8696 -0.5634
 7165SOL    HW328427   4.757   5.807   1.168  2.2009 -0.7704  1.8709
 7165SOL    MW428428   4.708   5.811   1.240  0.4053  0.2067  0.6576
 7166SOL     OW28429   6.301   4.729   2.528  0.4555 -0.4510  0.3776
 7166SOL    HW228430   6.243   4.797   2.494  1.3424  0.8172  1.2990
 7166SOL    HW328431   6.250   4.648   2.522 -0.2136  0.0670 -1.8341
 7166SOL    MW428432   6.286   4.727   2.523  0.4842 -0.2153  0.2074
 7167SOL     OW28433   2.157   4.341   0.668 -0.5173  0.3292  0.1770
 7167SOL    HW228434   2.239   4.365   0.626  0.4009 -1.2504  0.9385
 7167SOL    HW328435   2.148   4.403   0.740  1.7376 -1.3366  2.0604
 7167SOL    MW428436   2.167   4.352   0.672 -0.0986 -0.0990  0.5259
 7168SOL     OW28437   0.502   3.687   0.376  0.1451  0.0911 -0.1822
 7168SOL    HW228438   0.417   3.719   0.406  0.1711  1.5858 -1.5749
 7168SOL    HW328439   0.491   3.592   0.370 -1.0878  0.1616  0.6454
 7168SOL    MW428440   0.490   3.679   0.379 -0.0141  0.2976 -0.2567
 7169SOL     OW28441   5.595   0.721   5.891  0.1727 -0.2716 -0.2327
 7169SOL    HW228442   5.638   0.641   5.861  1.0668  0.1852 -0.2060
 7169SOL    HW328443   5.662   0.767   5.940 -0.3198  0.5165 -0.2826
 7169SOL    MW428444   5.609   0.717   5.893  0.2257 -0.1074 -0.2358
 7170SOL     OW28445   4.367   0.763   4.344  0.2479 -0.3523  0.3066
 7170SOL    HW228446   4.285   0.716   4.331  0.0011  0.1514  0.0227
 7170SOL    HW328447   4.423   0.733   4.272  0.0923 -0.2056  0.1264
 7170SOL    MW428448   4.364   0.752   4.333  0.1948 -0.2665  0.2454
 7171SOL     OW28449   3.331   2.916   3.558  0.3477  0.0341 -0.0614
 7171SOL    HW228450   3.333   2.885   3.649  2.0987  2.2073  0.7299
 7171SOL    HW328451   3.418   2.896   3.525  0.0202  0.1067 -0.9822
 7171SOL    MW428452   3.343   2.909   3.566  0.5355  0.3304 -0.0785
 7172SOL     OW28453   2.995   4.549   1.201 -0.2904 -0.5374  0.4286
 7172SOL    HW228454   2.932   4.503   1.146  0.5898 -2.8440  1.2264
 7172SOL    HW328455   3.072   4.492   1.201  1.8202  2.1090 -0.4226
 7172SOL    MW428456   2.997   4.535   1.193  0.1042 -0.4925  0.4215
 7173SOL     OW28457   3.600   4.814   6.041  0.3395  0.3172 -0.0900
 7173SOL    HW228458   3.681   4.804   5.992  0.1002  1.6380 -0.8151
 7173SOL    HW328459   3.625   4.865   6.119  0.5009 -0.7441  0.5681
 7173SOL    MW428460   3.614   4.819   6.045  0.3292  0.3514 -0.0989
 7174SOL     OW28461   4.953   5.281   2.376 -0.0885 -0.4335  0.1759
 7174SOL    HW228462   5.006   5.219   2.426  0.0343 -0.0757  0.4989
 7174SOL    HW328463   4.872   5.289   2.425 -1.0523 -2.0500 -1.0537
 7174SOL    MW428464   4.950   5.274   2.389 -0.1995 -0.5996  0.0563
 7175SOL     OW28465   5.376   5.491   0.270  0.8214 -0.3011 -0.2022
 7175SOL    HW228466   5.339   5.508   0.357  1.0394  0.3023 -0.2192
 7175SOL    HW328467   5.384   5.578   0.231  1.7994 -0.4624 -0.3831
 7175SOL    MW428468   5.372   5.505   0.276  0.9792 -0.2428 -0.2283
 7176SOL     OW28469   2.635   0.651   5.058  0.2113  0.3957 -0.0436
 7176SOL    HW228470   2.561   0.687   5.009  0.0301 -0.1466 -0.1791
 7176SOL    HW328471   2.705   0.716   5.048 -1.0060  2.2604  2.2729
 7176SOL    MW428472   2.634   0.664   5.050  0.0268  0.5702  0.2442
 7177SOL     OW28473   0.329   0.587   5.341  0.2641 -0.1531 -0.0540
 7177SOL    HW228474   0.259   0.650   5.325 -0.5842 -1.0072  0.1719
 7177SOL    HW328475   0.306   0.547   5.425  1.5610  0.2419  0.5156
 7177SOL    MW428476   0.317   0.590   5.350  0.3232 -0.2137  0.0509
 7178SOL     OW28477   2.864   0.141   1.596  0.1524  0.3084 -0.2455
 7178SOL    HW228478   2.919   0.158   1.519  1.6851  0.9819  0.9355
 7178SOL    HW328479   2.825   0.226   1.617 -0.4633  0.0710 -0.4200
 7178SOL    MW428480   2.866   0.154   1.588  0.2734  0.3659 -0.1127
 7179SOL     OW28481   0.965   5.994   1.476  0.8207  0.3547 -0.4487
 7179SOL    HW228482   1.002   5.998   1.387  1.4692 -1.3242 -0.2815
 7179SOL    HW328483   0.994   5.910   1.511  0.1146  0.7437  1.1736
 7179SOL    MW428484   0.973   5.983   1.469  0.8131  0.1845 -0.2126
 7180SOL     OW28485   3.121   0.113   1.455 -0.7627  0.2105 -0.1424
 7180SOL    HW228486   3.120   0.174   1.529  0.2054 -1.0237  0.9209
 7180SOL    HW328487   3.151   0.031   1.492 -0.4685 -0.4988 -1.8815
 7180SOL    MW428488   3.124   0.111   1.469 -0.5962 -0.0459 -0.2316
 7181SOL     OW28489   2.547   1.267   3.882  0.2399  0.3211  0.0511
 7181SOL    HW228490   2.491   1.344   3.895 -2.9689 -1.8908  0.5956
 7181SOL    HW328491   2.562   1.265   3.788  0.0185  1.3350 -0.0269
 7181SOL    MW428492   2.542   1.277   3.871 -0.2127  0.1631  0.1126
 7182SOL     OW28493   4.387   1.934   5.750 -0.4030  0.1957  0.4875
 7182SOL    HW228494   4.479   1.959   5.740 -0.5557  0.2976 -0.8549
 7182SOL    HW328495   4.339   2.003   5.704 -1.1795  0.2795  1.3909
 7182SOL    MW428496   4.393   1.947   5.743 -0.5256  0.2202  0.4295
 7183SOL     OW28497   2.754   5.042   4.727  0.0298 -0.5096  0.3416
 7183SOL    HW228498   2.767   5.095   4.649 -1.3515 -0.2278  0.2826
 7183SOL    HW328499   2.755   5.105   4.799  0.3022 -0.6472  0.4606
 7183SOL    MW428500   2.756   5.058   4.726 -0.1165 -0.4905  0.3495
 7184SOL     OW28501   3.269   3.618   4.028 -0.0543 -0.0018  0.2045
 7184SOL    HW228502   3.347   3.589   4.075  0.4705 -0.2710 -0.8094
 7184SOL    HW328503   3.268   3.565   3.948 -0.4455  1.0442 -0.5035
 7184SOL    MW428504   3.279   3.607   4.024 -0.0367  0.1007 -0.0227
 7185SOL     OW28505   3.676   5.489   1.449 -0.4176  0.3189  0.5533
 7185SOL    HW228506   3.647   5.407   1.489 -1.3847 -0.3912 -1.4856
 7185SOL    HW328507   3.595   5.532   1.423  0.1563 -0.1845 -2.3666
 7185SOL    MW428508   3.662   5.484   1.451 -0.4695  0.1588 -0.1009
 7186SOL     OW28509   2.364   2.859   4.038  0.6914 -0.0381  0.0436
 7186SOL    HW228510   2.271   2.848   4.056  0.9902 -1.1065  1.1236
 7186SOL    HW328511   2.402   2.885   4.122  1.2406  1.3805 -0.6108
 7186SOL    MW428512   2.357   2.861   4.052  0.8033  0.0081  0.0998
 7187SOL     OW28513   3.693   2.602   2.750  0.7194 -0.0657 -0.2272
 7187SOL    HW228514   3.660   2.667   2.812  1.9134  0.3276  0.0035
 7187SOL    HW328515   3.614   2.567   2.708 -0.0099  0.6225  0.5476
 7187SOL    MW428516   3.678   2.606   2.753  0.7807  0.0770 -0.0945
 7188SOL     OW28517   2.140   2.308   2.196 -0.0660  0.4486 -0.3483
 7188SOL    HW228518   2.096   2.293   2.112 -0.1037  1.0962 -0.4435
 7188SOL    HW328519   2.137   2.223   2.239  2.9807 -0.9082 -2.4118
 7188SOL    MW428520   2.134   2.295   2.190  0.3310  0.3550 -0.6331
 7189SOL     OW28521   1.973   6.355   5.177 -0.1238 -0.3271 -0.7518
 7189SOL    HW228522   1.959   6.263   5.154  2.6477 -0.8115 -0.8118
 7189SOL    HW328523   2.031   6.389   5.109 -0.3755  1.2438 -0.2373
 7189SOL    MW428524   1.979   6.347   5.165  0.2086 -0.1837 -0.6918
 7190SOL     OW28525   1.241   1.959   5.201 -0.0035 -0.0624 -0.7967
 7190SOL    HW228526   1.280   1.876   5.228  3.8850  0.9877 -2.6032
 7190SOL    HW328527   1.238   2.012   5.281  2.4818 -0.2062 -0.5382
 7190SOL    MW428528   1.245   1.955   5.215  0.8374  0.0572 -1.0010
 7191SOL     OW28529   4.224   4.407   5.623  0.5080  0.4218  0.3990
 7191SOL    HW228530   4.162   4.362   5.680 -0.9263  2.2922  0.3986
 7191SOL    HW328531   4.199   4.382   5.535 -0.3065  1.1981  0.3972
 7191SOL    MW428532   4.213   4.398   5.619  0.2113  0.7710  0.3987
 7192SOL     OW28533   2.714   1.185   3.084 -0.5092 -0.1203  0.0720
 7192SOL    HW228534   2.761   1.110   3.121  2.6458  1.2988 -0.7250
 7192SOL    HW328535   2.684   1.154   2.998 -0.6315 -0.9425  0.4081
 7192SOL    MW428536   2.716   1.171   3.077 -0.1091 -0.0416  0.0112
 7193SOL     OW28537   4.392   0.077   4.836 -0.5969  0.4841 -0.0005
 7193SOL    HW228538   4.447   0.102   4.762 -1.4747 -1.1794 -1.2759
 7193SOL    HW328539   4.313   0.130   4.828 -0.3837  0.8388  0.1996
 7193SOL    MW428540   4.389   0.087   4.825 -0.6846  0.3114 -0.1424
 7194SOL     OW28541   4.684   0.862   5.109 -0.0976  0.0422 -0.1231
 7194SOL    HW228542   4.709   0.949   5.077  1.3353 -0.2548  0.0953
 7194SOL    HW328543   4.622   0.878   5.179  1.9326  1.0573  1.5544
 7194SOL    MW428544   4.679   0.875   5.114  0.3593  0.1370  0.1270
 7195SOL     OW28545   4.255   4.596   1.324 -0.7198 -0.4396  0.4900
 7195SOL    HW228546   4.276   4.669   1.382 -0.2475 -0.1997  0.0176
 7195SOL    HW328547   4.182   4.628   1.271  0.3387  0.1947 -0.6388
 7195SOL    MW428548   4.248   4.610   1.325 -0.5178 -0.3243  0.2787
 7196SOL     OW28549   0.544   2.139   1.703 -0.6178  0.1583  0.1945
 7196SOL    HW228550   0.550   2.150   1.798 -2.0775  0.1158  0.3177
 7196SOL    HW328551   0.619   2.187   1.669  0.8480 -1.1162  1.4197
 7196SOL    MW428552   0.555   2.147   1.711 -0.6170 -0.0154  0.3724
 7197SOL     OW28553   4.415   1.034   5.335  0.4615  0.3629  0.3315
 7197SOL    HW228554   4.477   1.075   5.396  1.3805 -0.6410  0.0959
 7197SOL    HW328555   4.460   1.035   5.251 -0.0897  0.1661  0.0330
 7197SOL    MW428556   4.429   1.040   5.332  0.5100  0.2045  0.2611
 7198SOL     OW28557   4.615   6.199   4.921 -0.3442  0.5546  0.7863
 7198SOL    HW228558   4.599   6.104   4.920  0.1644  0.4563  1.5020
 7198SOL    HW328559   4.528   6.238   4.925 -0.5565  0.1245  0.4781
 7198SOL    MW428560   4.601   6.191   4.921 -0.3051  0.4849  0.8400
 7199SOL     OW28561   2.255   3.082   3.206 -0.1479  0.7344 -0.1275
 7199SOL    HW228562   2.233   3.171   3.178 -0.9191  0.6212  0.0966
 7199SOL    HW328563   2.203   3.025   3.149 -0.4812  0.4625  0.4397
 7199SOL    MW428564   2.245   3.086   3.195 -0.2936  0.6836 -0.0231
 7200SOL     OW28565   4.864   1.781   2.881 -0.3491  0.5319  0.5428
 7200SOL    HW228566   4.796   1.839   2.915 -0.1443  1.0951  0.0221
 7200SOL    HW328567   4.936   1.790   2.944 -1.5876 -1.9800  2.5121
 7200SOL    MW428568   4.865   1.790   2.894 -0.4855  0.2748  0.7340
 7201SOL     OW28569   5.663   4.762   3.480 -0.1194  0.1157 -0.1877
 7201SOL    HW228570   5.634   4.682   3.437 -1.0404  0.8632 -0.9843
 7201SOL    HW328571   5.609   4.767   3.559  0.2548 -0.2789  0.0955
 7201SOL    MW428572   5.652   4.752   3.485 -0.1915  0.1623 -0.2554
 7202SOL     OW28573   4.240   4.561   3.622 -0.1586  0.5882 -0.1122
 7202SOL    HW228574   4.275   4.475   3.645  0.7597  1.1818  0.8173
 7202SOL    HW328575   4.217   4.601   3.706  0.3892  1.6387 -0.4405
 7202SOL    MW428576   4.241   4.555   3.636  0.0348  0.8051 -0.0329
 7203SOL     OW28577   5.529   5.377   1.372  0.1923  0.6419 -0.1320
 7203SOL    HW228578   5.588   5.304   1.388  0.0917  0.3808 -0.9017
 7203SOL    HW328579   5.586   5.449   1.344  0.1561  0.4003 -0.8410
 7203SOL    MW428580   5.544   5.377   1.370  0.1742  0.5756 -0.3271
 7204SOL     OW28581   2.453   3.094   1.761  0.2258 -0.6425 -0.4440
 7204SOL    HW228582   2.472   3.106   1.668  1.4036  1.6274  0.0196
 7204SOL    HW328583   2.367   3.051   1.762 -0.9315  1.3366 -2.6280
 7204SOL    MW428584   2.444   3.090   1.749  0.2285 -0.0819 -0.6710
 7205SOL     OW28585   0.805   4.235   5.974 -0.3842 -0.3955 -0.1298
 7205SOL    HW228586   0.735   4.294   5.946 -0.2718  0.5005  1.4008
 7205SOL    HW328587   0.777   4.149   5.942 -0.5802  0.4247 -2.3462
 7205SOL    MW428588   0.792   4.231   5.966 -0.3952 -0.1690 -0.2203
 7206SOL     OW28589   3.681   4.486   3.211  0.1562  0.1828 -0.5555
 7206SOL    HW228590   3.704   4.396   3.233 -1.0167 -0.3972 -1.5764
 7206SOL    HW328591   3.604   4.506   3.265  2.5272  1.9587  2.5136
 7206SOL    MW428592   3.674   4.477   3.221  0.3142  0.3406 -0.2853
 7207SOL     OW28593   3.541   2.794   4.227  0.0781 -0.3870  0.1225
 7207SOL    HW228594   3.598   2.870   4.214  0.7981 -1.2672 -2.5576
 7207SOL    HW328595   3.456   2.832   4.250  0.8240  1.1265  0.5189
 7207SOL    MW428596   3.537   2.809   4.228  0.2715 -0.3034 -0.1788
 7208SOL     OW28597   1.721   6.337   2.418  0.9853  0.7157  0.6662
 7208SOL    HW228598   1.699   6.429   2.404  2.2935  1.0036  0.2912
 7208SOL    HW328599   1.729   6.328   2.513  3.2716  1.6554  0.6437
 7208SOL    MW428600   1.719   6.348   2.428  1.4595  0.8776  0.6138
 7209SOL     OW28601   3.514   3.580   4.174  0.0660 -0.0632  0.3224
 7209SOL    HW228602   3.527   3.661   4.223 -0.7220 -0.2060  0.7653
 7209SOL    HW328603   3.498   3.513   4.240 -1.4096 -0.1850 -0.1211
 7209SOL    MW428604   3.514   3.582   4.189 -0.2326 -0.0981  0.3223
 7210SOL     OW28605   5.384   2.801   2.475 -0.3798 -0.2968  0.0920
 7210SOL    HW228606   5.338   2.864   2.532 -1.7101  0.5746 -1.8451
 7210SOL    HW328607   5.314   2.756   2.428  0.6808 -0.5304 -1.3115
 7210SOL    MW428608   5.368   2.804   2.476 -0.4154 -0.2126 -0.3488
 7211SOL     OW28609   5.337   5.340   3.247  0.4116 -0.1519  0.3288
 7211SOL    HW228610   5.432   5.335   3.236  0.5170  2.3372 -0.4124
 7211SOL    HW328611   5.302   5.326   3.159  0.1035 -0.4636  0.4969
 7211SOL    MW428612   5.344   5.338   3.234  0.3849  0.1354  0.2532
 7212SOL     OW28613   0.441   4.618   1.696  0.1219 -0.5388 -0.1445
 7212SOL    HW228614   0.380   4.596   1.625  1.0448  0.5590 -1.3469
 7212SOL    HW328615   0.462   4.535   1.737 -1.1870 -1.0879 -0.5411
 7212SOL    MW428616   0.436   4.604   1.692  0.0710 -0.4664 -0.3555
 7213SOL     OW28617   1.056   5.540   0.130  0.0410 -0.5971  0.2593
 7213SOL    HW228618   1.098   5.511   0.049  1.0167  0.0689  0.5187
 7213SOL    HW328619   1.047   5.635   0.120 -1.7017 -0.7397  0.0815
 7213SOL    MW428620   1.060   5.548   0.118 -0.0602 -0.5281  0.2701
 7214SOL     OW28621   0.411   4.477   4.733 -0.2136  0.8068  0.1843
 7214SOL    HW228622   0.452   4.430   4.661  3.3832  1.7797  1.3638
 7214SOL    HW328623   0.424   4.569   4.712 -2.6678  1.2392  0.2827
 7214SOL    MW428624   0.418   4.483   4.721 -0.0629  0.9922  0.3529
 7215SOL     OW28625   2.594   2.868   1.367  0.4847 -0.2797  0.3643
 7215SOL    HW228626   2.502   2.863   1.394  0.3655 -0.2436 -0.0304
 7215SOL    HW328627   2.643   2.832   1.441  0.2220  0.5706  0.9513
 7215SOL    MW428628   2.588   2.862   1.380  0.4343 -0.1628  0.3897
 7216SOL     OW28629   4.105   0.406   4.277  0.3295  0.2436 -0.0835
 7216SOL    HW228630   4.080   0.499   4.279 -0.6624 -0.0110 -0.1191
 7216SOL    HW328631   4.114   0.386   4.184  1.0551  0.4281 -0.0583
 7216SOL    MW428632   4.102   0.416   4.265  0.2944  0.2343 -0.0848
 7217SOL     OW28633   2.689   5.209   3.600  0.5474  0.4329 -0.4872
 7217SOL    HW228634   2.768   5.209   3.654 -0.0940  2.4319  0.5527
 7217SOL    HW328635   2.650   5.122   3.614  2.6551 -0.7396 -1.3031
 7217SOL    MW428636   2.694   5.197   3.609  0.7409  0.5420 -0.4577
 7218SOL     OW28637   2.383   4.195   0.863  0.3933 -0.3184  0.0027
 7218SOL    HW228638   2.462   4.142   0.872  0.2530 -0.4697  0.4110
 7218SOL    HW328639   2.406   4.279   0.903  0.2252 -0.5004  0.4946
 7218SOL    MW428640   2.396   4.199   0.870  0.3526 -0.3624  0.1214
 7219SOL     OW28641   4.719   1.764   3.617  0.0880  0.4455 -0.3530
 7219SOL    HW228642   4.733   1.775   3.711 -0.1228  0.9221 -0.3740
 7219SOL    HW328643   4.745   1.848   3.579  0.6446  0.0817 -0.7734
 7219SOL    MW428644   4.724   1.776   3.624  0.1336  0.4604 -0.4113
 7220SOL     OW28645   0.082   4.413   1.614 -0.0610  0.1920 -0.5893
 7220SOL    HW228646   0.019   4.418   1.686  0.5847 -1.8417  0.1796
 7220SOL    HW328647   0.036   4.365   1.545  0.2872 -0.3932 -0.4188
 7220SOL    MW428648   0.067   4.408   1.614  0.0701 -0.1535 -0.4654
 7221SOL     OW28649   6.276   3.034   1.490  0.2074 -0.1896 -0.2621
 7221SOL    HW228650   6.309   3.091   1.421  1.6189  1.1598  1.4183
 7221SOL    HW328651   6.192   3.002   1.458  0.4299  1.0556 -2.2085
 7221SOL    MW428652   6.269   3.037   1.477  0.4230  0.1527 -0.2972
 7222SOL     OW28653   3.899   5.021   2.397 -0.4180  0.2115  0.3065
 7222SOL    HW228654   3.807   4.999   2.408  0.0773 -2.0533  0.4845
 7222SOL    HW328655   3.934   5.023   2.485 -0.2865  1.0484  0.2377
 7222SOL    MW428656   3.892   5.018   2.410 -0.3353  0.0231  0.3209
 7223SOL     OW28657   2.380   6.395   5.614 -0.0271  0.2690 -0.3803
 7223SOL    HW228658   2.437   6.431   5.682 -0.9357 -1.7168  1.5718
 7223SOL    HW328659   2.427   6.319   5.581 -1.0214 -0.7399  0.4648
 7223SOL    MW428660   2.393   6.390   5.619 -0.2782 -0.1261 -0.0112
 7224SOL     OW28661   4.103   0.149   2.567 -0.0980 -0.0826 -0.2194
 7224SOL    HW228662   4.149   0.134   2.650  1.9549  1.3104 -1.0009
 7224SOL    HW328663   4.171   0.138   2.501 -0.8390  2.2106 -1.4540
 7224SOL    MW428664   4.118   0.146   2.570  0.0751  0.4037 -0.4854
 7225SOL     OW28665   2.253   4.878   3.795  0.7429 -0.0821 -0.1006
 7225SOL    HW228666   2.244   4.969   3.767 -0.8075 -0.1923 -0.0223
 7225SOL    HW328667   2.208   4.874   3.879  1.2612 -0.8177  0.1541
 7225SOL    MW428668   2.246   4.889   3.802  0.6067 -0.1937 -0.0567
 7226SOL     OW28669   6.381   4.250   4.762  0.8043 -0.1781 -0.7318
 7226SOL    HW228670   6.454   4.308   4.739  0.3017  2.1453  2.7649
 7226SOL    HW328671   6.303   4.301   4.743  0.3531  0.7681  2.9496
 7226SOL    MW428672   6.380   4.264   4.757  0.6785  0.2533  0.2153
 7227SOL     OW28673   4.364   6.249   2.280  0.0186 -0.1430 -0.1164
 7227SOL    HW228674   4.444   6.229   2.231  0.3334 -0.8155  0.6518
 7227SOL    HW328675   4.380   6.214   2.367 -0.0590  2.0170  0.8375
 7227SOL    MW428676   4.377   6.242   2.285  0.0499  0.0532  0.1108
 7228SOL     OW28677   3.930   4.287   3.622  0.3911  0.3612  0.0618
 7228SOL    HW228678   3.950   4.357   3.560 -0.8284 -0.4846 -1.3236
 7228SOL    HW328679   3.968   4.209   3.583  0.6038 -0.0060  0.9656
 7228SOL    MW428680   3.938   4.286   3.609  0.2583  0.2012 -0.0017
 7229SOL     OW28681   4.231   2.818   6.002  0.3762  0.1512 -0.4894
 7229SOL    HW228682   4.150   2.870   6.010  0.6663  0.3576  1.8046
 7229SOL    HW328683   4.292   2.860   6.062  0.4616 -3.1009  1.9503
 7229SOL    MW428684   4.228   2.831   6.011  0.4257 -0.2506  0.1352
 7230SOL     OW28685   3.193   5.121   5.466  0.2515  0.5255  0.3235
 7230SOL    HW228686   3.152   5.058   5.406 -0.4849  0.9609  0.3582
 7230SOL    HW328687   3.210   5.071   5.546  0.9240  0.0284 -0.1176
 7230SOL    MW428688   3.190   5.106   5.469  0.2431  0.5174  0.2699
 7231SOL     OW28689   0.379   2.703   5.801 -0.2956 -0.4673  0.1419
 7231SOL    HW228690   0.406   2.759   5.873  3.1703 -3.6922  1.7531
 7231SOL    HW328691   0.284   2.697   5.808 -0.3037  1.3554  2.8278
 7231SOL    MW428692   0.370   2.709   5.811  0.1606 -0.6523  0.7089
 7232SOL     OW28693   4.750   3.508   4.029 -0.4388 -0.0671  0.0672
 7232SOL    HW228694   4.829   3.490   4.081 -0.2212  1.8111  0.4756
 7232SOL    HW328695   4.694   3.558   4.088 -1.6763 -0.8007 -0.4428
 7232SOL    MW428696   4.753   3.512   4.044 -0.5734  0.0839  0.0538
 7233SOL     OW28697   0.375   2.115   1.491 -0.1262  0.1456 -1.0795
 7233SOL    HW228698   0.431   2.083   1.419  1.1769  0.5477 -0.2714
 7233SOL    HW328699   0.426   2.098   1.570 -1.1240  0.6183 -0.3189
 7233SOL    MW428700   0.389   2.108   1.492 -0.0859  0.2610 -0.8725
 7234SOL     OW28701   1.555   5.817   2.953  0.2745 -0.5216  0.5820
 7234SOL    HW228702   1.551   5.876   3.029  1.1983 -0.3171  0.4876
 7234SOL    HW328703   1.523   5.733   2.986  0.1263 -0.2888  1.0497
 7234SOL    MW428704   1.550   5.814   2.968  0.3768 -0.4639  0.6312
 7235SOL     OW28705   1.762   1.126   4.198  0.2494  0.0611 -0.1413
 7235SOL    HW228706   1.825   1.083   4.255  1.2852  2.5363  0.6876
 7235SOL    HW328707   1.678   1.087   4.222  0.9907 -0.7625  1.2456
 7235SOL    MW428708   1.759   1.115   4.209  0.4839  0.2790  0.1511
 7236SOL     OW28709   1.544   2.807   0.996  0.5682  0.3098  0.4047
 7236SOL    HW228710   1.594   2.815   1.077  0.2493 -0.4722  0.6851
 7236SOL    HW328711   1.453   2.809   1.023  0.4546 -1.1288  0.2122
 7236SOL    MW428712   1.539   2.808   1.010  0.5111  0.0168  0.4163
 7237SOL     OW28713   1.823   6.393   0.435 -0.0028 -1.0517 -0.1930
 7237SOL    HW228714   1.906   6.408   0.479 -0.4824 -0.4929  0.5584
 7237SOL    HW328715   1.822   6.299   0.416 -0.5531 -1.7454  2.7255
 7237SOL    MW428716   1.834   6.383   0.438 -0.1387 -1.0695  0.2912
 7238SOL     OW28717   2.434   0.201   4.445 -0.1161 -0.4911 -0.0926
 7238SOL    HW228718   2.413   0.118   4.488 -2.0262 -0.7482 -1.4315
 7238SOL    HW328719   2.509   0.181   4.389  0.7322 -0.7714  1.0983
 7238SOL    MW428720   2.441   0.188   4.443 -0.2562 -0.5620 -0.1121
 7239SOL     OW28721   4.329   0.330   2.233  0.3967 -0.4620 -0.5754
 7239SOL    HW228722   4.404   0.327   2.173 -0.1008  0.1134 -1.2433
 7239SOL    HW328723   4.290   0.243   2.229  0.4690 -0.4755 -0.9547
 7239SOL    MW428724   4.334   0.318   2.225  0.3406 -0.3878 -0.7136
 7240SOL     OW28725   2.281   3.333   2.609  0.2588  0.2420  0.0598
 7240SOL    HW228726   2.340   3.287   2.669  0.2785  0.2318  0.0323
 7240SOL    HW328727   2.302   3.426   2.622 -0.3791  0.2958  0.7451
 7240SOL    MW428728   2.292   3.339   2.618  0.1773  0.2478  0.1466
 7241SOL     OW28729   3.670   1.593   0.171 -0.6382 -0.2203  0.1980
 7241SOL    HW228730   3.616   1.562   0.243 -2.5871  0.8496 -0.7482
 7241SOL    HW328731   3.646   1.537   0.097 -3.5209  2.6870 -1.2864
 7241SOL    MW428732   3.660   1.581   0.171 -1.2757  0.3044 -0.1227
 7242SOL     OW28733   6.208   2.849   0.910 -0.1462  0.3029 -0.0511
 7242SOL    HW228734   6.221   2.775   0.851 -0.0447  1.2440 -1.2260
 7242SOL    HW328735   6.136   2.899   0.871  0.2803  1.2229  0.3306
 7242SOL    MW428736   6.200   2.846   0.897 -0.0765  0.5484 -0.1558
 7243SOL     OW28737   0.983   1.036   4.179  0.0354  0.1437  0.1988
 7243SOL    HW228738   1.062   1.022   4.231 -0.3649  0.3098  0.8739
 7243SOL    HW328739   0.943   0.949   4.173 -0.6369  0.3416  1.3876
 7243SOL    MW428740   0.988   1.022   4.185 -0.1061  0.1917  0.4447
 7244SOL     OW28741   3.368   5.706   0.868  0.3044  0.0805 -0.2138
 7244SOL    HW228742   3.413   5.621   0.868 -0.4719 -0.3385 -0.0629
 7244SOL    HW328743   3.410   5.754   0.797  0.3353 -0.6564 -0.7130
 7244SOL    MW428744   3.380   5.701   0.859  0.2061 -0.0720 -0.2598
 7245SOL     OW28745   3.035   0.155   2.852 -0.4249 -0.7188 -0.1557
 7245SOL    HW228746   3.070   0.199   2.929 -1.6090 -0.1186  0.0752
 7245SOL    HW328747   3.093   0.180   2.781 -1.0429  1.2455 -0.0270
 7245SOL    MW428748   3.047   0.164   2.853 -0.6627 -0.3805 -0.1083
 7246SOL     OW28749   1.474   3.802   1.526  0.2130  0.3034  0.3292
 7246SOL    HW228750   1.559   3.812   1.568 -0.2176  0.1134  1.2909
 7246SOL    HW328751   1.460   3.884   1.479  0.8489  0.4013  0.3078
 7246SOL    MW428752   1.483   3.814   1.525  0.2401  0.2912  0.4533
 7247SOL     OW28753   2.311   2.992   0.616  0.0230  0.0897 -0.7266
 7247SOL    HW228754   2.260   2.986   0.697  1.9121 -2.1871  0.4151
 7247SOL    HW328755   2.249   2.971   0.547 -1.4555  1.2824  0.1661
 7247SOL    MW428756   2.296   2.989   0.618  0.0772 -0.0533 -0.4582
 7248SOL     OW28757   3.536   0.971   4.765 -0.3273 -0.6942  0.3716
 7248SOL    HW228758   3.615   0.938   4.808  0.1496 -0.0882 -0.0161
 7248SOL    HW328759   3.551   0.956   4.672 -0.3601  0.0460  0.2346
 7248SOL    MW428760   3.548   0.965   4.758 -0.2687 -0.5166  0.3024
 7249SOL     OW28761   1.202   1.928   3.917 -0.3125 -0.0659 -0.2063
 7249SOL    HW228762   1.247   1.854   3.875 -0.0930  0.2318 -0.5080
 7249SOL    HW328763   1.139   1.888   3.976 -0.9585 -0.5058 -1.1682
 7249SOL    MW428764   1.200   1.913   3.919 -0.3687 -0.0847 -0.3730
 7250SOL     OW28765   1.258   0.431   1.200  0.1847 -0.2839  0.1608
 7250SOL    HW228766   1.350   0.413   1.183 -0.2603 -2.3142 -0.3511
 7250SOL    HW328767   1.251   0.430   1.295  0.8037  0.6534  0.2323
 7250SOL    MW428768   1.269   0.428   1.210  0.2077 -0.4281  0.1027
 7251SOL     OW28769   4.154   2.220   0.323  0.0309 -0.3334 -0.3482
 7251SOL    HW228770   4.114   2.254   0.243  1.3296  1.6137 -0.2278
 7251SOL    HW328771   4.104   2.260   0.394 -0.8382 -1.7162 -0.1420
 7251SOL    MW428772   4.142   2.230   0.322  0.0876 -0.2589 -0.3051
 7252SOL     OW28773   4.534   1.151   2.169 -0.0091 -0.0764  0.4467
 7252SOL    HW228774   4.596   1.222   2.152  0.9076 -0.4642  1.9821
 7252SOL    HW328775   4.514   1.159   2.262  1.5961 -2.9026  1.1550
 7252SOL    MW428776   4.540   1.161   2.179  0.3237 -0.5004  0.7427
 7253SOL     OW28777   4.307   5.019   5.042 -0.1680 -0.0938 -0.3671
 7253SOL    HW228778   4.300   5.112   5.019  1.2334  0.1328  0.0656
 7253SOL    HW328779   4.310   5.018   5.137  0.1936 -0.5610 -0.3838
 7253SOL    MW428780   4.306   5.031   5.051  0.0646 -0.1255 -0.3122
 7254SOL     OW28781   6.010   0.152   5.756  0.6244 -0.1242  0.7164
 7254SOL    HW228782   6.017   0.057   5.745  0.7315 -0.0667  0.2996
 7254SOL    HW328783   5.979   0.184   5.672 -0.1766  0.1282  1.0955
 7254SOL    MW428784   6.007   0.144   5.744  0.5328 -0.0833  0.7114
 7255SOL     OW28785   4.645   2.776   0.568 -0.3003  0.4190 -0.1307
 7255SOL    HW228786   4.659   2.693   0.522  0.8600 -0.0749  1.0217
 7255SOL    HW328787   4.694   2.766   0.650 -0.3323  2.1604  0.1440
 7255SOL    MW428788   4.653   2.764   0.573 -0.1515  0.5836  0.0576
 7256SOL     OW28789   1.937   3.396   4.129 -0.7844  0.0280 -0.1200
 7256SOL    HW228790   1.996   3.388   4.204 -2.9873 -2.2619  1.5708
 7256SOL    HW328791   1.873   3.461   4.156 -0.7362  0.3033 -0.6669
 7256SOL    MW428792   1.936   3.403   4.143 -1.0687 -0.2378  0.0309
 7257SOL     OW28793   0.637   1.226   6.228  0.1200 -0.7550 -0.0317
 7257SOL    HW228794   0.717   1.209   6.179  0.2562  0.0039 -0.0748
 7257SOL    HW328795   0.667   1.258   6.313 -0.1322 -0.6703  0.0268
 7257SOL    MW428796   0.651   1.228   6.233  0.1047 -0.6437 -0.0296
 7258SOL     OW28797   0.779   4.318   3.016  0.3819  0.2935 -0.5935
 7258SOL    HW228798   0.811   4.236   3.054 -0.1818 -0.1179 -0.9842
 7258SOL    HW328799   0.701   4.340   3.068 -0.0829  0.0114 -1.1538
 7258SOL    MW428800   0.773   4.310   3.028  0.2462  0.2020 -0.7190
 7259SOL     OW28801   0.092   4.741   4.644  0.1711 -0.0950 -0.1149
 7259SOL    HW228802  -0.002   4.761   4.648 -0.3131 -1.5411 -2.4227
 7259SOL    HW328803   0.133   4.826   4.628 -1.1950  0.1384 -3.0305
 7259SOL    MW428804   0.085   4.755   4.642 -0.0730 -0.2550 -0.8041
 7260SOL     OW28805   0.365   3.336   2.688 -0.0227  0.0298  0.0453
 7260SOL    HW228806   0.395   3.251   2.656  1.6374  0.3167  0.7225
 7260SOL    HW328807   0.421   3.399   2.643 -0.5495  0.6917  0.3178
 7260SOL    MW428808   0.377   3.333   2.678  0.1268  0.1550  0.1706
 7261SOL     OW28809   5.878   5.891   0.458  0.4105  0.1020 -0.1317
 7261SOL    HW228810   5.902   5.799   0.463 -0.6499 -0.1720  0.4081
 7261SOL    HW328811   5.959   5.937   0.438  1.4806 -0.6973  2.0167
 7261SOL    MW428812   5.892   5.885   0.456  0.4118 -0.0396  0.2230
 7262SOL     OW28813   4.060   3.897   4.092 -0.2460 -0.5320  0.5883
 7262SOL    HW228814   3.971   3.860   4.090  0.0570 -1.2537  0.0984
 7262SOL    HW328815   4.118   3.821   4.086  0.4217 -0.0982  1.3411
 7262SOL    MW428816   4.056   3.882   4.091 -0.1179 -0.5700  0.6230
 7263SOL     OW28817   5.898   0.520   0.312 -0.1593  0.0346  0.9302
 7263SOL    HW228818   5.805   0.511   0.289 -0.2303  1.3339  0.6495
 7263SOL    HW328819   5.925   0.603   0.272  1.1254 -0.3135  1.0317
 7263SOL    MW428820   5.889   0.530   0.304  0.0009  0.1601  0.9066
 7264SOL     OW28821   5.940   5.372   0.357 -0.0443  0.0068 -0.3639
 7264SOL    HW228822   5.961   5.447   0.413 -3.1577 -0.6166  1.9546
 7264SOL    HW328823   5.867   5.402   0.303  1.7278 -0.0030 -2.9459
 7264SOL    MW428824   5.933   5.386   0.357 -0.2212 -0.0767 -0.3986
 7265SOL     OW28825   0.697   4.983   3.407  0.0522  0.5293  0.3207
 7265SOL    HW228826   0.678   5.066   3.363  0.3468  0.4901  0.1185
 7265SOL    HW328827   0.786   4.994   3.442  1.1307 -0.6085 -1.8827
 7265SOL    MW428828   0.706   4.996   3.406  0.2334  0.3740  0.0033
 7266SOL     OW28829   2.912   3.938   4.270  0.1916  0.1608 -0.0560
 7266SOL    HW228830   2.845   3.894   4.322  1.4966 -0.8566  0.8272
 7266SOL    HW328831   2.978   3.870   4.254  1.8345  1.5493  0.5783
 7266SOL    MW428832   2.912   3.923   4.275  0.5805  0.2098  0.1442
 7267SOL     OW28833   2.517   3.896   0.329 -0.5526 -0.3078  0.1531
 7267SOL    HW228834   2.557   3.901   0.242 -0.4443  1.3011  0.2803
 7267SOL    HW328835   2.472   3.979   0.341 -0.8881 -0.6469  1.4987
 7267SOL    MW428836   2.516   3.907   0.319 -0.5826 -0.1403  0.3475
 7268SOL     OW28837   3.632   0.319   5.941 -0.3041  0.0189 -0.5069
 7268SOL    HW228838   3.610   0.226   5.931  0.9410 -0.0829 -3.0313
 7268SOL    HW328839   3.714   0.319   5.989  1.5753 -0.5137 -3.4701
 7268SOL    MW428840   3.640   0.307   5.946  0.1082 -0.0648 -1.2309
 7269SOL     OW28841   1.017   5.851   3.027 -0.4497  0.0796 -0.1389
 7269SOL    HW228842   1.024   5.760   2.997  0.8388  0.3367 -0.6847
 7269SOL    HW328843   0.933   5.881   2.993  0.9992  0.4543 -3.8912
 7269SOL    MW428844   1.007   5.843   3.019 -0.0886  0.1630 -0.7060
 7270SOL     OW28845   3.634   2.878   3.239 -0.0077  0.2853  0.5351
 7270SOL    HW228846   3.645   2.812   3.307 -0.0284  0.0389  0.3042
 7270SOL    HW328847   3.701   2.944   3.258  0.4088 -0.1005  0.4246
 7270SOL    MW428848   3.645   2.878   3.250  0.0445  0.2019  0.4901
 7271SOL     OW28849   2.587   0.460   2.546 -0.4484 -0.2090  0.0947
 7271SOL    HW228850   2.630   0.493   2.467  0.6241 -0.6866  0.4679
 7271SOL    HW328851   2.605   0.526   2.612  0.2756 -0.7098  0.4130
 7271SOL    MW428852   2.595   0.473   2.544 -0.2114 -0.3381  0.1859
 7272SOL     OW28853   5.077   2.969   5.066  0.2094 -0.1242  0.3387
 7272SOL    HW228854   5.039   2.881   5.072 -0.9631  0.4241  1.1537
 7272SOL    HW328855   5.056   3.010   5.150  1.2513  0.7494  0.1949
 7272SOL    MW428856   5.069   2.963   5.078  0.1922  0.0634  0.4273
 7273SOL     OW28857   3.840   1.771   5.204  0.2621 -0.4937 -0.3396
 7273SOL    HW228858   3.900   1.844   5.217 -0.6796  0.2982 -0.4009
 7273SOL    HW328859   3.873   1.703   5.264  0.8848  0.1209  0.0341
 7273SOL    MW428860   3.852   1.771   5.214  0.2200 -0.3082 -0.2983
 7274SOL     OW28861   1.700   2.654   3.277 -0.2280  0.0306  0.0514
 7274SOL    HW228862   1.737   2.634   3.363  0.7667 -0.6549 -0.5135
 7274SOL    HW328863   1.615   2.693   3.296 -0.1215 -0.3125  1.3394
 7274SOL    MW428864   1.694   2.656   3.290 -0.0827 -0.1051  0.1468
 7275SOL     OW28865   3.225   2.299   2.814  0.0709 -0.3602 -0.5973
 7275SOL    HW228866   3.151   2.254   2.773 -1.9699 -0.4157  2.8071
 7275SOL    HW328867   3.286   2.230   2.837 -0.6401 -0.8048 -0.0070
 7275SOL    MW428868   3.223   2.284   2.812 -0.2921 -0.4262 -0.0702
 7276SOL     OW28869   4.240   4.802   1.511 -0.2643 -0.4398  0.0099
 7276SOL    HW228870   4.299   4.877   1.515 -0.2216 -0.3408 -1.8728
 7276SOL    HW328871   4.152   4.840   1.516 -0.2679 -0.1601 -1.7903
 7276SOL    MW428872   4.236   4.817   1.512 -0.2591 -0.3899 -0.4760
 7277SOL     OW28873   0.892   3.830   5.987  0.0417 -0.1636 -0.1157
 7277SOL    HW228874   0.797   3.822   5.983 -0.3822  3.1236  0.1518
 7277SOL    HW328875   0.923   3.805   5.900 -1.1544 -0.6137 -0.4179
 7277SOL    MW428876   0.884   3.826   5.975 -0.1720  0.2107 -0.1203
 7278SOL     OW28877   2.046   3.168   5.259 -1.0840 -0.3638 -0.2184
 7278SOL    HW228878   2.061   3.116   5.338  0.0650  0.4361  0.1205
 7278SOL    HW328879   2.086   3.118   5.189 -0.0490  0.0046  0.0947
 7278SOL    MW428880   2.053   3.155   5.261 -0.7958 -0.2097 -0.1324
 7279SOL     OW28881   3.224   4.535   3.629 -0.1875  0.1781 -1.0523
 7279SOL    HW228882   3.143   4.492   3.600 -0.3018  0.0115 -0.4957
 7279SOL    HW328883   3.266   4.471   3.687 -1.4543  1.6077  1.6061
 7279SOL    MW428884   3.219   4.521   3.633 -0.3697  0.3447 -0.6281
 7280SOL     OW28885   5.513   6.194   6.141 -0.3083  0.3510  0.2261
 7280SOL    HW228886   5.446   6.201   6.073 -0.4855 -0.1306  0.3545
 7280SOL    HW328887   5.594   6.177   6.093 -0.3366  0.5597  0.0999
 7280SOL    MW428888   5.515   6.193   6.126 -0.3354  0.3150  0.2264
 7281SOL     OW28889   1.904   1.084   0.478 -0.0420  0.2752 -0.2855
 7281SOL    HW228890   1.953   1.067   0.398  1.3808  0.2679  0.5562
 7281SOL    HW328891   1.966   1.065   0.548 -1.1320  0.6836  0.8183
 7281SOL    MW428892   1.918   1.079   0.477  0.0019  0.3282 -0.0288
 7282SOL     OW28893   2.962   5.445   6.361  0.0851 -0.0410 -0.3132
 7282SOL    HW228894   2.883   5.498   6.375  0.1895  0.4326 -1.4180
 7282SOL    HW328895   3.030   5.510   6.340  0.5404 -0.5164 -0.3175
 7282SOL    MW428896   2.961   5.461   6.360  0.1589 -0.0412 -0.4595
 7283SOL     OW28897   0.239   3.598   4.408  0.0057 -0.1499 -0.4600
 7283SOL    HW228898   0.264   3.611   4.317  1.7881  1.2812  0.1432
 7283SOL    HW328899   0.217   3.686   4.440 -0.6931 -0.6360  0.4609
 7283SOL    MW428900   0.240   3.612   4.400  0.1487 -0.0252 -0.2589
 7284SOL     OW28901   2.677   4.138   2.428  0.2506  0.2844  0.1653
 7284SOL    HW228902   2.753   4.177   2.385 -0.7389  0.6463 -1.3178
 7284SOL    HW328903   2.621   4.109   2.357 -0.1932 -1.6601  1.2323
 7284SOL    MW428904   2.680   4.139   2.413  0.0615  0.0756  0.1104
 7285SOL     OW28905   5.626   5.417   5.167 -0.5213  0.0294 -0.4951
 7285SOL    HW228906   5.572   5.389   5.241  0.8647 -1.3318  0.0688
 7285SOL    HW328907   5.573   5.396   5.090 -2.5197  2.6059  0.0219
 7285SOL    MW428908   5.612   5.410   5.167 -0.6021  0.1898 -0.3525
 7286SOL     OW28909   5.987   4.982   0.990 -0.2588 -0.1253  0.1751
 7286SOL    HW228910   5.909   5.033   0.968 -1.5334 -2.3867 -0.9431
 7286SOL    HW328911   6.052   5.009   0.924 -0.6534  0.5540  0.0492
 7286SOL    MW428912   5.985   4.992   0.978 -0.4791 -0.3341  0.0110
 7287SOL     OW28913   0.568   5.065   3.782 -0.4452 -0.5361  0.1162
 7287SOL    HW228914   0.486   5.020   3.807 -0.4714 -0.6633 -0.1942
 7287SOL    HW328915   0.549   5.102   3.696 -0.1308 -0.6792 -0.0140
 7287SOL    MW428916   0.555   5.064   3.774 -0.4072 -0.5718  0.0581
 7288SOL     OW28917   2.840   0.077   3.305 -0.1764  0.0715 -0.7104
 7288SOL    HW228918   2.926   0.034   3.310 -1.0428 -1.7546 -0.6788
 7288SOL    HW328919   2.798   0.036   3.229 -0.8029  1.4051 -1.1080
 7288SOL    MW428920   2.846   0.066   3.296 -0.3733  0.0065 -0.7587
 7289SOL     OW28921   3.541   2.361   3.429 -0.1965  0.4946 -0.0817
 7289SOL    HW228922   3.478   2.290   3.427 -0.0557  0.3896 -1.3445
 7289SOL    HW328923   3.616   2.325   3.476 -1.2922  0.8454  2.0627
 7289SOL    MW428924   3.543   2.347   3.435 -0.3225  0.5271  0.0346
 7290SOL     OW28925   0.649   4.605   6.132 -0.8726 -0.1511 -0.2581
 7290SOL    HW228926   0.591   4.680   6.120 -1.1107 -0.2738  0.1110
 7290SOL    HW328927   0.707   4.607   6.056 -1.4333 -0.0964 -0.6926
 7290SOL    MW428928   0.649   4.615   6.121 -0.9780 -0.1601 -0.2667
 7291SOL     OW28929   5.633   0.159   0.284 -0.0894  0.1863 -0.2804
 7291SOL    HW228930   5.719   0.118   0.289  0.1370  0.5634 -0.9343
 7291SOL    HW328931   5.586   0.110   0.216 -0.0118  0.6390 -0.6719
 7291SOL    MW428932   5.638   0.147   0.275 -0.0493  0.2958 -0.4183
 7292SOL     OW28933   5.757   3.385   1.865  0.1114 -0.6966 -0.3343
 7292SOL    HW228934   5.795   3.377   1.952 -0.9893  0.2876  0.2573
 7292SOL    HW328935   5.832   3.397   1.807  0.7384  1.2910  0.8097
 7292SOL    MW428936   5.772   3.385   1.869  0.0489 -0.3045 -0.1053
 7293SOL     OW28937   2.859   0.602   5.893 -0.2199  0.0963 -0.2224
 7293SOL    HW228938   2.827   0.606   5.803  0.1443  0.6977 -0.3299
 7293SOL    HW328939   2.936   0.545   5.889 -0.4448 -0.2094 -0.2158
 7293SOL    MW428940   2.865   0.595   5.881 -0.2015  0.1353 -0.2357
 7294SOL     OW28941   0.637   4.057   4.746 -0.1372  0.2766 -0.1756
 7294SOL    HW228942   0.564   4.111   4.777 -2.4451 -1.0342 -2.8011
 7294SOL    HW328943   0.669   4.102   4.668  1.1481  0.2481  0.3146
 7294SOL    MW428944   0.631   4.070   4.740 -0.2722  0.0999 -0.4573
 7295SOL     OW28945   5.883   1.432   6.352  0.0166 -0.1053  0.3543
 7295SOL    HW228946   5.901   1.412   6.444 -0.5828 -0.4357  0.4047
 7295SOL    HW328947   5.874   1.346   6.310 -2.1482  0.0016  0.4857
 7295SOL    MW428948   5.884   1.418   6.359 -0.3481 -0.1348  0.3783
 7296SOL     OW28949   4.083   6.221   3.486  0.6086 -0.1242  0.5216
 7296SOL    HW228950   4.022   6.273   3.538  0.3611  0.8689 -0.7048
 7296SOL    HW328951   4.028   6.168   3.429  0.8729 -1.3424  1.3496
 7296SOL    MW428952   4.068   6.221   3.485  0.6108 -0.1539  0.4690
 7297SOL     OW28953   5.622   1.298   4.043 -0.1733 -0.5044 -0.6185
 7297SOL    HW228954   5.532   1.331   4.042  0.2101  0.6228 -2.1579
 7297SOL    HW328955   5.661   1.338   4.121 -0.8672 -0.6571 -0.1797
 7297SOL    MW428956   5.615   1.308   4.053 -0.2143 -0.3758 -0.7637
 7298SOL     OW28957   2.758   4.069   1.909  0.0113 -0.2018 -0.2144
 7298SOL    HW228958   2.800   4.052   1.993  0.5409 -2.2234 -0.8357
 7298SOL    HW328959   2.680   4.121   1.930  0.5360 -0.0503  1.4252
 7298SOL    MW428960   2.753   4.074   1.923  0.1504 -0.4485 -0.0800
 7299SOL     OW28961   1.310   1.342   5.468  0.4363 -0.7316 -0.3030
 7299SOL    HW228962   1.332   1.312   5.557  0.2936 -0.1758 -0.0797
 7299SOL    HW328963   1.221   1.310   5.454 -0.7136  1.6618  0.9054
 7299SOL    MW428964   1.301   1.333   5.478  0.2657 -0.3425 -0.1141
 7300SOL     OW28965   5.487   5.545   5.854 -0.3666  0.5059  0.5044
 7300SOL    HW228966   5.419   5.573   5.916 -0.7460 -0.1760  0.4118
 7300SOL    HW328967   5.469   5.595   5.774 -3.2563 -2.3947 -0.9030
 7300SOL    MW428968   5.476   5.556   5.852 -0.7979  0.0332  0.3065
 7301SOL     OW28969   3.947   3.584   0.316 -0.1782  0.0749 -0.3230
 7301SOL    HW228970   3.860   3.612   0.348  0.3483  1.7948 -0.2869
 7301SOL    HW328971   3.996   3.666   0.306  2.0750 -0.9501  1.4436
 7301SOL    MW428972   3.942   3.598   0.319  0.1886  0.1666 -0.0851
 7302SOL     OW28973   4.937   4.794   1.496  0.5194 -0.2228 -0.7822
 7302SOL    HW228974   4.935   4.721   1.557  0.8357  1.0250  0.8134
 7302SOL    HW328975   5.028   4.798   1.466  0.7472  0.0704 -0.0994
 7302SOL    MW428976   4.949   4.785   1.500  0.5912 -0.0195 -0.4816
 7303SOL     OW28977   2.347   2.931   4.499  0.1427  0.1144 -0.3345
 7303SOL    HW228978   2.415   2.944   4.565  1.0633  2.2214 -1.5927
 7303SOL    HW328979   2.265   2.934   4.549  0.8498  0.4423  0.8665
 7303SOL    MW428980   2.345   2.933   4.515  0.3575  0.4357 -0.3420
 7304SOL     OW28981   3.578   3.482   3.864  0.3266  0.3073 -0.3270
 7304SOL    HW228982   3.607   3.563   3.820  1.0259  0.4319  0.3331
 7304SOL    HW328983   3.611   3.491   3.954  0.3816 -0.7013 -0.2376
 7304SOL    MW428984   3.586   3.494   3.870  0.4262  0.1907 -0.2281
 7305SOL     OW28985   5.419   6.123   4.691 -0.4627 -0.1088  0.2970
 7305SOL    HW228986   5.355   6.181   4.732 -0.8575  0.7758 -1.4947
 7305SOL    HW328987   5.504   6.161   4.713 -0.7305  1.6276 -1.4428
 7305SOL    MW428988   5.421   6.136   4.699 -0.5501  0.2370 -0.1689
 7306SOL     OW28989   1.868   4.940   0.444  0.6720 -0.1538 -0.4235
 7306SOL    HW228990   1.871   4.927   0.539  0.4973 -2.8287 -0.6815
 7306SOL    HW328991   1.784   4.984   0.428  1.0131  0.9411  0.6784
 7306SOL    MW428992   1.857   4.944   0.454  0.6939 -0.3623 -0.3122
 7307SOL     OW28993   0.768   5.549   1.380  0.2459 -0.0531  0.4311
 7307SOL    HW228994   0.676   5.529   1.365  0.6558 -0.8326 -1.2729
 7307SOL    HW328995   0.815   5.472   1.348  1.5538  0.8756  0.0579
 7307SOL    MW428996   0.762   5.536   1.374  0.4725 -0.0334  0.1570
 7308SOL     OW28997   3.463   1.161   3.217  0.7975  0.1031  0.3817
 7308SOL    HW228998   3.448   1.079   3.265 -1.1888  0.0772 -0.1777
 7308SOL    HW328999   3.553   1.185   3.237  1.3508 -2.1081  0.7185
 7308SOL    MW429000   3.473   1.154   3.226  0.6084 -0.1920  0.3523
 7309SOL     OW29001   6.274   0.388   1.331 -0.3330 -0.1079  0.4890
 7309SOL    HW229002   6.292   0.414   1.422 -0.2282 -0.5663  0.5995
 7309SOL    HW329003   6.294   0.466   1.280  0.0240  0.0182  0.8163
 7309SOL    MW429004   6.279   0.402   1.336 -0.2721 -0.1517  0.5468
 7310SOL     OW29005   0.219   2.779   6.253 -0.0637 -0.6273  0.3030
 7310SOL    HW229006   0.176   2.716   6.193  0.5260 -0.1172 -0.6823
 7310SOL    HW329007   0.153   2.848   6.266 -0.3411 -0.9376  0.5761
 7310SOL    MW429008   0.204   2.780   6.247 -0.0225 -0.6009  0.2090
 7311SOL     OW29009   6.165   5.004   5.289  0.1022  0.1088 -0.6396
 7311SOL    HW229010   6.209   4.922   5.266 -0.0601  0.2379 -1.4646
 7311SOL    HW329011   6.232   5.071   5.277  0.5435  0.0071  1.0623
 7311SOL    MW429012   6.179   5.002   5.284  0.1390  0.1124 -0.5239
 7312SOL     OW29013   4.812   4.025   3.515  0.3415 -0.4227  0.0041
 7312SOL    HW229014   4.746   3.987   3.573  0.9061 -1.2908  0.1173
 7312SOL    HW329015   4.768   4.096   3.469 -1.0768 -1.8584 -0.9521
 7312SOL    MW429016   4.798   4.029   3.517  0.2289 -0.7267 -0.1071
 7313SOL     OW29017   1.984   3.346   2.145  0.2830  0.1866 -0.2974
 7313SOL    HW229018   1.915   3.280   2.138  0.6107 -0.1203 -0.7085
 7313SOL    HW329019   2.021   3.333   2.232 -2.2774  2.4826  1.3045
 7313SOL    MW429020   1.980   3.336   2.155 -0.0116  0.4490 -0.1403
 7314SOL     OW29021   0.026   4.047   4.412  0.5202 -0.2148 -0.0953
 7314SOL    HW229022   0.027   4.141   4.396 -1.3773 -0.1009  0.2039
 7314SOL    HW329023   0.003   4.008   4.328 -3.6612 -0.0023  0.7560
 7314SOL    MW429024   0.023   4.054   4.399 -0.2818 -0.1717  0.0565
 7315SOL     OW29025   5.243   4.208   6.353 -0.3712 -0.0045  0.0108
 7315SOL    HW229026   5.317   4.154   6.325 -0.2789  0.1204  0.0132
 7315SOL    HW329027   5.182   4.205   6.279 -0.6967 -0.7069  0.2949
 7315SOL    MW429028   5.245   4.200   6.340 -0.4020 -0.0807  0.0486
 7316SOL     OW29029   1.879   0.958   5.192 -0.2700 -0.6484  0.2287
 7316SOL    HW229030   1.870   1.005   5.275 -0.8167 -2.7753  1.4468
 7316SOL    HW329031   1.969   0.975   5.165  0.6716 -1.6534  2.4329
 7316SOL    MW429032   1.890   0.967   5.200 -0.2179 -1.0616  0.6802
 7317SOL     OW29033   5.146   6.178   4.466  0.3750  0.0518 -0.1680
 7317SOL    HW229034   5.132   6.246   4.532  1.3277 -0.0767  0.1818
 7317SOL    HW329035   5.068   6.183   4.410 -1.2849 -0.9507  1.9046
 7317SOL    MW429036   5.134   6.187   4.467  0.2817 -0.0974  0.1516
 7318SOL     OW29037   0.745   4.618   3.340 -0.2270 -0.3988 -0.9703
 7318SOL    HW229038   0.672   4.676   3.321 -0.7647 -1.0172 -0.8290
 7318SOL    HW329039   0.779   4.593   3.254 -0.6020 -0.6338 -1.0502
 7318SOL    MW429040   0.740   4.622   3.326 -0.3474 -0.5114 -0.9622
 7319SOL     OW29041   0.159   5.173   2.087  0.1729  0.3934  0.3625
 7319SOL    HW229042   0.088   5.109   2.084  2.1008 -1.8480 -0.2230
 7319SOL    HW329043   0.179   5.182   2.181 -0.1185  0.1248  0.4523
 7319SOL    MW429044   0.152   5.166   2.099  0.3888  0.0623  0.2971
 7320SOL     OW29045   4.286   5.171   4.652  0.3898 -0.1656  0.6110
 7320SOL    HW229046   4.200   5.197   4.685 -0.7060 -2.2611 -0.4460
 7320SOL    HW329047   4.285   5.196   4.559  1.5373  1.1529  0.9176
 7320SOL    MW429048   4.275   5.178   4.644  0.3966 -0.2681  0.5120
 7321SOL     OW29049   0.571   0.942   0.613 -0.3179  0.1728  0.0144
 7321SOL    HW229050   0.574   0.940   0.517  0.3265 -0.7194  0.0452
 7321SOL    HW329051   0.658   0.973   0.638  0.2045 -1.5230  0.3557
 7321SOL    MW429052   0.583   0.946   0.604 -0.1639 -0.1687  0.0635
 7322SOL     OW29053   6.201   4.831   4.032 -0.3982  0.2144  0.2779
 7322SOL    HW229054   6.106   4.826   4.026 -0.3050 -0.8309 -0.7429
 7322SOL    HW329055   6.229   4.873   3.950 -0.0203  1.3517  0.9688
 7322SOL    MW429056   6.192   4.836   4.020 -0.3360  0.2265  0.2344
 7323SOL     OW29057   5.241   6.411   2.474  0.3030  0.3761  0.2473
 7323SOL    HW229058   5.204   6.407   2.562 -0.2642 -2.7485 -0.0181
 7323SOL    HW329059   5.305   6.340   2.471  0.1361  0.2394 -1.9432
 7323SOL    MW429060   5.245   6.401   2.485  0.2062 -0.0542 -0.0767
 7324SOL     OW29061   5.127   2.136   3.120 -0.7063  0.0235 -0.2600
 7324SOL    HW229062   5.155   2.194   3.192 -0.4426  0.2397 -0.5340
 7324SOL    HW329063   5.046   2.175   3.088  0.1041  0.9669 -1.2562
 7324SOL    MW429064   5.120   2.149   3.125 -0.5646  0.1765 -0.4276
 7325SOL     OW29065   0.388   2.844   1.813  0.5113 -0.0968  0.7350
 7325SOL    HW229066   0.393   2.892   1.730 -0.6770  1.1433  1.3376
 7325SOL    HW329067   0.462   2.784   1.810  1.5692  1.1894 -0.4267
 7325SOL    MW429068   0.398   2.843   1.801  0.4941  0.2366  0.6612
 7326SOL     OW29069   5.068   2.410   6.076 -0.3045 -0.3452  0.2743
 7326SOL    HW229070   4.997   2.367   6.028 -0.5432  0.5397 -0.1922
 7326SOL    HW329071   5.041   2.502   6.080  1.1958  0.1679 -0.6432
 7326SOL    MW429072   5.055   2.416   6.070 -0.1381 -0.1607  0.0917
 7327SOL     OW29073   1.102   4.293   3.063 -0.0999  0.3258  0.3599
 7327SOL    HW229074   1.080   4.285   2.971 -0.6955  1.4767  0.3867
 7327SOL    HW329075   1.041   4.358   3.097  1.2987  1.2885  1.1379
 7327SOL    MW429076   1.091   4.300   3.056  0.0060  0.6047  0.4661
 7328SOL     OW29077   2.734   3.028   5.007  0.4779  0.8941  0.0378
 7328SOL    HW229078   2.641   3.038   4.989  0.2236  0.8271  1.2321
 7328SOL    HW329079   2.756   2.940   4.977 -0.3009  0.1701  1.5055
 7328SOL    MW429080   2.725   3.018   5.001  0.3416  0.7897  0.3890
 7329SOL     OW29081   5.271   5.941   4.128 -0.2495 -0.2432 -0.0169
 7329SOL    HW229082   5.197   5.881   4.131 -1.0191  0.7155  1.6126
 7329SOL    HW329083   5.233   6.025   4.101  0.3572  0.0915  0.1499
 7329SOL    MW429084   5.256   5.944   4.125 -0.2710 -0.0726  0.2201
 7330SOL     OW29085   0.564   0.063   0.577  0.2958  0.4560 -0.5754
 7330SOL    HW229086   0.560  -0.000   0.505  0.8844 -1.4522  0.9880
 7330SOL    HW329087   0.480   0.110   0.571 -0.2430 -0.5771 -1.6975
 7330SOL    MW429088   0.552   0.061   0.567  0.3024  0.0680 -0.5172
 7331SOL     OW29089   0.129   5.723   3.526 -0.1845  0.1861 -0.3137
 7331SOL    HW229090   0.048   5.752   3.483  0.2795  0.1112 -1.2749
 7331SOL    HW329091   0.106   5.715   3.618 -1.4872 -0.5389 -0.6675
 7331SOL    MW429092   0.115   5.726   3.532 -0.2952  0.0806 -0.4872
 7332SOL     OW29093   6.127   2.239   1.162  0.4238  0.3050 -0.5964
 7332SOL    HW229094   6.138   2.144   1.150 -1.3777 -0.3505  1.9762
 7332SOL    HW329095   6.199   2.264   1.219  0.8826  0.4979 -1.2525
 7332SOL    MW429096   6.138   2.230   1.168  0.2467  0.2440 -0.3436
 7333SOL     OW29097   2.768   2.209   4.238  0.1245  0.4481 -0.2740
 7333SOL    HW229098   2.842   2.173   4.288  0.4428  0.5654 -0.6546
 7333SOL    HW329099   2.692   2.192   4.293  0.2394 -0.9744 -0.5084
 7333SOL    MW429100   2.768   2.202   4.252  0.1817  0.2759 -0.3552
 7334SOL     OW29101   0.999   0.844   4.471  0.6089 -0.4751 -0.4339
 7334SOL    HW229102   1.093   0.832   4.485  0.5896  0.9209  1.2417
 7334SOL    HW329103   0.958   0.783   4.533  0.3930 -0.9582 -1.0408
 7334SOL    MW429104   1.006   0.834   4.481  0.5779 -0.3546 -0.2929
 7335SOL     OW29105   5.969   5.679   6.053  0.2493  0.2008 -0.3103
 7335SOL    HW229106   6.037   5.618   6.025 -0.8986 -0.5213 -1.6792
 7335SOL    HW329107   5.887   5.637   6.027 -0.5845  2.3719 -1.5003
 7335SOL    MW429108   5.967   5.665   6.046 -0.0122  0.3920 -0.6479
 7336SOL     OW29109   0.127   3.821   4.518  0.0871 -0.2307  0.2160
 7336SOL    HW229110   0.155   3.828   4.609  2.4111  0.6647 -0.5146
 7336SOL    HW329111   0.108   3.910   4.492  0.8841 -0.2901 -0.5949
 7336SOL    MW429112   0.128   3.833   4.527  0.4988 -0.1204  0.0126
 7337SOL     OW29113   1.467   5.305   1.007 -0.5593 -0.0416 -0.0016
 7337SOL    HW229114   1.414   5.353   1.071 -1.0866 -1.0316  0.3453
 7337SOL    HW329115   1.421   5.221   0.998  0.9186 -0.9123  0.2690
 7337SOL    MW429116   1.454   5.300   1.014 -0.4339 -0.2871  0.0798
 7338SOL     OW29117   2.058   0.763   0.565 -0.1654 -0.8479  0.4107
 7338SOL    HW229118   2.138   0.719   0.594  0.2348  0.8615  2.0909
 7338SOL    HW329119   1.988   0.722   0.615 -0.0076 -0.6862  0.7679
 7338SOL    MW429120   2.060   0.752   0.575 -0.0918 -0.6011  0.6795
 7339SOL     OW29121   1.372   3.381   2.586  0.2512  0.1992  0.7763
 7339SOL    HW229122   1.423   3.316   2.537  0.1227  1.3276 -0.8994
 7339SOL    HW329123   1.387   3.464   2.541 -1.3632  0.9510  1.5203
 7339SOL    MW429124   1.380   3.383   2.574  0.0213  0.4472  0.6534
 7340SOL     OW29125   3.578   4.805   3.524  0.2653  0.5957 -0.4213
 7340SOL    HW229126   3.588   4.859   3.602  0.4484 -0.2961  0.1802
 7340SOL    HW329127   3.594   4.866   3.451 -0.9498  1.6747  0.1752
 7340SOL    MW429128   3.582   4.821   3.524  0.1291  0.6204 -0.2633
 7341SOL     OW29129   5.757   6.318   1.913  0.6282  0.3134 -0.1792
 7341SOL    HW229130   5.698   6.272   1.853  0.6187  0.7384 -0.4983
 7341SOL    HW329131   5.828   6.350   1.858  1.3611 -0.5242  0.2684
 7341SOL    MW429132   5.758   6.317   1.898  0.7237  0.2590 -0.1623
 7342SOL     OW29133   2.126   6.399   3.635 -0.0679 -0.5122  0.1548
 7342SOL    HW229134   2.206   6.396   3.584 -0.8548  0.7548 -1.2344
 7342SOL    HW329135   2.153   6.434   3.720  0.7179  0.7285 -0.5826
 7342SOL    MW429136   2.140   6.403   3.640 -0.0681 -0.1814 -0.1258
 7343SOL     OW29137   2.550   1.566   0.314  0.4670  0.6686 -0.7535
 7343SOL    HW229138   2.623   1.504   0.318  0.8344  1.0856 -0.9394
 7343SOL    HW329139   2.552   1.599   0.224 -1.7609 -1.4682 -1.7328
 7343SOL    MW429140   2.560   1.562   0.303  0.2215  0.4417 -0.9072
 7344SOL     OW29141   6.319   5.885   0.775  0.4732 -0.1032 -0.6415
 7344SOL    HW229142   6.388   5.876   0.710 -0.9085 -1.8545 -1.9599
 7344SOL    HW329143   6.266   5.959   0.744  1.6945  1.2469  0.3767
 7344SOL    MW429144   6.321   5.894   0.762  0.4520 -0.1562 -0.6811
 7345SOL     OW29145   1.175   5.282   2.663  0.3814 -0.4188 -0.7799
 7345SOL    HW229146   1.189   5.356   2.604  1.4205  0.4505  0.4836
 7345SOL    HW329147   1.088   5.250   2.641 -0.8023  2.1984 -0.3457
 7345SOL    MW429148   1.166   5.288   2.653  0.3623  0.0412 -0.5559
 7346SOL     OW29149   6.014   2.713   5.132 -0.1040 -0.3267  0.3681
 7346SOL    HW229150   5.939   2.770   5.150 -0.0322 -0.3893  0.8716
 7346SOL    HW329151   6.079   2.737   5.199  0.5558  0.1390 -0.4098
 7346SOL    MW429152   6.013   2.724   5.143 -0.0075 -0.2735  0.3319
 7347SOL     OW29153   0.222   2.505   4.442  0.4453  0.0819  0.2088
 7347SOL    HW229154   0.160   2.502   4.515 -0.6649  0.9861 -0.6535
 7347SOL    HW329155   0.302   2.466   4.477 -0.5688 -1.0330  1.3828
 7347SOL    MW429156   0.225   2.500   4.456  0.1650  0.0541  0.2500
 7348SOL     OW29157   4.580   0.467   4.911 -0.1942 -0.7266 -0.0019
 7348SOL    HW229158   4.549   0.393   4.963  1.8432 -1.5605  0.1126
 7348SOL    HW329159   4.672   0.447   4.893  1.0038  2.6041  1.5878
 7348SOL    MW429160   4.588   0.455   4.916  0.2327 -0.3972  0.2230
 7349SOL     OW29161   1.097   2.495   4.140  0.4024  0.2698  0.6063
 7349SOL    HW229162   1.061   2.406   4.136 -0.2436  0.5421  0.1489
 7349SOL    HW329163   1.022   2.552   4.123  1.1141  0.8516 -0.8259
 7349SOL    MW429164   1.082   2.491   4.137  0.4111  0.3825  0.3570
 7350SOL     OW29165   6.319   2.300   1.364 -0.2324 -0.5808 -0.1205
 7350SOL    HW229166   6.296   2.213   1.397  0.7845 -1.2624 -1.1371
 7350SOL    HW329167   6.411   2.293   1.340  0.1812  1.1121  0.7834
 7350SOL    MW429168   6.328   2.288   1.365 -0.0437 -0.4474 -0.1354
 7351SOL     OW29169   4.610   1.232   1.237 -0.4889  0.1098 -0.2871
 7351SOL    HW229170   4.666   1.303   1.207  0.1503 -0.3681 -0.2576
 7351SOL    HW329171   4.528   1.244   1.190  0.1282 -0.0056 -1.4201
 7351SOL    MW429172   4.607   1.243   1.227 -0.3232  0.0315 -0.4327
 7352SOL     OW29173   2.102   1.158   1.345  0.0485  0.5148  0.3126
 7352SOL    HW229174   2.096   1.235   1.401  1.5285  1.9691 -1.3955
 7352SOL    HW329175   2.173   1.178   1.284 -2.6729  0.0158 -3.4119
 7352SOL    MW429176   2.110   1.171   1.344 -0.1153  0.6408 -0.4041
 7353SOL     OW29177   0.711   3.197   5.346 -0.4382 -0.2770  0.3051
 7353SOL    HW229178   0.665   3.173   5.427 -1.1808 -0.2461 -0.0920
 7353SOL    HW329179   0.756   3.278   5.366 -0.2780 -0.4883  0.8098
 7353SOL    MW429180   0.711   3.204   5.359 -0.5151 -0.3008  0.3193
 7354SOL     OW29181   6.372   5.681   1.251 -0.1888  0.5469 -0.2323
 7354SOL    HW229182   6.464   5.708   1.257 -0.1794  0.2925  0.8409
 7354SOL    HW329183   6.368   5.630   1.170  0.0572  2.6510 -1.6694
 7354SOL    MW429184   6.384   5.678   1.241 -0.1551  0.7910 -0.2803
 7355SOL     OW29185   1.431   6.397   3.650  0.3867  0.2331 -0.0531
 7355SOL    HW229186   1.437   6.313   3.696  0.5387 -0.2540 -0.9272
 7355SOL    HW329187   1.419   6.462   3.719  0.0958 -0.5265  0.6270
 7355SOL    MW429188   1.430   6.394   3.665  0.3684  0.0686 -0.0787
 7356SOL     OW29189   6.328   5.254   5.721 -0.4136  0.6324  0.5363
 7356SOL    HW229190   6.239   5.247   5.758 -1.3329 -0.1684 -1.6340
 7356SOL    HW329191   6.380   5.293   5.791 -2.0132 -0.7353  2.6220
 7356SOL    MW429192   6.323   5.258   5.735 -0.7459  0.3463  0.5251
 7357SOL     OW29193   1.178   3.061   4.651 -0.0488  0.3809  0.4713
 7357SOL    HW229194   1.192   3.086   4.559  1.5737  0.3539  0.6717
 7357SOL    HW329195   1.191   2.967   4.652  0.0005  0.3898  0.7373
 7357SOL    MW429196   1.182   3.052   4.639  0.1718  0.3785  0.5329
 7358SOL     OW29197   3.948   1.543   5.318 -0.7983  0.4614 -0.2744
 7358SOL    HW229198   3.890   1.468   5.304 -0.7179  0.4114 -0.3377
 7358SOL    HW329199   4.015   1.535   5.251  0.2726 -0.4475  0.8407
 7358SOL    MW429200   3.949   1.532   5.308 -0.6464  0.3349 -0.1356
 7359SOL     OW29201   2.796   1.960   1.842 -0.5547 -0.3085 -0.1150
 7359SOL    HW229202   2.815   2.045   1.882 -0.5683 -0.7257  0.8199
 7359SOL    HW329203   2.743   1.914   1.908 -1.8122 -0.4960 -1.1972
 7359SOL    MW429204   2.791   1.965   1.856 -0.7224 -0.3883 -0.1344
 7360SOL     OW29205   5.154   1.755   1.177 -0.4531  0.0504  0.2045
 7360SOL    HW229206   5.211   1.710   1.114 -1.1977 -1.6953  0.7187
 7360SOL    HW329207   5.072   1.770   1.128  0.1312  1.8678 -0.2943
 7360SOL    MW429208   5.150   1.751   1.162 -0.4743  0.0599  0.2065
 7361SOL     OW29209   1.959   1.771   3.920 -0.2671 -0.6740  0.3095
 7361SOL    HW229210   1.933   1.741   3.833  2.6080 -0.5210 -0.7132
 7361SOL    HW329211   1.990   1.693   3.965  1.3444 -0.2859 -0.0622
 7361SOL    MW429212   1.960   1.757   3.915  0.3249 -0.6026  0.1255
 7362SOL     OW29213   1.835   2.044   5.748  0.5209 -0.4342 -0.7771
 7362SOL    HW229214   1.832   1.949   5.762  0.1945 -0.2967  0.1735
 7362SOL    HW329215   1.920   2.070   5.784  0.0035 -0.1829  0.3163
 7362SOL    MW429216   1.846   2.035   5.755  0.4096 -0.3829 -0.5074
 7363SOL     OW29217   4.452   3.966   4.498  0.4598 -0.0131 -0.2932
 7363SOL    HW229218   4.392   3.893   4.484  0.8231 -0.5429  0.8254
 7363SOL    HW329219   4.399   4.044   4.480 -0.0206 -0.5298 -1.1865
 7363SOL    MW429220   4.437   3.967   4.494  0.4444 -0.1512 -0.2635
 7364SOL     OW29221   5.490   4.831   3.695  0.6500 -0.0238  0.1165
 7364SOL    HW229222   5.449   4.901   3.747 -1.2889  0.2216 -1.5934
 7364SOL    HW329223   5.478   4.752   3.748 -0.4026  0.3819  0.5183
 7364SOL    MW429224   5.483   4.830   3.709  0.2553  0.0621 -0.0560
 7365SOL     OW29225   2.961   2.781   1.321  0.4625  0.1024  0.3705
 7365SOL    HW229226   2.883   2.729   1.304  0.1453  0.6004  0.2695
 7365SOL    HW329227   3.007   2.734   1.390 -0.8563  0.7505  1.7509
 7365SOL    MW429228   2.957   2.768   1.328  0.2467  0.2536  0.5393
 7366SOL     OW29229   4.780   6.090   0.778  0.0691 -0.0017 -0.2265
 7366SOL    HW229230   4.713   6.039   0.825 -2.9010  2.1220 -1.8501
 7366SOL    HW329231   4.776   6.058   0.688 -0.1165  1.3840 -0.7327
 7366SOL    MW429232   4.771   6.079   0.773 -0.3472  0.4613 -0.5075
 7367SOL     OW29233   5.564   2.277   2.032  0.4227 -0.4757  0.0879
 7367SOL    HW229234   5.537   2.322   1.952  1.9371  1.0063  0.3537
 7367SOL    HW329235   5.652   2.310   2.049  0.6273 -1.7347  1.6713
 7367SOL    MW429236   5.572   2.287   2.024  0.6495 -0.4463  0.3319
 7368SOL     OW29237   2.295   3.166   4.739 -0.5062 -0.1787 -0.9290
 7368SOL    HW229238   2.209   3.161   4.782 -0.2017 -0.9581 -0.3934
 7368SOL    HW329239   2.275   3.152   4.646 -0.8837 -1.1628 -0.7175
 7368SOL    MW429240   2.281   3.164   4.732 -0.5159 -0.4113 -0.8305
 7369SOL     OW29241   6.249   3.037   2.093  0.5267 -0.2418  0.4517
 7369SOL    HW229242   6.236   3.132   2.096  0.8691 -0.2097  1.1163
 7369SOL    HW329243   6.267   3.018   2.001 -0.3810  0.2199  0.1661
 7369SOL    MW429244   6.249   3.047   2.081  0.4521 -0.1767  0.5017
 7370SOL     OW29245   0.295   4.571   5.673  0.1364  0.4438  0.4346
 7370SOL    HW229246   0.298   4.497   5.613 -0.4129 -0.2896  1.3000
 7370SOL    HW329247   0.225   4.627   5.639  1.5150  1.3652 -1.0857
 7370SOL    MW429248   0.286   4.569   5.661  0.2458  0.4686  0.3482
 7371SOL     OW29249   1.830   5.759   2.971  0.0316 -0.5018 -0.8452
 7371SOL    HW229250   1.740   5.777   2.943 -1.0127 -2.2162  1.1479
 7371SOL    HW329251   1.827   5.766   3.067  1.9766 -0.8143 -0.7236
 7371SOL    MW429252   1.818   5.763   2.980  0.1505 -0.7693 -0.5662
 7372SOL     OW29253   1.954   4.358   1.676 -0.0282  0.5073  0.1656
 7372SOL    HW229254   1.925   4.374   1.766  1.7205  0.1279  0.8352
 7372SOL    HW329255   1.919   4.431   1.626 -1.2784  0.5765  1.0865
 7372SOL    MW429256   1.946   4.369   1.681  0.0376  0.4664  0.3755
 7373SOL     OW29257   5.258   5.902   4.411 -0.5777 -0.2345  0.3781
 7373SOL    HW229258   5.293   5.931   4.326  2.0542 -0.4971  1.2748
 7373SOL    HW329259   5.239   5.983   4.457 -1.1236 -0.0745 -0.1208
 7373SOL    MW429260   5.260   5.916   4.406 -0.3025 -0.2480  0.4306
 7374SOL     OW29261   2.203   6.146   1.821  0.5022  0.0622  0.1697
 7374SOL    HW229262   2.282   6.156   1.874  0.4932 -0.6469  0.3294
 7374SOL    HW329263   2.148   6.085   1.871  0.2768 -0.2176 -0.4076
 7374SOL    MW429264   2.206   6.139   1.834  0.4712 -0.0682  0.1146
 7375SOL     OW29265   3.432   4.274   2.329  0.6438 -0.1137 -0.7506
 7375SOL    HW229266   3.503   4.278   2.393  1.5799 -0.3479 -1.7400
 7375SOL    HW329267   3.425   4.181   2.307 -2.5007 -0.7393  2.0019
 7375SOL    MW429268   3.440   4.262   2.335  0.3524 -0.2271 -0.5180
 7376SOL     OW29269   2.571   2.607   1.281 -0.1835  0.5627  0.0841
 7376SOL    HW229270   2.585   2.691   1.324 -0.7398  0.5345  0.3267
 7376SOL    HW329271   2.481   2.584   1.301 -0.7620  0.9726 -1.8246
 7376SOL    MW429272   2.561   2.615   1.289 -0.3332  0.6131 -0.1357
 7377SOL     OW29273   3.513   5.823   2.593 -0.6046 -0.2042 -0.2777
 7377SOL    HW229274   3.506   5.771   2.514  1.3949 -0.5677 -0.2648
 7377SOL    HW329275   3.466   5.773   2.660 -2.3782  0.1492 -1.2132
 7377SOL    MW429276   3.506   5.810   2.592 -0.5748 -0.2056 -0.3995
 7378SOL     OW29277   2.445   6.454   0.519 -0.1930  0.0944 -0.1953
 7378SOL    HW229278   2.495   6.479   0.441 -0.8898  0.1943 -0.6117
 7378SOL    HW329279   2.355   6.476   0.498 -0.3313  0.5652  0.8239
 7378SOL    MW429280   2.440   6.460   0.506 -0.3032  0.1697 -0.1158
 7379SOL     OW29281   6.076   4.189   6.152  0.8173 -0.0121  0.0733
 7379SOL    HW229282   6.148   4.159   6.207  0.1669  2.2651  2.3553
 7379SOL    HW329283   6.028   4.109   6.130  0.2597 -1.0505  4.1843
 7379SOL    MW429284   6.079   4.174   6.157  0.6579  0.1513  0.9168
 7380SOL     OW29285   6.122   3.285   2.144  0.0330 -0.5017 -0.9090
 7380SOL    HW229286   6.028   3.272   2.153 -0.7240  3.0931 -2.0685
 7380SOL    HW329287   6.131   3.344   2.069  3.1045  0.1191 -0.1884
 7380SOL    MW429288   6.111   3.291   2.135  0.3384  0.0545 -0.9669
 7381SOL     OW29289   4.514   4.443   3.301  0.1835  0.2035 -0.0444
 7381SOL    HW229290   4.597   4.483   3.275  2.8209 -3.5503  1.5828
 7381SOL    HW329291   4.501   4.372   3.238 -0.7590 -0.4255  0.8311
 7381SOL    MW429292   4.523   4.439   3.290  0.4072 -0.3747  0.2858
 7382SOL     OW29293   0.684   5.682   5.183 -0.0831  0.2975 -0.0454
 7382SOL    HW229294   0.705   5.670   5.091 -0.6470  0.6858 -0.2283
 7382SOL    HW329295   0.635   5.764   5.187 -1.7091 -0.6367  0.3280
 7382SOL    MW429296   0.680   5.691   5.172 -0.3721  0.2255 -0.0203
 7383SOL     OW29297   3.038   2.398   2.411  0.0398  0.2340  0.1853
 7383SOL    HW229298   3.006   2.397   2.501  0.3630  1.4103  0.3335
 7383SOL    HW329299   3.131   2.422   2.419  0.2894 -0.4811 -0.4132
 7383SOL    MW429300   3.046   2.401   2.424  0.1154  0.2948  0.1259
 7384SOL     OW29301   0.941   3.420   5.984 -0.6901 -0.1247  0.1412
 7384SOL    HW229302   0.902   3.335   6.003  0.3844 -0.7350 -0.3211
 7384SOL    HW329303   1.034   3.409   6.004 -0.8472  1.6272  2.3854
 7384SOL    MW429304   0.948   3.407   5.989 -0.5691  0.0259  0.3763
 7385SOL     OW29305   5.487   4.584   2.922  0.1276  0.0525  0.1492
 7385SOL    HW229306   5.538   4.567   2.843 -0.4808  1.1404 -0.5054
 7385SOL    HW329307   5.508   4.511   2.981  1.7075  0.0054 -0.4452
 7385SOL    MW429308   5.496   4.572   2.919  0.2558  0.1898 -0.0156
 7386SOL     OW29309   0.644   3.625   4.233  0.5019  0.1822 -0.1282
 7386SOL    HW229310   0.629   3.707   4.279  1.0040  0.4339 -0.4105
 7386SOL    HW329311   0.631   3.647   4.140  2.2357  0.3387 -0.3690
 7386SOL    MW429312   0.640   3.639   4.227  0.7969  0.2361 -0.1972
 7387SOL     OW29313   4.156   5.615   2.884 -0.2070 -0.2484 -0.2969
 7387SOL    HW229314   4.195   5.665   2.956 -0.1242 -0.0187 -0.4981
 7387SOL    HW329315   4.155   5.524   2.915 -0.5784 -0.0890  0.1647
 7387SOL    MW429316   4.161   5.609   2.898 -0.2451 -0.1971 -0.2626
 7388SOL     OW29317   3.380   6.477   0.753 -0.5223 -0.1597  0.2293
 7388SOL    HW229318   3.459   6.431   0.783  0.6822  0.5361 -1.6875
 7388SOL    HW329319   3.391   6.485   0.658 -3.4970 -1.0886 -0.2959
 7388SOL    MW429320   3.392   6.472   0.745 -0.7558 -0.1905 -0.0929
 7389SOL     OW29321   3.383   6.214   0.430  0.0161  0.9645 -0.1181
 7389SOL    HW229322   3.429   6.297   0.440 -0.3619  1.0230  1.3980
 7389SOL    HW329323   3.358   6.189   0.520  0.4989 -0.9988 -0.4759
 7389SOL    MW429324   3.385   6.221   0.443  0.0299  0.7132  0.0347
 7390SOL     OW29325   4.921   1.213   5.563 -0.1774  0.6229 -0.1376
 7390SOL    HW229326   4.884   1.149   5.502 -0.7985  1.3564 -0.5369
 7390SOL    HW329327   4.999   1.169   5.598 -0.0314  0.0302 -1.1553
 7390SOL    MW429328   4.927   1.199   5.559 -0.2401  0.6415 -0.3246
 7391SOL     OW29329   5.609   3.281   3.271  0.8626  0.3436  0.4504
 7391SOL    HW229330   5.568   3.368   3.271 -0.9137 -0.3856  2.3624
 7391SOL    HW329331   5.675   3.286   3.340 -0.1592 -0.1545  1.4999
 7391SOL    MW429332   5.612   3.293   3.280  0.4934  0.1817  0.8411
 7392SOL     OW29333   1.615   4.429   5.604 -0.0185 -0.0397  0.1056
 7392SOL    HW229334   1.611   4.388   5.517  0.9456 -0.3410  0.1939
 7392SOL    HW329335   1.592   4.521   5.588  0.0192 -0.1224 -0.4500
 7392SOL    MW429336   1.612   4.436   5.590  0.1137 -0.0903  0.0439
 7393SOL     OW29337   3.646   1.326   1.186  0.6234  0.1248 -0.0350
 7393SOL    HW229338   3.578   1.347   1.122 -0.9008 -0.4958  1.2789
 7393SOL    HW329339   3.727   1.320   1.136 -0.4839 -0.2148 -1.8623
 7393SOL    MW429340   3.647   1.328   1.171  0.2762 -0.0019 -0.1028
 7394SOL     OW29341   1.733   2.298   4.476  0.0797  0.2943  1.0882
 7394SOL    HW229342   1.664   2.337   4.528  0.9591  0.0290  2.5237
 7394SOL    HW329343   1.792   2.258   4.540  1.7110  0.7479 -0.0440
 7394SOL    MW429344   1.732   2.298   4.491  0.4110  0.3191  1.1282
 7395SOL     OW29345   5.129   3.280   1.382 -0.1428  0.1415  0.1121
 7395SOL    HW229346   5.045   3.245   1.411 -0.3018  0.6304  0.2520
 7395SOL    HW329347   5.138   3.250   1.292 -0.6845  0.4716 -0.0562
 7395SOL    MW429348   5.119   3.272   1.374 -0.2353  0.2495  0.1084
 7396SOL     OW29349   4.247   2.802   6.434  0.4145 -0.5742  0.1680
 7396SOL    HW229350   4.255   2.742   6.360 -0.4716  0.0582 -0.4559
 7396SOL    HW329351   4.153   2.815   6.445  0.5761  0.1627  0.7285
 7396SOL    MW429352   4.236   2.796   6.425  0.3189 -0.3936  0.1597
 7397SOL     OW29353   1.894   3.978   5.983  0.1600  0.3332  0.0082
 7397SOL    HW229354   1.950   4.013   6.053 -3.5741  4.0444  1.5785
 7397SOL    HW329355   1.822   3.935   6.028 -2.0536  2.3135 -1.3791
 7397SOL    MW429356   1.892   3.977   5.998 -0.6247  1.0841  0.0324
 7398SOL     OW29357   2.985   1.851   1.307  0.1967  0.0202 -0.6730
 7398SOL    HW229358   2.902   1.837   1.261 -0.2647  0.8894 -0.1321
 7398SOL    HW329359   3.051   1.849   1.238 -0.3608  0.1444 -1.2189
 7398SOL    MW429360   2.982   1.849   1.292  0.0622  0.1512 -0.6737
 7399SOL     OW29361   3.281   2.633   0.167 -0.6414 -0.7356  0.6549
 7399SOL    HW229362   3.206   2.617   0.224 -1.0007  0.0453  0.4265
 7399SOL    HW329363   3.348   2.572   0.197 -0.6214  0.0474  2.3064
 7399SOL    MW429364   3.280   2.623   0.178 -0.6861 -0.5293  0.8427
 7400SOL     OW29365   2.722   3.541   4.823  0.2786 -0.2217 -0.0592
 7400SOL    HW229366   2.708   3.582   4.738 -0.4496  1.4244  0.8026
 7400SOL    HW329367   2.644   3.488   4.838 -1.9352  3.1381  1.5162
 7400SOL    MW429368   2.710   3.540   4.814 -0.1095  0.4387  0.2624
 7401SOL     OW29369   2.995   6.078   4.804 -0.2612 -0.2741  0.7383
 7401SOL    HW229370   2.957   6.018   4.741  1.2305 -1.0413  0.5117
 7401SOL    HW329371   3.018   6.155   4.752  1.0612 -0.9465  0.2749
 7401SOL    MW429372   2.993   6.081   4.789  0.1101 -0.4640  0.6473
 7402SOL     OW29373   3.453   3.951   1.991  0.1114  0.0706 -0.1103
 7402SOL    HW229374   3.530   3.968   1.937  0.7990 -0.1553  0.7815
 7402SOL    HW329375   3.449   3.855   1.997 -0.6534  0.0545 -0.7284
 7402SOL    MW429376   3.463   3.940   1.984  0.1012  0.0387 -0.0742
 7403SOL     OW29377   1.518   6.092   0.944 -0.0202  0.2748  0.2626
 7403SOL    HW229378   1.451   6.075   0.878  0.0303  0.2419  0.2201
 7403SOL    HW329379   1.549   6.180   0.924  0.7511 -0.1364 -0.4203
 7403SOL    MW429380   1.513   6.102   0.933  0.0882  0.2162  0.1669
 7404SOL     OW29381   1.496   4.260   0.726  0.0286  0.1373 -0.2405
 7404SOL    HW229382   1.498   4.318   0.650 -2.7906 -0.5749 -0.9779
 7404SOL    HW329383   1.483   4.318   0.800  1.5434  0.7356 -0.4029
 7404SOL    MW429384   1.495   4.275   0.726 -0.1435  0.1223 -0.3592
 7405SOL     OW29385   2.217   3.371   3.951 -0.4546  0.0874 -0.1600
 7405SOL    HW229386   2.300   3.415   3.935 -0.3698 -0.3986 -1.1935
 7405SOL    HW329387   2.154   3.442   3.964  0.0874  0.4618  0.4582
 7405SOL    MW429388   2.220   3.386   3.950 -0.3719  0.0727 -0.2148
 7406SOL     OW29389   4.552   1.073   3.397  0.2369 -0.3027 -0.0898
 7406SOL    HW229390   4.558   1.088   3.303 -2.2242  0.3757 -0.2299
 7406SOL    HW329391   4.642   1.079   3.429  0.9851  0.7601 -2.2194
 7406SOL    MW429392   4.565   1.076   3.389  0.0109 -0.0730 -0.3893
 7407SOL     OW29393   3.857   4.263   0.112 -0.3549 -0.2616 -0.0693
 7407SOL    HW229394   3.797   4.239   0.041 -1.2716 -1.5605  1.0973
 7407SOL    HW329395   3.801   4.270   0.189  0.8239 -0.3260  0.8154
 7407SOL    MW429396   3.841   4.260   0.113 -0.3203 -0.4415  0.2013
 7408SOL     OW29397   4.196   3.077   5.722  0.0797  0.0412  0.0002
 7408SOL    HW229398   4.287   3.089   5.748  0.0219 -0.3714  0.4123
 7408SOL    HW329399   4.150   3.152   5.760  0.4074  0.8395 -1.1184
 7408SOL    MW429400   4.202   3.089   5.730  0.1154  0.0921 -0.0930
 7409SOL     OW29401   4.955   0.218   5.701 -0.3166  0.2956  0.3422
 7409SOL    HW229402   5.006   0.238   5.623  0.5114  1.4778  1.1472
 7409SOL    HW329403   4.879   0.276   5.696 -1.9978 -1.8722 -1.1534
 7409SOL    MW429404   4.952   0.228   5.690 -0.4292  0.1656  0.2511
 7410SOL     OW29405   0.330   5.356   2.677  0.0599  0.3951 -0.5656
 7410SOL    HW229406   0.306   5.277   2.628  2.7734 -1.0522  0.2462
 7410SOL    HW329407   0.336   5.327   2.768  1.6631  1.3570 -0.3303
 7410SOL    MW429408   0.328   5.341   2.682  0.6294  0.3310 -0.4275
 7411SOL     OW29409   5.551   3.751   2.457 -0.2201  0.1939  0.0912
 7411SOL    HW229410   5.506   3.751   2.541  0.4779 -0.1864  0.4685
 7411SOL    HW329411   5.575   3.843   2.443 -0.1115  0.2182  0.4276
 7411SOL    MW429412   5.548   3.763   2.466 -0.1137  0.1470  0.1854
 7412SOL     OW29413   0.968   2.121   3.503 -0.1112  0.2513  0.4769
 7412SOL    HW229414   0.883   2.163   3.520  0.5188  1.2849  1.1722
 7412SOL    HW329415   1.016   2.130   3.585  0.5179 -0.7175  0.2227
 7412SOL    MW429416   0.963   2.128   3.516  0.0549  0.2599  0.5351
 7413SOL     OW29417   0.431   3.493   4.588 -0.0093  0.1223 -0.0945
 7413SOL    HW229418   0.361   3.527   4.533 -0.1796 -1.8454 -1.1909
 7413SOL    HW329419   0.395   3.412   4.624  2.0393 -1.5391 -1.5788
 7413SOL    MW429420   0.417   3.487   4.586  0.2385 -0.3565 -0.4350
 7414SOL     OW29421   4.404   2.276   3.416 -0.2964  0.2709  0.1235
 7414SOL    HW229422   4.440   2.203   3.466 -0.1301 -0.6307 -1.2501
 7414SOL    HW329423   4.481   2.322   3.382 -0.3528 -0.8974 -1.7415
 7414SOL    MW429424   4.419   2.272   3.418 -0.2819 -0.0022 -0.3038
 7415SOL     OW29425   4.075   1.273   3.384 -0.1359  0.1605  0.2077
 7415SOL    HW229426   4.077   1.197   3.326 -2.6248 -0.3605  0.6762
 7415SOL    HW329427   4.159   1.316   3.371 -0.1937 -0.4605 -3.0923
 7415SOL    MW429428   4.086   1.269   3.375 -0.4719  0.0098 -0.1658
 7416SOL     OW29429   3.213   4.795   3.881 -0.4307 -0.4722 -0.5067
 7416SOL    HW229430   3.207   4.703   3.855  0.7761 -1.0824  1.1625
 7416SOL    HW329431   3.301   4.803   3.918 -1.0024  1.0259  0.6125
 7416SOL    MW429432   3.224   4.784   3.882 -0.3469 -0.3550 -0.1388
 7417SOL     OW29433   6.349   3.532   0.577 -0.2467  0.4200 -0.3073
 7417SOL    HW229434   6.325   3.549   0.486  1.4141  1.5686 -0.5775
 7417SOL    HW329435   6.373   3.618   0.612  1.0885 -0.2901  0.5983
 7417SOL    MW429436   6.349   3.546   0.570  0.1486  0.4779 -0.2235
 7418SOL     OW29437   2.901   4.289   2.352 -0.2667  0.2924 -0.0137
 7418SOL    HW229438   2.967   4.230   2.388 -0.7098  0.0017  0.3478
 7418SOL    HW329439   2.929   4.306   2.263  0.0212 -0.2488 -0.0308
 7418SOL    MW429440   2.913   4.283   2.345 -0.2872  0.1826  0.0318
 7419SOL     OW29441   0.726   4.533   1.214  0.0908 -0.6357  0.1763
 7419SOL    HW229442   0.647   4.576   1.182  0.9288  1.0796  0.2873
 7419SOL    HW329443   0.796   4.563   1.155  1.1128  0.0617  1.6772
 7419SOL    MW429444   0.725   4.543   1.202  0.3362 -0.3174  0.3890
 7420SOL     OW29445   4.280   0.091   2.774  0.1836 -0.2914  0.1927
 7420SOL    HW229446   4.274   0.048   2.860  0.4745 -0.2407  0.2403
 7420SOL    HW329447   4.374   0.105   2.761  0.1024  0.2234  0.1267
 7420SOL    MW429448   4.291   0.087   2.784  0.2113 -0.2168  0.1903
 7421SOL     OW29449   5.326   3.694   0.292  0.3477 -0.2998 -0.4222
 7421SOL    HW229450   5.386   3.768   0.299  0.0548 -0.0399 -0.6605
 7421SOL    HW329451   5.278   3.709   0.211  0.0140 -0.5505 -0.2727
 7421SOL    MW429452   5.328   3.705   0.282  0.2651 -0.2986 -0.4339
 7422SOL     OW29453   4.627   0.819   2.724 -0.1326  0.5002 -0.5854
 7422SOL    HW229454   4.607   0.747   2.666 -2.0963 -1.2076  1.9722
 7422SOL    HW329455   4.568   0.889   2.697  0.1701  0.3615 -1.6482
 7422SOL    MW429456   4.617   0.819   2.713 -0.3518  0.2566 -0.3881
 7423SOL     OW29457   4.962   2.340   1.145  0.2791  0.6343  0.2864
 7423SOL    HW229458   4.989   2.276   1.211 -2.3401 -1.5719 -0.5603
 7423SOL    HW329459   4.879   2.375   1.179 -1.7809 -1.4329 -2.1460
 7423SOL    MW429460   4.954   2.336   1.158 -0.3383  0.0705 -0.1462
 7424SOL     OW29461   2.208   2.629   0.659 -0.5253 -0.0665 -0.3989
 7424SOL    HW229462   2.247   2.608   0.744 -3.5961 -2.2676  0.6219
 7424SOL    HW329463   2.117   2.651   0.679 -1.1310  0.1796 -3.0541
 7424SOL    MW429464   2.201   2.629   0.673 -1.0104 -0.3244 -0.6145
 7425SOL     OW29465   1.208   1.901   6.052  0.0229 -0.5035  0.1911
 7425SOL    HW229466   1.196   1.982   6.101 -0.2249  0.1950 -1.0061
 7425SOL    HW329467   1.301   1.901   6.028 -0.2860  0.2210 -1.1252
 7425SOL    MW429468   1.219   1.912   6.055 -0.0506 -0.3158 -0.1405
 7426SOL     OW29469   0.216   3.227   5.345  0.0015 -0.0875  0.1200
 7426SOL    HW229470   0.240   3.282   5.420 -1.0276  2.6985 -1.4381
 7426SOL    HW329471   0.296   3.179   5.324  1.4934  2.0039  0.6648
 7426SOL    MW429472   0.230   3.228   5.352  0.0626  0.5560 -0.0137
 7427SOL     OW29473   1.735   5.292   1.085  0.0349 -0.1643  0.5565
 7427SOL    HW229474   1.640   5.281   1.081  0.1359 -0.7849 -0.4845
 7427SOL    HW329475   1.757   5.343   1.007  0.4143  1.2056  1.5232
 7427SOL    MW429476   1.726   5.297   1.075  0.0983 -0.0654  0.5467
 7428SOL     OW29477   2.454   3.524   3.957  0.1735 -0.2824 -0.1110
 7428SOL    HW229478   2.489   3.479   4.034  0.3071  0.8758  0.5269
 7428SOL    HW329479   2.500   3.608   3.956  0.5611 -0.4964 -1.7713
 7428SOL    MW429480   2.465   3.529   3.967  0.2422 -0.1578 -0.2459
 7429SOL     OW29481   0.566   4.349   0.332 -0.0309 -0.0719  0.0776
 7429SOL    HW229482   0.631   4.384   0.393 -3.0274  0.5069  3.2583
 7429SOL    HW329483   0.558   4.257   0.355 -1.6800  0.2993  1.2489
 7429SOL    MW429484   0.573   4.342   0.343 -0.6438  0.0534  0.6518
 7430SOL     OW29485   3.792   1.454   2.253  0.5882  0.2373 -0.8838
 7430SOL    HW229486   3.783   1.464   2.348  0.8817 -0.4059 -0.7792
 7430SOL    HW329487   3.742   1.526   2.216 -0.1282  0.0818 -0.2468
 7430SOL    MW429488   3.784   1.465   2.261  0.5324  0.1319 -0.7860
 7431SOL     OW29489   2.701   4.772   6.262 -0.6007  0.1783  0.0850
 7431SOL    HW229490   2.765   4.760   6.192  0.8114  2.7188  0.8146
 7431SOL    HW329491   2.717   4.699   6.322  0.2506 -0.3231 -0.7320
 7431SOL    MW429492   2.712   4.761   6.260 -0.3021  0.4474  0.0735
 7432SOL     OW29493   1.683   2.481   1.051 -0.1795  0.4499 -0.6492
 7432SOL    HW229494   1.773   2.484   1.083 -0.5925 -1.6491  0.9190
 7432SOL    HW329495   1.689   2.513   0.961  1.8273  1.9959 -0.0350
 7432SOL    MW429496   1.696   2.486   1.043  0.0308  0.3769 -0.3613
 7433SOL     OW29497   6.182   1.367   2.833  0.4508  0.1964 -0.6417
 7433SOL    HW229498   6.255   1.428   2.837  0.8807 -0.0881 -2.9043
 7433SOL    HW329499   6.111   1.418   2.792 -0.0227 -0.0752 -0.1690
 7433SOL    MW429500   6.182   1.382   2.828  0.4450  0.1230 -0.8779
 7434SOL     OW29501   2.737   3.180   0.105  0.3246 -0.1665  0.1755
 7434SOL    HW229502   2.771   3.261   0.067  1.0741 -0.0924  0.9639
 7434SOL    HW329503   2.728   3.120   0.032 -3.2905  1.5516 -1.0410
 7434SOL    MW429504   2.740   3.183   0.091 -0.0535  0.0700  0.1190
 7435SOL     OW29505   0.281   4.094   0.927 -0.3453  0.2197  0.0181
 7435SOL    HW229506   0.277   4.027   0.994  1.8745 -1.2049 -1.1532
 7435SOL    HW329507   0.325   4.168   0.969  0.0473 -0.2502  0.4461
 7435SOL    MW429508   0.286   4.095   0.941 -0.0006 -0.0303 -0.0800
 7436SOL     OW29509   0.646   0.994   5.944 -0.3811 -0.4718  0.0069
 7436SOL    HW229510   0.723   1.025   5.896 -1.1690  1.0976 -0.2812
 7436SOL    HW329511   0.669   1.003   6.036 -1.3145  3.1382  0.0181
 7436SOL    MW429512   0.659   0.999   5.950 -0.6082  0.2116 -0.0296
 7437SOL     OW29513   2.248   0.192   1.385  0.0190 -0.2127  0.1640
 7437SOL    HW229514   2.310   0.245   1.334  1.3110 -1.4567  0.4086
 7437SOL    HW329515   2.291   0.178   1.469 -0.1309 -1.9352 -0.0169
 7437SOL    MW429516   2.262   0.197   1.389  0.1697 -0.6041  0.1724
 7438SOL     OW29517   1.965   0.442   5.229  0.1606  0.5045 -0.1314
 7438SOL    HW229518   1.964   0.446   5.325  0.9112  2.8799 -0.1692
 7438SOL    HW329519   1.916   0.520   5.202 -1.9330 -1.2545 -1.7321
 7438SOL    MW429520   1.958   0.453   5.238 -0.0166  0.5859 -0.3476
 7439SOL     OW29521   2.458   1.045   5.361  0.1403  0.3531 -0.1781
 7439SOL    HW229522   2.549   1.032   5.336  0.5520 -1.4505  1.9016
 7439SOL    HW329523   2.418   0.958   5.351 -1.0997  0.8911 -0.1067
 7439SOL    MW429524   2.465   1.032   5.356  0.0310  0.1861  0.1057
 7440SOL     OW29525   4.725   4.199   3.897 -0.0769 -0.4877  0.0543
 7440SOL    HW229526   4.727   4.288   3.863  0.3212 -0.3494  0.4385
 7440SOL    HW329527   4.701   4.208   3.989 -0.5004 -0.8118 -0.0215
 7440SOL    MW429528   4.722   4.212   3.905 -0.0802 -0.5122  0.0950
 7441SOL     OW29529   4.134   4.402   5.342  0.2119 -0.7260 -0.0375
 7441SOL    HW229530   4.053   4.432   5.300  0.5678  1.0954  0.4582
 7441SOL    HW329531   4.183   4.358   5.273  0.4984  1.6227 -1.4386
 7441SOL    MW429532   4.130   4.400   5.327  0.2967 -0.1758 -0.1570
 7442SOL     OW29533   4.629   3.741   5.922 -0.6663 -0.5580 -0.0612
 7442SOL    HW229534   4.659   3.832   5.925  2.4143 -1.4438 -0.9653
 7442SOL    HW329535   4.562   3.736   5.991 -0.4862  2.2109  0.4350
 7442SOL    MW429536   4.624   3.753   5.931 -0.2361 -0.3095 -0.1151
 7443SOL     OW29537   1.631   2.196   1.107  0.1132  0.3263 -0.1899
 7443SOL    HW229538   1.652   2.288   1.088 -0.6885  0.1130 -2.3754
 7443SOL    HW329539   1.626   2.155   1.021 -0.9047 -1.4704  0.6867
 7443SOL    MW429540   1.633   2.203   1.093 -0.1269  0.0611 -0.3626
 7444SOL     OW29541   4.971   1.372   4.193 -0.4450  0.1987  0.2805
 7444SOL    HW229542   5.012   1.459   4.186 -1.3431  0.5230 -1.5353
 7444SOL    HW329543   4.879   1.391   4.213 -0.3910 -0.4014  1.1269
 7444SOL    MW429544   4.964   1.386   4.195 -0.5564  0.1623  0.1526
 7445SOL     OW29545   3.923   1.897   4.287 -0.1632 -0.4848 -0.2119
 7445SOL    HW229546   3.951   1.985   4.264 -0.3348 -0.0835  1.0360
 7445SOL    HW329547   3.895   1.858   4.204 -1.0211  0.9683 -0.6480
 7445SOL    MW429548   3.923   1.903   4.273 -0.2990 -0.2402 -0.1048
 7446SOL     OW29549   3.934   0.970   0.375 -0.1977 -0.0552 -0.0784
 7446SOL    HW229550   3.856   0.984   0.428  0.0715 -1.0572  0.5919
 7446SOL    HW329551   4.005   0.956   0.438  0.5039  0.6430 -0.6787
 7446SOL    MW429552   3.933   0.970   0.390 -0.0696 -0.0953 -0.0692
 7447SOL     OW29553   2.185   0.683   6.408  0.2270 -0.5240  0.5481
 7447SOL    HW229554   2.165   0.772   6.436 -1.9277 -1.7565  3.4623
 7447SOL    HW329555   2.099   0.643   6.392  1.1454 -2.0017 -1.1457
 7447SOL    MW429556   2.171   0.689   6.409  0.0638 -0.8816  0.7091
 7448SOL     OW29557   0.917   6.268   0.490  0.6549  0.4223 -0.0605
 7448SOL    HW229558   0.928   6.175   0.508  1.1753  0.7711  1.5403
 7448SOL    HW329559   0.975   6.312   0.552  0.9412  1.7989 -1.2493
 7448SOL    MW429560   0.926   6.262   0.500  0.7613  0.6499 -0.0062
 7449SOL     OW29561   1.361   2.012   2.335  0.0029  0.2360 -0.7647
 7449SOL    HW229562   1.339   2.042   2.247 -0.6667  0.3115 -0.5750
 7449SOL    HW329563   1.334   1.919   2.336  2.9880 -0.7421 -1.6858
 7449SOL    MW429564   1.354   2.003   2.323  0.3084  0.1169 -0.8612
 7450SOL     OW29565   1.046   1.775   5.313  0.5432 -0.3014 -0.0710
 7450SOL    HW229566   1.029   1.859   5.270 -0.3013 -0.8628 -0.8808
 7450SOL    HW329567   1.124   1.741   5.270  0.1081 -0.5341 -0.7003
 7450SOL    MW429568   1.054   1.782   5.302  0.3744 -0.4062 -0.2609
 7451SOL     OW29569   2.290   0.380   0.558 -0.4733  0.0748 -0.1119
 7451SOL    HW229570   2.291   0.473   0.580  3.2454  0.5447 -1.5820
 7451SOL    HW329571   2.286   0.335   0.642 -2.0212  1.5045  0.6361
 7451SOL    MW429572   2.290   0.386   0.572 -0.1869  0.3254 -0.2072
 7452SOL     OW29573   0.941   1.877   2.650  0.2129  0.0903 -0.1378
 7452SOL    HW229574   0.892   1.795   2.652 -1.0719  0.8404  0.4930
 7452SOL    HW329575   0.950   1.897   2.556  0.4040 -0.6726 -0.2904
 7452SOL    MW429576   0.936   1.869   2.638  0.0686  0.0886 -0.0747
 7453SOL     OW29577   1.845   0.322   2.102 -0.6243  0.2030  0.4225
 7453SOL    HW229578   1.848   0.269   2.023  1.9643 -0.0067  0.5778
 7453SOL    HW329579   1.801   0.403   2.076 -1.5323 -0.6242 -0.6941
 7453SOL    MW429580   1.840   0.326   2.088 -0.4025  0.0662  0.2956
 7454SOL     OW29581   2.695   2.129   2.084 -0.5000 -0.3108  0.1572
 7454SOL    HW229582   2.664   2.062   2.144  0.9100 -0.3701  0.8516
 7454SOL    HW329583   2.790   2.127   2.092 -0.4109  1.8045  0.2407
 7454SOL    MW429584   2.704   2.120   2.093 -0.3023 -0.0395  0.2598
 7455SOL     OW29585   0.972   3.359   4.981 -0.6121  0.4451 -0.6478
 7455SOL    HW229586   1.021   3.278   4.997 -0.4169  0.5946 -0.4750
 7455SOL    HW329587   1.016   3.399   4.906  0.6348  1.4317  0.5570
 7455SOL    MW429588   0.985   3.354   4.973 -0.4218  0.5950 -0.4660
 7456SOL     OW29589   2.407   2.252   3.723 -0.2982 -0.6033  0.7062
 7456SOL    HW229590   2.477   2.312   3.697 -0.9443 -0.2173 -0.2062
 7456SOL    HW329591   2.394   2.196   3.646 -0.0381 -1.5980  1.3718
 7456SOL    MW429592   2.415   2.253   3.710 -0.3491 -0.6836  0.6737
 7457SOL     OW29593   3.538   3.237   3.002  0.1335  0.3369  0.4765
 7457SOL    HW229594   3.448   3.229   2.971  0.7278 -0.3457 -1.2288
 7457SOL    HW329595   3.533   3.223   3.097 -1.5738  0.6485  0.4563
 7457SOL    MW429596   3.526   3.234   3.010 -0.0134  0.2880  0.2488
 7458SOL     OW29597   2.095   5.615   2.336  0.1016  0.8513  0.0041
 7458SOL    HW229598   2.099   5.693   2.281  2.2261  1.6981  1.2334
 7458SOL    HW329599   2.160   5.631   2.404 -0.7479 -1.1943  1.3871
 7458SOL    MW429600   2.104   5.628   2.338  0.2698  0.6931  0.3487
 7459SOL     OW29601   0.642   4.549   4.200 -0.1126 -0.4517  0.4935
 7459SOL    HW229602   0.703   4.476   4.206 -0.1365 -0.3714  2.1573
 7459SOL    HW329603   0.674   4.612   4.265 -2.9593 -1.2191  2.8798
 7459SOL    MW429604   0.655   4.548   4.209 -0.4913 -0.5424  1.0279
 7460SOL     OW29605   4.190   1.243   4.343  0.3987  0.5174  0.4820
 7460SOL    HW229606   4.217   1.306   4.276  2.7527  0.1771  1.0258
 7460SOL    HW329607   4.170   1.296   4.420  0.0557  0.7368  0.2456
 7460SOL    MW429608   4.191   1.258   4.344  0.6640  0.5015  0.5226
 7461SOL     OW29609   1.454   0.198   4.932 -0.4788 -0.0478  0.2221
 7461SOL    HW229610   1.528   0.210   4.872 -0.5866  0.4591  0.1863
 7461SOL    HW329611   1.480   0.126   4.989  0.6811  1.1060  1.1964
 7461SOL    MW429612   1.467   0.190   4.931 -0.3400  0.1713  0.3459
 7462SOL     OW29613   4.383   1.440   4.926 -0.2129 -0.2322  0.2604
 7462SOL    HW229614   4.409   1.351   4.901 -0.7276 -0.3167 -0.0043
 7462SOL    HW329615   4.460   1.494   4.910  0.0168 -0.5864  0.1615
 7462SOL    MW429616   4.396   1.435   4.921 -0.2505 -0.2901  0.2124
 7463SOL     OW29617   5.530   2.840   2.836  0.2407  0.3038 -0.5245
 7463SOL    HW229618   5.612   2.796   2.860 -1.7864 -2.4626  2.1756
 7463SOL    HW329619   5.487   2.778   2.777 -1.3163  0.0238  0.8255
 7463SOL    MW429620   5.535   2.826   2.831 -0.2322 -0.0981  0.0099
 7464SOL     OW29621   1.839   0.367   0.123  0.4489  0.5329 -0.3470
 7464SOL    HW229622   1.876   0.280   0.106 -0.1314  0.3800 -0.8654
 7464SOL    HW329623   1.844   0.412   0.039  0.5299  0.9294 -0.1357
 7464SOL    MW429624   1.845   0.361   0.110  0.3830  0.5651 -0.3876
 7465SOL     OW29625   4.618   4.711   2.348 -0.1287  0.3293  0.3014
 7465SOL    HW229626   4.698   4.731   2.300  0.0400 -1.6586 -0.3496
 7465SOL    HW329627   4.548   4.746   2.293  0.1574 -0.5237 -0.6309
 7465SOL    MW429628   4.619   4.718   2.334 -0.0687 -0.0455  0.0925
 7466SOL     OW29629   5.151   3.192   4.013 -0.0903  0.2427  0.1047
 7466SOL    HW229630   5.110   3.108   4.034  1.0696  0.0350  1.6688
 7466SOL    HW329631   5.104   3.256   4.066  1.6655 -0.0308  2.1049
 7466SOL    MW429632   5.139   3.189   4.023  0.2944  0.1793  0.5749
 7467SOL     OW29633   0.861   1.189   1.467 -0.3480  0.5804  0.4118
 7467SOL    HW229634   0.953   1.215   1.478 -0.1359  0.1576 -0.3169
 7467SOL    HW329635   0.822   1.202   1.553  1.1470 -2.2811  1.6276
 7467SOL    MW429636   0.868   1.194   1.480 -0.1228  0.1471  0.4761
 7468SOL     OW29637   5.756   1.592   1.053  0.1660 -0.1243  0.2494
 7468SOL    HW229638   5.816   1.600   1.126 -0.9798 -0.3377  1.2459
 7468SOL    HW329639   5.781   1.510   1.010  1.2516  0.3208 -0.0034
 7468SOL    MW429640   5.767   1.582   1.057  0.1581 -0.0937  0.3475
 7469SOL     OW29641   2.223   4.920   1.897  0.1835  0.0452  0.2870
 7469SOL    HW229642   2.227   4.858   1.824 -1.5843 -1.2978  1.2398
 7469SOL    HW329643   2.304   4.906   1.945  0.2115 -0.9168 -0.0187
 7469SOL    MW429644   2.234   4.910   1.894 -0.0460 -0.2589  0.3724
 7470SOL     OW29645   6.122   0.094   3.219  0.2589  0.4824 -0.0617
 7470SOL    HW229646   6.155   0.010   3.248 -0.5494 -0.2445 -1.1742
 7470SOL    HW329647   6.039   0.105   3.265  0.6370  0.9699  0.5327
 7470SOL    MW429648   6.115   0.085   3.229  0.2021  0.4508 -0.1301
 7471SOL     OW29649   4.912   3.897   0.735  0.7025 -0.0361 -0.2485
 7471SOL    HW229650   4.912   3.967   0.801 -0.5059 -0.4843  0.2437
 7471SOL    HW329651   4.951   3.822   0.779  0.6796 -0.0856 -0.3122
 7471SOL    MW429652   4.917   3.897   0.749  0.5401 -0.1018 -0.1920
 7472SOL     OW29653   2.405   4.925   0.507  0.0466 -0.0938  0.1660
 7472SOL    HW229654   2.380   4.881   0.426 -1.1756 -0.6607  0.8199
 7472SOL    HW329655   2.321   4.946   0.550  0.6342 -1.5067  2.1733
 7472SOL    MW429656   2.391   4.922   0.502 -0.0371 -0.3550  0.5171
 7473SOL     OW29657   3.782   3.904   4.383  0.7557  0.5155  0.2093
 7473SOL    HW229658   3.715   3.885   4.317 -1.9388  0.4990  2.7313
 7473SOL    HW329659   3.788   3.999   4.384  2.9782  0.5030 -1.9101
 7473SOL    MW429660   3.774   3.914   4.374  0.6934  0.5116  0.2624
 7474SOL     OW29661   5.201   5.277   5.123  0.3699 -0.3138 -0.8739
 7474SOL    HW229662   5.153   5.335   5.183  0.2348  0.8831 -2.0844
 7474SOL    HW329663   5.134   5.241   5.066  0.5267 -1.2549 -0.4745
 7474SOL    MW429664   5.186   5.280   5.123  0.3728 -0.2801 -0.9809
 7475SOL     OW29665   2.554   0.619   3.616 -0.4199 -0.0782  0.5521
 7475SOL    HW229666   2.579   0.580   3.700  1.2423 -0.2676  0.0032
 7475SOL    HW329667   2.567   0.549   3.552 -0.5592  0.4122 -0.0274
 7475SOL    MW429668   2.559   0.604   3.619 -0.2190 -0.0385  0.4032
 7476SOL     OW29669   0.278   5.507   3.136 -0.1577  0.2858  0.0058
 7476SOL    HW229670   0.186   5.493   3.110 -0.7952  2.1702  1.0728
 7476SOL    HW329671   0.304   5.587   3.092  1.2912 -0.6540 -0.9300
 7476SOL    MW429672   0.269   5.516   3.127 -0.0506  0.4105  0.0231
 7477SOL     OW29673   2.691   4.784   4.412 -0.2013  0.1956 -0.3363
 7477SOL    HW229674   2.622   4.817   4.470  2.9118  1.6963  2.9438
 7477SOL    HW329675   2.698   4.691   4.433 -0.3414  0.3338  0.3443
 7477SOL    MW429676   2.683   4.776   4.423  0.1909  0.4118  0.1863
 7478SOL     OW29677   5.584   4.575   1.689 -0.3650  0.3591  0.1762
 7478SOL    HW229678   5.588   4.522   1.609  2.2248 -0.3156  0.6643
 7478SOL    HW329679   5.545   4.657   1.661  1.9349  0.7666 -2.2639
 7478SOL    MW429680   5.580   4.579   1.675  0.2801  0.3238 -0.0813
 7479SOL     OW29681   6.399   6.000   2.025 -0.6518 -0.1260  0.4038
 7479SOL    HW229682   6.365   6.082   1.989  0.2331  0.0458 -0.0822
 7479SOL    HW329683   6.345   5.983   2.103 -0.7069  1.0312  0.6318
 7479SOL    MW429684   6.387   6.009   2.031 -0.5423  0.0494  0.3698
 7480SOL     OW29685   6.285   5.128   3.546  0.2766 -0.0283 -0.2470
 7480SOL    HW229686   6.374   5.156   3.565  0.4466 -0.5222 -0.3065
 7480SOL    HW329687   6.287   5.033   3.555 -0.4173  0.0190  0.4580
 7480SOL    MW429688   6.297   5.119   3.549  0.2074 -0.0872 -0.1619
 7481SOL     OW29689   3.807   5.998   5.400  0.0879 -0.7084 -0.1605
 7481SOL    HW229690   3.775   5.946   5.474  0.7726 -0.9874 -0.0562
 7481SOL    HW329691   3.818   5.934   5.330  1.3274 -0.7815  0.0901
 7481SOL    MW429692   3.804   5.982   5.401  0.3418 -0.7549 -0.1137
 7482SOL     OW29693   2.482   4.141   2.233 -0.0854 -0.3541 -0.1628
 7482SOL    HW229694   2.394   4.150   2.268  0.9540  1.4384  2.2453
 7482SOL    HW329695   2.470   4.091   2.152 -3.5114  1.3231 -0.8841
 7482SOL    MW429696   2.469   4.136   2.227 -0.4003  0.1037  0.0597
 7483SOL     OW29697   3.749   0.397   3.501  0.8692 -0.0410  0.3525
 7483SOL    HW229698   3.675   0.455   3.518 -0.2789 -0.8939 -1.3929
 7483SOL    HW329699   3.823   0.455   3.490 -0.4498  1.3309 -2.5136
 7483SOL    MW429700   3.749   0.412   3.502  0.5437  0.0275 -0.2559
 7484SOL     OW29701   3.341   5.541   3.907 -0.0418  0.3984  0.1450
 7484SOL    HW229702   3.278   5.588   3.852  0.8422  1.5403  0.0710
 7484SOL    HW329703   3.302   5.455   3.920 -0.7063  0.4170 -1.5023
 7484SOL    MW429704   3.327   5.536   3.901 -0.0128  0.5515 -0.0821
 7485SOL     OW29705   3.106   2.052   0.376  0.3136 -0.1207 -0.1085
 7485SOL    HW229706   3.033   1.993   0.396  1.3411 -2.3713 -2.4433
 7485SOL    HW329707   3.067   2.120   0.321 -0.4758  0.2233  0.8347
 7485SOL    MW429708   3.091   2.054   0.372  0.3450 -0.3722 -0.2921
 7486SOL     OW29709   3.556   0.164   4.286  0.0550 -0.6448 -0.5781
 7486SOL    HW229710   3.486   0.118   4.240 -0.7991 -0.2425  0.2975
 7486SOL    HW329711   3.628   0.166   4.223 -1.2524  0.3665 -2.1455
 7486SOL    MW429712   3.556   0.158   4.272 -0.2302 -0.4582 -0.6694
 7487SOL     OW29713   0.475   2.656   3.835  0.6075 -0.8449 -0.3497
 7487SOL    HW229714   0.390   2.651   3.878  0.9183  1.6771  0.7503
 7487SOL    HW329715   0.475   2.741   3.792  2.2553 -1.1790 -1.0760
 7487SOL    MW429716   0.464   2.666   3.835  0.8660 -0.5563 -0.3004
 7488SOL     OW29717   2.773   3.054   5.950  0.0986 -0.2217  0.2615
 7488SOL    HW229718   2.699   3.070   6.008 -1.3772 -0.4496 -1.4758
 7488SOL    HW329719   2.782   3.135   5.899  2.4727  0.6433  1.8501
 7488SOL    MW429720   2.765   3.067   5.951  0.2171 -0.1377  0.2419
 7489SOL     OW29721   3.952   1.269   1.886  0.6556 -0.2330 -0.3152
 7489SOL    HW229722   3.968   1.210   1.960  0.0984 -0.1947 -0.1599
 7489SOL    HW329723   3.982   1.221   1.809  1.3202 -0.2392 -0.0581
 7489SOL    MW429724   3.959   1.255   1.886  0.6698 -0.2288 -0.2608
 7490SOL     OW29725   3.051   4.465   0.590 -0.0126  0.3588 -0.4083
 7490SOL    HW229726   2.970   4.502   0.554 -0.3181 -0.5180 -0.6601
 7490SOL    HW329727   3.022   4.387   0.637  0.5014  0.9490  0.9214
 7490SOL    MW429728   3.036   4.459   0.592  0.0149  0.3210 -0.2661
 7491SOL     OW29729   6.169   2.389   5.262 -0.0093 -0.2844 -0.0480
 7491SOL    HW229730   6.164   2.301   5.300  0.0394 -0.4040 -0.3169
 7491SOL    HW329731   6.078   2.421   5.263 -0.3911 -1.1705 -1.8942
 7491SOL    MW429732   6.156   2.382   5.267 -0.0532 -0.4171 -0.3271
 7492SOL     OW29733   4.650   4.324   2.127 -0.2203 -0.3932  0.1046
 7492SOL    HW229734   4.595   4.326   2.205 -0.4930 -0.6493 -0.0791
 7492SOL    HW329735   4.660   4.416   2.102  1.0932 -0.1815  1.2911
 7492SOL    MW429736   4.644   4.336   2.134 -0.0830 -0.3991  0.2369
 7493SOL     OW29737   6.071   5.208   5.033  0.3179  0.3193  0.9175
 7493SOL    HW229738   6.092   5.301   5.023  1.4320  0.2758  2.3863
 7493SOL    HW329739   6.006   5.206   5.103  0.2803 -0.0057  0.8752
 7493SOL    MW429740   6.065   5.220   5.041  0.4599  0.2707  1.1057
 7494SOL     OW29741   4.815   5.430   1.419 -0.4366 -0.7085 -0.4461
 7494SOL    HW229742   4.791   5.374   1.493  0.6671  0.4229  0.8298
 7494SOL    HW329743   4.809   5.519   1.454  2.3160 -0.2199 -0.9893
 7494SOL    MW429744   4.811   5.435   1.434  0.0722 -0.4948 -0.3494
 7495SOL     OW29745   3.999   5.890   4.987 -0.4412  0.0359 -0.2249
 7495SOL    HW229746   4.011   5.888   4.892 -0.6904  1.0804 -0.2958
 7495SOL    HW329747   4.035   5.975   5.014  0.7642 -0.7644  0.7982
 7495SOL    MW429748   4.005   5.901   4.978 -0.3151  0.0681 -0.0992
 7496SOL     OW29749   4.112   1.544   5.078 -0.2162 -0.2547  0.0110
 7496SOL    HW229750   4.202   1.515   5.068 -0.1761 -0.7443  1.5633
 7496SOL    HW329751   4.063   1.494   5.013  0.5413 -0.3671 -0.4825
 7496SOL    MW429752   4.117   1.534   5.068 -0.1110 -0.3341  0.1507
 7497SOL     OW29753   3.801   3.375   3.712  0.2217 -0.0006 -0.0663
 7497SOL    HW229754   3.857   3.386   3.789 -0.4677 -0.4880  0.5167
 7497SOL    HW329755   3.714   3.403   3.742 -1.2243 -4.6211  0.8906
 7497SOL    MW429756   3.797   3.380   3.727 -0.0600 -0.6745  0.1369
 7498SOL     OW29757   3.599   4.953   1.727  0.3778 -0.1329 -0.5229
 7498SOL    HW229758   3.686   4.965   1.766  0.0834 -3.0193  1.2879
 7498SOL    HW329759   3.615   4.896   1.652 -0.0352 -1.8992  0.6714
 7498SOL    MW429760   3.613   4.947   1.722  0.2844 -0.7468 -0.1264
 7499SOL     OW29761   5.014   5.992   1.714 -0.6667  1.2531 -0.1737
 7499SOL    HW229762   5.082   5.959   1.656 -1.2344  1.7902 -1.1601
 7499SOL    HW329763   4.953   6.037   1.657 -2.0031  0.5614  0.6490
 7499SOL    MW429764   5.015   5.993   1.699 -0.9179  1.2327 -0.1953
 7500SOL     OW29765   4.189   6.069   2.189  0.1477 -0.0055 -0.2951
 7500SOL    HW229766   4.155   6.094   2.103  0.1120  1.6612  0.1732
 7500SOL    HW329767   4.246   6.142   2.214 -0.1740 -0.2704  1.2846
 7500SOL    MW429768   4.192   6.082   2.181  0.1005  0.1795 -0.0249
 7501SOL     OW29769   3.036   6.310   2.941 -0.6231  0.0268 -0.4344
 7501SOL    HW229770   3.031   6.399   2.907 -1.5980  0.2879  0.3375
 7501SOL    HW329771   3.064   6.257   2.867 -0.2406  0.9413 -0.9573
 7501SOL    MW429772   3.039   6.315   2.927 -0.7013  0.1819 -0.4015
 7502SOL     OW29773   2.337   5.203   1.729  0.1963  0.4615 -0.3934
 7502SOL    HW229774   2.327   5.252   1.811  0.1987  0.3795 -0.3443
 7502SOL    HW329775   2.429   5.179   1.727  0.5171  1.6745 -1.1030
 7502SOL    MW429776   2.348   5.207   1.740  0.2389  0.6107 -0.4805
 7503SOL     OW29777   0.538   2.379   5.824 -0.2237  0.0607 -0.0825
 7503SOL    HW229778   0.467   2.326   5.787 -1.1853  1.0312  0.3233
 7503SOL    HW329779   0.585   2.412   5.748 -1.0148  0.4676 -0.4150
 7503SOL    MW429780   0.534   2.376   5.809 -0.4549  0.2424 -0.0728
 7504SOL     OW29781   2.230   5.575   4.610  0.0713  0.6142  0.1525
 7504SOL    HW229782   2.275   5.509   4.556  0.3709  0.6989  0.2989
 7504SOL    HW329783   2.300   5.630   4.644  0.0245 -0.2618  1.7651
 7504SOL    MW429784   2.245   5.574   4.607  0.1046  0.5098  0.3846
 7505SOL     OW29785   4.077   2.948   1.589  0.4483 -0.3838 -0.3615
 7505SOL    HW229786   4.070   2.881   1.657 -0.8999 -0.6402 -0.7296
 7505SOL    HW329787   4.073   3.031   1.637 -1.4613 -0.5493 -0.1782
 7505SOL    MW429788   4.076   2.950   1.604  0.0185 -0.4395 -0.3859
 7506SOL     OW29789   4.740   2.187   2.739  0.4040 -0.5433 -0.5231
 7506SOL    HW229790   4.735   2.110   2.796 -0.4350  0.4862  0.8693
 7506SOL    HW329791   4.766   2.152   2.654  1.9704 -2.1280  0.5300
 7506SOL    MW429792   4.743   2.172   2.736  0.5000 -0.6166 -0.2004
 7507SOL     OW29793   1.467   3.885   5.448  0.1416  0.4645 -0.0008
 7507SOL    HW229794   1.505   3.964   5.486 -0.6191  0.9034 -0.1376
 7507SOL    HW329795   1.517   3.871   5.367 -0.0290  1.0728 -0.2166
 7507SOL    MW429796   1.479   3.893   5.442  0.0187  0.6027 -0.0473
 7508SOL     OW29797   1.566   3.797   5.740  0.0337 -0.0426  0.2056
 7508SOL    HW229798   1.525   3.758   5.663 -0.3659  0.1482  0.3219
 7508SOL    HW329799   1.513   3.874   5.759  1.4171  1.1542 -0.6324
 7508SOL    MW429800   1.554   3.802   5.732  0.1635  0.1405  0.1104
 7509SOL     OW29801   0.388   4.070   5.731  0.3965  0.2433  0.6715
 7509SOL    HW229802   0.426   4.134   5.672  0.4009  0.0773  0.4946
 7509SOL    HW329803   0.380   3.990   5.679 -0.9898  0.5095  0.4458
 7509SOL    MW429804   0.392   4.068   5.717  0.2142  0.2566  0.6184
 7510SOL     OW29805   2.159   4.607   1.510  0.2857 -0.4019 -0.2704
 7510SOL    HW229806   2.156   4.702   1.497  0.5011 -0.5841 -1.8020
 7510SOL    HW329807   2.074   4.575   1.480  0.0213 -0.6717  0.7025
 7510SOL    MW429808   2.148   4.615   1.505  0.2792 -0.4616 -0.3441
 7511SOL     OW29809   2.747   0.654   6.300 -0.4518  0.1801  0.8965
 7511SOL    HW229810   2.792   0.736   6.281  0.2177 -0.2271  0.6695
 7511SOL    HW329811   2.654   0.674   6.290 -0.2647  0.7700  0.2700
 7511SOL    MW429812   2.741   0.667   6.296 -0.3388  0.2042  0.7839
 7512SOL     OW29813   5.658   2.355   0.351 -0.1440  0.4828 -0.1077
 7512SOL    HW229814   5.589   2.324   0.409 -1.0872  0.7330 -1.0574
 7512SOL    HW329815   5.736   2.358   0.406 -1.0693  1.0491  1.2484
 7512SOL    MW429816   5.659   2.352   0.366 -0.3905  0.5905 -0.0540
 7513SOL     OW29817   2.082   1.609   0.664  0.9606 -0.0306  0.4229
 7513SOL    HW229818   2.169   1.584   0.697  1.1985 -1.3029 -1.0437
 7513SOL    HW329819   2.021   1.555   0.714  0.9889  0.8766  1.4682
 7513SOL    MW429820   2.085   1.599   0.675  0.9957 -0.0788  0.3673
 7514SOL     OW29821   0.838   1.142   2.810  0.1517  1.5117  0.2400
 7514SOL    HW229822   0.761   1.158   2.865 -0.7879 -0.6142 -0.3426
 7514SOL    HW329823   0.850   1.048   2.813  2.6656  1.7723  0.1420
 7514SOL    MW429824   0.829   1.132   2.818  0.3594  1.2656  0.1502
 7515SOL     OW29825   3.085   4.237   0.783 -0.2805 -0.2042  0.3925
 7515SOL    HW229826   3.015   4.173   0.794 -0.0348 -0.4746  0.3941
 7515SOL    HW329827   3.164   4.192   0.813  0.3025 -0.7521 -1.7629
 7515SOL    MW429828   3.087   4.223   0.788 -0.1712 -0.3122  0.1083
 7516SOL     OW29829   5.686   6.386   2.186  0.3320  0.2253 -0.2632
 7516SOL    HW229830   5.698   6.374   2.092  2.7938  0.3325 -0.0388
 7516SOL    HW329831   5.761   6.342   2.225 -1.2917 -0.9425  1.7739
 7516SOL    MW429832   5.697   6.379   2.179  0.4426  0.0854  0.0352
 7517SOL     OW29833   1.562   3.052   0.871 -0.0563  0.0897  0.1215
 7517SOL    HW229834   1.516   3.032   0.790  0.4186  0.4445 -0.2419
 7517SOL    HW329835   1.558   2.971   0.922  1.1599 -0.7158 -0.9997
 7517SOL    MW429836   1.555   3.039   0.867  0.1668  0.0302 -0.0744
 7518SOL     OW29837   4.968   5.148   5.685  0.4176 -0.0597 -0.0680
 7518SOL    HW229838   5.013   5.209   5.626 -0.1013 -0.6442 -1.0875
 7518SOL    HW329839   5.005   5.167   5.772  1.8030  0.2394 -0.7015
 7518SOL    MW429840   4.979   5.159   5.689  0.5320 -0.0974 -0.2861
 7519SOL     OW29841   0.746   1.682   3.319  0.8287  0.3421  0.4811
 7519SOL    HW229842   0.746   1.588   3.301 -2.1972  0.3433 -0.1440
 7519SOL    HW329843   0.805   1.719   3.254 -1.3319 -0.7710 -2.3245
 7519SOL    MW429844   0.754   1.674   3.308  0.1444  0.1954  0.0285
 7520SOL     OW29845   5.511   3.560   5.398 -0.4834 -0.6802 -0.0740
 7520SOL    HW229846   5.564   3.590   5.324  0.8892 -2.3389  0.1495
 7520SOL    HW329847   5.503   3.636   5.455  0.7453 -0.0829 -0.6597
 7520SOL    MW429848   5.517   3.574   5.396 -0.1402 -0.8203 -0.1218
 7521SOL     OW29849   2.735   4.828   1.814 -0.5758  0.0108  0.5483
 7521SOL    HW229850   2.686   4.908   1.831 -2.3353 -0.8671 -0.1503
 7521SOL    HW329851   2.669   4.764   1.785  0.4601 -2.2648  2.7775
 7521SOL    MW429852   2.720   4.830   1.812 -0.6713 -0.4052  0.7502
 7522SOL     OW29853   2.105   2.132   5.130  0.0915 -0.2734  0.2997
 7522SOL    HW229854   2.135   2.207   5.078 -0.6043 -0.3989 -0.2974
 7522SOL    HW329855   2.064   2.172   5.207  0.7271 -0.0762  0.5456
 7522SOL    MW429856   2.104   2.147   5.133  0.0835 -0.2639  0.2533
 7523SOL     OW29857   3.093   3.290   3.218  0.0251  0.4706  0.0028
 7523SOL    HW229858   3.133   3.247   3.293 -1.8795 -0.6044  0.4953
 7523SOL    HW329859   3.145   3.261   3.143 -0.6423 -2.1204  0.4253
 7523SOL    MW429860   3.105   3.280   3.218 -0.3143 -0.0131  0.1235
 7524SOL     OW29861   0.067   0.273   4.777 -0.0285 -0.6550 -0.5907
 7524SOL    HW229862   0.113   0.190   4.784 -0.1405 -0.5827  1.3370
 7524SOL    HW329863   0.121   0.335   4.826 -0.2403  0.3125 -1.5122
 7524SOL    MW429864   0.080   0.270   4.784 -0.0712 -0.5178 -0.4579
 7525SOL     OW29865   0.189   2.859   5.392  0.0558  0.1645 -0.1272
 7525SOL    HW229866   0.155   2.896   5.473  0.5306  0.4302 -0.0416
 7525SOL    HW329867   0.125   2.884   5.325 -0.0055  0.5032  0.0559
 7525SOL    MW429868   0.176   2.867   5.394  0.1103  0.2442 -0.0917
 7526SOL     OW29869   0.378   0.129   0.848 -0.2810 -0.2181 -0.2554
 7526SOL    HW229870   0.402   0.036   0.852  2.0117  0.3434  0.5205
 7526SOL    HW329871   0.389   0.160   0.938  0.5155  1.1334 -0.7913
 7526SOL    MW429872   0.383   0.121   0.860  0.1266  0.0343 -0.2238
 7527SOL     OW29873   2.624   0.888   3.453  0.0506  0.6987  0.5036
 7527SOL    HW229874   2.584   0.834   3.521 -1.1540  1.7302  0.6445
 7527SOL    HW329875   2.681   0.948   3.501 -0.5448  1.2046  0.5971
 7527SOL    MW429876   2.626   0.889   3.468 -0.1869  0.9015  0.5345
 7528SOL     OW29877   0.297   0.351   3.690  0.3268  0.4322 -0.1880
 7528SOL    HW229878   0.322   0.397   3.610 -2.9178 -0.1194 -1.6928
 7528SOL    HW329879   0.278   0.421   3.753  1.1338  0.9259 -0.4752
 7528SOL    MW429880   0.298   0.367   3.688  0.0052  0.4246 -0.4244
 7529SOL     OW29881   3.798   5.909   2.681  0.0112  0.1812 -0.4678
 7529SOL    HW229882   3.715   5.891   2.637 -0.6720  2.3256 -0.1835
 7529SOL    HW329883   3.812   5.834   2.738 -0.6228 -1.2214 -2.0823
 7529SOL    MW429884   3.789   5.897   2.683 -0.1626  0.2791 -0.6433
 7530SOL     OW29885   4.479   3.374   2.436  0.8188  0.3830 -0.1771
 7530SOL    HW229886   4.495   3.281   2.449  0.3087  0.2127 -0.7528
 7530SOL    HW329887   4.469   3.384   2.341 -1.8323  0.5597  0.0336
 7530SOL    MW429888   4.480   3.363   2.425  0.4018  0.3838 -0.2252
 7531SOL     OW29889   4.607   5.644   2.467  0.0686 -0.1136  0.4004
 7531SOL    HW229890   4.643   5.686   2.389  2.3110 -2.3992  0.0881
 7531SOL    HW329891   4.680   5.640   2.528 -0.5035 -2.0248  1.0257
 7531SOL    MW429892   4.621   5.649   2.465  0.2890 -0.6674  0.4417
 7532SOL     OW29893   4.287   5.829   0.383  0.2066 -0.3849 -0.3110
 7532SOL    HW229894   4.293   5.894   0.314 -1.6617 -0.4155 -0.5418
 7532SOL    HW329895   4.259   5.749   0.339 -1.5089 -0.2808  0.4981
 7532SOL    MW429896   4.284   5.827   0.368 -0.2662 -0.3752 -0.2347
 7533SOL     OW29897   4.353   1.213   0.540  0.0675  0.0582  0.4529
 7533SOL    HW229898   4.424   1.193   0.479 -0.3593 -1.6514  0.4595
 7533SOL    HW329899   4.361   1.307   0.557  0.3666  0.5383 -2.0075
 7533SOL    MW429900   4.364   1.223   0.535  0.0507 -0.1040  0.1291
 7534SOL     OW29901   3.311   0.233   5.270 -0.0501 -0.1690  0.0894
 7534SOL    HW229902   3.255   0.213   5.195  0.6421 -0.3439 -0.3831
 7534SOL    HW329903   3.311   0.152   5.322  1.5051 -0.9278 -1.0326
 7534SOL    MW429904   3.304   0.219   5.267  0.2464 -0.2922 -0.1210
 7535SOL     OW29905   0.693   0.471   0.845 -0.8630 -0.1556  0.2242
 7535SOL    HW229906   0.687   0.375   0.846 -1.6711 -0.1073  0.8906
 7535SOL    HW329907   0.712   0.492   0.754  4.1223 -1.1722  0.7543
 7535SOL    MW429908   0.694   0.461   0.833 -0.3119 -0.2833  0.3820
 7536SOL     OW29909   0.708   5.293   1.081  0.3368  0.2205  0.2483
 7536SOL    HW229910   0.629   5.335   1.046  0.6651  0.0562 -0.7128
 7536SOL    HW329911   0.721   5.216   1.025  0.8273 -0.0941  0.7898
 7536SOL    MW429912   0.699   5.288   1.069  0.4448  0.1573  0.1929
 7537SOL     OW29913   2.196   0.264   5.174  0.2026 -0.5858  0.3105
 7537SOL    HW229914   2.213   0.201   5.244  1.0982  0.4897  1.1154
 7537SOL    HW329915   2.156   0.339   5.218 -0.7289 -0.5313 -0.5993
 7537SOL    MW429916   2.193   0.266   5.189  0.1978 -0.4367  0.2967
 7538SOL     OW29917   0.508   0.985   4.788  0.1628  0.2597 -0.4897
 7538SOL    HW229918   0.448   1.033   4.845 -0.1799 -0.9468  0.1765
 7538SOL    HW329919   0.557   1.054   4.742  0.2535  1.2585  1.0430
 7538SOL    MW429920   0.507   1.001   4.789  0.1296  0.2323 -0.1996
 7539SOL     OW29921   4.437   6.297   1.678 -0.0465  0.6167 -0.7808
 7539SOL    HW229922   4.453   6.208   1.646 -1.7156 -0.3326  0.8073
 7539SOL    HW329923   4.516   6.318   1.729  0.9328  0.6123 -2.2359
 7539SOL    MW429924   4.450   6.288   1.681 -0.1375  0.4909 -0.7632
 7540SOL     OW29925   2.290   4.872   2.878  0.2966  0.0608  0.1471
 7540SOL    HW229926   2.197   4.872   2.901  0.6848 -0.2412  1.8142
 7540SOL    HW329927   2.300   4.798   2.818 -0.6588  0.5516 -0.6390
 7540SOL    MW429928   2.279   4.863   2.873  0.2218  0.0857  0.2634
 7541SOL     OW29929   2.197   4.550   2.200 -0.8719 -0.8366 -0.1820
 7541SOL    HW229930   2.225   4.461   2.178 -0.5347 -0.7484 -0.1265
 7541SOL    HW329931   2.278   4.594   2.228 -0.7872 -0.1578 -1.3969
 7541SOL    MW429932   2.212   4.544   2.201 -0.8162 -0.7354 -0.3350
 7542SOL     OW29933   3.285   3.475   3.787 -0.0233  0.3830 -0.0630
 7542SOL    HW229934   3.380   3.467   3.793  0.1474  1.3681 -1.1435
 7542SOL    HW329935   3.253   3.386   3.796  0.8717  0.2180  2.0786
 7542SOL    MW429936   3.293   3.462   3.789  0.1173  0.4912  0.0770
 7543SOL     OW29937   3.462   4.937   0.928  0.1918  0.2092  0.3196
 7543SOL    HW229938   3.465   4.984   0.844 -2.1935 -1.5823 -0.9095
 7543SOL    HW329939   3.552   4.939   0.960  1.0392  1.6289 -1.9168
 7543SOL    MW429940   3.474   4.943   0.921 -0.0111  0.1601 -0.1376
 7544SOL     OW29941   2.088   4.421   0.322  0.2446  0.3898  0.2128
 7544SOL    HW229942   2.041   4.398   0.402  0.2173  0.1206  0.1205
 7544SOL    HW329943   2.153   4.485   0.350 -0.5171  1.1631  0.2475
 7544SOL    MW429944   2.090   4.426   0.336  0.1405  0.4563  0.2052
 7545SOL     OW29945   2.820   1.932   3.081  0.0870  0.0948 -0.0699
 7545SOL    HW229946   2.766   1.974   3.014  0.6131  2.0196  0.6608
 7545SOL    HW329947   2.837   1.845   3.045 -1.2386  0.3862 -1.5462
 7545SOL    MW429948   2.815   1.926   3.067 -0.0185  0.3872 -0.1683
 7546SOL     OW29949   2.102   1.322   0.758 -0.2236 -0.0999  0.0302
 7546SOL    HW229950   2.084   1.228   0.763 -1.7322  0.0773 -1.0484
 7546SOL    HW329951   2.175   1.336   0.817 -0.5648 -1.8021  0.9254
 7546SOL    MW429952   2.109   1.311   0.766 -0.4677 -0.3011  0.0060
 7547SOL     OW29953   5.446   3.365   6.222  0.5785 -0.7093 -0.2953
 7547SOL    HW229954   5.507   3.311   6.272 -1.0883 -2.6335 -0.2353
 7547SOL    HW329955   5.501   3.409   6.156  2.4316  0.0364  1.6510
 7547SOL    MW429956   5.461   3.364   6.220  0.6031 -0.8648 -0.0306
 7548SOL     OW29957   5.101   5.946   6.300 -0.2656 -0.0832 -0.4142
 7548SOL    HW229958   5.042   6.017   6.326  0.8163  0.6729  0.0956
 7548SOL    HW329959   5.189   5.982   6.315  0.3826 -2.5025  2.7039
 7548SOL    MW429960   5.105   5.960   6.306 -0.0374 -0.3026  0.0644
 7549SOL     OW29961   2.163   1.412   2.261 -0.2185 -0.0038 -0.1523
 7549SOL    HW229962   2.156   1.325   2.301 -1.7284 -0.1541 -0.6695
 7549SOL    HW329963   2.108   1.468   2.315 -1.0470  0.1188 -1.0815
 7549SOL    MW429964   2.155   1.408   2.273 -0.5270 -0.0074 -0.3432
 7550SOL     OW29965   6.329   1.986   5.881 -0.0266 -0.6428 -0.1875
 7550SOL    HW229966   6.261   1.981   5.949 -0.9984  0.6506 -1.0153
 7550SOL    HW329967   6.408   1.954   5.924 -0.6329  0.0761  1.5487
 7550SOL    MW429968   6.331   1.982   5.896 -0.2348 -0.3773 -0.0677
 7551SOL     OW29969   6.343   1.254   3.441 -0.2202  0.3619  0.2603
 7551SOL    HW229970   6.378   1.236   3.354 -0.4391 -0.2566  0.2921
 7551SOL    HW329971   6.249   1.262   3.427 -0.9679 -4.2227  0.9918
 7551SOL    MW429972   6.335   1.253   3.428 -0.3478 -0.3246  0.3610
 7552SOL     OW29973   5.616   6.456   4.223  0.4440  0.9733 -0.3439
 7552SOL    HW229974   5.532   6.422   4.253  0.8146  0.5232  0.2166
 7552SOL    HW329975   5.666   6.472   4.303  0.4216  2.5351 -0.5990
 7552SOL    MW429976   5.612   6.454   4.237  0.4899  1.1200 -0.3036
 7553SOL     OW29977   4.500   3.205   5.148 -0.3745 -0.1599 -0.4251
 7553SOL    HW229978   4.591   3.182   5.131 -0.1160  1.3911 -1.3155
 7553SOL    HW329979   4.504   3.262   5.225 -0.3808  1.1784 -1.3785
 7553SOL    MW429980   4.512   3.210   5.156 -0.3412  0.2213 -0.6683
 7554SOL     OW29981   5.364   4.349   1.557  0.1479  0.3415 -0.1024
 7554SOL    HW229982   5.291   4.327   1.499  0.8884 -1.3645 -0.4567
 7554SOL    HW329983   5.427   4.393   1.500 -1.1696  3.2590  0.5236
 7554SOL    MW429984   5.363   4.352   1.542  0.0717  0.5013 -0.0666
 7555SOL     OW29985   3.265   0.115   0.190 -0.1573 -0.0930  0.8491
 7555SOL    HW229986   3.268   0.138   0.283  0.8879 -1.2609  1.1406
 7555SOL    HW329987   3.297   0.024   0.187  0.4446  0.1360 -0.7247
 7555SOL    MW429988   3.270   0.106   0.202  0.0600 -0.2169  0.6799
 7556SOL     OW29989   1.952   0.581   6.330  0.1363  0.8705 -0.3906
 7556SOL    HW229990   1.920   0.652   6.274  0.5185  0.5300 -1.0619
 7556SOL    HW329991   1.965   0.508   6.270 -0.0483  0.3002  0.2590
 7556SOL    MW429992   1.950   0.581   6.314  0.1623  0.7503 -0.3934
 7557SOL     OW29993   1.850   4.602   4.792  0.2729 -0.1102 -0.6334
 7557SOL    HW229994   1.829   4.610   4.699 -0.4531  1.8058 -0.3441
 7557SOL    HW329995   1.943   4.621   4.798  0.6471 -1.6385 -1.0959
 7557SOL    MW429996   1.859   4.606   4.780  0.2265 -0.0590 -0.6563
 7558SOL     OW29997   4.963   1.196   0.706  0.0923  0.5797 -0.4895
 7558SOL    HW229998   5.006   1.163   0.785 -0.2957  0.9649 -0.1119
 7558SOL    HW329999   4.926   1.280   0.733 -0.5158  0.4544 -0.9346
 7558SOL    MW430000   4.964   1.203   0.720 -0.0391  0.6140 -0.4984
 7559SOL     OW30001   3.449   4.967   5.164  0.4946  0.0221  0.2841
 7559SOL    HW230002   3.402   4.899   5.212  1.2892 -0.5764  0.2455
 7559SOL    HW330003   3.487   5.022   5.232  0.9658 -0.3677  0.3446
 7559SOL    MW430004   3.448   4.965   5.179  0.6616 -0.1083  0.2870
 7560SOL     OW30005   4.631   4.296   4.945  0.4191 -1.1780 -0.4781
 7560SOL    HW230006   4.619   4.233   5.016 -1.7188 -0.6203 -0.2848
 7560SOL    HW330007   4.568   4.270   4.878  1.0265 -0.5175 -1.3465
 7560SOL    MW430008   4.621   4.284   4.945  0.2171 -1.0172 -0.5671
 7561SOL     OW30009   0.699   4.199   4.503 -0.0996 -0.2539 -0.1335
 7561SOL    HW230010   0.634   4.269   4.498  0.0594  0.1893  2.5722
 7561SOL    HW330011   0.730   4.188   4.413 -2.0799  1.2540 -1.0658
 7561SOL    MW430012   0.694   4.207   4.490 -0.3399  0.0036  0.1005
 7562SOL     OW30013   0.249   1.199   2.973  0.0884 -0.4413  0.0226
 7562SOL    HW230014   0.298   1.236   2.900  1.2277 -2.0195 -0.0568
 7562SOL    HW330015   0.253   1.266   3.041  1.2392 -0.0027 -0.4534
 7562SOL    MW430016   0.256   1.213   2.972  0.3906 -0.5916 -0.0507
 7563SOL     OW30017   2.429   0.712   0.109 -0.0532  0.2418  0.2290
 7563SOL    HW230018   2.369   0.702   0.035 -0.5738 -1.0648  0.8007
 7563SOL    HW330019   2.498   0.770   0.076 -1.3384  1.3721 -0.5969
 7563SOL    MW430020   2.430   0.719   0.095 -0.2915  0.2185  0.1954
 7564SOL     OW30021   2.154   6.196   2.989 -0.0002 -0.1669  0.5326
 7564SOL    HW230022   2.123   6.199   2.899  2.6923  1.1954 -0.4757
 7564SOL    HW330023   2.146   6.104   3.014 -2.6715 -0.2356 -0.2989
 7564SOL    MW430024   2.149   6.184   2.981  0.0026  0.0038  0.2898
 7565SOL     OW30025   3.378   5.950   1.377  0.7623 -0.9805  0.0890
 7565SOL    HW230026   3.414   6.028   1.336  1.6699 -0.7899  1.1851
 7565SOL    HW330027   3.380   5.883   1.308  1.6703 -0.5200 -0.3474
 7565SOL    MW430028   3.383   5.952   1.363  1.0018 -0.8946  0.1760
 7566SOL     OW30029   0.064   0.908   4.316 -0.2983  0.6419 -0.2575
 7566SOL    HW230030   0.151   0.879   4.343 -1.1477  0.2740  2.3104
 7566SOL    HW330031   0.021   0.935   4.397 -2.4088  1.3095 -1.5261
 7566SOL    MW430032   0.070   0.907   4.330 -0.6888  0.6814 -0.0861
 7567SOL     OW30033   0.965   2.811   2.177 -0.1961 -0.5909  0.1759
 7567SOL    HW230034   0.982   2.824   2.271  4.1465  0.7839 -0.5848
 7567SOL    HW330035   1.006   2.727   2.157  0.2289 -0.1775 -0.7375
 7567SOL    MW430036   0.973   2.802   2.187  0.4329 -0.3550 -0.0450
 7568SOL     OW30037   3.503   3.175   3.266  0.5155  0.0081 -0.0935
 7568SOL    HW230038   3.521   3.249   3.324 -2.4606 -0.2396  1.3391
 7568SOL    HW330039   3.583   3.123   3.269  1.7395  1.8283  0.9594
 7568SOL    MW430040   3.516   3.177   3.274  0.2843  0.2156  0.2344
 7569SOL     OW30041   1.156   6.254   1.792 -0.5236  0.0329  0.1243
 7569SOL    HW230042   1.134   6.326   1.850  1.1356  1.0460 -0.4150
 7569SOL    HW330043   1.150   6.176   1.847 -1.3903  0.6770  0.9767
 7569SOL    MW430044   1.153   6.253   1.807 -0.4190  0.2516  0.1656
 7570SOL     OW30045   5.357   1.531   4.299  0.1666  0.7620  0.1182
 7570SOL    HW230046   5.365   1.437   4.314  1.5870  0.8607  0.0445
 7570SOL    HW330047   5.307   1.563   4.374  0.1533  0.0415  0.4221
 7570SOL    MW430048   5.351   1.523   4.311  0.3522  0.6799  0.1486
 7571SOL     OW30049   0.721   6.426   1.007 -0.2852 -0.1033  0.2391
 7571SOL    HW230050   0.655   6.429   1.076  0.0069 -0.1384  0.5276
 7571SOL    HW330051   0.692   6.357   0.948 -0.2163 -0.5018  0.6671
 7571SOL    MW430052   0.709   6.417   1.008 -0.2376 -0.1605  0.3336
 7572SOL     OW30053   4.294   4.172   0.588  0.1351 -0.1142 -0.1647
 7572SOL    HW230054   4.378   4.183   0.633  0.0664 -0.7216  0.1231
 7572SOL    HW330055   4.297   4.236   0.516  0.4914  0.4533  0.3452
 7572SOL    MW430056   4.306   4.182   0.584  0.1730 -0.1195 -0.0595
 7573SOL     OW30057   0.208   0.882   3.868  0.3373  0.1665 -0.8473
 7573SOL    HW230058   0.201   0.977   3.877  1.0890  0.2014 -0.5566
 7573SOL    HW330059   0.282   0.858   3.924 -0.7286 -0.7764  0.2215
 7573SOL    MW430060   0.217   0.891   3.877  0.2959  0.0467 -0.6679
 7574SOL     OW30061   3.826   3.913   6.057  0.1884  1.0622  0.4399
 7574SOL    HW230062   3.840   3.871   5.972  1.9774  0.4036  1.0169
 7574SOL    HW330063   3.743   3.878   6.088  0.4445 -0.1465 -0.1929
 7574SOL    MW430064   3.817   3.903   6.050  0.4582  0.8158  0.4325
 7575SOL     OW30065   3.531   3.057   6.253 -0.6396 -0.0208 -0.5992
 7575SOL    HW230066   3.542   2.964   6.232  0.5038  0.3436 -1.7689
 7575SOL    HW330067   3.477   3.091   6.182 -0.8090  0.2662 -0.3305
 7575SOL    MW430068   3.525   3.049   6.241 -0.5111  0.0652 -0.7181
 7576SOL     OW30069   2.987   6.024   4.469  0.0876 -0.4189 -0.8559
 7576SOL    HW230070   3.001   6.114   4.500  0.6141 -1.1099  1.0447
 7576SOL    HW330071   2.913   6.031   4.408 -0.1156  1.2438 -0.4783
 7576SOL    MW430072   2.979   6.037   4.465  0.1302 -0.2907 -0.5553
 7577SOL     OW30073   0.504   4.235   3.360 -0.0793  0.1059  0.3654
 7577SOL    HW230074   0.526   4.267   3.273  1.1945 -1.0292  0.2438
 7577SOL    HW330075   0.568   4.277   3.418 -0.8798  0.8061  0.7600
 7577SOL    MW430076   0.515   4.245   3.356 -0.0169  0.0485  0.4014
 7578SOL     OW30077   0.561   3.002   4.080 -0.2064  0.0934 -0.6172
 7578SOL    HW230078   0.475   3.043   4.076  0.2744  1.3209  0.6260
 7578SOL    HW330079   0.544   2.911   4.104 -1.1454  0.3223 -0.4007
 7578SOL    MW430080   0.548   2.995   4.082 -0.2669  0.2855 -0.4246
 7579SOL     OW30081   1.099   4.049   3.197 -0.3458  0.0394  0.3724
 7579SOL    HW230082   1.149   3.987   3.145  2.2722  0.9047  1.7131
 7579SOL    HW330083   1.112   4.133   3.154 -0.8945  0.2480  0.5936
 7579SOL    MW430084   1.107   4.052   3.185 -0.0728  0.1811  0.5785
 7580SOL     OW30085   1.158   3.450   4.752  0.2419  0.4784 -0.1211
 7580SOL    HW230086   1.161   3.491   4.666  0.4290 -0.2336 -0.4617
 7580SOL    HW330087   1.214   3.373   4.744 -0.9038 -0.4222  0.1830
 7580SOL    MW430088   1.166   3.445   4.740  0.1154  0.2656 -0.1259
 7581SOL     OW30089   2.993   6.250   3.866  0.6881 -0.5287 -0.0835
 7581SOL    HW230090   3.086   6.233   3.880  1.0780  0.6883 -0.9633
 7581SOL    HW330091   2.948   6.188   3.923  2.0511  0.1192  1.8003
 7581SOL    MW430092   2.999   6.240   3.875  0.9194 -0.2827  0.0490
 7582SOL     OW30093   3.129   2.974   1.611 -0.6794 -0.0805  0.2476
 7582SOL    HW230094   3.063   3.024   1.564  0.7767  0.9169 -0.8252
 7582SOL    HW330095   3.159   3.033   1.680 -0.2393 -0.1551  0.1244
 7582SOL    MW430096   3.124   2.988   1.614 -0.4292  0.0413  0.0898
 7583SOL     OW30097   3.981   2.910   2.012 -0.2576 -0.0912  0.6632
 7583SOL    HW230098   4.023   2.866   1.938  0.6790 -0.7532  1.5623
 7583SOL    HW330099   3.889   2.884   2.006 -0.1407 -0.3510 -0.1100
 7583SOL    MW430100   3.974   2.901   2.002 -0.1186 -0.2128  0.6798
 7584SOL     OW30101   5.755   1.778   0.176 -0.0886 -0.2801  0.7918
 7584SOL    HW230102   5.831   1.784   0.118  0.0347 -0.1327  0.9667
 7584SOL    HW330103   5.777   1.707   0.236  0.8063  1.0512  2.1223
 7584SOL    MW430104   5.768   1.770   0.176  0.0458 -0.0850  0.9904
 7585SOL     OW30105   1.588   5.139   6.237 -0.1966  0.0282 -0.1167
 7585SOL    HW230106   1.590   5.229   6.203  2.9478  0.2088  0.2326
 7585SOL    HW330107   1.634   5.145   6.321 -0.8964 -1.7481  0.4174
 7585SOL    MW430108   1.595   5.152   6.244  0.1260 -0.1823 -0.0002
 7586SOL     OW30109   2.993   1.728   4.057  0.2002  0.4459 -0.3924
 7586SOL    HW230110   3.045   1.794   4.103 -0.6955 -0.3443  1.9417
 7586SOL    HW330111   3.057   1.673   4.013  1.1626  1.0438  0.2221
 7586SOL    MW430112   3.008   1.730   4.058  0.2090  0.4205 -0.0034
 7587SOL     OW30113   0.396   4.914   2.121  0.4473 -0.2676 -0.6328
 7587SOL    HW230114   0.375   4.842   2.061  0.9911 -0.7614 -0.2516
 7587SOL    HW330115   0.320   4.920   2.179  0.8655 -1.3200  0.0590
 7587SOL    MW430116   0.383   4.905   2.121  0.5742 -0.4716 -0.4912
 7588SOL     OW30117   6.230   6.352   5.974  0.7808  0.6223 -0.6731
 7588SOL    HW230118   6.202   6.333   5.884 -1.2709  0.4524 -0.0417
 7588SOL    HW330119   6.183   6.289   6.028  2.9380 -0.1240  0.4681
 7588SOL    MW430120   6.220   6.341   5.969  0.7947  0.5015 -0.4392
 7589SOL     OW30121   3.176   1.616   5.676 -0.3187  0.2473 -0.4314
 7589SOL    HW230122   3.262   1.577   5.666  1.0470  2.6699  0.8656
 7589SOL    HW330123   3.140   1.621   5.587  0.2702 -1.9487 -0.8447
 7589SOL    MW430124   3.182   1.611   5.663 -0.0608  0.2772 -0.3148
 7590SOL     OW30125   5.964   5.426   1.779 -0.3958  0.1862  0.3637
 7590SOL    HW230126   6.007   5.469   1.853  1.9263 -0.4692 -0.5126
 7590SOL    HW330127   5.945   5.338   1.810  0.5592 -0.0830  0.2072
 7590SOL    MW430128   5.967   5.420   1.793  0.0365  0.0642  0.2274
 7591SOL     OW30129   0.055   3.936   1.997  0.5518  0.3672  0.2398
 7591SOL    HW230130   0.134   3.988   1.978  1.4239 -0.5406  1.2545
 7591SOL    HW330131   0.005   3.991   2.057  0.8095  0.6148  0.2354
 7591SOL    MW430132   0.059   3.950   2.002  0.7009  0.2801  0.3731
 7592SOL     OW30133   3.847   3.811   2.730 -0.1821 -0.3018  0.1964
 7592SOL    HW230134   3.894   3.876   2.678 -0.8400 -0.4454 -0.6074
 7592SOL    HW330135   3.910   3.740   2.742 -0.3507 -0.7756 -1.4115
 7592SOL    MW430136   3.862   3.810   2.725 -0.2912 -0.3833 -0.1218
 7593SOL     OW30137   1.054   5.864   1.008 -0.4319 -0.2982 -0.2291
 7593SOL    HW230138   1.093   5.909   1.083  1.4910 -0.0145 -1.3502
 7593SOL    HW330139   1.124   5.807   0.975 -1.6158 -1.2981 -1.1222
 7593SOL    MW430140   1.068   5.862   1.014 -0.3344 -0.3927 -0.4949
 7594SOL     OW30141   3.456   0.944   4.130 -0.0115 -0.1160  0.1474
 7594SOL    HW230142   3.405   0.985   4.200  0.8996  1.6312 -0.1444
 7594SOL    HW330143   3.512   0.881   4.175  1.9944  2.3713  1.3658
 7594SOL    MW430144   3.457   0.941   4.145  0.3733  0.4427  0.2696
 7595SOL     OW30145   2.511   2.440   4.648 -0.4566 -0.8113  0.2101
 7595SOL    HW230146   2.416   2.432   4.646 -0.5605  0.2603  0.2797
 7595SOL    HW330147   2.528   2.504   4.718  0.2929 -0.7443 -0.0230
 7595SOL    MW430148   2.501   2.448   4.657 -0.3714 -0.6611  0.1885
 7596SOL     OW30149   5.123   6.266   0.908  0.4447  0.2313  0.0061
 7596SOL    HW230150   5.081   6.184   0.932  1.0947 -0.6296 -1.6206
 7596SOL    HW330151   5.052   6.329   0.902 -0.4282 -0.8060 -1.0724
 7596SOL    MW430152   5.108   6.263   0.910  0.4153 -0.0191 -0.3508
 7597SOL     OW30153   3.420   2.499   5.532  0.0496  0.3536 -0.0720
 7597SOL    HW230154   3.403   2.542   5.448 -0.2199  0.2256 -0.0826
 7597SOL    HW330155   3.500   2.448   5.517 -0.0851  0.2093 -0.2925
 7597SOL    MW430156   3.429   2.498   5.519 -0.0037  0.3177 -0.1025
 7598SOL     OW30157   6.203   3.648   3.114 -0.3976  0.6049  0.2094
 7598SOL    HW230158   6.261   3.575   3.096 -0.3225  0.8338 -0.5447
 7598SOL    HW330159   6.144   3.617   3.182  0.7370  0.4423  1.1484
 7598SOL    MW430160   6.203   3.635   3.121 -0.2380  0.6136  0.2338
 7599SOL     OW30161   0.789   1.733   2.063  0.4467  0.3071 -0.8380
 7599SOL    HW230162   0.823   1.675   1.995  2.4667  0.0505  0.3285
 7599SOL    HW330163   0.828   1.818   2.043 -0.1198  0.5733 -0.8203
 7599SOL    MW430164   0.799   1.736   2.051  0.6384  0.3084 -0.6817
 7600SOL     OW30165   5.325   1.610   1.556 -0.0059  0.3603  0.4005
 7600SOL    HW230166   5.282   1.692   1.533  0.0329 -0.3107 -2.4575
 7600SOL    HW330167   5.258   1.543   1.544  0.8170 -0.3254 -0.5655
 7600SOL    MW430168   5.311   1.612   1.552  0.1078  0.1813 -0.1040
 7601SOL     OW30169   3.570   3.855   4.227 -0.0104 -0.9306  0.1505
 7601SOL    HW230170   3.490   3.888   4.268  0.6152 -0.1251  0.7439
 7601SOL    HW330171   3.551   3.854   4.134 -0.5041 -0.1669  0.2398
 7601SOL    MW430172   3.557   3.859   4.220  0.0070 -0.7236  0.2406
 7602SOL     OW30173   5.584   5.618   0.749 -0.1776 -0.0867 -0.2763
 7602SOL    HW230174   5.675   5.623   0.777 -0.6449 -0.5589  1.4311
 7602SOL    HW330175   5.589   5.600   0.655  1.5273 -3.3065  0.2739
 7602SOL    MW430176   5.597   5.616   0.740 -0.0143 -0.5738  0.0216
 7603SOL     OW30177   5.634   5.761   2.348  0.4639  0.2421 -0.3043
 7603SOL    HW230178   5.670   5.848   2.367  2.3292 -0.8392  1.4493
 7603SOL    HW330179   5.667   5.741   2.260  2.6633  0.0784  0.5041
 7603SOL    MW430180   5.643   5.770   2.339  1.0002  0.0778  0.0337
 7604SOL     OW30181   4.219   1.429   1.638  0.5008 -0.2973  0.3737
 7604SOL    HW230182   4.302   1.450   1.681  1.1470 -0.8387 -0.5620
 7604SOL    HW330183   4.161   1.502   1.660  2.2646  1.9121 -1.7481
 7604SOL    MW430184   4.222   1.441   1.647  0.8187 -0.0772 -0.0297
 7605SOL     OW30185   2.492   4.108   1.483 -0.2038 -0.8467  0.7952
 7605SOL    HW230186   2.455   4.074   1.565  0.8441 -1.3295  1.0839
 7605SOL    HW330187   2.435   4.182   1.461 -0.6000 -0.7957  1.8837
 7605SOL    MW430188   2.480   4.114   1.491 -0.1178 -0.9037  0.9769
 7606SOL     OW30189   0.563   0.517   1.296  0.4484 -0.1140 -0.4725
 7606SOL    HW230190   0.618   0.548   1.368  1.7185 -0.6871 -1.1512
 7606SOL    HW330191   0.474   0.537   1.323  0.7672 -1.4199  1.8379
 7606SOL    MW430192   0.559   0.524   1.309  0.6580 -0.3619 -0.2572
 7607SOL     OW30193   6.341   4.072   2.200 -0.0881 -0.2049 -0.1221
 7607SOL    HW230194   6.324   3.981   2.224  1.2933 -0.4922 -0.1047
 7607SOL    HW330195   6.255   4.109   2.183 -0.8770 -0.9301  1.9123
 7607SOL    MW430196   6.328   4.065   2.201 -0.0100 -0.3385  0.1486
 7608SOL     OW30197   5.276   3.469   2.257 -0.2385 -0.0834 -0.0560
 7608SOL    HW230198   5.285   3.441   2.349 -1.4329 -1.1420 -0.2295
 7608SOL    HW330199   5.366   3.476   2.226  0.2690  1.8509  1.6204
 7608SOL    MW430200   5.289   3.466   2.265 -0.3291  0.0322  0.1423
 7609SOL     OW30201   5.629   4.312   6.431  0.1238 -0.1446 -0.3018
 7609SOL    HW230202   5.633   4.294   6.337 -1.5739 -1.1311 -0.2361
 7609SOL    HW330203   5.623   4.225   6.472  1.3374  0.2397  0.7751
 7609SOL    MW430204   5.629   4.298   6.424  0.0599 -0.2240 -0.1511
 7610SOL     OW30205   1.185   4.703   2.188  0.0479 -0.3157 -0.3450
 7610SOL    HW230206   1.194   4.732   2.279  1.0639  0.4039 -0.6570
 7610SOL    HW330207   1.154   4.613   2.195  2.5566 -1.2006  0.8376
 7610SOL    MW430208   1.182   4.695   2.201  0.5129 -0.3375 -0.2302
 7611SOL     OW30209   0.229   3.013   1.422 -0.2694  0.2150 -0.1314
 7611SOL    HW230210   0.211   2.991   1.331  1.6152 -0.4872 -0.3919
 7611SOL    HW330211   0.182   2.947   1.473 -0.0760 -0.3453 -0.6650
 7611SOL    MW430212   0.221   3.001   1.416  0.0048  0.0485 -0.2361
 7612SOL     OW30213   5.887   1.626   4.627 -0.2527  0.3607  0.3403
 7612SOL    HW230214   5.908   1.651   4.717 -0.7309 -1.4451  0.9928
 7612SOL    HW330215   5.945   1.552   4.608 -0.7946  0.1254 -0.4937
 7612SOL    MW430216   5.897   1.619   4.636 -0.3873  0.0914  0.3163
 7613SOL     OW30217   3.326   3.948   6.056 -0.8200  0.8776  0.2744
 7613SOL    HW230218   3.286   3.991   6.132 -2.7532  2.6002 -1.5815
 7613SOL    HW330219   3.380   4.016   6.016  0.6955 -0.1991  0.3923
 7613SOL    MW430220   3.328   3.963   6.060 -0.8751  0.9628  0.0451
 7614SOL     OW30221   5.970   6.014   4.448 -0.7198 -0.3101  0.3788
 7614SOL    HW230222   6.062   6.039   4.447 -0.8887  0.3223  0.3210
 7614SOL    HW330223   5.971   5.919   4.437 -0.0889 -0.2697  0.0461
 7614SOL    MW430224   5.982   6.004   4.446 -0.6588 -0.2213  0.3272
 7615SOL     OW30225   3.057   1.287   5.440 -0.2390  0.2753  0.1144
 7615SOL    HW230226   3.102   1.224   5.383 -0.4292  1.0113 -0.8834
 7615SOL    HW330227   3.126   1.346   5.469  0.0435 -0.6902  1.5160
 7615SOL    MW430228   3.072   1.286   5.436 -0.2268  0.2450  0.1676
 7616SOL     OW30229   5.871   0.113   4.422 -0.2758 -0.1878 -0.5426
 7616SOL    HW230230   5.950   0.080   4.467  0.1146  1.1203 -0.2410
 7616SOL    HW330231   5.798   0.074   4.470  0.1545  0.4774  0.6856
 7616SOL    MW430232   5.872   0.103   4.434 -0.1675  0.0726 -0.3408
 7617SOL     OW30233   2.971   3.546   5.174  0.5342 -0.2112 -0.0015
 7617SOL    HW230234   3.020   3.509   5.248 -0.0816 -0.1511  0.4490
 7617SOL    HW330235   2.940   3.631   5.206 -0.5222 -0.5858  0.0120
 7617SOL    MW430236   2.973   3.552   5.188  0.3136 -0.2527  0.0598
 7618SOL     OW30237   4.206   5.939   1.298  0.4019  0.2174  0.2422
 7618SOL    HW230238   4.116   5.912   1.317  0.5585 -0.2837  0.2864
 7618SOL    HW330239   4.239   5.871   1.240  1.0609 -0.0990  0.9736
 7618SOL    MW430240   4.199   5.926   1.293  0.5095  0.1095  0.3445
 7619SOL     OW30241   2.394   5.670   5.380  0.0811  0.2100 -0.1065
 7619SOL    HW230242   2.327   5.713   5.433  0.4002  0.2269  0.2886
 7619SOL    HW330243   2.406   5.584   5.421  0.1063  0.1023 -0.3397
 7619SOL    MW430244   2.387   5.664   5.392  0.1265  0.1980 -0.0851
 7620SOL     OW30245   6.076   1.370   1.291 -0.1923  0.1334  0.3811
 7620SOL    HW230246   6.050   1.459   1.267  0.4993 -0.0352 -1.0992
 7620SOL    HW330247   6.165   1.379   1.324  0.0457 -0.0543 -0.1952
 7620SOL    MW430248   6.084   1.383   1.292 -0.0697  0.0864  0.1097
 7621SOL     OW30249   6.200   1.931   2.834 -0.5424 -0.3540 -0.5670
 7621SOL    HW230250   6.173   1.840   2.845  1.5346 -1.0778 -1.0337
 7621SOL    HW330251   6.280   1.926   2.781  0.5982  1.6117  0.8594
 7621SOL    MW430252   6.207   1.918   2.828 -0.1179 -0.1901 -0.4404
 7622SOL     OW30253   2.798   4.672   3.787  0.2045  0.2611  0.4269
 7622SOL    HW230254   2.860   4.618   3.836  0.6196  0.3887  0.0462
 7622SOL    HW330255   2.799   4.635   3.698  0.7981  1.1467  0.0549
 7622SOL    MW430256   2.806   4.660   3.782  0.3376  0.3948  0.3276
 7623SOL     OW30257   0.685   0.270   5.850 -0.1813 -0.0020 -0.2449
 7623SOL    HW230258   0.769   0.236   5.881  0.2555  1.7705  0.6697
 7623SOL    HW330259   0.670   0.226   5.767  0.6708 -1.8339  0.5146
 7623SOL    MW430260   0.694   0.260   5.843 -0.0112 -0.0098 -0.0240
 7624SOL     OW30261   4.507   4.860   5.513  0.0698  0.1252  0.0965
 7624SOL    HW230262   4.418   4.835   5.488  0.5697  0.4247 -2.2930
 7624SOL    HW330263   4.559   4.782   5.495  0.4014  0.1805  0.7991
 7624SOL    MW430264   4.502   4.847   5.507  0.1795  0.1720 -0.1260
 7625SOL     OW30265   5.144   1.564   2.773 -0.3419  0.4371 -0.2236
 7625SOL    HW230266   5.200   1.619   2.828  0.2304 -0.8968  0.5934
 7625SOL    HW330267   5.203   1.529   2.707 -0.1137 -1.1545  0.7741
 7625SOL    MW430268   5.159   1.567   2.771 -0.2363  0.0511  0.0158
 7626SOL     OW30269   1.410   2.659   6.428  0.5984 -0.2588 -0.3091
 7626SOL    HW230270   1.428   2.566   6.413  1.5243 -0.0724 -0.4258
 7626SOL    HW330271   1.358   2.661   6.508  0.9903 -0.8443 -0.0394
 7626SOL    MW430272   1.406   2.647   6.436  0.7722 -0.3115 -0.2889
 7627SOL     OW30273   0.607   0.615   5.329  0.2990  0.1231 -0.2206
 7627SOL    HW230274   0.512   0.603   5.338  0.3774 -2.5952 -1.7659
 7627SOL    HW330275   0.617   0.671   5.252 -0.0581  0.4799 -0.0074
 7627SOL    MW430276   0.596   0.621   5.320  0.2622 -0.1885 -0.3964
 7628SOL     OW30277   3.576   0.874   2.415 -0.3104  0.7123 -0.2087
 7628SOL    HW230278   3.605   0.921   2.493 -0.3640  1.0812 -0.4099
 7628SOL    HW330279   3.641   0.897   2.348 -0.4861  0.7138 -0.3782
 7628SOL    MW430280   3.589   0.883   2.416 -0.3406  0.7611 -0.2576
 7629SOL     OW30281   2.301   4.966   5.041 -0.1956  0.4811 -0.1113
 7629SOL    HW230282   2.378   4.951   5.096 -0.8880  0.1478  0.7852
 7629SOL    HW330283   2.311   4.904   4.969 -0.7298 -1.1738  1.1727
 7629SOL    MW430284   2.313   4.956   5.039 -0.3574  0.2188  0.1764
 7630SOL     OW30285   2.709   1.288   1.912 -0.1528 -0.2824 -0.9732
 7630SOL    HW230286   2.660   1.369   1.896 -1.3066 -1.1611 -2.1295
 7630SOL    HW330287   2.659   1.243   1.979  1.0837  0.4070  0.4721
 7630SOL    MW430288   2.696   1.293   1.919 -0.1419 -0.3074 -0.9350
 7631SOL     OW30289   5.355   4.300   3.245  0.2201  0.0881  0.0847
 7631SOL    HW230290   5.310   4.217   3.257 -0.1401  0.2465 -0.1384
 7631SOL    HW330291   5.446   4.276   3.230  0.0226 -0.3034 -0.5553
 7631SOL    MW430292   5.361   4.286   3.245  0.1466  0.0573 -0.0291
 7632SOL     OW30293   4.854   6.119   6.336 -0.2740 -0.4262 -0.0218
 7632SOL    HW230294   4.927   6.180   6.347 -0.6221  0.4101 -1.9227
 7632SOL    HW330295   4.775   6.173   6.349 -0.5688 -0.9924  0.5767
 7632SOL    MW430296   4.853   6.134   6.339 -0.3588 -0.3906 -0.1936
 7633SOL     OW30297   2.547   1.559   3.475  0.2510 -0.5699 -0.0302
 7633SOL    HW230298   2.569   1.552   3.568 -1.6030  0.3214  0.5200
 7633SOL    HW330299   2.452   1.548   3.472 -0.3037  3.2071 -1.3086
 7633SOL    MW430300   2.537   1.557   3.487 -0.0668  0.0461 -0.1263
 7634SOL     OW30301   0.094   5.886   5.877 -0.4488  0.6706 -0.5326
 7634SOL    HW230302   0.079   5.938   5.956  0.6034 -0.4264  0.4488
 7634SOL    HW330303   0.187   5.899   5.857 -0.2564 -0.5077 -0.4779
 7634SOL    MW430304   0.105   5.894   5.885 -0.2846  0.3704 -0.3959
 7635SOL     OW30305   5.177   5.151   1.415  0.3087  0.3183  0.2922
 7635SOL    HW230306   5.123   5.200   1.476 -0.9497 -0.4148 -0.1973
 7635SOL    HW330307   5.158   5.189   1.329 -0.3716 -0.7114 -0.0374
 7635SOL    MW430308   5.168   5.162   1.411  0.0529  0.0857  0.1841
 7636SOL     OW30309   5.506   0.958   4.604 -0.0971 -0.0997  0.1489
 7636SOL    HW230310   5.421   0.918   4.622  1.1000 -2.3911  1.1023
 7636SOL    HW330311   5.550   0.961   4.689  1.3978 -0.5649 -0.5698
 7636SOL    MW430312   5.501   0.953   4.617  0.2581 -0.4634  0.1798
 7637SOL     OW30313   6.141   3.801   3.847  0.2702  0.3821  0.2931
 7637SOL    HW230314   6.048   3.819   3.857 -0.2987 -1.5030 -1.0557
 7637SOL    HW330315   6.170   3.774   3.934 -0.2219  1.7248  0.9007
 7637SOL    MW430316   6.133   3.800   3.860  0.1302  0.3105  0.1953
 7638SOL     OW30317   4.133   0.494   0.728  0.4815 -0.5814  0.5161
 7638SOL    HW230318   4.061   0.483   0.666 -1.3388  0.3409  2.3273
 7638SOL    HW330319   4.195   0.424   0.707  0.0636 -0.2095 -2.3825
 7638SOL    MW430320   4.132   0.484   0.717  0.1862 -0.4107  0.3727
 7639SOL     OW30321   6.406   5.995   5.645  0.7620 -0.0242 -0.5322
 7639SOL    HW230322   6.444   5.945   5.717 -0.1209 -0.6555 -0.4935
 7639SOL    HW330323   6.403   6.085   5.677  0.5261 -0.2734  0.1666
 7639SOL    MW430324   6.410   6.000   5.658  0.6144 -0.1404 -0.4349
 7640SOL     OW30325   0.455   3.912   4.607 -0.3786 -0.4463  0.6794
 7640SOL    HW230326   0.508   3.976   4.654  1.0526 -0.8851 -0.2639
 7640SOL    HW330327   0.374   3.905   4.658  0.0195  1.0452  1.5699
 7640SOL    MW430328   0.451   3.919   4.620 -0.1373 -0.3074  0.6725
 7641SOL     OW30329   5.183   2.527   5.348 -0.4074  0.9159 -0.1625
 7641SOL    HW230330   5.186   2.615   5.386 -0.4785  1.3739 -1.1560
 7641SOL    HW330331   5.266   2.487   5.373 -0.2680  1.3578  0.0922
 7641SOL    MW430332   5.194   2.533   5.356 -0.3984  1.0346 -0.2600
 7642SOL     OW30333   4.407   2.967   6.153 -0.0971  0.3894  0.2989
 7642SOL    HW230334   4.471   2.948   6.221  0.9708  0.9352 -0.5224
 7642SOL    HW330335   4.459   2.985   6.075 -1.2231  1.5295 -0.2349
 7642SOL    MW430336   4.422   2.967   6.152 -0.1048  0.6118  0.1201
 7643SOL     OW30337   2.680   1.885   3.301  0.6280 -0.0951  0.2060
 7643SOL    HW230338   2.739   1.838   3.360  0.8046  1.2380  1.1561
 7643SOL    HW330339   2.728   1.890   3.218  1.2181 -0.3199  0.5250
 7643SOL    MW430340   2.694   1.880   3.298  0.7291  0.0511  0.3735
 7644SOL     OW30341   2.100   1.188   2.054 -0.7384 -0.4372 -0.5677
 7644SOL    HW230342   2.171   1.177   1.991  0.2977  0.4084  0.3870
 7644SOL    HW330343   2.095   1.283   2.067 -0.4663 -0.6168  1.0831
 7644SOL    MW430344   2.109   1.199   2.048 -0.5658 -0.3493 -0.2240
 7645SOL     OW30345   0.412   5.763   1.144 -0.3765 -0.2382 -0.3579
 7645SOL    HW230346   0.409   5.852   1.109  0.2796 -0.2204 -0.3801
 7645SOL    HW330347   0.355   5.766   1.221 -0.2795  0.2287 -0.3000
 7645SOL    MW430348   0.404   5.775   1.149 -0.2771 -0.1742 -0.3532
 7646SOL     OW30349   0.019   3.216   5.718  0.5429 -0.2089  0.3611
 7646SOL    HW230350   0.090   3.226   5.782 -0.6365  1.2988  1.5065
 7646SOL    HW330351   0.045   3.273   5.646  2.1713 -2.3691 -0.8698
 7646SOL    MW430352   0.032   3.225   5.717  0.6021 -0.2950  0.3498
 7647SOL     OW30353   4.493   4.693   3.457 -0.5713 -0.5911  1.1142
 7647SOL    HW230354   4.437   4.626   3.417  0.0011 -0.2467 -0.3279
 7647SOL    HW330355   4.515   4.657   3.543  0.5564 -2.7758 -0.0038
 7647SOL    MW430356   4.488   4.679   3.463 -0.3470 -0.8339  0.7764
 7648SOL     OW30357   4.581   4.673   1.152 -0.1337  0.8215  0.1225
 7648SOL    HW230358   4.501   4.726   1.163 -0.3912  0.3496  0.5495
 7648SOL    HW330359   4.560   4.589   1.193 -1.2667 -1.2245 -4.0682
 7648SOL    MW430360   4.567   4.669   1.159 -0.3171  0.4893 -0.3741
 7649SOL     OW30361   0.438   2.569   1.552  0.3793  0.1830  0.3162
 7649SOL    HW230362   0.527   2.587   1.582  0.1101  0.4438  0.9823
 7649SOL    HW330363   0.394   2.533   1.629 -0.2603  0.6242  0.1622
 7649SOL    MW430364   0.444   2.566   1.566  0.2594  0.2756  0.3838
 7650SOL     OW30365   3.906   2.226   5.921  0.0455 -0.2535  0.4989
 7650SOL    HW230366   3.983   2.172   5.935 -0.7428 -1.7000 -0.5577
 7650SOL    HW330367   3.926   2.309   5.966  2.2743 -0.5152  0.0727
 7650SOL    MW430368   3.919   2.230   5.929  0.2355 -0.4789  0.3033
 7651SOL     OW30369   4.816   0.223   5.429 -0.3108  0.4845 -0.1242
 7651SOL    HW230370   4.799   0.129   5.432 -2.7157  0.7768 -1.5290
 7651SOL    HW330371   4.903   0.231   5.391  0.8460 -1.1542  2.0022
 7651SOL    MW430372   4.825   0.212   5.424 -0.4755  0.3069 -0.0290
 7652SOL     OW30373   4.350   2.530   5.104  0.3056 -0.3975  0.0068
 7652SOL    HW230374   4.428   2.492   5.063 -0.7139 -1.5214 -0.9596
 7652SOL    HW330375   4.278   2.477   5.072 -0.7150 -0.4826  2.2353
 7652SOL    MW430376   4.351   2.518   5.095  0.0365 -0.5570  0.1734
 7653SOL     OW30377   5.651   1.457   5.571  0.1582 -0.0055 -0.1312
 7653SOL    HW230378   5.731   1.490   5.531  0.2534 -0.3544 -0.2293
 7653SOL    HW330379   5.618   1.392   5.510 -0.1960  0.1290 -0.0848
 7653SOL    MW430380   5.657   1.453   5.558  0.1240 -0.0338 -0.1380
 7654SOL     OW30381   6.186   3.213   1.102 -0.3768 -0.0808 -0.3758
 7654SOL    HW230382   6.117   3.146   1.107  1.2608 -1.7803  0.5437
 7654SOL    HW330383   6.171   3.256   1.018  0.2700 -3.7142 -2.5745
 7654SOL    MW430384   6.175   3.210   1.091 -0.0754 -0.7844 -0.5446
 7655SOL     OW30385   6.123   5.730   3.629 -0.2930  0.2820  0.2600
 7655SOL    HW230386   6.182   5.753   3.558 -0.2813 -0.7248 -0.0694
 7655SOL    HW330387   6.167   5.659   3.676 -1.1147 -0.3189  0.1557
 7655SOL    MW430388   6.137   5.724   3.626 -0.3998  0.0699  0.2028
 7656SOL     OW30389   0.677   3.301   4.090  0.0010 -0.1231  0.1696
 7656SOL    HW230390   0.711   3.280   4.002 -0.2436 -0.8208  0.2322
 7656SOL    HW330391   0.587   3.331   4.074 -0.0308 -0.2141  0.1748
 7656SOL    MW430392   0.669   3.302   4.076 -0.0355 -0.2271  0.1786
 7657SOL     OW30393   0.295   3.276   4.331 -0.1346  0.8538 -0.6175
 7657SOL    HW230394   0.382   3.315   4.328  0.7031 -1.0062 -2.2529
 7657SOL    HW330395   0.278   3.262   4.425  0.1057  3.6506 -0.0623
 7657SOL    MW430396   0.304   3.279   4.343  0.0076  0.9774 -0.7600
 7658SOL     OW30397   4.366   1.548   1.240 -0.1705  0.2465  0.1156
 7658SOL    HW230398   4.421   1.547   1.162  1.4511  0.9793  1.1899
 7658SOL    HW330399   4.343   1.640   1.252  1.4595  0.4897  1.7040
 7658SOL    MW430400   4.370   1.560   1.231  0.2585  0.3753  0.4669
 7659SOL     OW30401   0.287   0.614   2.829  0.1117 -0.0211 -0.1953
 7659SOL    HW230402   0.235   0.541   2.793  0.4298 -1.3621  1.8960
 7659SOL    HW330403   0.349   0.572   2.889  0.2657  2.0011  1.1545
 7659SOL    MW430404   0.289   0.598   2.832  0.1740  0.0687  0.2587
 7660SOL     OW30405   3.018   0.590   1.063 -0.0104  0.4643  0.2431
 7660SOL    HW230406   2.930   0.575   1.096  0.0247  1.8441  1.0652
 7660SOL    HW330407   3.071   0.524   1.107 -0.3947  0.6484  1.0091
 7660SOL    MW430408   3.014   0.580   1.073 -0.0565  0.6707  0.4526
 7661SOL     OW30409   3.361   5.794   2.129  0.0425  0.0978 -0.1899
 7661SOL    HW230410   3.305   5.751   2.064 -0.0912 -1.0348  0.6656
 7661SOL    HW330411   3.448   5.797   2.087 -0.5692  1.7370 -1.4658
 7661SOL    MW430412   3.365   5.789   2.115 -0.0558  0.1646 -0.2454
 7662SOL     OW30413   0.319   4.368   1.271 -0.0723 -0.0013 -0.2443
 7662SOL    HW230414   0.283   4.291   1.314 -0.3661  0.4833  0.3773
 7662SOL    HW330415   0.257   4.386   1.200 -1.6882  1.4419  1.4325
 7662SOL    MW430416   0.306   4.360   1.267 -0.3242  0.2531  0.0590
 7663SOL     OW30417   3.826   5.215   4.959  0.7523 -0.5737 -0.5401
 7663SOL    HW230418   3.786   5.209   4.873 -1.0880 -0.5934  0.2669
 7663SOL    HW330419   3.789   5.142   5.008  0.6557  0.2483  0.6787
 7663SOL    MW430420   3.815   5.205   4.954  0.4967 -0.4679 -0.2728
 7664SOL     OW30421   4.920   0.228   2.924  0.3202  0.3058  0.1487
 7664SOL    HW230422   4.889   0.292   2.859  0.3486  1.0069  0.8145
 7664SOL    HW330423   4.888   0.261   3.008 -2.4430 -2.2080  0.2708
 7664SOL    MW430424   4.912   0.241   2.926 -0.0406  0.0666  0.2526
 7665SOL     OW30425   0.673   3.574   1.423  0.2794 -0.2151  0.0852
 7665SOL    HW230426   0.590   3.533   1.448  0.6616 -0.6761  0.6285
 7665SOL    HW330427   0.722   3.580   1.505  0.7338  0.1717 -0.2115
 7665SOL    MW430428   0.669   3.569   1.437  0.3898 -0.2249  0.1177
 7666SOL     OW30429   2.842   1.683   1.763  0.0182 -0.3660  0.1395
 7666SOL    HW230430   2.756   1.646   1.785  0.5422 -1.2799  0.7010
 7666SOL    HW330431   2.832   1.777   1.779 -0.8403 -0.4773  0.3236
 7666SOL    MW430432   2.829   1.691   1.768 -0.0259 -0.5012  0.2379
 7667SOL     OW30433   4.276   1.856   1.249 -0.2972  0.0995  0.8854
 7667SOL    HW230434   4.211   1.812   1.304 -2.0650  1.6003  0.1132
 7667SOL    HW330435   4.305   1.931   1.302 -0.5522  0.4516  0.5261
 7667SOL    MW430436   4.271   1.860   1.264 -0.5641  0.3439  0.7361
 7668SOL     OW30437   4.860   0.479   4.607 -0.1879  0.2214  0.3364
 7668SOL    HW230438   4.833   0.407   4.549 -1.2238  1.2615 -0.5381
 7668SOL    HW330439   4.954   0.488   4.592 -0.0128 -1.0481  0.5824
 7668SOL    MW430440   4.869   0.471   4.597 -0.3015  0.1911  0.2535
 7669SOL     OW30441   5.106   1.852   3.040 -0.1572  0.0437  0.6395
 7669SOL    HW230442   5.126   1.945   3.043  0.1172 -0.0365  2.0831
 7669SOL    HW330443   5.182   1.813   2.995 -0.7883  0.5999 -0.9960
 7669SOL    MW430444   5.119   1.859   3.034 -0.2042  0.1065  0.6142
 7670SOL     OW30445   3.733   1.179   5.940 -0.3158  0.6843 -0.4655
 7670SOL    HW230446   3.770   1.111   5.997 -0.4231  0.6528 -0.4328
 7670SOL    HW330447   3.643   1.189   5.970  0.1987  2.1230  0.7298
 7670SOL    MW430448   3.726   1.171   5.952 -0.2621  0.8699 -0.3035
 7671SOL     OW30449   2.879   2.344   6.061 -0.2128 -0.4400 -0.0869
 7671SOL    HW230450   2.945   2.400   6.101  0.3026 -1.7241  0.9237
 7671SOL    HW330451   2.796   2.379   6.094  0.1809 -1.2399  1.8971
 7671SOL    MW430452   2.877   2.356   6.070 -0.0929 -0.7150  0.3082
 7672SOL     OW30453   0.543   4.027   1.976 -0.1850 -0.2042  0.2404
 7672SOL    HW230454   0.456   4.066   1.984 -0.0574  0.2841 -0.6110
 7672SOL    HW330455   0.547   3.996   1.885  0.3093 -0.7622  0.4495
 7672SOL    MW430456   0.532   4.028   1.965 -0.1029 -0.2134  0.1556
 7673SOL     OW30457   5.832   3.119   0.848 -0.0433  0.4233 -0.6045
 7673SOL    HW230458   5.809   3.210   0.865 -0.6081  0.1547  0.0945
 7673SOL    HW330459   5.886   3.093   0.923 -0.5465 -0.0456 -0.3938
 7673SOL    MW430460   5.836   3.127   0.860 -0.1842  0.3260 -0.4845
 7674SOL     OW30461   2.050   0.587   2.990  0.5729  0.4223  0.4318
 7674SOL    HW230462   1.977   0.637   2.953 -0.5143 -1.3030  0.1531
 7674SOL    HW330463   2.127   0.618   2.942 -0.1952  1.1736 -0.3430
 7674SOL    MW430464   2.050   0.598   2.979  0.3281  0.2938  0.2928
 7675SOL     OW30465   3.122   3.056   5.044 -0.1914 -0.6832 -0.3287
 7675SOL    HW230466   3.047   3.111   5.065  0.2160 -0.2508  0.0124
 7675SOL    HW330467   3.154   3.089   4.960  0.7733  0.4015  0.4336
 7675SOL    MW430468   3.116   3.067   5.036 -0.0104 -0.4830 -0.1831
 7676SOL     OW30469   2.606   2.283   1.266 -0.8193 -0.0306 -0.0129
 7676SOL    HW230470   2.614   2.291   1.171 -1.8209 -1.2329 -0.2285
 7676SOL    HW330471   2.692   2.252   1.295 -0.4853  0.4105 -0.5052
 7676SOL    MW430472   2.619   2.280   1.257 -0.9074 -0.1310 -0.1063
 7677SOL     OW30473   0.501   0.586   0.486  0.5689  0.4306 -0.0105
 7677SOL    HW230474   0.595   0.572   0.497  0.4372 -0.0512  0.5448
 7677SOL    HW330475   0.479   0.648   0.556  0.7649  1.8467 -1.1545
 7677SOL    MW430476   0.511   0.593   0.497  0.5774  0.5538 -0.0882
 7678SOL     OW30477   6.161   6.137   6.136  0.0328  1.2361 -0.0360
 7678SOL    HW230478   6.119   6.051   6.134 -0.2382  1.3861 -1.4404
 7678SOL    HW330479   6.139   6.172   6.222 -0.7923  0.3593  0.1260
 7678SOL    MW430480   6.152   6.130   6.147 -0.1118  1.1402 -0.2000
 7679SOL     OW30481   3.498   5.027   3.951  0.2223 -0.2583 -0.3095
 7679SOL    HW230482   3.553   4.999   4.024  0.3771 -2.7388 -1.2941
 7679SOL    HW330483   3.410   5.034   3.989  0.8399  2.1708  0.8981
 7679SOL    MW430484   3.494   5.024   3.966  0.3242 -0.2651 -0.2800
 7680SOL     OW30485   3.796   5.638   5.406 -0.3882  0.0353  0.4002
 7680SOL    HW230486   3.886   5.669   5.417 -0.6442  0.4877  1.3929
 7680SOL    HW330487   3.769   5.672   5.321  0.1112  0.6027  0.4614
 7680SOL    MW430488   3.804   5.647   5.396 -0.3561  0.1699  0.5392
 7681SOL     OW30489   2.633   6.368   1.640 -0.2567 -0.2590  0.1496
 7681SOL    HW230490   2.638   6.384   1.734  2.1153 -0.8081  0.1956
 7681SOL    HW330491   2.719   6.396   1.607 -0.7936 -0.7264 -1.7364
 7681SOL    MW430492   2.645   6.374   1.648 -0.0146 -0.3931 -0.0932
 7682SOL     OW30493   0.889   1.286   4.088  0.2847  0.0951 -0.4223
 7682SOL    HW230494   0.895   1.276   3.993  0.8723  1.1285 -0.5057
 7682SOL    HW330495   0.909   1.199   4.123 -1.7541 -0.8007 -1.2749
 7682SOL    MW430496   0.892   1.273   4.080  0.0932  0.1132 -0.5458
 7683SOL     OW30497   4.608   4.865   5.013  0.1177  0.3695  0.2684
 7683SOL    HW230498   4.685   4.810   5.000  0.1204  0.3154  0.5076
 7683SOL    HW330499   4.550   4.812   5.068  0.2636  0.7362  0.7843
 7683SOL    MW430500   4.611   4.851   5.019  0.1373  0.4107  0.3680
 7684SOL     OW30501   0.125   2.545   3.872 -0.5180 -0.4054 -0.2006
 7684SOL    HW230502   0.123   2.630   3.828 -1.1550 -0.8912 -1.1430
 7684SOL    HW330503   0.050   2.547   3.931 -0.9313 -0.5580 -0.7126
 7684SOL    MW430504   0.115   2.557   3.874 -0.6566 -0.4896 -0.3925
 7685SOL     OW30505   5.071   6.313   5.082  0.0508 -0.0794  0.0730
 7685SOL    HW230506   5.069   6.409   5.075 -0.8932 -0.0782  0.1554
 7685SOL    HW330507   4.993   6.285   5.034 -0.1531 -0.7533  0.7893
 7685SOL    MW430508   5.060   6.322   5.075 -0.1006 -0.1682  0.1784
 7686SOL     OW30509   0.615   4.553   5.499 -0.4523  0.3502 -0.1716
 7686SOL    HW230510   0.650   4.571   5.411 -1.0753 -1.2119 -0.7634
 7686SOL    HW330511   0.683   4.587   5.558  0.2964  0.8105 -1.2499
 7686SOL    MW430512   0.629   4.560   5.495 -0.4357  0.2048 -0.3920
 7687SOL     OW30513   3.533   3.750   6.402  0.0218 -0.1445  0.2338
 7687SOL    HW230514   3.479   3.674   6.384  1.1793 -0.9974  0.2437
 7687SOL    HW330515   3.549   3.747   6.496 -0.9775  0.8577  0.4618
 7687SOL    MW430516   3.528   3.740   6.412  0.0427 -0.1248  0.2652
 7688SOL     OW30517   2.047   0.842   2.544 -0.4412  0.3472  0.1970
 7688SOL    HW230518   2.120   0.820   2.603  0.1053  1.9481  0.1715
 7688SOL    HW330519   2.090   0.875   2.465 -1.1530 -2.0725 -1.3087
 7688SOL    MW430520   2.063   0.843   2.541 -0.4630  0.2392 -0.0050
 7689SOL     OW30521   0.933   4.963   3.573  0.1454  0.1664 -0.0059
 7689SOL    HW230522   0.917   4.983   3.666  1.0913 -3.0710  0.9850
 7689SOL    HW330523   1.013   5.010   3.552  0.6637 -0.1060  1.2454
 7689SOL    MW430524   0.941   4.972   3.583  0.3386 -0.2967  0.2899
 7690SOL     OW30525   1.875   0.635   5.772  0.1253 -0.2950 -0.3557
 7690SOL    HW230526   1.848   0.553   5.815 -2.1534  0.5591 -0.0201
 7690SOL    HW330527   1.970   0.639   5.787 -0.1264 -1.4501  2.1818
 7690SOL    MW430528   1.884   0.625   5.780 -0.2085 -0.3348  0.0234
 7691SOL     OW30529   1.438   1.965   0.908  0.4456  0.3512 -0.3223
 7691SOL    HW230530   1.513   2.017   0.881  0.3041  0.7655  0.0611
 7691SOL    HW330531   1.362   2.021   0.889  0.1336 -0.5351 -1.8252
 7691SOL    MW430532   1.438   1.979   0.902  0.3858  0.2889 -0.4700
 7692SOL     OW30533   2.655   5.754   1.461 -0.2415  0.4884 -0.2948
 7692SOL    HW230534   2.629   5.666   1.433 -1.2526  0.0754  1.8096
 7692SOL    HW330535   2.642   5.808   1.383 -3.3223 -0.5108 -0.6081
 7692SOL    MW430536   2.650   5.750   1.447 -0.7814  0.3021 -0.0585
 7693SOL     OW30537   5.094   0.559   5.830 -0.4521  0.8340 -0.0217
 7693SOL    HW230538   5.115   0.632   5.889  1.5421  0.4446 -0.1707
 7693SOL    HW330539   5.067   0.602   5.748  1.3491  1.4823 -0.3380
 7693SOL    MW430540   5.094   0.575   5.827  0.0487  0.8682 -0.0831
 7694SOL     OW30541   0.142   0.792   1.115 -0.4928  0.1867 -0.2578
 7694SOL    HW230542   0.213   0.831   1.064  0.0811  0.5900  0.8215
 7694SOL    HW330543   0.093   0.867   1.149 -0.2818 -0.0527  0.5904
 7694SOL    MW430544   0.145   0.807   1.113 -0.3892  0.2083 -0.0035
 7695SOL     OW30545   2.293   1.935   2.912 -0.2554 -0.1548  0.4555
 7695SOL    HW230546   2.211   1.939   2.962 -0.4189 -2.1042  0.3913
 7695SOL    HW330547   2.353   1.887   2.969 -0.1440 -1.5414 -0.7775
 7695SOL    MW430548   2.290   1.930   2.926 -0.2623 -0.5949  0.2843
 7696SOL     OW30549   1.397   3.540   1.494 -0.1264  0.2402 -0.2934
 7696SOL    HW230550   1.416   3.634   1.489 -1.3254  0.5205  0.0524
 7696SOL    HW330551   1.386   3.523   1.587  1.0112 -0.4524 -0.2720
 7696SOL    MW430552   1.398   3.550   1.506 -0.1345  0.1858 -0.2449
 7697SOL     OW30553   3.772   4.628   0.951  0.4826  0.3261  0.3094
 7697SOL    HW230554   3.683   4.603   0.975  1.5650 -1.2642  3.0288
 7697SOL    HW330555   3.811   4.549   0.915  1.1514  0.7051  0.1788
 7697SOL    MW430556   3.765   4.614   0.949  0.7136  0.1663  0.6509
 7698SOL     OW30557   0.797   5.407   2.164  0.1086 -0.6659 -0.0029
 7698SOL    HW230558   0.831   5.484   2.210 -0.7390  0.8122 -1.7082
 7698SOL    HW330559   0.875   5.365   2.126  0.3470  1.7617 -2.5238
 7698SOL    MW430560   0.812   5.412   2.165  0.0282 -0.1506 -0.5605
 7699SOL     OW30561   5.941   0.639   5.834 -0.1729  0.1469 -0.0173
 7699SOL    HW230562   5.882   0.564   5.820  0.7452 -1.2258  2.8007
 7699SOL    HW330563   5.910   0.680   5.914 -0.7252  2.9810 -1.5726
 7699SOL    MW430564   5.929   0.634   5.842 -0.1246  0.3397  0.1493
 7700SOL     OW30565   5.731   5.167   2.699 -0.4367  0.4207 -0.4783
 7700SOL    HW230566   5.823   5.145   2.683 -0.2352  0.0435  1.0211
 7700SOL    HW330567   5.727   5.262   2.687 -0.2283  0.2367 -2.1681
 7700SOL    MW430568   5.743   5.177   2.696 -0.3826  0.3466 -0.5034
 7701SOL     OW30569   0.634   6.289   6.264 -0.0553 -0.5560  0.7085
 7701SOL    HW230570   0.597   6.305   6.177  1.1994 -2.5968 -0.2740
 7701SOL    HW330571   0.622   6.372   6.310 -0.1674  0.8344 -1.6269
 7701SOL    MW430572   0.627   6.302   6.259  0.0954 -0.6418  0.2707
 7702SOL     OW30573   1.895   1.052   6.117 -0.2795 -0.5215 -0.0970
 7702SOL    HW230574   1.816   1.071   6.066  0.1326 -0.2071 -0.6287
 7702SOL    HW330575   1.890   1.111   6.192  0.2486  0.6544 -0.9685
 7702SOL    MW430576   1.884   1.062   6.120 -0.1555 -0.3248 -0.2821
 7703SOL     OW30577   0.712   5.083   0.903  0.0521  0.1633  0.6938
 7703SOL    HW230578   0.665   5.094   0.821  0.6549  0.0438  0.3255
 7703SOL    HW330579   0.693   4.993   0.931  0.3885 -0.0207  0.3355
 7703SOL    MW430580   0.704   5.073   0.896  0.1760  0.1232  0.5979
 7704SOL     OW30581   5.810   0.304   0.585  0.1021 -0.4098  0.1526
 7704SOL    HW230582   5.733   0.357   0.602 -0.1610 -1.0547  1.0111
 7704SOL    HW330583   5.855   0.349   0.513 -0.5871  0.4644  0.2599
 7704SOL    MW430584   5.806   0.317   0.578 -0.0235 -0.3795  0.2800
 7705SOL     OW30585   4.059   6.179   1.701 -0.3255  0.0039  0.6820
 7705SOL    HW230586   3.986   6.187   1.640 -0.2175  0.0255  0.5561
 7705SOL    HW330587   4.082   6.269   1.723  0.8590  0.0646 -0.6991
 7705SOL    MW430588   4.052   6.192   1.696 -0.1550  0.0147  0.4832
 7706SOL     OW30589   1.294   6.311   2.182  0.0534  0.7162  0.3714
 7706SOL    HW230590   1.234   6.347   2.117 -0.4652 -1.6129 -0.5704
 7706SOL    HW330591   1.255   6.333   2.267 -0.8339  1.3198 -0.1832
 7706SOL    MW430592   1.281   6.319   2.185 -0.1321  0.4885  0.1740
 7707SOL     OW30593   4.180   3.244   0.846  0.3677 -0.3611 -0.1288
 7707SOL    HW230594   4.090   3.244   0.879  0.9020  2.5695  1.6814
 7707SOL    HW330595   4.171   3.240   0.751 -1.6671 -0.0895  0.0110
 7707SOL    MW430596   4.167   3.243   0.838  0.1697  0.0614  0.1285
 7708SOL     OW30597   6.222   0.696   4.970 -0.2017 -0.5147  0.2890
 7708SOL    HW230598   6.295   0.722   4.915  0.3376 -1.7497  0.3697
 7708SOL    HW330599   6.259   0.627   5.026 -1.1664 -0.4434  1.0295
 7708SOL    MW430600   6.237   0.690   4.970 -0.2578 -0.6683  0.3974
 7709SOL     OW30601   5.229   2.546   0.869 -0.4505 -0.3939  0.3557
 7709SOL    HW230602   5.234   2.473   0.930 -2.0450 -0.0775  0.9265
 7709SOL    HW330603   5.269   2.619   0.915  1.1878 -0.8825 -0.2333
 7709SOL    MW430604   5.235   2.546   0.883 -0.4447 -0.4166  0.3533
 7710SOL     OW30605   2.348   3.709   0.421  0.1185  0.4155  0.0666
 7710SOL    HW230606   2.381   3.695   0.510 -0.7004  2.1234  0.6903
 7710SOL    HW330607   2.407   3.774   0.383 -0.3608  0.7418 -0.1279
 7710SOL    MW430608   2.360   3.715   0.428 -0.0528  0.6839  0.1233
 7711SOL     OW30609   6.392   3.931   4.172  0.0190 -0.0621 -0.4957
 7711SOL    HW230610   6.472   3.904   4.127  0.1484  1.5106 -1.2916
 7711SOL    HW330611   6.332   3.858   4.161  0.2555  0.0115 -2.7478
 7711SOL    MW430612   6.395   3.918   4.165  0.0673  0.1551 -0.8978
 7712SOL     OW30613   5.157   1.216   1.785  0.5998  0.0714 -0.2152
 7712SOL    HW230614   5.205   1.179   1.711 -0.5035 -0.6166 -0.6113
 7712SOL    HW330615   5.171   1.154   1.857  0.8069  0.1879 -0.1560
 7712SOL    MW430616   5.165   1.203   1.785  0.4816 -0.0040 -0.2596
 7713SOL     OW30617   1.878   6.271   3.617  0.3448  0.6149 -0.4149
 7713SOL    HW230618   1.973   6.287   3.619  0.4774  0.1072 -1.8234
 7713SOL    HW330619   1.869   6.188   3.571 -0.7737  0.4064  0.1555
 7713SOL    MW430620   1.890   6.262   3.611  0.2147  0.5204 -0.5255
 7714SOL     OW30621   1.922   5.548   3.778  0.0146 -0.4363  0.2403
 7714SOL    HW230622   1.963   5.559   3.864  0.1406  3.0508 -0.1205
 7714SOL    HW330623   1.829   5.535   3.797  0.3928 -2.4444  0.9110
 7714SOL    MW430624   1.915   5.548   3.792  0.0811 -0.2412  0.2812
 7715SOL     OW30625   1.188   1.126   0.421  0.0542  0.1383  0.5504
 7715SOL    HW230626   1.260   1.097   0.476  1.0851  1.2510 -0.1629
 7715SOL    HW330627   1.228   1.187   0.359 -1.3122 -0.0285 -0.5526
 7715SOL    MW430628   1.203   1.130   0.420  0.0099  0.2631  0.3108
 7716SOL     OW30629   0.147   3.412   0.693  0.1409 -0.1887 -0.0046
 7716SOL    HW230630   0.066   3.453   0.663  0.1085 -0.8560 -0.8731
 7716SOL    HW330631   0.203   3.411   0.616  1.1973  0.7616  0.7289
 7716SOL    MW430632   0.144   3.417   0.679  0.2760 -0.1514 -0.0224
 7717SOL     OW30633   2.664   6.473   3.957  0.0243  0.4508  0.0783
 7717SOL    HW230634   2.685   6.420   3.880 -0.4693  0.6029 -0.1667
 7717SOL    HW330635   2.577   6.442   3.984  0.5329 -0.1682  1.0620
 7717SOL    MW430636   2.655   6.462   3.950  0.0263  0.3892  0.1757
 7718SOL     OW30637   1.123   0.599   0.058 -0.1168 -0.1106 -0.2061
 7718SOL    HW230638   1.216   0.576   0.053  0.1382  0.7069  0.4159
 7718SOL    HW330639   1.082   0.523   0.099  0.7198  0.4883  1.9063
 7718SOL    MW430640   1.130   0.586   0.063  0.0272  0.0763  0.1547
 7719SOL     OW30641   4.427   2.097   1.380 -0.3749 -0.1750  0.1191
 7719SOL    HW230642   4.518   2.072   1.397  0.5620  0.9323 -2.6906
 7719SOL    HW330643   4.396   2.133   1.463  2.6143  1.7249  0.5855
 7719SOL    MW430644   4.435   2.099   1.393  0.1431  0.2218 -0.1901
 7720SOL     OW30645   1.932   0.074   5.432 -0.3275 -0.7163 -0.2544
 7720SOL    HW230646   1.976   0.020   5.366 -0.1158 -2.0512  0.9429
 7720SOL    HW330647   1.839   0.066   5.411 -0.2446 -0.8635 -0.5824
 7720SOL    MW430648   1.925   0.066   5.420 -0.2887 -0.9118 -0.1397
 7721SOL     OW30649   3.322   4.828   1.747  0.3663 -0.5575  0.4146
 7721SOL    HW230650   3.268   4.859   1.675 -0.6716 -0.2862  1.2798
 7721SOL    HW330651   3.404   4.877   1.738  0.0759 -0.1859 -0.3035
 7721SOL    MW430652   3.326   4.839   1.737  0.1911 -0.4727  0.4340
 7722SOL     OW30653   5.116   2.498   4.346 -0.0509  0.0678 -0.3878
 7722SOL    HW230654   5.073   2.572   4.302 -1.0114 -0.7964 -0.9299
 7722SOL    HW330655   5.195   2.482   4.295  0.0435  0.5711 -0.4039
 7722SOL    MW430656   5.120   2.506   4.334 -0.1652  0.0202 -0.4615
 7723SOL     OW30657   3.864   4.993   1.796  0.1294 -0.2950 -0.1852
 7723SOL    HW230658   3.850   5.046   1.875  1.0940  1.3780 -1.0846
 7723SOL    HW330659   3.955   4.965   1.802  1.2637  2.5498 -2.1718
 7723SOL    MW430660   3.874   4.996   1.807  0.4063  0.3011 -0.5660
 7724SOL     OW30661   5.963   5.091   0.414 -0.1913  0.0718 -0.4074
 7724SOL    HW230662   5.946   5.181   0.386  1.8608  0.3366 -1.0168
 7724SOL    HW330663   6.058   5.080   0.402 -0.1864 -1.7612  0.8760
 7724SOL    MW430664   5.973   5.101   0.409  0.0801 -0.1351 -0.3184
 7725SOL     OW30665   4.122   3.808   5.377 -0.4678  0.5200  0.4452
 7725SOL    HW230666   4.119   3.844   5.288  0.5902 -0.5960 -0.0796
 7725SOL    HW330667   4.177   3.869   5.426  0.5305  0.1445 -0.1808
 7725SOL    MW430668   4.128   3.821   5.371 -0.1965  0.3232  0.2934
 7726SOL     OW30669   5.490   2.881   5.835 -0.2042  0.0619  0.0165
 7726SOL    HW230670   5.443   2.932   5.900 -0.5935 -1.2721  0.8205
 7726SOL    HW330671   5.564   2.843   5.883  0.2202  0.0519 -0.6203
 7726SOL    MW430672   5.494   2.883   5.850 -0.1996 -0.1154  0.0386
 7727SOL     OW30673   0.716   2.233   6.331 -0.0730 -0.9382 -0.0890
 7727SOL    HW230674   0.632   2.256   6.370  0.5554  0.3350  0.5355
 7727SOL    HW330675   0.703   2.246   6.237 -0.0554  1.0752  0.1465
 7727SOL    MW430676   0.703   2.238   6.324  0.0122 -0.5046  0.0244
 7728SOL     OW30677   6.357   6.449   2.476 -0.0190 -0.3326 -0.2706
 7728SOL    HW230678   6.356   6.479   2.567  0.3464 -0.2509 -0.2929
 7728SOL    HW330679   6.447   6.463   2.447 -0.2239 -0.0181 -0.7636
 7728SOL    MW430680   6.368   6.455   2.484  0.0022 -0.2804 -0.3386
 7729SOL     OW30681   0.429   0.200   4.552  0.0627  0.6358  0.2693
 7729SOL    HW230682   0.466   0.226   4.467 -0.1480 -1.0797 -0.3862
 7729SOL    HW330683   0.335   0.215   4.542 -0.0169  0.0017  0.0184
 7729SOL    MW430684   0.421   0.206   4.539  0.0244  0.3258  0.1497
 7730SOL     OW30685   1.922   6.113   1.040  0.4250  0.4934  0.3741
 7730SOL    HW230686   1.857   6.044   1.055  0.2255  0.7973  0.9581
 7730SOL    HW330687   1.995   6.090   1.098  1.3398 -0.4525 -1.0735
 7730SOL    MW430688   1.923   6.101   1.050  0.5194  0.4087  0.2601
 7731SOL     OW30689   4.858   2.522   4.918 -0.1834  0.3070  0.7056
 7731SOL    HW230690   4.783   2.565   4.877  0.6881  0.8006 -0.4185
 7731SOL    HW330691   4.887   2.457   4.853  0.1234 -0.1444  1.2874
 7731SOL    MW430692   4.852   2.519   4.904 -0.0280  0.3126  0.6340
 7732SOL     OW30693   0.259   0.344   2.242  0.2022  0.1158  0.6855
 7732SOL    HW230694   0.230   0.256   2.268  2.7187 -1.3646 -0.9813
 7732SOL    HW330695   0.258   0.342   2.146  1.2469  1.5598  0.6130
 7732SOL    MW430696   0.255   0.332   2.233  0.6720  0.1110  0.4560
 7733SOL     OW30697   2.449   0.317   2.825 -0.3913 -0.4061  0.0871
 7733SOL    HW230698   2.492   0.289   2.745  0.1130 -0.5573  0.4093
 7733SOL    HW330699   2.503   0.281   2.896 -0.3928  0.3777  0.4992
 7733SOL    MW430700   2.462   0.308   2.824 -0.3249 -0.3227  0.1840
 7734SOL     OW30701   3.977   1.182   5.079  0.2177  0.1104 -0.1248
 7734SOL    HW230702   3.923   1.105   5.094  0.2223  0.3939  1.5442
 7734SOL    HW330703   4.050   1.173   5.140  1.1406  0.5918 -1.1248
 7734SOL    MW430704   3.979   1.171   5.089  0.3401  0.2113 -0.0365
 7735SOL     OW30705   1.172   6.031   0.243 -0.3929 -0.1066 -0.1160
 7735SOL    HW230706   1.119   6.110   0.254 -1.8856 -0.7529 -2.0653
 7735SOL    HW330707   1.262   6.063   0.235 -0.8959  1.3418 -0.2233
 7735SOL    MW430708   1.177   6.046   0.243 -0.6562 -0.0008 -0.3873
 7736SOL     OW30709   3.313   4.592   1.272 -0.9433  0.1697  0.5654
 7736SOL    HW230710   3.371   4.572   1.345  1.1776  0.8679 -0.8423
 7736SOL    HW330711   3.303   4.687   1.274 -1.0890  0.1667  0.1040
 7736SOL    MW430712   3.319   4.602   1.282 -0.6827  0.2615  0.3188
 7737SOL     OW30713   3.805   4.602   1.684  0.0843 -0.2030  0.1775
 7737SOL    HW230714   3.724   4.563   1.714 -1.2910  1.0518 -1.6804
 7737SOL    HW330715   3.853   4.530   1.644 -0.3439 -0.8461  0.7984
 7737SOL    MW430716   3.801   4.587   1.683 -0.1536 -0.1223  0.0143
 7738SOL     OW30717   5.120   1.685   0.086 -0.0899  0.4160 -0.4204
 7738SOL    HW230718   5.210   1.682   0.055 -0.3746 -0.4678 -1.2082
 7738SOL    HW330719   5.092   1.775   0.071  0.4674  0.5407 -0.7397
 7738SOL    MW430720   5.128   1.697   0.080 -0.0539  0.3158 -0.5665
 7739SOL     OW30721   2.159   4.880   1.381  0.7410  0.5108  0.0898
 7739SOL    HW230722   2.079   4.929   1.363 -0.7429 -1.0965  1.8027
 7739SOL    HW330723   2.185   4.844   1.295 -0.8394  0.4428 -0.3970
 7739SOL    MW430724   2.152   4.881   1.367  0.3367  0.2898  0.2516
 7740SOL     OW30725   5.000   3.326   6.437  1.2242 -0.4869 -0.0980
 7740SOL    HW230726   5.007   3.422   6.441  0.0237 -0.4372  1.9459
 7740SOL    HW330727   5.084   3.298   6.400  2.0637  1.2728  0.3428
 7740SOL    MW430728   5.012   3.335   6.432  1.1766 -0.2482  0.2298
 7741SOL     OW30729   5.963   1.191   2.849 -0.2322 -0.5689  0.1017
 7741SOL    HW230730   6.040   1.242   2.824  0.1364 -0.9791  0.3690
 7741SOL    HW330731   5.907   1.191   2.771 -0.4962  0.6897  0.2723
 7741SOL    MW430732   5.966   1.197   2.835 -0.2184 -0.4570  0.1594
 7742SOL     OW30733   3.473   5.893   0.706 -0.4252  0.2279 -0.7491
 7742SOL    HW230734   3.531   5.935   0.769  1.5952 -2.5441 -0.5927
 7742SOL    HW330735   3.517   5.906   0.621  0.8294 -2.3031 -0.5678
 7742SOL    MW430736   3.487   5.900   0.703  0.0069 -0.4718 -0.7045
 7743SOL     OW30737   5.324   4.506   3.477 -0.4024  0.3362 -0.0187
 7743SOL    HW230738   5.403   4.508   3.424 -0.8315 -2.0241 -0.8579
 7743SOL    HW330739   5.352   4.471   3.562 -0.1879  1.6786  0.4983
 7743SOL    MW430740   5.338   4.502   3.482 -0.4307  0.2019 -0.0612
 7744SOL     OW30741   3.582   0.830   6.162  0.3845  0.4860 -0.1050
 7744SOL    HW230742   3.540   0.875   6.088 -1.1601  0.8034  0.9365
 7744SOL    HW330743   3.541   0.868   6.240 -0.2186 -1.9822  0.8562
 7744SOL    MW430744   3.571   0.841   6.162  0.1011  0.2022  0.1593
 7745SOL     OW30745   5.676   4.187   4.274 -0.1581 -0.1025  0.0132
 7745SOL    HW230746   5.688   4.208   4.367 -2.6678 -0.9355  0.6115
 7745SOL    HW330747   5.661   4.273   4.233 -3.0512  0.0672  1.1636
 7745SOL    MW430748   5.675   4.201   4.281 -0.8710 -0.1900  0.2439
 7746SOL     OW30749   6.418   2.693   1.326  0.9964 -0.1404  0.0372
 7746SOL    HW230750   6.373   2.763   1.278  1.2767  0.5514  0.7690
 7746SOL    HW330751   6.347   2.643   1.368  0.8660  0.6454  0.7787
 7746SOL    MW430752   6.402   2.695   1.325  1.0162  0.0546  0.2316
 7747SOL     OW30753   3.027   0.656   2.523  0.2549 -0.0841 -0.0286
 7747SOL    HW230754   2.978   0.619   2.449 -1.3231 -1.7062  1.7007
 7747SOL    HW330755   3.037   0.748   2.501 -2.3761  0.0347 -1.1934
 7747SOL    MW430756   3.022   0.663   2.510 -0.3004 -0.2825  0.0459
 7748SOL     OW30757   0.802   1.401   3.346  0.6165  0.0340  0.4082
 7748SOL    HW230758   0.883   1.417   3.297  1.1637 -1.9893  0.5344
 7748SOL    HW330759   0.830   1.397   3.438 -0.2162  2.6231  0.8648
 7748SOL    MW430760   0.817   1.403   3.352  0.5788  0.1087  0.4851
 7749SOL     OW30761   5.930   3.872   4.568 -0.0606  0.2469  0.2196
 7749SOL    HW230762   5.941   3.905   4.479  0.4280 -1.0549 -0.2263
 7749SOL    HW330763   5.953   3.946   4.625  2.2719  0.3064 -0.7250
 7749SOL    MW430764   5.934   3.886   4.564  0.3116  0.0830  0.0361
 7750SOL     OW30765   3.537   0.196   6.366  0.3752  0.1759 -0.0746
 7750SOL    HW230766   3.476   0.266   6.341  1.4415  1.7964  1.5966
 7750SOL    HW330767   3.509   0.121   6.314 -0.1417  2.0989 -2.8161
 7750SOL    MW430768   3.525   0.195   6.356  0.4477  0.6434 -0.2158
 7751SOL     OW30769   1.288   4.964   1.987 -0.4892  0.1995 -0.4524
 7751SOL    HW230770   1.214   4.909   1.964 -0.0007 -0.7071  0.1085
 7751SOL    HW330771   1.362   4.904   1.995  0.1519  0.9901 -0.2749
 7751SOL    MW430772   1.288   4.949   1.985 -0.3401  0.1842 -0.3550
 7752SOL     OW30773   2.467   3.041   4.923 -0.3572 -0.4837 -0.3297
 7752SOL    HW230774   2.414   3.063   5.000 -1.1617  1.2903 -1.3269
 7752SOL    HW330775   2.423   3.086   4.850  1.6461 -0.2131 -1.4460
 7752SOL    MW430776   2.455   3.050   4.924 -0.1991 -0.2139 -0.6086
 7753SOL     OW30777   0.210   3.078   3.490 -0.2583 -0.2673  0.2001
 7753SOL    HW230778   0.226   3.172   3.501  0.7054 -0.1305 -1.8854
 7753SOL    HW330779   0.281   3.036   3.538 -1.6693 -0.0726  2.6763
 7753SOL    MW430780   0.221   3.085   3.498 -0.3173 -0.2236  0.2517
 7754SOL     OW30781   5.719   4.457   5.981  0.2321  0.5793  0.5940
 7754SOL    HW230782   5.810   4.434   5.998  0.0236 -0.4342  0.4212
 7754SOL    HW330783   5.706   4.539   6.028  0.5004 -0.6185  2.9447
 7754SOL    MW430784   5.729   4.465   5.989  0.2400  0.2875  0.8813
 7755SOL     OW30785   5.834   1.113   3.385  0.4503  0.1363 -0.0476
 7755SOL    HW230786   5.810   1.021   3.401  2.6307 -0.6504 -0.8820
 7755SOL    HW330787   5.775   1.142   3.316 -0.5238 -0.5173  0.4978
 7755SOL    MW430788   5.823   1.105   3.378  0.6094 -0.0537 -0.0858
 7756SOL     OW30789   0.846   1.352   5.639 -0.0448  0.1038 -0.3837
 7756SOL    HW230790   0.879   1.298   5.710 -0.1326  0.2065 -0.2662
 7756SOL    HW330791   0.897   1.325   5.563 -0.3546 -0.4161 -0.4080
 7756SOL    MW430792   0.857   1.341   5.638 -0.0972  0.0488 -0.3714
 7757SOL     OW30793   4.899   5.499   2.197 -0.4835  0.1453 -0.2008
 7757SOL    HW230794   4.804   5.483   2.199 -0.6962  1.3867  1.1967
 7757SOL    HW330795   4.936   5.424   2.244 -0.6833 -0.6904 -1.3262
 7757SOL    MW430796   4.891   5.487   2.204 -0.5380  0.1988 -0.1649
 7758SOL     OW30797   2.570   2.886   3.015  0.3199  0.0134  0.6536
 7758SOL    HW230798   2.643   2.865   2.957  1.2932  0.7359  1.5759
 7758SOL    HW330799   2.525   2.803   3.027  0.0218 -0.1477 -1.1931
 7758SOL    MW430800   2.574   2.873   3.009  0.4090  0.0874  0.5316
 7759SOL     OW30801   1.348   1.820   3.457  0.6121 -0.1997  0.0023
 7759SOL    HW230802   1.281   1.791   3.395 -0.7568  1.0667  0.8344
 7759SOL    HW330803   1.373   1.908   3.426  1.1696 -0.2522  0.2790
 7759SOL    MW430804   1.343   1.828   3.445  0.5051 -0.0395  0.1486
 7760SOL     OW30805   6.087   4.061   6.454  0.7806  0.5916 -0.2734
 7760SOL    HW230806   6.124   4.147   6.434 -0.0114  0.9353 -0.3122
 7760SOL    HW330807   6.010   4.080   6.507  2.1867 -0.2386  2.2064
 7760SOL    MW430808   6.082   4.075   6.458  0.8616  0.5274  0.0487
 7761SOL     OW30809   0.696   1.366   3.704 -0.2268  0.1177  0.5592
 7761SOL    HW230810   0.752   1.436   3.738 -0.4284 -0.5485  2.3914
 7761SOL    HW330811   0.624   1.360   3.767 -1.5624 -0.0878 -0.9146
 7761SOL    MW430812   0.694   1.375   3.717 -0.4296  0.0027  0.6065
 7762SOL     OW30813   0.755   2.811   2.490  0.1916  0.0097 -0.2181
 7762SOL    HW230814   0.702   2.738   2.460  0.3236 -0.4385  0.5979
 7762SOL    HW330815   0.702   2.889   2.474 -0.5827 -0.4038  0.2965
 7762SOL    MW430816   0.741   2.812   2.484  0.1069 -0.1040 -0.0426
 7763SOL     OW30817   5.725   0.996   0.974 -0.0092 -0.5441 -0.0138
 7763SOL    HW230818   5.702   1.031   1.060 -0.0342 -1.7253  0.4845
 7763SOL    HW330819   5.675   0.915   0.968 -0.2981 -0.2861 -1.3177
 7763SOL    MW430820   5.715   0.990   0.985 -0.0507 -0.6659 -0.1201
 7764SOL     OW30821   2.797   1.053   0.829  0.4034 -0.1905 -0.4556
 7764SOL    HW230822   2.732   0.993   0.794 -2.2041  0.7712  2.3340
 7764SOL    HW330823   2.821   1.017   0.914  0.0704  1.7370  0.5217
 7764SOL    MW430824   2.792   1.041   0.836  0.0154  0.1907  0.0414
 7765SOL     OW30825   2.755   4.525   4.530 -0.5486  0.3082 -0.3373
 7765SOL    HW230826   2.779   4.436   4.554  0.1277  0.6271  0.1877
 7765SOL    HW330827   2.837   4.574   4.536 -0.9326  0.9788 -0.5480
 7765SOL    MW430828   2.769   4.520   4.534 -0.5100  0.4387 -0.2959
 7766SOL     OW30829   5.057   1.850   3.305 -0.0738 -0.1611 -0.3679
 7766SOL    HW230830   5.080   1.942   3.318 -1.9686  0.3378 -0.1960
 7766SOL    HW330831   5.042   1.842   3.211  0.1124 -0.3052 -0.3857
 7766SOL    MW430832   5.058   1.861   3.294 -0.2992 -0.1143 -0.3476
 7767SOL     OW30833   4.007   5.480   6.150 -0.7538 -0.5027 -0.3427
 7767SOL    HW230834   4.004   5.570   6.181 -0.6137 -1.1245  1.6451
 7767SOL    HW330835   3.969   5.483   6.062 -0.3454  1.5367 -0.4975
 7767SOL    MW430836   4.002   5.492   6.143 -0.6815 -0.3157 -0.1009
 7768SOL     OW30837   6.345   2.677   4.030 -0.2469  0.5574 -0.1624
 7768SOL    HW230838   6.419   2.713   4.078 -0.2576  2.3964 -1.4171
 7768SOL    HW330839   6.280   2.747   4.028  0.0574  0.9405 -3.4365
 7768SOL    MW430840   6.346   2.691   4.036 -0.2082  0.8506 -0.7599
 7769SOL     OW30841   3.363   2.764   4.896 -0.4101  0.1548 -0.5955
 7769SOL    HW230842   3.369   2.827   4.824 -0.5214  2.9944  1.6889
 7769SOL    HW330843   3.270   2.762   4.917 -0.3109 -0.2501 -0.1959
 7769SOL    MW430844   3.352   2.772   4.889 -0.4117  0.4760 -0.2414
 7770SOL     OW30845   5.408   5.925   6.053 -0.4836 -0.0921  0.2558
 7770SOL    HW230846   5.467   5.923   5.978 -0.5455 -0.3500  0.2113
 7770SOL    HW330847   5.342   5.990   6.030  0.1289  0.6484  0.5720
 7770SOL    MW430848   5.407   5.933   6.040 -0.4109 -0.0285  0.2916
 7771SOL     OW30849   4.220   3.141   6.271  0.2535 -0.9840 -0.2246
 7771SOL    HW230850   4.148   3.084   6.244 -0.0863  0.2411 -2.0295
 7771SOL    HW330851   4.299   3.095   6.242  0.2733 -2.2377  1.5893
 7771SOL    MW430852   4.221   3.127   6.264  0.2113 -0.9878 -0.2234
 7772SOL     OW30853   6.031   0.603   2.668  0.3155  0.3980 -0.5520
 7772SOL    HW230854   6.074   0.624   2.585  0.6682  1.2826 -0.1562
 7772SOL    HW330855   5.988   0.684   2.694 -1.7159 -0.4762 -0.9721
 7772SOL    MW430856   6.031   0.616   2.661  0.0940  0.3994 -0.5552
 7773SOL     OW30857   4.962   1.811   1.568  0.2069 -0.2089 -0.3507
 7773SOL    HW230858   4.978   1.738   1.627 -0.1581 -1.0334 -1.2360
 7773SOL    HW330859   5.047   1.828   1.526 -0.1036 -1.4139 -1.5401
 7773SOL    MW430860   4.975   1.804   1.570  0.1178 -0.4767 -0.6244
 7774SOL     OW30861   3.595   0.440   5.355 -0.3191  0.8024 -0.0582
 7774SOL    HW230862   3.626   0.523   5.392  0.0732  0.3322  0.6946
 7774SOL    HW330863   3.572   0.388   5.431  0.7461 -0.2909 -0.4549
 7774SOL    MW430864   3.596   0.444   5.370 -0.1268  0.5961 -0.0112
 7775SOL     OW30865   5.939   1.855   1.548  0.7289  0.1269 -0.0319
 7775SOL    HW230866   5.926   1.763   1.570 -0.3559  0.3823  0.4741
 7775SOL    HW330867   5.854   1.884   1.515  1.2490  0.7816 -0.8451
 7775SOL    MW430868   5.926   1.847   1.546  0.6544  0.2470 -0.0724
 7776SOL     OW30869   1.047   3.824   5.621 -0.2093 -0.7550 -0.2699
 7776SOL    HW230870   1.105   3.837   5.546 -0.4784 -0.3141 -0.4062
 7776SOL    HW330871   1.106   3.807   5.694  0.1482  0.5703 -0.2290
 7776SOL    MW430872   1.062   3.823   5.621 -0.1977 -0.5219 -0.2825
 7777SOL     OW30873   5.498   2.530   0.786  1.1504  0.1221 -0.2170
 7777SOL    HW230874   5.494   2.601   0.722  1.2318  1.3013  1.0544
 7777SOL    HW330875   5.408   2.522   0.819  1.2617  0.0361  0.0677
 7777SOL    MW430876   5.486   2.538   0.782  1.1758  0.2663 -0.0117
 7778SOL     OW30877   5.202   5.953   5.155 -0.2653  0.1639 -0.1218
 7778SOL    HW230878   5.272   6.005   5.115 -0.3823 -0.4125 -1.0848
 7778SOL    HW330879   5.151   5.920   5.082 -0.7703 -0.5209  0.5255
 7778SOL    MW430880   5.204   5.956   5.140 -0.3474 -0.0025 -0.1634
 7779SOL     OW30881   5.131   0.440   2.339 -0.7681 -0.0759 -0.0872
 7779SOL    HW230882   5.126   0.445   2.435  0.6389  0.1416  0.0103
 7779SOL    HW330883   5.136   0.347   2.320 -1.0815 -0.1212  0.0500
 7779SOL    MW430884   5.131   0.429   2.349 -0.6238 -0.0532 -0.0562
 7780SOL     OW30885   4.685   4.921   4.686 -0.5374  0.1780 -0.2389
 7780SOL    HW230886   4.631   4.976   4.743 -0.1771  0.2558  0.0323
 7780SOL    HW330887   4.626   4.852   4.657 -1.3455  1.3924 -1.5971
 7780SOL    MW430888   4.670   4.919   4.690 -0.5965  0.3485 -0.3824
 7781SOL     OW30889   4.613   2.893   1.181 -0.1889 -0.0880 -0.5266
 7781SOL    HW230890   4.698   2.857   1.203  0.4538  0.5265 -1.8813
 7781SOL    HW330891   4.582   2.840   1.107 -0.7005  0.0930 -0.4503
 7781SOL    MW430892   4.620   2.881   1.174 -0.1716  0.0170 -0.6953
 7782SOL     OW30893   6.049   3.409   4.506  0.5106 -0.4504 -0.4485
 7782SOL    HW230894   6.070   3.499   4.528  1.1414 -1.0967  2.0218
 7782SOL    HW330895   6.133   3.369   4.485  0.1148 -0.2820 -2.5604
 7782SOL    MW430896   6.063   3.415   4.506  0.5416 -0.5135 -0.4012
 7783SOL     OW30897   1.241   5.193   0.299  0.1220 -0.3630 -0.4142
 7783SOL    HW230898   1.301   5.207   0.372  1.5222 -0.4407 -1.4970
 7783SOL    HW330899   1.214   5.102   0.307  0.6035 -0.4910 -0.2256
 7783SOL    MW430900   1.246   5.183   0.310  0.3703 -0.3902 -0.5322
 7784SOL     OW30901   2.889   2.366   2.647  0.5346  0.2369  0.3180
 7784SOL    HW230902   2.874   2.319   2.728  1.5774 -1.3481 -0.3599
 7784SOL    HW330903   2.802   2.397   2.620 -0.3768 -2.1194  0.3295
 7784SOL    MW430904   2.876   2.364   2.654  0.5520 -0.2831  0.2301
 7785SOL     OW30905   1.578   3.226   0.126 -0.1620  0.0603 -0.2837
 7785SOL    HW230906   1.666   3.193   0.145  0.0803  0.4776 -0.6657
 7785SOL    HW330907   1.534   3.227   0.211  0.5795  0.9468  0.0974
 7785SOL    MW430908   1.583   3.222   0.140 -0.0322  0.2324 -0.2838
 7786SOL     OW30909   4.371   2.725   0.535  0.0763 -0.4734 -0.0580
 7786SOL    HW230910   4.460   2.747   0.561  0.1710 -1.0056  0.0742
 7786SOL    HW330911   4.361   2.765   0.448  1.1144 -2.0285 -0.9419
 7786SOL    MW430912   4.381   2.733   0.527  0.2258 -0.7488 -0.1572
 7787SOL     OW30913   6.031   4.940   5.857  0.8942  0.1067 -0.4960
 7787SOL    HW230914   5.992   4.996   5.925  2.4571 -0.1399  0.6605
 7787SOL    HW330915   6.053   4.859   5.903  0.7514 -0.5795 -1.6236
 7787SOL    MW430916   6.029   4.937   5.872  1.0815 -0.0164 -0.4922
 7788SOL     OW30917   4.338   6.192   1.915 -0.3178 -0.0033  0.3068
 7788SOL    HW230918   4.366   6.239   1.837  0.3602  0.0076  0.5554
 7788SOL    HW330919   4.404   6.124   1.928 -0.4565 -0.0425  0.8326
 7788SOL    MW430920   4.350   6.189   1.906 -0.2466 -0.0070  0.4090
 7789SOL     OW30921   4.657   4.847   1.367  0.5042  0.2900 -0.1702
 7789SOL    HW230922   4.735   4.808   1.406 -0.4564 -1.4032  0.1514
 7789SOL    HW330923   4.642   4.796   1.288  0.0487  0.9944 -0.5533
 7789SOL    MW430924   4.665   4.835   1.362  0.3174  0.1596 -0.1783
 7790SOL     OW30925   6.183   5.413   2.947 -0.2389 -0.6605  0.0781
 7790SOL    HW230926   6.269   5.433   2.986  0.3086 -0.0547 -1.3626
 7790SOL    HW330927   6.141   5.355   3.011  0.5718  0.3298  1.5955
 7790SOL    MW430928   6.189   5.408   2.961 -0.0597 -0.4499  0.0882
 7791SOL     OW30929   5.989   4.366   5.931 -0.5512 -0.5136  0.2976
 7791SOL    HW230930   6.025   4.299   5.874  0.1619 -1.2282  1.5342
 7791SOL    HW330931   6.022   4.344   6.018 -3.4489 -0.8444  1.4325
 7791SOL    MW430932   5.998   4.354   5.935 -0.8395 -0.6515  0.6105
 7792SOL     OW30933   5.930   2.234   3.289  0.4414  0.3723 -0.9805
 7792SOL    HW230934   5.921   2.139   3.284  1.1681  0.3392 -1.8793
 7792SOL    HW330935   5.848   2.263   3.330 -0.4067 -0.5225 -1.9616
 7792SOL    MW430936   5.918   2.225   3.294  0.4254  0.2499 -1.2285
 7793SOL     OW30937   3.835   1.518   3.321 -0.0814  0.5893 -0.1378
 7793SOL    HW230938   3.795   1.466   3.390  2.4727 -0.2474  0.8253
 7793SOL    HW330939   3.770   1.586   3.301 -2.6469 -1.6564  0.0393
 7793SOL    MW430940   3.821   1.520   3.327 -0.0829  0.1826  0.0126
 7794SOL     OW30941   2.004   4.372   3.625 -0.4121  0.1343  0.0560
 7794SOL    HW230942   1.934   4.321   3.583 -0.3258  0.4702 -0.4969
 7794SOL    HW330943   1.961   4.452   3.655  0.2448  1.6926 -2.8247
 7794SOL    MW430944   1.989   4.376   3.624 -0.3141  0.3842 -0.3970
 7795SOL     OW30945   1.393   3.994   2.245 -0.4317  0.3160  0.5845
 7795SOL    HW230946   1.389   4.069   2.305 -1.7027 -0.8082  2.0125
 7795SOL    HW330947   1.468   3.942   2.277  0.5423  1.0213 -0.4960
 7795SOL    MW430948   1.403   3.997   2.257 -0.4709  0.2607  0.6303
 7796SOL     OW30949   2.525   4.123   2.983 -0.4404 -0.0345  0.0041
 7796SOL    HW230950   2.548   4.036   2.949 -0.4088  0.4097 -1.1505
 7796SOL    HW330951   2.607   4.158   3.017 -0.5125 -0.5633  0.7733
 7796SOL    MW430952   2.539   4.116   2.983 -0.4457 -0.0456 -0.0468
 7797SOL     OW30953   4.029   5.703   3.555  0.3052 -0.7314  0.1861
 7797SOL    HW230954   3.962   5.755   3.598  0.1208 -0.8786  0.0789
 7797SOL    HW330955   4.088   5.677   3.625 -0.6958 -2.0433  0.5837
 7797SOL    MW430956   4.028   5.706   3.570  0.1488 -0.9239  0.2245
 7798SOL     OW30957   2.381   5.228   5.036  0.4062 -0.1718  0.0662
 7798SOL    HW230958   2.352   5.137   5.045  1.3079 -0.3905  0.9245
 7798SOL    HW330959   2.324   5.265   4.969 -0.5472 -1.1312  0.3187
 7798SOL    MW430960   2.370   5.221   5.029  0.3994 -0.3272  0.2128
 7799SOL     OW30961   2.175   5.857   4.581  0.4023  0.2853  0.3629
 7799SOL    HW230962   2.233   5.831   4.509 -0.5556  0.6089 -0.5577
 7799SOL    HW330963   2.142   5.775   4.616  1.5390  0.0849  1.0304
 7799SOL    MW430964   2.179   5.843   4.576  0.4259  0.3015  0.3295
 7800SOL     OW30965   4.715   1.128   5.003 -0.0148  0.3884 -0.5263
 7800SOL    HW230966   4.711   1.181   4.924 -2.2510  2.4304  0.8335
 7800SOL    HW330967   4.672   1.181   5.070 -0.6808 -2.3819  1.4148
 7800SOL    MW430968   4.709   1.142   5.001 -0.3977  0.2923 -0.0908
 7801SOL     OW30969   4.212   5.959   5.580  0.3808  0.2453 -0.2366
 7801SOL    HW230970   4.170   6.032   5.535  0.4383 -1.2938 -3.0213
 7801SOL    HW330971   4.302   5.986   5.592 -0.1929  1.6565  1.3551
 7801SOL    MW430972   4.218   5.972   5.576  0.3127  0.2284 -0.3940
 7802SOL     OW30973   5.416   2.228   0.427  0.4249 -0.1981 -0.6369
 7802SOL    HW230974   5.382   2.315   0.407  1.4218  0.0679 -1.2745
 7802SOL    HW330975   5.403   2.177   0.347 -0.6268 -0.8052 -0.0999
 7802SOL    MW430976   5.410   2.232   0.414  0.4177 -0.2431 -0.6502
 7803SOL     OW30977   4.209   6.388   4.222 -0.3970  0.7731 -0.2222
 7803SOL    HW230978   4.214   6.339   4.305  1.2060  0.4674 -0.4654
 7803SOL    HW330979   4.145   6.456   4.239 -2.1048 -0.8835  0.4063
 7803SOL    MW430980   4.201   6.390   4.235 -0.4109  0.5142 -0.1713
 7804SOL     OW30981   4.767   4.171   6.137 -0.7769  0.0234 -0.0155
 7804SOL    HW230982   4.733   4.260   6.145  0.5780  0.5478  0.2996
 7804SOL    HW330983   4.797   4.148   6.225 -1.2903 -0.8237 -0.0531
 7804SOL    MW430984   4.767   4.179   6.150 -0.6658 -0.0192  0.0211
 7805SOL     OW30985   2.015   0.965   1.527 -0.1977  0.3301 -1.0914
 7805SOL    HW230986   2.089   0.905   1.539 -0.6958 -0.0350  0.2618
 7805SOL    HW330987   2.042   1.020   1.453  1.2025 -0.1284 -0.9609
 7805SOL    MW430988   2.028   0.964   1.519 -0.0787  0.2215 -0.8956
 7806SOL     OW30989   3.946   0.350   1.398  0.2527 -0.3190  0.6255
 7806SOL    HW230990   4.020   0.375   1.452  0.2653  0.4993  0.2539
 7806SOL    HW330991   3.869   0.378   1.447  0.3130  3.7147 -1.2027
 7806SOL    MW430992   3.945   0.357   1.411  0.2623  0.3211  0.3353
 7807SOL     OW30993   4.991   5.522   4.134 -0.2140  0.3711 -0.3971
 7807SOL    HW230994   5.052   5.504   4.206 -1.0019 -0.9469 -0.0340
 7807SOL    HW330995   4.989   5.618   4.129  3.2348  0.5339 -1.5960
 7807SOL    MW430996   4.999   5.533   4.143  0.1371  0.2187 -0.5074
 7808SOL     OW30997   4.124   2.837   5.273  0.1641  1.3145 -0.1527
 7808SOL    HW230998   4.106   2.746   5.296  0.4242  1.1502 -0.5760
 7808SOL    HW330999   4.188   2.866   5.338  1.1445  0.7528 -0.8290
 7808SOL    MW431000   4.130   2.829   5.284  0.3278  1.2187 -0.2978
 7809SOL     OW31001   3.576   3.391   4.601 -0.2559 -0.2049  0.2844
 7809SOL    HW231002   3.647   3.363   4.544 -0.5261 -1.1158  0.3869
 7809SOL    HW331003   3.503   3.333   4.580 -1.1524  1.0309 -0.1773
 7809SOL    MW431004   3.576   3.380   4.591 -0.4098 -0.1621  0.2370
 7810SOL     OW31005   1.906   2.013   4.044 -0.0388  0.2172  0.6262
 7810SOL    HW231006   1.905   2.077   3.973  1.0634 -0.3898  0.0214
 7810SOL    HW331007   1.921   1.929   4.000  1.4128 -0.0825  1.6193
 7810SOL    MW431008   1.908   2.010   4.029  0.2982  0.0976  0.6774
 7811SOL     OW31009   2.498   4.096   3.528  0.1117 -0.5478  0.1218
 7811SOL    HW231010   2.488   4.074   3.435 -0.6855  1.4618 -0.3233
 7811SOL    HW331011   2.508   4.191   3.529  0.9759 -0.6164  2.0518
 7811SOL    MW431012   2.498   4.105   3.516  0.1205 -0.2917  0.3178
 7812SOL     OW31013   0.917   0.471   1.803  0.3355  0.1898  0.1316
 7812SOL    HW231014   1.006   0.504   1.805  0.2456  0.5252 -0.9114
 7812SOL    HW331015   0.901   0.439   1.892  1.6321 -0.2729  0.2136
 7812SOL    MW431016   0.926   0.471   1.815  0.4947  0.1730  0.0048
 7813SOL     OW31017   5.345   2.610   1.320  0.2239 -0.2771 -0.5216
 7813SOL    HW231018   5.358   2.516   1.313 -0.0486 -0.4823  1.3479
 7813SOL    HW331019   5.367   2.644   1.233  0.8096 -1.9953 -1.0738
 7813SOL    MW431020   5.350   2.602   1.307  0.2652 -0.5309 -0.3478
 7814SOL     OW31021   3.095   0.149   5.109  0.5327 -0.2634  0.3115
 7814SOL    HW231022   3.008   0.130   5.143 -2.0959  3.2720 -3.3999
 7814SOL    HW331023   3.105   0.091   5.033  0.4495  0.6388 -0.4129
 7814SOL    MW431024   3.085   0.139   5.103  0.1749  0.3221 -0.2738
 7815SOL     OW31025   0.698   5.471   0.080  0.1935  0.1716 -0.1473
 7815SOL    HW231026   0.720   5.561   0.104 -2.8485  0.5718  1.5552
 7815SOL    HW331027   0.729   5.463  -0.011  1.3811  2.5789 -0.0405
 7815SOL    MW431028   0.705   5.482   0.071 -0.0512  0.5420  0.0914
 7816SOL     OW31029   2.447   0.065   0.092  0.2109  0.2986 -0.9441
 7816SOL    HW231030   2.489   0.008   0.027  1.6282  0.1712  0.0585
 7816SOL    HW331031   2.478   0.153   0.070 -0.6515  0.4850 -1.4593
 7816SOL    MW431032   2.456   0.069   0.080  0.2841  0.3064 -0.8798
 7817SOL     OW31033   2.999   5.741   2.507 -0.0886  0.3659 -0.1010
 7817SOL    HW231034   3.045   5.821   2.482  1.0590 -0.9004 -2.4000
 7817SOL    HW331035   2.948   5.717   2.430 -0.3752 -1.1406  0.5131
 7817SOL    MW431036   2.998   5.749   2.494  0.0250  0.0001 -0.3233
 7818SOL     OW31037   6.091   0.436   2.877 -0.0930 -0.1981  0.0645
 7818SOL    HW231038   6.161   0.460   2.937  0.9831 -1.6919 -0.5038
 7818SOL    HW331039   6.063   0.518   2.837  0.7578  0.5290  0.9314
 7818SOL    MW431040   6.097   0.450   2.879  0.1612 -0.2993  0.1039
 7819SOL     OW31041   6.079   4.357   3.799 -0.1714  0.5414 -0.3828
 7819SOL    HW231042   6.058   4.399   3.716 -0.5462  1.3760  0.1176
 7819SOL    HW331043   6.166   4.389   3.821 -0.5855  1.3295  0.1544
 7819SOL    MW431044   6.088   4.367   3.791 -0.2755  0.7555 -0.2459
 7820SOL     OW31045   5.883   4.429   3.168 -0.1740 -0.0448  0.4121
 7820SOL    HW231046   5.873   4.388   3.254 -0.1744 -0.7116  0.0972
 7820SOL    HW331047   5.914   4.359   3.111  0.5969  0.5859  0.0426
 7820SOL    MW431048   5.885   4.415   3.172 -0.0723 -0.0495  0.3218
 7821SOL     OW31049   3.875   0.072   6.075 -0.7011 -1.0723  0.1530
 7821SOL    HW231050   3.850   0.164   6.084 -0.2608 -0.9800  0.4560
 7821SOL    HW331051   3.960   0.066   6.119 -1.2426 -1.8606  1.1157
 7821SOL    MW431052   3.883   0.084   6.082 -0.7145 -1.1641  0.3200
 7822SOL     OW31053   0.803   1.308   0.488  0.1955  0.7782 -0.1221
 7822SOL    HW231054   0.817   1.250   0.413 -0.2363  0.1695  0.2589
 7822SOL    HW331055   0.800   1.249   0.563  0.9767  1.4097  0.4293
 7822SOL    MW431056   0.805   1.292   0.488  0.2416  0.7812  0.0009
 7823SOL     OW31057   2.682   5.507   0.139  0.1042  0.4556 -0.4676
 7823SOL    HW231058   2.669   5.599   0.117 -2.5453 -0.0313 -1.2005
 7823SOL    HW331059   2.684   5.462   0.055  2.5773 -0.1222 -0.1899
 7823SOL    MW431060   2.681   5.513   0.125  0.0809  0.3151 -0.5277
 7824SOL     OW31061   5.720   4.324   5.570  0.1223  0.2961  0.2887
 7824SOL    HW231062   5.805   4.297   5.536 -0.0631  0.4094 -0.2860
 7824SOL    HW331063   5.736   4.408   5.613  0.4616 -0.1053  0.9698
 7824SOL    MW431064   5.733   4.332   5.571  0.1426  0.2581  0.3027
 7825SOL     OW31065   4.345   0.280   5.462 -0.1838  0.2150 -0.1110
 7825SOL    HW231066   4.291   0.215   5.416  0.7490  0.3811 -1.5214
 7825SOL    HW331067   4.340   0.255   5.554 -0.1482 -1.6524 -0.5783
 7825SOL    MW431068   4.337   0.268   5.468 -0.0560 -0.0095 -0.3588
 7826SOL     OW31069   4.612   0.975   4.711  0.3080 -0.3416 -0.4097
 7826SOL    HW231070   4.652   0.890   4.729  1.2061  0.1449 -0.0478
 7826SOL    HW331071   4.534   0.954   4.660 -0.0424 -1.4477  0.5363
 7826SOL    MW431072   4.607   0.961   4.706  0.3802 -0.4234 -0.2372
 7827SOL     OW31073   3.073   0.940   5.557 -0.7685  0.0550  0.0195
 7827SOL    HW231074   3.087   1.005   5.626  0.7959  0.6473 -0.8156
 7827SOL    HW331075   2.978   0.941   5.543 -0.9546  0.9962  1.1231
 7827SOL    MW431076   3.062   0.949   5.565 -0.5867  0.2574  0.0550
 7828SOL     OW31077   0.680   5.856   4.098  0.1152  0.0815 -0.0404
 7828SOL    HW231078   0.672   5.832   4.006  0.8510  0.1200 -0.1204
 7828SOL    HW331079   0.674   5.952   4.099  0.3296  0.0946 -0.0707
 7828SOL    MW431080   0.678   5.866   4.086  0.2406  0.0883 -0.0550
 7829SOL     OW31081   2.610   3.739   4.041 -0.2774 -0.3944  0.7685
 7829SOL    HW231082   2.569   3.822   4.016  1.1935  0.7422  1.9083
 7829SOL    HW331083   2.583   3.726   4.132 -1.8964 -2.1153  0.1027
 7829SOL    MW431084   2.601   3.748   4.050 -0.2970 -0.4715  0.8311
 7830SOL     OW31085   0.783   3.542   0.806 -0.1500  0.2996  0.0449
 7830SOL    HW231086   0.877   3.543   0.824 -0.5596  1.3669  2.5592
 7830SOL    HW331087   0.769   3.617   0.749  0.6784 -0.8174 -1.7330
 7830SOL    MW431088   0.794   3.552   0.801 -0.0947  0.2931  0.1421
 7831SOL     OW31089   2.828   1.997   1.490  0.1905  0.1523 -0.3667
 7831SOL    HW231090   2.892   1.971   1.424  0.1983 -2.8856  0.6974
 7831SOL    HW331091   2.880   2.010   1.570 -0.1060  1.4731 -0.3655
 7831SOL    MW431092   2.844   1.995   1.492  0.1524 -0.0743 -0.2261
 7832SOL     OW31093   6.320   0.689   1.481  0.3513  0.6053  0.0581
 7832SOL    HW231094   6.260   0.685   1.407 -0.3365  1.8747  0.5078
 7832SOL    HW331095   6.264   0.691   1.558  1.0289  0.1931  0.5795
 7832SOL    MW431096   6.305   0.689   1.482  0.3499  0.7184  0.1862
 7833SOL     OW31097   4.335   0.800   0.403  0.2484 -0.1104  0.3079
 7833SOL    HW231098   4.353   0.857   0.328  2.3330  0.7952  1.4237
 7833SOL    HW331099   4.289   0.856   0.465 -1.6559 -0.9160 -0.2862
 7833SOL    MW431100   4.331   0.815   0.401  0.2722 -0.0972  0.3768
 7834SOL     OW31101   6.025   1.150   6.464  0.5897  0.0008  0.3307
 7834SOL    HW231102   5.994   1.218   6.523  1.4999  0.7778 -0.0624
 7834SOL    HW331103   6.120   1.160   6.464  0.6021  0.2025 -1.4471
 7834SOL    MW431104   6.033   1.160   6.472  0.7114  0.1299  0.0442
 7835SOL     OW31105   0.394   0.842   5.121 -0.5640  0.0631  0.1103
 7835SOL    HW231106   0.369   0.813   5.209 -2.4805 -1.1339 -0.7738
 7835SOL    HW331107   0.488   0.824   5.116 -0.8564 -2.0495  1.1327
 7835SOL    MW431108   0.404   0.836   5.132 -0.8555 -0.3735  0.1285
 7836SOL     OW31109   6.347   5.317   2.415  0.1349 -0.7005 -0.5201
 7836SOL    HW231110   6.374   5.228   2.436  0.0798 -0.2762  1.5449
 7836SOL    HW331111   6.421   5.372   2.439 -1.2123  0.1487  2.1188
 7836SOL    MW431112   6.360   5.313   2.421 -0.0501 -0.5324  0.1006
 7837SOL     OW31113   4.173   0.337   3.022 -0.4978  0.4913 -0.8158
 7837SOL    HW231114   4.124   0.266   2.979 -0.0819  0.9937 -2.1785
 7837SOL    HW331115   4.114   0.412   3.017 -0.1210  0.7648 -1.2981
 7837SOL    MW431116   4.159   0.338   3.015 -0.3932  0.5936 -1.0592
 7838SOL     OW31117   2.643   4.666   5.797  0.3312  0.1819  0.6464
 7838SOL    HW231118   2.652   4.674   5.702  1.8865 -2.0985  0.5145
 7838SOL    HW331119   2.723   4.705   5.832  0.1197  0.3269  0.9754
 7838SOL    MW431120   2.655   4.672   5.789  0.5085 -0.0998  0.6724
 7839SOL     OW31121   2.598   6.024   3.800  0.4497  0.2395 -0.3614
 7839SOL    HW231122   2.667   6.030   3.735 -0.2559  0.6831 -1.0928
 7839SOL    HW331123   2.533   6.089   3.772 -0.3273 -0.2672  0.2191
 7839SOL    MW431124   2.598   6.034   3.788  0.2541  0.2312 -0.3813
 7840SOL     OW31125   2.265   4.188   0.311  0.5701 -0.1865  0.4477
 7840SOL    HW231126   2.283   4.171   0.218  0.4510 -1.3901  0.6243
 7840SOL    HW331127   2.204   4.261   0.311  0.2535 -0.4333 -0.4476
 7840SOL    MW431128   2.260   4.195   0.299  0.5126 -0.3778  0.3528
 7841SOL     OW31129   5.530   4.530   1.150  0.2339  0.0839  0.0186
 7841SOL    HW231130   5.517   4.625   1.152  1.0597  0.2399 -1.1321
 7841SOL    HW331131   5.568   4.509   1.235 -1.9235  0.4458  1.1403
 7841SOL    MW431132   5.533   4.540   1.161  0.0582  0.1522  0.0148
 7842SOL     OW31133   1.950   0.396   6.142 -0.4760  0.1579  0.0873
 7842SOL    HW231134   2.030   0.403   6.089 -0.1831 -0.5474  0.4231
 7842SOL    HW331135   1.879   0.397   6.077 -0.0672 -2.2554 -0.5170
 7842SOL    MW431136   1.951   0.397   6.126 -0.3834 -0.2536  0.0519
 7843SOL     OW31137   4.346   4.867   1.115  0.0312  0.2606  0.6424
 7843SOL    HW231138   4.371   4.950   1.157  0.0213  1.3866 -1.4143
 7843SOL    HW331139   4.342   4.889   1.022 -0.8875 -1.8589  0.1398
 7843SOL    MW431140   4.349   4.881   1.108 -0.0913  0.1295  0.3048
 7844SOL     OW31141   3.520   5.282   1.104 -0.2885  0.5251  0.5704
 7844SOL    HW231142   3.440   5.314   1.147 -0.4028  2.5638 -1.0134
 7844SOL    HW331143   3.588   5.344   1.131  0.1181  0.5073 -0.3826
 7844SOL    MW431144   3.518   5.294   1.113 -0.2500  0.7917  0.2357
 7845SOL     OW31145   1.979   0.310   4.330 -0.2763  0.3580 -0.0883
 7845SOL    HW231146   1.986   0.295   4.425 -0.5304 -1.4314 -0.3141
 7845SOL    HW331147   1.953   0.402   4.322 -0.1584  0.5716  1.5701
 7845SOL    MW431148   1.976   0.320   4.342 -0.2942  0.1501  0.1007
 7846SOL     OW31149   4.830   5.546   2.627 -0.1684  0.2017  0.3295
 7846SOL    HW231150   4.881   5.578   2.552 -1.1331  3.9912  1.0539
 7846SOL    HW331151   4.842   5.613   2.694 -3.6835 -0.2299  1.5828
 7846SOL    MW431152   4.838   5.559   2.626 -0.7595  0.6447  0.5905
 7847SOL     OW31153   0.117   2.296   1.639  0.6603 -0.1118 -0.4787
 7847SOL    HW231154   0.066   2.250   1.706 -0.6762  2.1722  0.1868
 7847SOL    HW331155   0.078   2.271   1.556 -1.2116  1.0867 -0.0161
 7847SOL    MW431156   0.105   2.287   1.637  0.2370  0.3477 -0.3299
 7848SOL     OW31157   6.273   4.045   3.412 -0.3784 -0.2324  0.1800
 7848SOL    HW231158   6.333   4.120   3.408  0.0464 -0.5951 -0.5481
 7848SOL    HW331159   6.238   4.047   3.501  0.7437 -0.0230  0.6323
 7848SOL    MW431160   6.276   4.055   3.423 -0.1743 -0.2526  0.1436
 7849SOL     OW31161   2.521   4.693   5.327 -0.1568  0.1992  0.3378
 7849SOL    HW231162   2.588   4.670   5.392  0.9130 -1.1110 -1.1515
 7849SOL    HW331163   2.470   4.612   5.316 -0.6214  0.5516 -0.1234
 7849SOL    MW431164   2.523   4.679   5.334 -0.0770  0.0728  0.0804
 7850SOL     OW31165   3.013   0.669   3.813 -0.1800 -0.4824 -0.3328
 7850SOL    HW231166   2.977   0.758   3.818 -0.4179 -0.4995 -1.4498
 7850SOL    HW331167   3.085   0.669   3.876  2.1690  1.6427 -2.7555
 7850SOL    MW431168   3.018   0.681   3.822  0.0986 -0.2043 -0.7999
 7851SOL     OW31169   3.555   1.985   0.884  0.1421  0.1724 -0.1140
 7851SOL    HW231170   3.547   2.063   0.829  0.6763  0.2166 -0.1260
 7851SOL    HW331171   3.643   1.953   0.869  0.0550 -0.2168  0.1858
 7851SOL    MW431172   3.565   1.991   0.875  0.2011  0.1269 -0.0760
 7852SOL     OW31173   2.192   1.170   5.822 -0.3543  0.0382 -0.4154
 7852SOL    HW231174   2.255   1.124   5.766 -0.5281  1.6286 -2.0115
 7852SOL    HW331175   2.116   1.112   5.825  0.8682 -1.6330  1.0368
 7852SOL    MW431176   2.190   1.156   5.815 -0.2160  0.0275 -0.4344
 7853SOL     OW31177   2.343   5.896   2.229 -0.0398 -0.2220 -0.1250
 7853SOL    HW231178   2.286   5.928   2.300  1.6854 -0.8144  1.6047
 7853SOL    HW331179   2.292   5.911   2.149 -1.9193  0.8106  1.1877
 7853SOL    MW431180   2.328   5.902   2.228 -0.0601 -0.1639  0.2764
 7854SOL     OW31181   5.145   1.652   4.440  0.7009 -0.0285 -0.0839
 7854SOL    HW231182   5.134   1.655   4.345  0.6815  1.8985 -0.0686
 7854SOL    HW331183   5.058   1.670   4.475  1.0126  0.8980  0.2546
 7854SOL    MW431184   5.132   1.655   4.432  0.7395  0.3480 -0.0372
 7855SOL     OW31185   5.752   6.114   1.698  0.3716 -0.2919 -0.3338
 7855SOL    HW231186   5.694   6.042   1.672  0.6809  0.4972 -3.6340
 7855SOL    HW331187   5.837   6.072   1.714  0.1887 -0.8168 -0.7233
 7855SOL    MW431188   5.756   6.099   1.697  0.3883 -0.2570 -0.8206
 7856SOL     OW31189   4.437   5.216   3.107 -0.5838 -0.2869  0.1561
 7856SOL    HW231190   4.413   5.289   3.164  0.6204 -1.4492  2.2964
 7856SOL    HW331191   4.366   5.153   3.117 -0.4736 -0.4029  0.2069
 7856SOL    MW431192   4.425   5.218   3.116 -0.4104 -0.4556  0.4452
 7857SOL     OW31193   4.786   2.940   3.287 -0.4081 -0.4478  0.3651
 7857SOL    HW231194   4.874   2.971   3.269 -1.1027  1.1385 -0.4229
 7857SOL    HW331195   4.775   2.952   3.381  0.1556 -0.5351  0.4449
 7857SOL    MW431196   4.796   2.945   3.297 -0.4254 -0.2500  0.2717
 7858SOL     OW31197   5.154   0.532   5.499  0.0824  0.3977  0.2584
 7858SOL    HW231198   5.201   0.574   5.571 -1.0409  1.1467  0.5707
 7858SOL    HW331199   5.072   0.580   5.493 -1.0833 -1.5081  0.3556
 7858SOL    MW431200   5.149   0.544   5.508 -0.2196  0.2450  0.3124
 7859SOL     OW31201   3.216   1.838   1.097  0.7450 -0.5981 -0.1021
 7859SOL    HW231202   3.219   1.748   1.064  3.1475 -0.6528  0.0333
 7859SOL    HW331203   3.161   1.885   1.034 -1.9222 -2.4274  0.7114
 7859SOL    MW431204   3.209   1.832   1.084  0.7101 -0.8467  0.0231
 7860SOL     OW31205   1.456   2.394   5.708 -0.0165  0.1345  0.3482
 7860SOL    HW231206   1.529   2.437   5.664 -1.4577  0.4080 -1.9660
 7860SOL    HW331207   1.492   2.313   5.743  1.3042  0.0090 -1.2051
 7860SOL    MW431208   1.470   2.389   5.707 -0.0324  0.1540 -0.1621
 7861SOL     OW31209   4.020   2.986   6.086 -0.3516  0.1474 -0.6134
 7861SOL    HW231210   3.962   2.944   6.149 -1.7004  1.7292 -0.7260
 7861SOL    HW331211   3.962   3.037   6.030  1.0348  0.7055 -1.6127
 7861SOL    MW431212   4.005   2.987   6.087 -0.3467  0.4298 -0.7601
 7862SOL     OW31213   3.985   2.975   4.256 -0.3096 -0.1780 -0.1500
 7862SOL    HW231214   4.063   3.018   4.292 -1.3116  0.3208  1.5174
 7862SOL    HW331215   3.999   2.976   4.161  1.3338  0.6147  0.0677
 7862SOL    MW431216   3.997   2.981   4.248 -0.2250 -0.0076  0.0987
 7863SOL     OW31217   0.570   5.070   4.904  0.4123  0.0533  0.3582
 7863SOL    HW231218   0.475   5.062   4.896  0.5814 -1.4147 -0.6773
 7863SOL    HW331219   0.595   5.126   4.831  0.2340  1.7426  1.5333
 7863SOL    MW431220   0.561   5.076   4.893  0.4111  0.0825  0.3766
 7864SOL     OW31221   3.462   1.890   3.083 -0.1195  0.1576 -0.7936
 7864SOL    HW231222   3.492   1.967   3.131  1.0410 -0.7616  0.0011
 7864SOL    HW331223   3.440   1.827   3.151 -1.1651 -0.1997 -1.4369
 7864SOL    MW431224   3.463   1.892   3.098 -0.1043 -0.0108 -0.7736
 7865SOL     OW31225   3.981   2.970   0.742  0.1894 -0.0106  0.1042
 7865SOL    HW231226   3.980   3.004   0.832  1.4929  0.0925  0.1046
 7865SOL    HW331227   4.074   2.952   0.725 -0.0738 -0.2527 -1.1419
 7865SOL    MW431228   3.993   2.972   0.752  0.3267 -0.0289 -0.0601
 7866SOL     OW31229   3.759   0.821   2.754 -0.2582 -0.2685 -0.1237
 7866SOL    HW231230   3.693   0.886   2.729  1.1723  1.0896 -0.5545
 7866SOL    HW331231   3.709   0.741   2.769 -2.0113  0.7326 -0.2856
 7866SOL    MW431232   3.743   0.819   2.753 -0.3008  0.0428 -0.2019
 7867SOL     OW31233   1.011   2.970   0.758 -0.0746 -0.0621 -0.3856
 7867SOL    HW231234   0.948   2.899   0.771 -0.7692  0.2268 -1.9151
 7867SOL    HW331235   1.064   2.970   0.837 -2.0729 -0.2333  1.0152
 7867SOL    MW431236   1.009   2.961   0.770 -0.4299 -0.0466 -0.4026
 7868SOL     OW31237   0.758   0.857   3.006 -0.3507  0.0564  0.5949
 7868SOL    HW231238   0.690   0.876   2.942 -0.3126 -0.9468  0.2381
 7868SOL    HW331239   0.827   0.813   2.957  0.7508  1.3786  0.8774
 7868SOL    MW431240   0.758   0.854   2.991 -0.2004  0.0985  0.5851
 7869SOL     OW31241   3.547   2.107   3.232 -0.1076 -0.2616  0.4774
 7869SOL    HW231242   3.610   2.154   3.287 -0.5847 -0.6345  1.3700
 7869SOL    HW331243   3.494   2.177   3.192  1.5081  0.1014 -1.1181
 7869SOL    MW431244   3.548   2.123   3.234  0.0426 -0.2629  0.3847
 7870SOL     OW31245   4.937   2.049   4.440 -0.1083 -0.3492 -0.2030
 7870SOL    HW231246   4.964   2.118   4.379 -3.1711  1.1433 -0.0404
 7870SOL    HW331247   4.952   2.086   4.527 -0.9124 -0.2514 -0.1033
 7870SOL    MW431248   4.942   2.063   4.443 -0.6185 -0.1394 -0.1684
 7871SOL     OW31249   5.487   5.674   4.105  0.2843  0.1754  0.5919
 7871SOL    HW231250   5.432   5.612   4.153 -0.1098 -0.3228 -0.4573
 7871SOL    HW331251   5.540   5.717   4.172 -0.6359 -0.0965  1.5154
 7871SOL    MW431252   5.487   5.671   4.120  0.1109  0.0738  0.5753
 7872SOL     OW31253   0.467   0.881   1.495  0.6174 -0.2190  0.5046
 7872SOL    HW231254   0.457   0.900   1.402  0.7869 -1.8580  0.1134
 7872SOL    HW331255   0.455   0.786   1.501 -1.0047  0.0426  2.3767
 7872SOL    MW431256   0.464   0.871   1.483  0.4257 -0.4008  0.7000
 7873SOL     OW31257   4.230   4.778   4.928  0.0919  0.3005  0.4047
 7873SOL    HW231258   4.315   4.741   4.903  0.3363  0.1599  1.4016
 7873SOL    HW331259   4.252   4.853   4.983 -0.4051 -0.9959  2.4776
 7873SOL    MW431260   4.244   4.783   4.932  0.0586  0.1109  0.8097
 7874SOL     OW31261   3.718   3.523   3.266  0.2245  0.0551 -0.1904
 7874SOL    HW231262   3.687   3.594   3.209  0.2104 -1.8129 -2.6921
 7874SOL    HW331263   3.639   3.491   3.309 -0.1338  0.1769 -0.7384
 7874SOL    MW431264   3.704   3.528   3.264  0.1754 -0.1753 -0.5928
 7875SOL     OW31265   5.622   1.047   4.332 -0.0198 -0.5056 -0.2500
 7875SOL    HW231266   5.593   0.964   4.371 -1.6591  0.1741  0.0716
 7875SOL    HW331267   5.616   1.033   4.238 -0.6858 -0.6245 -0.1913
 7875SOL    MW431268   5.617   1.034   4.325 -0.3240 -0.4316 -0.1998
 7876SOL     OW31269   5.986   0.381   0.082 -0.1094 -0.6784 -0.5051
 7876SOL    HW231270   5.963   0.419   0.166  2.2202  0.6934 -0.3813
 7876SOL    HW331271   5.982   0.287   0.096 -1.2059 -0.4865  0.6768
 7876SOL    MW431272   5.983   0.374   0.095  0.0533 -0.4721 -0.3329
 7877SOL     OW31273   5.545   0.478   0.613 -0.1987  0.0730 -0.4969
 7877SOL    HW231274   5.481   0.410   0.637  1.8032 -1.2499  1.5765
 7877SOL    HW331275   5.549   0.534   0.690 -0.1118  1.1961 -1.3017
 7877SOL    MW431276   5.537   0.476   0.626  0.0769  0.0467 -0.3295
 7878SOL     OW31277   1.270   1.201   4.568  0.2531  0.1576 -0.3363
 7878SOL    HW231278   1.325   1.149   4.626 -0.3790 -0.3012 -0.1377
 7878SOL    HW331279   1.198   1.232   4.623 -0.1634  0.0137 -0.7892
 7878SOL    MW431280   1.268   1.198   4.583  0.1147  0.0781 -0.3699
 7879SOL     OW31281   4.078   3.972   2.191  0.8723 -0.1790 -0.1903
 7879SOL    HW231282   4.081   3.964   2.096 -0.8168 -1.5162 -0.1788
 7879SOL    HW331283   4.028   4.052   2.207 -0.6173 -1.0072 -0.4879
 7879SOL    MW431284   4.072   3.982   2.181  0.4529 -0.4647 -0.2280
 7880SOL     OW31285   1.632   4.110   5.570  0.6197  0.0411 -0.2223
 7880SOL    HW231286   1.618   4.180   5.506  2.1298  1.1688  0.5950
 7880SOL    HW331287   1.702   4.144   5.627  0.7782 -1.7843  0.7441
 7880SOL    MW431288   1.640   4.124   5.569  0.8398 -0.0510  0.0130
 7881SOL     OW31289   4.781   2.812   1.535 -0.3146 -0.1558  0.4015
 7881SOL    HW231290   4.779   2.733   1.482 -0.5359 -0.3827  0.7442
 7881SOL    HW331291   4.780   2.781   1.625 -0.3512  0.2335  0.5384
 7881SOL    MW431292   4.780   2.798   1.540 -0.3486 -0.1344  0.4648
 7882SOL     OW31293   3.586   4.810   1.482 -0.2685  0.4084  0.6127
 7882SOL    HW231294   3.533   4.845   1.410  0.9206 -0.7227 -0.8791
 7882SOL    HW331295   3.548   4.724   1.499  0.7940 -0.2435 -0.1960
 7882SOL    MW431296   3.574   4.803   1.475  0.0286  0.1732  0.3092
 7883SOL     OW31297   3.864   2.570   6.143  0.1439  0.2979 -0.0241
 7883SOL    HW231298   3.871   2.540   6.233  0.9703  1.6441  0.3801
 7883SOL    HW331299   3.946   2.543   6.101  0.5293  1.2008  0.1193
 7883SOL    MW431300   3.876   2.562   6.149  0.3038  0.5946  0.0481
 7884SOL     OW31301   4.452   0.635   1.790 -0.4721  0.4957  0.7246
 7884SOL    HW231302   4.410   0.715   1.822 -0.8417  0.3734  0.5553
 7884SOL    HW331303   4.379   0.574   1.776 -0.3673  0.6568 -0.6790
 7884SOL    MW431304   4.437   0.637   1.793 -0.5070  0.5008  0.5170
 7885SOL     OW31305   5.422   1.945   3.567  0.0590  0.2560 -0.2810
 7885SOL    HW231306   5.510   1.915   3.591  0.6277  2.7975  1.1315
 7885SOL    HW331307   5.393   1.881   3.502  2.5114 -1.2610 -0.0532
 7885SOL    MW431308   5.430   1.932   3.562  0.4576  0.3911 -0.0646
 7886SOL     OW31309   1.442   3.754   6.470  0.2661 -0.2882 -0.1180
 7886SOL    HW231310   1.506   3.774   6.538 -0.4241  1.8145 -0.0201
 7886SOL    HW331311   1.426   3.838   6.426 -2.0080 -0.8472 -0.4946
 7886SOL    MW431312   1.449   3.768   6.473 -0.1250 -0.0845 -0.1548
 7887SOL     OW31313   1.465   3.014   1.697 -0.0746  0.2694  0.3141
 7887SOL    HW231314   1.551   2.984   1.726 -0.5283 -0.4864  0.9127
 7887SOL    HW331315   1.480   3.103   1.666  0.7229  0.5219  1.3914
 7887SOL    MW431316   1.478   3.022   1.697 -0.0292  0.2030  0.5352
 7888SOL     OW31317   1.990   0.556   1.796 -0.4137  0.2942 -0.5796
 7888SOL    HW231318   2.050   0.539   1.724 -1.7651 -0.0249 -1.6783
 7888SOL    HW331319   1.925   0.486   1.792 -0.8198  0.5625  0.6269
 7888SOL    MW431320   1.989   0.545   1.786 -0.6456  0.2875 -0.5654
 7889SOL     OW31321   1.233   3.504   5.366  0.4200  0.5745 -0.0993
 7889SOL    HW231322   1.148   3.524   5.403 -0.5045 -3.7265  0.7126
 7889SOL    HW331323   1.287   3.478   5.442  0.7794 -1.5030 -0.9898
 7889SOL    MW431324   1.229   3.503   5.381  0.3454 -0.2671 -0.1096
 7890SOL     OW31325   3.551   1.679   2.901 -0.0061  0.3718  0.1063
 7890SOL    HW231326   3.529   1.750   2.962  1.4437  0.8000  0.1564
 7890SOL    HW331327   3.565   1.723   2.818 -2.2377 -0.2378 -0.6626
 7890SOL    MW431328   3.550   1.694   2.898 -0.1092  0.3479  0.0114
 7891SOL     OW31329   1.550   4.660   0.926  0.3595 -0.6845 -0.0425
 7891SOL    HW231330   1.621   4.597   0.930  0.6728 -0.2488  1.8081
 7891SOL    HW331331   1.471   4.608   0.909  1.0739 -1.1510 -2.3343
 7891SOL    MW431332   1.549   4.645   0.924  0.4951 -0.6886 -0.1007
 7892SOL     OW31333   0.837   3.600   1.660  0.5838 -0.1319  0.4081
 7892SOL    HW231334   0.774   3.635   1.722  0.2196  1.3458 -0.7494
 7892SOL    HW331335   0.914   3.579   1.713  0.6664  2.0549  1.2233
 7892SOL    MW431336   0.839   3.602   1.675  0.5466  0.3516  0.3629
 7893SOL     OW31337   2.466   3.544   2.683  0.1606  0.0826  0.8502
 7893SOL    HW231338   2.518   3.490   2.624 -1.3143 -0.4614  0.0053
 7893SOL    HW331339   2.518   3.549   2.764  0.6888 -1.9362  0.6703
 7893SOL    MW431340   2.479   3.538   2.686  0.0357 -0.2555  0.7150
 7894SOL     OW31341   5.528   1.613   3.633  0.2972  0.1600  0.0622
 7894SOL    HW231342   5.564   1.541   3.581 -1.0078 -2.5560  2.6261
 7894SOL    HW331343   5.587   1.620   3.709 -1.2172 -0.3087  1.3253
 7894SOL    MW431344   5.541   1.604   3.636 -0.0748 -0.2602  0.5672
 7895SOL     OW31345   4.714   5.072   5.703  0.5965 -0.0587  0.5238
 7895SOL    HW231346   4.796   5.109   5.670 -0.0449 -0.7071 -2.0322
 7895SOL    HW331347   4.688   5.131   5.774  3.3452  0.0244  1.5742
 7895SOL    MW431348   4.721   5.085   5.708  0.8745 -0.1333  0.3252
 7896SOL     OW31349   2.147   2.335   6.351 -0.0879  0.0228  0.1883
 7896SOL    HW231350   2.117   2.332   6.260 -1.3406  1.7129  0.5042
 7896SOL    HW331351   2.242   2.329   6.345 -0.1717 -0.2157 -1.2047
 7896SOL    MW431352   2.156   2.334   6.338 -0.2642  0.2143  0.0462
 7897SOL     OW31353   3.085   3.800   5.904  0.4482 -0.1813 -0.7896
 7897SOL    HW231354   3.081   3.894   5.922  2.9007 -0.4330  1.6196
 7897SOL    HW331355   3.021   3.787   5.833 -0.6473  3.1021 -0.5846
 7897SOL    MW431356   3.076   3.811   5.897  0.6272  0.2187 -0.4447
 7898SOL     OW31357   4.454   4.665   5.224  0.0920  0.2213 -0.1993
 7898SOL    HW231358   4.387   4.710   5.275 -1.7458 -1.5459 -0.9359
 7898SOL    HW331359   4.507   4.620   5.289 -1.8190 -1.4715  0.3023
 7898SOL    MW431360   4.452   4.665   5.239 -0.4026 -0.2352 -0.2303
 7899SOL     OW31361   3.225   2.090   3.179  0.1196  0.2703  0.3561
 7899SOL    HW231362   3.259   2.072   3.092  1.3831 -0.6141  0.9947
 7899SOL    HW331363   3.194   2.005   3.211  0.0739  0.4956  0.9346
 7899SOL    MW431364   3.225   2.076   3.172  0.2803  0.1833  0.5167
 7900SOL     OW31365   1.647   4.120   2.065 -0.4520 -0.2651  0.2197
 7900SOL    HW231366   1.661   4.184   2.135 -0.5381 -0.1091  0.0939
 7900SOL    HW331367   1.578   4.062   2.099 -1.4472  0.5988 -0.2632
 7900SOL    MW431368   1.639   4.120   2.079 -0.5946 -0.1306  0.1394
 7901SOL     OW31369   4.963   4.805   0.861 -0.0499  0.0247  0.7744
 7901SOL    HW231370   5.001   4.797   0.949  1.4119 -0.2804  0.1490
 7901SOL    HW331371   5.026   4.761   0.804 -1.6846 -1.0801 -0.2665
 7901SOL    MW431372   4.976   4.798   0.865 -0.0727 -0.1613  0.5545
 7902SOL     OW31373   2.795   0.141   5.741 -0.7437 -0.1933 -0.0099
 7902SOL    HW231374   2.746   0.213   5.701 -0.9086  0.3176  1.0876
 7902SOL    HW331375   2.728   0.081   5.772 -0.6024 -0.9705 -1.1563
 7902SOL    MW431376   2.780   0.143   5.740 -0.7468 -0.2284 -0.0163
 7903SOL     OW31377   5.449   3.310   0.749 -0.0234 -0.2027  0.7590
 7903SOL    HW231378   5.364   3.268   0.741  0.1350 -0.4739  0.4284
 7903SOL    HW331379   5.474   3.299   0.840  0.2375 -1.2794  0.5757
 7903SOL    MW431380   5.441   3.303   0.760  0.0319 -0.3806  0.6912
 7904SOL     OW31381   0.290   2.687   0.489  0.0036  0.2360 -0.5317
 7904SOL    HW231382   0.351   2.620   0.522  1.3427  2.5832  2.2685
 7904SOL    HW331383   0.336   2.727   0.415  1.1228  0.7754  0.4219
 7904SOL    MW431384   0.304   2.683   0.484  0.3279  0.6169 -0.0364
 7905SOL     OW31385   5.402   3.367   4.247  0.2873  0.2714 -1.0418
 7905SOL    HW231386   5.403   3.322   4.163 -1.8441 -0.8482 -0.5317
 7905SOL    HW331387   5.494   3.367   4.276  0.8405 -0.5467 -2.7035
 7905SOL    MW431388   5.414   3.361   4.240  0.0791  0.0158 -1.1938
 7906SOL     OW31389   2.928   3.460   1.262 -0.3772 -0.6436  0.7896
 7906SOL    HW231390   2.879   3.537   1.289  1.6269  0.9126  0.2510
 7906SOL    HW331391   2.864   3.404   1.217 -1.6880  1.1147  0.3904
 7906SOL    MW431392   2.913   3.462   1.260 -0.2858 -0.2063  0.6659
 7907SOL     OW31393   2.354   0.469   2.396  0.8224 -0.2263  0.1619
 7907SOL    HW231394   2.427   0.456   2.456  0.0154 -0.7667  1.0436
 7907SOL    HW331395   2.276   0.461   2.450  0.0080 -2.2022 -1.1795
 7907SOL    MW431396   2.353   0.466   2.411  0.6085 -0.5583  0.1012
 7908SOL     OW31397   5.248   3.617   4.087  1.0757 -0.5918  0.1547
 7908SOL    HW231398   5.287   3.663   4.161  0.1766  1.6152 -0.6622
 7908SOL    HW331399   5.206   3.686   4.035  0.4613 -2.2407 -1.6608
 7908SOL    MW431400   5.248   3.632   4.090  0.8760 -0.5181 -0.1926
 7909SOL     OW31401   5.027   3.837   4.864 -0.4939  0.2152 -0.2938
 7909SOL    HW231402   4.955   3.895   4.891  0.3752  1.4476 -0.5585
 7909SOL    HW331403   4.984   3.753   4.847 -1.6449  0.4743  1.0961
 7909SOL    MW431404   5.012   3.834   4.865 -0.5311  0.4120 -0.1453
 7910SOL     OW31405   3.054   0.505   2.739 -0.0033 -0.1109  0.3422
 7910SOL    HW231406   3.032   0.559   2.663 -2.4915 -1.8908 -0.3390
 7910SOL    HW331407   3.116   0.440   2.705  0.9774  0.7103  0.5293
 7910SOL    MW431408   3.059   0.503   2.725 -0.2022 -0.2374  0.2770
 7911SOL     OW31409   1.875   0.843   4.891 -0.0989  0.3169 -0.3547
 7911SOL    HW231410   1.857   0.774   4.956  2.2534  0.9650  1.1066
 7911SOL    HW331411   1.832   0.921   4.926  2.6719  1.1301  1.5580
 7911SOL    MW431412   1.867   0.844   4.904  0.5770  0.5097  0.0905
 7912SOL     OW31413   6.057   1.591   0.634  0.4578  0.0905 -0.1752
 7912SOL    HW231414   5.984   1.648   0.661 -0.3466 -0.6159 -0.8152
 7912SOL    HW331415   6.135   1.637   0.665 -0.0008  2.5168 -2.2254
 7912SOL    MW431416   6.058   1.605   0.642  0.2912  0.3174 -0.5302
 7913SOL     OW31417   2.559   6.004   6.284 -0.8128 -0.2877  0.0971
 7913SOL    HW231418   2.513   6.002   6.368 -1.0848 -0.6867 -0.0571
 7913SOL    HW331419   2.542   5.918   6.245 -0.9515  0.0032 -0.5023
 7913SOL    MW431420   2.550   5.993   6.290 -0.8670 -0.3020 -0.0023
 7914SOL     OW31421   5.560   0.087   5.922 -0.4154 -0.3741 -0.8805
 7914SOL    HW231422   5.619   0.153   5.958 -1.6913  1.6377 -2.2849
 7914SOL    HW331423   5.618   0.016   5.894  1.0685  0.3841  0.1250
 7914SOL    MW431424   5.575   0.086   5.923 -0.3879 -0.0086 -0.9331
 7915SOL     OW31425   2.960   0.154   5.953  0.2317 -0.3051  0.4867
 7915SOL    HW231426   2.937   0.214   6.025 -1.1037 -1.3174  0.9421
 7915SOL    HW331427   2.879   0.146   5.902  1.1592  0.4098 -1.1912
 7915SOL    MW431428   2.946   0.161   5.956  0.1778 -0.3443  0.3254
 7916SOL     OW31429   5.654   4.917   5.949  0.7460 -0.0368 -0.0845
 7916SOL    HW231430   5.571   4.951   5.984  2.0957  1.6511  1.6839
 7916SOL    HW331431   5.632   4.886   5.862 -1.6274  0.9636  0.0864
 7916SOL    MW431432   5.640   4.918   5.942  0.6109  0.3179  0.1714
 7917SOL     OW31433   0.492   6.392   6.056  0.5444  0.7484 -0.1233
 7917SOL    HW231434   0.555   6.372   5.987 -1.5805  1.1454 -2.2927
 7917SOL    HW331435   0.504   6.485   6.074 -0.2390  1.1236 -1.4516
 7917SOL    MW431436   0.502   6.401   6.049  0.1607  0.8503 -0.5848
 7918SOL     OW31437   1.888   2.981   2.401  0.3597  0.1024 -0.0087
 7918SOL    HW231438   1.823   3.000   2.468  0.0031  0.8672 -0.5561
 7918SOL    HW331439   1.874   2.889   2.380  0.1720 -0.0227  0.6359
 7918SOL    MW431440   1.878   2.971   2.407  0.2879  0.1868  0.0041
 7919SOL     OW31441   2.781   6.092   2.717 -0.3242  0.3303  0.6533
 7919SOL    HW231442   2.793   6.084   2.623 -1.0265 -1.9021  0.7155
 7919SOL    HW331443   2.763   6.185   2.731 -0.4553  0.6542 -1.4332
 7919SOL    MW431444   2.780   6.103   2.707 -0.4342  0.0785  0.3862
 7920SOL     OW31445   3.476   3.909   3.626 -0.0028 -0.5127  0.0637
 7920SOL    HW231446   3.493   3.962   3.548 -0.9154  0.0202  0.2094
 7920SOL    HW331447   3.403   3.852   3.600  1.0969 -1.8691 -0.1603
 7920SOL    MW431448   3.469   3.908   3.612  0.0219 -0.6213  0.0534
 7921SOL     OW31449   0.638   3.064   6.126 -0.1467  0.0421  0.0020
 7921SOL    HW231450   0.612   3.086   6.215 -1.4036  1.3499 -0.6509
 7921SOL    HW331451   0.713   3.004   6.136 -2.1472 -2.3258  1.9702
 7921SOL    MW431452   0.645   3.059   6.139 -0.5765 -0.0978  0.1756
 7922SOL     OW31453   1.733   2.151   6.459 -0.1844 -0.2218 -0.0309
 7922SOL    HW231454   1.772   2.117   6.379  1.0428  0.0070  0.4535
 7922SOL    HW331455   1.725   2.074   6.516 -0.2214 -0.2232 -0.0380
 7922SOL    MW431456   1.737   2.136   6.456 -0.0274 -0.1918  0.0321
 7923SOL     OW31457   1.445   1.426   0.704  0.7359  0.0696 -0.1815
 7923SOL    HW231458   1.476   1.508   0.742  0.5017 -0.4957  1.2999
 7923SOL    HW331459   1.487   1.422   0.618  2.1178  0.9212  0.4113
 7923SOL    MW431460   1.455   1.436   0.698  0.8873  0.1074  0.0922
 7924SOL     OW31461   3.033   6.427   4.879  0.0656  0.4795  0.7953
 7924SOL    HW231462   3.118   6.384   4.865 -1.1495 -1.5508 -1.0839
 7924SOL    HW331463   3.025   6.487   4.805 -0.7924 -0.5463  0.0302
 7924SOL    MW431464   3.043   6.429   4.867 -0.2079  0.0763  0.4464
 7925SOL     OW31465   5.411   6.081   5.014  0.3410 -0.2976 -0.0041
 7925SOL    HW231466   5.410   6.011   4.948  0.2233  0.6569 -1.0523
 7925SOL    HW331467   5.339   6.139   4.988  1.8244  1.3977 -0.5169
 7925SOL    MW431468   5.402   6.079   5.002  0.5212  0.0520 -0.2101
 7926SOL     OW31469   1.590   1.260   1.291 -0.6614 -0.2754 -0.7183
 7926SOL    HW231470   1.600   1.165   1.286  1.7197 -0.2186  1.1701
 7926SOL    HW331471   1.651   1.294   1.226 -2.5694  0.0524 -2.4622
 7926SOL    MW431472   1.599   1.252   1.282 -0.5990 -0.2246 -0.6993
 7927SOL     OW31473   3.535   5.162   5.324 -0.7853 -0.6176  0.4850
 7927SOL    HW231474   3.530   5.233   5.260  1.8307 -1.3315 -0.6355
 7927SOL    HW331475   3.498   5.199   5.404 -0.1699  1.7668 -0.2534
 7927SOL    MW431476   3.529   5.176   5.326 -0.3590 -0.3972  0.2398
 7928SOL     OW31477   2.032   1.415   1.439  0.0483 -0.1979 -0.8303
 7928SOL    HW231478   2.028   1.460   1.354 -0.7696  3.8325  1.1157
 7928SOL    HW331479   1.941   1.392   1.458  0.0365  0.1381 -0.4739
 7928SOL    MW431480   2.019   1.418   1.430 -0.0611  0.3782 -0.5265
 7929SOL     OW31481   4.958   0.922   2.183  0.2670 -0.2584  0.2176
 7929SOL    HW231482   4.930   0.851   2.127 -0.9496 -0.2842  0.8177
 7929SOL    HW331483   5.019   0.973   2.130 -0.8293 -0.2849 -1.1240
 7929SOL    MW431484   4.962   0.920   2.169 -0.0381 -0.2653  0.1198
 7930SOL     OW31485   3.641   4.998   3.711 -0.1813 -0.6867  0.1011
 7930SOL    HW231486   3.593   5.005   3.794  2.5314 -1.9382  1.9272
 7930SOL    HW331487   3.676   5.086   3.696 -2.3474  0.0711 -0.9069
 7930SOL    MW431488   3.639   5.011   3.720 -0.1092 -0.7518  0.2091
 7931SOL     OW31489   2.544   4.923   5.191  0.3285 -0.5327 -0.7573
 7931SOL    HW231490   2.541   4.835   5.226  0.1094 -0.2535 -0.0608
 7931SOL    HW331491   2.588   4.975   5.258 -2.1367  0.4748  0.2209
 7931SOL    MW431492   2.549   4.919   5.204 -0.0257 -0.3629 -0.5364
 7932SOL     OW31493   6.025   5.123   1.815 -0.0918 -0.3388 -0.7033
 7932SOL    HW231494   6.090   5.191   1.833 -5.0226  4.9424 -0.2291
 7932SOL    HW331495   6.001   5.090   1.901 -1.6040  1.6990 -0.2748
 7932SOL    MW431496   6.031   5.127   1.829 -0.9419  0.6269 -0.5842
 7933SOL     OW31497   3.507   0.567   0.399 -0.1401  0.3261 -0.0891
 7933SOL    HW231498   3.538   0.651   0.434 -1.6805  0.3337  1.3328
 7933SOL    HW331499   3.420   0.555   0.436 -0.1570 -1.6982 -0.6512
 7933SOL    MW431500   3.500   0.576   0.408 -0.3456  0.0600  0.0243
 7934SOL     OW31501   3.627   1.817   1.736 -0.1380  0.7926 -0.5105
 7934SOL    HW231502   3.570   1.856   1.669  1.1604  0.2488 -1.9963
 7934SOL    HW331503   3.701   1.782   1.687  1.1690  0.8885  1.2946
 7934SOL    MW431504   3.629   1.818   1.721  0.2057  0.7335 -0.4684
 7935SOL     OW31505   6.149   2.811   5.392 -0.3305  0.1844  0.4579
 7935SOL    HW231506   6.222   2.790   5.451  1.6976  1.5210 -1.4082
 7935SOL    HW331507   6.110   2.890   5.428  0.7065  0.8215  0.2353
 7935SOL    MW431508   6.153   2.818   5.404  0.0739  0.4448  0.1823
 7936SOL     OW31509   2.854   0.747   3.336  0.3231  0.7474  0.5699
 7936SOL    HW231510   2.765   0.761   3.367 -0.6956 -2.0895 -0.7716
 7936SOL    HW331511   2.903   0.721   3.414 -0.1635  1.6744  1.1942
 7936SOL    MW431512   2.849   0.746   3.350  0.1245  0.4954  0.4753
 7937SOL     OW31513   0.922   4.433   0.182 -0.0354  0.3098  0.0535
 7937SOL    HW231514   1.001   4.449   0.130 -0.4279  0.1348 -0.5978
 7937SOL    HW331515   0.859   4.396   0.121 -0.6875  0.5988  0.5292
 7937SOL    MW431516   0.924   4.431   0.167 -0.1732  0.3249  0.0303
 7938SOL     OW31517   1.135   3.805   3.782 -0.1981 -0.2661 -0.3820
 7938SOL    HW231518   1.142   3.743   3.709  0.4015  0.4154 -0.9188
 7938SOL    HW331519   1.205   3.868   3.766 -1.2668  0.9820 -0.2531
 7938SOL    MW431520   1.145   3.805   3.770 -0.2600 -0.0115 -0.4358
 7939SOL     OW31521   5.821   0.945   0.410  0.4119 -0.1902 -0.3954
 7939SOL    HW231522   5.883   0.994   0.465 -0.0735  0.1502 -0.1424
 7939SOL    HW331523   5.740   0.943   0.462 -0.1528  0.4299 -1.2358
 7939SOL    MW431524   5.819   0.951   0.424  0.2734 -0.0635 -0.4729
 7940SOL     OW31525   2.259   4.126   6.467  0.1974 -0.1378 -0.2880
 7940SOL    HW231526   2.225   4.037   6.458 -1.7193  0.0665  3.2948
 7940SOL    HW331527   2.188   4.182   6.433  0.2848  0.1030 -0.0731
 7940SOL    MW431528   2.245   4.122   6.461 -0.0439 -0.0791  0.2130
 7941SOL     OW31529   4.278   5.808   6.194  0.3865  0.1055  0.0398
 7941SOL    HW231530   4.316   5.728   6.158  0.9569  0.9621 -1.3257
 7941SOL    HW331531   4.343   5.839   6.256  1.1628  0.6410 -1.0180
 7941SOL    MW431532   4.292   5.802   6.197  0.5642  0.2892 -0.2799
 7942SOL     OW31533   0.850   2.840   1.829  0.1462 -0.2265  0.1669
 7942SOL    HW231534   0.866   2.918   1.881  0.0471  0.8989 -1.4233
 7942SOL    HW331535   0.927   2.784   1.844 -0.6744 -0.7680  2.8522
 7942SOL    MW431536   0.862   2.843   1.838  0.0248 -0.1495  0.3114
 7943SOL     OW31537   1.424   1.864   1.529  0.0267 -0.1303  0.1197
 7943SOL    HW231538   1.446   1.952   1.499  1.0568  0.4972  2.4692
 7943SOL    HW331539   1.503   1.813   1.516 -0.8249 -1.0143 -2.0297
 7943SOL    MW431540   1.437   1.869   1.523  0.0502 -0.1641  0.1461
 7944SOL     OW31541   0.603   0.709   1.060 -0.3310 -0.7496  0.1863
 7944SOL    HW231542   0.607   0.698   1.155 -2.5038 -0.8732  0.3205
 7944SOL    HW331543   0.542   0.641   1.031 -0.5276 -0.0385 -1.1531
 7944SOL    MW431544   0.595   0.698   1.068 -0.6436 -0.6721  0.0273
 7945SOL     OW31545   4.105   4.733   4.486 -0.4411  0.1215 -0.4712
 7945SOL    HW231546   4.011   4.724   4.499 -0.5089  1.8031  0.4647
 7945SOL    HW331547   4.135   4.784   4.561  1.2347 -0.3949 -0.7462
 7945SOL    MW431548   4.096   4.739   4.497 -0.2289  0.2752 -0.3840
 7946SOL     OW31549   4.785   0.975   2.520 -0.1753  0.3910 -0.1861
 7946SOL    HW231550   4.751   0.917   2.588 -0.1091  1.5197  0.8546
 7946SOL    HW331551   4.737   0.951   2.441  0.6889 -1.8706 -0.1019
 7946SOL    MW431552   4.774   0.965   2.519 -0.0525  0.2415 -0.0377
 7947SOL     OW31553   2.460   3.463   0.299  0.0136 -0.4695  0.8815
 7947SOL    HW231554   2.419   3.531   0.353 -0.2346 -0.9983  1.3743
 7947SOL    HW331555   2.469   3.503   0.212 -0.8203 -0.0643  0.9717
 7947SOL    MW431556   2.456   3.477   0.294 -0.1292 -0.4858  0.9584
 7948SOL     OW31557   3.730   2.824   1.900 -0.1579  0.1594  0.0584
 7948SOL    HW231558   3.754   2.732   1.895 -0.0645  0.2182 -0.6873
 7948SOL    HW331559   3.755   2.860   1.815  0.4482  1.0323  0.5918
 7948SOL    MW431560   3.736   2.817   1.888 -0.0656  0.2824  0.0304
 7949SOL     OW31561   3.962   5.897   1.411 -0.0020  0.3340 -0.0457
 7949SOL    HW231562   3.917   5.893   1.327 -0.3822  0.8213  0.1291
 7949SOL    HW331563   3.953   5.809   1.447  0.1398  0.1294 -0.4958
 7949SOL    MW431564   3.955   5.885   1.405 -0.0335  0.3713 -0.0820
 7950SOL     OW31565   3.238   3.600   0.774 -0.3156  0.0063 -0.1630
 7950SOL    HW231566   3.174   3.593   0.845  0.0431  0.2329  0.1864
 7950SOL    HW331567   3.270   3.510   0.762 -0.2871 -0.0126  0.0491
 7950SOL    MW431568   3.234   3.587   0.782 -0.2645  0.0337 -0.0889
 7951SOL     OW31569   1.196   3.166   2.660 -0.0963 -0.0511  0.4975
 7951SOL    HW231570   1.246   3.242   2.632 -1.3058  0.7063  0.3219
 7951SOL    HW331571   1.211   3.101   2.591  2.1386 -0.5516  1.3940
 7951SOL    MW431572   1.204   3.167   2.647  0.0390 -0.0172  0.5926
 7952SOL     OW31573   2.370   0.593   1.358  0.4070  0.6175  0.2652
 7952SOL    HW231574   2.379   0.508   1.314 -0.2543  0.1164  1.0713
 7952SOL    HW331575   2.276   0.606   1.366  0.4736  1.9141 -0.7311
 7952SOL    MW431576   2.359   0.583   1.353  0.3285  0.7225  0.2401
 7953SOL     OW31577   0.039   2.159   3.134  0.4522 -0.0937 -0.2023
 7953SOL    HW231578  -0.050   2.124   3.130  0.2717  0.3355 -0.0041
 7953SOL    HW331579   0.028   2.254   3.138  0.8829 -0.0662  0.7121
 7953SOL    MW431580   0.026   2.167   3.134  0.4852 -0.0334 -0.0555
 7954SOL     OW31581   4.239   3.694   4.112  0.2679 -0.2295  0.7846
 7954SOL    HW231582   4.308   3.760   4.105  0.3704 -0.0292  2.9760
 7954SOL    HW331583   4.240   3.649   4.028  1.6838  1.1014  0.0389
 7954SOL    MW431584   4.248   3.697   4.100  0.4682 -0.0274  0.9754
 7955SOL     OW31585   2.777   0.303   0.752 -0.6363  0.3908  0.5441
 7955SOL    HW231586   2.798   0.253   0.831  0.3157  0.2747  0.2398
 7955SOL    HW331587   2.712   0.251   0.706 -1.1073  0.4020  1.1948
 7955SOL    MW431588   2.771   0.290   0.756 -0.5728  0.3770  0.5898
 7956SOL     OW31589   6.130   5.296   6.026 -0.1233  0.6614 -0.4137
 7956SOL    HW231590   6.054   5.244   5.999 -0.8637  1.1551  0.6387
 7956SOL    HW331591   6.202   5.232   6.032 -0.1277  0.3856 -2.5718
 7956SOL    MW431592   6.130   5.280   6.024 -0.2216  0.6902 -0.5596
 7957SOL     OW31593   5.756   1.228   3.671 -0.5633 -0.2492  0.0793
 7957SOL    HW231594   5.753   1.186   3.585 -1.9761 -2.2550  1.0096
 7957SOL    HW331595   5.845   1.214   3.702 -0.4644 -0.8526 -0.4551
 7957SOL    MW431596   5.767   1.220   3.664 -0.7366 -0.5935  0.1315
 7958SOL     OW31597   4.195   3.718   3.104  0.0072  0.3580  0.4232
 7958SOL    HW231598   4.152   3.803   3.102 -1.6651 -0.4396  0.6769
 7958SOL    HW331599   4.177   3.683   3.191  1.6044  0.1705  0.7163
 7958SOL    MW431600   4.187   3.725   3.115 -0.0027  0.2280  0.4953
 7959SOL     OW31601   2.508   0.770   0.434 -0.2774  0.2455  0.5811
 7959SOL    HW231602   2.569   0.796   0.365  0.6251 -1.7149  0.5680
 7959SOL    HW331603   2.563   0.744   0.507 -1.1160 -0.4087  1.0066
 7959SOL    MW431604   2.523   0.770   0.434 -0.2689 -0.0995  0.6355
 7960SOL     OW31605   5.657   4.771   6.437 -0.1419 -0.4895  0.3245
 7960SOL    HW231606   5.622   4.691   6.475  3.2730 -2.1237  0.4027
 7960SOL    HW331607   5.707   4.812   6.508 -1.8479  1.8303  0.3015
 7960SOL    MW431608   5.659   4.766   6.451  0.0836 -0.3990  0.3318
 7961SOL     OW31609   5.491   3.298   2.068  0.0127  0.2143 -0.0810
 7961SOL    HW231610   5.404   3.292   2.029 -0.1422  0.5291  0.2104
 7961SOL    HW331611   5.520   3.387   2.048  0.4256 -0.0077 -0.5008
 7961SOL    MW431612   5.483   3.309   2.060  0.0468  0.2266 -0.0979
 7962SOL     OW31613   1.778   4.495   5.203  0.2938 -0.1942  0.2671
 7962SOL    HW231614   1.696   4.446   5.201  0.4387 -0.4187 -0.8541
 7962SOL    HW331615   1.755   4.579   5.242 -0.4852 -0.2390 -0.0769
 7962SOL    MW431616   1.764   4.499   5.208  0.2101 -0.2297  0.0738
 7963SOL     OW31617   5.959   2.568   5.500  0.6652 -0.1539 -0.0068
 7963SOL    HW231618   5.893   2.525   5.554  0.4320 -0.5807 -0.6085
 7963SOL    HW331619   5.951   2.661   5.520 -0.1592 -0.1957 -0.1106
 7963SOL    MW431620   5.950   2.574   5.510  0.5257 -0.2157 -0.0998
 7964SOL     OW31621   3.160   5.887   2.864 -0.4122 -0.5660 -0.2149
 7964SOL    HW231622   3.137   5.966   2.815 -1.7087 -0.1510  0.9868
 7964SOL    HW331623   3.213   5.919   2.937  2.0578 -1.2475 -1.5986
 7964SOL    MW431624   3.164   5.902   2.867 -0.2574 -0.6011 -0.2389
 7965SOL     OW31625   3.957   3.960   2.523 -0.4667  0.1910 -0.2542
 7965SOL    HW231626   4.016   4.019   2.570 -0.4826  1.9711 -2.2974
 7965SOL    HW331627   4.013   3.889   2.493  0.2643  0.8597 -0.5191
 7965SOL    MW431628   3.972   3.959   2.525 -0.3724  0.5141 -0.5588
 7966SOL     OW31629   4.338   0.883   1.864  0.1630  0.4358 -0.2846
 7966SOL    HW231630   4.296   0.888   1.778 -0.3594 -2.5958 -0.3167
 7966SOL    HW331631   4.429   0.910   1.847  0.0923 -0.1845 -1.8248
 7966SOL    MW431632   4.345   0.887   1.850  0.0848 -0.0460 -0.4920
 7967SOL     OW31633   6.198   3.398   2.371 -0.4085  0.2527  0.7657
 7967SOL    HW231634   6.150   3.380   2.290 -0.0531  2.7341 -0.0964
 7967SOL    HW331635   6.266   3.460   2.345  2.1995 -1.7363  2.2796
 7967SOL    MW431636   6.201   3.404   2.357 -0.0175  0.3177  0.8517
 7968SOL     OW31637   2.991   2.478   6.431 -0.5164  0.1905  0.2492
 7968SOL    HW231638   2.940   2.555   6.456 -1.0176  0.7571 -2.2895
 7968SOL    HW331639   2.928   2.406   6.433 -0.1760 -0.1138  2.0635
 7968SOL    MW431640   2.976   2.479   6.435 -0.5377  0.2251  0.1536
 7969SOL     OW31641   1.940   3.585   3.316  0.2737  0.1924 -0.3840
 7969SOL    HW231642   1.901   3.534   3.387  0.1802  1.7166  0.6886
 7969SOL    HW331643   2.033   3.591   3.339  0.2859  0.4979 -0.5068
 7969SOL    MW431644   1.947   3.579   3.328  0.2630  0.4338 -0.2587
 7970SOL     OW31645   3.229   3.407   0.475  0.0702  0.0162 -0.2082
 7970SOL    HW231646   3.250   3.368   0.560 -2.1752  0.0699  0.4274
 7970SOL    HW331647   3.243   3.501   0.487  1.7163 -0.1449 -0.5666
 7970SOL    MW431648   3.234   3.414   0.488 -0.0089  0.0020 -0.1716
 7971SOL     OW31649   0.030   5.426   3.049  0.0319 -0.9527  0.1311
 7971SOL    HW231650   0.056   5.417   2.957  1.2093 -0.2103  0.3638
 7971SOL    HW331651   0.037   5.337   3.084  0.8301 -1.0348 -0.2011
 7971SOL    MW431652   0.034   5.413   3.041  0.2926 -0.8656  0.1180
 7972SOL     OW31653   1.030   2.030   4.698  0.1131 -0.1266  0.6113
 7972SOL    HW231654   1.062   2.043   4.608  0.4550 -0.8871  0.6074
 7972SOL    HW331655   1.088   2.084   4.752 -0.5898  0.9574  0.3143
 7972SOL    MW431656   1.042   2.039   4.693  0.0655 -0.0840  0.5716
 7973SOL     OW31657   2.184   4.443   5.263 -0.4503  0.1801 -0.6520
 7973SOL    HW231658   2.114   4.387   5.296  1.2567 -0.6969  1.8254
 7973SOL    HW331659   2.138   4.519   5.226 -2.7126 -0.7599  0.0187
 7973SOL    MW431660   2.168   4.446   5.263 -0.5236 -0.0597 -0.2366
 7974SOL     OW31661   4.912   6.247   3.929 -0.2285 -0.1138  0.1901
 7974SOL    HW231662   4.858   6.306   3.982  0.8721  0.6807  0.4490
 7974SOL    HW331663   4.936   6.298   3.852  1.1556 -0.0253  0.6562
 7974SOL    MW431664   4.908   6.261   3.926  0.0993  0.0027  0.2858
 7975SOL     OW31665   5.277   5.105   0.228 -0.1324 -0.2555  0.0355
 7975SOL    HW231666   5.366   5.133   0.247  0.3616 -1.3322 -0.5881
 7975SOL    HW331667   5.286   5.013   0.202 -1.2993 -0.1032 -0.9993
 7975SOL    MW431668   5.290   5.096   0.227 -0.2212 -0.3774 -0.1833
 7976SOL     OW31669   1.717   3.284   3.286  0.7049  0.4695 -0.3040
 7976SOL    HW231670   1.809   3.260   3.270  0.9347  0.8871  0.3315
 7976SOL    HW331671   1.681   3.209   3.333  0.4259 -0.1396 -1.4679
 7976SOL    MW431672   1.725   3.271   3.290  0.6984  0.4442 -0.3737
 7977SOL     OW31673   5.820   4.317   2.021 -0.1834 -0.0382  0.6968
 7977SOL    HW231674   5.764   4.244   2.049  2.1891 -1.5817  1.6375
 7977SOL    HW331675   5.858   4.351   2.101  0.6512  0.6282  0.0374
 7977SOL    MW431676   5.817   4.312   2.035  0.2398 -0.1540  0.7339
 7978SOL     OW31677   0.672   4.838   4.781 -0.0880 -0.1474  0.0809
 7978SOL    HW231678   0.647   4.857   4.871  0.0849  1.0928 -0.1110
 7978SOL    HW331679   0.754   4.790   4.789  0.5835  1.0233  0.5908
 7978SOL    MW431680   0.680   4.835   4.794  0.0234  0.1707  0.1228
 7979SOL     OW31681   4.628   5.027   4.398  0.2556 -0.7116 -0.4688
 7979SOL    HW231682   4.538   5.012   4.366  0.1322 -1.2202  0.0842
 7979SOL    HW331683   4.639   4.961   4.467  0.8141 -0.1970 -0.0627
 7979SOL    MW431684   4.617   5.016   4.403  0.3130 -0.7108 -0.3423
 7980SOL     OW31685   6.400   0.660   0.449 -0.0529  0.3680 -0.3130
 7980SOL    HW231686   6.316   0.678   0.491  0.3846 -0.1054  0.8071
 7980SOL    HW331687   6.378   0.628   0.362 -1.0337  0.1301  0.0201
 7980SOL    MW431688   6.386   0.659   0.443 -0.1246  0.2741 -0.1212
 7981SOL     OW31689   5.871   4.234   5.331  0.1789  0.2690 -0.9296
 7981SOL    HW231690   5.832   4.197   5.252  0.9741 -1.5339 -0.5293
 7981SOL    HW331691   5.958   4.263   5.303  0.1797  0.3187 -0.8776
 7981SOL    MW431692   5.877   4.233   5.317  0.2839  0.0377 -0.8699
 7982SOL     OW31693   5.077   3.397   3.626  0.0348  0.0902  0.1423
 7982SOL    HW231694   5.047   3.334   3.691 -2.1147  1.5497  0.6714
 7982SOL    HW331695   5.101   3.474   3.676  0.1128  0.5985 -0.6595
 7982SOL    MW431696   5.076   3.399   3.641 -0.2386  0.3499  0.1063
 7983SOL     OW31697   6.242   6.256   2.851 -0.0784  0.3488  0.5618
 7983SOL    HW231698   6.330   6.284   2.825  0.2417 -0.2121  1.0284
 7983SOL    HW331699   6.237   6.165   2.822 -0.6243  0.4693  0.2587
 7983SOL    MW431700   6.253   6.248   2.843 -0.1082  0.2907  0.5833
 7984SOL     OW31701   3.167   1.236   6.382  0.4276 -0.0349 -0.2072
 7984SOL    HW231702   3.144   1.248   6.290  1.0303 -0.4619 -0.4222
 7984SOL    HW331703   3.262   1.241   6.383  0.3891  0.6470  0.5011
 7984SOL    MW431704   3.176   1.238   6.370  0.5020 -0.0012 -0.1421
 7985SOL     OW31705   5.216   6.457   6.302 -0.4332 -0.2798  0.5974
 7985SOL    HW231706   5.252   6.450   6.213 -1.1049 -2.0162  0.4123
 7985SOL    HW331707   5.164   6.537   6.301 -1.0316 -0.6437 -0.8475
 7985SOL    MW431708   5.214   6.466   6.290 -0.6008 -0.5569  0.3824
 7986SOL     OW31709   2.838   3.170   3.347  0.1676 -0.2984  0.5959
 7986SOL    HW231710   2.920   3.183   3.300 -0.5391 -0.1304 -0.6192
 7986SOL    HW331711   2.800   3.091   3.308 -1.6025  1.2031 -0.9097
 7986SOL    MW431712   2.843   3.161   3.336 -0.1592 -0.0781  0.2370
 7987SOL     OW31713   0.624   1.809   5.545 -0.0091 -0.1116  0.1602
 7987SOL    HW231714   0.672   1.769   5.472  0.4046  0.2557  0.2292
 7987SOL    HW331715   0.643   1.903   5.539  0.0119 -0.0735  0.7303
 7987SOL    MW431716   0.633   1.816   5.535  0.0483 -0.0581  0.2445
 7988SOL     OW31717   0.689   0.815   2.410  0.0564  0.0877  0.3433
 7988SOL    HW231718   0.741   0.862   2.345 -1.1914  0.1505 -0.6383
 7988SOL    HW331719   0.636   0.883   2.452  1.7935  0.2719  2.4305
 7988SOL    MW431720   0.689   0.830   2.407  0.1210  0.1203  0.4892
 7989SOL     OW31721   5.116   4.838   4.725  0.2206 -0.4632  0.2815
 7989SOL    HW231722   5.072   4.757   4.751 -1.9623  0.5598 -0.0153
 7989SOL    HW331723   5.087   4.903   4.790 -1.2470  0.9551 -1.6974
 7989SOL    MW431724   5.107   4.836   4.737 -0.2610 -0.1411 -0.0188
 7990SOL     OW31725   5.770   2.993   3.807 -0.3015  0.1110 -0.6356
 7990SOL    HW231726   5.792   2.903   3.782  0.5048  0.2099 -0.2948
 7990SOL    HW331727   5.796   3.046   3.732  0.4843  0.2089 -0.2990
 7990SOL    MW431728   5.776   2.988   3.794 -0.0915  0.1370 -0.5462
 7991SOL     OW31729   4.854   1.400   4.892 -0.3319 -0.6623  0.0718
 7991SOL    HW231730   4.925   1.426   4.834  0.6269 -0.3234  1.3420
 7991SOL    HW331731   4.898   1.365   4.970 -1.4841  0.7208  1.4267
 7991SOL    MW431732   4.869   1.399   4.895 -0.3574 -0.4351  0.4181
 7992SOL     OW31733   0.348   6.244   5.232 -0.1547 -0.0369  0.0406
 7992SOL    HW231734   0.438   6.275   5.246  0.0821 -1.2373  1.3926
 7992SOL    HW331735   0.328   6.193   5.310 -1.7457 -0.4450 -0.6025
 7992SOL    MW431736   0.357   6.242   5.244 -0.3334 -0.2491  0.1341
 7993SOL     OW31737   4.404   5.538   3.517  0.4514 -0.3749  0.2432
 7993SOL    HW231738   4.406   5.484   3.596 -2.2740  1.2136  1.5314
 7993SOL    HW331739   4.482   5.593   3.525  0.2034 -0.2060  1.8940
 7993SOL    MW431740   4.415   5.538   3.529  0.0591 -0.1430  0.6309
 7994SOL     OW31741   3.836   3.133   0.299  0.9215  0.4406  0.5614
 7994SOL    HW231742   3.783   3.119   0.377  0.3564  0.8403  0.2552
 7994SOL    HW331743   3.925   3.112   0.327  0.5566 -0.6293  0.9683
 7994SOL    MW431744   3.841   3.129   0.313  0.7988  0.3521  0.5747
 7995SOL     OW31745   4.786   5.261   3.359 -0.3255  0.4405 -0.0101
 7995SOL    HW231746   4.787   5.316   3.437  1.1814 -1.6022  1.4993
 7995SOL    HW331747   4.875   5.225   3.353 -0.9996 -1.1509 -1.3913
 7995SOL    MW431748   4.798   5.263   3.368 -0.2156 -0.0389  0.0068
 7996SOL     OW31749   6.009   3.788   2.308 -0.5124  0.1939 -0.1523
 7996SOL    HW231750   5.967   3.729   2.371  0.1455  0.0081  0.1120
 7996SOL    HW331751   5.986   3.876   2.338  0.0963  0.1160  0.5586
 7996SOL    MW431752   6.000   3.792   2.320 -0.3453  0.1591 -0.0237
 7997SOL     OW31753   3.346   6.077   4.692 -0.1687 -0.0482  0.3815
 7997SOL    HW231754   3.276   6.029   4.648 -0.8629  1.4339 -0.1847
 7997SOL    HW331755   3.417   6.080   4.628 -0.8589  1.3545 -0.3629
 7997SOL    MW431756   3.346   6.071   4.678 -0.3513  0.3324  0.2086
 7998SOL     OW31757   2.627   6.448   0.302 -0.5780  0.6137 -0.4652
 7998SOL    HW231758   2.648   6.355   0.308 -0.3042  0.7421  0.9853
 7998SOL    HW331759   2.574   6.456   0.223  0.0572 -0.6356 -1.0501
 7998SOL    MW431760   2.623   6.437   0.292 -0.4581  0.4658 -0.3510
 7999SOL     OW31761   1.489   2.487   4.943 -0.0724  0.1750  0.1708
 7999SOL    HW231762   1.446   2.569   4.916 -1.5130  0.1867  2.2491
 7999SOL    HW331763   1.419   2.435   4.981  1.1277 -1.3962  0.3311
 7999SOL    MW431764   1.474   2.491   4.944 -0.1042 -0.0308  0.4661
 8000SOL     OW31765   1.805   3.333   6.207  0.4300  0.2704  0.0906
 8000SOL    HW231766   1.833   3.242   6.212 -0.8520 -0.4262 -2.8815
 8000SOL    HW331767   1.716   3.333   6.242  0.5393  0.4298  0.3659
 8000SOL    MW431768   1.797   3.321   6.212  0.2753  0.1995 -0.2652
 8001SOL     OW31769   5.748   6.347   5.809  0.2575  0.5932  0.0095
 8001SOL    HW231770   5.837   6.383   5.808 -0.0844  1.4776  0.0741
 8001SOL    HW331771   5.754   6.268   5.862  0.5503  1.9102  2.0454
 8001SOL    MW431772   5.760   6.341   5.816  0.2510  0.8837  0.2867
 8002SOL     OW31773   3.170   2.386   3.087  1.0101 -0.6163  0.2681
 8002SOL    HW231774   3.157   2.359   2.997 -0.6769 -0.8068  0.5222
 8002SOL    HW331775   3.115   2.326   3.138  1.4727 -0.1402  1.3637
 8002SOL    MW431776   3.161   2.375   3.082  0.8486 -0.5786  0.4462
 8003SOL     OW31777   1.018   1.414   3.102 -0.1978 -0.6418 -0.3431
 8003SOL    HW231778   1.026   1.358   3.024  0.1853 -1.9272  0.5899
 8003SOL    HW331779   1.106   1.449   3.115 -0.3733 -0.0381 -0.7633
 8003SOL    MW431780   1.031   1.411   3.093 -0.1704 -0.7318 -0.2755
 8004SOL     OW31781   0.235   2.790   1.106  0.3048 -0.4611 -0.1191
 8004SOL    HW231782   0.215   2.880   1.130 -0.6023 -0.6233 -0.2408
 8004SOL    HW331783   0.251   2.746   1.190  1.5974 -0.0065 -0.1078
 8004SOL    MW431784   0.235   2.796   1.120  0.3557 -0.4225 -0.1337
 8005SOL     OW31785   5.823   5.061   3.962  0.8845 -0.0080 -0.0522
 8005SOL    HW231786   5.905   5.098   3.997  2.0395  0.7125 -3.1783
 8005SOL    HW331787   5.847   4.972   3.934 -0.3188 -1.0140  1.8903
 8005SOL    MW431788   5.837   5.054   3.963  0.8781 -0.0457 -0.2083
 8006SOL     OW31789   1.451   4.266   3.394 -0.5811 -0.3002 -0.3723
 8006SOL    HW231790   1.487   4.249   3.481  0.1975  0.1450 -0.6009
 8006SOL    HW331791   1.358   4.242   3.402 -1.1011  1.8956  1.2690
 8006SOL    MW431792   1.443   4.261   3.407 -0.5470  0.0483 -0.1859
 8007SOL     OW31793   0.814   4.284   1.118 -0.2210  0.2043  0.4529
 8007SOL    HW231794   0.852   4.359   1.073 -0.8830  0.3925  0.1941
 8007SOL    HW331795   0.836   4.209   1.062  1.2493  0.0478  1.1843
 8007SOL    MW431796   0.822   4.284   1.105 -0.1144  0.2085  0.5153
 8008SOL     OW31797   4.997   4.615   2.306 -0.5672  0.3934  0.0591
 8008SOL    HW231798   4.996   4.572   2.392 -0.9366  1.3406  0.5490
 8008SOL    HW331799   5.085   4.600   2.272 -0.1643  0.6823  0.9570
 8008SOL    MW431800   5.008   4.607   2.313 -0.5628  0.5565  0.2422
 8009SOL     OW31801   5.798   0.753   6.318 -0.7528  0.1433 -0.0005
 8009SOL    HW231802   5.739   0.828   6.328 -0.3331  0.5712 -0.6651
 8009SOL    HW331803   5.879   0.781   6.361 -0.7094 -0.0635  0.0532
 8009SOL    MW431804   5.801   0.767   6.325 -0.6917  0.1725 -0.0811
 8010SOL     OW31805   4.399   6.278   1.284 -0.0018  0.4441  0.1249
 8010SOL    HW231806   4.345   6.276   1.363  1.2023  1.0484  1.0046
 8010SOL    HW331807   4.337   6.297   1.214 -1.0494  0.2943  0.9701
 8010SOL    MW431808   4.384   6.281   1.285  0.0188  0.5041  0.3525
 8011SOL     OW31809   5.583   4.017   2.425 -0.0479  0.0121  0.5359
 8011SOL    HW231810   5.663   4.053   2.387 -0.3860  0.0857 -0.1171
 8011SOL    HW331811   5.514   4.079   2.400 -0.9780 -1.9224 -2.1954
 8011SOL    MW431812   5.585   4.030   2.416 -0.2153 -0.2334  0.0893
 8012SOL     OW31813   4.624   1.901   4.900 -0.2567  0.3128  0.1291
 8012SOL    HW231814   4.546   1.877   4.951  0.3178 -0.9040  0.4797
 8012SOL    HW331815   4.673   1.959   4.958 -0.6762  0.7017  0.0952
 8012SOL    MW431816   4.620   1.905   4.914 -0.2363  0.2036  0.1709
 8013SOL     OW31817   3.121   6.100   4.110 -0.2012 -0.5239  0.3118
 8013SOL    HW231818   3.176   6.144   4.046  2.4157 -1.7118  1.6125
 8013SOL    HW331819   3.139   6.006   4.098 -0.6280 -0.8495  1.8894
 8013SOL    MW431820   3.130   6.093   4.100  0.0878 -0.7236  0.6915
 8014SOL     OW31821   5.589   4.990   0.444  0.2320  0.1169  0.2841
 8014SOL    HW231822   5.681   5.015   0.438  0.3512 -0.4183 -0.2874
 8014SOL    HW331823   5.543   5.054   0.390  0.5796 -1.0322 -1.4892
 8014SOL    MW431824   5.595   5.002   0.436  0.2936 -0.1054 -0.0253
 8015SOL     OW31825   2.087   0.963   6.416  0.5610 -0.3562  0.3416
 8015SOL    HW231826   1.999   0.958   6.452  0.1882  0.2898 -0.4369
 8015SOL    HW331827   2.106   1.057   6.412  0.8030 -0.4349 -0.5984
 8015SOL    MW431828   2.078   0.975   6.420  0.5437 -0.2814  0.1149
 8016SOL     OW31829   5.385   3.438   2.785 -0.3209 -0.0144  0.0484
 8016SOL    HW231830   5.348   3.398   2.706  0.3393  2.5036 -1.6814
 8016SOL    HW331831   5.467   3.392   2.800 -0.1721 -0.1669 -1.1317
 8016SOL    MW431832   5.391   3.427   2.776 -0.2142  0.2977 -0.3355
 8017SOL     OW31833   6.261   6.168   1.004  0.3807  0.3543  0.4322
 8017SOL    HW231834   6.337   6.111   1.001  0.2126  0.1183 -2.2401
 8017SOL    HW331835   6.188   6.112   0.976  0.0683  1.6102 -1.4275
 8017SOL    MW431836   6.261   6.153   1.000  0.3173  0.4889 -0.1657
 8018SOL     OW31837   5.367   3.560   6.396  0.6294  0.2615 -0.2503
 8018SOL    HW231838   5.451   3.591   6.430  1.3676 -0.2477 -1.5371
 8018SOL    HW331839   5.390   3.498   6.327 -0.7463  1.6374 -2.0742
 8018SOL    MW431840   5.381   3.556   6.391  0.5453  0.3759 -0.6607
 8019SOL     OW31841   2.854   4.899   2.969  0.0203 -0.1069  0.1445
 8019SOL    HW231842   2.843   4.994   2.973 -0.9560 -0.1904 -0.3038
 8019SOL    HW331843   2.782   4.869   2.914  1.1002 -0.9804 -0.8527
 8019SOL    MW431844   2.843   4.908   2.962  0.0340 -0.2332 -0.0462
 8020SOL     OW31845   4.628   3.591   4.268  0.1027 -0.4328 -0.2999
 8020SOL    HW231846   4.708   3.566   4.315 -0.0956  0.5969  0.6246
 8020SOL    HW331847   4.623   3.686   4.278 -0.9698 -0.4228 -0.7880
 8020SOL    MW431848   4.638   3.600   4.276 -0.0649 -0.2956 -0.2423
 8021SOL     OW31849   3.237   2.179   1.506 -0.2390 -0.2613  0.0559
 8021SOL    HW231850   3.166   2.143   1.559  0.4807 -0.0231  1.2302
 8021SOL    HW331851   3.278   2.245   1.563  1.3829 -0.9139 -0.3083
 8021SOL    MW431852   3.233   2.183   1.520  0.0699 -0.3160  0.1628
 8022SOL     OW31853   4.701   4.835   3.068  0.2038 -0.1640  0.2965
 8022SOL    HW231854   4.658   4.911   3.028  1.9779 -0.1255 -1.7048
 8022SOL    HW331855   4.793   4.861   3.074  1.1285 -2.5854 -1.7233
 8022SOL    MW431856   4.708   4.849   3.064  0.5599 -0.4784 -0.2340
 8023SOL     OW31857   0.334   1.685   4.638 -0.5503 -0.4311  0.3876
 8023SOL    HW231858   0.406   1.659   4.696 -0.5308  0.7108  0.8999
 8023SOL    HW331859   0.367   1.667   4.550  0.3188 -0.0622  0.6219
 8023SOL    MW431860   0.348   1.679   4.634 -0.4331 -0.2317  0.4861
 8024SOL     OW31861   4.204   0.064   2.278  0.3392  0.1545 -0.4542
 8024SOL    HW231862   4.276   0.003   2.292  1.2491  1.3760  0.4153
 8024SOL    HW331863   4.188   0.062   2.184  2.6682  1.1094 -0.9217
 8024SOL    MW431864   4.211   0.055   2.268  0.7666  0.4416 -0.4012
 8025SOL     OW31865   1.806   0.903   5.492 -0.3596 -0.1851  0.5540
 8025SOL    HW231866   1.828   0.825   5.441 -0.5974  0.1924 -0.1438
 8025SOL    HW331867   1.725   0.881   5.537 -0.7170 -0.1539 -0.0684
 8025SOL    MW431868   1.798   0.890   5.491 -0.4381 -0.1312  0.3798
 8026SOL     OW31869   5.235   2.340   1.038 -0.0777 -0.2324  0.5200
 8026SOL    HW231870   5.148   2.340   1.077  0.5888 -1.2443  2.1251
 8026SOL    HW331871   5.294   2.351   1.112  1.1513  2.0620 -0.6917
 8026SOL    MW431872   5.231   2.341   1.053  0.1724 -0.0632  0.5719
 8027SOL     OW31873   5.421   2.369   5.385 -0.0068 -0.8173 -0.3800
 8027SOL    HW231874   5.402   2.275   5.381  0.4467 -0.8891 -0.9003
 8027SOL    HW331875   5.514   2.376   5.361 -0.3787 -0.1108 -1.7135
 8027SOL    MW431876   5.431   2.357   5.382  0.0040 -0.7336 -0.6246
 8028SOL     OW31877   2.259   5.795   1.260  0.3823 -0.2055 -0.0595
 8028SOL    HW231878   2.304   5.820   1.341  0.4709  0.4928 -0.3167
 8028SOL    HW331879   2.174   5.763   1.288 -0.1481  1.3598  0.2387
 8028SOL    MW431880   2.254   5.794   1.274  0.3240  0.0931 -0.0541
 8029SOL     OW31881   1.368   1.716   4.138 -0.4663  0.4344 -0.0859
 8029SOL    HW231882   1.439   1.777   4.120  0.4984 -0.4131  0.7046
 8029SOL    HW331883   1.289   1.769   4.131  0.2759  1.5599 -0.3210
 8029SOL    MW431884   1.367   1.731   4.135 -0.2411  0.4711 -0.0126
 8030SOL     OW31885   4.263   2.670   5.733 -0.3142  0.3515 -0.4621
 8030SOL    HW231886   4.317   2.686   5.810  0.4516 -2.7291 -0.2079
 8030SOL    HW331887   4.303   2.722   5.664  0.2114  1.5929  0.7325
 8030SOL    MW431888   4.275   2.679   5.734 -0.1438  0.1089 -0.2709
 8031SOL     OW31889   5.746   0.567   1.388 -0.4406  0.0777  0.3675
 8031SOL    HW231890   5.764   0.476   1.412 -1.9796 -0.5548 -0.7454
 8031SOL    HW331891   5.740   0.612   1.473 -1.7249 -1.2911  1.0650
 8031SOL    MW431892   5.747   0.561   1.403 -0.8131 -0.1864  0.3127
 8032SOL     OW31893   2.836   1.005   3.247  0.2312 -0.4057  0.4193
 8032SOL    HW231894   2.770   1.043   3.304  0.9064  1.0556  0.2556
 8032SOL    HW331895   2.829   0.910   3.263 -2.3010 -0.3656 -0.0778
 8032SOL    MW431896   2.827   0.997   3.257 -0.0138 -0.2076  0.3321
 8033SOL     OW31897   4.832   0.257   6.139  0.2882 -0.0589 -0.4932
 8033SOL    HW231898   4.871   0.265   6.226 -0.5202  1.0304 -0.2092
 8033SOL    HW331899   4.905   0.235   6.082  1.1189  0.7728  0.2178
 8033SOL    MW431900   4.847   0.256   6.143  0.2912  0.1946 -0.3620
 8034SOL     OW31901   1.340   5.419   2.192 -0.0038 -0.1066  0.2525
 8034SOL    HW231902   1.392   5.407   2.112  0.2339  0.5160  0.3080
 8034SOL    HW331903   1.284   5.342   2.196 -1.6367  0.8660 -1.7323
 8034SOL    MW431904   1.339   5.407   2.182 -0.1879  0.1039 -0.0020
 8035SOL     OW31905   0.421   2.417   3.100  0.2666  0.2787  0.0513
 8035SOL    HW231906   0.516   2.406   3.097  0.5450  2.2120  0.4656
 8035SOL    HW331907   0.394   2.422   3.008  0.4940 -0.6932 -0.0733
 8035SOL    MW431908   0.430   2.416   3.088  0.3334  0.4055  0.0895
 8036SOL     OW31909   3.520   3.546   1.268  0.3331 -0.0807  0.2053
 8036SOL    HW231910   3.437   3.499   1.264  0.4846 -0.6991  2.7857
 8036SOL    HW331911   3.570   3.513   1.193 -0.4519 -2.3597  0.6051
 8036SOL    MW431912   3.516   3.536   1.257  0.2495 -0.4629  0.5985
 8037SOL     OW31913   4.982   0.773   4.826 -0.3785  0.0105  0.2011
 8037SOL    HW231914   5.037   0.697   4.807  0.2631  0.6302 -0.4934
 8037SOL    HW331915   4.994   0.831   4.750 -1.5316  0.4194  0.3197
 8037SOL    MW431916   4.991   0.771   4.813 -0.4460  0.1462  0.1251
 8038SOL     OW31917   0.724   0.088   1.806 -0.3154  0.3310  0.3558
 8038SOL    HW231918   0.743   0.056   1.894  2.2240  2.4391  0.6829
 8038SOL    HW331919   0.808   0.122   1.774 -1.4200  0.6797 -2.4496
 8038SOL    MW431920   0.738   0.088   1.814 -0.1261  0.6551  0.0288
 8039SOL     OW31921   0.829   1.658   2.340 -0.1687 -0.4950 -0.4610
 8039SOL    HW231922   0.867   1.655   2.252  1.2521  1.2800  0.0216
 8039SOL    HW331923   0.748   1.608   2.334  1.2809 -2.8453 -2.0535
 8039SOL    MW431924   0.824   1.651   2.328  0.2100 -0.5709 -0.6074
 8040SOL     OW31925   4.885   4.395   0.847 -0.0263 -0.1481 -0.0170
 8040SOL    HW231926   4.918   4.409   0.758 -0.2121 -0.8526 -0.2079
 8040SOL    HW331927   4.808   4.451   0.853 -1.8753 -2.3395 -1.4199
 8040SOL    MW431928   4.879   4.404   0.836 -0.2948 -0.5302 -0.2273
 8041SOL     OW31929   4.522   1.431   3.087 -0.8119  0.1436 -0.4842
 8041SOL    HW231930   4.606   1.389   3.066 -0.2518  0.4786  0.9178
 8041SOL    HW331931   4.486   1.378   3.158  0.0232  2.0233  1.4894
 8041SOL    MW431932   4.529   1.419   3.094 -0.6279  0.4358 -0.0388
 8042SOL     OW31933   5.639   1.042   4.871 -0.6050  0.2548  0.2621
 8042SOL    HW231934   5.707   1.094   4.829 -0.9968 -0.3885 -1.2144
 8042SOL    HW331935   5.590   1.105   4.924 -0.3005  1.1704 -0.5222
 8042SOL    MW431936   5.641   1.057   4.872 -0.6165  0.2907 -0.0362
 8043SOL     OW31937   0.773   3.869   5.641 -0.2078  0.0974 -0.9973
 8043SOL    HW231938   0.767   3.961   5.616  0.6371  0.0308 -1.4625
 8043SOL    HW331939   0.865   3.847   5.629 -0.3045 -0.6736 -0.3939
 8043SOL    MW431940   0.784   3.878   5.636 -0.1090 -0.0131 -0.9791
 8044SOL     OW31941   5.133   4.076   5.788 -0.0439 -0.4615  0.1135
 8044SOL    HW231942   5.193   4.036   5.724 -1.9981 -4.4305  0.4406
 8044SOL    HW331943   5.049   4.079   5.743 -0.4565  1.3539  0.9275
 8044SOL    MW431944   5.130   4.071   5.774 -0.3561 -0.7456  0.2640
 8045SOL     OW31945   0.235   0.386   0.240 -0.4665 -0.2620 -0.3645
 8045SOL    HW231946   0.330   0.392   0.243 -0.5359  0.7580  0.7214
 8045SOL    HW331947   0.217   0.300   0.203  0.8615  0.2966 -2.5286
 8045SOL    MW431948   0.245   0.375   0.235 -0.3005 -0.0537 -0.5068
 8046SOL     OW31949   2.328   3.174   3.646 -0.0761 -0.1985 -0.2178
 8046SOL    HW231950   2.400   3.213   3.695 -0.6065  0.6735 -0.1190
 8046SOL    HW331951   2.265   3.245   3.636 -0.4083 -0.6397 -1.3110
 8046SOL    MW431952   2.329   3.188   3.651 -0.1899 -0.1417 -0.3490
 8047SOL     OW31953   5.396   1.244   4.328  0.1024 -0.0871 -0.3936
 8047SOL    HW231954   5.358   1.233   4.415 -1.1670  1.4698 -0.7051
 8047SOL    HW331955   5.481   1.200   4.333 -0.4769 -1.1124  1.2290
 8047SOL    MW431956   5.403   1.237   4.340 -0.1415 -0.0170 -0.2206
 8048SOL     OW31957   1.466   0.645   5.993 -0.3797  0.2855  0.1467
 8048SOL    HW231958   1.461   0.662   6.087 -0.4318 -0.4204  0.2807
 8048SOL    HW331959   1.533   0.705   5.961 -1.7957  2.0106  0.2654
 8048SOL    MW431960   1.474   0.655   6.001 -0.5734  0.4200  0.1801
 8049SOL     OW31961   6.280   4.319   3.139 -0.1788  0.2442  0.5479
 8049SOL    HW231962   6.202   4.267   3.117  0.5363 -1.6586  2.1635
 8049SOL    HW331963   6.342   4.299   3.069 -1.4876  2.8557 -1.5252
 8049SOL    MW431964   6.278   4.309   3.127 -0.2571  0.3377  0.4875
 8050SOL     OW31965   5.116   1.477   3.269 -0.4647  0.2039 -0.4005
 8050SOL    HW231966   5.035   1.524   3.285 -1.0104 -0.6762 -0.4698
 8050SOL    HW331967   5.169   1.491   3.347 -0.5041  1.1357 -0.5357
 8050SOL    MW431968   5.113   1.485   3.281 -0.5419  0.2107 -0.4275
 8051SOL     OW31969   3.481   6.100   4.081 -0.2699 -0.3026  0.0788
 8051SOL    HW231970   3.428   6.052   4.145  0.4243 -0.8362  0.2603
 8051SOL    HW331971   3.551   6.139   4.132 -0.7964  0.8714 -0.0792
 8051SOL    MW431972   3.483   6.099   4.096 -0.2478 -0.2181  0.0819
 8052SOL     OW31973   4.989   3.088   1.780  0.2696  0.3487 -0.3974
 8052SOL    HW231974   4.953   3.149   1.844  0.8947 -0.4119  0.7182
 8052SOL    HW331975   4.939   3.105   1.700 -1.8225  0.0704  0.7768
 8052SOL    MW431976   4.977   3.098   1.778  0.0761  0.2116 -0.0953
 8053SOL     OW31977  -0.002   5.757   6.243  0.3962  0.4100  0.0861
 8053SOL    HW231978   0.073   5.730   6.189 -0.1339 -0.2540 -0.3307
 8053SOL    HW331979  -0.078   5.743   6.187 -0.1267  0.1367  0.8604
 8053SOL    MW431980  -0.002   5.752   6.228  0.2572  0.2864  0.1333
 8054SOL     OW31981   2.590   5.369   6.302  0.7653  0.1140  0.4404
 8054SOL    HW231982   2.517   5.343   6.245  1.1409 -0.7563  0.3304
 8054SOL    HW331983   2.617   5.287   6.344 -0.0241  0.8508  2.5254
 8054SOL    MW431984   2.584   5.355   6.300  0.7107  0.0963  0.7010
 8055SOL     OW31985   4.178   0.632   5.652 -0.3889  0.0821 -0.0343
 8055SOL    HW231986   4.203   0.601   5.565 -0.1572 -0.5072  0.2362
 8055SOL    HW331987   4.084   0.651   5.645 -0.2525  0.5921 -0.5665
 8055SOL    MW431988   4.169   0.630   5.640 -0.3404  0.0716 -0.0689
 8056SOL     OW31989   3.023   3.762   2.065  0.2094  0.0847  0.1071
 8056SOL    HW231990   3.048   3.834   2.123  0.1575  1.1746 -1.1744
 8056SOL    HW331991   2.930   3.778   2.046 -0.3698 -1.4979  1.4146
 8056SOL    MW431992   3.014   3.774   2.070  0.1261  0.0197  0.1105
 8057SOL     OW31993   5.025   5.562   3.623 -0.1446  1.0524 -0.3157
 8057SOL    HW231994   5.096   5.549   3.560  0.4662  2.1768  0.1250
 8057SOL    HW331995   5.061   5.533   3.706  0.2818  2.8757  0.1621
 8057SOL    MW431996   5.039   5.556   3.626 -0.0077  1.4413 -0.1945
 8058SOL     OW31997   0.412   0.242   1.091  0.1872 -0.1476  0.4081
 8058SOL    HW231998   0.479   0.222   1.157  0.3529  1.0333  0.6263
 8058SOL    HW331999   0.344   0.290   1.140  0.3839  0.8732 -0.2897
 8058SOL    MW432000   0.412   0.246   1.106  0.2350  0.1429  0.3448
 8059SOL     OW32001   5.134   5.803   0.893  0.2289  0.4053 -0.6635
 8059SOL    HW232002   5.209   5.840   0.940  0.4736 -0.2449 -0.5229
 8059SOL    HW332003   5.096   5.741   0.955  0.8988 -0.8997 -1.4974
 8059SOL    MW432004   5.139   5.800   0.907  0.3496  0.1473 -0.7550
 8060SOL     OW32005   4.435   5.476   4.344  0.5957  0.5138  0.2227
 8060SOL    HW232006   4.378   5.510   4.276  0.4895 -0.5940 -0.2526
 8060SOL    HW332007   4.506   5.540   4.349 -0.7335  2.0165  0.9541
 8060SOL    MW432008   4.437   5.489   4.336  0.4063  0.5659  0.2565
 8061SOL     OW32009   2.868   3.978   5.581  0.3345 -0.1133 -0.0049
 8061SOL    HW232010   2.884   3.896   5.628  0.0228  0.0765  0.4492
 8061SOL    HW332011   2.954   4.017   5.569  0.6148 -1.1156 -1.3646
 8061SOL    MW432012   2.881   3.973   5.586  0.3304 -0.2205 -0.1244
 8062SOL     OW32013   5.421   0.835   5.123 -0.6280  0.1458  0.1657
 8062SOL    HW232014   5.455   0.746   5.113  0.7651  0.5417  1.0242
 8062SOL    HW332015   5.350   0.827   5.186 -1.1535 -0.4906 -0.4984
 8062SOL    MW432016   5.416   0.822   5.130 -0.5135  0.1141  0.1914
 8063SOL     OW32017   1.923   3.627   0.151  0.4773 -0.3616 -0.4945
 8063SOL    HW232018   1.854   3.678   0.194 -0.2026  0.7684 -2.7847
 8063SOL    HW332019   1.996   3.628   0.214 -0.8619  0.1167  1.1332
 8063SOL    MW432020   1.923   3.634   0.165  0.2109 -0.1494 -0.5819
 8064SOL     OW32021   1.302   2.208   2.512 -0.1807 -0.1191 -0.0770
 8064SOL    HW232022   1.303   2.132   2.453 -1.5510  0.5500 -1.0061
 8064SOL    HW332023   1.361   2.271   2.471 -1.1635  0.3614 -0.7989
 8064SOL    MW432024   1.310   2.206   2.499 -0.4912  0.0326 -0.2948
 8065SOL     OW32025   0.687   6.009   1.028 -0.4616  0.5883  0.4474
 8065SOL    HW232026   0.676   6.013   1.123  0.3069 -0.0101  0.5706
 8065SOL    HW332027   0.611   5.961   0.997  0.8372 -2.0898  1.1149
 8065SOL    MW432028   0.676   6.003   1.037 -0.1889  0.1560  0.5517
 8066SOL     OW32029   1.400   0.443   5.180  0.5347 -0.1409  0.0194
 8066SOL    HW232030   1.482   0.449   5.227  0.1173 -5.0613  1.8855
 8066SOL    HW332031   1.363   0.531   5.185  3.9582  1.3663  2.2535
 8066SOL    MW432032   1.406   0.455   5.187  0.9313 -0.5912  0.5603
 8067SOL     OW32033   3.399   5.901   6.280 -0.0150 -0.3519 -0.2951
 8067SOL    HW232034   3.427   5.921   6.370 -2.7174  0.2145  0.5090
 8067SOL    HW332035   3.307   5.927   6.277  0.0758 -0.0255 -3.3770
 8067SOL    MW432036   3.390   5.907   6.292 -0.3596 -0.2341 -0.5956
 8068SOL     OW32037   1.304   3.281   1.943  0.2667  0.4913  0.1183
 8068SOL    HW232038   1.232   3.236   1.899  1.0421 -1.1141  0.4207
 8068SOL    HW332039   1.331   3.349   1.881 -0.4471  0.0754 -0.6733
 8068SOL    MW432040   1.298   3.284   1.929  0.2749  0.2246  0.0537
 8069SOL     OW32041   1.996   4.665   5.456 -0.6274  0.0913 -0.3204
 8069SOL    HW232042   2.025   4.651   5.365  0.5122  1.8269 -0.2705
 8069SOL    HW332043   2.077   4.676   5.505 -1.2517  3.5139  0.1234
 8069SOL    MW432044   2.010   4.664   5.450 -0.5594  0.7719 -0.2553
 8070SOL     OW32045   3.017   2.846   3.222  1.2651  0.4714 -0.2446
 8070SOL    HW232046   3.042   2.841   3.315  3.1805  0.1437 -0.7348
 8070SOL    HW332047   3.040   2.761   3.186 -1.9786 -0.4137 -0.5247
 8070SOL    MW432048   3.024   2.834   3.230  1.0899  0.3114 -0.3462
 8071SOL     OW32049   4.847   2.533   3.729 -0.0087  0.5396  0.2199
 8071SOL    HW232050   4.943   2.532   3.735  0.2210  2.4628 -1.8335
 8071SOL    HW332051   4.828   2.596   3.660 -2.7571 -0.4613 -0.0580
 8071SOL    MW432052   4.857   2.541   3.721 -0.3410  0.6613 -0.0877
 8072SOL     OW32053   4.343   0.676   6.462 -0.0911  0.8558  0.1270
 8072SOL    HW232054   4.378   0.750   6.511 -0.4648 -0.4837  2.5686
 8072SOL    HW332055   4.414   0.612   6.459 -0.8595 -0.1231  1.3121
 8072SOL    MW432056   4.357   0.677   6.468 -0.2418  0.5499  0.6055
 8073SOL     OW32057   1.168   1.606   2.169 -0.4514  0.6367 -0.5665
 8073SOL    HW232058   1.179   1.634   2.079 -0.7905  0.7028 -0.5898
 8073SOL    HW332059   1.111   1.530   2.164  3.6419 -2.7803 -0.9128
 8073SOL    MW432060   1.162   1.600   2.157  0.0439  0.1946 -0.6153
 8074SOL     OW32061   0.680   2.089   5.496 -0.4799  0.0446  0.6812
 8074SOL    HW232062   0.602   2.141   5.479 -0.5792 -0.6847 -1.4151
 8074SOL    HW332063   0.750   2.136   5.451 -0.2898 -0.8326  0.0385
 8074SOL    MW432064   0.679   2.102   5.488 -0.4679 -0.1673  0.3198
 8075SOL     OW32065   6.242   6.345   3.845  0.6231 -0.0701  0.3110
 8075SOL    HW232066   6.182   6.410   3.881  0.4636 -0.4256  0.7041
 8075SOL    HW332067   6.209   6.328   3.757  0.7384  0.4712  0.1646
 8075SOL    MW432068   6.230   6.351   3.838  0.6172 -0.0456  0.3436
 8076SOL     OW32069   3.439   1.191   6.423  0.0399 -0.2561 -0.1536
 8076SOL    HW232070   3.444   1.099   6.396  2.0001 -0.3887  0.5389
 8076SOL    HW332071   3.483   1.239   6.353 -0.7031  0.1466 -0.3590
 8076SOL    MW432072   3.445   1.185   6.410  0.2005 -0.2205 -0.0894
 8077SOL     OW32073   4.920   1.235   3.223  0.5377 -0.0337 -0.0513
 8077SOL    HW232074   4.989   1.299   3.238  0.2929  0.4659 -0.9847
 8077SOL    HW332075   4.852   1.258   3.286 -0.1284  1.5017 -1.2718
 8077SOL    MW432076   4.920   1.246   3.233  0.4175  0.2348 -0.3355
 8078SOL     OW32077   0.011   1.703   6.389 -0.3469  0.2642  0.1127
 8078SOL    HW232078  -0.026   1.782   6.349  1.9974  1.0372 -0.6900
 8078SOL    HW332079   0.008   1.637   6.321 -3.4317 -0.8416  1.1427
 8078SOL    MW432080   0.006   1.705   6.375 -0.4446  0.2203  0.1427
 8079SOL     OW32081   5.740   6.463   0.695  0.1808 -0.3405 -0.3159
 8079SOL    HW232082   5.649   6.461   0.664  0.7362 -0.8213 -2.0570
 8079SOL    HW332083   5.774   6.545   0.660  0.4362 -0.1954  0.2745
 8079SOL    MW432084   5.732   6.474   0.686  0.2878 -0.3848 -0.4677
 8080SOL     OW32085   2.471   6.067   0.119 -0.0762  0.5966 -0.3035
 8080SOL    HW232086   2.540   6.094   0.179  0.6609  0.7011 -1.1831
 8080SOL    HW332087   2.389   6.093   0.163  0.5054  2.0404 -0.0262
 8080SOL    MW432088   2.469   6.074   0.133  0.0978  0.8009 -0.3830
 8081SOL     OW32089   3.099   3.969   3.956 -0.4289 -0.1524  0.0975
 8081SOL    HW232090   3.068   4.033   4.021 -0.6991 -1.4629  1.3272
 8081SOL    HW332091   3.055   3.888   3.981  0.0686 -0.8756 -1.2924
 8081SOL    MW432092   3.089   3.967   3.968 -0.3989 -0.4207  0.0764
 8082SOL     OW32093   5.859   0.306   3.469  0.1708  0.4648  0.0936
 8082SOL    HW232094   5.850   0.214   3.445  0.3477  0.9356 -1.9830
 8082SOL    HW332095   5.782   0.325   3.523  0.3452 -0.9699  0.8926
 8082SOL    MW432096   5.848   0.296   3.473  0.2171  0.3376 -0.0749
 8083SOL     OW32097   5.340   4.129   2.744 -0.0135 -0.3188 -0.2490
 8083SOL    HW232098   5.294   4.185   2.681  1.1562  0.6178 -0.2844
 8083SOL    HW332099   5.313   4.162   2.830 -0.7686 -0.9087 -0.2486
 8083SOL    MW432100   5.330   4.141   2.747  0.0412 -0.2731 -0.2536
 8084SOL     OW32101   0.029   6.304   0.200  0.1922 -0.5542 -0.1828
 8084SOL    HW232102   0.084   6.310   0.122  0.6627 -0.1427  0.1726
 8084SOL    HW332103  -0.057   6.334   0.172  0.3625 -0.3995 -0.5413
 8084SOL    MW432104   0.025   6.309   0.186  0.2767 -0.4795 -0.1832
 8085SOL     OW32105   3.870   1.649   1.127  0.3562  0.4766  0.3265
 8085SOL    HW232106   3.876   1.580   1.193 -1.6758  1.3218  1.4812
 8085SOL    HW332107   3.821   1.720   1.170 -0.3053  1.4021 -1.8043
 8085SOL    MW432108   3.864   1.650   1.142  0.0008  0.7102  0.1977
 8086SOL     OW32109   0.763   0.537   0.563 -0.2798  0.6464 -0.3197
 8086SOL    HW232110   0.740   0.446   0.546 -0.8896  0.9687 -1.2836
 8086SOL    HW332111   0.831   0.556   0.498  1.6985  0.1642  1.4906
 8086SOL    MW432112   0.769   0.527   0.552 -0.0993  0.6253 -0.2081
 8087SOL     OW32113   3.914   4.996   3.172  0.0942 -0.4800  0.3610
 8087SOL    HW232114   3.904   5.003   3.077 -0.5068  0.2024  0.4638
 8087SOL    HW332115   3.941   4.906   3.187 -0.2273 -0.7155 -0.4297
 8087SOL    MW432116   3.916   4.985   3.162 -0.0275 -0.4210  0.2703
 8088SOL     OW32117   3.841   6.004   0.375  0.0655  0.5475  0.3387
 8088SOL    HW232118   3.846   6.096   0.347 -1.6219  0.9074  1.0906
 8088SOL    HW332119   3.749   5.991   0.396 -0.3553 -2.1566 -2.5177
 8088SOL    MW432120   3.830   6.014   0.374 -0.2126  0.2382  0.0610
 8089SOL     OW32121   0.965   1.912   5.033 -0.2379  0.2870  0.0520
 8089SOL    HW232122   0.998   1.860   4.960 -0.5743 -0.7633  0.6312
 8089SOL    HW332123   1.037   1.971   5.055 -0.3857  1.1329 -1.5801
 8089SOL    MW432124   0.979   1.913   5.026 -0.3018  0.2601 -0.0869
 8090SOL     OW32125   4.200   5.603   4.226  0.1718  0.2646  0.4525
 8090SOL    HW232126   4.143   5.557   4.164  0.7225 -0.6431  0.5909
 8090SOL    HW332127   4.156   5.594   4.310  0.1889  0.1379  0.4490
 8090SOL    MW432128   4.186   5.596   4.229  0.2467  0.1281  0.4703
 8091SOL     OW32129   5.014   5.917   2.430 -0.2136  0.3236  0.5869
 8091SOL    HW232130   4.992   5.824   2.425  0.0507  0.2560  0.6631
 8091SOL    HW332131   4.930   5.962   2.417 -0.5698  0.0573  1.8565
 8091SOL    MW432132   5.000   5.910   2.427 -0.2257  0.2796  0.7644
 8092SOL     OW32133   5.076   5.459   0.319 -0.0354 -0.4781  0.2134
 8092SOL    HW232134   5.071   5.552   0.339  2.0153 -0.6702  1.9984
 8092SOL    HW332135   5.145   5.452   0.252 -1.4792 -0.5967 -1.3326
 8092SOL    MW432136   5.085   5.470   0.312  0.0447 -0.5191  0.2450
 8093SOL     OW32137   0.719   4.812   0.994 -0.0249 -0.2527 -0.1454
 8093SOL    HW232138   0.811   4.815   0.966  0.1256  1.3520  0.3927
 8093SOL    HW332139   0.719   4.860   1.077 -1.7925  2.3133 -1.4984
 8093SOL    MW432140   0.731   4.819   1.002 -0.2383  0.2976 -0.2529
 8094SOL     OW32141   1.431   5.107   3.833 -0.1278  0.0990  0.1895
 8094SOL    HW232142   1.399   5.117   3.743 -0.9404  0.0160  0.4607
 8094SOL    HW332143   1.416   5.192   3.874  0.4735  0.2129  0.1788
 8094SOL    MW432144   1.424   5.119   3.827 -0.1557  0.1031  0.2239
 8095SOL     OW32145   3.719   5.134   4.679  0.0476 -0.6963 -0.2104
 8095SOL    HW232146   3.800   5.103   4.639  0.7625  1.3044 -0.4120
 8095SOL    HW332147   3.677   5.186   4.610  0.3202  1.1654  0.9805
 8095SOL    MW432148   3.724   5.136   4.664  0.1779 -0.1867 -0.0799
 8096SOL     OW32149   0.018   6.299   0.477  0.0759  0.1769 -0.9209
 8096SOL    HW232150  -0.001   6.390   0.502  0.5563 -0.1170  0.6263
 8096SOL    HW332151   0.021   6.301   0.381 -0.6563  1.6388 -0.9507
 8096SOL    MW432152   0.016   6.312   0.468  0.0427  0.3310 -0.7207
 8097SOL     OW32153   3.680   3.891   1.229 -0.2586 -0.2534  0.0736
 8097SOL    HW232154   3.737   3.833   1.279 -0.0357  0.8005  1.0795
 8097SOL    HW332155   3.706   3.877   1.138  3.1657  1.6988  0.5743
 8097SOL    MW432156   3.691   3.881   1.223  0.2226  0.1432  0.2724
 8098SOL     OW32157   2.276   2.035   1.382 -0.3327  0.0728 -0.0648
 8098SOL    HW232158   2.328   2.101   1.429  2.1895 -0.4599 -1.8751
 8098SOL    HW332159   2.280   2.062   1.290 -0.5668 -1.7204 -0.6477
 8098SOL    MW432160   2.284   2.047   1.376 -0.0309 -0.2341 -0.3805
 8099SOL     OW32161   0.787   3.862   5.207 -0.0504 -0.1909 -0.3636
 8099SOL    HW232162   0.877   3.893   5.209 -0.3461  0.6966 -0.5163
 8099SOL    HW332163   0.776   3.826   5.119  0.1816 -0.4056 -0.3065
 8099SOL    MW432164   0.798   3.861   5.196 -0.0588 -0.1021 -0.3763
 8100SOL     OW32165   1.991   0.145   0.973  0.0703  0.0699 -0.0624
 8100SOL    HW232166   1.944   0.066   0.948 -0.5592  0.2319  0.5852
 8100SOL    HW332167   1.928   0.196   1.024  0.8473  0.4331  0.5622
 8100SOL    MW432168   1.977   0.141   0.977  0.0898  0.1392  0.1055
 8101SOL     OW32169   4.724   3.633   0.237 -0.1568 -0.0775  0.5097
 8101SOL    HW232170   4.742   3.673   0.152 -1.5410  1.1615  0.7445
 8101SOL    HW332171   4.671   3.556   0.217  0.8344 -0.6775  0.1688
 8101SOL    MW432172   4.719   3.628   0.223 -0.2087  0.0068  0.4957
 8102SOL     OW32173   2.989   2.617   3.597  0.5003 -0.3235 -0.0012
 8102SOL    HW232174   2.895   2.621   3.578  0.7360 -0.8553 -1.4271
 8102SOL    HW332175   3.020   2.706   3.580  0.2202 -0.0764  0.7426
 8102SOL    MW432176   2.980   2.630   3.592  0.4945 -0.3611 -0.0912
 8103SOL     OW32177   0.678   3.301   0.660 -1.2102  0.1292  0.3970
 8103SOL    HW232178   0.715   3.387   0.680  0.9847 -1.2832  3.1907
 8103SOL    HW332179   0.744   3.259   0.605 -1.6489 -0.2389  0.1441
 8103SOL    MW432180   0.692   3.307   0.655 -0.9785 -0.1057  0.7322
 8104SOL     OW32181   2.981   4.698   4.256  0.0365 -0.2287  0.3427
 8104SOL    HW232182   3.000   4.684   4.348 -0.2440 -1.5378  0.2141
 8104SOL    HW332183   3.039   4.639   4.209 -0.7738 -0.5800 -0.2588
 8104SOL    MW432184   2.991   4.689   4.262 -0.1074 -0.4478  0.2464
 8105SOL     OW32185   0.276   0.837   3.244 -0.5931 -0.2631 -0.4296
 8105SOL    HW232186   0.215   0.903   3.277 -1.3584 -1.4047  0.5100
 8105SOL    HW332187   0.233   0.801   3.167 -1.3754 -1.4023  0.5051
 8105SOL    MW432188   0.262   0.841   3.238 -0.7973 -0.5640 -0.1823
 8106SOL     OW32189   6.349   0.155   6.356  0.3382 -0.4312 -0.4620
 8106SOL    HW232190   6.422   0.182   6.300  0.7549 -0.7788 -0.0868
 8106SOL    HW332191   6.324   0.236   6.402  2.2649 -0.8338  1.4430
 8106SOL    MW432192   6.355   0.170   6.355  0.6474 -0.5302 -0.1612
 8107SOL     OW32193   4.392   1.641   0.301 -0.0308 -0.7109 -0.3873
 8107SOL    HW232194   4.316   1.589   0.327  0.5714 -0.3136  2.4291
 8107SOL    HW332195   4.428   1.674   0.383  2.0174  0.7848 -1.7954
 8107SOL    MW432196   4.386   1.638   0.315  0.3189 -0.4611 -0.2015
 8108SOL     OW32197   2.161   4.055   5.100 -0.3922  0.3453  0.0511
 8108SOL    HW232198   2.152   4.142   5.062 -1.4153 -0.3759 -1.5012
 8108SOL    HW332199   2.123   3.997   5.034  0.1275 -1.2632  1.1091
 8108SOL    MW432200   2.155   4.059   5.086 -0.4586  0.0379 -0.0141
 8109SOL     OW32201   3.407   4.206   5.912 -0.0087  0.4140  0.1476
 8109SOL    HW232202   3.497   4.232   5.890  0.4289 -0.3675  0.9399
 8109SOL    HW332203   3.353   4.246   5.844  0.8117  1.8410  0.2832
 8109SOL    MW432204   3.412   4.215   5.900  0.1573  0.4992  0.2700
 8110SOL     OW32205   0.843   0.832   1.795  0.1488  0.1763 -0.2785
 8110SOL    HW232206   0.787   0.781   1.853  0.9407 -0.9849 -0.5002
 8110SOL    HW332207   0.903   0.877   1.853  0.7645 -0.7725 -0.1549
 8110SOL    MW432208   0.844   0.831   1.810  0.3345 -0.1021 -0.2915
 8111SOL     OW32209   4.157   5.254   0.516  0.3695  0.5198  0.9312
 8111SOL    HW232210   4.096   5.257   0.590  1.6589 -1.4581  2.1926
 8111SOL    HW332211   4.240   5.287   0.551  0.9439 -0.2128  0.3078
 8111SOL    MW432212   4.160   5.259   0.530  0.6154  0.1622  1.0154
 8112SOL     OW32213   4.620   5.596   5.284  0.3757 -0.1133  0.2179
 8112SOL    HW232214   4.689   5.656   5.257 -0.6945  0.8940 -0.3781
 8112SOL    HW332215   4.666   5.527   5.331  1.6462  1.2398  1.0743
 8112SOL    MW432216   4.635   5.595   5.287  0.4021  0.1981  0.2523
 8113SOL     OW32217   5.388   4.189   2.346 -0.1326  0.2952  0.5458
 8113SOL    HW232218   5.386   4.274   2.390  1.5518  1.2084 -0.9868
 8113SOL    HW332219   5.343   4.203   2.262  1.8232  0.2810 -0.5707
 8113SOL    MW432220   5.382   4.202   2.341  0.3477  0.4138  0.1963
 8114SOL     OW32221   4.103   2.367   6.110 -0.0841  0.0339  0.4118
 8114SOL    HW232222   4.146   2.428   6.171 -0.5053  0.8021 -0.0422
 8114SOL    HW332223   4.121   2.404   6.024  0.5939 -1.1035  0.0452
 8114SOL    MW432224   4.111   2.380   6.107 -0.0502 -0.0148  0.3035
 8115SOL     OW32225   0.802   0.961   2.198  0.3285 -0.4744  0.1877
 8115SOL    HW232226   0.830   0.978   2.108  0.3022  0.5976  0.3677
 8115SOL    HW332227   0.800   1.048   2.239 -0.3189 -0.8725  1.0275
 8115SOL    MW432228   0.805   0.975   2.192  0.2396 -0.3855  0.3222
 8116SOL     OW32229   2.242   4.094   3.620 -0.6117 -0.0723  0.0086
 8116SOL    HW232230   2.333   4.102   3.589 -0.9541  1.1939 -0.7457
 8116SOL    HW332231   2.221   4.182   3.653 -0.9348 -0.8557  2.0213
 8116SOL    MW432232   2.252   4.107   3.620 -0.6995 -0.0086  0.1746
 8117SOL     OW32233   5.918   0.276   5.518 -0.2333  0.5071  0.0930
 8117SOL    HW232234   5.946   0.364   5.493  0.0871  0.4887  0.3841
 8117SOL    HW332235   5.824   0.284   5.533 -0.0764  0.9683  0.8437
 8117SOL    MW432236   5.909   0.288   5.516 -0.1703  0.5655  0.2305
 8118SOL     OW32237   1.079   1.468   3.454 -0.4446  0.0465 -0.3361
 8118SOL    HW232238   1.041   1.542   3.502 -0.6165  0.1055 -0.5622
 8118SOL    HW332239   1.132   1.509   3.386  0.2539 -0.0299  0.1431
 8118SOL    MW432240   1.081   1.484   3.452 -0.3751  0.0442 -0.3027
 8119SOL     OW32241   0.078   1.982   5.038  0.3132  0.1855 -0.1343
 8119SOL    HW232242   0.165   1.978   4.999  0.4281  0.4353  0.1006
 8119SOL    HW332243   0.033   1.905   5.002 -0.2094  1.3833 -2.2503
 8119SOL    MW432244   0.083   1.971   5.028  0.2594  0.3765 -0.3825
 8120SOL     OW32245   3.553   1.497   1.860  0.2841 -0.1608  0.4921
 8120SOL    HW232246   3.644   1.525   1.873  0.9375 -1.7054 -0.4045
 8120SOL    HW332247   3.550   1.408   1.895 -0.9770 -0.0287  0.7694
 8120SOL    MW432248   3.565   1.489   1.866  0.2039 -0.3472  0.4104
 8121SOL     OW32249   3.586   6.310   0.837 -0.2872  0.6620  0.6945
 8121SOL    HW232250   3.629   6.250   0.776 -1.3620 -0.3540  0.8927
 8121SOL    HW332251   3.643   6.309   0.914 -0.1826  0.0484  0.6199
 8121SOL    MW432252   3.599   6.302   0.839 -0.4152  0.4470  0.7108
 8122SOL     OW32253   2.235   6.114   5.306  0.2896  0.0664  0.5200
 8122SOL    HW232254   2.220   6.167   5.384  0.8640 -0.9178  1.3281
 8122SOL    HW332255   2.330   6.101   5.303  0.2568 -0.0346 -0.2506
 8122SOL    MW432256   2.245   6.119   5.316  0.3611 -0.0768  0.5250
 8123SOL     OW32257   1.200   1.489   1.714  0.3198  0.0958 -0.2071
 8123SOL    HW232258   1.106   1.498   1.729  0.6941  2.8886  0.9130
 8123SOL    HW332259   1.220   1.550   1.643  0.8620 -2.8802 -2.8406
 8123SOL    MW432260   1.191   1.498   1.706  0.4407  0.0717 -0.4068
 8124SOL     OW32261   0.462   5.646   3.759 -0.4527 -0.0001  0.2032
 8124SOL    HW232262   0.462   5.575   3.695 -0.2577  0.3817 -0.2239
 8124SOL    HW332263   0.554   5.661   3.779 -0.4471  0.6194 -0.2594
 8124SOL    MW432264   0.474   5.638   3.753 -0.4262  0.1320  0.0858
 8125SOL     OW32265   3.301   0.328   4.522  0.3273  0.0455  0.1702
 8125SOL    HW232266   3.275   0.293   4.607 -0.9211 -0.3418 -0.3441
 8125SOL    HW332267   3.396   0.318   4.519  0.3721 -0.0357  1.4614
 8125SOL    MW432268   3.310   0.322   4.533  0.1685 -0.0163  0.2727
 8126SOL     OW32269   2.302   0.188   6.242  0.3987  0.3132  0.0903
 8126SOL    HW232270   2.310   0.283   6.243 -0.1960  0.3670  1.3986
 8126SOL    HW332271   2.373   0.158   6.186  0.6968  1.5169 -0.1877
 8126SOL    MW432272   2.312   0.196   6.235  0.3596  0.4791  0.2262
 8127SOL     OW32273   4.872   3.284   1.143  0.5194  0.1108  0.3628
 8127SOL    HW232274   4.788   3.246   1.169  2.0489 -2.1061  2.5043
 8127SOL    HW332275   4.862   3.304   1.050 -2.0038 -1.0877  0.2987
 8127SOL    MW432276   4.859   3.282   1.134  0.3883 -0.3398  0.6369
 8128SOL     OW32277   4.980   1.829   6.196  0.5352  0.0271 -0.2712
 8128SOL    HW232278   4.932   1.800   6.273  1.6456 -2.2377 -0.3575
 8128SOL    HW332279   5.039   1.897   6.228 -0.5371  0.6801  0.4038
 8128SOL    MW432280   4.981   1.834   6.210  0.5403 -0.1856 -0.1935
 8129SOL     OW32281   3.711   5.374   1.902 -0.2789 -0.4469 -0.2233
 8129SOL    HW232282   3.637   5.407   1.953 -0.6100 -0.6260 -0.5814
 8129SOL    HW332283   3.718   5.282   1.927 -0.6619 -0.6268 -0.7446
 8129SOL    MW432284   3.702   5.366   1.912 -0.3731 -0.4942 -0.3394
 8130SOL     OW32285   0.598   4.862   1.806  0.7081  0.7991 -0.5305
 8130SOL    HW232286   0.575   4.774   1.776  0.8819  0.5538  0.0504
 8130SOL    HW332287   0.642   4.848   1.890  0.3719  1.4672 -0.2410
 8130SOL    MW432288   0.601   4.848   1.813  0.6867  0.8549 -0.4157
 8131SOL     OW32289   0.932   1.064   3.379  0.0341  0.1259 -0.2960
 8131SOL    HW232290   0.999   1.123   3.346 -0.5411  1.4885  0.8566
 8131SOL    HW332291   0.857   1.077   3.321  0.7714 -1.5273 -1.6919
 8131SOL    MW432292   0.931   1.073   3.367  0.0555  0.0876 -0.3281
 8132SOL     OW32293   3.860   2.546   6.415  0.1768 -0.5429  0.5201
 8132SOL    HW232294   3.769   2.533   6.444 -0.0508 -1.1925 -0.4171
 8132SOL    HW332295   3.905   2.466   6.444 -0.0194 -1.1292 -0.7216
 8132SOL    MW432296   3.854   2.533   6.423  0.1209 -0.7059  0.2326
 8133SOL     OW32297   6.165   5.265   0.706 -0.2147  0.5029 -0.3869
 8133SOL    HW232298   6.180   5.335   0.643  0.5624  0.0739 -0.6906
 8133SOL    HW332299   6.084   5.290   0.751  0.7587  2.3256  0.4827
 8133SOL    MW432300   6.157   5.278   0.704  0.0163  0.6868 -0.3122
 8134SOL     OW32301   0.550   1.939   3.949  0.2669 -0.5947 -0.0916
 8134SOL    HW232302   0.483   2.000   3.918 -0.8901 -0.5063  2.3708
 8134SOL    HW332303   0.514   1.852   3.928 -1.0613 -0.5790  1.8452
 8134SOL    MW432304   0.536   1.936   3.942 -0.0610 -0.5810  0.4888
 8135SOL     OW32305   5.377   2.318   5.720  0.0750 -0.1616 -0.1736
 8135SOL    HW232306   5.361   2.382   5.789  0.3088  0.0282 -0.2969
 8135SOL    HW332307   5.398   2.370   5.643  0.6840 -0.3983 -0.1693
 8135SOL    MW432308   5.378   2.333   5.719  0.1862 -0.1678 -0.1893
 8136SOL     OW32309   6.291   2.647   0.710 -0.1486  0.4629  0.2684
 8136SOL    HW232310   6.374   2.606   0.735 -0.6203 -0.5958  0.1581
 8136SOL    HW332311   6.313   2.705   0.638  0.3189 -0.6700 -0.5202
 8136SOL    MW432312   6.305   2.650   0.704 -0.1492  0.1737  0.1498
 8137SOL     OW32313   3.269   6.329   1.615 -0.4548  0.1898 -0.6835
 8137SOL    HW232314   3.211   6.253   1.611  0.4283 -0.4896 -0.8881
 8137SOL    HW332315   3.290   6.338   1.708  0.5793 -0.7323 -0.7958
 8137SOL    MW432316   3.264   6.320   1.627 -0.2019 -0.0215 -0.7253
 8138SOL     OW32317   2.682   0.901   5.839  0.2452  0.3679  0.1858
 8138SOL    HW232318   2.645   0.813   5.829 -0.2310  0.4679  0.9728
 8138SOL    HW332319   2.617   0.949   5.890  0.8618  0.9416  0.4511
 8138SOL    MW432320   2.668   0.896   5.844  0.2638  0.4568  0.3246
 8139SOL     OW32321   5.478   1.903   0.336  0.2510  0.1416  0.3489
 8139SOL    HW232322   5.535   1.921   0.411  1.5981  0.6670 -0.7549
 8139SOL    HW332323   5.491   1.810   0.319 -2.7828 -0.9105  2.8805
 8139SOL    MW432324   5.487   1.893   0.344  0.0285  0.0721  0.5373
 8140SOL     OW32325   0.586   3.363   4.378 -0.1945 -0.0920  0.0789
 8140SOL    HW232326   0.605   3.433   4.316 -0.8837 -0.8787 -1.0428
 8140SOL    HW332327   0.534   3.406   4.447 -1.7941  0.2450 -1.2821
 8140SOL    MW432328   0.582   3.378   4.379 -0.4965 -0.1513 -0.2487
 8141SOL     OW32329   1.505   4.282   4.945  0.3745  0.0695  0.7530
 8141SOL    HW232330   1.513   4.323   5.031  1.8249 -0.1458  0.7456
 8141SOL    HW332331   1.575   4.321   4.894 -2.5003  2.8379 -1.4963
 8141SOL    MW432332   1.515   4.292   4.950  0.1866  0.4064  0.4552
 8142SOL     OW32333   4.145   6.081   1.040 -0.0255 -0.0548 -0.2573
 8142SOL    HW232334   4.085   6.033   0.984 -1.8140  0.9679  0.6706
 8142SOL    HW332335   4.179   6.016   1.101  0.6042 -0.8408 -1.4240
 8142SOL    MW432336   4.141   6.066   1.041 -0.1784 -0.0236 -0.2888
 8143SOL     OW32337   0.498   0.281   3.326 -0.3371 -0.0993 -0.1586
 8143SOL    HW232338   0.555   0.255   3.399  0.3949  0.4327 -0.5256
 8143SOL    HW332339   0.548   0.257   3.248  0.4003  2.3676 -0.5230
 8143SOL    MW432340   0.512   0.275   3.325 -0.1432  0.2963 -0.2551
 8144SOL     OW32341   1.380   1.274   5.723  0.3862 -0.4611  0.4075
 8144SOL    HW232342   1.406   1.200   5.778  0.8684 -0.3625  0.3115
 8144SOL    HW332343   1.311   1.318   5.774  0.2864 -0.8143  0.5863
 8144SOL    MW432344   1.374   1.270   5.737  0.4366 -0.4947  0.4184
 8145SOL     OW32345   5.938   4.629   4.605  0.4078  0.6579  0.9855
 8145SOL    HW232346   5.918   4.546   4.561  2.7653  1.5150 -2.0009
 8145SOL    HW332347   5.856   4.678   4.603  0.0281  0.0172 -1.1497
 8145SOL    MW432348   5.924   4.624   4.599  0.6688  0.6865  0.3098
 8146SOL     OW32349   6.065   4.641   5.068 -0.6661 -0.3872  0.5447
 8146SOL    HW232350   6.018   4.564   5.036 -0.3250 -0.4506  0.1886
 8146SOL    HW332351   6.002   4.686   5.125 -0.7173 -1.1865  1.1416
 8146SOL    MW432352   6.051   4.637   5.072 -0.6278 -0.5011  0.5765
 8147SOL     OW32353   5.651   1.637   4.881  0.0841 -0.2059  0.0607
 8147SOL    HW232354   5.659   1.675   4.968 -0.2131  0.0155 -0.0068
 8147SOL    HW332355   5.738   1.648   4.842  0.0749  0.1568  0.1402
 8147SOL    MW432356   5.664   1.644   4.887  0.0437 -0.1288  0.0623
 8148SOL     OW32357   3.311   6.100   1.096 -0.3852 -0.5651  0.2531
 8148SOL    HW232358   3.300   6.190   1.065  0.3906 -0.3694  0.5218
 8148SOL    HW332359   3.396   6.073   1.062 -1.9813 -2.4208 -2.7055
 8148SOL    MW432360   3.321   6.108   1.088 -0.4934 -0.7841 -0.1018
 8149SOL     OW32361   4.691   5.515   1.691  0.2111  0.1060 -0.3111
 8149SOL    HW232362   4.740   5.505   1.772  0.9599 -1.1621 -0.8851
 8149SOL    HW332363   4.724   5.596   1.652 -0.2696  0.8101  0.7021
 8149SOL    MW432364   4.702   5.524   1.697  0.2465  0.0316 -0.2532
 8150SOL     OW32365   0.480   1.229   2.322  0.2810 -0.6681  0.5814
 8150SOL    HW232366   0.420   1.159   2.294  0.1131 -0.2551 -0.0895
 8150SOL    HW332367   0.555   1.182   2.358 -0.5963 -1.2074  1.8193
 8150SOL    MW432368   0.482   1.213   2.323  0.1431 -0.6848  0.6562
 8151SOL     OW32369   0.171   5.087   2.850  0.0612  0.3665  0.1733
 8151SOL    HW232370   0.080   5.105   2.873 -0.1268  0.1673 -0.3979
 8151SOL    HW332371   0.222   5.130   2.919 -0.4231  1.7412 -0.2979
 8151SOL    MW432372   0.165   5.095   2.862 -0.0275  0.5216  0.0358
 8152SOL     OW32373   4.765   5.491   2.949 -0.1462 -0.2249 -0.0182
 8152SOL    HW232374   4.724   5.504   3.034 -0.4240 -1.8532  0.1403
 8152SOL    HW332375   4.698   5.513   2.886 -0.1976  0.2370  0.1978
 8152SOL    MW432376   4.751   5.496   2.952 -0.1896 -0.3788  0.0312
 8153SOL     OW32377   1.247   1.613   3.276 -0.5023  0.0080 -0.1054
 8153SOL    HW232378   1.231   1.634   3.184 -1.3650 -2.8023 -0.6871
 8153SOL    HW332379   1.342   1.599   3.281 -0.3238  1.0393 -0.3300
 8153SOL    MW432380   1.258   1.614   3.265 -0.5926 -0.2267 -0.2118
 8154SOL     OW32381   4.382   5.857   2.242 -0.0323  0.3136  0.2578
 8154SOL    HW232382   4.332   5.932   2.209  1.2835  1.6302  1.0758
 8154SOL    HW332383   4.384   5.870   2.337  2.1855  0.6198  0.2366
 8154SOL    MW432384   4.376   5.869   2.250  0.4339  0.5277  0.3629
 8155SOL     OW32385   5.740   5.532   6.211  0.4068 -0.6723  0.4138
 8155SOL    HW232386   5.648   5.553   6.226  0.7459  0.3686  1.1610
 8155SOL    HW332387   5.745   5.511   6.118 -0.6782 -1.2977  0.4856
 8155SOL    MW432388   5.729   5.532   6.200  0.3084 -0.6175  0.5218
 8156SOL     OW32389   2.867   3.314   6.225  0.5968 -0.5169  0.1030
 8156SOL    HW232390   2.857   3.351   6.137 -0.6631  0.3210  0.5746
 8156SOL    HW332391   2.881   3.221   6.210 -2.5219 -0.9273 -0.9408
 8156SOL    MW432392   2.867   3.307   6.211  0.0191 -0.4605  0.0275
 8157SOL     OW32393   3.647   4.954   3.295  0.1976 -0.3141  0.2389
 8157SOL    HW232394   3.733   4.986   3.266  0.9704 -2.1689  0.3474
 8157SOL    HW332395   3.613   4.906   3.220 -0.0718 -0.8509  0.6984
 8157SOL    MW432396   3.654   4.952   3.282  0.2640 -0.6296  0.3138
 8158SOL     OW32397   4.235   4.397   2.877 -0.3038  0.6513 -0.4928
 8158SOL    HW232398   4.303   4.367   2.817  0.8571  1.8227  0.1988
 8158SOL    HW332399   4.162   4.422   2.820  0.1920  0.2915 -1.3029
 8158SOL    MW432400   4.234   4.396   2.862 -0.0853  0.7584 -0.5084
 8159SOL     OW32401   3.386   1.326   5.245  0.3065 -0.4987  1.0894
 8159SOL    HW232402   3.376   1.344   5.338  0.4747  1.5146  0.7749
 8159SOL    HW332403   3.394   1.413   5.205  0.1975 -1.3127 -0.8054
 8159SOL    MW432404   3.385   1.340   5.252  0.3143 -0.3405  0.7979
 8160SOL     OW32405   4.338   5.141   1.105  0.0657 -0.2895  0.3540
 8160SOL    HW232406   4.251   5.163   1.072 -0.0336  0.1392  0.8883
 8160SOL    HW332407   4.349   5.197   1.181  0.6520 -0.6279  0.5201
 8160SOL    MW432408   4.328   5.151   1.110  0.1299 -0.2776  0.4464
 8161SOL     OW32409   1.872   2.887   5.779  0.2951 -0.5509 -0.2560
 8161SOL    HW232410   1.788   2.865   5.818 -0.5818  1.8896 -0.5738
 8161SOL    HW332411   1.855   2.967   5.729  2.7132 -0.2140 -0.6666
 8161SOL    MW432412   1.859   2.895   5.777  0.4985 -0.1844 -0.3521
 8162SOL     OW32413   4.797   0.069   5.144  0.4875 -0.3137 -0.8487
 8162SOL    HW232414   4.822   0.011   5.217  0.7796  0.5796 -0.2236
 8162SOL    HW332415   4.702   0.079   5.153  0.7046  1.0636  0.4116
 8162SOL    MW432416   4.788   0.063   5.155  0.5547 -0.0141 -0.5999
 8163SOL     OW32417   3.972   4.594   5.776  0.1838  0.2420  0.5470
 8163SOL    HW232418   3.984   4.580   5.870  0.9560 -1.5072  0.2263
 8163SOL    HW332419   4.025   4.671   5.756  0.9079 -0.0320  1.3612
 8163SOL    MW432420   3.980   4.602   5.786  0.3812 -0.0250  0.6121
 8164SOL     OW32421   0.085   0.722   5.247 -0.0866  0.4213  0.8270
 8164SOL    HW232422  -0.007   0.708   5.269 -0.2794  0.8731  0.3290
 8164SOL    HW332423   0.098   0.816   5.257 -0.2929  0.7294 -1.3111
 8164SOL    MW432424   0.075   0.733   5.251 -0.1392  0.5216  0.4792
 8165SOL     OW32425   0.380   4.413   0.802 -0.3503 -0.2159  0.3493
 8165SOL    HW232426   0.396   4.361   0.881 -2.5669 -2.5688 -0.5949
 8165SOL    HW332427   0.302   4.464   0.823 -0.5928 -0.3974 -0.0904
 8165SOL    MW432428   0.372   4.412   0.815 -0.6748 -0.5503  0.1667
 8166SOL     OW32429   5.720   5.491   0.222  0.5364  0.3483  0.0106
 8166SOL    HW232430   5.786   5.496   0.153  1.9547 -0.6884  1.2238
 8166SOL    HW332431   5.637   5.511   0.178  1.6374  1.7076 -1.5574
 8166SOL    MW432432   5.718   5.495   0.207  0.8688  0.3909 -0.0362
 8167SOL     OW32433   6.270   2.601   3.764  0.5590  0.4129  0.3896
 8167SOL    HW232434   6.331   2.644   3.824 -0.0258  2.6333 -0.4902
 8167SOL    HW332435   6.184   2.611   3.805  0.3581  0.5049 -0.0470
 8167SOL    MW432436   6.267   2.608   3.777  0.4553  0.7180  0.2159
 8168SOL     OW32437   2.825   2.010   3.621  0.6035  0.0403 -0.4649
 8168SOL    HW232438   2.841   2.039   3.531  0.2176  1.0260 -0.2218
 8168SOL    HW332439   2.828   2.090   3.673 -2.8078  0.0457 -0.0668
 8168SOL    MW432440   2.828   2.024   3.616  0.1025  0.1711 -0.3803
 8169SOL     OW32441   2.976   3.401   4.547 -0.1827 -0.1039 -0.8684
 8169SOL    HW232442   3.046   3.465   4.537 -0.4117  0.0404 -1.6187
 8169SOL    HW332443   2.895   3.450   4.530 -0.7609  0.3985  2.5589
 8169SOL    MW432444   2.974   3.416   4.544 -0.2892 -0.0186 -0.5152
 8170SOL     OW32445   0.245   5.547   1.007 -0.3777  0.1248  0.2948
 8170SOL    HW232446   0.299   5.620   1.035  1.1381  0.2514 -2.5349
 8170SOL    HW332447   0.276   5.472   1.058 -0.2260  0.9431  1.4328
 8170SOL    MW432448   0.256   5.547   1.017 -0.1577  0.2495  0.0716
 8171SOL     OW32449   2.382   2.192   2.887  0.1426  0.2534  0.4741
 8171SOL    HW232450   2.360   2.237   2.969 -0.7287  1.3314 -0.3277
 8171SOL    HW332451   2.344   2.105   2.897  1.9009 -0.4152  2.0783
 8171SOL    MW432452   2.374   2.186   2.899  0.2596  0.3074  0.5800
 8172SOL     OW32453   0.777   1.267   4.930  0.2640  0.1187  0.1809
 8172SOL    HW232454   0.733   1.243   4.849  0.3997 -0.8343  0.3855
 8172SOL    HW332455   0.711   1.256   4.998  0.8025 -1.3584  0.4946
 8172SOL    MW432456   0.762   1.263   4.929  0.3529 -0.2019  0.2493
 8173SOL     OW32457   1.704   0.723   1.578 -0.5852  0.0338  0.4324
 8173SOL    HW232458   1.756   0.709   1.657 -0.9292 -0.6726  0.5366
 8173SOL    HW332459   1.670   0.812   1.587  1.3843  0.9031 -0.1043
 8173SOL    MW432460   1.707   0.733   1.589 -0.3708  0.0553  0.3754
 8174SOL     OW32461   3.348   0.451   1.452  0.3291 -0.3081 -0.0375
 8174SOL    HW232462   3.271   0.430   1.505  0.7059 -0.7120  0.3677
 8174SOL    HW332463   3.402   0.372   1.457  1.2243  0.3219  0.5149
 8174SOL    MW432464   3.345   0.438   1.460  0.4969 -0.2783  0.0888
 8175SOL     OW32465   2.515   5.919   1.968 -0.2152  0.5077  0.0054
 8175SOL    HW232466   2.499   6.012   1.985 -1.4984  0.3760 -0.3258
 8175SOL    HW332467   2.519   5.879   2.055 -0.1011  0.8047  0.1389
 8175SOL    MW432468   2.513   5.926   1.982 -0.3694  0.5295 -0.0207
 8176SOL     OW32469   4.535   1.094   3.107 -0.4111  0.0036  0.1038
 8176SOL    HW232470   4.512   1.022   3.049 -1.5416  0.6824 -0.3336
 8176SOL    HW332471   4.624   1.118   3.082 -0.2844 -0.7746 -0.2254
 8176SOL    MW432472   4.543   1.088   3.096 -0.5436 -0.0095  0.0026
 8177SOL     OW32473   3.125   4.916   1.567  0.5728 -0.5835 -0.5151
 8177SOL    HW232474   3.037   4.903   1.533  0.7235  0.4414 -1.3495
 8177SOL    HW332475   3.112   4.943   1.658 -0.1520  1.9711 -1.2782
 8177SOL    MW432476   3.112   4.918   1.574  0.4971 -0.1113 -0.7259
 8178SOL     OW32477   2.013   4.867   4.331  0.1000 -0.4821 -0.0537
 8178SOL    HW232478   1.967   4.873   4.248 -0.2713  0.5679  0.2074
 8178SOL    HW332479   2.106   4.872   4.308 -0.0120  3.1263 -0.2470
 8178SOL    MW432480   2.020   4.869   4.317  0.0362  0.1325 -0.0447
 8179SOL     OW32481   6.041   5.963   3.783  0.2213  0.1036 -0.4286
 8179SOL    HW232482   6.049   5.882   3.732  2.3902  0.4211 -0.6925
 8179SOL    HW332483   6.129   5.977   3.819 -0.5747  1.3864  1.1147
 8179SOL    MW432484   6.054   5.954   3.781  0.4025  0.3148 -0.2598
 8180SOL     OW32485   3.327   5.411   4.738 -0.6582 -0.0189  0.1973
 8180SOL    HW232486   3.359   5.465   4.666  0.8190 -0.9057  0.1610
 8180SOL    HW332487   3.379   5.438   4.814  1.6985 -2.7851 -0.2691
 8180SOL    MW432488   3.338   5.422   4.738 -0.1524 -0.5009  0.1309
 8181SOL     OW32489   2.864   3.690   0.165  0.1585 -0.2318  0.0134
 8181SOL    HW232490   2.827   3.630   0.229  1.4084 -0.9081  0.1270
 8181SOL    HW332491   2.946   3.649   0.137  0.8807  1.2563 -0.1579
 8181SOL    MW432492   2.870   3.677   0.169  0.4187 -0.1247  0.0058
 8182SOL     OW32493   0.654   6.130   1.307  0.6771 -0.2228 -0.2050
 8182SOL    HW232494   0.705   6.052   1.327  1.0330 -0.0480 -0.4248
 8182SOL    HW332495   0.719   6.199   1.292  0.4282 -0.2308 -1.4502
 8182SOL    MW432496   0.669   6.129   1.307  0.6912 -0.2008 -0.3983
 8183SOL     OW32497   3.516   4.810   4.616  0.2568 -0.1346 -0.0143
 8183SOL    HW232498   3.611   4.797   4.617  0.3167  0.3064  0.0413
 8183SOL    HW332499   3.500   4.874   4.685  0.0197  0.4814 -0.6325
 8183SOL    MW432500   3.526   4.816   4.626  0.2334  0.0049 -0.0885
 8184SOL     OW32501   0.320   5.325   1.165  0.2234 -0.2268 -0.3481
 8184SOL    HW232502   0.374   5.379   1.223 -0.8477 -0.4443  0.8905
 8184SOL    HW332503   0.230   5.344   1.191 -0.2535 -1.0099 -1.3443
 8184SOL    MW432504   0.315   5.335   1.176  0.0191 -0.3588 -0.3162
 8185SOL     OW32505   2.618   5.614   0.861  0.6378  0.5603  0.1372
 8185SOL    HW232506   2.652   5.534   0.821 -0.8561  0.5612 -1.1921
 8185SOL    HW332507   2.655   5.685   0.809 -0.7799  0.5834 -0.8894
 8185SOL    MW432508   2.627   5.613   0.849  0.2537  0.5635 -0.1736
 8186SOL     OW32509   5.261   1.748   4.701  0.6538  0.1661 -0.5359
 8186SOL    HW232510   5.244   1.699   4.620  1.1432 -0.3263 -0.3542
 8186SOL    HW332511   5.356   1.765   4.699  0.9766 -1.2565  0.6816
 8186SOL    MW432512   5.271   1.744   4.690  0.7609 -0.0866 -0.3513
 8187SOL     OW32513   2.898   4.677   6.093 -1.6589 -0.0624  0.0374
 8187SOL    HW232514   2.887   4.582   6.097  0.0821 -0.3258 -0.4474
 8187SOL    HW332515   2.917   4.696   6.001 -2.8555  0.8872 -0.0382
 8187SOL    MW432516   2.899   4.667   6.081 -1.5871  0.0281 -0.0365
 8188SOL     OW32517   5.270   1.178   5.384  0.1469 -0.3272  0.3604
 8188SOL    HW232518   5.232   1.259   5.418  1.2783  1.0529 -1.4745
 8188SOL    HW332519   5.364   1.191   5.389  0.3692 -0.5393 -1.9875
 8188SOL    MW432520   5.277   1.190   5.389  0.3255 -0.1731 -0.1915
 8189SOL     OW32521   0.344   1.741   1.198  0.0138  0.1886 -0.0502
 8189SOL    HW232522   0.326   1.830   1.169 -0.8241  0.3313  0.8443
 8189SOL    HW332523   0.274   1.688   1.158  1.0945 -0.2683 -1.4288
 8189SOL    MW432524   0.333   1.746   1.189  0.0458  0.1472 -0.1141
 8190SOL     OW32525   4.994   3.862   6.270  0.6616 -0.0832 -0.4464
 8190SOL    HW232526   4.929   3.837   6.206  0.3993 -0.5048 -0.0182
 8190SOL    HW332527   5.078   3.838   6.230  0.5351  0.1073 -0.8317
 8190SOL    MW432528   4.997   3.856   6.257  0.6103 -0.1137 -0.4407
 8191SOL     OW32529   3.898   1.443   4.231  0.1045  0.2997  0.1297
 8191SOL    HW232530   3.837   1.469   4.300  0.5192  0.2814  0.5037
 8191SOL    HW332531   3.983   1.476   4.260  0.8986 -2.4622  1.2098
 8191SOL    MW432532   3.901   1.451   4.244  0.2639 -0.0671  0.3216
 8192SOL     OW32533   1.150   1.621   0.948  0.2688 -0.3059  0.0676
 8192SOL    HW232534   1.146   1.567   0.869 -0.1312 -0.3314  0.1022
 8192SOL    HW332535   1.124   1.709   0.919 -0.1271 -0.3711  0.2163
 8192SOL    MW432536   1.146   1.626   0.934  0.1638 -0.3179  0.0918
 8193SOL     OW32537   1.075   4.750   6.152  0.0544 -0.3106  0.0805
 8193SOL    HW232538   1.105   4.776   6.239  0.6567 -0.3292 -0.1217
 8193SOL    HW332539   0.988   4.791   6.144 -0.2647 -0.8016  0.9209
 8193SOL    MW432540   1.067   4.759   6.162  0.0917 -0.3778  0.1647
 8194SOL     OW32541   0.961   0.459   5.189 -0.2177 -0.3415  0.3532
 8194SOL    HW232542   0.896   0.414   5.134 -1.1146 -0.2961  1.3294
 8194SOL    HW332543   0.928   0.448   5.278 -0.6010  2.4339  0.6360
 8194SOL    MW432544   0.948   0.451   5.194 -0.3866  0.0307  0.5193
 8195SOL     OW32545   4.319   1.120   1.984 -0.2455  0.1816 -0.4599
 8195SOL    HW232546   4.317   1.035   1.939 -1.0515 -0.5038  0.8176
 8195SOL    HW332547   4.394   1.115   2.043 -0.5133  0.2089 -0.1140
 8195SOL    MW432548   4.329   1.108   1.986 -0.3872  0.0948 -0.2457
 8196SOL     OW32549   6.344   1.845   3.181  0.5951 -0.0712  0.6388
 8196SOL    HW232550   6.285   1.919   3.194  2.5500  1.7861 -0.5218
 8196SOL    HW332551   6.372   1.822   3.269  0.3132  0.8628  0.9891
 8196SOL    MW432552   6.340   1.852   3.195  0.8158  0.2971  0.5319
 8197SOL     OW32553   0.205   2.022   3.312 -0.7110  0.2891 -0.2187
 8197SOL    HW232554   0.151   2.060   3.243 -1.2826 -1.4287 -0.7701
 8197SOL    HW332555   0.154   2.033   3.392  0.2001  2.8039  0.1043
 8197SOL    MW432556   0.191   2.028   3.313 -0.6662  0.3943 -0.2488
 8198SOL     OW32557  -0.000   4.341   5.409  0.4298 -0.0591 -0.2468
 8198SOL    HW232558   0.016   4.356   5.315  1.0023  1.0265 -0.0001
 8198SOL    HW332559   0.079   4.373   5.452 -0.2974  0.5472  0.6816
 8198SOL    MW432560   0.012   4.348   5.402  0.4094  0.1641 -0.0918
 8199SOL     OW32561   3.095   3.793   2.476  0.8174  0.1944 -0.5148
 8199SOL    HW232562   3.121   3.701   2.487 -3.3761 -1.0641  0.7787
 8199SOL    HW332563   3.158   3.842   2.529  1.5734 -2.2206  1.0159
 8199SOL    MW432564   3.107   3.787   2.484  0.3639 -0.2902 -0.1422
 8200SOL     OW32565   2.297   0.065   2.472  0.0073  0.0007  0.5191
 8200SOL    HW232566   2.358   0.026   2.535 -0.5585 -1.6841  0.0922
 8200SOL    HW332567   2.227  -0.000   2.463 -0.8451  1.0125 -0.4842
 8200SOL    MW432568   2.296   0.051   2.479 -0.1798 -0.0881  0.3304
 8201SOL     OW32569   1.355   1.337   4.937 -0.0996 -0.5521 -0.3023
 8201SOL    HW232570   1.284   1.312   4.996 -0.4682  0.1162 -0.4629
 8201SOL    HW332571   1.324   1.416   4.893  0.8334 -0.1130 -0.2036
 8201SOL    MW432572   1.342   1.344   4.939 -0.0251 -0.4060 -0.3105
 8202SOL     OW32573   0.278   4.129   2.041  0.0334  0.1981 -0.1450
 8202SOL    HW232574   0.275   4.113   2.135 -0.8326  1.1771  0.0116
 8202SOL    HW332575   0.203   4.186   2.024  0.9905  1.1960 -1.1951
 8202SOL    MW432576   0.268   4.135   2.051  0.0454  0.4589 -0.2629
 8203SOL     OW32577   6.183   3.003   2.873 -0.0753  0.7167 -0.1688
 8203SOL    HW232578   6.241   2.974   2.802 -1.5147 -2.9107 -0.0651
 8203SOL    HW332579   6.218   3.088   2.899  1.4972  1.4936 -4.1028
 8203SOL    MW432580   6.195   3.010   2.867 -0.0577  0.3406 -0.6742
 8204SOL     OW32581   1.776   5.141   4.767 -0.6083 -0.3762 -0.2612
 8204SOL    HW232582   1.718   5.196   4.714  0.8125  0.5505 -0.8880
 8204SOL    HW332583   1.834   5.202   4.812  0.9796 -1.3288 -0.9390
 8204SOL    MW432584   1.776   5.156   4.766 -0.2113 -0.3796 -0.4333
 8205SOL     OW32585   6.136   3.782   5.155 -0.1009 -0.2631 -0.0735
 8205SOL    HW232586   6.088   3.820   5.081  0.5681  0.6485 -0.0419
 8205SOL    HW332587   6.140   3.851   5.220  0.0554 -0.7912  0.4864
 8205SOL    MW432588   6.130   3.796   5.154  0.0080 -0.2125  0.0046
 8206SOL     OW32589   2.931   1.956   5.346  0.1101  0.6885 -0.1635
 8206SOL    HW232590   2.910   2.008   5.268 -0.7093  0.2172 -0.2640
 8206SOL    HW332591   2.895   2.007   5.418 -0.1211  0.5772 -0.2001
 8206SOL    MW432592   2.924   1.970   5.345 -0.0285  0.6116 -0.1816
 8207SOL     OW32593   4.266   0.847   2.729  0.2751  0.0390 -0.1050
 8207SOL    HW232594   4.238   0.822   2.817 -0.3340  1.7496  0.2290
 8207SOL    HW332595   4.185   0.868   2.683  0.7274  1.4706 -0.2964
 8207SOL    MW432596   4.252   0.846   2.735  0.2544  0.4536 -0.0862
 8208SOL     OW32597   4.540   5.125   2.182 -0.8147  0.2057 -0.1462
 8208SOL    HW232598   4.604   5.194   2.161 -1.8094  0.8037 -1.3479
 8208SOL    HW332599   4.461   5.172   2.208 -1.3737 -0.4733 -0.5633
 8208SOL    MW432600   4.538   5.141   2.183 -1.0197  0.1950 -0.3597
 8209SOL     OW32601   5.287   3.305   3.460  0.0629 -0.1204 -0.3362
 8209SOL    HW232602   5.226   3.336   3.528  0.2419  1.0286 -0.6771
 8209SOL    HW332603   5.368   3.353   3.477  0.0770  0.2698 -1.4282
 8209SOL    MW432604   5.290   3.315   3.471  0.0884  0.0827 -0.5252
 8210SOL     OW32605   2.381   0.445   4.587 -0.4717  0.4351  0.2168
 8210SOL    HW232606   2.331   0.493   4.521  0.6838 -0.0571 -1.0706
 8210SOL    HW332607   2.396   0.359   4.548  2.4360  0.9531 -0.0617
 8210SOL    MW432608   2.376   0.440   4.573  0.0644  0.4385  0.0102
 8211SOL     OW32609   3.261   5.153   4.709  0.6602  0.1452  0.0875
 8211SOL    HW232610   3.270   5.134   4.616  0.2150  0.0849  0.0538
 8211SOL    HW332611   3.294   5.242   4.719 -2.7545  1.6697 -0.8040
 8211SOL    MW432612   3.267   5.162   4.698  0.1509  0.3384 -0.0346
 8212SOL     OW32613   2.738   4.188   1.584  0.1428  0.2637  0.3138
 8212SOL    HW232614   2.806   4.210   1.520 -0.5372  1.3614 -0.0620
 8212SOL    HW332615   2.668   4.148   1.532  0.0442  0.1560  0.5304
 8212SOL    MW432616   2.738   4.185   1.568  0.0401  0.3944  0.2928
 8213SOL     OW32617   1.489   2.286   6.184 -0.3377  0.3596 -0.1143
 8213SOL    HW232618   1.415   2.334   6.145 -1.8663 -0.0150  2.1244
 8213SOL    HW332619   1.465   2.194   6.176  0.3187  0.1888 -0.1527
 8213SOL    MW432620   1.476   2.280   6.178 -0.4528  0.2877  0.1760
 8214SOL     OW32621   1.819   3.755   1.365 -0.2230 -0.1192  0.7056
 8214SOL    HW232622   1.745   3.781   1.309  0.6191 -1.9682 -1.4109
 8214SOL    HW332623   1.782   3.754   1.454 -2.3118  0.5053 -0.0859
 8214SOL    MW432624   1.804   3.759   1.369 -0.3875 -0.2808  0.3219
 8215SOL     OW32625   6.370   6.293   4.932  0.2088  0.2663  0.3752
 8215SOL    HW232626   6.324   6.229   4.986  0.6482 -0.5778 -0.2271
 8215SOL    HW332627   6.461   6.288   4.963  0.5487 -0.5212 -0.6814
 8215SOL    MW432628   6.376   6.284   4.943  0.3116  0.0511  0.1563
 8216SOL     OW32629   2.186   4.289   4.037 -0.1795  0.3590  0.6001
 8216SOL    HW232630   2.200   4.274   4.131  1.5728  1.3300  0.5231
 8216SOL    HW332631   2.260   4.247   3.994 -0.9271 -0.0029 -0.3800
 8216SOL    MW432632   2.197   4.281   4.044 -0.0470  0.4394  0.4606
 8217SOL     OW32633   4.765   4.228   3.297  0.1781  0.1888  0.4356
 8217SOL    HW232634   4.748   4.223   3.202  0.0386 -0.0280  0.4694
 8217SOL    HW332635   4.823   4.303   3.307  0.6425 -0.1150  0.1131
 8217SOL    MW432636   4.770   4.237   3.286  0.2210  0.1201  0.3975
 8218SOL     OW32637   5.170   5.501   3.842  0.5342  0.5574  0.4134
 8218SOL    HW232638   5.144   5.475   3.930  1.0297  0.8263  0.6402
 8218SOL    HW332639   5.221   5.581   3.854  2.3042 -0.4576  0.0868
 8218SOL    MW432640   5.173   5.508   3.855  0.8331  0.4589  0.4002
 8219SOL     OW32641   5.051   1.307   1.075  0.4180 -0.6460 -0.4916
 8219SOL    HW232642   5.041   1.212   1.066 -1.9200 -0.3061 -2.5307
 8219SOL    HW332643   5.144   1.323   1.056  0.2643 -2.2907 -3.1141
 8219SOL    MW432644   5.062   1.296   1.071  0.0893 -0.8182 -1.1066
 8220SOL     OW32645   3.890   0.959   2.968 -0.2484 -0.3051 -0.3483
 8220SOL    HW232646   3.876   0.897   2.897  0.0153 -1.0125  0.2023
 8220SOL    HW332647   3.955   1.020   2.934 -0.8347 -0.0693 -1.0548
 8220SOL    MW432648   3.897   0.959   2.954 -0.2909 -0.3673 -0.3689
 8221SOL     OW32649   6.065   1.943   2.005  0.0248 -0.2267 -0.2473
 8221SOL    HW232650   6.036   1.867   2.056 -1.7105 -0.3333 -1.3254
 8221SOL    HW332651   5.985   1.980   1.968  0.8420  1.9752 -0.0139
 8221SOL    MW432652   6.051   1.938   2.007 -0.0964  0.0498 -0.3587
 8222SOL     OW32653   4.677   2.527   2.150 -0.5629 -0.3298 -0.8195
 8222SOL    HW232654   4.682   2.512   2.056 -0.2934 -0.5161 -0.7789
 8222SOL    HW332655   4.638   2.613   2.159  0.1377  0.0318 -1.1284
 8222SOL    MW432656   4.673   2.536   2.139 -0.4349 -0.3067 -0.8549
 8223SOL     OW32657   2.576   0.600   1.539 -0.5367  0.2206  0.8098
 8223SOL    HW232658   2.585   0.682   1.587 -0.5349  1.4042 -1.1034
 8223SOL    HW332659   2.506   0.616   1.476 -1.5702 -1.7769  1.3683
 8223SOL    MW432660   2.568   0.613   1.537 -0.6728  0.1132  0.6311
 8224SOL     OW32661   0.426   0.465   5.805 -0.0644  0.1782 -0.3184
 8224SOL    HW232662   0.371   0.543   5.810  0.4272  0.4527  3.9514
 8224SOL    HW332663   0.368   0.393   5.832  0.5387 -0.2853 -0.2313
 8224SOL    MW432664   0.411   0.466   5.809  0.0800  0.1532  0.2564
 8225SOL     OW32665   3.926   0.434   4.543 -0.5728  0.4542  0.3270
 8225SOL    HW232666   3.887   0.488   4.474 -1.0171  0.9585  0.9643
 8225SOL    HW332667   4.000   0.486   4.575  0.4022 -0.3115 -0.5841
 8225SOL    MW432668   3.931   0.448   4.538 -0.5028  0.4197  0.2909
 8226SOL     OW32669   5.968   4.277   2.494 -0.0087  0.8106 -0.1732
 8226SOL    HW232670   5.990   4.197   2.543 -0.2868  1.3667  0.8754
 8226SOL    HW332671   6.049   4.327   2.494 -0.7429  2.1391  2.3140
 8226SOL    MW432672   5.982   4.273   2.501 -0.1423  1.0592  0.2933
 8227SOL     OW32673   2.890   5.496   3.563 -0.7753 -0.1569 -0.3214
 8227SOL    HW232674   2.882   5.495   3.658 -0.4331 -1.1109 -0.2927
 8227SOL    HW332675   2.930   5.412   3.541 -1.6081 -0.3025 -1.3759
 8227SOL    MW432676   2.894   5.485   3.572 -0.8401 -0.3020 -0.4568
 8228SOL     OW32677   5.604   1.058   1.244  0.6292 -0.1924 -0.0700
 8228SOL    HW232678   5.653   1.140   1.237  0.3031 -0.0342 -0.5357
 8228SOL    HW332679   5.613   1.033   1.336  2.8021 -0.9441 -0.4269
 8228SOL    MW432680   5.612   1.066   1.255  0.8728 -0.2707 -0.1786
 8229SOL     OW32681   4.483   6.308   3.411 -0.0345 -0.2111 -0.4633
 8229SOL    HW232682   4.483   6.228   3.358  1.7514 -1.0020  0.6328
 8229SOL    HW332683   4.505   6.377   3.349  1.4180 -1.0253 -0.9163
 8229SOL    MW432684   4.485   6.306   3.396  0.3927 -0.4228 -0.3785
 8230SOL     OW32685   5.327   2.086   0.187  0.1740 -0.1642  0.3481
 8230SOL    HW232686   5.362   1.999   0.207  0.9261 -0.1239 -0.7240
 8230SOL    HW332687   5.401   2.134   0.150 -0.0105  1.2076  1.6402
 8230SOL    MW432688   5.342   2.081   0.185  0.2489  0.0221  0.3771
 8231SOL     OW32689   0.661   1.957   3.017 -0.4519  0.0847 -0.0423
 8231SOL    HW232690   0.645   2.043   3.057  0.6083  0.6204 -0.7203
 8231SOL    HW332691   0.698   1.978   2.931  2.4978 -1.0473  0.8626
 8231SOL    MW432692   0.664   1.971   3.011  0.0772  0.0061 -0.0124
 8232SOL     OW32693   5.038   6.289   6.434  0.0932 -0.1468  0.5956
 8232SOL    HW232694   4.960   6.344   6.424 -0.1521 -0.8430 -1.9177
 8232SOL    HW332695   5.110   6.343   6.402 -0.3502 -1.5670 -3.4147
 8232SOL    MW432696   5.037   6.303   6.429  0.0024 -0.4260 -0.2651
 8233SOL     OW32697   3.547   5.202   3.282 -0.2911  0.0864  0.4783
 8233SOL    HW232698   3.565   5.223   3.190 -1.0341 -1.0717  0.0605
 8233SOL    HW332699   3.584   5.115   3.295 -3.2614 -1.3118  0.2703
 8233SOL    MW432700   3.555   5.194   3.271 -0.7810 -0.2509  0.3957
 8234SOL     OW32701   1.934   1.930   1.966  0.0371 -0.0813  0.0035
 8234SOL    HW232702   1.893   1.885   1.893 -0.1891 -0.7129  0.5143
 8234SOL    HW332703   1.879   1.910   2.041  1.2927 -0.9976  0.7127
 8234SOL    MW432704   1.922   1.922   1.966  0.1729 -0.2855  0.1645
 8235SOL     OW32705   4.023   4.639   0.663 -0.0517  0.3400 -0.0846
 8235SOL    HW232706   4.034   4.734   0.655  3.5066  0.0539 -0.1646
 8235SOL    HW332707   3.958   4.618   0.596  0.7245  2.4847 -1.6459
 8235SOL    MW432708   4.015   4.649   0.653  0.5202  0.5852 -0.3011
 8236SOL     OW32709   3.154   6.404   5.861  0.3747  0.1326  0.1379
 8236SOL    HW232710   3.102   6.466   5.913  1.6481  0.7901  0.6568
 8236SOL    HW332711   3.216   6.459   5.813  0.9747 -0.6823 -0.0321
 8236SOL    MW432712   3.155   6.419   5.862  0.6219  0.1118  0.1839
 8237SOL     OW32713   3.617   2.475   2.451  0.3355 -0.3028 -0.1157
 8237SOL    HW232714   3.711   2.460   2.459  0.2163 -1.3235 -0.4446
 8237SOL    HW332715   3.608   2.530   2.373  0.7881  1.6712  1.1410
 8237SOL    MW432716   3.628   2.480   2.442  0.3795 -0.1770  0.0067
 8238SOL     OW32717   1.029   3.223   6.294  0.2605  0.0563 -0.3908
 8238SOL    HW232718   1.094   3.294   6.287  0.1154  0.3373  0.8606
 8238SOL    HW332719   0.967   3.255   6.359  1.3529 -2.0877  1.8754
 8238SOL    MW432720   1.030   3.237   6.302  0.3855 -0.1895  0.0733
 8239SOL     OW32721   2.957   1.954   5.762  0.5019  0.2010 -0.5327
 8239SOL    HW232722   2.930   2.039   5.796 -0.0661  0.4011 -1.4604
 8239SOL    HW332723   3.012   1.975   5.686  0.7790 -0.2505 -0.4594
 8239SOL    MW432724   2.961   1.968   5.756  0.4635  0.1678 -0.6454
 8240SOL     OW32725   4.910   1.830   5.165 -0.4035 -0.1048 -0.8639
 8240SOL    HW232726   4.823   1.791   5.159 -1.5621  2.2614 -0.2796
 8240SOL    HW332727   4.949   1.791   5.243 -0.7569 -1.4347 -1.3247
 8240SOL    MW432728   4.904   1.819   5.174 -0.6030  0.0319 -0.8476
 8241SOL     OW32729   5.030   0.751   4.172 -0.4709 -0.0623 -0.2378
 8241SOL    HW232730   4.958   0.739   4.234 -1.3247  0.3502 -1.1119
 8241SOL    HW332731   5.022   0.676   4.112 -1.4605  1.0459 -1.5461
 8241SOL    MW432732   5.019   0.739   4.172 -0.7141  0.1384 -0.5257
 8242SOL     OW32733   2.716   2.310   5.142 -0.1133 -0.2683  0.1938
 8242SOL    HW232734   2.744   2.224   5.111  0.6963 -0.1500  0.5930
 8242SOL    HW332735   2.701   2.299   5.236  0.2473  0.0939  0.2937
 8242SOL    MW432736   2.718   2.297   5.150  0.0411 -0.2049  0.2596
 8243SOL     OW32737   2.852   5.047   0.599 -0.1112  0.1738 -0.7271
 8243SOL    HW232738   2.828   4.991   0.525  0.0983 -0.1352 -0.5612
 8243SOL    HW332739   2.929   5.095   0.569  1.9570 -2.2620  0.3831
 8243SOL    MW432740   2.859   5.046   0.585  0.1893 -0.1883 -0.5587
 8244SOL     OW32741   3.232   1.613   6.217 -0.5212  0.5107 -0.0317
 8244SOL    HW232742   3.261   1.548   6.154  1.8702  1.7127 -0.3037
 8244SOL    HW332743   3.312   1.661   6.240 -1.6192  1.2542  2.5928
 8244SOL    MW432744   3.247   1.611   6.212 -0.3505  0.7673  0.2787
 8245SOL     OW32745   1.815   3.123   3.830  0.2711 -0.3757 -0.5962
 8245SOL    HW232746   1.909   3.125   3.848 -0.0946  0.3714  1.4114
 8245SOL    HW332747   1.788   3.035   3.855  0.0776  0.1133  1.0473
 8245SOL    MW432748   1.824   3.112   3.835  0.1974 -0.2126 -0.1145
 8246SOL     OW32749   5.254   4.320   0.686 -0.3576 -0.1408  0.2269
 8246SOL    HW232750   5.198   4.278   0.621 -1.2552  0.3919  0.6347
 8246SOL    HW332751   5.319   4.367   0.634 -0.3773 -0.6408 -0.2618
 8246SOL    MW432752   5.255   4.320   0.670 -0.4786 -0.1365  0.2162
 8247SOL     OW32753   5.102   4.053   3.567 -0.2201  0.2252 -0.3062
 8247SOL    HW232754   5.098   4.072   3.474  1.2926 -2.0274 -0.9090
 8247SOL    HW332755   5.015   4.022   3.590 -1.2238  2.7296 -0.4129
 8247SOL    MW432756   5.090   4.051   3.558 -0.1529  0.2584 -0.3998
 8248SOL     OW32757   2.306   5.924   3.495  0.2757  0.0789 -0.0896
 8248SOL    HW232758   2.284   5.901   3.585  0.2323 -1.5888 -0.4781
 8248SOL    HW332759   2.239   5.986   3.467  1.2493  1.9655  1.5255
 8248SOL    MW432760   2.294   5.929   3.503  0.3984  0.1078  0.0722
 8249SOL     OW32761   2.391   0.399   1.650  0.5230  0.3512  0.3313
 8249SOL    HW232762   2.404   0.307   1.627 -0.4028  0.3548 -0.2632
 8249SOL    HW332763   2.451   0.447   1.594  0.6569  0.1380  0.2928
 8249SOL    MW432764   2.400   0.393   1.640  0.4185  0.3235  0.2478
 8250SOL     OW32765   0.649   5.431   4.625 -0.0599 -0.4198  0.4674
 8250SOL    HW232766   0.575   5.375   4.606 -0.1967 -0.9539  2.3530
 8250SOL    HW332767   0.617   5.492   4.692  0.5753  0.7963 -0.3015
 8250SOL    MW432768   0.635   5.432   4.632  0.0058 -0.3298  0.6147
 8251SOL     OW32769   0.611   3.469   2.104 -0.5357  0.7684 -0.2712
 8251SOL    HW232770   0.620   3.393   2.047  0.3885  1.5731 -1.2402
 8251SOL    HW332771   0.532   3.513   2.074 -1.4565 -0.1318  0.7292
 8251SOL    MW432772   0.602   3.464   2.093 -0.5352  0.7558 -0.2671
 8252SOL     OW32773   4.032   1.987   5.214  0.0183 -0.4016 -0.4597
 8252SOL    HW232774   4.100   2.040   5.258 -1.9819  2.4377 -0.5054
 8252SOL    HW332775   4.082   1.928   5.158  2.5237  2.0300 -1.0670
 8252SOL    MW432776   4.048   1.986   5.213  0.0850  0.2938 -0.5459
 8253SOL     OW32777   3.215   0.170   4.319 -0.7644  0.0544  0.4027
 8253SOL    HW232778   3.163   0.200   4.244 -1.2611 -1.3872  0.1425
 8253SOL    HW332779   3.237   0.251   4.366 -2.2373  0.8007 -0.1192
 8253SOL    MW432780   3.211   0.185   4.315 -1.0243 -0.0373  0.2995
 8254SOL     OW32781   2.372   5.734   4.409 -1.2924 -0.5162  0.1518
 8254SOL    HW232782   2.348   5.738   4.317  0.3532 -3.6835 -0.5685
 8254SOL    HW332783   2.370   5.641   4.430  2.1556 -0.3123  2.1810
 8254SOL    MW432784   2.369   5.722   4.400 -0.6203 -0.9072  0.3245
 8255SOL     OW32785   0.781   2.881   5.239  0.0854  0.1945  0.4957
 8255SOL    HW232786   0.751   2.961   5.283 -1.5553 -0.3418  0.4020
 8255SOL    HW332787   0.812   2.911   5.154  1.2960  0.9592  1.1620
 8255SOL    MW432788   0.781   2.896   5.234  0.0287  0.2247  0.5713
 8256SOL     OW32789   1.390   2.599   3.029 -0.0175  0.3888  0.5962
 8256SOL    HW232790   1.358   2.676   3.075  0.3801  2.3807 -2.1445
 8256SOL    HW332791   1.321   2.580   2.964  1.2510  0.4965 -0.8472
 8256SOL    MW432792   1.377   2.607   3.026  0.2023  0.6658  0.0442
 8257SOL     OW32793   0.764   1.995   3.789 -0.0406 -0.3131 -0.1032
 8257SOL    HW232794   0.748   1.928   3.723  0.9922 -0.8029  0.1231
 8257SOL    HW332795   0.691   1.986   3.850  1.8536 -3.7571  1.9598
 8257SOL    MW432796   0.752   1.985   3.788  0.3455 -0.8321  0.1988
 8258SOL     OW32797   4.963   0.495   0.628 -0.1030 -0.2726 -0.4955
 8258SOL    HW232798   4.995   0.470   0.714 -1.4732 -1.3987 -0.2684
 8258SOL    HW332799   4.939   0.587   0.636 -1.2830 -0.6638  0.6731
 8258SOL    MW432800   4.964   0.504   0.640 -0.4394 -0.4728 -0.3113
 8259SOL     OW32801   6.370   1.961   3.757 -0.4019 -0.3197  0.5403
 8259SOL    HW232802   6.417   2.008   3.689 -3.1372  0.1933 -1.1851
 8259SOL    HW332803   6.415   1.877   3.764  0.3652 -0.1179 -1.4452
 8259SOL    MW432804   6.382   1.956   3.749 -0.6616 -0.2254  0.0507
 8260SOL     OW32805   0.038   5.944   1.004 -0.2356  0.3344 -0.9998
 8260SOL    HW232806  -0.015   5.922   0.928  0.6910  0.4181 -1.6895
 8260SOL    HW332807   0.007   5.885   1.073  0.0176 -0.8866 -1.9048
 8260SOL    MW432808   0.027   5.933   1.003 -0.0799  0.1844 -1.2102
 8261SOL     OW32809   3.532   5.412   6.082  0.1715  0.3368 -0.4316
 8261SOL    HW232810   3.603   5.393   6.144 -0.3037  0.1672  0.0737
 8261SOL    HW332811   3.522   5.507   6.085 -2.2231  0.1609  2.5327
 8261SOL    MW432812   3.540   5.422   6.091 -0.2072  0.2912  0.0261
 8262SOL     OW32813   2.217   2.288   4.095  0.0660  0.3704 -0.5170
 8262SOL    HW232814   2.191   2.357   4.156 -1.2477  0.2164 -0.8705
 8262SOL    HW332815   2.179   2.315   4.011  1.1557  0.1674 -1.0949
 8262SOL    MW432816   2.209   2.301   4.092  0.0365  0.3233 -0.6399
 8263SOL     OW32817   0.478   0.560   4.893  0.4590  0.1685  0.3075
 8263SOL    HW232818   0.548   0.625   4.887  1.2013 -0.5248  1.0409
 8263SOL    HW332819   0.450   0.545   4.803  1.0544  0.6749  0.0331
 8263SOL    MW432820   0.484   0.566   4.880  0.6355  0.1439  0.3680
 8264SOL     OW32821   3.314   6.000   5.390 -0.9129  0.1500  0.4012
 8264SOL    HW232822   3.292   5.926   5.333 -0.2572  0.9327 -0.9096
 8264SOL    HW332823   3.384   6.046   5.344 -0.7782  1.1598  1.5647
 8264SOL    MW432824   3.320   5.997   5.376 -0.8086  0.3865  0.3818
 8265SOL     OW32825   1.006   1.987   2.400  0.2093  0.4833 -0.2372
 8265SOL    HW232826   0.912   1.979   2.386 -0.0363  1.2453  0.8117
 8265SOL    HW332827   1.027   2.075   2.368  0.2243  0.9840  1.0703
 8265SOL    MW432828   0.996   1.998   2.394  0.1789  0.6499  0.0737
 8266SOL     OW32829   0.170   4.623   0.836 -0.0335 -0.1780  0.5265
 8266SOL    HW232830   0.205   4.711   0.850  0.8942 -0.3583 -0.5026
 8266SOL    HW332831   0.076   4.636   0.828  0.2341  1.0137 -1.5190
 8266SOL    MW432832   0.163   4.637   0.837  0.1242 -0.0445  0.1209
 8267SOL     OW32833   5.525   3.322   5.937 -0.0499 -0.3516 -0.0113
 8267SOL    HW232834   5.617   3.325   5.910 -0.4336 -1.6389 -1.5727
 8267SOL    HW332835   5.522   3.255   6.004  0.0263 -0.8557 -0.5089
 8267SOL    MW432836   5.537   3.314   5.942 -0.0905 -0.5880 -0.2830
 8268SOL     OW32837   0.557   3.302   2.311 -0.3166 -0.0453 -0.1250
 8268SOL    HW232838   0.461   3.303   2.307 -0.2889 -0.0384 -1.0122
 8268SOL    HW332839   0.584   3.361   2.241  0.3281  1.4500  1.3224
 8268SOL    MW432840   0.548   3.310   2.301 -0.2279  0.1529 -0.0511
 8269SOL     OW32841   1.840   2.631   3.862  0.1153 -0.0845 -0.9868
 8269SOL    HW232842   1.912   2.674   3.907 -0.0329  0.3814 -1.1881
 8269SOL    HW332843   1.767   2.694   3.867  0.3446  0.3619 -2.6189
 8269SOL    MW432844   1.840   2.645   3.868  0.1260  0.0358 -1.2287
 8270SOL     OW32845   1.128   1.414   5.841  0.2627  0.0251  0.2186
 8270SOL    HW232846   1.071   1.337   5.835  0.5050 -0.1106 -0.3871
 8270SOL    HW332847   1.125   1.438   5.934 -1.2294  0.3673  0.1124
 8270SOL    MW432848   1.120   1.407   5.853  0.0978  0.0524  0.1247
 8271SOL     OW32849   3.066   6.423   2.207  0.3159 -0.2059 -0.7031
 8271SOL    HW232850   3.152   6.380   2.200 -0.2623 -1.7654  1.0446
 8271SOL    HW332851   3.051   6.431   2.301 -1.9485 -1.0216 -0.9451
 8271SOL    MW432852   3.075   6.418   2.218 -0.0591 -0.5193 -0.5044
 8272SOL     OW32853   4.479   4.726   1.930  0.1165 -0.1957 -0.2891
 8272SOL    HW232854   4.464   4.813   1.892  2.3544  0.4785  0.2362
 8272SOL    HW332855   4.455   4.736   2.022  0.5747 -0.0850 -0.1835
 8272SOL    MW432856   4.474   4.739   1.937  0.4722 -0.0922 -0.2059
 8273SOL     OW32857   4.413   3.371   2.157  0.1172  0.1714  0.1987
 8273SOL    HW232858   4.466   3.431   2.105  0.3753 -1.3862 -1.4340
 8273SOL    HW332859   4.442   3.284   2.130 -2.5290 -0.7401 -0.0225
 8273SOL    MW432860   4.424   3.367   2.147 -0.1979 -0.1543 -0.0459
 8274SOL     OW32861   4.583   3.912   3.251  0.8454 -0.2226  0.0263
 8274SOL    HW232862   4.603   3.842   3.314  1.3843  0.3970  0.5543
 8274SOL    HW332863   4.661   3.919   3.197  0.4187 -0.6842 -0.6595
 8274SOL    MW432864   4.596   3.904   3.252  0.8602 -0.2018  0.0055
 8275SOL     OW32865   0.512   4.644   1.053  0.3382  0.0176 -0.4634
 8275SOL    HW232866   0.577   4.701   1.011 -1.1008  0.2957 -2.4552
 8275SOL    HW332867   0.438   4.702   1.071 -0.0072 -0.6383  0.2795
 8275SOL    MW432868   0.511   4.659   1.050  0.1028 -0.0323 -0.6282
 8276SOL     OW32869   6.031   3.406   2.596 -0.3454 -0.3383  0.0446
 8276SOL    HW232870   6.031   3.499   2.620 -0.8625 -0.6475  1.2616
 8276SOL    HW332871   6.109   3.396   2.541 -0.7695  0.9992 -0.8488
 8276SOL    MW432872   6.041   3.417   2.592 -0.4696 -0.2027  0.0873
 8277SOL     OW32873   3.469   1.503   2.521  0.0737 -0.2530 -0.1451
 8277SOL    HW232874   3.466   1.408   2.506 -2.7827 -0.7255  2.5706
 8277SOL    HW332875   3.385   1.535   2.489  0.0401  0.9765  1.0994
 8277SOL    MW432876   3.458   1.495   2.515 -0.3076 -0.1532  0.3774
 8278SOL     OW32877   1.001   3.569   5.496 -0.4968  0.0796  0.0369
 8278SOL    HW232878   0.978   3.530   5.581  0.9651  1.8264  1.3423
 8278SOL    HW332879   1.033   3.657   5.519 -0.8628  0.9287 -2.4420
 8278SOL    MW432880   1.002   3.575   5.511 -0.3522  0.4221 -0.1179
 8279SOL     OW32881   2.796   4.603   1.418  0.2102 -0.0606 -0.2430
 8279SOL    HW232882   2.874   4.593   1.364  0.9594  0.9821  0.5735
 8279SOL    HW332883   2.823   4.572   1.505 -0.3553  0.0728 -0.0138
 8279SOL    MW432884   2.810   4.598   1.422  0.2344  0.0946 -0.1050
 8280SOL     OW32885   0.914   3.507   4.091 -0.3802 -0.0613 -0.1025
 8280SOL    HW232886   0.866   3.523   4.010  0.7281 -1.6241 -1.1110
 8280SOL    HW332887   0.848   3.471   4.150 -1.1241  0.7836 -0.3819
 8280SOL    MW432888   0.899   3.504   4.088 -0.3321 -0.1560 -0.2724
 8281SOL     OW32889   0.766   3.423   4.656  0.2698  0.0550  0.0407
 8281SOL    HW232890   0.771   3.487   4.584  1.2958 -0.4348 -0.3354
 8281SOL    HW332891   0.856   3.395   4.669  0.0008 -0.3301  1.1075
 8281SOL    MW432892   0.778   3.428   4.648  0.3696 -0.0604  0.1318
 8282SOL     OW32893   3.721   5.648   0.526  0.1753 -0.3627 -0.3962
 8282SOL    HW232894   3.766   5.681   0.448  0.2059  0.8395  0.1088
 8282SOL    HW332895   3.629   5.650   0.503  0.1192  0.7675 -0.1515
 8282SOL    MW432896   3.715   5.652   0.513  0.1720 -0.0550 -0.2973
 8283SOL     OW32897   5.770   4.205   1.481  0.1931  0.9705 -0.3142
 8283SOL    HW232898   5.714   4.135   1.512 -0.2226  1.3776 -0.1316
 8283SOL    HW332899   5.809   4.242   1.561  0.1652  1.1483 -0.3817
 8283SOL    MW432900   5.768   4.201   1.496  0.1346  1.0476 -0.2990
 8284SOL     OW32901   2.334   5.216   3.563 -0.4284 -0.3992  0.1329
 8284SOL    HW232902   2.400   5.267   3.609  2.2617 -1.8034 -1.8390
 8284SOL    HW332903   2.277   5.181   3.632  2.2851 -0.9820  2.2605
 8284SOL    MW432904   2.335   5.218   3.578  0.2846 -0.6614  0.1534
 8285SOL     OW32905   4.898   5.888   0.091  0.3521 -0.2612 -0.1105
 8285SOL    HW232906   4.869   5.818   0.033  2.6590 -0.6438 -0.9025
 8285SOL    HW332907   4.853   5.966   0.060 -0.1250 -0.8813 -1.0163
 8285SOL    MW432908   4.888   5.889   0.079  0.5935 -0.3935 -0.3345
 8286SOL     OW32909   6.401   2.033   5.514 -0.5135  0.4847  0.9588
 8286SOL    HW232910   6.428   1.984   5.437  2.5454 -0.2712  2.3738
 8286SOL    HW332911   6.310   2.006   5.529 -0.7777 -0.2918 -1.5831
 8286SOL    MW432912   6.392   2.023   5.506 -0.1448  0.2825  0.8101
 8287SOL     OW32913   3.749   2.379   3.199 -0.7753  0.3644 -0.8253
 8287SOL    HW232914   3.680   2.402   3.261  0.1005 -1.9583  1.1707
 8287SOL    HW332915   3.705   2.374   3.115 -2.3994  1.7847 -0.1302
 8287SOL    MW432916   3.734   2.382   3.196 -0.8740  0.2453 -0.4703
 8288SOL     OW32917   2.850   4.401   2.652  0.0677 -0.3084  0.5394
 8288SOL    HW232918   2.874   4.400   2.560 -0.7118  1.4692  0.2652
 8288SOL    HW332919   2.877   4.488   2.683 -1.1587 -0.2568  1.5456
 8288SOL    MW432920   2.857   4.412   2.644 -0.1969 -0.0671  0.6360
 8289SOL     OW32921   2.928   3.408   2.914 -0.2250  0.0876  0.1978
 8289SOL    HW232922   2.999   3.371   2.861 -1.2046  1.6336 -2.4403
 8289SOL    HW332923   2.971   3.447   2.989  1.5067 -0.5376 -0.4266
 8289SOL    MW432924   2.943   3.408   2.917 -0.1257  0.2091 -0.2327
 8290SOL     OW32925   0.232   3.768   0.445  0.3931  0.4864 -0.1711
 8290SOL    HW232926   0.269   3.853   0.468  0.8635  0.2295  0.0275
 8290SOL    HW332927   0.173   3.786   0.371 -0.4505  1.1787  0.6414
 8290SOL    MW432928   0.229   3.781   0.438  0.3439  0.5438 -0.0377
 8291SOL     OW32929   2.852   2.530   2.255 -0.0146  0.0657 -0.3345
 8291SOL    HW232930   2.919   2.483   2.305 -0.9902 -0.8221  0.1990
 8291SOL    HW332931   2.792   2.461   2.225 -0.5094  0.7975 -1.0813
 8291SOL    MW432932   2.853   2.514   2.258 -0.2086  0.0452 -0.3626
 8292SOL     OW32933   1.489   5.693   0.840 -0.6382  0.0788 -0.0894
 8292SOL    HW232934   1.468   5.609   0.800 -0.5080  0.8184 -1.7948
 8292SOL    HW332935   1.424   5.704   0.909 -0.6871 -1.3807  0.1193
 8292SOL    MW432936   1.478   5.683   0.844 -0.6275 -0.0162 -0.2869
 8293SOL     OW32937   0.777   3.995   0.527 -0.0024  0.2805  0.2234
 8293SOL    HW232938   0.861   4.001   0.481 -0.1234  0.9277  0.0856
 8293SOL    HW332939   0.785   4.056   0.600 -1.0170  1.7415 -0.8414
 8293SOL    MW432940   0.789   4.004   0.530 -0.1523  0.5587  0.0648
 8294SOL     OW32941   4.574   6.289   6.318  0.2402 -0.1710 -0.4470
 8294SOL    HW232942   4.553   6.286   6.225  0.2893 -1.7085 -0.4352
 8294SOL    HW332943   4.507   6.345   6.356 -0.3415 -0.2943 -1.2630
 8294SOL    MW432944   4.563   6.296   6.311  0.1699 -0.3901 -0.5531
 8295SOL     OW32945   4.005   0.563   1.719  0.1396  0.4012  0.3337
 8295SOL    HW232946   4.046   0.593   1.800  0.0170 -0.7256  0.8410
 8295SOL    HW332947   3.954   0.486   1.745 -0.5051  0.4556 -0.6846
 8295SOL    MW432948   4.004   0.556   1.733  0.0384  0.2597  0.2662
 8296SOL     OW32949   4.613   0.964   1.863 -0.8731  0.1275  0.0710
 8296SOL    HW232950   4.643   1.043   1.910 -2.0247  0.0220  1.0443
 8296SOL    HW332951   4.694   0.918   1.840 -0.2062  1.1410  0.2796
 8296SOL    MW432952   4.628   0.969   1.866 -0.9371  0.2473  0.2270
 8297SOL     OW32953   1.775   4.226   3.466  0.0484  0.6516 -0.8698
 8297SOL    HW232954   1.766   4.290   3.396  0.6092  0.4175 -1.1583
 8297SOL    HW332955   1.841   4.164   3.435 -0.1890  0.1607 -0.4246
 8297SOL    MW432956   1.782   4.226   3.453  0.0911  0.5559 -0.8491
 8298SOL     OW32957   1.904   3.525   3.671 -0.1140  0.0017  0.9148
 8298SOL    HW232958   1.825   3.507   3.620  0.2783  0.6842  0.0260
 8298SOL    HW332959   1.915   3.620   3.665 -0.1450  0.1273  2.4492
 8298SOL    MW432960   1.895   3.535   3.663 -0.0663  0.1083  0.9999
 8299SOL     OW32961   0.899   1.204   2.338 -0.3121  0.2720  0.3131
 8299SOL    HW232962   0.984   1.162   2.351 -0.7550 -1.5792 -1.9978
 8299SOL    HW332963   0.873   1.235   2.424  1.3526 -1.7835  1.6422
 8299SOL    MW432964   0.907   1.203   2.351 -0.1509 -0.2434  0.1836
 8300SOL     OW32965   5.518   1.530   2.809 -0.7995  0.2561  0.0433
 8300SOL    HW232966   5.511   1.435   2.814 -0.2282  0.1207 -1.2422
 8300SOL    HW332967   5.478   1.553   2.725  2.3934  0.7049 -1.5200
 8300SOL    MW432968   5.512   1.520   2.798 -0.3028  0.2974 -0.3326
 8301SOL     OW32969   0.180   1.271   1.406  0.1913 -0.2603 -0.6297
 8301SOL    HW232970   0.247   1.249   1.340 -0.5821  0.6918 -1.7613
 8301SOL    HW332971   0.144   1.186   1.431  0.2440 -0.6296 -1.7217
 8301SOL    MW432972   0.184   1.257   1.401  0.0962 -0.1834 -0.9231
 8302SOL     OW32973   2.269   5.730   5.637  0.1304 -0.1974  0.2837
 8302SOL    HW232974   2.189   5.770   5.671 -0.2259  0.2331 -1.0012
 8302SOL    HW332975   2.246   5.639   5.621 -0.6247  0.2753 -1.5717
 8302SOL    MW432976   2.256   5.723   5.640 -0.0163 -0.0783 -0.1306
 8303SOL     OW32977   2.247   1.544   5.181  0.4643  0.4390 -0.4124
 8303SOL    HW232978   2.304   1.599   5.235  0.4314  0.2241 -0.1579
 8303SOL    HW332979   2.292   1.459   5.178  1.0225  0.7654 -1.6337
 8303SOL    MW432980   2.261   1.540   5.188  0.5336  0.4537 -0.5400
 8304SOL     OW32981   4.332   6.223   4.939 -0.4114  0.0093  0.0002
 8304SOL    HW232982   4.323   6.167   4.862  1.5682 -2.0935  1.1862
 8304SOL    HW332983   4.336   6.312   4.904  2.6157 -0.9733 -2.6146
 8304SOL    MW432984   4.331   6.228   4.925  0.2492 -0.3977 -0.1883
 8305SOL     OW32985   1.474   3.223   1.080 -0.1866 -0.1543 -0.3678
 8305SOL    HW232986   1.519   3.178   1.009  1.8030  0.0946  0.6711
 8305SOL    HW332987   1.455   3.155   1.144  1.9677  0.2123  0.7705
 8305SOL    MW432988   1.477   3.208   1.079  0.3601 -0.0731 -0.0805
 8306SOL     OW32989   0.162   0.585   5.823 -0.2338  0.3263  0.5492
 8306SOL    HW232990   0.114   0.516   5.869  0.1196 -0.1625  0.1877
 8306SOL    HW332991   0.096   0.652   5.806 -0.4042  0.4414  1.6242
 8306SOL    MW432992   0.147   0.585   5.827 -0.2096  0.2770  0.6433
 8307SOL     OW32993   3.700   1.520   4.406  0.4869  0.2830 -0.1712
 8307SOL    HW232994   3.686   1.613   4.385 -2.1834  0.1788  0.6732
 8307SOL    HW332995   3.697   1.516   4.501 -1.5297 -0.8435 -0.2126
 8307SOL    MW432996   3.697   1.532   4.416 -0.1315  0.1206 -0.0653
 8308SOL     OW32997   1.483   4.092   1.145  0.6032  0.1265  0.3986
 8308SOL    HW232998   1.391   4.105   1.122  1.0505 -0.1879 -1.6782
 8308SOL    HW332999   1.485   4.106   1.240 -1.8874 -1.5740  0.8171
 8308SOL    MW433000   1.471   4.095   1.155  0.3336 -0.1393  0.1798
 8309SOL     OW33001   2.915   1.444   4.415  0.4279 -0.0092  0.4620
 8309SOL    HW233002   2.853   1.385   4.459  0.0281 -0.2693 -0.4362
 8309SOL    HW333003   2.986   1.387   4.386 -0.3970 -0.2301 -1.2212
 8309SOL    MW433004   2.916   1.429   4.417  0.2663 -0.0726  0.1214
 8310SOL     OW33005   4.402   4.481   5.862  0.0039 -0.3225  0.6918
 8310SOL    HW233006   4.431   4.566   5.828 -1.2797 -0.1348  0.0009
 8310SOL    HW333007   4.350   4.444   5.791  0.2743 -1.5514  1.1127
 8310SOL    MW433008   4.399   4.487   5.848 -0.1297 -0.4599  0.6562
 8311SOL     OW33009   2.282   0.145   4.722 -0.3103  0.3223 -0.0364
 8311SOL    HW233010   2.296   0.071   4.664 -2.7411  0.3413 -0.7626
 8311SOL    HW333011   2.250   0.106   4.803 -2.9726  0.5391 -0.8872
 8311SOL    MW433012   2.279   0.130   4.725 -0.9823  0.3534 -0.2445
 8312SOL     OW33013   5.633   5.843   4.290 -0.1000  0.2688 -0.7618
 8312SOL    HW233014   5.711   5.885   4.326 -1.5336  2.1419  0.3355
 8312SOL    HW333015   5.579   5.915   4.259 -2.2107 -0.7880  0.2450
 8312SOL    MW433016   5.636   5.858   4.291 -0.5676  0.3765 -0.4842
 8313SOL     OW33017   6.220   6.187   0.602 -0.1129 -0.7808 -0.1098
 8313SOL    HW233018   6.299   6.224   0.562  0.3408 -0.1112  1.3227
 8313SOL    HW333019   6.194   6.252   0.667 -2.2800 -0.6608 -1.0424
 8313SOL    MW433020   6.227   6.200   0.606 -0.3390 -0.6766 -0.0439
 8314SOL     OW33021   4.997   4.478   5.057 -0.1370 -0.4192  0.2364
 8314SOL    HW233022   4.992   4.386   5.083  0.6112 -0.5309  0.0127
 8314SOL    HW333023   4.996   4.526   5.140 -0.3279 -0.6404  0.3626
 8314SOL    MW433024   4.996   4.473   5.072 -0.0635 -0.4631  0.2235
 8315SOL     OW33025   5.713   1.431   5.234 -0.0011 -0.1139 -0.0627
 8315SOL    HW233026   5.622   1.437   5.206 -0.1350 -0.2567  0.3315
 8315SOL    HW333027   5.758   1.389   5.161 -0.5099 -1.2881  0.2863
 8315SOL    MW433028   5.707   1.427   5.221 -0.0859 -0.2877  0.0354
 8316SOL     OW33029   0.127   5.162   4.134 -0.2626 -0.0742  0.3862
 8316SOL    HW233030   0.087   5.229   4.079 -0.1639  0.4522  0.9555
 8316SOL    HW333031   0.068   5.086   4.126  1.0300 -0.9423 -2.4947
 8316SOL    MW433032   0.114   5.161   4.126 -0.0791 -0.1193  0.0812
 8317SOL     OW33033   1.880   5.383   6.434  0.6235 -0.9378 -0.0947
 8317SOL    HW233034   1.819   5.401   6.362  0.8752 -0.7151 -0.2518
 8317SOL    HW333035   1.922   5.467   6.451 -1.9390 -0.0400  2.6447
 8317SOL    MW433036   1.877   5.397   6.427  0.3186 -0.7899  0.2460
 8318SOL     OW33037   0.124   0.310   1.736  0.5086  0.0630 -0.3441
 8318SOL    HW233038   0.082   0.240   1.686 -1.9540  1.5728 -0.5387
 8318SOL    HW333039   0.171   0.361   1.671 -0.7984  0.7084 -0.8081
 8318SOL    MW433040   0.125   0.307   1.721  0.0112  0.3474 -0.4310
 8319SOL     OW33041   0.489   0.371   0.313  0.0397 -0.0684  0.3848
 8319SOL    HW233042   0.533   0.388   0.230  1.8003  0.9596  1.4741
 8319SOL    HW333043   0.492   0.454   0.360 -0.2483 -0.8163  1.7801
 8319SOL    MW433044   0.495   0.384   0.308  0.2340 -0.0315  0.7126
 8320SOL     OW33045   5.667   4.688   6.119 -0.5814  0.3859 -0.0575
 8320SOL    HW233046   5.736   4.665   6.180  0.2127  0.4435 -0.9140
 8320SOL    HW333047   5.687   4.778   6.091 -0.7600  0.2594 -0.6204
 8320SOL    MW433048   5.679   4.697   6.123 -0.5002  0.3768 -0.2448
 8321SOL     OW33049   1.972   4.191   0.449 -0.9431  0.2926  0.3543
 8321SOL    HW233050   2.003   4.184   0.539  0.3958  0.1734 -0.0795
 8321SOL    HW333051   2.040   4.147   0.397 -1.5047  0.6703 -0.7453
 8321SOL    MW433052   1.985   4.184   0.454 -0.8406  0.3267  0.1520
 8322SOL     OW33053   5.590   2.362   2.599 -0.1342  0.0004 -0.2050
 8322SOL    HW233054   5.611   2.342   2.690  2.2850  0.6677 -0.5552
 8322SOL    HW333055   5.520   2.301   2.576  0.4584 -1.4080  1.5674
 8322SOL    MW433056   5.583   2.352   2.608  0.2632 -0.0974 -0.0173
 8323SOL     OW33057   5.650   2.413   5.212  0.0873  0.5961  0.2459
 8323SOL    HW233058   5.733   2.430   5.257 -0.3318  2.8018  0.2691
 8323SOL    HW333059   5.613   2.499   5.195 -2.0563 -0.3215 -0.0963
 8323SOL    MW433060   5.656   2.427   5.215 -0.2508  0.7661  0.2038
 8324SOL     OW33061   4.590   1.070   3.769 -0.5519  0.5477  0.3828
 8324SOL    HW233062   4.648   1.145   3.753  0.8075 -0.6460 -0.5038
 8324SOL    HW333063   4.502   1.108   3.769  0.2038  2.5472  2.4915
 8324SOL    MW433064   4.586   1.085   3.767 -0.2728  0.6540  0.5440
 8325SOL     OW33065   3.449   1.074   5.505  0.0344 -0.2856  0.0639
 8325SOL    HW233066   3.512   1.021   5.552 -0.7402  0.0152  1.4933
 8325SOL    HW333067   3.432   1.026   5.424  2.9230  0.1830 -0.9557
 8325SOL    MW433068   3.455   1.061   5.500  0.3133 -0.1841  0.1180
 8326SOL     OW33069   5.603   1.636   2.121  0.1932 -0.0010 -0.3034
 8326SOL    HW233070   5.631   1.545   2.129  0.8910  0.3353  1.8629
 8326SOL    HW333071   5.509   1.634   2.139  0.3929 -0.1987  0.7780
 8326SOL    MW433072   5.594   1.624   2.125  0.3116  0.0173  0.1251
 8327SOL     OW33073   2.302   0.846   4.263 -0.4156  0.2012 -0.7236
 8327SOL    HW233074   2.287   0.811   4.175 -0.9605 -1.0164 -0.1585
 8327SOL    HW333075   2.242   0.920   4.269 -1.3875 -0.5483 -0.8999
 8327SOL    MW433076   2.293   0.851   4.252 -0.6157 -0.0583 -0.6723
 8328SOL     OW33077   4.829   1.972   1.170  0.0647  0.2409  0.1755
 8328SOL    HW233078   4.859   1.919   1.095 -3.3388 -0.4918 -0.8453
 8328SOL    HW333079   4.818   1.909   1.241 -0.7466  0.1654 -0.0113
 8328SOL    MW433080   4.832   1.957   1.169 -0.4914  0.1343  0.0162
 8329SOL     OW33081   1.420   5.884   2.721 -0.2897 -0.0237 -0.0904
 8329SOL    HW233082   1.476   5.862   2.795 -0.4008  2.1379  0.7116
 8329SOL    HW333083   1.336   5.908   2.760 -0.7618 -0.1045 -1.0274
 8329SOL    MW433084   1.416   5.885   2.736 -0.3666  0.2508 -0.1082
 8330SOL     OW33085   0.961   2.550   6.296 -0.0003  0.5683 -0.4332
 8330SOL    HW233086   0.925   2.573   6.210  0.6227  3.0967 -0.0772
 8330SOL    HW333087   0.992   2.632   6.332 -1.9453 -0.0409  3.0649
 8330SOL    MW433088   0.960   2.564   6.289 -0.1748  0.8215  0.0753
 8331SOL     OW33089   1.929   1.135   4.754  0.5110  0.4718  0.0952
 8331SOL    HW233090   2.004   1.077   4.740  0.8677  1.0470 -0.4372
 8331SOL    HW333091   1.933   1.157   4.847  0.3352 -0.3974  0.3179
 8331SOL    MW433092   1.940   1.131   4.764  0.5348  0.4330  0.0543
 8332SOL     OW33093   3.304   4.749   5.281 -0.4423 -0.1833 -0.3913
 8332SOL    HW233094   3.266   4.746   5.368  0.0598 -0.9735 -0.1889
 8332SOL    HW333095   3.385   4.698   5.288  2.1424  3.5494 -0.0881
 8332SOL    MW433096   3.310   4.742   5.293 -0.0351  0.2050 -0.3246
 8333SOL     OW33097   0.619   1.775   2.614 -0.7119  0.4197 -0.8018
 8333SOL    HW233098   0.589   1.825   2.689  0.7620  2.1172 -1.2638
 8333SOL    HW333099   0.634   1.840   2.546  0.9625 -0.6630 -1.5589
 8333SOL    MW433100   0.617   1.790   2.615 -0.2966  0.5008 -0.9626
 8334SOL     OW33101   5.437   4.820   3.279  0.7154  0.6093 -0.4383
 8334SOL    HW233102   5.452   4.875   3.356 -2.5249 -0.1245  0.8802
 8334SOL    HW333103   5.343   4.800   3.282  0.6050 -0.1403 -4.1589
 8334SOL    MW433104   5.426   4.825   3.290  0.2733  0.4136 -0.7553
 8335SOL     OW33105   2.584   2.491   0.734  0.0011 -0.0212  0.0168
 8335SOL    HW233106   2.639   2.504   0.811  0.2360 -0.1732 -0.1221
 8335SOL    HW333107   2.573   2.396   0.729 -0.8413  0.0490  0.4364
 8335SOL    MW433108   2.590   2.480   0.743 -0.0791 -0.0320  0.0539
 8336SOL     OW33109   0.446   0.455   6.280 -0.0765 -0.3974  0.0551
 8336SOL    HW233110   0.361   0.427   6.313  1.4071 -1.7262  3.1221
 8336SOL    HW333111   0.437   0.549   6.266 -1.5425 -0.1828  2.0821
 8336SOL    MW433112   0.434   0.464   6.283 -0.0742 -0.5444  0.7272
 8337SOL     OW33113   5.967   2.190   2.561  0.4593 -0.3789  0.0843
 8337SOL    HW233114   6.042   2.249   2.553 -0.6346  0.7401 -3.5728
 8337SOL    HW333115   5.962   2.171   2.655  4.1220  0.9779  0.7159
 8337SOL    MW433116   5.977   2.195   2.573  0.7982 -0.0523 -0.3149
 8338SOL     OW33117   5.167   5.859   2.155  0.3400 -0.3465  0.1660
 8338SOL    HW233118   5.091   5.855   2.213  0.6344  3.8597  1.1012
 8338SOL    HW333119   5.242   5.843   2.212  0.4204  0.1026  0.1863
 8338SOL    MW433120   5.167   5.856   2.170  0.3895  0.2677  0.2921
 8339SOL     OW33121   5.085   5.814   5.860  0.2294  0.4936  0.6175
 8339SOL    HW233122   5.064   5.792   5.951 -1.1297  2.3691  0.8270
 8339SOL    HW333123   5.007   5.860   5.828  0.2206 -1.1087 -1.8926
 8339SOL    MW433124   5.072   5.817   5.868  0.0489  0.5296  0.3140
 8340SOL     OW33125   5.062   0.664   1.177  0.4621  0.0633  0.4284
 8340SOL    HW233126   5.012   0.655   1.096 -0.6098  1.6451  0.8689
 8340SOL    HW333127   5.108   0.747   1.168  0.5231  0.1393  1.3352
 8340SOL    MW433128   5.061   0.673   1.165  0.3287  0.2820  0.6061
 8341SOL     OW33129   3.879   3.914   0.511 -0.2942 -0.4490 -0.7191
 8341SOL    HW233130   3.906   3.834   0.556  2.1409  0.7405  0.1256
 8341SOL    HW333131   3.931   3.916   0.430 -0.8889 -0.0882 -1.1035
 8341SOL    MW433132   3.890   3.904   0.506 -0.0514 -0.2445 -0.6584
 8342SOL     OW33133   4.109   0.674   4.314 -0.0938 -0.1007 -0.0808
 8342SOL    HW233134   4.101   0.743   4.248 -0.5030 -0.7886 -0.7604
 8342SOL    HW333135   4.081   0.717   4.396 -2.7464 -0.0665 -0.9031
 8342SOL    MW433136   4.104   0.689   4.316 -0.4978 -0.1869 -0.2789
 8343SOL     OW33137   0.701   4.973   4.083  0.3893 -0.1061  0.0171
 8343SOL    HW233138   0.668   4.886   4.061 -1.1015 -0.6672  3.7546
 8343SOL    HW333139   0.637   5.033   4.047  1.3312 -0.4367 -2.4287
 8343SOL    MW433140   0.688   4.969   4.076  0.3169 -0.2238  0.1875
 8344SOL     OW33141   1.870   2.317   0.842  0.1658 -0.2310 -0.1127
 8344SOL    HW233142   1.850   2.235   0.886 -0.1583  0.6134  1.3935
 8344SOL    HW333143   1.837   2.306   0.753 -0.5676 -1.4395  0.2932
 8344SOL    MW433144   1.863   2.305   0.836  0.0263 -0.2790  0.1396
 8345SOL     OW33145   3.407   0.092   2.751 -0.1815 -0.1350 -0.4205
 8345SOL    HW233146   3.451   0.131   2.677 -0.7545 -0.1512 -0.7780
 8345SOL    HW333147   3.461   0.115   2.827 -0.5466  1.4417 -0.5986
 8345SOL    MW433148   3.420   0.100   2.751 -0.3053  0.0709 -0.4911
 8346SOL     OW33149   4.016   2.025   1.034 -0.2961  0.8091  0.4494
 8346SOL    HW233150   4.082   2.064   0.977  0.9535  0.6593  1.7356
 8346SOL    HW333151   3.999   2.092   1.100 -1.8541  1.0494 -0.1521
 8346SOL    MW433152   4.023   2.039   1.035 -0.3368  0.8211  0.5397
 8347SOL     OW33153   5.238   3.564   3.132 -0.3585  0.3827  0.5429
 8347SOL    HW233154   5.186   3.620   3.190  2.2929  2.8108  0.8694
 8347SOL    HW333155   5.206   3.584   3.044 -0.7853  0.9294  0.8135
 8347SOL    MW433156   5.227   3.574   3.128 -0.0650  0.7752  0.6217
 8348SOL     OW33157   2.178   6.223   4.829  0.0312  0.0691  0.2182
 8348SOL    HW233158   2.180   6.155   4.896 -1.8226 -1.2114 -0.9600
 8348SOL    HW333159   2.124   6.188   4.759  3.1385  0.6868 -2.7692
 8348SOL    MW433160   2.172   6.210   4.829  0.1966 -0.0183 -0.3314
 8349SOL     OW33161   3.954   6.050   3.311 -0.4937 -0.0747 -0.6026
 8349SOL    HW233162   4.018   5.982   3.330  0.3881  1.0614  0.7122
 8349SOL    HW333163   3.874   6.021   3.355 -0.1045 -0.2479  0.0094
 8349SOL    MW433164   3.952   6.037   3.319 -0.3260  0.0523 -0.3484
 8350SOL     OW33165   1.800   6.368   0.136  0.0365  0.4042 -0.2262
 8350SOL    HW233166   1.772   6.417   0.213 -0.3218 -1.5883  0.9753
 8350SOL    HW333167   1.895   6.378   0.134  0.2179 -0.7149  1.3709
 8350SOL    MW433168   1.809   6.375   0.146  0.0131 -0.0063  0.1431
 8351SOL     OW33169   6.274   0.352   0.369  0.3680  0.3485 -0.0476
 8351SOL    HW233170   6.244   0.261   0.361  2.2777 -0.1941 -2.5897
 8351SOL    HW333171   6.357   0.345   0.415  2.3248  0.1985 -3.2933
 8351SOL    MW433172   6.281   0.339   0.374  0.8781  0.2571 -0.8112
 8352SOL     OW33173   5.651   6.372   3.950 -0.1671  0.0865 -0.3783
 8352SOL    HW233174   5.699   6.445   3.912 -2.4162  2.0438  0.2457
 8352SOL    HW333175   5.643   6.394   4.043 -0.4934 -1.2147 -0.0720
 8352SOL    MW433176   5.656   6.384   3.958 -0.5069  0.1730 -0.2556
 8353SOL     OW33177   4.348   2.347   0.968  0.0757 -0.1159 -0.4883
 8353SOL    HW233178   4.442   2.362   0.973  0.2700 -1.6344  1.5532
 8353SOL    HW333179   4.339   2.251   0.969 -1.5208  0.0048  0.3232
 8353SOL    MW433180   4.359   2.336   0.968 -0.1093 -0.3003 -0.1119
 8354SOL     OW33181   6.356   5.849   3.004  0.6497 -0.3585 -0.4047
 8354SOL    HW233182   6.300   5.879   2.933  2.1740 -2.5988 -2.6979
 8354SOL    HW333183   6.435   5.903   2.998  1.8477 -2.1834 -2.1672
 8354SOL    MW433184   6.359   5.860   2.994  1.0088 -0.8949 -0.9398
 8355SOL     OW33185   3.060   2.882   3.507  0.7360 -0.6339 -0.5778
 8355SOL    HW233186   3.154   2.896   3.494  0.2970  0.6068 -2.8446
 8355SOL    HW333187   3.027   2.966   3.539  0.3125 -0.9294 -0.2180
 8355SOL    MW433188   3.068   2.895   3.510  0.6222 -0.5092 -0.8294
 8356SOL     OW33189   1.012   2.102   3.052  0.2731 -1.0935 -0.0076
 8356SOL    HW233190   0.979   2.013   3.066 -0.3684 -0.8474  0.0531
 8356SOL    HW333191   1.015   2.113   2.957 -0.1785 -0.9838 -0.0093
 8356SOL    MW433192   1.008   2.092   3.042  0.1289 -1.0466  0.0001
 8357SOL     OW33193   1.366   4.557   1.254  0.0391  0.6587  0.4310
 8357SOL    HW233194   1.439   4.516   1.207  0.3314  1.1165  0.4739
 8357SOL    HW333195   1.350   4.500   1.329 -0.1871  0.1199 -0.0168
 8357SOL    MW433196   1.374   4.544   1.258  0.0478  0.6480  0.3776
 8358SOL     OW33197   4.539   5.025   0.705 -0.2827 -0.3627 -0.0383
 8358SOL    HW233198   4.573   4.936   0.697 -1.5381 -0.9583  0.8774
 8358SOL    HW333199   4.446   5.018   0.681 -0.9655  0.2338  2.1736
 8358SOL    MW433200   4.531   5.013   0.701 -0.5384 -0.3626  0.3743
 8359SOL     OW33201   0.114   4.674   2.703  0.4008 -0.2422 -0.2352
 8359SOL    HW233202   0.038   4.710   2.659  0.9367  1.2929  0.0571
 8359SOL    HW333203   0.079   4.601   2.755 -0.4909 -0.9755 -1.8052
 8359SOL    MW433204   0.099   4.669   2.704  0.3538 -0.1364 -0.4038
 8360SOL     OW33205   3.552   5.017   2.829  0.1797  0.5609 -0.2591
 8360SOL    HW233206   3.553   5.104   2.788  0.4753  0.0463 -1.3942
 8360SOL    HW333207   3.461   5.001   2.852 -0.3392  0.1127 -2.4381
 8360SOL    MW433208   3.540   5.026   2.827  0.1502  0.4339 -0.6964
 8361SOL     OW33209   4.945   5.147   4.160 -0.1933 -0.5351  0.0526
 8361SOL    HW233210   4.887   5.096   4.104 -1.5478  0.4599  0.4916
 8361SOL    HW333211   4.886   5.198   4.216  1.0347  1.7361 -0.5612
 8361SOL    MW433212   4.930   5.147   4.160 -0.2100 -0.1041  0.0295
 8362SOL     OW33213   5.094   0.717   2.733 -0.7653 -0.3709 -0.7310
 8362SOL    HW233214   5.058   0.743   2.649 -2.2826  1.2894  0.3601
 8362SOL    HW333215   5.017   0.705   2.789  0.1807 -1.9428  0.2959
 8362SOL    MW433216   5.079   0.719   2.729 -0.8407 -0.3592 -0.4516
 8363SOL     OW33217   5.703   3.273   5.273  0.0887  0.3809 -0.1744
 8363SOL    HW233218   5.660   3.327   5.206  1.7521  2.1151  0.0733
 8363SOL    HW333219   5.759   3.334   5.320  2.9220 -1.7620 -0.5410
 8363SOL    MW433220   5.705   3.288   5.270  0.6820  0.3270 -0.1901
 8364SOL     OW33221   4.914   0.624   2.916 -0.4587 -0.1551  0.0465
 8364SOL    HW233222   4.879   0.561   2.853 -0.3365 -0.0177 -0.1600
 8364SOL    HW333223   4.837   0.675   2.944 -0.1131  1.9714 -2.4379
 8364SOL    MW433224   4.899   0.623   2.911 -0.3970  0.1436 -0.3085
 8365SOL     OW33225   1.949   4.073   1.667  0.2400 -0.0425  0.1242
 8365SOL    HW233226   1.958   4.026   1.750  4.2285  0.5408  0.2268
 8365SOL    HW333227   1.950   4.165   1.691  1.8266  0.1408 -0.5282
 8365SOL    MW433228   1.950   4.079   1.681  0.9756  0.0586  0.0517
 8366SOL     OW33229   6.133   2.333   5.571 -0.1769 -0.3700  0.7440
 8366SOL    HW233230   6.133   2.369   5.659  0.4904 -0.8213  0.9323
 8366SOL    HW333231   6.072   2.389   5.522 -0.3998 -0.0007  1.4345
 8366SOL    MW433232   6.125   2.345   5.576 -0.1182 -0.3808  0.8600
 8367SOL     OW33233   1.409   5.234   3.210 -0.4122  0.0245 -0.1472
 8367SOL    HW233234   1.362   5.297   3.155 -1.6394  0.7374  1.6450
 8367SOL    HW333235   1.488   5.281   3.237 -0.2071 -0.0327 -0.6438
 8367SOL    MW433236   1.413   5.249   3.206 -0.5470  0.1110  0.0237
 8368SOL     OW33237   1.864   6.033   3.360 -0.7583 -0.3032 -0.1287
 8368SOL    HW233238   1.799   6.000   3.422 -0.8931 -0.8415 -0.5506
 8368SOL    HW333239   1.911   5.956   3.330 -0.1615  0.0436 -0.1072
 8368SOL    MW433240   1.861   6.019   3.364 -0.6973 -0.3284 -0.1815
 8369SOL     OW33241   1.299   3.937   4.569  0.8591 -0.6591  0.2554
 8369SOL    HW233242   1.205   3.950   4.582  0.2966 -1.6928 -2.2721
 8369SOL    HW333243   1.332   3.913   4.656 -1.2804 -0.7458  1.0972
 8369SOL    MW433244   1.291   3.935   4.582  0.5026 -0.8070  0.0330
 8370SOL     OW33245   0.328   5.529   3.498 -0.0398 -0.3269  0.9859
 8370SOL    HW233246   0.284   5.613   3.513 -0.6390 -0.3976 -0.2841
 8370SOL    HW333247   0.395   5.548   3.432 -0.3223 -0.8868  0.5346
 8370SOL    MW433248   0.331   5.543   3.491 -0.1561 -0.4101  0.7588
 8371SOL     OW33249   2.301   1.269   4.240  0.0159 -1.0890 -0.0514
 8371SOL    HW233250   2.263   1.261   4.152  0.5134 -2.0053 -0.1991
 8371SOL    HW333251   2.396   1.262   4.225  0.2021  0.2600  0.4066
 8371SOL    MW433252   2.309   1.267   4.226  0.1061 -1.0319 -0.0105
 8372SOL     OW33253   1.733   6.116   0.453 -0.3514  0.1494 -0.6455
 8372SOL    HW233254   1.704   6.073   0.533  1.5760  0.1504  0.1117
 8372SOL    HW333255   1.702   6.058   0.383  0.0177 -1.1595  0.2298
 8372SOL    MW433256   1.725   6.102   0.454 -0.0484 -0.0231 -0.4301
 8373SOL     OW33257   5.211   3.207   6.264  0.2077 -0.9677  0.0516
 8373SOL    HW233258   5.269   3.279   6.238 -0.7223  0.2855  1.2869
 8373SOL    HW333259   5.153   3.194   6.189 -1.3547  1.4468  0.7223
 8373SOL    MW433260   5.211   3.215   6.251 -0.1211 -0.4838  0.3031
 8374SOL     OW33261   4.853   5.981   5.813 -0.1325  0.4081 -0.0186
 8374SOL    HW233262   4.804   6.012   5.889 -0.7837  1.0701 -0.6851
 8374SOL    HW333263   4.787   5.975   5.743  0.2138 -1.3409 -0.2327
 8374SOL    MW433264   4.837   5.984   5.814 -0.1728  0.2647 -0.1348
 8375SOL     OW33265   0.463   2.923   0.603 -0.1509 -0.2288 -0.0029
 8375SOL    HW233266   0.395   2.858   0.589 -1.3398  0.9050  0.2857
 8375SOL    HW333267   0.445   2.957   0.691  0.7293  0.1650  0.0363
 8375SOL    MW433268   0.452   2.919   0.613 -0.1916 -0.0273  0.0403
 8376SOL     OW33269   3.202   1.644   2.489  0.2315  0.2083 -0.6339
 8376SOL    HW233270   3.116   1.613   2.460 -0.0258  1.2709 -1.0389
 8376SOL    HW333271   3.196   1.647   2.584 -0.6640  1.5990 -0.7126
 8376SOL    MW433272   3.190   1.640   2.498  0.0794  0.5320 -0.6977
 8377SOL     OW33273   0.082   1.928   2.258 -0.5815  0.5580  0.7099
 8377SOL    HW233274   0.045   1.855   2.209  1.1380 -0.1222  0.3482
 8377SOL    HW333275   0.009   1.961   2.311 -1.3136 -1.6963  1.2230
 8377SOL    MW433276   0.067   1.923   2.259 -0.4512  0.1708  0.7299
 8378SOL     OW33277   0.899   2.122   1.370 -0.5617  0.2760  0.1535
 8378SOL    HW233278   0.881   2.197   1.313 -1.5526 -0.5005 -0.5777
 8378SOL    HW333279   0.871   2.151   1.457 -1.2690  0.6342 -0.1860
 8378SOL    MW433280   0.893   2.136   1.374 -0.7858  0.2208  0.0122
 8379SOL     OW33281   4.287   1.314   0.152  0.3682 -0.3399  0.5730
 8379SOL    HW233282   4.295   1.221   0.129 -2.1574 -1.0217  1.9915
 8379SOL    HW333283   4.270   1.358   0.069  0.2979 -1.3576  0.0378
 8379SOL    MW433284   4.286   1.308   0.138  0.0257 -0.5641  0.6896
 8380SOL     OW33285   1.166   0.173   3.502 -0.2122 -0.2972 -0.3372
 8380SOL    HW233286   1.177   0.078   3.512  2.3381  0.0020  0.5832
 8380SOL    HW333287   1.254   0.204   3.481 -1.1494  1.8099 -1.3928
 8380SOL    MW433288   1.179   0.164   3.501  0.0006  0.0203 -0.3551
 8381SOL     OW33289   1.163   0.538   4.306  0.1443  0.7317  0.2637
 8381SOL    HW233290   1.216   0.477   4.254 -0.7867 -0.1647  0.3266
 8381SOL    HW333291   1.194   0.625   4.280  0.6490  0.2645 -0.7630
 8381SOL    MW433292   1.174   0.541   4.295  0.0880  0.5518  0.1365
 8382SOL     OW33293   3.828   0.933   3.237 -0.3789  0.1754 -0.1715
 8382SOL    HW233294   3.873   0.850   3.250  0.0807  0.4167 -0.2038
 8382SOL    HW333295   3.827   0.945   3.142 -1.8756 -0.5688 -0.2817
 8382SOL    MW433296   3.834   0.924   3.226 -0.5157  0.1090 -0.1903
 8383SOL     OW33297   6.386   2.860   5.258  0.2118  0.5795 -0.1419
 8383SOL    HW233298   6.296   2.845   5.287  0.8627 -0.2886  1.5491
 8383SOL    HW333299   6.397   2.800   5.184 -0.2685 -0.1051  0.3289
 8383SOL    MW433300   6.376   2.850   5.252  0.2343  0.3746  0.1433
 8384SOL     OW33301   1.289   4.572   0.278  0.2869  0.2909 -0.4037
 8384SOL    HW233302   1.332   4.543   0.197  2.5651  0.2470  0.7569
 8384SOL    HW333303   1.360   4.587   0.339 -1.2917  1.6997  1.1953
 8384SOL    MW433304   1.304   4.570   0.275  0.3792  0.4710 -0.0396
 8385SOL     OW33305   0.758   0.677   2.650 -0.0247 -0.3684 -0.0591
 8385SOL    HW233306   0.814   0.740   2.696  1.8855 -1.6871 -0.4756
 8385SOL    HW333307   0.729   0.724   2.572 -2.1620  1.4095  1.6435
 8385SOL    MW433308   0.762   0.691   2.646 -0.0546 -0.3078  0.1106
 8386SOL     OW33309   2.652   1.445   2.421 -0.7583  0.0654  0.0634
 8386SOL    HW233310   2.660   1.460   2.327 -1.0789 -0.1398  0.0031
 8386SOL    HW333311   2.653   1.350   2.431 -0.1029  0.0925  0.3258
 8386SOL    MW433312   2.653   1.435   2.410 -0.7141  0.0419  0.0900
 8387SOL     OW33313   3.331   2.620   3.674  0.3148 -0.2480  0.4109
 8387SOL    HW233314   3.364   2.534   3.701  1.3406  0.2868  0.9184
 8387SOL    HW333315   3.253   2.633   3.727  0.3295 -0.7234  0.5612
 8387SOL    MW433316   3.325   2.610   3.685  0.4520 -0.2402  0.4977
 8388SOL     OW33317   5.230   5.190   4.056  0.7839 -0.7491 -0.4056
 8388SOL    HW233318   5.135   5.183   4.072  0.1017 -0.8921 -3.8034
 8388SOL    HW333319   5.270   5.145   4.131 -1.8094 -0.6771  1.1477
 8388SOL    MW433320   5.222   5.183   4.068  0.3517 -0.7585 -0.6490
 8389SOL     OW33321   3.540   0.075   5.912  0.2968  0.4456 -0.6386
 8389SOL    HW233322   3.511   0.034   5.994  2.7986  0.2047  0.1915
 8389SOL    HW333323   3.459   0.106   5.871 -1.1038 -0.1343  1.5351
 8389SOL    MW433324   3.525   0.074   5.917  0.4421  0.3373 -0.2423
 8390SOL     OW33325   4.187   1.801   2.636  0.1536 -0.3170 -0.0542
 8390SOL    HW233326   4.112   1.742   2.635  1.4431 -2.1303  2.1494
 8390SOL    HW333327   4.218   1.802   2.545  0.0344 -3.0494 -0.1982
 8390SOL    MW433328   4.181   1.794   2.624  0.3080 -0.9168  0.2176
 8391SOL     OW33329   6.305   1.950   0.632 -0.1581  0.3246  0.3537
 8391SOL    HW233330   6.251   1.927   0.708 -0.0898  0.6870  0.5116
 8391SOL    HW333331   6.265   2.030   0.597 -1.8978 -1.2902 -1.6584
 8391SOL    MW433332   6.293   1.957   0.637 -0.3786  0.1594  0.1090
 8392SOL     OW33333   0.018   5.269   4.775  0.5579  0.2872  0.2216
 8392SOL    HW233334   0.105   5.310   4.770  1.6812 -1.7804  1.3019
 8392SOL    HW333335  -0.025   5.295   4.693  2.5428  0.6399 -0.7923
 8392SOL    MW433336   0.024   5.278   4.763  0.9680  0.0610  0.2304
 8393SOL     OW33337   4.042   6.231   0.415 -0.1109  0.4139 -0.3529
 8393SOL    HW233338   4.089   6.294   0.470  1.9884 -0.0851 -1.4935
 8393SOL    HW333339   4.100   6.216   0.340 -1.8801 -0.6567 -1.5746
 8393SOL    MW433340   4.056   6.237   0.412 -0.0673  0.2068 -0.6646
 8394SOL     OW33341   4.848   6.283   0.375  0.7745 -0.2204 -0.0081
 8394SOL    HW233342   4.882   6.372   0.387 -0.1462  0.1824 -0.3113
 8394SOL    HW333343   4.782   6.291   0.306 -1.0648 -0.6698  1.6089
 8394SOL    MW433344   4.844   6.296   0.368  0.4104 -0.2265  0.1652
 8395SOL     OW33345   5.189   1.394   3.018 -0.0159  0.0618  0.3594
 8395SOL    HW233346   5.153   1.446   2.945  1.5284  0.5536 -0.0856
 8395SOL    HW333347   5.173   1.448   3.095 -2.1354 -0.6894  0.5251
 8395SOL    MW433348   5.182   1.408   3.018 -0.0918  0.0276  0.3225
 8396SOL     OW33349   4.086   6.455   6.234  0.4225  0.4541  0.7207
 8396SOL    HW233350   4.164   6.480   6.186  1.4020  0.4966  2.2623
 8396SOL    HW333351   4.087   6.359   6.235 -0.4160  0.4127 -0.5903
 8396SOL    MW433352   4.096   6.446   6.228  0.4411  0.4542  0.7511
 8397SOL     OW33353   2.729   1.704   6.278  0.1603  0.2490  0.7487
 8397SOL    HW233354   2.814   1.747   6.265  1.2993 -1.1887  2.9176
 8397SOL    HW333355   2.719   1.647   6.202  0.0715  1.9935 -0.6111
 8397SOL    MW433356   2.739   1.702   6.267  0.2988  0.2894  0.8554
 8398SOL     OW33357   5.201   3.968   6.022  0.5089  0.1721  0.2060
 8398SOL    HW233358   5.166   4.006   5.942 -3.8017 -1.8146  0.8767
 8398SOL    HW333359   5.194   3.873   6.009  2.5671 -0.2869  1.8599
 8398SOL    MW433360   5.195   3.961   6.010  0.2117 -0.1506  0.5127
 8399SOL     OW33361   4.394   4.748   5.764 -0.0738  0.1078  0.4269
 8399SOL    HW233362   4.437   4.792   5.690 -1.3590 -2.6057 -2.1567
 8399SOL    HW333363   4.301   4.749   5.741 -0.3016 -2.4877  1.0222
 8399SOL    MW433364   4.388   4.754   5.751 -0.2735 -0.5927  0.1646
 8400SOL     OW33365   1.280   4.911   3.047  0.4245  0.3106  0.7999
 8400SOL    HW233366   1.229   4.896   3.126 -1.6188 -0.0235 -0.5072
 8400SOL    HW333367   1.262   5.002   3.024  0.5212  0.2251  0.3853
 8400SOL    MW433368   1.271   4.921   3.054  0.1677  0.2553  0.5727
 8401SOL     OW33369   5.354   0.273   0.631  0.4405  0.7789 -0.8087
 8401SOL    HW233370   5.353   0.242   0.722 -0.0116  1.2462 -0.6522
 8401SOL    HW333371   5.414   0.213   0.586 -0.5098 -0.3946 -0.5446
 8401SOL    MW433372   5.362   0.261   0.637  0.2555  0.6857 -0.7532
 8402SOL     OW33373   4.672   0.905   2.288 -0.0444  0.1312  0.2006
 8402SOL    HW233374   4.758   0.897   2.248  0.4621 -2.0232  1.5847
 8402SOL    HW333375   4.629   0.974   2.238  1.1487 -1.2149 -2.9274
 8402SOL    MW433376   4.677   0.913   2.276  0.1798 -0.3306 -0.0295
 8403SOL     OW33377   2.297   2.669   2.695  0.1776  0.4416  0.0881
 8403SOL    HW233378   2.356   2.596   2.676  0.7184  1.2976 -1.6865
 8403SOL    HW333379   2.335   2.744   2.651 -1.9433  1.1571 -0.6640
 8403SOL    MW433380   2.310   2.669   2.687 -0.0309  0.6489 -0.2452
 8404SOL     OW33381   2.818   2.057   5.106  0.0654  0.0261 -0.4782
 8404SOL    HW233382   2.725   2.036   5.113 -0.3374  0.8190 -2.5122
 8404SOL    HW333383   2.840   2.037   5.014  2.1512 -1.0073  0.1763
 8404SOL    MW433384   2.809   2.052   5.095  0.2874 -0.0056 -0.6602
 8405SOL     OW33385   1.954   5.305   4.908 -0.1645 -0.5368 -0.3238
 8405SOL    HW233386   2.039   5.337   4.877  0.2606 -1.4710 -0.1806
 8405SOL    HW333387   1.976   5.229   4.963 -1.0509 -0.3378  0.3250
 8405SOL    MW433388   1.968   5.299   4.911 -0.2254 -0.6338 -0.2193
 8406SOL     OW33389   3.774   3.070   5.991  0.2949  0.0792  0.1112
 8406SOL    HW233390   3.708   3.009   5.958 -0.3577  1.2522 -0.8746
 8406SOL    HW333391   3.758   3.151   5.942  2.7481  0.2927 -0.4809
 8406SOL    MW433392   3.763   3.073   5.980  0.5324  0.2621 -0.0970
 8407SOL     OW33393   3.813   5.862   1.845  0.2878  0.0235 -0.1875
 8407SOL    HW233394   3.858   5.779   1.831 -0.4411 -0.4632  0.3169
 8407SOL    HW333395   3.878   5.916   1.890  0.3573 -0.6988  0.6061
 8407SOL    MW433396   3.828   5.858   1.849  0.2008 -0.1360 -0.0163
 8408SOL     OW33397   6.222   5.972   2.819 -0.4771  0.0707 -0.2175
 8408SOL    HW233398   6.130   5.956   2.838 -0.3934 -2.0063 -1.2882
 8408SOL    HW333399   6.237   5.932   2.733  1.0723  1.7434 -0.8053
 8408SOL    MW433400   6.212   5.965   2.810 -0.2616  0.0174 -0.4363
 8409SOL     OW33401   5.721   1.897   2.163 -0.0806  0.4913 -0.1808
 8409SOL    HW233402   5.717   1.958   2.237  1.4082 -1.1107  1.2940
 8409SOL    HW333403   5.682   1.816   2.195  1.8658 -0.6893 -0.6236
 8409SOL    MW433404   5.716   1.895   2.177  0.3727  0.1242 -0.0447
 8410SOL     OW33405   5.837   4.360   0.385 -0.2527  0.7382 -0.0194
 8410SOL    HW233406   5.804   4.306   0.457 -1.1706  1.4104  0.0744
 8410SOL    HW333407   5.925   4.386   0.412 -0.9097  1.7075  1.2827
 8410SOL    MW433408   5.844   4.356   0.398 -0.4605  0.9548  0.1648
 8411SOL     OW33409   5.447   5.601   2.751  0.4121  0.1648  0.0580
 8411SOL    HW233410   5.365   5.650   2.742 -0.2188 -1.0205 -0.8518
 8411SOL    HW333411   5.512   5.655   2.706 -0.0919  0.5940 -0.1691
 8411SOL    MW433412   5.445   5.615   2.744  0.2624  0.0651 -0.0920
 8412SOL     OW33413   0.550   5.946   2.146  0.1827 -0.0315  0.3261
 8412SOL    HW233414   0.498   5.958   2.067  0.1348 -2.6345 -0.1530
 8412SOL    HW333415   0.636   5.983   2.124 -0.3627  0.9218 -0.2562
 8412SOL    MW433416   0.554   5.952   2.133  0.1044 -0.2491  0.1861
 8413SOL     OW33417   4.639   2.054   5.749 -0.0248 -0.5686  0.5746
 8413SOL    HW233418   4.732   2.050   5.772  0.1595  0.3663  0.0652
 8413SOL    HW333419   4.614   2.145   5.765 -0.0341 -0.0022 -2.1701
 8413SOL    MW433420   4.648   2.066   5.754 -0.0017 -0.3705  0.1453
 8414SOL     OW33421   5.837   1.887   1.254  0.6326  0.3136  0.3478
 8414SOL    HW233422   5.901   1.826   1.291 -0.8552 -0.2518  2.1317
 8414SOL    HW333423   5.788   1.919   1.329 -1.5591  0.2817 -0.9945
 8414SOL    MW433424   5.839   1.883   1.269  0.1471  0.2348  0.4061
 8415SOL     OW33425   4.781   6.436   6.448  0.4265  0.0319  0.7063
 8415SOL    HW233426   4.777   6.531   6.443 -0.9373 -0.0716 -1.8191
 8415SOL    HW333427   4.723   6.406   6.378  0.4417 -2.6712  1.7393
 8415SOL    MW433428   4.773   6.444   6.438  0.2485 -0.3384  0.5094
 8416SOL     OW33429   2.182   1.714   2.808  0.0575 -0.1254 -0.1446
 8416SOL    HW233430   2.114   1.703   2.874 -0.9171 -1.8919 -1.3638
 8416SOL    HW333431   2.232   1.791   2.837 -1.0113 -0.1820  2.0110
 8416SOL    MW433432   2.180   1.723   2.820 -0.2121 -0.3659 -0.0211
 8417SOL     OW33433   5.478   5.167   4.841 -0.1065  0.4324  0.0008
 8417SOL    HW233434   5.446   5.184   4.752 -1.4756 -1.2901  0.1248
 8417SOL    HW333435   5.466   5.251   4.886  0.0032  1.1538 -1.2445
 8417SOL    MW433436   5.472   5.181   4.835 -0.2726  0.3003 -0.1471
 8418SOL     OW33437   1.630   1.656   2.918  0.2982 -0.2715 -0.2895
 8418SOL    HW233438   1.652   1.643   2.826 -2.6668 -0.9481 -1.0065
 8418SOL    HW333439   1.650   1.572   2.960  2.3268  0.2624 -0.1132
 8418SOL    MW433440   1.635   1.643   2.912  0.1747 -0.2904 -0.3608
 8419SOL     OW33441   0.466   4.678   3.032 -0.0806  0.1084  0.0329
 8419SOL    HW233442   0.490   4.725   3.111  1.1718 -0.0590 -0.2267
 8419SOL    HW333443   0.413   4.741   2.982 -1.5445 -0.0471  1.3076
 8419SOL    MW433444   0.462   4.693   3.035 -0.1085  0.0658  0.1668
 8420SOL     OW33445   6.292   1.387   5.793 -0.5529 -0.3408  0.2879
 8420SOL    HW233446   6.347   1.310   5.778  0.7753  0.4440  0.9796
 8420SOL    HW333447   6.204   1.352   5.806 -0.6881 -1.5079 -2.9439
 8420SOL    MW433448   6.288   1.373   5.792 -0.3955 -0.3912 -0.0472
 8421SOL     OW33449   2.209   0.337   4.027  0.1583  0.1660 -0.5244
 8421SOL    HW233450   2.213   0.275   4.100 -0.8125 -0.1327 -0.7122
 8421SOL    HW333451   2.297   0.374   4.022 -0.0231  1.0198  1.5047
 8421SOL    MW433452   2.221   0.334   4.036  0.0063  0.2393 -0.2815
 8422SOL     OW33453   0.431   2.206   6.175 -0.4272  0.3272 -0.6249
 8422SOL    HW233454   0.455   2.163   6.094 -1.1321 -1.4338  0.0655
 8422SOL    HW333455   0.336   2.198   6.181 -0.2869 -0.7212  0.9513
 8422SOL    MW433456   0.422   2.199   6.165 -0.5017 -0.0435 -0.3258
 8423SOL     OW33457   4.528   5.968   1.944 -0.4297  0.3839 -0.4197
 8423SOL    HW233458   4.570   5.973   1.858 -0.7962  1.5746 -0.5467
 8423SOL    HW333459   4.598   5.984   2.006 -0.4418  1.0452 -0.5719
 8423SOL    MW433460   4.543   5.971   1.941 -0.4797  0.6282 -0.4565
 8424SOL     OW33461   2.886   0.937   2.926  0.3310  0.6411 -0.2302
 8424SOL    HW233462   2.895   0.842   2.922 -0.0485  0.6105 -0.4818
 8424SOL    HW333463   2.886   0.965   2.834 -2.9451  0.5168 -0.4132
 8424SOL    MW433464   2.887   0.928   2.913 -0.1513  0.6207 -0.2875
 8425SOL     OW33465   1.324   6.174   2.956  0.8635 -0.0007 -0.5801
 8425SOL    HW233466   1.370   6.178   2.872  0.5124  0.7076 -0.7420
 8425SOL    HW333467   1.387   6.210   3.019  0.5727  0.8946 -0.7889
 8425SOL    MW433468   1.338   6.179   2.953  0.7788  0.2109 -0.6290
 8426SOL     OW33469   4.534   6.050   1.207 -0.1680  0.8735 -0.6739
 8426SOL    HW233470   4.549   5.986   1.276  1.9438  2.2885  0.2913
 8426SOL    HW333471   4.486   6.121   1.249 -2.2725  0.1140 -1.6703
 8426SOL    MW433472   4.530   6.051   1.222 -0.1670  0.9600 -0.6780
 8427SOL     OW33473   3.411   2.510   4.989 -0.0067  0.0087  0.8183
 8427SOL    HW233474   3.338   2.453   4.967 -0.4266  1.0818 -0.7798
 8427SOL    HW333475   3.395   2.590   4.938  1.7203  0.6741  1.2466
 8427SOL    MW433476   3.399   2.513   4.979  0.1657  0.2380  0.6640
 8428SOL     OW33477   5.330   4.674   5.861 -0.8103 -0.3701  0.7808
 8428SOL    HW233478   5.400   4.720   5.815 -2.0572 -0.3117 -1.1785
 8428SOL    HW333479   5.365   4.586   5.877  0.4320  0.2598  1.7239
 8428SOL    MW433480   5.344   4.669   5.857 -0.8109 -0.2793  0.6467
 8429SOL     OW33481   2.252   3.596   5.188 -0.1941  0.0781  0.1704
 8429SOL    HW233482   2.221   3.675   5.233 -1.0531 -0.4286  0.4965
 8429SOL    HW333483   2.258   3.530   5.256  0.2726 -0.2148 -0.1474
 8429SOL    MW433484   2.249   3.598   5.203 -0.2459 -0.0274  0.1715
 8430SOL     OW33485   0.333   0.673   6.042 -0.1711 -0.1670  0.4258
 8430SOL    HW233486   0.396   0.601   6.046  1.4871  1.0678 -1.4172
 8430SOL    HW333487   0.282   0.657   5.963 -0.5082  0.1239  0.5810
 8430SOL    MW433488   0.335   0.662   6.032  0.0032  0.0343  0.2031
 8431SOL     OW33489   4.245   4.265   3.145 -0.5994 -0.7149 -0.1256
 8431SOL    HW233490   4.303   4.194   3.117  0.5211 -0.6032  1.7104
 8431SOL    HW333491   4.269   4.339   3.089  2.6748 -0.0340  1.8771
 8431SOL    MW433492   4.256   4.266   3.134 -0.0196 -0.6103  0.3809
 8432SOL     OW33493   3.673   4.480   6.330 -0.1827 -0.2294  0.2970
 8432SOL    HW233494   3.582   4.505   6.346  0.0922  0.2216  1.2860
 8432SOL    HW333495   3.674   4.384   6.337 -0.8055 -0.3419 -1.0227
 8432SOL    MW433496   3.661   4.471   6.333 -0.2286 -0.1848  0.2533
 8433SOL     OW33497   1.883   5.750   4.384 -0.0918  0.0529 -0.1696
 8433SOL    HW233498   1.835   5.736   4.465  2.4169  1.4401  1.7246
 8433SOL    HW333499   1.884   5.665   4.340 -2.0551 -0.5682  0.8904
 8433SOL    MW433500   1.877   5.737   4.389 -0.0199  0.1540  0.2202
 8434SOL     OW33501   6.041   2.759   1.965  0.0521  0.2526 -0.3855
 8434SOL    HW233502   6.126   2.720   1.945  1.1417  1.9670  0.6047
 8434SOL    HW333503   6.036   2.835   1.907  0.1789  1.3517  0.9981
 8434SOL    MW433504   6.052   2.764   1.955  0.2126  0.6238 -0.0723
 8435SOL     OW33505   0.545   4.037   1.574  0.9024 -0.0645  0.2668
 8435SOL    HW233506   0.538   3.970   1.506  1.6199  0.6087 -0.4943
 8435SOL    HW333507   0.495   4.002   1.647 -0.5097 -0.5002 -0.8532
 8435SOL    MW433508   0.538   4.024   1.574  0.8108 -0.0332  0.0186
 8436SOL     OW33509   1.595   2.204   2.890 -0.1239  0.2226 -0.1811
 8436SOL    HW233510   1.536   2.145   2.843  1.1966 -0.7208 -0.7355
 8436SOL    HW333511   1.546   2.231   2.967 -1.7085  0.4250 -1.2050
 8436SOL    MW433512   1.581   2.200   2.894 -0.1587  0.1248 -0.3893
 8437SOL     OW33513   2.614   5.260   1.413 -0.2564  0.2076 -0.1223
 8437SOL    HW233514   2.608   5.341   1.362 -0.1203  0.7343  0.6803
 8437SOL    HW333515   2.638   5.289   1.501 -1.8403 -0.5406  0.6082
 8437SOL    MW433516   2.616   5.274   1.418 -0.4474  0.1784  0.0800
 8438SOL     OW33517   3.041   2.748   0.747  0.4571 -0.5194  0.2827
 8438SOL    HW233518   3.077   2.836   0.750 -0.2767 -0.2220  2.6441
 8438SOL    HW333519   2.960   2.756   0.697  0.9226 -0.0840 -0.4070
 8438SOL    MW433520   3.035   2.761   0.741  0.4217 -0.4227  0.5032
 8439SOL     OW33521   0.152   2.983   2.753 -0.2024  0.1328  0.9312
 8439SOL    HW233522   0.060   2.985   2.726 -0.0050  0.6797  0.2558
 8439SOL    HW333523   0.165   2.894   2.785 -0.7445 -0.2221  0.2117
 8439SOL    MW433524   0.141   2.971   2.753 -0.2479  0.1582  0.7472
 8440SOL     OW33525   4.251   6.351   2.986  0.7557 -0.2305  0.0119
 8440SOL    HW233526   4.295   6.386   3.063 -0.9016 -2.0071  1.8847
 8440SOL    HW333527   4.158   6.352   3.008  0.2892 -1.5235 -1.6443
 8440SOL    MW433528   4.245   6.355   2.999  0.4755 -0.6355  0.0405
 8441SOL     OW33529   0.004   1.112   4.125  0.1775 -0.1504 -0.1327
 8441SOL    HW233530   0.035   1.104   4.035 -0.5006  2.0838 -0.6096
 8441SOL    HW333531   0.035   1.032   4.168 -0.8426 -2.0607 -2.6964
 8441SOL    MW433532   0.012   1.100   4.119 -0.0466 -0.1077 -0.5338
 8442SOL     OW33533  -0.000   6.307   3.064  0.0051  0.5405  0.4977
 8442SOL    HW233534  -0.066   6.303   2.994  0.5057 -1.1638  0.0811
 8442SOL    HW333535  -0.049   6.287   3.144 -0.2108  0.6124  0.3854
 8442SOL    MW433536  -0.015   6.304   3.065  0.0426  0.3251  0.4279
 8443SOL     OW33537   3.005   0.625   1.431 -0.0210 -0.1175 -0.0939
 8443SOL    HW233538   2.922   0.650   1.391  0.0727  0.3566 -0.0057
 8443SOL    HW333539   3.070   0.682   1.389  0.0592  0.5008  0.8351
 8443SOL    MW433540   3.003   0.636   1.420  0.0019  0.0266  0.0403
 8444SOL     OW33541   6.188   0.339   4.844  0.0521  0.5406  0.0021
 8444SOL    HW233542   6.224   0.326   4.756 -0.2202  3.5306 -0.6570
 8444SOL    HW333543   6.101   0.300   4.840 -0.2858  1.3665 -1.3678
 8444SOL    MW433544   6.182   0.332   4.831 -0.0284  1.0441 -0.2656
 8445SOL     OW33545   5.280   2.987   6.422  0.7394  0.9410  0.3227
 8445SOL    HW233546   5.281   3.062   6.362 -0.9804  0.7834  0.0434
 8445SOL    HW333547   5.205   3.003   6.479  1.4574  0.3357  1.4794
 8445SOL    MW433548   5.270   2.999   6.421  0.6072  0.8404  0.4385
 8446SOL     OW33549   6.243   3.709   5.827 -0.2954 -0.4469  0.1709
 8446SOL    HW233550   6.297   3.773   5.780  0.3715  0.0186  1.5143
 8446SOL    HW333551   6.306   3.645   5.860 -0.5365  0.1205  1.7970
 8446SOL    MW433552   6.259   3.709   5.825 -0.2392 -0.3107  0.5627
 8447SOL     OW33553   3.586   3.399   2.363 -0.2040 -1.2399  0.1633
 8447SOL    HW233554   3.516   3.432   2.306 -2.0881 -3.3438  1.0806
 8447SOL    HW333555   3.591   3.463   2.434 -0.9191 -0.8058 -0.1623
 8447SOL    MW433556   3.577   3.411   2.365 -0.5469 -1.4602  0.2414
 8448SOL     OW33557   0.176   4.156   0.354 -0.4645 -0.0861 -0.5943
 8448SOL    HW233558   0.200   4.240   0.394  1.4163 -0.7621 -0.1509
 8448SOL    HW333559   0.259   4.124   0.317 -1.3229 -1.3773 -1.4584
 8448SOL    MW433560   0.190   4.163   0.354 -0.3296 -0.3457 -0.6498
 8449SOL     OW33561   3.746   1.831   6.442 -0.2411  0.2457  0.4152
 8449SOL    HW233562   3.724   1.755   6.496  0.9707  0.1723  0.8406
 8449SOL    HW333563   3.842   1.831   6.438 -0.2610 -0.5656 -2.9387
 8449SOL    MW433564   3.756   1.821   6.449 -0.0838  0.1290  0.0288
 8450SOL     OW33565   2.252   5.583   1.863 -0.7097  0.0861  0.3210
 8450SOL    HW233566   2.192   5.543   1.801 -1.2017  1.4513 -0.1123
 8450SOL    HW333567   2.339   5.565   1.827 -0.9263 -0.3681  0.0164
 8450SOL    MW433568   2.256   5.575   1.850 -0.8032  0.2063  0.2236
 8451SOL     OW33569   6.204   2.310   6.155  0.2648  0.5630 -0.1418
 8451SOL    HW233570   6.128   2.358   6.189  0.3777  0.3349  0.4456
 8451SOL    HW333571   6.176   2.219   6.153  0.6712  0.4138  0.5250
 8451SOL    MW433572   6.190   2.305   6.160  0.3334  0.5133  0.0237
 8452SOL     OW33573   5.647   2.783   6.031 -0.2374  0.2910  0.0060
 8452SOL    HW233574   5.633   2.778   6.126 -1.0815 -0.6047 -0.1529
 8452SOL    HW333575   5.738   2.812   6.022 -0.0154 -0.0046  1.0870
 8452SOL    MW433576   5.657   2.786   6.042 -0.3195  0.1338  0.1277
 8453SOL     OW33577   2.159   3.781   5.409  0.3963  0.0443  0.1359
 8453SOL    HW233578   2.077   3.773   5.360  1.1630  2.4884 -1.7393
 8453SOL    HW333579   2.133   3.773   5.501 -1.5286 -1.7816 -0.4892
 8453SOL    MW433580   2.145   3.779   5.415  0.2435  0.1259 -0.1940
 8454SOL     OW33581   3.258   0.677   3.637  0.2817  0.9074  0.8073
 8454SOL    HW233582   3.180   0.654   3.688  0.1698  0.4906  0.4504
 8454SOL    HW333583   3.225   0.735   3.568  0.1913  0.2752  0.3121
 8454SOL    MW433584   3.244   0.682   3.635  0.2550  0.7690  0.6949
 8455SOL     OW33585   5.057   2.570   0.430 -0.0583  0.3310 -0.0797
 8455SOL    HW233586   5.026   2.487   0.466  0.5543 -0.3219 -1.0012
 8455SOL    HW333587   5.136   2.547   0.381  1.5362  1.8314  1.6222
 8455SOL    MW433588   5.063   2.556   0.428  0.2329  0.4428  0.0233
 8456SOL     OW33589   0.595   2.260   0.438 -0.3080  0.4495 -0.0943
 8456SOL    HW233590   0.682   2.234   0.406 -0.5480  1.8031 -2.0340
 8456SOL    HW333591   0.603   2.353   0.457 -1.5962  0.8895 -1.4757
 8456SOL    MW433592   0.608   2.269   0.436 -0.5096  0.6862 -0.5325
 8457SOL     OW33593   0.624   4.130   2.618  0.3501 -0.2901  0.1861
 8457SOL    HW233594   0.714   4.118   2.588  1.4794  1.8989  2.2751
 8457SOL    HW333595   0.598   4.214   2.582 -0.0203  0.1121  1.3496
 8457SOL    MW433596   0.633   4.139   2.610  0.4502  0.0518  0.6152
 8458SOL     OW33597   1.622   1.461   0.213 -0.6990  0.0906  0.1305
 8458SOL    HW233598   1.558   1.400   0.176 -2.2415  0.8022  1.5216
 8458SOL    HW333599   1.612   1.541   0.161 -2.1353  0.7399  1.3244
 8458SOL    MW433600   1.612   1.463   0.201 -1.0920  0.2701  0.4716
 8459SOL     OW33601   0.344   2.173   0.263 -0.0706  0.0921  0.3082
 8459SOL    HW233602   0.265   2.173   0.209 -0.8372 -2.0789  1.3274
 8459SOL    HW333603   0.409   2.218   0.209 -1.6100  0.6909 -1.1420
 8459SOL    MW433604   0.342   2.179   0.249 -0.3749 -0.1154  0.2513
 8460SOL     OW33605   0.674   3.468   3.485  0.0325  0.4387  0.3094
 8460SOL    HW233606   0.685   3.375   3.503  0.5015  0.5670  0.6988
 8460SOL    HW333607   0.590   3.491   3.524 -0.0420  0.2001  0.2884
 8460SOL    MW433608   0.665   3.459   3.492  0.0845  0.4241  0.3580
 8461SOL     OW33609   1.334   3.767   4.367 -0.2941 -0.1499  0.7078
 8461SOL    HW233610   1.277   3.789   4.293 -1.4731 -0.2014  1.5733
 8461SOL    HW333611   1.313   3.833   4.433  3.0960  1.9794 -0.0968
 8461SOL    MW433612   1.323   3.779   4.366 -0.0023  0.1243  0.7159
 8462SOL     OW33613   4.766   2.967   0.403 -0.6441  0.0830 -0.2945
 8462SOL    HW233614   4.769   3.046   0.458 -2.2782  1.6575 -2.2931
 8462SOL    HW333615   4.738   2.898   0.463  0.2976  1.1109  1.4163
 8462SOL    MW433616   4.763   2.969   0.418 -0.7354  0.4264 -0.3325
 8463SOL     OW33617   4.704   4.783   0.727  0.6200  0.7624  0.0216
 8463SOL    HW233618   4.664   4.711   0.775 -0.8326  0.6750 -1.2566
 8463SOL    HW333619   4.785   4.801   0.775  1.3945 -2.1522  0.0065
 8463SOL    MW433620   4.710   4.776   0.740  0.5306  0.3663 -0.1490
 8464SOL     OW33621   0.699   3.425   5.030 -0.2395 -0.7363  0.3396
 8464SOL    HW233622   0.634   3.380   4.976 -0.2591 -1.5217  1.0019
 8464SOL    HW333623   0.783   3.393   4.998 -0.2031 -0.2896 -0.0180
 8464SOL    MW433624   0.701   3.415   5.019 -0.2373 -0.7810  0.3798
 8465SOL     OW33625   1.454   4.038   5.842 -0.4308 -0.1936  0.3825
 8465SOL    HW233626   1.361   4.018   5.845 -0.2762 -0.9167  0.9265
 8465SOL    HW333627   1.461   4.119   5.792 -1.3592 -0.0660  0.4532
 8465SOL    MW433628   1.443   4.046   5.836 -0.5329 -0.2722  0.4636
 8466SOL     OW33629   5.227   3.800   3.561  0.5516  0.0093 -0.8476
 8466SOL    HW233630   5.190   3.888   3.558  0.2432 -0.0867 -0.1243
 8466SOL    HW333631   5.166   3.750   3.615  1.6639 -0.1673  0.3204
 8466SOL    MW433632   5.214   3.805   3.568  0.6577 -0.0267 -0.5980
 8467SOL     OW33633   1.524   0.813   4.446  0.4736  0.3039  0.3602
 8467SOL    HW233634   1.433   0.820   4.474 -0.0444 -2.0296 -0.5363
 8467SOL    HW333635   1.566   0.892   4.482 -1.7187  1.1016  1.3561
 8467SOL    MW433636   1.518   0.825   4.455  0.1160  0.1013  0.3733
 8468SOL     OW33637   3.655   3.300   4.095  0.3396 -0.0573 -0.2813
 8468SOL    HW233638   3.622   3.236   4.032  0.2661 -0.0071 -0.2950
 8468SOL    HW333639   3.577   3.330   4.141  0.6085 -1.4751  1.1614
 8468SOL    MW433640   3.640   3.296   4.092  0.3654 -0.2378 -0.0928
 8469SOL     OW33641   1.248   2.991   0.287 -0.5792  0.4110 -0.5341
 8469SOL    HW233642   1.232   3.070   0.236  0.1303  2.0295  1.6231
 8469SOL    HW333643   1.180   2.991   0.354  0.9774  0.6884  1.1175
 8469SOL    MW433644   1.237   3.001   0.289 -0.2802  0.6611 -0.0316
 8470SOL     OW33645   4.352   5.501   5.917 -0.2461 -0.1446  0.3565
 8470SOL    HW233646   4.318   5.412   5.910 -2.1469  0.5791 -0.0955
 8470SOL    HW333647   4.281   5.557   5.886  0.0556  1.6845  2.6446
 8470SOL    MW433648   4.338   5.496   5.912 -0.4571  0.1922  0.5987
 8471SOL     OW33649   4.313   1.927   4.481 -0.4645 -0.5119 -0.4651
 8471SOL    HW233650   4.237   1.986   4.475 -0.2995 -0.3971 -1.6816
 8471SOL    HW333651   4.384   1.983   4.512  0.2291  0.5451 -3.5689
 8471SOL    MW433652   4.312   1.942   4.484 -0.3512 -0.3573 -1.0351
 8472SOL     OW33653   1.710   2.884   3.909 -0.4060 -0.4651 -0.2093
 8472SOL    HW233654   1.757   2.892   3.992  1.8506  1.0701 -1.5222
 8472SOL    HW333655   1.622   2.919   3.928  0.3826  0.8439  1.2720
 8472SOL    MW433656   1.704   2.889   3.923 -0.0042 -0.0899 -0.1870
 8473SOL     OW33657   6.207   3.751   2.022  0.4810  0.2581 -0.5970
 8473SOL    HW233658   6.232   3.720   2.109 -1.7347  2.9926  1.1995
 8473SOL    HW333659   6.280   3.805   1.993  1.4107 -1.0049 -0.6766
 8473SOL    MW433660   6.220   3.754   2.030  0.3113  0.4522 -0.3705
 8474SOL     OW33661   1.190   2.110   1.369 -0.5427  0.1319  0.6185
 8474SOL    HW233662   1.201   2.024   1.330 -0.0725  0.6116 -0.3465
 8474SOL    HW333663   1.095   2.125   1.368 -0.4958  0.4860 -1.1826
 8474SOL    MW433664   1.179   2.101   1.364 -0.4745  0.2419  0.2536
 8475SOL     OW33665   6.192   1.470   4.024  0.0244 -0.6102 -0.0686
 8475SOL    HW233666   6.105   1.505   4.042  0.4305 -0.5125  1.8822
 8475SOL    HW333667   6.186   1.438   3.934 -1.6663  0.4452 -0.3834
 8475SOL    MW433668   6.180   1.470   4.014 -0.1451 -0.4581  0.1472
 8476SOL     OW33669   4.006   1.599   6.363 -0.0994  0.0628  0.1543
 8476SOL    HW233670   4.031   1.683   6.403  0.9749 -0.3605  0.3891
 8476SOL    HW333671   3.935   1.567   6.418 -1.5442  1.4848 -0.7719
 8476SOL    MW433672   4.000   1.606   6.375 -0.1483  0.1946  0.0631
 8477SOL     OW33673   0.647   3.109   4.343  0.4012  0.0432 -0.2075
 8477SOL    HW233674   0.611   3.078   4.260  0.7496 -0.5291 -0.1537
 8477SOL    HW333675   0.623   3.201   4.347 -0.1310 -0.0689 -0.6680
 8477SOL    MW433676   0.639   3.117   4.333  0.3770 -0.0471 -0.2612
 8478SOL     OW33677   5.218   4.661   0.408  0.0210 -0.0067  0.4786
 8478SOL    HW233678   5.303   4.703   0.397 -0.3108  1.2357  2.2630
 8478SOL    HW333679   5.238   4.567   0.414  0.8606 -0.1242 -2.5908
 8478SOL    MW433680   5.231   4.654   0.407  0.0880  0.1417  0.3091
 8479SOL     OW33681   0.926   4.309   1.370  0.2925 -0.0791 -0.3034
 8479SOL    HW233682   0.881   4.317   1.286 -3.6536 -1.1297  1.5037
 8479SOL    HW333683   0.938   4.400   1.399  1.1763  0.2733 -1.6339
 8479SOL    MW433684   0.922   4.322   1.363 -0.1115 -0.1712 -0.2405
 8480SOL     OW33685   0.894   0.142   5.456 -0.0879 -0.6009  0.4119
 8480SOL    HW233686   0.874   0.234   5.440 -1.4849 -0.7539  1.1257
 8480SOL    HW333687   0.917   0.107   5.369  0.1912  0.3479  0.0964
 8480SOL    MW433688   0.894   0.149   5.442 -0.2354 -0.4959  0.4645
 8481SOL     OW33689   4.511   2.398   2.848  0.3136 -0.5438  0.3981
 8481SOL    HW233690   4.526   2.483   2.806  0.5960 -1.5679 -1.7412
 8481SOL    HW333691   4.555   2.336   2.790 -0.5054 -2.2218  1.5225
 8481SOL    MW433692   4.519   2.401   2.835  0.2428 -0.9003  0.2642
 8482SOL     OW33693   2.323   3.197   4.208 -0.1207 -0.2353 -0.0040
 8482SOL    HW233694   2.346   3.225   4.296  1.9456  1.6529 -1.0529
 8482SOL    HW333695   2.258   3.261   4.178  1.3228  0.9046 -0.8237
 8482SOL    MW433696   2.317   3.209   4.216  0.3424  0.1642 -0.2505
 8483SOL     OW33697   4.486   1.157   0.793 -0.0657  0.0607 -0.2966
 8483SOL    HW233698   4.460   1.178   0.883 -0.3477 -1.5370  0.0248
 8483SOL    HW333699   4.403   1.149   0.745 -0.0502 -1.3271 -0.1423
 8483SOL    MW433700   4.471   1.159   0.798 -0.1009 -0.3332 -0.2339
 8484SOL     OW33701   0.079   3.082   2.209 -0.0172 -0.5346 -0.3039
 8484SOL    HW233702   0.003   3.039   2.169 -0.3986 -0.3356  0.2034
 8484SOL    HW333703   0.145   3.012   2.215 -0.6562 -1.0805  0.5792
 8484SOL    MW433704   0.078   3.067   2.205 -0.1518 -0.5804 -0.1204
 8485SOL     OW33705   4.581   1.915   6.047 -0.6044 -0.3699 -0.1539
 8485SOL    HW233706   4.543   1.990   6.002 -0.4557 -0.6508 -0.7597
 8485SOL    HW333707   4.590   1.848   5.979  1.1685 -0.2412 -0.1088
 8485SOL    MW433708   4.577   1.916   6.032 -0.3509 -0.3900 -0.2279
 8486SOL     OW33709   4.758   1.511   5.312  0.1890 -0.3913  0.1944
 8486SOL    HW233710   4.807   1.498   5.393  1.2557 -0.4030 -0.4241
 8486SOL    HW333711   4.711   1.429   5.298 -1.2224  0.1310  1.5609
 8486SOL    MW433712   4.759   1.499   5.321  0.1435 -0.3239  0.2931
 8487SOL     OW33713   4.267   4.277   5.135 -0.2918 -0.3338  0.4549
 8487SOL    HW233714   4.211   4.253   5.061  2.1026 -1.1196 -1.2546
 8487SOL    HW333715   4.329   4.340   5.098  0.9563 -0.7226  1.7803
 8487SOL    MW433716   4.268   4.282   5.120  0.1888 -0.4888  0.4042
 8488SOL     OW33717   4.289   4.345   1.421 -0.4391  0.1675 -0.4071
 8488SOL    HW233718   4.289   4.439   1.402 -0.4230  0.0729 -0.8948
 8488SOL    HW333719   4.275   4.340   1.515  0.8995  0.6950 -0.1552
 8488SOL    MW433720   4.287   4.357   1.431 -0.2604  0.2246 -0.4382
 8489SOL     OW33721   1.570   1.611   5.923 -0.2940  0.0053 -0.1909
 8489SOL    HW233722   1.584   1.543   5.856  0.4597  0.2708 -0.3135
 8489SOL    HW333723   1.615   1.688   5.889  0.6924 -0.0461  0.9275
 8489SOL    MW433724   1.578   1.612   5.910 -0.0644  0.0336 -0.0595
 8490SOL     OW33725   2.651   0.450   4.315 -0.1850 -0.2645  0.2016
 8490SOL    HW233726   2.659   0.408   4.400 -1.3819 -1.1596 -0.0867
 8490SOL    HW333727   2.623   0.539   4.334 -2.6165 -1.0633  0.7427
 8490SOL    MW433728   2.648   0.456   4.328 -0.6637 -0.4880  0.2349
 8491SOL     OW33729   5.660   4.548   0.264 -0.7608 -0.1733  0.0429
 8491SOL    HW233730   5.713   4.471   0.287 -0.5605 -0.6117 -1.7367
 8491SOL    HW333731   5.597   4.516   0.200 -0.9156  1.0689 -0.4590
 8491SOL    MW433732   5.659   4.534   0.259 -0.7548 -0.0672 -0.2581
 8492SOL     OW33733   2.765   3.834   5.930 -0.0852  0.3789 -0.0490
 8492SOL    HW233734   2.758   3.929   5.920  2.9399  0.7706  0.6812
 8492SOL    HW333735   2.675   3.805   5.945 -1.3086  2.9042 -1.7601
 8492SOL    MW433736   2.752   3.843   5.931  0.1525  0.7638 -0.1784
 8493SOL     OW33737   2.587   2.958   2.583  0.0186  0.2111  0.2224
 8493SOL    HW233738   2.646   3.019   2.627 -0.4520 -0.4703  1.8602
 8493SOL    HW333739   2.640   2.879   2.571  0.0894  0.3334 -0.2818
 8493SOL    MW433740   2.602   2.956   2.587 -0.0342  0.1373  0.3720
 8494SOL     OW33741   0.740   0.649   1.603  0.5808 -0.0223 -0.0285
 8494SOL    HW233742   0.793   0.712   1.651  1.3882 -0.3393 -0.4777
 8494SOL    HW333743   0.724   0.578   1.665  2.1381 -0.7189 -0.3650
 8494SOL    MW433744   0.745   0.648   1.617  0.8928 -0.1561 -0.1322
 8495SOL     OW33745   0.468   1.340   4.521 -0.1082  0.3000  0.2444
 8495SOL    HW233746   0.478   1.259   4.471 -1.5127  0.8029 -0.9038
 8495SOL    HW333747   0.404   1.317   4.589 -0.7363  0.5120 -0.2671
 8495SOL    MW433748   0.461   1.326   4.524 -0.3764  0.3943  0.0254
 8496SOL     OW33749   0.586   5.674   2.115  0.1991 -0.2984  0.7067
 8496SOL    HW233750   0.496   5.655   2.090  0.3093  0.1627 -0.0849
 8496SOL    HW333751   0.584   5.766   2.143  0.6851  0.1976 -0.7740
 8496SOL    MW433752   0.574   5.684   2.116  0.2778 -0.1721  0.4069
 8497SOL     OW33753   1.513   2.957   2.887  0.0900 -0.0501  0.2526
 8497SOL    HW233754   1.575   3.009   2.937  0.6535 -0.8074  0.3725
 8497SOL    HW333755   1.428   2.997   2.905  0.1094 -0.9156  2.7107
 8497SOL    MW433756   1.510   2.969   2.896  0.1669 -0.2642  0.5927
 8498SOL     OW33757   4.262   0.275   0.657 -0.2678 -0.5872 -0.7147
 8498SOL    HW233758   4.246   0.180   0.660 -1.2554 -0.4347 -0.8043
 8498SOL    HW333759   4.295   0.290   0.569 -0.5899 -0.7825 -0.8725
 8498SOL    MW433760   4.264   0.264   0.646 -0.4406 -0.5929 -0.7473
 8499SOL     OW33761   3.955   2.480   3.978 -0.2549 -0.3489  0.2768
 8499SOL    HW233762   3.949   2.570   3.945  1.5326 -0.2249  0.1946
 8499SOL    HW333763   3.965   2.427   3.899 -0.1923 -0.5016  0.3873
 8499SOL    MW433764   3.955   2.485   3.963 -0.0108 -0.3527  0.2806
 8500SOL     OW33765   1.238   4.711   6.406  0.3811  0.4756 -0.3801
 8500SOL    HW233766   1.240   4.807   6.414  0.7238  0.4497 -0.1016
 8500SOL    HW333767   1.323   4.683   6.440  1.1495  0.2000 -2.4128
 8500SOL    MW433768   1.249   4.720   6.412  0.5277  0.4358 -0.6115
 8501SOL     OW33769   2.269   1.027   4.648  0.1015  0.2038 -0.0473
 8501SOL    HW233770   2.313   1.109   4.668  1.7391 -0.7808  0.6527
 8501SOL    HW333771   2.219   1.006   4.726 -1.5751  1.2478 -0.7876
 8501SOL    MW433772   2.268   1.035   4.661  0.0964  0.2116 -0.0526
 8502SOL     OW33773   0.794   1.106   0.711  0.1629 -0.1947  0.1380
 8502SOL    HW233774   0.890   1.099   0.715  0.4166  2.3363 -0.0398
 8502SOL    HW333775   0.769   1.148   0.793 -0.8951 -1.2968  0.4159
 8502SOL    MW433776   0.803   1.111   0.722  0.0568 -0.0061  0.1512
 8503SOL     OW33777   4.534   0.440   2.800 -0.1581 -0.3089  0.4782
 8503SOL    HW233778   4.457   0.489   2.773 -0.1631 -0.7803 -0.3970
 8503SOL    HW333779   4.541   0.456   2.894 -0.7190  0.5703  0.3799
 8503SOL    MW433780   4.525   0.448   2.809 -0.2328 -0.2551  0.3497
 8504SOL     OW33781   0.047   1.026   1.470  0.3902 -0.1291  0.1264
 8504SOL    HW233782  -0.030   1.038   1.526 -0.4925  0.7441 -1.2029
 8504SOL    HW333783   0.091   0.950   1.506 -0.5435 -0.0440  1.5470
 8504SOL    MW433784   0.043   1.018   1.482  0.1505 -0.0027  0.1385
 8505SOL     OW33785   4.247   0.412   1.648  0.3024  0.0866  0.1448
 8505SOL    HW233786   4.281   0.340   1.701 -0.5391 -0.4262  0.0160
 8505SOL    HW333787   4.153   0.414   1.669  0.2723  0.9828 -0.0484
 8505SOL    MW433788   4.239   0.403   1.658  0.1874  0.1371  0.1023
 8506SOL     OW33789   2.963   5.375   3.177  0.5654  0.1131 -0.3395
 8506SOL    HW233790   2.994   5.383   3.267  0.5311  0.3290 -0.3445
 8506SOL    HW333791   2.913   5.456   3.162  1.3095  0.4945 -0.8403
 8506SOL    MW433792   2.960   5.387   3.187  0.6591  0.1919 -0.4062
 8507SOL     OW33793   2.839   1.937   4.596 -0.2857 -0.1934 -0.2958
 8507SOL    HW233794   2.862   1.939   4.689  0.1392  2.8686 -0.3763
 8507SOL    HW333795   2.747   1.914   4.595 -0.1427 -0.9112  0.8227
 8507SOL    MW433796   2.830   1.934   4.608 -0.2107  0.1159 -0.1588
 8508SOL     OW33797   4.765   3.171   5.099 -0.6303  0.2323 -0.5812
 8508SOL    HW233798   4.800   3.083   5.111 -3.1705 -0.9472 -1.1871
 8508SOL    HW333799   4.788   3.217   5.179  1.9042 -0.5000 -0.7963
 8508SOL    MW433800   4.773   3.166   5.111 -0.6311 -0.0200 -0.6895
 8509SOL     OW33801   0.660   0.472   2.815 -0.1622 -0.1202 -0.4483
 8509SOL    HW233802   0.675   0.379   2.799  1.1469 -0.1531  0.8191
 8509SOL    HW333803   0.730   0.517   2.768  0.2701  0.1127  0.4031
 8509SOL    MW433804   0.671   0.466   2.807  0.0675 -0.0938 -0.1688
 8510SOL     OW33805   1.364   3.998   1.902 -0.2894  0.4097  0.7711
 8510SOL    HW233806   1.336   3.952   1.823 -1.9072  2.0191  0.3592
 8510SOL    HW333807   1.381   3.928   1.965  1.6353 -0.9561 -1.1049
 8510SOL    MW433808   1.363   3.982   1.900 -0.2489  0.4418  0.4692
 8511SOL     OW33809   3.494   0.853   3.773  0.0960  0.2065 -0.4985
 8511SOL    HW233810   3.488   0.936   3.725  0.9183 -0.3846 -1.7015
 8511SOL    HW333811   3.428   0.797   3.731 -0.6920  0.3315  0.5319
 8511SOL    MW433812   3.484   0.856   3.761  0.1005  0.1450 -0.5213
 8512SOL     OW33813   2.306   0.644   0.610  0.1199  0.3873 -0.0291
 8512SOL    HW233814   2.366   0.700   0.560  1.1784 -1.4521 -0.9273
 8512SOL    HW333815   2.353   0.624   0.690 -1.3805  2.9326  1.6237
 8512SOL    MW433816   2.320   0.649   0.614  0.0616  0.4804  0.0705
 8513SOL     OW33817   4.507   1.429   0.741 -0.4425 -0.5377 -0.2724
 8513SOL    HW233818   4.531   1.454   0.830 -0.3065 -1.1972 -0.1192
 8513SOL    HW333819   4.501   1.334   0.743 -0.8928 -0.5305 -0.8584
 8513SOL    MW433820   4.510   1.420   0.753 -0.4840 -0.6237 -0.3295
 8514SOL     OW33821   3.133   5.031   2.683  0.3870 -0.7098 -0.0790
 8514SOL    HW233822   3.073   5.104   2.701  0.2771 -0.8018 -0.0705
 8514SOL    HW333823   3.188   5.063   2.611  0.1459 -0.7271 -0.2727
 8514SOL    MW433824   3.132   5.045   2.676  0.3407 -0.7242 -0.1035
 8515SOL     OW33825   5.164   3.646   0.524 -0.4391 -0.5298 -0.0154
 8515SOL    HW233826   5.231   3.639   0.456  1.1300  1.7649  1.1509
 8515SOL    HW333827   5.081   3.640   0.477  0.5749  1.0168 -2.1573
 8515SOL    MW433828   5.162   3.644   0.509 -0.0983 -0.0230 -0.1441
 8516SOL     OW33829   5.192   5.140   0.507  0.4141 -0.3589  0.2204
 8516SOL    HW233830   5.201   5.133   0.412 -0.4736 -2.6540  0.2388
 8516SOL    HW333831   5.105   5.177   0.521  1.3774  2.1297  0.2002
 8516SOL    MW433832   5.182   5.144   0.497  0.4241 -0.3334  0.2201
 8517SOL     OW33833   5.412   4.011   2.106 -0.2813 -0.1318 -0.5310
 8517SOL    HW233834   5.349   3.977   2.169  0.0618 -0.6333 -0.4503
 8517SOL    HW333835   5.363   4.019   2.024 -0.8237  0.8542 -0.1340
 8517SOL    MW433836   5.397   4.008   2.103 -0.3076 -0.0679 -0.4680
 8518SOL     OW33837   3.938   5.002   4.556  0.5590 -0.4127 -0.0249
 8518SOL    HW233838   3.964   5.052   4.479  1.8832 -1.1386 -0.0684
 8518SOL    HW333839   4.018   4.992   4.607 -0.1631 -0.5046  1.1348
 8518SOL    MW433840   3.952   5.007   4.553  0.6384 -0.5206  0.1224
 8519SOL     OW33841   4.805   0.868   0.928  0.3039 -0.6007 -0.1719
 8519SOL    HW233842   4.733   0.847   0.989  0.5655  1.8052  1.0900
 8519SOL    HW333843   4.760   0.898   0.849 -0.1507  0.9844  0.6420
 8519SOL    MW433844   4.789   0.869   0.926  0.2784 -0.0741  0.1020
 8520SOL     OW33845   0.559   5.039   5.547  0.4293 -0.3933 -0.1261
 8520SOL    HW233846   0.509   4.960   5.524  0.2275 -0.5030  0.6596
 8520SOL    HW333847   0.638   5.005   5.590 -0.3806 -0.1590  1.6440
 8520SOL    MW433848   0.563   5.024   5.550  0.2958 -0.3769  0.2111
 8521SOL     OW33849   1.417   3.950   6.173  0.2310  0.3480 -0.8332
 8521SOL    HW233850   1.369   4.013   6.121  0.6506  0.5758 -0.9481
 8521SOL    HW333851   1.352   3.883   6.196 -0.3840  1.1614 -0.1391
 8521SOL    MW433852   1.402   3.949   6.170  0.2052  0.4854 -0.7568
 8522SOL     OW33853   0.031   1.676   4.318 -0.5753 -0.3447  0.4105
 8522SOL    HW233854   0.008   1.653   4.228  0.6325  0.2185 -0.0670
 8522SOL    HW333855   0.059   1.594   4.358  1.2528 -0.2063 -0.5047
 8522SOL    MW433856   0.032   1.662   4.312 -0.1748 -0.2522  0.2267
 8523SOL     OW33857   0.081   4.333   5.140  0.3347 -0.2933 -0.3643
 8523SOL    HW233858   0.143   4.392   5.096  1.3150 -1.0253  0.0117
 8523SOL    HW333859  -0.003   4.377   5.130  0.5065 -0.3690 -2.9087
 8523SOL    MW433860   0.078   4.347   5.133  0.4867 -0.3999 -0.6504
 8524SOL     OW33861   4.926   0.111   0.404 -0.3321  0.0475  0.0210
 8524SOL    HW233862   4.910   0.197   0.364 -1.3064  0.1332  0.5750
 8524SOL    HW333863   4.972   0.131   0.486  0.6429 -0.0580 -0.4835
 8524SOL    MW433864   4.930   0.125   0.410 -0.3320  0.0449  0.0275
 8525SOL     OW33865   5.310   5.656   6.092 -0.4734 -0.0913 -0.2091
 8525SOL    HW233866   5.223   5.666   6.129 -0.5335  0.4139 -0.4764
 8525SOL    HW333867   5.342   5.746   6.080  0.5424 -0.2703  0.9468
 8525SOL    MW433868   5.303   5.670   6.095 -0.3473 -0.0482 -0.0919
 8526SOL     OW33869   0.144   3.403   5.042  0.2341  0.0370 -0.0206
 8526SOL    HW233870   0.058   3.365   5.063  0.4779  0.2253  1.3984
 8526SOL    HW333871   0.189   3.334   4.993 -0.9594  0.1832 -1.4106
 8526SOL    MW433872   0.138   3.389   5.038  0.1088  0.0812 -0.0168
 8527SOL     OW33873   3.315   5.621   6.420 -0.4204  0.7227  0.1003
 8527SOL    HW233874   3.266   5.637   6.339 -2.5739  0.3363  1.2241
 8527SOL    HW333875   3.248   5.626   6.489  0.6168 -2.2790  1.5309
 8527SOL    MW433876   3.299   5.624   6.419 -0.5677  0.2757  0.4374
 8528SOL     OW33877   0.281   3.405   6.128  0.0022  0.1366 -0.1989
 8528SOL    HW233878   0.311   3.450   6.207  0.7436 -1.3720  0.4112
 8528SOL    HW333879   0.274   3.313   6.154 -3.4137  0.0792 -0.8052
 8528SOL    MW433880   0.284   3.399   6.142 -0.3507 -0.0700 -0.1984
 8529SOL     OW33881   0.705   1.600   6.138  0.4292  0.2184  0.4414
 8529SOL    HW233882   0.719   1.580   6.045  0.7921 -0.4748  0.6353
 8529SOL    HW333883   0.610   1.610   6.146  0.3576 -0.0996  0.0623
 8529SOL    MW433884   0.694   1.599   6.127  0.4676  0.0850  0.4170
 8530SOL     OW33885   3.478   0.974   5.897 -0.4575 -0.4320  0.3674
 8530SOL    HW233886   3.422   0.898   5.883 -1.2942  0.2985 -0.3306
 8530SOL    HW333887   3.526   0.984   5.815 -2.0009  1.1085 -0.4085
 8530SOL    MW433888   3.477   0.965   5.884 -0.7715 -0.1324  0.1730
 8531SOL     OW33889   5.716   1.745   5.159 -0.0475 -0.1937  0.0788
 8531SOL    HW233890   5.647   1.800   5.197 -1.0575 -1.9790  0.9122
 8531SOL    HW333891   5.692   1.656   5.181  0.5438 -1.1939 -2.8307
 8531SOL    MW433892   5.704   1.741   5.167 -0.1028 -0.5612 -0.1951
 8532SOL     OW33893   4.102   5.036   6.093  0.1530  0.1941  0.1461
 8532SOL    HW233894   4.012   5.006   6.086  0.5992 -1.6848  1.5228
 8532SOL    HW333895   4.151   4.980   6.033  0.2738  2.0966 -1.6091
 8532SOL    MW433896   4.097   5.024   6.084  0.2278  0.1973  0.0961
 8533SOL     OW33897   6.182   3.088   5.843  0.5407  0.3158 -0.3135
 8533SOL    HW233898   6.149   3.030   5.911 -2.4094  1.5013 -0.5882
 8533SOL    HW333899   6.256   3.135   5.883  1.5989 -1.9893  0.5826
 8533SOL    MW433900   6.188   3.087   5.857  0.2911  0.1681 -0.2315
 8534SOL     OW33901   6.157   0.617   6.207  0.5903  0.2223  0.1545
 8534SOL    HW233902   6.132   0.697   6.252 -3.5308 -1.5166  1.3590
 8534SOL    HW333903   6.251   0.608   6.225  0.6380  3.3612  2.1970
 8534SOL    MW433904   6.166   0.626   6.215  0.0529  0.4070  0.5829
 8535SOL     OW33905   5.620   4.279   4.543 -0.1209 -0.0748  0.3490
 8535SOL    HW233906   5.559   4.328   4.487 -1.9502 -2.3311  0.2332
 8535SOL    HW333907   5.577   4.278   4.628  1.0575  0.4931  0.9708
 8535SOL    MW433908   5.606   4.286   4.547 -0.2068 -0.2976  0.4157
 8536SOL     OW33909   4.417   3.449   4.850 -0.0693  0.2074 -0.0175
 8536SOL    HW233910   4.381   3.362   4.862  1.2721 -0.3529  0.1482
 8536SOL    HW333911   4.417   3.461   4.755 -0.8965  0.3212 -0.0097
 8536SOL    MW433912   4.412   3.439   4.839 -0.0015  0.1485  0.0054
 8537SOL     OW33913   3.567   0.973   4.467  0.1921  0.7050  1.0792
 8537SOL    HW233914   3.496   1.017   4.420  1.9310  2.1399 -0.3528
 8537SOL    HW333915   3.616   0.926   4.399 -0.1796 -1.5313  2.2466
 8537SOL    MW433916   3.564   0.972   4.452  0.3725  0.5993  1.0443
 8538SOL     OW33917   5.019   3.339   2.227  0.0209 -0.1281 -0.2152
 8538SOL    HW233918   5.016   3.311   2.136 -0.1668  0.2279 -0.3223
 8538SOL    HW333919   5.105   3.380   2.236 -0.4742  1.0410 -0.6044
 8538SOL    MW433920   5.030   3.341   2.216 -0.0692  0.0731 -0.2807
 8539SOL     OW33921   5.765   2.678   2.522  0.0659  0.1307  0.2058
 8539SOL    HW233922   5.783   2.764   2.483 -0.0112 -0.1254 -0.4101
 8539SOL    HW333923   5.745   2.697   2.614  0.2026  0.7538  0.1140
 8539SOL    MW433924   5.765   2.692   2.529  0.0737  0.1791  0.1124
 8540SOL     OW33925   5.738   2.493   5.682  0.7950  0.2719  0.5523
 8540SOL    HW233926   5.730   2.400   5.661 -0.7723  0.0133  2.0165
 8540SOL    HW333927   5.686   2.537   5.615 -0.0498 -0.0912  0.9566
 8540SOL    MW433928   5.730   2.486   5.671  0.4768  0.1898  0.7988
 8541SOL     OW33929   4.530   4.323   0.201 -0.0312 -0.1383 -0.1382
 8541SOL    HW233930   4.620   4.348   0.223  0.4299 -1.8188  0.0477
 8541SOL    HW333931   4.515   4.362   0.115  0.7987  0.3157 -0.0921
 8541SOL    MW433932   4.540   4.332   0.193  0.1391 -0.3001 -0.1076
 8542SOL     OW33933   4.880   4.112   6.380  0.1906 -0.0579  0.5832
 8542SOL    HW233934   4.937   4.051   6.334 -0.1576  0.1546 -0.1591
 8542SOL    HW333935   4.937   4.153   6.446  1.1082  0.6712 -0.6051
 8542SOL    MW433936   4.895   4.110   6.383  0.2657  0.0664  0.3285
 8543SOL     OW33937   5.066   1.160   5.180  0.4562 -0.0914  0.1159
 8543SOL    HW233938   5.013   1.240   5.173  0.4727 -0.0161  0.7744
 8543SOL    HW333939   5.141   1.186   5.235  0.3248 -0.6269  0.5570
 8543SOL    MW433940   5.069   1.174   5.186  0.4411 -0.1521  0.2610
 8544SOL     OW33941   5.054   4.476   5.503  0.5325  0.2015  0.2283
 8544SOL    HW233942   5.146   4.499   5.516  0.7552 -1.3896  1.9834
 8544SOL    HW333943   5.024   4.449   5.590  0.4585 -6.1067 -1.2487
 8544SOL    MW433944   5.062   4.476   5.516  0.5521 -0.8407  0.2650
 8545SOL     OW33945   3.993   0.255   1.697  0.4619 -0.7371  0.0237
 8545SOL    HW233946   3.910   0.226   1.660  1.1494 -0.5420 -1.7605
 8545SOL    HW333947   4.056   0.188   1.672  1.3138  0.3427 -0.8790
 8545SOL    MW433948   3.991   0.243   1.689  0.6650 -0.5689 -0.3308
 8546SOL     OW33949   3.615   5.302   0.543  0.2395 -0.2480  0.0587
 8546SOL    HW233950   3.684   5.241   0.516  0.1693  1.1833 -3.8574
 8546SOL    HW333951   3.661   5.383   0.564 -0.0020 -0.4346  1.4341
 8546SOL    MW433952   3.630   5.305   0.542  0.1984 -0.0838 -0.2765
 8547SOL     OW33953   2.238   4.837   6.412 -0.3203  0.2618  0.6143
 8547SOL    HW233954   2.316   4.815   6.360  0.7077  0.8451  1.8711
 8547SOL    HW333955   2.198   4.753   6.432  0.5324 -0.1085  0.7864
 8547SOL    MW433956   2.243   4.823   6.408 -0.0722  0.2899  0.8028
 8548SOL     OW33957   3.845   2.606   5.017  0.3131 -0.2689 -0.0974
 8548SOL    HW233958   3.790   2.576   5.089  0.7734  1.3743  0.9940
 8548SOL    HW333959   3.931   2.567   5.035  0.8203  1.3101  1.1244
 8548SOL    MW433960   3.849   2.597   5.029  0.4407  0.1562  0.2078
 8549SOL     OW33961   0.410   3.938   4.993 -0.5224  0.0912 -0.6926
 8549SOL    HW233962   0.334   3.976   5.038  1.8988  1.1472  2.9656
 8549SOL    HW333963   0.433   3.862   5.046  1.3228  0.1501 -1.3560
 8549SOL    MW433964   0.403   3.933   5.006  0.0405  0.2383 -0.2974
 8550SOL     OW33965   0.544   0.234   5.230  0.3257  0.5392  0.5753
 8550SOL    HW233966   0.478   0.214   5.296 -1.0786  0.3345 -0.8350
 8550SOL    HW333967   0.507   0.202   5.148  3.0391 -1.4436 -0.0375
 8550SOL    MW433968   0.530   0.227   5.228  0.4984  0.2506  0.3084
 8551SOL     OW33969   5.804   6.250   0.479  0.1091 -0.2320  0.0028
 8551SOL    HW233970   5.835   6.263   0.569 -1.4192  1.2522  0.3688
 8551SOL    HW333971   5.853   6.174   0.448  2.8071  0.9345  1.0662
 8551SOL    MW433972   5.815   6.241   0.487  0.2635  0.1177  0.1914
 8552SOL     OW33973   2.905   3.743   5.701 -0.6681  0.4884  0.0299
 8552SOL    HW233974   2.896   3.653   5.671 -0.4860  0.6603 -0.5470
 8552SOL    HW333975   2.856   3.745   5.784  0.1540 -0.3739  0.5537
 8552SOL    MW433976   2.897   3.731   5.708 -0.5356  0.3973  0.0229
 8553SOL     OW33977   2.912   1.310   2.279 -0.2712  0.1463  0.3107
 8553SOL    HW233978   2.861   1.273   2.352 -0.0831  0.8745  0.8217
 8553SOL    HW333979   2.897   1.250   2.207  0.9064 -1.5628  1.4102
 8553SOL    MW433980   2.903   1.297   2.279 -0.0910  0.0169  0.5232
 8554SOL     OW33981   1.081   6.076   5.398  0.5991  0.7054  0.2487
 8554SOL    HW233982   1.009   6.136   5.379  0.0145  1.1839  3.4121
 8554SOL    HW333983   1.042   5.989   5.392  0.8801  0.6835 -2.1148
 8554SOL    MW433984   1.066   6.073   5.395  0.5590  0.7657  0.3543
 8555SOL     OW33985   1.054   3.151   5.348  0.1007 -0.1686 -0.2151
 8555SOL    HW233986   1.017   3.075   5.394  0.0054 -0.8158 -1.3365
 8555SOL    HW333987   0.985   3.217   5.352 -0.2347 -0.5194 -0.1708
 8555SOL    MW433988   1.040   3.149   5.355  0.0439 -0.3002 -0.3572
 8556SOL     OW33989   3.739   2.841   2.258  0.3000  0.2163  0.5284
 8556SOL    HW233990   3.830   2.831   2.287  0.4320 -0.2170 -0.0199
 8556SOL    HW333991   3.692   2.869   2.337  0.6069 -1.1525  1.2340
 8556SOL    MW433992   3.745   2.844   2.272  0.3579 -0.0215  0.5492
 8557SOL     OW33993   1.850   2.076   5.018  0.1143  0.7936  0.5595
 8557SOL    HW233994   1.781   2.089   5.082 -1.3171 -2.4478 -0.0991
 8557SOL    HW333995   1.927   2.054   5.071 -0.9217 -1.3464  1.3320
 8557SOL    MW433996   1.851   2.075   5.034 -0.2112  0.0836  0.5745
 8558SOL     OW33997   0.190   2.109   2.898  0.0317 -1.1028 -0.4004
 8558SOL    HW233998   0.127   2.046   2.863 -0.3000 -0.0353 -1.8142
 8558SOL    HW333999   0.139   2.161   2.961 -1.1630  0.9733 -2.8500
 8558SOL    MW434000   0.175   2.108   2.902 -0.1697 -0.6880 -0.9102
 8559SOL     OW34001   2.084   5.440   1.700  0.7445 -0.0211  0.1309
 8559SOL    HW234002   2.148   5.448   1.629 -0.8951  2.1390 -1.2402
 8559SOL    HW334003   2.087   5.348   1.725  2.9065 -0.4037 -1.2525
 8559SOL    MW434004   2.093   5.429   1.694  0.8134  0.2134 -0.2325
 8560SOL     OW34005   2.854   0.855   1.962  0.0053  0.4681  0.4461
 8560SOL    HW234006   2.776   0.880   2.012 -0.1950 -0.3872  0.5730
 8560SOL    HW334007   2.828   0.862   1.870  0.1149  1.2258  0.4695
 8560SOL    MW434008   2.841   0.859   1.956 -0.0067  0.4552  0.4659
 8561SOL     OW34009   2.434   2.641   3.056  0.0962 -0.6514 -0.2444
 8561SOL    HW234010   2.352   2.683   3.082  0.5542 -0.6678  1.3534
 8561SOL    HW334011   2.472   2.610   3.138  1.2205 -1.5440 -1.0649
 8561SOL    MW434012   2.428   2.642   3.070  0.3050 -0.7713 -0.1418
 8562SOL     OW34013   5.870   3.118   1.450 -0.2284 -0.3466 -0.2615
 8562SOL    HW234014   5.811   3.093   1.379 -0.9204  0.0315  0.1707
 8562SOL    HW334015   5.938   3.170   1.407 -0.7437  0.0365 -0.6338
 8562SOL    MW434016   5.871   3.122   1.435 -0.3877 -0.2461 -0.2536
 8563SOL     OW34017   3.187   4.399   1.503  0.7102  0.2618  0.0728
 8563SOL    HW234018   3.209   4.453   1.579 -3.5626  0.3370  1.5193
 8563SOL    HW334019   3.188   4.461   1.430  1.5836  0.9379  0.6296
 8563SOL    MW434020   3.190   4.415   1.503  0.2617  0.3610  0.3371
 8564SOL     OW34021   3.158   1.876   4.253 -0.2865 -0.3425 -0.3217
 8564SOL    HW234022   3.210   1.935   4.199  1.4726  0.0140  1.6278
 8564SOL    HW334023   3.098   1.933   4.301  0.6067 -0.2296  0.6925
 8564SOL    MW434024   3.157   1.891   4.252  0.0634 -0.2806  0.0693
 8565SOL     OW34025   5.064   1.623   5.037  0.4574  0.1240  0.1061
 8565SOL    HW234026   4.990   1.652   4.983 -1.1753 -0.7518  1.7285
 8565SOL    HW334027   5.135   1.609   4.975 -1.5977 -1.9037 -2.0075
 8565SOL    MW434028   5.063   1.625   5.022 -0.0292 -0.2591  0.0413
 8566SOL     OW34029   5.657   3.950   4.597 -0.2465 -0.5992 -0.1566
 8566SOL    HW234030   5.661   4.028   4.542 -0.2376 -1.0923 -0.8739
 8566SOL    HW334031   5.747   3.918   4.601  0.0528  0.3355  1.5137
 8566SOL    MW434032   5.669   3.956   4.590 -0.2058 -0.5409 -0.0308
 8567SOL     OW34033   6.235   6.117   4.487 -0.3263  0.3329  0.0216
 8567SOL    HW234034   6.277   6.161   4.561 -1.0486  1.4207 -0.1805
 8567SOL    HW334035   6.283   6.035   4.477  1.2495  1.1765  0.2600
 8567SOL    MW434036   6.247   6.112   4.495 -0.2137  0.5877  0.0264
 8568SOL     OW34037   1.635   3.313   4.699  0.0206 -0.5360 -0.0182
 8568SOL    HW234038   1.629   3.330   4.605  1.2992  0.7227  0.1060
 8568SOL    HW334039   1.544   3.309   4.728 -0.3991 -1.3653 -1.3670
 8568SOL    MW434040   1.622   3.315   4.690  0.1339 -0.4794 -0.1797
 8569SOL     OW34041   2.586   4.103   5.449  0.4709 -0.7411 -0.0854
 8569SOL    HW234042   2.585   4.102   5.544  1.9361 -0.0032 -0.0258
 8569SOL    HW334043   2.520   4.167   5.424 -0.5378 -1.5652  0.3762
 8569SOL    MW434044   2.577   4.111   5.458  0.5312 -0.7525 -0.0166
 8570SOL     OW34045   0.145   2.274   3.794 -0.0660  0.0226 -0.3189
 8570SOL    HW234046   0.162   2.361   3.830  0.5607 -0.1577 -0.1605
 8570SOL    HW334047   0.054   2.256   3.816 -1.0711  1.7232 -2.6249
 8570SOL    MW434048   0.136   2.283   3.802 -0.1159  0.2232 -0.6022
 8571SOL     OW34049   2.811   5.404   4.317 -0.4943  0.0615  0.1410
 8571SOL    HW234050   2.743   5.449   4.266 -0.6309 -0.7091 -0.3642
 8571SOL    HW334051   2.840   5.332   4.261 -0.5946 -0.7651  1.1205
 8571SOL    MW434052   2.806   5.401   4.303 -0.5255 -0.1493  0.2036
 8572SOL     OW34053   5.765   2.402   3.995 -0.6199 -0.4660 -0.2126
 8572SOL    HW234054   5.685   2.370   4.036 -0.2358 -0.9765  0.1468
 8572SOL    HW334055   5.767   2.496   4.016 -0.8807 -0.5463  0.1779
 8572SOL    MW434056   5.755   2.410   4.003 -0.6036 -0.5439 -0.1136
 8573SOL     OW34057   3.767   6.293   0.376  0.3785  0.6814  1.3355
 8573SOL    HW234058   3.862   6.304   0.379  0.8830 -2.3285  0.5986
 8573SOL    HW334059   3.740   6.339   0.296  1.6269 -0.3280  0.2827
 8573SOL    MW434060   3.776   6.300   0.366  0.6098  0.1511  1.0994
 8574SOL     OW34061   0.316   0.409   0.666  0.5743 -0.4767 -0.3675
 8574SOL    HW234062   0.356   0.403   0.753  1.2897 -2.0674 -0.7541
 8574SOL    HW334063   0.352   0.489   0.628  0.0451  0.3824  0.8820
 8574SOL    MW434064   0.326   0.418   0.672  0.5989 -0.5732 -0.2536
 8575SOL     OW34065   2.772   2.778   4.902 -0.2502  0.0752  0.1999
 8575SOL    HW234066   2.860   2.740   4.908 -0.5837 -0.6818  0.4438
 8575SOL    HW334067   2.723   2.714   4.849 -0.1381  1.4637 -1.6981
 8575SOL    MW434068   2.777   2.764   4.896 -0.2794  0.1585 -0.0183
 8576SOL     OW34069   5.866   4.121   0.207  0.7904 -0.4201 -0.2715
 8576SOL    HW234070   5.851   4.056   0.275 -2.2275 -0.4238 -0.7925
 8576SOL    HW334071   5.835   4.203   0.246 -1.2608 -0.4768 -1.6628
 8576SOL    MW434072   5.860   4.123   0.222  0.1216 -0.4281 -0.5238
 8577SOL     OW34073   0.730   6.007   0.285 -0.1633  0.5570  0.3291
 8577SOL    HW234074   0.708   6.075   0.349  0.7776 -0.5605  1.9023
 8577SOL    HW334075   0.651   5.998   0.232 -0.2591  2.9985 -0.0803
 8577SOL    MW434076   0.716   6.015   0.287 -0.0518  0.7317  0.4827
 8578SOL     OW34077   5.622   5.840   0.299  0.4796  0.0680 -0.7896
 8578SOL    HW234078   5.696   5.855   0.358  0.8526 -1.4485 -0.8114
 8578SOL    HW334079   5.545   5.865   0.350  1.0117  2.6948 -1.1317
 8578SOL    MW434080   5.622   5.845   0.314  0.5990  0.2145 -0.8376
 8579SOL     OW34081   2.035   4.713   0.595 -0.6126  0.0690 -0.3650
 8579SOL    HW234082   2.084   4.700   0.514 -1.2354  0.7350 -0.8622
 8579SOL    HW334083   1.943   4.701   0.570 -1.0523  2.7635 -0.3532
 8579SOL    MW434084   2.029   4.710   0.581 -0.7528  0.5124 -0.4291
 8580SOL     OW34085   0.045   3.377   3.309 -0.3804  0.1435 -0.1210
 8580SOL    HW234086   0.007   3.387   3.396 -0.5377  0.9436 -0.2750
 8580SOL    HW334087   0.129   3.422   3.314 -0.9436  1.2925 -0.7313
 8580SOL    MW434088   0.051   3.384   3.321 -0.4755  0.4007 -0.2218
 8581SOL     OW34089   1.399   5.101   2.672  0.3121  0.1633  0.2210
 8581SOL    HW234090   1.455   5.114   2.749 -0.5121 -2.1086  1.2929
 8581SOL    HW334091   1.327   5.164   2.684 -0.1684 -0.6194  1.7327
 8581SOL    MW434092   1.397   5.111   2.684  0.1400 -0.2397  0.5619
 8582SOL     OW34093   3.414   4.599   3.995 -0.3640 -0.1852 -0.3429
 8582SOL    HW234094   3.507   4.608   4.015 -0.3299 -0.4864 -0.3529
 8582SOL    HW334095   3.409   4.520   3.941 -0.4522  0.6064 -1.5239
 8582SOL    MW434096   3.425   4.589   3.990 -0.3711 -0.1205 -0.5000
 8583SOL     OW34097   0.068   5.057   2.338  0.3650 -0.1819 -0.6096
 8583SOL    HW234098   0.114   4.977   2.312  1.0357  0.2277 -0.7047
 8583SOL    HW334099   0.110   5.083   2.420  1.1731  0.8781 -1.3364
 8583SOL    MW434100   0.079   5.050   2.345  0.5601  0.0120 -0.7180
 8584SOL     OW34101   4.087   1.349   4.680 -0.1668  0.0620  0.9526
 8584SOL    HW234102   4.111   1.262   4.646  0.5202  0.9948 -1.0920
 8584SOL    HW334103   4.161   1.405   4.656 -1.3203  1.5558  0.7732
 8584SOL    MW434104   4.100   1.345   4.672 -0.2283  0.3822  0.6592
 8585SOL     OW34105   2.102   6.420   0.197  0.5064 -0.2305  0.0624
 8585SOL    HW234106   2.104   6.464   0.282 -0.9222 -0.9786  0.5101
 8585SOL    HW334107   2.126   6.329   0.216  1.9352 -0.0235 -0.6251
 8585SOL    MW434108   2.105   6.414   0.210  0.5064 -0.3019  0.0307
 8586SOL     OW34109   2.658   2.627   0.264 -0.2703 -0.0017  0.0612
 8586SOL    HW234110   2.690   2.717   0.277  0.1602  0.1125 -1.5503
 8586SOL    HW334111   2.626   2.600   0.350  2.3658  0.5986  1.3305
 8586SOL    MW434112   2.658   2.636   0.277  0.1343  0.0925  0.0160
 8587SOL     OW34113   4.389   5.360   3.730  0.2714  0.4628 -0.4119
 8587SOL    HW234114   4.349   5.329   3.811  1.0599  2.2531  0.7096
 8587SOL    HW334115   4.477   5.322   3.732  0.2666  0.4491 -0.4719
 8587SOL    MW434116   4.396   5.351   3.741  0.3748  0.6972 -0.2718
 8588SOL     OW34117   4.884   2.505   5.291 -0.2807  0.0219  0.2713
 8588SOL    HW234118   4.966   2.496   5.339 -1.7897 -1.2797  2.7987
 8588SOL    HW334119   4.865   2.417   5.259 -1.6343 -0.1658  1.4777
 8588SOL    MW434120   4.892   2.492   5.293 -0.6584 -0.1746  0.7639
 8589SOL     OW34121   5.180   3.162   5.889 -0.1980  0.4805  0.4264
 8589SOL    HW234122   5.130   3.238   5.918 -0.8049  1.1477 -2.1736
 8589SOL    HW334123   5.128   3.124   5.818  0.8981 -1.4015  0.5700
 8589SOL    MW434124   5.167   3.167   5.884 -0.1335  0.3203  0.1023
 8590SOL     OW34125   4.617   4.053   5.946  0.0565  0.0105  0.1904
 8590SOL    HW234126   4.527   4.042   5.974 -0.2073 -0.5130 -0.8093
 8590SOL    HW334127   4.662   4.089   6.022 -0.7233 -0.8709  1.0867
 8590SOL    MW434128   4.611   4.057   5.960 -0.0812 -0.1749  0.1768
 8591SOL     OW34129   2.903   0.308   6.153  0.8548 -0.0231 -0.3483
 8591SOL    HW234130   2.952   0.377   6.198  0.8108  0.2337 -0.6892
 8591SOL    HW334131   2.844   0.273   6.221  0.7967  0.3522 -0.2007
 8591SOL    MW434132   2.902   0.313   6.168  0.8414  0.0603 -0.3738
 8592SOL     OW34133   4.365   1.271   3.370  0.3070 -0.3702 -0.3065
 8592SOL    HW234134   4.414   1.342   3.412 -1.2817 -0.0149  1.0626
 8592SOL    HW334135   4.408   1.191   3.400 -0.0286 -0.0692  1.0699
 8592SOL    MW434136   4.377   1.270   3.380  0.0531 -0.2836  0.0557
 8593SOL     OW34137   3.382   3.513   6.367 -0.1863 -0.2293  0.0744
 8593SOL    HW234138   3.460   3.458   6.364 -0.0670 -0.0470 -0.1791
 8593SOL    HW334139   3.333   3.482   6.443 -0.1820 -0.7728 -0.1388
 8593SOL    MW434140   3.386   3.502   6.377 -0.1700 -0.2769  0.0128
 8594SOL     OW34141   5.167   3.013   4.409 -0.0700  0.1937 -0.0699
 8594SOL    HW234142   5.242   3.032   4.465  0.2879  1.2471 -0.8971
 8594SOL    HW334143   5.125   3.098   4.395 -0.7482 -0.2141 -0.5620
 8594SOL    MW434144   5.171   3.027   4.415 -0.1122  0.2789 -0.2440
 8595SOL     OW34145   0.828   2.590   3.289 -0.1520  0.1239 -0.1642
 8595SOL    HW234146   0.897   2.623   3.230 -1.1069 -1.8777 -2.6035
 8595SOL    HW334147   0.875   2.554   3.363  1.2336  1.3499 -0.3955
 8595SOL    MW434148   0.843   2.590   3.291 -0.0952  0.0215 -0.5165
 8596SOL     OW34149   0.473   2.392   5.042  0.1150  0.8560 -0.4527
 8596SOL    HW234150   0.405   2.393   4.975 -1.2332 -2.6465  0.6499
 8596SOL    HW334151   0.426   2.396   5.125  1.5331  1.6868  0.3702
 8596SOL    MW434152   0.458   2.393   5.044  0.1242  0.5035 -0.1986
 8597SOL     OW34153   0.466   2.280   6.439  0.2863  0.0732 -0.3172
 8597SOL    HW234154   0.460   2.376   6.443 -2.3046  0.0553 -1.4783
 8597SOL    HW334155   0.444   2.259   6.348  1.5052 -1.6195 -0.2531
 8597SOL    MW434156   0.462   2.290   6.427  0.1053 -0.1525 -0.4619
 8598SOL     OW34157   3.563   3.220   4.919  0.0222 -0.8140 -0.4073
 8598SOL    HW234158   3.611   3.183   4.844  1.7350 -0.0171  0.2432
 8598SOL    HW334159   3.561   3.314   4.902  0.8814 -0.5671  0.7889
 8598SOL    MW434160   3.569   3.228   4.907  0.3615 -0.6763 -0.1636
 8599SOL     OW34161   2.927   0.236   4.407  0.4682 -0.2098 -0.0851
 8599SOL    HW234162   2.934   0.322   4.366 -0.4937  0.6399  1.4261
 8599SOL    HW334163   3.013   0.196   4.396  1.2204  1.3266  0.0094
 8599SOL    MW434164   2.939   0.242   4.400  0.4405  0.1050  0.1268
 8600SOL     OW34165   2.422   1.731   1.654 -0.1704  0.0864 -0.2516
 8600SOL    HW234166   2.393   1.640   1.665  0.0344 -0.0750 -0.9628
 8600SOL    HW334167   2.349   1.784   1.685 -0.0735 -0.3181  0.7068
 8600SOL    MW434168   2.409   1.726   1.660 -0.1306  0.0118 -0.2190
 8601SOL     OW34169   1.103   6.045   1.240  0.1700 -0.6054  0.3276
 8601SOL    HW234170   1.105   6.141   1.235 -1.9464 -0.5795 -1.8635
 8601SOL    HW334171   1.194   6.020   1.259  1.2619  1.7520 -1.2853
 8601SOL    MW434172   1.115   6.054   1.242  0.0348 -0.2909 -0.1743
 8602SOL     OW34173   1.240   2.161   4.097 -0.3406  0.3532  0.2305
 8602SOL    HW234174   1.145   2.159   4.100 -0.3792 -1.4581 -0.5892
 8602SOL    HW334175   1.265   2.075   4.063  1.5721  0.9373  0.0036
 8602SOL    MW434176   1.231   2.149   4.093 -0.0933  0.1913  0.0924
 8603SOL     OW34177   0.316   3.543   3.224 -0.4350 -0.0287 -0.2738
 8603SOL    HW234178   0.400   3.498   3.225 -0.8305 -0.7942 -0.5351
 8603SOL    HW334179   0.329   3.617   3.165  0.6478  1.0786  1.2823
 8603SOL    MW434180   0.329   3.547   3.216 -0.3443  0.0164 -0.1030
 8604SOL     OW34181   3.626   0.775   3.034  0.1994  0.2213  0.1517
 8604SOL    HW234182   3.687   0.827   2.982  0.7224 -1.6338 -1.1952
 8604SOL    HW334183   3.640   0.685   3.004 -2.2659 -0.4270  0.7633
 8604SOL    MW434184   3.636   0.770   3.024 -0.0569 -0.1090  0.0547
 8605SOL     OW34185   3.997   2.725   3.818 -0.1466 -0.1315 -0.2202
 8605SOL    HW234186   4.017   2.818   3.830  1.2047 -0.5132  0.7133
 8605SOL    HW334187   4.037   2.702   3.734 -1.0525  0.2649 -0.7733
 8605SOL    MW434188   4.005   2.734   3.809 -0.0878 -0.1295 -0.1700
 8606SOL     OW34189   2.085   3.396   4.368 -0.3585  0.0869 -0.1511
 8606SOL    HW234190   2.033   3.438   4.436  1.5857  2.0574  0.2595
 8606SOL    HW334191   2.100   3.307   4.401  0.8576  1.0899  2.2916
 8606SOL    MW434192   2.080   3.390   4.382  0.0585  0.4793  0.2254
 8607SOL     OW34193   5.118   5.889   0.583  0.0483 -0.2273 -0.0506
 8607SOL    HW234194   5.121   5.842   0.666 -0.2410 -0.1408  0.0097
 8607SOL    HW334195   5.112   5.820   0.516  1.3518 -0.3390 -0.0695
 8607SOL    MW434196   5.117   5.874   0.585  0.1821 -0.2306 -0.0452
 8608SOL     OW34197   4.063   1.148   5.999  0.0636  0.3221 -0.1891
 8608SOL    HW234198   3.970   1.126   6.006  0.1549  0.1437  0.5122
 8608SOL    HW334199   4.101   1.118   6.082  0.5421  1.3583 -0.0166
 8608SOL    MW434200   4.056   1.141   6.011  0.1388  0.4353 -0.0738
 8609SOL     OW34201   0.754   2.293   3.549 -0.1846 -0.2612 -0.0532
 8609SOL    HW234202   0.696   2.260   3.480 -0.4629  0.0290  0.0411
 8609SOL    HW334203   0.696   2.336   3.611  0.2123  0.7894 -0.3878
 8609SOL    MW434204   0.739   2.294   3.548 -0.1689 -0.0843 -0.0849
 8610SOL     OW34205   1.730   4.536   2.146  0.3468  0.0104 -0.4740
 8610SOL    HW234206   1.781   4.473   2.094  1.7155  0.5263  0.2009
 8610SOL    HW334207   1.781   4.616   2.142 -0.8749  0.8068 -0.4789
 8610SOL    MW434208   1.744   4.538   2.139  0.3662  0.1835 -0.3856
 8611SOL     OW34209   5.053   2.202   2.159  0.0239 -0.3503  0.1971
 8611SOL    HW234210   5.095   2.288   2.157  0.0437 -0.1860  3.0419
 8611SOL    HW334211   4.972   2.216   2.207  1.1222 -2.2597  2.8586
 8611SOL    MW434212   5.048   2.215   2.165  0.1714 -0.5805  0.9236
 8612SOL     OW34213   5.186   1.163   1.513 -0.0414  0.0097 -0.4413
 8612SOL    HW234214   5.246   1.143   1.440 -0.5160 -1.1471 -0.5408
 8612SOL    HW334215   5.103   1.124   1.487 -1.1743  2.4521 -0.7550
 8612SOL    MW434216   5.183   1.155   1.500 -0.2535  0.1793 -0.4958
 8613SOL     OW34217   1.380   0.831   2.837 -0.2382  0.2515 -0.3622
 8613SOL    HW234218   1.404   0.739   2.826 -0.6256  0.1414 -0.2994
 8613SOL    HW334219   1.429   0.860   2.914 -1.6206 -0.4460  0.8120
 8613SOL    MW434220   1.390   0.823   2.846 -0.4717  0.1450 -0.1990
 8614SOL     OW34221   1.309   4.866   1.510 -0.1826 -0.9375 -0.2227
 8614SOL    HW234222   1.283   4.814   1.585 -0.6415 -0.4938 -0.0657
 8614SOL    HW334223   1.231   4.870   1.455 -0.5367  0.5198  0.3194
 8614SOL    MW434224   1.295   4.860   1.512 -0.2898 -0.6867 -0.1305
 8615SOL     OW34225   4.098   4.477   1.052 -0.1453 -0.5819  0.0213
 8615SOL    HW234226   4.042   4.514   1.121  0.0133 -0.3575  0.0334
 8615SOL    HW334227   4.038   4.455   0.982 -0.0345  2.0356 -1.0266
 8615SOL    MW434228   4.083   4.479   1.052 -0.1097 -0.2069 -0.1153
 8616SOL     OW34229   4.823   1.408   0.192  0.3317  0.6090  0.4356
 8616SOL    HW234230   4.832   1.461   0.271  0.8126  1.4903 -0.1979
 8616SOL    HW334231   4.843   1.319   0.220  3.5231  1.3031  0.7342
 8616SOL    MW434232   4.827   1.403   0.206  0.8162  0.8168  0.3914
 8617SOL     OW34233   3.384   6.059   2.700  0.1926  0.1144 -0.1966
 8617SOL    HW234234   3.422   5.975   2.675  0.6247  0.2345  0.0389
 8617SOL    HW334235   3.351   6.046   2.789 -2.9300 -0.8266 -1.3880
 8617SOL    MW434236   3.385   6.046   2.709 -0.1624  0.0061 -0.3227
 8618SOL     OW34237   0.431   4.211   2.846  0.2090  0.1109  0.6500
 8618SOL    HW234238   0.489   4.186   2.774 -0.1738  1.2217 -0.0690
 8618SOL    HW334239   0.381   4.132   2.866 -0.0608 -0.0778 -0.6799
 8618SOL    MW434240   0.432   4.198   2.840  0.1229  0.2326  0.3797
 8619SOL     OW34241   3.642   3.374   5.199  0.1027  0.9812  0.1551
 8619SOL    HW234242   3.673   3.399   5.113  0.9237  0.0508  0.1676
 8619SOL    HW334243   3.633   3.279   5.195 -1.6463  1.0816  0.5235
 8619SOL    MW434244   3.645   3.365   5.187 -0.0198  0.8717  0.2054
 8620SOL     OW34245   1.185   5.905   0.507  0.2269 -0.5264 -0.1104
 8620SOL    HW234246   1.193   5.937   0.417 -0.3500 -1.3747 -0.4816
 8620SOL    HW334247   1.099   5.935   0.535  0.2337 -0.6182  0.0084
 8620SOL    MW434248   1.175   5.913   0.499  0.1517 -0.6505 -0.1437
 8621SOL     OW34249   1.371   3.507   5.132 -0.3663 -0.7091  0.3006
 8621SOL    HW234250   1.452   3.551   5.156 -1.4639  1.8406 -0.3635
 8621SOL    HW334251   1.322   3.499   5.214 -0.7750  0.7648  0.2341
 8621SOL    MW434252   1.375   3.512   5.146 -0.5650 -0.1782  0.2042
 8622SOL     OW34253   2.977   5.610   0.831  0.2022 -0.2087  0.0751
 8622SOL    HW234254   3.022   5.616   0.747 -4.2556  1.3178 -2.5485
 8622SOL    HW334255   2.906   5.547   0.816 -1.1668  0.6105  2.4966
 8622SOL    MW434256   2.974   5.602   0.818 -0.5666  0.1008  0.0484
 8623SOL     OW34257   0.304   4.919   5.693  0.1119 -0.3036  0.1335
 8623SOL    HW234258   0.324   5.012   5.700  0.7483 -0.5575  3.9729
 8623SOL    HW334259   0.390   4.876   5.690 -0.1664 -0.8484 -0.4190
 8623SOL    MW434260   0.318   4.926   5.693  0.1592 -0.4090  0.5672
 8624SOL     OW34261   2.863   1.104   4.255  0.2673 -0.5105  0.1332
 8624SOL    HW234262   2.800   1.176   4.258 -0.0919 -0.7520 -1.2379
 8624SOL    HW334263   2.829   1.039   4.317  0.3612  0.2828  1.0484
 8624SOL    MW434264   2.850   1.105   4.264  0.2323 -0.4377  0.0731
 8625SOL     OW34265   4.810   1.019   3.504  0.1390  0.6516  0.0331
 8625SOL    HW234266   4.790   0.940   3.553 -0.8576  0.7719 -0.1628
 8625SOL    HW334267   4.863   0.988   3.430 -1.3871 -0.0448 -0.8058
 8625SOL    MW434268   4.815   1.005   3.500 -0.1938  0.5756 -0.1034
 8626SOL     OW34269   1.583   1.142   3.204 -0.3626 -0.3381 -0.0622
 8626SOL    HW234270   1.618   1.205   3.140  0.4940 -2.2868 -1.6463
 8626SOL    HW334271   1.656   1.126   3.263 -0.1052 -0.8766 -0.5170
 8626SOL    MW434272   1.597   1.148   3.203 -0.2156 -0.6663 -0.3312
 8627SOL     OW34273   0.813   3.441   6.383 -0.0850  0.0362  0.3811
 8627SOL    HW234274   0.795   3.439   6.289 -2.0944  0.9552  0.7150
 8627SOL    HW334275   0.872   3.516   6.394 -1.1290  0.9420  0.0245
 8627SOL    MW434276   0.819   3.451   6.372 -0.4878  0.2770  0.3781
 8628SOL     OW34277   5.501   0.496   4.597 -0.0814  0.0478  0.0494
 8628SOL    HW234278   5.483   0.526   4.508 -1.7071 -0.9057  0.0250
 8628SOL    HW334279   5.574   0.434   4.587  0.2139  0.4782 -0.5143
 8628SOL    MW434280   5.508   0.492   4.584 -0.2569 -0.0212 -0.0282
 8629SOL     OW34281   4.717   1.475   4.239  0.1118 -0.0103 -0.4374
 8629SOL    HW234282   4.702   1.444   4.328  1.2660  0.9629  0.1192
 8629SOL    HW334283   4.630   1.496   4.206 -0.3687 -0.8053  0.2930
 8629SOL    MW434284   4.704   1.474   4.246  0.2007  0.0132 -0.2676
 8630SOL     OW34285   6.105   0.945   1.079 -0.5635 -0.2138 -0.2415
 8630SOL    HW234286   6.073   1.014   1.137  0.4253  0.3530 -0.3516
 8630SOL    HW334287   6.038   0.937   1.012 -0.6334  0.7326 -0.3005
 8630SOL    MW434288   6.092   0.953   1.078 -0.4422 -0.0142 -0.2638
 8631SOL     OW34289   1.578   1.714   1.884 -0.4246 -0.0182  0.0441
 8631SOL    HW234290   1.558   1.625   1.857  1.4633 -0.4190 -0.2388
 8631SOL    HW334291   1.657   1.736   1.833 -0.7891  1.7686  0.1931
 8631SOL    MW434292   1.586   1.705   1.873 -0.2236  0.1647  0.0265
 8632SOL     OW34293   4.705   5.705   5.629  0.1815  0.2029 -0.3116
 8632SOL    HW234294   4.691   5.679   5.720  0.4982 -1.5239 -0.7176
 8632SOL    HW334295   4.776   5.649   5.598 -1.2420 -0.6889 -2.1857
 8632SOL    MW434296   4.712   5.694   5.637  0.0355 -0.1426 -0.6124
 8633SOL     OW34297   0.956   2.476   3.800 -0.3722 -0.1252  0.5678
 8633SOL    HW234298   0.931   2.396   3.845 -2.2941 -0.1222 -0.3554
 8633SOL    HW334299   0.884   2.537   3.817  0.0187  0.6775 -0.4847
 8633SOL    MW434300   0.943   2.474   3.808 -0.5742 -0.0189  0.3071
 8634SOL     OW34301   3.212   0.918   3.970 -0.0402 -0.1695 -0.6578
 8634SOL    HW234302   3.292   0.921   4.022  0.0642  2.1131 -0.8308
 8634SOL    HW334303   3.141   0.924   4.035 -0.1715 -2.7442 -0.4604
 8634SOL    MW434304   3.213   0.919   3.986 -0.0438 -0.2081 -0.6546
 8635SOL     OW34305   5.328   4.408   5.121 -0.0391  0.3995  0.5120
 8635SOL    HW234306   5.287   4.385   5.037 -0.6332  0.7250  0.7084
 8635SOL    HW334307   5.421   4.417   5.100 -0.2451  0.9394 -0.2103
 8635SOL    MW434308   5.335   4.406   5.107 -0.1447  0.5137  0.4426
 8636SOL     OW34309   2.747   4.537   4.233 -0.6054  0.4318  0.7630
 8636SOL    HW234310   2.834   4.578   4.236  1.7211 -3.9435  2.2709
 8636SOL    HW334311   2.725   4.536   4.140  2.2390 -0.5357  0.0041
 8636SOL    MW434312   2.756   4.543   4.221  0.0768 -0.2731  0.8619
 8637SOL     OW34313   4.490   0.646   0.601 -0.1066  0.1599  0.3109
 8637SOL    HW234314   4.461   0.674   0.514 -0.5806  1.9760  1.0348
 8637SOL    HW334315   4.563   0.586   0.582  0.4143  1.2350 -1.3205
 8637SOL    MW434316   4.496   0.642   0.587 -0.1004  0.5414  0.1912
 8638SOL     OW34317   3.791   5.038   5.257 -0.6632 -0.3851 -0.0495
 8638SOL    HW234318   3.716   5.076   5.302  0.5963  0.3784  1.4774
 8638SOL    HW334319   3.756   5.010   5.172 -2.3219  1.4117 -0.0333
 8638SOL    MW434320   3.776   5.040   5.252 -0.7159 -0.0473  0.1541
 8639SOL     OW34321   1.718   5.964   6.230 -0.0097  0.4553  0.3664
 8639SOL    HW234322   1.623   5.977   6.239  0.1046  1.2671  0.4659
 8639SOL    HW334323   1.738   5.891   6.289 -0.9925 -1.5764 -1.6864
 8639SOL    MW434324   1.708   5.956   6.239 -0.1243  0.2944  0.1087
 8640SOL     OW34325   6.412   3.464   5.563 -0.2062  0.2460 -0.3699
 8640SOL    HW234326   6.322   3.436   5.578  0.1455 -2.1874 -2.2059
 8640SOL    HW334327   6.415   3.554   5.595 -3.2133  0.3318 -0.0741
 8640SOL    MW434328   6.400   3.472   5.569 -0.5566 -0.0637 -0.5731
 8641SOL     OW34329   6.074   4.834   1.478 -0.1607 -0.3524 -0.3329
 8641SOL    HW234330   6.133   4.898   1.438  0.7586 -1.8312 -1.4371
 8641SOL    HW334331   6.089   4.843   1.572 -0.0757  1.0447 -0.4614
 8641SOL    MW434332   6.084   4.844   1.485 -0.0282 -0.3632 -0.4955
 8642SOL     OW34333   1.250   0.205   5.182  0.3550 -0.0259  0.0059
 8642SOL    HW234334   1.298   0.287   5.184 -0.5156  0.5068  2.3148
 8642SOL    HW334335   1.317   0.137   5.182  1.0877  0.6953  0.0271
 8642SOL    MW434336   1.265   0.207   5.182  0.3368  0.1395  0.3133
 8643SOL     OW34337   2.916   4.284   3.892 -0.2822 -0.0739  1.3421
 8643SOL    HW234338   2.862   4.213   3.857  0.5034  0.1386 -0.4502
 8643SOL    HW334339   2.940   4.255   3.979  0.4102 -2.2739  0.4934
 8643SOL    MW434340   2.912   4.271   3.899 -0.0872 -0.3361  0.9936
 8644SOL     OW34341   3.377   6.166   0.710 -0.3451 -0.0724  0.4016
 8644SOL    HW234342   3.383   6.072   0.727  1.6753 -0.4385 -1.8388
 8644SOL    HW334343   3.447   6.204   0.763 -0.0936 -0.0433  0.0492
 8644SOL    MW434344   3.387   6.159   0.719 -0.0454 -0.1169  0.0595
 8645SOL     OW34345   2.853   2.433   5.703 -0.2441 -0.4439  0.0118
 8645SOL    HW234346   2.929   2.381   5.728 -1.0297 -1.8457 -0.3750
 8645SOL    HW334347   2.779   2.373   5.714 -1.3210  0.9080  0.5003
 8645SOL    MW434348   2.853   2.418   5.708 -0.4898 -0.4505  0.0252
 8646SOL     OW34349   4.712   5.419   1.160 -0.0074  0.0217 -0.4926
 8646SOL    HW234350   4.758   5.415   1.245 -0.5944  1.8851 -0.0498
 8646SOL    HW334351   4.691   5.328   1.141  2.7604 -0.8065 -0.1218
 8646SOL    MW434352   4.716   5.406   1.169  0.2803  0.1582 -0.3852
 8647SOL     OW34353   2.983   6.472   5.505  0.0396  0.3086 -0.1643
 8647SOL    HW234354   2.936   6.511   5.431 -0.6340  0.5341  0.3724
 8647SOL    HW334355   2.923   6.479   5.578  0.2042 -1.0650  0.1297
 8647SOL    MW434356   2.969   6.478   5.505 -0.0275  0.1571 -0.0547
 8648SOL     OW34357   0.836   1.102   4.446  0.0347 -0.1487 -0.6397
 8648SOL    HW234358   0.892   1.025   4.456 -0.0848 -0.3112 -1.2237
 8648SOL    HW334359   0.799   1.094   4.359 -0.8117  0.0274 -0.3053
 8648SOL    MW434360   0.839   1.091   4.436 -0.0928 -0.1469 -0.6726
 8649SOL     OW34361   3.398   2.510   2.726  0.0921 -0.1020 -0.2018
 8649SOL    HW234362   3.344   2.440   2.762 -0.4153 -0.0374 -0.8060
 8649SOL    HW334363   3.365   2.590   2.766 -1.6319  0.1794 -2.0252
 8649SOL    MW434364   3.386   2.511   2.736 -0.2023 -0.0564 -0.5221
 8650SOL     OW34365   4.375   2.326   0.483  0.4203  0.3802  0.4049
 8650SOL    HW234366   4.331   2.278   0.414  0.3950  1.3010 -0.2260
 8650SOL    HW334367   4.311   2.331   0.554  0.9291 -1.8201  1.1106
 8650SOL    MW434368   4.361   2.320   0.484  0.4841  0.2114  0.4148
 8651SOL     OW34369   5.193   0.924   2.901 -0.3539  0.0503 -0.5887
 8651SOL    HW234370   5.127   0.994   2.905  0.0034  0.3605  0.0680
 8651SOL    HW334371   5.159   0.863   2.835 -1.7384 -0.2461  0.3513
 8651SOL    MW434372   5.180   0.925   2.893 -0.4894  0.0521 -0.3780
 8652SOL     OW34373   4.464   3.176   5.753 -0.1672 -0.2014  0.3150
 8652SOL    HW234374   4.508   3.120   5.818 -1.0406 -0.2728  0.8621
 8652SOL    HW334375   4.515   3.165   5.673  0.1771 -1.1153  0.6500
 8652SOL    MW434376   4.477   3.167   5.751 -0.2370 -0.3314  0.4314
 8653SOL     OW34377   5.403   3.068   1.787  0.5674 -0.5621 -0.5261
 8653SOL    HW234378   5.456   3.063   1.866 -0.5425  1.1768  0.3830
 8653SOL    HW334379   5.395   2.977   1.758  1.2343 -1.2101  1.1990
 8653SOL    MW434380   5.409   3.055   1.794  0.5090 -0.4182 -0.1785
 8654SOL     OW34381   6.420   6.097   3.551  0.2378 -0.3773 -0.7635
 8654SOL    HW234382   6.482   6.114   3.622  0.4488 -1.1954 -0.7536
 8654SOL    HW334383   6.474   6.088   3.473  0.0157  0.3741 -1.0163
 8654SOL    MW434384   6.435   6.098   3.550  0.2363 -0.3861 -0.7955
 8655SOL     OW34385   5.686   0.500   4.362  0.3814 -0.2649  0.3440
 8655SOL    HW234386   5.657   0.417   4.323  0.8476 -0.6956  0.8955
 8655SOL    HW334387   5.632   0.567   4.318  0.8504 -0.7276 -0.9941
 8655SOL    MW434388   5.675   0.498   4.351  0.5048 -0.3828  0.2402
 8656SOL     OW34389   5.229   4.545   2.176 -0.0662  0.9344  0.0108
 8656SOL    HW234390   5.306   4.602   2.177 -0.5599  1.6283  1.0584
 8656SOL    HW334391   5.177   4.576   2.102  0.6707  0.4396 -0.7213
 8656SOL    MW434392   5.232   4.557   2.167 -0.0341  0.9606  0.0524
 8657SOL     OW34393   3.377   2.391   4.638  0.2948  0.1090 -0.5163
 8657SOL    HW234394   3.401   2.336   4.714  1.0220  0.0515 -0.7736
 8657SOL    HW334395   3.461   2.416   4.600  0.0021  1.9627 -0.0249
 8657SOL    MW434396   3.392   2.387   4.643  0.3522  0.3460 -0.4854
 8658SOL     OW34397   5.538   5.766   1.313 -0.1643  0.8762  0.0338
 8658SOL    HW234398   5.594   5.810   1.249 -0.4457 -0.3068 -1.0806
 8658SOL    HW334399   5.584   5.684   1.332 -2.0983 -0.8047 -2.0015
 8658SOL    MW434400   5.552   5.761   1.307 -0.4566  0.4984 -0.3818
 8659SOL     OW34401   4.444   1.861   1.030 -0.2180  0.5652 -0.0814
 8659SOL    HW234402   4.404   1.855   1.116  1.7549 -0.3207  0.8528
 8659SOL    HW334403   4.509   1.930   1.038 -0.0637  0.5274 -0.8869
 8659SOL    MW434404   4.447   1.869   1.042  0.0627  0.4433 -0.0645
 8660SOL     OW34405   5.109   3.795   3.922  0.1500  0.0909 -0.6520
 8660SOL    HW234406   5.180   3.856   3.903  2.4779 -1.5975  1.8924
 8660SOL    HW334407   5.056   3.839   3.988  1.5697 -0.3492  0.8551
 8660SOL    MW434408   5.112   3.809   3.928  0.6444 -0.1899 -0.1174
 8661SOL     OW34409   1.713   3.316   2.970 -1.1625 -0.1677  0.3338
 8661SOL    HW234410   1.627   3.345   3.000 -1.0960 -0.5210  0.8848
 8661SOL    HW334411   1.772   3.334   3.043 -0.9687 -0.9180  0.3716
 8661SOL    MW434412   1.709   3.322   2.983 -1.1282 -0.3133  0.4115
 8662SOL     OW34413   4.678   0.527   1.147 -0.2718  0.1481 -0.4704
 8662SOL    HW234414   4.653   0.509   1.238 -0.1041  0.5681 -0.3413
 8662SOL    HW334415   4.602   0.499   1.096  0.1682 -1.4398 -0.3299
 8662SOL    MW434416   4.664   0.521   1.152 -0.1916 -0.0060 -0.4348
 8663SOL     OW34417   3.832   1.937   0.811 -0.5633 -0.0314  0.1079
 8663SOL    HW234418   3.884   1.865   0.774 -1.9121 -0.6714 -0.6265
 8663SOL    HW334419   3.883   1.968   0.886  1.2799 -0.0526 -1.0675
 8663SOL    MW434420   3.845   1.932   0.816 -0.4981 -0.1187 -0.1441
 8664SOL     OW34421   1.161   1.473   3.976  0.6814 -0.5512 -0.1415
 8664SOL    HW234422   1.166   1.431   3.890  0.9670  0.9078 -0.8840
 8664SOL    HW334423   1.252   1.475   4.007  0.6919 -0.3512 -0.1822
 8664SOL    MW434424   1.174   1.468   3.969  0.7204 -0.3323 -0.2449
 8665SOL     OW34425   0.424   3.152   1.102 -0.5769  0.0839 -0.0270
 8665SOL    HW234426   0.496   3.198   1.146  0.1312  0.0200 -1.0844
 8665SOL    HW334427   0.414   3.199   1.019  1.1753 -2.5358 -1.8396
 8665SOL    MW434428   0.432   3.164   1.097 -0.2523 -0.2702 -0.4057
 8666SOL     OW34429   2.900   2.234   1.874  0.5739  0.1436  0.1987
 8666SOL    HW234430   2.930   2.235   1.964 -2.5405  0.7109  1.3654
 8666SOL    HW334431   2.895   2.327   1.849  1.5073 -0.0097 -0.6274
 8666SOL    MW434432   2.903   2.247   1.882  0.2861  0.1982  0.2436
 8667SOL     OW34433   0.557   1.381   5.614  0.3997 -0.1709 -0.3202
 8667SOL    HW234434   0.523   1.296   5.589 -1.2455 -0.0252  1.2277
 8667SOL    HW334435   0.652   1.369   5.617  0.2843 -1.5549 -1.4025
 8667SOL    MW434436   0.565   1.368   5.611  0.1674 -0.3343 -0.2588
 8668SOL     OW34437   5.868   5.606   4.206 -0.0274  0.2538 -0.7696
 8668SOL    HW234438   5.863   5.664   4.130 -1.3499  0.8912 -0.2211
 8668SOL    HW334439   5.887   5.520   4.169 -2.1324  0.2583 -1.9797
 8668SOL    MW434440   5.870   5.603   4.191 -0.4796  0.3385 -0.8569
 8669SOL     OW34441   0.294   5.490   2.273  0.4376  0.2109 -0.7728
 8669SOL    HW234442   0.215   5.504   2.325  0.7353  0.0578 -0.2669
 8669SOL    HW334443   0.312   5.396   2.281 -1.0068 -0.3863 -3.3502
 8669SOL    MW434444   0.286   5.479   2.281  0.2863  0.1119 -1.0461
 8670SOL     OW34445   3.570   1.315   6.200  0.4844  0.4838 -0.0811
 8670SOL    HW234446   3.481   1.347   6.186  0.8517  1.3846 -0.4471
 8670SOL    HW334447   3.618   1.391   6.232  1.5697  0.5556 -1.7458
 8670SOL    MW434448   3.565   1.329   6.202  0.6760  0.6121 -0.3490
 8671SOL     OW34449   0.072   4.973   6.248  0.7026 -0.1791 -0.5831
 8671SOL    HW234450   0.159   5.008   6.228  1.7500 -1.5679  1.2832
 8671SOL    HW334451   0.055   5.002   6.337 -0.3975 -0.6300 -0.6352
 8671SOL    MW434452   0.081   4.982   6.257  0.6956 -0.4218 -0.3438
 8672SOL     OW34453   4.305   5.301   1.387  0.5915  0.1498  0.3004
 8672SOL    HW234454   4.277   5.392   1.387 -0.7884 -0.1944  2.4577
 8672SOL    HW334455   4.226   5.252   1.413  1.3455 -1.6356 -0.6181
 8672SOL    MW434456   4.291   5.306   1.391  0.5089 -0.1312  0.4639
 8673SOL     OW34457   1.196   0.690   1.092  0.1129  0.1090 -0.0112
 8673SOL    HW234458   1.212   0.613   1.147 -2.1093 -2.2923 -2.4284
 8673SOL    HW334459   1.267   0.688   1.027 -1.3765 -1.6776 -1.7183
 8673SOL    MW434460   1.208   0.679   1.091 -0.3768 -0.4435 -0.5554
 8674SOL     OW34461   3.796   4.634   3.017 -0.0033  0.2654 -0.3771
 8674SOL    HW234462   3.758   4.568   3.076  0.7538  0.7126  0.6434
 8674SOL    HW334463   3.773   4.604   2.929  1.6731 -2.2568 -0.0595
 8674SOL    MW434464   3.788   4.621   3.013  0.3178 -0.0084 -0.2005
 8675SOL     OW34465   2.955   0.868   0.215  0.0706  0.1487 -0.3207
 8675SOL    HW234466   2.962   0.963   0.221 -2.8747  0.5402 -1.4220
 8675SOL    HW334467   2.997   0.836   0.295 -0.2377  2.4609  0.8499
 8675SOL    MW434468   2.962   0.876   0.227 -0.3587  0.5055 -0.3115
 8676SOL     OW34469   1.683   0.468   1.233  0.2459  0.5357 -0.6440
 8676SOL    HW234470   1.601   0.436   1.195  1.4155 -0.7479 -2.2556
 8676SOL    HW334471   1.664   0.480   1.326 -1.4941 -0.6732 -0.7914
 8676SOL    MW434472   1.670   0.465   1.240  0.1707  0.2069 -0.8761
 8677SOL     OW34473   5.416   3.205   3.055 -0.2496  0.2364  0.3037
 8677SOL    HW234474   5.424   3.229   2.963 -1.9696 -0.3709 -0.0517
 8677SOL    HW334475   5.324   3.224   3.076 -0.9824 -3.2162  0.7799
 8677SOL    MW434476   5.405   3.211   3.046 -0.5732 -0.2993  0.3196
 8678SOL     OW34477   6.286   5.660   1.630  0.2349  0.4191  0.3653
 8678SOL    HW234478   6.342   5.734   1.654  1.8071 -0.7318  0.4566
 8678SOL    HW334479   6.273   5.612   1.712 -1.4229  0.9866  0.4608
 8678SOL    MW434480   6.292   5.663   1.644  0.2236  0.3421  0.3899
 8679SOL     OW34481   1.137   5.752   5.044 -0.3399 -0.3763 -0.1705
 8679SOL    HW234482   1.105   5.695   4.974 -1.2630 -0.1747  0.0749
 8679SOL    HW334483   1.125   5.700   5.124 -1.4629  0.2523  0.0894
 8679SOL    MW434484   1.131   5.737   5.045 -0.6099 -0.2667 -0.1039
 8680SOL     OW34485   4.545   3.657   3.417 -0.0238 -0.2636 -0.0748
 8680SOL    HW234486   4.549   3.639   3.511  1.6193  0.4397  0.0054
 8680SOL    HW334487   4.524   3.572   3.378 -2.5887 -0.2213  1.0142
 8680SOL    MW434488   4.542   3.643   3.425 -0.1454 -0.1653  0.0794
 8681SOL     OW34489   1.553   2.926   3.277 -0.1851  0.1608  0.1561
 8681SOL    HW234490   1.478   2.980   3.252 -0.8108 -1.3480 -1.5016
 8681SOL    HW334491   1.621   2.949   3.213  0.4201  0.7601  0.9990
 8681SOL    MW434492   1.552   2.936   3.265 -0.1878  0.0408  0.0486
 8682SOL     OW34493   5.313   1.852   5.940  0.1137 -0.5148  0.1845
 8682SOL    HW234494   5.354   1.938   5.935  1.1170 -0.9302  0.9985
 8682SOL    HW334495   5.305   1.824   5.849 -1.8379  1.1563 -0.2156
 8682SOL    MW434496   5.317   1.860   5.927 -0.0114 -0.3491  0.2391
 8683SOL     OW34497   0.138   1.412   0.400 -0.4438 -0.6127  0.1305
 8683SOL    HW234498   0.178   1.339   0.353 -0.7668  1.3657 -3.5324
 8683SOL    HW334499   0.211   1.472   0.417 -0.7326 -0.1339 -0.2781
 8683SOL    MW434500   0.153   1.410   0.396 -0.5246 -0.2885 -0.4067
 8684SOL     OW34501   2.122   4.874   2.190  0.1894 -0.4345 -0.2634
 8684SOL    HW234502   2.168   4.920   2.119 -1.2360  0.6812 -0.5161
 8684SOL    HW334503   2.175   4.796   2.205  0.5653 -0.7125 -2.5500
 8684SOL    MW434504   2.135   4.870   2.182  0.0509 -0.3239 -0.5984
 8685SOL     OW34505   2.754   5.325   4.771 -1.0963 -0.3473 -0.5595
 8685SOL    HW234506   2.708   5.403   4.739 -1.6648 -0.5773 -0.3224
 8685SOL    HW334507   2.725   5.316   4.862  0.4164  0.2354  0.0097
 8685SOL    MW434508   2.744   5.334   4.779 -0.9717 -0.3008 -0.4532
 8686SOL     OW34509   1.961   0.337   3.072 -0.4717  0.4286  0.6765
 8686SOL    HW234510   2.040   0.285   3.060 -0.0316  0.5335  2.8069
 8686SOL    HW334511   1.978   0.418   3.023  0.4817  0.2104  0.6344
 8686SOL    MW434512   1.973   0.341   3.064 -0.2878  0.4136  0.9521
 8687SOL     OW34513   1.965   0.149   6.368 -0.4226  0.6593 -0.3630
 8687SOL    HW234514   1.965   0.199   6.287 -0.7903 -0.1766 -0.8827
 8687SOL    HW334515   1.879   0.108   6.371 -0.3388  0.5233  0.3574
 8687SOL    MW434516   1.954   0.150   6.358 -0.4600  0.5310 -0.3365
 8688SOL     OW34517   5.642   0.303   4.159 -0.5747 -0.0172 -0.0365
 8688SOL    HW234518   5.686   0.329   4.078 -0.6021 -0.0829 -0.0719
 8688SOL    HW334519   5.659   0.210   4.167 -0.2434  0.0675  0.2364
 8688SOL    MW434520   5.650   0.294   4.149 -0.5346 -0.0147 -0.0051
 8689SOL     OW34521   4.824   4.776   3.627  0.0688  0.1444  0.2713
 8689SOL    HW234522   4.866   4.815   3.703 -1.1814  0.7407  0.6743
 8689SOL    HW334523   4.806   4.850   3.568 -1.5203  0.0976  0.6561
 8689SOL    MW434524   4.827   4.791   3.629 -0.3058  0.2169  0.3753
 8690SOL     OW34525   0.722   3.603   3.916  0.2928 -0.2195  0.1922
 8690SOL    HW234526   0.776   3.677   3.943  1.4237 -1.1889  0.6459
 8690SOL    HW334527   0.724   3.605   3.820 -1.6538  1.7119  0.0902
 8690SOL    MW434528   0.729   3.613   3.907  0.1852 -0.0926  0.2386
 8691SOL     OW34529   4.608   4.251   4.156 -0.1425 -0.1494 -0.3038
 8691SOL    HW234530   4.592   4.345   4.169 -0.1792 -0.2747  0.6336
 8691SOL    HW334531   4.520   4.212   4.153 -0.1226 -0.1806 -0.5378
 8691SOL    MW434532   4.594   4.258   4.157 -0.1448 -0.1701 -0.2110
 8692SOL     OW34533   0.568   1.354   4.214  0.0100  0.1756  0.2214
 8692SOL    HW234534   0.591   1.447   4.207 -1.3375  0.4901 -0.2925
 8692SOL    HW334535   0.651   1.310   4.231  0.5399  1.5853  1.5620
 8692SOL    MW434536   0.582   1.361   4.216 -0.0979  0.4031  0.3305
 8693SOL     OW34537   4.188   0.511   4.842  0.4824 -0.2325 -0.0784
 8693SOL    HW234538   4.230   0.590   4.809  0.2911  0.6265  1.6387
 8693SOL    HW334539   4.209   0.509   4.935 -0.9003 -1.3140  0.2507
 8693SOL    MW434540   4.196   0.521   4.850  0.2747 -0.2618  0.1916
 8694SOL     OW34541   3.245   5.279   3.334 -0.2446 -0.0962 -0.0043
 8694SOL    HW234542   3.245   5.366   3.293  1.7138  1.2304  2.5817
 8694SOL    HW334543   3.336   5.249   3.328 -0.7784 -1.7854 -0.3304
 8694SOL    MW434544   3.257   5.287   3.328 -0.0567 -0.1440  0.2939
 8695SOL     OW34545   4.593   1.266   5.252 -0.2246 -0.0423  0.4016
 8695SOL    HW234546   4.522   1.325   5.228  0.5462  0.5614 -0.4720
 8695SOL    HW334547   4.573   1.240   5.342 -2.7397 -1.6858 -0.5268
 8695SOL    MW434548   4.581   1.270   5.261 -0.4548 -0.1795  0.1638
 8696SOL     OW34549   5.776   4.586   3.724 -0.2579 -0.4239  0.3683
 8696SOL    HW234550   5.848   4.566   3.665  2.0513 -0.8528  3.1088
 8696SOL    HW334551   5.751   4.676   3.701  2.0403  0.2246  0.1251
 8696SOL    MW434552   5.782   4.595   3.713  0.3500 -0.3950  0.6978
 8697SOL     OW34553   0.301   4.790   1.871 -0.0411  0.7570  0.0137
 8697SOL    HW234554   0.217   4.782   1.825 -0.8661  2.2996  1.1577
 8697SOL    HW334555   0.362   4.738   1.818 -1.5715  0.0679 -1.1705
 8697SOL    MW434556   0.298   4.782   1.858 -0.3519  0.8696  0.0084
 8698SOL     OW34557   3.286   3.449   2.903 -0.0526  0.1446  0.1947
 8698SOL    HW234558   3.330   3.515   2.956  0.8320 -0.6250  0.4450
 8698SOL    HW334559   3.209   3.494   2.867  0.3302  1.1911  0.6552
 8698SOL    MW434560   3.282   3.464   2.905  0.1146  0.1812  0.2885
 8699SOL     OW34561   2.734   5.870   0.661 -0.1917  0.6317  0.2334
 8699SOL    HW234562   2.808   5.913   0.704 -0.7287  2.1714 -0.3404
 8699SOL    HW334563   2.773   5.823   0.587  0.6326 -1.4066  1.8524
 8699SOL    MW434564   2.749   5.869   0.657 -0.1538  0.5659  0.3713
 8700SOL     OW34565   1.799   0.088   1.851 -0.2555  0.1580 -0.8838
 8700SOL    HW234566   1.739   0.029   1.896 -1.2218  0.7893 -1.3060
 8700SOL    HW334567   1.884   0.045   1.857 -0.5839 -0.3659  0.4539
 8700SOL    MW434568   1.802   0.075   1.858 -0.4263  0.1722 -0.7631
 8701SOL     OW34569   4.840   3.123   6.384 -0.0437 -0.5574  0.3192
 8701SOL    HW234570   4.877   3.210   6.401  0.7626 -0.7449 -0.4231
 8701SOL    HW334571   4.903   3.062   6.422 -0.2928 -0.8346  0.2877
 8701SOL    MW434572   4.853   3.127   6.391  0.0298 -0.6187  0.2171
 8702SOL     OW34573   5.588   0.581   5.157  0.2452  0.1363  0.6554
 8702SOL    HW234574   5.609   0.500   5.111  0.8101 -0.0043  1.1582
 8702SOL    HW334575   5.653   0.644   5.126 -0.7115  0.6472 -0.3848
 8702SOL    MW434576   5.599   0.579   5.147  0.1935  0.1852  0.5845
 8703SOL     OW34577   0.605   3.942   1.039 -0.5832  0.2790 -0.2911
 8703SOL    HW234578   0.550   3.897   0.976  0.6377  0.3120 -1.4118
 8703SOL    HW334579   0.635   3.873   1.099 -1.6091  0.2235  0.1793
 8703SOL    MW434580   0.602   3.927   1.039 -0.5575  0.2761 -0.3769
 8704SOL     OW34581   5.256   5.329   2.228 -0.1688 -0.2066  0.1787
 8704SOL    HW234582   5.199   5.309   2.153  0.4179  1.5061 -0.7751
 8704SOL    HW334583   5.230   5.266   2.295 -4.2980  1.4642  0.3950
 8704SOL    MW434584   5.245   5.318   2.227 -0.6362  0.2398  0.0814
 8705SOL     OW34585   5.528   0.359   2.069  0.4721 -0.1803  0.1675
 8705SOL    HW234586   5.599   0.313   2.114 -0.2100 -1.0705  0.3620
 8705SOL    HW334587   5.463   0.374   2.137 -1.6011 -3.5584 -0.8282
 8705SOL    MW434588   5.529   0.355   2.084  0.1085 -0.7434  0.0618
 8706SOL     OW34589   2.586   1.962   0.076 -0.1307  0.2193  0.0090
 8706SOL    HW234590   2.523   2.023   0.114 -0.5578 -0.4243  0.3510
 8706SOL    HW334591   2.541   1.878   0.076  0.8438 -0.3224  0.5633
 8706SOL    MW434592   2.572   1.959   0.081 -0.0585  0.0629  0.1273
 8707SOL     OW34593   0.044   5.430   2.782  0.2060 -0.1866  0.2671
 8707SOL    HW234594   0.070   5.519   2.759 -0.2324 -0.3835 -1.0640
 8707SOL    HW334595   0.118   5.375   2.754 -0.9727 -0.6000 -2.2942
 8707SOL    MW434596   0.057   5.435   2.775 -0.0073 -0.2671 -0.2464
 8708SOL     OW34597   0.271   5.381   4.865  0.1456  0.3825 -0.1091
 8708SOL    HW234598   0.335   5.452   4.868  0.3236  0.2043  0.2785
 8708SOL    HW334599   0.320   5.303   4.889  0.3380 -0.1606 -2.0847
 8708SOL    MW434600   0.286   5.380   4.868  0.1945  0.2874 -0.3186
 8709SOL     OW34601   3.258   4.742   2.634  0.0789  0.0380 -0.1121
 8709SOL    HW234602   3.215   4.807   2.578 -0.7721  1.4517  2.0580
 8709SOL    HW334603   3.215   4.751   2.719  2.1925 -1.0900  1.1675
 8709SOL    MW434604   3.247   4.751   2.638  0.2455  0.0757  0.3431
 8710SOL     OW34605   1.100   4.411   0.426  0.1142 -0.1425 -0.0308
 8710SOL    HW234606   1.025   4.420   0.367  0.7273  0.0865 -0.7996
 8710SOL    HW334607   1.170   4.461   0.383  0.6419 -0.1746  0.7806
 8710SOL    MW434608   1.099   4.419   0.412  0.2647 -0.1165 -0.0252
 8711SOL     OW34609   3.872   1.345   0.089 -0.0695 -0.5209  0.0083
 8711SOL    HW234610   3.778   1.361   0.096 -0.0029  0.5734 -1.1183
 8711SOL    HW334611   3.899   1.318   0.176 -1.3304 -0.3084  0.4829
 8711SOL    MW434612   3.863   1.343   0.101 -0.2270 -0.3485 -0.0777
 8712SOL     OW34613   4.000   6.292   3.092 -0.5035 -0.2328  0.2816
 8712SOL    HW234614   3.974   6.200   3.103 -0.1336 -0.5554 -1.2895
 8712SOL    HW334615   3.919   6.341   3.106 -0.5009 -0.6820  2.1715
 8712SOL    MW434616   3.986   6.286   3.095 -0.4544 -0.3346  0.3237
 8713SOL     OW34617   1.688   0.121   3.988 -0.3034  0.4498  0.5376
 8713SOL    HW234618   1.594   0.126   3.968 -0.4507  0.0608  1.1004
 8713SOL    HW334619   1.711   0.031   3.968 -0.0559  0.5369  0.4339
 8713SOL    MW434620   1.678   0.110   3.983 -0.2902  0.4100  0.5981
 8714SOL     OW34621   6.154   4.334   0.065  0.2120  0.0710 -0.3793
 8714SOL    HW234622   6.183   4.346   0.156  1.4155 -2.0067 -0.4318
 8714SOL    HW334623   6.064   4.365   0.064  0.3876  0.7353  1.3681
 8714SOL    MW434624   6.146   4.340   0.077  0.3939 -0.1154 -0.1557
 8715SOL     OW34625   5.166   2.447   1.819 -0.2208  0.7170  0.7272
 8715SOL    HW234626   5.097   2.382   1.830 -0.0967  0.3586 -0.4883
 8715SOL    HW334627   5.173   2.489   1.904 -1.1083 -0.0648  1.2021
 8715SOL    MW434628   5.158   2.444   1.832 -0.3215  0.5666  0.6295
 8716SOL     OW34629   5.247   0.890   5.497  0.4185 -0.8175  0.7054
 8716SOL    HW234630   5.223   0.850   5.413 -1.6537  1.1201  0.2696
 8716SOL    HW334631   5.256   0.983   5.478 -0.2834 -0.2930  2.6384
 8716SOL    MW434632   5.245   0.897   5.483  0.0525 -0.4926  0.9030
 8717SOL     OW34633   6.331   5.153   2.920  0.0757 -0.5451  0.0076
 8717SOL    HW234634   6.279   5.232   2.908 -1.0349 -1.1270  0.7697
 8717SOL    HW334635   6.274   5.082   2.890  0.6154 -1.1654  0.4069
 8717SOL    MW434636   6.317   5.154   2.915  0.0004 -0.7037  0.1608
 8718SOL     OW34637   4.272   2.956   1.971  0.0304 -0.3595 -0.1162
 8718SOL    HW234638   4.328   3.027   2.001 -1.2365  0.3433  0.6701
 8718SOL    HW334639   4.183   2.988   1.985 -0.5792 -2.2583  0.6178
 8718SOL    MW434640   4.268   2.970   1.977 -0.2172 -0.5173  0.0844
 8719SOL     OW34641   2.222   3.304   0.150  0.1687  0.1546 -0.8824
 8719SOL    HW234642   2.197   3.318   0.241 -1.4123 -0.5396 -1.1730
 8719SOL    HW334643   2.166   3.363   0.100  0.4408 -0.0624 -1.4570
 8719SOL    MW434644   2.211   3.313   0.155 -0.0040  0.0344 -0.9966
 8720SOL     OW34645   0.259   4.579   1.478  0.5961 -0.5226 -0.0418
 8720SOL    HW234646   0.196   4.534   1.533  0.2212  0.1328  0.0744
 8720SOL    HW334647   0.247   4.542   1.391  0.0879 -0.4299 -0.0090
 8720SOL    MW434648   0.249   4.568   1.474  0.4796 -0.4239 -0.0221
 8721SOL     OW34649   0.786   0.066   2.563 -0.0887 -0.2126 -0.6311
 8721SOL    HW234650   0.864   0.035   2.611  0.5047  1.2445 -0.5990
 8721SOL    HW334651   0.787   0.161   2.576  0.2468  0.2931 -3.7476
 8721SOL    MW434652   0.797   0.075   2.571  0.0339  0.0464 -1.0381
 8722SOL     OW34653   0.478   1.568   4.891  0.0322  0.0877 -0.4947
 8722SOL    HW234654   0.439   1.480   4.890 -1.3459  0.6675 -0.5848
 8722SOL    HW334655   0.407   1.625   4.921  0.8345  1.2039 -0.6632
 8722SOL    MW434656   0.463   1.564   4.894 -0.0437  0.3114 -0.5288
 8723SOL     OW34657   0.142   3.335   6.440 -0.3029 -0.0169 -0.5191
 8723SOL    HW234658   0.183   3.375   6.517  0.4598 -0.9466 -0.4236
 8723SOL    HW334659   0.215   3.295   6.392 -0.5226  1.8683 -2.5824
 8723SOL    MW434660   0.157   3.335   6.444 -0.2313  0.1092 -0.7787
 8724SOL     OW34661   2.250   3.870   3.215  0.3861  0.0124 -1.0631
 8724SOL    HW234662   2.316   3.931   3.181  1.4598 -0.7951 -0.4573
 8724SOL    HW334663   2.202   3.841   3.136  1.0110  0.2951 -1.5554
 8724SOL    MW434664   2.252   3.874   3.200  0.6102 -0.0569 -1.0481
 8725SOL     OW34665   2.938   5.134   5.732 -0.0254  0.3449  0.4801
 8725SOL    HW234666   2.922   5.088   5.650  2.8034  1.0303 -0.5812
 8725SOL    HW334667   2.871   5.101   5.792 -1.8807 -0.5616 -1.9128
 8725SOL    MW434668   2.927   5.124   5.729  0.1031  0.3157  0.0244
 8726SOL     OW34669   3.872   0.521   2.071 -0.3424 -0.3058  1.0924
 8726SOL    HW234670   3.824   0.587   2.020 -0.4789 -0.5600  0.8867
 8726SOL    HW334671   3.858   0.440   2.023 -0.2347 -0.4980  1.3851
 8726SOL    MW434672   3.864   0.519   2.058 -0.3462 -0.3647  1.1039
 8727SOL     OW34673   4.880   4.691   5.646 -0.1267  0.1312  0.9724
 8727SOL    HW234674   4.946   4.738   5.596 -2.7372  1.8129 -1.1816
 8727SOL    HW334675   4.892   4.723   5.736  0.9167  1.6869  0.3314
 8727SOL    MW434676   4.890   4.702   5.652 -0.3335  0.5583  0.6036
 8728SOL     OW34677   4.140   3.466   3.271 -0.9041  0.3473 -0.2149
 8728SOL    HW234678   4.055   3.422   3.271 -0.5282 -0.3943 -0.2011
 8728SOL    HW334679   4.132   3.533   3.339 -0.0157 -2.6885  3.2479
 8728SOL    MW434680   4.128   3.469   3.280 -0.7372 -0.1511  0.2438
 8729SOL     OW34681   3.787   3.312   4.420  0.6633  0.5199 -0.2992
 8729SOL    HW234682   3.823   3.380   4.363  0.8639  0.7829  0.1366
 8729SOL    HW334683   3.864   3.264   4.451  0.7141  1.5469  1.2237
 8729SOL    MW434684   3.802   3.314   4.416  0.6965  0.6901 -0.0408
 8730SOL     OW34685   1.752   4.954   3.535 -0.0972 -0.1333 -0.7094
 8730SOL    HW234686   1.672   4.991   3.496 -0.1485  1.4813  0.7962
 8730SOL    HW334687   1.804   4.926   3.459 -1.3444  0.3681 -1.8021
 8730SOL    MW434688   1.748   4.955   3.520 -0.2685  0.1459 -0.6549
 8731SOL     OW34689   0.505   0.100   4.949  0.0716  0.0450  0.3427
 8731SOL    HW234690   0.560   0.153   4.892  0.0576  0.0821  0.3639
 8731SOL    HW334691   0.420   0.099   4.906 -0.9408  2.8569  1.9876
 8731SOL    MW434692   0.501   0.107   4.936 -0.0638  0.4209  0.5625
 8732SOL     OW34693   1.732   1.841   5.434 -0.2679  0.1257  0.2398
 8732SOL    HW234694   1.791   1.906   5.397 -1.6557  2.5510  2.0007
 8732SOL    HW334695   1.648   1.885   5.441 -1.4958 -2.1251  0.8675
 8732SOL    MW434696   1.729   1.855   5.430 -0.6130  0.1487  0.5550
 8733SOL     OW34697   5.855   5.599   0.775 -0.1651 -0.0548  0.1728
 8733SOL    HW234698   5.873   5.506   0.786  0.1088 -0.1635 -1.0121
 8733SOL    HW334699   5.939   5.642   0.790  0.1818 -0.1934 -1.1894
 8733SOL    MW434700   5.868   5.593   0.778 -0.0832 -0.0874 -0.1633
 8734SOL     OW34701   0.075   4.739   1.680  0.5892  0.2161  0.5352
 8734SOL    HW234702   0.087   4.832   1.662 -0.3973 -0.0432 -1.8643
 8734SOL    HW334703   0.094   4.696   1.597 -1.3809 -1.4798  0.8788
 8734SOL    MW434704   0.079   4.745   1.667  0.1992 -0.0418  0.2640
 8735SOL     OW34705   0.915   3.385   5.319 -0.0939 -0.4609  0.5546
 8735SOL    HW234706   0.938   3.444   5.390 -0.4108  0.2950  0.0440
 8735SOL    HW334707   0.937   3.433   5.239 -2.4830 -0.0708  0.0578
 8735SOL    MW434708   0.921   3.399   5.318 -0.4509 -0.3097  0.4217
 8736SOL     OW34709   0.341   4.719   6.354 -0.2193 -0.3990  0.0085
 8736SOL    HW234710   0.296   4.671   6.285 -0.3403 -2.0601  1.1987
 8736SOL    HW334711   0.404   4.657   6.390 -0.5501  0.2257  1.7577
 8736SOL    MW434712   0.343   4.705   6.350 -0.2789 -0.5357  0.3963
 8737SOL     OW34713   0.285   1.996   1.108 -0.3610 -0.6436 -1.3253
 8737SOL    HW234714   0.292   2.067   1.043  1.5125  0.2959 -0.1843
 8737SOL    HW334715   0.211   2.022   1.163 -0.1271  0.0873 -1.3386
 8737SOL    MW434716   0.276   2.009   1.107 -0.0830 -0.4232 -1.1765
 8738SOL     OW34717   0.990   5.490   3.261  0.1980 -0.1865  0.5456
 8738SOL    HW234718   1.026   5.402   3.269 -0.7991 -0.7363 -0.6308
 8738SOL    HW334719   0.895   5.478   3.266  0.0248  0.7257 -0.1913
 8738SOL    MW434720   0.982   5.477   3.263  0.0436 -0.1387  0.2932
 8739SOL     OW34721   1.436   6.236   3.966  0.4247  1.0510 -0.1802
 8739SOL    HW234722   1.387   6.154   3.963 -2.0459  2.4104  0.2089
 8739SOL    HW334723   1.445   6.255   4.059 -1.4103  2.4860 -0.2447
 8739SOL    MW434724   1.431   6.227   3.978 -0.1434  1.4197 -0.1374
 8740SOL     OW34725   2.487   5.946   0.608 -0.0890  0.2081 -0.2781
 8740SOL    HW234726   2.580   5.931   0.621  0.2294  2.8302  1.0197
 8740SOL    HW334727   2.447   5.927   0.693 -0.4216  1.2033 -0.2036
 8740SOL    MW434728   2.494   5.941   0.621 -0.0909  0.6854 -0.0971
 8741SOL     OW34729   6.053   3.524   4.243  0.5886 -0.1724  0.4082
 8741SOL    HW234730   6.111   3.462   4.199 -0.2611 -0.3997 -0.3903
 8741SOL    HW334731   6.045   3.489   4.332  1.9155  0.0317  0.6395
 8741SOL    MW434732   6.060   3.511   4.249  0.6516 -0.1754  0.3334
 8742SOL     OW34733   3.124   0.511   1.818 -0.2839  0.2302  0.3006
 8742SOL    HW234734   3.186   0.481   1.884 -0.5561  0.4078  0.6426
 8742SOL    HW334735   3.120   0.606   1.831  0.6805  0.4575 -0.8604
 8742SOL    MW434736   3.132   0.520   1.829 -0.1926  0.2836  0.1926
 8743SOL     OW34737   1.832   4.725   6.389 -0.3228  0.1210 -0.5013
 8743SOL    HW234738   1.866   4.727   6.478 -0.9659  1.3046 -0.2502
 8743SOL    HW334739   1.910   4.728   6.333  0.1241 -1.5281 -0.0147
 8743SOL    MW434740   1.847   4.726   6.393 -0.3487  0.0596 -0.4039
 8744SOL     OW34741   4.259   3.049   4.332  0.4399  0.8147  0.1093
 8744SOL    HW234742   4.308   2.975   4.370 -0.2139 -0.1382 -0.8390
 8744SOL    HW334743   4.323   3.119   4.325  1.6313 -0.3100 -0.8253
 8744SOL    MW434744   4.274   3.048   4.336  0.5108  0.5406 -0.1391
 8745SOL     OW34745   4.906   6.262   2.143  0.3839  0.2409  0.4935
 8745SOL    HW234746   4.968   6.215   2.086 -0.4722  0.2326 -0.4591
 8745SOL    HW334747   4.949   6.345   2.162  0.0461  0.9042 -1.4716
 8745SOL    MW434748   4.920   6.267   2.138  0.2264  0.3273  0.1086
 8746SOL     OW34749   4.712   5.966   5.573 -0.0969  0.1718  0.0094
 8746SOL    HW234750   4.703   5.871   5.565 -0.3964  0.0938  1.0793
 8746SOL    HW334751   4.628   6.001   5.543  0.4509  0.2026 -1.6049
 8746SOL    MW434752   4.700   5.958   5.568 -0.0642  0.1656 -0.0625
 8747SOL     OW34753   0.203   4.307   2.684 -0.1302  0.0449 -0.5294
 8747SOL    HW234754   0.252   4.362   2.623 -1.2215  0.6191 -0.9071
 8747SOL    HW334755   0.271   4.258   2.731  0.7592 -0.2989 -2.0712
 8747SOL    MW434756   0.219   4.308   2.682 -0.1568  0.0753 -0.7827
 8748SOL     OW34757   5.935   1.686   4.891 -0.2227 -0.3883  0.5893
 8748SOL    HW234758   5.912   1.773   4.923 -0.3520 -0.4404  0.6376
 8748SOL    HW334759   5.984   1.646   4.962  1.1912  0.2140 -0.0065
 8748SOL    MW434760   5.938   1.692   4.904 -0.0532 -0.3157  0.5171
 8749SOL     OW34761   2.882   4.974   4.380 -0.5547 -0.2673  0.0762
 8749SOL    HW234762   2.816   4.906   4.367 -0.7672  0.0219 -0.3706
 8749SOL    HW334763   2.928   4.948   4.460  0.0458 -1.4896 -0.6434
 8749SOL    MW434764   2.880   4.962   4.389 -0.5035 -0.3904 -0.0777
 8750SOL     OW34765   2.970   2.229   2.164 -0.6457 -0.5116  0.7848
 8750SOL    HW234766   3.000   2.319   2.156 -1.9663  0.0069  1.4205
 8750SOL    HW334767   3.033   2.188   2.224  0.2922 -0.1958  0.0466
 8750SOL    MW434768   2.982   2.235   2.171 -0.6962 -0.4016  0.7713
 8751SOL     OW34769   4.040   0.126   0.298 -0.3791  0.5635  0.0279
 8751SOL    HW234770   3.972   0.148   0.362  0.1022 -0.5073  0.9393
 8751SOL    HW334771   4.093   0.205   0.291 -1.1766  1.1072 -0.0164
 8751SOL    MW434772   4.038   0.139   0.305 -0.4208  0.4940  0.1423
 8752SOL     OW34773   3.916   4.115   1.114 -0.2779 -0.2070 -0.2106
 8752SOL    HW234774   4.008   4.141   1.115 -0.6458  1.1374 -0.0395
 8752SOL    HW334775   3.899   4.091   1.022  0.5260 -1.6164 -0.0211
 8752SOL    MW434776   3.926   4.115   1.102 -0.2203 -0.2155 -0.1630
 8753SOL     OW34777   0.854   1.798   6.318  0.3147  0.0762  0.2525
 8753SOL    HW234778   0.784   1.752   6.272 -1.2880  1.4083  1.2537
 8753SOL    HW334779   0.935   1.763   6.279 -0.8901  0.0458 -2.4844
 8753SOL    MW434780   0.856   1.787   6.307 -0.0557  0.2479  0.0235
 8754SOL     OW34781   3.177   1.021   2.980  0.0476  0.0182  0.0115
 8754SOL    HW234782   3.105   0.962   3.003  0.6537 -0.5629  0.4610
 8754SOL    HW334783   3.145   1.070   2.905 -0.1877 -1.4188 -0.8534
 8754SOL    MW434784   3.163   1.020   2.973  0.0965 -0.2481 -0.0433
 8755SOL     OW34785   1.812   1.812   1.739  0.2090  0.0325 -0.4584
 8755SOL    HW234786   1.776   1.874   1.675 -0.3814  0.8179  0.6129
 8755SOL    HW334787   1.859   1.747   1.685 -0.9164  0.2342 -1.7306
 8755SOL    MW434788   1.814   1.811   1.723 -0.0174  0.1627 -0.4849
 8756SOL     OW34789   2.090   1.012   0.272 -0.4352 -0.1286  0.6205
 8756SOL    HW234790   2.182   1.026   0.294 -0.2759 -1.3614  0.7925
 8756SOL    HW334791   2.085   1.030   0.178  0.4796 -2.2093  0.1119
 8756SOL    MW434792   2.101   1.016   0.263 -0.2934 -0.5658  0.5761
 8757SOL     OW34793   3.769   0.260   3.233  0.1159  0.1377 -0.3368
 8757SOL    HW234794   3.737   0.292   3.317 -2.3646 -0.0977 -1.1318
 8757SOL    HW334795   3.782   0.166   3.246 -1.7979 -0.1979 -0.6011
 8757SOL    MW434796   3.767   0.252   3.246 -0.4639  0.0624 -0.4765
 8758SOL     OW34797   2.702   5.351   5.409 -0.0766 -0.1961 -0.0404
 8758SOL    HW234798   2.768   5.380   5.473  1.1370  1.1567 -1.8127
 8758SOL    HW334799   2.618   5.361   5.455  0.7049  1.3521  1.1477
 8758SOL    MW434800   2.700   5.356   5.424  0.1866  0.1867 -0.1175
 8759SOL     OW34801   2.287   3.927   2.593  0.2742 -0.1154  0.3286
 8759SOL    HW234802   2.347   4.000   2.607 -1.2438  1.3278 -0.3582
 8759SOL    HW334803   2.288   3.879   2.676  1.2174  0.7469  0.8345
 8759SOL    MW434804   2.295   3.930   2.606  0.1984  0.1888  0.3047
 8760SOL     OW34805   2.356   0.798   5.247 -0.1712  0.1935  0.4441
 8760SOL    HW234806   2.269   0.770   5.274  0.8987 -2.4520  1.5236
 8760SOL    HW334807   2.365   0.768   5.157 -1.3485  3.1293 -0.7680
 8760SOL    MW434808   2.346   0.791   5.239 -0.1853  0.2318  0.4266
 8761SOL     OW34809   3.327   2.044   2.907 -0.0772  0.0025 -0.5787
 8761SOL    HW234810   3.371   1.974   2.956 -1.0352 -0.6647 -0.6419
 8761SOL    HW334811   3.265   1.998   2.851 -0.9406  0.9182 -0.3981
 8761SOL    MW434812   3.324   2.028   2.906 -0.3175  0.0353 -0.5632
 8762SOL     OW34813   3.877   0.406   0.237  0.0908  0.6488  0.6790
 8762SOL    HW234814   3.973   0.398   0.243  0.3979 -0.7107 -3.1148
 8762SOL    HW334815   3.855   0.359   0.157 -3.7439  1.4865  1.0796
 8762SOL    MW434816   3.887   0.398   0.227 -0.3746  0.5799  0.2313
 8763SOL     OW34817   4.419   1.059   5.777 -0.0868 -0.1313  0.0597
 8763SOL    HW234818   4.402   1.065   5.683  0.8736  0.0766 -0.1129
 8763SOL    HW334819   4.388   0.972   5.802  0.1747 -0.4105 -0.5683
 8763SOL    MW434820   4.413   1.049   5.768  0.0744 -0.1407 -0.0459
 8764SOL     OW34821   3.574   3.082   4.478  0.4895 -0.5767 -0.0678
 8764SOL    HW234822   3.607   3.057   4.392 -0.3252 -0.3650 -0.4535
 8764SOL    HW334823   3.649   3.071   4.537  0.6578 -2.1688 -0.5278
 8764SOL    MW434824   3.588   3.077   4.475  0.4042 -0.7588 -0.1794
 8765SOL     OW34825   3.210   5.921   1.801  0.1590  0.0227  0.3244
 8765SOL    HW234826   3.190   5.950   1.712  1.6172 -3.2879 -1.2967
 8765SOL    HW334827   3.294   5.962   1.821 -0.5734  1.4537  0.5768
 8765SOL    MW434828   3.219   5.930   1.792  0.2547 -0.2253  0.1438
 8766SOL     OW34829   2.213   1.484   6.161  0.3951  0.0970 -0.8059
 8766SOL    HW234830   2.125   1.518   6.179 -0.0854 -0.0953 -2.6455
 8766SOL    HW334831   2.260   1.559   6.123  1.2043  0.3238  0.5435
 8766SOL    MW434832   2.208   1.498   6.159  0.4385  0.1015 -0.8706
 8767SOL     OW34833   3.236   5.892   4.514 -0.2280  0.0361 -0.2674
 8767SOL    HW234834   3.147   5.915   4.487  0.1210  0.2733 -1.2592
 8767SOL    HW334835   3.224   5.835   4.589 -1.1801  1.3228  0.6046
 8767SOL    MW434836   3.223   5.888   4.520 -0.3075  0.2371 -0.2832
 8768SOL     OW34837   0.353   3.007   3.109  0.1938  0.1147 -0.0231
 8768SOL    HW234838   0.367   2.999   3.015 -1.0140 -0.2615 -0.1906
 8768SOL    HW334839   0.368   2.918   3.143  0.4783  0.2175  0.1298
 8768SOL    MW434840   0.357   2.994   3.101  0.0720  0.0787 -0.0250
 8769SOL     OW34841   2.967   0.193   4.707 -0.0565  0.3723  0.7266
 8769SOL    HW234842   2.975   0.278   4.751 -1.2282  0.7853  0.1779
 8769SOL    HW334843   2.953   0.214   4.615  0.7288 -0.4563  0.3949
 8769SOL    MW434844   2.966   0.207   4.701 -0.1075  0.3175  0.6105
 8770SOL     OW34845   3.803   3.922   3.009  0.0271  0.1722  0.0478
 8770SOL    HW234846   3.775   4.012   2.994  1.0722  0.4181 -0.5917
 8770SOL    HW334847   3.824   3.889   2.921  1.4022 -0.0738  0.4413
 8770SOL    MW434848   3.802   3.930   2.995  0.3464  0.1722  0.0153
 8771SOL     OW34849   3.738   4.320   1.151  0.1304 -1.2371 -0.1435
 8771SOL    HW234850   3.803   4.255   1.126  1.9608  1.0446 -1.6718
 8771SOL    HW334851   3.660   4.295   1.101  0.1163 -3.3149  0.7953
 8771SOL    MW434852   3.736   4.308   1.141  0.3700 -1.2102 -0.2213
 8772SOL     OW34853   0.979   2.475   0.330  0.0507 -0.4773  0.9995
 8772SOL    HW234854   0.924   2.491   0.253  1.9855  0.4342 -0.2903
 8772SOL    HW334855   1.056   2.429   0.295  1.1517  0.2895  2.3126
 8772SOL    MW434856   0.982   2.471   0.315  0.4512 -0.2558  1.0025
 8773SOL     OW34857   2.297   6.123   1.528  0.9617 -0.2370  0.3567
 8773SOL    HW234858   2.317   6.031   1.511  0.8417 -0.2286  0.1638
 8773SOL    HW334859   2.310   6.134   1.622  0.1948 -0.6531  0.5223
 8773SOL    MW434860   2.301   6.112   1.538  0.8446 -0.2908  0.3531
 8774SOL     OW34861   5.607   5.386   4.634  0.1334 -0.2487 -0.4437
 8774SOL    HW234862   5.663   5.310   4.651 -0.8216 -0.8701  0.0123
 8774SOL    HW334863   5.518   5.349   4.628 -0.2263  0.7100 -1.1928
 8774SOL    MW434864   5.602   5.371   4.636 -0.0400 -0.2042 -0.4824
 8775SOL     OW34865   0.628   2.922   3.797  0.7136 -0.5481  0.1466
 8775SOL    HW234866   0.716   2.940   3.763  1.0735 -1.6040  0.4935
 8775SOL    HW334867   0.628   2.959   3.885  0.4737  0.3297 -0.2133
 8775SOL    MW434868   0.640   2.929   3.804  0.7294 -0.5716  0.1449
 8776SOL     OW34869   5.940   6.392   4.186 -0.2874 -0.1735 -0.0908
 8776SOL    HW234870   5.870   6.328   4.175 -0.8209  0.5416 -0.8794
 8776SOL    HW334871   5.902   6.461   4.240 -0.8908  1.2035 -2.1548
 8776SOL    MW434872   5.926   6.393   4.192 -0.4374  0.1026 -0.4672
 8777SOL     OW34873   0.417   5.835   2.383 -0.3239 -0.1314  0.4591
 8777SOL    HW234874   0.464   5.906   2.339  0.1348 -0.1985  0.8266
 8777SOL    HW334875   0.478   5.762   2.382 -0.7303 -0.4695  0.2372
 8777SOL    MW434876   0.431   5.835   2.377 -0.3170 -0.1848  0.4783
 8778SOL     OW34877   1.646   6.211   5.223 -0.1615  0.1088  0.0939
 8778SOL    HW234878   1.598   6.171   5.150 -0.0291  0.7849 -0.3738
 8778SOL    HW334879   1.670   6.298   5.191 -0.0126  0.3775  0.9121
 8778SOL    MW434880   1.643   6.217   5.209 -0.1244  0.2335  0.1401
 8779SOL     OW34881   6.031   3.371   0.386  0.8220  0.1192  0.0492
 8779SOL    HW234882   5.947   3.325   0.385  0.7726  0.2044  0.2419
 8779SOL    HW334883   6.009   3.461   0.408  1.0760 -0.0954  1.2843
 8779SOL    MW434884   6.017   3.377   0.389  0.8490  0.1021  0.2376
 8780SOL     OW34885   0.564   2.739   5.127 -0.4790 -0.0805  0.6100
 8780SOL    HW234886   0.626   2.797   5.172 -0.8448  0.5253  0.3446
 8780SOL    HW334887   0.551   2.667   5.189 -0.3301  0.3168  1.1216
 8780SOL    MW434888   0.571   2.737   5.141 -0.5076  0.0518  0.6425
 8781SOL     OW34889   0.089   2.950   5.660 -0.6418 -0.5013 -0.1659
 8781SOL    HW234890   0.040   3.032   5.668 -1.3848 -0.9767  0.2924
 8781SOL    HW334891   0.134   2.940   5.743  1.3085  0.5758 -1.0374
 8781SOL    MW434892   0.088   2.960   5.672 -0.4825 -0.4219 -0.2204
 8782SOL     OW34893   6.278   4.582   6.446 -0.2762 -0.5899 -0.2884
 8782SOL    HW234894   6.298   4.625   6.529 -0.3034  1.2294 -1.1693
 8782SOL    HW334895   6.224   4.506   6.470  0.2716 -0.4852  1.3883
 8782SOL    MW434896   6.273   4.578   6.460 -0.2075 -0.3361 -0.1834
 8783SOL     OW34897   6.159   0.174   1.731  0.6053 -0.2425  0.3144
 8783SOL    HW234898   6.227   0.135   1.677 -0.4958 -0.4943 -0.9365
 8783SOL    HW334899   6.206   0.235   1.789  1.8969 -0.5407 -0.3876
 8783SOL    MW434900   6.174   0.177   1.732  0.6305 -0.3151  0.0568
 8784SOL     OW34901   1.250   4.247   2.261  0.0946  0.1635  0.2576
 8784SOL    HW234902   1.316   4.309   2.291 -0.6024  1.5459 -0.8908
 8784SOL    HW334903   1.288   4.206   2.184  0.2199 -0.2194  0.5198
 8784SOL    MW434904   1.264   4.250   2.255  0.0192  0.2954  0.1407
 8785SOL     OW34905   4.732   3.539   5.225 -0.1989  0.0547 -0.4507
 8785SOL    HW234906   4.685   3.540   5.142  0.2251  1.7460 -0.6989
 8785SOL    HW334907   4.678   3.590   5.285  0.2576  0.1555 -0.1211
 8785SOL    MW434908   4.719   3.546   5.222 -0.0827  0.2911 -0.4400
 8786SOL     OW34909   4.521   5.604   1.276  0.5703  0.1211  0.4804
 8786SOL    HW234910   4.578   5.537   1.238  1.0243 -0.3406  1.9120
 8786SOL    HW334911   4.491   5.566   1.359 -1.7304  0.4190 -0.1521
 8786SOL    MW434912   4.524   5.590   1.282  0.3267  0.0995  0.5858
 8787SOL     OW34913   0.058   1.833   0.324 -0.2068 -0.0982 -0.2843
 8787SOL    HW234914   0.023   1.910   0.368  0.1449 -1.1205  1.9440
 8787SOL    HW334915   0.009   1.760   0.361  1.4086 -1.1774 -0.1806
 8787SOL    MW434916   0.047   1.833   0.335  0.0527 -0.3755  0.0234
 8788SOL     OW34917   2.557   3.296   3.327  0.2675 -0.0081 -0.3948
 8788SOL    HW234918   2.648   3.290   3.356 -0.0610  1.4387  1.0921
 8788SOL    HW334919   2.517   3.214   3.358  0.3454  0.7407  1.8552
 8788SOL    MW434920   2.564   3.284   3.335  0.2344  0.2815  0.0982
 8789SOL     OW34921   4.996   1.005   6.429 -0.1002  0.2224 -0.3446
 8789SOL    HW234922   5.084   0.970   6.413  0.3756  0.7210  1.0043
 8789SOL    HW334923   4.941   0.927   6.439  0.5183 -0.1397  0.4172
 8789SOL    MW434924   5.001   0.990   6.428  0.0442  0.2404 -0.0661
 8790SOL     OW34925   2.043   6.032   5.970  0.1881  0.1819 -0.0466
 8790SOL    HW234926   2.089   6.111   5.942 -1.9560  0.9011 -1.8858
 8790SOL    HW334927   1.969   6.064   6.021  0.0663 -0.7527  0.3920
 8790SOL    MW434928   2.039   6.046   5.973 -0.1108  0.1535 -0.2314
 8791SOL     OW34929   2.870   4.929   5.528 -0.7534 -1.1205 -0.0414
 8791SOL    HW234930   2.794   4.980   5.500  0.7003  1.7914  0.9242
 8791SOL    HW334931   2.931   4.934   5.455  0.4254  0.8877  0.9929
 8791SOL    MW434932   2.868   4.936   5.515 -0.4060 -0.4714  0.2225
 8792SOL     OW34933   4.694   2.572   4.332  0.0142 -0.4426  0.1568
 8792SOL    HW234934   4.738   2.602   4.411 -1.2275 -1.7522  1.4135
 8792SOL    HW334935   4.603   2.557   4.359 -0.9686  1.0238 -2.0419
 8792SOL    MW434936   4.687   2.574   4.346 -0.2793 -0.4219  0.0325
 8793SOL     OW34937   6.345   3.162   6.116  0.1733  0.2609 -0.1503
 8793SOL    HW234938   6.437   3.171   6.142 -0.1854 -0.4226  1.4456
 8793SOL    HW334939   6.321   3.250   6.085  0.3858  1.4713  2.7970
 8793SOL    MW434940   6.354   3.175   6.115  0.1540  0.3304  0.4492
 8794SOL     OW34941   5.019   1.819   0.676 -0.0917  0.1905 -0.1289
 8794SOL    HW234942   5.064   1.873   0.612 -1.2503 -0.2358 -1.3609
 8794SOL    HW334943   5.070   1.738   0.680  0.6634  0.6814  0.4166
 8794SOL    MW434944   5.031   1.816   0.668 -0.1449  0.1990 -0.2195
 8795SOL     OW34945   1.308   5.990   4.601  1.1341 -0.5244  0.1116
 8795SOL    HW234946   1.291   6.009   4.509 -0.4033 -0.9332  0.2874
 8795SOL    HW334947   1.283   5.898   4.612  1.2792 -0.4707  0.9358
 8795SOL    MW434948   1.302   5.981   4.590  0.9504 -0.5712  0.2436
 8796SOL     OW34949   3.594   4.516   4.885  0.3107  0.3164  0.5068
 8796SOL    HW234950   3.659   4.585   4.867  0.8826 -0.0106  1.2489
 8796SOL    HW334951   3.510   4.554   4.860  0.0704  2.6895  4.1632
 8796SOL    MW434952   3.592   4.530   4.879  0.3544  0.5864  1.0871
 8797SOL     OW34953   0.816   3.634   0.355  0.0370 -0.0453 -0.2847
 8797SOL    HW234954   0.779   3.717   0.326  0.9797  0.5736  0.2026
 8797SOL    HW334955   0.881   3.612   0.288 -0.4646 -0.5787 -0.5989
 8797SOL    MW434956   0.820   3.642   0.342  0.0952 -0.0340 -0.2619
 8798SOL     OW34957   2.977   6.167   5.449  0.0539  0.2870 -0.0804
 8798SOL    HW234958   3.055   6.169   5.394 -0.1837  0.9399 -0.4077
 8798SOL    HW334959   2.973   6.254   5.489 -0.7421  0.4103 -0.4095
 8798SOL    MW434960   2.986   6.179   5.447 -0.0825  0.3894 -0.1670
 8799SOL     OW34961   3.264   1.262   1.317  0.2068 -0.3220  0.0633
 8799SOL    HW234962   3.269   1.357   1.310 -1.5143 -0.0496  1.8104
 8799SOL    HW334963   3.228   1.234   1.232  0.8925  0.5486 -0.5308
 8799SOL    MW434964   3.260   1.270   1.305  0.0702 -0.1712  0.2154
 8800SOL     OW34965   3.737   2.894   1.404  0.3980 -0.2730  0.1883
 8800SOL    HW234966   3.685   2.883   1.484 -0.5745  1.2652 -0.1865
 8800SOL    HW334967   3.784   2.977   1.418  0.0501  0.1238 -0.9132
 8800SOL    MW434968   3.737   2.904   1.417  0.2238 -0.0177 -0.0064
 8801SOL     OW34969   6.001   6.001   1.740  0.3573  0.0388  0.0962
 8801SOL    HW234970   6.022   5.912   1.770  1.2987 -0.0150 -0.6859
 8801SOL    HW334971   6.040   6.058   1.806 -0.0182 -0.1264  0.4613
 8801SOL    MW434972   6.009   5.997   1.753  0.4319  0.0099  0.0412
 8802SOL     OW34973   1.169   5.959   2.828 -0.0790  0.2346 -0.5134
 8802SOL    HW234974   1.204   6.034   2.877 -0.9602 -0.1452  0.7628
 8802SOL    HW334975   1.116   5.912   2.892 -0.1560 -1.0663 -1.4990
 8802SOL    MW434976   1.167   5.963   2.843 -0.2054  0.0129 -0.4750
 8803SOL     OW34977   1.700   5.569   4.087 -0.2196 -0.1418 -0.4413
 8803SOL    HW234978   1.632   5.521   4.040 -1.3674  1.0286 -0.0262
 8803SOL    HW334979   1.662   5.590   4.172  0.4776  0.9494 -0.3725
 8803SOL    MW434980   1.686   5.565   4.092 -0.2791  0.1566 -0.3774
 8804SOL     OW34981   1.640   0.996   1.610  0.2977 -0.6554 -0.1052
 8804SOL    HW234982   1.571   1.055   1.578  1.2969 -0.2393 -1.5838
 8804SOL    HW334983   1.702   1.053   1.655 -0.2017 -1.0089  1.0713
 8804SOL    MW434984   1.639   1.011   1.612  0.3637 -0.6472 -0.1450
 8805SOL     OW34985   6.122   2.860   3.943 -0.0606 -0.3015  0.0425
 8805SOL    HW234986   6.117   2.858   3.848  1.7254  1.5439 -0.1484
 8805SOL    HW334987   6.039   2.822   3.972 -1.8553  1.5692 -2.2651
 8805SOL    MW434988   6.110   2.855   3.934 -0.0618  0.1888 -0.2871
 8806SOL     OW34989   2.868   5.770   0.433  0.0443  0.1735 -0.1177
 8806SOL    HW234990   2.800   5.732   0.379 -0.4869  0.5312  0.2937
 8806SOL    HW334991   2.898   5.847   0.385  0.0418  0.1154 -0.2124
 8806SOL    MW434992   2.863   5.775   0.420 -0.0261  0.2130 -0.0759
 8807SOL     OW34993   2.316   2.797   4.837 -0.5223  0.4681 -0.4218
 8807SOL    HW234994   2.362   2.862   4.889 -1.7611  0.6614  0.4693
 8807SOL    HW334995   2.261   2.749   4.900 -2.1709  0.8026 -1.5249
 8807SOL    MW434996   2.315   2.799   4.852 -0.9033  0.5378 -0.4498
 8808SOL     OW34997   5.537   0.282   6.210  0.4565  0.7280  0.2213
 8808SOL    HW234998   5.574   0.194   6.204 -1.1091  0.1373 -1.6620
 8808SOL    HW334999   5.594   0.327   6.271  1.8673 -1.3091  0.5160
 8808SOL    MW435000   5.549   0.276   6.217  0.4361  0.3813  0.0117
 8809SOL     OW35001   3.790   5.332   6.259 -0.2376 -0.1169 -0.2874
 8809SOL    HW235002   3.745   5.385   6.326  1.4650  0.3358  0.5610
 8809SOL    HW335003   3.862   5.388   6.229  0.2261 -1.0992 -1.0525
 8809SOL    MW435004   3.794   5.347   6.264  0.0482 -0.1868 -0.2764
 8810SOL     OW35005   4.221   4.697   5.474 -0.5496 -0.5759 -0.7655
 8810SOL    HW235006   4.197   4.718   5.564  1.4407 -1.6576  0.0925
 8810SOL    HW335007   4.184   4.610   5.459 -0.6634 -0.5033 -0.9042
 8810SOL    MW435008   4.213   4.688   5.484 -0.3021 -0.7090 -0.6706
 8811SOL     OW35009   1.654   2.117   0.820 -0.2502  0.1019 -0.1812
 8811SOL    HW235010   1.695   2.034   0.795  0.4216  0.3974 -0.0614
 8811SOL    HW335011   1.630   2.158   0.737 -0.5097 -0.1692 -0.2443
 8811SOL    MW435012   1.656   2.111   0.806 -0.1958  0.1051 -0.1737
 8812SOL     OW35013   0.507   5.219   6.058  0.0455  0.5238  0.1399
 8812SOL    HW235014   0.535   5.231   5.967  1.4899  3.3592  0.8508
 8812SOL    HW335015   0.588   5.225   6.108 -0.7061 -1.2216  1.6550
 8812SOL    MW435016   0.521   5.221   6.052  0.1369  0.6676  0.4336
 8813SOL     OW35017   4.838   5.771   1.797 -0.4005  0.0288 -0.1106
 8813SOL    HW235018   4.910   5.829   1.773 -0.3885 -0.3424 -1.0387
 8813SOL    HW335019   4.880   5.697   1.840 -0.3230  0.2566  0.2068
 8813SOL    MW435020   4.853   5.769   1.799 -0.3887  0.0099 -0.1912
 8814SOL     OW35021   1.146   3.142   4.380 -0.0215 -0.5959 -0.1300
 8814SOL    HW235022   1.060   3.183   4.390  0.4583  0.3077  0.4305
 8814SOL    HW335023   1.132   3.071   4.318 -0.9321  0.2824 -0.9553
 8814SOL    MW435024   1.133   3.139   4.373 -0.0784 -0.3608 -0.1649
 8815SOL     OW35025   4.941   4.609   2.902  0.1949 -0.3863  0.3392
 8815SOL    HW235026   4.956   4.660   2.822 -0.2862  2.7108  2.0681
 8815SOL    HW335027   5.027   4.575   2.926  1.2355  2.2180  0.6592
 8815SOL    MW435028   4.954   4.611   2.895  0.2687  0.3659  0.6095
 8816SOL     OW35029   5.632   0.103   2.967 -0.1245  0.3078  0.1547
 8816SOL    HW235030   5.723   0.134   2.970 -0.9184  3.0088 -0.8804
 8816SOL    HW335031   5.595   0.131   3.051 -0.5055  1.0175 -0.2444
 8816SOL    MW435032   5.639   0.110   2.979 -0.2795  0.7578 -0.0345
 8817SOL     OW35033   1.181   4.208   3.968 -0.1407 -0.5059 -0.3743
 8817SOL    HW235034   1.244   4.137   3.979 -0.5492 -0.6772  1.0587
 8817SOL    HW335035   1.179   4.224   3.874  1.6977 -0.7919 -0.4954
 8817SOL    MW435036   1.189   4.201   3.957  0.0480 -0.5663 -0.2012
 8818SOL     OW35037   6.016   1.961   3.247  0.0895  0.7184 -0.7181
 8818SOL    HW235038   5.983   1.930   3.331 -0.8251  2.1938 -0.4970
 8818SOL    HW335039   5.942   1.952   3.187 -0.5676  3.2919 -0.4111
 8818SOL    MW435040   6.002   1.956   3.250 -0.1179  1.2526 -0.6484
 8819SOL     OW35041   3.814   6.061   4.054 -0.5405 -0.3773  0.6310
 8819SOL    HW235042   3.773   5.987   4.009  0.7986 -0.6271 -0.2308
 8819SOL    HW335043   3.851   6.115   3.985 -1.4802  1.1349  1.2507
 8819SOL    MW435044   3.813   6.058   4.039 -0.4878 -0.2107  0.5991
 8820SOL     OW35045   3.462   2.568   1.385 -0.3222  0.9188  0.1350
 8820SOL    HW235046   3.409   2.523   1.451  0.2407 -0.6017 -0.4179
 8820SOL    HW335047   3.551   2.567   1.420  0.0130 -0.0676 -0.7139
 8820SOL    MW435048   3.467   2.562   1.399 -0.2037  0.5881 -0.0500
 8821SOL     OW35049   3.438   0.807   0.208 -0.4951 -0.3416 -0.2738
 8821SOL    HW235050   3.410   0.885   0.256 -0.2223  1.0604 -2.2569
 8821SOL    HW335051   3.454   0.742   0.275 -1.1890  1.1649  1.4354
 8821SOL    MW435052   3.436   0.809   0.223 -0.5507  0.0422 -0.3100
 8822SOL     OW35053   5.303   2.462   0.282 -0.0669 -0.2759  0.6821
 8822SOL    HW235054   5.324   2.467   0.189 -1.1008 -0.7320  0.4180
 8822SOL    HW335055   5.355   2.532   0.322 -0.9267  1.0768 -0.4828
 8822SOL    MW435056   5.313   2.472   0.275 -0.3167 -0.1576  0.4935
 8823SOL     OW35057   0.033   0.291   3.943 -0.0169 -0.0254 -0.2500
 8823SOL    HW235058  -0.060   0.306   3.958 -0.4077 -0.7940 -1.6743
 8823SOL    HW335059   0.037   0.205   3.901  1.1595  0.7427 -1.8114
 8823SOL    MW435060   0.021   0.281   3.939  0.0868 -0.0255 -0.6439
 8824SOL     OW35061   2.195   6.007   6.347  0.1598  0.0680 -0.0043
 8824SOL    HW235062   2.179   6.095   6.313 -1.8741  0.1308  0.9435
 8824SOL    HW335063   2.128   5.995   6.414  0.8935 -1.9220  0.4407
 8824SOL    MW435064   2.184   6.017   6.351 -0.0117 -0.1863  0.1794
 8825SOL     OW35065   5.514   5.053   2.194 -0.4911  0.0796  0.3900
 8825SOL    HW235066   5.610   5.043   2.196 -0.3754  1.1886  1.1159
 8825SOL    HW335067   5.498   5.134   2.241 -1.6878  0.7789 -1.1638
 8825SOL    MW435068   5.525   5.062   2.201 -0.6337  0.3182  0.2808
 8826SOL     OW35069   1.969   3.246   3.074 -0.0231  0.2648  0.6531
 8826SOL    HW235070   1.993   3.209   3.159 -0.1255 -1.4113 -0.0168
 8826SOL    HW335071   2.049   3.288   3.043  0.3978 -0.2864  0.9809
 8826SOL    MW435072   1.982   3.247   3.081  0.0190 -0.0290  0.6079
 8827SOL     OW35073   3.715   3.724   4.585 -0.0908 -0.0060 -0.0967
 8827SOL    HW235074   3.620   3.720   4.578 -0.1312 -0.1242  0.4328
 8827SOL    HW335075   3.742   3.792   4.523 -0.5603  0.3128  0.0457
 8827SOL    MW435076   3.706   3.733   4.576 -0.1581  0.0204 -0.0080
 8828SOL     OW35077   3.453   5.074   6.373 -0.0496  0.0172 -0.1207
 8828SOL    HW235078   3.535   5.094   6.328  0.7192 -1.1451  0.6998
 8828SOL    HW335079   3.431   4.986   6.344 -0.7765  0.1481  0.0113
 8828SOL    MW435080   3.461   5.065   6.363 -0.0440 -0.1188  0.0050
 8829SOL     OW35081   5.553   2.268   0.106 -0.5303  0.1367 -0.6733
 8829SOL    HW235082   5.582   2.277   0.196 -1.7486  0.2687 -0.2746
 8829SOL    HW335083   5.633   2.271   0.054  0.0217  2.4880  0.2068
 8829SOL    MW435084   5.567   2.270   0.111 -0.6182  0.4644 -0.5046
 8830SOL     OW35085   6.108   4.980   2.914  0.2134  0.1588 -0.2944
 8830SOL    HW235086   6.099   4.885   2.911  0.5861  0.0711  0.6984
 8830SOL    HW335087   6.023   5.011   2.946  0.3091  0.0954  0.0304
 8830SOL    MW435088   6.096   4.972   2.918  0.2752  0.1389 -0.1206
 8831SOL     OW35089   0.661   5.759   1.769  0.1718 -0.8207  0.2222
 8831SOL    HW235090   0.707   5.843   1.761  0.2179 -0.7244  1.2749
 8831SOL    HW335091   0.730   5.693   1.762  0.1428 -0.7718 -0.5599
 8831SOL    MW435092   0.676   5.762   1.767  0.1741 -0.8016  0.2579
 8832SOL     OW35093   4.361   5.351   2.854 -0.1809  0.4588  0.1873
 8832SOL    HW235094   4.437   5.401   2.826 -0.6019  0.7321 -0.5049
 8832SOL    HW335095   4.389   5.306   2.934  1.2063 -0.6848 -0.8960
 8832SOL    MW435096   4.374   5.352   2.861 -0.0534  0.3440 -0.0469
 8833SOL     OW35097   2.824   1.026   3.577  0.7542  0.2895 -0.5033
 8833SOL    HW235098   2.837   0.972   3.654  0.1366  1.2825  0.3237
 8833SOL    HW335099   2.904   1.078   3.570  1.3909 -0.7732 -1.3580
 8833SOL    MW435100   2.836   1.026   3.586  0.7567  0.2803 -0.5069
 8834SOL     OW35101   5.561   0.320   1.054  0.0943  0.5626  0.2373
 8834SOL    HW235102   5.530   0.239   1.095 -1.2041  0.9506  0.0632
 8834SOL    HW335103   5.656   0.312   1.054 -0.0018 -0.7885  0.5735
 8834SOL    MW435104   5.570   0.308   1.060 -0.0897  0.4355  0.2587
 8835SOL     OW35105   1.757   2.352   4.076  0.1045  0.0925 -0.3671
 8835SOL    HW235106   1.798   2.433   4.045  0.3300 -0.8184 -2.6340
 8835SOL    HW335107   1.819   2.283   4.051 -1.2502 -0.9990 -0.8384
 8835SOL    MW435108   1.771   2.353   4.068 -0.0445 -0.1717 -0.7283
 8836SOL     OW35109   3.540   5.162   4.329 -0.6289  0.0247  0.6761
 8836SOL    HW235110   3.568   5.230   4.391 -0.2625 -0.5926  1.1954
 8836SOL    HW335111   3.456   5.131   4.364 -0.7250  0.1001  0.5175
 8836SOL    MW435112   3.532   5.167   4.342 -0.5933 -0.0468  0.7237
 8837SOL     OW35113   2.909   4.530   5.370 -0.2447  0.0236  0.0171
 8837SOL    HW235114   2.857   4.464   5.326  0.4064  0.8143 -2.0715
 8837SOL    HW335115   2.963   4.568   5.300  1.1000  1.1220  1.5828
 8837SOL    MW435116   2.909   4.526   5.355  0.0186  0.2729 -0.0519
 8838SOL     OW35117   1.110   1.974   1.656  0.0535  0.1454  0.2755
 8838SOL    HW235118   1.027   1.929   1.642  0.8194 -1.1182 -0.4136
 8838SOL    HW335119   1.142   1.993   1.567  0.5701  0.4861  0.5288
 8838SOL    MW435120   1.104   1.970   1.642  0.2227  0.0236  0.2180
 8839SOL     OW35121   4.929   2.048   5.825 -0.0632 -0.5733 -0.4546
 8839SOL    HW235122   4.923   1.958   5.857 -0.7379  0.0426  1.2847
 8839SOL    HW335123   5.016   2.054   5.786  1.2737 -1.1840  2.1592
 8839SOL    MW435124   4.940   2.037   5.824  0.0241 -0.5727  0.1198
 8840SOL     OW35125   4.939   0.918   5.250  0.0363  0.1165  0.1361
 8840SOL    HW235126   4.866   0.884   5.199  0.0220  0.2748  0.0501
 8840SOL    HW335127   4.972   0.991   5.198 -0.8552  1.1686  0.9973
 8840SOL    MW435128   4.934   0.923   5.236 -0.0832  0.2762  0.2383
 8841SOL     OW35129   2.232   0.804   2.763 -0.1556  0.5112 -0.7443
 8841SOL    HW235130   2.195   0.873   2.817  0.6972  0.9831 -0.7383
 8841SOL    HW335131   2.301   0.848   2.713  1.1693 -0.5463  0.0768
 8841SOL    MW435132   2.237   0.819   2.763  0.1317  0.4340 -0.6352
 8842SOL     OW35133   6.328   1.152   2.749 -0.5941 -0.0876  0.0198
 8842SOL    HW235134   6.259   1.086   2.750 -0.9861  0.3086  1.2992
 8842SOL    HW335135   6.286   1.232   2.782  0.9287 -0.3717  3.0656
 8842SOL    MW435136   6.314   1.154   2.754 -0.4449 -0.0728  0.5904
 8843SOL     OW35137   2.347   5.016   2.464  0.1381 -0.1371  0.5934
 8843SOL    HW235138   2.261   5.054   2.445  0.4015  0.5685  0.7875
 8843SOL    HW335139   2.408   5.065   2.408  0.7608  1.1562  2.3056
 8843SOL    MW435140   2.344   5.028   2.454  0.2550  0.1267  0.8449
 8844SOL     OW35141   5.724   6.386   3.594 -0.2034  0.5695 -0.5971
 8844SOL    HW235142   5.631   6.390   3.569 -1.0252 -0.1256  2.0292
 8844SOL    HW335143   5.729   6.313   3.656  2.2512  0.2025 -1.1296
 8844SOL    MW435144   5.712   6.377   3.599  0.0120  0.4294 -0.3208
 8845SOL     OW35145   6.031   2.969   1.776  0.6724  0.1167 -0.4231
 8845SOL    HW235146   5.943   2.995   1.805  0.5630  0.6144 -1.1986
 8845SOL    HW335147   6.016   2.916   1.698  1.0996  0.6765 -0.8856
 8845SOL    MW435148   6.017   2.965   1.770  0.7143  0.2562 -0.5864
 8846SOL     OW35149   1.717   5.209   3.845  0.4198 -0.3147  0.0162
 8846SOL    HW235150   1.744   5.175   3.930  1.2254  0.5778  0.1345
 8846SOL    HW335151   1.629   5.174   3.832  0.8486 -1.6617  0.5397
 8846SOL    MW435152   1.709   5.200   3.854  0.5826 -0.3747  0.1009
 8847SOL     OW35153   5.592   1.139   1.832  0.1091 -0.9310 -0.7794
 8847SOL    HW235154   5.548   1.057   1.857 -0.6496 -1.0664 -2.3829
 8847SOL    HW335155   5.522   1.204   1.829  0.6759 -0.2463  0.2796
 8847SOL    MW435156   5.577   1.137   1.835  0.0838 -0.8585 -0.8512
 8848SOL     OW35157   5.381   2.971   0.752  0.4623 -0.5020 -0.2945
 8848SOL    HW235158   5.291   2.965   0.785  1.2808  2.1308  3.0766
 8848SOL    HW335159   5.378   3.040   0.686 -0.0112 -0.4908 -0.2662
 8848SOL    MW435160   5.369   2.980   0.748  0.5078 -0.1532  0.1540
 8849SOL     OW35161   2.815   2.768   1.842 -0.2171 -0.0391 -0.4517
 8849SOL    HW235162   2.753   2.759   1.914  0.2015  0.9192  0.0540
 8849SOL    HW335163   2.832   2.862   1.837  4.4759 -0.3978  2.3831
 8849SOL    MW435164   2.809   2.779   1.851  0.4573  0.0400 -0.0110
 8850SOL     OW35165   1.868   2.955   0.930 -0.3514 -0.0110 -0.0156
 8850SOL    HW235166   1.794   2.968   0.871 -0.6216  1.3078  0.5755
 8850SOL    HW335167   1.881   3.040   0.972  1.1702 -0.3547  0.2826
 8850SOL    MW435168   1.860   2.968   0.928 -0.1863  0.1176  0.1017
 8851SOL     OW35169   1.534   1.560   3.302  0.1227 -0.1908  0.1946
 8851SOL    HW235170   1.549   1.477   3.349 -0.8955 -1.3244 -1.4011
 8851SOL    HW335171   1.610   1.614   3.325  1.2793 -1.8884  0.5867
 8851SOL    MW435172   1.546   1.556   3.312  0.1410 -0.5644  0.0358
 8852SOL     OW35173   4.865   2.203   1.538  0.1242 -0.2825 -0.3252
 8852SOL    HW235174   4.945   2.217   1.589  0.2464 -0.1472 -0.5508
 8852SOL    HW335175   4.896   2.182   1.449 -0.0887 -0.2680 -0.4047
 8852SOL    MW435176   4.880   2.202   1.533  0.1122 -0.2628 -0.3654
 8853SOL     OW35177   1.619   3.327   4.018  0.1252  0.0034  0.2909
 8853SOL    HW235178   1.599   3.414   3.982 -0.5261 -0.1377  0.3000
 8853SOL    HW335179   1.689   3.293   3.962  2.1184  1.4963  1.7027
 8853SOL    MW435180   1.626   3.334   4.006  0.3022  0.1817  0.4784
 8854SOL     OW35181   1.510   3.629   3.550  0.1979  0.5662 -0.5691
 8854SOL    HW235182   1.538   3.706   3.599 -1.4737  1.4375 -0.9147
 8854SOL    HW335183   1.423   3.608   3.585  0.3745 -0.8117 -0.8847
 8854SOL    MW435184   1.502   3.636   3.561  0.0007  0.4994 -0.6563
 8855SOL     OW35185   4.559   0.352   4.658 -0.4851  0.2212  0.5055
 8855SOL    HW235186   4.520   0.417   4.599 -0.1665  0.2201  0.2923
 8855SOL    HW335187   4.528   0.378   4.745 -0.7447  0.3792  0.3685
 8855SOL    MW435188   4.550   0.364   4.662 -0.4773  0.2419  0.4593
 8856SOL     OW35189   4.754   2.963   0.872 -0.1747 -0.1874  0.1597
 8856SOL    HW235190   4.820   2.978   0.939  2.5323  1.3943 -2.6119
 8856SOL    HW335191   4.798   2.910   0.806 -2.0162  0.0777 -1.3757
 8856SOL    MW435192   4.768   2.958   0.872 -0.0605  0.0563 -0.4085
 8857SOL     OW35193   4.672   3.711   1.030 -0.3653 -0.0659  0.6194
 8857SOL    HW235194   4.729   3.765   1.084 -0.1556  0.6288 -0.2823
 8857SOL    HW335195   4.594   3.764   1.017 -0.1377  0.0609 -0.3155
 8857SOL    MW435196   4.669   3.725   1.036 -0.3076  0.0424  0.3771
 8858SOL     OW35197   4.085   1.220   5.506  0.3766  0.2525  0.1917
 8858SOL    HW235198   4.148   1.159   5.543  1.2686  0.3048 -1.2013
 8858SOL    HW335199   4.072   1.285   5.575 -2.6495 -2.7970  2.8422
 8858SOL    MW435200   4.091   1.221   5.520  0.0950 -0.1430  0.3576
 8859SOL     OW35201   6.389   1.533   2.787  0.3633  0.5230 -0.6415
 8859SOL    HW235202   6.474   1.497   2.764  0.8702  2.0197 -1.2330
 8859SOL    HW335203   6.408   1.593   2.859  0.0512  1.8679 -1.6403
 8859SOL    MW435204   6.403   1.536   2.794  0.3890  0.8979 -0.8514
 8860SOL     OW35205   2.872   5.213   1.315 -0.0095 -0.0938  0.2086
 8860SOL    HW235206   2.784   5.247   1.334 -1.2323 -0.8886 -3.2137
 8860SOL    HW335207   2.858   5.121   1.294  1.5107 -0.0630 -1.1310
 8860SOL    MW435208   2.858   5.205   1.315  0.0297 -0.1946 -0.4197
 8861SOL     OW35209   3.947   2.226   5.034  0.3154  0.1579 -0.2626
 8861SOL    HW235210   3.856   2.235   5.009  0.3149  1.6919  0.1698
 8861SOL    HW335211   3.946   2.166   5.109 -0.3387  0.1857 -0.2480
 8861SOL    MW435212   3.935   2.219   5.041  0.2291  0.3639 -0.2036
 8862SOL     OW35213   1.065   1.901   0.207  0.0733  0.4793  0.1415
 8862SOL    HW235214   1.047   1.876   0.298  1.0945 -0.9239 -0.0072
 8862SOL    HW335215   1.000   1.854   0.156 -0.9377  1.8041  0.1685
 8862SOL    MW435216   1.054   1.892   0.212  0.0746  0.4689  0.1254
 8863SOL     OW35217   3.799   0.289   6.408 -0.4988  0.3065  0.4211
 8863SOL    HW235218   3.713   0.258   6.380 -0.1345  0.6813 -1.2414
 8863SOL    HW335219   3.850   0.209   6.422 -0.6008  0.0879 -0.3763
 8863SOL    MW435220   3.795   0.274   6.406 -0.4642  0.3271  0.0966
 8864SOL     OW35221   4.155   0.709   3.672  0.0269 -0.1346 -0.2214
 8864SOL    HW235222   4.112   0.626   3.652  0.6007 -0.5785  0.3622
 8864SOL    HW335223   4.210   0.690   3.747 -0.3076  0.9292  0.3135
 8864SOL    MW435224   4.156   0.696   3.679  0.0584 -0.0528 -0.0738
 8865SOL     OW35225   3.641   1.020   1.692  0.6388 -0.1751 -0.2765
 8865SOL    HW235226   3.625   0.937   1.647 -0.9921  0.8008 -1.5564
 8865SOL    HW335227   3.629   1.087   1.626  0.3261  1.1974  1.1052
 8865SOL    MW435228   3.638   1.018   1.678  0.3823  0.1347 -0.2630
 8866SOL     OW35229   3.483   4.316   1.019 -0.1265 -0.0696 -0.2271
 8866SOL    HW235230   3.459   4.409   1.011  1.3701  0.3051 -0.6428
 8866SOL    HW335231   3.439   4.288   1.099  1.9762  1.9190  1.7915
 8866SOL    MW435232   3.474   4.325   1.029  0.3484  0.2422 -0.0156
 8867SOL     OW35233   5.121   1.620   0.371 -0.9587 -0.0253  0.3366
 8867SOL    HW235234   5.115   1.640   0.278 -3.9949 -1.3750  0.1184
 8867SOL    HW335235   5.131   1.525   0.375  0.1467  0.1194  1.3973
 8867SOL    MW435236   5.121   1.610   0.360 -1.2135 -0.1843  0.4477
 8868SOL     OW35237   3.890   3.183   5.566  0.2893 -0.3380 -0.0928
 8868SOL    HW235238   3.795   3.178   5.563  0.2443  0.5004 -0.1937
 8868SOL    HW335239   3.911   3.194   5.659  0.4031 -2.2800  0.1639
 8868SOL    MW435240   3.880   3.184   5.578  0.2984 -0.4836 -0.0722
 8869SOL     OW35241   4.483   2.803   2.522  0.1310 -0.2537  0.3786
 8869SOL    HW235242   4.561   2.853   2.501 -1.0143  1.0699 -0.9119
 8869SOL    HW335243   4.410   2.860   2.500 -1.2397 -1.7414  0.7858
 8869SOL    MW435244   4.483   2.817   2.517 -0.2010 -0.2753  0.2621
 8870SOL     OW35245   1.437   0.399   2.127 -0.2235 -0.0759  0.1058
 8870SOL    HW235246   1.513   0.453   2.105 -0.4617  1.0122  1.7201
 8870SOL    HW335247   1.461   0.355   2.208 -1.7051  1.2729  1.3569
 8870SOL    MW435248   1.450   0.401   2.135 -0.4504  0.2456  0.4838
 8871SOL     OW35249   0.218   6.260   4.996 -0.1734 -0.1398 -0.0552
 8871SOL    HW235250   0.255   6.273   5.083  0.8036  3.4563 -0.8597
 8871SOL    HW335251   0.290   6.223   4.945 -0.2124 -0.6106  0.2217
 8871SOL    MW435252   0.232   6.257   5.000 -0.0497  0.2726 -0.1248
 8872SOL     OW35253   2.967   3.748   5.382  0.1022  0.0299  0.2668
 8872SOL    HW235254   2.894   3.742   5.444 -0.0184  1.4670  0.2910
 8872SOL    HW335255   3.044   3.724   5.434 -0.2405 -0.7263  0.4417
 8872SOL    MW435256   2.968   3.744   5.397  0.0411  0.1197  0.2931
 8873SOL     OW35257   4.554   2.860   4.861  0.5156 -0.0098 -0.3346
 8873SOL    HW235258   4.503   2.865   4.942  0.9910  0.1135 -0.0376
 8873SOL    HW335259   4.495   2.893   4.793 -0.3452 -1.3291 -0.2675
 8873SOL    MW435260   4.539   2.865   4.863  0.4648 -0.1676 -0.2865
 8874SOL     OW35261   5.571   0.400   3.526 -0.5175  0.6431  0.0369
 8874SOL    HW235262   5.571   0.394   3.431  2.1213 -0.9759  0.0497
 8874SOL    HW335263   5.538   0.488   3.544 -1.8515  0.6921 -2.2991
 8874SOL    MW435264   5.566   0.411   3.516 -0.3454  0.4360 -0.2696
 8875SOL     OW35265   2.071   2.410   3.173 -0.0747  0.3153  0.2122
 8875SOL    HW235266   2.056   2.472   3.101 -0.9291  1.2973  1.2135
 8875SOL    HW335267   2.001   2.345   3.164 -1.1809  1.3459  1.0942
 8875SOL    MW435268   2.060   2.410   3.162 -0.3334  0.5809  0.4607
 8876SOL     OW35269   4.625   3.002   3.961  0.4119  0.0539 -0.4351
 8876SOL    HW235270   4.546   3.035   4.003 -1.2257 -1.2683 -2.2985
 8876SOL    HW335271   4.628   2.909   3.986 -0.2366 -0.5925 -2.5860
 8876SOL    MW435272   4.615   2.994   3.970  0.1103 -0.2059 -0.9647
 8877SOL     OW35273   5.508   4.404   5.412  0.0653 -0.2293  0.4578
 8877SOL    HW235274   5.446   4.461   5.457 -0.5719 -1.2976  0.9588
 8877SOL    HW335275   5.578   4.389   5.475 -1.2949 -2.5207  1.5693
 8877SOL    MW435276   5.509   4.410   5.426 -0.1982 -0.6726  0.6705
 8878SOL     OW35277   6.184   0.828   5.361  0.3351 -0.2789  0.1312
 8878SOL    HW235278   6.152   0.796   5.445 -0.0370  1.0627  0.5177
 8878SOL    HW335279   6.114   0.885   5.329  1.0543  0.2970 -0.4464
 8878SOL    MW435280   6.171   0.831   5.368  0.3809 -0.0259  0.1060
 8879SOL     OW35281   6.300   1.731   2.126  0.2830 -0.0286  0.0619
 8879SOL    HW235282   6.319   1.657   2.069  0.4329 -0.4881  0.7016
 8879SOL    HW335283   6.252   1.694   2.200  1.9412  0.1614  1.3140
 8879SOL    MW435284   6.296   1.717   2.128  0.5215 -0.0641  0.3115
 8880SOL     OW35285   4.976   4.480   1.504  0.1132 -0.2832 -0.4180
 8880SOL    HW235286   5.044   4.501   1.567  0.1777 -1.8406  0.0739
 8880SOL    HW335287   4.906   4.441   1.556 -0.7364  0.3659 -1.0515
 8880SOL    MW435288   4.976   4.478   1.519  0.0096 -0.4030 -0.4367
 8881SOL     OW35289   1.098   1.861   0.502  0.2760  0.1744 -0.3912
 8881SOL    HW235290   1.192   1.866   0.487  0.3054  1.2985  0.1294
 8881SOL    HW335291   1.089   1.841   0.595 -0.0044 -0.7310 -0.5975
 8881SOL    MW435292   1.109   1.859   0.512  0.2429  0.2032 -0.3497
 8882SOL     OW35293   4.154   0.232   4.802  0.2114 -0.1615 -0.0593
 8882SOL    HW235294   4.106   0.198   4.878  0.9124 -1.3299 -0.1188
 8882SOL    HW335295   4.155   0.327   4.816 -1.2047 -0.2011  0.4666
 8882SOL    MW435296   4.148   0.240   4.814  0.1170 -0.3209  0.0022
 8883SOL     OW35297   1.919   5.293   0.332 -0.3590  0.5709 -0.7901
 8883SOL    HW235298   1.892   5.267   0.420  1.6109  0.7761 -0.0793
 8883SOL    HW335299   1.841   5.334   0.295 -1.2186  0.5526  0.8837
 8883SOL    MW435300   1.905   5.295   0.339 -0.2125  0.5956 -0.4755
 8884SOL     OW35301   2.380   5.266   4.140 -0.4250 -0.0956 -0.0250
 8884SOL    HW235302   2.410   5.241   4.228 -0.6300 -1.7897 -0.4057
 8884SOL    HW335303   2.460   5.274   4.088 -0.4003 -1.0075 -0.1433
 8884SOL    MW435304   2.394   5.264   4.145 -0.4488 -0.4395 -0.0909
 8885SOL     OW35305   2.070   2.712   4.024  0.3766  0.0775 -0.2692
 8885SOL    HW235306   2.104   2.653   4.091  0.8228  0.9930  0.3422
 8885SOL    HW335307   2.026   2.781   4.074  0.1543  0.4340 -0.9460
 8885SOL    MW435308   2.069   2.714   4.040  0.4061  0.2454 -0.2778
 8886NA      NA35309   2.027   3.783   5.907  0.1739 -0.0103 -0.8791
 8887NA      NA35310   2.198   0.094   6.436 -0.0194  0.1270 -0.0465
 8888NA      NA35311   1.293   5.018   5.160  0.5482 -0.2130  0.1455
 8889NA      NA35312   0.699   4.174   1.492 -0.4781 -0.5032 -0.0518
 8890NA      NA35313   3.836   2.583   0.886 -0.1330 -0.2491  0.3055
 8891NA      NA35314   1.090   2.300   3.387  0.4954 -0.5615 -0.3987
 8892NA      NA35315   1.062   1.423   4.203 -0.3306 -0.1434 -0.0628
   6.42920   6.42920   6.42920
