A-SYNC WITH FASUDIL
35315
  121NASP     N    1   0.966   4.953   5.981  0.4978 -0.2076  0.0044
  121NASP    H1    2   0.964   4.899   6.066  2.2517 -1.1654 -0.5087
  121NASP    H2    3   0.921   4.895   5.912 -1.4108 -0.5019  1.4257
  121NASP    H3    4   0.920   5.044   5.984  0.4975 -0.2160  2.4949
  121NASP    CA    5   1.101   4.992   5.942 -0.1183 -0.2381  0.3101
  121NASP    HA    6   1.100   5.030   5.840 -1.3303  1.0137  0.7433
  121NASP    CB    7   1.156   5.103   6.039 -0.3563  0.3144  0.4515
  121NASP   HB1    8   1.252   5.142   6.006 -1.7353  0.1865 -4.5214
  121NASP   HB2    9   1.162   5.059   6.138 -1.8882  0.2531  0.5457
  121NASP    CG   10   1.064   5.219   6.058  0.1225  0.5082  0.2238
  121NASP   OD1   11   1.091   5.312   6.138 -0.0361 -0.6592 -0.2472
  121NASP   OD2   12   0.965   5.230   5.980  0.1135  0.1255 -0.2476
  121NASP     C   13   1.199   4.876   5.947  0.8335  0.6511 -0.7939
  121NASP     O   14   1.198   4.795   6.038 -0.0222 -0.5202 -0.0991
  122ASN      N   15   1.293   4.851   5.854  0.5048  0.0662  0.5308
  122ASN      H   16   1.288   4.916   5.777  1.0041  1.0923  1.3437
  122ASN     CA   17   1.388   4.744   5.859 -0.2182 -0.2873  0.3957
  122ASN     HA   18   1.337   4.649   5.875  1.2183 -1.2055 -0.2540
  122ASN     CB   19   1.448   4.726   5.720 -0.2252 -0.6405  0.0738
  122ASN    HB1   20   1.520   4.645   5.714 -1.3000 -1.6298  0.3133
  122ASN    HB2   21   1.504   4.811   5.680 -0.9128  0.4973  1.4532
  122ASN     CG   22   1.336   4.690   5.616 -0.0501 -0.6127  0.3779
  122ASN    OD1   23   1.275   4.593   5.629  0.3615 -0.2057  0.0105
  122ASN    ND2   24   1.305   4.765   5.518  0.3744 -0.4792 -0.5567
  122ASN   HD21   25   1.225   4.740   5.461 -1.8591  3.9930  0.1211
  122ASN   HD22   26   1.349   4.856   5.511  0.9696 -0.6605  0.6990
  122ASN      C   27   1.500   4.774   5.957 -0.0857  0.0770 -0.0538
  122ASN      O   28   1.507   4.884   6.018 -0.4140 -0.2505 -0.2718
  123GLU      N   29   1.587   4.677   5.976 -0.7085  0.4036 -0.1834
  123GLU      H   30   1.564   4.597   5.919  1.4952  1.0257 -2.1030
  123GLU     CA   31   1.716   4.690   6.049  0.0331  0.6688  0.4749
  123GLU     HA   32   1.696   4.753   6.135 -1.1437 -0.5599  1.1380
  123GLU     CB   33   1.771   4.557   6.099  0.0869 -0.1039  0.0337
  123GLU    HB1   34   1.707   4.524   6.181  1.0540  1.3023  1.4192
  123GLU    HB2   35   1.864   4.574   6.153 -0.1982 -0.2356  0.5690
  123GLU     CG   36   1.787   4.439   6.001  0.4315 -0.0146  0.3503
  123GLU    HG1   37   1.695   4.430   5.944  0.3349 -0.6658  0.5950
  123GLU    HG2   38   1.805   4.349   6.061  1.3898 -0.1629 -0.1315
  123GLU     CD   39   1.912   4.448   5.906  0.0734  0.7314 -0.1319
  123GLU    OE1   40   2.016   4.507   5.944 -0.0122  0.1378 -0.2691
  123GLU    OE2   41   1.897   4.383   5.801 -0.1230  0.6647  0.6105
  123GLU      C   42   1.826   4.762   5.972  0.6220  0.1037  0.8483
  123GLU      O   43   1.905   4.829   6.039 -0.0892 -0.1522 -0.4780
  124ALA      N   44   1.837   4.748   5.837 -0.5679 -0.2296 -0.0064
  124ALA      H   45   1.773   4.685   5.791 -1.2041  0.4444 -0.0671
  124ALA     CA   46   1.957   4.795   5.766  0.3954  0.6872  0.9188
  124ALA     HA   47   2.048   4.756   5.811  3.0690  2.2729 -2.6499
  124ALA     CB   48   1.961   4.760   5.614  0.3820  0.2432  0.4290
  124ALA    HB1   49   1.875   4.807   5.567 -0.6116 -0.0971  1.8500
  124ALA    HB2   50   1.955   4.652   5.604 -0.0867  0.4019 -1.1752
  124ALA    HB3   51   2.058   4.781   5.568  0.1813  0.5428  0.1402
  124ALA      C   52   1.969   4.946   5.775 -0.0385 -0.3165 -0.2100
  124ALA      O   53   1.867   5.014   5.795  0.0998  0.0193 -0.5867
  125TYR      N   54   2.092   5.001   5.746 -0.3483 -0.5822 -0.1558
  125TYR      H   55   2.169   4.935   5.750 -1.0708 -1.4143  0.5658
  125TYR     CA   56   2.126   5.131   5.709 -0.4595 -0.1607  0.3176
  125TYR     HA   57   2.133   5.198   5.794 -0.4375 -2.1042  1.9089
  125TYR     CB   58   2.270   5.127   5.642  0.2247  0.1112 -0.2742
  125TYR    HB1   59   2.268   5.100   5.536  0.1551 -0.1948 -0.1972
  125TYR    HB2   60   2.324   5.047   5.693  0.9599  0.8328  0.0888
  125TYR     CG   61   2.346   5.250   5.659  0.9752 -0.1783 -0.4275
  125TYR    CD1   62   2.314   5.371   5.592 -0.1343 -0.2417  0.3864
  125TYR    HD1   63   2.244   5.370   5.510  0.5865  1.2322 -0.2725
  125TYR    CE1   64   2.379   5.490   5.632 -0.1480 -0.4078  0.1049
  125TYR    HE1   65   2.346   5.578   5.580 -2.4061 -0.7950  0.7996
  125TYR     CZ   66   2.466   5.498   5.741  0.1440  0.7325  0.1622
  125TYR     OH   67   2.525   5.611   5.784  0.0632 -0.7178  0.1221
  125TYR     HH   68   2.525   5.682   5.719 -0.5804 -0.7324  0.1060
  125TYR    CE2   69   2.501   5.377   5.794  0.6568  0.4049 -0.4161
  125TYR    HE2   70   2.575   5.385   5.872  2.4770  1.6802 -2.1672
  125TYR    CD2   71   2.444   5.251   5.756 -0.0650  0.4838 -0.9303
  125TYR    HD2   72   2.462   5.160   5.812 -3.5829 -0.4573 -1.0881
  125TYR      C   73   2.033   5.195   5.609  0.0352 -0.0930 -0.3499
  125TYR      O   74   2.004   5.315   5.619  0.0992  0.0680  0.4516
  126GLU      N   75   1.991   5.125   5.504  0.7967  0.6059  0.2403
  126GLU      H   76   2.031   5.033   5.494  0.7101  0.6418 -0.4524
  126GLU     CA   77   1.919   5.179   5.384 -0.9102  0.6419 -0.5392
  126GLU     HA   78   1.934   5.102   5.308  2.3563 -0.3122  0.9004
  126GLU     CB   79   1.763   5.196   5.400 -0.1529 -0.6466 -0.3136
  126GLU    HB1   80   1.712   5.245   5.317 -0.7958 -0.8092 -0.0196
  126GLU    HB2   81   1.738   5.255   5.488 -0.0339  0.3825 -0.9541
  126GLU     CG   82   1.699   5.056   5.428 -0.0760 -0.3692  0.1778
  126GLU    HG1   83   1.730   5.019   5.525 -0.1710 -0.1383  0.2984
  126GLU    HG2   84   1.735   4.982   5.357 -0.4516 -0.3263 -0.0609
  126GLU     CD   85   1.550   5.060   5.421  0.4355 -0.0203  0.2052
  126GLU    OE1   86   1.492   4.957   5.455  0.4684  0.0062  0.7487
  126GLU    OE2   87   1.491   5.167   5.394 -0.3042 -0.4621  0.1757
  126GLU      C   88   1.986   5.295   5.311 -0.0572 -0.4333  0.6264
  126GLU      O   89   1.936   5.406   5.302  0.4535  0.2825  0.0534
  127MET      N   90   2.108   5.268   5.265  0.2649 -0.2378 -0.2095
  127MET      H   91   2.148   5.176   5.281  2.9890  0.7855 -0.6119
  127MET     CA   92   2.170   5.351   5.164  0.2045  0.5936 -0.2688
  127MET     HA   93   2.169   5.451   5.206 -0.0042  0.8505 -0.8630
  127MET     CB   94   2.317   5.316   5.147 -0.1276  0.3623 -0.3645
  127MET    HB1   95   2.346   5.333   5.043 -0.3104  0.5557 -0.3843
  127MET    HB2   96   2.335   5.209   5.159 -2.0683 -0.1093 -1.2488
  127MET     CG   97   2.409   5.400   5.248 -0.2130  0.0305 -0.1403
  127MET    HG1   98   2.368   5.393   5.349  0.2517  1.4624  0.1672
  127MET    HG2   99   2.409   5.503   5.210  2.2956  0.4580  0.8695
  127MET     SD  100   2.580   5.356   5.276 -0.1676  0.3177 -0.2662
  127MET     CE  101   2.634   5.461   5.413 -0.6287  0.5070 -0.2016
  127MET    HE1  102   2.610   5.567   5.407  0.8180  0.8901  0.3065
  127MET    HE2  103   2.740   5.439   5.428 -0.8377 -0.5851 -0.1795
  127MET    HE3  104   2.587   5.417   5.501  0.2621 -2.9649 -1.2949
  127MET      C  105   2.093   5.340   5.028 -0.9832  0.6483  1.1651
  127MET      O  106   2.049   5.234   4.989  0.3391  0.0619  0.0280
  128PRO      N  107   2.084   5.445   4.946  0.3577  0.9030 -0.3283
  128PRO     CD  108   2.131   5.579   4.987  0.2552  0.1917 -0.2373
  128PRO    HD1  109   2.239   5.588   4.994  0.1846  1.0307 -0.1193
  128PRO    HD2  110   2.077   5.607   5.078  0.9163 -0.4698  0.3683
  128PRO     CG  111   2.076   5.674   4.882 -0.2980  0.6660 -0.3647
  128PRO    HG1  112   2.160   5.736   4.850  0.5469  0.5483  1.5105
  128PRO    HG2  113   2.002   5.734   4.934 -0.5108 -1.0231  1.3781
  128PRO     CB  114   2.028   5.585   4.767  0.1594 -0.4828  0.2923
  128PRO    HB1  115   1.928   5.621   4.741  0.0540 -0.2556  0.9853
  128PRO    HB2  116   2.091   5.597   4.679  0.6484  0.3806  0.7505
  128PRO     CA  117   2.028   5.437   4.810 -0.2730  0.5086 -0.7225
  128PRO     HA  118   1.926   5.398   4.817 -0.2813 -0.1258 -3.3305
  128PRO      C  119   2.119   5.353   4.714 -0.2598  0.1650  0.3197
  128PRO      O  120   2.241   5.339   4.728 -0.3547 -0.2235 -0.6948
  129SER      N  121   2.054   5.313   4.603  0.2732 -0.0696  0.5548
  129SER      H  122   1.953   5.322   4.600  0.1069 -1.0257  2.2172
  129SER     CA  123   2.128   5.255   4.490  0.0421  0.1401  0.1886
  129SER     HA  124   2.172   5.158   4.514 -0.5578 -0.1211  0.2592
  129SER     CB  125   2.042   5.201   4.378  0.1160 -0.5963  0.0221
  129SER    HB1  126   1.990   5.111   4.411 -1.0738 -0.8129 -2.2840
  129SER    HB2  127   2.105   5.169   4.295 -0.9693  2.3448 -2.0769
  129SER     OG  128   1.944   5.297   4.343 -0.1986  0.0325  0.1428
  129SER    HG1  129   1.879   5.243   4.297  0.3312  0.2176 -0.8426
  129SER      C  130   2.235   5.343   4.421 -0.3165  0.1971 -0.2290
  129SER      O  131   2.206   5.438   4.350  0.1938 -0.2568 -0.9249
  130GLU      N  132   2.357   5.305   4.433 -0.3653  0.3338  0.6671
  130GLU      H  133   2.378   5.207   4.447 -1.0665 -0.3308 -2.3544
  130GLU     CA  134   2.480   5.377   4.395 -0.0521 -0.5638 -0.3553
  130GLU     HA  135   2.454   5.481   4.377 -1.1073 -1.0401 -1.7782
  130GLU     CB  136   2.587   5.369   4.504 -0.2079  0.5307  0.4672
  130GLU    HB1  137   2.640   5.274   4.504  1.8552  1.5905 -1.4070
  130GLU    HB2  138   2.531   5.374   4.597 -3.0945 -0.5039 -1.0950
  130GLU     CG  139   2.698   5.472   4.517 -0.0947 -0.0050  0.2117
  130GLU    HG1  140   2.662   5.571   4.490 -1.2547  0.0437  1.7859
  130GLU    HG2  141   2.773   5.473   4.438 -0.3636 -2.3545 -0.1478
  130GLU     CD  142   2.763   5.464   4.657  0.6618  0.2730 -0.3973
  130GLU    OE1  143   2.839   5.562   4.691  0.0459 -0.0997 -0.1297
  130GLU    OE2  144   2.760   5.357   4.723 -0.3240 -0.1879 -0.4008
  130GLU      C  145   2.522   5.327   4.255 -0.2896  0.0990 -0.1946
  130GLU      O  146   2.635   5.283   4.234 -0.2425 -0.4372 -0.1850
  131GLU      N  147   2.424   5.333   4.163 -0.4752  0.1416  0.1174
  131GLU      H  148   2.333   5.361   4.197  0.0425  0.3326  1.4374
  131GLU     CA  149   2.449   5.302   4.016  0.0433 -1.1390 -0.0467
  131GLU     HA  150   2.523   5.223   4.006 -0.2117 -1.4241  0.2868
  131GLU     CB  151   2.325   5.263   3.948  0.2172 -0.0605 -0.1455
  131GLU    HB1  152   2.354   5.251   3.844 -0.1153  0.7526 -0.3448
  131GLU    HB2  153   2.252   5.344   3.939  0.2078 -0.3120 -4.3599
  131GLU     CG  154   2.276   5.127   4.009 -0.2495 -0.2821  0.6463
  131GLU    HG1  155   2.240   5.140   4.111  0.4512  0.9249  0.7729
  131GLU    HG2  156   2.358   5.056   4.017 -0.2268 -0.3995 -0.5496
  131GLU     CD  157   2.172   5.066   3.917  0.4893 -0.0595 -0.3597
  131GLU    OE1  158   2.100   5.139   3.852  0.0751  0.9881  0.2583
  131GLU    OE2  159   2.150   4.941   3.929  0.6241 -0.5449  0.2190
  131GLU      C  160   2.503   5.429   3.948 -0.6070  0.4833  0.0091
  131GLU      O  161   2.469   5.540   3.991 -0.2933  0.4558 -0.7211
  132GLY      N  162   2.592   5.416   3.850 -0.4061  0.8991  0.2079
  132GLY      H  163   2.620   5.322   3.827 -0.4491  1.2615 -1.4624
  132GLY     CA  164   2.675   5.512   3.784 -0.1178 -0.5937  0.1748
  132GLY    HA1  165   2.744   5.460   3.717  0.9342  1.4378 -0.4072
  132GLY    HA2  166   2.737   5.563   3.858 -1.1595  0.2654  0.4780
  132GLY      C  167   2.591   5.624   3.708 -0.4491 -0.3313  0.2464
  132GLY      O  168   2.513   5.599   3.621 -0.0720 -0.0359  0.2315
  133TYR      N  169   2.609   5.749   3.754  0.0159  0.1810 -0.7435
  133TYR      H  170   2.675   5.755   3.831 -0.4189  0.1331 -0.3639
  133TYR     CA  171   2.526   5.860   3.701 -0.3640  0.2722  0.3129
  133TYR     HA  172   2.421   5.832   3.695 -0.3740  0.3817 -0.0806
  133TYR     CB  173   2.531   5.971   3.803  0.1870 -0.3209 -0.1932
  133TYR    HB1  174   2.487   5.927   3.892  1.2285  2.4318  1.8258
  133TYR    HB2  175   2.470   6.053   3.765  0.1685 -0.8906 -1.4550
  133TYR     CG  176   2.668   6.025   3.850 -0.4137 -0.4206 -0.5824
  133TYR    CD1  177   2.734   5.987   3.966  0.2061  0.0860 -0.6624
  133TYR    HD1  178   2.687   5.913   4.030 -0.4984  0.7878 -0.3565
  133TYR    CE1  179   2.849   6.057   4.010  0.2924  0.6126  1.1839
  133TYR    HE1  180   2.896   6.025   4.102  2.5118  1.6627  0.4706
  133TYR     CZ  181   2.899   6.162   3.931  0.5358 -0.2816  0.4742
  133TYR     OH  182   3.011   6.231   3.969  0.2072  0.0784 -0.2848
  133TYR     HH  183   3.069   6.191   4.033 -1.6070 -1.6183  0.3908
  133TYR    CE2  184   2.840   6.196   3.808  0.5886  0.6709  0.1626
  133TYR    HE2  185   2.882   6.279   3.752  1.0420 -0.4647 -1.2525
  133TYR    CD2  186   2.722   6.133   3.772 -0.2757  0.3256  0.3801
  133TYR    HD2  187   2.656   6.174   3.696 -1.1365 -0.7633  0.5146
  133TYR      C  188   2.565   5.909   3.561  0.3769 -0.3276 -0.1437
  133TYR      O  189   2.676   5.878   3.509  0.5850  0.5564  0.2985
  134GLN      N  190   2.464   5.966   3.493 -0.5293 -0.4513  0.5488
  134GLN      H  191   2.373   5.973   3.534 -0.9039 -1.0352 -0.1574
  134GLN     CA  192   2.481   6.007   3.349 -0.1600  0.6999 -0.2557
  134GLN     HA  193   2.532   5.924   3.300  1.7036 -1.6848  4.9689
  134GLN     CB  194   2.345   6.023   3.281  0.0409 -0.1742  0.0024
  134GLN    HB1  195   2.304   6.124   3.285 -2.1600 -0.9220 -1.5834
  134GLN    HB2  196   2.264   5.971   3.333 -0.9427  1.4770  0.1908
  134GLN     CG  197   2.349   5.982   3.132  0.7884 -0.1752 -0.5462
  134GLN    HG1  198   2.376   5.877   3.133 -0.5415 -0.5517  1.4634
  134GLN    HG2  199   2.425   6.043   3.082  1.2324 -0.9082 -0.7739
  134GLN     CD  200   2.224   6.019   3.051 -0.1459  0.4574 -0.0425
  134GLN    OE1  201   2.124   6.048   3.114  0.0699 -0.0278  0.3148
  134GLN    NE2  202   2.243   6.022   2.919  0.4256 -0.3282  0.0300
  134GLN   HE21  203   2.166   6.044   2.857 -0.1658  0.4656  1.0042
  134GLN   HE22  204   2.335   5.992   2.890  0.4114  0.6670 -1.1043
  134GLN      C  205   2.564   6.135   3.341 -0.5862  0.1770 -0.1408
  134GLN      O  206   2.552   6.220   3.428  0.0688 -0.1976  0.3050
  135ASP      N  207   2.652   6.147   3.239  0.9685 -0.2030  0.4589
  135ASP      H  208   2.650   6.070   3.174 -0.3099  0.1434  0.0591
  135ASP     CA  209   2.722   6.272   3.201 -0.6297  0.4149  0.4635
  135ASP     HA  210   2.675   6.354   3.254 -1.9464  0.5727 -0.8937
  135ASP     CB  211   2.869   6.265   3.249  0.2575  0.2561  0.0699
  135ASP    HB1  212   2.858   6.250   3.356  0.3176 -0.1989  0.0159
  135ASP    HB2  213   2.925   6.356   3.226 -2.0317  2.1125  1.4219
  135ASP     CG  214   2.948   6.148   3.199 -0.2659  0.2983  0.3559
  135ASP    OD1  215   3.071   6.144   3.239  0.5710  0.1412  0.0528
  135ASP    OD2  216   2.899   6.060   3.121 -0.0599 -0.1417  0.2518
  135ASP      C  217   2.708   6.295   3.048 -0.5518 -0.4331 -0.2525
  135ASP      O  218   2.663   6.204   2.975 -0.2630  0.3620 -0.0349
  136TYR      N  219   2.740   6.413   3.004  0.0063  0.6594  0.2473
  136TYR      H  220   2.791   6.477   3.063  0.4228 -0.1664  0.7999
  136TYR     CA  221   2.709   6.452   2.865 -0.4527  0.3161  0.0244
  136TYR     HA  222   2.677   6.369   2.803 -1.7893  1.9359 -1.5932
  136TYR     CB  223   2.580   6.541   2.869 -0.7230  0.2403 -0.0418
  136TYR    HB1  224   2.540   6.549   2.768 -1.9533 -2.5220  0.1510
  136TYR    HB2  225   2.620   6.627   2.924  2.2750 -0.3062 -1.1589
  136TYR     CG  226   2.462   6.489   2.951 -0.4287  0.6223 -0.2831
  136TYR    CD1  227   2.368   6.407   2.897  0.1369 -0.2066 -0.1868
  136TYR    HD1  228   2.382   6.380   2.793  1.5421 -0.2787  0.0082
  136TYR    CE1  229   2.256   6.363   2.966 -0.2547  0.7379 -0.0484
  136TYR    HE1  230   2.184   6.298   2.917  0.1440  0.4961 -0.3179
  136TYR     CZ  231   2.249   6.384   3.106 -0.1973 -0.3883  0.5441
  136TYR     OH  232   2.138   6.377   3.180 -0.3260  0.7258 -0.0568
  136TYR     HH  233   2.148   6.392   3.274  1.0089  1.5009 -0.3060
  136TYR    CE2  234   2.352   6.459   3.170  0.1000  0.6183  0.3671
  136TYR    HE2  235   2.338   6.495   3.272  0.0549  0.5220  0.3949
  136TYR    CD2  236   2.459   6.511   3.091  0.2159 -0.2803  0.8194
  136TYR    HD2  237   2.530   6.574   3.142  1.1666 -1.1682  0.6353
  136TYR      C  238   2.823   6.526   2.788 -0.1782  0.9824 -0.3209
  136TYR      O  239   2.907   6.595   2.844  0.1473  0.0651  0.3399
  137GLU      N  240   2.828   6.504   2.654  0.2803 -0.6188  0.1426
  137GLU      H  241   2.772   6.427   2.619  0.2167 -0.1604 -0.8103
  137GLU     CA  242   2.909   6.581   2.555 -0.3351 -0.0914  0.3025
  137GLU     HA  243   3.014   6.556   2.568 -0.7819 -2.5936 -0.3895
  137GLU     CB  244   2.886   6.535   2.411 -0.3359  0.3632 -0.0811
  137GLU    HB1  245   2.930   6.602   2.337  1.8815  0.6109  1.3862
  137GLU    HB2  246   2.779   6.542   2.387 -0.8400 -2.1330  1.1062
  137GLU     CG  247   2.928   6.396   2.364 -0.4899  0.5897  0.6219
  137GLU    HG1  248   2.892   6.366   2.266  0.0458 -0.9274  0.8601
  137GLU    HG2  249   2.883   6.327   2.436 -0.3815  1.5908  1.6849
  137GLU     CD  250   3.083   6.378   2.367 -0.5861 -0.1212  0.2027
  137GLU    OE1  251   3.160   6.472   2.394 -0.8007 -0.2679  0.1874
  137GLU    OE2  252   3.118   6.262   2.332  0.0270 -0.2691  1.0794
  137GLU      C  253   2.876   6.727   2.559  0.2774 -0.8598  0.2620
  137GLU      O  254   2.760   6.762   2.532 -0.3041 -0.0191  0.0249
  138PRO      N  255   2.973   6.822   2.564  0.3487  0.3400  0.5727
  138PRO     CD  256   3.114   6.793   2.594  0.2503  0.2053  0.2467
  138PRO    HD1  257   3.169   6.768   2.503  0.8323  2.0988  0.0310
  138PRO    HD2  258   3.129   6.717   2.671 -2.4019 -0.4590  0.1865
  138PRO     CG  259   3.173   6.915   2.650  0.2508  0.6382 -0.8342
  138PRO    HG1  260   3.282   6.916   2.645  0.3116  1.4763  0.3218
  138PRO    HG2  261   3.148   6.920   2.756 -0.0792  0.1761 -0.8886
  138PRO     CB  262   3.099   7.025   2.580  0.2174 -0.3200 -0.5012
  138PRO    HB1  263   3.096   7.123   2.627 -2.4501 -0.3649 -0.3917
  138PRO    HB2  264   3.140   7.049   2.482 -0.5527 -1.9586 -1.2798
  138PRO     CA  265   2.956   6.973   2.565  0.2579 -0.0396 -0.6243
  138PRO     HA  266   2.898   7.004   2.652  0.0262 -2.9436  0.3678
  138PRO      C  267   2.904   7.031   2.438 -0.0608  0.1931 -0.2454
  138PRO      O  268   2.910   6.969   2.333 -0.0821  0.7325 -0.2507
  139GLU      N  269   2.858   7.155   2.452  0.4507 -0.1328  0.3449
  139GLU      H  270   2.884   7.206   2.536  0.4698 -0.1517  0.3503
  139GLU     CA  271   2.796   7.228   2.340  0.2538 -0.5562  0.3072
  139GLU     HA  272   2.731   7.159   2.285 -0.7884 -0.6808  1.6550
  139GLU     CB  273   2.704   7.333   2.402  0.0191  0.0452 -0.4253
  139GLU    HB1  274   2.757   7.420   2.441 -1.1571  0.4660  0.2987
  139GLU    HB2  275   2.658   7.298   2.495 -2.4245  3.0104 -0.3460
  139GLU     CG  276   2.588   7.386   2.314  0.4104  0.2829  0.2077
  139GLU    HG1  277   2.533   7.295   2.288 -0.4639  0.7838  0.2502
  139GLU    HG2  278   2.616   7.435   2.221 -1.6869  3.6396  1.1652
  139GLU     CD  279   2.491   7.479   2.392 -0.2542  0.3934 -0.8521
  139GLU    OE1  280   2.522   7.602   2.407 -0.0506 -0.5451 -0.0397
  139GLU    OE2  281   2.389   7.437   2.449 -0.0793  0.0290  0.4471
  139GLU      C  282   2.908   7.281   2.248  0.9972 -0.9334  0.0729
  139GLU      O  283   2.864   7.354   2.156 -0.1373 -0.1078  0.0548
  140CALA     N  284   3.038   7.257   2.270 -0.1478  0.0825  0.2370
  140CALA     H  285   3.058   7.201   2.352  1.4304 -0.9035 -0.7816
  140CALA    CA  286   3.153   7.310   2.194  0.9349 -0.7900  0.1450
  140CALA    HA  287   3.132   7.409   2.153 -3.3147 -2.1208 -1.3976
  140CALA    CB  288   3.275   7.313   2.288 -0.2097 -0.0077 -0.3222
  140CALA   HB1  289   3.264   7.345   2.392  0.4245  0.0928 -0.2760
  140CALA   HB2  290   3.360   7.367   2.247 -0.6364  0.5466 -0.4822
  140CALA   HB3  291   3.308   7.210   2.301 -0.1079  0.3686  3.9212
  140CALA     C  292   3.181   7.239   2.060 -0.6417  0.0787 -0.0311
  140CALA   OC1  293   3.131   7.289   1.957  0.1088  0.3236 -0.7782
  140CALA   OC2  294   3.236   7.126   2.059  0.4449 -0.4139 -1.3313
  141FAS      C  295   1.740   3.345   6.348  0.0584 -0.5309 -1.2504
  141FAS     C1  296   1.679   3.423   6.234 -0.1306  0.0352 -0.3850
  141FAS      N  297   1.579   3.531   6.270 -0.0555 -0.0109  0.3823
  141FAS     C2  298   1.578   3.581   6.414 -0.0120  0.0704  0.4673
  141FAS     C3  299   1.525   3.483   6.524 -0.2732 -0.1856 -0.0480
  141FAS     N1  300   1.606   3.365   6.555  0.8938 -0.1997 -0.2861
  141FAS     C4  301   1.633   3.275   6.437  0.2265  0.2982  0.4098
  141FAS      S  302   1.538   3.284   6.680 -0.5765  0.1269  0.1498
  141FAS      O  303   1.545   3.381   6.793  0.5985 -0.0076  0.1467
  141FAS     O1  304   1.417   3.222   6.628  0.0177 -0.3393  0.4358
  141FAS     C5  305   1.669   3.174   6.709 -0.0462 -0.2043  0.3940
  141FAS     C6  306   1.637   3.040   6.714  0.1466  0.2588 -0.4935
  141FAS     C7  307   1.732   2.940   6.743  0.2218  0.2589  0.5715
  141FAS     C8  308   1.865   2.973   6.751 -0.2500  0.3388 -0.9539
  141FAS     C9  309   1.901   3.108   6.734 -0.0636  0.0875 -0.8898
  141FAS    C10  310   1.807   3.212   6.727  0.1668  0.7491  0.7492
  141FAS    C11  311   1.860   3.342   6.728  0.0672  0.2308  0.1258
  141FAS    C12  312   1.998   3.360   6.737 -0.0029 -0.4890 -0.0816
  141FAS     N2  313   2.087   3.263   6.747 -0.6687  0.8428  0.0798
  141FAS    C13  314   2.038   3.138   6.757 -0.7580 -0.1449 -0.1142
  141FAS      H  315   1.801   3.398   6.421 -1.6634  1.1232 -0.9252
  141FAS     H1  316   1.802   3.269   6.299 -0.8408 -0.4200 -2.6345
  141FAS     H2  317   1.622   3.359   6.167 -0.9787  0.3649  0.0178
  141FAS     H3  318   1.770   3.469   6.195  1.1036  0.5935  2.8321
  141FAS     H4  319   1.601   3.613   6.211 -0.0373 -1.6022 -1.9566
  141FAS     H5  320   1.525   3.676   6.418  1.1202  0.7051  0.6671
  141FAS     H6  321   1.682   3.609   6.427  0.5777 -1.1970 -1.1102
  141FAS     H7  322   1.423   3.449   6.500 -0.1431  0.1076 -1.0644
  141FAS     H8  323   1.516   3.549   6.612  0.9519 -0.3859  0.2485
  141FAS     H9  324   1.542   3.250   6.381  0.2112  0.9719  0.1293
  141FAS    H10  325   1.670   3.175   6.464  0.6078  0.6049  1.0402
  141FAS    H11  326   1.538   3.010   6.681  0.4326  0.9094 -1.9909
  141FAS    H12  327   1.699   2.839   6.765 -1.4835 -0.0888 -2.9298
  141FAS    H13  328   1.941   2.898   6.769 -2.2079 -1.4682  0.2032
  141FAS    H14  329   1.804   3.432   6.701  1.0755 -0.0747 -3.4878
  141FAS    H15  330   2.033   3.462   6.729  0.1526 -0.6857 -2.7591
  141FAS    H16  331   2.113   3.059   6.761 -1.7895 -1.1310  0.1877
  141FAS    H17  332   1.485   3.501   6.239 -0.1107 -0.7471  1.2314
  142SOL     OW  333   1.228   1.107   6.045  0.2011 -0.0372 -0.1046
  142SOL    HW2  334   1.286   1.040   6.082 -1.6851 -0.9669  1.3159
  142SOL    HW3  335   1.191   1.067   5.967 -2.7227 -1.7529  1.9664
  142SOL    MW4  336   1.231   1.093   6.040 -0.4335 -0.3863  0.3561
  143SOL     OW  337   1.970   4.464   1.230  0.4903  0.6466 -0.0850
  143SOL    HW2  338   1.881   4.500   1.229  1.0278  2.2661  1.9425
  143SOL    HW3  339   2.014   4.505   1.155 -0.6794 -0.9361 -1.7048
  143SOL    MW4  340   1.964   4.474   1.220  0.4069  0.6515 -0.0312
  144SOL     OW  341   1.893   3.505   2.125 -0.1908  0.1988  0.0981
  144SOL    HW2  342   1.894   3.520   2.031  0.0897  1.5375  0.2977
  144SOL    HW3  343   1.978   3.536   2.156 -1.5228  3.0868  1.2256
  144SOL    MW4  344   1.904   3.511   2.117 -0.3295  0.7564  0.2732
  145SOL     OW  345   1.325   4.146   4.695 -0.0721  0.3304 -0.5166
  145SOL    HW2  346   1.248   4.202   4.693  0.3598  0.9294 -0.7433
  145SOL    HW3  347   1.370   4.164   4.613 -0.0386 -0.5196 -0.6957
  145SOL    MW4  348   1.321   4.156   4.684 -0.0107  0.2973 -0.5701
  146SOL     OW  349   3.265   0.393   5.431  0.3269 -0.5535 -0.8578
  146SOL    HW2  350   3.173   0.386   5.455  0.2336 -0.4740 -1.1888
  146SOL    HW3  351   3.287   0.485   5.445  0.2093 -0.4576 -1.3013
  146SOL    MW4  352   3.256   0.404   5.436  0.2991 -0.5303 -0.9600
  147SOL     OW  353   1.067   4.519   1.787 -0.0898 -0.3401 -0.6423
  147SOL    HW2  354   1.127   4.564   1.847 -0.3073 -0.4752 -0.3204
  147SOL    HW3  355   0.981   4.527   1.829 -0.0493 -1.5532 -0.2897
  147SOL    MW4  356   1.064   4.526   1.800 -0.1131 -0.5180 -0.5533
  148SOL     OW  357   2.796   4.873   4.038  0.0148 -0.2017 -0.0154
  148SOL    HW2  358   2.873   4.901   3.989 -1.1633  0.6807 -1.4554
  148SOL    HW3  359   2.819   4.889   4.130  1.8200 -0.7254 -0.3476
  148SOL    MW4  360   2.809   4.879   4.044  0.0975 -0.1544 -0.2492
  149SOL     OW  361   2.614   0.604   5.758  0.0125  0.0785 -0.1327
  149SOL    HW2  362   2.700   0.601   5.801 -0.8570 -0.2157  1.6597
  149SOL    HW3  363   2.631   0.650   5.675  1.9450 -0.2393  0.0370
  149SOL    MW4  364   2.628   0.610   5.753  0.1528 -0.0023  0.1262
  150SOL     OW  365   2.489   4.797   2.607 -0.9025 -0.1848  0.0233
  150SOL    HW2  366   2.443   4.881   2.613 -1.2900 -0.3939  0.0063
  150SOL    HW3  367   2.534   4.788   2.690 -1.9886 -0.6135  0.5748
  150SOL    MW4  368   2.489   4.807   2.619 -1.0969 -0.2689  0.0938
  151SOL     OW  369   1.766   0.246   0.814 -0.0980  0.4079  0.8786
  151SOL    HW2  370   1.850   0.235   0.859  0.7561 -1.5872 -1.0336
  151SOL    HW3  371   1.711   0.178   0.851  0.2152 -0.4279 -0.1381
  151SOL    MW4  372   1.770   0.236   0.825  0.0560  0.0344  0.4922
  152SOL     OW  373   3.441   5.151   6.136 -0.4141  0.2069  0.0094
  152SOL    HW2  374   3.467   5.131   6.225  0.0537  0.7560  0.0041
  152SOL    HW3  375   3.472   5.241   6.121 -0.6278  0.1832 -0.6481
  152SOL    MW4  376   3.448   5.160   6.145 -0.3806  0.2762 -0.0781
  153SOL     OW  377   1.043   5.268   1.591  0.1619 -0.3027 -0.2909
  153SOL    HW2  378   1.099   5.331   1.636  0.0759 -1.3970  1.4815
  153SOL    HW3  379   1.092   5.185   1.596 -1.7679 -1.4279  1.8398
  153SOL    MW4  380   1.057   5.265   1.598 -0.1041 -0.5955  0.2241
  154SOL     OW  381   1.739   0.076   4.016  0.4873  0.0229 -0.1371
  154SOL    HW2  382   1.819   0.066   4.067 -0.6253 -0.7330  1.5462
  154SOL    HW3  383   1.768   0.072   3.925  2.2054 -1.6244  0.4169
  154SOL    MW4  384   1.753   0.074   4.011  0.5672 -0.2942  0.1581
  155SOL     OW  385   0.386   3.236   0.869 -0.3845 -0.0066 -0.0408
  155SOL    HW2  386   0.302   3.233   0.915 -0.1817 -0.0497  0.3266
  155SOL    HW3  387   0.451   3.213   0.936 -0.0793  0.0418 -0.3206
  155SOL    MW4  388   0.384   3.233   0.884 -0.3175 -0.0059 -0.0293
  156SOL     OW  389   3.573   0.403   4.010  0.3330  0.0684 -0.6173
  156SOL    HW2  390   3.615   0.415   3.925 -0.7066 -0.5799 -1.2465
  156SOL    HW3  391   3.554   0.309   4.014  0.3544  0.0923  0.3372
  156SOL    MW4  392   3.576   0.392   3.999  0.1987 -0.0140 -0.5744
  157SOL     OW  393   0.681   5.859   2.478  0.2554  0.7224 -0.2827
  157SOL    HW2  394   0.655   5.833   2.390  0.4246  0.3252 -0.2181
  157SOL    HW3  395   0.752   5.799   2.500  0.9262  1.5013 -0.2832
  157SOL    MW4  396   0.687   5.848   2.469  0.3663  0.7727 -0.2742
  158SOL     OW  397   2.635   1.127   2.784 -0.1044  0.2673 -0.3036
  158SOL    HW2  398   2.719   1.091   2.812 -0.4720 -0.9179 -0.6764
  158SOL    HW3  399   2.652   1.162   2.696 -0.2129 -0.7939 -0.7519
  158SOL    MW4  400   2.649   1.127   2.776 -0.1672 -0.0291 -0.4119
  159SOL     OW  401   2.642   2.487   2.282  0.1723  0.1541 -0.4171
  159SOL    HW2  402   2.676   2.520   2.365  0.8475 -0.0478 -0.6014
  159SOL    HW3  403   2.608   2.565   2.238  0.6405  0.4144 -0.3314
  159SOL    MW4  404   2.642   2.502   2.287  0.3232  0.1618 -0.4301
  160SOL     OW  405   5.930   0.022   1.772  0.1362 -0.3776  0.4048
  160SOL    HW2  406   5.919  -0.066   1.736  0.0442 -0.1973 -0.0148
  160SOL    HW3  407   5.915   0.081   1.698  1.4908 -0.0435  0.3776
  160SOL    MW4  408   5.926   0.018   1.757  0.3028 -0.3097  0.3458
  161SOL     OW  409   0.188   2.608   3.306 -0.1645  0.2080 -0.5530
  161SOL    HW2  410   0.103   2.637   3.339  0.0975 -0.6356  0.9183
  161SOL    HW3  411   0.174   2.517   3.280 -0.3752  0.8514 -2.9094
  161SOL    MW4  412   0.175   2.600   3.307 -0.1577  0.1816 -0.6698
  162SOL     OW  413   5.118   1.780   1.786 -0.0198  0.7492  0.1327
  162SOL    HW2  414   5.107   1.724   1.709  0.6794  1.5736 -0.5866
  162SOL    HW3  415   5.174   1.729   1.844 -0.3074  0.2409 -0.0254
  162SOL    MW4  416   5.124   1.766   1.783  0.0345  0.7909  0.0169
  163SOL     OW  417   4.576   0.743   0.535  0.0917  0.4251 -0.5066
  163SOL    HW2  418   4.626   0.680   0.482  1.4422  0.9978  0.0292
  163SOL    HW3  419   4.582   0.709   0.624 -1.7037 -0.2422 -0.6048
  163SOL    MW4  420   4.584   0.730   0.540  0.0330  0.4126 -0.4488
  164SOL     OW  421   2.330   4.524   1.782 -0.3959 -0.1977  0.7599
  164SOL    HW2  422   2.300   4.472   1.707  1.2242 -1.7484  1.1267
  164SOL    HW3  423   2.407   4.570   1.750 -2.3513  2.9771  0.1211
  164SOL    MW4  424   2.336   4.523   1.768 -0.4401  0.0165  0.7240
  165SOL     OW  425   5.763   0.816   4.673 -0.1238  0.1458  0.1023
  165SOL    HW2  426   5.777   0.773   4.589 -1.2467  1.5117 -0.8355
  165SOL    HW3  427   5.698   0.762   4.718  0.5597 -0.6506  0.1540
  165SOL    MW4  428   5.756   0.804   4.667 -0.1818  0.2209 -0.0146
  166SOL     OW  429   5.372   0.929   1.803  0.3475  0.2624 -0.4102
  166SOL    HW2  430   5.415   0.867   1.862  0.5057 -0.6636 -1.4649
  166SOL    HW3  431   5.334   0.995   1.861  0.5453 -0.5868  0.7132
  166SOL    MW4  432   5.373   0.930   1.818  0.3945  0.0282 -0.4011
  167SOL     OW  433   5.908   3.195   3.837 -0.2235 -0.7381 -0.1601
  167SOL    HW2  434   5.993   3.166   3.872 -0.1026 -0.0470  0.1329
  167SOL    HW3  435   5.847   3.184   3.910  0.1195  1.1412  0.4419
  167SOL    MW4  436   5.911   3.189   3.851 -0.1623 -0.3990 -0.0420
  168SOL     OW  437   4.679   3.031   3.377 -0.2140 -0.1312  0.2856
  168SOL    HW2  438   4.605   2.971   3.368 -0.4928 -0.1754  2.4019
  168SOL    HW3  439   4.740   2.984   3.434  0.7125  0.5819 -0.0948
  168SOL    MW4  440   4.678   3.017   3.383 -0.1285 -0.0429  0.5146
  169SOL     OW  441   2.622   5.768   1.314 -0.1112  0.2231 -0.3959
  169SOL    HW2  442   2.638   5.809   1.230  0.0847 -0.4583 -0.6979
  169SOL    HW3  443   2.536   5.727   1.306 -0.9937  1.8339  0.4148
  169SOL    MW4  444   2.613   5.768   1.302 -0.2018  0.3457 -0.3288
  170SOL     OW  445   3.144   0.980   4.990  0.3103  0.2480 -0.2989
  170SOL    HW2  446   3.233   1.011   4.972  0.6379 -1.1699 -1.3207
  170SOL    HW3  447   3.130   0.999   5.083  1.5778  0.7415 -0.1952
  170SOL    MW4  448   3.154   0.987   5.000  0.5208  0.1260 -0.4200
  171SOL     OW  449   0.262   2.803   4.834  0.7322 -0.2574 -0.3406
  171SOL    HW2  450   0.328   2.756   4.885 -0.0763 -0.2642  0.7508
  171SOL    HW3  451   0.284   2.786   4.743  4.4059  2.6326 -0.2102
  171SOL    MW4  452   0.273   2.795   4.829  1.1102  0.1230 -0.1794
  172SOL     OW  453   0.337   6.352   3.791 -0.9266 -0.3501 -0.8032
  172SOL    HW2  454   0.350   6.261   3.765 -0.9107 -0.3394 -0.8325
  172SOL    HW3  455   0.363   6.403   3.714 -1.1419 -0.3285 -0.8608
  172SOL    MW4  456   0.342   6.347   3.777 -0.9529 -0.3459 -0.8147
  173SOL     OW  457   2.653   3.480   0.883 -0.3831  0.2024 -0.1309
  173SOL    HW2  458   2.721   3.506   0.821  0.9466  0.7209  1.4547
  173SOL    HW3  459   2.689   3.503   0.969 -3.0982  1.6517  0.7300
  173SOL    MW4  460   2.667   3.486   0.886 -0.5659  0.4620  0.1918
  174SOL     OW  461   1.163   5.572   4.306  0.3051  0.0850 -0.1767
  174SOL    HW2  462   1.091   5.539   4.253 -0.1664 -2.0911  1.6909
  174SOL    HW3  463   1.239   5.522   4.276  0.0675 -1.0378  1.0241
  174SOL    MW4  464   1.164   5.561   4.295  0.2115 -0.3502  0.2282
  175SOL     OW  465   3.724   1.592   2.748  0.1130  0.1941  0.3263
  175SOL    HW2  466   3.635   1.600   2.783 -1.0271 -1.8092 -1.8583
  175SOL    HW3  467   3.749   1.502   2.767  0.5882 -0.0694 -1.4000
  175SOL    MW4  468   3.716   1.582   2.755  0.0253 -0.1050 -0.1897
  176SOL     OW  469   3.479   3.144   4.344  0.4340 -0.3746  0.0464
  176SOL    HW2  470   3.391   3.179   4.359 -0.5208 -2.4854 -0.2621
  176SOL    HW3  471   3.477   3.113   4.254  1.2087 -1.1899  0.2960
  176SOL    MW4  472   3.467   3.144   4.334  0.4103 -0.7607  0.0386
  177SOL     OW  473   1.306   5.812   1.465 -0.1673 -0.0428  0.0790
  177SOL    HW2  474   1.364   5.882   1.435 -2.1928  1.9788  0.6517
  177SOL    HW3  475   1.331   5.799   1.557  0.2954 -0.1672 -0.0621
  177SOL    MW4  476   1.317   5.819   1.473 -0.3735  0.2075  0.1359
  178SOL     OW  477   4.342   2.309   3.241  0.5384 -0.0138  0.4045
  178SOL    HW2  478   4.325   2.274   3.154  2.2205  2.4531 -1.0421
  178SOL    HW3  479   4.437   2.323   3.243  0.2636  2.1612  1.7009
  178SOL    MW4  480   4.352   2.307   3.230  0.7241  0.5986  0.3847
  179SOL     OW  481   3.949   3.168   6.291  0.3221  0.0774 -0.6076
  179SOL    HW2  482   3.973   3.259   6.308  1.1214 -0.3529  0.7438
  179SOL    HW3  483   3.934   3.164   6.197  1.6618  1.3019 -0.9050
  179SOL    MW4  484   3.950   3.179   6.281  0.6043  0.1822 -0.4685
  180SOL     OW  485   4.726   0.767   5.797 -0.0695  0.0840  0.2832
  180SOL    HW2  486   4.723   0.702   5.727  0.1365 -0.6193  0.9057
  180SOL    HW3  487   4.756   0.847   5.755 -1.0521 -0.0210 -0.6474
  180SOL    MW4  488   4.729   0.769   5.782 -0.1719 -0.0227  0.2426
  181SOL     OW  489   3.220   2.030   2.667  0.3107 -0.2399  0.3534
  181SOL    HW2  490   3.212   2.119   2.633  0.8939 -0.5961 -0.7566
  181SOL    HW3  491   3.288   2.036   2.733  1.0497 -0.0329 -0.4039
  181SOL    MW4  492   3.228   2.043   2.671  0.4852 -0.2596  0.1071
  182SOL     OW  493   3.210   1.705   4.331  0.0461  0.1353 -0.0306
  182SOL    HW2  494   3.267   1.781   4.337  0.0609  0.0739  0.7270
  182SOL    HW3  495   3.133   1.736   4.284 -0.0404  0.6850  0.4596
  182SOL    MW4  496   3.207   1.719   4.326  0.0367  0.1997  0.1340
  183SOL     OW  497   2.871   3.566   0.682  0.2498  0.1867  0.2189
  183SOL    HW2  498   2.850   3.480   0.645 -3.0143  0.0319  2.0481
  183SOL    HW3  499   2.854   3.628   0.611  0.7085 -0.5413 -0.5397
  183SOL    MW4  500   2.866   3.563   0.668 -0.1204  0.0702  0.3602
  184SOL     OW  501   5.968   2.553   4.166  0.1935  0.1569 -0.2314
  184SOL    HW2  502   6.003   2.585   4.249 -0.3378  0.6131 -0.1722
  184SOL    HW3  503   5.969   2.458   4.174 -0.1790  0.2032  0.4390
  184SOL    MW4  504   5.973   2.545   4.178  0.0743  0.2232 -0.1351
  185SOL     OW  505   3.086   0.055   4.327 -0.1438  0.3510  0.2836
  185SOL    HW2  506   3.125   0.097   4.403 -0.8074 -0.9837  1.4020
  185SOL    HW3  507   2.994   0.081   4.330  0.1309  1.6923 -1.0952
  185SOL    MW4  508   3.079   0.064   4.338 -0.1951  0.3519  0.2493
  186SOL     OW  509   3.409   2.810   3.527  0.2041  0.4733  0.6444
  186SOL    HW2  510   3.401   2.725   3.484  1.7972  0.5997  0.0346
  186SOL    HW3  511   3.462   2.793   3.604 -0.3967  0.7297  1.1225
  186SOL    MW4  512   3.415   2.797   3.531  0.3350  0.5238  0.6270
  187SOL     OW  513   3.498   5.632   1.800 -0.4003 -0.0184  0.0798
  187SOL    HW2  514   3.405   5.612   1.809 -0.8639  2.2340  1.1117
  187SOL    HW3  515   3.528   5.646   1.890  0.0664  2.5824 -0.4011
  187SOL    MW4  516   3.490   5.631   1.813 -0.3999  0.6220  0.1525
  188SOL     OW  517   0.562   5.266   1.674  0.6621 -0.1876  0.1827
  188SOL    HW2  518   0.522   5.232   1.754  0.1564  0.2762  0.1372
  188SOL    HW3  519   0.560   5.193   1.613 -2.1085  0.3737 -0.5363
  188SOL    MW4  520   0.556   5.252   1.677  0.2299 -0.0523  0.0818
  189SOL     OW  521   6.148   6.331   2.141  0.0863 -0.8118 -0.4783
  189SOL    HW2  522   6.084   6.268   2.110 -0.8559 -0.6456  1.0082
  189SOL    HW3  523   6.146   6.402   2.077 -0.9968 -0.9577 -0.6218
  189SOL    MW4  524   6.140   6.332   2.129 -0.1809 -0.8091 -0.3011
  190SOL     OW  525   1.720   2.742   0.639 -0.4306  0.1911  0.5000
  190SOL    HW2  526   1.658   2.759   0.710 -0.7656  1.4022 -0.0703
  190SOL    HW3  527   1.668   2.695   0.574 -0.5618  0.5611  0.3366
  190SOL    MW4  528   1.705   2.738   0.640 -0.4921  0.3997  0.4032
  191SOL     OW  529   6.286   0.156   3.522 -0.4986  0.4182  0.3834
  191SOL    HW2  530   6.213   0.125   3.576 -0.0723 -1.1135  0.1477
  191SOL    HW3  531   6.344   0.080   3.515  0.1158  0.9878 -1.0989
  191SOL    MW4  532   6.284   0.142   3.528 -0.3613  0.2912  0.1567
  192SOL     OW  533   2.991   0.559   3.868  0.3896  0.2800  0.5317
  192SOL    HW2  534   3.067   0.563   3.925  1.5251 -1.8945 -0.7017
  192SOL    HW3  535   2.924   0.516   3.920  0.8940 -0.2403  0.7559
  192SOL    MW4  536   2.992   0.554   3.882  0.6060 -0.0755  0.3985
  193SOL     OW  537   3.906   0.836   1.317  0.6667  0.1506  0.3865
  193SOL    HW2  538   3.909   0.740   1.313 -0.0297  0.1313  0.0536
  193SOL    HW3  539   3.853   0.861   1.241 -0.9872  0.6759  1.6474
  193SOL    MW4  540   3.899   0.826   1.306  0.3566  0.2174  0.5090
  194SOL     OW  541   6.117   5.773   6.091  0.0218 -0.1292 -0.2761
  194SOL    HW2  542   6.114   5.733   6.005 -0.6907  0.6808 -0.6355
  194SOL    HW3  543   6.027   5.775   6.121  0.4069 -1.7557  1.1509
  194SOL    MW4  544   6.105   5.768   6.084 -0.0214 -0.2369 -0.1352
  195SOL     OW  545   1.578   2.151   0.662  0.3343  0.4205  0.4083
  195SOL    HW2  546   1.577   2.243   0.685  1.4138  0.3584  0.7566
  195SOL    HW3  547   1.661   2.118   0.695 -0.5378 -0.9576  1.3638
  195SOL    MW4  548   1.588   2.159   0.669  0.3617  0.2305  0.5803
  196SOL     OW  549   3.188   5.918   1.856 -0.0853 -0.2089 -0.6192
  196SOL    HW2  550   3.107   5.964   1.835 -0.3443 -0.6922 -0.7037
  196SOL    HW3  551   3.227   5.897   1.772 -1.4117 -2.6501 -0.7077
  196SOL    MW4  552   3.182   5.921   1.842 -0.2945 -0.5948 -0.6420
  197SOL     OW  553   2.238   1.447   4.344  0.1479 -0.0668  0.3429
  197SOL    HW2  554   2.170   1.380   4.347 -0.5386  0.6167  0.6457
  197SOL    HW3  555   2.213   1.503   4.271  0.3553  0.2193  0.4893
  197SOL    MW4  556   2.226   1.446   4.335  0.0847  0.0612  0.4022
  198SOL     OW  557   2.264   0.238   2.200 -0.5248  0.1567 -0.4372
  198SOL    HW2  558   2.223   0.214   2.117 -1.6106 -0.0522  0.1412
  198SOL    HW3  559   2.237   0.328   2.216 -0.1707  0.2582 -0.3924
  198SOL    MW4  560   2.255   0.247   2.192 -0.6213  0.1425 -0.3550
  199SOL     OW  561   0.709   3.016   1.523  0.2568  0.2814  0.0498
  199SOL    HW2  562   0.779   2.959   1.555  1.0931  0.6875 -1.0240
  199SOL    HW3  563   0.629   2.968   1.543  0.9581 -1.5532 -1.3221
  199SOL    MW4  564   0.708   3.002   1.530  0.4597  0.0929 -0.2728
  200SOL     OW  565   4.485   1.170   4.514 -0.0455  0.2260 -0.3141
  200SOL    HW2  566   4.460   1.196   4.603  0.3390  0.8817 -0.3885
  200SOL    HW3  567   4.418   1.107   4.488 -1.1023  1.2554 -0.1800
  200SOL    MW4  568   4.473   1.165   4.523 -0.1342  0.4483 -0.3062
  201SOL     OW  569   4.176   0.617   5.383  0.0323  0.2347 -0.4429
  201SOL    HW2  570   4.083   0.603   5.366 -0.1059 -0.5107  0.7897
  201SOL    HW3  571   4.216   0.531   5.371  0.3200  0.2423  0.4096
  201SOL    MW4  572   4.169   0.604   5.379  0.0521  0.1373 -0.1678
  202SOL     OW  573   4.554   5.758   1.765  0.3689  0.7120  0.0806
  202SOL    HW2  574   4.569   5.852   1.761  0.2890  0.7973  1.3388
  202SOL    HW3  575   4.461   5.746   1.747  0.5062  0.8182 -0.6947
  202SOL    MW4  576   4.544   5.769   1.762  0.3765  0.7373  0.1443
  203SOL     OW  577   0.158   5.845   4.420  0.3326 -0.3520 -0.2154
  203SOL    HW2  578   0.218   5.908   4.379  0.8537 -0.9484 -0.3924
  203SOL    HW3  579   0.086   5.898   4.452  0.4885  0.2727 -0.8636
  203SOL    MW4  580   0.157   5.860   4.419  0.4219 -0.3483 -0.3243
  204SOL     OW  581   2.654   0.705   1.390  0.1478 -0.3993  0.4320
  204SOL    HW2  582   2.641   0.696   1.296 -0.6864  0.2803  0.4703
  204SOL    HW3  583   2.610   0.629   1.428 -3.1521  1.3464  0.4926
  204SOL    MW4  584   2.646   0.694   1.383 -0.3976 -0.0793  0.4450
  205SOL     OW  585   1.771   4.216   6.281 -0.2667  0.3139  0.5899
  205SOL    HW2  586   1.829   4.285   6.315  0.2312  0.6274 -0.8384
  205SOL    HW3  587   1.683   4.246   6.304  0.0805 -0.9548  4.2616
  205SOL    MW4  588   1.767   4.229   6.288 -0.1552  0.1879  0.8859
  206SOL     OW  589   6.204   2.903   2.984 -0.0262 -0.0531 -0.0198
  206SOL    HW2  590   6.156   2.911   2.902 -0.7019 -0.8680  0.2814
  206SOL    HW3  591   6.236   2.812   2.984  0.1806  0.0184  0.5046
  206SOL    MW4  592   6.202   2.892   2.973 -0.0881 -0.1512  0.0891
  207SOL     OW  593   3.527   0.351   0.175  0.2296 -0.5448 -0.4525
  207SOL    HW2  594   3.552   0.316   0.090 -0.0079 -2.5233  0.2485
  207SOL    HW3  595   3.436   0.322   0.188  0.5322 -0.9973  0.8217
  207SOL    MW4  596   3.518   0.343   0.166  0.2382 -0.8655 -0.1919
  208SOL     OW  597   1.816   2.315   2.500 -0.3806  0.6707  0.1850
  208SOL    HW2  598   1.876   2.306   2.575 -1.9452 -1.6350  1.3009
  208SOL    HW3  599   1.811   2.227   2.463 -3.7165  0.4795  0.7526
  208SOL    MW4  600   1.823   2.302   2.505 -1.0271  0.3413  0.4072
  209SOL     OW  601   1.843   5.919   5.530  0.1609 -0.2037  0.1585
  209SOL    HW2  602   1.903   5.844   5.535  1.4105  0.8324  3.2910
  209SOL    HW3  603   1.861   5.959   5.445  1.0306 -2.1915 -0.6504
  209SOL    MW4  604   1.854   5.914   5.519  0.4405 -0.3292  0.4651
  210SOL     OW  605   1.364   0.483   1.277  0.2810 -0.2902  0.5048
  210SOL    HW2  606   1.288   0.452   1.327 -0.7235 -0.1050 -0.8367
  210SOL    HW3  607   1.344   0.575   1.258 -0.2688 -0.8265 -1.7694
  210SOL    MW4  608   1.351   0.491   1.281  0.0759 -0.3365  0.0278
  211SOL     OW  609   4.381   1.827   4.799  0.3371 -0.6204 -0.1361
  211SOL    HW2  610   4.452   1.859   4.744 -0.1176 -1.6143 -1.3584
  211SOL    HW3  611   4.422   1.761   4.855  0.1459 -2.4113 -1.9802
  211SOL    MW4  612   4.396   1.822   4.799  0.2519 -0.9879 -0.5407
  212SOL     OW  613   5.347   1.202   0.282 -0.6606 -0.0455  0.1035
  212SOL    HW2  614   5.326   1.181   0.373 -0.6200  0.6037  0.2686
  212SOL    HW3  615   5.408   1.276   0.288 -1.7959  0.9769 -0.4806
  212SOL    MW4  616   5.353   1.209   0.295 -0.8051  0.1751  0.0482
  213SOL     OW  617   5.028   3.983   5.738 -0.1431 -0.1192  0.7791
  213SOL    HW2  618   4.997   4.068   5.766  0.7384  0.5034 -0.0510
  213SOL    HW3  619   5.112   3.971   5.783  0.9002  0.5464 -0.8713
  213SOL    MW4  620   5.035   3.992   5.747  0.1109  0.0507  0.4518
  214SOL     OW  621   1.351   6.046   4.364 -0.0668  0.3329  0.5005
  214SOL    HW2  622   1.435   6.029   4.322 -0.4305  1.2821 -0.6688
  214SOL    HW3  623   1.300   5.966   4.350  0.0745  0.3675 -0.2607
  214SOL    MW4  624   1.355   6.033   4.357 -0.0961  0.4627  0.2458
  215SOL     OW  625   0.903   1.985   3.267 -0.5349 -0.1323 -0.0395
  215SOL    HW2  626   0.827   1.993   3.323 -1.7101 -0.3788 -1.5398
  215SOL    HW3  627   0.966   1.935   3.319 -1.7999 -0.8605  0.8409
  215SOL    MW4  628   0.902   1.980   3.281 -0.8569 -0.2609 -0.1213
  216SOL     OW  629   1.302   4.056   5.537 -0.0947 -0.7849 -0.0122
  216SOL    HW2  630   1.363   3.992   5.498  0.4698 -0.3068  0.0765
  216SOL    HW3  631   1.222   4.006   5.552 -0.5811 -0.8317 -2.4102
  216SOL    MW4  632   1.299   4.041   5.534 -0.0844 -0.7280 -0.3169
  217SOL     OW  633   0.553   0.247   1.497 -0.1514  0.2712 -0.0828
  217SOL    HW2  634   0.551   0.343   1.492 -1.0047  0.3093  0.6799
  217SOL    HW3  635   0.463   0.221   1.480  0.2142 -0.4454 -0.9610
  217SOL    MW4  636   0.541   0.256   1.494 -0.2158  0.1817 -0.0980
  218SOL     OW  637   3.821   1.723   1.723  0.0561 -0.3611  0.4139
  218SOL    HW2  638   3.847   1.631   1.716 -0.0387 -0.4287  0.9059
  218SOL    HW3  639   3.870   1.767   1.653 -1.8969 -1.1943 -1.5990
  218SOL    MW4  640   3.831   1.716   1.713 -0.2141 -0.4799  0.2132
  219SOL     OW  641   4.751   1.233   4.538 -0.5326 -0.5281 -0.2561
  219SOL    HW2  642   4.661   1.201   4.532 -0.7134 -0.0167 -0.3603
  219SOL    HW3  643   4.772   1.263   4.450 -0.8994  0.9984  0.1330
  219SOL    MW4  644   4.742   1.233   4.526 -0.6049 -0.2592 -0.2185
  220SOL     OW  645   4.924   5.393   0.804  0.3791 -0.8987 -0.1961
  220SOL    HW2  646   4.971   5.465   0.847 -1.5605  0.9255 -0.9630
  220SOL    HW3  647   4.904   5.332   0.875  1.1314 -0.1612  0.6772
  220SOL    MW4  648   4.928   5.395   0.819  0.2224 -0.5607 -0.1821
  221SOL     OW  649   2.718   5.840   0.295 -0.1474  0.1619  0.2184
  221SOL    HW2  650   2.764   5.771   0.248  0.3981  0.8872 -0.3416
  221SOL    HW3  651   2.625   5.821   0.282 -0.0002 -0.0938 -0.4921
  221SOL    MW4  652   2.712   5.828   0.287 -0.0560  0.2239  0.0508
  222SOL     OW  653   0.313   3.702   4.358 -0.0885  0.1128  0.1907
  222SOL    HW2  654   0.324   3.695   4.263  1.0008  2.4346  0.0861
  222SOL    HW3  655   0.382   3.647   4.394 -0.8462 -1.2204 -0.3134
  222SOL    MW4  656   0.323   3.694   4.350 -0.0447  0.2432  0.1104
  223SOL     OW  657   6.403   3.456   4.818  0.2248 -0.3710  0.4561
  223SOL    HW2  658   6.412   3.545   4.853 -0.6887 -0.2702  0.4615
  223SOL    HW3  659   6.470   3.450   4.751 -0.1977  0.5973 -0.0773
  223SOL    MW4  660   6.413   3.467   4.814  0.0485 -0.2299  0.3865
  224SOL     OW  661   3.069   1.695   2.863  0.2265  0.2511  0.4270
  224SOL    HW2  662   3.157   1.661   2.879  1.4609  2.9956  0.0948
  224SOL    HW3  663   3.039   1.648   2.786  1.1491 -1.1278  0.8605
  224SOL    MW4  664   3.077   1.685   2.855  0.5111  0.4313  0.4404
  225SOL     OW  665   3.101   5.089   4.131  0.2391 -0.2183 -0.3996
  225SOL    HW2  666   3.060   5.068   4.047  0.4112  1.9764 -1.0965
  225SOL    HW3  667   3.112   5.004   4.174  0.3340 -1.4417 -2.6704
  225SOL    MW4  668   3.097   5.075   4.126  0.2743 -0.0901 -0.7911
  226SOL     OW  669   5.541   1.567   2.409  0.4603 -0.3263 -0.0457
  226SOL    HW2  670   5.634   1.548   2.401  0.4574 -0.0005 -1.0143
  226SOL    HW3  671   5.498   1.482   2.399  0.5081 -0.0908 -3.1429
  226SOL    MW4  672   5.548   1.553   2.407  0.4662 -0.2523 -0.5821
  227SOL     OW  673   4.360   5.800   5.814 -0.2244 -0.4782 -0.0378
  227SOL    HW2  674   4.385   5.891   5.827 -0.5641 -0.2417 -0.9172
  227SOL    HW3  675   4.298   5.782   5.884 -0.0736 -0.0624  0.2068
  227SOL    MW4  676   4.355   5.810   5.825 -0.2494 -0.3921 -0.1216
  228SOL     OW  677   1.876   4.211   2.166  0.1221 -0.5915  0.4848
  228SOL    HW2  678   1.782   4.205   2.182  0.0356  1.8309  1.2175
  228SOL    HW3  679   1.886   4.289   2.111  1.4413 -2.7476 -2.6378
  228SOL    MW4  680   1.865   4.221   2.161  0.2848 -0.5564  0.1694
  229SOL     OW  681   2.969   4.911   5.130 -0.5637 -0.0933 -0.3872
  229SOL    HW2  682   2.943   4.869   5.048 -1.8837 -0.6100  0.2755
  229SOL    HW3  683   2.926   4.997   5.128 -0.0663  0.1577 -0.5172
  229SOL    MW4  684   2.960   4.917   5.119 -0.6723 -0.1284 -0.3169
  230SOL     OW  685   5.882   4.381   3.035 -0.1173 -0.0441  0.3676
  230SOL    HW2  686   5.916   4.291   3.030 -0.5060 -0.1403 -1.5480
  230SOL    HW3  687   5.850   4.390   3.125 -1.3460 -2.3332  0.2457
  230SOL    MW4  688   5.882   4.370   3.046 -0.3307 -0.3588  0.0988
  231SOL     OW  689   3.007   5.407   3.899 -0.1886 -0.2793 -0.3204
  231SOL    HW2  690   3.036   5.498   3.899  1.5412 -0.8057  0.5711
  231SOL    HW3  691   2.971   5.393   3.987  0.6724 -0.7882 -0.0428
  231SOL    MW4  692   3.006   5.417   3.911  0.1532 -0.4159 -0.1661
  232SOL     OW  693   5.527   6.078   4.179 -0.8716  0.5399  0.0159
  232SOL    HW2  694   5.432   6.080   4.168 -0.9084  0.2199  0.2729
  232SOL    HW3  695   5.545   6.149   4.241 -0.8387  1.2170 -0.7397
  232SOL    MW4  696   5.517   6.088   4.186 -0.8721  0.5870 -0.0499
  233SOL     OW  697   1.782   5.536   2.341 -0.0743  0.7422  0.2123
  233SOL    HW2  698   1.823   5.612   2.383 -0.9872  1.1198  0.4217
  233SOL    HW3  699   1.690   5.560   2.333 -0.0240  0.4542 -1.5004
  233SOL    MW4  700   1.776   5.550   2.346 -0.1881  0.7540  0.0140
  234SOL     OW  701   1.220   3.229   0.030 -0.0833  0.3765  0.6359
  234SOL    HW2  702   1.284   3.211   0.099  1.2368  0.5812 -0.4787
  234SOL    HW3  703   1.160   3.292   0.069  1.6799  1.9015  1.0789
  234SOL    MW4  704   1.221   3.235   0.044  0.3235  0.6047  0.5473
  235SOL     OW  705   2.050   5.373   0.137 -0.6100  0.4919 -0.5964
  235SOL    HW2  706   2.118   5.345   0.198 -1.3985 -1.9502 -0.7385
  235SOL    HW3  707   2.085   5.349   0.051 -1.2333  0.0873 -0.7412
  235SOL    MW4  708   2.064   5.366   0.134 -0.7962  0.1163 -0.6343
  236SOL     OW  709   1.894   2.783   3.321 -0.2605  0.0908 -0.6638
  236SOL    HW2  710   1.840   2.815   3.394 -1.1014  0.3632 -1.3827
  236SOL    HW3  711   1.981   2.817   3.339  0.0098 -1.4286  1.2030
  236SOL    MW4  712   1.898   2.792   3.333 -0.3358 -0.0737 -0.5123
  237SOL     OW  713   1.297   2.675   5.560  0.1670  0.0086  0.3243
  237SOL    HW2  714   1.371   2.672   5.620  0.0410  1.9077  0.6311
  237SOL    HW3  715   1.221   2.657   5.615  0.3527 -2.1076 -0.0197
  237SOL    MW4  716   1.297   2.672   5.575  0.1749 -0.0200  0.3194
  238SOL     OW  717   0.793   1.152   4.998 -0.2038 -0.5436  0.2254
  238SOL    HW2  718   0.814   1.168   4.906  0.6473 -0.2981  0.4516
  238SOL    HW3  719   0.878   1.136   5.040 -0.7382 -2.4407  0.6469
  238SOL    MW4  720   0.807   1.152   4.992 -0.1620 -0.7615  0.3109
  239SOL     OW  721   5.107   3.937   3.995 -0.2650  0.2275  0.7096
  239SOL    HW2  722   5.042   3.980   4.051 -0.9940 -0.6053  0.5158
  239SOL    HW3  723   5.104   3.986   3.913 -0.6809  0.1683  0.6867
  239SOL    MW4  724   5.098   3.949   3.992 -0.4160  0.1098  0.6810
  240SOL     OW  725   2.398   2.510   0.120 -0.1787 -0.3939 -0.7660
  240SOL    HW2  726   2.382   2.603   0.134  0.2761 -0.4118 -0.0906
  240SOL    HW3  727   2.373   2.469   0.202 -1.1286 -0.9714 -1.3275
  240SOL    MW4  728   2.393   2.517   0.132 -0.2440 -0.4725 -0.7510
  241SOL     OW  729   3.135   2.070   1.839  0.3284  0.6261  0.4950
  241SOL    HW2  730   3.153   2.161   1.816  0.3980  0.8511  1.3745
  241SOL    HW3  731   3.057   2.076   1.895  0.0949  0.1001  0.2294
  241SOL    MW4  732   3.127   2.083   1.844  0.3068  0.5864  0.5760
  242SOL     OW  733   5.316   6.282   1.873 -0.2081 -0.4213  0.4095
  242SOL    HW2  734   5.368   6.206   1.899 -0.7524 -1.0437 -0.2371
  242SOL    HW3  735   5.376   6.337   1.823 -0.0521 -0.9185  0.0397
  242SOL    MW4  736   5.331   6.279   1.870 -0.2593 -0.5690  0.2754
  243SOL     OW  737   6.108   2.958   2.377  0.4421 -0.6881  0.8598
  243SOL    HW2  738   6.177   2.891   2.367  0.6454 -0.4881  0.9106
  243SOL    HW3  739   6.028   2.908   2.393  0.2676 -1.0067 -0.8104
  243SOL    MW4  740   6.107   2.942   2.378  0.4459 -0.7038  0.6462
  244SOL     OW  741   5.807   5.318   2.398 -0.1744 -0.0868 -0.2084
  244SOL    HW2  742   5.840   5.233   2.369  0.6929  0.4112 -0.7053
  244SOL    HW3  743   5.746   5.297   2.469  1.0191 -1.0370  0.5719
  244SOL    MW4  744   5.803   5.304   2.404  0.0975 -0.1465 -0.1710
  245SOL     OW  745   2.166   3.892   2.805 -0.5425  0.6394  0.4284
  245SOL    HW2  746   2.237   3.930   2.857 -1.1984  0.2531  1.6390
  245SOL    HW3  747   2.108   3.851   2.869 -0.6878 -1.0371 -0.7068
  245SOL    MW4  748   2.168   3.892   2.820 -0.6482  0.3672  0.4383
  246SOL     OW  749   0.411   1.383   5.504  0.3678 -0.4328 -0.0514
  246SOL    HW2  750   0.501   1.406   5.481 -0.5627  2.1761 -1.5753
  246SOL    HW3  751   0.412   1.374   5.599  1.9745  1.0838  0.1234
  246SOL    MW4  752   0.423   1.385   5.513  0.4570  0.1115 -0.2294
  247SOL     OW  753   4.689   4.558   5.674  0.1168 -0.4393  0.0713
  247SOL    HW2  754   4.686   4.520   5.761 -1.3314  0.2907  0.3692
  247SOL    HW3  755   4.599   4.550   5.641  0.3325  0.4921 -0.8088
  247SOL    MW4  756   4.677   4.552   5.681 -0.0458 -0.2201 -0.0055
  248SOL     OW  757   1.601   2.894   5.426  0.0433  0.3123 -0.7099
  248SOL    HW2  758   1.681   2.934   5.390  0.6995  0.9472  1.3179
  248SOL    HW3  759   1.613   2.800   5.412  1.9823  0.2293  0.9901
  248SOL    MW4  760   1.613   2.887   5.420  0.3857  0.3851 -0.2180
  249SOL     OW  761   2.286   5.941   2.390 -0.5662 -0.1346  0.1001
  249SOL    HW2  762   2.309   6.001   2.319 -0.8932  0.1201  0.2041
  249SOL    HW3  763   2.318   5.985   2.469  0.9888 -1.0314 -0.0019
  249SOL    MW4  764   2.293   5.955   2.391 -0.4042 -0.2193  0.1003
  250SOL     OW  765   0.340   5.063   3.494  0.3591  0.1776 -0.6611
  250SOL    HW2  766   0.422   5.018   3.476  0.9700  0.2038  1.7160
  250SOL    HW3  767   0.298   5.009   3.562 -1.5064  0.2832 -1.6612
  250SOL    MW4  768   0.345   5.050   3.501  0.1936  0.1950 -0.4794
  251SOL     OW  769   0.554   2.705   6.371  0.9178  0.0081 -0.1819
  251SOL    HW2  770   0.570   2.776   6.433  0.5510  0.2633 -0.3748
  251SOL    HW3  771   0.515   2.748   6.295  0.4803 -0.4299 -0.2132
  251SOL    MW4  772   0.551   2.720   6.369  0.8117 -0.0160 -0.2114
  252SOL     OW  773   1.906   3.670   0.877  0.2646  0.7253  0.0453
  252SOL    HW2  774   1.935   3.614   0.949  0.7595  2.0565  0.9355
  252SOL    HW3  775   1.936   3.627   0.798  0.0847 -0.5645  0.6628
  252SOL    MW4  776   1.914   3.657   0.876  0.3062  0.7308  0.2442
  253SOL     OW  777   0.360   4.807   6.100 -0.2252  0.4810  0.8362
  253SOL    HW2  778   0.282   4.859   6.082 -0.1124  1.3346  2.6032
  253SOL    HW3  779   0.339   4.760   6.181 -0.2965 -2.2545 -0.6488
  253SOL    MW4  780   0.347   4.807   6.108 -0.2197  0.2327  0.8734
  254SOL     OW  781   3.129   4.588   2.507  0.0841  0.2703  0.4418
  254SOL    HW2  782   3.092   4.632   2.584  0.5102  1.8549 -0.2013
  254SOL    HW3  783   3.054   4.550   2.462 -0.8387  3.1021 -0.6438
  254SOL    MW4  784   3.114   4.589   2.511  0.0186  0.8530  0.2138
  255SOL     OW  785   4.711   1.212   0.469  0.3913 -0.0793 -0.1512
  255SOL    HW2  786   4.686   1.304   0.480 -0.5626  0.1227 -3.0835
  255SOL    HW3  787   4.737   1.184   0.557 -2.6521  1.9820  1.6111
  255SOL    MW4  788   4.711   1.220   0.482 -0.1361  0.2193 -0.3056
  256SOL     OW  789   0.322   3.055   0.087  0.3432 -0.1801  0.4831
  256SOL    HW2  790   0.348   3.030  -0.001  0.2239  0.6296  0.2125
  256SOL    HW3  791   0.307   2.972   0.132  0.9961 -0.6127 -0.0756
  256SOL    MW4  792   0.323   3.041   0.082  0.4136 -0.1303  0.3737
  257SOL     OW  793   5.677   4.005   4.198 -0.0997 -0.2491  0.6709
  257SOL    HW2  794   5.683   4.032   4.289 -0.3795 -1.8217  1.1818
  257SOL    HW3  795   5.584   3.990   4.183 -0.2740  1.5475 -0.3819
  257SOL    MW4  796   5.665   4.006   4.208 -0.1596 -0.2196  0.5994
  258SOL     OW  797   2.083   4.033   4.489  0.0276  0.2547 -0.1016
  258SOL    HW2  798   2.015   3.983   4.534  1.9249 -1.9407  0.5211
  258SOL    HW3  799   2.138   4.067   4.560  1.3196 -0.6734 -0.6181
  258SOL    MW4  800   2.082   4.031   4.504  0.4484 -0.1574 -0.0876
  259SOL     OW  801   5.284   0.784   4.180 -0.1441 -0.4947  0.0999
  259SOL    HW2  802   5.312   0.844   4.111 -1.1053 -0.5497 -0.3594
  259SOL    HW3  803   5.281   0.699   4.137 -1.3857 -0.4250  0.0130
  259SOL    MW4  804   5.287   0.781   4.165 -0.4347 -0.4927  0.0278
  260SOL     OW  805   3.355   1.320   3.068  0.2431  0.0251 -0.5924
  260SOL    HW2  806   3.429   1.268   3.037  0.1700 -0.5951  0.2540
  260SOL    HW3  807   3.307   1.262   3.126 -1.1698  0.2669 -1.4661
  260SOL    MW4  808   3.359   1.306   3.072  0.0471 -0.0248 -0.5960
  261SOL     OW  809   5.831   1.710   1.031 -0.5389 -0.0707 -0.0147
  261SOL    HW2  810   5.736   1.708   1.041 -0.5169 -0.1156  0.1973
  261SOL    HW3  811   5.864   1.705   1.121 -0.3395  0.1342 -0.0765
  261SOL    MW4  812   5.823   1.709   1.044 -0.5097 -0.0496  0.0051
  262SOL     OW  813   2.978   2.368   4.726 -0.1455 -0.5664  0.0816
  262SOL    HW2  814   3.024   2.417   4.794  0.7614  0.9611 -1.5456
  262SOL    HW3  815   3.044   2.308   4.690 -1.1468 -2.8734  1.8032
  262SOL    MW4  816   2.993   2.367   4.730 -0.1580 -0.6692  0.0940
  263SOL     OW  817   5.514   0.988   0.064 -0.3220 -0.3617 -0.3709
  263SOL    HW2  818   5.508   0.904   0.017  0.8490 -0.5561 -0.1992
  263SOL    HW3  819   5.586   1.034   0.021 -1.2645  0.7771 -0.7786
  263SOL    MW4  820   5.523   0.983   0.052 -0.2918 -0.2371 -0.4020
  264SOL     OW  821   0.550   2.696   5.361  0.1349 -0.5623 -0.5706
  264SOL    HW2  822   0.529   2.629   5.427  1.3165  0.7464  1.2186
  264SOL    HW3  823   0.617   2.654   5.306  0.1075 -1.2136 -0.1272
  264SOL    MW4  824   0.556   2.681   5.363  0.2872 -0.4756 -0.2760
  265SOL     OW  825   5.307   4.498   0.716  0.1270  0.1515  0.1392
  265SOL    HW2  826   5.291   4.535   0.629  0.2169 -1.3900 -0.5657
  265SOL    HW3  827   5.401   4.512   0.731  0.4362 -0.9125 -0.6921
  265SOL    MW4  828   5.318   4.505   0.706  0.1797 -0.1923 -0.0635
  266SOL     OW  829   0.636   2.753   4.845 -0.2722 -0.6107  0.0615
  266SOL    HW2  830   0.569   2.707   4.894  1.8276 -3.4358  0.5201
  266SOL    HW3  831   0.675   2.686   4.788  0.7831  1.3864 -1.7335
  266SOL    MW4  832   0.633   2.738   4.844  0.1441 -0.7200 -0.1148
  267SOL     OW  833   4.782   0.561   4.648  0.3934 -0.3171  0.3558
  267SOL    HW2  834   4.765   0.481   4.597 -0.8134  0.4253 -0.4663
  267SOL    HW3  835   4.706   0.616   4.631  0.1961  0.1940  2.5691
  267SOL    MW4  836   4.769   0.558   4.639  0.2081 -0.1517  0.5394
  268SOL     OW  837   1.504   1.371   0.941  0.4668  0.2928  0.0728
  268SOL    HW2  838   1.414   1.392   0.966 -0.1455 -0.4060 -1.4218
  268SOL    HW3  839   1.505   1.276   0.929  1.5644  0.2151  0.6152
  268SOL    MW4  840   1.492   1.362   0.943  0.5308  0.1903 -0.0528
  269SOL     OW  841   5.299   0.664   1.298 -1.1021  0.0655 -0.8425
  269SOL    HW2  842   5.364   0.656   1.228 -0.7693  0.2064 -0.5582
  269SOL    HW3  843   5.220   0.695   1.255 -0.6839  0.8839 -1.0495
  269SOL    MW4  844   5.297   0.667   1.283 -1.0030  0.1920 -0.8323
  270SOL     OW  845   3.056   6.228   5.917 -0.2913  0.2819  0.2928
  270SOL    HW2  846   3.085   6.141   5.944 -1.0784  0.0804  0.4991
  270SOL    HW3  847   2.966   6.216   5.888  0.7386  0.2673 -3.4624
  270SOL    MW4  848   3.048   6.215   5.917 -0.2593  0.2534 -0.1754
  271SOL     OW  849   3.327   0.315   1.335 -0.0377  0.3519 -0.3176
  271SOL    HW2  850   3.345   0.403   1.367  0.7150  0.1291 -0.1089
  271SOL    HW3  851   3.267   0.327   1.261 -2.6250  0.8303  1.7012
  271SOL    MW4  852   3.321   0.328   1.330 -0.2798  0.3856 -0.0237
  272SOL     OW  853   0.794   4.878   4.471  0.5364 -0.5811  0.4344
  272SOL    HW2  854   0.722   4.929   4.507  1.5582 -0.5105  2.5162
  272SOL    HW3  855   0.781   4.881   4.376  0.4575  3.4461  0.4123
  272SOL    MW4  856   0.783   4.885   4.463  0.6608 -0.0404  0.7061
  273SOL     OW  857   2.274   2.077   4.141 -0.2324  0.7182 -0.0504
  273SOL    HW2  858   2.281   2.095   4.235  0.5485 -1.1487  0.3000
  273SOL    HW3  859   2.186   2.107   4.118  0.1688  2.7693  0.8694
  273SOL    MW4  860   2.263   2.083   4.150 -0.0765  0.7425  0.1172
  274SOL     OW  861   5.757   1.176   2.130 -0.1253  0.4545  0.1224
  274SOL    HW2  862   5.682   1.122   2.105  0.0185 -0.0484  0.7587
  274SOL    HW3  863   5.752   1.252   2.072 -0.7716  0.1287 -0.2584
  274SOL    MW4  864   5.746   1.179   2.119 -0.1916  0.3452  0.1561
  275SOL     OW  865   5.331   5.155   2.551  0.3991 -0.1508  0.2833
  275SOL    HW2  866   5.390   5.116   2.487 -0.4996 -3.6400  1.3623
  275SOL    HW3  867   5.243   5.133   2.519 -0.1550  0.5782  1.2425
  275SOL    MW4  868   5.327   5.147   2.538  0.2074 -0.5150  0.5522
  276SOL     OW  869   2.758   1.170   0.238  0.2715 -0.6364 -0.3252
  276SOL    HW2  870   2.780   1.115   0.162  0.7618 -3.0940  1.4446
  276SOL    HW3  871   2.766   1.110   0.313 -0.6330  1.5519  1.6295
  276SOL    MW4  872   2.762   1.155   0.238  0.2169 -0.6720  0.1662
  277SOL     OW  873   4.604   1.942   4.651  1.1151  0.6569 -0.3293
  277SOL    HW2  874   4.540   1.942   4.580 -1.5377 -0.0348  1.9049
  277SOL    HW3  875   4.655   1.863   4.638  0.9395  0.7407 -1.6579
  277SOL    MW4  876   4.602   1.932   4.640  0.7420  0.5767 -0.2098
  278SOL     OW  877   3.411   6.066   6.070  0.1685  0.2573  0.3279
  278SOL    HW2  878   3.316   6.057   6.056 -0.3991  3.4016  1.5062
  278SOL    HW3  879   3.420   6.078   6.164  1.9071 -0.9483  0.3634
  278SOL    MW4  880   3.400   6.066   6.081  0.3230  0.5131  0.4880
  279SOL     OW  881   3.328   2.651   1.758 -0.0880 -0.4832 -0.6984
  279SOL    HW2  882   3.421   2.628   1.751 -0.3981 -1.8168 -0.7031
  279SOL    HW3  883   3.324   2.714   1.831  0.8505 -0.1573 -0.9145
  279SOL    MW4  884   3.340   2.657   1.767 -0.0051 -0.6162 -0.7275
  280SOL     OW  885   0.890   5.114   4.781 -0.1235 -0.1502  0.1315
  280SOL    HW2  886   0.795   5.101   4.790  0.1514 -1.8499  0.8101
  280SOL    HW3  887   0.929   5.047   4.836  1.4982  0.9947  0.4346
  280SOL    MW4  888   0.882   5.104   4.789  0.1267 -0.2234  0.2611
  281SOL     OW  889   0.083   5.970   6.205 -0.3284  0.1084  0.1802
  281SOL    HW2  890   0.010   5.991   6.147 -1.0941 -0.2602  0.9890
  281SOL    HW3  891   0.094   5.875   6.196  0.4478  0.2342 -0.3702
  281SOL    MW4  892   0.075   5.960   6.196 -0.3270  0.0764  0.2143
  282SOL     OW  893   1.239   2.909   5.812  0.0224 -0.4951  0.3251
  282SOL    HW2  894   1.163   2.909   5.753 -0.0318 -1.9109  0.3551
  282SOL    HW3  895   1.314   2.896   5.754  0.0597 -0.9544  0.4741
  282SOL    MW4  896   1.239   2.907   5.796  0.0202 -0.7425  0.3487
  283SOL     OW  897   2.447   5.033   1.778  0.0780 -0.0643 -0.2420
  283SOL    HW2  898   2.457   4.963   1.843 -2.3780 -0.6482 -0.3829
  283SOL    HW3  899   2.356   5.026   1.750  0.1520  2.3233 -1.3062
  283SOL    MW4  900   2.436   5.023   1.783 -0.2363  0.1737 -0.4010
  284SOL     OW  901   5.511   5.743   3.893 -0.3916 -0.4322  0.4179
  284SOL    HW2  902   5.526   5.696   3.975  0.0679  0.1736  0.6882
  284SOL    HW3  903   5.525   5.677   3.825  0.1667 -0.7073  0.7891
  284SOL    MW4  904   5.515   5.728   3.895 -0.2573 -0.3885  0.5026
  285SOL     OW  905   1.126   3.658   5.652 -0.1038  0.3234  0.1124
  285SOL    HW2  906   1.041   3.664   5.695 -0.1852  0.4741 -0.0689
  285SOL    HW3  907   1.189   3.675   5.722 -0.2014 -0.2860  0.3515
  285SOL    MW4  908   1.123   3.661   5.667 -0.1274  0.2629  0.1200
  286SOL     OW  909   5.173   5.963   4.539  0.1580 -0.4513  0.1834
  286SOL    HW2  910   5.249   6.003   4.580 -0.3426  0.7638 -0.0405
  286SOL    HW3  911   5.108   5.956   4.609  0.2645 -0.9250  0.2354
  286SOL    MW4  912   5.174   5.967   4.553  0.1060 -0.3535  0.1607
  287SOL     OW  913   0.204   2.593   2.978 -0.0457  0.0419 -0.3893
  287SOL    HW2  914   0.152   2.660   3.023  0.7051  0.0863  0.4404
  287SOL    HW3  915   0.271   2.642   2.931 -0.9011  0.0018 -1.6925
  287SOL    MW4  916   0.206   2.608   2.978 -0.0595  0.0424 -0.4517
  288SOL     OW  917   1.232   4.817   4.868  1.2055 -0.2166  0.2710
  288SOL    HW2  918   1.232   4.734   4.915 -0.6965  0.0742  0.8548
  288SOL    HW3  919   1.189   4.798   4.785 -0.1439  0.3465  0.8059
  288SOL    MW4  920   1.226   4.804   4.863  0.7765 -0.1039  0.4186
  289SOL     OW  921   0.071   2.874   2.788  0.6422  0.1749  0.2385
  289SOL    HW2  922  -0.005   2.838   2.742 -1.0252  1.3909  1.8815
  289SOL    HW3  923   0.138   2.883   2.720 -1.6332  1.7626 -1.9678
  289SOL    MW4  924   0.070   2.870   2.773  0.1220  0.5448  0.1641
  290SOL     OW  925   6.182   6.068   0.595 -0.7136 -0.6414  0.1893
  290SOL    HW2  926   6.189   5.990   0.541 -1.5622 -0.7925  0.2856
  290SOL    HW3  927   6.259   6.065   0.653 -0.7450 -1.3975  0.1920
  290SOL    MW4  928   6.193   6.057   0.595 -0.8297 -0.7611  0.2024
  291SOL     OW  929   5.375   4.838   0.218  0.4739 -0.1257  0.4320
  291SOL    HW2  930   5.428   4.760   0.202  0.0460 -0.5282  0.9608
  291SOL    HW3  931   5.369   4.880   0.132 -0.0440 -1.1513 -0.0626
  291SOL    MW4  932   5.381   4.833   0.204  0.3491 -0.3141  0.4365
  292SOL     OW  933   2.225   0.364   0.359  0.9237  0.3036  0.4007
  292SOL    HW2  934   2.174   0.284   0.370  2.5769 -0.5422  2.6379
  292SOL    HW3  935   2.161   0.435   0.370 -0.0090 -0.7097  1.9970
  292SOL    MW4  936   2.210   0.363   0.362  1.0188  0.0583  0.9064
  293SOL     OW  937   3.138   0.052   5.587  0.7443 -0.2184  0.4085
  293SOL    HW2  938   3.096   0.062   5.501  1.8729  1.0508 -0.0242
  293SOL    HW3  939   3.160  -0.041   5.592 -2.2061 -0.9867  0.7323
  293SOL    MW4  940   3.135   0.041   5.576  0.5040 -0.1523  0.3941
  294SOL     OW  941   2.266   3.634   0.300  0.9446 -0.2855 -0.1276
  294SOL    HW2  942   2.178   3.648   0.267  1.0234 -0.1143 -0.2690
  294SOL    HW3  943   2.321   3.690   0.245  1.0570  0.1086  0.3737
  294SOL    MW4  944   2.262   3.643   0.289  0.9698 -0.2109 -0.0801
  295SOL     OW  945   4.339   5.126   3.700  0.4808  0.0145 -0.2482
  295SOL    HW2  946   4.387   5.045   3.714  0.8991  0.2144 -0.5054
  295SOL    HW3  947   4.247   5.101   3.709  0.5360 -0.7311 -1.4083
  295SOL    MW4  948   4.333   5.112   3.703  0.5433 -0.0575 -0.4352
  296SOL     OW  949   6.259   2.657   1.030 -0.4229 -0.2119 -0.6433
  296SOL    HW2  950   6.346   2.631   1.059 -0.5256  1.2522  1.1859
  296SOL    HW3  951   6.272   2.694   0.943  0.7640 -0.1292 -0.4395
  296SOL    MW4  952   6.272   2.658   1.023 -0.2799 -0.0078 -0.3751
  297SOL     OW  953   5.080   1.240   3.050 -0.1191  0.0160  0.5891
  297SOL    HW2  954   5.169   1.256   3.081  0.2429 -1.4547  0.3908
  297SOL    HW3  955   5.057   1.318   2.999  0.0284  1.6163  2.8142
  297SOL    MW4  956   5.088   1.252   3.048 -0.0519  0.0331  0.8565
  298SOL     OW  957   6.180   1.225   4.827  0.1169  0.2315 -0.3509
  298SOL    HW2  958   6.099   1.207   4.876  0.9529  2.8699  2.3713
  298SOL    HW3  959   6.191   1.320   4.835  2.8022  0.1240 -1.7810
  298SOL    MW4  960   6.171   1.235   4.835  0.5815  0.5654 -0.1804
  299SOL     OW  961   6.239   6.263   2.739 -0.2950  0.3547  0.9829
  299SOL    HW2  962   6.263   6.354   2.757  2.6271 -0.2446  0.6124
  299SOL    HW3  963   6.205   6.230   2.822 -1.4488  1.7709  1.1035
  299SOL    MW4  964   6.238   6.270   2.752 -0.0617  0.4625  0.9500
  300SOL     OW  965   5.192   4.232   1.978  0.1847 -0.0647 -0.0556
  300SOL    HW2  966   5.110   4.264   2.016  0.7640  0.0128  1.1863
  300SOL    HW3  967   5.224   4.306   1.926 -0.4658 -0.0589 -0.4643
  300SOL    MW4  968   5.185   4.246   1.976  0.1753 -0.0537  0.0544
  301SOL     OW  969   1.632   1.072   4.458  0.3526 -0.0221  0.3887
  301SOL    HW2  970   1.689   1.008   4.502  0.1900 -1.6798 -1.6553
  301SOL    HW3  971   1.577   1.019   4.400 -1.7422  1.7527  0.6419
  301SOL    MW4  972   1.633   1.057   4.456  0.0548 -0.0066  0.1524
  302SOL     OW  973   5.136   2.057   3.113 -0.6351  0.4114 -0.1620
  302SOL    HW2  974   5.201   2.110   3.159  0.3099 -0.4659 -0.4720
  302SOL    HW3  975   5.150   1.968   3.145 -1.2627  0.1050 -0.7070
  302SOL    MW4  976   5.146   2.052   3.124 -0.5932  0.2552 -0.2748
  303SOL     OW  977   2.224   3.839   0.605  0.0010 -0.3282  0.7635
  303SOL    HW2  978   2.247   3.747   0.593  0.9996 -0.5939  3.8199
  303SOL    HW3  979   2.172   3.841   0.685  0.4000  1.8122  1.0377
  303SOL    MW4  980   2.220   3.827   0.614  0.1854 -0.0809  1.2029
  304SOL     OW  981   2.791   4.232   6.007  0.2392  0.0526 -0.4663
  304SOL    HW2  982   2.866   4.179   5.977  1.5409  2.0435 -0.8952
  304SOL    HW3  983   2.758   4.273   5.927 -1.3220 -0.7256 -0.2645
  304SOL    MW4  984   2.797   4.230   5.992  0.2050  0.2126 -0.4962
  305SOL     OW  985   1.264   3.980   3.939  0.1376  0.5366 -0.2139
  305SOL    HW2  986   1.281   4.074   3.941  1.2324  0.3599 -0.5499
  305SOL    HW3  987   1.321   3.946   3.870  0.8730 -0.5843  0.8958
  305SOL    MW4  988   1.274   3.988   3.931  0.3791  0.3654 -0.1118
  306SOL     OW  989   4.116   3.363   2.639 -0.3404  0.4574  0.6467
  306SOL    HW2  990   4.090   3.286   2.690  0.9213 -1.4646 -1.4588
  306SOL    HW3  991   4.189   3.401   2.688  2.5195 -2.7835 -0.7070
  306SOL    MW4  992   4.122   3.358   2.653  0.2034 -0.2238  0.1903
  307SOL     OW  993   0.428   0.502   2.984  0.1611  0.3745 -0.1018
  307SOL    HW2  994   0.399   0.536   2.899 -0.4898 -1.6142 -0.7308
  307SOL    HW3  995   0.512   0.461   2.965 -0.2070 -0.4891  0.0994
  307SOL    MW4  996   0.435   0.501   2.970  0.0266 -0.0019 -0.1583
  308SOL     OW  997   2.067   3.139   2.729  0.2721 -0.1260 -0.0355
  308SOL    HW2  998   2.067   3.143   2.825 -2.6154 -1.4052  0.1521
  308SOL    HW3  999   2.002   3.204   2.703 -1.8011 -2.3203 -0.7654
  308SOL    MW4 1000   2.058   3.148   2.738 -0.3824 -0.5843 -0.1071
  309SOL     OW 1001   5.288   3.407   5.538 -0.3006  0.0740  0.3482
  309SOL    HW2 1002   5.193   3.398   5.533 -0.4998  2.3365 -2.1610
  309SOL    HW3 1003   5.320   3.367   5.457  0.9642 -0.8349  1.2455
  309SOL    MW4 1004   5.280   3.400   5.526 -0.1600  0.2526  0.1355
  310SOL     OW 1005   4.385   0.286   0.114 -0.3293  0.6789 -0.6419
  310SOL    HW2 1006   4.342   0.236   0.045 -0.2017  1.7333 -1.5104
  310SOL    HW3 1007   4.315   0.333   0.158 -0.5677 -0.8840  0.7602
  310SOL    MW4 1008   4.370   0.286   0.111 -0.3439  0.6118 -0.5715
  311SOL     OW 1009   1.088   2.324   5.651 -0.0846  0.5866 -0.6313
  311SOL    HW2 1010   1.132   2.396   5.695  0.3661  0.7177 -1.2772
  311SOL    HW3 1011   1.073   2.258   5.719  2.7321 -0.2538 -0.6931
  311SOL    MW4 1012   1.092   2.325   5.666  0.3465  0.4930 -0.7247
  312SOL     OW 1013   0.854   5.850   0.471  0.2357 -0.0310 -0.6603
  312SOL    HW2 1014   0.841   5.756   0.484 -2.2621  0.3351 -0.1062
  312SOL    HW3 1015   0.918   5.855   0.400  0.8718 -2.1299 -0.3087
  312SOL    MW4 1016   0.861   5.838   0.463 -0.0099 -0.2596 -0.5408
  313SOL     OW 1017   3.160   3.365   5.436 -0.2405  0.0729  0.1468
  313SOL    HW2 1018   3.239   3.312   5.444 -1.2692 -1.3460  1.7069
  313SOL    HW3 1019   3.094   3.316   5.485 -2.0711  1.2558 -1.0209
  313SOL    MW4 1020   3.161   3.352   5.444 -0.6177  0.0417  0.1986
  314SOL     OW 1021   4.566   5.723   1.477 -0.1494 -0.2115 -0.3040
  314SOL    HW2 1022   4.632   5.789   1.455  1.5918 -1.4341  0.8720
  314SOL    HW3 1023   4.582   5.704   1.570 -1.7963 -0.9798 -0.1463
  314SOL    MW4 1024   4.577   5.729   1.487 -0.1370 -0.4742 -0.1280
  315SOL     OW 1025   5.245   5.786   3.358  0.0175 -0.4111  0.5019
  315SOL    HW2 1026   5.231   5.867   3.310 -1.2073 -2.3177 -2.6025
  315SOL    HW3 1027   5.322   5.747   3.317 -1.4227 -2.3831 -0.4521
  315SOL    MW4 1028   5.253   5.792   3.346 -0.3341 -0.9229 -0.0336
  316SOL     OW 1029   2.500   4.930   4.963  0.8427  0.3157 -0.0938
  316SOL    HW2 1030   2.565   4.997   4.984 -0.0351  1.7187 -1.6232
  316SOL    HW3 1031   2.471   4.898   5.049  0.7604  2.4375  0.7441
  316SOL    MW4 1032   2.505   4.935   4.977  0.7160  0.7807 -0.1851
  317SOL     OW 1033   4.273   1.804   5.739  0.2522 -0.3196 -0.2614
  317SOL    HW2 1034   4.272   1.737   5.671  0.1814 -0.6181  0.0311
  317SOL    HW3 1035   4.320   1.763   5.812 -1.8706 -0.9527  0.8268
  317SOL    MW4 1036   4.279   1.790   5.740 -0.0372 -0.4425 -0.0792
  318SOL     OW 1037   2.365   3.297   6.073  0.0651  0.1611  0.5509
  318SOL    HW2 1038   2.363   3.387   6.108 -0.9681 -0.0765  1.1341
  318SOL    HW3 1039   2.426   3.302   6.000 -0.7559  1.5841 -0.0838
  318SOL    MW4 1040   2.373   3.310   6.068 -0.1795  0.3175  0.5441
  319SOL     OW 1041   3.665   3.007   3.083  0.1668  0.3093 -0.2617
  319SOL    HW2 1042   3.751   3.032   3.049  0.9720 -0.5729  1.0228
  319SOL    HW3 1043   3.674   2.914   3.105 -1.1388  0.1900 -0.1548
  319SOL    MW4 1044   3.678   2.998   3.082  0.1008  0.1772 -0.0781
  320SOL     OW 1045   5.123   0.921   5.346 -0.7836  1.0635 -0.1318
  320SOL    HW2 1046   5.039   0.902   5.387 -0.1693 -0.7843  0.3466
  320SOL    HW3 1047   5.101   0.939   5.254 -1.5261 -1.6949 -0.5650
  320SOL    MW4 1048   5.109   0.921   5.339 -0.8005  0.4558 -0.1258
  321SOL     OW 1049   0.045   6.322   5.135  0.0570  0.1416 -0.2741
  321SOL    HW2 1050   0.084   6.251   5.084 -0.6454 -1.2371  1.0444
  321SOL    HW3 1051  -0.041   6.289   5.161 -0.4467  1.6349  0.0640
  321SOL    MW4 1052   0.039   6.308   5.132 -0.1021  0.1568 -0.0555
  322SOL     OW 1053   5.420   3.527   2.770 -0.0561 -0.3112 -0.2436
  322SOL    HW2 1054   5.335   3.486   2.752  0.3727 -1.0475 -0.6180
  322SOL    HW3 1055   5.471   3.512   2.691  0.1664  0.8189 -0.3201
  322SOL    MW4 1056   5.415   3.519   2.757  0.0298 -0.2593 -0.3031
  323SOL     OW 1057   2.230   0.263   3.589  0.0154  0.4145  0.4772
  323SOL    HW2 1058   2.234   0.180   3.635  1.6691 -0.5012 -1.1644
  323SOL    HW3 1059   2.158   0.253   3.527  1.6782 -0.8354 -1.4002
  323SOL    MW4 1060   2.221   0.251   3.587  0.4530  0.1288  0.0129
  324SOL     OW 1061   1.845   0.709   0.249  0.2424 -0.4853 -0.1297
  324SOL    HW2 1062   1.794   0.788   0.231  0.5329 -0.0672  0.7745
  324SOL    HW3 1063   1.780   0.645   0.278  0.0484 -0.4705 -0.5184
  324SOL    MW4 1064   1.830   0.711   0.251  0.2551 -0.4282 -0.0617
  325SOL     OW 1065   2.343   4.069   5.567  0.3696  0.6739  0.3002
  325SOL    HW2 1066   2.247   4.072   5.556  0.2057 -1.1831  0.9118
  325SOL    HW3 1067   2.357   4.004   5.636  2.1916 -1.2077 -1.7127
  325SOL    MW4 1068   2.332   4.061   5.575  0.5884  0.1807  0.1153
  326SOL     OW 1069   5.704   4.763   4.082  0.2004 -0.1954 -0.7366
  326SOL    HW2 1070   5.665   4.686   4.040 -1.3119  0.1857 -0.1036
  326SOL    HW3 1071   5.798   4.743   4.086 -0.3055 -2.6838  0.7581
  326SOL    MW4 1072   5.711   4.750   4.077 -0.0658 -0.4734 -0.4558
  327SOL     OW 1073   1.235   2.949   5.455  0.5659 -0.1303  0.1656
  327SOL    HW2 1074   1.303   2.977   5.394  1.7458 -2.9041  0.0619
  327SOL    HW3 1075   1.271   2.871   5.497 -1.3907  0.0065  2.3075
  327SOL    MW4 1076   1.249   2.942   5.453  0.4634 -0.4782  0.4345
  328SOL     OW 1077   5.584   3.711   1.449 -0.0752 -0.3433 -0.5301
  328SOL    HW2 1078   5.610   3.726   1.358 -1.1400 -0.5564 -0.8821
  328SOL    HW3 1079   5.501   3.757   1.458  1.2867  1.9905  1.1321
  328SOL    MW4 1080   5.576   3.719   1.438 -0.0360 -0.0635 -0.3572
  329SOL     OW 1081   4.876   3.934   1.944 -0.3715 -0.1924 -0.5607
  329SOL    HW2 1082   4.927   4.008   1.913 -0.2459 -0.8025 -1.8460
  329SOL    HW3 1083   4.800   3.931   1.886 -0.7921 -0.5906 -0.0030
  329SOL    MW4 1084   4.873   3.944   1.932 -0.4104 -0.3255 -0.6567
  330SOL     OW 1085   0.729   5.270   0.834  0.3307 -0.5711 -0.0439
  330SOL    HW2 1086   0.685   5.297   0.915 -1.6543  2.8549 -2.0135
  330SOL    HW3 1087   0.820   5.296   0.846  0.5051 -1.8406  1.7104
  330SOL    MW4 1088   0.735   5.277   0.846  0.0918 -0.2866 -0.0723
  331SOL     OW 1089   1.898   3.021   5.059 -0.1035  0.8307  0.2206
  331SOL    HW2 1090   1.822   3.034   5.002  0.3166 -2.3493 -1.2772
  331SOL    HW3 1091   1.863   3.028   5.147 -2.4456 -1.4382 -0.4074
  331SOL    MW4 1092   1.884   3.023   5.063 -0.3571  0.1118 -0.0599
  332SOL     OW 1093   3.521   0.273   4.598  0.4377 -0.2835  0.0726
  332SOL    HW2 1094   3.441   0.230   4.570  0.2070 -0.0657  0.3884
  332SOL    HW3 1095   3.496   0.364   4.611  0.5218 -0.3875  1.0329
  332SOL    MW4 1096   3.507   0.279   4.596  0.4183 -0.2685  0.2410
  333SOL     OW 1097   1.060   4.979   4.140  0.0556  0.2367  0.0891
  333SOL    HW2 1098   1.085   4.997   4.050  0.9844  0.6953  0.4205
  333SOL    HW3 1099   1.116   5.037   4.192 -0.1151 -0.3791  0.9795
  333SOL    MW4 1100   1.071   4.989   4.135  0.1556  0.2160  0.2503
  334SOL     OW 1101   0.853   0.479   0.455 -0.3054  0.7735 -0.1516
  334SOL    HW2 1102   0.849   0.574   0.467 -0.3685  0.7525 -0.0151
  334SOL    HW3 1103   0.918   0.449   0.518 -0.4014  0.7054 -0.0851
  334SOL    MW4 1104   0.861   0.487   0.465 -0.3264  0.7618 -0.1248
  335SOL     OW 1105   5.983   4.893   4.264 -0.2618 -0.6789 -0.1441
  335SOL    HW2 1106   5.986   4.863   4.173 -2.1743  0.5076 -0.6488
  335SOL    HW3 1107   6.042   4.969   4.266 -1.0377 -0.0534 -0.6768
  335SOL    MW4 1108   5.991   4.899   4.252 -0.6165 -0.4398 -0.2810
  336SOL     OW 1109   1.239   3.638   5.338  0.2527 -0.6786 -0.0810
  336SOL    HW2 1110   1.225   3.584   5.415  0.7815  0.6378  0.9806
  336SOL    HW3 1111   1.153   3.678   5.320  0.1055 -1.0659 -0.2438
  336SOL    MW4 1112   1.226   3.636   5.346  0.3030 -0.5560  0.0376
  337SOL     OW 1113   3.642   2.120   1.660  0.6392 -0.3039  0.0222
  337SOL    HW2 1114   3.565   2.176   1.649  0.0824 -1.2216 -0.9580
  337SOL    HW3 1115   3.622   2.066   1.737  1.3386  1.0497  1.2024
  337SOL    MW4 1116   3.629   2.121   1.669  0.6580 -0.2464  0.0486
  338SOL     OW 1117   0.131   1.757   1.309 -0.3271  0.2021  0.3595
  338SOL    HW2 1118   0.082   1.680   1.278 -0.1464  0.6114 -1.0018
  338SOL    HW3 1119   0.086   1.832   1.271  0.8050  0.6412 -0.1538
  338SOL    MW4 1120   0.119   1.756   1.300 -0.1539  0.3140  0.1122
  339SOL     OW 1121   1.512   0.303   5.983  0.1537  0.5075  0.0126
  339SOL    HW2 1122   1.580   0.345   5.931  0.5912  0.5603  0.6331
  339SOL    HW3 1123   1.432   0.351   5.961 -0.0329 -0.6142 -2.0112
  339SOL    MW4 1124   1.510   0.315   5.973  0.1868  0.3665 -0.1725
  340SOL     OW 1125   1.984   5.908   6.252  0.0691 -0.0659 -0.5276
  340SOL    HW2 1126   1.925   5.838   6.281  0.6028 -0.2455  0.1520
  340SOL    HW3 1127   1.982   5.903   6.157 -1.1543  0.0465 -0.5319
  340SOL    MW4 1128   1.976   5.898   6.244 -0.0219 -0.0748 -0.4385
  341SOL     OW 1129   1.335   3.629   4.160 -0.1243  0.0463  0.4026
  341SOL    HW2 1130   1.278   3.553   4.173  2.6074 -1.9790  1.5520
  341SOL    HW3 1131   1.354   3.630   4.067 -2.6804  1.3916 -0.2094
  341SOL    MW4 1132   1.330   3.619   4.150 -0.1011 -0.0434  0.4735
  342SOL     OW 1133   5.140   0.566   0.381  0.9559 -0.3738 -0.3064
  342SOL    HW2 1134   5.171   0.475   0.384  0.3464 -0.6141 -0.9552
  342SOL    HW3 1135   5.197   0.610   0.318  0.4510 -0.6329 -0.9535
  342SOL    MW4 1136   5.151   0.560   0.373  0.8088 -0.4396 -0.4774
  343SOL     OW 1137   2.304   6.359   4.607 -0.1927 -0.2515  0.0902
  343SOL    HW2 1138   2.339   6.447   4.616  0.7271 -0.5458 -0.4078
  343SOL    HW3 1139   2.271   6.336   4.693  0.0516  0.3805  0.3517
  343SOL    MW4 1140   2.305   6.368   4.619 -0.0391 -0.2069  0.0590
  344SOL     OW 1141   6.236   5.658   0.527  0.1139 -0.5170  0.1439
  344SOL    HW2 1142   6.214   5.716   0.455 -0.8375  0.3489  1.0857
  344SOL    HW3 1143   6.185   5.578   0.511 -0.3483 -0.2007  0.0230
  344SOL    MW4 1144   6.227   5.655   0.516 -0.0726 -0.3610  0.2522
  345SOL     OW 1145   4.809   2.298   5.496  0.0543 -0.5813  0.7697
  345SOL    HW2 1146   4.747   2.228   5.516 -0.3157 -0.4275  0.1610
  345SOL    HW3 1147   4.782   2.332   5.411  0.3228  0.2056  0.9864
  345SOL    MW4 1148   4.797   2.293   5.488  0.0409 -0.4572  0.7180
  346SOL     OW 1149   3.809   1.159   1.201 -0.3220 -0.3750 -0.1664
  346SOL    HW2 1150   3.761   1.153   1.284  1.4760 -0.8377  0.8914
  346SOL    HW3 1151   3.784   1.080   1.153  0.0217 -1.0356  0.7270
  346SOL    MW4 1152   3.799   1.148   1.206 -0.0395 -0.5232  0.0911
  347SOL     OW 1153   0.150   3.979   5.377  0.4510  0.2005 -0.0752
  347SOL    HW2 1154   0.119   3.893   5.404  0.1130 -0.1249 -1.3993
  347SOL    HW3 1155   0.209   4.007   5.447 -0.0570 -0.7493  0.7539
  347SOL    MW4 1156   0.154   3.972   5.390  0.3394  0.0323 -0.1405
  348SOL     OW 1157   0.251   2.111   0.995 -0.0367 -0.3588 -0.0921
  348SOL    HW2 1158   0.315   2.110   0.924 -1.5251 -0.8440 -1.4901
  348SOL    HW3 1159   0.174   2.155   0.958 -0.5025  0.2916  1.5616
  348SOL    MW4 1160   0.249   2.116   0.981 -0.2945 -0.3370 -0.0584
  349SOL     OW 1161   5.166   3.087   5.000 -0.3347  0.1707  0.0249
  349SOL    HW2 1162   5.253   3.047   4.996 -1.0664 -1.6781  1.0539
  349SOL    HW3 1163   5.139   3.095   4.908  0.4786 -0.2964 -0.2671
  349SOL    MW4 1164   5.174   3.083   4.987 -0.3239 -0.1349  0.1221
  350SOL     OW 1165   3.129   4.239   3.941 -0.3270 -0.4890 -0.0330
  350SOL    HW2 1166   3.084   4.190   4.009 -1.3604  1.4546  0.7454
  350SOL    HW3 1167   3.109   4.191   3.860 -1.3131 -1.3236  0.6764
  350SOL    MW4 1168   3.121   4.226   3.939 -0.5935 -0.3427  0.1633
  351SOL     OW 1169   6.398   1.453   0.796  0.7373  0.8840  0.0202
  351SOL    HW2 1170   6.408   1.454   0.701 -1.7204  0.1098 -0.3252
  351SOL    HW3 1171   6.342   1.528   0.815  1.1466  0.9878  0.8673
  351SOL    MW4 1172   6.392   1.463   0.786  0.4670  0.7955  0.0864
  352SOL     OW 1173   4.731   2.191   5.881 -0.0005  0.1173  0.2044
  352SOL    HW2 1174   4.674   2.249   5.831  0.7084  1.3966  0.8349
  352SOL    HW3 1175   4.784   2.146   5.815  0.6061  1.4431 -0.2492
  352SOL    MW4 1176   4.730   2.193   5.866  0.1731  0.4610  0.2277
  353SOL     OW 1177   3.453   1.870   4.307 -0.5637  0.7056 -0.4422
  353SOL    HW2 1178   3.450   1.873   4.211  0.4727 -0.5547 -0.5331
  353SOL    HW3 1179   3.441   1.962   4.334  0.1860  1.2284 -1.8095
  353SOL    MW4 1180   3.451   1.883   4.298 -0.3280  0.6083 -0.6346
  354SOL     OW 1181   3.172   5.950   2.740 -0.3906  0.0537  0.0701
  354SOL    HW2 1182   3.236   5.975   2.673 -0.1256  0.8041  0.5940
  354SOL    HW3 1183   3.207   5.985   2.821 -0.2658 -1.6007  0.7798
  354SOL    MW4 1184   3.185   5.958   2.742 -0.3391 -0.0655  0.2329
  355SOL     OW 1185   5.682   5.953   5.879  0.3203 -0.4155 -0.1167
  355SOL    HW2 1186   5.711   6.010   5.950  0.6052 -0.0461 -0.5295
  355SOL    HW3 1187   5.758   5.898   5.859  0.5874  0.2259 -0.8736
  355SOL    MW4 1188   5.696   5.953   5.886  0.3932 -0.2821 -0.2710
  356SOL     OW 1189   0.713   0.943   5.659 -0.0981  0.3497  0.0946
  356SOL    HW2 1190   0.744   0.990   5.581 -0.9254  0.0884 -0.3983
  356SOL    HW3 1191   0.711   0.851   5.632  1.8586 -0.0577  1.1658
  356SOL    MW4 1192   0.717   0.937   5.645  0.0509  0.2615  0.1709
  357SOL     OW 1193   6.204   6.132   3.010  0.1362 -0.0806 -0.4167
  357SOL    HW2 1194   6.167   6.054   2.968  0.3479  0.4746 -1.6611
  357SOL    HW3 1195   6.293   6.106   3.034 -0.0147 -0.4247 -0.2076
  357SOL    MW4 1196   6.211   6.118   3.008  0.1442 -0.0527 -0.5533
  358SOL     OW 1197   5.697   1.167   6.335 -0.0650 -0.1341  0.1255
  358SOL    HW2 1198   5.784   1.196   6.307  0.3370 -1.2006  0.2372
  358SOL    HW3 1199   5.641   1.181   6.259  0.5945 -1.1177 -0.5696
  358SOL    MW4 1200   5.701   1.173   6.322  0.0750 -0.4045  0.0485
  359SOL     OW 1201   3.105   1.985   5.248 -0.1422  0.0188 -0.2882
  359SOL    HW2 1202   3.194   1.983   5.284  0.2575 -0.6637 -1.2643
  359SOL    HW3 1203   3.060   2.054   5.298  0.7801  0.0326  0.5535
  359SOL    MW4 1204   3.111   1.994   5.259  0.0322 -0.0695 -0.3060
  360SOL     OW 1205   3.901   4.168   6.405 -0.4126 -0.2338 -0.0029
  360SOL    HW2 1206   3.986   4.210   6.388 -0.4148  0.9115  2.4497
  360SOL    HW3 1207   3.859   4.223   6.471 -2.0369 -2.1184  0.6508
  360SOL    MW4 1208   3.907   4.181   6.411 -0.6272 -0.3314  0.4069
  361SOL     OW 1209   0.371   0.004   0.226 -0.4158 -0.0989  0.1354
  361SOL    HW2 1210   0.375   0.079   0.286 -0.7047  1.3422 -1.5859
  361SOL    HW3 1211   0.292  -0.043   0.253  0.3857 -0.4880  1.9818
  361SOL    MW4 1212   0.361   0.008   0.238 -0.3482  0.0399  0.1519
  362SOL     OW 1213   2.775   2.580   2.505  0.2662  0.0962 -0.0636
  362SOL    HW2 1214   2.846   2.628   2.546  0.4208 -0.9348  0.9199
  362SOL    HW3 1215   2.735   2.530   2.576 -0.6021 -0.3508 -0.8426
  362SOL    MW4 1216   2.779   2.579   2.520  0.1721 -0.0988 -0.0366
  363SOL     OW 1217   4.739   0.332   2.025 -0.2352  0.3011  1.0078
  363SOL    HW2 1218   4.751   0.369   1.938 -0.8098  0.1635  0.8632
  363SOL    HW3 1219   4.719   0.408   2.080  1.8478  0.6216  1.3900
  363SOL    MW4 1220   4.738   0.347   2.021 -0.0361  0.3252  1.0391
  364SOL     OW 1221   4.587   3.678   2.482  0.4807 -0.3890  0.1881
  364SOL    HW2 1222   4.571   3.766   2.517  0.6674  0.3120 -1.3706
  364SOL    HW3 1223   4.680   3.677   2.461  0.0328  0.0295 -2.1787
  364SOL    MW4 1224   4.597   3.689   2.484  0.4463 -0.2413 -0.3298
  365SOL     OW 1225   4.620   0.363   4.479  0.1119  0.1144  0.2066
  365SOL    HW2 1226   4.600   0.286   4.532  0.3325 -0.1515 -0.0955
  365SOL    HW3 1227   4.655   0.328   4.397  2.5297  0.5535  0.9771
  365SOL    MW4 1228   4.622   0.348   4.475  0.4600  0.1372  0.2684
  366SOL     OW 1229   2.367   0.250   4.039  0.6701  0.1224  0.5694
  366SOL    HW2 1230   2.282   0.235   3.997  0.2257  0.7257  1.2371
  366SOL    HW3 1231   2.421   0.290   3.970  0.2771  0.1395  0.2676
  366SOL    MW4 1232   2.363   0.253   4.024  0.5596  0.2042  0.6176
  367SOL     OW 1233   4.118   2.394   0.037 -0.4981 -0.1287  0.4618
  367SOL    HW2 1234   4.116   2.304   0.006  0.7982  0.4519 -1.5272
  367SOL    HW3 1235   4.132   2.387   0.131  1.9011 -2.0248  0.0578
  367SOL    MW4 1236   4.119   2.381   0.045 -0.0105 -0.3023  0.1461
  368SOL     OW 1237   6.031   5.817   1.347  0.1337  0.1462  0.2696
  368SOL    HW2 1238   6.010   5.816   1.253  1.3651  0.0713 -0.0270
  368SOL    HW3 1239   6.096   5.747   1.357  3.6619  3.1423  0.2309
  368SOL    MW4 1240   6.037   5.807   1.336  0.7617  0.5316  0.2253
  369SOL     OW 1241   6.132   0.023   0.114 -0.4946 -0.1819  0.2233
  369SOL    HW2 1242   6.223   0.052   0.120 -0.7709  1.0075 -0.7026
  369SOL    HW3 1243   6.132  -0.065   0.151  0.6496  0.5371  2.0949
  369SOL    MW4 1244   6.144   0.016   0.120 -0.3801  0.0699  0.3480
  370SOL     OW 1245   4.577   5.133   5.063  0.3172  0.1196 -0.0334
  370SOL    HW2 1246   4.486   5.158   5.047  0.5585  0.9778 -0.1215
  370SOL    HW3 1247   4.618   5.136   4.977 -0.3550 -3.8541 -0.6926
  370SOL    MW4 1248   4.571   5.137   5.050  0.2604 -0.2914 -0.1320
  371SOL     OW 1249   2.155   2.316   5.558 -0.2864 -1.2874  0.2006
  371SOL    HW2 1250   2.246   2.326   5.587  0.2044 -0.2644 -1.5503
  371SOL    HW3 1251   2.144   2.221   5.547  0.8457 -1.3768 -0.3271
  371SOL    MW4 1252   2.166   2.304   5.560 -0.0723 -1.1642 -0.1000
  372SOL     OW 1253   2.799   2.254   0.841 -0.2656 -0.5835  0.9103
  372SOL    HW2 1254   2.835   2.168   0.819 -0.0326 -0.5497  1.1513
  372SOL    HW3 1255   2.872   2.315   0.826 -1.1457 -0.0442 -1.8403
  372SOL    MW4 1256   2.813   2.251   0.836 -0.3510 -0.5079  0.5792
  373SOL     OW 1257   5.016   4.975   1.004 -0.6133 -0.3450  0.4969
  373SOL    HW2 1258   5.021   4.954   0.911  0.8643  1.4204  0.1154
  373SOL    HW3 1259   5.107   4.986   1.031 -1.0778  2.1883  1.3601
  373SOL    MW4 1260   5.028   4.974   0.995 -0.4796  0.2222  0.5605
  374SOL     OW 1261   2.076   0.774   3.375  0.1901 -0.2351  0.2807
  374SOL    HW2 1262   2.145   0.716   3.343 -0.9748 -1.6703  0.2738
  374SOL    HW3 1263   2.113   0.815   3.453  1.2046 -0.6243  0.0171
  374SOL    MW4 1264   2.090   0.772   3.381  0.1702 -0.4758  0.2450
  375SOL     OW 1265   2.247   0.855   4.451 -0.1508 -0.3229 -0.7025
  375SOL    HW2 1266   2.208   0.848   4.364 -0.1166 -0.6074 -0.6938
  375SOL    HW3 1267   2.331   0.897   4.436  0.0158 -0.7105 -0.8488
  375SOL    MW4 1268   2.253   0.860   4.437 -0.1243 -0.4116 -0.7207
  376SOL     OW 1269   1.257   5.367   5.679  0.1437  0.0246 -0.0791
  376SOL    HW2 1270   1.169   5.375   5.718  0.4640  0.4296  0.5777
  376SOL    HW3 1271   1.277   5.273   5.684  0.1073  0.0490  0.5811
  376SOL    MW4 1272   1.248   5.356   5.685  0.1811  0.0812  0.0947
  377SOL     OW 1273   5.327   0.086   6.044  0.2732 -0.5011 -0.8173
  377SOL    HW2 1274   5.294   0.103   6.132  1.4436 -0.7916 -0.3097
  377SOL    HW3 1275   5.276   0.011   6.013 -0.8133  0.1954 -0.7861
  377SOL    MW4 1276   5.316   0.079   6.051  0.2842 -0.4475 -0.7463
  378SOL     OW 1277   0.339   5.753   2.398  0.5016 -0.1857 -0.3725
  378SOL    HW2 1278   0.258   5.786   2.358 -0.3524  1.8220  2.6662
  378SOL    HW3 1279   0.354   5.669   2.355 -2.9444 -0.4459 -1.3874
  378SOL    MW4 1280   0.330   5.746   2.387 -0.0657  0.0448 -0.1055
  379SOL     OW 1281   2.014   2.414   3.101  0.0702 -0.7437  0.1076
  379SOL    HW2 1282   1.962   2.485   3.064 -0.4974 -0.2403  1.7898
  379SOL    HW3 1283   2.079   2.394   3.034 -0.3359  0.7416 -0.7689
  379SOL    MW4 1284   2.016   2.420   3.087 -0.0582 -0.4813  0.2139
  380SOL     OW 1285   3.151   2.519   0.365 -0.3364  0.1132 -0.1010
  380SOL    HW2 1286   3.130   2.429   0.341 -1.8500  0.7165 -1.2226
  380SOL    HW3 1287   3.202   2.512   0.445 -0.2726 -1.7363 -0.2735
  380SOL    MW4 1288   3.155   2.506   0.372 -0.5277 -0.0512 -0.2718
  381SOL     OW 1289   4.699   4.994   0.269 -0.0397 -0.0554  0.1067
  381SOL    HW2 1290   4.728   5.063   0.210  0.1284 -1.5600 -1.6602
  381SOL    HW3 1291   4.604   5.007   0.276  0.2135  1.4600  1.3631
  381SOL    MW4 1292   4.690   5.005   0.262  0.0159 -0.0539  0.0394
  382SOL     OW 1293   6.346   5.284   1.132 -0.9902  0.4164  0.0510
  382SOL    HW2 1294   6.352   5.315   1.223 -0.4749  1.1955 -0.2396
  382SOL    HW3 1295   6.424   5.321   1.089 -0.1737 -1.5165 -0.2495
  382SOL    MW4 1296   6.357   5.293   1.139 -0.8145  0.2642 -0.0270
  383SOL     OW 1297   1.060   0.468   6.258  0.0570 -0.8941 -0.1586
  383SOL    HW2 1298   1.143   0.455   6.303  0.9321  3.6859  0.0257
  383SOL    HW3 1299   1.000   0.498   6.326 -1.2710 -2.3236 -0.6332
  383SOL    MW4 1300   1.063   0.470   6.273 -0.0027 -0.4784 -0.1969
  384SOL     OW 1301   6.374   0.510   0.242  0.0685  0.4031  0.1662
  384SOL    HW2 1302   6.436   0.577   0.215  1.9983 -0.6358  1.7669
  384SOL    HW3 1303   6.398   0.490   0.332 -2.4285 -0.2790  0.7577
  384SOL    MW4 1304   6.385   0.516   0.250 -0.0063  0.1761  0.4555
  385SOL     OW 1305   3.493   5.364   2.378  0.0090  0.0255 -0.4209
  385SOL    HW2 1306   3.583   5.337   2.360  0.1966  1.2064 -1.4156
  385SOL    HW3 1307   3.502   5.448   2.423 -0.5812  0.8548 -1.7748
  385SOL    MW4 1308   3.506   5.372   2.381 -0.0441  0.2907 -0.7308
  386SOL     OW 1309   1.256   1.442   5.698  0.1484  0.2463 -0.0784
  386SOL    HW2 1310   1.299   1.360   5.675  2.1046  0.2460  3.0224
  386SOL    HW3 1311   1.184   1.417   5.757 -1.3884  0.5985 -1.7126
  386SOL    MW4 1312   1.252   1.428   5.703  0.2038  0.2927  0.1151
  387SOL     OW 1313   1.635   0.486   1.373 -0.1318  0.2687 -0.3779
  387SOL    HW2 1314   1.632   0.572   1.414 -2.0189 -0.4390  1.0830
  387SOL    HW3 1315   1.544   0.456   1.371  0.2565 -0.9738 -2.4724
  387SOL    MW4 1316   1.623   0.493   1.378 -0.3296  0.0114 -0.4615
  388SOL     OW 1317   0.792   5.173   5.724 -0.6219 -0.3901  0.2409
  388SOL    HW2 1318   0.860   5.240   5.733  1.4492 -2.3752  0.2656
  388SOL    HW3 1319   0.742   5.180   5.806  1.0574 -0.4031  1.3331
  388SOL    MW4 1320   0.795   5.183   5.736 -0.1271 -0.6538  0.3883
  389SOL     OW 1321   0.108   6.286   0.966 -0.1480  0.9850  0.4946
  389SOL    HW2 1322   0.194   6.245   0.978 -1.0667 -0.5162  2.9554
  389SOL    HW3 1323   0.060   6.225   0.910 -0.0012  1.1656  0.1740
  389SOL    MW4 1324   0.113   6.272   0.960 -0.2499  0.8108  0.7769
  390SOL     OW 1325   6.360   0.964   1.604  0.5088  0.0299 -0.2261
  390SOL    HW2 1326   6.329   1.048   1.639  0.1712 -1.0540  2.3160
  390SOL    HW3 1327   6.436   0.943   1.659  0.5937 -1.3037 -0.8294
  390SOL    MW4 1328   6.366   0.972   1.616  0.4754 -0.2891  0.0297
  391SOL     OW 1329   6.044   2.828   1.395  0.2098 -0.7506 -0.2348
  391SOL    HW2 1330   5.989   2.897   1.358 -0.7577 -0.4654  1.6555
  391SOL    HW3 1331   6.127   2.872   1.415 -0.2358 -0.2343  0.5154
  391SOL    MW4 1332   6.048   2.843   1.393  0.0233 -0.6449  0.1136
  392SOL     OW 1333   1.887   1.436   3.695 -0.2002 -0.7226 -0.3119
  392SOL    HW2 1334   1.968   1.484   3.711 -0.7554  0.4507 -0.9172
  392SOL    HW3 1335   1.907   1.379   3.620  0.7691 -2.2568  1.0444
  392SOL    MW4 1336   1.900   1.435   3.687 -0.1455 -0.7702 -0.2128
  393SOL     OW 1337   2.497   3.548   5.942 -0.3171  0.1871 -0.7401
  393SOL    HW2 1338   2.447   3.600   6.006 -0.6479 -0.1634 -0.7120
  393SOL    HW3 1339   2.455   3.568   5.858  1.0294  1.7933 -1.0858
  393SOL    MW4 1340   2.485   3.558   5.939 -0.1831  0.3528 -0.7820
  394SOL     OW 1341   3.253   4.030   2.242  0.2170 -0.3343 -0.0444
  394SOL    HW2 1342   3.279   4.115   2.276 -1.4726  0.5795 -0.9485
  394SOL    HW3 1343   3.230   3.979   2.320 -0.9961  0.8281  0.3975
  394SOL    MW4 1344   3.253   4.034   2.257 -0.1660 -0.0604 -0.1054
  395SOL     OW 1345   5.036   3.753   5.424  0.3084  0.8982  0.5292
  395SOL    HW2 1346   4.985   3.830   5.399 -0.7911 -0.3044 -1.1298
  395SOL    HW3 1347   4.988   3.679   5.388  1.5978 -0.5566  1.6379
  395SOL    MW4 1348   5.023   3.754   5.416  0.3334  0.5476  0.4566
  396SOL     OW 1349   3.531   6.016   1.283  0.4588 -0.6353  0.5634
  396SOL    HW2 1350   3.453   6.027   1.338  0.5259 -1.4919  0.8511
  396SOL    HW3 1351   3.517   5.932   1.239  1.0983 -0.6699  0.4173
  396SOL    MW4 1352   3.519   6.006   1.284  0.5520 -0.7528  0.5821
  397SOL     OW 1353   6.028   1.244   0.759  0.4590 -0.3514 -0.6253
  397SOL    HW2 1354   5.969   1.293   0.701  1.7073 -0.1728 -1.7840
  397SOL    HW3 1355   6.048   1.306   0.830 -0.4473 -0.2909 -0.4107
  397SOL    MW4 1356   6.023   1.259   0.761  0.5041 -0.3199 -0.7499
  398SOL     OW 1357   3.517   5.113   4.105 -0.1737 -0.1230 -0.0285
  398SOL    HW2 1358   3.611   5.112   4.123 -0.3034  0.1034  0.6778
  398SOL    HW3 1359   3.476   5.136   4.188 -0.9314 -1.4439 -0.0064
  398SOL    MW4 1360   3.524   5.116   4.118 -0.2908 -0.2674  0.0676
  399SOL     OW 1361   1.749   4.297   4.895 -0.2704 -0.1861 -0.0250
  399SOL    HW2 1362   1.779   4.212   4.927  0.9042 -0.8290 -2.5377
  399SOL    HW3 1363   1.654   4.290   4.894 -0.1817 -2.3436 -2.1275
  399SOL    MW4 1364   1.741   4.285   4.899 -0.1037 -0.5556 -0.6339
  400SOL     OW 1365   1.637   2.805   2.661  0.4695 -0.0475 -0.2833
  400SOL    HW2 1366   1.580   2.854   2.719 -0.8743 -1.1502 -0.6089
  400SOL    HW3 1367   1.720   2.852   2.663 -0.5509  1.8390 -0.0947
  400SOL    MW4 1368   1.641   2.817   2.669  0.1575  0.0559 -0.3014
  401SOL     OW 1369   4.801   4.100   3.755 -0.4699 -0.0705  0.3019
  401SOL    HW2 1370   4.788   4.135   3.843  0.3513  0.7392  0.1207
  401SOL    HW3 1371   4.750   4.159   3.699 -1.0189 -0.6047  0.2322
  401SOL    MW4 1372   4.792   4.112   3.759 -0.4340 -0.0341  0.2688
  402SOL     OW 1373   5.776   6.386   3.033  0.6117 -0.0999  0.1974
  402SOL    HW2 1374   5.715   6.366   3.105 -0.3834 -0.2216 -0.6545
  402SOL    HW3 1375   5.851   6.427   3.076  0.6589 -1.4335  1.4623
  402SOL    MW4 1376   5.778   6.389   3.048  0.4867 -0.2919  0.2519
  403SOL     OW 1377   5.654   1.505   3.506 -0.2296 -0.1211 -0.6996
  403SOL    HW2 1378   5.708   1.556   3.566 -0.5036 -0.1797 -0.4035
  403SOL    HW3 1379   5.696   1.516   3.421  0.1967 -0.0957 -0.4861
  403SOL    MW4 1380   5.667   1.513   3.503 -0.2095 -0.1255 -0.6324
  404SOL     OW 1381   0.083   6.187   5.775 -0.1349 -0.6564  0.0178
  404SOL    HW2 1382   0.032   6.233   5.842  0.8012  2.6099 -1.3071
  404SOL    HW3 1383   0.155   6.147   5.823 -1.0278 -0.8733  1.2566
  404SOL    MW4 1384   0.086   6.188   5.790 -0.1292 -0.2541  0.0064
  405SOL     OW 1385   4.067   2.266   4.845 -0.0370 -0.1467  0.6398
  405SOL    HW2 1386   4.082   2.302   4.933 -3.1722  2.0434  0.4378
  405SOL    HW3 1387   4.094   2.336   4.786 -1.9416  0.1403  0.0625
  405SOL    MW4 1388   4.073   2.280   4.849 -0.7020  0.1802  0.5370
  406SOL     OW 1389   3.844   1.489   3.576 -0.0357 -0.5566 -0.2873
  406SOL    HW2 1390   3.840   1.402   3.535 -0.5098 -0.3828 -0.6127
  406SOL    HW3 1391   3.923   1.485   3.631  1.6379 -0.2350 -2.5089
  406SOL    MW4 1392   3.854   1.477   3.578  0.1225 -0.4912 -0.6234
  407SOL     OW 1393   5.176   5.352   5.079 -0.4785 -0.7114 -0.0059
  407SOL    HW2 1394   5.119   5.429   5.081 -0.4062 -0.6160 -0.9175
  407SOL    HW3 1395   5.245   5.371   5.142 -1.0298 -0.4851  0.5367
  407SOL    MW4 1396   5.178   5.365   5.088 -0.5417 -0.6689 -0.0546
  408SOL     OW 1397   4.034   5.420   5.166  0.2521 -0.0965  0.4015
  408SOL    HW2 1398   3.939   5.430   5.153  0.1793 -0.5249  0.6133
  408SOL    HW3 1399   4.066   5.390   5.081  0.2924  0.6560  0.1391
  408SOL    MW4 1400   4.026   5.418   5.153  0.2478 -0.0538  0.3949
  409SOL     OW 1401   6.021   0.782   3.144 -0.1760  0.0715 -0.2246
  409SOL    HW2 1402   5.928   0.758   3.139 -0.4318  1.0026 -0.0592
  409SOL    HW3 1403   6.064   0.725   3.080 -1.1345  0.9389 -1.7067
  409SOL    MW4 1404   6.015   0.771   3.135 -0.3362  0.3088 -0.3983
  410SOL     OW 1405   0.162   2.627   2.485  0.3884  0.2110  0.5352
  410SOL    HW2 1406   0.088   2.670   2.442 -0.2488 -0.0933  1.3011
  410SOL    HW3 1407   0.235   2.688   2.475  0.3777 -0.0205 -1.3247
  410SOL    MW4 1408   0.162   2.640   2.478  0.3029  0.1403  0.3909
  411SOL     OW 1409   0.898   2.240   4.341 -0.8644  0.0477 -0.0143
  411SOL    HW2 1410   0.976   2.186   4.348  1.0597  2.2549 -2.3338
  411SOL    HW3 1411   0.856   2.234   4.427  1.9292 -1.0843  1.3816
  411SOL    MW4 1412   0.903   2.232   4.353 -0.2419  0.1896 -0.1362
  412SOL     OW 1413   4.932   4.004   4.665  0.3303  0.3559 -0.5604
  412SOL    HW2 1414   4.950   3.934   4.729  2.1339 -0.9321 -2.3228
  412SOL    HW3 1415   4.839   4.024   4.676  0.2764 -0.7328  1.5254
  412SOL    MW4 1416   4.922   3.997   4.675  0.5611  0.0423 -0.5178
  413SOL     OW 1417   0.075   0.019   3.689 -0.2272 -0.3856 -0.4699
  413SOL    HW2 1418   0.026  -0.025   3.759 -1.6387 -0.4031 -1.4209
  413SOL    HW3 1419   0.166  -0.000   3.708 -0.7157 -2.6066 -0.0875
  413SOL    MW4 1420   0.080   0.011   3.701 -0.4779 -0.6810 -0.5450
  414SOL     OW 1421   0.658   2.461   0.207  0.0555  0.0043 -0.1915
  414SOL    HW2 1422   0.731   2.514   0.174 -0.0520  0.4884  0.3213
  414SOL    HW3 1423   0.588   2.475   0.143 -0.9164  2.7515  1.3013
  414SOL    MW4 1424   0.658   2.470   0.194 -0.0869  0.4306  0.0731
  415SOL     OW 1425   3.990   3.067   5.426 -0.0101 -0.0321 -0.3565
  415SOL    HW2 1426   3.895   3.064   5.416 -0.2106  1.6642  0.5149
  415SOL    HW3 1427   4.019   3.131   5.360  0.2671  0.8550  0.5882
  415SOL    MW4 1428   3.981   3.075   5.416  0.0000  0.3088 -0.1169
  416SOL     OW 1429   4.618   4.245   4.214  0.7321  0.7632  0.0346
  416SOL    HW2 1430   4.673   4.323   4.215 -0.2871  1.5004  0.9757
  416SOL    HW3 1431   4.529   4.278   4.197  0.5620 -0.4156 -1.6348
  416SOL    MW4 1432   4.613   4.260   4.212  0.5752  0.7049 -0.0615
  417SOL     OW 1433   6.069   6.008   1.719 -0.2242  0.0019  0.0024
  417SOL    HW2 1434   6.029   6.094   1.708  1.5952  1.0966  1.5022
  417SOL    HW3 1435   6.137   6.004   1.653 -0.5133 -0.4499 -0.2788
  417SOL    MW4 1436   6.073   6.018   1.709 -0.0223  0.0867  0.1631
  418SOL     OW 1437   1.067   3.941   5.627 -0.3325  0.1818  0.1367
  418SOL    HW2 1438   1.109   3.954   5.711  0.3966  0.2211 -0.2312
  418SOL    HW3 1439   1.081   3.848   5.607  2.2765  0.7945 -1.3857
  418SOL    MW4 1440   1.074   3.930   5.635  0.1079  0.2678 -0.1127
  419SOL     OW 1441   2.073   2.873   1.494  0.0994  0.0040 -0.2496
  419SOL    HW2 1442   2.112   2.953   1.527 -0.4569  0.8031 -1.4627
  419SOL    HW3 1443   2.071   2.814   1.569  3.3499  0.0012 -0.0664
  419SOL    MW4 1444   2.078   2.876   1.508  0.4549  0.1090 -0.3855
  420SOL     OW 1445   6.403   0.774   0.147 -0.1366  0.0129  0.0876
  420SOL    HW2 1446   6.414   0.856   0.099 -0.2608  0.5285  0.9332
  420SOL    HW3 1447   6.381   0.800   0.236  1.8921 -0.8891  0.9302
  420SOL    MW4 1448   6.402   0.788   0.152  0.1147 -0.0381  0.3103
  421SOL     OW 1449   0.042   5.542   1.831  0.0798  0.2290 -0.5277
  421SOL    HW2 1450  -0.033   5.563   1.775 -0.0296  1.5959  0.0986
  421SOL    HW3 1451   0.007   5.480   1.894 -0.3644  0.3725 -0.6261
  421SOL    MW4 1452   0.028   5.536   1.832  0.0068  0.4283 -0.4581
  422SOL     OW 1453   0.941   1.852   4.907  0.6442 -0.2255  0.3754
  422SOL    HW2 1454   0.934   1.815   4.995  1.1907 -0.1755  0.4439
  422SOL    HW3 1455   1.035   1.864   4.893  0.4862  2.1842  0.8073
  422SOL    MW4 1456   0.953   1.849   4.916  0.6954  0.0990  0.4414
  423SOL     OW 1457   0.923   0.849   5.209 -0.3368 -0.0679 -0.1638
  423SOL    HW2 1458   0.854   0.822   5.149  0.2029 -2.7816  0.3300
  423SOL    HW3 1459   1.004   0.815   5.170  0.1273 -1.0742  1.5771
  423SOL    MW4 1460   0.924   0.841   5.196 -0.2044 -0.5587  0.1310
  424SOL     OW 1461   3.066   4.293   3.276 -0.2227  0.2510 -0.4798
  424SOL    HW2 1462   3.018   4.373   3.252 -1.9640 -1.2094 -2.1284
  424SOL    HW3 1463   3.131   4.282   3.206  0.1201  0.2770 -0.1712
  424SOL    MW4 1464   3.068   4.302   3.263 -0.4072  0.0618 -0.6566
  425SOL     OW 1465   5.261   2.606   3.116  0.1316 -0.2703  0.1890
  425SOL    HW2 1466   5.213   2.689   3.112 -1.3485 -1.1318 -0.6723
  425SOL    HW3 1467   5.325   2.612   3.045 -0.4911 -0.1587 -0.3736
  425SOL    MW4 1468   5.263   2.618   3.106 -0.1458 -0.3693  0.0011
  426SOL     OW 1469   2.283   4.160   3.110  0.6472 -0.1121  0.0789
  426SOL    HW2 1470   2.314   4.247   3.132  1.1068 -0.5975  1.4594
  426SOL    HW3 1471   2.327   4.138   3.028 -0.8452  1.6315 -1.2512
  426SOL    MW4 1472   2.293   4.168   3.102  0.5109  0.0539  0.0856
  427SOL     OW 1473   5.985   0.482   5.234  0.2624 -0.0571  0.2172
  427SOL    HW2 1474   6.066   0.432   5.237  0.1294 -0.3438 -0.6634
  427SOL    HW3 1475   6.008   0.560   5.183 -0.0846 -0.2950 -0.3150
  427SOL    MW4 1476   5.999   0.486   5.227  0.1991 -0.1263  0.0308
  428SOL     OW 1477   5.271   4.689   0.905 -0.1722 -0.5562  0.7867
  428SOL    HW2 1478   5.309   4.633   0.837  0.5833  1.1360 -0.2450
  428SOL    HW3 1479   5.294   4.778   0.879 -2.7609  0.3966  1.4691
  428SOL    MW4 1480   5.279   4.693   0.893 -0.4141 -0.2072  0.7406
  429SOL     OW 1481   5.319   4.228   1.597  0.6907 -0.1975  0.1618
  429SOL    HW2 1482   5.283   4.313   1.571 -0.1983 -0.0924  1.6312
  429SOL    HW3 1483   5.361   4.195   1.517  2.9656  2.5391  0.0759
  429SOL    MW4 1484   5.320   4.235   1.583  0.8736  0.1775  0.3443
  430SOL     OW 1485   0.808   1.708   2.928  0.0809  0.0115 -0.4363
  430SOL    HW2 1486   0.782   1.646   2.860 -0.3556  0.5716 -0.7885
  430SOL    HW3 1487   0.725   1.739   2.965  0.2759  0.9437 -0.7706
  430SOL    MW4 1488   0.794   1.704   2.924  0.0491  0.2084 -0.5269
  431SOL     OW 1489   3.458   2.789   2.853 -0.0892  0.3532 -0.1904
  431SOL    HW2 1490   3.389   2.728   2.878  0.0434 -0.0834 -0.8764
  431SOL    HW3 1491   3.534   2.734   2.837  0.7297  0.9014  1.5503
  431SOL    MW4 1492   3.459   2.774   2.854  0.0363  0.3679 -0.0513
  432SOL     OW 1493   5.730   3.623   4.037  0.0481  0.3589  0.1970
  432SOL    HW2 1494   5.811   3.612   4.088  1.1339 -0.5334 -1.6229
  432SOL    HW3 1495   5.687   3.538   4.043  0.0154  0.3565 -0.0877
  432SOL    MW4 1496   5.735   3.610   4.045  0.1871  0.2408 -0.0807
  433SOL     OW 1497   1.079   3.363   5.077  0.1052 -0.7311 -0.4193
  433SOL    HW2 1498   0.988   3.337   5.057 -0.1229 -0.1615 -0.1243
  433SOL    HW3 1499   1.102   3.310   5.153 -0.4676  0.1387  0.3717
  433SOL    MW4 1500   1.070   3.352   5.084 -0.0005 -0.5412 -0.2760
  434SOL     OW 1501   2.649   1.796   4.822  0.2638  0.2680  0.3300
  434SOL    HW2 1502   2.734   1.838   4.805  0.5971 -0.4220  0.2728
  434SOL    HW3 1503   2.663   1.746   4.902 -0.2992  0.7123  0.7133
  434SOL    MW4 1504   2.662   1.795   4.831  0.2335  0.2356  0.3730
  435SOL     OW 1505   6.335   4.790   5.991 -0.1127  0.4292  0.1036
  435SOL    HW2 1506   6.411   4.839   6.021 -0.0185  0.9942 -1.0137
  435SOL    HW3 1507   6.342   4.790   5.896 -0.0400 -1.8944  0.0509
  435SOL    MW4 1508   6.346   4.796   5.982 -0.0907  0.1972 -0.0508
  436SOL     OW 1509   2.760   4.505   2.750 -0.0608 -0.4325 -0.2120
  436SOL    HW2 1510   2.767   4.451   2.671 -0.3250 -0.2295 -0.3765
  436SOL    HW3 1511   2.672   4.488   2.783  0.0838 -0.5899  0.0940
  436SOL    MW4 1512   2.750   4.495   2.744 -0.0766 -0.4265 -0.1933
  437SOL     OW 1513   6.076   3.269   2.773 -0.0222  0.0151 -0.4891
  437SOL    HW2 1514   6.109   3.267   2.683  0.5569 -2.2565 -0.2935
  437SOL    HW3 1515   6.155   3.271   2.828 -0.2895 -1.1538 -0.0361
  437SOL    MW4 1516   6.091   3.269   2.768  0.0190 -0.4388 -0.4035
  438SOL     OW 1517   4.394   0.058   1.923 -0.3104 -0.4988  0.4260
  438SOL    HW2 1518   4.306   0.087   1.900 -0.0570  1.9240  2.1260
  438SOL    HW3 1519   4.385   0.017   2.009 -0.1943 -3.2702 -0.7557
  438SOL    MW4 1520   4.381   0.056   1.931 -0.2617 -0.5448  0.4944
  439SOL     OW 1521   6.140   2.561   5.780  0.4086  0.4295  0.8822
  439SOL    HW2 1522   6.062   2.517   5.815 -1.5981  1.6796 -1.6202
  439SOL    HW3 1523   6.174   2.612   5.854 -1.0949 -0.2552  2.1082
  439SOL    MW4 1524   6.134   2.562   5.795 -0.0545  0.5041  0.7138
  440SOL     OW 1525   0.338   1.570   1.461 -0.0148  0.2583  0.0788
  440SOL    HW2 1526   0.372   1.597   1.547  0.3810  0.7053 -0.2170
  440SOL    HW3 1527   0.379   1.485   1.445 -0.6827 -0.1936  0.6731
  440SOL    MW4 1528   0.348   1.562   1.470 -0.0507  0.2576  0.1182
  441SOL     OW 1529   2.113   2.432   5.068 -0.3332  0.3767  0.2483
  441SOL    HW2 1530   2.183   2.370   5.051 -0.0207  1.1119 -1.2940
  441SOL    HW3 1531   2.096   2.424   5.162  1.0403 -0.6091  0.4346
  441SOL    MW4 1532   2.120   2.423   5.078 -0.1108  0.3436  0.0694
  442SOL     OW 1533   2.530   2.964   0.551 -1.0998  0.4874  0.1940
  442SOL    HW2 1534   2.455   2.918   0.513  0.1499  0.4266 -2.3822
  442SOL    HW3 1535   2.524   3.053   0.516  1.6180 -0.2970 -2.7152
  442SOL    MW4 1536   2.519   2.970   0.541 -0.5764  0.3759 -0.5297
  443SOL     OW 1537   5.651   2.046   5.402  0.0419  0.4726 -0.1501
  443SOL    HW2 1538   5.739   2.009   5.405  0.0318  0.4423 -0.2086
  443SOL    HW3 1539   5.663   2.135   5.369  0.3340  1.3981  2.2637
  443SOL    MW4 1540   5.664   2.053   5.398  0.0791  0.5907  0.1607
  444SOL     OW 1541   1.336   3.860   5.216  0.1184 -0.6017  0.1322
  444SOL    HW2 1542   1.384   3.800   5.159  1.6599 -1.1603  1.9180
  444SOL    HW3 1543   1.283   3.803   5.272 -2.1760 -0.0224 -1.3256
  444SOL    MW4 1544   1.335   3.845   5.216  0.0191 -0.5990  0.1755
  445SOL     OW 1545   5.112   5.917   1.072 -0.0372  0.3674 -0.3129
  445SOL    HW2 1546   5.175   5.968   1.122 -1.6819 -0.8238  3.2878
  445SOL    HW3 1547   5.069   5.981   1.015  2.0904  1.7544 -0.4767
  445SOL    MW4 1548   5.115   5.932   1.071  0.0265  0.3932  0.1406
  446SOL     OW 1549   5.219   2.432   5.341  0.3275  0.1323 -0.4734
  446SOL    HW2 1550   5.166   2.404   5.416  0.5692 -0.2898 -0.4581
  446SOL    HW3 1551   5.303   2.459   5.380  0.1798  0.6536 -0.5128
  446SOL    MW4 1552   5.223   2.432   5.356  0.3399  0.1454 -0.4765
  447SOL     OW 1553   5.894   0.391   4.607  0.4314 -0.0978 -0.1075
  447SOL    HW2 1554   5.826   0.324   4.598 -0.2940  0.5950  0.1209
  447SOL    HW3 1555   5.853   0.471   4.574  0.6683  0.6149  1.2519
  447SOL    MW4 1556   5.879   0.393   4.602  0.3669  0.0876  0.1020
  448SOL     OW 1557   1.341   2.143   4.254 -0.0386 -0.1108  0.1987
  448SOL    HW2 1558   1.390   2.219   4.285  0.7573 -0.1706 -0.8759
  448SOL    HW3 1559   1.316   2.165   4.165  0.5888 -1.2791 -0.2866
  448SOL    MW4 1560   1.344   2.156   4.246  0.1492 -0.2728 -0.0071
  449SOL     OW 1561   1.992   1.096   0.064  0.0524  0.1902 -0.2157
  449SOL    HW2 1562   2.010   1.073  -0.027 -1.3773  0.2049 -0.5165
  449SOL    HW3 1563   2.052   1.040   0.114  0.3280 -0.3646 -1.1293
  449SOL    MW4 1564   2.003   1.086   0.059 -0.0999  0.1190 -0.3760
  450SOL     OW 1565   3.057   1.499   5.851 -0.4496  0.6871 -0.5035
  450SOL    HW2 1566   3.031   1.530   5.938  0.9811  0.3116  0.0773
  450SOL    HW3 1567   3.016   1.561   5.791 -2.8188  0.0463  0.3056
  450SOL    MW4 1568   3.048   1.511   5.854 -0.5735  0.5530 -0.3201
  451SOL     OW 1569   2.724   3.597   5.745  0.0034  0.9535  0.1585
  451SOL    HW2 1570   2.676   3.615   5.826 -0.5666  0.9852 -0.1851
  451SOL    HW3 1571   2.666   3.625   5.675  1.0322  2.1790 -0.2438
  451SOL    MW4 1572   2.710   3.603   5.747  0.0639  1.1194  0.0601
  452SOL     OW 1573   0.954   0.843   3.708 -0.0380 -0.1653 -0.6114
  452SOL    HW2 1574   0.991   0.754   3.712  1.2843  0.3749 -0.1932
  452SOL    HW3 1575   0.872   0.837   3.758 -0.0098 -1.1665 -0.6589
  452SOL    MW4 1576   0.948   0.830   3.715  0.1402 -0.2261 -0.5625
  453SOL     OW 1577   3.564   5.187   1.084 -0.2722 -0.2154  0.1081
  453SOL    HW2 1578   3.615   5.131   1.142 -1.3631 -0.7780  0.5450
  453SOL    HW3 1579   3.613   5.187   1.002  0.5644 -0.5222  0.5959
  453SOL    MW4 1580   3.577   5.180   1.081 -0.3057 -0.3301  0.2301
  454SOL     OW 1581   1.617   6.262   5.446  0.2950 -0.6024 -0.3145
  454SOL    HW2 1582   1.541   6.311   5.414 -0.2999 -1.2450  0.0814
  454SOL    HW3 1583   1.676   6.258   5.371  0.0299  0.0770 -0.5713
  454SOL    MW4 1584   1.615   6.268   5.432  0.1815 -0.5976 -0.2961
  455SOL     OW 1585   4.406   1.824   1.950 -0.3937 -0.1040 -0.1045
  455SOL    HW2 1586   4.393   1.855   1.860 -0.3665  0.0379 -0.0607
  455SOL    HW3 1587   4.493   1.858   1.974 -0.0492 -0.8156 -0.3040
  455SOL    MW4 1588   4.416   1.833   1.941 -0.3447 -0.1792 -0.1250
  456SOL     OW 1589   2.428   0.596   4.319 -0.2379 -0.0815 -0.2269
  456SOL    HW2 1590   2.335   0.574   4.323  0.1691 -1.8562  0.1967
  456SOL    HW3 1591   2.440   0.661   4.389 -0.9416 -0.7291  0.5194
  456SOL    MW4 1592   2.417   0.602   4.329 -0.2770 -0.4011 -0.0725
  457SOL     OW 1593   3.150   1.239   1.181 -0.4691  0.0272 -0.1175
  457SOL    HW2 1594   3.194   1.314   1.220  0.4746 -0.5556 -0.0340
  457SOL    HW3 1595   3.084   1.214   1.245 -1.3448  1.2751 -0.5076
  457SOL    MW4 1596   3.147   1.246   1.195 -0.4601  0.1150 -0.1580
  458SOL     OW 1597   3.202   4.697   5.528  0.0166  0.1207 -0.1647
  458SOL    HW2 1598   3.280   4.752   5.517  0.8911 -1.3889 -2.1100
  458SOL    HW3 1599   3.236   4.614   5.563 -0.7084 -0.5338 -0.9803
  458SOL    MW4 1600   3.217   4.693   5.531  0.0363 -0.1648 -0.5289
  459SOL     OW 1601   1.362   6.356   5.367 -0.5215 -0.0637  0.6909
  459SOL    HW2 1602   1.283   6.384   5.413  0.0056  0.5603  1.2303
  459SOL    HW3 1603   1.336   6.354   5.275 -0.9212  1.0251  0.7668
  459SOL    MW4 1604   1.348   6.359   5.361 -0.5047  0.1623  0.7721
  460SOL     OW 1605   0.014   5.716   6.122  0.1031  0.2854 -0.1132
  460SOL    HW2 1606  -0.009   5.754   6.038 -0.5833 -0.7610 -0.4190
  460SOL    HW3 1607   0.085   5.655   6.103 -0.3031 -0.2303 -0.0047
  460SOL    MW4 1608   0.021   5.713   6.109 -0.0411  0.0793 -0.1392
  461SOL     OW 1609   3.732   2.153   5.042 -0.5618  0.5277 -0.1509
  461SOL    HW2 1610   3.779   2.076   5.074 -0.0626  1.1320  0.6235
  461SOL    HW3 1611   3.770   2.170   4.956 -1.1319 -0.4640 -0.6140
  461SOL    MW4 1612   3.743   2.145   5.035 -0.5711  0.4766 -0.1098
  462SOL     OW 1613   6.285   0.711   4.996  0.5726  0.0079  0.2581
  462SOL    HW2 1614   6.362   0.696   5.050  0.0442  1.2678  1.4185
  462SOL    HW3 1615   6.266   0.804   5.006 -1.8836 -0.4978  1.1142
  462SOL    MW4 1616   6.292   0.721   5.004  0.1788  0.1074  0.5241
  463SOL     OW 1617   0.303   2.329   4.494  0.4438  0.0796 -0.1429
  463SOL    HW2 1618   0.266   2.414   4.517  0.7739  0.0448  0.5329
  463SOL    HW3 1619   0.280   2.272   4.567  0.2403 -0.4133 -0.5825
  463SOL    MW4 1620   0.295   2.332   4.506  0.4605  0.0100 -0.1118
  464SOL     OW 1621   1.604   3.188   5.735 -0.5328 -0.1177  0.0034
  464SOL    HW2 1622   1.681   3.231   5.698 -1.2076  0.0685 -1.2365
  464SOL    HW3 1623   1.587   3.235   5.816  0.1735  0.3675 -0.1216
  464SOL    MW4 1624   1.612   3.199   5.741 -0.5287 -0.0291 -0.1767
  465SOL     OW 1625   1.020   5.493   5.464  0.0093  0.2255  0.3768
  465SOL    HW2 1626   1.029   5.439   5.386  0.9409  0.1296  0.5399
  465SOL    HW3 1627   0.994   5.432   5.533 -0.6590  0.2849  0.1827
  465SOL    MW4 1628   1.018   5.478   5.463  0.0441  0.2206  0.3727
  466SOL     OW 1629   5.063   2.380   5.552 -1.2645  0.2360  0.2519
  466SOL    HW2 1630   5.120   2.312   5.589  0.1186  1.3507  0.2496
  466SOL    HW3 1631   4.985   2.332   5.524 -0.7768 -1.1963  1.1829
  466SOL    MW4 1632   5.060   2.364   5.553 -1.0177  0.1941  0.3744
  467SOL     OW 1633   0.269   2.147   4.719  0.3590  0.1087 -0.2177
  467SOL    HW2 1634   0.257   2.053   4.707 -1.3146  0.5448 -2.7086
  467SOL    HW3 1635   0.224   2.167   4.801 -1.3492 -0.9325 -0.8584
  467SOL    MW4 1636   0.261   2.137   4.728 -0.0872  0.0289 -0.6309
  468SOL     OW 1637   3.197   6.299   0.098  0.0424 -0.5954  0.6085
  468SOL    HW2 1638   3.275   6.331   0.143  0.3615 -0.7980  0.1985
  468SOL    HW3 1639   3.219   6.301   0.005  0.5662 -3.2619  0.6151
  468SOL    MW4 1640   3.210   6.304   0.092  0.1536 -0.9739  0.5553
  469SOL     OW 1641   0.729   1.621   3.821 -0.0220 -0.0309 -0.1477
  469SOL    HW2 1642   0.664   1.576   3.767  0.2797 -0.4716 -0.1488
  469SOL    HW3 1643   0.691   1.707   3.838 -0.6876 -0.3455 -0.0021
  469SOL    MW4 1644   0.716   1.626   3.816 -0.0700 -0.1306 -0.1287
  470SOL     OW 1645   4.568   4.027   0.872  0.7881  0.2221 -0.3944
  470SOL    HW2 1646   4.558   4.095   0.938  1.3802 -0.1848  0.1222
  470SOL    HW3 1647   4.485   3.979   0.874 -0.2902  1.8834 -1.8904
  470SOL    MW4 1648   4.556   4.030   0.881  0.7239  0.3876 -0.5236
  471SOL     OW 1649   4.428   5.229   3.455  0.2621 -0.8847 -0.2810
  471SOL    HW2 1650   4.365   5.162   3.483 -0.4864 -0.1032 -0.0550
  471SOL    HW3 1651   4.377   5.310   3.454  1.0363 -0.4013 -1.0308
  471SOL    MW4 1652   4.413   5.231   3.458  0.2655 -0.7178 -0.3501
  472SOL     OW 1653   1.328   1.713   1.232 -0.1602 -0.6771 -0.1620
  472SOL    HW2 1654   1.263   1.766   1.186 -0.9145 -2.6930 -1.5525
  472SOL    HW3 1655   1.288   1.694   1.317 -0.5951 -0.4229 -0.3062
  472SOL    MW4 1656   1.314   1.718   1.238 -0.3171 -0.9095 -0.3645
  473SOL     OW 1657   4.010   5.993   5.884 -0.2677  0.1946  0.3150
  473SOL    HW2 1658   4.063   6.068   5.910  2.1741 -1.1617 -0.3917
  473SOL    HW3 1659   4.015   5.992   5.788 -2.1454  0.3573  0.1750
  473SOL    MW4 1660   4.018   6.002   5.875 -0.1932  0.0371  0.2033
  474SOL     OW 1661   3.031   2.312   3.517 -0.4311 -0.0990  0.0974
  474SOL    HW2 1662   3.018   2.369   3.442  1.0288 -0.9965 -0.8860
  474SOL    HW3 1663   3.108   2.348   3.562  1.5263 -2.1004 -1.4397
  474SOL    MW4 1664   3.040   2.324   3.513  0.0198 -0.4815 -0.2352
  475SOL     OW 1665   4.719   6.013   6.326  0.5424 -0.4205 -0.5742
  475SOL    HW2 1666   4.800   6.057   6.352 -0.0861  1.0939 -1.0336
  475SOL    HW3 1667   4.736   5.920   6.339  0.8119  0.0500  3.6461
  475SOL    MW4 1668   4.732   6.007   6.331  0.4951 -0.1587 -0.0780
  476SOL     OW 1669   4.899   2.864   5.896 -0.4745  0.0518 -0.1094
  476SOL    HW2 1670   4.839   2.814   5.951  2.1710 -0.9355  2.0926
  476SOL    HW3 1671   4.969   2.892   5.955  1.4970  0.7703 -2.5948
  476SOL    MW4 1672   4.900   2.861   5.911  0.1346  0.0164 -0.1468
  477SOL     OW 1673   6.226   1.995   1.229  0.5135 -0.3329  0.5707
  477SOL    HW2 1674   6.204   1.961   1.143  1.3582 -2.2089  1.0369
  477SOL    HW3 1675   6.239   2.088   1.216 -0.7863 -0.3319 -1.0275
  477SOL    MW4 1676   6.225   2.002   1.216  0.4534 -0.5803  0.4214
  478SOL     OW 1677   1.834   0.724   0.997  0.7113  0.4130 -0.4571
  478SOL    HW2 1678   1.790   0.662   1.055  0.3550  1.2011  0.1267
  478SOL    HW3 1679   1.812   0.810   1.032  1.9392  0.8550 -0.7254
  478SOL    MW4 1680   1.825   0.727   1.009  0.8263  0.5753 -0.4155
  479SOL     OW 1681   0.920   2.298   3.286 -0.0164  0.2663  0.0754
  479SOL    HW2 1682   0.896   2.205   3.287  1.4921 -0.1537  0.5576
  479SOL    HW3 1683   0.845   2.343   3.325 -0.1837 -0.9254  1.1922
  479SOL    MW4 1684   0.907   2.292   3.291  0.1605  0.0536  0.2864
  480SOL     OW 1685   2.235   3.609   1.512 -0.1330 -0.5964 -0.7845
  480SOL    HW2 1686   2.266   3.671   1.446 -0.9466 -0.0814 -0.6994
  480SOL    HW3 1687   2.155   3.572   1.475 -0.5488 -0.3675 -0.1300
  480SOL    MW4 1688   2.229   3.612   1.498 -0.2952 -0.4982 -0.6869
  481SOL     OW 1689   4.479   2.290   2.353 -0.3400 -0.0555 -0.1018
  481SOL    HW2 1690   4.519   2.311   2.438  2.0642 -1.9666 -0.6773
  481SOL    HW3 1691   4.501   2.198   2.338 -2.7955 -0.4630 -1.7344
  481SOL    MW4 1692   4.487   2.281   2.362 -0.3468 -0.3614 -0.3931
  482SOL     OW 1693   2.786   2.297   3.894  0.1096  0.3087  0.1069
  482SOL    HW2 1694   2.784   2.369   3.831 -1.2155  0.3145  0.1294
  482SOL    HW3 1695   2.707   2.246   3.875 -0.2893  0.2713  1.6945
  482SOL    MW4 1696   2.775   2.299   3.883 -0.1179  0.3045  0.3193
  483SOL     OW 1697   0.505   4.087   3.312  0.0171 -0.5639  0.4863
  483SOL    HW2 1698   0.429   4.135   3.348 -2.1467 -3.2313 -0.1788
  483SOL    HW3 1699   0.518   4.015   3.373  0.9590 -1.0924 -0.3167
  483SOL    MW4 1700   0.496   4.084   3.325 -0.1441 -0.9856  0.2926
  484SOL     OW 1701   5.712   3.686   2.038  0.7192  0.0409  0.1689
  484SOL    HW2 1702   5.637   3.723   1.992  0.5961 -0.2286  0.1517
  484SOL    HW3 1703   5.678   3.661   2.124  1.1006  1.1707  0.6829
  484SOL    MW4 1704   5.698   3.688   2.043  0.7533  0.1544  0.2345
  485SOL     OW 1705   0.372   4.939   4.563  0.6467 -0.0220  0.1930
  485SOL    HW2 1706   0.307   4.964   4.628  1.4406  1.5216  0.4240
  485SOL    HW3 1707   0.409   5.021   4.531  2.3773 -0.8301 -0.0485
  485SOL    MW4 1708   0.368   4.953   4.567  0.9797  0.0750  0.1916
  486SOL     OW 1709   0.114   0.167   6.289 -0.4037  0.0542  0.4623
  486SOL    HW2 1710   0.065   0.085   6.295 -0.1188 -0.1562 -0.0779
  486SOL    HW3 1711   0.082   0.210   6.210 -0.6406  0.5248  0.8094
  486SOL    MW4 1712   0.104   0.162   6.280 -0.3974  0.0886  0.4368
  487SOL     OW 1713   0.142   3.729   3.082 -0.0232  0.4345  0.2875
  487SOL    HW2 1714   0.080   3.658   3.069  0.5001 -0.1348  0.8136
  487SOL    HW3 1715   0.228   3.688   3.070  0.4043  0.4185  2.8612
  487SOL    MW4 1716   0.145   3.715   3.079  0.1022  0.3573  0.6965
  488SOL     OW 1717   0.692   2.898   0.514 -0.1534  0.1333 -0.3165
  488SOL    HW2 1718   0.720   2.989   0.502  0.7709 -0.0240  0.5147
  488SOL    HW3 1719   0.693   2.885   0.609 -2.5868 -0.0610 -0.2563
  488SOL    MW4 1720   0.696   2.908   0.525 -0.3525  0.0869 -0.1989
  489SOL     OW 1721   1.124   3.213   5.295 -0.7213  0.6568 -0.4968
  489SOL    HW2 1722   1.203   3.159   5.284 -0.1192  1.7533 -1.8482
  489SOL    HW3 1723   1.147   3.276   5.363 -0.0383  1.6190 -1.5891
  489SOL    MW4 1724   1.138   3.214   5.303 -0.5517  0.9284 -0.8192
  490SOL     OW 1725   3.155   4.594   3.497 -0.3637  0.4412  0.2015
  490SOL    HW2 1726   3.153   4.501   3.517 -0.5512  0.4728  0.3306
  490SOL    HW3 1727   3.112   4.601   3.412 -0.9483  0.4857  0.4948
  490SOL    MW4 1728   3.149   4.583   3.488 -0.4656  0.4512  0.2573
  491SOL     OW 1729   3.875   3.947   2.425  0.5085 -0.6947 -0.0569
  491SOL    HW2 1730   3.948   3.993   2.467  0.0277  0.7568 -0.7318
  491SOL    HW3 1731   3.813   3.931   2.496 -0.2630  1.6573 -0.1063
  491SOL    MW4 1732   3.876   3.951   2.440  0.3433 -0.1928 -0.1524
  492SOL     OW 1733   3.369   2.440   4.603 -0.1297 -0.5974  0.6324
  492SOL    HW2 1734   3.372   2.454   4.697  1.0936 -1.1704  0.6821
  492SOL    HW3 1735   3.306   2.369   4.591 -0.8100 -0.0698  0.9362
  492SOL    MW4 1736   3.361   2.433   4.614 -0.0581 -0.6034  0.6790
  493SOL     OW 1737   5.179   0.476   5.851  0.3390 -0.3737  0.2161
  493SOL    HW2 1738   5.189   0.381   5.852  0.7097 -0.3352  1.4719
  493SOL    HW3 1739   5.263   0.509   5.819 -0.1664 -0.4898 -1.2972
  493SOL    MW4 1740   5.191   0.468   5.847  0.3212 -0.3840  0.1822
  494SOL     OW 1741   4.808   2.377   3.605 -0.3221  0.1623  0.1693
  494SOL    HW2 1742   4.779   2.361   3.695 -0.1268  1.1263  0.4158
  494SOL    HW3 1743   4.786   2.297   3.558 -2.5994  0.5066  0.5331
  494SOL    MW4 1744   4.801   2.364   3.611 -0.5968  0.3349  0.2498
  495SOL     OW 1745   3.777   4.915   0.920 -0.2515 -0.1528  0.5019
  495SOL    HW2 1746   3.839   4.842   0.922  0.9624  0.8219 -0.1259
  495SOL    HW3 1747   3.787   4.953   0.833 -1.3459  0.3734  0.5883
  495SOL    MW4 1748   3.786   4.910   0.909 -0.2358  0.0452  0.4305
  496SOL     OW 1749   4.762   0.547   5.623  0.8028  0.1930 -0.4137
  496SOL    HW2 1750   4.779   0.476   5.561 -0.9217  0.8892 -1.7872
  496SOL    HW3 1751   4.849   0.581   5.645  1.6197 -1.8231 -0.2964
  496SOL    MW4 1752   4.776   0.542   5.617  0.6830  0.0189 -0.5794
  497SOL     OW 1753   0.295   3.826   0.084  0.0813  0.7408  0.3174
  497SOL    HW2 1754   0.255   3.740   0.093  0.5563  0.5123  0.2818
  497SOL    HW3 1755   0.389   3.808   0.074  0.3185  1.3072  1.4125
  497SOL    MW4 1756   0.302   3.813   0.084  0.1753  0.7854  0.4572
  498SOL     OW 1757   2.366   3.918   4.703  0.4874 -0.2763  0.0269
  498SOL    HW2 1758   2.396   3.874   4.782  0.6141  0.0451  0.1604
  498SOL    HW3 1759   2.310   3.989   4.735 -1.8937 -1.9094 -0.2454
  498SOL    MW4 1760   2.362   3.922   4.717  0.1900 -0.4494  0.0086
  499SOL     OW 1761   3.557   4.993   2.183  0.2489 -0.5367 -0.5385
  499SOL    HW2 1762   3.520   4.936   2.115  1.1534 -0.8763 -0.7626
  499SOL    HW3 1763   3.631   5.035   2.141 -1.3059  2.0836 -0.8835
  499SOL    MW4 1764   3.562   4.991   2.168  0.1631 -0.2358 -0.6136
  500SOL     OW 1765   0.944   4.320   5.957  0.2541  0.3666  0.3257
  500SOL    HW2 1766   0.950   4.230   5.989  1.1039  0.4020  0.2790
  500SOL    HW3 1767   0.850   4.339   5.958  0.0780 -0.4643  0.4806
  500SOL    MW4 1768   0.932   4.311   5.962  0.3429  0.2616  0.3400
  501SOL     OW 1769   6.405   2.057   5.650 -0.1705  0.0956 -0.5689
  501SOL    HW2 1770   6.354   1.976   5.649 -1.0457  0.6349 -0.2974
  501SOL    HW3 1771   6.446   2.061   5.564 -0.6702 -0.2878 -0.8257
  501SOL    MW4 1772   6.404   2.047   5.639 -0.3519  0.1162 -0.5670
  502SOL     OW 1773   0.589   4.650   2.127  0.3514  0.3579 -0.0790
  502SOL    HW2 1774   0.635   4.580   2.080 -0.0932  0.0104 -0.0032
  502SOL    HW3 1775   0.496   4.625   2.122  0.2704  0.5077  0.6736
  502SOL    MW4 1776   0.583   4.637   2.120  0.2821  0.3318  0.0303
  503SOL     OW 1777   0.333   1.716   3.143  0.0638  0.5185  0.0829
  503SOL    HW2 1778   0.364   1.629   3.168  0.1666  0.7014  0.6081
  503SOL    HW3 1779   0.309   1.708   3.050 -0.1507 -0.1292  0.1916
  503SOL    MW4 1780   0.334   1.703   3.134  0.0491  0.4572  0.1665
  504SOL     OW 1781   3.114   4.032   5.484  0.2421  0.0060  0.1931
  504SOL    HW2 1782   3.204   4.019   5.455 -0.0579 -1.1740 -0.2500
  504SOL    HW3 1783   3.060   4.006   5.410 -0.4870  1.9577 -0.0384
  504SOL    MW4 1784   3.119   4.027   5.470  0.1063  0.1078  0.1041
  505SOL     OW 1785   5.553   3.452   5.935 -0.5416 -0.3908  0.0258
  505SOL    HW2 1786   5.603   3.397   5.995 -1.2194 -0.5850  0.4246
  505SOL    HW3 1787   5.538   3.397   5.858 -0.8640 -0.6285  0.2552
  505SOL    MW4 1788   5.557   3.437   5.933 -0.6736 -0.4478  0.1087
  506SOL     OW 1789   6.063   0.868   5.565  0.5057  0.5812 -0.3483
  506SOL    HW2 1790   5.981   0.893   5.522  0.8375  0.4305 -1.0697
  506SOL    HW3 1791   6.085   0.944   5.620 -0.5776  0.2774  0.5528
  506SOL    MW4 1792   6.055   0.881   5.567  0.4065  0.5213 -0.3246
  507SOL     OW 1793   6.115   3.634   0.332 -0.0273 -0.3273 -0.2253
  507SOL    HW2 1794   6.119   3.686   0.412  0.8548 -0.9793  0.1795
  507SOL    HW3 1795   6.035   3.581   0.341 -1.1628  1.2023 -0.8355
  507SOL    MW4 1796   6.105   3.634   0.343 -0.0607 -0.2115 -0.2524
  508SOL     OW 1797   4.603   1.705   4.297  0.2730 -0.0267  0.1021
  508SOL    HW2 1798   4.515   1.709   4.261  0.0091 -1.6471  0.4755
  508SOL    HW3 1799   4.651   1.774   4.251 -0.6064 -0.5868 -1.7700
  508SOL    MW4 1800   4.598   1.715   4.286  0.1222 -0.3144 -0.0956
  509SOL     OW 1801   0.433   4.496   2.525  0.3487 -0.0837  0.2373
  509SOL    HW2 1802   0.395   4.468   2.441  2.0199  0.9398 -0.9244
  509SOL    HW3 1803   0.504   4.433   2.541  0.6467  0.2915  0.3908
  509SOL    MW4 1804   0.437   4.484   2.516  0.6085  0.1008  0.1043
  510SOL     OW 1805   2.069   1.433   2.115 -0.8930 -0.0942  0.2262
  510SOL    HW2 1806   2.108   1.471   2.194  0.0555  0.0785 -0.3202
  510SOL    HW3 1807   2.066   1.339   2.132  0.0350 -0.1423  0.1609
  510SOL    MW4 1808   2.074   1.426   2.128 -0.6454 -0.0777  0.1455
  511SOL     OW 1809   0.958   0.003   2.204 -0.0608  0.2542  0.3404
  511SOL    HW2 1810   1.047   0.036   2.195 -0.3158  1.0838  0.7236
  511SOL    HW3 1811   0.906   0.056   2.144 -0.3437 -0.0261  0.3356
  511SOL    MW4 1812   0.963   0.015   2.195 -0.1317  0.3267  0.3903
  512SOL     OW 1813   1.157   3.946   5.876  0.1132 -0.4592  0.2427
  512SOL    HW2 1814   1.247   3.913   5.873  0.0065 -0.7311 -0.0162
  512SOL    HW3 1815   1.166   4.041   5.882  0.4328 -0.5505  1.4157
  512SOL    MW4 1816   1.170   3.954   5.877  0.1413 -0.5071  0.3633
  513SOL     OW 1817   0.974   4.053   5.302  0.0708 -0.0148 -0.7325
  513SOL    HW2 1818   1.034   4.128   5.301 -0.3707  0.3490 -2.2243
  513SOL    HW3 1819   0.889   4.091   5.320  0.0062 -0.2963 -0.4463
  513SOL    MW4 1820   0.971   4.068   5.304  0.0040 -0.0039 -0.8916
  514SOL     OW 1821   4.571   3.938   2.931  0.2817 -0.3369  0.2319
  514SOL    HW2 1822   4.605   4.026   2.913  1.7727 -0.6638  1.2182
  514SOL    HW3 1823   4.538   3.907   2.846 -0.8257  1.3741 -0.0011
  514SOL    MW4 1824   4.571   3.945   2.917  0.3323 -0.1543  0.3313
  515SOL     OW 1825   2.599   0.491   2.053 -0.0016  0.3957  0.3209
  515SOL    HW2 1826   2.537   0.544   2.103 -1.5160 -0.5110 -0.5112
  515SOL    HW3 1827   2.644   0.554   1.996 -1.0221  0.9379  0.0843
  515SOL    MW4 1828   2.596   0.506   2.052 -0.3360  0.3476  0.1799
  516SOL     OW 1829   3.122   0.688   0.247  0.5714 -0.0139  0.3826
  516SOL    HW2 1830   3.080   0.614   0.204  0.9868  0.3454 -0.6669
  516SOL    HW3 1831   3.173   0.730   0.178 -2.3614  3.3342 -0.0258
  516SOL    MW4 1832   3.124   0.684   0.232  0.2393  0.4753  0.1903
  517SOL     OW 1833   1.308   5.961   2.797  0.4840 -0.0522 -0.0414
  517SOL    HW2 1834   1.399   5.939   2.778  0.5810  0.0437  0.2969
  517SOL    HW3 1835   1.301   6.055   2.779  0.9649  0.3761  1.7552
  517SOL    MW4 1836   1.319   5.970   2.792  0.5603  0.0170  0.2403
  518SOL     OW 1837   2.468   3.343   4.114 -0.7251  0.4102 -0.0804
  518SOL    HW2 1838   2.481   3.430   4.078  0.1588  0.4969  0.4262
  518SOL    HW3 1839   2.504   3.348   4.203 -2.2313  0.0118  0.5885
  518SOL    MW4 1840   2.474   3.355   4.121 -0.8072  0.3691  0.0747
  519SOL     OW 1841   4.469   0.199   3.803 -0.2029  0.0920  0.1090
  519SOL    HW2 1842   4.481   0.145   3.725  1.1770  0.9495 -0.2906
  519SOL    HW3 1843   4.451   0.135   3.873  1.5505 -0.9245 -0.3183
  519SOL    MW4 1844   4.468   0.183   3.802  0.2105  0.0710 -0.0001
  520SOL     OW 1845   1.017   6.220   2.032 -0.4136  1.0202  0.1731
  520SOL    HW2 1846   0.965   6.143   2.054  1.1442 -0.8886 -2.1840
  520SOL    HW3 1847   0.973   6.292   2.075 -3.8775 -0.7033 -0.1057
  520SOL    MW4 1848   1.004   6.219   2.040 -0.6651  0.5409 -0.1747
  521SOL     OW 1849   4.048   0.577   3.244  0.2993 -0.1554 -0.2421
  521SOL    HW2 1850   4.128   0.525   3.254  1.4893  1.7032  0.3509
  521SOL    HW3 1851   3.997   0.559   3.323  0.3634 -0.9464 -0.3761
  521SOL    MW4 1852   4.052   0.568   3.256  0.4647 -0.0145 -0.1815
  522SOL     OW 1853   2.024   6.428   4.062 -0.1597  0.1155 -0.4902
  522SOL    HW2 1854   2.010   6.446   4.155  1.0583 -1.3382  0.0213
  522SOL    HW3 1855   1.971   6.351   4.044 -0.1762  0.2293 -0.9452
  522SOL    MW4 1856   2.015   6.421   4.072 -0.0012 -0.0613 -0.4828
  523SOL     OW 1857   1.295   0.462   5.933 -0.0480 -0.2772 -0.2357
  523SOL    HW2 1858   1.287   0.529   5.866 -0.6019  1.5185  1.5128
  523SOL    HW3 1859   1.227   0.398   5.912 -0.5637  0.5339 -1.0882
  523SOL    MW4 1860   1.285   0.462   5.922 -0.1891  0.0667 -0.1175
  524SOL     OW 1861   2.693   5.992   1.481  0.0000  0.1260 -0.0617
  524SOL    HW2 1862   2.785   5.989   1.452 -0.3865 -0.0362 -1.3392
  524SOL    HW3 1863   2.648   5.932   1.422 -1.2098  1.4239 -0.5184
  524SOL    MW4 1864   2.699   5.984   1.469 -0.2106  0.2759 -0.2905
  525SOL     OW 1865   2.763   0.515   0.966  0.0677 -0.2046  0.5664
  525SOL    HW2 1866   2.791   0.427   0.991  1.1566  0.0247  0.1706
  525SOL    HW3 1867   2.785   0.522   0.873 -0.9233  0.1412  0.3445
  525SOL    MW4 1868   2.769   0.504   0.957  0.0806 -0.1287  0.4849
  526SOL     OW 1869   2.165   0.503   2.274 -0.6617 -0.1452 -0.1184
  526SOL    HW2 1870   2.121   0.455   2.345  0.9546 -2.1947 -0.4031
  526SOL    HW3 1871   2.239   0.547   2.318  1.5458 -3.0147 -0.6544
  526SOL    MW4 1872   2.169   0.503   2.289 -0.1572 -0.7942 -0.2267
  527SOL     OW 1873   3.394   5.380   4.952  1.0146  0.0905 -0.8061
  527SOL    HW2 1874   3.299   5.387   4.945  1.0021  1.0126  0.0688
  527SOL    HW3 1875   3.416   5.303   4.900 -0.5012 -1.6850  0.9778
  527SOL    MW4 1876   3.384   5.371   4.945  0.8130 -0.0221 -0.4553
  528SOL     OW 1877   0.304   3.962   4.422  0.0646 -0.2136  0.1503
  528SOL    HW2 1878   0.328   3.872   4.398  1.9325  0.3666 -0.3396
  528SOL    HW3 1879   0.216   3.974   4.386 -0.1448 -1.7718  0.0707
  528SOL    MW4 1880   0.295   3.951   4.414  0.2834 -0.3427  0.0752
  529SOL     OW 1881   5.534   0.660   5.213 -0.2157 -0.1132 -0.4235
  529SOL    HW2 1882   5.566   0.717   5.282  0.2838  0.0189 -0.7578
  529SOL    HW3 1883   5.453   0.702   5.184 -1.6267 -1.3328  1.5424
  529SOL    MW4 1884   5.527   0.673   5.218 -0.3360 -0.2567 -0.2082
  530SOL     OW 1885   3.719   0.687   2.458 -0.5022  0.2697  0.2823
  530SOL    HW2 1886   3.629   0.719   2.452 -0.2466  0.9443  0.0267
  530SOL    HW3 1887   3.712   0.592   2.447 -1.4241  0.0407  2.4063
  530SOL    MW4 1888   3.706   0.679   2.456 -0.5901  0.3285  0.5288
  531SOL     OW 1889   2.439   2.497   2.013  0.0008 -1.2008  0.0027
  531SOL    HW2 1890   2.344   2.485   2.012 -0.0168 -1.1009 -0.9959
  531SOL    HW3 1891   2.466   2.471   1.925  0.8514 -0.8652  0.1625
  531SOL    MW4 1892   2.430   2.492   2.001  0.1107 -1.1433 -0.1080
  532SOL     OW 1893   2.166   2.462   1.991  0.1538  0.4503  0.0851
  532SOL    HW2 1894   2.151   2.391   1.929  0.9321  1.1449 -0.9475
  532SOL    HW3 1895   2.138   2.427   2.076  0.4678 -1.0473 -0.4016
  532SOL    MW4 1896   2.160   2.448   1.994  0.2979  0.3443 -0.1153
  533SOL     OW 1897   0.382   0.145   5.263  0.0045 -0.4076 -0.4640
  533SOL    HW2 1898   0.383   0.093   5.343  0.0644  1.9800  1.1836
  533SOL    HW3 1899   0.289   0.159   5.245 -0.0370 -1.5809 -1.3238
  533SOL    MW4 1900   0.370   0.140   5.271  0.0069 -0.2474 -0.3601
  534SOL     OW 1901   0.480   4.138   5.225  0.2269 -0.5113 -0.4576
  534SOL    HW2 1902   0.442   4.086   5.296 -0.5740 -0.1444 -0.6060
  534SOL    HW3 1903   0.452   4.094   5.145 -1.7503  0.9165 -0.6531
  534SOL    MW4 1904   0.471   4.126   5.224 -0.1396 -0.2745 -0.5030
  535SOL     OW 1905   4.448   2.831   5.028  0.3503  0.4100  0.5013
  535SOL    HW2 1906   4.428   2.819   5.121 -0.0459  1.0415  0.5022
  535SOL    HW3 1907   4.444   2.925   5.014 -0.9857  0.2351 -0.4646
  535SOL    MW4 1908   4.445   2.842   5.039  0.1217  0.4702  0.3740
  536SOL     OW 1909   3.020   3.198   5.617  0.3477  0.3321  0.2497
  536SOL    HW2 1910   3.074   3.243   5.682 -0.6072  1.5036  0.2662
  536SOL    HW3 1911   2.931   3.228   5.635 -0.4995 -2.2867  0.8378
  536SOL    MW4 1912   3.015   3.208   5.628  0.1099  0.1411  0.3294
  537SOL     OW 1913   2.023   3.104   4.787 -0.4675  0.6481 -0.3704
  537SOL    HW2 1914   2.033   3.066   4.875 -1.4966 -0.5746 -0.7649
  537SOL    HW3 1915   1.994   3.194   4.804  0.6985  0.8878  0.5506
  537SOL    MW4 1916   2.021   3.111   4.801 -0.4494  0.5184 -0.3009
  538SOL     OW 1917   2.585   5.794   3.002  0.4527  0.3394 -0.1179
  538SOL    HW2 1918   2.670   5.811   3.043  0.7310  0.4123 -0.7020
  538SOL    HW3 1919   2.569   5.701   3.019  1.1006  0.0917 -0.7894
  538SOL    MW4 1920   2.594   5.784   3.009  0.5749  0.3163 -0.2836
  539SOL     OW 1921   5.211   0.728   0.607 -0.0287 -0.5906  0.1146
  539SOL    HW2 1922   5.153   0.693   0.674  0.0549  0.2043  0.6116
  539SOL    HW3 1923   5.201   0.669   0.533  1.9803 -3.1837  1.7408
  539SOL    MW4 1924   5.202   0.716   0.606  0.2474 -0.8278  0.3947
  540SOL     OW 1925   6.398   1.747   4.586  0.7963  0.3700  0.2726
  540SOL    HW2 1926   6.412   1.660   4.621 -0.0240  0.1068 -0.0319
  540SOL    HW3 1927   6.486   1.782   4.573  1.1650 -0.8178 -0.5918
  540SOL    MW4 1928   6.412   1.740   4.589  0.7367  0.1786  0.1184
  541SOL     OW 1929   2.152   4.273   2.422 -0.0115  0.0789 -0.2705
  541SOL    HW2 1930   2.092   4.347   2.421  0.6810  0.7706  2.2879
  541SOL    HW3 1931   2.106   4.205   2.470  0.2999 -0.2939 -0.4861
  541SOL    MW4 1932   2.138   4.274   2.428  0.1209  0.1210  0.0386
  542SOL     OW 1933   4.849   3.638   2.436  0.2790  0.3673  0.6273
  542SOL    HW2 1934   4.859   3.675   2.349  0.3839  0.6495  0.7578
  542SOL    HW3 1935   4.911   3.686   2.490 -0.0715  0.4759  0.9398
  542SOL    MW4 1936   4.858   3.650   2.432  0.2466  0.4189  0.6858
  543SOL     OW 1937   0.734   5.409   1.269  0.2038  0.0886 -0.0288
  543SOL    HW2 1938   0.659   5.468   1.275 -0.5296 -0.6745 -1.2560
  543SOL    HW3 1939   0.807   5.465   1.242  0.5636  1.1660  2.8848
  543SOL    MW4 1940   0.734   5.424   1.266  0.1545  0.1301  0.1937
  544SOL     OW 1941   1.965   0.468   0.117 -0.0166 -0.1539 -0.4397
  544SOL    HW2 1942   1.980   0.541   0.177 -1.8011  0.1255 -0.2740
  544SOL    HW3 1943   1.930   0.399   0.174  0.8266 -0.8415 -0.7417
  544SOL    MW4 1944   1.963   0.468   0.133 -0.1408 -0.2078 -0.4577
  545SOL     OW 1945   5.963   4.777   0.197  0.1795 -0.7062  0.6660
  545SOL    HW2 1946   5.910   4.855   0.179  0.3655 -1.0311 -1.5859
  545SOL    HW3 1947   6.030   4.807   0.258 -0.1844  0.7059  0.4086
  545SOL    MW4 1948   5.965   4.791   0.203  0.1560 -0.5627  0.3350
  546SOL     OW 1949   0.114   4.292   1.654  0.1173  0.3024 -0.0722
  546SOL    HW2 1950   0.074   4.312   1.569 -0.4719  0.0651  0.1440
  546SOL    HW3 1951   0.197   4.338   1.652 -0.9796  2.4365  0.2244
  546SOL    MW4 1952   0.119   4.301   1.643 -0.1051  0.5527 -0.0046
  547SOL     OW 1953   3.057   3.583   5.110  0.5217 -0.0805  0.4968
  547SOL    HW2 1954   2.983   3.608   5.055  0.5628 -1.1794 -0.0790
  547SOL    HW3 1955   3.086   3.499   5.075  1.3898 -0.1649  1.3724
  547SOL    MW4 1956   3.051   3.576   5.098  0.6417 -0.2366  0.5364
  548SOL     OW 1957   1.355   1.168   5.669 -0.4165  0.6083 -0.8620
  548SOL    HW2 1958   1.267   1.146   5.698 -1.4236  2.4199 -2.3533
  548SOL    HW3 1959   1.356   1.146   5.576  0.8941  0.1418 -0.7601
  548SOL    MW4 1960   1.344   1.162   5.661 -0.3764  0.7857 -1.0453
  549SOL     OW 1961   1.557   0.200   1.820  0.6875  0.3816  0.3916
  549SOL    HW2 1962   1.544   0.294   1.818  1.1937  0.4514  0.3882
  549SOL    HW3 1963   1.652   0.188   1.820  0.6427 -0.1427 -0.7856
  549SOL    MW4 1964   1.568   0.211   1.819  0.7484  0.3216  0.2358
  550SOL     OW 1965   2.791   0.826   4.415 -0.1989  0.5233  0.2534
  550SOL    HW2 1966   2.812   0.745   4.368 -0.9136  0.6572 -0.2997
  550SOL    HW3 1967   2.773   0.890   4.347 -1.9111  0.5476  0.6821
  550SOL    MW4 1968   2.792   0.824   4.400 -0.5191  0.5442  0.2370
  551SOL     OW 1969   0.180   0.856   0.634 -0.2222  0.5686  0.3817
  551SOL    HW2 1970   0.147   0.924   0.693  0.0989  0.1373  1.0672
  551SOL    HW3 1971   0.173   0.895   0.547 -2.3995  0.5359  0.5068
  551SOL    MW4 1972   0.175   0.870   0.631 -0.4671  0.5074  0.4886
  552SOL     OW 1973   5.181   4.989   0.452  0.2535  0.7883  0.4737
  552SOL    HW2 1974   5.200   4.934   0.376 -1.9787  0.6894 -0.0961
  552SOL    HW3 1975   5.088   4.976   0.468  0.4567  1.5695  2.6531
  552SOL    MW4 1976   5.171   4.980   0.444 -0.0142  0.8783  0.6861
  553SOL     OW 1977   4.351   4.019   4.158 -0.1680  0.7175  0.0624
  553SOL    HW2 1978   4.378   4.081   4.090  1.7302  3.5859  3.0898
  553SOL    HW3 1979   4.274   3.976   4.122 -0.3471  3.3080 -3.1723
  553SOL    MW4 1980   4.345   4.022   4.144  0.0588  1.4377  0.0351
  554SOL     OW 1981   5.269   5.386   1.804 -0.3641 -0.2838 -0.2045
  554SOL    HW2 1982   5.185   5.379   1.758 -1.0077  2.3126  0.4102
  554SOL    HW3 1983   5.320   5.447   1.751  0.7465 -1.0054  0.0064
  554SOL    MW4 1984   5.264   5.393   1.791 -0.3025 -0.0365 -0.0956
  555SOL     OW 1985   0.934   5.722   3.969  0.2097  0.0890 -0.1813
  555SOL    HW2 1986   1.025   5.744   3.989 -0.2236  0.6572  1.3150
  555SOL    HW3 1987   0.915   5.768   3.887  0.8943  1.0098  0.1614
  555SOL    MW4 1988   0.944   5.731   3.961  0.2429  0.2855  0.0613
  556SOL     OW 1989   1.773   4.621   2.606  0.0458  0.6497 -0.6469
  556SOL    HW2 1990   1.823   4.585   2.679  0.3428  2.2866  0.0095
  556SOL    HW3 1991   1.762   4.548   2.545  0.8137 -0.4463  0.4883
  556SOL    MW4 1992   1.778   4.607   2.607  0.1863  0.7211 -0.4105
  557SOL     OW 1993   1.115   3.749   3.078  0.3932 -0.2296  0.5863
  557SOL    HW2 1994   1.203   3.770   3.047 -0.8564  1.8978 -1.9120
  557SOL    HW3 1995   1.092   3.668   3.034  0.4165  0.2531 -0.3377
  557SOL    MW4 1996   1.123   3.741   3.068  0.2314  0.1148  0.1348
  558SOL     OW 1997   0.562   5.303   1.066 -0.2737 -0.5243  0.1813
  558SOL    HW2 1998   0.533   5.383   1.020 -1.9515 -1.2390 -0.0997
  558SOL    HW3 1999   0.624   5.334   1.131  1.0164  0.7142 -1.5429
  558SOL    MW4 2000   0.566   5.318   1.069 -0.3248 -0.4552 -0.0832
  559SOL     OW 2001   5.872   1.481   0.690 -0.6350 -0.0111 -0.5482
  559SOL    HW2 2002   5.818   1.443   0.759  0.4935  0.0318  0.3817
  559SOL    HW3 2003   5.896   1.568   0.724  1.7526 -0.8280  0.0435
  559SOL    MW4 2004   5.868   1.488   0.704 -0.1711 -0.1132 -0.3475
  560SOL     OW 2005   4.778   4.972   1.942  0.5686 -0.2740 -0.1277
  560SOL    HW2 2006   4.704   4.915   1.920 -0.7464  0.9992  0.8256
  560SOL    HW3 2007   4.752   5.059   1.912  1.0931  0.4426  1.4070
  560SOL    MW4 2008   4.765   4.976   1.935  0.4643 -0.0115  0.2006
  561SOL     OW 2009   4.057   3.430   0.908  0.5582 -0.2739  0.0906
  561SOL    HW2 2010   3.998   3.397   0.976 -0.8154  0.4561 -0.6948
  561SOL    HW3 2011   4.115   3.491   0.953  0.7573 -1.0483  0.8958
  561SOL    MW4 2012   4.057   3.434   0.923  0.4032 -0.2798  0.0932
  562SOL     OW 2013   6.019   5.858   3.318 -0.7113 -0.5372  0.9783
  562SOL    HW2 2014   5.955   5.797   3.354 -1.4687 -1.1259 -1.1788
  562SOL    HW3 2015   5.974   5.942   3.318 -0.3227 -0.3040  2.2867
  562SOL    MW4 2016   6.005   5.861   3.323 -0.7600 -0.5841  0.8663
  563SOL     OW 2017   6.043   1.246   0.252 -0.1722 -0.2159  0.4881
  563SOL    HW2 2018   6.063   1.244   0.346  1.8622 -2.2210  0.0842
  563SOL    HW3 2019   5.947   1.252   0.248 -0.3166 -0.2840  2.6861
  563SOL    MW4 2020   6.033   1.247   0.264  0.0771 -0.4894  0.7248
  564SOL     OW 2021   2.498   0.038   3.841  0.0817 -1.0405 -1.0807
  564SOL    HW2 2022   2.592   0.036   3.856 -0.0292  0.2927  0.0031
  564SOL    HW3 2023   2.488   0.015   3.749  1.4234 -1.6803 -1.0843
  564SOL    MW4 2024   2.509   0.035   3.831  0.2441 -0.9490 -0.9382
  565SOL     OW 2025   3.643   2.557   3.325 -0.4011 -0.2433 -0.0469
  565SOL    HW2 2026   3.554   2.555   3.360  0.5179 -1.6925  2.5051
  565SOL    HW3 2027   3.678   2.642   3.352 -0.8411  0.1532 -0.6895
  565SOL    MW4 2028   3.636   2.568   3.333 -0.3379 -0.3822  0.2050
  566SOL     OW 2029   2.720   1.269   3.152 -0.0801 -0.1992 -0.2885
  566SOL    HW2 2030   2.710   1.328   3.226  3.4771 -0.5144  0.6313
  566SOL    HW3 2031   2.794   1.305   3.102  0.3260 -2.2573 -1.2868
  566SOL    MW4 2032   2.729   1.281   3.155  0.4428 -0.5123 -0.2989
  567SOL     OW 2033   4.179   6.399   1.431 -0.3212 -0.6123 -0.2284
  567SOL    HW2 2034   4.127   6.318   1.433 -0.3237 -0.5975  1.5932
  567SOL    HW3 2035   4.245   6.387   1.499 -0.9274  1.2972  0.7805
  567SOL    MW4 2036   4.181   6.387   1.440 -0.4015 -0.3584  0.1451
  568SOL     OW 2037   3.247   3.602   0.296  0.0920 -0.4991  0.1698
  568SOL    HW2 2038   3.268   3.664   0.367 -0.7902 -0.3954  0.3440
  568SOL    HW3 2039   3.152   3.601   0.293  0.1218 -1.0157 -0.5792
  568SOL    MW4 2040   3.238   3.610   0.305 -0.0205 -0.5536  0.0940
  569SOL     OW 2041   0.092   4.315   5.208  1.2215  0.6665 -0.1627
  569SOL    HW2 2042   0.049   4.229   5.203  2.8095 -0.1548 -0.5572
  569SOL    HW3 2043   0.041   4.364   5.271 -1.0033  0.2010 -1.5020
  569SOL    MW4 2044   0.080   4.310   5.216  1.1375  0.4968 -0.3915
  570SOL     OW 2045   3.798   3.030   5.724  0.0427 -0.3548 -0.8174
  570SOL    HW2 2046   3.807   3.050   5.631  0.8025  1.2040 -0.4401
  570SOL    HW3 2047   3.774   3.113   5.765 -1.0423 -1.1753  0.2986
  570SOL    MW4 2048   3.796   3.044   5.717 -0.0002 -0.2574 -0.6204
  571SOL     OW 2049   1.281   6.222   5.085 -0.3865 -0.5889  0.5753
  571SOL    HW2 2050   1.251   6.312   5.074 -0.5447 -0.3287  2.6736
  571SOL    HW3 2051   1.215   6.168   5.041 -1.2418  0.2496  0.8037
  571SOL    MW4 2052   1.269   6.227   5.078 -0.5202 -0.4439  0.8823
  572SOL     OW 2053   1.214   3.048   6.213 -0.1974  0.0991 -0.2066
  572SOL    HW2 2054   1.195   3.104   6.288 -1.0131  0.5482 -0.7270
  572SOL    HW3 2055   1.141   2.986   6.210 -0.7393  0.7440 -1.2187
  572SOL    MW4 2056   1.202   3.047   6.222 -0.3765  0.2434 -0.4088
  573SOL     OW 2057   4.061   3.704   2.374  0.2315  0.8625 -0.4783
  573SOL    HW2 2058   4.034   3.662   2.292 -0.7226  0.3225  0.0944
  573SOL    HW3 2059   3.984   3.697   2.431  0.7684  1.5328  0.3529
  573SOL    MW4 2060   4.047   3.698   2.371  0.1764  0.8797 -0.2931
  574SOL     OW 2061   0.224   0.737   4.858  0.0028 -0.4598 -0.1114
  574SOL    HW2 2062   0.150   0.743   4.797  0.8123 -0.0543 -1.0845
  574SOL    HW3 2063   0.218   0.650   4.896 -0.7177 -0.5903 -0.5152
  574SOL    MW4 2064   0.213   0.727   4.855  0.0146 -0.4235 -0.2930
  575SOL     OW 2065   3.018   1.677   3.626  0.0946 -0.4503 -0.1684
  575SOL    HW2 2066   3.037   1.725   3.706  0.9710 -0.3799 -0.4079
  575SOL    HW3 2067   2.931   1.707   3.600  0.7083  1.1960 -0.4414
  575SOL    MW4 2068   3.009   1.687   3.633  0.2912 -0.2238 -0.2360
  576SOL     OW 2069   3.710   1.846   0.276 -0.5208  0.2963  0.5714
  576SOL    HW2 2070   3.792   1.871   0.318  0.6439 -2.0351 -0.1345
  576SOL    HW3 2071   3.685   1.764   0.318  0.1310 -1.5680 -2.3901
  576SOL    MW4 2072   3.717   1.838   0.287 -0.2811 -0.2572  0.0875
  577SOL     OW 2073   2.107   1.683   5.168 -0.0539  0.1080 -0.1444
  577SOL    HW2 2074   2.157   1.604   5.188 -0.6030 -0.1202  0.3283
  577SOL    HW3 2075   2.159   1.726   5.099  0.9547  0.0407  0.5487
  577SOL    MW4 2076   2.121   1.678   5.161  0.0067  0.0690  0.0094
  578SOL     OW 2077   2.347   5.059   2.130  0.3335  0.2823  0.0754
  578SOL    HW2 2078   2.425   5.097   2.172  0.3268 -0.2543  0.5753
  578SOL    HW3 2079   2.381   4.986   2.079  0.1080 -0.1997  0.6126
  578SOL    MW4 2080   2.362   5.054   2.128  0.3028  0.1479  0.2122
  579SOL     OW 2081   5.010   4.472   4.691 -1.1055 -0.4874 -0.4441
  579SOL    HW2 2082   5.068   4.426   4.630  1.1922  1.2040  0.3508
  579SOL    HW3 2083   5.030   4.435   4.777  0.2342  1.3597  0.1015
  579SOL    MW4 2084   5.020   4.461   4.694 -0.6256 -0.0205 -0.2672
  580SOL     OW 2085   1.518   3.454   5.555  0.1782 -0.1247 -0.1140
  580SOL    HW2 2086   1.432   3.480   5.589  0.3261 -0.6409  0.6871
  580SOL    HW3 2087   1.530   3.364   5.587  0.8308 -0.2100 -0.5803
  580SOL    MW4 2088   1.508   3.445   5.563  0.2838 -0.2040 -0.0698
  581SOL     OW 2089   2.016   2.188   4.052 -0.0420 -0.2928 -0.4367
  581SOL    HW2 2090   2.034   2.282   4.047 -2.7777  0.3958  0.8904
  581SOL    HW3 2091   1.986   2.166   3.964  1.3825 -0.1554 -0.9860
  581SOL    MW4 2092   2.014   2.198   4.039 -0.2150 -0.1839 -0.3341
  582SOL     OW 2093   3.294   2.757   0.843 -0.3954 -0.5342 -0.3478
  582SOL    HW2 2094   3.232   2.815   0.888 -0.6595 -1.5165  0.5938
  582SOL    HW3 2095   3.380   2.793   0.864 -0.6054  0.4604 -1.1262
  582SOL    MW4 2096   3.297   2.769   0.852 -0.4580 -0.5326 -0.3262
  583SOL     OW 2097   2.301   6.134   2.180  0.4473  0.1851  0.0745
  583SOL    HW2 2098   2.281   6.132   2.086  0.6951 -0.9846  0.0282
  583SOL    HW3 2099   2.352   6.214   2.192 -0.7060  1.0486 -0.5359
  583SOL    MW4 2100   2.305   6.144   2.169  0.3278  0.1447 -0.0122
  584SOL     OW 2101   2.145   5.524   2.025 -0.4605  0.0118 -0.1964
  584SOL    HW2 2102   2.069   5.522   1.967 -0.1607 -1.1237 -0.5843
  584SOL    HW3 2103   2.114   5.484   2.106 -0.8612  1.5403  0.4305
  584SOL    MW4 2104   2.131   5.518   2.028 -0.4738  0.0637 -0.1649
  585SOL     OW 2105   2.592   5.411   0.646  0.3851  0.4430 -0.1953
  585SOL    HW2 2106   2.499   5.413   0.622 -0.1274  0.6279  1.6296
  585SOL    HW3 2107   2.635   5.463   0.578 -0.6862 -0.4410 -1.6187
  585SOL    MW4 2108   2.585   5.418   0.634  0.1761  0.3508 -0.1424
  586SOL     OW 2109   2.105   0.646   0.339 -0.3116  0.2492 -0.3306
  586SOL    HW2 2110   2.022   0.693   0.344  0.0114  0.9441 -1.1274
  586SOL    HW3 2111   2.166   0.699   0.391  0.1582  0.9847 -1.5845
  586SOL    MW4 2112   2.103   0.659   0.346 -0.2070  0.4379 -0.6012
  587SOL     OW 2113   1.669   5.323   0.442  0.0103 -0.0521 -0.2466
  587SOL    HW2 2114   1.624   5.279   0.514 -0.9694  1.0814 -0.1285
  587SOL    HW3 2115   1.621   5.405   0.431  2.3360  1.4757  0.2114
  587SOL    MW4 2116   1.657   5.328   0.450  0.1879  0.2990 -0.1706
  588SOL     OW 2117   2.602   4.607   3.939  0.1228  0.2933 -0.0700
  588SOL    HW2 2118   2.689   4.572   3.921 -0.4194 -0.9828 -0.3270
  588SOL    HW3 2119   2.597   4.689   3.890  0.2592 -0.9183 -2.1848
  588SOL    MW4 2120   2.612   4.613   3.930  0.0693 -0.0349 -0.3829
  589SOL     OW 2121   1.214   1.085   0.873  0.3803  0.5000  0.1677
  589SOL    HW2 2122   1.143   1.025   0.894  0.4153  0.2816 -0.3181
  589SOL    HW3 2123   1.171   1.159   0.830  0.1547  1.5324  2.0666
  589SOL    MW4 2124   1.199   1.086   0.870  0.3552  0.6074  0.3541
  590SOL     OW 2125   5.140   3.679   5.087  0.0192 -0.4408  0.4178
  590SOL    HW2 2126   5.229   3.660   5.118 -0.1900 -1.5318  0.4178
  590SOL    HW3 2127   5.140   3.650   4.996 -0.1716  0.1160  0.2375
  590SOL    MW4 2128   5.152   3.672   5.079 -0.0336 -0.5113  0.3940
  591SOL     OW 2129   2.284   0.370   2.916 -0.1284  0.0297 -0.0669
  591SOL    HW2 2130   2.239   0.455   2.917 -0.8330 -0.3301 -0.3738
  591SOL    HW3 2131   2.377   0.392   2.908 -0.3181  0.7667 -0.3407
  591SOL    MW4 2132   2.290   0.384   2.915 -0.2464  0.0795 -0.1435
  592SOL     OW 2133   2.258   0.522   1.994 -0.3238  0.5876  0.1088
  592SOL    HW2 2134   2.327   0.585   1.975  1.0621 -1.1894 -1.0058
  592SOL    HW3 2135   2.235   0.539   2.085  2.2672  0.6287  0.8319
  592SOL    MW4 2136   2.264   0.532   2.003  0.2009  0.3586  0.0572
  593SOL     OW 2137   0.118   4.219   6.259  0.3153 -0.1216 -0.0933
  593SOL    HW2 2138   0.184   4.181   6.317  0.0324 -0.5254 -0.0248
  593SOL    HW3 2139   0.084   4.295   6.306  1.5044  0.7536 -0.6042
  593SOL    MW4 2140   0.122   4.224   6.273  0.4349 -0.0594 -0.1517
  594SOL     OW 2141   6.419   0.120   2.137 -0.6095 -0.3844 -0.2152
  594SOL    HW2 2142   6.472   0.041   2.150 -0.4223 -0.1000  0.8769
  594SOL    HW3 2143   6.400   0.121   2.044  1.3743 -0.4539 -0.6593
  594SOL    MW4 2144   6.423   0.110   2.127 -0.3231 -0.3560 -0.1297
  595SOL     OW 2145   4.131   4.565   1.130 -0.3189  0.1130 -0.2627
  595SOL    HW2 2146   4.079   4.609   1.062  0.3071 -0.3296 -1.0574
  595SOL    HW3 2147   4.067   4.533   1.193 -0.9803 -0.0541 -1.0034
  595SOL    MW4 2148   4.116   4.566   1.129 -0.3236  0.0326 -0.4652
  596SOL     OW 2149   3.868   0.966   3.446 -0.0519  0.5310 -0.2656
  596SOL    HW2 2150   3.950   0.998   3.482  0.2182  0.1144 -0.5034
  596SOL    HW3 2151   3.885   0.958   3.352  0.5101 -2.1060 -0.0035
  596SOL    MW4 2152   3.881   0.970   3.438  0.0579  0.1281 -0.2624
  597SOL     OW 2153   2.398   5.014   4.359  0.8499  0.3627 -0.5750
  597SOL    HW2 2154   2.486   4.988   4.387  0.8833 -1.0866 -1.9075
  597SOL    HW3 2155   2.381   4.962   4.281 -2.1252 -1.1851  0.9443
  597SOL    MW4 2156   2.408   5.004   4.353  0.4617 -0.0327 -0.5504
  598SOL     OW 2157   3.181   2.704   2.839  0.4499  0.4823  0.3625
  598SOL    HW2 2158   3.137   2.624   2.867 -0.7972  1.2726  0.7567
  598SOL    HW3 2159   3.141   2.725   2.755  1.3085  0.2920 -0.1002
  598SOL    MW4 2160   3.170   2.696   2.832  0.3987  0.5614  0.3534
  599SOL     OW 2161   2.418   3.843   4.245  0.2765  0.3233 -0.2517
  599SOL    HW2 2162   2.512   3.859   4.251  0.3889 -0.1518 -0.7123
  599SOL    HW3 2163   2.387   3.850   4.335  1.0694 -1.4850  0.2093
  599SOL    MW4 2164   2.426   3.846   4.257  0.3959  0.0220 -0.2517
  600SOL     OW 2165   6.223   0.814   5.298  0.3618 -0.3934  0.1629
  600SOL    HW2 2166   6.167   0.833   5.373  0.0906 -1.5162  0.2612
  600SOL    HW3 2167   6.310   0.805   5.335  0.2199 -1.0006  0.3573
  600SOL    MW4 2168   6.227   0.815   5.313  0.3073 -0.6216  0.2015
  601SOL     OW 2169   2.648   3.725   1.086 -0.4213  0.4174 -0.1898
  601SOL    HW2 2170   2.567   3.708   1.037 -0.5754  0.9280 -0.1219
  601SOL    HW3 2171   2.625   3.708   1.178 -0.8397  1.8195 -0.0075
  601SOL    MW4 2172   2.634   3.720   1.092 -0.4969  0.6698 -0.1568
  602SOL     OW 2173   2.038   4.475   0.345  0.2727 -0.7027 -0.2575
  602SOL    HW2 2174   2.050   4.384   0.373 -0.6601 -0.4213  1.1473
  602SOL    HW3 2175   2.027   4.524   0.427  0.0989  0.5820 -1.0273
  602SOL    MW4 2176   2.038   4.469   0.360  0.1267 -0.4961 -0.1737
  603SOL     OW 2177   1.035   0.147   5.714  0.7063  0.1514 -0.2352
  603SOL    HW2 2178   0.959   0.098   5.746  1.5951 -0.7625  0.5282
  603SOL    HW3 2179   1.110   0.103   5.753  1.5829  1.6463 -0.1737
  603SOL    MW4 2180   1.035   0.135   5.723  0.9392  0.2281 -0.1264
  604SOL     OW 2181   0.927   3.288   6.100  0.1765 -0.2857 -0.2154
  604SOL    HW2 2182   0.925   3.257   6.190  2.0318  1.5769  0.5375
  604SOL    HW3 2183   0.835   3.306   6.078 -0.1720  0.6377  1.8265
  604SOL    MW4 2184   0.914   3.286   6.109  0.3753  0.0819  0.1533
  605SOL     OW 2185   4.507   0.995   1.635 -0.0954  0.5598  0.2843
  605SOL    HW2 2186   4.554   1.037   1.707  0.9287  1.5519 -0.9148
  605SOL    HW3 2187   4.427   1.046   1.624 -1.2774 -0.7993  1.9675
  605SOL    MW4 2188   4.502   1.007   1.643 -0.1163  0.5114  0.3482
  606SOL     OW 2189   2.886   5.714   2.149  0.5656  0.3734  0.3506
  606SOL    HW2 2190   2.970   5.667   2.150  0.3381 -0.0576 -0.2958
  606SOL    HW3 2191   2.907   5.801   2.117  0.3564 -0.6060 -2.7534
  606SOL    MW4 2192   2.900   5.719   2.145  0.5080  0.1874 -0.1442
  607SOL     OW 2193   1.534   2.444   6.024  0.2733 -0.1485 -0.9544
  607SOL    HW2 2194   1.490   2.502   6.087  1.0581 -0.1799 -0.3588
  607SOL    HW3 2195   1.486   2.361   6.031 -1.7352  0.7695 -2.8017
  607SOL    MW4 2196   1.522   2.441   6.034  0.1118 -0.0315 -1.1195
  608SOL     OW 2197   4.549   0.685   4.199 -0.4324  0.1873  0.9227
  608SOL    HW2 2198   4.553   0.733   4.116 -0.2745 -2.0958 -0.4906
  608SOL    HW3 2199   4.640   0.659   4.216 -0.7185 -1.0606  0.6899
  608SOL    MW4 2200   4.561   0.688   4.190 -0.4493 -0.2786  0.7055
  609SOL     OW 2201   4.510   1.035   5.784  0.2290 -0.4512 -0.0659
  609SOL    HW2 2202   4.418   1.061   5.781 -0.1153 -1.7037 -1.3552
  609SOL    HW3 2203   4.520   0.993   5.870  0.0182  1.0210  0.7232
  609SOL    MW4 2204   4.499   1.033   5.795  0.1557 -0.4222 -0.1319
  610SOL     OW 2205   0.338   3.783   1.683 -0.5219  0.1495  0.6192
  610SOL    HW2 2206   0.264   3.735   1.720 -0.0497 -0.4502  0.8026
  610SOL    HW3 2207   0.394   3.802   1.759  1.2415 -2.4516  0.0839
  610SOL    MW4 2208   0.336   3.779   1.698 -0.2269 -0.2728  0.5727
  611SOL     OW 2209   3.332   5.907   2.112 -0.1764 -0.3853  0.5919
  611SOL    HW2 2210   3.308   5.839   2.175 -1.3427 -1.1743 -0.6692
  611SOL    HW3 2211   3.294   5.878   2.029  0.2253  1.2782 -0.2094
  611SOL    MW4 2212   3.324   5.894   2.110 -0.2772 -0.2699  0.3198
  612SOL     OW 2213   4.902   0.795   4.824  0.5403  0.3410 -0.1669
  612SOL    HW2 2214   4.917   0.745   4.744  1.0648  1.3738 -0.7418
  612SOL    HW3 2215   4.829   0.854   4.802 -0.1962 -0.2715  0.5599
  612SOL    MW4 2216   4.894   0.797   4.810  0.5123  0.3965 -0.1469
  613SOL     OW 2217   6.406   3.531   2.635 -0.3078 -0.0104  0.6214
  613SOL    HW2 2218   6.337   3.597   2.626  0.4897  1.0853  2.1203
  613SOL    HW3 2219   6.487   3.582   2.643  0.9092 -1.2845 -2.3345
  613SOL    MW4 2220   6.407   3.546   2.635 -0.0420 -0.0339  0.4291
  614SOL     OW 2221   3.657   4.790   4.313 -0.1865  0.1942  0.2450
  614SOL    HW2 2222   3.602   4.790   4.392 -0.4527  0.2001  0.0621
  614SOL    HW3 2223   3.743   4.764   4.344 -0.2190  0.4865  0.5918
  614SOL    MW4 2224   3.661   4.787   4.328 -0.2259  0.2335  0.2666
  615SOL     OW 2225   3.847   5.318   3.276 -0.6431 -0.0030  0.1765
  615SOL    HW2 2226   3.798   5.312   3.194  0.5443 -2.0342 -0.4762
  615SOL    HW3 2227   3.784   5.353   3.339 -2.1631 -0.1476 -1.1813
  615SOL    MW4 2228   3.832   5.322   3.273 -0.6870 -0.2901 -0.0888
  616SOL     OW 2229   1.038   4.347   3.780 -0.1019  0.3133  0.0944
  616SOL    HW2 2230   1.065   4.297   3.703  1.2672  1.8761 -0.4986
  616SOL    HW3 2231   0.948   4.319   3.796  0.5212 -2.1510 -0.3054
  616SOL    MW4 2232   1.030   4.337   3.772  0.1609  0.1944 -0.0366
  617SOL     OW 2233   0.583   2.382   0.871 -0.0426 -0.9587 -0.3722
  617SOL    HW2 2234   0.497   2.394   0.912  0.1662 -3.7934  1.2281
  617SOL    HW3 2235   0.643   2.373   0.945  1.4953 -0.0692 -1.4587
  617SOL    MW4 2236   0.579   2.382   0.886  0.1878 -1.2153 -0.3044
  618SOL     OW 2237   4.792   0.282   4.938  0.0241  0.1595 -0.3344
  618SOL    HW2 2238   4.831   0.293   5.025  1.9377 -0.2077 -1.0992
  618SOL    HW3 2239   4.760   0.369   4.915  0.8094  0.5934  0.1608
  618SOL    MW4 2240   4.793   0.295   4.946  0.3802  0.1683 -0.3700
  619SOL     OW 2241   1.691   1.444   2.822 -0.2254 -0.3477  0.6796
  619SOL    HW2 2242   1.708   1.447   2.916  0.2133  1.1352  0.5802
  619SOL    HW3 2243   1.662   1.533   2.800  2.6865  0.2877 -1.1083
  619SOL    MW4 2244   1.689   1.456   2.831  0.2167 -0.0682  0.4306
  620SOL     OW 2245   0.490   3.307   5.094  0.5389 -0.4610  0.5721
  620SOL    HW2 2246   0.491   3.282   5.187  1.3332 -0.4258  0.5730
  620SOL    HW3 2247   0.515   3.399   5.093 -1.0524  0.0139  0.4442
  620SOL    MW4 2248   0.493   3.316   5.106  0.4338 -0.3937  0.5554
  621SOL     OW 2249   4.109   3.430   1.399 -0.4128 -1.1119 -0.2977
  621SOL    HW2 2250   4.091   3.486   1.324 -0.8637  0.4603  0.9356
  621SOL    HW3 2251   4.202   3.446   1.418 -0.1014 -2.0639 -0.9258
  621SOL    MW4 2252   4.119   3.440   1.392 -0.4312 -1.0301 -0.2179
  622SOL     OW 2253   3.973   1.609   4.403 -0.1571 -0.3013  0.0298
  622SOL    HW2 2254   4.027   1.591   4.480  0.0550  1.5146  0.3275
  622SOL    HW3 2255   3.883   1.602   4.436 -0.0984 -1.2725  0.0126
  622SOL    MW4 2256   3.968   1.605   4.418 -0.1213 -0.1898  0.0668
  623SOL     OW 2257   4.396   1.635   2.456 -0.6831 -0.0242 -0.3690
  623SOL    HW2 2258   4.374   1.575   2.527 -1.0146 -0.2515 -0.6601
  623SOL    HW3 2259   4.311   1.658   2.416 -0.6908  1.5412  0.4513
  623SOL    MW4 2260   4.382   1.630   2.460 -0.7279  0.1523 -0.2992
  624SOL     OW 2261   3.272   4.058   4.909 -0.5225 -0.1285  0.3905
  624SOL    HW2 2262   3.244   4.118   4.839 -1.7364 -0.1300  0.8516
  624SOL    HW3 2263   3.288   4.115   4.984  3.3491  0.2449 -0.4660
  624SOL    MW4 2264   3.271   4.074   4.909 -0.1718 -0.0794  0.3383
  625SOL     OW 2265   1.626   6.341   2.982  0.4045  0.7215  0.3770
  625SOL    HW2 2266   1.718   6.363   2.993  0.4837  0.0747  1.0800
  625SOL    HW3 2267   1.622   6.299   2.896  0.7301  0.9084  0.2681
  625SOL    MW4 2268   1.637   6.338   2.972  0.4579  0.6608  0.4554
  626SOL     OW 2269   1.303   6.271   2.731 -0.5604  0.5072 -0.0012
  626SOL    HW2 2270   1.254   6.248   2.810 -0.7260 -1.3020 -0.5680
  626SOL    HW3 2271   1.236   6.299   2.669 -0.7548 -0.5485 -0.2977
  626SOL    MW4 2272   1.288   6.271   2.733 -0.6079  0.1292 -0.1151
  627SOL     OW 2273   3.905   3.227   6.031 -0.0816  0.2789 -0.3194
  627SOL    HW2 2274   3.998   3.213   6.011 -0.2355 -0.2470 -0.7183
  627SOL    HW3 2275   3.898   3.320   6.051  0.5154  0.3444 -0.3978
  627SOL    MW4 2276   3.916   3.237   6.031 -0.0232  0.2181 -0.3824
  628SOL     OW 2277   2.458   0.682   0.459 -0.4065 -0.5309 -0.2393
  628SOL    HW2 2278   2.399   0.662   0.531  1.7336 -1.7665  1.2990
  628SOL    HW3 2279   2.502   0.599   0.440  0.7592  0.3036 -1.3888
  628SOL    MW4 2280   2.456   0.668   0.466  0.0296 -0.5838 -0.1880
  629SOL     OW 2281   1.383   4.514   1.387 -0.4747  0.3871  0.4214
  629SOL    HW2 2282   1.438   4.592   1.375  0.0037  0.0500  0.4173
  629SOL    HW3 2283   1.444   4.441   1.382 -0.8506  0.0329  0.9086
  629SOL    MW4 2284   1.398   4.515   1.385 -0.4612  0.2959  0.4851
  630SOL     OW 2285   1.486   4.161   4.202 -0.1200 -0.0292 -0.2488
  630SOL    HW2 2286   1.441   4.194   4.125  1.1755  3.3407  0.2954
  630SOL    HW3 2287   1.425   4.173   4.274 -0.7354 -1.7134 -0.4388
  630SOL    MW4 2288   1.472   4.167   4.202 -0.0303  0.1932 -0.2021
  631SOL     OW 2289   4.185   2.271   1.751  0.3080 -0.0615 -0.4561
  631SOL    HW2 2290   4.119   2.209   1.784 -0.8023  0.7864 -0.9982
  631SOL    HW3 2291   4.265   2.249   1.798 -0.8100  0.0625  1.6106
  631SOL    MW4 2292   4.186   2.260   1.761  0.0140  0.0667 -0.2550
  632SOL     OW 2293   0.939   3.572   4.493 -0.1087  0.4496 -0.3708
  632SOL    HW2 2294   0.950   3.541   4.583  0.4427  0.6139 -0.3782
  632SOL    HW3 2295   0.875   3.643   4.499 -0.4120  0.1658 -0.1755
  632SOL    MW4 2296   0.932   3.577   4.505 -0.0759  0.4338 -0.3460
  633SOL     OW 2297   1.093   5.517   3.138 -0.3304  0.3279 -0.4567
  633SOL    HW2 2298   1.094   5.613   3.144 -2.4084  0.3357  0.5348
  633SOL    HW3 2299   1.003   5.496   3.113 -0.3126 -1.4419  0.8467
  633SOL    MW4 2300   1.081   5.527   3.135 -0.6022  0.0954 -0.1539
  634SOL     OW 2301   6.293   5.812   2.561  0.2870 -0.1669 -0.1258
  634SOL    HW2 2302   6.355   5.880   2.538 -0.4921 -0.2804 -2.9009
  634SOL    HW3 2303   6.215   5.859   2.590  0.0666  0.1208 -1.1589
  634SOL    MW4 2304   6.291   5.827   2.562  0.1551 -0.1439 -0.6283
  635SOL     OW 2305   3.047   4.550   1.511  0.4238  0.2742 -0.1676
  635SOL    HW2 2306   3.082   4.477   1.563  1.6766  0.2322 -1.0295
  635SOL    HW3 2307   2.953   4.533   1.507  0.5434 -0.6947  0.5787
  635SOL    MW4 2308   3.040   4.538   1.518  0.6049  0.1408 -0.1829
  636SOL     OW 2309   4.441   1.218   1.318  0.0015  0.4294 -0.1679
  636SOL    HW2 2310   4.469   1.271   1.393  0.1956 -0.5777  0.4867
  636SOL    HW3 2311   4.485   1.134   1.330 -0.0515  0.2212 -1.3649
  636SOL    MW4 2312   4.450   1.214   1.330  0.0201  0.2690 -0.2394
  637SOL     OW 2313   5.320   2.301   4.909 -0.5898 -0.2920  0.2296
  637SOL    HW2 2314   5.282   2.305   4.997 -0.5301 -0.4835  0.2632
  637SOL    HW3 2315   5.366   2.217   4.906 -0.4491 -0.2108  0.0738
  637SOL    MW4 2316   5.321   2.290   4.920 -0.5634 -0.3065  0.2135
  638SOL     OW 2317   2.110   5.461   5.826  0.1166  0.3842  0.2208
  638SOL    HW2 2318   2.083   5.413   5.748  0.6508 -0.2586  0.4179
  638SOL    HW3 2319   2.189   5.508   5.799  1.8024 -1.8264  1.0076
  638SOL    MW4 2320   2.117   5.461   5.812  0.4095  0.0077  0.3506
  639SOL     OW 2321   4.754   3.749   0.573  0.4608  0.2772 -0.3116
  639SOL    HW2 2322   4.767   3.838   0.541 -1.4571  0.8926  0.4715
  639SOL    HW3 2323   4.660   3.735   0.567  0.5890 -1.2855  0.6742
  639SOL    MW4 2324   4.743   3.759   0.568  0.2247  0.1522 -0.0782
  640SOL     OW 2325   0.641   0.441   5.181  0.4129  0.8583  0.2396
  640SOL    HW2 2326   0.603   0.433   5.268  1.1340 -0.8347  0.4531
  640SOL    HW3 2327   0.576   0.403   5.122  1.4076 -1.4893  0.5357
  640SOL    MW4 2328   0.627   0.435   5.185  0.6393  0.3252  0.3068
  641SOL     OW 2329   2.755   5.979   0.635  0.0076  0.2152  0.1556
  641SOL    HW2 2330   2.665   5.977   0.601 -0.0985  0.0190  0.4362
  641SOL    HW3 2331   2.809   5.997   0.559 -0.2230 -0.2525 -0.1232
  641SOL    MW4 2332   2.750   5.981   0.620 -0.0368  0.1276  0.1558
  642SOL     OW 2333   2.786   2.485   3.111 -0.3706 -0.4210  0.2013
  642SOL    HW2 2334   2.843   2.489   3.034 -0.7756  0.2030 -0.0711
  642SOL    HW3 2335   2.713   2.543   3.090 -1.1841 -1.3174  0.4957
  642SOL    MW4 2336   2.784   2.494   3.098 -0.5314 -0.4569  0.2042
  643SOL     OW 2337   6.108   5.165   4.552 -0.3911 -0.3307  0.3754
  643SOL    HW2 2338   6.190   5.140   4.594  0.1301  2.8389  1.5793
  643SOL    HW3 2339   6.102   5.260   4.567 -3.2567 -0.0916 -1.4985
  643SOL    MW4 2340   6.118   5.175   4.560 -0.7004  0.1190  0.2870
  644SOL     OW 2341   2.318   3.271   2.381 -0.1818 -0.4536 -0.4871
  644SOL    HW2 2342   2.317   3.178   2.361 -1.4054 -0.2457 -1.5494
  644SOL    HW3 2343   2.238   3.286   2.431 -0.3902  0.1642 -0.9990
  644SOL    MW4 2344   2.308   3.261   2.385 -0.3707 -0.3447 -0.6948
  645SOL     OW 2345   1.407   1.641   5.833  0.5468  0.4029  0.3121
  645SOL    HW2 2346   1.375   1.563   5.789  2.4332 -0.7102  0.7865
  645SOL    HW3 2347   1.502   1.632   5.833  0.7489  1.7945  2.0144
  645SOL    MW4 2348   1.415   1.630   5.827  0.8223  0.4396  0.5993
  646SOL     OW 2349   3.143   4.054   3.520  0.2798  0.0004  0.2130
  646SOL    HW2 2350   3.054   4.030   3.496  0.7550 -2.9851  1.0662
  646SOL    HW3 2351   3.198   4.006   3.458  1.3399  1.3433  0.0732
  646SOL    MW4 2352   3.139   4.045   3.508  0.4824 -0.2163  0.3072
  647SOL     OW 2353   2.935   2.075   5.548 -0.9099 -0.0042  0.3648
  647SOL    HW2 2354   2.936   2.166   5.577  0.4225  0.1998 -0.2160
  647SOL    HW3 2355   3.020   2.040   5.577 -0.4203 -0.3840 -1.3653
  647SOL    MW4 2356   2.947   2.082   5.556 -0.6695 -0.0274  0.0599
  648SOL     OW 2357   6.311   4.124   5.265  0.1439  0.5682 -0.1283
  648SOL    HW2 2358   6.329   4.171   5.346  0.5405  0.6156 -0.2374
  648SOL    HW3 2359   6.285   4.036   5.293 -1.7621  1.1706  0.1184
  648SOL    MW4 2360   6.310   4.118   5.280 -0.0552  0.6539 -0.1101
  649SOL     OW 2361   2.553   6.305   2.554 -0.6517  0.1299 -0.1283
  649SOL    HW2 2362   2.586   6.250   2.482  0.8018  1.0305 -0.1865
  649SOL    HW3 2363   2.543   6.392   2.515 -0.1981  0.5484  0.6732
  649SOL    MW4 2364   2.556   6.309   2.539 -0.4001  0.3040 -0.0302
  650SOL     OW 2365   5.136   4.640   3.786  0.3431  0.5588  0.0360
  650SOL    HW2 2366   5.084   4.665   3.862  1.2014  0.5778  0.6391
  650SOL    HW3 2367   5.099   4.690   3.713  0.4626  1.7014  0.7392
  650SOL    MW4 2368   5.124   4.650   3.786  0.4721  0.7121  0.2084
  651SOL     OW 2369   3.955   0.758   2.124  0.0180 -0.3109 -0.0737
  651SOL    HW2 2370   3.937   0.665   2.113  1.1493 -0.9073  2.4247
  651SOL    HW3 2371   3.877   0.792   2.169 -0.0905 -0.2095 -0.3385
  651SOL    MW4 2372   3.942   0.750   2.129  0.1530 -0.3762  0.2210
  652SOL     OW 2373   4.675   2.735   1.545 -0.2589  0.3978  0.3462
  652SOL    HW2 2374   4.583   2.708   1.548 -0.2356  0.3554  2.5850
  652SOL    HW3 2375   4.689   2.780   1.629  2.6478 -2.7183  1.7495
  652SOL    MW4 2376   4.664   2.738   1.557  0.1277 -0.0189  0.8268
  653SOL     OW 2377   5.341   4.665   2.689 -0.2516  0.5562 -0.0567
  653SOL    HW2 2378   5.279   4.697   2.623 -1.6877  2.0494  1.9072
  653SOL    HW3 2379   5.346   4.570   2.673 -2.2191  0.5506 -0.9758
  653SOL    MW4 2380   5.333   4.657   2.678 -0.7007  0.7525  0.0812
  654SOL     OW 2381   5.298   5.451   5.970 -0.2294 -0.0946  0.0933
  654SOL    HW2 2382   5.243   5.407   5.905  0.1258  0.8198 -0.8405
  654SOL    HW3 2383   5.246   5.525   6.000 -0.2944 -0.3730  0.7048
  654SOL    MW4 2384   5.284   5.455   5.966 -0.1911 -0.0107  0.0508
  655SOL     OW 2385   1.472   1.913   1.486 -0.3769 -0.7838  0.3499
  655SOL    HW2 2386   1.398   1.854   1.504 -0.5312 -0.7941 -0.2808
  655SOL    HW3 2387   1.443   1.998   1.520  0.7253 -1.4602  3.3318
  655SOL    MW4 2388   1.458   1.916   1.493 -0.2518 -0.8744  0.6601
  656SOL     OW 2389   1.498   4.739   0.853  0.8959  0.6482  0.4485
  656SOL    HW2 2390   1.539   4.800   0.791  2.6253 -0.1846  0.7006
  656SOL    HW3 2391   1.496   4.655   0.805 -1.1983  0.7790  0.2015
  656SOL    MW4 2392   1.503   4.736   0.838  0.8478  0.5556  0.4492
  657SOL     OW 2393   5.361   0.174   0.628 -0.5254  0.0517 -0.0482
  657SOL    HW2 2394   5.366   0.199   0.720 -2.3676 -0.3267  0.1963
  657SOL    HW3 2395   5.299   0.101   0.626 -2.4094  1.5392 -1.8235
  657SOL    MW4 2396   5.353   0.168   0.640 -1.0170  0.1980 -0.2501
  658SOL     OW 2397   2.685   2.691   3.985 -0.0441  0.2952  0.9462
  658SOL    HW2 2398   2.609   2.684   4.042  0.1968 -1.0432  1.1488
  658SOL    HW3 2399   2.750   2.633   4.026  1.0944  1.4391  0.7975
  658SOL    MW4 2400   2.684   2.682   3.998  0.1379  0.2696  0.9533
  659SOL     OW 2401   1.599   6.284   4.097  0.1730  0.4504  0.1095
  659SOL    HW2 2402   1.635   6.370   4.078 -0.0671 -0.0040 -2.8700
  659SOL    HW3 2403   1.504   6.297   4.096  0.1448  0.2918  0.5223
  659SOL    MW4 2404   1.591   6.297   4.095  0.1376  0.3695 -0.2292
  660SOL     OW 2405   0.467   5.538   1.269 -0.0716 -0.0868 -0.3939
  660SOL    HW2 2406   0.503   5.626   1.274 -0.5851  0.0641  1.3430
  660SOL    HW3 2407   0.380   5.549   1.232  0.1050  0.0402 -0.7796
  660SOL    MW4 2408   0.461   5.551   1.265 -0.1160 -0.0501 -0.2156
  661SOL     OW 2409   2.697   4.820  -0.000  0.1020 -0.3497  0.1990
  661SOL    HW2 2410   2.771   4.839   0.059 -0.2228 -0.2623  0.5797
  661SOL    HW3 2411   2.620   4.822   0.056 -0.1295 -1.0770 -0.0778
  661SOL    MW4 2412   2.697   4.822   0.015  0.0286 -0.4342  0.2127
  662SOL     OW 2413   4.084   6.275   1.857  0.4758  0.6430  0.2708
  662SOL    HW2 2414   4.008   6.265   1.800 -0.4905 -0.5584  1.6877
  662SOL    HW3 2415   4.149   6.320   1.803 -1.0273  1.1854 -1.1620
  662SOL    MW4 2416   4.082   6.280   1.842  0.1500  0.5561  0.2687
  663SOL     OW 2417   6.347   0.932   2.539  0.8050  0.4726 -0.4143
  663SOL    HW2 2418   6.392   0.943   2.454  0.1119  1.9948 -0.6179
  663SOL    HW3 2419   6.375   0.845   2.569  2.3060  0.5419 -1.4607
  663SOL    MW4 2420   6.357   0.922   2.532  0.9116  0.6826 -0.5792
  664SOL     OW 2421   4.791   2.813   0.791  0.0994 -0.2721 -0.6690
  664SOL    HW2 2422   4.795   2.754   0.866 -0.4314  1.2088  0.5802
  664SOL    HW3 2423   4.725   2.775   0.734 -0.9536 -0.3945  0.5769
  664SOL    MW4 2424   4.783   2.801   0.794 -0.1096 -0.0929 -0.3398
  665SOL     OW 2425   2.234   3.061   6.022 -0.3497  0.7600  0.1955
  665SOL    HW2 2426   2.147   3.096   6.006 -0.7291 -0.7990 -1.3666
  665SOL    HW3 2427   2.293   3.135   6.005 -1.1802  0.9902 -1.9274
  665SOL    MW4 2428   2.230   3.075   6.018 -0.5094  0.5847 -0.2907
  666SOL     OW 2429   0.193   5.043   2.448 -0.4494 -0.1375 -0.2408
  666SOL    HW2 2430   0.221   4.955   2.471 -0.6115  0.2837  1.7480
  666SOL    HW3 2431   0.264   5.078   2.395 -0.3478 -1.4137 -0.9900
  666SOL    MW4 2432   0.206   5.036   2.444 -0.4574 -0.2503 -0.0772
  667SOL     OW 2433   3.397   1.701   5.312 -0.5361 -0.8433  0.0146
  667SOL    HW2 2434   3.483   1.668   5.337  0.0933 -0.4483 -1.4835
  667SOL    HW3 2435   3.349   1.710   5.394  0.6652 -1.5866  0.8228
  667SOL    MW4 2436   3.402   1.698   5.326 -0.2946 -0.8893 -0.0765
  668SOL     OW 2437   3.669   2.365   6.407  0.2822 -0.7908 -0.3898
  668SOL    HW2 2438   3.729   2.415   6.354  0.1884 -0.2430  0.0119
  668SOL    HW3 2439   3.693   2.385   6.498  1.2020 -2.5984 -0.1760
  668SOL    MW4 2440   3.680   2.374   6.412  0.3912 -0.9570 -0.3086
  669SOL     OW 2441   3.475   0.789   1.583 -0.0615 -0.0034 -0.3137
  669SOL    HW2 2442   3.554   0.840   1.564 -0.0216  0.3908  0.8517
  669SOL    HW3 2443   3.485   0.763   1.674 -1.8114  1.0145  0.1993
  669SOL    MW4 2444   3.487   0.792   1.592 -0.2871  0.1829 -0.0923
  670SOL     OW 2445   0.548   3.269   0.447 -0.3709  0.2313  0.5033
  670SOL    HW2 2446   0.486   3.214   0.495  0.3907 -0.9818  0.1601
  670SOL    HW3 2447   0.558   3.224   0.363 -0.3596  1.3761 -0.1224
  670SOL    MW4 2448   0.541   3.256   0.442 -0.2690  0.2223  0.3755
  671SOL     OW 2449   2.489   1.092   0.495 -0.1816 -0.4984 -0.1789
  671SOL    HW2 2450   2.580   1.066   0.481  0.0134 -0.1867  0.4464
  671SOL    HW3 2451   2.445   1.070   0.413  0.0960 -2.1796  0.0960
  671SOL    MW4 2452   2.495   1.086   0.482 -0.1193 -0.6791 -0.0601
  672SOL     OW 2453   3.005   3.053   3.377  0.3314 -0.0197 -0.2289
  672SOL    HW2 2454   3.057   3.126   3.346  0.2175 -0.7746 -2.3499
  672SOL    HW3 2455   2.935   3.093   3.428  1.5204  1.1567  0.5632
  672SOL    MW4 2456   3.003   3.068   3.380  0.4733  0.0359 -0.4042
  673SOL     OW 2457   0.392   0.645   0.608 -0.2054  0.4105  0.2332
  673SOL    HW2 2458   0.333   0.703   0.656 -1.2294  0.0942 -0.6190
  673SOL    HW3 2459   0.442   0.704   0.551 -0.8324  0.5252 -0.2060
  673SOL    MW4 2460   0.391   0.660   0.606 -0.4232  0.3839  0.0628
  674SOL     OW 2461   6.100   2.294   2.255 -0.3412 -0.2161  0.2398
  674SOL    HW2 2462   6.046   2.282   2.177 -0.1870  0.4364  0.0262
  674SOL    HW3 2463   6.042   2.269   2.327 -1.1638  1.0491  0.0595
  674SOL    MW4 2464   6.085   2.289   2.254 -0.4294  0.0369  0.1878
  675SOL     OW 2465   5.680   3.230   2.145  0.0616 -0.2135  0.0878
  675SOL    HW2 2466   5.770   3.254   2.165  0.1174  2.2397 -2.5439
  675SOL    HW3 2467   5.627   3.298   2.187 -0.3295  0.0022 -0.7221
  675SOL    MW4 2468   5.685   3.242   2.153  0.0173  0.1386 -0.3662
  676SOL     OW 2469   4.796   5.815   2.742 -0.1165 -0.4957  0.3834
  676SOL    HW2 2470   4.808   5.724   2.768 -0.2241 -0.6576 -0.1244
  676SOL    HW3 2471   4.873   5.860   2.775 -0.7192 -0.5045  1.8428
  676SOL    MW4 2472   4.808   5.809   2.749 -0.2102 -0.5182  0.5089
  677SOL     OW 2473   3.733   3.778   1.996  0.4270  0.0442  0.8233
  677SOL    HW2 2474   3.763   3.734   2.075 -0.9657 -2.0549  0.2723
  677SOL    HW3 2475   3.640   3.754   1.989  0.2281  1.1335 -0.8146
  677SOL    MW4 2476   3.725   3.769   2.006  0.2170 -0.0890  0.5345
  678SOL     OW 2477   5.229   4.548   1.579  0.3447 -0.1492 -1.2808
  678SOL    HW2 2478   5.137   4.523   1.583  0.7342 -1.6588 -1.3916
  678SOL    HW3 2479   5.227   4.644   1.579 -1.0168  0.1071  3.8072
  678SOL    MW4 2480   5.216   4.557   1.579  0.2165 -0.3146 -0.6241
  679SOL     OW 2481   3.136   0.145   3.367 -0.2905 -0.3632  0.1442
  679SOL    HW2 2482   3.104   0.193   3.290 -1.7921  0.8629  1.4711
  679SOL    HW3 2483   3.210   0.197   3.398 -0.0377 -0.5567 -0.1215
  679SOL    MW4 2484   3.142   0.158   3.361 -0.4552 -0.2270  0.2842
  680SOL     OW 2485   4.642   4.384   6.369  0.4663  0.1965  0.0629
  680SOL    HW2 2486   4.662   4.360   6.459 -0.4624  0.2730  0.2991
  680SOL    HW3 2487   4.661   4.478   6.365 -0.1394  0.3369  0.3743
  680SOL    MW4 2488   4.647   4.393   6.380  0.2638  0.2251  0.1352
  681SOL     OW 2489   4.133   0.332   0.222 -0.2625  0.0146 -0.3396
  681SOL    HW2 2490   4.057   0.391   0.224 -0.3007 -0.0125 -0.8222
  681SOL    HW3 2491   4.095   0.246   0.205 -0.0338  0.1815 -1.8302
  681SOL    MW4 2492   4.118   0.329   0.220 -0.2374  0.0331 -0.6000
  682SOL     OW 2493   2.413   2.590   5.946  0.0691 -0.0770 -0.0836
  682SOL    HW2 2494   2.406   2.685   5.942  0.2160 -0.0218  0.8260
  682SOL    HW3 2495   2.322   2.560   5.945  0.0269  0.0069 -1.2870
  682SOL    MW4 2496   2.400   2.599   5.945  0.0829 -0.0586 -0.1224
  683SOL     OW 2497   6.037   2.656   1.163  0.0547 -0.0300  0.1368
  683SOL    HW2 2498   6.123   2.656   1.120  0.5983  0.6066  1.1618
  683SOL    HW3 2499   6.052   2.704   1.245 -0.7709 -1.7763  1.3722
  683SOL    MW4 2500   6.050   2.663   1.168  0.0175 -0.1764  0.4350
  684SOL     OW 2501   3.410   3.773   2.624  0.2605 -0.5633 -0.1634
  684SOL    HW2 2502   3.470   3.846   2.641 -0.1923  0.0132 -0.9985
  684SOL    HW3 2503   3.461   3.713   2.570  0.1056 -0.0917 -0.8420
  684SOL    MW4 2504   3.425   3.775   2.619  0.1803 -0.4250 -0.3631
  685SOL     OW 2505   0.553   0.470   4.331 -0.1325  0.5462 -0.2900
  685SOL    HW2 2506   0.635   0.513   4.354 -0.2818  0.5436  0.2483
  685SOL    HW3 2507   0.523   0.516   4.252 -0.7537  2.0437  0.7735
  685SOL    MW4 2508   0.560   0.482   4.324 -0.2342  0.7434 -0.0787
  686SOL     OW 2509   0.030   0.964   4.497 -0.2670  0.6647  0.3288
  686SOL    HW2 2510   0.001   0.900   4.433 -1.9618  1.2160  0.4955
  686SOL    HW3 2511   0.010   0.925   4.582  0.0897  0.7870  0.4735
  686SOL    MW4 2512   0.023   0.950   4.500 -0.4436  0.7536  0.3699
  687SOL     OW 2513   0.706   4.391   4.127 -0.0799  0.1706 -0.5948
  687SOL    HW2 2514   0.777   4.335   4.095  0.7249  1.7722 -1.7838
  687SOL    HW3 2515   0.650   4.404   4.050 -1.0882 -0.2008  0.0619
  687SOL    MW4 2516   0.708   4.385   4.113 -0.1068  0.3329 -0.6651
  688SOL     OW 2517   3.336   1.462   0.339  0.3639  0.4539  0.0551
  688SOL    HW2 2518   3.415   1.408   0.345  0.1848  0.0959 -0.7302
  688SOL    HW3 2519   3.363   1.537   0.285  0.5473  1.0566  0.9493
  688SOL    MW4 2520   3.350   1.465   0.333  0.3644  0.4862  0.0694
  689SOL     OW 2521   5.764   6.120   4.539 -0.1443 -0.5166 -0.5554
  689SOL    HW2 2522   5.749   6.173   4.617  2.5590 -0.6125  0.1395
  689SOL    HW3 2523   5.825   6.052   4.569  1.4210 -0.2110 -2.8512
  689SOL    MW4 2524   5.770   6.118   4.554  0.4189 -0.4889 -0.7666
  690SOL     OW 2525   4.506   2.021   3.547 -0.3064  0.6689  0.2260
  690SOL    HW2 2526   4.457   2.101   3.566 -1.2216  0.0090  0.7918
  690SOL    HW3 2527   4.454   1.976   3.480  0.2811  0.6231 -0.2030
  690SOL    MW4 2528   4.492   2.026   3.541 -0.3496  0.5758  0.2440
  691SOL     OW 2529   5.016   5.878   1.675  0.0491 -0.2897 -0.0403
  691SOL    HW2 2530   4.978   5.831   1.749  1.2292 -0.2344  0.6214
  691SOL    HW3 2531   4.992   5.825   1.598  0.1680 -1.2226  0.5487
  691SOL    MW4 2532   5.008   5.865   1.674  0.2205 -0.4055  0.1247
  692SOL     OW 2533   5.348   2.662   2.410  0.1847  0.4278  0.2579
  692SOL    HW2 2534   5.388   2.688   2.493 -0.2629 -1.5219  1.1355
  692SOL    HW3 2535   5.318   2.572   2.424 -1.8517  0.7732 -1.3137
  692SOL    MW4 2536   5.349   2.654   2.423 -0.1430  0.2161  0.1663
  693SOL     OW 2537   3.104   0.546   5.777  0.1735  0.2213  0.0329
  693SOL    HW2 2538   3.150   0.464   5.760 -1.6399 -0.8473 -0.0262
  693SOL    HW3 2539   3.107   0.594   5.694  2.8035  1.1231  0.5401
  693SOL    MW4 2540   3.110   0.542   5.764  0.2812  0.1992  0.0921
  694SOL     OW 2541   1.665   1.394   4.928  0.4614 -0.1119  0.2690
  694SOL    HW2 2542   1.710   1.310   4.923  2.3297  0.8478  0.2754
  694SOL    HW3 2543   1.725   1.457   4.888 -0.4538  1.4019  1.1440
  694SOL    MW4 2544   1.679   1.391   4.922  0.5872  0.2144  0.3853
  695SOL     OW 2545   3.907   4.287   3.449 -0.5896  0.2064 -0.1528
  695SOL    HW2 2546   3.862   4.327   3.524 -0.5862 -1.3331  0.7172
  695SOL    HW3 2547   4.000   4.300   3.466 -0.5902 -0.1077  0.1002
  695SOL    MW4 2548   3.913   4.294   3.461 -0.5892 -0.0381 -0.0046
  696SOL     OW 2549   1.086   4.327   5.318 -0.2666 -0.3051 -0.0761
  696SOL    HW2 2550   1.171   4.367   5.330 -0.2396 -0.1193 -0.8166
  696SOL    HW3 2551   1.054   4.362   5.235 -1.3132  0.0611  0.4648
  696SOL    MW4 2552   1.093   4.337   5.308 -0.4011 -0.2323 -0.1025
  697SOL     OW 2553   2.238   1.935   1.656  0.5563 -0.2956  0.0097
  697SOL    HW2 2554   2.303   1.940   1.586  0.5033 -0.5533 -0.0603
  697SOL    HW3 2555   2.158   1.904   1.613 -0.1702  1.8334 -0.2655
  697SOL    MW4 2556   2.236   1.931   1.641  0.4535 -0.0487 -0.0358
  698SOL     OW 2557   0.188   0.233   3.245 -0.5380 -0.2498  0.1854
  698SOL    HW2 2558   0.213   0.257   3.156 -0.3227 -1.8647 -0.2196
  698SOL    HW3 2559   0.252   0.276   3.301 -0.9682  1.1813 -0.3928
  698SOL    MW4 2560   0.200   0.241   3.241 -0.5663 -0.2741  0.0557
  699SOL     OW 2561   3.910   1.585   4.916 -0.5173 -0.0891 -0.3955
  699SOL    HW2 2562   3.984   1.643   4.897 -0.4460 -0.3206 -0.8249
  699SOL    HW3 2563   3.944   1.523   4.981 -0.5739  0.3048  0.0146
  699SOL    MW4 2564   3.924   1.585   4.922 -0.5153 -0.0677 -0.3981
  700SOL     OW 2565   5.034   5.622   3.201  0.5510  0.0333 -0.2232
  700SOL    HW2 2566   4.949   5.660   3.225 -0.0680 -0.2202 -1.8719
  700SOL    HW3 2567   5.099   5.679   3.241 -0.3525  2.6814 -2.2812
  700SOL    MW4 2568   5.031   5.634   3.210  0.3501  0.3493 -0.7123
  701SOL     OW 2569   2.775   4.846   3.471  0.1534 -0.7690  0.8665
  701SOL    HW2 2570   2.839   4.792   3.519  1.4579 -1.2388 -1.2688
  701SOL    HW3 2571   2.697   4.846   3.527  1.2351 -2.1250  2.4778
  701SOL    MW4 2572   2.773   4.839   3.485  0.4682 -1.0099  0.7974
  702SOL     OW 2573   3.804   5.667   3.181  0.1707 -0.0956 -0.3817
  702SOL    HW2 2574   3.846   5.633   3.260  1.0522  0.5415 -0.5661
  702SOL    HW3 2575   3.793   5.589   3.125  2.2809 -0.1222 -0.8478
  702SOL    MW4 2576   3.808   5.652   3.184  0.5654 -0.0150 -0.4675
  703SOL     OW 2577   5.513   0.449   0.407  0.4007  0.1445 -0.1287
  703SOL    HW2 2578   5.546   0.476   0.492  2.0557  1.7978 -1.2100
  703SOL    HW3 2579   5.512   0.529   0.355 -3.3244 -0.2441 -0.9116
  703SOL    MW4 2580   5.517   0.463   0.411  0.1276  0.3113 -0.3747
  704SOL     OW 2581   0.507   0.851   2.909 -0.0777  0.3337 -0.0910
  704SOL    HW2 2582   0.517   0.764   2.871 -0.7305 -0.1235  0.7521
  704SOL    HW3 2583   0.541   0.911   2.842  0.1224 -0.5470 -0.7876
  704SOL    MW4 2584   0.513   0.848   2.895 -0.1374  0.1572 -0.0717
  705SOL     OW 2585   3.176   1.754   4.617 -0.3539  0.0419 -0.5184
  705SOL    HW2 2586   3.207   1.672   4.654  1.5661  0.9535  0.0058
  705SOL    HW3 2587   3.166   1.735   4.523 -0.2382 -0.8555 -0.3602
  705SOL    MW4 2588   3.179   1.741   4.609 -0.0853  0.0438 -0.4283
  706SOL     OW 2589   6.019   4.316   6.165 -0.0623  0.8433 -0.2856
  706SOL    HW2 2590   6.082   4.344   6.231  1.1098 -1.9248 -0.1168
  706SOL    HW3 2591   5.948   4.275   6.215 -1.2133  2.3522 -0.5881
  706SOL    MW4 2592   6.018   4.314   6.180 -0.0595  0.6771 -0.3032
  707SOL     OW 2593   3.379   2.067   2.902 -0.7401  0.4128 -0.4445
  707SOL    HW2 2594   3.449   2.010   2.869 -1.2200  0.5919 -1.8511
  707SOL    HW3 2595   3.335   2.016   2.970  1.1777  0.5695  0.9955
  707SOL    MW4 2596   3.382   2.053   2.906 -0.5504  0.4571 -0.4401
  708SOL     OW 2597   2.501   3.977   3.209 -0.3069  0.1013  0.0365
  708SOL    HW2 2598   2.444   4.034   3.157  0.5389  1.6871  0.7707
  708SOL    HW3 2599   2.441   3.926   3.263 -1.0876  0.3897 -0.5296
  708SOL    MW4 2600   2.486   3.978   3.209 -0.2983  0.3486  0.0587
  709SOL     OW 2601   3.263   3.386   2.562 -0.1755 -0.5062  0.0189
  709SOL    HW2 2602   3.229   3.322   2.500 -0.2358  0.4748 -1.0047
  709SOL    HW3 2603   3.333   3.340   2.608 -1.4407 -1.8857  0.6642
  709SOL    MW4 2604   3.268   3.372   2.560 -0.3504 -0.5588 -0.0310
  710SOL     OW 2605   6.405   5.071   0.239 -0.5150  0.6820  0.3222
  710SOL    HW2 2606   6.440   5.160   0.239  0.0620  0.4607  0.1486
  710SOL    HW3 2607   6.449   5.027   0.312  1.4492 -0.2972 -1.3361
  710SOL    MW4 2608   6.416   5.077   0.249 -0.1797  0.5236  0.0805
  711SOL     OW 2609   5.814   4.828   0.846  0.1053 -0.1605  0.4544
  711SOL    HW2 2610   5.807   4.918   0.876 -0.4460  0.1018 -0.4358
  711SOL    HW3 2611   5.724   4.801   0.828  0.3889 -0.4372 -0.5704
  711SOL    MW4 2612   5.801   4.836   0.848  0.0700 -0.1624  0.2018
  712SOL     OW 2613   0.357   0.918   3.131 -0.3784 -0.1453 -0.0060
  712SOL    HW2 2614   0.419   0.881   3.069  0.9029 -0.1575  1.2205
  712SOL    HW3 2615   0.328   1.000   3.091  0.3367 -0.2027 -0.6597
  712SOL    MW4 2616   0.361   0.924   3.118 -0.1150 -0.1545  0.0696
  713SOL     OW 2617   1.859   1.307   3.046  0.1404 -0.0497  0.5047
  713SOL    HW2 2618   1.880   1.350   3.129 -2.2726 -0.3278  1.3373
  713SOL    HW3 2619   1.801   1.234   3.071 -0.7097 -0.0892 -1.4241
  713SOL    MW4 2620   1.854   1.303   3.060 -0.2901 -0.0916  0.3601
  714SOL     OW 2621   5.097   3.349   4.243  0.1337  0.2385  0.0688
  714SOL    HW2 2622   5.073   3.277   4.301 -0.1895 -1.8831 -2.4650
  714SOL    HW3 2623   5.025   3.355   4.181  1.4319  0.8391 -1.4507
  714SOL    MW4 2624   5.085   3.340   4.242  0.2623  0.0378 -0.4660
  715SOL     OW 2625   2.660   0.746   4.071  0.4798  0.2644  0.1009
  715SOL    HW2 2626   2.652   0.828   4.119 -0.3238  0.5823 -0.5547
  715SOL    HW3 2627   2.685   0.773   3.983  0.7955 -0.2377  0.0325
  715SOL    MW4 2628   2.663   0.760   4.066  0.4154  0.2401  0.0054
  716SOL     OW 2629   3.657   5.578   5.351 -0.5333  0.1114 -0.6139
  716SOL    HW2 2630   3.579   5.525   5.332 -0.7938  0.4860 -0.6249
  716SOL    HW3 2631   3.728   5.515   5.358 -0.3347 -0.0825 -3.1408
  716SOL    MW4 2632   3.656   5.563   5.349 -0.5415  0.1352 -0.9488
  717SOL     OW 2633   3.404   4.661   4.896  0.5308 -0.3762 -0.3008
  717SOL    HW2 2634   3.459   4.693   4.967 -0.2494  0.8363 -0.2024
  717SOL    HW3 2635   3.331   4.616   4.941 -0.8016  1.7387 -0.1899
  717SOL    MW4 2636   3.401   4.659   4.912  0.2520  0.0628 -0.2732
  718SOL     OW 2637   2.546   1.131   1.574 -0.8127 -0.2352 -0.1324
  718SOL    HW2 2638   2.452   1.146   1.583 -0.8977 -0.8844  0.1039
  718SOL    HW3 2639   2.570   1.179   1.494 -1.3116  0.0559 -0.1113
  718SOL    MW4 2640   2.537   1.139   1.564 -0.8897 -0.2825 -0.0984
  719SOL     OW 2641   3.185   4.851   5.296 -0.0945  0.0733 -0.4928
  719SOL    HW2 2642   3.132   4.871   5.219  0.6091 -0.2496 -1.0755
  719SOL    HW3 2643   3.137   4.781   5.341 -0.1762 -0.2067 -1.0062
  719SOL    MW4 2644   3.172   4.844   5.292 -0.0125 -0.0063 -0.6374
  720SOL     OW 2645   0.230   5.278   0.142  0.1644  0.5480  0.3542
  720SOL    HW2 2646   0.199   5.368   0.152  1.0710  0.8616  0.3968
  720SOL    HW3 2647   0.182   5.245   0.066 -0.5695  0.8851  0.6575
  720SOL    MW4 2648   0.220   5.286   0.134  0.1872  0.6339  0.3998
  721SOL     OW 2649   1.745   5.766   5.087 -0.0093  0.2896 -0.3230
  721SOL    HW2 2650   1.754   5.674   5.112  0.5097  1.1301  2.9426
  721SOL    HW3 2651   1.652   5.778   5.072 -0.4117 -0.3138  1.4498
  721SOL    MW4 2652   1.734   5.755   5.088  0.0061  0.3209  0.3418
  722SOL     OW 2653   0.257   1.007   4.101  0.0049 -0.5949  0.2520
  722SOL    HW2 2654   0.291   1.009   4.191 -1.6162  1.0063  0.9000
  722SOL    HW3 2655   0.186   0.943   4.103 -0.4970 -0.0559  0.3423
  722SOL    MW4 2656   0.252   0.999   4.113 -0.2752 -0.3126  0.3494
  723SOL     OW 2657   0.299   4.301   0.858 -0.2569 -0.2925 -0.2057
  723SOL    HW2 2658   0.248   4.321   0.937 -0.4232 -1.7160  0.0888
  723SOL    HW3 2659   0.354   4.378   0.845  0.7250 -0.4971  2.0942
  723SOL    MW4 2660   0.300   4.314   0.867 -0.1493 -0.5073  0.1366
  724SOL     OW 2661   5.711   4.941   3.266 -0.2834 -0.5732 -0.2410
  724SOL    HW2 2662   5.740   5.026   3.299  0.5792 -0.5219 -1.1020
  724SOL    HW3 2663   5.713   4.884   3.343  1.6823 -0.4572 -0.1497
  724SOL    MW4 2664   5.715   4.945   3.281  0.0898 -0.5511 -0.3425
  725SOL     OW 2665   5.819   1.083   4.669  0.2541  0.1088 -0.0790
  725SOL    HW2 2666   5.901   1.046   4.635 -0.5981  0.4571 -2.7669
  725SOL    HW3 2667   5.763   1.008   4.684  0.6013 -0.0450  0.4748
  725SOL    MW4 2668   5.822   1.068   4.666  0.1875  0.1345 -0.3605
  726SOL     OW 2669   3.804   1.260   0.088 -0.4123  0.6689 -0.3239
  726SOL    HW2 2670   3.824   1.351   0.110 -0.6215  0.6548 -0.0562
  726SOL    HW3 2671   3.888   1.221   0.064  0.0588  0.3551  1.6764
  726SOL    MW4 2672   3.817   1.267   0.088 -0.3777  0.6256 -0.0247
  727SOL     OW 2673   0.247   5.907   1.986 -0.1293  0.0097 -0.3059
  727SOL    HW2 2674   0.241   5.864   1.901  0.0096  2.0682 -1.4200
  727SOL    HW3 2675   0.298   5.986   1.969 -0.5841  0.7529  1.5881
  727SOL    MW4 2676   0.253   5.912   1.972 -0.1710  0.3793 -0.2030
  728SOL     OW 2677   0.035   1.591   2.495  0.1433 -0.2767 -0.3116
  728SOL    HW2 2678   0.125   1.622   2.508 -0.0067 -0.5269  1.7817
  728SOL    HW3 2679   0.045   1.505   2.456  0.8387 -0.3365 -0.0362
  728SOL    MW4 2680   0.048   1.584   2.492  0.2152 -0.3176  0.0009
  729SOL     OW 2681   3.580   4.258   4.950 -0.0666  0.0574 -0.2009
  729SOL    HW2 2682   3.560   4.164   4.951 -1.3904  0.3170  1.1780
  729SOL    HW3 2683   3.516   4.296   4.889 -0.1051  0.1691 -0.0918
  729SOL    MW4 2684   3.569   4.251   4.942 -0.2463  0.1064 -0.0046
  730SOL     OW 2685   2.077   3.841   2.320 -0.3106  0.5817 -0.1234
  730SOL    HW2 2686   2.017   3.829   2.393 -1.3082  1.4049 -0.7772
  730SOL    HW3 2687   2.146   3.898   2.354  0.4659 -0.8431  0.8089
  730SOL    MW4 2688   2.078   3.847   2.334 -0.3398  0.5023 -0.0867
  731SOL     OW 2689   3.348   2.975   0.271  0.1089 -0.4149  0.9400
  731SOL    HW2 2690   3.301   3.058   0.260 -2.1799 -1.6488  0.6709
  731SOL    HW3 2691   3.408   2.991   0.344 -1.4716  1.0203  2.0032
  731SOL    MW4 2692   3.350   2.988   0.279 -0.4016 -0.3884  1.0448
  732SOL     OW 2693   4.790   3.643   6.419 -0.3917  0.6290  0.1993
  732SOL    HW2 2694   4.779   3.686   6.504 -1.4992  1.7273 -0.4544
  732SOL    HW3 2695   4.844   3.703   6.368 -0.9767  0.7004 -0.3485
  732SOL    MW4 2696   4.795   3.657   6.423 -0.6150  0.7833  0.0408
  733SOL     OW 2697   1.070   3.697   1.820 -0.3336 -0.1902  0.5410
  733SOL    HW2 2698   1.028   3.651   1.892  0.1698 -1.6389 -0.0404
  733SOL    HW3 2699   1.164   3.682   1.834 -0.2301 -0.4599 -0.3710
  733SOL    MW4 2700   1.077   3.689   1.831 -0.2535 -0.4169  0.3439
  734SOL     OW 2701   0.187   2.619   5.518  0.3223 -0.7247 -0.6779
  734SOL    HW2 2702   0.148   2.535   5.542  1.1522 -1.1728 -0.8488
  734SOL    HW3 2703   0.148   2.640   5.433 -0.5547 -0.4855 -0.2314
  734SOL    MW4 2704   0.176   2.611   5.510  0.3161 -0.7523 -0.6415
  735SOL     OW 2705   2.917   5.486   0.638 -0.3884 -0.6400 -0.6699
  735SOL    HW2 2706   2.870   5.480   0.554 -0.2198 -0.5773 -0.7696
  735SOL    HW3 2707   2.895   5.573   0.671 -2.0413 -1.3702  0.3035
  735SOL    MW4 2708   2.908   5.497   0.631 -0.5843 -0.7281 -0.5547
  736SOL     OW 2709   1.008   1.602   0.319 -0.2726  1.1779  0.2632
  736SOL    HW2 2710   0.933   1.609   0.260  0.4096  2.7235 -0.4826
  736SOL    HW3 2711   1.085   1.614   0.262  0.4596  1.2771  1.2451
  736SOL    MW4 2712   1.008   1.605   0.304 -0.0860  1.3949  0.2943
  737SOL     OW 2713   2.967   1.557   1.453  0.5183 -0.0115  0.1627
  737SOL    HW2 2714   2.926   1.472   1.469  0.8748 -0.2018  0.0597
  737SOL    HW3 2715   2.927   1.615   1.518 -0.3544 -0.0572 -0.3167
  737SOL    MW4 2716   2.956   1.554   1.464  0.4502 -0.0427  0.0859
  738SOL     OW 2717   3.359   4.282   3.768  0.1832  0.3132 -0.2533
  738SOL    HW2 2718   3.290   4.305   3.831  0.8658  1.4644  0.1003
  738SOL    HW3 2719   3.321   4.301   3.682  0.0261  0.8538 -0.0668
  738SOL    MW4 2720   3.345   4.288   3.765  0.2525  0.5365 -0.1820
  739SOL     OW 2721   5.682   4.106   0.800  0.7167  0.4597 -0.5498
  739SOL    HW2 2722   5.654   4.058   0.723 -1.3350  1.0677 -0.2496
  739SOL    HW3 2723   5.602   4.116   0.852  1.9472  0.4463  1.4542
  739SOL    MW4 2724   5.667   4.101   0.797  0.6084  0.5382 -0.2458
  740SOL     OW 2725   5.388   3.917   4.504 -0.1252  0.4566 -0.1352
  740SOL    HW2 2726   5.309   3.928   4.452  0.3529  4.1947 -0.3302
  740SOL    HW3 2727   5.445   3.989   4.477  1.3124  0.8957  3.5327
  740SOL    MW4 2728   5.385   3.928   4.493  0.1276  1.0077  0.3230
  741SOL     OW 2729   3.273   0.947   1.351  0.2581 -0.0990 -0.1590
  741SOL    HW2 2730   3.197   1.000   1.374 -0.2517 -0.7127 -0.3937
  741SOL    HW3 2731   3.257   0.863   1.393  1.6301  0.2789  1.1889
  741SOL    MW4 2732   3.261   0.943   1.359  0.3718 -0.1301 -0.0122
  742SOL     OW 2733   2.232   1.573   3.144  0.0065  0.1444  0.0199
  742SOL    HW2 2734   2.197   1.648   3.096  1.5072  1.3191  0.6980
  742SOL    HW3 2735   2.215   1.498   3.087 -1.8684  0.9204 -0.4988
  742SOL    MW4 2736   2.225   1.573   3.130 -0.0429  0.4017  0.0409
  743SOL     OW 2737   2.875   3.825   5.958 -0.8287 -0.1840 -0.0887
  743SOL    HW2 2738   2.784   3.845   5.935 -0.8999  0.7803  0.9281
  743SOL    HW3 2739   2.875   3.825   6.054  0.5379  1.4203 -0.0459
  743SOL    MW4 2740   2.863   3.828   5.968 -0.6578  0.1549  0.0511
  744SOL     OW 2741   3.053   1.969   2.897  0.0726  0.5361  0.8388
  744SOL    HW2 2742   3.086   1.881   2.878 -0.1582  0.1239  2.2379
  744SOL    HW3 2743   3.093   2.024   2.830  0.2125 -0.6264 -0.0748
  744SOL    MW4 2744   3.062   1.965   2.886  0.0606  0.3283  0.9029
  745SOL     OW 2745   0.298   2.828   0.265 -0.4274 -0.3452 -0.3234
  745SOL    HW2 2746   0.299   2.813   0.359  0.6888 -0.8253 -0.3950
  745SOL    HW3 2747   0.254   2.751   0.229  2.4129 -2.0782 -0.4343
  745SOL    MW4 2748   0.292   2.815   0.273  0.0946 -0.6372 -0.3475
  746SOL     OW 2749   5.904   6.225   1.643  0.1989  0.3933 -0.2276
  746SOL    HW2 2750   5.907   6.233   1.547 -1.7160  0.0581 -0.3500
  746SOL    HW3 2751   5.818   6.187   1.661  0.2717  1.0508  1.6864
  746SOL    MW4 2752   5.893   6.221   1.633 -0.0442  0.4359  0.0088
  747SOL     OW 2753   3.653   2.432   4.967 -0.1615  0.3952  0.7439
  747SOL    HW2 2754   3.663   2.368   4.897 -0.9399 -1.3218  2.1417
  747SOL    HW3 2755   3.689   2.513   4.930  2.6239 -1.2452 -0.4632
  747SOL    MW4 2756   3.659   2.434   4.953  0.1033 -0.0478  0.7691
  748SOL     OW 2757   5.122   4.803   3.551 -0.3480 -0.1701  0.0916
  748SOL    HW2 2758   5.128   4.897   3.531 -0.1689 -0.3112 -0.5481
  748SOL    HW3 2759   5.080   4.765   3.474 -0.9982 -0.5306  0.6172
  748SOL    MW4 2760   5.117   4.811   3.538 -0.4101 -0.2363  0.0765
  749SOL     OW 2761   5.971   4.513   2.780  0.2026 -1.2088 -0.2382
  749SOL    HW2 2762   6.019   4.447   2.730 -0.7456 -1.7566 -0.4612
  749SOL    HW3 2763   5.938   4.465   2.856 -0.1833 -0.8969 -0.2090
  749SOL    MW4 2764   5.973   4.498   2.783  0.0266 -1.2399 -0.2638
  750SOL     OW 2765   5.661   0.992   3.398 -0.4107 -0.0355  0.5294
  750SOL    HW2 2766   5.615   0.954   3.473  0.1813  1.9587  2.0073
  750SOL    HW3 2767   5.632   1.084   3.397  1.3328  0.5521 -0.2643
  750SOL    MW4 2768   5.651   0.999   3.407 -0.1026  0.3051  0.6196
  751SOL     OW 2769   1.307   4.077   0.852 -0.1765 -0.2410 -0.0912
  751SOL    HW2 2770   1.305   4.118   0.939 -0.1128  0.0195 -0.2120
  751SOL    HW3 2771   1.302   4.150   0.791  0.0654 -0.4044 -0.3084
  751SOL    MW4 2772   1.306   4.092   0.856 -0.1362 -0.2282 -0.1358
  752SOL     OW 2773   3.773   2.404   1.693  0.0977  0.1119 -0.0548
  752SOL    HW2 2774   3.757   2.314   1.664  0.6908 -0.4282  1.2416
  752SOL    HW3 2775   3.704   2.455   1.651  0.6528 -0.6907 -2.0355
  752SOL    MW4 2776   3.762   2.399   1.684  0.2492 -0.0653 -0.1451
  753SOL     OW 2777   0.574   1.060   2.724  0.1910 -0.7986  0.6910
  753SOL    HW2 2778   0.557   1.096   2.637 -0.2166 -0.9751  0.6983
  753SOL    HW3 2779   0.613   1.133   2.772 -0.8013 -0.2996  0.7571
  753SOL    MW4 2780   0.577   1.075   2.719  0.0063 -0.7561  0.7007
  754SOL     OW 2781   1.896   3.487   1.067  0.3539 -0.0266 -0.3922
  754SOL    HW2 2782   1.802   3.477   1.080  0.1375  2.3275  0.4637
  754SOL    HW3 2783   1.926   3.530   1.148  2.1815 -0.8277 -0.6103
  754SOL    MW4 2784   1.887   3.492   1.080  0.5665  0.1783 -0.3080
  755SOL     OW 2785   4.082   1.369   5.806  0.0601  0.5388  0.5064
  755SOL    HW2 2786   4.024   1.405   5.740 -1.5678 -2.0898  0.3498
  755SOL    HW3 2787   4.129   1.299   5.761 -1.5969 -1.7941  2.1520
  755SOL    MW4 2788   4.081   1.364   5.791 -0.3733 -0.1158  0.7028
  756SOL     OW 2789   2.353   1.282   1.242 -0.4463 -0.2086  0.0799
  756SOL    HW2 2790   2.259   1.292   1.225 -0.2324 -0.2796 -1.2365
  756SOL    HW3 2791   2.395   1.314   1.162  0.6242 -1.1415  0.2460
  756SOL    MW4 2792   2.346   1.288   1.229 -0.2769 -0.3411 -0.0719
  757SOL     OW 2793   2.038   2.760   2.908  0.6396 -0.2995 -1.0312
  757SOL    HW2 2794   1.965   2.725   2.959  0.7190  0.8810 -0.0625
  757SOL    HW3 2795   1.997   2.815   2.842  0.6264  1.1890  0.1463
  757SOL    MW4 2796   2.023   2.762   2.906  0.6483  0.0527 -0.7480
  758SOL     OW 2797   2.672   5.350   1.542 -0.6272 -0.5566  0.3820
  758SOL    HW2 2798   2.617   5.424   1.567  1.9191  1.7974 -0.4581
  758SOL    HW3 2799   2.727   5.334   1.618  0.9572  0.5682 -0.4787
  758SOL    MW4 2800   2.672   5.357   1.555 -0.0822 -0.0976  0.1576
  759SOL     OW 2801   3.354   4.658   3.675  0.2978 -0.4300 -0.6702
  759SOL    HW2 2802   3.286   4.650   3.608 -0.5544 -1.8484  0.2970
  759SOL    HW3 2803   3.306   4.672   3.756  1.2787  0.5559 -0.2455
  759SOL    MW4 2804   3.339   4.659   3.677  0.3148 -0.4871 -0.4865
  760SOL     OW 2805   3.756   0.111   2.853  0.3942 -0.0932  0.2099
  760SOL    HW2 2806   3.747   0.193   2.901  1.0441  0.7340 -1.0035
  760SOL    HW3 2807   3.851   0.103   2.838  0.3835 -1.3210  0.7343
  760SOL    MW4 2808   3.768   0.121   2.857  0.4785 -0.1461  0.1190
  761SOL     OW 2809   0.981   5.620   2.777 -0.3470  0.2749 -0.0519
  761SOL    HW2 2810   1.023   5.698   2.814  0.6954  0.1680 -0.9623
  761SOL    HW3 2811   1.050   5.554   2.776 -0.1845  0.3803 -2.5013
  761SOL    MW4 2812   0.996   5.622   2.782 -0.1880  0.2747 -0.4952
  762SOL     OW 2813   4.687   2.672   6.363 -0.0324  1.2044  0.2376
  762SOL    HW2 2814   4.773   2.693   6.399 -0.5027  1.9124  1.0028
  762SOL    HW3 2815   4.679   2.727   6.285  1.2833 -0.8572 -1.4548
  762SOL    MW4 2816   4.697   2.682   6.358  0.0792  1.0258  0.1153
  763SOL     OW 2817   2.424   2.212   1.787  0.0662 -0.0841  0.3858
  763SOL    HW2 2818   2.467   2.297   1.783  1.0053 -0.5240  0.9318
  763SOL    HW3 2819   2.413   2.187   1.695 -0.8967  0.9441  0.1959
  763SOL    MW4 2820   2.428   2.220   1.774  0.0630 -0.0065  0.4328
  764SOL     OW 2821   0.698   5.526   5.611 -0.0367 -0.1406 -0.5814
  764SOL    HW2 2822   0.664   5.601   5.563 -0.9093  0.1907  0.5035
  764SOL    HW3 2823   0.768   5.563   5.665 -0.1106 -0.2014 -0.4434
  764SOL    MW4 2824   0.703   5.541   5.612 -0.1616 -0.1049 -0.4201
  765SOL     OW 2825   0.409   5.227   1.909  0.1637 -0.1179 -0.3028
  765SOL    HW2 2826   0.378   5.312   1.878 -0.2949 -0.1195  0.1386
  765SOL    HW3 2827   0.350   5.164   1.868  0.3772 -0.2106 -0.4683
  765SOL    MW4 2828   0.397   5.230   1.899  0.1314 -0.1303 -0.2664
  766SOL     OW 2829   4.596   0.616   3.235  0.5655  0.4158  0.3599
  766SOL    HW2 2830   4.589   0.523   3.254 -0.7959  0.8319  2.1661
  766SOL    HW3 2831   4.536   0.630   3.161  1.4142 -0.2360 -0.4819
  766SOL    MW4 2832   4.587   0.606   3.227  0.4979  0.3847  0.4871
  767SOL     OW 2833   1.868   4.674   2.949 -0.0318  0.0919  0.0706
  767SOL    HW2 2834   1.931   4.717   3.008  0.7773  1.2855 -1.5956
  767SOL    HW3 2835   1.802   4.638   3.008  1.7388 -0.4622  1.8412
  767SOL    MW4 2836   1.867   4.675   2.965  0.3086  0.1763  0.0844
  768SOL     OW 2837   4.037   2.448   0.548  0.8114 -0.1433  0.2597
  768SOL    HW2 2838   4.023   2.487   0.635 -2.0397  0.3502 -0.3140
  768SOL    HW3 2839   4.041   2.523   0.489  0.2036 -0.5490 -0.3087
  768SOL    MW4 2840   4.035   2.463   0.552  0.3551 -0.1317  0.1090
  769SOL     OW 2841   1.624   5.485   4.181  0.0785 -0.2137  0.0597
  769SOL    HW2 2842   1.682   5.503   4.254 -0.4641 -1.3328  0.7906
  769SOL    HW3 2843   1.667   5.525   4.105  0.4096  1.3798  1.0494
  769SOL    MW4 2844   1.637   5.493   4.180  0.0506 -0.1511  0.2867
  770SOL     OW 2845   5.028   3.868   3.596  0.1788 -0.0012 -0.1529
  770SOL    HW2 2846   5.006   3.956   3.624 -2.7123 -0.8312  0.4784
  770SOL    HW3 2847   5.046   3.877   3.502 -0.9062  1.1429 -0.2751
  770SOL    MW4 2848   5.028   3.881   3.587 -0.3458  0.0402 -0.0857
  771SOL     OW 2849   4.175   1.598   3.004 -0.8451 -0.0360  0.4449
  771SOL    HW2 2850   4.081   1.608   3.019 -0.4323  0.9315  2.7503
  771SOL    HW3 2851   4.194   1.661   2.934 -1.8107  0.2281  0.3955
  771SOL    MW4 2852   4.165   1.608   2.997 -0.9180  0.1265  0.7426
  772SOL     OW 2853   0.368   6.226   2.729  0.4318  0.3213  0.1659
  772SOL    HW2 2854   0.312   6.196   2.801 -1.0124 -0.1887 -1.1071
  772SOL    HW3 2855   0.444   6.168   2.732 -0.4211 -0.8403  0.2471
  772SOL    MW4 2856   0.371   6.214   2.739  0.1287  0.1007  0.0087
  773SOL     OW 2857   6.038   3.615   1.317 -0.1845  0.2054  0.3636
  773SOL    HW2 2858   6.010   3.548   1.379 -0.1430 -1.8154 -1.6523
  773SOL    HW3 2859   5.993   3.593   1.236 -0.2144  2.7171 -0.3886
  773SOL    MW4 2860   6.029   3.603   1.314 -0.1830  0.2701 -0.0016
  774SOL     OW 2861   3.469   3.523   0.693  0.3336 -0.2394  0.2669
  774SOL    HW2 2862   3.468   3.480   0.607  0.9880  0.6840 -0.2172
  774SOL    HW3 2863   3.407   3.472   0.745  0.6385 -1.4030 -0.4604
  774SOL    MW4 2864   3.461   3.510   0.688  0.4602 -0.2711  0.1071
  775SOL     OW 2865   1.078   2.662   1.219  0.4029  0.1819 -0.6517
  775SOL    HW2 2866   0.983   2.673   1.227 -0.0666 -1.9753 -2.1628
  775SOL    HW3 2867   1.106   2.735   1.164 -0.3515  0.9060 -0.1043
  775SOL    MW4 2868   1.069   2.673   1.213  0.2415 -0.0072 -0.7789
  776SOL     OW 2869   2.156   0.028   3.732 -0.5783 -0.5804 -0.1319
  776SOL    HW2 2870   2.166  -0.027   3.654  2.2644  1.2006 -1.1801
  776SOL    HW3 2871   2.196  -0.024   3.802  2.2706  0.0513 -1.1470
  776SOL    MW4 2872   2.162   0.014   3.731  0.1727 -0.2621 -0.4041
  777SOL     OW 2873   5.376   1.086   4.454  0.0028  0.2712  0.5229
  777SOL    HW2 2874   5.464   1.116   4.477 -0.5299  0.9063  1.8409
  777SOL    HW3 2875   5.384   0.991   4.446  0.6231  0.2124  1.6016
  777SOL    MW4 2876   5.388   1.077   4.456  0.0144  0.3473  0.8391
  778SOL     OW 2877   4.346   1.904   2.240  0.0313  0.2046 -0.7156
  778SOL    HW2 2878   4.294   1.983   2.246 -1.8639 -1.0472  0.2699
  778SOL    HW3 2879   4.350   1.885   2.146 -0.5231  0.8043 -0.8642
  778SOL    MW4 2880   4.340   1.912   2.228 -0.2919  0.1186 -0.6052
  779SOL     OW 2881   6.308   4.037   0.590 -0.1446  0.0208  0.2957
  779SOL    HW2 2882   6.372   4.101   0.558  1.2203 -1.2729  0.3394
  779SOL    HW3 2883   6.323   4.035   0.685  0.0829 -0.6510  0.2438
  779SOL    MW4 2884   6.318   4.045   0.599  0.0655 -0.2385  0.2946
  780SOL     OW 2885   4.155   4.330   6.321  0.1868 -0.0170  0.2396
  780SOL    HW2 2886   4.084   4.332   6.257 -1.3298  0.2931  1.8624
  780SOL    HW3 2887   4.225   4.380   6.280 -1.0591  0.9399 -0.8281
  780SOL    MW4 2888   4.155   4.337   6.307 -0.1777  0.1502  0.3128
  781SOL     OW 2889   4.078   0.210   5.797 -0.0395 -0.4874 -0.1253
  781SOL    HW2 2890   4.030   0.134   5.764  2.5025 -2.5173  0.4977
  781SOL    HW3 2891   4.166   0.202   5.759  1.6530 -0.4206  3.3263
  781SOL    MW4 2892   4.084   0.199   5.788  0.5192 -0.7464  0.4123
  782SOL     OW 2893   4.404   2.550   2.833  0.0800 -0.1670 -0.2644
  782SOL    HW2 2894   4.451   2.551   2.917  1.0307 -2.7918 -0.6695
  782SOL    HW3 2895   4.312   2.542   2.858  0.2340  0.4533  0.5379
  782SOL    MW4 2896   4.398   2.549   2.848  0.2257 -0.4315 -0.2120
  783SOL     OW 2897   4.910   6.113   4.045 -0.0210  0.5272  0.0590
  783SOL    HW2 2898   4.924   6.034   3.992 -1.5804  0.9116 -0.9957
  783SOL    HW3 2899   4.856   6.084   4.118  1.1270  0.2434  0.8336
  783SOL    MW4 2900   4.905   6.099   4.047 -0.0753  0.5405  0.0220
  784SOL     OW 2901   3.790   2.655   1.100 -0.0371 -0.4535 -0.0134
  784SOL    HW2 2902   3.864   2.713   1.121  0.2304 -0.6560 -0.3855
  784SOL    HW3 2903   3.759   2.624   1.185  0.2352 -0.2767  0.1519
  784SOL    MW4 2904   3.796   2.659   1.114  0.0341 -0.4569 -0.0407
  785SOL     OW 2905   3.148   4.122   0.225  0.0870  0.0361  0.0660
  785SOL    HW2 2906   3.204   4.102   0.300  0.3497  0.5719  0.0149
  785SOL    HW3 2907   3.202   4.176   0.168 -0.5466  0.7535  0.1262
  785SOL    MW4 2908   3.162   4.127   0.227  0.0381  0.2014  0.0672
  786SOL     OW 2909   2.141   1.583   3.743  0.3108  0.4536 -0.3907
  786SOL    HW2 2910   2.171   1.541   3.663 -1.0301  0.5236 -0.9614
  786SOL    HW3 2911   2.173   1.527   3.813 -1.1953 -1.4198 -1.1147
  786SOL    MW4 2912   2.149   1.570   3.742 -0.0648  0.2157 -0.5615
  787SOL     OW 2913   5.062   3.195   1.599 -0.4156  0.0337 -0.7109
  787SOL    HW2 2914   5.146   3.149   1.604  1.1015  2.7311  1.4635
  787SOL    HW3 2915   4.998   3.130   1.627  1.3197 -1.3911  0.1806
  787SOL    MW4 2916   5.065   3.180   1.604  0.0135  0.2016 -0.3064
  788SOL     OW 2917   0.353   0.794   0.894 -0.3038  0.0737 -0.0655
  788SOL    HW2 2918   0.281   0.736   0.869 -1.1211  1.5583 -1.3168
  788SOL    HW3 2919   0.314   0.881   0.895  1.0630  0.7053  1.0555
  788SOL    MW4 2920   0.338   0.798   0.891 -0.2313  0.3529 -0.0827
  789SOL     OW 2921   3.233   2.437   0.608  0.4060 -0.4211  0.2448
  789SOL    HW2 2922   3.242   2.356   0.557 -1.9218 -0.9079  0.5327
  789SOL    HW3 2923   3.308   2.435   0.668  1.8141 -1.0716 -1.4417
  789SOL    MW4 2924   3.244   2.426   0.609  0.2846 -0.5711  0.0603
  790SOL     OW 2925   4.723   1.539   3.484 -0.2613  0.0001 -0.1461
  790SOL    HW2 2926   4.751   1.569   3.397 -1.0111 -1.0405 -0.7748
  790SOL    HW3 2927   4.763   1.453   3.493 -0.2142  0.0888  0.5406
  790SOL    MW4 2928   4.732   1.532   3.473 -0.3540 -0.1255 -0.1384
  791SOL     OW 2929   2.316   3.602   6.131  0.6352 -0.3665 -0.3732
  791SOL    HW2 2930   2.258   3.667   6.091  0.6152  0.2851  0.6977
  791SOL    HW3 2931   2.355   3.647   6.205  3.3534 -0.4347 -1.6506
  791SOL    MW4 2932   2.313   3.616   6.135  0.9912 -0.2895 -0.4004
  792SOL     OW 2933   2.277   6.331   3.935  0.0778 -0.2144 -0.3019
  792SOL    HW2 2934   2.362   6.372   3.920 -0.9693  1.4197 -2.1997
  792SOL    HW3 2935   2.235   6.385   4.002  0.1631 -0.5017 -0.0101
  792SOL    MW4 2936   2.283   6.343   3.942 -0.0491 -0.0367 -0.5138
  793SOL     OW 2937   1.415   3.932   0.629 -0.1428  0.0623 -0.1298
  793SOL    HW2 2938   1.389   3.983   0.706  0.6796  0.8036 -0.3233
  793SOL    HW3 2939   1.455   3.996   0.570 -0.5006 -0.5435 -1.0571
  793SOL    MW4 2940   1.417   3.947   0.632 -0.0815  0.0802 -0.2777
  794SOL     OW 2941   1.038   3.567   0.622 -0.2706 -0.2440  0.1858
  794SOL    HW2 2942   1.071   3.657   0.621 -0.0296 -0.2690 -2.6107
  794SOL    HW3 2943   0.948   3.573   0.590 -0.8831 -0.8561  1.6970
  794SOL    MW4 2944   1.031   3.580   0.618 -0.3196 -0.3280  0.0162
  795SOL     OW 2945   3.966   6.412   4.157  0.1926  0.8155 -0.3156
  795SOL    HW2 2946   4.041   6.403   4.215 -0.7751 -1.9010  0.6765
  795SOL    HW3 2947   3.890   6.409   4.215 -0.7525  1.4617 -1.4633
  795SOL    MW4 2948   3.966   6.411   4.172 -0.0597  0.5424 -0.3362
  796SOL     OW 2949   4.262   5.761   1.250 -0.4871  0.1302 -0.5027
  796SOL    HW2 2950   4.251   5.752   1.345  2.0744 -1.2669 -0.2335
  796SOL    HW3 2951   4.300   5.848   1.239 -0.6769  0.2483 -0.2362
  796SOL    MW4 2952   4.266   5.772   1.261 -0.1742 -0.0385 -0.4320
  797SOL     OW 2953   2.612   1.073   1.061  0.0954  0.5718  0.3062
  797SOL    HW2 2954   2.575   1.116   0.984  0.5644  3.3215  1.4852
  797SOL    HW3 2955   2.561   0.993   1.071 -1.1207  0.9924 -1.8295
  797SOL    MW4 2956   2.601   1.068   1.052 -0.0032  0.9901  0.1799
  798SOL     OW 2957   2.687   5.104   5.036  1.3706  0.0254  0.2358
  798SOL    HW2 2958   2.631   5.176   5.009  0.2757 -0.6700  0.5889
  798SOL    HW3 2959   2.773   5.144   5.052  1.3017  0.9103 -1.4509
  798SOL    MW4 2960   2.691   5.118   5.035  1.2170  0.0504  0.0599
  799SOL     OW 2961   1.643   1.075   5.967 -0.1881 -0.5654  0.3184
  799SOL    HW2 2962   1.602   1.012   5.908 -1.7985  1.1937 -0.5708
  799SOL    HW3 2963   1.613   1.051   6.054 -1.5056 -0.5476 -0.1054
  799SOL    MW4 2964   1.634   1.064   5.971 -0.5744 -0.3310  0.1452
  800SOL     OW 2965   5.688   4.160   0.509 -0.2286  0.0525  0.3875
  800SOL    HW2 2966   5.607   4.149   0.459 -0.1290  0.5558  0.1106
  800SOL    HW3 2967   5.749   4.203   0.448  0.9161 -2.0680 -0.0713
  800SOL    MW4 2968   5.685   4.164   0.494 -0.0645 -0.1609  0.2905
  801SOL     OW 2969   1.694   3.206   3.270  0.0715  0.2649  0.2605
  801SOL    HW2 2970   1.659   3.256   3.196  0.7268  0.7834  0.2929
  801SOL    HW3 2971   1.617   3.166   3.311 -0.6634  2.4330  1.1308
  801SOL    MW4 2972   1.679   3.207   3.266  0.0610  0.6194  0.3796
  802SOL     OW 2973   1.283   5.051   0.737  0.1145  0.4203  0.4268
  802SOL    HW2 2974   1.188   5.054   0.720  0.1209  0.6308  0.4239
  802SOL    HW3 2975   1.322   5.059   0.650  0.1710  3.0016  0.6144
  802SOL    MW4 2976   1.276   5.053   0.723  0.1228  0.7887  0.4512
  803SOL     OW 2977   1.188   0.742   0.577 -0.4880  0.3422 -0.0792
  803SOL    HW2 2978   1.251   0.710   0.512  2.2379  1.2962  1.9424
  803SOL    HW3 2979   1.147   0.662   0.611  0.4816 -0.4069 -0.6225
  803SOL    MW4 2980   1.191   0.727   0.573 -0.0005  0.3692  0.1158
  804SOL     OW 2981   0.723   2.067   1.964  0.4360 -0.5849  0.2809
  804SOL    HW2 2982   0.631   2.090   1.977  0.5228  1.4230 -2.0166
  804SOL    HW3 2983   0.729   2.037   1.873  2.2325  0.7260 -0.1140
  804SOL    MW4 2984   0.712   2.066   1.954  0.6845 -0.1470 -0.0743
  805SOL     OW 2985   5.762   3.303   1.702  0.0061 -0.1421  0.2979
  805SOL    HW2 2986   5.748   3.370   1.636  0.6922  0.2332  0.5255
  805SOL    HW3 2987   5.692   3.317   1.766 -0.5982 -0.4421 -0.2846
  805SOL    MW4 2988   5.751   3.314   1.702  0.0169 -0.1322  0.2511
  806SOL     OW 2989   5.751   6.406   6.013  0.3502 -0.3354  0.2587
  806SOL    HW2 2990   5.677   6.463   6.037 -0.6475 -1.2297 -0.5603
  806SOL    HW3 2991   5.812   6.464   5.967 -0.9353 -0.0016 -1.1178
  806SOL    MW4 2992   5.749   6.421   6.010  0.0489 -0.4094 -0.0309
  807SOL     OW 2993   3.092   4.866   5.822 -0.0976  0.0080  0.2632
  807SOL    HW2 2994   3.119   4.802   5.889 -0.3115  0.6459  0.9680
  807SOL    HW3 2995   3.116   4.824   5.739 -0.0057 -0.8834  0.7203
  807SOL    MW4 2996   3.099   4.852   5.820 -0.1137 -0.0255  0.4165
  808SOL     OW 2997   2.877   1.925   4.628 -0.2880  0.0749  0.4222
  808SOL    HW2 2998   2.832   2.003   4.661 -0.8847 -0.9472  2.1270
  808SOL    HW3 2999   2.821   1.894   4.557 -1.9384 -0.7022  1.9740
  808SOL    MW4 3000   2.863   1.931   4.623 -0.5845 -0.1624  0.8519
  809SOL     OW 3001   3.690   0.125   5.368  0.1861 -0.2882 -0.2793
  809SOL    HW2 3002   3.682   0.064   5.441  0.1043 -1.4075 -1.2008
  809SOL    HW3 3003   3.784   0.132   5.351  0.1310 -1.3775 -1.1475
  809SOL    MW4 3004   3.701   0.118   5.375  0.1680 -0.5796 -0.5154
  810SOL     OW 3005   2.045   0.893   2.515 -0.0436 -0.0813  0.0774
  810SOL    HW2 3006   2.108   0.892   2.443 -0.6326 -0.7325 -0.4421
  810SOL    HW3 3007   2.093   0.855   2.589  0.8499  1.3999  0.2965
  810SOL    MW4 3008   2.060   0.888   2.515 -0.0034  0.0282  0.0378
  811SOL     OW 3009   5.940   2.395   5.864  0.1154 -0.1264  0.0558
  811SOL    HW2 3010   5.851   2.361   5.856 -0.4450  0.8175  1.7300
  811SOL    HW3 3011   5.996   2.319   5.856 -0.5833 -0.4228 -4.0548
  811SOL    MW4 3012   5.935   2.381   5.862 -0.0508 -0.0410 -0.2656
  812SOL     OW 3013   4.728   0.180   2.513 -0.1621  0.2652 -0.0522
  812SOL    HW2 3014   4.817   0.191   2.479  0.3413 -1.3109  0.6201
  812SOL    HW3 3015   4.674   0.167   2.435  0.3957  0.1262 -0.4237
  812SOL    MW4 3016   4.733   0.180   2.498 -0.0221  0.0389 -0.0125
  813SOL     OW 3017   4.005   5.809   3.771  0.0224 -0.2367  0.3358
  813SOL    HW2 3018   3.911   5.813   3.789  0.1337 -0.1354  0.9165
  813SOL    HW3 3019   4.015   5.736   3.710 -0.5537  0.3985 -0.5424
  813SOL    MW4 3020   3.994   5.800   3.766 -0.0390 -0.1395  0.2966
  814SOL     OW 3021   4.820   3.086   1.233 -0.0364 -0.0418  0.3863
  814SOL    HW2 3022   4.883   3.030   1.280  0.7298  0.5133  0.0351
  814SOL    HW3 3023   4.735   3.044   1.248  0.7342 -2.5602 -1.6259
  814SOL    MW4 3024   4.817   3.073   1.242  0.1663 -0.3008  0.0744
  815SOL     OW 3025   3.150   1.398   5.440 -0.6895 -0.1956  0.4543
  815SOL    HW2 3026   3.187   1.428   5.523 -0.6917  1.7883 -0.2156
  815SOL    HW3 3027   3.135   1.478   5.390 -4.4670 -0.9856  0.0477
  815SOL    MW4 3028   3.153   1.413   5.444 -1.1882 -0.0381  0.3123
  816SOL     OW 3029   2.094   1.206   1.469  0.8302 -0.6574  0.5607
  816SOL    HW2 3030   2.100   1.301   1.476  1.6569 -0.4695 -1.6730
  816SOL    HW3 3031   2.160   1.173   1.530  0.6246  0.2111  1.2608
  816SOL    MW4 3032   2.104   1.214   1.478  0.9121 -0.5180  0.3584
  817SOL     OW 3033   3.810   2.953   4.369 -0.0936 -0.1132 -0.0963
  817SOL    HW2 3034   3.852   2.893   4.431  0.4107  0.0849 -0.2398
  817SOL    HW3 3035   3.804   3.036   4.416  0.2558  0.0273 -0.2943
  817SOL    MW4 3036   3.815   2.956   4.384  0.0191 -0.0685 -0.1414
  818SOL     OW 3037   5.516   0.571   1.148  0.0308 -0.6158 -0.7754
  818SOL    HW2 3038   5.574   0.635   1.188 -0.1925 -0.5900 -0.4882
  818SOL    HW3 3039   5.535   0.489   1.195  0.0749 -0.6825 -0.9098
  818SOL    MW4 3040   5.526   0.568   1.160  0.0071 -0.6212 -0.7553
  819SOL     OW 3041   1.505   1.503   1.569  0.0808  0.4503 -0.0036
  819SOL    HW2 3042   1.423   1.501   1.520  0.8448  0.0078 -1.3115
  819SOL    HW3 3043   1.485   1.556   1.646 -1.6455 -0.2851  0.1110
  819SOL    MW4 3044   1.491   1.509   1.573 -0.0461  0.2949 -0.1610
  820SOL     OW 3045   0.674   3.385   6.023  0.3501 -0.4434 -0.1565
  820SOL    HW2 3046   0.668   3.469   6.068  1.9518 -1.1114  1.4705
  820SOL    HW3 3047   0.599   3.383   5.964 -0.3538  1.6304  0.5880
  820SOL    MW4 3048   0.663   3.396   6.022  0.4686 -0.2580  0.1564
  821SOL     OW 3049   5.496   1.559   2.686 -0.5906 -0.1000  0.5081
  821SOL    HW2 3050   5.554   1.620   2.730 -1.0242  0.4804  0.2810
  821SOL    HW3 3051   5.528   1.556   2.596  0.8864 -2.0009  1.0213
  821SOL    MW4 3052   5.507   1.566   2.680 -0.4529 -0.2742  0.5458
  822SOL     OW 3053   3.924   3.609   4.305 -0.0705  0.6940 -0.3021
  822SOL    HW2 3054   3.897   3.697   4.280 -1.6790  0.5061  0.5939
  822SOL    HW3 3055   3.971   3.575   4.229 -1.2383  1.5810 -1.4571
  822SOL    MW4 3056   3.927   3.616   4.292 -0.4368  0.7862 -0.3363
  823SOL     OW 3057   5.055   2.366   4.319 -0.1888  0.3072 -0.2543
  823SOL    HW2 3058   5.016   2.321   4.244  0.7392 -1.2285  0.1375
  823SOL    HW3 3059   5.085   2.449   4.285 -0.8105  0.1173 -1.3108
  823SOL    MW4 3060   5.054   2.371   4.305 -0.1484  0.0795 -0.3420
  824SOL     OW 3061   3.962   3.426   1.631 -0.9629  0.6617  0.4007
  824SOL    HW2 3062   4.000   3.417   1.544  2.1413 -0.0607  1.7091
  824SOL    HW3 3063   3.868   3.439   1.615 -0.5927  0.0431 -2.9850
  824SOL    MW4 3064   3.954   3.427   1.617 -0.5045  0.4848  0.1266
  825SOL     OW 3065   0.030   0.686   5.762  0.3295  0.3954 -0.0426
  825SOL    HW2 3066  -0.014   0.654   5.683 -0.7965  0.3654  0.5769
  825SOL    HW3 3067   0.120   0.702   5.734  0.3358 -1.0399 -0.9642
  825SOL    MW4 3068   0.036   0.684   5.748  0.1817  0.2020 -0.0824
  826SOL     OW 3069   4.555   0.843   3.972 -0.1949 -0.1738 -0.0434
  826SOL    HW2 3070   4.518   0.767   3.928 -1.2760  0.0961  0.3821
  826SOL    HW3 3071   4.483   0.906   3.978  0.8877  1.2918 -1.2332
  826SOL    MW4 3072   4.541   0.842   3.967 -0.1947  0.0552 -0.1442
  827SOL     OW 3073   1.866   0.843   4.331 -0.1716  0.1019  0.1687
  827SOL    HW2 3074   1.856   0.751   4.355  0.5748 -0.0042  0.0881
  827SOL    HW3 3075   1.960   0.855   4.320 -0.3166  0.7163 -0.4712
  827SOL    MW4 3076   1.877   0.832   4.333 -0.0922  0.1690  0.0736
  828SOL     OW 3077   1.315   0.144   3.709 -0.0242  0.3836  0.2992
  828SOL    HW2 3078   1.331   0.069   3.651  0.5132 -0.0169  0.9556
  828SOL    HW3 3079   1.398   0.191   3.711 -0.5030  1.2937 -0.5047
  828SOL    MW4 3080   1.328   0.140   3.702 -0.0165  0.4508  0.2798
  829SOL     OW 3081   4.160   6.380   3.864 -0.1204  0.2419  0.0123
  829SOL    HW2 3082   4.073   6.341   3.867 -1.0592  2.3021  1.0866
  829SOL    HW3 3083   4.204   6.335   3.791 -1.2949 -2.3281  0.7970
  829SOL    MW4 3084   4.155   6.369   3.854 -0.3992  0.1746  0.2576
  830SOL     OW 3085   2.177   4.950   5.314  0.3270  0.2129 -0.1655
  830SOL    HW2 3086   2.270   4.941   5.296  0.4465  0.4587  0.2952
  830SOL    HW3 3087   2.140   4.864   5.294  0.9095 -0.3734  1.1252
  830SOL    MW4 3088   2.184   4.938   5.309  0.4196  0.1679  0.0656
  831SOL     OW 3089   2.269   4.638   2.890  0.1674  0.3354  0.2313
  831SOL    HW2 3090   2.243   4.726   2.919 -1.9582 -0.2659  0.3722
  831SOL    HW3 3091   2.202   4.614   2.826 -0.1766 -1.7216  1.2674
  831SOL    MW4 3092   2.257   4.647   2.886 -0.1584 -0.0153  0.3866
  832SOL     OW 3093   5.200   2.222   3.777  0.3336  0.7950  0.4364
  832SOL    HW2 3094   5.274   2.164   3.759  0.5258  1.1752  0.0054
  832SOL    HW3 3095   5.170   2.251   3.691  0.0981  1.1557  0.6383
  832SOL    MW4 3096   5.206   2.218   3.764  0.3279  0.8927  0.4061
  833SOL     OW 3097   5.463   6.025   6.184  0.2069 -0.4876 -0.0276
  833SOL    HW2 3098   5.535   6.037   6.246 -1.3200 -0.5759  1.8569
  833SOL    HW3 3099   5.482   6.086   6.113  0.8006  1.4590  1.6982
  833SOL    MW4 3100   5.475   6.034   6.183  0.0838 -0.2424  0.4487
  834SOL     OW 3101   6.205   5.255   1.625 -0.3400  0.0407 -0.2150
  834SOL    HW2 3102   6.119   5.219   1.601 -0.3774  0.0469 -0.0928
  834SOL    HW3 3103   6.244   5.188   1.680 -0.2886  0.0607 -0.2278
  834SOL    MW4 3104   6.199   5.241   1.629 -0.3381  0.0441 -0.2005
  835SOL     OW 3105   5.360   5.424   5.266 -0.1612  0.4730  0.1955
  835SOL    HW2 3106   5.417   5.499   5.251 -2.4146  2.4453  0.9440
  835SOL    HW3 3107   5.389   5.387   5.349  0.1917  1.2646  0.4303
  835SOL    MW4 3108   5.371   5.429   5.275 -0.4119  0.8376  0.3252
  836SOL     OW 3109   5.986   2.401   0.361 -0.2063 -0.1432 -0.1892
  836SOL    HW2 3110   5.950   2.421   0.447  0.3987  1.8579 -0.3432
  836SOL    HW3 3111   5.910   2.392   0.304 -0.5824  1.6729 -0.0357
  836SOL    MW4 3112   5.971   2.403   0.365 -0.1761  0.3605 -0.1892
  837SOL     OW 3113   3.301   4.993   2.774  0.6640  0.1296  0.2584
  837SOL    HW2 3114   3.336   5.010   2.687 -3.7461  2.2873 -1.3849
  837SOL    HW3 3115   3.294   5.079   2.815 -0.2280 -0.4914  1.4769
  837SOL    MW4 3116   3.305   5.006   2.768 -0.0356  0.3324  0.2024
  838SOL     OW 3117   4.988   5.291   0.400  0.0653 -0.4016  0.0915
  838SOL    HW2 3118   4.971   5.197   0.390  0.2440 -0.3133 -1.2681
  838SOL    HW3 3119   5.004   5.322   0.311  0.9956  0.7379  0.6225
  838SOL    MW4 3120   4.988   5.282   0.387  0.2116 -0.2396 -0.0178
  839SOL     OW 3121   6.421   1.289   0.561 -0.1346  0.0931 -0.3566
  839SOL    HW2 3122   6.416   1.222   0.630  1.2794  0.8542  0.5432
  839SOL    HW3 3123   6.514   1.300   0.545 -0.3451  1.5366 -0.7810
  839SOL    MW4 3124   6.432   1.282   0.568  0.0242  0.3840 -0.2939
  840SOL     OW 3125   6.019   4.734   4.027  0.4305 -0.2339  0.0040
  840SOL    HW2 3126   6.035   4.648   4.063 -1.0887  0.3304  2.2192
  840SOL    HW3 3127   5.992   4.718   3.936 -1.0040 -2.2008  0.7277
  840SOL    MW4 3128   6.018   4.721   4.019  0.0408 -0.4190  0.3917
  841SOL     OW 3129   1.274   5.640   2.964  0.2888  0.4610 -0.2046
  841SOL    HW2 3130   1.216   5.576   3.004 -0.6738  0.9157 -0.8495
  841SOL    HW3 3131   1.310   5.595   2.888 -1.3826  1.0689 -1.4072
  841SOL    MW4 3132   1.271   5.626   2.959 -0.0587  0.6012 -0.4483
  842SOL     OW 3133   3.141   5.272   1.772  0.7982  0.2601 -0.1267
  842SOL    HW2 3134   3.100   5.231   1.848 -0.4196  1.5221 -0.0499
  842SOL    HW3 3135   3.203   5.207   1.740  0.0784 -0.9897  0.9046
  842SOL    MW4 3136   3.144   5.258   1.778  0.5425  0.2618  0.0195
  843SOL     OW 3137   2.247   0.281   4.724 -0.4671 -0.4699 -0.2891
  843SOL    HW2 3138   2.257   0.306   4.816  1.6564 -0.4799 -0.4685
  843SOL    HW3 3139   2.264   0.362   4.675  1.7531 -1.1326 -0.7251
  843SOL    MW4 3140   2.251   0.295   4.730  0.1060 -0.5587 -0.3703
  844SOL     OW 3141   3.177   5.971   5.950 -0.2447  0.2059  0.3606
  844SOL    HW2 3142   3.226   5.918   5.887  2.2861  1.5991  1.0068
  844SOL    HW3 3143   3.156   5.911   6.021  0.6726 -0.4273  0.1143
  844SOL    MW4 3144   3.181   5.956   5.951  0.2102  0.3062  0.4133
  845SOL     OW 3145   2.444   0.652   4.949 -0.3134  0.0379 -0.4906
  845SOL    HW2 3146   2.361   0.632   4.992 -0.8163  1.2113 -0.8647
  845SOL    HW3 3147   2.424   0.645   4.856 -0.0851  0.6114 -0.5870
  845SOL    MW4 3148   2.430   0.649   4.942 -0.3496  0.2684 -0.5526
  846SOL     OW 3149   3.966   3.321   2.043 -0.2168 -0.1542 -0.0250
  846SOL    HW2 3150   4.034   3.255   2.031 -1.7251 -1.6419 -0.7406
  846SOL    HW3 3151   3.921   3.325   1.959 -0.1492  1.8554 -0.0170
  846SOL    MW4 3152   3.969   3.313   2.031 -0.4069 -0.0853 -0.1184
  847SOL     OW 3153   5.261   2.252   4.492  0.2425 -0.1997 -0.2396
  847SOL    HW2 3154   5.234   2.295   4.411  0.8171  1.8043  0.5914
  847SOL    HW3 3155   5.186   2.263   4.551  0.5400  0.0024  0.1036
  847SOL    MW4 3156   5.247   2.259   4.489  0.3576  0.0914 -0.0847
  848SOL     OW 3157   3.268   0.653   4.653 -0.4352  0.2080  0.0603
  848SOL    HW2 3158   3.319   0.721   4.698  1.0205 -0.1854 -0.9353
  848SOL    HW3 3159   3.318   0.633   4.574 -2.1026 -0.2812 -0.9207
  848SOL    MW4 3160   3.281   0.659   4.649 -0.4631  0.0915 -0.2005
  849SOL     OW 3161   3.743   2.662   0.657  0.2347 -0.0571 -0.0553
  849SOL    HW2 3162   3.715   2.705   0.738  3.0270  0.9494  0.4702
  849SOL    HW3 3163   3.790   2.584   0.686  0.6891 -0.0377 -0.7206
  849SOL    MW4 3164   3.745   2.657   0.671  0.6631  0.0783 -0.0738
  850SOL     OW 3165   0.868   3.385   2.813 -0.4101 -0.5265  0.0399
  850SOL    HW2 3166   0.838   3.387   2.904 -0.8520  1.1740 -0.1001
  850SOL    HW3 3167   0.795   3.422   2.763 -0.1143 -1.2883 -1.0005
  850SOL    MW4 3168   0.854   3.391   2.818 -0.4294 -0.4027 -0.1159
  851SOL     OW 3169   6.023   3.933   5.802  0.2797  0.2055 -0.5092
  851SOL    HW2 3170   6.000   3.842   5.825  0.7228 -0.0786 -1.1577
  851SOL    HW3 3171   5.944   3.967   5.761 -0.0450  0.2667  0.1501
  851SOL    MW4 3172   6.009   3.925   5.799  0.2954  0.1761 -0.5078
  852SOL     OW 3173   3.955   4.115   4.601  0.0903  0.1251 -0.2918
  852SOL    HW2 3174   3.980   4.179   4.668  0.5040 -1.1426  0.8172
  852SOL    HW3 3175   3.875   4.074   4.635  0.2678 -0.4917 -0.5971
  852SOL    MW4 3176   3.948   4.118   4.615  0.1683 -0.1235 -0.1858
  853SOL     OW 3177   1.514   0.801   4.618 -0.0647  0.1676 -0.2934
  853SOL    HW2 3178   1.426   0.839   4.617 -0.5635 -0.9550 -0.5593
  853SOL    HW3 3179   1.502   0.712   4.586  1.1608 -0.0422 -0.2198
  853SOL    MW4 3180   1.501   0.795   4.613  0.0311 -0.0082 -0.3188
  854SOL     OW 3181   1.959   5.435   1.209 -0.6214 -0.5265  0.5019
  854SOL    HW2 3182   1.976   5.425   1.303 -1.9070  1.2781  0.9688
  854SOL    HW3 3183   1.887   5.375   1.191  0.0894 -1.4045  0.4765
  854SOL    MW4 3184   1.952   5.426   1.219 -0.6972 -0.4043  0.5602
  855SOL     OW 3185   0.630   1.513   2.771 -0.3416  0.3524  0.3760
  855SOL    HW2 3186   0.625   1.443   2.835 -1.2911  1.6851  1.8256
  855SOL    HW3 3187   0.541   1.523   2.739  0.2438 -0.8086 -1.8046
  855SOL    MW4 3188   0.618   1.505   2.775 -0.3897  0.3751  0.2795
  856SOL     OW 3189   0.989   5.055   2.821 -0.0999 -0.9106 -0.6616
  856SOL    HW2 3190   0.905   5.021   2.851 -0.4917  1.1245  0.7534
  856SOL    HW3 3191   0.969   5.139   2.781  1.3834  0.5992  1.5398
  856SOL    MW4 3192   0.976   5.061   2.820  0.0441 -0.4429 -0.1845
  857SOL     OW 3193   3.124   3.265   1.612  0.1150 -0.8875 -0.4202
  857SOL    HW2 3194   3.177   3.334   1.572 -1.1752 -0.5010 -1.5527
  857SOL    HW3 3195   3.134   3.279   1.706  0.5625  0.3176 -0.6231
  857SOL    MW4 3196   3.132   3.276   1.619  0.0038 -0.6775 -0.5964
  858SOL     OW 3197   3.737   5.597   6.280  0.1057  0.2075  0.1059
  858SOL    HW2 3198   3.768   5.610   6.369  4.3728  1.0202 -1.2529
  858SOL    HW3 3199   3.713   5.684   6.249 -0.1823  0.1233  0.0919
  858SOL    MW4 3200   3.738   5.610   6.288  0.6307  0.3036 -0.0752
  859SOL     OW 3201   3.424   3.715   4.057  0.3027  0.5261  0.6761
  859SOL    HW2 3202   3.510   3.689   4.022  0.6747  1.3625  0.9626
  859SOL    HW3 3203   3.396   3.639   4.109  0.7802  0.1770  0.4360
  859SOL    MW4 3204   3.432   3.701   4.059  0.4148  0.5904  0.6822
  860SOL     OW 3205   3.673   3.721   2.817 -0.3505 -0.4000 -0.2002
  860SOL    HW2 3206   3.743   3.690   2.875 -0.4453  0.2389  0.2699
  860SOL    HW3 3207   3.613   3.647   2.809  1.1009 -1.5055 -1.8119
  860SOL    MW4 3208   3.675   3.707   2.823 -0.1715 -0.4616 -0.3508
  861SOL     OW 3209   5.017   4.945   0.716 -0.3351  0.0206  0.1519
  861SOL    HW2 3210   5.111   4.947   0.699 -0.1304  1.0509  1.2898
  861SOL    HW3 3211   4.989   4.858   0.686  0.5279  0.5186 -2.3674
  861SOL    MW4 3212   5.026   4.934   0.710 -0.1942  0.2222 -0.0303
  862SOL     OW 3213   5.091   3.057   3.612 -0.1060  0.5463  0.5431
  862SOL    HW2 3214   5.044   3.135   3.583 -1.6990 -0.3385  0.6269
  862SOL    HW3 3215   5.140   3.086   3.688 -1.8230  1.1666  1.4701
  862SOL    MW4 3216   5.091   3.071   3.618 -0.5427  0.5114  0.6765
  863SOL     OW 3217   1.056   5.837   1.335 -0.0479 -0.2048  0.6101
  863SOL    HW2 3218   1.033   5.929   1.328  1.9083  0.2231 -1.6148
  863SOL    HW3 3219   1.119   5.833   1.407 -1.6274 -0.1997  2.0374
  863SOL    MW4 3220   1.061   5.849   1.343  0.0018 -0.1477  0.5049
  864SOL     OW 3221   0.812   3.016   1.257 -0.2463 -0.3312 -0.0128
  864SOL    HW2 3222   0.853   2.930   1.252 -0.9368 -0.6793  0.2657
  864SOL    HW3 3223   0.789   3.027   1.349 -0.4557  0.0120 -0.1035
  864SOL    MW4 3224   0.815   3.006   1.268 -0.3650 -0.3318  0.0119
  865SOL     OW 3225   1.396   3.283   1.449  0.3707  0.5013  0.0871
  865SOL    HW2 3226   1.413   3.375   1.468 -1.8248  0.9654  0.1189
  865SOL    HW3 3227   1.317   3.262   1.500  0.1505 -1.0675 -0.8108
  865SOL    MW4 3228   1.388   3.292   1.458  0.0520  0.3555 -0.0272
  866SOL     OW 3229   0.164   3.338   4.398  0.1825 -0.2136  0.4275
  866SOL    HW2 3230   0.243   3.290   4.373  0.5290  1.2803 -1.6578
  866SOL    HW3 3231   0.188   3.383   4.478  2.1842  1.6209 -1.0687
  866SOL    MW4 3232   0.177   3.338   4.405  0.4923  0.2256 -0.0450
  867SOL     OW 3233   6.154   4.335   5.129 -0.1186 -0.2830 -0.2730
  867SOL    HW2 3234   6.206   4.267   5.171 -0.3738 -0.2363  0.1198
  867SOL    HW3 3235   6.089   4.288   5.078  0.4940 -0.3461 -1.0080
  867SOL    MW4 3236   6.153   4.320   5.128 -0.0714 -0.2851 -0.3182
  868SOL     OW 3237   4.077   2.746   1.724  0.2266 -0.7074  0.3011
  868SOL    HW2 3238   4.025   2.682   1.677 -2.2273  0.7698  0.8144
  868SOL    HW3 3239   4.130   2.694   1.785 -0.6086 -2.3127 -0.2893
  868SOL    MW4 3240   4.077   2.731   1.726 -0.2074 -0.7243  0.2910
  869SOL     OW 3241   5.076   1.027   4.830 -0.3718 -0.2081  0.2560
  869SOL    HW2 3242   5.025   1.107   4.814  0.3163 -0.1328 -1.7829
  869SOL    HW3 3243   5.020   0.956   4.799 -0.0961 -0.3142  0.0006
  869SOL    MW4 3244   5.062   1.028   4.824 -0.2446 -0.2122 -0.0467
  870SOL     OW 3245   0.909   0.607   0.036  0.0216  0.3940 -0.2688
  870SOL    HW2 3246   0.818   0.588   0.012 -0.0151 -1.2938  1.0155
  870SOL    HW3 3247   0.933   0.537   0.097  2.5553  0.1378 -1.4186
  870SOL    MW4 3248   0.900   0.595   0.041  0.3511  0.1375 -0.2510
  871SOL     OW 3249   6.416   4.295   6.031 -0.7804  0.4471 -0.1326
  871SOL    HW2 3250   6.466   4.260   6.105  2.3123  2.1898 -1.1771
  871SOL    HW3 3251   6.376   4.375   6.064 -0.0066  0.8337 -0.1007
  871SOL    MW4 3252   6.418   4.301   6.045 -0.2703  0.7280 -0.2662
  872SOL     OW 3253   6.420   4.101   4.056 -0.7285  0.3129  0.2956
  872SOL    HW2 3254   6.466   4.090   3.973  1.7729  2.0477  1.3145
  872SOL    HW3 3255   6.368   4.180   4.045  1.7286  2.1821  1.0857
  872SOL    MW4 3256   6.419   4.110   4.044 -0.0743  0.7884  0.5343
  873SOL     OW 3257   4.218   5.298   1.654  0.1613  0.1720  0.5418
  873SOL    HW2 3258   4.182   5.323   1.569 -1.6337 -2.4328  0.4256
  873SOL    HW3 3259   4.278   5.226   1.633  1.0380  0.6403  1.3620
  873SOL    MW4 3260   4.221   5.292   1.640  0.0402 -0.1099  0.6347
  874SOL     OW 3261   2.712   0.128   0.911  0.0090  0.1029  0.4052
  874SOL    HW2 3262   2.805   0.131   0.931  0.1493  0.1217 -0.2332
  874SOL    HW3 3263   2.669   0.170   0.986  0.5431  0.5034  0.4881
  874SOL    MW4 3264   2.718   0.134   0.924  0.0980  0.1582  0.3319
  875SOL     OW 3265   3.427   3.046   2.931 -0.8629  0.0373 -0.0333
  875SOL    HW2 3266   3.433   2.967   2.877  0.6582  0.7738 -1.0241
  875SOL    HW3 3267   3.502   3.040   2.990 -1.0500  0.4868  0.2521
  875SOL    MW4 3268   3.438   3.035   2.931 -0.6869  0.1938 -0.1263
  876SOL     OW 3269   0.309   3.855   6.012 -0.5463 -0.1812 -0.1814
  876SOL    HW2 3270   0.294   3.798   6.088  1.2420 -1.6168 -0.8300
  876SOL    HW3 3271   0.250   3.821   5.945 -1.2580  0.3262  0.1727
  876SOL    MW4 3272   0.299   3.843   6.013 -0.4043 -0.3037 -0.2203
  877SOL     OW 3273   3.855   0.007   2.150 -0.5935 -0.2440 -0.3751
  877SOL    HW2 3274   3.916   0.049   2.090 -0.7050 -1.3415 -1.2929
  877SOL    HW3 3275   3.908  -0.018   2.226 -0.3359  0.6423 -0.2543
  877SOL    MW4 3276   3.870   0.009   2.152 -0.5742 -0.2719 -0.4802
  878SOL     OW 3277   3.826   5.045   0.642 -0.1249 -0.4632 -0.4711
  878SOL    HW2 3278   3.787   5.097   0.571 -0.5282  2.1209  1.5106
  878SOL    HW3 3279   3.910   5.087   0.660 -0.4967 -0.3895  1.2533
  878SOL    MW4 3280   3.832   5.057   0.635 -0.2271 -0.1126  0.0179
  879SOL     OW 3281   0.490   4.111   5.810 -0.6523  0.1951 -0.0590
  879SOL    HW2 3282   0.581   4.106   5.839 -0.6800 -2.8204 -0.1144
  879SOL    HW3 3283   0.440   4.123   5.890 -0.3504 -1.9363  0.5276
  879SOL    MW4 3284   0.496   4.112   5.824 -0.6161 -0.4840  0.0111
  880SOL     OW 3285   3.380   0.250   6.341 -0.0402  0.4368  0.7723
  880SOL    HW2 3286   3.296   0.296   6.339 -0.4406 -0.2875 -0.8553
  880SOL    HW3 3287   3.359   0.161   6.314  1.2767  0.3036  0.1043
  880SOL    MW4 3288   3.366   0.244   6.337  0.0807  0.3237  0.4694
  881SOL     OW 3289   5.388   1.733   4.493  0.0417 -0.6099  0.7505
  881SOL    HW2 3290   5.483   1.722   4.487 -0.1169 -3.0178  1.8109
  881SOL    HW3 3291   5.377   1.818   4.536  1.6956 -0.2704  0.5795
  881SOL    MW4 3292   5.399   1.743   4.498  0.2389 -0.8828  0.8679
  882SOL     OW 3293   4.841   4.155   3.155  0.3520  0.3357  0.4137
  882SOL    HW2 3294   4.837   4.074   3.205  1.9181  1.6912  2.9665
  882SOL    HW3 3295   4.931   4.160   3.125  0.0832  0.7837 -0.3364
  882SOL    MW4 3296   4.852   4.145   3.158  0.5232  0.5737  0.6515
  883SOL     OW 3297   1.200   4.018   0.237 -0.4518 -0.1641 -0.5792
  883SOL    HW2 3298   1.140   4.093   0.237  0.7062  0.7865 -1.2282
  883SOL    HW3 3299   1.261   4.036   0.166  0.8477 -0.9240  0.3154
  883SOL    MW4 3300   1.200   4.030   0.227 -0.1275 -0.1389 -0.5468
  884SOL     OW 3301   0.487   4.169   4.109 -0.1441  0.4904  0.6481
  884SOL    HW2 3302   0.455   4.167   4.199 -2.5427  1.0806 -0.1146
  884SOL    HW3 3303   0.447   4.092   4.068  1.8394 -0.4311  0.3029
  884SOL    MW4 3304   0.478   4.158   4.115 -0.1989  0.4467  0.5019
  885SOL     OW 3305   0.018   0.822   3.021 -0.0185  0.3271  0.0460
  885SOL    HW2 3306  -0.041   0.849   2.951  1.4578 -0.3027 -1.5380
  885SOL    HW3 3307   0.007   0.889   3.089 -1.4449  1.0187 -0.8147
  885SOL    MW4 3308   0.009   0.835   3.021 -0.0119  0.3353 -0.2765
  886SOL     OW 3309   3.037   0.222   5.931 -0.7836  1.0540 -0.1754
  886SOL    HW2 3310   2.954   0.244   5.888 -0.6531 -0.1582 -1.0884
  886SOL    HW3 3311   3.104   0.238   5.865 -0.6115 -1.2401 -0.6384
  886SOL    MW4 3312   3.035   0.227   5.917 -0.7437  0.5914 -0.3570
  887SOL     OW 3313   1.257   0.150   1.424  0.1100  0.0121  0.1281
  887SOL    HW2 3314   1.275   0.113   1.338  0.8437  0.5451  0.0391
  887SOL    HW3 3315   1.241   0.075   1.480 -2.1467 -0.3000 -0.8266
  887SOL    MW4 3316   1.258   0.135   1.420 -0.0909  0.0413 -0.0096
  888SOL     OW 3317   1.952   5.468   1.747 -0.8785  0.5856  0.1522
  888SOL    HW2 3318   1.932   5.561   1.754 -0.5594  0.9105 -2.3807
  888SOL    HW3 3319   1.996   5.459   1.662 -1.4633 -1.9670  0.0423
  888SOL    MW4 3320   1.955   5.479   1.737 -0.9136  0.2917 -0.1965
  889SOL     OW 3321   4.602   4.494   5.935  0.5048  0.0802  0.0095
  889SOL    HW2 3322   4.677   4.443   5.966  3.6655  2.1499 -3.3704
  889SOL    HW3 3323   4.605   4.574   5.988  1.8364  0.8401 -1.1270
  889SOL    MW4 3324   4.613   4.498   5.947  1.0975  0.4536 -0.5864
  890SOL     OW 3325   4.680   2.371   3.864 -0.0863 -0.8254 -0.4599
  890SOL    HW2 3326   4.602   2.317   3.877 -0.0121 -0.9725 -0.6231
  890SOL    HW3 3327   4.749   2.325   3.911  0.1985 -1.3885 -1.4106
  890SOL    MW4 3328   4.679   2.358   3.872 -0.0390 -0.9191 -0.6069
  891SOL     OW 3329   3.485   3.858   2.977 -0.1116  0.3447 -0.2037
  891SOL    HW2 3330   3.549   3.814   2.921  0.0995  0.4616 -0.0545
  891SOL    HW3 3331   3.409   3.872   2.920 -0.4845 -0.9176 -0.0401
  891SOL    MW4 3332   3.483   3.854   2.962 -0.1329  0.1936 -0.1624
  892SOL     OW 3333   4.788   4.830   5.735 -0.2726 -0.3891 -0.4273
  892SOL    HW2 3334   4.799   4.865   5.647 -2.4801  0.1326 -0.5347
  892SOL    HW3 3335   4.723   4.760   5.726 -0.7491 -0.1384  0.8279
  892SOL    MW4 3336   4.781   4.825   5.722 -0.6267 -0.2872 -0.2759
  893SOL     OW 3337   1.842   6.000   2.935  0.0609 -0.4035 -0.3221
  893SOL    HW2 3338   1.880   6.070   2.988 -0.7697 -1.2553  1.4680
  893SOL    HW3 3339   1.908   5.984   2.867  1.1065  0.8154  0.3584
  893SOL    MW4 3340   1.856   6.007   2.933  0.0892 -0.3550  0.0038
  894SOL     OW 3341   4.483   0.312   1.481 -0.1658  0.1440  0.6676
  894SOL    HW2 3342   4.399   0.346   1.449  0.1913  0.8826  0.4901
  894SOL    HW3 3343   4.487   0.338   1.573  0.3552  1.1200  0.3912
  894SOL    MW4 3344   4.473   0.320   1.489 -0.0500  0.3702  0.6077
  895SOL     OW 3345   4.115   1.272   4.372  0.5079 -0.0079  0.1553
  895SOL    HW2 3346   4.149   1.183   4.365 -0.5569 -0.5584  1.4208
  895SOL    HW3 3347   4.192   1.328   4.369  1.3853 -1.1061  1.1480
  895SOL    MW4 3348   4.129   1.267   4.371  0.4831 -0.2254  0.4533
  896SOL     OW 3349   0.999   5.387   0.797  0.4889  0.7312 -0.4793
  896SOL    HW2 3350   1.011   5.480   0.779 -1.2972  0.8848 -1.0026
  896SOL    HW3 3351   0.984   5.348   0.711 -0.0099  0.1580 -0.1330
  896SOL    MW4 3352   0.999   5.394   0.783  0.1874  0.6758 -0.5026
  897SOL     OW 3353   2.559   1.629   5.226  0.1688  0.0109  0.0300
  897SOL    HW2 3354   2.553   1.544   5.269  1.1635  0.0865  0.3372
  897SOL    HW3 3355   2.468   1.656   5.213 -0.1688 -1.5324 -0.9668
  897SOL    MW4 3356   2.546   1.621   5.230  0.2555 -0.1827 -0.0610
  898SOL     OW 3357   5.955   1.900   5.912 -0.4559 -0.4990 -0.0296
  898SOL    HW2 3358   5.866   1.866   5.916 -0.4095 -0.8213 -1.1853
  898SOL    HW3 3359   6.009   1.827   5.943 -0.6064 -0.1350  1.1465
  898SOL    MW4 3360   5.950   1.886   5.917 -0.4696 -0.4935 -0.0269
  899SOL     OW 3361   1.733   0.732   3.681 -0.1193 -0.1394  0.3940
  899SOL    HW2 3362   1.754   0.713   3.589 -0.2711  2.0743 -0.1561
  899SOL    HW3 3363   1.640   0.710   3.688 -0.7576  1.9302 -0.7204
  899SOL    MW4 3364   1.723   0.727   3.670 -0.2235  0.4257  0.1744
  900SOL     OW 3365   4.075   4.209   1.621 -0.0787  0.3687  0.1734
  900SOL    HW2 3366   4.088   4.288   1.674  0.9944 -1.3253  2.6473
  900SOL    HW3 3367   4.141   4.216   1.552 -0.6553  2.0562 -0.2640
  900SOL    MW4 3368   4.085   4.221   1.619 -0.0132  0.3679  0.4421
  901SOL     OW 3369   3.879   5.866   2.499  0.5253 -0.7679  0.6538
  901SOL    HW2 3370   3.930   5.907   2.569  0.1571  2.0591 -0.5954
  901SOL    HW3 3371   3.943   5.842   2.433  0.6099 -0.8311  0.7592
  901SOL    MW4 3372   3.894   5.869   2.500  0.4879 -0.4033  0.5029
  902SOL     OW 3373   0.825   1.108   0.508  0.4821 -0.4295  0.6394
  902SOL    HW2 3374   0.902   1.061   0.540  1.5185  0.9721  0.3248
  902SOL    HW3 3375   0.861   1.186   0.466 -1.0575 -0.3697 -0.6447
  902SOL    MW4 3376   0.840   1.112   0.507  0.4157 -0.2367  0.4285
  903SOL     OW 3377   0.063   5.408   4.663  0.6594  0.0452 -0.0645
  903SOL    HW2 3378   0.090   5.453   4.583  0.8809  0.4800  0.2539
  903SOL    HW3 3379   0.126   5.435   4.729  0.6842 -0.5838  0.1802
  903SOL    MW4 3380   0.075   5.417   4.661  0.6919  0.0196  0.0098
  904SOL     OW 3381   4.920   1.323   0.834 -0.2014  0.1569  0.0646
  904SOL    HW2 3382   4.906   1.416   0.817  1.3425 -0.0867 -3.1458
  904SOL    HW3 3383   5.013   1.309   0.820 -0.5689 -2.0709 -0.6113
  904SOL    MW4 3384   4.930   1.333   0.830 -0.0462 -0.1692 -0.4482
  905SOL     OW 3385   6.065   5.963   5.622  0.0704  0.2497 -0.0543
  905SOL    HW2 3386   6.153   5.959   5.661 -0.3808 -1.0511  0.9234
  905SOL    HW3 3387   6.051   6.055   5.604  1.2563  0.6093  0.7265
  905SOL    MW4 3388   6.075   5.974   5.625  0.1673  0.1255  0.1777
  906SOL     OW 3389   3.307   5.019   1.822 -0.2923  0.5361 -0.1770
  906SOL    HW2 3390   3.359   5.091   1.859 -1.5388  0.5902  1.5942
  906SOL    HW3 3391   3.252   4.990   1.895 -1.9606 -0.2399 -1.6916
  906SOL    MW4 3392   3.307   5.024   1.837 -0.6769  0.4408 -0.1431
  907SOL     OW 3393   4.918   6.288   1.549  0.6205 -0.1880  0.0367
  907SOL    HW2 3394   4.831   6.276   1.586  0.6448 -0.3430  0.0424
  907SOL    HW3 3395   4.971   6.319   1.622  0.2502  1.2589 -0.2752
  907SOL    MW4 3396   4.914   6.291   1.564  0.5748 -0.0175 -0.0037
  908SOL     OW 3397   4.860   5.490   1.874 -0.5185 -0.4017  0.8007
  908SOL    HW2 3398   4.768   5.486   1.900 -1.4603  1.0459 -1.9473
  908SOL    HW3 3399   4.864   5.442   1.791  1.3851 -1.0350  1.2037
  908SOL    MW4 3400   4.848   5.483   1.867 -0.3916 -0.2943  0.4913
  909SOL     OW 3401   0.191   3.477   2.396 -0.3108  0.2517 -0.0961
  909SOL    HW2 3402   0.253   3.549   2.399 -0.2190  0.2201 -1.0605
  909SOL    HW3 3403   0.200   3.434   2.481  0.5504  0.6099  0.0010
  909SOL    MW4 3404   0.200   3.481   2.408 -0.1850  0.2948 -0.2105
  910SOL     OW 3405   4.112   5.427   1.428  0.0570 -0.6507 -0.2642
  910SOL    HW2 3406   4.086   5.414   1.337  1.1494 -1.0096 -0.5366
  910SOL    HW3 3407   4.154   5.513   1.429 -1.2006 -0.0178  0.1989
  910SOL    MW4 3408   4.114   5.436   1.416  0.0352 -0.6145 -0.2390
  911SOL     OW 3409   0.138   2.225   4.949  0.4908 -0.3840  0.3584
  911SOL    HW2 3410   0.173   2.265   5.029  0.0454  0.8190 -0.0187
  911SOL    HW3 3411   0.056   2.184   4.976 -0.6916  1.7297  0.1970
  911SOL    MW4 3412   0.132   2.225   4.963  0.2760  0.0536  0.2873
  912SOL     OW 3413   2.931   0.313   1.537  0.0616 -0.2776  0.4168
  912SOL    HW2 3414   2.879   0.310   1.617 -1.9183  0.4925 -0.7685
  912SOL    HW3 3415   3.012   0.268   1.560 -0.8723 -1.0322  2.5290
  912SOL    MW4 3416   2.935   0.307   1.551 -0.3229 -0.2755  0.5391
  913SOL     OW 3417   2.651   4.960   1.572  0.0757 -0.3668  0.1545
  913SOL    HW2 3418   2.607   4.936   1.653  0.1152  1.7017  0.8548
  913SOL    HW3 3419   2.743   4.939   1.587  0.1375  0.3324  0.8160
  913SOL    MW4 3420   2.657   4.954   1.585  0.0890 -0.0016  0.3342
  914SOL     OW 3421   2.749   0.343   2.218  0.4169  0.5335 -0.4469
  914SOL    HW2 3422   2.692   0.406   2.173  0.0082  1.7246  1.6074
  914SOL    HW3 3423   2.777   0.389   2.297 -0.8523 -2.2211  1.7897
  914SOL    MW4 3424   2.745   0.358   2.222  0.1956  0.3272  0.1192
  915SOL     OW 3425   3.994   2.621   0.318  0.0378 -0.3290  0.0445
  915SOL    HW2 3426   4.055   2.548   0.308 -1.3708 -1.5760  0.2694
  915SOL    HW3 3427   4.021   2.683   0.250  1.8844 -0.5663  0.4894
  915SOL    MW4 3428   4.006   2.620   0.308  0.0956 -0.5248  0.1329
  916SOL     OW 3429   1.878   2.779   1.305 -0.0328  1.0572 -0.3092
  916SOL    HW2 3430   1.932   2.825   1.370 -1.3187  0.1465  1.5062
  916SOL    HW3 3431   1.920   2.694   1.295 -0.7854  0.5390  0.7187
  916SOL    MW4 3432   1.891   2.774   1.313 -0.3018  0.8687  0.0660
  917SOL     OW 3433   2.297   1.844   1.186 -0.2822  0.3133  0.0019
  917SOL    HW2 3434   2.349   1.851   1.265  1.0886 -0.8343 -0.7473
  917SOL    HW3 3435   2.277   1.750   1.178 -1.5038  0.5779 -0.3440
  917SOL    MW4 3436   2.301   1.832   1.195 -0.2625  0.1968 -0.1426
  918SOL     OW 3437   5.801   2.754   5.219  0.1362 -0.8393  0.1458
  918SOL    HW2 3438   5.731   2.789   5.274  0.2511  0.3115 -0.4198
  918SOL    HW3 3439   5.882   2.774   5.267  0.1223 -1.7823  0.5896
  918SOL    MW4 3440   5.803   2.761   5.233  0.1495 -0.8119  0.1297
  919SOL     OW 3441   5.302   2.656   6.360  0.1579 -0.4213  0.1543
  919SOL    HW2 3442   5.252   2.608   6.426 -0.1735  0.7443  0.7831
  919SOL    HW3 3443   5.252   2.646   6.279  1.9088 -4.1341 -0.6880
  919SOL    MW4 3444   5.289   2.648   6.358  0.3452 -0.7574  0.1261
  920SOL     OW 3445   4.831   4.267   2.432 -0.3427  0.4142 -0.1142
  920SOL    HW2 3446   4.828   4.289   2.525 -1.5639  1.5101 -0.3897
  920SOL    HW3 3447   4.923   4.280   2.408 -0.1579  0.8561  0.7743
  920SOL    MW4 3448   4.843   4.272   2.441 -0.4795  0.6171 -0.0333
  921SOL     OW 3449   1.762   0.187   5.823 -0.0682 -0.2180 -0.3283
  921SOL    HW2 3450   1.787   0.273   5.789 -0.1972 -0.2295 -0.4559
  921SOL    HW3 3451   1.830   0.128   5.791 -1.3070 -0.6185 -2.4420
  921SOL    MW4 3452   1.774   0.190   5.814 -0.2486 -0.2723 -0.6240
  922SOL     OW 3453   5.310   5.085   4.470  0.1045 -0.0565  0.1094
  922SOL    HW2 3454   5.263   5.114   4.549 -0.3250 -0.5620  0.0486
  922SOL    HW3 3455   5.248   5.102   4.399  0.4514  0.3001 -0.1054
  922SOL    MW4 3456   5.295   5.091   4.471  0.0936 -0.0762  0.0731
  923SOL     OW 3457   1.535   5.491   2.091  0.4181  0.6946  0.0038
  923SOL    HW2 3458   1.605   5.426   2.083  0.4311  0.7266 -0.1562
  923SOL    HW3 3459   1.545   5.526   2.179  1.1025  1.2606 -0.2778
  923SOL    MW4 3460   1.546   5.487   2.101  0.5101  0.7735 -0.0545
  924SOL     OW 3461   3.431   0.552   1.416 -0.2472  0.1224  0.1439
  924SOL    HW2 3462   3.422   0.575   1.324 -0.9543 -0.0931  0.1569
  924SOL    HW3 3463   3.401   0.629   1.463  0.8544  0.5337  0.2120
  924SOL    MW4 3464   3.426   0.565   1.410 -0.1952  0.1483  0.1546
  925SOL     OW 3465   3.676   5.860   6.179  0.0333  0.0004 -0.4769
  925SOL    HW2 3466   3.581   5.846   6.184  0.0939 -0.3715 -0.3901
  925SOL    HW3 3467   3.697   5.844   6.087  0.1492 -0.7815 -0.3193
  925SOL    MW4 3468   3.666   5.856   6.167  0.0565 -0.1518 -0.4447
  926SOL     OW 3469   2.013   6.256   6.163  0.1872  0.2352  0.2309
  926SOL    HW2 3470   1.923   6.250   6.193  0.3101  0.4117  0.6522
  926SOL    HW3 3471   2.007   6.275   6.070 -0.2100 -0.2578  0.1512
  926SOL    MW4 3472   2.001   6.258   6.155  0.1510  0.1935  0.2760
  927SOL     OW 3473   5.143   6.144   1.441 -0.1768  0.3866 -0.2384
  927SOL    HW2 3474   5.182   6.122   1.525 -0.3772 -1.1976 -0.5218
  927SOL    HW3 3475   5.056   6.179   1.462  0.1441  0.8978  0.2456
  927SOL    MW4 3476   5.136   6.145   1.455 -0.1609  0.2451 -0.2119
  928SOL     OW 3477   2.866   2.659   0.625  0.2486  0.4546 -0.4154
  928SOL    HW2 3478   2.798   2.661   0.558 -1.1308 -1.3979  0.8273
  928SOL    HW3 3479   2.833   2.715   0.695 -0.0500 -0.5025  0.2224
  928SOL    MW4 3480   2.853   2.667   0.625  0.0272  0.0839 -0.1673
  929SOL     OW 3481   3.663   0.135   5.978  0.1597 -0.1242 -0.0218
  929SOL    HW2 3482   3.634   0.219   5.942  1.1126  0.3131  0.1775
  929SOL    HW3 3483   3.747   0.156   6.019  0.2351 -1.1123  0.3342
  929SOL    MW4 3484   3.670   0.149   5.978  0.2954 -0.1968  0.0515
  930SOL     OW 3485   0.539   6.419   3.348 -0.3275  0.5941 -0.6642
  930SOL    HW2 3486   0.607   6.487   3.343  0.7825 -0.5344 -2.0826
  930SOL    HW3 3487   0.503   6.415   3.259 -0.6862 -0.3579 -0.4853
  930SOL    MW4 3488   0.544   6.428   3.335 -0.2283  0.3196 -0.8277
  931SOL     OW 3489   0.071   0.807   5.366 -0.3071  0.2986  0.0814
  931SOL    HW2 3490   0.143   0.766   5.414  0.4051 -0.3276 -1.4443
  931SOL    HW3 3491   0.097   0.898   5.357  0.5432 -0.0093 -0.8243
  931SOL    MW4 3492   0.084   0.813   5.371 -0.1009  0.1753 -0.2394
  932SOL     OW 3493   3.748   1.589   5.987 -0.5186 -0.3989  0.0045
  932SOL    HW2 3494   3.718   1.582   6.078 -0.1313  1.9407  0.3549
  932SOL    HW3 3495   3.776   1.500   5.965 -0.7374 -1.0540  2.1226
  932SOL    MW4 3496   3.748   1.576   5.996 -0.4964 -0.1766  0.3302
  933SOL     OW 3497   2.006   4.659   0.136  0.2168 -0.2491 -0.5123
  933SOL    HW2 3498   1.917   4.647   0.102  1.2205 -1.3057 -3.0533
  933SOL    HW3 3499   2.022   4.581   0.190  0.2660 -1.1116 -1.7329
  933SOL    MW4 3500   1.996   4.647   0.139  0.3557 -0.5023 -1.0086
  934SOL     OW 3501   1.990   1.158   1.856 -0.1021 -0.1488  0.1235
  934SOL    HW2 3502   1.919   1.217   1.882 -0.1265 -1.0280  2.2704
  934SOL    HW3 3503   2.065   1.215   1.843 -0.2033  0.4494  1.8593
  934SOL    MW4 3504   1.990   1.173   1.858 -0.1187 -0.1859  0.6358
  935SOL     OW 3505   4.750   0.359   4.013  0.8095  0.0594 -0.3987
  935SOL    HW2 3506   4.843   0.371   4.029  1.1499 -0.5890 -1.7358
  935SOL    HW3 3507   4.746   0.296   3.941 -0.7010 -1.7905  1.1689
  935SOL    MW4 3508   4.762   0.352   4.006  0.6551 -0.2702 -0.3683
  936SOL     OW 3509   0.819   5.492   3.098 -0.2634  1.1392  0.4257
  936SOL    HW2 3510   0.768   5.423   3.055  0.8219 -0.0344  0.9421
  936SOL    HW3 3511   0.796   5.572   3.051  0.0041  0.1002 -1.5916
  936SOL    MW4 3512   0.810   5.493   3.086 -0.0849  0.8473  0.2277
  937SOL     OW 3513   3.605   1.259   4.131 -0.8136  0.4093  0.4304
  937SOL    HW2 3514   3.663   1.334   4.116  2.2091 -1.4291  1.8048
  937SOL    HW3 3515   3.569   1.274   4.218 -2.9435  1.7896 -0.6135
  937SOL    MW4 3516   3.608   1.271   4.141 -0.6958  0.3489  0.4740
  938SOL     OW 3517   1.325   5.531   5.139 -0.5495  0.6897  0.2125
  938SOL    HW2 3518   1.271   5.482   5.077  1.3795 -0.1737 -0.8785
  938SOL    HW3 3519   1.340   5.470   5.211 -0.2665  0.5815  0.0645
  938SOL    MW4 3520   1.320   5.517   5.140 -0.2577  0.5615  0.0491
  939SOL     OW 3521   1.154   0.611   4.703  0.0260 -0.6938 -0.2476
  939SOL    HW2 3522   1.182   0.523   4.726  0.1960 -0.3379  0.9716
  939SOL    HW3 3523   1.065   0.618   4.735  0.4929  0.0292  0.9727
  939SOL    MW4 3524   1.146   0.600   4.710  0.1100 -0.5514  0.0743
  940SOL     OW 3525   4.611   6.236   3.392  0.1898  0.8723  0.0721
  940SOL    HW2 3526   4.707   6.235   3.389  0.2493 -0.3000  1.3918
  940SOL    HW3 3527   4.584   6.156   3.347 -0.1788  1.1285 -0.1740
  940SOL    MW4 3528   4.620   6.225   3.385  0.1490  0.7514  0.2137
  941SOL     OW 3529   4.612   5.571   3.496 -0.1189  0.2361  0.0301
  941SOL    HW2 3530   4.552   5.502   3.466  1.2730 -0.9219 -0.1963
  941SOL    HW3 3531   4.644   5.540   3.580 -0.8234  1.4912  0.7928
  941SOL    MW4 3532   4.608   5.558   3.503 -0.0282  0.2489  0.1009
  942SOL     OW 3533   0.461   2.135   2.070  0.0383  0.1652 -0.2952
  942SOL    HW2 3534   0.488   2.187   2.146  0.4366 -0.3496 -0.0704
  942SOL    HW3 3535   0.425   2.054   2.107 -2.2000  0.9644 -0.5802
  942SOL    MW4 3536   0.460   2.131   2.085 -0.2045  0.2027 -0.3032
  943SOL     OW 3537   5.500   4.093   0.316 -0.2387 -0.1815  0.2156
  943SOL    HW2 3538   5.453   4.016   0.349 -1.1740 -0.3199 -1.3738
  943SOL    HW3 3539   5.442   4.167   0.337  0.3265  0.0399  1.0831
  943SOL    MW4 3540   5.486   4.093   0.323 -0.2875 -0.1706  0.1204
  944SOL     OW 3541   3.166   0.286   1.121  0.6344 -0.5245 -0.1799
  944SOL    HW2 3542   3.182   0.303   1.029 -0.1329  1.4756 -0.0098
  944SOL    HW3 3543   3.070   0.285   1.129  0.5953 -3.5192  0.1855
  944SOL    MW4 3544   3.155   0.288   1.110  0.5280 -0.6557 -0.1092
  945SOL     OW 3545   4.956   5.348   4.333  0.3081 -0.6085  0.1061
  945SOL    HW2 3546   4.879   5.294   4.353  0.5189 -0.9265  0.0655
  945SOL    HW3 3547   5.002   5.356   4.416  0.5572 -0.9370  0.0019
  945SOL    MW4 3548   4.952   5.342   4.346  0.3688 -0.6938  0.0870
  946SOL     OW 3549   3.642   0.392   2.447 -0.7690  0.4914  0.3121
  946SOL    HW2 3550   3.620   0.338   2.523  1.1009  0.1731  0.6890
  946SOL    HW3 3551   3.574   0.373   2.383 -0.8687 -1.3820  0.9002
  946SOL    MW4 3552   3.630   0.382   2.449 -0.5354  0.2022  0.4394
  947SOL     OW 3553   2.345   0.057   6.190  0.4368 -0.0426  1.0417
  947SOL    HW2 3554   2.256   0.092   6.195  0.5412  0.4903 -0.4113
  947SOL    HW3 3555   2.341  -0.007   6.119  1.2631  0.1523  0.8154
  947SOL    MW4 3556   2.333   0.053   6.181  0.5596  0.0534  0.8201
  948SOL     OW 3557   5.934   2.764   0.915 -0.4022  0.3296  0.1979
  948SOL    HW2 3558   5.959   2.733   1.002 -0.9310  1.8119  0.9079
  948SOL    HW3 3559   5.844   2.796   0.925 -0.9853 -0.7247 -1.2330
  948SOL    MW4 3560   5.925   2.764   0.927 -0.5489  0.3860  0.1028
  949SOL     OW 3561   4.344   5.560   3.755  0.5146  0.5142  0.3995
  949SOL    HW2 3562   4.301   5.500   3.817 -1.5155 -0.2534 -1.6101
  949SOL    HW3 3563   4.437   5.550   3.773  0.1160 -1.4710  1.7244
  949SOL    MW4 3564   4.350   5.550   3.766  0.1942  0.1510  0.3092
  950SOL     OW 3565   1.910   2.689   5.569 -0.0813  0.0645 -0.5179
  950SOL    HW2 3566   1.877   2.721   5.652  0.1927 -3.2198  1.0140
  950SOL    HW3 3567   2.004   2.674   5.584  0.4646  1.4345 -2.1646
  950SOL    MW4 3568   1.918   2.691   5.582  0.0269 -0.1881 -0.5330
  951SOL     OW 3569   2.450   0.858   1.023  0.7054  0.5561  0.0748
  951SOL    HW2 3570   2.387   0.881   1.092 -1.3205  0.6296 -1.6995
  951SOL    HW3 3571   2.471   0.766   1.041  0.3294  0.6135  0.8752
  951SOL    MW4 3572   2.444   0.849   1.035  0.3885  0.5733 -0.0537
  952SOL     OW 3573   5.475   3.012   5.969 -0.1604 -0.4105 -0.4191
  952SOL    HW2 3574   5.452   2.919   5.957  0.3569 -0.7117  0.8230
  952SOL    HW3 3575   5.520   3.035   5.888 -0.5914 -1.1422 -0.8869
  952SOL    MW4 3576   5.478   3.003   5.957 -0.1490 -0.5468 -0.3169
  953SOL     OW 3577   6.142   0.709   0.068 -0.1880  0.2611  0.5067
  953SOL    HW2 3578   6.231   0.714   0.102  0.1319 -0.6749 -0.1204
  953SOL    HW3 3579   6.099   0.642   0.121  0.1719 -0.8667 -0.5663
  953SOL    MW4 3580   6.148   0.701   0.079 -0.0983 -0.0112  0.2824
  954SOL     OW 3581   2.663   4.667   4.204  0.7645 -0.3364 -0.0448
  954SOL    HW2 3582   2.643   4.655   4.111  1.7996 -1.6531 -0.1299
  954SOL    HW3 3583   2.741   4.722   4.205  0.8509 -0.4593  0.0349
  954SOL    MW4 3584   2.671   4.673   4.192  0.9125 -0.5264 -0.0456
  955SOL     OW 3585   2.835   5.302   1.744 -0.2971  0.0799 -0.6107
  955SOL    HW2 3586   2.767   5.286   1.809 -0.2594 -2.2159 -1.0805
  955SOL    HW3 3587   2.901   5.235   1.761 -0.0718 -0.2806 -2.6958
  955SOL    MW4 3588   2.835   5.291   1.755 -0.2624 -0.2706 -0.9478
  956SOL     OW 3589   4.851   2.616   4.401 -0.0975 -0.1116 -0.3263
  956SOL    HW2 3590   4.916   2.588   4.464 -0.0981  2.0424  0.7211
  956SOL    HW3 3591   4.822   2.702   4.432 -2.1479 -0.2080 -1.7291
  956SOL    MW4 3592   4.856   2.624   4.413 -0.3681  0.1599 -0.3732
  957SOL     OW 3593   0.289   1.698   1.019 -0.1058 -0.5893 -0.1149
  957SOL    HW2 3594   0.355   1.740   0.964  1.2329 -0.9225  1.1581
  957SOL    HW3 3595   0.340   1.650   1.085 -1.4285 -5.0500 -1.9701
  957SOL    MW4 3596   0.304   1.697   1.021 -0.1037 -1.2218 -0.1917
  958SOL     OW 3597   1.643   4.760   2.179  0.4194  0.0716 -0.0183
  958SOL    HW2 3598   1.622   4.771   2.086  0.0294 -2.6347 -0.3517
  958SOL    HW3 3599   1.723   4.810   2.192  0.7261  0.1451 -1.9373
  958SOL    MW4 3600   1.651   4.768   2.169  0.4084 -0.2758 -0.3155
  959SOL     OW 3601   3.304   3.419   1.424  0.3206 -0.0202  0.6708
  959SOL    HW2 3602   3.286   3.381   1.339  0.0280 -0.1658  0.7985
  959SOL    HW3 3603   3.400   3.423   1.428  0.3236  1.2014 -0.1947
  959SOL    MW4 3604   3.315   3.415   1.414  0.2824  0.1218  0.5735
  960SOL     OW 3605   1.293   1.333   5.297  0.3195 -0.6692  0.1831
  960SOL    HW2 3606   1.373   1.386   5.300 -0.7004  0.9058  2.3641
  960SOL    HW3 3607   1.235   1.379   5.236  0.1664 -0.4281  0.5137
  960SOL    MW4 3608   1.296   1.346   5.289  0.1647 -0.4296  0.5145
  961SOL     OW 3609   2.004   0.221   2.873  0.2357 -0.1597  0.5677
  961SOL    HW2 3610   2.074   0.279   2.906 -0.5044  2.6595 -2.2646
  961SOL    HW3 3611   2.043   0.179   2.796 -0.8367  0.9292 -0.6393
  961SOL    MW4 3612   2.019   0.223   2.867 -0.0034  0.3559  0.0348
  962SOL     OW 3613   1.276   1.965   0.158  0.1906  0.5989 -0.7226
  962SOL    HW2 3614   1.298   1.876   0.187  0.9839  0.7563 -0.8288
  962SOL    HW3 3615   1.224   2.001   0.230 -0.2528  0.0085 -0.7329
  962SOL    MW4 3616   1.272   1.958   0.171  0.2368  0.5417 -0.7380
  963SOL     OW 3617   4.844   4.468   1.879  0.2879  0.6968  0.4735
  963SOL    HW2 3618   4.889   4.464   1.795  1.1665 -0.1941  0.9687
  963SOL    HW3 3619   4.863   4.384   1.921 -1.0981  0.6504  1.0807
  963SOL    MW4 3620   4.852   4.456   1.874  0.2209  0.5731  0.6190
  964SOL     OW 3621   0.507   1.712   0.834  0.2037 -0.5425 -0.0987
  964SOL    HW2 3622   0.521   1.617   0.839 -1.8593 -0.8523  0.4184
  964SOL    HW3 3623   0.454   1.724   0.755 -0.2549  0.0806  0.3001
  964SOL    MW4 3624   0.502   1.701   0.824 -0.1290 -0.5012  0.0221
  965SOL     OW 3625   0.738   4.314   0.038 -0.0531 -0.0403 -0.2573
  965SOL    HW2 3626   0.654   4.327  -0.005 -0.4294  1.4913  0.8504
  965SOL    HW3 3627   0.724   4.241   0.098 -0.5643  0.1231 -0.1725
  965SOL    MW4 3628   0.725   4.306   0.040 -0.1702  0.1833 -0.1000
  966SOL     OW 3629   1.942   6.377   2.109 -0.2182 -0.4474 -0.4513
  966SOL    HW2 3630   1.986   6.323   2.174  0.2461 -0.5895 -0.8811
  966SOL    HW3 3631   1.864   6.328   2.084  0.6493 -1.3514 -1.4883
  966SOL    MW4 3632   1.937   6.364   2.114 -0.0425 -0.5854 -0.6448
  967SOL     OW 3633   5.141   0.638   4.488  0.6528  0.0096 -0.3496
  967SOL    HW2 3634   5.155   0.599   4.574 -0.1749 -0.6922 -0.5227
  967SOL    HW3 3635   5.090   0.573   4.439 -0.5708  1.1967 -0.7245
  967SOL    MW4 3636   5.136   0.624   4.493  0.3821  0.0736 -0.4219
  968SOL     OW 3637   5.790   2.106   1.839 -0.0658 -0.0433  0.1115
  968SOL    HW2 3638   5.840   2.133   1.762 -0.5240  2.0530  0.4875
  968SOL    HW3 3639   5.798   2.179   1.900 -2.0790 -0.4169  0.8996
  968SOL    MW4 3640   5.798   2.119   1.837 -0.3919  0.1840  0.2651
  969SOL     OW 3641   4.197   3.778   5.760 -0.4826  0.3524 -0.0277
  969SOL    HW2 3642   4.218   3.793   5.668  0.0110 -2.2869 -0.4267
  969SOL    HW3 3643   4.114   3.729   5.757 -0.5450  0.3935  0.9424
  969SOL    MW4 3644   4.189   3.773   5.747 -0.4257  0.0096  0.0477
  970SOL     OW 3645   4.669   3.950   4.731  0.4505  0.3197  0.1461
  970SOL    HW2 3646   4.588   3.993   4.704  1.4050  1.3470 -1.1741
  970SOL    HW3 3647   4.688   3.887   4.661  0.9156  0.2313  0.3446
  970SOL    MW4 3648   4.661   3.947   4.718  0.6378  0.4436 -0.0019
  971SOL     OW 3649   1.354   1.467   0.370 -0.0756 -0.5148  0.1438
  971SOL    HW2 3650   1.407   1.387   0.372 -0.9129 -1.1206 -0.8350
  971SOL    HW3 3651   1.287   1.449   0.304 -0.6437  0.7733  0.3514
  971SOL    MW4 3652   1.352   1.454   0.361 -0.2610 -0.4248  0.0421
  972SOL     OW 3653   0.142   3.592   0.137  0.4027 -0.5911 -0.3673
  972SOL    HW2 3654   0.162   3.570   0.228  0.0676 -1.3559 -0.4717
  972SOL    HW3 3655   0.060   3.640   0.142 -1.1557 -3.0695 -0.4682
  972SOL    MW4 3656   0.134   3.595   0.150  0.1529 -1.0190 -0.3944
  973SOL     OW 3657   2.181   5.814   2.144  0.4363  0.0360  0.1581
  973SOL    HW2 3658   2.167   5.822   2.239 -2.1059  0.2889 -0.1688
  973SOL    HW3 3659   2.161   5.722   2.125  1.2560 -0.0950 -0.1112
  973SOL    MW4 3660   2.176   5.803   2.154  0.2090  0.0521  0.0795
  974SOL     OW 3661   0.025   5.361   0.355 -0.1321  0.1576 -0.4658
  974SOL    HW2 3662   0.042   5.447   0.317 -2.4454  1.4109  1.1282
  974SOL    HW3 3663   0.085   5.355   0.429 -0.3687  0.6393 -0.2349
  974SOL    MW4 3664   0.035   5.371   0.360 -0.4685  0.3865 -0.2250
  975SOL     OW 3665   4.623   5.996   2.916 -0.2967 -0.0386  0.3576
  975SOL    HW2 3666   4.626   5.938   2.840  0.0683  0.4636 -0.0265
  975SOL    HW3 3667   4.539   5.978   2.957  0.3740 -1.8265  1.0531
  975SOL    MW4 3668   4.613   5.986   2.911 -0.1600 -0.2083  0.3987
  976SOL     OW 3669   1.836   1.172   4.915 -0.2556  0.1567 -0.1295
  976SOL    HW2 3670   1.910   1.200   4.860 -0.7696  0.7671 -0.5284
  976SOL    HW3 3671   1.783   1.117   4.857 -0.8756  0.9173 -0.3005
  976SOL    MW4 3672   1.839   1.168   4.900 -0.4052  0.3376 -0.2047
  977SOL     OW 3673   2.230   1.577   1.216  0.0305  0.5687  0.1677
  977SOL    HW2 3674   2.160   1.543   1.271 -0.8001 -0.0277 -1.2171
  977SOL    HW3 3675   2.272   1.498   1.180  0.2731  0.9582 -0.4028
  977SOL    MW4 3676   2.226   1.562   1.219 -0.0470  0.5414 -0.0903
  978SOL     OW 3677   4.396   3.516   2.244  0.7353  0.1917 -0.0646
  978SOL    HW2 3678   4.355   3.581   2.188 -0.6316  0.0898  0.7588
  978SOL    HW3 3679   4.417   3.564   2.325 -0.6476 -0.4321  0.7010
  978SOL    MW4 3680   4.393   3.531   2.247  0.3725  0.0959  0.1450
  979SOL     OW 3681   6.192   3.738   1.527 -0.7200  0.8982  0.2868
  979SOL    HW2 3682   6.144   3.681   1.467  0.4511 -2.2370  2.1061
  979SOL    HW3 3683   6.133   3.749   1.602 -0.6175  1.4541  0.2935
  979SOL    MW4 3684   6.178   3.732   1.529 -0.5520  0.5579  0.5278
  980SOL     OW 3685   1.616   3.137   1.570  0.3305 -0.1694 -0.6484
  980SOL    HW2 3686   1.539   3.189   1.545  0.1738 -0.8997 -1.7268
  980SOL    HW3 3687   1.597   3.049   1.539  1.3745 -0.4885 -0.4293
  980SOL    MW4 3688   1.603   3.132   1.563  0.4476 -0.3079 -0.7617
  981SOL     OW 3689   0.469   3.164   5.381  0.8230  0.5723  0.7606
  981SOL    HW2 3690   0.529   3.194   5.449  1.9560 -0.9397  0.4854
  981SOL    HW3 3691   0.520   3.103   5.328 -0.8858 -0.6500  0.4053
  981SOL    MW4 3692   0.483   3.160   5.383  0.7471  0.2116  0.6774
  982SOL     OW 3693   6.326   5.391   4.372  0.7011 -0.7555 -0.2623
  982SOL    HW2 3694   6.405   5.339   4.352  0.6861 -0.6359 -0.6561
  982SOL    HW3 3695   6.261   5.359   4.309  0.1743 -1.4483  0.6253
  982SOL    MW4 3696   6.328   5.379   4.361  0.6296 -0.8311 -0.1972
  983SOL     OW 3697   2.426   1.248   4.331 -0.2832  0.0923 -0.3179
  983SOL    HW2 3698   2.377   1.330   4.323  0.9458  0.9279  0.3925
  983SOL    HW3 3699   2.509   1.273   4.372 -0.2519 -1.6591  0.7864
  983SOL    MW4 3700   2.431   1.262   4.335 -0.1169 -0.0286 -0.0785
  984SOL     OW 3701   0.363   6.144   0.961 -0.1990  0.0856  0.5760
  984SOL    HW2 3702   0.439   6.162   1.017  0.3247 -0.1998 -0.0379
  984SOL    HW3 3703   0.400   6.111   0.879 -0.8985  1.2766 -0.2634
  984SOL    MW4 3704   0.378   6.142   0.958 -0.2222  0.2051  0.3843
  985SOL     OW 3705   0.242   3.948   3.633  0.0125 -0.2087  0.2519
  985SOL    HW2 3706   0.336   3.964   3.620  0.6775 -1.9250  2.4520
  985SOL    HW3 3707   0.213   4.019   3.690 -0.1519  0.5463 -0.7460
  985SOL    MW4 3708   0.251   3.959   3.639  0.0785 -0.3356  0.4105
  986SOL     OW 3709   0.679   3.013   5.281  0.3075 -0.0749  0.2852
  986SOL    HW2 3710   0.764   3.036   5.319  0.2656 -0.6632  0.7385
  986SOL    HW3 3711   0.698   2.941   5.222  0.2513  0.3503 -0.2607
  986SOL    MW4 3712   0.693   3.007   5.279  0.2946 -0.0964  0.2730
  987SOL     OW 3713   1.207   2.278   3.370  0.1088 -0.1790 -0.0586
  987SOL    HW2 3714   1.192   2.221   3.445 -1.1393 -5.7151 -3.8825
  987SOL    HW3 3715   1.120   2.306   3.344  0.5033  1.4118  0.2133
  987SOL    MW4 3716   1.194   2.274   3.376 -0.0038 -0.6996 -0.5272
  988SOL     OW 3717   0.114   6.347   5.562  0.0226 -0.1268 -0.1260
  988SOL    HW2 3718   0.205   6.376   5.559  0.4736 -1.4917 -0.8522
  988SOL    HW3 3719   0.113   6.279   5.630 -1.2050  2.0737  2.2229
  988SOL    MW4 3720   0.126   6.342   5.571 -0.0799 -0.0165  0.0881
  989SOL     OW 3721   1.586   1.292   1.346  0.6813 -0.1831 -0.6152
  989SOL    HW2 3722   1.603   1.370   1.294 -0.8291  0.0661 -0.7812
  989SOL    HW3 3723   1.598   1.321   1.437  0.1420  0.2441 -0.6770
  989SOL    MW4 3724   1.590   1.306   1.351  0.4109 -0.0938 -0.6453
  990SOL     OW 3725   0.027   2.696   5.290 -0.0777  0.6342 -0.4445
  990SOL    HW2 3726  -0.011   2.618   5.250  3.0711 -0.6782 -1.2021
  990SOL    HW3 3727   0.058   2.749   5.217  1.7314  0.3969  0.0980
  990SOL    MW4 3728   0.026   2.693   5.275  0.5764  0.4297 -0.4729
  991SOL     OW 3729   5.497   6.366   3.445  0.1185  0.1816  0.1310
  991SOL    HW2 3730   5.500   6.360   3.350  0.5082 -2.2144  0.2310
  991SOL    HW3 3731   5.574   6.418   3.469  0.9276 -0.5548 -0.8018
  991SOL    MW4 3732   5.507   6.372   3.436  0.2767 -0.2317  0.0211
  992SOL     OW 3733   2.288   6.102   4.069  0.1771 -0.5931 -0.4348
  992SOL    HW2 3734   2.373   6.093   4.114  0.4279 -0.7934 -0.9418
  992SOL    HW3 3735   2.296   6.184   4.020  0.0591 -0.5906 -0.4495
  992SOL    MW4 3736   2.300   6.111   4.069  0.1946 -0.6192 -0.5036
  993SOL     OW 3737   0.921   1.074   6.285 -0.1998  0.0147 -0.0627
  993SOL    HW2 3738   0.988   1.014   6.318 -1.7209 -1.3887  0.5552
  993SOL    HW3 3739   0.898   1.128   6.362  0.1666  0.4701 -0.2654
  993SOL    MW4 3740   0.927   1.073   6.300 -0.3521 -0.1104 -0.0079
  994SOL     OW 3741   0.757   0.146   4.987  0.2017  0.6580 -0.1100
  994SOL    HW2 3742   0.751   0.238   5.013 -0.6086  1.1112 -1.7251
  994SOL    HW3 3743   0.851   0.126   4.993  0.3284  1.4288  0.7275
  994SOL    MW4 3744   0.769   0.156   4.991  0.1115  0.8195 -0.2126
  995SOL     OW 3745   5.453   5.212   1.334  0.0016 -0.5204 -0.0480
  995SOL    HW2 3746   5.429   5.139   1.392  1.9719  0.1952  1.7794
  995SOL    HW3 3747   5.445   5.290   1.389  1.0001  0.2920 -1.0155
  995SOL    MW4 3748   5.449   5.213   1.349  0.3933 -0.3188  0.0654
  996SOL     OW 3749   6.047   0.162   5.580 -0.5230  0.4215  0.0465
  996SOL    HW2 3750   6.073   0.085   5.631  0.6229  0.9804  0.3538
  996SOL    HW3 3751   5.984   0.208   5.636 -0.7230  0.0353  0.1382
  996SOL    MW4 3752   6.042   0.158   5.594 -0.3982  0.4443  0.0991
  997SOL     OW 3753   4.582   0.931   6.056 -0.0200 -0.0385 -0.0830
  997SOL    HW2 3754   4.621   0.980   6.128 -0.3079 -0.0031  0.0486
  997SOL    HW3 3755   4.526   0.866   6.098  1.0003 -1.0381 -0.2268
  997SOL    MW4 3756   4.580   0.929   6.071  0.0766 -0.1657 -0.0846
  998SOL     OW 3757   1.480   2.095   1.926 -0.1717 -0.2697  0.6610
  998SOL    HW2 3758   1.528   2.069   2.005 -1.2158 -0.7654  1.1425
  998SOL    HW3 3759   1.417   2.161   1.956  0.0136  0.1859  0.0763
  998SOL    MW4 3760   1.478   2.100   1.940 -0.2850 -0.2750  0.6474
  999SOL     OW 3761   2.800   0.314   0.723 -0.1982 -0.0229 -0.2813
  999SOL    HW2 3762   2.773   0.257   0.795 -1.0157  0.5238 -0.1426
  999SOL    HW3 3763   2.880   0.356   0.755 -0.8626  0.6370  0.5424
  999SOL    MW4 3764   2.807   0.312   0.737 -0.3937  0.1363 -0.1543
 1000SOL     OW 3765   5.973   4.457   1.863  0.8822 -0.4330  0.1904
 1000SOL    HW2 3766   5.985   4.400   1.939 -0.6155  0.2840  0.9994
 1000SOL    HW3 3767   6.059   4.496   1.848  0.8032  0.9220  2.7878
 1000SOL    MW4 3768   5.986   4.454   1.871  0.6741 -0.1596  0.6398
 1001SOL     OW 3769   1.509   2.197   3.894  0.1367  0.0274  0.0798
 1001SOL    HW2 3770   1.542   2.108   3.884 -1.0024 -0.2266 -2.3875
 1001SOL    HW3 3771   1.417   2.186   3.919  0.0647  0.5025  0.0391
 1001SOL    MW4 3772   1.501   2.184   3.896 -0.0231  0.0566 -0.2511
 1002SOL     OW 3773   5.255   4.427   2.258  0.1660  0.1656  0.1094
 1002SOL    HW2 3774   5.183   4.488   2.276  0.0268  0.1145 -0.2667
 1002SOL    HW3 3775   5.316   4.477   2.205  0.2908  0.1321  0.2214
 1002SOL    MW4 3776   5.253   4.441   2.253  0.1641  0.1544  0.0745
 1003SOL     OW 3777   4.839   2.726   1.061 -0.2256 -0.2563 -0.2208
 1003SOL    HW2 3778   4.858   2.635   1.039 -0.5530 -0.3572 -0.0878
 1003SOL    HW3 3779   4.855   2.732   1.155  1.3238  0.2106 -0.4836
 1003SOL    MW4 3780   4.844   2.715   1.071 -0.0644 -0.2080 -0.2379
 1004SOL     OW 3781   5.104   2.056   2.279 -0.8468  0.0357  0.5683
 1004SOL    HW2 3782   5.167   2.115   2.237 -1.3823  0.2400  0.0441
 1004SOL    HW3 3783   5.033   2.114   2.308 -1.1701 -0.2997  0.4423
 1004SOL    MW4 3784   5.103   2.072   2.278 -0.9601  0.0184  0.4825
 1005SOL     OW 3785   1.059   0.147   0.142  0.2476  0.2383  0.0704
 1005SOL    HW2 3786   0.981   0.137   0.086 -1.2051 -0.3474  2.0758
 1005SOL    HW3 3787   1.126   0.095   0.098 -1.4417 -1.9652 -0.1302
 1005SOL    MW4 3788   1.057   0.138   0.129 -0.1670 -0.1297  0.3085
 1006SOL     OW 3789   2.482   2.892   3.215  0.0193  0.1994 -0.3128
 1006SOL    HW2 3790   2.408   2.832   3.221 -1.8342  2.5405  2.6020
 1006SOL    HW3 3791   2.544   2.861   3.281  0.7048 -0.4653 -1.2344
 1006SOL    MW4 3792   2.480   2.880   3.224 -0.1348  0.4206 -0.0498
 1007SOL     OW 3793   3.274   3.612   3.629 -0.0427 -0.1010  0.3858
 1007SOL    HW2 3794   3.188   3.610   3.587  0.4612  2.2674 -0.9524
 1007SOL    HW3 3795   3.257   3.585   3.720 -2.2643  0.6474  0.2578
 1007SOL    MW4 3796   3.260   3.609   3.636 -0.2693  0.3102  0.1924
 1008SOL     OW 3797   2.375   6.264   1.535  0.8068 -0.3152 -0.0533
 1008SOL    HW2 3798   2.411   6.249   1.622 -0.6748 -0.0345  0.6483
 1008SOL    HW3 3799   2.344   6.178   1.506  0.4160 -0.2341  0.1206
 1008SOL    MW4 3800   2.375   6.251   1.543  0.5597 -0.2675  0.0622
 1009SOL     OW 3801   1.220   5.832   2.036 -0.0289 -0.5659 -0.5184
 1009SOL    HW2 3802   1.212   5.822   1.941 -1.1778 -0.4784 -0.4423
 1009SOL    HW3 3803   1.196   5.746   2.071 -2.5216  0.1910 -0.1986
 1009SOL    MW4 3804   1.216   5.819   2.028 -0.5093 -0.4545 -0.4661
 1010SOL     OW 3805   0.490   5.049   2.835 -0.2511  0.0545  0.1371
 1010SOL    HW2 3806   0.414   5.085   2.789 -0.2618 -0.3270 -0.1498
 1010SOL    HW3 3807   0.458   5.033   2.924 -0.3641  0.3583  0.1531
 1010SOL    MW4 3808   0.476   5.051   2.840 -0.2674  0.0443  0.1013
 1011SOL     OW 3809   3.194   1.505   1.883  0.2222 -0.0389 -0.4482
 1011SOL    HW2 3810   3.226   1.429   1.931 -1.7821 -1.2301 -0.8876
 1011SOL    HW3 3811   3.113   1.530   1.928  0.3436  1.2471 -0.8950
 1011SOL    MW4 3812   3.188   1.498   1.895 -0.0262 -0.0264 -0.5651
 1012SOL     OW 3813   6.260   0.359   6.409  0.1045 -0.3506 -0.1239
 1012SOL    HW2 3814   6.288   0.448   6.384 -4.1769  1.2322 -0.2247
 1012SOL    HW3 3815   6.249   0.314   6.325  2.4900 -1.1448 -0.0648
 1012SOL    MW4 3816   6.262   0.365   6.394 -0.1456 -0.2466 -0.1294
 1013SOL     OW 3817   0.462   1.545   6.200  0.4813  0.6271 -0.4494
 1013SOL    HW2 3818   0.379   1.576   6.164 -0.3297 -0.6717  0.2024
 1013SOL    HW3 3819   0.528   1.574   6.137 -0.0966  3.8816  0.2708
 1013SOL    MW4 3820   0.459   1.553   6.187  0.2980  0.8851 -0.2684
 1014SOL     OW 3821   0.230   6.410   1.286  0.0320  0.0348  0.0101
 1014SOL    HW2 3822   0.262   6.479   1.228 -0.2866 -0.4250 -0.7253
 1014SOL    HW3 3823   0.296   6.340   1.278 -0.0264 -0.0414  0.1853
 1014SOL    MW4 3824   0.243   6.410   1.277 -0.0177 -0.0359 -0.0638
 1015SOL     OW 3825   3.326   5.825   3.628 -0.2565  0.2280  0.4974
 1015SOL    HW2 3826   3.236   5.851   3.649 -0.1060  0.8060  0.4342
 1015SOL    HW3 3827   3.322   5.730   3.620 -0.8098  0.2242  0.7624
 1015SOL    MW4 3828   3.314   5.816   3.630 -0.3096  0.3037  0.5241
 1016SOL     OW 3829   3.938   3.119   1.294  0.0420 -0.4113 -0.3328
 1016SOL    HW2 3830   4.016   3.115   1.349  0.3742 -0.9477 -0.8266
 1016SOL    HW3 3831   3.868   3.144   1.353  1.0225  2.8769 -0.3286
 1016SOL    MW4 3832   3.939   3.122   1.309  0.2152 -0.0483 -0.3974
 1017SOL     OW 3833   3.213   3.924   2.483 -0.1233  0.1742  0.2988
 1017SOL    HW2 3834   3.295   3.885   2.513 -0.2454 -0.3075  0.0132
 1017SOL    HW3 3835   3.152   3.851   2.478 -1.2924  0.8318  2.8400
 1017SOL    MW4 3836   3.216   3.910   2.487 -0.2937  0.1974  0.5964
 1018SOL     OW 3837   0.196   1.347   6.354  0.0681 -0.2086  0.2028
 1018SOL    HW2 3838   0.250   1.387   6.421 -0.5205  0.2271  0.4198
 1018SOL    HW3 3839   0.219   1.254   6.357 -1.6554 -0.6399  2.6610
 1018SOL    MW4 3840   0.206   1.340   6.363 -0.2369 -0.2080  0.5557
 1019SOL     OW 3841   2.996   3.894   0.174 -0.5639  0.1454 -0.1450
 1019SOL    HW2 3842   2.928   3.924   0.114  1.0275  1.3479 -1.4688
 1019SOL    HW3 3843   3.050   3.972   0.190  1.6392 -1.1441 -0.7755
 1019SOL    MW4 3844   2.994   3.908   0.168 -0.0633  0.1339 -0.4028
 1020SOL     OW 3845   5.548   2.509   2.240 -0.5593 -0.0559 -0.2290
 1020SOL    HW2 3846   5.574   2.443   2.305  0.3123  0.3968 -0.1050
 1020SOL    HW3 3847   5.492   2.570   2.289  0.2681  0.4019  0.1653
 1020SOL    MW4 3848   5.544   2.509   2.255 -0.3352  0.0642 -0.1606
 1021SOL     OW 3849   0.126   2.620   1.785 -0.6091 -0.5919  0.5143
 1021SOL    HW2 3850   0.151   2.709   1.760 -2.6380  0.1327  0.8355
 1021SOL    HW3 3851   0.077   2.587   1.710  3.5678 -3.1554 -1.4408
 1021SOL    MW4 3852   0.123   2.627   1.772 -0.3257 -0.8345  0.2987
 1022SOL     OW 3853   2.033   6.086   1.234 -0.1170  0.5505  0.3512
 1022SOL    HW2 3854   1.963   6.115   1.176  0.3713  2.2055  0.5406
 1022SOL    HW3 3855   2.102   6.055   1.176  0.5840  2.6880 -0.0105
 1022SOL    MW4 3856   2.033   6.085   1.219  0.0399  1.0509  0.3285
 1023SOL     OW 3857   3.403   1.002   5.609 -0.4609 -0.6361  0.7046
 1023SOL    HW2 3858   3.309   0.986   5.614 -0.3896 -1.0826  0.6854
 1023SOL    HW3 3859   3.442   0.914   5.606 -0.0003 -0.4688  1.4712
 1023SOL    MW4 3860   3.396   0.988   5.609 -0.3907 -0.6729  0.8032
 1024SOL     OW 3861   3.371   4.703   3.331 -0.0107  0.1781 -0.4408
 1024SOL    HW2 3862   3.338   4.644   3.398  1.7094  1.2867  1.4981
 1024SOL    HW3 3863   3.306   4.773   3.325  0.1973  0.4864  0.6985
 1024SOL    MW4 3864   3.358   4.705   3.339  0.2437  0.3651 -0.0347
 1025SOL     OW 3865   3.984   1.353   1.628 -0.1861  0.6017 -0.5818
 1025SOL    HW2 3866   4.016   1.434   1.669 -3.8860  1.4527  1.0437
 1025SOL    HW3 3867   3.967   1.294   1.702 -0.5867 -0.4483 -1.4949
 1025SOL    MW4 3868   3.986   1.356   1.644 -0.7271  0.5755 -0.4878
 1026SOL     OW 3869   5.412   3.385   1.553 -0.1096 -0.7253  0.2884
 1026SOL    HW2 3870   5.420   3.290   1.551  0.0201 -0.8823  3.5127
 1026SOL    HW3 3871   5.351   3.405   1.481 -0.0224 -3.1858 -0.5625
 1026SOL    MW4 3872   5.405   3.375   1.543 -0.0810 -1.0706  0.6016
 1027SOL     OW 3873   3.634   1.600   0.410 -0.2210  0.0933 -0.0236
 1027SOL    HW2 3874   3.594   1.513   0.400  0.2085 -0.3825  1.8867
 1027SOL    HW3 3875   3.582   1.643   0.478  1.1987  0.2570  1.0072
 1027SOL    MW4 3876   3.622   1.594   0.417  0.0230  0.0521  0.3645
 1028SOL     OW 3877   4.939   0.408   1.269 -0.4971  0.0915  0.2149
 1028SOL    HW2 3878   4.869   0.356   1.229  0.4654 -1.5168  0.5595
 1028SOL    HW3 3879   4.971   0.355   1.341  1.5766  0.4375 -0.3798
 1028SOL    MW4 3880   4.934   0.394   1.273 -0.0965 -0.0750  0.1819
 1029SOL     OW 3881   5.852   5.385   0.891 -0.1299 -0.0391 -0.0671
 1029SOL    HW2 3882   5.887   5.348   0.810 -0.2881 -0.6514  0.1414
 1029SOL    HW3 3883   5.925   5.434   0.928 -0.5331  1.7304 -1.4501
 1029SOL    MW4 3884   5.866   5.387   0.885 -0.2040  0.1136 -0.2221
 1030SOL     OW 3885   3.198   0.029   4.965  0.4503  0.3675  0.0228
 1030SOL    HW2 3886   3.180  -0.061   4.992  0.0183  0.3840 -0.2080
 1030SOL    HW3 3887   3.293   0.034   4.962  0.4872  0.0676  0.5422
 1030SOL    MW4 3888   3.208   0.018   4.968  0.3982  0.3301  0.0609
 1031SOL     OW 3889   3.263   3.036   6.240  0.2344 -0.1574  0.0470
 1031SOL    HW2 3890   3.345   3.013   6.197  0.4971 -2.0961  1.4351
 1031SOL    HW3 3891   3.288   3.093   6.312  0.2334  0.1385 -0.1880
 1031SOL    MW4 3892   3.277   3.040   6.244  0.2689 -0.3742  0.1991
 1032SOL     OW 3893   4.745   1.414   0.024 -0.2962  0.0899  0.6090
 1032SOL    HW2 3894   4.819   1.374  -0.021 -0.4817  2.8020 -2.5156
 1032SOL    HW3 3895   4.670   1.397  -0.033 -1.0023  1.8263  0.9452
 1032SOL    MW4 3896   4.745   1.407   0.011 -0.4138  0.6768  0.2411
 1033SOL     OW 3897   1.970   1.755   3.998 -0.2852  0.1494  0.5662
 1033SOL    HW2 3898   2.028   1.792   3.932 -2.7491  1.0382 -1.2497
 1033SOL    HW3 3899   1.975   1.816   4.072  1.5488 -0.1646  0.7299
 1033SOL    MW4 3900   1.978   1.768   3.999 -0.3683  0.2252  0.3482
 1034SOL     OW 3901   1.805   4.980   6.316 -0.4081  0.0713  0.1078
 1034SOL    HW2 3902   1.866   5.021   6.255 -0.5756  1.1856  0.6529
 1034SOL    HW3 3903   1.801   5.041   6.390 -1.2141 -0.5993  0.6370
 1034SOL    MW4 3904   1.813   4.993   6.318 -0.5366  0.1298  0.2495
 1035SOL     OW 3905   2.200   3.269   4.095 -0.7043 -0.0889  0.2095
 1035SOL    HW2 3906   2.205   3.192   4.039 -0.9375  0.2048 -0.2308
 1035SOL    HW3 3907   2.289   3.280   4.129 -0.5237 -0.1942 -0.2204
 1035SOL    MW4 3908   2.212   3.261   4.092 -0.7113 -0.0641  0.0947
 1036SOL     OW 3909   2.742   5.069   6.017  0.0812 -0.2879 -0.0461
 1036SOL    HW2 3910   2.817   5.086   6.074 -1.0974  1.5789  1.0417
 1036SOL    HW3 3911   2.719   4.977   6.034  1.8751 -0.7922 -0.1659
 1036SOL    MW4 3912   2.749   5.059   6.027  0.1624 -0.1081  0.0816
 1037SOL     OW 3913   2.860   4.546   3.819  0.7491 -0.0067  0.5915
 1037SOL    HW2 3914   2.914   4.561   3.896  2.3470 -0.5227 -0.3672
 1037SOL    HW3 3915   2.885   4.458   3.789 -2.5573 -1.4510  1.5639
 1037SOL    MW4 3916   2.870   4.536   3.825  0.5237 -0.2653  0.5933
 1038SOL     OW 3917   4.658   5.253   5.521  0.3349 -0.2151  0.3519
 1038SOL    HW2 3918   4.753   5.264   5.519  0.4224 -0.4665  1.8302
 1038SOL    HW3 3919   4.638   5.238   5.613 -1.1786  0.0975  0.0976
 1038SOL    MW4 3920   4.668   5.252   5.533  0.1467 -0.2070  0.5134
 1039SOL     OW 3921   2.303   1.450   0.041 -0.0169 -0.0519 -0.1021
 1039SOL    HW2 3922   2.339   1.401   0.115  2.5184  4.3809  2.1026
 1039SOL    HW3 3923   2.215   1.476   0.070 -0.2883 -0.9675 -0.0834
 1039SOL    MW4 3924   2.296   1.447   0.055  0.2818  0.4121  0.1912
 1040SOL     OW 3925   4.460   1.166   3.871  0.1671 -0.3236 -0.5581
 1040SOL    HW2 3926   4.367   1.178   3.888 -0.0641  3.2113 -3.1392
 1040SOL    HW3 3927   4.464   1.089   3.815 -1.0642 -0.9829  0.2064
 1040SOL    MW4 3928   4.448   1.157   3.866 -0.0259  0.0558 -0.7978
 1041SOL     OW 3929   4.025   4.745   0.879  0.0209 -0.3751 -0.4248
 1041SOL    HW2 3930   4.002   4.699   0.799  1.6028 -1.0326 -0.5431
 1041SOL    HW3 3931   4.096   4.804   0.854 -2.4216  2.8324 -0.4434
 1041SOL    MW4 3932   4.031   4.747   0.865 -0.0926 -0.0386 -0.4428
 1042SOL     OW 3933   2.666   0.095   1.424 -0.1369 -0.4009 -0.0431
 1042SOL    HW2 3934   2.647   0.001   1.429 -0.0795 -0.7125 -3.4196
 1042SOL    HW3 3935   2.580   0.137   1.433 -0.2889 -0.8218  0.5349
 1042SOL    MW4 3936   2.652   0.088   1.426 -0.1494 -0.4976 -0.4123
 1043SOL     OW 3937   0.543   6.309   0.532  0.4135 -0.2744 -0.5395
 1043SOL    HW2 3938   0.477   6.259   0.485  0.4459 -1.0789  0.2534
 1043SOL    HW3 3939   0.515   6.400   0.523 -0.0346 -0.4898 -1.3861
 1043SOL    MW4 3940   0.530   6.315   0.525  0.3586 -0.4090 -0.5466
 1044SOL     OW 3941   1.062   5.650   1.094 -0.0021 -0.1207  0.4705
 1044SOL    HW2 3942   1.057   5.717   1.162  1.0930  1.1720 -0.6564
 1044SOL    HW3 3943   1.148   5.610   1.106 -0.8070 -1.6950  1.3998
 1044SOL    MW4 3944   1.072   5.654   1.105  0.0361 -0.1578  0.4444
 1045SOL     OW 3945   1.934   1.295   5.778  0.1380 -0.0320  0.3879
 1045SOL    HW2 3946   1.982   1.377   5.792  1.1170 -0.5016 -0.0938
 1045SOL    HW3 3947   1.842   1.321   5.775  0.0515  0.5963  4.0010
 1045SOL    MW4 3948   1.929   1.309   5.780  0.2557 -0.0111  0.8010
 1046SOL     OW 3949   2.832   0.358   5.787 -0.1991 -0.3094 -0.5519
 1046SOL    HW2 3950   2.777   0.374   5.864  1.6882  2.0618  0.4278
 1046SOL    HW3 3951   2.769   0.347   5.716 -2.1037  3.4523  0.2654
 1046SOL    MW4 3952   2.816   0.359   5.788 -0.2014  0.4998 -0.3148
 1047SOL     OW 3953   6.353   4.823   6.306  0.4167 -0.2212  0.1004
 1047SOL    HW2 3954   6.281   4.835   6.243  1.6236 -0.7486 -1.4444
 1047SOL    HW3 3955   6.317   4.763   6.371 -1.1893  1.0828  0.4871
 1047SOL    MW4 3956   6.339   4.816   6.306  0.3641 -0.1187 -0.0524
 1048SOL     OW 3957   0.237   3.711   6.240  0.0658  0.0283 -0.2918
 1048SOL    HW2 3958   0.143   3.700   6.236  0.1569 -0.9984  0.1037
 1048SOL    HW3 3959   0.253   3.760   6.322 -0.2203  1.6683 -1.1798
 1048SOL    MW4 3960   0.227   3.716   6.251  0.0400  0.1092 -0.3568
 1049SOL     OW 3961   3.924   6.070   1.115 -0.0400 -0.3452  0.4533
 1049SOL    HW2 3962   3.891   6.027   1.194 -0.8289 -1.4308 -0.4289
 1049SOL    HW3 3963   3.850   6.069   1.054  0.4855  0.6586 -0.2395
 1049SOL    MW4 3964   3.910   6.064   1.117 -0.0748 -0.3560  0.2455
 1050SOL     OW 3965   3.278   2.962   1.440 -0.0862  0.1550 -0.0609
 1050SOL    HW2 3966   3.268   2.869   1.460 -1.1678  0.2271 -0.1677
 1050SOL    HW3 3967   3.188   2.991   1.423  0.1309  1.4016  0.7963
 1050SOL    MW4 3968   3.265   2.953   1.441 -0.2003  0.3290  0.0381
 1051SOL     OW 3969   5.732   1.384   0.928 -0.2878 -0.0114  0.1740
 1051SOL    HW2 3970   5.773   1.411   1.010 -1.2795 -0.2988  0.7845
 1051SOL    HW3 3971   5.754   1.291   0.920 -0.0540  0.0560  0.0272
 1051SOL    MW4 3972   5.740   1.375   0.938 -0.3878 -0.0405  0.2352
 1052SOL     OW 3973   3.574   4.275   2.535 -0.2485  0.1531  0.5053
 1052SOL    HW2 3974   3.624   4.203   2.495 -1.7682 -0.6502  0.0032
 1052SOL    HW3 3975   3.579   4.258   2.629 -0.6836 -0.6779  0.3864
 1052SOL    MW4 3976   3.582   4.263   2.542 -0.5064 -0.0626  0.4234
 1053SOL     OW 3977   3.000   3.926   4.957  0.0626  0.6778 -0.3411
 1053SOL    HW2 3978   3.083   3.963   4.926  0.2486  1.1710  0.6902
 1053SOL    HW3 3979   3.018   3.902   5.048 -1.0895  1.3184  0.0683
 1053SOL    MW4 3980   3.014   3.928   4.965 -0.0649  0.8274 -0.1510
 1054SOL     OW 3981   1.367   2.168   4.678  0.3962  0.0613 -0.7465
 1054SOL    HW2 3982   1.454   2.206   4.670  0.4375  0.0009 -0.5923
 1054SOL    HW3 3983   1.307   2.243   4.670  0.5079  0.3198  0.5418
 1054SOL    MW4 3984   1.370   2.183   4.676  0.4164  0.0874 -0.5562
 1055SOL     OW 3985   0.216   1.256   1.201 -0.0158 -0.6449  0.1568
 1055SOL    HW2 3986   0.150   1.190   1.184  0.3721 -0.8689 -0.4897
 1055SOL    HW3 3987   0.207   1.319   1.130  0.3283 -0.5692  0.1761
 1055SOL    MW4 3988   0.206   1.256   1.190  0.0808 -0.6645  0.0741
 1056SOL     OW 3989   6.100   1.401   1.005 -0.5551 -0.3461 -0.1290
 1056SOL    HW2 3990   6.147   1.484   1.012  1.2280 -1.2434 -0.9270
 1056SOL    HW3 3991   6.160   1.336   1.041 -1.6527 -1.4019 -0.1433
 1056SOL    MW4 3992   6.114   1.403   1.011 -0.4647 -0.6038 -0.2362
 1057SOL     OW 3993   1.481   0.886   4.340 -0.1808  0.0125  0.3157
 1057SOL    HW2 3994   1.479   0.868   4.434  1.6050 -1.3285  0.1660
 1057SOL    HW3 3995   1.428   0.816   4.301 -0.4274  0.2157  0.2857
 1057SOL    MW4 3996   1.474   0.874   4.347  0.0222 -0.1376  0.2920
 1058SOL     OW 3997   3.274   4.178   2.834  0.0230  0.2270 -0.6364
 1058SOL    HW2 3998   3.231   4.225   2.763  2.1054 -0.9440 -2.8197
 1058SOL    HW3 3999   3.254   4.086   2.818 -1.6305  0.0488  1.9036
 1058SOL    MW4 4000   3.266   4.172   2.822  0.0796  0.0490 -0.5894
 1059SOL     OW 4001   1.179   0.005   3.933  0.1154  0.3266 -0.0414
 1059SOL    HW2 4002   1.137   0.059   4.000 -0.9062 -0.5238  0.0285
 1059SOL    HW3 4003   1.234   0.067   3.884  1.0812  0.9174  1.7058
 1059SOL    MW4 4004   1.181   0.020   3.935  0.1080  0.2924  0.1984
 1060SOL     OW 4005   2.489   0.880   6.421 -0.8407 -0.7445 -0.0460
 1060SOL    HW2 4006   2.475   0.802   6.368  1.3661 -1.3217  0.1439
 1060SOL    HW3 4007   2.513   0.847   6.507 -0.8001  0.1721  0.3088
 1060SOL    MW4 4008   2.490   0.865   6.425 -0.5442 -0.6997  0.0259
 1061SOL     OW 4009   1.473   4.810   4.687  0.1682 -0.4510 -0.0593
 1061SOL    HW2 4010   1.394   4.833   4.737 -0.4606  1.9381 -1.9443
 1061SOL    HW3 4011   1.452   4.835   4.597  3.0305  0.1751 -0.6507
 1061SOL    MW4 4012   1.459   4.817   4.682  0.4629 -0.0532 -0.3860
 1062SOL     OW 4013   5.409   0.421   5.307 -0.0688 -0.0013  0.0189
 1062SOL    HW2 4014   5.467   0.391   5.237  0.6164  0.6666  0.2828
 1062SOL    HW3 4015   5.425   0.515   5.313 -1.4990  0.2876 -0.1839
 1062SOL    MW4 4016   5.419   0.430   5.298 -0.1671  0.1249  0.0270
 1063SOL     OW 4017   1.394   5.684   0.616  0.4727  0.6690 -0.7007
 1063SOL    HW2 4018   1.439   5.637   0.546  1.3999 -0.4148  0.5712
 1063SOL    HW3 4019   1.302   5.659   0.606  0.7947 -0.6142 -0.7018
 1063SOL    MW4 4020   1.388   5.674   0.605  0.6375  0.3567 -0.5331
 1064SOL     OW 4021   2.446   4.899   3.079  0.0150  0.2002 -0.1483
 1064SOL    HW2 4022   2.389   4.833   3.119  0.9524  0.3878  1.5605
 1064SOL    HW3 4023   2.509   4.921   3.147  0.1562  2.3822 -0.9043
 1064SOL    MW4 4024   2.446   4.893   3.093  0.1573  0.5128 -0.0226
 1065SOL     OW 4025   3.215   3.599   5.693  0.5634 -0.0932 -0.5791
 1065SOL    HW2 4026   3.129   3.640   5.698  0.1266 -1.0987  1.1459
 1065SOL    HW3 4027   3.200   3.509   5.722  1.9918 -0.6600 -1.4646
 1065SOL    MW4 4028   3.202   3.592   5.697  0.6942 -0.3006 -0.4684
 1066SOL     OW 4029   4.425   2.640   4.797 -0.3255 -0.2698  0.0570
 1066SOL    HW2 4030   4.440   2.697   4.872  0.1528  1.1107 -1.0259
 1066SOL    HW3 4031   4.498   2.578   4.798  0.2439  0.3962  0.1520
 1066SOL    MW4 4032   4.436   2.639   4.807 -0.1873  0.0002 -0.0734
 1067SOL     OW 4033   5.031   0.605   5.671  0.3545  0.2377 -0.5072
 1067SOL    HW2 4034   5.086   0.555   5.731  0.9237  1.6646  0.1903
 1067SOL    HW3 4035   5.054   0.571   5.584 -0.1326 -1.5061  0.0063
 1067SOL    MW4 4036   5.041   0.594   5.667  0.3654  0.1959 -0.3474
 1068SOL     OW 4037   4.300   5.789   0.528 -0.2390  0.3050 -0.1976
 1068SOL    HW2 4038   4.365   5.764   0.462  0.9166 -1.8813  1.6467
 1068SOL    HW3 4039   4.220   5.745   0.500 -0.1352  0.5074 -0.8370
 1068SOL    MW4 4040   4.298   5.780   0.516 -0.0729  0.0432 -0.0386
 1069SOL     OW 4041   5.748   1.625   1.577  0.3928 -0.4391 -0.1968
 1069SOL    HW2 4042   5.670   1.670   1.610  1.3841 -0.5234  2.5400
 1069SOL    HW3 4043   5.720   1.535   1.565 -0.0384 -0.4018  0.4429
 1069SOL    MW4 4044   5.734   1.619   1.580  0.4667 -0.4453  0.2487
 1070SOL     OW 4045   1.566   3.399   3.064 -0.1818 -0.1427  0.1380
 1070SOL    HW2 4046   1.480   3.358   3.077 -0.1393 -0.1891  0.2774
 1070SOL    HW3 4047   1.584   3.445   3.146 -0.2771  0.2475 -0.0583
 1070SOL    MW4 4048   1.557   3.399   3.077 -0.1888 -0.0973  0.1305
 1071SOL     OW 4049   2.678   2.344   1.355 -0.3668  0.1229  0.1064
 1071SOL    HW2 4050   2.714   2.325   1.269  1.1331 -0.3319  0.8126
 1071SOL    HW3 4051   2.583   2.349   1.340 -0.0959  0.6585 -1.6643
 1071SOL    MW4 4052   2.670   2.342   1.342 -0.1332  0.1336 -0.0340
 1072SOL     OW 4053   5.231   4.891   4.835  0.1327 -0.3068  0.1367
 1072SOL    HW2 4054   5.226   4.940   4.917  0.2590 -0.7882  0.4383
 1072SOL    HW3 4055   5.156   4.922   4.783  0.5935  0.6852  0.0448
 1072SOL    MW4 4056   5.220   4.901   4.839  0.2102 -0.2394  0.1644
 1073SOL     OW 4057   1.542   3.687   2.128 -0.1813 -0.2168 -0.3773
 1073SOL    HW2 4058   1.494   3.616   2.170  0.8405 -1.8586 -1.8432
 1073SOL    HW3 4059   1.623   3.693   2.178 -0.8175  0.8667  0.5659
 1073SOL    MW4 4060   1.546   3.678   2.140 -0.1304 -0.2904 -0.4462
 1074SOL     OW 4061   4.056   3.429   6.288  0.6102 -0.2433 -0.0003
 1074SOL    HW2 4062   4.124   3.456   6.226  1.2175 -0.0041  0.7539
 1074SOL    HW3 4063   4.014   3.510   6.314  0.4726 -0.3274  0.0382
 1074SOL    MW4 4064   4.059   3.443   6.283  0.6722 -0.2228  0.1043
 1075SOL     OW 4065   2.065   4.098   5.509 -0.1239 -0.0134  0.4136
 1075SOL    HW2 4066   1.980   4.068   5.541 -0.5103 -0.1331 -0.6950
 1075SOL    HW3 4067   2.064   4.193   5.525  0.2688 -0.2437  2.0109
 1075SOL    MW4 4068   2.054   4.107   5.515 -0.1230 -0.0596  0.4780
 1076SOL     OW 4069   5.707   5.044   1.232 -0.3730  0.0879  0.0019
 1076SOL    HW2 4070   5.757   5.072   1.155 -0.9498  1.2136  0.0140
 1076SOL    HW3 4071   5.739   5.100   1.303 -1.4788  0.6709  0.0592
 1076SOL    MW4 4072   5.718   5.055   1.231 -0.5950  0.3133  0.0111
 1077SOL     OW 4073   5.318   3.315   0.592  0.4394  0.1139  0.5708
 1077SOL    HW2 4074   5.389   3.374   0.566 -0.2667  1.1827  0.9911
 1077SOL    HW3 4075   5.289   3.276   0.511  2.8237 -1.9335  0.5848
 1077SOL    MW4 4076   5.324   3.318   0.578  0.6608 -0.0152  0.6281
 1078SOL     OW 4077   4.505   2.781   3.656 -0.5439 -0.1718 -0.4249
 1078SOL    HW2 4078   4.556   2.742   3.585 -0.1423 -0.4548  0.0120
 1078SOL    HW3 4079   4.425   2.729   3.661  0.0480 -1.0495  0.2429
 1078SOL    MW4 4080   4.501   2.769   3.648 -0.4128 -0.3249 -0.2792
 1079SOL     OW 4081   2.485   3.028   0.816  0.0321 -0.2122 -0.1716
 1079SOL    HW2 4082   2.570   3.068   0.829  0.1479 -0.6503  0.4867
 1079SOL    HW3 4083   2.493   2.980   0.733  0.4509 -0.3074 -0.0772
 1079SOL    MW4 4084   2.497   3.027   0.807  0.1026 -0.2826 -0.0723
 1080SOL     OW 4085   5.040   1.674   6.003  0.1315  0.4181  0.3907
 1080SOL    HW2 4086   4.957   1.633   5.976 -0.3238  0.1369  2.0771
 1080SOL    HW3 4087   5.075   1.615   6.070  0.1108  2.0926  1.9614
 1080SOL    MW4 4088   5.033   1.661   6.008  0.0687  0.6019  0.8204
 1081SOL     OW 4089   1.184   1.527   0.738 -0.5820  0.0313 -0.0268
 1081SOL    HW2 4090   1.213   1.532   0.829  0.3647 -0.5894 -0.2806
 1081SOL    HW3 4091   1.228   1.600   0.695  0.3679 -0.7112 -0.3419
 1081SOL    MW4 4092   1.193   1.537   0.744 -0.3318 -0.1486 -0.1019
 1082SOL     OW 4093   3.387   1.992   5.310  0.0037  0.4445 -0.0081
 1082SOL    HW2 4094   3.422   2.048   5.240  1.5458 -0.5367 -0.0715
 1082SOL    HW3 4095   3.410   1.903   5.283 -0.5142 -0.0466  1.1333
 1082SOL    MW4 4096   3.395   1.988   5.297  0.1388  0.2502  0.1341
 1083SOL     OW 4097   5.760   5.362   0.321  0.1383 -0.3055 -0.4429
 1083SOL    HW2 4098   5.720   5.292   0.372  1.1385 -2.0504 -1.9413
 1083SOL    HW3 4099   5.827   5.319   0.268  1.7397  2.0019 -0.4643
 1083SOL    MW4 4100   5.763   5.347   0.320  0.4816 -0.2313 -0.6434
 1084SOL     OW 4101   0.635   0.002   5.564  0.0709  0.1428  0.4476
 1084SOL    HW2 4102   0.652   0.088   5.523 -1.8665  0.6525  0.6259
 1084SOL    HW3 4103   0.690  -0.059   5.514  2.4280  1.6129  1.0767
 1084SOL    MW4 4104   0.645   0.006   5.552  0.1262  0.4040  0.5541
 1085SOL     OW 4105   2.311   4.295   2.682  0.1164  0.3012  0.3849
 1085SOL    HW2 4106   2.257   4.289   2.603  1.4578  0.8067 -0.6000
 1085SOL    HW3 4107   2.248   4.311   2.753 -1.1252 -0.3570 -0.5312
 1085SOL    MW4 4108   2.296   4.296   2.681  0.1295  0.2811  0.1341
 1086SOL     OW 4109   6.129   3.129   4.369 -0.9238 -0.1902 -0.0781
 1086SOL    HW2 4110   6.108   3.066   4.438  0.1937  0.1309  0.5771
 1086SOL    HW3 4111   6.204   3.177   4.402 -3.4474  3.5812  0.8039
 1086SOL    MW4 4112   6.136   3.127   4.382 -1.1094  0.3497  0.1248
 1087SOL     OW 4113   4.755   4.731   5.242 -0.1098  0.7921  0.2845
 1087SOL    HW2 4114   4.724   4.801   5.185  1.8071  0.9420 -0.6427
 1087SOL    HW3 4115   4.675   4.685   5.269 -1.3677  2.9575  0.4780
 1087SOL    MW4 4116   4.741   4.734   5.238 -0.0229  1.0976  0.1877
 1088SOL     OW 4117   0.316   2.481   1.518 -0.5298 -0.0147  0.1732
 1088SOL    HW2 4118   0.357   2.480   1.604  0.3363 -0.1710 -0.2271
 1088SOL    HW3 4119   0.222   2.483   1.535 -0.3540  0.8637  1.1186
 1088SOL    MW4 4120   0.309   2.482   1.531 -0.3923  0.0805  0.2451
 1089SOL     OW 4121   0.393   5.800   3.197 -0.8393 -0.1953 -0.8408
 1089SOL    HW2 4122   0.341   5.769   3.123  0.2233  1.1956 -2.2722
 1089SOL    HW3 4123   0.482   5.806   3.162 -0.4511  1.2998  0.2954
 1089SOL    MW4 4124   0.398   5.797   3.182 -0.6479  0.1855 -0.8797
 1090SOL     OW 4125   1.877   6.205   1.023 -0.3625  0.2290 -0.2712
 1090SOL    HW2 4126   1.783   6.194   1.009 -0.5275 -1.0893  1.6044
 1090SOL    HW3 4127   1.917   6.173   0.942 -1.4780 -0.8046 -0.4454
 1090SOL    MW4 4128   1.870   6.199   1.010 -0.5314 -0.0813 -0.0467
 1091SOL     OW 4129   0.961   1.002   3.976  0.1765 -0.3293  0.3989
 1091SOL    HW2 4130   1.002   1.042   3.900 -0.6595  0.3819  0.3014
 1091SOL    HW3 4131   0.875   1.044   3.981  0.7038  0.6240  2.5104
 1091SOL    MW4 4132   0.955   1.013   3.967  0.1358 -0.1096  0.6647
 1092SOL     OW 4133   3.674   4.043   5.615  0.3930  0.3888  0.5593
 1092SOL    HW2 4134   3.675   4.138   5.629  0.5760  0.5101 -0.2417
 1092SOL    HW3 4135   3.654   4.006   5.701 -3.2609  1.2561  0.2142
 1092SOL    MW4 4136   3.672   4.051   5.628 -0.0649  0.5193  0.4081
 1093SOL     OW 4137   2.489   0.015   3.566 -0.1223 -0.3251 -0.2308
 1093SOL    HW2 4138   2.539  -0.057   3.527 -1.6983 -0.6177 -1.8297
 1093SOL    HW3 4139   2.522   0.094   3.524  2.7315  0.2391  2.6494
 1093SOL    MW4 4140   2.500   0.016   3.556  0.0463 -0.2892 -0.0618
 1094SOL     OW 4141   4.448   5.135   1.641  0.3125  0.0666  0.6867
 1094SOL    HW2 4142   4.496   5.071   1.588 -0.6083 -0.1216  0.0683
 1094SOL    HW3 4143   4.517   5.180   1.691  1.2389  0.5025 -0.9186
 1094SOL    MW4 4144   4.464   5.133   1.641  0.3132  0.0993  0.3933
 1095SOL     OW 4145   4.161   4.410   1.797 -0.1588  0.3755 -0.2744
 1095SOL    HW2 4146   4.070   4.416   1.826 -0.2588  1.5836 -0.7433
 1095SOL    HW3 4147   4.163   4.462   1.716  0.8358 -0.0875 -0.5649
 1095SOL    MW4 4148   4.149   4.418   1.790 -0.0408  0.4738 -0.3746
 1096SOL     OW 4149   4.666   3.309   1.830  0.0685  0.8122  0.0471
 1096SOL    HW2 4150   4.666   3.269   1.743 -0.6205  0.7641  0.0662
 1096SOL    HW3 4151   4.645   3.401   1.814 -0.2843  0.7557  0.1840
 1096SOL    MW4 4152   4.664   3.316   1.817 -0.0689  0.7984  0.0677
 1097SOL     OW 4153   1.017   0.909   0.934  0.4148 -0.2776 -0.3602
 1097SOL    HW2 4154   1.003   0.909   1.029  1.1987  1.6930 -0.1998
 1097SOL    HW3 4155   0.931   0.890   0.897  0.1470 -1.3228  0.7206
 1097SOL    MW4 4156   1.004   0.907   0.942  0.4829 -0.1555 -0.1964
 1098SOL     OW 4157   5.070   3.879   0.837 -0.3285  0.1070 -0.1447
 1098SOL    HW2 4158   4.975   3.866   0.836 -0.5514  1.5804  0.0393
 1098SOL    HW3 4159   5.083   3.954   0.894  1.1343 -1.2855  1.4417
 1098SOL    MW4 4160   5.059   3.887   0.844 -0.1649  0.1176  0.0889
 1099SOL     OW 4161   0.059   6.386   2.557 -0.4825 -0.0540 -0.4696
 1099SOL    HW2 4162  -0.014   6.384   2.496 -1.1100 -2.4341  0.2548
 1099SOL    HW3 4163   0.026   6.435   2.632  0.2199  2.6910 -1.8165
 1099SOL    MW4 4164   0.045   6.392   2.559 -0.4727 -0.0058 -0.5517
 1100SOL     OW 4165   3.059   1.799   2.145  0.0396 -0.3654  0.3797
 1100SOL    HW2 4166   2.979   1.808   2.197 -1.7321  0.7025 -2.3498
 1100SOL    HW3 4167   3.031   1.754   2.065  2.0208  0.6294 -0.9492
 1100SOL    MW4 4168   3.044   1.794   2.141  0.0672 -0.0933 -0.1558
 1101SOL     OW 4169   2.242   4.265   5.066  0.0586 -0.1234  0.5238
 1101SOL    HW2 4170   2.312   4.293   5.125 -0.0938  0.5531  0.3938
 1101SOL    HW3 4171   2.182   4.340   5.063 -0.1208 -0.2888 -0.1990
 1101SOL    MW4 4172   2.243   4.279   5.074  0.0148 -0.0560  0.4113
 1102SOL     OW 4173   6.385   0.212   4.310  0.1275 -0.1009  0.0038
 1102SOL    HW2 4174   6.471   0.240   4.278  0.1812 -1.0802 -0.7654
 1102SOL    HW3 4175   6.346   0.291   4.347  1.2890  0.3985  0.2138
 1102SOL    MW4 4176   6.391   0.226   4.310  0.2878 -0.1642 -0.0700
 1103SOL     OW 4177   1.993   6.121   0.046 -0.0085  0.2246 -0.0280
 1103SOL    HW2 4178   1.984   6.072  -0.035  0.4268 -0.4336  0.3115
 1103SOL    HW3 4179   1.906   6.157   0.063 -0.4557 -0.8121 -0.0471
 1103SOL    MW4 4180   1.981   6.119   0.038 -0.0101  0.0010  0.0143
 1104SOL     OW 4181   1.596   0.778   5.484  0.5427 -0.1399  0.3230
 1104SOL    HW2 4182   1.665   0.840   5.462 -1.7818  3.8751  3.0026
 1104SOL    HW3 4183   1.531   0.789   5.415  0.4963 -0.2578  0.3474
 1104SOL    MW4 4184   1.596   0.787   5.472  0.2299  0.3743  0.6798
 1105SOL     OW 4185   0.329   4.769   3.845  0.1214  0.3913 -0.0516
 1105SOL    HW2 4186   0.384   4.717   3.787 -0.6528 -0.9843  0.3875
 1105SOL    HW3 4187   0.390   4.819   3.898  1.0440 -1.6875  0.9656
 1105SOL    MW4 4188   0.344   4.769   3.844  0.1410 -0.0644  0.1406
 1106SOL     OW 4189   2.412   5.102   2.883 -0.2264 -0.2869 -0.1935
 1106SOL    HW2 4190   2.422   5.073   2.793  0.8681 -1.5994  0.3238
 1106SOL    HW3 4191   2.423   5.023   2.936 -1.7336  0.2844  1.0689
 1106SOL    MW4 4192   2.415   5.088   2.878 -0.2809 -0.3847  0.0413
 1107SOL     OW 4193   0.028   1.363   0.178  0.3977 -0.3574  0.1482
 1107SOL    HW2 4194   0.022   1.459   0.175 -2.2808 -0.4664 -1.5454
 1107SOL    HW3 4195   0.073   1.340   0.097  0.2565 -0.5557  0.1267
 1107SOL    MW4 4196   0.033   1.373   0.167  0.0256 -0.3979 -0.0781
 1108SOL     OW 4197   1.561   0.054   0.947  0.1681  0.0816  0.6499
 1108SOL    HW2 4198   1.582  -0.032   0.982 -2.5310 -1.4697 -1.1856
 1108SOL    HW3 4199   1.588   0.115   1.016  2.5563 -2.1193  1.8367
 1108SOL    MW4 4200   1.567   0.051   0.961  0.1271 -0.4134  0.5643
 1109SOL     OW 4201   6.055   4.943   2.606  0.0776  0.3478 -0.0748
 1109SOL    HW2 4202   6.143   4.967   2.575  1.2335  0.0243  2.6430
 1109SOL    HW3 4203   6.019   5.024   2.642 -1.7612  1.0247 -3.1044
 1109SOL    MW4 4204   6.062   4.956   2.606 -0.0125  0.3944 -0.1159
 1110SOL     OW 4205   2.500   6.340   2.171  0.2979 -0.0310 -0.0901
 1110SOL    HW2 4206   2.520   6.432   2.186 -0.2238 -0.0789  0.9924
 1110SOL    HW3 4207   2.565   6.312   2.106  0.3949  1.1159 -0.5197
 1110SOL    MW4 4208   2.511   6.348   2.165  0.2418  0.1140 -0.0039
 1111SOL     OW 4209   0.088   3.976   2.193  0.0543 -0.5245 -0.1547
 1111SOL    HW2 4210   0.008   3.935   2.163  0.2715  0.5210 -2.4073
 1111SOL    HW3 4211   0.063   4.024   2.273 -1.6277 -0.0230 -0.9439
 1111SOL    MW4 4212   0.074   3.977   2.200 -0.1389 -0.3204 -0.5560
 1112SOL     OW 4213   0.224   5.215   0.858 -0.2771 -0.3299 -0.1251
 1112SOL    HW2 4214   0.306   5.176   0.826  0.2928  1.1555 -0.5606
 1112SOL    HW3 4215   0.179   5.243   0.779 -1.5379 -1.6906  0.0711
 1112SOL    MW4 4216   0.229   5.214   0.843 -0.3682 -0.3135 -0.1567
 1113SOL     OW 4217   4.962   6.220   5.304 -0.1040  0.1188  0.1614
 1113SOL    HW2 4218   4.996   6.307   5.283 -0.4770  0.3529  0.5090
 1113SOL    HW3 4219   4.998   6.201   5.391  1.7991 -1.0311 -0.8163
 1113SOL    MW4 4220   4.971   6.229   5.313  0.0979 -0.0020  0.0783
 1114SOL     OW 4221   3.705   2.866   3.908  0.0362  0.0316 -0.5275
 1114SOL    HW2 4222   3.688   2.960   3.906 -0.3491 -0.0259 -0.0380
 1114SOL    HW3 4223   3.709   2.844   4.001  1.5762 -0.1853 -0.6211
 1114SOL    MW4 4224   3.704   2.876   3.920  0.1886 -0.0046 -0.4753
 1115SOL     OW 4225   5.878   5.017   1.773  0.0995 -0.0119  0.3377
 1115SOL    HW2 4226   5.808   5.071   1.808 -0.8363 -1.1298  0.2615
 1115SOL    HW3 4227   5.855   4.928   1.799  0.6421 -0.5865 -1.0454
 1115SOL    MW4 4228   5.866   5.012   1.781  0.0476 -0.2352  0.1452
 1116SOL     OW 4229   3.131   2.142   3.123  0.1700  0.2471 -0.2314
 1116SOL    HW2 4230   3.141   2.114   3.214 -0.3068  1.3355  0.1766
 1116SOL    HW3 4231   3.096   2.065   3.078  0.0523 -0.1864  0.5761
 1116SOL    MW4 4232   3.128   2.128   3.129  0.0915  0.3335 -0.0710
 1117SOL     OW 4233   3.344   4.405   5.343  0.7692 -0.1320  0.3351
 1117SOL    HW2 4234   3.262   4.363   5.370  0.1945  0.6182 -0.2147
 1117SOL    HW3 4235   3.317   4.474   5.283  1.6269  1.5758  1.8317
 1117SOL    MW4 4236   3.330   4.408   5.339  0.8066  0.1923  0.4600
 1118SOL     OW 4237   0.729   3.769   4.493 -0.2528 -0.6857 -0.2617
 1118SOL    HW2 4238   0.723   3.854   4.538 -0.4093  1.8459 -4.4820
 1118SOL    HW3 4239   0.654   3.720   4.524 -1.6106  1.7449  0.5813
 1118SOL    MW4 4240   0.719   3.774   4.503 -0.4526 -0.0310 -0.7073
 1119SOL     OW 4241   4.722   3.058   3.796 -0.3002 -0.0037 -0.5436
 1119SOL    HW2 4242   4.742   2.996   3.726  0.1925 -0.5483  0.0678
 1119SOL    HW3 4243   4.805   3.103   3.812  0.0960 -1.1814  0.9402
 1119SOL    MW4 4244   4.736   3.056   3.789 -0.1829 -0.2309 -0.2672
 1120SOL     OW 4245   4.457   5.116   0.296 -0.2741  0.6439 -1.0919
 1120SOL    HW2 4246   4.493   5.177   0.361 -0.0977  0.3907 -0.9545
 1120SOL    HW3 4247   4.470   5.161   0.212  2.4619 -0.3723 -1.3309
 1120SOL    MW4 4248   4.463   5.130   0.293  0.1102  0.4765 -1.1053
 1121SOL     OW 4249   0.391   0.688   1.393 -0.0202  0.6396  0.0226
 1121SOL    HW2 4250   0.404   0.782   1.389  0.8694  0.5197 -0.1936
 1121SOL    HW3 4251   0.324   0.670   1.328 -2.5975  1.4893  2.2880
 1121SOL    MW4 4252   0.384   0.698   1.384 -0.2429  0.7359  0.2930
 1122SOL     OW 4253   1.096   5.295   4.103 -0.2140 -0.4717  0.1904
 1122SOL    HW2 4254   1.172   5.253   4.142 -0.1199 -1.8761 -1.4041
 1122SOL    HW3 4255   1.121   5.310   4.012 -1.0329  1.1594  0.2047
 1122SOL    MW4 4256   1.109   5.291   4.096 -0.3097 -0.4418 -0.0181
 1123SOL     OW 4257   4.566   1.840   3.761 -0.4117  0.3919 -0.0035
 1123SOL    HW2 4258   4.538   1.892   3.686  0.1493  1.0005  0.1982
 1123SOL    HW3 4259   4.537   1.890   3.837  1.8436  1.4765  0.2356
 1123SOL    MW4 4260   4.559   1.854   3.761 -0.0401  0.6153  0.0546
 1124SOL     OW 4261   0.424   2.741   3.557 -0.1394  0.3796  0.0780
 1124SOL    HW2 4262   0.468   2.814   3.601  0.5642 -1.3445  2.4378
 1124SOL    HW3 4263   0.445   2.753   3.465  0.5773  2.7136  0.4767
 1124SOL    MW4 4264   0.433   2.752   3.551  0.0480  0.4601  0.4419
 1125SOL     OW 4265   4.276   0.143   6.318  0.0069 -0.0532 -0.3037
 1125SOL    HW2 4266   4.267   0.048   6.304 -1.3690  0.1851 -1.2010
 1125SOL    HW3 4267   4.346   0.169   6.258 -0.2692 -0.3516 -0.7632
 1125SOL    MW4 4268   4.284   0.134   6.308 -0.2110 -0.0612 -0.4827
 1126SOL     OW 4269   5.051   4.716   5.238  0.3346 -0.2327  0.5170
 1126SOL    HW2 4270   4.957   4.697   5.240  0.2164  0.1519 -0.6272
 1126SOL    HW3 4271   5.083   4.672   5.160  0.4973  2.1854 -0.8939
 1126SOL    MW4 4272   5.043   4.708   5.228  0.3404  0.1371  0.1799
 1127SOL     OW 4273   2.263   0.021   5.063 -0.4057 -0.4188 -0.5716
 1127SOL    HW2 4274   2.338   0.013   5.123 -0.5874 -0.1139 -0.2970
 1127SOL    HW3 4275   2.266  -0.058   5.010 -1.3848 -1.6957  1.1723
 1127SOL    MW4 4276   2.274   0.010   5.064 -0.5589 -0.5471 -0.3053
 1128SOL     OW 4277   3.699   2.640   2.870 -0.0913  0.0989 -0.0224
 1128SOL    HW2 4278   3.764   2.682   2.927 -0.9373  1.1196  0.2172
 1128SOL    HW3 4279   3.750   2.604   2.797  0.8275  0.1237  0.5962
 1128SOL    MW4 4280   3.714   2.640   2.868 -0.0817  0.2369  0.0908
 1129SOL     OW 4281   0.380   0.166   6.410 -0.2571  0.0133 -0.3732
 1129SOL    HW2 4282   0.363   0.122   6.493  0.3870 -0.8222 -0.6565
 1129SOL    HW3 4283   0.297   0.160   6.362 -1.2103  2.1494  0.8882
 1129SOL    MW4 4284   0.367   0.159   6.414 -0.2979  0.1849 -0.2442
 1130SOL     OW 4285   2.113   2.366   4.557  0.0253  0.1611  0.3388
 1130SOL    HW2 4286   2.038   2.344   4.502  0.6992 -0.0981 -0.5065
 1130SOL    HW3 4287   2.110   2.304   4.629 -0.2513 -0.2215  0.0004
 1130SOL    MW4 4288   2.103   2.355   4.559  0.0777  0.0764  0.1826
 1131SOL     OW 4289   1.894   3.589   4.636  0.0801 -0.2244  0.6883
 1131SOL    HW2 4290   1.808   3.601   4.678 -0.1342  1.1431 -0.0994
 1131SOL    HW3 4291   1.873   3.569   4.545  0.5856  1.5660  0.1422
 1131SOL    MW4 4292   1.880   3.588   4.630  0.1185  0.1922  0.5123
 1132SOL     OW 4293   4.630   3.319   3.490  0.2036  0.1147 -0.9018
 1132SOL    HW2 4294   4.617   3.229   3.459 -0.7858 -0.7556  1.7126
 1132SOL    HW3 4295   4.556   3.334   3.549  0.0445  2.8956 -1.6918
 1132SOL    MW4 4296   4.618   3.309   3.494  0.0521  0.3668 -0.6611
 1133SOL     OW 4297   4.235   2.387   6.002  0.2014 -0.3602 -0.3024
 1133SOL    HW2 4298   4.140   2.398   6.003  0.2995  0.5024  0.5629
 1133SOL    HW3 4299   4.259   2.392   5.910 -0.6796 -1.4566 -0.6122
 1133SOL    MW4 4300   4.226   2.389   5.990  0.0981 -0.3911 -0.2291
 1134SOL     OW 4301   1.795   2.053   2.413 -0.0438 -0.0301 -0.0987
 1134SOL    HW2 4302   1.701   2.065   2.401  0.3369  0.5861 -3.3030
 1134SOL    HW3 4303   1.804   1.965   2.451 -1.8947  0.1034  0.7200
 1134SOL    MW4 4304   1.784   2.043   2.417 -0.2377  0.0688 -0.4134
 1135SOL     OW 4305   2.213   0.390   4.231 -0.3190 -0.1869 -0.2076
 1135SOL    HW2 4306   2.140   0.364   4.175  1.1879 -0.2071 -2.2736
 1135SOL    HW3 4307   2.291   0.353   4.188  1.1445  1.6886  0.6733
 1135SOL    MW4 4308   2.214   0.382   4.218  0.0729  0.0579 -0.3640
 1136SOL     OW 4309   2.298   1.043   3.410  0.2844 -0.0379  0.4467
 1136SOL    HW2 4310   2.249   1.037   3.493 -0.9604  1.1626 -0.1674
 1136SOL    HW3 4311   2.366   0.976   3.418 -0.2052 -0.3834  2.1769
 1136SOL    MW4 4312   2.300   1.033   3.422  0.0556  0.0749  0.5940
 1137SOL     OW 4313   3.360   1.142   0.245 -0.1188 -0.1162  0.7238
 1137SOL    HW2 4314   3.453   1.129   0.226 -0.3187 -0.4133 -0.1379
 1137SOL    HW3 4315   3.342   1.232   0.219 -0.1632 -0.1963  0.4724
 1137SOL    MW4 4316   3.370   1.152   0.239 -0.1511 -0.1660  0.5769
 1138SOL     OW 4317   4.671   4.229   2.937 -0.0991 -0.1276 -0.1058
 1138SOL    HW2 4318   4.631   4.308   2.974  1.6082  1.2431 -1.0750
 1138SOL    HW3 4319   4.739   4.205   2.999 -0.3207 -0.5849 -0.0371
 1138SOL    MW4 4320   4.675   4.236   2.950  0.0969 -0.0071 -0.2246
 1139SOL     OW 4321   3.187   2.222   4.615  0.0424 -0.1116 -0.1439
 1139SOL    HW2 4322   3.170   2.140   4.569 -3.6049  0.4454 -0.0632
 1139SOL    HW3 4323   3.227   2.195   4.698  0.7414 -1.5894 -0.9199
 1139SOL    MW4 4324   3.190   2.208   4.620 -0.3466 -0.2331 -0.2357
 1140SOL     OW 4325   4.584   0.786   4.995 -0.0259  0.8543  0.0082
 1140SOL    HW2 4326   4.531   0.813   4.920  1.0576  0.5049 -0.9140
 1140SOL    HW3 4327   4.651   0.854   5.002  1.0190 -0.0810 -0.5610
 1140SOL    MW4 4328   4.586   0.799   4.986  0.2549  0.6848 -0.1886
 1141SOL     OW 4329   4.277   5.836   2.559  0.0130  0.3253 -0.0256
 1141SOL    HW2 4330   4.297   5.810   2.469 -0.3287 -1.0360  0.2699
 1141SOL    HW3 4331   4.291   5.930   2.560  0.2171  0.3354 -1.4560
 1141SOL    MW4 4332   4.281   5.845   2.547 -0.0051  0.1470 -0.1753
 1142SOL     OW 4333   6.343   1.810   3.912  0.2818 -0.2397 -0.2092
 1142SOL    HW2 4334   6.339   1.793   3.817  0.3994 -0.0002 -0.2567
 1142SOL    HW3 4335   6.336   1.723   3.951  1.0906 -0.4335 -0.4595
 1142SOL    MW4 4336   6.342   1.796   3.904  0.4040 -0.2337 -0.2485
 1143SOL     OW 4337   0.093   5.595   2.848  0.7277  0.1192 -0.2686
 1143SOL    HW2 4338   0.082   5.633   2.935  0.2630  0.4197 -0.4546
 1143SOL    HW3 4339   0.161   5.647   2.807 -0.0633  0.9158 -0.6057
 1143SOL    MW4 4340   0.100   5.607   2.854  0.5621  0.2640 -0.3376
 1144SOL     OW 4341   6.359   3.211   4.479 -0.2821  0.4918 -0.3666
 1144SOL    HW2 4342   6.434   3.265   4.453  1.0954 -0.9556  0.4000
 1144SOL    HW3 4343   6.398   3.129   4.509 -2.3216 -1.2782 -2.2141
 1144SOL    MW4 4344   6.374   3.208   4.480 -0.3694  0.0673 -0.5092
 1145SOL     OW 4345   3.959   6.230   6.195  0.0846 -0.1727  0.0429
 1145SOL    HW2 4346   3.887   6.169   6.209 -0.6133  0.5223 -0.3881
 1145SOL    HW3 4347   4.012   6.225   6.275 -0.4578 -0.6755  0.3710
 1145SOL    MW4 4348   3.957   6.222   6.207 -0.0791 -0.1474  0.0293
 1146SOL     OW 4349   4.044   3.239   0.535 -0.2635 -0.2730  0.0243
 1146SOL    HW2 4350   4.013   3.149   0.526 -0.2191 -0.2149 -0.7550
 1146SOL    HW3 4351   4.126   3.231   0.584 -0.3152 -0.6498  0.0504
 1146SOL    MW4 4352   4.051   3.226   0.540 -0.2645 -0.3150 -0.0750
 1147SOL     OW 4353   4.967   1.710   0.353  0.3838  0.4371 -0.0310
 1147SOL    HW2 4354   4.879   1.747   0.341  0.7983  1.3833 -0.2848
 1147SOL    HW3 4355   4.989   1.673   0.267  0.6144  1.0744 -0.2527
 1147SOL    MW4 4356   4.958   1.710   0.340  0.4689  0.6460 -0.0938
 1148SOL     OW 4357   5.996   5.200   0.687 -0.1716 -0.0885 -0.6971
 1148SOL    HW2 4358   6.068   5.188   0.749 -1.1810  0.1926  0.5656
 1148SOL    HW3 4359   6.009   5.132   0.621  1.4063  0.1423 -0.6693
 1148SOL    MW4 4360   6.007   5.190   0.686 -0.0966 -0.0210 -0.5268
 1149SOL     OW 4361   1.580   5.596   0.400 -0.0048 -0.0658  0.3320
 1149SOL    HW2 4362   1.546   5.657   0.335 -1.3093 -2.1756 -1.1102
 1149SOL    HW3 4363   1.675   5.605   0.393 -0.1591  1.0884 -0.5392
 1149SOL    MW4 4364   1.588   5.605   0.390 -0.1973 -0.1919  0.0268
 1150SOL     OW 4365   0.991   0.159   0.984  0.3442 -0.1292 -0.5945
 1150SOL    HW2 4366   0.961   0.080   0.940  2.5779 -0.2107 -2.1129
 1150SOL    HW3 4367   0.964   0.147   1.075 -2.3070 -1.0475 -1.3875
 1150SOL    MW4 4368   0.983   0.147   0.990  0.2891 -0.2611 -0.8995
 1151SOL     OW 4369   4.325   0.745   0.183 -0.0317  0.2092  0.1737
 1151SOL    HW2 4370   4.236   0.753   0.148 -0.3001 -1.1742  0.4729
 1151SOL    HW3 4371   4.313   0.723   0.275  0.6251  0.0266  0.2236
 1151SOL    MW4 4372   4.312   0.743   0.190  0.0195  0.0026  0.2197
 1152SOL     OW 4373   4.584   0.036   1.408 -0.3153 -0.2966  0.0680
 1152SOL    HW2 4374   4.536   0.117   1.393  1.8839  0.9865 -0.5232
 1152SOL    HW3 4375   4.553  -0.024   1.341 -1.1597  0.4401 -0.2171
 1152SOL    MW4 4376   4.573   0.039   1.397 -0.1366 -0.0301 -0.0476
 1153SOL     OW 4377   4.168   4.140   2.261 -0.1988 -0.2881 -0.5082
 1153SOL    HW2 4378   4.199   4.051   2.249  0.3066 -0.2020  0.0618
 1153SOL    HW3 4379   4.225   4.194   2.207  1.6346  0.0244  1.5761
 1153SOL    MW4 4380   4.179   4.136   2.252  0.1098 -0.2355 -0.1580
 1154SOL     OW 4381   2.199   5.917   3.646 -0.7299 -0.0906  0.3113
 1154SOL    HW2 4382   2.149   5.997   3.629  0.5476  0.4519 -1.0967
 1154SOL    HW3 4383   2.170   5.856   3.578 -0.1970 -0.0937  0.0792
 1154SOL    MW4 4384   2.188   5.919   3.635 -0.4911 -0.0194  0.0949
 1155SOL     OW 4385   1.639   3.052   4.913 -0.0558 -0.1604  0.2844
 1155SOL    HW2 4386   1.626   2.957   4.912  3.8039 -0.8499 -1.1428
 1155SOL    HW3 4387   1.591   3.084   4.837 -0.1179 -1.2062 -0.1309
 1155SOL    MW4 4388   1.631   3.043   4.903  0.4453 -0.3894  0.0413
 1156SOL     OW 4389   5.518   2.250   4.195 -0.7745 -0.3486  0.3825
 1156SOL    HW2 4390   5.430   2.213   4.189  0.3311 -3.5730  1.8550
 1156SOL    HW3 4391   5.549   2.224   4.281  2.3859 -1.2648 -0.8875
 1156SOL    MW4 4392   5.510   2.241   4.205 -0.2116 -0.8949  0.4092
 1157SOL     OW 4393   0.027   1.303   2.389  0.3330 -0.0040  0.5659
 1157SOL    HW2 4394  -0.015   1.303   2.302  0.4232 -0.2432  0.5242
 1157SOL    HW3 4395  -0.043   1.277   2.449  0.1248  0.6793  0.6360
 1157SOL    MW4 4396   0.012   1.300   2.385  0.3175  0.0546  0.5697
 1158SOL     OW 4397   0.470   4.136   0.735 -0.0714 -0.3162  0.4246
 1158SOL    HW2 4398   0.416   4.072   0.688 -0.3305  0.9366 -1.0542
 1158SOL    HW3 4399   0.408   4.190   0.784 -0.0055 -0.0795  0.2506
 1158SOL    MW4 4400   0.455   4.135   0.735 -0.0969 -0.1197  0.2065
 1159SOL     OW 4401   5.243   2.953   3.390  0.2197 -0.5358 -0.3721
 1159SOL    HW2 4402   5.186   2.986   3.459 -0.7304 -0.4967 -1.1460
 1159SOL    HW3 4403   5.304   3.025   3.373 -0.1550 -0.1824 -0.2364
 1159SOL    MW4 4404   5.244   2.967   3.397  0.0449 -0.4840 -0.4563
 1160SOL     OW 4405   2.535   0.176   2.255 -0.1146 -0.1550 -0.1965
 1160SOL    HW2 4406   2.605   0.234   2.228  0.0673  0.2816  1.1534
 1160SOL    HW3 4407   2.455   0.225   2.238  0.0258  0.3841  0.6658
 1160SOL    MW4 4408   2.534   0.190   2.249 -0.0721 -0.0263  0.0954
 1161SOL     OW 4409   0.885   2.640   0.863 -0.2330  0.5577 -0.2013
 1161SOL    HW2 4410   0.856   2.597   0.783 -2.3590 -0.0987  0.8493
 1161SOL    HW3 4411   0.850   2.586   0.934  1.3695  1.2523  1.1982
 1161SOL    MW4 4412   0.877   2.627   0.862 -0.3020  0.5627  0.1220
 1162SOL     OW 4413   1.687   1.973   3.837  0.1484 -0.1320 -0.4056
 1162SOL    HW2 4414   1.665   1.898   3.782  0.2872 -1.4059  1.1865
 1162SOL    HW3 4415   1.678   1.941   3.927  1.8332  1.2632  0.3403
 1162SOL    MW4 4416   1.683   1.959   3.842  0.3890 -0.1160 -0.0972
 1163SOL     OW 4417   4.431   2.494   3.548  0.0295 -0.0334  0.2828
 1163SOL    HW2 4418   4.420   2.514   3.641  1.0478  1.5664  0.0953
 1163SOL    HW3 4419   4.522   2.517   3.528 -0.0434 -0.7497 -1.0227
 1163SOL    MW4 4420   4.441   2.500   3.558  0.1542  0.0831  0.0858
 1164SOL     OW 4421   5.517   1.758   1.630  0.0816 -0.2510  0.0870
 1164SOL    HW2 4422   5.499   1.814   1.555  2.2275  0.4793  0.0661
 1164SOL    HW3 4423   5.518   1.817   1.705 -1.2810 -0.8614  0.6216
 1164SOL    MW4 4424   5.514   1.773   1.630  0.1849 -0.2352  0.1548
 1165SOL     OW 4425   3.330   1.679   1.719  0.0781  0.2265  0.3208
 1165SOL    HW2 4426   3.284   1.619   1.777  0.7649 -1.0298 -0.4042
 1165SOL    HW3 4427   3.377   1.738   1.778 -2.0310  1.2563  1.0678
 1165SOL    MW4 4428   3.331   1.679   1.734 -0.1095  0.1966  0.3237
 1166SOL     OW 4429   1.956   1.261   3.985  0.7075  0.3044 -0.3693
 1166SOL    HW2 4430   1.868   1.285   4.015  0.7762  1.4070 -0.9854
 1166SOL    HW3 4431   1.941   1.201   3.912  0.4328  1.0348 -0.9292
 1166SOL    MW4 4432   1.942   1.257   3.979  0.6803  0.5462 -0.5245
 1167SOL     OW 4433   1.271   0.602   5.457 -0.2299  0.3861  0.6104
 1167SOL    HW2 4434   1.314   0.652   5.388  1.1351  0.1336  1.2500
 1167SOL    HW3 4435   1.184   0.641   5.464  0.9795  3.1942  1.5538
 1167SOL    MW4 4436   1.265   0.614   5.449  0.1097  0.7233  0.8192
 1168SOL     OW 4437   2.580   3.682   0.423  0.2302 -0.1221  0.3914
 1168SOL    HW2 4438   2.513   3.745   0.446 -0.3743 -0.1246 -1.2572
 1168SOL    HW3 4439   2.662   3.720   0.456 -0.3306  0.7237  0.8330
 1168SOL    MW4 4440   2.582   3.695   0.431  0.0765 -0.0108  0.2322
 1169SOL     OW 4441   4.635   5.598   1.980 -0.4121  0.5801  0.2960
 1169SOL    HW2 4442   4.670   5.652   2.051 -0.5896  1.0618  0.0213
 1169SOL    HW3 4443   4.609   5.661   1.913 -0.5095  0.1434 -0.0781
 1169SOL    MW4 4444   4.636   5.614   1.981 -0.4484  0.5861  0.2104
 1170SOL     OW 4445   0.534   1.192   3.735 -0.5101  0.1479  0.0675
 1170SOL    HW2 4446   0.448   1.233   3.743  0.4176  2.2122  0.4006
 1170SOL    HW3 4447   0.517   1.103   3.707 -2.7496  0.4830  0.2232
 1170SOL    MW4 4448   0.520   1.186   3.732 -0.6832  0.4645  0.1320
 1171SOL     OW 4449   4.747   3.150   4.245 -0.0667 -0.1576 -0.1825
 1171SOL    HW2 4450   4.713   3.108   4.166  0.5892 -1.9440  0.4439
 1171SOL    HW3 4451   4.758   3.242   4.220  0.1466 -0.6747 -2.1653
 1171SOL    MW4 4452   4.744   3.157   4.232  0.0480 -0.4615 -0.3615
 1172SOL     OW 4453   1.347   2.258   6.153 -0.1468 -0.3363  0.1681
 1172SOL    HW2 4454   1.386   2.171   6.149  0.7767  0.0437  0.5957
 1172SOL    HW3 4455   1.288   2.255   6.228 -0.7080 -0.8224 -0.2890
 1172SOL    MW4 4456   1.344   2.246   6.163 -0.0990 -0.3503  0.1642
 1173SOL     OW 4457   3.243   3.284   4.415  0.3976  0.1019  0.4930
 1173SOL    HW2 4458   3.169   3.223   4.416  2.6175 -2.7746  0.9859
 1173SOL    HW3 4459   3.255   3.307   4.507  0.7206 -0.2218  0.5320
 1173SOL    MW4 4460   3.235   3.279   4.427  0.7331 -0.3203  0.5632
 1174SOL     OW 4461   4.432   1.210   5.059 -0.2806 -0.1536 -0.2540
 1174SOL    HW2 4462   4.518   1.181   5.028 -0.2284 -0.8726  0.5414
 1174SOL    HW3 4463   4.388   1.129   5.086 -1.1622  0.2225 -0.5298
 1174SOL    MW4 4464   4.438   1.195   5.058 -0.3901 -0.1988 -0.1855
 1175SOL     OW 4465   5.607   4.049   2.432  0.0178 -0.4444  0.3292
 1175SOL    HW2 4466   5.582   4.141   2.436 -0.8689 -0.7059  2.9755
 1175SOL    HW3 4467   5.681   4.047   2.372 -0.8953  1.7168 -1.0135
 1175SOL    MW4 4468   5.613   4.061   2.425 -0.2197 -0.1938  0.5012
 1176SOL     OW 4469   3.656   1.056   4.857 -0.1504  0.2008  0.1249
 1176SOL    HW2 4470   3.673   0.990   4.925 -1.2292  2.1745  2.4806
 1176SOL    HW3 4471   3.702   1.134   4.888 -0.2832  1.0487 -1.7118
 1176SOL    MW4 4472   3.664   1.058   4.870 -0.3103  0.5731  0.1934
 1177SOL     OW 4473   3.789   2.865   5.007 -0.2730  0.1417 -0.5427
 1177SOL    HW2 4474   3.710   2.811   5.000 -0.2035 -0.0976  0.3717
 1177SOL    HW3 4475   3.823   2.846   5.095 -0.3791  1.8767 -0.0869
 1177SOL    MW4 4476   3.783   2.855   5.018 -0.2779  0.3390 -0.3619
 1178SOL     OW 4477   6.036   4.785   5.129 -0.1640 -0.0099  0.4985
 1178SOL    HW2 4478   5.949   4.811   5.158 -1.0896 -0.1441 -1.8962
 1178SOL    HW3 4479   6.066   4.858   5.074 -0.2550 -1.3290 -1.4168
 1178SOL    MW4 4480   6.029   4.798   5.125 -0.2981 -0.2016 -0.0701
 1179SOL     OW 4481   3.664   6.098   3.595 -0.1290  0.6134 -0.6244
 1179SOL    HW2 4482   3.598   6.130   3.532 -0.1574  1.3930 -0.2118
 1179SOL    HW3 4483   3.707   6.177   3.626 -0.1237  0.2319  0.3545
 1179SOL    MW4 4484   3.661   6.113   3.591 -0.1321  0.6660 -0.4408
 1180SOL     OW 4485   6.100   4.546   3.080 -0.3544  0.1496 -0.5444
 1180SOL    HW2 4486   6.045   4.469   3.062  1.8713 -1.2822 -1.6096
 1180SOL    HW3 4487   6.117   4.583   2.993  1.1590 -0.0265 -0.3373
 1180SOL    MW4 4488   6.095   4.541   3.066  0.1390 -0.0626 -0.6576
 1181SOL     OW 4489   0.838   4.591   1.925  0.0295  0.2260 -0.0746
 1181SOL    HW2 4490   0.836   4.536   2.004 -0.7664  1.4027  0.7505
 1181SOL    HW3 4491   0.755   4.573   1.881  0.7890 -0.9979 -1.0846
 1181SOL    MW4 4492   0.827   4.581   1.929  0.0247  0.2198 -0.0990
 1182SOL     OW 4493   2.436   1.843   1.444  0.0789 -0.3047  0.1180
 1182SOL    HW2 4494   2.531   1.837   1.455 -0.1011  0.9655  3.5376
 1182SOL    HW3 4495   2.402   1.764   1.485 -0.3992 -0.6532 -0.9113
 1182SOL    MW4 4496   2.444   1.832   1.451 -0.0079 -0.1831  0.4334
 1183SOL     OW 4497   4.205   6.192   5.847 -0.5255 -0.6988 -0.2905
 1183SOL    HW2 4498   4.234   6.214   5.758  1.9133 -0.6599  0.4423
 1183SOL    HW3 4499   4.218   6.272   5.897  2.0044 -1.7718  0.9258
 1183SOL    MW4 4500   4.210   6.206   5.842  0.1301 -0.8352 -0.0333
 1184SOL     OW 4501   1.536   1.108   0.900  0.4066 -0.1264  0.1450
 1184SOL    HW2 4502   1.555   1.074   0.988  1.3778  1.4369  0.5680
 1184SOL    HW3 4503   1.466   1.051   0.868 -1.3350  0.4112  2.6582
 1184SOL    MW4 4504   1.530   1.096   0.907  0.3050  0.1508  0.5324
 1185SOL     OW 4505   1.250   2.184   2.439 -0.3298 -0.8727  0.9414
 1185SOL    HW2 4506   1.191   2.228   2.377 -0.3697 -0.1858  1.4639
 1185SOL    HW3 4507   1.226   2.220   2.524 -0.5213 -2.0831  1.4149
 1185SOL    MW4 4508   1.239   2.195   2.442 -0.3603 -0.9418  1.0728
 1186SOL     OW 4509   2.050   2.583   2.632  0.1984  0.1451 -0.6626
 1186SOL    HW2 4510   2.121   2.594   2.569 -0.9295 -0.3149 -2.0600
 1186SOL    HW3 4511   2.030   2.672   2.662 -0.7780  0.6549 -2.7073
 1186SOL    MW4 4512   2.057   2.596   2.628 -0.0792  0.1517 -1.1167
 1187SOL     OW 4513   2.719   3.009   5.500 -1.0472 -0.2469 -0.2911
 1187SOL    HW2 4514   2.685   3.005   5.411  0.2921  0.6874 -0.8831
 1187SOL    HW3 4515   2.709   3.101   5.525  1.5417  0.2488 -0.7632
 1187SOL    MW4 4516   2.713   3.021   5.492 -0.5289 -0.0582 -0.4315
 1188SOL     OW 4517   4.918   2.407   1.524  0.1350  0.1752 -0.5067
 1188SOL    HW2 4518   4.851   2.347   1.491  0.4001 -0.5509  0.2534
 1188SOL    HW3 4519   4.874   2.457   1.593  0.6446 -1.0755  0.7721
 1188SOL    MW4 4520   4.904   2.406   1.528  0.2372 -0.0856 -0.2377
 1189SOL     OW 4521   4.469   4.866   3.733 -0.1574 -0.1184  0.2151
 1189SOL    HW2 4522   4.514   4.826   3.659  0.5200  2.4855 -0.8916
 1189SOL    HW3 4523   4.524   4.847   3.809  0.2354 -1.0320 -0.2849
 1189SOL    MW4 4524   4.482   4.858   3.734 -0.0162  0.1046  0.0031
 1190SOL     OW 4525   2.474   3.181   2.966  0.0023 -0.3940 -0.2511
 1190SOL    HW2 4526   2.542   3.115   2.952  0.5372  0.0472  0.2251
 1190SOL    HW3 4527   2.445   3.204   2.878  0.5633 -0.4984 -0.4677
 1190SOL    MW4 4528   2.479   3.175   2.952  0.1469 -0.3496 -0.2169
 1191SOL     OW 4529   1.175   5.473   1.694 -0.8423  0.6095  0.9057
 1191SOL    HW2 4530   1.255   5.465   1.641 -0.7962 -1.1408  1.1701
 1191SOL    HW3 4531   1.173   5.564   1.721  0.5339  0.9215  0.0486
 1191SOL    MW4 4532   1.186   5.484   1.691 -0.6546  0.4197  0.8275
 1192SOL     OW 4533   2.724   1.399   0.694 -0.1796 -0.5546  0.5435
 1192SOL    HW2 4534   2.812   1.417   0.661  0.2287 -1.8056  0.8685
 1192SOL    HW3 4535   2.735   1.391   0.789 -1.1113  1.7251  0.8997
 1192SOL    MW4 4536   2.737   1.400   0.702 -0.2487 -0.4189  0.6334
 1193SOL     OW 4537   2.870   2.229   0.056 -0.1427  0.1486  0.0295
 1193SOL    HW2 4538   2.873   2.324   0.043  1.4817  0.3398  1.4291
 1193SOL    HW3 4539   2.824   2.196  -0.021  0.0229  1.9930 -0.9263
 1193SOL    MW4 4540   2.865   2.238   0.044  0.0935  0.4172  0.0881
 1194SOL     OW 4541   3.646   6.292   3.000 -0.4540  0.3090  0.1838
 1194SOL    HW2 4542   3.720   6.244   2.963 -1.3749 -1.7695  0.8397
 1194SOL    HW3 4543   3.666   6.384   2.984  1.7979 -0.2293 -0.4879
 1194SOL    MW4 4544   3.658   6.298   2.993 -0.2784 -0.0362  0.1817
 1195SOL     OW 4545   4.198   2.722   0.876  0.4324 -0.4022  0.7875
 1195SOL    HW2 4546   4.293   2.729   0.884  0.5594 -0.4404 -0.4779
 1195SOL    HW3 4547   4.166   2.811   0.890  0.8892  0.1393 -1.2083
 1195SOL    MW4 4548   4.206   2.735   0.879  0.5094 -0.3358  0.3572
 1196SOL     OW 4549   0.215   6.290   4.517  0.1459 -0.1567 -0.1480
 1196SOL    HW2 4550   0.131   6.336   4.511 -0.8531 -1.7428  0.9643
 1196SOL    HW3 4551   0.206   6.235   4.595  1.8520 -1.1063 -0.5902
 1196SOL    MW4 4552   0.203   6.289   4.526  0.2392 -0.4913 -0.0596
 1197SOL     OW 4553   4.902   1.535   3.059 -0.6285  0.0639 -0.0248
 1197SOL    HW2 4554   4.924   1.598   2.991  0.2212  1.4655  1.4854
 1197SOL    HW3 4555   4.844   1.471   3.016  0.0002  0.8191 -2.0538
 1197SOL    MW4 4556   4.897   1.535   3.045 -0.4334  0.3485 -0.0932
 1198SOL     OW 4557   0.691   4.141   1.457  0.1853 -0.0395  0.1815
 1198SOL    HW2 4558   0.756   4.200   1.496  0.7712 -1.3154  1.1928
 1198SOL    HW3 4559   0.739   4.061   1.438 -1.1775 -1.2236  1.4769
 1198SOL    MW4 4560   0.706   4.138   1.460  0.0828 -0.3640  0.4859
 1199SOL     OW 4561   5.279   0.294   0.360 -0.3921  0.0168 -0.1611
 1199SOL    HW2 4562   5.359   0.345   0.349 -0.3779 -0.0153 -0.2058
 1199SOL    HW3 4563   5.282   0.263   0.450 -0.3978  0.0898 -0.1356
 1199SOL    MW4 4564   5.290   0.297   0.370 -0.3910  0.0222 -0.1636
 1200SOL     OW 4565   3.982   2.028   5.527 -0.4681  0.4205  0.4354
 1200SOL    HW2 4566   4.007   2.048   5.437  0.6681  0.8945  0.8397
 1200SOL    HW3 4567   3.896   1.986   5.519 -0.5859  0.8487 -0.8272
 1200SOL    MW4 4568   3.974   2.025   5.514 -0.3337  0.5396  0.3222
 1201SOL     OW 4569   2.362   3.648   3.597 -0.4072 -0.2689 -0.4438
 1201SOL    HW2 4570   2.357   3.718   3.531  0.1211 -0.4836 -0.7139
 1201SOL    HW3 4571   2.337   3.692   3.678 -0.4293  0.1572 -0.6725
 1201SOL    MW4 4572   2.358   3.663   3.599 -0.3404 -0.2410 -0.5096
 1202SOL     OW 4573   6.164   0.718   2.127 -0.3050  0.5011  0.1482
 1202SOL    HW2 4574   6.205   0.713   2.213 -1.1275 -0.4058  0.5013
 1202SOL    HW3 4575   6.236   0.736   2.067  0.1239  2.3549  1.1405
 1202SOL    MW4 4576   6.179   0.720   2.130 -0.3569  0.6261  0.3257
 1203SOL     OW 4577   1.380   4.339   5.415 -1.0323  0.4858  0.0147
 1203SOL    HW2 4578   1.349   4.251   5.440  0.8877  0.1048  1.3120
 1203SOL    HW3 4579   1.390   4.335   5.320 -0.6921 -0.8120  0.0856
 1203SOL    MW4 4580   1.377   4.327   5.406 -0.7341  0.2643  0.1952
 1204SOL     OW 4581   0.569   3.641   5.743 -0.6362  0.0429  0.2129
 1204SOL    HW2 4582   0.483   3.608   5.719 -0.5044 -0.5510  0.5547
 1204SOL    HW3 4583   0.591   3.703   5.673 -1.7094  0.8610  0.5778
 1204SOL    MW4 4584   0.561   3.645   5.730 -0.7604  0.0725  0.3061
 1205SOL     OW 4585   3.609   4.615   5.400  0.1861  0.5261  0.3305
 1205SOL    HW2 4586   3.608   4.519   5.394  0.5824  0.6398 -3.1557
 1205SOL    HW3 4587   3.679   4.633   5.463  1.4418 -1.4923 -0.3624
 1205SOL    MW4 4588   3.618   4.604   5.408  0.4041  0.2748 -0.2209
 1206SOL     OW 4589   4.228   1.259   3.972  0.2718 -0.0171 -0.6009
 1206SOL    HW2 4590   4.133   1.255   3.962  0.3727 -2.7090 -1.2908
 1206SOL    HW3 4591   4.243   1.327   4.037 -2.1424  0.2241 -0.2179
 1206SOL    MW4 4592   4.218   1.267   3.979 -0.0334 -0.3405 -0.6414
 1207SOL     OW 4593   0.418   5.305   1.419  0.2062  0.6406 -0.0977
 1207SOL    HW2 4594   0.443   5.382   1.368 -1.3826  1.2459 -0.0322
 1207SOL    HW3 4595   0.420   5.335   1.510  1.2807  0.0860  0.0678
 1207SOL    MW4 4596   0.421   5.319   1.425  0.1383  0.6473 -0.0672
 1208SOL     OW 4597   5.237   4.128   3.367 -0.1181  0.3648 -0.0326
 1208SOL    HW2 4598   5.285   4.139   3.286 -1.5572 -0.2356 -1.0006
 1208SOL    HW3 4599   5.192   4.212   3.380 -0.4537  0.2177 -0.2391
 1208SOL    MW4 4600   5.237   4.141   3.358 -0.3523  0.2662 -0.1876
 1209SOL     OW 4601   1.189   6.288   0.792  0.0597 -0.2794 -0.3357
 1209SOL    HW2 4602   1.207   6.223   0.724  1.7897  0.5584 -0.7134
 1209SOL    HW3 4603   1.239   6.365   0.766  0.2444  0.2817  1.5491
 1209SOL    MW4 4604   1.198   6.290   0.780  0.3123 -0.0949 -0.1369
 1210SOL     OW 4605   3.505   2.917   5.477 -0.1513 -0.0377 -0.2048
 1210SOL    HW2 4606   3.482   2.869   5.398 -0.4365  0.0047 -0.1482
 1210SOL    HW3 4607   3.550   2.853   5.532  1.6200  0.3687 -1.1134
 1210SOL    MW4 4608   3.508   2.902   5.474  0.0448  0.0215 -0.3172
 1211SOL     OW 4609   3.291   3.404   0.900 -1.0200  0.1728  0.3315
 1211SOL    HW2 4610   3.219   3.452   0.859 -0.7201  1.3488  1.1468
 1211SOL    HW3 4611   3.300   3.443   0.987  1.0946  0.5758 -0.0136
 1211SOL    MW4 4612   3.283   3.415   0.906 -0.7015  0.3811  0.3935
 1212SOL     OW 4613   2.855   1.543   0.215 -0.3676 -0.2169  0.0835
 1212SOL    HW2 4614   2.884   1.488   0.288  0.1350  1.9922  1.6454
 1212SOL    HW3 4615   2.760   1.543   0.221 -0.3361  2.0989  2.5908
 1212SOL    MW4 4616   2.846   1.536   0.226 -0.2971  0.3801  0.6204
 1213SOL     OW 4617   3.904   2.486   2.700 -0.4270 -0.5635 -0.2631
 1213SOL    HW2 4618   3.915   2.395   2.673 -1.4556  0.1126 -3.3306
 1213SOL    HW3 4619   3.989   2.527   2.682 -0.5932 -0.4845 -0.8807
 1213SOL    MW4 4620   3.917   2.479   2.694 -0.5847 -0.4639 -0.7493
 1214SOL     OW 4621   2.658   2.609   0.435 -0.3711  0.9360 -0.3738
 1214SOL    HW2 4622   2.616   2.558   0.504 -0.8767 -0.3458 -1.5751
 1214SOL    HW3 4623   2.667   2.547   0.363  2.4187  1.5072 -0.6251
 1214SOL    MW4 4624   2.654   2.594   0.435 -0.0697  0.8423 -0.5654
 1215SOL     OW 4625   5.211   1.489   5.471 -0.1902  0.0722 -0.1079
 1215SOL    HW2 4626   5.122   1.479   5.506 -0.5286  0.1028 -0.9443
 1215SOL    HW3 4627   5.224   1.411   5.417 -0.1706  0.6609 -0.9638
 1215SOL    MW4 4628   5.201   1.477   5.469 -0.2323  0.1539 -0.3312
 1216SOL     OW 4629   5.756   4.828   5.159 -0.5449  0.1714  0.3375
 1216SOL    HW2 4630   5.665   4.859   5.166 -0.4488  0.6951 -0.5927
 1216SOL    HW3 4631   5.773   4.824   5.065  0.2969 -0.2481  0.4962
 1216SOL    MW4 4632   5.746   4.832   5.148 -0.4211  0.1852  0.2357
 1217SOL     OW 4633   6.402   3.527   2.943 -0.6064 -0.0491 -0.4252
 1217SOL    HW2 4634   6.406   3.535   2.848 -1.6846 -1.9809 -0.6942
 1217SOL    HW3 4635   6.308   3.517   2.962 -0.2763 -1.4053  0.6366
 1217SOL    MW4 4636   6.390   3.527   2.933 -0.7051 -0.4829 -0.3206
 1218SOL     OW 4637   1.903   2.010   5.536  0.3563  0.5838  0.2872
 1218SOL    HW2 4638   1.861   2.082   5.489 -0.9887 -1.1253 -1.2552
 1218SOL    HW3 4639   1.944   2.052   5.611 -1.2671  2.8209  0.0355
 1218SOL    MW4 4640   1.903   2.025   5.540 -0.0354  0.6535  0.0505
 1219SOL     OW 4641   4.743   4.224   6.016  0.1872 -0.1897  0.7383
 1219SOL    HW2 4642   4.780   4.143   6.052  1.7106 -0.1958 -0.7305
 1219SOL    HW3 4643   4.648   4.213   6.026  0.4219 -1.3287  2.2358
 1219SOL    MW4 4644   4.735   4.212   6.022  0.4192 -0.3408  0.7421
 1220SOL     OW 4645   1.732   4.062   4.260  0.1844  0.3334 -0.4581
 1220SOL    HW2 4646   1.645   4.102   4.265 -0.0885 -0.1012 -1.4220
 1220SOL    HW3 4647   1.792   4.132   4.286 -0.4410  0.7023  0.0218
 1220SOL    MW4 4648   1.728   4.077   4.264  0.0659  0.3247 -0.5220
 1221SOL     OW 4649   6.138   4.202   1.977  0.2623 -0.0165  0.6850
 1221SOL    HW2 4650   6.171   4.112   1.967 -0.1535 -0.1543  0.5408
 1221SOL    HW3 4651   6.202   4.256   1.933 -0.7310 -0.4627 -1.4249
 1221SOL    MW4 4652   6.151   4.197   1.970  0.0764 -0.0936  0.3876
 1222SOL     OW 4653   2.903   4.381   0.859 -0.1514 -0.3301  0.3554
 1222SOL    HW2 4654   2.847   4.403   0.785  0.6432 -3.1783 -1.2234
 1222SOL    HW3 4655   2.988   4.421   0.838 -0.2901  0.0098  0.4301
 1222SOL    MW4 4656   2.907   4.389   0.847 -0.0649 -0.6611  0.1569
 1223SOL     OW 4657   2.198   3.844   5.962  0.2274  0.0748 -0.4934
 1223SOL    HW2 4658   2.221   3.908   6.029 -1.3088  0.2831 -0.1234
 1223SOL    HW3 4659   2.113   3.874   5.928  0.4450 -0.6493 -1.7431
 1223SOL    MW4 4660   2.190   3.856   5.966  0.0534  0.0068 -0.6095
 1224SOL     OW 4661   5.983   6.196   4.159  0.0171  0.0386  0.0198
 1224SOL    HW2 4662   5.961   6.228   4.246  0.9556  1.2374 -0.1548
 1224SOL    HW3 4663   5.936   6.113   4.151  0.5669 -0.4996  1.9621
 1224SOL    MW4 4664   5.974   6.189   4.169  0.2135  0.1257  0.2530
 1225SOL     OW 4665   4.040   0.289   0.645  0.3419  0.0893 -0.5180
 1225SOL    HW2 4666   4.045   0.202   0.603  1.5164 -0.4018  0.5719
 1225SOL    HW3 4667   3.984   0.275   0.721  0.5808  0.2570 -0.3089
 1225SOL    MW4 4668   4.034   0.275   0.649  0.5284  0.0466 -0.3466
 1226SOL     OW 4669   0.681   3.802   0.625 -0.0737 -0.1204  0.1994
 1226SOL    HW2 4670   0.613   3.854   0.668  0.7142  0.9544  0.2031
 1226SOL    HW3 4671   0.748   3.790   0.693  0.1806 -0.3172 -0.0859
 1226SOL    MW4 4672   0.681   3.808   0.640  0.0638 -0.0046  0.1623
 1227SOL     OW 4673   4.649   5.191   1.819  0.0016 -0.8512 -0.4818
 1227SOL    HW2 4674   4.691   5.255   1.762  1.0856  0.1554  1.3598
 1227SOL    HW3 4675   4.606   5.244   1.887  0.5108 -2.0393  0.8041
 1227SOL    MW4 4676   4.649   5.207   1.820  0.2118 -0.8751 -0.0692
 1228SOL     OW 4677   3.182   3.178   2.420  0.1249  0.2049  0.0387
 1228SOL    HW2 4678   3.251   3.140   2.366  0.0576  0.5992 -0.3256
 1228SOL    HW3 4679   3.101   3.156   2.374  0.1168  1.3180 -0.5164
 1228SOL    MW4 4680   3.180   3.170   2.407  0.1150  0.4038 -0.0826
 1229SOL     OW 4681   0.961   5.871   6.341 -0.6541  0.0221  0.0824
 1229SOL    HW2 4682   0.930   5.943   6.286  0.9380 -1.3545 -2.8706
 1229SOL    HW3 4683   0.888   5.810   6.344 -0.6029 -0.1154 -1.0159
 1229SOL    MW4 4684   0.947   5.873   6.334 -0.4373 -0.1776 -0.4521
 1230SOL     OW 4685   6.312   2.124   2.537  0.2537 -0.0407  0.5213
 1230SOL    HW2 4686   6.355   2.053   2.490  2.2213  2.4532 -1.7546
 1230SOL    HW3 4687   6.366   2.136   2.616 -0.1674 -1.0773  0.9893
 1230SOL    MW4 4688   6.325   2.116   2.541  0.4578  0.1516  0.2828
 1231SOL     OW 4689   2.738   0.869   1.914  0.0325 -0.2830  0.1496
 1231SOL    HW2 4690   2.776   0.784   1.893 -2.2346 -1.4181  0.2997
 1231SOL    HW3 4691   2.783   0.897   1.993  2.5167 -0.1448 -1.2315
 1231SOL    MW4 4692   2.749   0.861   1.921  0.0611 -0.4145 -0.0128
 1232SOL     OW 4693   6.027   4.682   3.297 -0.3600  0.3715 -0.1380
 1232SOL    HW2 4694   6.051   4.773   3.280  0.0323  0.5733  1.2901
 1232SOL    HW3 4695   6.035   4.638   3.213 -1.8326  1.9083 -1.1493
 1232SOL    MW4 4696   6.031   4.688   3.284 -0.5025  0.6009 -0.0830
 1233SOL     OW 4697   2.280   5.334   1.450  0.4853 -0.5551 -0.1929
 1233SOL    HW2 4698   2.302   5.361   1.540  0.8058  0.2545 -0.5027
 1233SOL    HW3 4699   2.348   5.272   1.426  0.8837 -0.1255 -0.1769
 1233SOL    MW4 4700   2.292   5.329   1.459  0.5801 -0.3916 -0.2317
 1234SOL     OW 4701   3.492   1.848   3.972  0.4044  0.1065  0.4571
 1234SOL    HW2 4702   3.548   1.895   3.909 -0.5669  1.2002  0.3839
 1234SOL    HW3 4703   3.444   1.785   3.919  1.4870 -0.7957  0.5090
 1234SOL    MW4 4704   3.493   1.846   3.957  0.4191  0.1317  0.4543
 1235SOL     OW 4705   4.931   0.386   0.265  0.1501 -0.5848 -0.4715
 1235SOL    HW2 4706   5.001   0.450   0.281  0.1671 -0.8639  0.6964
 1235SOL    HW3 4707   4.898   0.408   0.178 -0.3687  1.5357  0.1855
 1235SOL    MW4 4708   4.936   0.397   0.256  0.0839 -0.3418 -0.2307
 1236SOL     OW 4709   3.490   5.466   2.092 -0.9522  0.2050  0.2523
 1236SOL    HW2 4710   3.554   5.536   2.088 -1.6328  0.7808 -1.3492
 1236SOL    HW3 4711   3.472   5.455   2.185 -0.1782  1.5417  0.5801
 1236SOL    MW4 4712   3.496   5.474   2.104 -0.9399  0.4573  0.0843
 1237SOL     OW 4713   2.275   2.766   2.215  0.4054 -0.2611 -0.3410
 1237SOL    HW2 4714   2.240   2.689   2.259  0.2572  0.4047  0.7313
 1237SOL    HW3 4715   2.365   2.742   2.191  1.5174  0.2735  2.8443
 1237SOL    MW4 4716   2.283   2.753   2.217  0.5326 -0.1028  0.2208
 1238SOL     OW 4717   2.522   2.462   0.659 -0.5638  0.2725 -0.0770
 1238SOL    HW2 4718   2.564   2.503   0.735  1.2906  0.1664 -0.9816
 1238SOL    HW3 4719   2.524   2.368   0.679 -1.8933  0.3587  0.5802
 1238SOL    MW4 4720   2.528   2.455   0.672 -0.4945  0.2699 -0.1097
 1239SOL     OW 4721   2.564   3.444   2.608 -0.4400  0.0470  0.3189
 1239SOL    HW2 4722   2.481   3.417   2.647 -0.5348 -0.3675 -0.1647
 1239SOL    HW3 4723   2.631   3.409   2.667 -0.6104  2.1025  1.8430
 1239SOL    MW4 4724   2.562   3.436   2.621 -0.4749  0.2635  0.4562
 1240SOL     OW 4725   2.567   3.870   1.819 -0.3178 -0.4052  0.0457
 1240SOL    HW2 4726   2.646   3.923   1.815 -0.1110 -0.7369 -0.2873
 1240SOL    HW3 4727   2.572   3.825   1.904  1.2401 -2.5427 -1.0814
 1240SOL    MW4 4728   2.578   3.871   1.830 -0.0850 -0.7310 -0.1469
 1241SOL     OW 4729   3.969   3.018   3.127  0.0462  0.1659  0.0241
 1241SOL    HW2 4730   3.963   3.091   3.190  0.0927  0.4434 -0.2917
 1241SOL    HW3 4731   4.053   3.031   3.083  1.2756 -1.5241  1.7235
 1241SOL    MW4 4732   3.979   3.030   3.130  0.2145 -0.0204  0.2067
 1242SOL     OW 4733   1.555   5.876   6.124  0.3529 -0.1156 -0.2641
 1242SOL    HW2 4734   1.539   5.942   6.057  1.3772  0.7811  0.3549
 1242SOL    HW3 4735   1.543   5.793   6.079 -0.0709  0.4724 -1.2731
 1242SOL    MW4 4736   1.551   5.874   6.109  0.4321  0.0802 -0.3155
 1243SOL     OW 4737   3.219   2.079   5.668 -0.6805 -0.0150 -0.3588
 1243SOL    HW2 4738   3.224   2.175   5.673  0.0204 -0.0128 -0.9586
 1243SOL    HW3 4739   3.298   2.054   5.621 -1.4721 -0.8017 -1.3042
 1243SOL    MW4 4740   3.230   2.089   5.662 -0.6925 -0.1185 -0.5627
 1244SOL     OW 4741   3.335   2.524   5.918 -0.6717  0.3744  0.2850
 1244SOL    HW2 4742   3.345   2.616   5.943  2.5106  0.1251  0.2741
 1244SOL    HW3 4743   3.306   2.480   5.998  2.0777  0.7646  1.5936
 1244SOL    MW4 4744   3.332   2.531   5.932  0.1109  0.3930  0.4563
 1245SOL     OW 4745   4.796   4.886   3.314  0.3725 -0.5417 -0.6017
 1245SOL    HW2 4746   4.731   4.945   3.277  0.2234 -2.1587 -3.1976
 1245SOL    HW3 4747   4.878   4.936   3.313 -0.5216  1.2046  1.8889
 1245SOL    MW4 4748   4.798   4.900   3.309  0.2349 -0.5247 -0.6156
 1246SOL     OW 4749   0.577   0.537   2.497 -0.1724  0.3548  0.2757
 1246SOL    HW2 4750   0.633   0.499   2.429 -0.5668 -2.5315  1.4273
 1246SOL    HW3 4751   0.635   0.597   2.545  1.4378 -1.1030  0.2336
 1246SOL    MW4 4752   0.592   0.540   2.495 -0.0120 -0.2184  0.4221
 1247SOL     OW 4753   4.163   0.252   5.177  0.3664 -0.1412 -0.0768
 1247SOL    HW2 4754   4.137   0.338   5.146  0.7848  0.9266  2.3081
 1247SOL    HW3 4755   4.217   0.269   5.254 -0.1146 -2.5497  0.9030
 1247SOL    MW4 4756   4.167   0.266   5.183  0.3581 -0.3181  0.3671
 1248SOL     OW 4757   2.274   1.852   0.408  0.0681 -0.2176  0.0799
 1248SOL    HW2 4758   2.338   1.781   0.405 -0.9905 -1.1876 -0.5118
 1248SOL    HW3 4759   2.300   1.911   0.338  0.0172 -0.8794 -0.5065
 1248SOL    MW4 4760   2.286   1.850   0.399 -0.0783 -0.4329 -0.0755
 1249SOL     OW 4761   3.374   2.848   1.180  0.3858 -0.3241  0.2585
 1249SOL    HW2 4762   3.330   2.866   1.263 -1.1476  0.7072 -0.7107
 1249SOL    HW3 4763   3.354   2.756   1.162 -2.1356  0.2750 -0.4856
 1249SOL    MW4 4764   3.365   2.838   1.188 -0.1492 -0.1090  0.0324
 1250SOL     OW 4765   4.850   6.023   5.125 -0.3217 -0.3935 -0.2724
 1250SOL    HW2 4766   4.882   6.087   5.188 -0.4755 -0.0413 -0.5451
 1250SOL    HW3 4767   4.865   5.938   5.167  1.9015 -0.3193 -0.8025
 1250SOL    MW4 4768   4.856   6.020   5.139 -0.0487 -0.3372 -0.3783
 1251SOL     OW 4769   3.926   0.641   6.089 -0.4665 -0.8885  0.0166
 1251SOL    HW2 4770   3.969   0.721   6.060 -1.9306 -0.3746 -0.8226
 1251SOL    HW3 4771   3.993   0.596   6.141  0.3062  0.9940  0.7556
 1251SOL    MW4 4772   3.941   0.646   6.092 -0.5577 -0.5724  0.0034
 1252SOL     OW 4773   0.129   3.548   3.465 -0.0331 -0.6831 -0.1464
 1252SOL    HW2 4774   0.062   3.508   3.411 -1.6659  1.8455 -0.1381
 1252SOL    HW3 4775   0.093   3.545   3.554  0.4446 -0.4807  0.0589
 1252SOL    MW4 4776   0.116   3.542   3.470 -0.1855 -0.3228 -0.1182
 1253SOL     OW 4777   1.105   4.229   2.034  0.2997 -0.9873  0.3105
 1253SOL    HW2 4778   1.075   4.250   2.123 -0.9792 -1.6548  0.0446
 1253SOL    HW3 4779   1.149   4.309   2.005  0.1721 -0.5359  1.2971
 1253SOL    MW4 4780   1.107   4.242   2.042  0.1142 -1.0158  0.4056
 1254SOL     OW 4781   3.305   2.547   1.142  0.1640 -0.1779 -0.0906
 1254SOL    HW2 4782   3.220   2.504   1.143 -0.6960  1.2930 -2.1254
 1254SOL    HW3 4783   3.338   2.532   1.053  2.1216 -0.8351  0.7014
 1254SOL    MW4 4784   3.298   2.539   1.130  0.3088 -0.0705 -0.2546
 1255SOL     OW 4785   4.277   1.199   5.650 -0.4620  0.3781  0.3878
 1255SOL    HW2 4786   4.295   1.187   5.557  1.6081  1.0072  0.6495
 1255SOL    HW3 4787   4.224   1.124   5.674 -2.2458  0.9160 -1.5621
 1255SOL    MW4 4788   4.272   1.188   5.641 -0.4242  0.5321  0.1650
 1256SOL     OW 4789   2.707   6.364   6.074  0.3856  0.2221  0.1261
 1256SOL    HW2 4790   2.622   6.340   6.111 -0.0977  1.4748 -0.1106
 1256SOL    HW3 4791   2.753   6.407   6.146  0.5218  0.2158  0.0422
 1256SOL    MW4 4792   2.701   6.366   6.088  0.3398  0.3866  0.0838
 1257SOL     OW 4793   4.143   1.693   2.356  0.5520 -0.0953 -0.1493
 1257SOL    HW2 4794   4.107   1.622   2.302  0.8311 -0.4396  0.1111
 1257SOL    HW3 4795   4.146   1.769   2.298 -1.6091  0.2401  0.1129
 1257SOL    MW4 4796   4.139   1.694   2.341  0.3037 -0.0965 -0.0804
 1258SOL     OW 4797   1.843   3.690   3.029 -0.1751 -0.0522  0.4837
 1258SOL    HW2 4798   1.840   3.757   2.961 -1.5637  0.0964  0.6794
 1258SOL    HW3 4799   1.754   3.683   3.061 -0.0073 -1.7779  0.6947
 1258SOL    MW4 4800   1.831   3.698   3.024 -0.3362 -0.2603  0.5373
 1259SOL     OW 4801   3.817   4.873   5.459 -0.0898  0.3389  0.1450
 1259SOL    HW2 4802   3.817   4.921   5.541 -2.0580 -0.0032  0.3900
 1259SOL    HW3 4803   3.750   4.916   5.406 -2.0007 -2.0870  0.4106
 1259SOL    MW4 4804   3.808   4.885   5.462 -0.6016 -0.0263  0.2124
 1260SOL     OW 4805   0.766   5.543   5.115  0.7934  0.1451  0.1504
 1260SOL    HW2 4806   0.857   5.572   5.110  0.8524 -0.0995 -0.2706
 1260SOL    HW3 4807   0.754   5.489   5.037  0.2498  0.2797  0.1370
 1260SOL    MW4 4808   0.777   5.539   5.104  0.7295  0.1306  0.0931
 1261SOL     OW 4809   3.705   4.288   1.182  0.0916  0.3258 -0.4834
 1261SOL    HW2 4810   3.621   4.251   1.209 -0.2448  0.8775 -0.7662
 1261SOL    HW3 4811   3.753   4.214   1.144  0.3720 -0.3497  1.1183
 1261SOL    MW4 4812   3.700   4.273   1.181  0.0842  0.3095 -0.3094
 1262SOL     OW 4813   1.142   2.664   3.465  0.3601  0.2082 -0.0811
 1262SOL    HW2 4814   1.103   2.618   3.540  1.0986 -1.4082 -0.6311
 1262SOL    HW3 4815   1.236   2.654   3.478  0.5970  2.2640  0.1438
 1262SOL    MW4 4816   1.149   2.656   3.477  0.4888  0.2661 -0.1240
 1263SOL     OW 4817   6.094   3.177   1.246  0.3469 -0.3229 -0.0412
 1263SOL    HW2 4818   6.163   3.111   1.239  0.7687  0.2064 -1.1343
 1263SOL    HW3 4819   6.091   3.218   1.160 -0.5704  0.4309  0.3287
 1263SOL    MW4 4820   6.103   3.174   1.234  0.2815 -0.1536 -0.1366
 1264SOL     OW 4821   4.790   2.853   2.433  0.1927 -0.2998  0.0229
 1264SOL    HW2 4822   4.755   2.848   2.522  0.4733 -0.6081  0.1215
 1264SOL    HW3 4823   4.720   2.893   2.382  0.6452  1.4623  0.6990
 1264SOL    MW4 4824   4.776   2.857   2.438  0.2894 -0.1080  0.1251
 1265SOL     OW 4825   0.495   2.812   6.128 -0.8180 -0.0109 -0.1149
 1265SOL    HW2 4826   0.426   2.878   6.129  0.3994  1.3464 -1.0169
 1265SOL    HW3 4827   0.567   2.853   6.080 -0.3724 -2.3939 -1.6775
 1265SOL    MW4 4828   0.495   2.826   6.122 -0.5986 -0.1463 -0.4401
 1266SOL     OW 4829   4.271   4.975   4.378  0.2846 -0.4426  0.1668
 1266SOL    HW2 4830   4.254   5.058   4.334 -0.3183 -0.7246 -0.1428
 1266SOL    HW3 4831   4.222   4.982   4.461  2.2448  0.5065  1.3155
 1266SOL    MW4 4832   4.262   4.987   4.383  0.4637 -0.3546  0.2775
 1267SOL     OW 4833   5.694   5.128   4.054  0.0136 -0.4092  0.5196
 1267SOL    HW2 4834   5.692   5.075   4.134 -0.5139 -0.5701  0.4030
 1267SOL    HW3 4835   5.689   5.064   3.983  0.2810 -0.2551  0.3611
 1267SOL    MW4 4836   5.693   5.112   4.055 -0.0207 -0.4101  0.4833
 1268SOL     OW 4837   1.779   0.854   1.924 -0.2296  0.5569  0.1518
 1268SOL    HW2 4838   1.732   0.916   1.980  0.1753  1.5671 -0.5907
 1268SOL    HW3 4839   1.870   0.860   1.954 -0.2368  0.0728  0.2825
 1268SOL    MW4 4840   1.785   0.863   1.936 -0.1771  0.6263  0.0711
 1269SOL     OW 4841   5.741   3.197   4.706  0.5007  0.1917 -0.0242
 1269SOL    HW2 4842   5.658   3.215   4.751 -0.2513 -0.3305 -1.1472
 1269SOL    HW3 4843   5.764   3.279   4.662 -0.9261 -0.4017 -2.0135
 1269SOL    MW4 4844   5.733   3.210   4.706  0.2132  0.0445 -0.4349
 1270SOL     OW 4845   3.844   1.317   5.950  0.6819 -0.0226 -0.0269
 1270SOL    HW2 4846   3.870   1.305   6.041  1.5886 -0.8799 -0.3772
 1270SOL    HW3 4847   3.925   1.302   5.900 -0.1037 -0.9694 -1.0476
 1270SOL    MW4 4848   3.858   1.313   5.955  0.6979 -0.2606 -0.2078
 1271SOL     OW 4849   3.610   3.109   2.533  0.7606 -0.4112 -0.3216
 1271SOL    HW2 4850   3.677   3.084   2.596  0.5121  0.1221  0.1547
 1271SOL    HW3 4851   3.659   3.138   2.456  1.1165  1.4484  0.5772
 1271SOL    MW4 4852   3.625   3.109   2.531  0.7748 -0.0955 -0.1402
 1272SOL     OW 4853   3.467   0.592   2.136 -0.0608  0.6975 -0.1603
 1272SOL    HW2 4854   3.397   0.648   2.102  1.1973  2.5170  0.0647
 1272SOL    HW3 4855   3.466   0.514   2.081 -2.3231  0.5959 -0.0686
 1272SOL    MW4 4856   3.458   0.589   2.124 -0.1933  0.9242 -0.1185
 1273SOL     OW 4857   0.271   0.441   3.677  0.5067 -0.0018  0.4149
 1273SOL    HW2 4858   0.220   0.434   3.758  0.4415 -0.0741  0.3677
 1273SOL    HW3 4859   0.340   0.504   3.698  0.0552  0.5338  0.3006
 1273SOL    MW4 4860   0.273   0.448   3.691  0.4385  0.0593  0.3936
 1274SOL     OW 4861   1.998   4.601   0.813 -0.2054 -0.4735 -0.3328
 1274SOL    HW2 4862   1.951   4.671   0.857  1.7350  0.3048  0.6304
 1274SOL    HW3 4863   2.052   4.562   0.881  0.5664 -1.3060 -1.3783
 1274SOL    MW4 4864   1.999   4.605   0.828  0.1524 -0.4806 -0.3436
 1275SOL     OW 4865   2.880   4.494   5.776  0.0982 -0.3160  0.0196
 1275SOL    HW2 4866   2.900   4.547   5.699  2.0038 -0.7445  0.1861
 1275SOL    HW3 4867   2.875   4.558   5.848 -0.7595 -0.0273 -0.2783
 1275SOL    MW4 4868   2.882   4.510   5.776  0.2364 -0.3345  0.0023
 1276SOL     OW 4869   3.519   1.573   1.166 -0.0996 -0.3699  0.1322
 1276SOL    HW2 4870   3.499   1.480   1.161 -0.1778 -0.3681  0.4197
 1276SOL    HW3 4871   3.438   1.614   1.197  0.0517 -0.2492  0.3691
 1276SOL    MW4 4872   3.506   1.566   1.169 -0.0900 -0.3537  0.2014
 1277SOL     OW 4873   4.278   0.271   0.800 -0.0924  0.3078  0.3655
 1277SOL    HW2 4874   4.313   0.183   0.783  0.2592  0.2692  1.2421
 1277SOL    HW3 4875   4.198   0.275   0.748 -0.5083 -0.8145  0.8713
 1277SOL    MW4 4876   4.272   0.260   0.791 -0.1009  0.1547  0.5479
 1278SOL     OW 4877   1.644   1.988   2.126  0.2293  0.0553 -0.5475
 1278SOL    HW2 4878   1.689   1.910   2.159  2.0503  0.8879 -0.9337
 1278SOL    HW3 4879   1.610   2.031   2.204  0.3380 -0.4497 -0.2143
 1278SOL    MW4 4880   1.645   1.983   2.140  0.4839  0.0985 -0.5545
 1279SOL     OW 4881   4.109   5.228   4.276  0.0621  0.0445 -0.0836
 1279SOL    HW2 4882   4.187   5.283   4.285 -0.0264 -0.0299  1.4520
 1279SOL    HW3 4883   4.126   5.174   4.199  1.1131  0.6863 -0.3190
 1279SOL    MW4 4884   4.121   5.228   4.267  0.1891  0.1193  0.0880
 1280SOL     OW 4885   2.790   2.644   4.353  0.4507 -0.6756 -0.5262
 1280SOL    HW2 4886   2.760   2.591   4.279 -0.1117  0.6718 -1.3122
 1280SOL    HW3 4887   2.855   2.589   4.397 -0.4026 -2.1655 -1.0437
 1280SOL    MW4 4888   2.795   2.630   4.349  0.2639 -0.6944 -0.6982
 1281SOL     OW 4889   0.025   4.591   1.268 -0.6668  0.3628  0.1946
 1281SOL    HW2 4890   0.068   4.558   1.189  0.5940  0.3530  0.8518
 1281SOL    HW3 4891  -0.069   4.577   1.253 -0.3328 -1.4202 -0.5088
 1281SOL    MW4 4892   0.018   4.584   1.256 -0.4564  0.1263  0.1885
 1282SOL     OW 4893   6.083   0.632   2.910  0.4316  0.2898  0.4303
 1282SOL    HW2 4894   6.178   0.623   2.898  0.5375  1.2694  0.4778
 1282SOL    HW3 4895   6.053   0.681   2.834  0.2999  1.8642  1.4458
 1282SOL    MW4 4896   6.092   0.637   2.899  0.4282  0.6268  0.5706
 1283SOL     OW 4897   3.058   3.052   1.231  0.4773  0.2725  0.0443
 1283SOL    HW2 4898   3.023   3.061   1.320  0.5675  2.1015 -0.0708
 1283SOL    HW3 4899   3.060   2.957   1.216  0.3320 -0.0821  1.9328
 1283SOL    MW4 4900   3.054   3.041   1.241  0.4700  0.4670  0.2783
 1284SOL     OW 4901   6.228   2.855   4.951  0.1571  0.1960  0.0765
 1284SOL    HW2 4902   6.157   2.919   4.947  1.7734  2.1887  1.1424
 1284SOL    HW3 4903   6.190   2.781   5.000 -1.1083  1.3106  0.8751
 1284SOL    MW4 4904   6.213   2.853   4.957  0.2034  0.6060  0.3225
 1285SOL     OW 4905   4.108   2.787   4.791 -0.0129 -0.1723 -0.2581
 1285SOL    HW2 4906   4.201   2.784   4.770 -0.1276  1.5857 -1.1580
 1285SOL    HW3 4907   4.091   2.877   4.816 -0.8316 -1.1614  3.3190
 1285SOL    MW4 4908   4.118   2.798   4.791 -0.1360 -0.0709  0.0951
 1286SOL     OW 4909   4.997   3.804   0.293  0.4419  0.2985 -0.7806
 1286SOL    HW2 4910   5.084   3.767   0.280  0.6656  1.1837 -1.8946
 1286SOL    HW3 4911   5.003   3.850   0.377  1.0629  0.3658 -0.8563
 1286SOL    MW4 4912   5.009   3.805   0.303  0.5533  0.4242 -0.9376
 1287SOL     OW 4913   1.350   5.392   5.410  0.1039  0.0732 -0.3236
 1287SOL    HW2 4914   1.297   5.385   5.489 -2.6183 -1.0632 -2.1332
 1287SOL    HW3 4915   1.396   5.308   5.404  1.8218  0.8555  0.9503
 1287SOL    MW4 4916   1.349   5.380   5.419 -0.0286  0.0265 -0.3942
 1288SOL     OW 4917   2.388   4.422   6.094  0.6074  0.0216  0.2687
 1288SOL    HW2 4918   2.447   4.489   6.060  1.0777 -0.2546  0.5261
 1288SOL    HW3 4919   2.434   4.386   6.170  1.5786 -2.3693 -1.3211
 1288SOL    MW4 4920   2.402   4.426   6.099  0.7976 -0.3303  0.0929
 1289SOL     OW 4921   4.186   3.858   0.150 -0.3025  0.0249  0.0516
 1289SOL    HW2 4922   4.183   3.767   0.178  1.0297  0.6734  2.6320
 1289SOL    HW3 4923   4.132   3.905   0.214 -1.7838  0.9814 -1.7992
 1289SOL    MW4 4924   4.179   3.852   0.162 -0.3222  0.2366  0.1478
 1290SOL     OW 4925   3.594   4.946   5.966  0.2278  0.0521  0.0100
 1290SOL    HW2 4926   3.598   4.858   6.004 -2.5096 -1.0569 -2.0212
 1290SOL    HW3 4927   3.529   4.992   6.018  0.7483  0.4899  0.2852
 1290SOL    MW4 4928   3.586   4.940   5.978 -0.0647 -0.0364 -0.2217
 1291SOL     OW 4929   3.732   3.669   3.359 -0.0211  0.2374 -0.0897
 1291SOL    HW2 4930   3.715   3.652   3.451 -0.0464  0.3310 -0.0766
 1291SOL    HW3 4931   3.713   3.586   3.315  0.5672  0.0205  0.0605
 1291SOL    MW4 4932   3.727   3.656   3.365  0.0532  0.2211 -0.0681
 1292SOL     OW 4933   5.279   3.954   2.951 -0.2996  0.3703  0.1234
 1292SOL    HW2 4934   5.285   3.910   3.036 -2.5065  1.5713  0.9980
 1292SOL    HW3 4935   5.349   3.915   2.899  0.6040 -1.0104  2.2090
 1292SOL    MW4 4936   5.289   3.943   2.955 -0.4716  0.3466  0.5140
 1293SOL     OW 4937   2.363   3.366   0.276 -0.2820  0.3886 -0.5189
 1293SOL    HW2 4938   2.283   3.313   0.282 -0.7464  1.0390 -0.9108
 1293SOL    HW3 4939   2.334   3.456   0.291  0.3577  0.6443 -0.7777
 1293SOL    MW4 4940   2.348   3.371   0.278 -0.2589  0.5081 -0.6047
 1294SOL     OW 4941   0.628   5.556   3.734  0.0120  0.0438  0.0292
 1294SOL    HW2 4942   0.606   5.492   3.667 -1.1428 -0.6035  0.9787
 1294SOL    HW3 4943   0.618   5.641   3.690 -0.0710 -0.3793 -0.7877
 1294SOL    MW4 4944   0.623   5.559   3.720 -0.1513 -0.0974  0.0467
 1295SOL     OW 4945   6.018   5.882   2.640 -0.9350 -0.1184  0.3064
 1295SOL    HW2 4946   5.942   5.824   2.632 -1.1659  0.3341 -0.9237
 1295SOL    HW3 4947   5.985   5.968   2.614  0.2381 -0.1181 -1.2626
 1295SOL    MW4 4948   6.003   5.885   2.636 -0.8107 -0.0587 -0.0629
 1296SOL     OW 4949   2.936   2.481   5.461 -0.6618  0.0713 -0.1029
 1296SOL    HW2 4950   2.996   2.549   5.492 -0.4031 -0.2454  0.0973
 1296SOL    HW3 4951   2.876   2.527   5.402  0.2785  0.2555 -0.9630
 1296SOL    MW4 4952   2.936   2.496   5.457 -0.5036  0.0538 -0.1900
 1297SOL     OW 4953   3.146   2.567   3.832 -0.0217  0.2085 -0.7911
 1297SOL    HW2 4954   3.135   2.554   3.926 -1.0396 -2.2923 -1.1787
 1297SOL    HW3 4955   3.161   2.661   3.822 -1.8079  0.8470  1.6888
 1297SOL    MW4 4956   3.147   2.578   3.843 -0.3917 -0.0372 -0.5150
 1298SOL     OW 4957   0.500   3.142   3.905 -0.4322 -0.0744 -0.2475
 1298SOL    HW2 4958   0.545   3.122   3.987 -1.3798 -0.0979  0.2736
 1298SOL    HW3 4959   0.565   3.192   3.854 -0.3672  1.3384  1.1580
 1298SOL    MW4 4960   0.515   3.146   3.909 -0.5487  0.1089  0.0067
 1299SOL     OW 4961   0.836   1.778   5.167  0.1212 -0.0037 -0.6471
 1299SOL    HW2 4962   0.875   1.837   5.232 -2.4883 -0.4720  1.4986
 1299SOL    HW3 4963   0.742   1.794   5.173 -0.4259 -2.1622 -2.2656
 1299SOL    MW4 4964   0.829   1.788   5.176 -0.2953 -0.3503 -0.5776
 1300SOL     OW 4965   1.432   2.648   3.468  0.2014 -0.3382  0.0450
 1300SOL    HW2 4966   1.441   2.561   3.431  1.2471 -0.3509  0.3051
 1300SOL    HW3 4967   1.413   2.705   3.393  0.4373 -0.6453 -0.2464
 1300SOL    MW4 4968   1.431   2.644   3.453  0.3705 -0.3804  0.0409
 1301SOL     OW 4969   3.501   5.724   4.985 -0.8697 -0.1648  0.0721
 1301SOL    HW2 4970   3.464   5.666   5.051 -0.1111  0.7155  1.3154
 1301SOL    HW3 4971   3.572   5.674   4.944 -2.4175 -1.3307 -1.3166
 1301SOL    MW4 4972   3.505   5.710   4.988 -0.9738 -0.2025  0.0529
 1302SOL     OW 4973   1.052   1.592   1.727 -0.5475 -0.3056  0.7405
 1302SOL    HW2 4974   0.981   1.590   1.663  0.0181  0.7401  0.0513
 1302SOL    HW3 4975   1.078   1.500   1.737  0.1505 -0.4167 -1.4607
 1302SOL    MW4 4976   1.046   1.580   1.720 -0.3808 -0.1823  0.3592
 1303SOL     OW 4977   3.927   0.838   0.596  0.5439  0.1031 -0.6402
 1303SOL    HW2 4978   3.915   0.743   0.600  0.8642  0.0639 -0.6168
 1303SOL    HW3 4979   3.953   0.863   0.685 -3.2348  0.7342  0.4614
 1303SOL    MW4 4980   3.929   0.829   0.609  0.0876  0.1812 -0.4918
 1304SOL     OW 4981   1.270   3.810   4.377  0.0584  0.3717 -0.4394
 1304SOL    HW2 4982   1.302   3.766   4.298  0.3740  2.4983 -1.5710
 1304SOL    HW3 4983   1.181   3.837   4.356 -0.9218 -1.4929  1.0229
 1304SOL    MW4 4984   1.263   3.808   4.364 -0.0293  0.4063 -0.3957
 1305SOL     OW 4985   5.742   3.521   6.415  0.0722 -0.4716 -0.7610
 1305SOL    HW2 4986   5.684   3.446   6.421 -0.7483  0.0421 -1.9099
 1305SOL    HW3 4987   5.696   3.583   6.358  0.4651  1.1519  0.6007
 1305SOL    MW4 4988   5.729   3.519   6.408  0.0158 -0.1896 -0.7330
 1306SOL     OW 4989   2.264   4.886   4.573 -0.3230  0.3148 -0.6152
 1306SOL    HW2 4990   2.310   4.944   4.512  1.5656 -2.3141 -1.9193
 1306SOL    HW3 4991   2.179   4.871   4.533 -0.3505  1.1730 -0.8978
 1306SOL    MW4 4992   2.259   4.892   4.560 -0.0774  0.0811 -0.8245
 1307SOL     OW 4993   4.258   6.012   5.208  0.2338  0.7571 -0.0318
 1307SOL    HW2 4994   4.327   5.946   5.214 -0.0047  0.3039 -1.6947
 1307SOL    HW3 4995   4.177   5.962   5.218  0.0044  0.5642 -2.2452
 1307SOL    MW4 4996   4.256   5.997   5.210  0.1721  0.6719 -0.5433
 1308SOL     OW 4997   1.863   0.096   0.088 -0.0697  0.2168  0.1350
 1308SOL    HW2 4998   1.858   0.164   0.156 -0.9573  0.4472 -0.1461
 1308SOL    HW3 4999   1.945   0.051   0.105  0.2649  1.0102  0.6693
 1308SOL    MW4 5000   1.873   0.099   0.100 -0.1427  0.3518  0.1684
 1309SOL     OW 5001   3.660   3.118   3.327 -0.0543 -0.1688 -0.2924
 1309SOL    HW2 5002   3.657   3.102   3.233  0.8487 -1.9870 -0.0618
 1309SOL    HW3 5003   3.703   3.040   3.363 -3.0027 -0.9361  1.9712
 1309SOL    MW4 5004   3.666   3.106   3.320 -0.3242 -0.5099  0.0367
 1310SOL     OW 5005   1.203   3.008   2.528 -0.4505 -0.4450 -0.4316
 1310SOL    HW2 5006   1.212   2.913   2.526 -3.4536 -0.9236  1.9221
 1310SOL    HW3 5007   1.111   3.023   2.507 -1.0059  1.5833  2.8042
 1310SOL    MW4 5008   1.192   2.997   2.525 -0.9200 -0.2405  0.3059
 1311SOL     OW 5009   3.691   4.566   1.660 -0.1656 -0.2785  0.3588
 1311SOL    HW2 5010   3.734   4.485   1.634 -1.0993 -0.5993 -0.2423
 1311SOL    HW3 5011   3.628   4.539   1.727  0.2297  0.1144  0.8981
 1311SOL    MW4 5012   3.688   4.552   1.665 -0.2366 -0.2689  0.3506
 1312SOL     OW 5013   0.805   2.446   1.047  0.0383 -0.1152  0.1389
 1312SOL    HW2 5014   0.865   2.375   1.026  1.0267  0.7931 -0.1687
 1312SOL    HW3 5015   0.777   2.428   1.137  3.8775  1.5370  1.8593
 1312SOL    MW4 5016   0.809   2.434   1.056  0.6752  0.2226  0.3253
 1313SOL     OW 5017   4.744   1.318   3.027 -0.3554 -0.5202  0.2316
 1313SOL    HW2 5018   4.786   1.280   3.105 -0.3253 -0.7459  0.1070
 1313SOL    HW3 5019   4.731   1.243   2.969 -1.4930 -0.5509  0.5184
 1313SOL    MW4 5020   4.748   1.303   3.030 -0.5015 -0.5540  0.2530
 1314SOL     OW 5021   2.576   5.768   4.250 -0.3406 -0.1707 -0.2697
 1314SOL    HW2 5022   2.503   5.765   4.189 -1.2056  1.3748  0.6300
 1314SOL    HW3 5023   2.641   5.708   4.212 -0.3225  1.5728 -3.3457
 1314SOL    MW4 5024   2.575   5.760   4.237 -0.4524  0.2632 -0.5568
 1315SOL     OW 5025   1.092   0.884   5.731  1.1803  0.6191  0.5292
 1315SOL    HW2 5026   1.162   0.829   5.765  0.3860  0.5805  2.2049
 1315SOL    HW3 5027   1.067   0.842   5.648  1.5174 -0.7698  1.0975
 1315SOL    MW4 5028   1.098   0.871   5.725  1.1199  0.4307  0.8253
 1316SOL     OW 5029   1.143   6.430   2.560 -0.6958  0.2637  0.6452
 1316SOL    HW2 5030   1.077   6.488   2.598 -1.0463 -0.0112  0.4688
 1316SOL    HW3 5031   1.119   6.424   2.468 -0.1930  0.4690  0.5017
 1316SOL    MW4 5032   1.131   6.437   2.553 -0.6757  0.2545  0.6030
 1317SOL     OW 5033   1.395   1.351   6.112 -0.2025  0.7186 -0.3227
 1317SOL    HW2 5034   1.367   1.269   6.070  0.6999  0.2927 -0.1167
 1317SOL    HW3 5035   1.325   1.371   6.174 -0.6388  0.3394 -0.6784
 1317SOL    MW4 5036   1.382   1.343   6.115 -0.1410  0.6123 -0.3425
 1318SOL     OW 5037   0.828   4.614   6.212  0.2199  0.4335 -0.0615
 1318SOL    HW2 5038   0.846   4.632   6.120  1.6415 -0.6674 -0.0303
 1318SOL    HW3 5039   0.904   4.565   6.243  0.2794  1.6751  1.9873
 1318SOL    MW4 5040   0.840   4.610   6.204  0.4153  0.4521  0.2129
 1319SOL     OW 5041   4.067   3.252   5.211 -0.3177  0.2061  0.0896
 1319SOL    HW2 5042   4.084   3.173   5.158  1.2366  0.4123  0.2301
 1319SOL    HW3 5043   4.039   3.318   5.147 -0.9639 -0.2609 -0.1210
 1319SOL    MW4 5044   4.065   3.250   5.195 -0.1979  0.1717  0.0803
 1320SOL     OW 5045   4.167   6.020   1.980 -0.4997 -0.1707 -0.1487
 1320SOL    HW2 5046   4.106   5.948   1.993 -0.4157 -0.3486 -0.7268
 1320SOL    HW3 5047   4.112   6.094   1.953 -0.7411  0.3482  1.6293
 1320SOL    MW4 5048   4.152   6.020   1.978 -0.5204 -0.1257  0.0096
 1321SOL     OW 5049   5.100   2.834   3.174  0.7673  0.3048 -0.2204
 1321SOL    HW2 5050   5.148   2.879   3.243  0.2186  0.3434  0.1452
 1321SOL    HW3 5051   5.069   2.904   3.116  1.4477  0.2538 -0.6605
 1321SOL    MW4 5052   5.102   2.849   3.176  0.7847  0.3031 -0.2303
 1322SOL     OW 5053   4.483   0.083   4.250  0.0277  0.0137  0.5272
 1322SOL    HW2 5054   4.459   0.055   4.162 -2.0160 -3.3068  1.9597
 1322SOL    HW3 5055   4.422   0.154   4.271  1.5504  1.9417 -1.1608
 1322SOL    MW4 5056   4.472   0.089   4.242 -0.0410 -0.1700  0.4935
 1323SOL     OW 5057   0.739   5.044   1.837 -0.0812  0.0029  0.3369
 1323SOL    HW2 5058   0.793   5.122   1.849  0.2852 -0.2511  0.3857
 1323SOL    HW3 5059   0.790   4.974   1.878 -0.6973 -0.1504  0.8557
 1323SOL    MW4 5060   0.753   5.045   1.844 -0.1142 -0.0508  0.4118
 1324SOL     OW 5061   2.244   2.919   4.959 -0.2950 -0.2990 -0.0573
 1324SOL    HW2 5062   2.278   2.871   4.884 -1.3053 -1.9178  0.4726
 1324SOL    HW3 5063   2.183   2.858   5.001 -2.0667  1.6319  0.3554
 1324SOL    MW4 5064   2.240   2.904   4.955 -0.6621 -0.2578  0.0671
 1325SOL     OW 5065   2.246   1.076   5.840 -0.4341  0.7537  0.0073
 1325SOL    HW2 5066   2.239   1.028   5.923 -2.8152  0.1091 -0.4760
 1325SOL    HW3 5067   2.271   1.009   5.776 -1.8341  0.5187 -0.3256
 1325SOL    MW4 5068   2.248   1.060   5.842 -0.9330  0.6376 -0.1004
 1326SOL     OW 5069   6.065   0.651   5.968 -0.5840 -0.4770 -0.2890
 1326SOL    HW2 5070   5.998   0.614   6.025  0.3476 -0.8791  0.5673
 1326SOL    HW3 5071   6.141   0.594   5.980 -0.7014 -1.3285 -2.8398
 1326SOL    MW4 5072   6.067   0.639   5.977 -0.4765 -0.6424 -0.5126
 1327SOL     OW 5073   5.834   5.097   0.993  0.1574  0.0138 -0.1531
 1327SOL    HW2 5074   5.919   5.106   1.035  0.0991  1.0675 -0.2546
 1327SOL    HW3 5075   5.815   5.183   0.955 -1.2648  0.0055  0.4662
 1327SOL    MW4 5076   5.843   5.109   0.993 -0.0380  0.1517 -0.0848
 1328SOL     OW 5077   0.559   6.234   6.122 -0.0105  0.1359 -0.4998
 1328SOL    HW2 5078   0.470   6.254   6.095  0.5818  1.2064 -1.7629
 1328SOL    HW3 5079   0.602   6.319   6.131  0.7128 -0.3380  0.7288
 1328SOL    MW4 5080   0.553   6.248   6.119  0.1630  0.2146 -0.5043
 1329SOL     OW 5081   0.179   2.184   3.028 -0.2812  0.3587  0.5230
 1329SOL    HW2 5082   0.141   2.100   3.054 -1.2300  0.9693  1.2029
 1329SOL    HW3 5083   0.131   2.207   2.948  0.0186  0.2345  0.3052
 1329SOL    MW4 5084   0.167   2.176   3.021 -0.3668  0.4229  0.5840
 1330SOL     OW 5085   1.718   4.283   5.650 -0.0897 -0.2511  0.5347
 1330SOL    HW2 5086   1.790   4.323   5.698  0.2673  0.7590 -0.7760
 1330SOL    HW3 5087   1.676   4.356   5.604  0.5272 -1.2938 -1.8814
 1330SOL    MW4 5088   1.722   4.298   5.650  0.0388 -0.2554  0.0430
 1331SOL     OW 5089   1.503   5.140   4.609 -0.7096  0.0417 -0.4720
 1331SOL    HW2 5090   1.591   5.143   4.646 -0.4406  0.0002 -1.0983
 1331SOL    HW3 5091   1.485   5.046   4.599 -0.2889  0.0778 -1.5987
 1331SOL    MW4 5092   1.512   5.128   4.613 -0.6186  0.0410 -0.7033
 1332SOL     OW 5093   1.896   4.155   1.699  0.1170 -0.0425  0.1932
 1332SOL    HW2 5094   1.956   4.101   1.649  1.2103 -0.8379  2.2447
 1332SOL    HW3 5095   1.952   4.221   1.741  0.0788 -2.0869  3.8848
 1332SOL    MW4 5096   1.911   4.157   1.698  0.2562 -0.4172  0.9509
 1333SOL     OW 5097   3.201   1.907   6.321  0.0932 -0.0720  0.1403
 1333SOL    HW2 5098   3.191   1.994   6.359  0.7254 -0.1581  0.5243
 1333SOL    HW3 5099   3.275   1.917   6.260  2.3416 -1.0475  2.5205
 1333SOL    MW4 5100   3.210   1.920   6.318  0.4732 -0.2121  0.5050
 1334SOL     OW 5101   1.313   0.459   0.855  0.2969 -0.2919  0.1436
 1334SOL    HW2 5102   1.256   0.535   0.865  1.4428  0.8175 -1.2175
 1334SOL    HW3 5103   1.373   0.484   0.784  1.1685 -2.1927  0.1568
 1334SOL    MW4 5104   1.313   0.472   0.847  0.5631 -0.3963 -0.0342
 1335SOL     OW 5105   5.509   3.042   5.221  0.2627  0.2669 -0.9676
 1335SOL    HW2 5106   5.602   3.064   5.212  0.5179 -0.4869 -0.2827
 1335SOL    HW3 5107   5.508   2.963   5.275 -0.7481 -0.1360 -1.5519
 1335SOL    MW4 5108   5.521   3.035   5.227  0.1630  0.1143 -0.9543
 1336SOL     OW 5109   4.378   3.933   1.546 -0.1286  0.0392 -0.1120
 1336SOL    HW2 5110   4.384   4.019   1.587 -0.2039  0.2494 -0.5394
 1336SOL    HW3 5111   4.454   3.885   1.580  0.6975  0.7320 -0.9434
 1336SOL    MW4 5112   4.389   3.938   1.556 -0.0295  0.1584 -0.2781
 1337SOL     OW 5113   2.867   5.459   5.680  0.5957  0.4512 -0.4074
 1337SOL    HW2 5114   2.816   5.378   5.680  0.8536  0.2808 -0.8167
 1337SOL    HW3 5115   2.878   5.481   5.772 -0.3122  0.5565 -0.3151
 1337SOL    MW4 5116   2.862   5.451   5.692  0.5099  0.4426 -0.4492
 1338SOL     OW 5117   0.373   3.190   3.269 -0.4714  0.4037  0.0834
 1338SOL    HW2 5118   0.313   3.228   3.205 -0.9931  0.5576  0.6542
 1338SOL    HW3 5119   0.451   3.245   3.264 -0.6100  0.5745 -0.2343
 1338SOL    MW4 5120   0.375   3.203   3.260 -0.5585  0.4465  0.1168
 1339SOL     OW 5121   5.545   6.092   3.590  0.2610 -0.8800  0.5541
 1339SOL    HW2 5122   5.462   6.047   3.573 -0.2297 -0.1791  1.0529
 1339SOL    HW3 5123   5.547   6.162   3.524 -0.2269 -0.0192  1.4310
 1339SOL    MW4 5124   5.534   6.095   3.579  0.1318 -0.6739  0.7356
 1340SOL     OW 5125   6.111   3.443   5.437 -0.4027 -0.0878  0.2482
 1340SOL    HW2 5126   6.070   3.530   5.439 -0.7120 -0.2376  1.5814
 1340SOL    HW3 5127   6.047   3.388   5.391 -0.4035  0.2869 -0.2115
 1340SOL    MW4 5128   6.097   3.447   5.431 -0.4436 -0.0582  0.3635
 1341SOL     OW 5129   5.620   1.371   0.588  0.0167  0.3637 -0.4511
 1341SOL    HW2 5130   5.564   1.356   0.665 -0.4807 -0.3076 -0.9297
 1341SOL    HW3 5131   5.678   1.443   0.615  0.3777 -0.3690  0.8188
 1341SOL    MW4 5132   5.620   1.379   0.602 -0.0013  0.1785 -0.3467
 1342SOL     OW 5133   1.041   1.078   1.930 -0.0799  0.1026  0.3309
 1342SOL    HW2 5134   1.025   1.145   1.864  1.6025 -0.4132 -0.6686
 1342SOL    HW3 5135   1.067   1.001   1.880  0.5312 -0.5177  1.5665
 1342SOL    MW4 5136   1.042   1.077   1.915  0.2227 -0.0473  0.3620
 1343SOL     OW 5137   3.450   4.001   3.750 -0.0941 -0.4020  0.1905
 1343SOL    HW2 5138   3.422   3.974   3.837 -0.0977  0.3022  0.4096
 1343SOL    HW3 5139   3.428   4.094   3.745  0.6761 -0.2315 -0.2469
 1343SOL    MW4 5140   3.444   4.010   3.761  0.0071 -0.2866  0.1617
 1344SOL     OW 5141   1.788   5.626   1.315 -0.2788  0.2585  0.1443
 1344SOL    HW2 5142   1.840   5.552   1.285  2.3016  1.2789  1.6891
 1344SOL    HW3 5143   1.766   5.605   1.406  1.4813  1.7747  0.9863
 1344SOL    MW4 5144   1.792   5.614   1.323  0.2938  0.5932  0.4592
 1345SOL     OW 5145   4.078   2.747   5.466  0.1448 -0.0859 -0.0782
 1345SOL    HW2 5146   4.057   2.823   5.520  1.0706 -0.9395  1.5888
 1345SOL    HW3 5147   4.034   2.763   5.383 -2.6250  0.6061  1.3934
 1345SOL    MW4 5148   4.070   2.759   5.463 -0.0985 -0.1072  0.3359
 1346SOL     OW 5149   2.422   2.416   4.748 -0.0028  0.0916 -0.4936
 1346SOL    HW2 5150   2.407   2.394   4.840  2.3984  1.2979  0.2792
 1346SOL    HW3 5151   2.368   2.494   4.733  2.5555  2.4063  1.2356
 1346SOL    MW4 5152   2.413   2.424   4.758  0.6515  0.5562 -0.1635
 1347SOL     OW 5153   4.469   5.170   0.018 -0.0836  0.2437  0.0424
 1347SOL    HW2 5154   4.426   5.089  -0.008 -0.0235  0.2890 -0.1948
 1347SOL    HW3 5155   4.508   5.204  -0.062  0.7663 -0.0209  0.3371
 1347SOL    MW4 5156   4.469   5.164   0.004  0.0365  0.2148  0.0500
 1348SOL     OW 5157   3.368   4.337   2.355 -0.2850  0.3577  0.3954
 1348SOL    HW2 5158   3.446   4.315   2.405 -0.0473  0.3712  0.0410
 1348SOL    HW3 5159   3.382   4.428   2.328 -1.2025  0.9311  1.7507
 1348SOL    MW4 5160   3.380   4.346   2.358 -0.3747  0.4352  0.5275
 1349SOL     OW 5161   5.356   1.142   0.546  0.4838 -0.4349 -0.4349
 1349SOL    HW2 5162   5.325   1.230   0.569 -0.1941 -1.2017  1.7639
 1349SOL    HW3 5163   5.277   1.088   0.546  1.3058 -1.7405  1.8090
 1349SOL    MW4 5164   5.341   1.147   0.549  0.5028 -0.7083  0.1513
 1350SOL     OW 5165   4.505   0.555   0.120  0.9349  0.0692  0.2871
 1350SOL    HW2 5166   4.435   0.613   0.150  0.3620  0.4496 -1.6164
 1350SOL    HW3 5167   4.466   0.468   0.120  0.9834  0.0451  0.7379
 1350SOL    MW4 5168   4.491   0.551   0.124  0.8657  0.1162  0.0955
 1351SOL     OW 5169   4.915   2.460   4.015  0.2429 -0.5996 -0.1887
 1351SOL    HW2 5170   4.926   2.555   4.023 -0.5409 -0.6423  3.2665
 1351SOL    HW3 5171   5.003   2.428   3.994  1.1566  0.7549  1.2942
 1351SOL    MW4 5172   4.928   2.469   4.014  0.2600 -0.4265  0.4628
 1352SOL     OW 5173   5.579   1.253   3.395  0.2553 -0.0261  0.9408
 1352SOL    HW2 5174   5.586   1.314   3.468  2.5085  0.7289  0.1570
 1352SOL    HW3 5175   5.522   1.297   3.332  0.3899  0.4635  1.1563
 1352SOL    MW4 5176   5.572   1.267   3.396  0.5704  0.1381  0.8658
 1353SOL     OW 5177   5.308   4.157   2.661 -0.1445 -0.3241  0.0903
 1353SOL    HW2 5178   5.356   4.077   2.640  0.1795 -0.1320  0.0772
 1353SOL    HW3 5179   5.357   4.195   2.735  1.3436  1.2499 -1.5757
 1353SOL    MW4 5180   5.321   4.152   2.668  0.0946 -0.0911 -0.1313
 1354SOL     OW 5181   2.899   1.554   3.034  0.2047  0.0862 -0.0184
 1354SOL    HW2 5182   2.964   1.610   2.992 -1.4194  1.2237 -1.1404
 1354SOL    HW3 5183   2.890   1.479   2.975  0.0596  0.2478 -0.2066
 1354SOL    MW4 5184   2.906   1.552   3.020 -0.0288  0.2576 -0.1912
 1355SOL     OW 5185   4.283   2.575   5.541  0.1635 -0.0930 -0.4014
 1355SOL    HW2 5186   4.205   2.619   5.508  0.3334  0.5983  0.1029
 1355SOL    HW3 5187   4.278   2.585   5.636  1.2374  0.5909 -0.4066
 1355SOL    MW4 5188   4.272   2.582   5.549  0.3276  0.0884 -0.3355
 1356SOL     OW 5189   2.304   2.739   3.500 -0.4661  0.2952  0.3740
 1356SOL    HW2 5190   2.380   2.691   3.469  0.2177  2.3379 -1.3614
 1356SOL    HW3 5191   2.339   2.805   3.560 -1.2294 -0.4195  1.6694
 1356SOL    MW4 5192   2.319   2.742   3.504 -0.4766  0.4704  0.3159
 1357SOL     OW 5193   3.663   2.503   2.529  0.2802  0.4727 -0.2094
 1357SOL    HW2 5194   3.659   2.419   2.574  0.1893  0.1546 -0.7983
 1357SOL    HW3 5195   3.756   2.514   2.508  0.1267 -0.1041 -1.2663
 1357SOL    MW4 5196   3.675   2.493   2.532  0.2479  0.3547 -0.4265
 1358SOL     OW 5197   0.223   6.274   4.198 -0.8282  0.0634 -0.4965
 1358SOL    HW2 5198   0.195   6.185   4.180 -1.7053 -0.1258  1.5528
 1358SOL    HW3 5199   0.175   6.300   4.277  2.1163  1.0015  1.1694
 1358SOL    MW4 5200   0.213   6.266   4.206 -0.5554  0.1623 -0.0063
 1359SOL     OW 5201   3.680   3.584   0.881 -0.1704 -0.2029  0.3929
 1359SOL    HW2 5202   3.605   3.548   0.834 -1.6562  1.9045  1.0471
 1359SOL    HW3 5203   3.685   3.533   0.962 -0.0186 -1.2346 -0.2425
 1359SOL    MW4 5204   3.671   3.572   0.885 -0.3464 -0.0610  0.3954
 1360SOL     OW 5205   4.288   5.471   5.312  0.4147 -0.3244  0.1399
 1360SOL    HW2 5206   4.250   5.534   5.252  0.3680 -0.6203 -0.1421
 1360SOL    HW3 5207   4.287   5.388   5.264 -0.8209 -0.8462  1.0022
 1360SOL    MW4 5208   4.283   5.468   5.298  0.2455 -0.4323  0.2165
 1361SOL     OW 5209   1.663   4.009   1.772 -0.0186 -0.2857 -0.2064
 1361SOL    HW2 5210   1.734   4.057   1.728 -0.4325  0.9193  0.3778
 1361SOL    HW3 5211   1.628   3.951   1.704  0.0900  0.7053 -1.1498
 1361SOL    MW4 5212   1.668   4.008   1.757 -0.0589  0.0040 -0.2538
 1362SOL     OW 5213   0.483   5.087   5.819 -0.2461  0.0674  0.2189
 1362SOL    HW2 5214   0.394   5.061   5.841 -0.4535  0.8696  0.3797
 1362SOL    HW3 5215   0.478   5.115   5.727  0.0876 -0.9255 -0.1203
 1362SOL    MW4 5216   0.471   5.088   5.810 -0.2295  0.0423  0.1953
 1363SOL     OW 5217   5.291   0.753   3.683  0.6816 -0.1437  0.2651
 1363SOL    HW2 5218   5.318   0.842   3.663 -1.8084  0.5474 -0.3391
 1363SOL    HW3 5219   5.197   0.759   3.697  0.5445 -2.5871  0.8623
 1363SOL    MW4 5220   5.282   0.765   3.683  0.3350 -0.3749  0.2642
 1364SOL     OW 5221   2.149   1.112   4.491 -0.0655  0.2141 -0.2640
 1364SOL    HW2 5222   2.098   1.122   4.411 -2.6171 -0.2022  1.1879
 1364SOL    HW3 5223   2.185   1.024   4.486 -2.2140 -0.7489  0.0346
 1364SOL    MW4 5224   2.147   1.102   4.480 -0.6856  0.0321 -0.0331
 1365SOL     OW 5225   6.097   4.148   4.712  0.5340 -0.7124  0.2652
 1365SOL    HW2 5226   6.147   4.226   4.691 -0.8071  0.5156  1.3474
 1365SOL    HW3 5227   6.162   4.079   4.722  1.7978  0.3589 -0.2727
 1365SOL    MW4 5228   6.112   4.149   4.711  0.5238 -0.4090  0.3370
 1366SOL     OW 5229   3.622   3.046   0.973 -0.0027  0.0714 -0.2049
 1366SOL    HW2 5230   3.692   3.085   0.921  0.3976 -1.5500 -0.9402
 1366SOL    HW3 5231   3.541   3.078   0.932  0.3064 -0.9032 -1.6459
 1366SOL    MW4 5232   3.620   3.056   0.961  0.0909 -0.2711 -0.4920
 1367SOL     OW 5233   2.776   3.457   6.107 -0.2036  0.0052 -0.0167
 1367SOL    HW2 5234   2.771   3.370   6.147  0.8851  0.4702  1.2166
 1367SOL    HW3 5235   2.685   3.489   6.107 -0.5031 -0.8290  0.2004
 1367SOL    MW4 5236   2.763   3.450   6.112 -0.0995 -0.0435  0.1747
 1368SOL     OW 5237   2.749   2.772   0.850 -0.1513  0.1821 -0.3802
 1368SOL    HW2 5238   2.669   2.721   0.862 -0.7763  1.0328 -0.7983
 1368SOL    HW3 5239   2.757   2.823   0.930 -0.1654  0.2783 -0.4398
 1368SOL    MW4 5240   2.740   2.772   0.862 -0.2356  0.3070 -0.4433
 1369SOL     OW 5241   5.893   1.623   4.920  0.9184  0.0590 -0.1101
 1369SOL    HW2 5242   5.979   1.605   4.883  1.1354  0.8522  0.0067
 1369SOL    HW3 5243   5.896   1.715   4.946  0.3539 -0.1593  0.7650
 1369SOL    MW4 5244   5.905   1.633   4.918  0.8726  0.1348  0.0208
 1370SOL     OW 5245   6.360   6.314   3.894  0.5481 -0.2137 -0.2128
 1370SOL    HW2 5246   6.349   6.258   3.970 -0.7526  1.6472  1.0420
 1370SOL    HW3 5247   6.272   6.329   3.861  0.9614  0.3043 -1.1363
 1370SOL    MW4 5248   6.347   6.309   3.899  0.4310  0.1002 -0.1691
 1371SOL     OW 5249   0.782   3.369   2.175  0.4275  0.4179  0.3502
 1371SOL    HW2 5250   0.837   3.294   2.199  0.3092  0.4674  0.7887
 1371SOL    HW3 5251   0.693   3.334   2.172  0.4663  0.3530 -0.2944
 1371SOL    MW4 5252   0.778   3.354   2.178  0.4170  0.4159  0.3230
 1372SOL     OW 5253   2.356   3.009   1.620  0.7377 -0.2655 -0.9730
 1372SOL    HW2 5254   2.387   2.922   1.647  0.3506 -0.5053 -1.2912
 1372SOL    HW3 5255   2.276   3.022   1.672  0.8001 -0.0925 -0.9196
 1372SOL    MW4 5256   2.349   2.999   1.631  0.6949 -0.2743 -1.0079
 1373SOL     OW 5257   4.892   2.075   1.182  0.1295 -0.4230 -0.3063
 1373SOL    HW2 5258   4.811   2.074   1.233  1.5947 -0.8107  2.1827
 1373SOL    HW3 5259   4.868   2.117   1.099 -3.2096 -3.0293 -0.8430
 1373SOL    MW4 5260   4.878   2.080   1.178 -0.1177 -0.8180 -0.0487
 1374SOL     OW 5261   0.189   0.407   1.561  0.1812  0.4526  0.1796
 1374SOL    HW2 5262   0.249   0.427   1.633 -0.3182 -0.0016  0.7341
 1374SOL    HW3 5263   0.104   0.440   1.590  0.3311  2.0220 -1.0359
 1374SOL    MW4 5264   0.185   0.414   1.575  0.1351  0.5997  0.0924
 1375SOL     OW 5265   4.615   5.171   3.915 -0.6969  0.2111 -0.3213
 1375SOL    HW2 5266   4.532   5.129   3.938 -0.1057 -1.2975 -0.8363
 1375SOL    HW3 5267   4.681   5.124   3.965  0.1436 -0.4121 -1.9642
 1375SOL    MW4 5268   4.612   5.160   3.925 -0.5080 -0.0702 -0.6060
 1376SOL     OW 5269   2.645   4.354   5.796  0.2143  0.3631  0.1531
 1376SOL    HW2 5270   2.576   4.400   5.747 -0.0690  0.3693  0.5493
 1376SOL    HW3 5271   2.723   4.408   5.786  0.4758 -0.2407 -1.2902
 1376SOL    MW4 5272   2.646   4.367   5.788  0.2114  0.2843  0.0149
 1377SOL     OW 5273   4.648   0.521   2.220  0.9906  0.1048 -0.2775
 1377SOL    HW2 5274   4.571   0.572   2.193 -0.7147 -1.8900  0.5148
 1377SOL    HW3 5275   4.688   0.574   2.289 -1.3421  0.0112  1.2731
 1377SOL    MW4 5276   4.643   0.535   2.226  0.4578 -0.1708  0.0316
 1378SOL     OW 5277   3.548   0.342   0.515  0.3016 -0.2440 -0.4079
 1378SOL    HW2 5278   3.498   0.424   0.520  0.2746 -0.2246 -0.9589
 1378SOL    HW3 5279   3.597   0.339   0.597  2.1548  1.5142 -1.3603
 1378SOL    MW4 5280   3.548   0.352   0.526  0.5426 -0.0095 -0.6062
 1379SOL     OW 5281   0.998   5.649   5.066  0.1448  0.2271 -0.4964
 1379SOL    HW2 5282   0.986   5.702   4.988  0.2519  0.5214 -0.3151
 1379SOL    HW3 5283   1.069   5.693   5.114  0.5435 -0.3258 -0.5634
 1379SOL    MW4 5284   1.006   5.661   5.062  0.2116  0.1930 -0.4813
 1380SOL     OW 5285   4.016   4.709   1.972  0.1691  0.0614 -0.0655
 1380SOL    HW2 5286   4.020   4.749   1.885  0.4110 -1.7922 -0.9563
 1380SOL    HW3 5287   4.105   4.715   2.006  0.1576  0.4366 -0.0950
 1380SOL    MW4 5288   4.028   4.715   1.965  0.1995 -0.1336 -0.1869
 1381SOL     OW 5289   5.257   5.711   4.757 -0.5987 -0.1964  0.1089
 1381SOL    HW2 5290   5.168   5.747   4.755 -0.8182 -0.6155 -3.0615
 1381SOL    HW3 5291   5.314   5.787   4.766 -1.2299  0.3230 -0.2104
 1381SOL    MW4 5292   5.252   5.726   4.758 -0.7109 -0.1832 -0.3515
 1382SOL     OW 5293   2.119   0.814   4.795 -0.4209  0.3306 -0.2712
 1382SOL    HW2 5294   2.193   0.771   4.753 -1.0938 -1.2423  0.0728
 1382SOL    HW3 5295   2.066   0.847   4.722 -0.0928  0.2156 -0.5634
 1382SOL    MW4 5296   2.122   0.812   4.779 -0.4664  0.1079 -0.2644
 1383SOL     OW 5297   5.662   2.308   5.857 -0.3993  0.2333 -0.6547
 1383SOL    HW2 5298   5.651   2.263   5.941 -1.3555  0.7513 -0.4878
 1383SOL    HW3 5299   5.640   2.242   5.791 -0.1478 -0.0255 -0.4815
 1383SOL    MW4 5300   5.657   2.293   5.859 -0.4923  0.2675 -0.6098
 1384SOL     OW 5301   3.477   1.892   4.951  0.2683 -0.1251  0.4049
 1384SOL    HW2 5302   3.565   1.908   4.985 -0.0663 -0.9264  1.7097
 1384SOL    HW3 5303   3.446   1.978   4.923  1.1211  0.3165  0.7835
 1384SOL    MW4 5304   3.485   1.905   4.952  0.3366 -0.1725  0.6270
 1385SOL     OW 5305   2.848   0.760   0.322  0.3703  0.5251 -0.6746
 1385SOL    HW2 5306   2.941   0.775   0.303  0.3728  1.3162 -0.0884
 1385SOL    HW3 5307   2.843   0.762   0.418 -0.2742  0.6244 -0.7068
 1385SOL    MW4 5308   2.860   0.762   0.332  0.2856  0.6425 -0.6015
 1386SOL     OW 5309   2.259   5.285   0.330 -0.0838  0.3524  0.0854
 1386SOL    HW2 5310   2.255   5.189   0.331  0.2062  0.3399  0.5497
 1386SOL    HW3 5311   2.350   5.304   0.308 -0.1518  0.5213 -0.0476
 1386SOL    MW4 5312   2.271   5.275   0.327 -0.0545  0.3730  0.1291
 1387SOL     OW 5313   0.060   4.988   0.930 -0.6937 -0.4535 -0.4593
 1387SOL    HW2 5314   0.131   5.041   0.895  0.3036 -0.5376  1.3038
 1387SOL    HW3 5315   0.061   5.004   1.024 -2.4454 -1.1592 -0.2625
 1387SOL    MW4 5316   0.069   4.997   0.938 -0.7932 -0.5577 -0.2007
 1388SOL     OW 5317   0.369   5.992   5.539 -0.2823  0.4841  0.0411
 1388SOL    HW2 5318   0.337   6.013   5.451 -0.9858 -1.9873 -0.3881
 1388SOL    HW3 5319   0.463   6.007   5.536 -0.5890  2.5830 -0.4002
 1388SOL    MW4 5320   0.377   5.997   5.527 -0.4155  0.4350 -0.0738
 1389SOL     OW 5321   3.953   3.088   2.772 -0.0311  0.3584  0.2293
 1389SOL    HW2 5322   3.879   3.141   2.801 -0.5441  0.6658 -1.4791
 1389SOL    HW3 5323   4.025   3.113   2.829 -1.1208  0.3734  1.6526
 1389SOL    MW4 5324   3.952   3.098   2.783 -0.2425  0.4009  0.1917
 1390SOL     OW 5325   3.494   3.555   6.112 -0.1143 -0.0415 -0.0385
 1390SOL    HW2 5326   3.545   3.636   6.117  2.0458 -1.3419  0.7736
 1390SOL    HW3 5327   3.405   3.581   6.133  0.5582  2.0776  0.4371
 1390SOL    MW4 5328   3.489   3.569   6.116  0.2594  0.0665  0.1314
 1391SOL     OW 5329   6.242   0.699   3.992  0.3302  0.2639 -0.0255
 1391SOL    HW2 5330   6.285   0.615   4.011 -0.1736  0.0219  0.0530
 1391SOL    HW3 5331   6.272   0.722   3.904 -0.4136 -0.5634 -0.5107
 1391SOL    MW4 5332   6.252   0.691   3.983  0.1656  0.1228 -0.0792
 1392SOL     OW 5333   0.866   5.826   3.734  0.0230  0.7304  0.4803
 1392SOL    HW2 5334   0.928   5.894   3.710  0.9071  0.2297  1.2725
 1392SOL    HW3 5335   0.786   5.848   3.687  0.6113  1.7354 -0.0686
 1392SOL    MW4 5336   0.864   5.838   3.725  0.2173  0.7969  0.5124
 1393SOL     OW 5337   0.442   5.394   4.692 -1.0595  1.2321  0.3268
 1393SOL    HW2 5338   0.492   5.459   4.742  0.9029 -1.1977  1.7592
 1393SOL    HW3 5339   0.365   5.376   4.747 -1.8497  2.5921 -0.2909
 1393SOL    MW4 5340   0.439   5.400   4.706 -0.9049  1.0910  0.4343
 1394SOL     OW 5341   2.542   2.940   0.075 -0.0383 -0.3143 -0.1549
 1394SOL    HW2 5342   2.491   3.017   0.101  2.8613  2.1553 -1.1870
 1394SOL    HW3 5343   2.608   2.930   0.143 -0.0338 -1.5839 -0.3168
 1394SOL    MW4 5344   2.544   2.949   0.087  0.3449 -0.1560 -0.3124
 1395SOL     OW 5345   1.148   0.768   5.064 -0.2814  0.7199 -0.2301
 1395SOL    HW2 5346   1.196   0.829   5.008  0.9599  0.5558  0.6130
 1395SOL    HW3 5347   1.131   0.692   5.009  0.9503  0.5485 -0.3840
 1395SOL    MW4 5348   1.152   0.766   5.050  0.0449  0.6756 -0.1392
 1396SOL     OW 5349   6.250   5.619   2.786 -0.0318 -0.4187 -0.0348
 1396SOL    HW2 5350   6.337   5.599   2.821 -0.1400  0.9194  1.1213
 1396SOL    HW3 5351   6.266   5.688   2.721 -0.2542  0.2740  0.6217
 1396SOL    MW4 5352   6.264   5.626   2.782 -0.0754 -0.1507  0.2043
 1397SOL     OW 5353   0.656   6.072   3.931 -1.0449  0.3264  0.1418
 1397SOL    HW2 5354   0.596   6.138   3.965 -1.8376  0.7984 -2.0341
 1397SOL    HW3 5355   0.663   6.092   3.837 -0.2316 -1.8609 -0.3121
 1397SOL    MW4 5356   0.649   6.084   3.923 -1.0422  0.1001 -0.2051
 1398SOL     OW 5357   3.684   4.818   1.781  1.0123  0.5130 -0.1428
 1398SOL    HW2 5358   3.685   4.732   1.738 -0.5201  0.5162 -0.2548
 1398SOL    HW3 5359   3.775   4.848   1.777  1.7053 -1.3474  0.4272
 1398SOL    MW4 5360   3.696   4.810   1.775  0.9016  0.2680 -0.0824
 1399SOL     OW 5361   1.723   0.256   6.299  0.4101  0.3649  0.6418
 1399SOL    HW2 5362   1.776   0.218   6.369 -0.0855 -0.8356  0.3870
 1399SOL    HW3 5363   1.775   0.242   6.220  0.2705  0.3076  0.5600
 1399SOL    MW4 5364   1.737   0.249   6.298  0.3263  0.1990  0.5974
 1400SOL     OW 5365   4.890   4.705   4.540 -0.0292 -0.3042 -0.3470
 1400SOL    HW2 5366   4.869   4.613   4.525 -0.2041 -0.2011 -0.7274
 1400SOL    HW3 5367   4.855   4.723   4.628  0.2551 -0.6732 -0.1533
 1400SOL    MW4 5368   4.883   4.695   4.550 -0.0147 -0.3393 -0.3716
 1401SOL     OW 5369   4.807   1.109   0.710 -0.1234 -0.0068 -0.1803
 1401SOL    HW2 5370   4.866   1.035   0.720 -1.9575 -1.3608  1.3914
 1401SOL    HW3 5371   4.833   1.171   0.778 -0.2836 -0.4296  0.2666
 1401SOL    MW4 5372   4.818   1.108   0.720 -0.3865 -0.2412  0.0860
 1402SOL     OW 5373   6.008   1.342   4.370  0.6444  0.0575  0.0786
 1402SOL    HW2 5374   5.964   1.262   4.341 -2.0343  1.6699 -0.6393
 1402SOL    HW3 5375   6.101   1.325   4.355  0.1346 -2.7290 -0.4567
 1402SOL    MW4 5376   6.015   1.329   4.364  0.2237 -0.0974 -0.0867
 1403SOL     OW 5377   3.862   2.773   3.069 -0.6527  0.7130  0.1412
 1403SOL    HW2 5378   3.914   2.852   3.083  0.8421 -0.4302  1.4013
 1403SOL    HW3 5379   3.878   2.720   3.147  0.3072 -1.8787 -1.7117
 1403SOL    MW4 5380   3.871   2.777   3.081 -0.3288  0.2203  0.0630
 1404SOL     OW 5381   3.449   2.121   2.255 -0.1530 -0.4092  0.1892
 1404SOL    HW2 5382   3.470   2.213   2.265  0.2789 -0.2177 -2.0241
 1404SOL    HW3 5383   3.495   2.077   2.326 -0.0388  1.0280  1.0184
 1404SOL    MW4 5384   3.458   2.127   2.265 -0.0810 -0.1943  0.0066
 1405SOL     OW 5385   6.415   2.481   0.680  0.0300  0.0236  0.4253
 1405SOL    HW2 5386   6.510   2.467   0.673 -0.0940 -0.0153 -1.9884
 1405SOL    HW3 5387   6.406   2.569   0.716  1.0723  1.2486 -2.0936
 1405SOL    MW4 5388   6.427   2.491   0.684  0.1511  0.1801 -0.2255
 1406SOL     OW 5389   3.465   5.622   2.505 -0.0870  0.0567 -0.5006
 1406SOL    HW2 5390   3.397   5.634   2.572 -0.2798  0.8607 -0.8300
 1406SOL    HW3 5391   3.546   5.647   2.548 -0.1259 -0.0090 -0.3881
 1406SOL    MW4 5392   3.467   5.627   2.519 -0.1176  0.1541 -0.5292
 1407SOL     OW 5393   1.688   0.781   4.886 -0.6416  0.7482 -0.4502
 1407SOL    HW2 5394   1.762   0.720   4.887 -1.0647  0.2261  0.6621
 1407SOL    HW3 5395   1.667   0.792   4.794 -0.1292 -0.2702 -0.7012
 1407SOL    MW4 5396   1.695   0.774   4.874 -0.6298  0.5449 -0.3366
 1408SOL     OW 5397   3.468   0.076   4.944 -0.1494  0.2206 -0.7053
 1408SOL    HW2 5398   3.465   0.167   4.976 -0.1227 -0.1819  0.4726
 1408SOL    HW3 5399   3.527   0.032   5.004 -1.6737 -1.0397 -0.0691
 1408SOL    MW4 5400   3.475   0.082   4.956 -0.3470  0.0012 -0.4660
 1409SOL     OW 5401   1.934   2.094   2.174 -0.3058 -0.2552 -0.2201
 1409SOL    HW2 5402   1.949   2.021   2.114 -0.4060 -1.1233  0.7769
 1409SOL    HW3 5403   1.886   2.055   2.247 -0.6109  0.8752  0.2059
 1409SOL    MW4 5404   1.929   2.080   2.176 -0.3593 -0.2206 -0.0323
 1410SOL     OW 5405   2.470   0.284   0.499  0.1018  0.0628 -0.2130
 1410SOL    HW2 5406   2.394   0.325   0.457 -0.5622  0.6525  1.4520
 1410SOL    HW3 5407   2.507   0.354   0.553  0.1563 -0.9760  1.1305
 1410SOL    MW4 5408   2.465   0.299   0.501  0.0214  0.0036  0.1839
 1411SOL     OW 5409   1.301   2.509   0.001  0.4511 -0.3508 -0.2252
 1411SOL    HW2 5410   1.367   2.505   0.070 -0.2752  1.4658  0.6305
 1411SOL    HW3 5411   1.267   2.420  -0.005  2.1726 -1.0728  0.0781
 1411SOL    MW4 5412   1.305   2.497   0.009  0.5824 -0.2064 -0.0723
 1412SOL     OW 5413   2.030   0.318   3.987 -0.8328 -0.9502  0.1678
 1412SOL    HW2 5414   2.049   0.384   3.920 -1.4979 -0.1674  0.7274
 1412SOL    HW3 5415   2.023   0.236   3.939 -2.8485 -0.1739 -0.9807
 1412SOL    MW4 5416   2.031   0.316   3.972 -1.1865 -0.7445  0.0901
 1413SOL     OW 5417   5.056   3.440   6.158  0.6163 -0.4025 -0.1044
 1413SOL    HW2 5418   5.149   3.462   6.160  0.7088 -0.7238  2.1754
 1413SOL    HW3 5419   5.054   3.352   6.122  1.4384 -1.1363  1.5104
 1413SOL    MW4 5420   5.068   3.431   6.154  0.7370 -0.5417  0.4095
 1414SOL     OW 5421   4.347   5.289   2.296  0.4850 -0.6750 -0.2171
 1414SOL    HW2 5422   4.419   5.259   2.240 -1.6470 -2.7123 -2.0765
 1414SOL    HW3 5423   4.297   5.348   2.239  1.1762  1.6426  1.4172
 1414SOL    MW4 5424   4.350   5.293   2.281  0.2949 -0.6380 -0.2468
 1415SOL     OW 5425   4.316   2.353   5.745  0.3637 -0.5916  0.0484
 1415SOL    HW2 5426   4.299   2.260   5.730  0.9043 -0.6581 -0.1881
 1415SOL    HW3 5427   4.410   2.363   5.727 -0.0459  0.3537 -1.7196
 1415SOL    MW4 5428   4.326   2.342   5.741  0.3810 -0.4757 -0.2161
 1416SOL     OW 5429   0.877   2.238   4.649  0.1963  0.1903  0.2970
 1416SOL    HW2 5430   0.862   2.163   4.707  1.0899  0.2820  0.6500
 1416SOL    HW3 5431   0.849   2.314   4.700  2.5619  0.4642  1.3143
 1416SOL    MW4 5432   0.871   2.238   4.664  0.6263  0.2385  0.4778
 1417SOL     OW 5433   4.768   4.337   3.399 -0.1443 -0.4322  0.4719
 1417SOL    HW2 5434   4.812   4.304   3.320 -0.3403 -0.4581  0.3716
 1417SOL    HW3 5435   4.838   4.376   3.451 -0.0977  0.0826  0.0283
 1417SOL    MW4 5436   4.783   4.337   3.395 -0.1640 -0.3677  0.4001
 1418SOL     OW 5437   1.830   5.575   0.333 -0.0794 -0.4108 -0.1402
 1418SOL    HW2 5438   1.822   5.601   0.241  0.4109 -2.9545 -0.9915
 1418SOL    HW3 5439   1.893   5.637   0.371  0.3134  0.1932 -1.7146
 1418SOL    MW4 5440   1.837   5.587   0.326  0.0371 -0.6667 -0.4602
 1419SOL     OW 5441   1.068   5.480   2.411 -0.1102 -0.0419 -0.0178
 1419SOL    HW2 5442   1.156   5.468   2.445  0.1914  1.0022 -0.4117
 1419SOL    HW3 5443   1.025   5.396   2.427  1.5605 -1.2892 -1.6526
 1419SOL    MW4 5444   1.074   5.467   2.418  0.1500 -0.0687 -0.2855
 1420SOL     OW 5445   0.357   4.114   6.063 -0.0295 -0.5919 -1.0123
 1420SOL    HW2 5446   0.312   4.033   6.040 -3.8319  1.3811 -1.2116
 1420SOL    HW3 5447   0.393   4.098   6.150 -0.8298 -2.4160 -0.9888
 1420SOL    MW4 5448   0.356   4.101   6.071 -0.6368 -0.5723 -1.0355
 1421SOL     OW 5449   3.022   5.078   0.810  0.6460  0.1172  0.5485
 1421SOL    HW2 5450   2.987   5.111   0.893 -0.0685  0.1910  0.2304
 1421SOL    HW3 5451   2.945   5.072   0.753  1.2766  1.0220 -0.4244
 1421SOL    MW4 5452   3.007   5.081   0.814  0.6349  0.2463  0.3782
 1422SOL     OW 5453   5.855   4.470   2.252 -0.0687  0.4930 -0.1873
 1422SOL    HW2 5454   5.848   4.406   2.182  0.5859  1.0864 -0.8200
 1422SOL    HW3 5455   5.875   4.552   2.206  1.0660  0.7563  0.7345
 1422SOL    MW4 5456   5.857   4.473   2.237  0.1674  0.6060 -0.1492
 1423SOL     OW 5457   2.611   5.251   1.912 -0.2686  0.0898  0.8892
 1423SOL    HW2 5458   2.552   5.193   1.865  0.1848 -0.0259  0.4510
 1423SOL    HW3 5459   2.554   5.304   1.968 -1.1040  1.8453 -1.4732
 1423SOL    MW4 5460   2.596   5.250   1.913 -0.3190  0.3062  0.5197
 1424SOL     OW 5461   3.102   1.605   4.952  0.7377 -0.0923 -0.1064
 1424SOL    HW2 5462   3.097   1.523   4.903 -0.5370 -0.2140  0.1916
 1424SOL    HW3 5463   3.194   1.630   4.948  0.7491 -0.3082 -2.2024
 1424SOL    MW4 5464   3.113   1.598   4.945  0.5710 -0.1368 -0.3436
 1425SOL     OW 5465   6.276   1.536   4.037  0.5725  0.0715 -0.1247
 1425SOL    HW2 5466   6.197   1.529   4.091  1.1802  0.5997  0.8636
 1425SOL    HW3 5467   6.348   1.538   4.100  1.3208  0.4762 -0.9693
 1425SOL    MW4 5468   6.275   1.536   4.052  0.7514  0.1946 -0.1057
 1426SOL     OW 5469   0.210   1.200   3.355 -0.3010 -0.5020  0.0990
 1426SOL    HW2 5470   0.151   1.167   3.287 -1.2411  2.0807 -0.4395
 1426SOL    HW3 5471   0.275   1.130   3.366 -1.0620 -1.6936 -2.2909
 1426SOL    MW4 5472   0.211   1.186   3.347 -0.5255 -0.3185 -0.2874
 1427SOL     OW 5473   3.209   5.234   2.359  0.2475 -0.0793  0.2089
 1427SOL    HW2 5474   3.229   5.140   2.350 -1.1197 -0.4562  0.8338
 1427SOL    HW3 5475   3.292   5.278   2.341  0.6397 -1.3446 -1.3579
 1427SOL    MW4 5476   3.223   5.227   2.355  0.1189 -0.2960  0.0846
 1428SOL     OW 5477   0.527   0.679   1.084 -0.0029  0.0541 -0.5359
 1428SOL    HW2 5478   0.446   0.727   1.063  0.5910  1.4507  0.2156
 1428SOL    HW3 5479   0.563   0.654   0.999 -0.3151  1.0050 -0.9615
 1428SOL    MW4 5480   0.521   0.682   1.070  0.0343  0.3638 -0.4929
 1429SOL     OW 5481   1.564   5.411   6.111  0.1680 -0.1600  0.1027
 1429SOL    HW2 5482   1.578   5.433   6.203 -1.4865 -0.6540  0.5111
 1429SOL    HW3 5483   1.473   5.435   6.094  0.0629 -1.2708 -1.0427
 1429SOL    MW4 5484   1.554   5.417   6.121 -0.0641 -0.3718  0.0054
 1430SOL     OW 5485   1.673   6.267   2.029  0.0774  0.3236 -0.9221
 1430SOL    HW2 5486   1.591   6.308   2.058  0.2782  1.4234 -1.8171
 1430SOL    HW3 5487   1.661   6.174   2.045 -2.1263  0.2162 -2.7813
 1430SOL    MW4 5488   1.661   6.260   2.035 -0.1869  0.4545 -1.2855
 1431SOL     OW 5489   0.767   2.454   4.790 -0.1427 -0.2031 -0.3660
 1431SOL    HW2 5490   0.794   2.539   4.757 -1.6096  0.0997 -0.8566
 1431SOL    HW3 5491   0.688   2.433   4.740 -0.6941 -1.1311  0.8455
 1431SOL    MW4 5492   0.760   2.462   4.779 -0.4090 -0.2856 -0.2709
 1432SOL     OW 5493   3.405   6.271   4.485  0.3842 -0.0715  0.3434
 1432SOL    HW2 5494   3.433   6.241   4.399  0.0153 -3.0726  1.1633
 1432SOL    HW3 5495   3.481   6.257   4.541 -0.1821 -0.6739  0.9886
 1432SOL    MW4 5496   3.419   6.265   4.481  0.2608 -0.5469  0.5367
 1433SOL     OW 5497   3.929   3.341   1.121 -0.0914  0.6208 -0.2457
 1433SOL    HW2 5498   3.914   3.273   1.187  0.4985  0.7467  0.0302
 1433SOL    HW3 5499   3.938   3.422   1.172 -0.6461  0.8817 -0.5587
 1433SOL    MW4 5500   3.929   3.343   1.137 -0.0867  0.6718 -0.2506
 1434SOL     OW 5501   2.426   3.544   2.027  0.3095  0.1653  0.6512
 1434SOL    HW2 5502   2.473   3.626   2.041  0.8888 -0.3882  2.1710
 1434SOL    HW3 5503   2.334   3.565   2.045  0.1352  0.9191 -0.9387
 1434SOL    MW4 5504   2.420   3.557   2.031  0.3629  0.1917  0.6420
 1435SOL     OW 5505   0.860   5.392   4.879  0.7548 -0.4267  0.0387
 1435SOL    HW2 5506   0.840   5.306   4.845  1.9811 -0.6269 -0.2222
 1435SOL    HW3 5507   0.941   5.380   4.929 -0.3469  0.0948  2.0345
 1435SOL    MW4 5508   0.868   5.379   4.881  0.7713 -0.3843  0.2676
 1436SOL     OW 5509   5.729   4.718   2.880 -0.1540  0.1781  0.0124
 1436SOL    HW2 5510   5.667   4.758   2.818 -1.1275 -0.3646  0.6184
 1436SOL    HW3 5511   5.793   4.788   2.897 -1.0971  1.0597  0.0698
 1436SOL    MW4 5512   5.729   4.733   2.874 -0.4068  0.2228  0.0999
 1437SOL     OW 5513   5.828   4.781   1.206  0.3488  0.5287 -0.3787
 1437SOL    HW2 5514   5.776   4.858   1.225 -2.2557 -1.7714  3.1976
 1437SOL    HW3 5515   5.775   4.708   1.238  3.6578 -2.5580 -1.2575
 1437SOL    MW4 5516   5.814   4.781   1.213  0.4418 -0.1820 -0.0228
 1438SOL     OW 5517   0.660   4.367   5.918 -0.0803 -1.0436  0.0336
 1438SOL    HW2 5518   0.574   4.373   5.960  0.3646 -1.2498  1.0202
 1438SOL    HW3 5519   0.662   4.439   5.856  0.1072  0.7956  2.0466
 1438SOL    MW4 5520   0.649   4.377   5.916  0.0031 -0.8281  0.4293
 1439SOL     OW 5521   3.232   1.951   4.057 -0.6972 -0.0306 -0.3299
 1439SOL    HW2 5522   3.225   2.045   4.041  0.5402  0.1574  0.1098
 1439SOL    HW3 5523   3.313   1.924   4.014 -0.4181 -0.6497  0.5305
 1439SOL    MW4 5524   3.242   1.960   4.049 -0.4972 -0.0875 -0.1584
 1440SOL     OW 5525   5.117   1.241   3.599  0.0653  0.5436  0.5616
 1440SOL    HW2 5526   5.128   1.198   3.684 -0.0234  2.2816  1.4966
 1440SOL    HW3 5527   5.127   1.335   3.618  1.2151  0.8972 -1.5519
 1440SOL    MW4 5528   5.119   1.248   3.613  0.2053  0.8195  0.4061
 1441SOL     OW 5529   4.349   1.175   5.393  0.2260  0.3974  0.0872
 1441SOL    HW2 5530   4.403   1.232   5.338 -0.0417 -1.0327 -1.7861
 1441SOL    HW3 5531   4.392   1.090   5.390 -0.3888  0.0189  1.2682
 1441SOL    MW4 5532   4.362   1.171   5.385  0.1095  0.1588 -0.0041
 1442SOL     OW 5533   2.164   3.770   4.115 -0.3309  0.0768 -0.0812
 1442SOL    HW2 5534   2.256   3.778   4.139 -0.4127  0.1286  0.2241
 1442SOL    HW3 5535   2.163   3.778   4.020  0.0859 -0.8808 -0.1766
 1442SOL    MW4 5536   2.176   3.772   4.106 -0.2867 -0.0427 -0.0535
 1443SOL     OW 5537   1.131   5.892   0.732  0.0383 -0.1594 -0.4392
 1443SOL    HW2 5538   1.066   5.959   0.713  0.0207  0.8437  2.5360
 1443SOL    HW3 5539   1.215   5.938   0.731 -0.1409  0.7166  3.7830
 1443SOL    MW4 5540   1.133   5.907   0.730  0.0123  0.0885  0.5104
 1444SOL     OW 5541   6.124   5.582   1.928  0.1036 -0.3319 -0.3727
 1444SOL    HW2 5542   6.152   5.556   1.840  1.3739 -0.8550  0.1684
 1444SOL    HW3 5543   6.154   5.673   1.936 -0.1354 -0.2379 -0.5219
 1444SOL    MW4 5544   6.132   5.591   1.917  0.2396 -0.3885 -0.3210
 1445SOL     OW 5545   1.551   2.628   4.506 -0.6832 -0.0322  0.1690
 1445SOL    HW2 5546   1.604   2.708   4.510 -0.4309  0.0906 -3.0655
 1445SOL    HW3 5547   1.462   2.658   4.525 -0.4549  0.8400 -0.0714
 1445SOL    MW4 5548   1.546   2.643   4.509 -0.6198  0.0991 -0.2894
 1446SOL     OW 5549   0.838   6.399   4.018  0.3976 -0.0949 -0.0422
 1446SOL    HW2 5550   0.908   6.428   4.076  1.0776 -1.3653 -0.2037
 1446SOL    HW3 5551   0.874   6.324   3.971 -1.7905 -2.4116  1.6402
 1446SOL    MW4 5552   0.852   6.393   4.019  0.1986 -0.5682  0.1585
 1447SOL     OW 5553   0.444   1.831   5.648 -0.7060 -0.0696 -0.2936
 1447SOL    HW2 5554   0.454   1.899   5.715 -0.7897  0.1525 -0.5061
 1447SOL    HW3 5555   0.494   1.757   5.683 -1.0680 -0.0891  0.1958
 1447SOL    MW4 5556   0.452   1.831   5.662 -0.7648 -0.0429 -0.2570
 1448SOL     OW 5557   0.922   4.116   4.913 -0.3939  0.0990 -0.5547
 1448SOL    HW2 5558   0.994   4.065   4.951  0.8695  0.8121 -1.8639
 1448SOL    HW3 5559   0.963   4.164   4.841 -2.3011  0.2080 -1.6212
 1448SOL    MW4 5560   0.937   4.116   4.909 -0.4788  0.2074 -0.8682
 1449SOL     OW 5561   3.629   4.387   3.904  0.4665 -0.0614  0.1785
 1449SOL    HW2 5562   3.541   4.387   3.866  1.3763  1.9343 -2.1773
 1449SOL    HW3 5563   3.628   4.459   3.967 -0.0102 -1.0655  1.3436
 1449SOL    MW4 5564   3.617   4.396   3.907  0.5237  0.0694  0.0214
 1450SOL     OW 5565   4.786   1.487   5.232 -0.0901 -0.1307 -0.2319
 1450SOL    HW2 5566   4.781   1.544   5.155 -0.9525  0.4488  0.2422
 1450SOL    HW3 5567   4.824   1.542   5.300 -1.0513 -0.0520  0.2656
 1450SOL    MW4 5568   4.790   1.502   5.230 -0.3307 -0.0439 -0.1037
 1451SOL     OW 5569   1.929   5.254   4.024 -0.1632  0.1771 -0.5987
 1451SOL    HW2 5570   1.998   5.204   3.981 -1.3607 -1.4413 -0.7872
 1451SOL    HW3 5571   1.969   5.337   4.048  1.9284 -0.8225 -0.3960
 1451SOL    MW4 5572   1.943   5.258   4.022 -0.0452 -0.1683 -0.5968
 1452SOL     OW 5573   4.821   4.708   2.327  0.5667 -0.3843  0.2627
 1452SOL    HW2 5574   4.754   4.692   2.393 -0.6289 -1.5899 -1.1608
 1452SOL    HW3 5575   4.834   4.803   2.328  0.3357 -0.3408  1.9417
 1452SOL    MW4 5576   4.814   4.719   2.336  0.3785 -0.5376  0.2964
 1453SOL     OW 5577   4.588   4.033   6.296 -0.2621 -0.1348  0.3653
 1453SOL    HW2 5578   4.680   4.019   6.318  0.2892  1.0415 -0.9980
 1453SOL    HW3 5579   4.562   3.955   6.248  0.8179  0.5643 -1.4620
 1453SOL    MW4 5580   4.596   4.021   6.293 -0.0469  0.1127 -0.0556
 1454SOL     OW 5581   3.105   2.774   3.104 -0.6604  0.6690  0.2055
 1454SOL    HW2 5582   3.161   2.846   3.133 -0.0062  0.8417 -1.3851
 1454SOL    HW3 5583   3.146   2.743   3.023 -0.3350 -2.1821  1.3531
 1454SOL    MW4 5584   3.118   2.779   3.097 -0.5311  0.3156  0.1470
 1455SOL     OW 5585   1.538   1.758   3.708 -0.2674 -0.0322 -0.0897
 1455SOL    HW2 5586   1.618   1.711   3.683 -0.4655 -0.0467 -0.6948
 1455SOL    HW3 5587   1.505   1.709   3.783  1.1854  0.9281  1.2588
 1455SOL    MW4 5588   1.544   1.746   3.715 -0.1018  0.0926  0.0084
 1456SOL     OW 5589   2.104   2.041   0.057 -0.1010 -0.2510  0.5056
 1456SOL    HW2 5590   2.133   2.077   0.141  1.2699  0.0917 -0.0882
 1456SOL    HW3 5591   2.026   2.092   0.035  0.1541  0.3941  1.0549
 1456SOL    MW4 5592   2.097   2.052   0.065  0.1135 -0.1207  0.4997
 1457SOL     OW 5593   6.129   0.270   2.701  0.0883  0.1994 -0.2472
 1457SOL    HW2 5594   6.046   0.302   2.735 -1.5148 -1.3523 -2.3916
 1457SOL    HW3 5595   6.158   0.339   2.640  0.2907  0.6503  0.3501
 1457SOL    MW4 5596   6.122   0.284   2.697 -0.0965  0.0542 -0.4513
 1458SOL     OW 5597   3.402   0.697   2.519  0.1939 -0.0133  0.0319
 1458SOL    HW2 5598   3.381   0.685   2.612  0.9643  0.2270  0.2478
 1458SOL    HW3 5599   3.402   0.608   2.483  0.9588 -0.2224  0.5166
 1458SOL    MW4 5600   3.399   0.683   2.526  0.3964 -0.0092  0.1244
 1459SOL     OW 5601   4.924   1.274   5.132 -0.8499 -0.2282  0.2791
 1459SOL    HW2 5602   4.926   1.308   5.043 -1.3265  0.6439  0.5802
 1459SOL    HW3 5603   4.866   1.335   5.179 -0.2618 -0.4201  1.2809
 1459SOL    MW4 5604   4.916   1.287   5.127 -0.8352 -0.1384  0.4510
 1460SOL     OW 5605   0.405   0.992   3.384 -0.2868  0.4834  0.0133
 1460SOL    HW2 5606   0.486   1.043   3.394  0.7915 -1.1163 -0.1069
 1460SOL    HW3 5607   0.400   0.975   3.290 -2.6599  3.4060 -0.5320
 1460SOL    MW4 5608   0.415   0.996   3.373 -0.4576  0.6580 -0.0745
 1461SOL     OW 5609   0.360   3.066   6.031  0.2404  0.0759 -0.2795
 1461SOL    HW2 5610   0.279   3.015   6.023  0.3075 -0.0879  0.0415
 1461SOL    HW3 5611   0.349   3.117   6.112  0.3352  0.2730 -0.3910
 1461SOL    MW4 5612   0.348   3.066   6.041  0.2618  0.0803 -0.2519
 1462SOL     OW 5613   5.126   0.103   4.036 -0.9172  0.1672 -0.4017
 1462SOL    HW2 5614   5.112   0.015   3.999 -2.0331  0.0542  0.2472
 1462SOL    HW3 5615   5.112   0.162   3.962 -1.8295 -0.1206 -0.4748
 1462SOL    MW4 5616   5.123   0.099   4.021 -1.1848  0.1143 -0.3257
 1463SOL     OW 5617   1.675   5.314   1.823  0.7131  0.3934  0.7376
 1463SOL    HW2 5618   1.763   5.337   1.792  0.6017 -0.4723 -0.2691
 1463SOL    HW3 5619   1.690   5.258   1.899  0.9930  1.9238  1.8717
 1463SOL    MW4 5620   1.689   5.310   1.829  0.7353  0.4811  0.7544
 1464SOL     OW 5621   1.044   5.804   5.666  0.1910  1.0513  0.2162
 1464SOL    HW2 5622   1.013   5.808   5.576  0.3924  1.3408  0.1603
 1464SOL    HW3 5623   1.118   5.743   5.663 -0.4129  0.2859  0.3665
 1464SOL    MW4 5624   1.050   5.796   5.654  0.1379  0.9885  0.2287
 1465SOL     OW 5625   5.347   1.907   4.205  0.4463  0.3111 -0.3841
 1465SOL    HW2 5626   5.315   1.997   4.200 -0.7276 -0.0750 -0.1757
 1465SOL    HW3 5627   5.276   1.859   4.248  1.4564 -0.5305  0.3664
 1465SOL    MW4 5628   5.333   1.912   4.210  0.4246  0.1491 -0.2576
 1466SOL     OW 5629   2.148   3.071   3.864 -0.1712 -0.0148  0.6454
 1466SOL    HW2 5630   2.178   3.119   3.787 -2.2268 -2.9839 -2.2865
 1466SOL    HW3 5631   2.052   3.071   3.857 -0.4117 -0.7670  3.0023
 1466SOL    MW4 5632   2.139   3.077   3.853 -0.4741 -0.5058  0.5696
 1467SOL     OW 5633   5.954   3.171   1.876 -0.1946  0.6724  0.5493
 1467SOL    HW2 5634   5.877   3.216   1.842  0.2279  1.8232  1.0465
 1467SOL    HW3 5635   6.006   3.240   1.918  0.9559 -0.1229  0.4989
 1467SOL    MW4 5636   5.951   3.186   1.877  0.0129  0.7193  0.6082
 1468SOL     OW 5637   1.777   3.154   6.037  0.1533 -0.5481 -0.1808
 1468SOL    HW2 5638   1.826   3.085   6.082 -0.2156 -0.4635  0.3688
 1468SOL    HW3 5639   1.689   3.117   6.025  0.3557 -0.7237 -1.2172
 1468SOL    MW4 5640   1.772   3.140   6.041  0.1313 -0.5601 -0.2450
 1469SOL     OW 5641   6.148   4.648   1.608  0.2081  0.4869 -0.4121
 1469SOL    HW2 5642   6.144   4.553   1.616  1.1818  0.3991 -0.8022
 1469SOL    HW3 5643   6.238   4.671   1.630  0.8019  1.0199 -2.9706
 1469SOL    MW4 5644   6.160   4.639   1.612  0.4149  0.5456 -0.8012
 1470SOL     OW 5645   6.330   4.322   0.430 -0.0298 -0.5342  0.2563
 1470SOL    HW2 5646   6.270   4.249   0.442 -1.5937  0.0841 -2.5875
 1470SOL    HW3 5647   6.394   4.290   0.366  1.5361 -0.5312  1.7607
 1470SOL    MW4 5648   6.331   4.308   0.423 -0.0296 -0.4522  0.0796
 1471SOL     OW 5649   0.957   1.661   4.697  0.1394 -0.1060 -0.0470
 1471SOL    HW2 5650   0.872   1.618   4.699  0.9689 -1.8206  1.8355
 1471SOL    HW3 5651   0.950   1.732   4.761 -0.1097  0.2464 -0.4643
 1471SOL    MW4 5652   0.945   1.665   4.706  0.2160 -0.2857  0.1463
 1472SOL     OW 5653   3.769   0.888   1.077 -0.0976  0.3932  0.3115
 1472SOL    HW2 5654   3.676   0.893   1.099 -0.1964 -0.1538  0.0232
 1472SOL    HW3 5655   3.775   0.820   1.010  0.4073  0.9665 -0.2447
 1472SOL    MW4 5656   3.758   0.880   1.071 -0.0440  0.3967  0.2000
 1473SOL     OW 5657   1.131   0.726   4.379 -0.1932 -0.0377 -0.2608
 1473SOL    HW2 5658   1.116   0.637   4.410 -2.8955 -0.1422 -1.5861
 1473SOL    HW3 5659   1.190   0.716   4.304  0.5391 -0.5385  0.3704
 1473SOL    MW4 5660   1.137   0.713   4.373 -0.4531 -0.1176 -0.3524
 1474SOL     OW 5661   4.881   2.754   3.320 -0.3277  0.0559  0.2989
 1474SOL    HW2 5662   4.883   2.783   3.411  1.6350 -2.2453  1.1374
 1474SOL    HW3 5663   4.964   2.786   3.283 -0.4019 -0.2980 -0.1891
 1474SOL    MW4 5664   4.892   2.762   3.327 -0.0785 -0.2944  0.3451
 1475SOL     OW 5665   4.057   0.901   5.419  0.4784  0.7124  0.2136
 1475SOL    HW2 5666   4.151   0.883   5.414  0.1698 -0.9348 -0.3645
 1475SOL    HW3 5667   4.051   0.996   5.416  2.1549  0.8938  0.9692
 1475SOL    MW4 5668   4.069   0.911   5.418  0.6589  0.5190  0.2370
 1476SOL     OW 5669   0.647   3.101   5.684 -0.3089  0.1388 -0.2175
 1476SOL    HW2 5670   0.727   3.101   5.736 -0.4815 -0.3185  0.0604
 1476SOL    HW3 5671   0.662   3.036   5.616 -0.5806 -0.2167  0.0590
 1476SOL    MW4 5672   0.659   3.092   5.682 -0.3675  0.0316 -0.1443
 1477SOL     OW 5673   1.726   0.469   0.578 -0.0181 -0.4813  0.3945
 1477SOL    HW2 5674   1.789   0.506   0.639  0.5319  0.3139 -0.6296
 1477SOL    HW3 5675   1.713   0.379   0.608  0.3937 -0.1683  1.5469
 1477SOL    MW4 5676   1.732   0.462   0.590  0.1088 -0.3351  0.4115
 1478SOL     OW 5677   5.551   2.713   4.849 -0.8887 -0.2135 -0.1407
 1478SOL    HW2 5678   5.620   2.762   4.805 -0.0127 -0.2703  1.1226
 1478SOL    HW3 5679   5.521   2.650   4.783 -0.1957  0.2473 -0.9194
 1478SOL    MW4 5680   5.556   2.711   4.835 -0.6817 -0.1602 -0.0767
 1479SOL     OW 5681   0.565   2.710   2.234 -0.0135 -0.0128  0.1869
 1479SOL    HW2 5682   0.627   2.742   2.168  1.1099 -2.2996  0.0276
 1479SOL    HW3 5683   0.620   2.669   2.300 -1.2755 -0.1678  1.1683
 1479SOL    MW4 5684   0.581   2.708   2.234 -0.0318 -0.3350  0.2954
 1480SOL     OW 5685   5.425   0.145   4.044  0.1917  0.4319  0.4934
 1480SOL    HW2 5686   5.330   0.137   4.034  0.1370  0.0232  1.3016
 1480SOL    HW3 5687   5.439   0.238   4.062 -0.2776  0.1595  2.4863
 1480SOL    MW4 5688   5.415   0.156   4.045  0.1226  0.3420  0.8629
 1481SOL     OW 5689   4.857   3.530   4.886 -0.0496 -0.3310  0.5391
 1481SOL    HW2 5690   4.923   3.552   4.819 -0.1787 -0.5531  0.3411
 1481SOL    HW3 5691   4.836   3.615   4.926 -0.5105 -0.0822 -0.1976
 1481SOL    MW4 5692   4.863   3.544   4.882 -0.1274 -0.3275  0.4158
 1482SOL     OW 5693   4.017   3.821   4.824  0.2359  0.0405  0.1111
 1482SOL    HW2 5694   4.038   3.735   4.860  1.0697 -0.2177 -0.9428
 1482SOL    HW3 5695   3.951   3.803   4.757 -0.4464  0.3771  0.6750
 1482SOL    MW4 5696   4.011   3.807   4.820  0.2559  0.0508  0.0465
 1483SOL     OW 5697   5.115   1.264   5.980 -0.2492 -0.5241  0.2440
 1483SOL    HW2 5698   5.186   1.202   5.997  0.9374  0.8624  0.6498
 1483SOL    HW3 5699   5.138   1.305   5.897  0.5092  1.2792  1.2775
 1483SOL    MW4 5700   5.127   1.261   5.971  0.0074 -0.1033  0.4339
 1484SOL     OW 5701   6.182   2.116   4.682  0.5617  0.8390  0.0003
 1484SOL    HW2 5702   6.137   2.086   4.603  0.0029 -0.9585  0.9369
 1484SOL    HW3 5703   6.124   2.183   4.719 -0.0057  0.5064 -0.2624
 1484SOL    MW4 5704   6.168   2.121   4.677  0.4131  0.5580  0.0892
 1485SOL     OW 5705   2.395   3.601   5.691 -0.3272  0.2952 -0.0361
 1485SOL    HW2 5706   2.441   3.600   5.607 -0.1164  0.0237  0.0829
 1485SOL    HW3 5707   2.335   3.527   5.687  0.2966 -0.2400  0.3929
 1485SOL    MW4 5708   2.393   3.591   5.679 -0.2171  0.1887  0.0362
 1486SOL     OW 5709   5.794   0.138   3.354 -0.1647 -0.2894 -0.0995
 1486SOL    HW2 5710   5.852   0.130   3.278  0.1914 -0.6544  0.2086
 1486SOL    HW3 5711   5.711   0.170   3.317  0.4353  0.9099 -0.4602
 1486SOL    MW4 5712   5.791   0.141   3.339 -0.0386 -0.1793 -0.1064
 1487SOL     OW 5713   5.901   1.191   4.920  0.4709 -0.0311  0.0877
 1487SOL    HW2 5714   5.887   1.119   4.982 -1.9943  1.4421  1.4222
 1487SOL    HW3 5715   5.861   1.161   4.839 -1.7470  0.1976  1.0042
 1487SOL    MW4 5716   5.894   1.177   4.918 -0.1469  0.1934  0.3847
 1488SOL     OW 5717   3.098   5.910   3.773 -0.0550  0.3408 -0.5632
 1488SOL    HW2 5718   3.038   5.924   3.700  1.0340 -0.6801 -1.7103
 1488SOL    HW3 5719   3.143   5.994   3.784  0.1968  0.3429 -1.4960
 1488SOL    MW4 5720   3.096   5.923   3.765  0.1219  0.2064 -0.8376
 1489SOL     OW 5721   3.328   4.875   0.149  0.0203  0.6172 -0.4997
 1489SOL    HW2 5722   3.276   4.868   0.069  1.0574  0.7144 -1.2034
 1489SOL    HW3 5723   3.338   4.785   0.179 -0.6780  0.6126 -0.2764
 1489SOL    MW4 5724   3.323   4.862   0.142  0.0650  0.6294 -0.5631
 1490SOL     OW 5725   5.029   5.136   6.174  0.0956 -0.1301 -0.1191
 1490SOL    HW2 5726   5.122   5.155   6.158 -0.3854  3.1681  0.1937
 1490SOL    HW3 5727   5.030   5.064   6.237  2.5483  0.9119  1.2027
 1490SOL    MW4 5728   5.042   5.129   6.180  0.3558  0.4425  0.0965
 1491SOL     OW 5729   1.015   2.897   6.274 -0.4511 -0.1373  0.1216
 1491SOL    HW2 5730   0.962   2.856   6.207 -0.3953  1.3024 -0.8414
 1491SOL    HW3 5731   1.032   2.827   6.338  0.5442 -1.8954 -1.9579
 1491SOL    MW4 5732   1.010   2.883   6.274 -0.3124 -0.1793 -0.2798
 1492SOL     OW 5733   5.667   2.837   1.037 -0.1795  0.3031  0.1468
 1492SOL    HW2 5734   5.655   2.929   1.016  2.9762  1.0325  1.0255
 1492SOL    HW3 5735   5.652   2.832   1.132 -2.4727 -0.6003 -0.1932
 1492SOL    MW4 5736   5.664   2.848   1.047 -0.0657  0.2802  0.2179
 1493SOL     OW 5737   1.192   5.997   1.051  0.3252  0.1223 -0.3475
 1493SOL    HW2 5738   1.260   5.940   1.088 -1.3732 -1.4103  0.5823
 1493SOL    HW3 5739   1.170   5.955   0.968 -2.6676 -2.2135  1.4309
 1493SOL    MW4 5740   1.198   5.984   1.045 -0.2937 -0.3881  0.0098
 1494SOL     OW 5741   5.399   3.663   5.225  0.2264 -0.2311  0.1677
 1494SOL    HW2 5742   5.468   3.727   5.240 -0.0286  0.1071 -0.0911
 1494SOL    HW3 5743   5.348   3.664   5.306 -0.1765  0.3946 -0.0818
 1494SOL    MW4 5744   5.401   3.672   5.238  0.1396 -0.1039  0.1006
 1495SOL     OW 5745   2.780   3.813   1.457  0.0296 -0.3648 -0.3572
 1495SOL    HW2 5746   2.724   3.888   1.478  1.9957  1.1245 -0.1683
 1495SOL    HW3 5747   2.765   3.750   1.528 -0.4991  0.5273  0.3379
 1495SOL    MW4 5748   2.771   3.814   1.469  0.2192 -0.0506 -0.2406
 1496SOL     OW 5749   4.595   2.501   5.038  0.3631 -0.0805  0.4215
 1496SOL    HW2 5750   4.587   2.561   5.113 -1.9359 -0.7989  0.8168
 1496SOL    HW3 5751   4.531   2.432   5.055  0.3871 -0.7280 -1.8042
 1496SOL    MW4 5752   4.586   2.500   5.050  0.0629 -0.2607  0.1800
 1497SOL     OW 5753   1.763   3.830   4.401  0.6364 -0.7019  0.3425
 1497SOL    HW2 5754   1.718   3.871   4.475  1.0033  0.0973  0.1309
 1497SOL    HW3 5755   1.767   3.898   4.334 -1.6437 -2.0289 -1.3077
 1497SOL    MW4 5756   1.757   3.844   4.402  0.3839 -0.7715  0.0969
 1498SOL     OW 5757   1.401   4.251   2.639  0.4672 -0.2967 -0.5287
 1498SOL    HW2 5758   1.373   4.164   2.667  1.4114 -0.5207 -0.2657
 1498SOL    HW3 5759   1.358   4.311   2.700 -0.2792 -0.5566 -0.7818
 1498SOL    MW4 5760   1.391   4.247   2.651  0.4933 -0.3606 -0.5274
 1499SOL     OW 5761   5.614   1.371   5.982  0.3023 -0.1299  0.7654
 1499SOL    HW2 5762   5.546   1.407   5.926  0.6813  1.5171  1.3035
 1499SOL    HW3 5763   5.612   1.424   6.061  1.2506 -0.9804  1.4011
 1499SOL    MW4 5764   5.605   1.382   5.985  0.4774 -0.0248  0.9202
 1500SOL     OW 5765   3.494   6.237   2.776 -0.1662 -0.0374  0.5155
 1500SOL    HW2 5766   3.431   6.307   2.759 -0.6046 -0.5857 -0.1943
 1500SOL    HW3 5767   3.537   6.262   2.858 -3.2887 -1.0103  2.6127
 1500SOL    MW4 5768   3.491   6.249   2.785 -0.6360 -0.2381  0.6985
 1501SOL     OW 5769   2.173   5.478   6.106  0.7515  0.0962 -0.5034
 1501SOL    HW2 5770   2.247   5.534   6.084  2.7488 -1.8617  0.8389
 1501SOL    HW3 5771   2.143   5.442   6.023  2.3346 -0.2649 -0.9396
 1501SOL    MW4 5772   2.179   5.481   6.092  1.2239 -0.2097 -0.3839
 1502SOL     OW 5773   5.703   0.821   6.000  0.4152 -0.6690 -0.1222
 1502SOL    HW2 5774   5.775   0.878   6.029  1.6756 -1.6148 -1.2789
 1502SOL    HW3 5775   5.704   0.748   6.062  1.0063 -1.0911 -0.6201
 1502SOL    MW4 5776   5.713   0.819   6.012  0.6594 -0.8495 -0.3405
 1503SOL     OW 5777   0.862   4.689   2.734 -0.0950 -0.3364  0.2217
 1503SOL    HW2 5778   0.808   4.618   2.769 -0.2651 -0.5007 -0.3649
 1503SOL    HW3 5779   0.871   4.668   2.641 -0.2419  0.4750  0.0207
 1503SOL    MW4 5780   0.856   4.677   2.726 -0.1368 -0.2511  0.1178
 1504SOL     OW 5781   0.797   3.916   3.057  0.5452  0.3977  0.5256
 1504SOL    HW2 5782   0.727   3.928   2.994  0.0107  0.0145  1.0376
 1504SOL    HW3 5783   0.876   3.909   3.004  0.4435  2.4360  0.0051
 1504SOL    MW4 5784   0.798   3.917   3.042  0.4613  0.6161  0.5245
 1505SOL     OW 5785   2.422   0.360   5.900  0.1002 -0.0987 -0.2705
 1505SOL    HW2 5786   2.488   0.291   5.904  0.4464  0.2070 -0.6968
 1505SOL    HW3 5787   2.437   0.404   5.817  0.4705  1.0676  0.3801
 1505SOL    MW4 5788   2.432   0.357   5.890  0.1948  0.0955 -0.2409
 1506SOL     OW 5789   0.005   2.827   5.784 -0.0415 -0.5825 -0.3708
 1506SOL    HW2 5790   0.060   2.865   5.715  0.7137  0.8418  0.9504
 1506SOL    HW3 5791  -0.085   2.843   5.754  0.2737  1.0180 -0.5494
 1506SOL    MW4 5792   0.000   2.834   5.771  0.0997 -0.1834 -0.2201
 1507SOL     OW 5793   2.441   3.529   4.918 -0.7841 -0.2026  0.6272
 1507SOL    HW2 5794   2.491   3.510   4.998 -1.2761  0.3575  1.0762
 1507SOL    HW3 5795   2.350   3.514   4.943 -1.1731  2.1494  0.8547
 1507SOL    MW4 5796   2.436   3.524   4.932 -0.9003  0.1816  0.7165
 1508SOL     OW 5797   2.727   2.244   4.238 -0.3789 -0.3518 -0.1041
 1508SOL    HW2 5798   2.715   2.160   4.194  1.0502  0.4188 -2.1281
 1508SOL    HW3 5799   2.709   2.226   4.330 -0.7804 -2.7013 -0.5796
 1508SOL    MW4 5800   2.723   2.230   4.245 -0.2433 -0.5601 -0.4339
 1509SOL     OW 5801   4.230   0.771   3.089  0.2855  0.5395  0.0859
 1509SOL    HW2 5802   4.141   0.737   3.086  0.1814  0.8976 -1.2008
 1509SOL    HW3 5803   4.285   0.693   3.088  0.0017  0.2850  1.7109
 1509SOL    MW4 5804   4.226   0.756   3.089  0.2343  0.5531  0.1305
 1510SOL     OW 5805   0.648   5.274   2.073  0.5465 -0.2724 -0.6787
 1510SOL    HW2 5806   0.703   5.307   2.002 -0.0837  1.6847 -0.3189
 1510SOL    HW3 5807   0.562   5.260   2.032  0.3787  0.1333 -0.4659
 1510SOL    MW4 5808   0.644   5.276   2.058  0.4412  0.0394 -0.6031
 1511SOL     OW 5809   2.968   3.666   3.980 -0.2904  0.6134 -0.4886
 1511SOL    HW2 5810   2.936   3.753   3.956 -2.3856  0.8180  2.4426
 1511SOL    HW3 5811   2.896   3.607   3.956  0.5234 -0.1286 -1.1455
 1511SOL    MW4 5812   2.954   3.670   3.973 -0.4594  0.5425 -0.1885
 1512SOL     OW 5813   3.837   4.712   3.625  0.1865 -0.0909 -0.1332
 1512SOL    HW2 5814   3.776   4.736   3.555 -0.5652 -2.0900 -0.2216
 1512SOL    HW3 5815   3.816   4.772   3.696 -0.5383  0.5313 -0.8461
 1512SOL    MW4 5816   3.826   4.723   3.625 -0.0083 -0.2726 -0.2389
 1513SOL     OW 5817   0.295   1.553   0.151  0.0314 -0.9470  0.2613
 1513SOL    HW2 5818   0.367   1.504   0.191  2.9773  3.1559  0.5948
 1513SOL    HW3 5819   0.255   1.601   0.224 -1.7754 -1.5862 -0.2538
 1513SOL    MW4 5820   0.299   1.553   0.166  0.1817 -0.4900  0.2374
 1514SOL     OW 5821   3.433   5.530   2.880  0.0320 -0.3163  0.1048
 1514SOL    HW2 5822   3.482   5.463   2.833 -0.2264 -0.4279 -0.0043
 1514SOL    HW3 5823   3.370   5.481   2.933 -0.5388 -0.1406 -0.4003
 1514SOL    MW4 5824   3.431   5.515   2.881 -0.0774 -0.3079  0.0237
 1515SOL     OW 5825   2.243   0.427   6.223 -0.2760 -0.4737 -0.2355
 1515SOL    HW2 5826   2.234   0.358   6.289  0.8730 -0.0141  0.4437
 1515SOL    HW3 5827   2.174   0.409   6.160 -1.1005 -1.2254  0.8355
 1515SOL    MW4 5828   2.233   0.415   6.223 -0.2332 -0.5123 -0.0046
 1516SOL     OW 5829   5.445   4.241   4.703 -0.2121 -0.5905 -0.1821
 1516SOL    HW2 5830   5.361   4.274   4.671 -0.6869  1.0196  2.3461
 1516SOL    HW3 5831   5.427   4.151   4.730 -1.2665 -0.1600  0.6336
 1516SOL    MW4 5832   5.431   4.234   4.703 -0.4138 -0.3212  0.2591
 1517SOL     OW 5833   3.933   1.684   3.375  0.1332 -0.0475  0.2805
 1517SOL    HW2 5834   3.920   1.614   3.439 -0.2255  0.3885  0.6938
 1517SOL    HW3 5835   3.979   1.753   3.424 -0.1255  0.2801  0.0647
 1517SOL    MW4 5836   3.938   1.684   3.390  0.0518  0.0532  0.3066
 1518SOL     OW 5837   0.324   0.129   1.077  0.1504  0.2785  0.1288
 1518SOL    HW2 5838   0.311   0.090   0.990 -2.0812  1.5182 -0.1754
 1518SOL    HW3 5839   0.417   0.148   1.081  0.3662 -0.0794 -1.8753
 1518SOL    MW4 5840   0.334   0.126   1.066 -0.1156  0.3949 -0.1757
 1519SOL     OW 5841   1.466   3.844   0.305  0.6497  0.1149 -0.3957
 1519SOL    HW2 5842   1.507   3.843   0.219  0.6694 -0.4582 -0.3841
 1519SOL    HW3 5843   1.403   3.772   0.303  1.7031 -0.8670  0.5555
 1519SOL    MW4 5844   1.463   3.834   0.294  0.7913 -0.0903 -0.2686
 1520SOL     OW 5845   0.996   6.429   4.941  1.1569  0.4163 -0.6001
 1520SOL    HW2 5846   0.910   6.387   4.937  1.2859 -0.2026  1.7403
 1520SOL    HW3 5847   0.992   6.499   4.876 -0.3268 -0.9631 -2.0659
 1520SOL    MW4 5848   0.984   6.433   4.932  0.9781  0.1526 -0.4847
 1521SOL     OW 5849   3.265   3.114   5.323 -0.2464 -0.1904 -0.0517
 1521SOL    HW2 5850   3.253   3.058   5.400  1.0014  0.7356  0.8544
 1521SOL    HW3 5851   3.176   3.137   5.296 -0.7095  0.8507  2.1796
 1521SOL    MW4 5852   3.252   3.110   5.329 -0.1428  0.0692  0.3622
 1522SOL     OW 5853   0.024   0.265   5.480  0.0417  0.6077  0.5761
 1522SOL    HW2 5854  -0.005   0.351   5.450  0.5274  1.2035  1.7789
 1522SOL    HW3 5855   0.036   0.215   5.399 -0.1801  1.6771 -0.1412
 1522SOL    MW4 5856   0.022   0.269   5.465  0.0765  0.8274  0.6401
 1523SOL     OW 5857   2.243   2.709   3.178 -0.0464  0.1134 -0.2765
 1523SOL    HW2 5858   2.253   2.630   3.126  1.8068 -0.9162  1.4723
 1523SOL    HW3 5859   2.208   2.678   3.262 -2.6868  1.6690 -0.6941
 1523SOL    MW4 5860   2.240   2.695   3.182 -0.1503  0.1828 -0.1008
 1524SOL     OW 5861   1.347   6.328   0.501 -0.2646 -0.4032  0.8518
 1524SOL    HW2 5862   1.386   6.363   0.581  2.2251 -0.3278 -0.2953
 1524SOL    HW3 5863   1.279   6.391   0.477  1.6035  1.7345  0.8418
 1524SOL    MW4 5864   1.344   6.341   0.508  0.3103 -0.1112  0.6992
 1525SOL     OW 5865   6.334   4.351   2.766  0.4990 -0.0348 -0.2648
 1525SOL    HW2 5866   6.283   4.343   2.685 -0.5286  1.7252  0.1511
 1525SOL    HW3 5867   6.331   4.445   2.787  1.8761 -0.2588  1.1002
 1525SOL    MW4 5868   6.327   4.363   2.758  0.5451  0.1678 -0.0298
 1526SOL     OW 5869   1.692   1.122   3.186 -0.0807 -0.5146 -0.2457
 1526SOL    HW2 5870   1.758   1.066   3.227  3.3348  3.2865  0.1470
 1526SOL    HW3 5871   1.648   1.165   3.260  1.5797  1.6082 -0.4101
 1526SOL    MW4 5872   1.695   1.121   3.201  0.5890  0.2670 -0.2156
 1527SOL     OW 5873   4.497   1.802   0.907 -0.2257  0.2492  0.3078
 1527SOL    HW2 5874   4.430   1.869   0.893  0.2279  0.3994 -1.3839
 1527SOL    HW3 5875   4.530   1.819   0.995  0.8308  3.1969 -0.5412
 1527SOL    MW4 5876   4.493   1.813   0.916 -0.0265  0.6580 -0.0274
 1528SOL     OW 5877   6.284   5.677   1.129  0.0779 -0.0706 -0.7058
 1528SOL    HW2 5878   6.238   5.761   1.120 -0.8982 -0.5770 -0.5804
 1528SOL    HW3 5879   6.355   5.682   1.065 -0.5980  0.4413 -1.4359
 1528SOL    MW4 5880   6.287   5.689   1.119 -0.1400 -0.0699 -0.7856
 1529SOL     OW 5881   5.379   5.889   5.290 -0.0774 -0.1495 -0.4671
 1529SOL    HW2 5882   5.417   5.802   5.285 -1.8468 -1.0263  0.4114
 1529SOL    HW3 5883   5.311   5.882   5.357 -0.3292  1.8853 -0.4364
 1529SOL    MW4 5884   5.375   5.877   5.298 -0.3440  0.0033 -0.3471
 1530SOL     OW 5885   0.489   3.362   1.253  0.1351  0.1716 -0.2606
 1530SOL    HW2 5886   0.553   3.371   1.324  0.3570 -0.4124 -0.3887
 1530SOL    HW3 5887   0.526   3.296   1.195  0.1135  0.8944 -1.1079
 1530SOL    MW4 5888   0.502   3.355   1.255  0.1616  0.1899 -0.3893
 1531SOL     OW 5889   6.139   2.165   3.890 -0.3276  0.1223  0.3496
 1531SOL    HW2 5890   6.176   2.237   3.941 -0.3271  1.3287 -1.2840
 1531SOL    HW3 5891   6.056   2.199   3.857  0.1898 -0.1966 -1.3472
 1531SOL    MW4 5892   6.133   2.179   3.893 -0.2593  0.2394 -0.0898
 1532SOL     OW 5893   5.206   5.718   6.037  0.1190 -0.0489 -0.3271
 1532SOL    HW2 5894   5.268   5.718   6.110  0.2198  0.3792 -0.4117
 1532SOL    HW3 5895   5.259   5.734   5.960 -0.0499 -0.0529 -0.4451
 1532SOL    MW4 5896   5.221   5.720   6.037  0.1100  0.0071 -0.3539
 1533SOL     OW 5897   6.037   4.603   3.560 -0.0197  0.3634 -0.2545
 1533SOL    HW2 5898   6.033   4.508   3.552 -1.7240  0.5522 -2.2921
 1533SOL    HW3 5899   6.047   4.635   3.470 -1.2656  2.1652  0.1871
 1533SOL    MW4 5900   6.038   4.595   3.547 -0.4090  0.6260 -0.4651
 1534SOL     OW 5901   2.524   1.229   5.158 -0.0743 -0.0319  0.1368
 1534SOL    HW2 5902   2.458   1.265   5.098 -0.8694 -1.3741  0.1680
 1534SOL    HW3 5903   2.601   1.217   5.103 -0.5788 -0.5750 -0.4847
 1534SOL    MW4 5904   2.525   1.232   5.142 -0.2457 -0.2806  0.0589
 1535SOL     OW 5905   1.453   2.670   1.809 -0.0374  0.0066  0.3105
 1535SOL    HW2 5906   1.525   2.646   1.751  1.1933  0.8698  1.4061
 1535SOL    HW3 5907   1.394   2.722   1.755  0.6915  0.1653 -0.3507
 1535SOL    MW4 5908   1.455   2.673   1.794  0.2212  0.1414  0.3678
 1536SOL     OW 5909   6.152   4.728   4.774  0.5639 -0.4779 -0.4468
 1536SOL    HW2 5910   6.234   4.727   4.823  1.1121 -1.2711 -1.3597
 1536SOL    HW3 5911   6.105   4.651   4.805  0.6652 -0.6628 -0.7484
 1536SOL    MW4 5912   6.156   4.718   4.785  0.6496 -0.6070 -0.6070
 1537SOL     OW 5913   4.924   5.730   6.246  0.4136  1.1683  0.3734
 1537SOL    HW2 5914   4.886   5.698   6.328  1.3607 -0.8898  0.0749
 1537SOL    HW3 5915   4.931   5.652   6.191  0.3422  2.4008 -1.4717
 1537SOL    MW4 5916   4.920   5.715   6.249  0.5291  1.0594  0.0906
 1538SOL     OW 5917   0.153   4.377   5.828 -0.0680  0.1527 -0.2529
 1538SOL    HW2 5918   0.093   4.369   5.902  1.8583  3.3189  1.9451
 1538SOL    HW3 5919   0.240   4.364   5.867  0.9355 -0.6373 -2.5505
 1538SOL    MW4 5920   0.157   4.374   5.843  0.3186  0.4662 -0.2661
 1539SOL     OW 5921   0.951   1.951   2.828  0.4527 -0.0654 -0.4876
 1539SOL    HW2 5922   0.905   1.869   2.848 -1.7391  1.4677  1.3660
 1539SOL    HW3 5923   1.000   1.971   2.908  1.4828  0.1478 -1.1591
 1539SOL    MW4 5924   0.951   1.943   2.841  0.2995  0.1650 -0.3316
 1540SOL     OW 5925   5.979   1.952   1.380 -0.5888  0.1997 -0.1806
 1540SOL    HW2 5926   5.997   1.889   1.449 -0.6404  1.3603  0.9391
 1540SOL    HW3 5927   6.064   1.967   1.339 -0.1137  1.1134  1.0835
 1540SOL    MW4 5928   5.993   1.946   1.384 -0.5330  0.4734  0.1339
 1541SOL     OW 5929   2.267   3.346   1.016 -0.4848  0.1690  0.2001
 1541SOL    HW2 5930   2.251   3.377   1.105  1.2734  1.7380  0.0285
 1541SOL    HW3 5931   2.325   3.412   0.977 -0.5540 -0.8844 -1.8527
 1541SOL    MW4 5932   2.273   3.359   1.022 -0.2620  0.2370 -0.0934
 1542SOL     OW 5933   2.333   1.813   5.307 -0.1565  0.1760  0.7565
 1542SOL    HW2 5934   2.245   1.802   5.271 -0.1182 -0.3006  0.8093
 1542SOL    HW3 5935   2.369   1.888   5.259 -0.3396 -0.0533  0.2597
 1542SOL    MW4 5936   2.326   1.822   5.296 -0.1756  0.0828  0.6979
 1543SOL     OW 5937   3.814   3.124   0.803 -0.6540  0.3253  0.2010
 1543SOL    HW2 5938   3.819   3.205   0.753 -0.9864  0.4047  0.2919
 1543SOL    HW3 5939   3.819   3.054   0.738 -2.5336  0.4267 -0.1080
 1543SOL    MW4 5940   3.815   3.125   0.788 -0.9458  0.3492  0.1722
 1544SOL     OW 5941   3.083   0.998   3.627 -0.0873  0.3105  0.5676
 1544SOL    HW2 5942   3.176   1.017   3.620 -0.0577  0.0986  0.3773
 1544SOL    HW3 5943   3.040   1.072   3.585 -0.0839  1.3101  2.2131
 1544SOL    MW4 5944   3.089   1.010   3.621 -0.0829  0.4144  0.7596
 1545SOL     OW 5945   0.542   4.935   3.914  0.1297  0.0507  0.0272
 1545SOL    HW2 5946   0.514   4.968   3.999 -1.1211  0.6822 -0.5993
 1545SOL    HW3 5947   0.523   5.006   3.852 -0.7404 -1.0651 -1.0478
 1545SOL    MW4 5948   0.536   4.949   3.917 -0.1501 -0.0132 -0.1973
 1546SOL     OW 5949   0.786   4.456   5.226 -0.5746  0.6842  0.3131
 1546SOL    HW2 5950   0.715   4.490   5.170 -2.0929  1.0399  2.3546
 1546SOL    HW3 5951   0.855   4.522   5.219 -0.7409  0.7536 -1.0616
 1546SOL    MW4 5952   0.786   4.469   5.217 -0.7969  0.7402  0.4011
 1547SOL     OW 5953   5.424   1.140   4.183  0.1080 -0.0001  0.1758
 1547SOL    HW2 5954   5.399   1.129   4.275 -0.2216 -1.7346 -0.0978
 1547SOL    HW3 5955   5.449   1.232   4.177  1.1927 -0.0926  2.2624
 1547SOL    MW4 5956   5.424   1.151   4.195  0.2077 -0.2412  0.4150
 1548SOL     OW 5957   2.898   0.318   1.098  0.0947  0.1618 -0.0973
 1548SOL    HW2 5958   2.852   0.344   1.178 -2.1922 -0.4935 -1.1189
 1548SOL    HW3 5959   2.912   0.224   1.109 -0.6626 -0.0178 -0.6772
 1548SOL    MW4 5960   2.894   0.309   1.110 -0.3070  0.0516 -0.3086
 1549SOL     OW 5961   2.802   3.417   3.896  0.6219  0.3941 -0.7697
 1549SOL    HW2 5962   2.734   3.351   3.883  0.2245  0.8707 -1.1017
 1549SOL    HW3 5963   2.883   3.373   3.868  0.3331  0.1015 -1.1597
 1549SOL    MW4 5964   2.804   3.402   3.890  0.5314  0.4184 -0.8649
 1550SOL     OW 5965   3.001   0.642   4.587 -0.2666  0.0052 -0.0726
 1550SOL    HW2 5966   2.952   0.605   4.661 -2.5158 -0.4722 -1.7027
 1550SOL    HW3 5967   3.093   0.636   4.614 -0.9043 -1.6370  2.0154
 1550SOL    MW4 5968   3.007   0.636   4.601 -0.6475 -0.2745 -0.0122
 1551SOL     OW 5969   4.241   1.595   5.553 -0.4715  0.5726 -0.2248
 1551SOL    HW2 5970   4.182   1.655   5.508 -1.3087 -0.0762 -0.0288
 1551SOL    HW3 5971   4.225   1.510   5.512  0.4387  0.4122 -0.2682
 1551SOL    MW4 5972   4.231   1.592   5.542 -0.4619  0.4658 -0.2047
 1552SOL     OW 5973   1.661   5.966   4.687  0.2417  0.1831 -0.1571
 1552SOL    HW2 5974   1.618   5.881   4.685 -1.3262  0.9248  0.3240
 1552SOL    HW3 5975   1.699   5.972   4.774 -0.5413  0.3865  0.1751
 1552SOL    MW4 5976   1.661   5.956   4.698 -0.0685  0.3078 -0.0498
 1553SOL     OW 5977   1.531   4.597   2.728 -0.0087 -0.0068 -0.5490
 1553SOL    HW2 5978   1.502   4.680   2.766 -0.4757  0.7964 -2.5793
 1553SOL    HW3 5979   1.609   4.619   2.677  0.1263 -0.9152 -0.7610
 1553SOL    MW4 5980   1.538   4.611   2.727 -0.0525 -0.0207 -0.8449
 1554SOL     OW 5981   4.850   2.937   3.574  0.2558  0.1951 -0.5977
 1554SOL    HW2 5982   4.858   2.853   3.620  5.0224 -0.5551 -2.2424
 1554SOL    HW3 5983   4.937   2.975   3.580 -0.3434  2.6088 -4.3577
 1554SOL    MW4 5984   4.862   2.931   3.581  0.8056  0.4145 -1.3108
 1555SOL     OW 5985   0.013   2.045   3.611  0.2420  0.4226 -0.3538
 1555SOL    HW2 5986   0.072   2.072   3.681  2.3303 -1.8022 -1.0888
 1555SOL    HW3 5987   0.010   2.120   3.552  1.4877  0.9990  0.2702
 1555SOL    MW4 5988   0.020   2.058   3.612  0.6819  0.2051 -0.3685
 1556SOL     OW 5989   1.121   2.594   4.516  0.3084  0.0373 -0.4975
 1556SOL    HW2 5990   1.145   2.502   4.521  1.2305  0.2888  0.0121
 1556SOL    HW3 5991   1.089   2.607   4.427 -0.4109 -0.9018 -0.3854
 1556SOL    MW4 5992   1.120   2.584   4.505  0.3352 -0.0534 -0.4155
 1557SOL     OW 5993   0.510   4.099   3.729 -0.0026  0.4875 -0.2379
 1557SOL    HW2 5994   0.537   4.020   3.775 -1.3437  0.4599  0.5608
 1557SOL    HW3 5995   0.545   4.171   3.781  0.4746  0.4379 -0.4838
 1557SOL    MW4 5996   0.518   4.098   3.742 -0.1166  0.4773 -0.1650
 1558SOL     OW 5997   2.770   2.089   6.272  0.0429 -0.0243 -0.0651
 1558SOL    HW2 5998   2.831   2.139   6.219  0.3677  0.8760  1.1058
 1558SOL    HW3 5999   2.813   2.005   6.286  0.4056  0.1092 -0.3633
 1558SOL    MW4 6000   2.784   2.085   6.267  0.1336  0.1121  0.0500
 1559SOL     OW 6001   4.593   3.950   2.638 -0.0560 -0.1248 -0.2556
 1559SOL    HW2 6002   4.524   3.987   2.582 -0.1906 -0.1378 -0.0990
 1559SOL    HW3 6003   4.673   3.962   2.587 -0.1013  0.3650 -0.2134
 1559SOL    MW4 6004   4.594   3.956   2.624 -0.0797 -0.0619 -0.2294
 1560SOL     OW 6005   5.398   4.996   5.773  0.1096  0.3983  0.1246
 1560SOL    HW2 6006   5.398   4.908   5.812  1.6379  0.8493  1.2347
 1560SOL    HW3 6007   5.353   4.985   5.690 -1.2517 -1.0804  0.9892
 1560SOL    MW4 6008   5.392   4.983   5.767  0.1316  0.2627  0.3852
 1561SOL     OW 6009   3.912   1.723   1.986  0.1865  0.1061  0.4273
 1561SOL    HW2 6010   3.980   1.774   1.943  0.7500 -0.8705  0.1209
 1561SOL    HW3 6011   3.866   1.680   1.914 -1.3344  1.4220  0.5656
 1561SOL    MW4 6012   3.915   1.724   1.971  0.0602  0.1509  0.4051
 1562SOL     OW 6013   4.544   0.122   4.593  0.0327  0.0538 -0.5988
 1562SOL    HW2 6014   4.613   0.055   4.597 -0.3990 -0.3520  2.7222
 1562SOL    HW3 6015   4.465   0.073   4.573  0.0621 -0.1223 -0.2931
 1562SOL    MW4 6016   4.543   0.107   4.591 -0.0204 -0.0230 -0.1203
 1563SOL     OW 6017   0.621   0.174   4.335 -0.3957 -0.1709 -0.1376
 1563SOL    HW2 6018   0.601   0.267   4.324  1.7646  0.3944  0.3027
 1563SOL    HW3 6019   0.544   0.138   4.378 -1.1383  1.4751 -0.0032
 1563SOL    MW4 6020   0.608   0.181   4.339 -0.2087  0.1209 -0.0618
 1564SOL     OW 6021   5.982   0.050   0.394 -0.0636 -0.4882  0.2800
 1564SOL    HW2 6022   6.072   0.077   0.412 -0.2105  1.0229 -1.0623
 1564SOL    HW3 6023   5.931   0.131   0.395 -1.4083 -1.2871  0.8213
 1564SOL    MW4 6024   5.987   0.064   0.397 -0.2604 -0.3942  0.1743
 1565SOL     OW 6025   6.398   3.160   1.271 -0.4977 -0.0040  0.0114
 1565SOL    HW2 6026   6.371   3.248   1.243  0.9651  0.6046  0.4022
 1565SOL    HW3 6027   6.360   3.150   1.359 -1.1008  0.0084 -0.2389
 1565SOL    MW4 6028   6.389   3.170   1.279 -0.3843  0.0779  0.0300
 1566SOL     OW 6029   5.784   1.142   0.566 -0.3973  0.1947  0.6170
 1566SOL    HW2 6030   5.719   1.210   0.583 -0.0858  0.5800  0.3044
 1566SOL    HW3 6031   5.751   1.095   0.490  1.0883  2.2927 -1.4898
 1566SOL    MW4 6032   5.771   1.145   0.558 -0.1602  0.5223  0.2978
 1567SOL     OW 6033   0.452   5.989   0.729 -0.5207 -0.1568 -0.0804
 1567SOL    HW2 6034   0.471   5.927   0.658 -2.4877 -1.2077  0.2533
 1567SOL    HW3 6035   0.525   6.051   0.726  0.1127 -0.9001 -2.1980
 1567SOL    MW4 6036   0.464   5.989   0.719 -0.6967 -0.3935 -0.3157
 1568SOL     OW 6037   6.393   2.273   3.450 -0.3870  0.3565  0.2579
 1568SOL    HW2 6038   6.416   2.343   3.510 -1.2147 -0.9934  2.2367
 1568SOL    HW3 6039   6.469   2.267   3.391  0.6026  1.5218  1.3473
 1568SOL    MW4 6040   6.406   2.281   3.450 -0.3656  0.3322  0.6627
 1569SOL     OW 6041   0.110   5.334   3.647  0.2001  0.3037  0.5006
 1569SOL    HW2 6042   0.158   5.397   3.593 -1.0062 -0.7663 -1.9840
 1569SOL    HW3 6043   0.176   5.294   3.703  2.4291 -1.4891 -3.1121
 1569SOL    MW4 6044   0.125   5.337   3.648  0.3350 -0.0740 -0.3038
 1570SOL     OW 6045   0.643   4.621   5.774  0.2820 -0.4878  0.1185
 1570SOL    HW2 6046   0.554   4.652   5.792  0.4052  0.3716 -0.6391
 1570SOL    HW3 6047   0.636   4.579   5.688  0.6915  0.0145 -0.1695
 1570SOL    MW4 6048   0.630   4.619   5.765  0.3523 -0.3081 -0.0195
 1571SOL     OW 6049   4.184   0.956   0.530  0.0398 -0.4830  0.7749
 1571SOL    HW2 6050   4.094   0.930   0.551 -0.5933 -0.3304 -1.4770
 1571SOL    HW3 6051   4.228   0.874   0.508 -0.2771 -0.3312 -0.5130
 1571SOL    MW4 6052   4.178   0.942   0.530 -0.0856 -0.4429  0.3079
 1572SOL     OW 6053   4.660   6.307   1.633  0.1433 -0.3384 -0.0471
 1572SOL    HW2 6054   4.651   6.363   1.710 -0.3686 -2.4868  1.5546
 1572SOL    HW3 6055   4.637   6.363   1.559  0.9810  1.8916  1.3044
 1572SOL    MW4 6056   4.656   6.322   1.633  0.1863 -0.3277  0.3426
 1573SOL     OW 6057   4.883   0.616   3.159  0.0465  0.5422  0.2661
 1573SOL    HW2 6058   4.895   0.693   3.103 -0.9726  0.1093 -0.5755
 1573SOL    HW3 6059   4.793   0.623   3.191  0.1294 -0.0089  0.6251
 1573SOL    MW4 6060   4.873   0.627   3.156 -0.0770  0.4124  0.2024
 1574SOL     OW 6061   4.787   3.718   3.652  0.0858 -0.2561 -0.3566
 1574SOL    HW2 6062   4.869   3.762   3.630  0.1688 -0.2676 -0.0812
 1574SOL    HW3 6063   4.794   3.632   3.611  0.1308 -0.1876 -0.4919
 1574SOL    MW4 6064   4.799   3.713   3.644  0.1027 -0.2486 -0.3381
 1575SOL     OW 6065   2.877   5.380   4.166 -0.2753  0.3569  0.5969
 1575SOL    HW2 6066   2.796   5.345   4.203 -0.5488  0.9490  0.5659
 1575SOL    HW3 6067   2.943   5.364   4.232 -0.4345 -0.0515  0.6603
 1575SOL    MW4 6068   2.875   5.373   4.179 -0.3324  0.3812  0.6012
 1576SOL     OW 6069   4.168   4.821   0.333  0.0674  0.2183  0.1191
 1576SOL    HW2 6070   4.233   4.760   0.369  1.6191  1.7996  0.1148
 1576SOL    HW3 6071   4.144   4.783   0.248 -0.4828 -1.3683  0.9488
 1576SOL    MW4 6072   4.174   4.808   0.327  0.1995  0.2176  0.2280
 1577SOL     OW 6073   1.851   5.367   0.752  0.0991  0.0913 -0.0533
 1577SOL    HW2 6074   1.765   5.325   0.743 -0.4258  1.0916  0.0649
 1577SOL    HW3 6075   1.892   5.357   0.666 -0.7286  0.8263 -0.5531
 1577SOL    MW4 6076   1.845   5.360   0.740 -0.0794  0.3202 -0.1036
 1578SOL     OW 6077   5.520   3.028   3.795 -0.1842  0.0734 -0.0155
 1578SOL    HW2 6078   5.499   2.935   3.785  0.0882 -0.1013  0.9394
 1578SOL    HW3 6079   5.601   3.040   3.745 -1.0807  0.1794 -1.5193
 1578SOL    MW4 6080   5.528   3.018   3.787 -0.2666  0.0643 -0.0879
 1579SOL     OW 6081   4.647   0.045   1.862  0.3323  0.2275  0.1933
 1579SOL    HW2 6082   4.646  -0.038   1.909 -0.8010  0.7145  1.0947
 1579SOL    HW3 6083   4.562   0.084   1.881  0.7944  1.5401 -0.3137
 1579SOL    MW4 6084   4.635   0.039   1.871  0.2437  0.4649  0.2453
 1580SOL     OW 6085   2.159   5.667   1.305 -0.3122 -0.2762 -0.1285
 1580SOL    HW2 6086   2.153   5.674   1.209 -0.7068 -0.0042 -0.0856
 1580SOL    HW3 6087   2.249   5.638   1.321 -0.0656  0.2279 -0.5563
 1580SOL    MW4 6088   2.170   5.664   1.294 -0.3317 -0.1738 -0.1793
 1581SOL     OW 6089   4.387   0.543   6.143  0.2002 -0.1441  0.1702
 1581SOL    HW2 6090   4.430   0.599   6.208  0.5441 -0.9987  0.6919
 1581SOL    HW3 6091   4.420   0.574   6.059 -1.5309  2.1046  0.2255
 1581SOL    MW4 6092   4.397   0.555   6.141  0.0172  0.0398  0.2464
 1582SOL     OW 6093   5.554   1.626   1.008 -0.3250  0.1145  0.2218
 1582SOL    HW2 6094   5.515   1.657   0.926  1.8347  0.4833 -0.7292
 1582SOL    HW3 6095   5.602   1.547   0.984 -0.1658 -0.1297  1.2743
 1582SOL    MW4 6096   5.555   1.619   0.994 -0.0190  0.1309  0.2352
 1583SOL     OW 6097   0.896   5.986   2.124  0.1346  0.3266 -0.7546
 1583SOL    HW2 6098   0.809   5.949   2.142 -0.7808  2.9959  0.7917
 1583SOL    HW3 6099   0.954   5.940   2.185 -0.8899  1.0150  0.8091
 1583SOL    MW4 6100   0.892   5.975   2.135 -0.1213  0.7696 -0.3443
 1584SOL     OW 6101   5.429   5.686   5.588 -0.3804  0.6792 -0.5397
 1584SOL    HW2 6102   5.388   5.601   5.600  0.9930  0.0806  0.1687
 1584SOL    HW3 6103   5.357   5.744   5.562 -1.1726 -0.8723 -1.9580
 1584SOL    MW4 6104   5.414   5.683   5.586 -0.3038  0.3955 -0.6333
 1585SOL     OW 6105   5.914   5.686   0.042  0.0528  0.4575  0.1142
 1585SOL    HW2 6106   5.981   5.650   0.100  0.6487  1.1060 -0.1659
 1585SOL    HW3 6107   5.932   5.647  -0.043  1.8079  2.6942 -0.6281
 1585SOL    MW4 6108   5.925   5.676   0.038  0.3630  0.8382 -0.0207
 1586SOL     OW 6109   6.102   5.081   6.393  0.4594  0.0354 -0.2931
 1586SOL    HW2 6110   6.037   5.113   6.456 -0.7190  1.3035 -2.0399
 1586SOL    HW3 6111   6.139   5.003   6.434 -1.8523 -0.4869  0.9876
 1586SOL    MW4 6112   6.098   5.075   6.407 -0.0011  0.1338 -0.3546
 1587SOL     OW 6113   4.615   0.578   0.768  0.2572  0.3118 -0.2762
 1587SOL    HW2 6114   4.575   0.554   0.851  0.9534 -0.0105 -0.0286
 1587SOL    HW3 6115   4.583   0.513   0.705 -1.0291  1.1129 -0.4853
 1587SOL    MW4 6116   4.605   0.567   0.771  0.1794  0.3750 -0.2711
 1588SOL     OW 6117   5.483   0.524   5.819  0.0779  0.4981 -0.4397
 1588SOL    HW2 6118   5.519   0.601   5.776  0.7141  0.3929 -0.1149
 1588SOL    HW3 6119   5.457   0.466   5.748  0.2049  0.7396 -0.6811
 1588SOL    MW4 6120   5.485   0.526   5.804  0.1786  0.5161 -0.4287
 1589SOL     OW 6121   0.333   0.714   1.682  0.1266 -0.3640  0.1917
 1589SOL    HW2 6122   0.356   0.701   1.590 -0.6027  1.8821 -0.3960
 1589SOL    HW3 6123   0.316   0.626   1.715 -0.5607 -1.1864 -2.1044
 1589SOL    MW4 6124   0.334   0.701   1.674 -0.0603 -0.1762 -0.1888
 1590SOL     OW 6125   0.496   0.049   5.025 -0.0118  0.2319  0.3932
 1590SOL    HW2 6126   0.449   0.060   5.108 -0.8383 -2.4526  0.3459
 1590SOL    HW3 6127   0.588   0.051   5.050 -0.2556 -0.8164  1.4286
 1590SOL    MW4 6128   0.502   0.051   5.040 -0.1530 -0.2606  0.5236
 1591SOL     OW 6129   4.278   0.573   1.865  0.1919  0.0719  0.1326
 1591SOL    HW2 6130   4.346   0.635   1.840  0.6949  0.0615  1.4209
 1591SOL    HW3 6131   4.199   0.607   1.823  0.5897  1.2043  0.2663
 1591SOL    MW4 6132   4.277   0.585   1.856  0.3107  0.2199  0.3202
 1592SOL     OW 6133   5.760   3.139   5.153 -0.2251 -0.3037 -0.3847
 1592SOL    HW2 6134   5.815   3.094   5.090 -1.0483 -1.1364 -0.5249
 1592SOL    HW3 6135   5.816   3.153   5.229  0.4899 -0.1392 -0.9357
 1592SOL    MW4 6136   5.774   3.135   5.155 -0.2394 -0.3919 -0.4759
 1593SOL     OW 6137   0.699   4.393   2.591  0.0556 -0.5311  0.3296
 1593SOL    HW2 6138   0.753   4.457   2.544  0.2289  0.6775  2.0659
 1593SOL    HW3 6139   0.728   4.308   2.559  0.8603  0.1974 -0.9767
 1593SOL    MW4 6140   0.710   4.391   2.580  0.1846 -0.2755  0.3863
 1594SOL     OW 6141   1.928   2.896   0.009 -0.3257  0.1898  0.4111
 1594SOL    HW2 6142   1.834   2.902   0.022 -0.4463 -0.3491 -0.1458
 1594SOL    HW3 6143   1.954   2.814   0.052 -0.2092  0.0341  0.0467
 1594SOL    MW4 6144   1.919   2.886   0.016 -0.3263  0.0981  0.2895
 1595SOL     OW 6145   1.158   2.246   5.026  0.2790  0.2771 -0.0804
 1595SOL    HW2 6146   1.155   2.333   4.985 -0.1030  0.0908 -0.4615
 1595SOL    HW3 6147   1.247   2.216   5.011  0.2484  0.3686 -0.4546
 1595SOL    MW4 6148   1.169   2.253   5.018  0.2246  0.2646 -0.1801
 1596SOL     OW 6149   0.565   3.435   3.344 -0.6965 -0.1538 -0.1509
 1596SOL    HW2 6150   0.547   3.484   3.424  1.1767 -0.3435  0.4351
 1596SOL    HW3 6151   0.590   3.501   3.280 -1.6278 -0.0606 -0.4461
 1596SOL    MW4 6152   0.566   3.450   3.346 -0.5722 -0.1665 -0.1125
 1597SOL     OW 6153   4.831   6.378   4.888  0.2600 -0.0951  0.2827
 1597SOL    HW2 6154   4.758   6.384   4.950  0.8023  1.2607  0.8333
 1597SOL    HW3 6155   4.898   6.435   4.925  1.4325 -0.9440 -0.4596
 1597SOL    MW4 6156   4.830   6.386   4.901  0.4863 -0.0282  0.2574
 1598SOL     OW 6157   2.397   1.783   3.515  0.7864  0.1690  0.2776
 1598SOL    HW2 6158   2.310   1.820   3.501  1.2875  1.4443  0.4318
 1598SOL    HW3 6159   2.413   1.730   3.437 -0.4223 -0.7107  0.5938
 1598SOL    MW4 6160   2.388   1.781   3.503  0.6931  0.2212  0.3397
 1599SOL     OW 6161   2.370   5.678   2.394  0.1922 -0.1685  0.8504
 1599SOL    HW2 6162   2.433   5.686   2.465  0.9638 -0.0206  0.1590
 1599SOL    HW3 6163   2.357   5.768   2.363 -2.8263  0.3214  3.0352
 1599SOL    MW4 6164   2.376   5.691   2.399 -0.1042 -0.0844  1.0475
 1600SOL     OW 6165   0.120   3.264   2.935 -0.2260 -0.4383 -0.3670
 1600SOL    HW2 6166   0.052   3.223   2.883 -1.4829  2.2413 -1.0076
 1600SOL    HW3 6167   0.088   3.352   2.952  1.9902  0.1236  1.4762
 1600SOL    MW4 6168   0.107   3.270   2.931 -0.0995 -0.0106 -0.2084
 1601SOL     OW 6169   1.704   2.218   4.191  0.0092  0.6726  0.0751
 1601SOL    HW2 6170   1.772   2.253   4.248  0.4391  1.2704 -0.7826
 1601SOL    HW3 6171   1.710   2.271   4.112 -1.5070  0.7708  0.0124
 1601SOL    MW4 6172   1.714   2.230   4.188 -0.1341  0.7644 -0.0463
 1602SOL     OW 6173   4.664   2.482   1.231  0.0924 -0.1457 -0.9237
 1602SOL    HW2 6174   4.628   2.571   1.227  0.5482 -0.0039 -2.4148
 1602SOL    HW3 6175   4.596   2.427   1.192 -1.4080 -0.9470  2.4493
 1602SOL    MW4 6176   4.650   2.486   1.226 -0.0454 -0.2327 -0.6754
 1603SOL     OW 6177   4.502   5.596   6.380 -0.2225  0.1311  0.5098
 1603SOL    HW2 6178   4.484   5.689   6.391 -0.5709  0.3816 -1.6986
 1603SOL    HW3 6179   4.444   5.553   6.443 -1.4628  1.3436  0.2418
 1603SOL    MW4 6180   4.492   5.602   6.390 -0.4321  0.3241  0.1831
 1604SOL     OW 6181   3.402   5.556   5.188 -0.2918 -0.1186  0.2488
 1604SOL    HW2 6182   3.334   5.608   5.230 -1.1018 -0.5639 -0.4755
 1604SOL    HW3 6183   3.355   5.503   5.123  0.7542 -0.3786 -0.3182
 1604SOL    MW4 6184   3.387   5.555   5.185 -0.2606 -0.2116  0.0785
 1605SOL     OW 6185   0.506   0.729   3.362  0.1947  0.2416  0.1202
 1605SOL    HW2 6186   0.590   0.740   3.406 -0.2851  0.0101  1.1229
 1605SOL    HW3 6187   0.469   0.817   3.359  0.5630  0.3829 -0.5348
 1605SOL    MW4 6188   0.512   0.742   3.367  0.1800  0.2297  0.1661
 1606SOL     OW 6189   6.127   1.684   3.083  0.3743  0.8475 -0.0327
 1606SOL    HW2 6190   6.138   1.590   3.096  0.8105  0.9175  0.1314
 1606SOL    HW3 6191   6.036   1.702   3.109 -0.3582  0.1544 -1.9933
 1606SOL    MW4 6192   6.116   1.674   3.088  0.3352  0.7653 -0.2697
 1607SOL     OW 6193   0.494   4.709   1.049 -0.7576 -0.5685 -0.1429
 1607SOL    HW2 6194   0.469   4.802   1.047  0.6392 -0.1778 -0.8394
 1607SOL    HW3 6195   0.552   4.701   1.125 -1.1078 -0.9380  0.0860
 1607SOL    MW4 6196   0.499   4.720   1.059 -0.6195 -0.5657 -0.2046
 1608SOL     OW 6197   5.517   6.004   0.827  0.2148  0.0916 -0.1733
 1608SOL    HW2 6198   5.500   6.098   0.823  2.9648  0.7061  0.5565
 1608SOL    HW3 6199   5.544   5.988   0.918 -0.3848 -1.4601 -0.2280
 1608SOL    MW4 6200   5.518   6.014   0.839  0.4985 -0.0321 -0.0843
 1609SOL     OW 6201   0.363   5.827   3.778 -0.5594  0.3761  0.4345
 1609SOL    HW2 6202   0.370   5.776   3.859  1.2519  0.7022  0.5289
 1609SOL    HW3 6203   0.280   5.800   3.740  0.5052 -3.0410  0.2378
 1609SOL    MW4 6204   0.353   5.817   3.784 -0.1800 -0.0317  0.4210
 1610SOL     OW 6205   3.303   3.736   0.544  0.8350  0.3954  0.0401
 1610SOL    HW2 6206   3.256   3.692   0.615  0.7774  2.9954  1.7400
 1610SOL    HW3 6207   3.394   3.706   0.554  0.7363  0.3753  0.9544
 1610SOL    MW4 6208   3.309   3.726   0.555  0.8144  0.7358  0.3850
 1611SOL     OW 6209   3.001   3.672   3.541  0.2178  0.3052  0.7774
 1611SOL    HW2 6210   2.965   3.761   3.541  1.3622  0.8163 -0.5267
 1611SOL    HW3 6211   2.931   3.618   3.577 -1.0881  1.5192  0.1947
 1611SOL    MW4 6212   2.987   3.677   3.545  0.1965  0.5328  0.5285
 1612SOL     OW 6213   5.583   0.249   3.614  0.0185  0.2085  0.1620
 1612SOL    HW2 6214   5.634   0.300   3.551 -0.4953  1.8497  1.0047
 1612SOL    HW3 6215   5.647   0.221   3.679  0.1045  1.0101  0.4379
 1612SOL    MW4 6216   5.598   0.252   3.614 -0.0379  0.5308  0.3096
 1613SOL     OW 6217   0.908   4.321   3.355 -0.5387 -0.0327  0.5957
 1613SOL    HW2 6218   0.873   4.245   3.310 -0.7739  0.2840  0.2426
 1613SOL    HW3 6219   0.979   4.286   3.410 -0.0649 -0.3822 -0.2184
 1613SOL    MW4 6220   0.913   4.306   3.357 -0.5072 -0.0370  0.4417
 1614SOL     OW 6221   4.412   2.489   0.584 -0.5458 -0.4640  0.0534
 1614SOL    HW2 6222   4.472   2.465   0.656 -0.1214 -0.8283 -0.4142
 1614SOL    HW3 6223   4.326   2.459   0.614 -0.0900 -2.3793 -0.3763
 1614SOL    MW4 6224   4.409   2.482   0.598 -0.4297 -0.7648 -0.0650
 1615SOL     OW 6225   2.278   3.323   1.846  0.2175 -0.4668 -0.2086
 1615SOL    HW2 6226   2.326   3.374   1.912  1.5860 -2.7250  0.6817
 1615SOL    HW3 6227   2.211   3.276   1.896  2.0813 -3.1890 -0.0570
 1615SOL    MW4 6228   2.276   3.324   1.862  0.6440 -1.1239 -0.0711
 1616SOL     OW 6229   2.910   5.742   2.910  0.0177  0.0180 -0.4822
 1616SOL    HW2 6230   2.999   5.742   2.944  0.1919 -0.3759 -0.9254
 1616SOL    HW3 6231   2.894   5.832   2.885 -0.1703  0.3553  0.7701
 1616SOL    MW4 6232   2.920   5.754   2.912  0.0159  0.0105 -0.3755
 1617SOL     OW 6233   6.241   0.981   5.077 -0.0568 -0.2111  0.1363
 1617SOL    HW2 6234   6.148   0.984   5.054  0.0025  1.8964 -0.0382
 1617SOL    HW3 6235   6.243   0.939   5.163 -1.3677  1.0968  0.8529
 1617SOL    MW4 6236   6.229   0.976   5.086 -0.2219  0.2395  0.2078
 1618SOL     OW 6237   1.299   5.569   1.318 -0.1540 -0.2875 -0.2230
 1618SOL    HW2 6238   1.293   5.655   1.360 -0.9416 -0.6108  0.3496
 1618SOL    HW3 6239   1.376   5.575   1.262 -0.5053  0.9810 -0.6122
 1618SOL    MW4 6240   1.308   5.581   1.316 -0.3043 -0.1628 -0.1988
 1619SOL     OW 6241   3.100   0.631   4.122 -0.8937 -0.3545 -0.5794
 1619SOL    HW2 6242   3.143   0.547   4.138  0.0100  0.3428  0.8463
 1619SOL    HW3 6243   3.166   0.683   4.075 -1.5172 -0.4864 -1.6260
 1619SOL    MW4 6244   3.115   0.627   4.118 -0.8567 -0.2799 -0.5294
 1620SOL     OW 6245   0.840   0.767   0.469 -0.6594  0.3211  0.3250
 1620SOL    HW2 6246   0.862   0.809   0.553  0.6264  1.2418 -0.4218
 1620SOL    HW3 6247   0.862   0.834   0.403 -6.0661  1.5853 -0.6953
 1620SOL    MW4 6248   0.846   0.782   0.471 -1.2031  0.6094  0.0918
 1621SOL     OW 6249   1.302   5.507   1.007 -0.0792 -0.2202  0.5016
 1621SOL    HW2 6250   1.352   5.451   1.066 -0.2591  0.1423  1.0006
 1621SOL    HW3 6251   1.366   5.540   0.944  0.2977  0.1631  1.0765
 1621SOL    MW4 6252   1.317   5.504   1.006 -0.0532 -0.1218  0.6433
 1622SOL     OW 6253   2.879   3.785   2.075  0.1771 -0.8402  0.0123
 1622SOL    HW2 6254   2.916   3.737   2.149 -0.2345  0.2792  0.9671
 1622SOL    HW3 6255   2.954   3.824   2.032  0.2165  1.6033  2.0647
 1622SOL    MW4 6256   2.893   3.784   2.079  0.1280 -0.3701  0.4090
 1623SOL     OW 6257   5.064   5.453   4.565  0.0951 -0.2419  0.3619
 1623SOL    HW2 6258   5.029   5.474   4.651 -0.9422 -0.2568 -0.0417
 1623SOL    HW3 6259   5.104   5.535   4.534 -1.2874  0.3311  0.0366
 1623SOL    MW4 6260   5.065   5.467   4.572 -0.2241 -0.1683  0.2657
 1624SOL     OW 6261   4.973   4.097   4.207  0.2245 -0.3743  0.4908
 1624SOL    HW2 6262   5.004   4.057   4.288  0.2398  1.0748  1.2479
 1624SOL    HW3 6263   4.961   4.190   4.229 -0.3765 -0.0561 -0.9972
 1624SOL    MW4 6264   4.975   4.104   4.221  0.1472 -0.1411  0.3944
 1625SOL     OW 6265   2.339   4.239   1.302 -0.6216  0.2828 -0.5746
 1625SOL    HW2 6266   2.418   4.194   1.334 -0.6321 -0.5250 -1.6201
 1625SOL    HW3 6267   2.354   4.250   1.209 -1.8413 -0.1084 -0.8417
 1625SOL    MW4 6268   2.351   4.234   1.294 -0.7839  0.1246 -0.7477
 1626SOL     OW 6269   0.884   3.715   5.099  0.2881  0.2948  0.4496
 1626SOL    HW2 6270   0.805   3.760   5.069 -0.1844 -0.7146  0.1506
 1626SOL    HW3 6271   0.948   3.731   5.029  0.1193  0.4760  0.3328
 1626SOL    MW4 6272   0.882   3.723   5.086  0.2035  0.1856  0.3948
 1627SOL     OW 6273   3.060   2.828   4.988 -0.1687  0.2345  0.9089
 1627SOL    HW2 6274   3.003   2.757   5.018  1.5814 -0.6981  2.2698
 1627SOL    HW3 6275   3.020   2.907   5.023 -1.9060 -0.0874 -0.2345
 1627SOL    MW4 6276   3.048   2.829   4.997 -0.1670  0.0690  0.9376
 1628SOL     OW 6277   6.235   5.501   6.087 -0.0925 -0.3539 -0.0693
 1628SOL    HW2 6278   6.180   5.537   6.018  2.0455  0.8238 -1.2888
 1628SOL    HW3 6279   6.288   5.576   6.116 -0.8547 -0.8259  2.8442
 1628SOL    MW4 6280   6.235   5.516   6.082  0.0890 -0.2608  0.1542
 1629SOL     OW 6281   0.435   0.037   2.851  0.2879 -0.2712 -0.5379
 1629SOL    HW2 6282   0.441  -0.007   2.936 -2.0918  0.8550  0.3126
 1629SOL    HW3 6283   0.415  -0.033   2.789 -0.6780 -0.7625  0.3074
 1629SOL    MW4 6284   0.433   0.022   2.854 -0.1535 -0.1874 -0.3142
 1630SOL     OW 6285   4.418   6.085   2.102 -0.1962  0.2397  0.4489
 1630SOL    HW2 6286   4.334   6.044   2.082  0.0196 -0.7138  1.3669
 1630SOL    HW3 6287   4.438   6.054   2.191  2.7491 -2.3571 -0.9633
 1630SOL    MW4 6288   4.409   6.076   2.111  0.2209 -0.2287  0.3837
 1631SOL     OW 6289   4.665   4.311   3.946  0.2061 -0.1045 -0.1318
 1631SOL    HW2 6290   4.623   4.394   3.965 -0.3725 -0.3343 -0.3621
 1631SOL    HW3 6291   4.641   4.254   4.019 -1.5063 -0.8020 -1.1597
 1631SOL    MW4 6292   4.657   4.314   3.958 -0.0962 -0.2268 -0.2978
 1632SOL     OW 6293   1.915   0.410   5.092 -0.5419  0.5326 -0.5574
 1632SOL    HW2 6294   1.937   0.470   5.163 -0.4372  0.2459 -0.3467
 1632SOL    HW3 6295   1.939   0.458   5.012  0.0159  0.5735 -0.3693
 1632SOL    MW4 6296   1.921   0.425   5.091 -0.4545  0.5002 -0.5048
 1633SOL     OW 6297   4.552   4.472   3.008  0.0218  0.4597  0.2890
 1633SOL    HW2 6298   4.533   4.469   3.102  0.2859  0.8133  0.3579
 1633SOL    HW3 6299   4.619   4.540   2.999 -0.0566  0.4851 -0.1643
 1633SOL    MW4 6300   4.559   4.481   3.019  0.0463  0.5097  0.2383
 1634SOL     OW 6301   2.081   1.935   2.693  0.0584  0.8512  0.0129
 1634SOL    HW2 6302   2.171   1.954   2.721  0.0102 -0.5696  1.2881
 1634SOL    HW3 6303   2.027   1.955   2.770 -0.1920 -2.3305  0.8056
 1634SOL    MW4 6304   2.086   1.940   2.707  0.0190  0.2440  0.2857
 1635SOL     OW 6305   1.252   1.382   4.045  0.0992  0.4424  0.2427
 1635SOL    HW2 6306   1.201   1.366   4.124  1.0175  0.4344  0.8533
 1635SOL    HW3 6307   1.266   1.476   4.044  1.2010  0.2950  0.8101
 1635SOL    MW4 6308   1.247   1.392   4.055  0.3657  0.4219  0.3981
 1636SOL     OW 6309   2.427   3.816   1.418  0.0824  0.0379 -0.0282
 1636SOL    HW2 6310   2.402   3.852   1.503  0.3737  1.7113 -0.6337
 1636SOL    HW3 6311   2.373   3.863   1.355  2.7179  1.7960 -1.1330
 1636SOL    MW4 6312   2.416   3.827   1.421  0.4685  0.4907 -0.2538
 1637SOL     OW 6313   0.748   2.328   5.036  0.0201 -0.5283 -0.0081
 1637SOL    HW2 6314   0.809   2.254   5.043 -2.0436 -2.4115 -0.5655
 1637SOL    HW3 6315   0.763   2.363   4.948  1.4612  0.1761  0.4966
 1637SOL    MW4 6316   0.758   2.323   5.025 -0.0621 -0.6838 -0.0151
 1638SOL     OW 6317   4.400   2.680   0.287  0.0576 -0.2352 -0.2710
 1638SOL    HW2 6318   4.492   2.685   0.259 -0.1186 -1.0243 -1.0423
 1638SOL    HW3 6319   4.382   2.765   0.326  1.0249  0.0464 -0.4056
 1638SOL    MW4 6320   4.410   2.692   0.289  0.1620 -0.3021 -0.3906
 1639SOL     OW 6321   0.201   0.630   6.297  0.0919  0.0575  0.2969
 1639SOL    HW2 6322   0.105   0.627   6.306  0.0601 -0.0560 -0.0693
 1639SOL    HW3 6323   0.233   0.570   6.364 -0.0577  0.7166  0.9754
 1639SOL    MW4 6324   0.192   0.622   6.307  0.0680  0.1295  0.3381
 1640SOL     OW 6325   6.330   1.701   4.327  0.6792 -0.1946 -0.0837
 1640SOL    HW2 6326   6.354   1.717   4.418  1.9624  0.4078 -0.5032
 1640SOL    HW3 6327   6.342   1.786   4.284  1.0895 -0.7164 -1.0275
 1640SOL    MW4 6328   6.334   1.714   4.333  0.9027 -0.1839 -0.2636
 1641SOL     OW 6329   4.520   5.215   1.145 -0.0024 -0.2899  0.0577
 1641SOL    HW2 6330   4.506   5.254   1.058 -0.7779 -0.5383  0.0691
 1641SOL    HW3 6331   4.598   5.160   1.134  0.0620 -0.1084 -0.4131
 1641SOL    MW4 6332   4.529   5.213   1.132 -0.0962 -0.2987 -0.0029
 1642SOL     OW 6333   6.372   5.265   5.743  0.5249  0.2278  1.1947
 1642SOL    HW2 6334   6.377   5.190   5.684 -0.5485 -0.3097  1.7603
 1642SOL    HW3 6335   6.326   5.233   5.820 -2.2443  2.0699  0.4550
 1642SOL    MW4 6336   6.367   5.251   5.745  0.0179  0.3999  1.1718
 1643SOL     OW 6337   1.461   4.187   1.860  0.3070  1.1025 -0.1862
 1643SOL    HW2 6338   1.387   4.128   1.876  1.5225 -0.5169 -0.3119
 1643SOL    HW3 6339   1.534   4.129   1.841  1.8048  2.6265  0.6334
 1643SOL    MW4 6340   1.461   4.172   1.860  0.6650  1.0899 -0.0946
 1644SOL     OW 6341   0.167   1.426   4.418  0.1160 -0.4348 -0.2474
 1644SOL    HW2 6342   0.256   1.401   4.395  0.0454 -0.7532 -0.1744
 1644SOL    HW3 6343   0.135   1.355   4.473  0.6302  0.7613  1.7015
 1644SOL    MW4 6344   0.174   1.413   4.422  0.1745 -0.3190  0.0194
 1645SOL     OW 6345   3.089   3.257   6.138  0.0545 -0.7578 -0.0989
 1645SOL    HW2 6346   3.142   3.198   6.191 -2.6867 -1.4214  2.0850
 1645SOL    HW3 6347   3.068   3.207   6.059  1.5658 -0.9085 -0.4459
 1645SOL    MW4 6348   3.093   3.243   6.134 -0.1078 -0.8652  0.1434
 1646SOL     OW 6349   0.882   1.065   3.545 -0.3841  0.5335  0.2779
 1646SOL    HW2 6350   0.919   0.994   3.598 -3.3699 -1.3936 -0.0042
 1646SOL    HW3 6351   0.937   1.068   3.467  0.4395 -0.7128  0.7739
 1646SOL    MW4 6352   0.894   1.056   3.542 -0.6694  0.1148  0.3061
 1647SOL     OW 6353   4.413   3.253   6.304 -0.1263 -0.0720 -0.1181
 1647SOL    HW2 6354   4.372   3.332   6.271 -1.6293 -0.3038  1.0402
 1647SOL    HW3 6355   4.443   3.276   6.392 -0.6254 -0.7595  0.2523
 1647SOL    MW4 6356   4.411   3.266   6.311 -0.3904 -0.1933  0.0836
 1648SOL     OW 6357   6.202   4.275   3.934 -0.2752 -0.3175  0.5728
 1648SOL    HW2 6358   6.177   4.253   3.844  1.0722 -4.8850  1.0543
 1648SOL    HW3 6359   6.270   4.342   3.924 -1.1008  0.2667 -1.6761
 1648SOL    MW4 6360   6.208   4.281   3.921 -0.2064 -0.8431  0.3396
 1649SOL     OW 6361   3.198   1.189   3.285 -0.2635 -0.1696 -0.3471
 1649SOL    HW2 6362   3.211   1.283   3.295 -1.0794 -0.1184  0.2942
 1649SOL    HW3 6363   3.273   1.149   3.329 -0.4518  0.1706  0.2889
 1649SOL    MW4 6364   3.210   1.196   3.292 -0.3960 -0.1180 -0.1786
 1650SOL     OW 6365   1.250   2.157   4.001  0.2477 -0.1141 -0.5258
 1650SOL    HW2 6366   1.177   2.219   4.004  1.6200  1.8233 -2.7226
 1650SOL    HW3 6367   1.209   2.071   4.006 -2.1406  0.8846 -1.3058
 1650SOL    MW4 6368   1.235   2.154   4.002  0.1137  0.2733 -0.9186
 1651SOL     OW 6369   2.976   2.880   4.008  0.2410  0.1840 -0.1121
 1651SOL    HW2 6370   3.009   2.970   4.003  2.1700 -0.5187 -1.1984
 1651SOL    HW3 6371   2.887   2.885   3.975 -0.5321  2.0414  2.0494
 1651SOL    MW4 6372   2.969   2.892   4.003  0.3935  0.3363  0.0298
 1652SOL     OW 6373   2.889   2.830   2.915 -0.0376 -0.0330  0.3611
 1652SOL    HW2 6374   2.822   2.882   2.959  0.7811  1.1019  0.3011
 1652SOL    HW3 6375   2.961   2.825   2.977 -0.2164 -1.3750  0.4854
 1652SOL    MW4 6376   2.889   2.836   2.929  0.0468 -0.0603  0.3696
 1653SOL     OW 6377   3.550   3.926   2.364  0.2595  0.5210  0.3125
 1653SOL    HW2 6378   3.621   3.964   2.311 -0.4592  1.9641  0.3313
 1653SOL    HW3 6379   3.472   3.934   2.308 -0.1141  0.1172  0.7785
 1653SOL    MW4 6380   3.549   3.932   2.349  0.1154  0.6581  0.3765
 1654SOL     OW 6381   0.034   4.106   1.350 -0.1043  0.6019  0.3641
 1654SOL    HW2 6382   0.110   4.061   1.386 -0.2776 -1.3220 -1.5067
 1654SOL    HW3 6383   0.054   4.116   1.256 -1.8972  0.5688 -0.0527
 1654SOL    MW4 6384   0.047   4.102   1.342 -0.3637  0.3437  0.0623
 1655SOL     OW 6385   3.492   0.863   1.059 -0.6776 -0.0026  0.1814
 1655SOL    HW2 6386   3.449   0.947   1.041  0.2031  0.7625  1.4472
 1655SOL    HW3 6387   3.479   0.812   0.979 -1.5059  1.2237 -0.5086
 1655SOL    MW4 6388   3.485   0.867   1.046 -0.6707  0.2601  0.2573
 1656SOL     OW 6389   4.400   0.648   1.499 -0.0229  0.8821  1.1862
 1656SOL    HW2 6390   4.482   0.603   1.478 -1.4210 -2.1110  1.6598
 1656SOL    HW3 6391   4.375   0.689   1.416  0.3193 -1.0109  0.0722
 1656SOL    MW4 6392   4.408   0.647   1.485 -0.1622  0.2374  1.1017
 1657SOL     OW 6393   4.479   3.420   4.213 -0.0681  0.2333 -0.2878
 1657SOL    HW2 6394   4.473   3.510   4.244 -2.5263 -0.2687  0.9176
 1657SOL    HW3 6395   4.481   3.367   4.292 -1.0332 -0.8467 -0.9536
 1657SOL    MW4 6396   4.478   3.425   4.227 -0.5197  0.0246 -0.2166
 1658SOL     OW 6397   1.313   0.330   4.515 -0.1160 -0.9214 -0.6048
 1658SOL    HW2 6398   1.283   0.287   4.595  0.5516 -1.9396 -0.8938
 1658SOL    HW3 6399   1.341   0.259   4.458  0.3344 -0.1438 -1.3731
 1658SOL    MW4 6400   1.312   0.315   4.518  0.0315 -0.9531 -0.7443
 1659SOL     OW 6401   5.952   0.642   3.950  0.2919  0.7354  0.0700
 1659SOL    HW2 6402   6.046   0.641   3.968  0.7226  1.1615 -1.9542
 1659SOL    HW3 6403   5.925   0.732   3.967  0.0957  0.4693  1.2505
 1659SOL    MW4 6404   5.961   0.654   3.955  0.3228  0.7565 -0.0413
 1660SOL     OW 6405   2.317   1.325   0.760  0.2512 -0.1759 -0.4943
 1660SOL    HW2 6406   2.378   1.369   0.700  0.7732  0.1070  0.2181
 1660SOL    HW3 6407   2.364   1.247   0.789  0.3243  0.0788  0.1092
 1660SOL    MW4 6408   2.332   1.321   0.756  0.3297 -0.1050 -0.3207
 1661SOL     OW 6409   3.919   1.663   1.073 -0.0786 -0.0445 -0.1387
 1661SOL    HW2 6410   3.863   1.607   1.126  1.4334 -1.1327  0.4097
 1661SOL    HW3 6411   4.001   1.668   1.122  0.5640  0.8816 -1.2429
 1661SOL    MW4 6412   3.923   1.656   1.086  0.2057 -0.0659 -0.2120
 1662SOL     OW 6413   0.867   5.626   5.824  0.6899  0.0357  0.3057
 1662SOL    HW2 6414   0.850   5.631   5.918 -1.0436  0.6034 -0.0063
 1662SOL    HW3 6415   0.925   5.700   5.806  0.0280  0.6788  0.7453
 1662SOL    MW4 6416   0.873   5.636   5.834  0.3738  0.1954  0.3225
 1663SOL     OW 6417   3.112   5.330   0.791 -0.2581 -0.1287 -0.1114
 1663SOL    HW2 6418   3.034   5.379   0.764  0.6510  0.7763 -1.2461
 1663SOL    HW3 6419   3.086   5.238   0.786 -1.2262  0.1584 -0.5674
 1663SOL    MW4 6420   3.099   5.325   0.786 -0.2658  0.0286 -0.3213
 1664SOL     OW 6421   5.152   3.046   0.156  0.1672  0.2254 -0.1239
 1664SOL    HW2 6422   5.211   3.096   0.099  0.6047 -0.6622 -0.4553
 1664SOL    HW3 6423   5.128   3.108   0.225  2.4896  0.2612  0.7396
 1664SOL    MW4 6424   5.157   3.061   0.158  0.5313  0.1130 -0.0537
 1665SOL     OW 6425   4.325   1.461   5.126 -0.1797 -0.2424  0.6095
 1665SOL    HW2 6426   4.356   1.379   5.087 -0.6450  0.2563 -0.8764
 1665SOL    HW3 6427   4.377   1.471   5.206  2.4647 -0.2160 -0.9815
 1665SOL    MW4 6428   4.336   1.452   5.132  0.1078 -0.1731  0.2035
 1666SOL     OW 6429   4.932   0.586   3.600  0.2744 -0.1664 -0.4316
 1666SOL    HW2 6430   4.903   0.503   3.638  1.4851 -1.0231 -1.2443
 1666SOL    HW3 6431   4.862   0.611   3.541 -0.6869  0.0890  0.7890
 1666SOL    MW4 6432   4.919   0.578   3.597  0.3073 -0.2457 -0.3778
 1667SOL     OW 6433   3.440   3.073   4.050 -0.4092 -0.4531  0.0743
 1667SOL    HW2 6434   3.384   3.150   4.039 -0.7559 -0.6516  0.4106
 1667SOL    HW3 6435   3.384   3.000   4.022 -0.4327 -0.6894  0.7370
 1667SOL    MW4 6436   3.425   3.073   4.045 -0.4580 -0.5104  0.2061
 1668SOL     OW 6437   3.199   0.393   4.259  0.1425 -0.0634 -0.0883
 1668SOL    HW2 6438   3.160   0.358   4.339 -0.6532 -1.0356 -0.8762
 1668SOL    HW3 6439   3.234   0.316   4.214  1.5936  0.6030 -0.1550
 1668SOL    MW4 6440   3.199   0.378   4.264  0.2289 -0.1037 -0.2010
 1669SOL     OW 6441   4.907   5.278   3.654 -0.3576 -1.2981 -0.3413
 1669SOL    HW2 6442   4.818   5.243   3.650 -1.2154  0.7732 -0.8411
 1669SOL    HW3 6443   4.905   5.355   3.597  1.3038 -0.2638  0.8946
 1669SOL    MW4 6444   4.895   5.283   3.646 -0.2516 -0.8884 -0.2442
 1670SOL     OW 6445   4.376   5.294   4.172  0.1416 -0.0240  0.3676
 1670SOL    HW2 6446   4.344   5.348   4.099 -2.3733 -1.1782  0.5194
 1670SOL    HW3 6447   4.379   5.353   4.247 -1.2939  0.2377  0.2349
 1670SOL    MW4 6448   4.372   5.309   4.172 -0.3796 -0.1418  0.3701
 1671SOL     OW 6449   4.052   1.160   0.082  0.0270  0.1029  0.1757
 1671SOL    HW2 6450   4.073   1.154   0.175 -0.4326  1.1924  0.3563
 1671SOL    HW3 6451   4.016   1.074   0.060  3.1362 -1.3608  0.2136
 1671SOL    MW4 6452   4.050   1.148   0.091  0.3766  0.0536  0.2045
 1672SOL     OW 6453   0.334   1.511   2.280  0.4024 -0.6512 -0.1190
 1672SOL    HW2 6454   0.336   1.415   2.283  1.2597 -0.6827 -0.9016
 1672SOL    HW3 6455   0.411   1.534   2.227  0.9017  0.5203  1.0769
 1672SOL    MW4 6456   0.345   1.501   2.273  0.5814 -0.5008 -0.0644
 1673SOL     OW 6457   5.164   3.105   5.287 -0.0232  0.0739  0.5936
 1673SOL    HW2 6458   5.250   3.147   5.278 -0.5195  0.7775 -1.4265
 1673SOL    HW3 6459   5.123   3.116   5.201 -1.1551 -2.4474  0.7231
 1673SOL    MW4 6460   5.170   3.112   5.274 -0.2380 -0.1659  0.3441
 1674SOL     OW 6461   5.348   1.091   5.088  0.7312  0.3790  0.3926
 1674SOL    HW2 6462   5.442   1.081   5.069  0.9170 -1.9898  2.1814
 1674SOL    HW3 6463   5.345   1.144   5.167  0.4882  1.0157 -0.0316
 1674SOL    MW4 6464   5.360   1.097   5.096  0.7236  0.1504  0.5727
 1675SOL     OW 6465   0.891   4.967   1.629  0.2273  0.7336 -0.6234
 1675SOL    HW2 6466   0.849   5.020   1.697  1.9755  0.1549  0.9884
 1675SOL    HW3 6467   0.962   5.021   1.596  0.0155  0.6120 -1.3057
 1675SOL    MW4 6468   0.895   4.981   1.634  0.4300  0.6412 -0.5008
 1676SOL     OW 6469   2.465   0.065   5.666 -0.1003  0.2497  0.3073
 1676SOL    HW2 6470   2.379   0.074   5.707  0.1519  2.3501  0.4890
 1676SOL    HW3 6471   2.527   0.097   5.732  0.6653  0.2030 -0.3641
 1676SOL    MW4 6472   2.462   0.071   5.680  0.0340  0.5206  0.2427
 1677SOL     OW 6473   2.361   3.859   5.758 -0.1055 -0.4013  0.7520
 1677SOL    HW2 6474   2.360   3.768   5.728  0.8625 -0.9063  2.1645
 1677SOL    HW3 6475   2.309   3.859   5.838 -0.3515  0.3605  0.5978
 1677SOL    MW4 6476   2.354   3.847   5.764 -0.0102 -0.3674  0.9180
 1678SOL     OW 6477   1.437   2.919   2.933 -0.1773 -0.3146  0.0863
 1678SOL    HW2 6478   1.387   3.000   2.923  0.0640 -0.4050 -2.3728
 1678SOL    HW3 6479   1.526   2.948   2.951 -0.2969 -0.0588  0.2691
 1678SOL    MW4 6480   1.442   2.933   2.934 -0.1613 -0.2927 -0.2140
 1679SOL     OW 6481   2.372   0.075   4.253 -0.6868 -0.3642 -0.4695
 1679SOL    HW2 6482   2.371   0.132   4.177 -1.8834 -1.8257 -1.6031
 1679SOL    HW3 6483   2.454   0.026   4.245 -0.7625 -0.4443 -0.7642
 1679SOL    MW4 6484   2.383   0.076   4.242 -0.8547 -0.5676 -0.6579
 1680SOL     OW 6485   3.251   0.321   0.856 -0.2634 -0.9741 -0.3817
 1680SOL    HW2 6486   3.268   0.237   0.813 -0.1540  0.2239 -2.8704
 1680SOL    HW3 6487   3.166   0.348   0.822 -0.5963 -0.3608  0.9018
 1680SOL    MW4 6488   3.242   0.313   0.846 -0.2929 -0.7351 -0.5407
 1681SOL     OW 6489   3.909   0.492   2.089  0.0174  0.0061  0.2741
 1681SOL    HW2 6490   3.849   0.420   2.109 -2.0924  2.0183  1.7050
 1681SOL    HW3 6491   3.926   0.483   1.995 -1.7202 -1.2587  0.0198
 1681SOL    MW4 6492   3.903   0.481   2.079 -0.4902  0.1047  0.4293
 1682SOL     OW 6493   5.460   2.481   5.093  0.0924  0.1280 -0.2690
 1682SOL    HW2 6494   5.546   2.512   5.065  1.6136 -2.7244  0.8356
 1682SOL    HW3 6495   5.429   2.429   5.019  0.3447 -0.6243  0.1425
 1682SOL    MW4 6496   5.467   2.478   5.079  0.3264 -0.3476 -0.0689
 1683SOL     OW 6497   1.462   4.882   1.126  0.1303 -0.0991  0.3785
 1683SOL    HW2 6498   1.475   4.810   1.065  2.8175 -0.2283  0.9964
 1683SOL    HW3 6499   1.393   4.935   1.086 -1.0356 -2.3033 -0.6992
 1683SOL    MW4 6500   1.455   4.880   1.113  0.3310 -0.4069  0.3178
 1684SOL     OW 6501   0.462   1.376   4.369 -0.2729  0.1185  0.4162
 1684SOL    HW2 6502   0.499   1.377   4.457 -0.1663  0.4881  0.3687
 1684SOL    HW3 6503   0.495   1.295   4.330  1.3277  0.9079  0.0252
 1684SOL    MW4 6504   0.472   1.366   4.376 -0.0477  0.2714  0.3583
 1685SOL     OW 6505   2.815   3.285   4.831  0.2934  0.0680  0.3138
 1685SOL    HW2 6506   2.808   3.210   4.889 -1.3524 -0.1126 -0.0706
 1685SOL    HW3 6507   2.726   3.299   4.798  1.0835  0.3877 -1.8752
 1685SOL    MW4 6508   2.802   3.277   4.834  0.1805  0.0864 -0.0257
 1686SOL     OW 6509   1.315   1.018   0.470 -0.1370 -0.6038 -0.1953
 1686SOL    HW2 6510   1.394   1.069   0.452  0.1308 -0.5104  1.1410
 1686SOL    HW3 6511   1.331   0.978   0.556 -2.1224  0.5917  0.7963
 1686SOL    MW4 6512   1.328   1.019   0.479 -0.3636 -0.4337  0.1118
 1687SOL     OW 6513   2.320   6.002   1.476  0.7087  0.3401  0.0978
 1687SOL    HW2 6514   2.366   5.956   1.547  0.0832 -1.4216 -0.5718
 1687SOL    HW3 6515   2.229   5.975   1.486  0.4800  0.7162 -0.9069
 1687SOL    MW4 6516   2.314   5.992   1.487  0.5960  0.1573 -0.1231
 1688SOL     OW 6517   0.037   0.132   1.089  0.1099 -0.3839 -0.3509
 1688SOL    HW2 6518   0.097   0.058   1.083 -0.1260 -0.4971 -1.7033
 1688SOL    HW3 6519   0.067   0.182   1.165  1.4443 -0.8359 -0.5557
 1688SOL    MW4 6520   0.049   0.129   1.098  0.2548 -0.4585 -0.5564
 1689SOL     OW 6521   3.714   3.942   2.652  0.2591  0.1305  0.3321
 1689SOL    HW2 6522   3.709   3.861   2.704 -2.5394 -0.1825 -0.2382
 1689SOL    HW3 6523   3.739   4.009   2.715 -2.5479 -0.3308  2.1143
 1689SOL    MW4 6524   3.716   3.940   2.667 -0.4805  0.0283  0.4920
 1690SOL     OW 6525   2.966   1.467   3.311 -0.4836  0.4355  0.0853
 1690SOL    HW2 6526   2.881   1.497   3.344 -1.1576 -0.4024 -0.8102
 1690SOL    HW3 6527   2.972   1.505   3.224 -1.2740 -1.7325 -0.9999
 1690SOL    MW4 6528   2.955   1.476   3.304 -0.6768  0.0389 -0.1760
 1691SOL     OW 6529   3.646   2.922   1.247 -0.0274 -0.1985  0.4576
 1691SOL    HW2 6530   3.560   2.881   1.235  0.2430 -0.6137 -0.1592
 1691SOL    HW3 6531   3.670   2.952   1.160  0.6792 -0.5607  0.5184
 1691SOL    MW4 6532   3.638   2.920   1.234  0.1015 -0.3011  0.3842
 1692SOL     OW 6533   4.136   3.551   4.821 -0.4043 -0.2029  0.2803
 1692SOL    HW2 6534   4.104   3.575   4.734  0.4593  3.8563  0.9124
 1692SOL    HW3 6535   4.230   3.570   4.818 -0.3414 -0.0627  2.0891
 1692SOL    MW4 6536   4.144   3.556   4.809 -0.2821  0.3512  0.6023
 1693SOL     OW 6537   0.890   0.230   3.893  0.0636  0.6991  0.0328
 1693SOL    HW2 6538   0.849   0.150   3.926  1.2408  0.3004  0.5844
 1693SOL    HW3 6539   0.900   0.286   3.970  3.2704 -0.4281  0.5749
 1693SOL    MW4 6540   0.886   0.227   3.908  0.6420  0.4978  0.1771
 1694SOL     OW 6541   1.170   1.934   6.336  0.1245  0.1180 -0.4154
 1694SOL    HW2 6542   1.110   2.008   6.337 -0.3530 -0.1698 -2.3609
 1694SOL    HW3 6543   1.233   1.952   6.406 -0.1368  2.2258 -0.6531
 1694SOL    MW4 6544   1.171   1.946   6.345  0.0270  0.3581 -0.7035
 1695SOL     OW 6545   5.804   2.566   3.570 -0.1228 -0.2430 -0.4556
 1695SOL    HW2 6546   5.793   2.613   3.653 -1.9503 -0.7075 -0.3882
 1695SOL    HW3 6547   5.782   2.475   3.591  0.1306 -0.5051 -1.2951
 1695SOL    MW4 6548   5.800   2.560   3.584 -0.3305 -0.3389 -0.5575
 1696SOL     OW 6549   4.317   3.878   4.857 -0.0866  0.6176 -0.1419
 1696SOL    HW2 6550   4.317   3.919   4.943 -1.9597 -0.5057  0.4551
 1696SOL    HW3 6551   4.224   3.873   4.833 -0.1639 -3.7712  0.1825
 1696SOL    MW4 6552   4.304   3.882   4.865 -0.3439 -0.1097 -0.0203
 1697SOL     OW 6553   1.025   4.044   0.529 -0.9253 -0.1649  0.5711
 1697SOL    HW2 6554   0.971   4.030   0.606 -0.0584  0.8031  1.3886
 1697SOL    HW3 6555   1.088   3.972   0.530 -1.9895 -1.1445 -0.2360
 1697SOL    MW4 6556   1.026   4.033   0.539 -0.9513 -0.1664  0.5724
 1698SOL     OW 6557   4.986   3.468   1.291 -0.5043  0.1135 -0.4837
 1698SOL    HW2 6558   4.933   3.460   1.371 -0.9810 -0.8323 -0.8767
 1698SOL    HW3 6559   5.063   3.414   1.308 -1.4732 -1.6234 -1.3305
 1698SOL    MW4 6560   4.989   3.459   1.304 -0.6950 -0.2404 -0.6473
 1699SOL     OW 6561   5.964   1.229   2.544  0.2885 -0.1510  0.6117
 1699SOL    HW2 6562   5.995   1.138   2.540 -0.6679 -0.4342 -2.0598
 1699SOL    HW3 6563   5.902   1.229   2.617  0.3457 -1.6246  0.6959
 1699SOL    MW4 6564   5.960   1.217   2.553  0.1699 -0.3828  0.2704
 1700SOL     OW 6565   5.866   3.952   5.086 -0.2144  1.0828 -0.0499
 1700SOL    HW2 6566   5.867   4.045   5.065  0.2606  0.8637 -1.0747
 1700SOL    HW3 6567   5.777   3.935   5.116 -0.7915  1.5552 -1.4086
 1700SOL    MW4 6568   5.855   3.962   5.087 -0.2279  1.1162 -0.3643
 1701SOL     OW 6569   2.540   6.327   4.860  0.1178  0.1252 -0.0489
 1701SOL    HW2 6570   2.581   6.279   4.788  0.8425  0.7187 -0.0439
 1701SOL    HW3 6571   2.546   6.419   4.834  0.0676  0.3204  0.6084
 1701SOL    MW4 6572   2.547   6.333   4.847  0.2068  0.2292  0.0384
 1702SOL     OW 6573   1.450   2.723   2.089  0.0878 -0.1773  0.0275
 1702SOL    HW2 6574   1.491   2.644   2.124  1.9638  0.9750  0.5248
 1702SOL    HW3 6575   1.416   2.696   2.004  0.2502 -1.6417  0.3988
 1702SOL    MW4 6576   1.451   2.709   2.082  0.3568 -0.2185  0.1421
 1703SOL     OW 6577   0.485   1.971   6.294 -0.2947  0.4906 -0.6734
 1703SOL    HW2 6578   0.428   1.919   6.350  0.4673  0.9500  0.5655
 1703SOL    HW3 6579   0.430   2.045   6.266 -0.2609  1.0863  0.7436
 1703SOL    MW4 6580   0.470   1.974   6.298 -0.1897  0.6298 -0.3230
 1704SOL     OW 6581   2.078   2.291   1.418 -0.0517 -0.2454 -0.2107
 1704SOL    HW2 6582   2.160   2.301   1.467  0.6793  3.1298 -1.8368
 1704SOL    HW3 6583   2.105   2.246   1.337  0.0322  0.1262 -0.3889
 1704SOL    MW4 6584   2.093   2.286   1.414  0.0558  0.2489 -0.4488
 1705SOL     OW 6585   0.244   3.695   4.734  0.0193 -0.2174  0.4162
 1705SOL    HW2 6586   0.301   3.771   4.723  0.0291  0.0675  2.2485
 1705SOL    HW3 6587   0.173   3.710   4.671  0.4928  0.8454  0.1138
 1705SOL    MW4 6588   0.242   3.707   4.724  0.0831 -0.0396  0.6180
 1706SOL     OW 6589   4.697   1.422   4.889 -0.3842  0.1772  0.3824
 1706SOL    HW2 6590   4.686   1.455   4.799  0.5281  1.0202  0.5575
 1706SOL    HW3 6591   4.666   1.332   4.886 -1.4198  0.5405 -0.5180
 1706SOL    MW4 6592   4.691   1.415   4.877 -0.4005  0.3363  0.2867
 1707SOL     OW 6593   4.504   5.388   2.559  0.1957  0.3855  0.2086
 1707SOL    HW2 6594   4.465   5.437   2.631  1.0194  0.1897  0.8008
 1707SOL    HW3 6595   4.456   5.305   2.558 -0.3837  0.7143 -0.0246
 1707SOL    MW4 6596   4.492   5.383   2.568  0.2279  0.4030  0.2559
 1708SOL     OW 6597   2.427   6.131   4.504  0.0576  0.0059 -0.6574
 1708SOL    HW2 6598   2.390   6.218   4.520 -1.2603 -0.2973 -1.9166
 1708SOL    HW3 6599   2.396   6.078   4.577  0.9305  0.5867  0.1597
 1708SOL    MW4 6600   2.418   6.136   4.516 -0.0011  0.0425 -0.7157
 1709SOL     OW 6601   6.316   2.390   0.146 -0.0134  0.0082 -0.7395
 1709SOL    HW2 6602   6.289   2.482   0.147  1.0183  0.3126 -0.6903
 1709SOL    HW3 6603   6.330   2.368   0.238 -1.3037 -0.5326 -0.6400
 1709SOL    MW4 6604   6.314   2.399   0.158 -0.0475 -0.0230 -0.7199
 1710SOL     OW 6605   6.119   2.497   1.403  0.2227  0.2821  0.0458
 1710SOL    HW2 6606   6.048   2.560   1.409  0.4593  0.5588 -0.0361
 1710SOL    HW3 6607   6.129   2.462   1.491  0.6640  0.9903  0.2802
 1710SOL    MW4 6608   6.111   2.500   1.415  0.3121  0.4120  0.0659
 1711SOL     OW 6609   3.644   0.311   6.349 -0.4894 -0.1240  0.3930
 1711SOL    HW2 6610   3.555   0.283   6.326 -0.7758  1.3436 -0.4381
 1711SOL    HW3 6611   3.696   0.231   6.348 -1.1404 -0.5982 -2.3398
 1711SOL    MW4 6612   3.639   0.297   6.346 -0.6131  0.0071 -0.0772
 1712SOL     OW 6613   2.187   4.780   0.517  0.0831 -0.0983  0.4864
 1712SOL    HW2 6614   2.222   4.819   0.597  1.3309 -0.3904  0.1062
 1712SOL    HW3 6615   2.093   4.771   0.534 -0.0824  1.9813  1.0284
 1712SOL    MW4 6616   2.179   4.784   0.530  0.2259  0.1375  0.5078
 1713SOL     OW 6617   5.448   2.870   3.048 -0.3120 -0.5469 -0.2216
 1713SOL    HW2 6618   5.446   2.859   3.143  0.9192 -1.0093 -0.2404
 1713SOL    HW3 6619   5.507   2.802   3.016  0.1103  0.2568 -1.2237
 1713SOL    MW4 6620   5.455   2.860   3.056 -0.0939 -0.5019 -0.3563
 1714SOL     OW 6621   0.887   6.192   5.798 -0.3876  0.5170  0.1578
 1714SOL    HW2 6622   0.962   6.153   5.753 -0.5686  0.1474  0.1741
 1714SOL    HW3 6623   0.924   6.265   5.848 -0.2054  1.0445 -0.7150
 1714SOL    MW4 6624   0.902   6.197   5.798 -0.3875  0.5378  0.0448
 1715SOL     OW 6625   5.426   2.981   4.957 -0.1350 -0.7677  0.5327
 1715SOL    HW2 6626   5.470   2.991   5.042 -0.4253 -1.3635  0.7598
 1715SOL    HW3 6627   5.453   2.893   4.927 -2.5104 -1.8978  1.4767
 1715SOL    MW4 6628   5.436   2.970   4.964 -0.4867 -0.9954  0.6872
 1716SOL     OW 6629   4.003   3.130   3.743 -0.3125 -0.1227 -0.4734
 1716SOL    HW2 6630   3.951   3.201   3.704  1.7393 -0.1419 -3.6444
 1716SOL    HW3 6631   3.949   3.051   3.730 -1.1679  0.3730 -0.0143
 1716SOL    MW4 6632   3.989   3.129   3.736 -0.1547 -0.0598 -0.8312
 1717SOL     OW 6633   5.859   1.701   5.266 -0.4096 -0.6331  0.1141
 1717SOL    HW2 6634   5.809   1.719   5.345 -0.5911  1.3673 -0.3964
 1717SOL    HW3 6635   5.794   1.700   5.196 -0.0193 -0.4577 -0.2531
 1717SOL    MW4 6636   5.844   1.703   5.267 -0.3820 -0.3460 -0.0017
 1718SOL     OW 6637   3.628   5.026   5.321 -0.0918 -0.2230 -0.3958
 1718SOL    HW2 6638   3.560   4.968   5.356  0.3407 -1.4409 -1.5104
 1718SOL    HW3 6639   3.612   5.110   5.365 -1.5877 -0.7949  0.2297
 1718SOL    MW4 6640   3.617   5.029   5.332 -0.2321 -0.4591 -0.4603
 1719SOL     OW 6641   3.533   4.377   0.195  0.1776 -0.3968 -0.2843
 1719SOL    HW2 6642   3.532   4.315   0.268  0.6005 -1.1582 -0.9039
 1719SOL    HW3 6643   3.463   4.346   0.137  1.3455 -1.1970 -1.3084
 1719SOL    MW4 6644   3.524   4.365   0.197  0.3875 -0.6028 -0.5012
 1720SOL     OW 6645   1.444   4.786   6.390  0.2805 -0.0488 -0.8911
 1720SOL    HW2 6646   1.387   4.731   6.337 -1.2799 -0.2814  0.9450
 1720SOL    HW3 6647   1.407   4.874   6.383  0.2911 -0.0099 -0.4933
 1720SOL    MW4 6648   1.432   4.791   6.382  0.0760 -0.0744 -0.5964
 1721SOL     OW 6649   4.255   0.742   5.856  0.2801 -0.6392 -0.3408
 1721SOL    HW2 6650   4.202   0.740   5.776  1.1521 -2.0346 -0.9175
 1721SOL    HW3 6651   4.195   0.772   5.924 -0.5597  0.3019 -1.4551
 1721SOL    MW4 6652   4.240   0.746   5.854  0.2843 -0.6991 -0.5639
 1722SOL     OW 6653   2.859   2.130   1.945 -0.1701  0.2349 -0.3201
 1722SOL    HW2 6654   2.777   2.083   1.934 -0.0834 -0.2921  1.0729
 1722SOL    HW3 6655   2.847   2.181   2.025  0.8661  0.1086 -0.0648
 1722SOL    MW4 6656   2.846   2.130   1.955 -0.0219  0.1487 -0.1026
 1723SOL     OW 6657   3.284   3.549   4.244  0.2823  0.6986  0.1425
 1723SOL    HW2 6658   3.196   3.583   4.225  0.3334  0.9081  0.2727
 1723SOL    HW3 6659   3.269   3.467   4.289  0.1606 -0.0210 -1.1643
 1723SOL    MW4 6660   3.270   3.543   4.247  0.2730  0.6313 -0.0128
 1724SOL     OW 6661   4.158   1.381   2.805  0.0738  0.2778 -0.3032
 1724SOL    HW2 6662   4.160   1.471   2.839  0.5056  0.1652 -0.0189
 1724SOL    HW3 6663   4.080   1.378   2.750  0.3013  0.9571 -0.6728
 1724SOL    MW4 6664   4.148   1.393   2.803  0.1608  0.3525 -0.3145
 1725SOL     OW 6665   5.902   2.237   5.560 -0.2215 -0.1537  0.6911
 1725SOL    HW2 6666   5.840   2.307   5.579 -1.2302 -0.7292 -0.3590
 1725SOL    HW3 6667   5.981   2.261   5.609 -0.0522  2.4274 -0.6769
 1725SOL    MW4 6668   5.904   2.250   5.569 -0.3323  0.1109  0.3720
 1726SOL     OW 6669   2.189   3.694   3.831  0.7993 -0.0477  0.0573
 1726SOL    HW2 6670   2.103   3.725   3.803  0.5034 -0.4413  0.5294
 1726SOL    HW3 6671   2.175   3.602   3.854  0.8892  0.3975  2.0978
 1726SOL    MW4 6672   2.176   3.686   3.830  0.7721 -0.0409  0.3888
 1727SOL     OW 6673   3.421   0.004   0.247 -0.0533 -0.4056  0.1144
 1727SOL    HW2 6674   3.410   0.012   0.342  0.9833 -3.1680  0.5619
 1727SOL    HW3 6675   3.496   0.059   0.227 -1.7761  2.1959  0.4079
 1727SOL    MW4 6676   3.430   0.012   0.257 -0.1438 -0.4268  0.2122
 1728SOL     OW 6677   1.325   4.970   3.335 -0.2555 -0.1014 -0.6520
 1728SOL    HW2 6678   1.261   5.031   3.372 -0.5475 -0.5317 -0.4380
 1728SOL    HW3 6679   1.273   4.904   3.290  0.0839  0.1463 -1.4300
 1728SOL    MW4 6680   1.310   4.970   3.334 -0.2492 -0.1255 -0.7264
 1729SOL     OW 6681   2.311   4.875   0.743 -0.1313 -0.1971 -0.2199
 1729SOL    HW2 6682   2.317   4.969   0.763 -0.9848  0.1361 -1.4341
 1729SOL    HW3 6683   2.274   4.836   0.822 -1.1350  0.7127 -0.2095
 1729SOL    MW4 6684   2.307   4.882   0.756 -0.3763 -0.0331 -0.3787
 1730SOL     OW 6685   2.692   5.344   6.265 -0.1557 -0.2861 -0.0742
 1730SOL    HW2 6686   2.630   5.303   6.205 -1.2562 -1.2199  1.6128
 1730SOL    HW3 6687   2.704   5.432   6.232 -2.1791 -0.1742 -0.6173
 1730SOL    MW4 6688   2.685   5.350   6.253 -0.5678 -0.3946  0.0767
 1731SOL     OW 6689   3.694   0.573   3.273 -0.3498 -0.8485 -0.6419
 1731SOL    HW2 6690   3.665   0.644   3.331  0.6282 -0.4661 -0.6006
 1731SOL    HW3 6691   3.697   0.613   3.186 -0.5557 -1.0691 -0.7531
 1731SOL    MW4 6692   3.690   0.588   3.269 -0.2479 -0.8272 -0.6511
 1732SOL     OW 6693   1.425   2.119   3.004 -1.2597  0.1496 -0.1216
 1732SOL    HW2 6694   1.519   2.128   3.020 -0.7906 -0.4249 -2.2429
 1732SOL    HW3 6695   1.394   2.209   2.991 -0.5281  0.2094 -1.6300
 1732SOL    MW4 6696   1.433   2.132   3.004 -1.1013  0.0817 -0.6005
 1733SOL     OW 6697   5.991   6.382   2.445 -0.4642 -0.0518  0.1804
 1733SOL    HW2 6698   6.085   6.392   2.437 -0.4085 -0.9461 -0.4216
 1733SOL    HW3 6699   5.959   6.375   2.355 -1.0720 -0.0508  0.3861
 1733SOL    MW4 6700   5.999   6.382   2.432 -0.5370 -0.1696  0.1281
 1734SOL     OW 6701   3.168   4.469   6.073  0.3250  0.0884  0.5601
 1734SOL    HW2 6702   3.130   4.432   5.993 -2.1308 -1.0364  2.1369
 1734SOL    HW3 6703   3.243   4.412   6.092 -0.5403 -1.1672  0.3552
 1734SOL    MW4 6704   3.173   4.456   6.065 -0.1132 -0.2256  0.7411
 1735SOL     OW 6705   5.133   0.645   1.679 -0.2052 -0.6513  0.1597
 1735SOL    HW2 6706   5.207   0.689   1.639  0.4198 -1.9609 -0.1757
 1735SOL    HW3 6707   5.065   0.644   1.611 -0.6122  0.6954  0.5244
 1735SOL    MW4 6708   5.134   0.650   1.665 -0.1765 -0.6464  0.1635
 1736SOL     OW 6709   1.417   3.512   2.578  0.0299 -0.4603  0.1323
 1736SOL    HW2 6710   1.341   3.457   2.598 -0.8092  1.0034  1.2038
 1736SOL    HW3 6711   1.450   3.540   2.664  0.4695  0.6227 -0.3677
 1736SOL    MW4 6712   1.411   3.509   2.592 -0.0228 -0.1243  0.2077
 1737SOL     OW 6713   6.403   3.902   2.931 -0.0255  0.5379  0.6301
 1737SOL    HW2 6714   6.462   3.839   2.974  0.0078 -0.3745 -0.7052
 1737SOL    HW3 6715   6.339   3.924   2.999 -0.1505 -1.0803  1.0944
 1737SOL    MW4 6716   6.403   3.896   2.946 -0.0376  0.2040  0.5152
 1738SOL     OW 6717   5.984   1.213   1.630 -0.4051 -0.0641  0.1168
 1738SOL    HW2 6718   6.062   1.233   1.683 -1.0784  1.3050  0.6527
 1738SOL    HW3 6719   6.012   1.142   1.573  1.1823  0.2450  0.4432
 1738SOL    MW4 6720   5.998   1.207   1.629 -0.2845  0.1574  0.2305
 1739SOL     OW 6721   1.351   3.692   1.864 -0.9681  0.4652  0.0112
 1739SOL    HW2 6722   1.391   3.754   1.925 -0.3860 -1.2724  1.4897
 1739SOL    HW3 6723   1.425   3.642   1.829 -1.6072 -1.4811  1.2818
 1739SOL    MW4 6724   1.366   3.694   1.867 -0.9756 -0.0208  0.3739
 1740SOL     OW 6725   1.601   4.709   5.349  0.1838 -0.5354  0.6826
 1740SOL    HW2 6726   1.686   4.736   5.314  0.2123 -0.8721  0.4807
 1740SOL    HW3 6727   1.561   4.790   5.380 -1.1391  0.3674 -2.8947
 1740SOL    MW4 6728   1.607   4.723   5.348  0.0130 -0.4607  0.1840
 1741SOL     OW 6729   3.418   0.723   0.833 -0.7246  0.3854 -0.0797
 1741SOL    HW2 6730   3.420   0.810   0.794  0.4779  0.1203 -0.6471
 1741SOL    HW3 6731   3.325   0.706   0.850 -1.2247  0.7903 -2.1723
 1741SOL    MW4 6732   3.406   0.732   0.830 -0.6319  0.4038 -0.4306
 1742SOL     OW 6733   5.615   0.535   0.654 -0.4859 -0.4479  0.8262
 1742SOL    HW2 6734   5.559   0.556   0.729 -0.4519  0.0513  0.7100
 1742SOL    HW3 6735   5.657   0.452   0.679 -1.6314 -1.0923  0.7216
 1742SOL    MW4 6736   5.613   0.527   0.667 -0.6326 -0.4671  0.7970
 1743SOL     OW 6737   2.281   4.639   4.335 -0.0255 -0.2220 -0.7809
 1743SOL    HW2 6738   2.295   4.689   4.255  0.9463 -0.0604 -0.5217
 1743SOL    HW3 6739   2.305   4.549   4.311  1.0864 -0.0284 -0.4652
 1743SOL    MW4 6740   2.286   4.633   4.321  0.2494 -0.1752 -0.7050
 1744SOL     OW 6741   4.600   5.109   2.312 -0.2405 -0.0663  0.0660
 1744SOL    HW2 6742   4.547   5.126   2.390 -1.6377  1.1905 -1.0891
 1744SOL    HW3 6743   4.655   5.187   2.303  1.6116 -1.2021  1.0390
 1744SOL    MW4 6744   4.600   5.122   2.321 -0.1805 -0.0503  0.0420
 1745SOL     OW 6745   4.231   2.849   3.528  0.9923 -0.4195  0.0518
 1745SOL    HW2 6746   4.163   2.832   3.593 -0.0468  0.1000 -0.8711
 1745SOL    HW3 6747   4.218   2.940   3.502  1.6650 -0.4944 -0.5776
 1745SOL    MW4 6748   4.220   2.859   3.533  0.9439 -0.3608 -0.1530
 1746SOL     OW 6749   4.770   5.770   4.629  0.0602  0.0860 -0.1514
 1746SOL    HW2 6750   4.718   5.847   4.605  0.3690  0.8441  1.5338
 1746SOL    HW3 6751   4.742   5.749   4.718  3.0818  0.9496  1.1177
 1746SOL    MW4 6752   4.759   5.777   4.637  0.4996  0.3000  0.2384
 1747SOL     OW 6753   4.627   1.565   0.874 -0.3178  0.6396 -0.4630
 1747SOL    HW2 6754   4.589   1.652   0.862 -1.4673  0.4306  1.3453
 1747SOL    HW3 6755   4.558   1.505   0.846 -0.6438  0.2868  1.0230
 1747SOL    MW4 6756   4.613   1.569   0.869 -0.5125  0.5655 -0.0283
 1748SOL     OW 6757   5.958   2.928   3.562  0.1175 -0.3659  0.2696
 1748SOL    HW2 6758   5.963   2.868   3.637  0.1651  1.0076  1.4167
 1748SOL    HW3 6759   6.045   2.966   3.556  0.1162 -0.4688 -0.5140
 1748SOL    MW4 6760   5.970   2.925   3.571  0.1236 -0.1983  0.3175
 1749SOL     OW 6761   2.520   4.603   0.996 -0.2130  0.8684 -0.2771
 1749SOL    HW2 6762   2.514   4.586   0.902 -0.0030  0.5197 -0.2282
 1749SOL    HW3 6763   2.610   4.581   1.019  0.0481  1.9852 -0.1897
 1749SOL    MW4 6764   2.531   4.598   0.986 -0.1509  0.9698 -0.2591
 1750SOL     OW 6765   3.572   1.803   3.560  0.2735 -0.4854  0.3637
 1750SOL    HW2 6766   3.487   1.845   3.567  0.3477 -0.6008  2.8139
 1750SOL    HW3 6767   3.555   1.719   3.517 -0.5588  0.1236 -0.5424
 1750SOL    MW4 6768   3.559   1.798   3.555  0.1735 -0.4203  0.5674
 1751SOL     OW 6769   5.982   1.014   1.413 -0.3724 -0.0106  0.3230
 1751SOL    HW2 6770   5.960   1.064   1.334  1.6094  0.5326  0.0515
 1751SOL    HW3 6771   5.912   0.949   1.421 -1.1861  0.6184 -1.2693
 1751SOL    MW4 6772   5.970   1.012   1.403 -0.2183  0.1441  0.0771
 1752SOL     OW 6773   2.258   1.005   4.974 -0.0434 -0.4967  0.6747
 1752SOL    HW2 6774   2.205   0.937   4.933 -0.2378 -0.2438  0.4987
 1752SOL    HW3 6775   2.200   1.045   5.039 -0.4359  0.4708 -0.2273
 1752SOL    MW4 6776   2.243   1.002   4.977 -0.1209 -0.3356  0.5324
 1753SOL     OW 6777   2.994   1.168   1.976 -0.3531  0.2052  0.0103
 1753SOL    HW2 6778   3.039   1.084   1.985  1.9347  1.5431  2.4997
 1753SOL    HW3 6779   2.929   1.168   2.046 -0.0019  0.6785  0.3412
 1753SOL    MW4 6780   2.992   1.157   1.986 -0.0050  0.4441  0.3824
 1754SOL     OW 6781   3.528   1.607   0.058  0.0471 -0.3543 -0.4655
 1754SOL    HW2 6782   3.591   1.675   0.081 -2.0214  1.6352 -0.3034
 1754SOL    HW3 6783   3.525   1.608  -0.038 -2.5667  2.5381 -0.5210
 1754SOL    MW4 6784   3.536   1.616   0.048 -0.5706  0.2898 -0.4514
 1755SOL     OW 6785   5.839   1.447   6.352 -0.1380 -0.3283  0.1278
 1755SOL    HW2 6786   5.924   1.468   6.315 -0.2613  0.6059  0.3378
 1755SOL    HW3 6787   5.822   1.519   6.414 -1.6387  0.2082 -0.8494
 1755SOL    MW4 6788   5.848   1.460   6.356 -0.3523 -0.1342  0.0266
 1756SOL     OW 6789   5.419   3.933   2.572  0.0967  0.1768 -0.2737
 1756SOL    HW2 6790   5.450   3.882   2.647  0.6859 -0.7866 -1.1342
 1756SOL    HW3 6791   5.499   3.959   2.527 -0.2261  1.3872 -0.1769
 1756SOL    MW4 6792   5.433   3.930   2.576  0.1318  0.2094 -0.3744
 1757SOL     OW 6793   5.329   3.445   6.114 -0.4456  0.1356 -0.0416
 1757SOL    HW2 6794   5.377   3.459   6.196 -1.3735  1.4688  0.3072
 1757SOL    HW3 6795   5.396   3.448   6.046  0.4568 -1.7785  0.6777
 1757SOL    MW4 6796   5.344   3.447   6.116 -0.4490  0.0590  0.0993
 1758SOL     OW 6797   6.010   5.150   6.146  0.0153 -0.3031 -0.7325
 1758SOL    HW2 6798   6.077   5.116   6.086  0.1539 -0.3563 -0.5487
 1758SOL    HW3 6799   6.050   5.143   6.233  0.2803  0.8727 -0.7357
 1758SOL    MW4 6800   6.024   5.145   6.149  0.0685 -0.1550 -0.7087
 1759SOL     OW 6801   2.483   3.174   3.340 -0.0342 -0.0976 -0.1956
 1759SOL    HW2 6802   2.457   3.140   3.425 -0.4647  1.3727  0.2982
 1759SOL    HW3 6803   2.449   3.111   3.277  0.8977 -1.5805  0.7212
 1759SOL    MW4 6804   2.475   3.161   3.343  0.0320 -0.0993 -0.0095
 1760SOL     OW 6805   4.842   2.555   6.141 -0.0436  0.3855 -0.1033
 1760SOL    HW2 6806   4.767   2.545   6.200  1.3946 -0.1955  1.6966
 1760SOL    HW3 6807   4.850   2.470   6.098 -1.0810  0.8041 -1.1848
 1760SOL    MW4 6808   4.833   2.543   6.143  0.0093  0.3641 -0.0085
 1761SOL     OW 6809   1.998   3.457   3.025  0.1534 -0.2364 -0.6488
 1761SOL    HW2 6810   1.950   3.539   3.015 -0.0489 -0.5430 -2.6967
 1761SOL    HW3 6811   2.082   3.473   2.983  0.2629 -0.9456 -0.7196
 1761SOL    MW4 6812   2.003   3.470   3.018  0.1412 -0.3704 -0.9283
 1762SOL     OW 6813   4.492   2.901   3.031 -0.5479  0.1524  0.3231
 1762SOL    HW2 6814   4.569   2.873   3.080  0.8045  0.3797 -1.5608
 1762SOL    HW3 6815   4.423   2.839   3.055  1.1028 -2.0066 -0.3038
 1762SOL    MW4 6816   4.493   2.889   3.041 -0.1517 -0.1024 -0.0082
 1763SOL     OW 6817   0.052   4.391   0.663  0.5817 -0.2618 -0.0105
 1763SOL    HW2 6818  -0.015   4.350   0.609  1.3635 -3.5859  1.3018
 1763SOL    HW3 6819   0.135   4.365   0.623  1.1678  1.6781 -0.1620
 1763SOL    MW4 6820   0.054   4.382   0.651  0.7622 -0.4444  0.1426
 1764SOL     OW 6821   2.134   2.815   1.024 -0.2974 -0.1000  0.3597
 1764SOL    HW2 6822   2.100   2.729   0.999  0.3199 -0.3436  0.3381
 1764SOL    HW3 6823   2.228   2.811   1.003 -0.0756  0.2367  1.2610
 1764SOL    MW4 6824   2.142   2.803   1.018 -0.1867 -0.0877  0.4758
 1765SOL     OW 6825   5.485   1.656   1.294  0.2089 -0.2346  0.1031
 1765SOL    HW2 6826   5.429   1.682   1.221  0.4181 -3.4210 -1.3124
 1765SOL    HW3 6827   5.567   1.704   1.279  0.1143 -0.5350 -1.5502
 1765SOL    MW4 6828   5.489   1.666   1.283  0.2240 -0.6946 -0.3018
 1766SOL     OW 6829   6.379   1.810   5.468 -0.0963  0.2017 -0.4769
 1766SOL    HW2 6830   6.431   1.795   5.546 -1.0896  0.3815  0.2383
 1766SOL    HW3 6831   6.376   1.725   5.424  3.7830  0.8769 -2.4995
 1766SOL    MW4 6832   6.385   1.797   5.472  0.2844  0.3145 -0.6494
 1767SOL     OW 6833   0.903   3.389   4.119  0.4079  0.3925  0.2363
 1767SOL    HW2 6834   0.824   3.413   4.070  0.6274  1.8839  0.5525
 1767SOL    HW3 6835   0.872   3.376   4.209  0.3020 -0.4640  0.0800
 1767SOL    MW4 6836   0.888   3.390   4.124  0.4229  0.4763  0.2574
 1768SOL     OW 6837   0.225   6.048   5.303 -0.1232 -0.3352 -0.4618
 1768SOL    HW2 6838   0.160   5.979   5.288 -1.7177  0.5423  1.8034
 1768SOL    HW3 6839   0.173   6.123   5.331  1.8173  0.5864  0.8765
 1768SOL    MW4 6840   0.209   6.048   5.305 -0.0776 -0.0978  0.0136
 1769SOL     OW 6841   0.016   0.557   4.552 -0.2770  0.3836 -0.0848
 1769SOL    HW2 6842  -0.044   0.523   4.485  0.6707  0.2516 -0.8950
 1769SOL    HW3 6843   0.053   0.478   4.593  0.0748  0.4393 -0.2814
 1769SOL    MW4 6844   0.013   0.542   4.549 -0.1056  0.3735 -0.2176
 1770SOL     OW 6845   1.900   2.492   3.394  0.2415 -0.8636 -0.3134
 1770SOL    HW2 6846   1.986   2.467   3.427  0.4300 -0.7991 -0.7518
 1770SOL    HW3 6847   1.909   2.584   3.369  0.0796 -0.8905 -0.4724
 1770SOL    MW4 6848   1.912   2.501   3.395  0.2450 -0.8586 -0.3922
 1771SOL     OW 6849   5.081   3.976   2.570 -0.4154  0.0466  0.4207
 1771SOL    HW2 6850   5.156   4.033   2.555 -0.8176  0.1930 -1.2516
 1771SOL    HW3 6851   5.032   4.019   2.641 -1.0538  2.2056 -1.2058
 1771SOL    MW4 6852   5.084   3.989   2.578 -0.5527  0.3508 -0.0146
 1772SOL     OW 6853   0.322   0.539   3.255  0.0376  0.6531 -0.0209
 1772SOL    HW2 6854   0.372   0.616   3.282 -0.1215  0.8288 -0.2172
 1772SOL    HW3 6855   0.358   0.517   3.169  0.4679  0.1640  0.2837
 1772SOL    MW4 6856   0.333   0.547   3.247  0.0734  0.6118 -0.0066
 1773SOL     OW 6857   1.395   0.811   5.299  0.3182 -0.1637 -0.3200
 1773SOL    HW2 6858   1.452   0.787   5.226  2.1143 -0.8304  1.2108
 1773SOL    HW3 6859   1.370   0.901   5.282 -0.0800 -0.5855 -2.2042
 1773SOL    MW4 6860   1.399   0.820   5.287  0.5026 -0.3073 -0.3666
 1774SOL     OW 6861   1.246   5.130   4.308  0.7443  0.3206 -0.0959
 1774SOL    HW2 6862   1.330   5.176   4.306 -0.1201  2.0086  0.7012
 1774SOL    HW3 6863   1.188   5.187   4.359 -0.0698 -2.2407  2.0459
 1774SOL    MW4 6864   1.249   5.144   4.314  0.5229  0.2054  0.2918
 1775SOL     OW 6865   4.990   0.071   5.181 -0.4835 -0.3249  0.8428
 1775SOL    HW2 6866   4.968   0.164   5.177  1.2527  0.0936  0.3798
 1775SOL    HW3 6867   5.079   0.065   5.146 -1.4697 -2.4975 -1.7042
 1775SOL    MW4 6868   4.999   0.082   5.176 -0.3845 -0.5564  0.4457
 1776SOL     OW 6869   1.301   4.303   0.711  0.6090  0.0926  0.1027
 1776SOL    HW2 6870   1.276   4.296   0.618  1.4601 -1.8963 -0.0363
 1776SOL    HW3 6871   1.254   4.380   0.743 -0.6026  0.1682 -1.7011
 1776SOL    MW4 6872   1.291   4.312   0.703  0.5614 -0.1598 -0.1537
 1777SOL     OW 6873   2.458   0.339   4.438 -0.5803 -0.0657  1.0631
 1777SOL    HW2 6874   2.442   0.427   4.404 -0.3551 -0.3992  0.0756
 1777SOL    HW3 6875   2.418   0.281   4.374  0.2123 -0.7309  1.1579
 1777SOL    MW4 6876   2.450   0.343   4.425 -0.4460 -0.1975  0.9453
 1778SOL     OW 6877   3.012   0.637   2.936 -0.4942  0.1205  0.1850
 1778SOL    HW2 6878   3.076   0.575   2.970  0.0412  0.5429 -0.0378
 1778SOL    HW3 6879   2.935   0.583   2.915 -0.3088 -0.3506  0.6980
 1778SOL    MW4 6880   3.011   0.622   2.937 -0.3991  0.1141  0.2233
 1779SOL     OW 6881   0.350   3.951   3.964  0.2933 -0.3643  0.0601
 1779SOL    HW2 6882   0.312   4.001   3.892  1.1858  0.6874  0.2873
 1779SOL    HW3 6883   0.435   3.921   3.930  0.9948  0.6466  0.8349
 1779SOL    MW4 6884   0.356   3.954   3.950  0.5036 -0.0922  0.1923
 1780SOL     OW 6885   0.115   4.170   3.172 -0.2843  0.3566 -0.1655
 1780SOL    HW2 6886   0.047   4.130   3.226  0.3553  1.0607  1.2111
 1780SOL    HW3 6887   0.075   4.178   3.086 -1.0241 -1.6548 -0.0723
 1780SOL    MW4 6888   0.101   4.166   3.168 -0.2976  0.1841  0.0285
 1781SOL     OW 6889   5.492   3.116   1.524  0.4339  0.4197 -0.5968
 1781SOL    HW2 6890   5.562   3.159   1.476 -0.2356  1.4885 -0.6563
 1781SOL    HW3 6891   5.435   3.079   1.457  0.1068  0.9284 -0.6079
 1781SOL    MW4 6892   5.494   3.117   1.509  0.3024  0.6278 -0.6061
 1782SOL     OW 6893   3.443   0.358   1.989 -0.2358  0.1439 -0.1277
 1782SOL    HW2 6894   3.470   0.267   1.980  0.8504  0.5734 -1.4889
 1782SOL    HW3 6895   3.353   0.360   1.956 -0.4011 -0.5023  0.2788
 1782SOL    MW4 6896   3.435   0.347   1.984 -0.1143  0.1153 -0.2537
 1783SOL     OW 6897   5.516   5.256   6.395 -0.4600 -0.1981  0.1536
 1783SOL    HW2 6898   5.458   5.237   6.468  0.1428  0.0478  0.7157
 1783SOL    HW3 6899   5.570   5.178   6.385 -1.4922 -0.7916 -0.9772
 1783SOL    MW4 6900   5.516   5.243   6.403 -0.5167 -0.2440  0.0786
 1784SOL     OW 6901   1.932   3.789   5.500  0.1344  0.2722  0.0832
 1784SOL    HW2 6902   1.942   3.868   5.552  1.2896  0.9814 -1.1432
 1784SOL    HW3 6903   1.848   3.752   5.527  1.0188  0.1466  3.0067
 1784SOL    MW4 6904   1.922   3.794   5.510  0.4035  0.3492  0.3071
 1785SOL     OW 6905   0.746   0.709   5.506 -0.1729  0.1078  0.2134
 1785SOL    HW2 6906   0.754   0.614   5.512 -0.1084  0.1530  0.8640
 1785SOL    HW3 6907   0.721   0.725   5.415 -0.5358 -0.5531  0.1905
 1785SOL    MW4 6908   0.744   0.699   5.495 -0.2123  0.0266  0.2962
 1786SOL     OW 6909   3.618   5.239   4.578 -0.3593  0.1032  0.5923
 1786SOL    HW2 6910   3.549   5.221   4.641 -0.9691  0.2057 -0.0359
 1786SOL    HW3 6911   3.662   5.155   4.565  1.0859  0.4672  2.6472
 1786SOL    MW4 6912   3.615   5.225   4.585 -0.2490  0.1648  0.7805
 1787SOL     OW 6913   4.499   3.223   4.400 -0.0097 -0.4388  0.1410
 1787SOL    HW2 6914   4.574   3.198   4.346  0.2904  1.0157 -0.1642
 1787SOL    HW3 6915   4.429   3.165   4.372  0.3840 -0.3078 -1.2061
 1787SOL    MW4 6916   4.500   3.212   4.389  0.0818 -0.2296 -0.0770
 1788SOL     OW 6917   5.610   1.067   5.627  0.1276 -0.1104 -0.1377
 1788SOL    HW2 6918   5.591   1.078   5.533  2.3647  1.1221 -0.5313
 1788SOL    HW3 6919   5.607   0.973   5.641 -1.1531 -0.2592 -1.2282
 1788SOL    MW4 6920   5.607   1.056   5.616  0.2538  0.0326 -0.3335
 1789SOL     OW 6921   1.738   5.511   5.164  0.1501  0.2045 -0.3757
 1789SOL    HW2 6922   1.687   5.533   5.241  0.1634  0.1035 -0.3373
 1789SOL    HW3 6923   1.817   5.469   5.198 -1.2250 -2.7650 -0.4918
 1789SOL    MW4 6924   1.741   5.508   5.178 -0.0296 -0.2006 -0.3860
 1790SOL     OW 6925   0.155   2.514   2.040  0.4407  0.4272  0.1907
 1790SOL    HW2 6926   0.159   2.544   1.949 -0.6562  0.5887  0.1792
 1790SOL    HW3 6927   0.140   2.419   2.033  0.9543  0.3429  0.2102
 1790SOL    MW4 6928   0.153   2.505   2.027  0.3637  0.4374  0.1918
 1791SOL     OW 6929   5.233   6.194   4.166  0.0882  0.0203 -0.0757
 1791SOL    HW2 6930   5.201   6.233   4.085 -1.5335  3.2500  1.8959
 1791SOL    HW3 6931   5.154   6.163   4.211  0.8260 -0.6853  0.7726
 1791SOL    MW4 6932   5.218   6.195   4.161 -0.0284  0.3533  0.2963
 1792SOL     OW 6933   0.299   4.401   0.531 -0.6940 -0.0999  0.3676
 1792SOL    HW2 6934   0.380   4.352   0.515 -0.1470  1.3805 -1.9904
 1792SOL    HW3 6935   0.328   4.482   0.574 -1.3460 -0.8734  2.3603
 1792SOL    MW4 6936   0.314   4.405   0.535 -0.7079 -0.0066  0.3194
 1793SOL     OW 6937   5.786   5.916   3.618 -0.2879  0.4849 -0.5150
 1793SOL    HW2 6938   5.698   5.952   3.613 -1.3706 -1.9410 -0.6908
 1793SOL    HW3 6939   5.789   5.852   3.546  1.5565  0.3916 -0.3972
 1793SOL    MW4 6940   5.775   5.912   3.608 -0.1874  0.1525 -0.5226
 1794SOL     OW 6941   4.245   1.928   3.017 -0.8060  0.3262 -0.1470
 1794SOL    HW2 6942   4.248   1.897   2.926 -1.5427  1.9114 -0.7410
 1794SOL    HW3 6943   4.154   1.917   3.043 -0.8807  1.0856 -0.0610
 1794SOL    MW4 6944   4.234   1.923   3.008 -0.9130  0.6356 -0.2141
 1795SOL     OW 6945   6.130   1.385   3.013  0.2897  0.3505 -0.3031
 1795SOL    HW2 6946   6.076   1.327   3.068  0.8691 -1.2012 -1.3238
 1795SOL    HW3 6947   6.212   1.338   3.001  1.7388  2.4217  0.7485
 1795SOL    MW4 6948   6.133   1.371   3.019  0.5573  0.4191 -0.2990
 1796SOL     OW 6949   3.026   2.405   1.148  0.3289 -0.3641  0.4666
 1796SOL    HW2 6950   2.972   2.461   1.092  0.8973  0.3804  0.6539
 1796SOL    HW3 6951   3.038   2.325   1.097 -0.3227 -0.2459  0.1132
 1796SOL    MW4 6952   3.021   2.401   1.134  0.3179 -0.2502  0.4447
 1797SOL     OW 6953   0.315   0.439   1.794  0.4893  0.2158 -0.6458
 1797SOL    HW2 6954   0.407   0.414   1.793  0.1625 -1.1323  0.2191
 1797SOL    HW3 6955   0.306   0.495   1.871  0.8288  1.4531 -1.4790
 1797SOL    MW4 6956   0.326   0.443   1.804  0.4910  0.2012 -0.6416
 1798SOL     OW 6957   1.264   5.001   2.286 -0.0065 -0.6093  0.0242
 1798SOL    HW2 6958   1.324   4.926   2.285  0.1274 -0.5556  1.5399
 1798SOL    HW3 6959   1.318   5.075   2.257  0.4548 -0.7203  0.5670
 1798SOL    MW4 6960   1.279   5.001   2.282  0.0720 -0.6169  0.2958
 1799SOL     OW 6961   4.474   2.605   4.448  0.0997 -0.0282 -0.1668
 1799SOL    HW2 6962   4.421   2.556   4.510 -0.3615  2.1518  1.2876
 1799SOL    HW3 6963   4.565   2.588   4.475 -0.0370 -0.4829  0.0015
 1799SOL    MW4 6964   4.479   2.597   4.460  0.0208  0.1995  0.0473
 1800SOL     OW 6965   3.548   1.211   4.427  0.0320  0.1407  0.3073
 1800SOL    HW2 6966   3.523   1.152   4.499  0.8837  0.0233  0.5119
 1800SOL    HW3 6967   3.641   1.226   4.440 -0.0544  1.0504 -0.1041
 1800SOL    MW4 6968   3.557   1.205   4.438  0.1329  0.2453  0.2800
 1801SOL     OW 6969   5.588   5.628   4.138 -0.5564  0.1676 -0.1114
 1801SOL    HW2 6970   5.544   5.592   4.215 -1.6393  0.7016 -0.4593
 1801SOL    HW3 6971   5.637   5.555   4.101 -0.1844 -0.1439  0.9595
 1801SOL    MW4 6972   5.589   5.614   4.143 -0.6502  0.1969 -0.0160
 1802SOL     OW 6973   4.275   6.339   0.972  0.0502  0.1877 -0.4116
 1802SOL    HW2 6974   4.267   6.395   1.049 -1.0893  0.3977 -0.6685
 1802SOL    HW3 6975   4.307   6.396   0.903  0.1298  0.2277 -0.3411
 1802SOL    MW4 6976   4.278   6.354   0.973 -0.0896  0.2207 -0.4362
 1803SOL     OW 6977   5.109   4.491   3.171 -0.0612  0.0933  0.3709
 1803SOL    HW2 6978   5.158   4.438   3.108 -2.7777 -2.4004  0.1288
 1803SOL    HW3 6979   5.136   4.457   3.256  1.5322  1.5528  0.5088
 1803SOL    MW4 6980   5.119   4.479   3.174 -0.2094 -0.0431  0.3572
 1804SOL     OW 6981   1.545   2.639   3.106  0.5610  0.2334 -0.0547
 1804SOL    HW2 6982   1.474   2.625   3.044  1.4493  1.8939 -1.5394
 1804SOL    HW3 6983   1.528   2.577   3.177 -1.9067  0.0417 -0.7254
 1804SOL    MW4 6984   1.534   2.629   3.107  0.3526  0.4272 -0.3391
 1805SOL     OW 6985   4.088   1.395   5.425  0.1219 -0.1598  0.1032
 1805SOL    HW2 6986   4.094   1.397   5.330  0.9937 -1.3209  0.1160
 1805SOL    HW3 6987   4.023   1.327   5.444  0.5392 -0.5024  0.3365
 1805SOL    MW4 6988   4.081   1.386   5.415  0.2920 -0.3582  0.1357
 1806SOL     OW 6989   5.006   4.900   6.340  0.3851 -0.1762 -0.0566
 1806SOL    HW2 6990   5.014   4.957   6.416  0.4333 -0.5319  0.2068
 1806SOL    HW3 6991   4.912   4.880   6.334  0.2869  0.3584 -0.4719
 1806SOL    MW4 6992   4.995   4.905   6.349  0.3785 -0.1526 -0.0767
 1807SOL     OW 6993   0.507   0.848   0.165 -0.0885 -0.6289 -0.2584
 1807SOL    HW2 6994   0.602   0.844   0.159  0.0646  1.6593 -0.0982
 1807SOL    HW3 6995   0.488   0.852   0.259 -0.3359 -0.7809 -0.2987
 1807SOL    MW4 6996   0.517   0.848   0.177 -0.1010 -0.3471 -0.2426
 1808SOL     OW 6997   3.575   6.206   5.672 -0.8418  0.4218  0.7094
 1808SOL    HW2 6998   3.580   6.153   5.751 -0.0793 -0.4890  0.0694
 1808SOL    HW3 6999   3.485   6.193   5.639 -1.8191  2.3062  2.3957
 1808SOL    MW4 7000   3.563   6.198   5.678 -0.8701  0.5502  0.8475
 1809SOL     OW 7001   4.036   5.625   6.253  0.2138  0.1712  0.0584
 1809SOL    HW2 7002   3.956   5.573   6.245  0.5678 -0.2552 -0.9248
 1809SOL    HW3 7003   4.009   5.714   6.233  0.0889 -0.0695 -0.8736
 1809SOL    MW4 7004   4.022   5.630   6.249  0.2440  0.0832 -0.1943
 1810SOL     OW 7005   1.817   2.339   2.088 -0.2862 -0.3721 -0.2533
 1810SOL    HW2 7006   1.771   2.315   2.008 -2.7691 -1.8488  1.4674
 1810SOL    HW3 7007   1.851   2.256   2.122 -0.7531 -0.0662  1.0233
 1810SOL    MW4 7008   1.815   2.325   2.082 -0.6754 -0.5266  0.1422
 1811SOL     OW 7009   4.185   4.829   3.233  0.0139  0.5503 -0.3891
 1811SOL    HW2 7010   4.132   4.832   3.313  0.7556 -2.2385  0.2946
 1811SOL    HW3 7011   4.125   4.798   3.166  0.5361 -2.0455  0.2596
 1811SOL    MW4 7012   4.170   4.826   3.235  0.1807 -0.1601 -0.2133
 1812SOL     OW 7013   0.999   3.896   2.878  0.0528  0.0790 -0.4071
 1812SOL    HW2 7014   1.048   3.845   2.942 -0.6259  0.9308  0.8235
 1812SOL    HW3 7015   0.997   3.841   2.800  0.6464 -1.1069  0.3889
 1812SOL    MW4 7016   1.005   3.882   2.876  0.0416  0.0349 -0.1397
 1813SOL     OW 7017   4.398   6.070   4.687 -0.7935 -0.0221  0.1641
 1813SOL    HW2 7018   4.392   6.162   4.665 -2.2657 -0.1379  0.0352
 1813SOL    HW3 7019   4.492   6.051   4.684 -0.5875  1.1032 -1.2741
 1813SOL    MW4 7020   4.410   6.079   4.684 -0.9606  0.1111 -0.0427
 1814SOL     OW 7021   5.648   6.014   0.346 -0.4499  0.2353 -0.4712
 1814SOL    HW2 7022   5.620   5.975   0.430 -0.7260 -0.5753 -0.9280
 1814SOL    HW3 7023   5.618   5.952   0.280  0.0318  0.7235 -1.1578
 1814SOL    MW4 7024   5.640   6.000   0.349 -0.4228  0.1927 -0.6221
 1815SOL     OW 7025   0.252   2.385   0.658 -0.4119  0.4852 -0.1856
 1815SOL    HW2 7026   0.299   2.309   0.693  1.1528  0.8276 -1.4108
 1815SOL    HW3 7027   0.314   2.457   0.665 -1.2940  1.2976 -0.5180
 1815SOL    MW4 7028   0.266   2.385   0.663 -0.3218  0.6375 -0.3911
 1816SOL     OW 7029   0.915   2.499   2.172  0.3870  0.2228 -0.4781
 1816SOL    HW2 7030   0.836   2.467   2.130  0.6184  0.4889 -1.1289
 1816SOL    HW3 7031   0.946   2.425   2.225 -0.1130  0.0107 -0.4826
 1816SOL    MW4 7032   0.909   2.485   2.173  0.3516  0.2299 -0.5645
 1817SOL     OW 7033   0.145   5.067   3.302  0.2684  0.5116 -0.4025
 1817SOL    HW2 7034   0.208   5.072   3.374  0.3857  1.1780 -0.5443
 1817SOL    HW3 7035   0.155   4.979   3.267 -0.1793 -0.0127  0.7470
 1817SOL    MW4 7036   0.155   5.056   3.307  0.2248  0.5303 -0.2696
 1818SOL     OW 7037   1.184   3.816   0.560  0.1905 -0.7379 -0.4206
 1818SOL    HW2 7038   1.265   3.845   0.602  0.5336 -0.3003 -1.3564
 1818SOL    HW3 7039   1.213   3.772   0.480 -0.4828 -0.8284 -0.6208
 1818SOL    MW4 7040   1.198   3.814   0.555  0.1470 -0.6921 -0.5705
 1819SOL     OW 7041   0.091   2.236   2.061 -0.3211  0.0743 -0.4277
 1819SOL    HW2 7042   0.101   2.179   1.985  0.2174 -1.2263  0.5916
 1819SOL    HW3 7043   0.020   2.197   2.112  0.2692  0.1074  0.4408
 1819SOL    MW4 7044   0.083   2.224   2.058 -0.1721 -0.0930 -0.1786
 1820SOL     OW 7045   1.380   0.127   4.112  0.0134 -0.0676  0.7293
 1820SOL    HW2 7046   1.302   0.156   4.066  0.7392  1.6873  0.5295
 1820SOL    HW3 7047   1.439   0.203   4.111  0.9231 -0.6645  2.6348
 1820SOL    MW4 7048   1.378   0.141   4.106  0.2292  0.0852  0.9543
 1821SOL     OW 7049   4.539   4.751   4.596 -0.1071 -0.1950 -0.1894
 1821SOL    HW2 7050   4.574   4.799   4.521 -2.1571  1.7610 -0.0181
 1821SOL    HW3 7051   4.553   4.659   4.575  0.8140  0.3621 -2.2213
 1821SOL    MW4 7052   4.545   4.745   4.584 -0.2560  0.1366 -0.4349
 1822SOL     OW 7053   2.973   3.758   4.520  0.9278 -0.1455 -0.3581
 1822SOL    HW2 7054   2.946   3.849   4.510 -0.0133 -0.3402  0.3105
 1822SOL    HW3 7055   2.984   3.726   4.430  0.3309  0.3485 -0.6093
 1822SOL    MW4 7056   2.971   3.765   4.506  0.7249 -0.1060 -0.3030
 1823SOL     OW 7057   6.402   5.024   5.590 -0.4721  0.1707  0.0494
 1823SOL    HW2 7058   6.412   4.947   5.646 -1.7164  0.2790  0.4635
 1823SOL    HW3 7059   6.438   4.997   5.505 -0.2538 -0.6250  0.3836
 1823SOL    MW4 7060   6.408   5.010   5.586 -0.6074  0.0800  0.1481
 1824SOL     OW 7061   0.533   2.060   1.650 -0.4271  0.6589 -0.4285
 1824SOL    HW2 7062   0.622   2.095   1.654 -0.3503  0.4607 -0.3995
 1824SOL    HW3 7063   0.479   2.129   1.688 -0.2402  0.6232 -0.0868
 1824SOL    MW4 7064   0.538   2.074   1.656 -0.3923  0.6280 -0.3796
 1825SOL     OW 7065   3.532   1.564   3.180  0.7819  0.7804  0.9769
 1825SOL    HW2 7066   3.511   1.472   3.162 -1.5626  0.9880  2.2170
 1825SOL    HW3 7067   3.556   1.566   3.273 -0.0482  1.5164  1.1919
 1825SOL    MW4 7068   3.532   1.552   3.190  0.3631  0.9049  1.1689
 1826SOL     OW 7069   4.996   5.585   5.909  0.0741 -0.3012 -0.0934
 1826SOL    HW2 7070   5.067   5.638   5.945  1.5158 -1.7138 -0.7021
 1826SOL    HW3 7071   4.981   5.517   5.975 -2.2122  1.1344  0.9895
 1826SOL    MW4 7072   5.004   5.583   5.923 -0.0373 -0.2981 -0.0308
 1827SOL     OW 7073   1.602   1.438   5.479 -0.6190  0.1175  0.4414
 1827SOL    HW2 7074   1.685   1.481   5.500 -0.0121  0.9101 -3.0918
 1827SOL    HW3 7075   1.541   1.510   5.462 -0.6332 -0.3656 -1.7753
 1827SOL    MW4 7076   1.605   1.453   5.480 -0.5408  0.1584 -0.3172
 1828SOL     OW 7077   1.086   1.855   3.411  0.3134 -0.7519 -0.6568
 1828SOL    HW2 7078   1.161   1.880   3.465 -0.9300  2.3200 -0.1503
 1828SOL    HW3 7079   1.037   1.794   3.466  1.6646 -1.6641 -0.4236
 1828SOL    MW4 7080   1.089   1.850   3.426  0.3276 -0.4670 -0.5592
 1829SOL     OW 7081   5.028   4.639   2.946  0.3975 -0.6468 -0.9735
 1829SOL    HW2 7082   5.100   4.701   2.959  1.1184 -1.3006 -1.7525
 1829SOL    HW3 7083   5.040   4.574   3.015 -1.5140  1.0525  1.1254
 1829SOL    MW4 7084   5.039   4.639   2.957  0.2404 -0.5088 -0.7993
 1830SOL     OW 7085   4.760   2.585   5.784  0.6019  0.3565  0.3231
 1830SOL    HW2 7086   4.811   2.542   5.853  0.3486  0.5071  0.6062
 1830SOL    HW3 7087   4.694   2.636   5.831 -1.5406 -1.8957 -0.0036
 1830SOL    MW4 7088   4.758   2.586   5.800  0.2858  0.0792  0.3174
 1831SOL     OW 7089   1.772   6.110   3.717 -0.2249 -0.1919 -0.1017
 1831SOL    HW2 7090   1.792   6.143   3.804  1.8185 -1.6343  0.0372
 1831SOL    HW3 7091   1.735   6.023   3.733 -1.1186  0.0700 -0.6514
 1831SOL    MW4 7092   1.769   6.103   3.730 -0.0732 -0.3476 -0.1559
 1832SOL     OW 7093   2.972   5.369   5.291 -0.4644  0.3681 -0.0283
 1832SOL    HW2 7094   2.935   5.455   5.271  0.5187  0.7582 -0.2647
 1832SOL    HW3 7095   3.065   5.387   5.306 -0.2678 -0.6503  0.0067
 1832SOL    MW4 7096   2.980   5.383   5.291 -0.3088  0.2852 -0.0549
 1833SOL     OW 7097   4.777   5.296   5.155 -0.1941 -0.2718  0.0112
 1833SOL    HW2 7098   4.689   5.268   5.128 -0.8304  1.7855 -0.2255
 1833SOL    HW3 7099   4.828   5.292   5.074  0.0606 -1.8221  0.2208
 1833SOL    MW4 7100   4.772   5.292   5.141 -0.2445 -0.2049  0.0076
 1834SOL     OW 7101   1.923   1.145   2.612 -0.0557  0.2425  0.1645
 1834SOL    HW2 7102   1.892   1.092   2.685  0.8165  0.2516  0.5463
 1834SOL    HW3 7103   1.982   1.088   2.564 -0.4585  0.3068 -0.4245
 1834SOL    MW4 7104   1.926   1.131   2.615  0.0063  0.2522  0.1371
 1835SOL     OW 7105   1.215   4.486   4.109  0.3535  0.2073 -0.0337
 1835SOL    HW2 7106   1.223   4.491   4.013 -0.6950  0.6630 -0.1149
 1835SOL    HW3 7107   1.122   4.467   4.124  0.8336 -1.7292  0.8539
 1835SOL    MW4 7108   1.204   4.484   4.098  0.2785  0.0119  0.0727
 1836SOL     OW 7109   2.128   3.588   2.211 -0.0072  0.3486 -0.3316
 1836SOL    HW2 7110   2.096   3.674   2.238  0.5274  0.1264  1.0891
 1836SOL    HW3 7111   2.211   3.577   2.259 -0.2030 -1.0614 -0.2788
 1836SOL    MW4 7112   2.135   3.598   2.221  0.0375  0.1332 -0.1372
 1837SOL     OW 7113   0.017   6.036   3.870 -0.2115  0.3184 -0.1717
 1837SOL    HW2 7114  -0.078   6.040   3.862 -0.0620  0.3884 -3.2029
 1837SOL    HW3 7115   0.048   6.119   3.834  1.0256 -0.7868 -1.8119
 1837SOL    MW4 7116   0.009   6.047   3.864 -0.0285  0.1819 -0.7880
 1838SOL     OW 7117   3.246   5.290   5.364  0.0521 -0.2958 -0.1133
 1838SOL    HW2 7118   3.223   5.208   5.408 -1.3896 -0.3529 -0.9140
 1838SOL    HW3 7119   3.301   5.264   5.291 -1.0118 -0.6609 -0.8113
 1838SOL    MW4 7120   3.250   5.276   5.360 -0.2785 -0.3515 -0.3111
 1839SOL     OW 7121   6.061   5.513   4.192  0.3102  0.2222 -0.3544
 1839SOL    HW2 7122   6.050   5.593   4.141 -0.4350 -0.9206 -2.0722
 1839SOL    HW3 7123   6.106   5.453   4.133 -0.6921 -1.1979  0.2578
 1839SOL    MW4 7124   6.065   5.516   4.177  0.0797 -0.1159 -0.5002
 1840SOL     OW 7125   6.396   3.348   0.118 -0.0643 -0.1714 -0.1714
 1840SOL    HW2 7126   6.399   3.314   0.028 -0.6314 -1.9284  0.4489
 1840SOL    HW3 7127   6.463   3.417   0.119  0.3458 -0.4982 -1.7805
 1840SOL    MW4 7128   6.405   3.353   0.106 -0.0850 -0.4463 -0.3019
 1841SOL     OW 7129   6.003   5.422   4.939  0.5839 -0.0190  0.1688
 1841SOL    HW2 7130   5.928   5.371   4.907  1.5278 -1.1807 -0.2760
 1841SOL    HW3 7131   6.074   5.399   4.879  0.8850  2.4466 -0.5521
 1841SOL    MW4 7132   6.002   5.412   4.927  0.7482  0.1530  0.0150
 1842SOL     OW 7133   2.280   0.822   5.698 -0.6380  0.3048  0.0728
 1842SOL    HW2 7134   2.348   0.841   5.633 -0.6934  1.6932  0.3847
 1842SOL    HW3 7135   2.323   0.768   5.763  0.0376  0.7409 -0.0003
 1842SOL    MW4 7136   2.294   0.818   5.698 -0.5561  0.5456  0.1043
 1843SOL     OW 7137   3.970   2.768   5.207 -0.1947 -0.1122  0.5004
 1843SOL    HW2 7138   3.898   2.716   5.243  0.6179 -0.5151  1.6453
 1843SOL    HW3 7139   4.016   2.708   5.149 -1.3219  0.4404 -1.0067
 1843SOL    MW4 7140   3.967   2.753   5.204 -0.2362 -0.0924  0.4526
 1844SOL     OW 7141   1.953   2.094   0.465  0.4744  0.1953  0.3065
 1844SOL    HW2 7142   1.940   2.002   0.488  2.1660  0.0842  0.9527
 1844SOL    HW3 7143   1.886   2.112   0.400 -0.8064 -1.0966  1.1983
 1844SOL    MW4 7144   1.942   2.084   0.460  0.5286  0.0102  0.5094
 1845SOL     OW 7145   1.720   1.339   4.350  0.2028  0.2340  0.4444
 1845SOL    HW2 7146   1.697   1.250   4.379 -1.3478  0.1608 -0.8901
 1845SOL    HW3 7147   1.713   1.392   4.430 -0.8205 -0.4962  0.8636
 1845SOL    MW4 7148   1.716   1.334   4.365 -0.1368  0.1280  0.3236
 1846SOL     OW 7149   3.749   0.921   0.398 -0.4239 -0.3668 -0.0756
 1846SOL    HW2 7150   3.778   1.012   0.400  1.0138 -0.6807 -2.7317
 1846SOL    HW3 7151   3.812   0.875   0.453 -0.0354 -0.0243 -0.2240
 1846SOL    MW4 7152   3.761   0.927   0.406 -0.1829 -0.3630 -0.4457
 1847SOL     OW 7153   4.306   3.512   2.813  0.6235  0.7244 -0.1977
 1847SOL    HW2 7154   4.326   3.464   2.893 -1.2637 -0.1658 -0.1972
 1847SOL    HW3 7155   4.392   3.534   2.776  1.5312  0.0695  1.4064
 1847SOL    MW4 7156   4.320   3.509   2.819  0.4943  0.5206  0.0140
 1848SOL     OW 7157   1.847   6.074   2.262  0.3894  0.2927 -0.3394
 1848SOL    HW2 7158   1.781   6.124   2.310 -0.4556  0.3048 -1.4798
 1848SOL    HW3 7159   1.927   6.125   2.272  0.4259 -0.0543  1.6079
 1848SOL    MW4 7160   1.849   6.087   2.270  0.2827  0.2485 -0.2329
 1849SOL     OW 7161   0.596   4.972   3.394 -0.5930 -0.5531 -0.0461
 1849SOL    HW2 7162   0.656   4.959   3.468 -0.2308  0.4723 -0.1569
 1849SOL    HW3 7163   0.548   4.889   3.389  0.8221 -1.4188  0.0162
 1849SOL    MW4 7164   0.598   4.959   3.403 -0.3585 -0.5320 -0.0525
 1850SOL     OW 7165   5.306   5.830   0.885 -0.2611  0.1074  0.0453
 1850SOL    HW2 7166   5.252   5.843   0.963  0.0052  1.2561  0.0585
 1850SOL    HW3 7167   5.365   5.905   0.884  0.0792 -0.1552 -0.9940
 1850SOL    MW4 7168   5.306   5.841   0.895 -0.1811  0.2243 -0.0901
 1851SOL     OW 7169   3.932   6.332   4.771 -0.6323 -0.2943 -0.1792
 1851SOL    HW2 7170   3.877   6.257   4.751 -0.0750 -1.3599  1.8918
 1851SOL    HW3 7171   3.959   6.317   4.862  1.9839  0.8403 -0.6888
 1851SOL    MW4 7172   3.928   6.320   4.781 -0.2136 -0.2852  0.0268
 1852SOL     OW 7173   3.823   1.301   4.517  0.5004  0.6343  0.0379
 1852SOL    HW2 7174   3.827   1.393   4.546  2.7548  1.3867 -2.3437
 1852SOL    HW3 7175   3.847   1.303   4.425 -1.3118 -2.2077 -0.6305
 1852SOL    MW4 7176   3.826   1.314   4.509  0.5588  0.3586 -0.3645
 1853SOL     OW 7177   1.463   0.628   3.741  0.1175 -0.0850  0.1992
 1853SOL    HW2 7178   1.392   0.688   3.763  0.5876  0.0814  1.3211
 1853SOL    HW3 7179   1.419   0.546   3.719 -0.4450  0.1693  0.3507
 1853SOL    MW4 7180   1.448   0.625   3.741  0.1053 -0.0295  0.3672
 1854SOL     OW 7181   2.566   3.228   5.862 -0.2834 -0.1968 -0.0268
 1854SOL    HW2 7182   2.592   3.150   5.911  2.6594  0.3974 -0.4706
 1854SOL    HW3 7183   2.527   3.194   5.781 -2.2258 -1.1497  1.2283
 1854SOL    MW4 7184   2.564   3.213   5.858 -0.1514 -0.2441  0.0802
 1855SOL     OW 7185   0.867   6.195   3.022 -0.2803  0.4482  0.7244
 1855SOL    HW2 7186   0.858   6.284   2.987 -1.1352 -0.1244 -0.5950
 1855SOL    HW3 7187   0.852   6.138   2.946  1.5669 -0.8276  1.2508
 1855SOL    MW4 7188   0.864   6.199   3.007 -0.1494  0.2043  0.6198
 1856SOL     OW 7189   5.554   1.848   3.709 -0.1176  0.2761 -0.3091
 1856SOL    HW2 7190   5.535   1.821   3.799 -1.5863  2.4516  0.1128
 1856SOL    HW3 7191   5.649   1.860   3.708 -0.0539  0.0288  0.9007
 1856SOL    MW4 7192   5.564   1.846   3.721 -0.3030  0.5305 -0.0938
 1857SOL     OW 7193   1.993   3.979   2.090 -0.2832  0.2347 -0.2160
 1857SOL    HW2 7194   2.023   3.948   2.175  0.4064  0.9221 -0.2003
 1857SOL    HW3 7195   1.947   4.061   2.109 -2.0358 -0.6909 -0.2636
 1857SOL    MW4 7196   1.990   3.985   2.104 -0.4235  0.2033 -0.2202
 1858SOL     OW 7197   2.853   1.963   3.662  0.2653  0.4183  0.1704
 1858SOL    HW2 7198   2.809   1.993   3.582  1.6512  0.2467 -0.6815
 1858SOL    HW3 7199   2.877   2.043   3.708 -1.4229  0.5177  0.9526
 1858SOL    MW4 7200   2.850   1.977   3.657  0.2254  0.4088  0.1612
 1859SOL     OW 7201   0.591   0.188   1.084 -0.3653 -0.0582  0.0608
 1859SOL    HW2 7202   0.625   0.274   1.112 -1.0572  0.5324 -0.8600
 1859SOL    HW3 7203   0.620   0.128   1.152  1.4478  0.6312 -0.0496
 1859SOL    MW4 7204   0.599   0.192   1.097 -0.2173  0.1107 -0.0752
 1860SOL     OW 7205   5.292   3.676   5.497  0.0569  0.5043  0.7512
 1860SOL    HW2 7206   5.282   3.580   5.495  0.2782  0.4746 -1.4997
 1860SOL    HW3 7207   5.203   3.709   5.490 -0.0156  0.4709  1.4741
 1860SOL    MW4 7208   5.279   3.668   5.495  0.0765  0.4960  0.5496
 1861SOL     OW 7209   3.088   0.971   0.718 -0.0153  0.3408  0.1002
 1861SOL    HW2 7210   3.097   1.066   0.713 -0.3361  0.3897  0.4154
 1861SOL    HW3 7211   3.117   0.940   0.633  1.0983  0.6495  0.3450
 1861SOL    MW4 7212   3.093   0.980   0.706  0.0893  0.3880  0.1741
 1862SOL     OW 7213   5.364   0.458   2.678 -0.5992  0.0459  0.0876
 1862SOL    HW2 7214   5.276   0.448   2.641 -0.3613  0.5295 -0.6401
 1862SOL    HW3 7215   5.352   0.444   2.772 -1.5736  0.7343  0.0917
 1862SOL    MW4 7216   5.351   0.455   2.685 -0.6963  0.2006 -0.0079
 1863SOL     OW 7217   2.221   4.183   6.409  0.1413  0.5012 -0.0393
 1863SOL    HW2 7218   2.299   4.180   6.353  0.7187 -0.0722  0.7771
 1863SOL    HW3 7219   2.244   4.129   6.484 -1.1485  0.1066  0.0868
 1863SOL    MW4 7220   2.234   4.175   6.411  0.0473  0.3735  0.0850
 1864SOL     OW 7221   4.195   2.646   5.050 -1.0020  0.3201  0.0515
 1864SOL    HW2 7222   4.161   2.684   4.969 -0.7041  0.0381 -0.2057
 1864SOL    HW3 7223   4.280   2.689   5.062 -1.1642  0.5618  0.3615
 1864SOL    MW4 7224   4.202   2.657   5.041 -0.9841  0.3147  0.0585
 1865SOL     OW 7225   2.054   0.485   6.014  0.0453  0.1720  0.2649
 1865SOL    HW2 7226   2.062   0.500   5.919  1.0913  1.2994  0.5018
 1865SOL    HW3 7227   2.056   0.573   6.052  0.1411 -0.2942  1.3646
 1865SOL    MW4 7228   2.056   0.499   6.006  0.1960  0.2593  0.4412
 1866SOL     OW 7229   4.132   4.829   5.881 -0.6246 -0.5195 -0.1931
 1866SOL    HW2 7230   4.093   4.891   5.819 -0.4693 -0.3752 -0.1469
 1866SOL    HW3 7231   4.222   4.820   5.851 -1.0751 -2.0193 -1.2290
 1866SOL    MW4 7232   4.139   4.836   5.869 -0.6636 -0.6983 -0.3236
 1867SOL     OW 7233   5.812   4.173   6.297  0.5910  0.4480 -1.0381
 1867SOL    HW2 7234   5.793   4.136   6.211 -1.4278  1.2522 -0.9846
 1867SOL    HW3 7235   5.785   4.105   6.359 -0.6098  0.9228 -1.0077
 1867SOL    MW4 7236   5.806   4.159   6.294  0.1663  0.6168 -1.0270
 1868SOL     OW 7237   2.895   5.253   0.239 -0.4392  0.8005  0.0530
 1868SOL    HW2 7238   2.833   5.193   0.198  0.2848 -0.6340  0.9670
 1868SOL    HW3 7239   2.961   5.269   0.172  0.0606 -0.4983  0.2129
 1868SOL    MW4 7240   2.895   5.248   0.225 -0.2777  0.4399  0.1947
 1869SOL     OW 7241   4.767   3.673   1.460 -0.1362  0.2206 -0.0160
 1869SOL    HW2 7242   4.798   3.583   1.472 -0.0006 -0.0336 -2.0324
 1869SOL    HW3 7243   4.840   3.727   1.490 -0.5682 -0.2687  2.1250
 1869SOL    MW4 7244   4.781   3.668   1.466 -0.1753  0.1225  0.0005
 1870SOL     OW 7245   2.811   0.096   4.326  0.2340  0.3408 -0.3817
 1870SOL    HW2 7246   2.816   0.120   4.234 -0.2463 -1.3857 -0.8923
 1870SOL    HW3 7247   2.734   0.040   4.332  1.1328 -0.8411  0.7567
 1870SOL    MW4 7248   2.802   0.092   4.315  0.2892 -0.0430 -0.2989
 1871SOL     OW 7249   1.844   4.767   0.938 -0.3770 -0.0770  0.1877
 1871SOL    HW2 7250   1.769   4.729   0.984 -0.0710  1.2021  1.8284
 1871SOL    HW3 7251   1.909   4.781   1.007  0.6224  0.6459 -0.8835
 1871SOL    MW4 7252   1.842   4.764   0.953 -0.2048  0.1872  0.2628
 1872SOL     OW 7253   0.287   4.902   2.094  0.0962 -0.0405 -0.0741
 1872SOL    HW2 7254   0.382   4.903   2.099  0.1234  0.2645 -0.6082
 1872SOL    HW3 7255   0.260   4.985   2.134 -0.0863 -1.1878  2.4059
 1872SOL    MW4 7256   0.296   4.914   2.100  0.0757 -0.1516  0.1827
 1873SOL     OW 7257   4.404   1.786   0.177 -0.1484 -0.0499 -0.7514
 1873SOL    HW2 7258   4.339   1.810   0.111 -0.1330 -0.6958 -1.0138
 1873SOL    HW3 7259   4.383   1.840   0.253 -0.1705  0.6995 -1.2816
 1873SOL    MW4 7260   4.393   1.796   0.178 -0.1493 -0.0362 -0.8559
 1874SOL     OW 7261   2.372   6.098   2.613 -0.1823 -0.2204 -0.2712
 1874SOL    HW2 7262   2.394   6.084   2.705 -0.9714 -1.7415 -0.2838
 1874SOL    HW3 7263   2.428   6.170   2.585  0.6010 -0.2371  1.1970
 1874SOL    MW4 7264   2.382   6.106   2.621 -0.1831 -0.4233 -0.0792
 1875SOL     OW 7265   2.663   1.504   5.530  0.2915  0.1632  0.3137
 1875SOL    HW2 7266   2.586   1.455   5.503  0.1998  0.2915  0.3446
 1875SOL    HW3 7267   2.735   1.464   5.482  0.4629 -1.0364  1.5245
 1875SOL    MW4 7268   2.663   1.493   5.520  0.3020  0.0219  0.4775
 1876SOL     OW 7269   4.380   5.225   4.583  0.2405 -0.1906  0.2701
 1876SOL    HW2 7270   4.286   5.237   4.595 -0.0025  1.3058 -2.1896
 1876SOL    HW3 7271   4.416   5.313   4.595  0.7192  0.1008 -2.5551
 1876SOL    MW4 7272   4.372   5.239   4.586  0.2716  0.0453 -0.4272
 1877SOL     OW 7273   1.244   0.927   2.255  0.0520  0.3104  0.3908
 1877SOL    HW2 7274   1.269   0.986   2.184  1.5782  0.0379  0.6652
 1877SOL    HW3 7275   1.168   0.969   2.295 -1.8955 -0.3324 -2.3740
 1877SOL    MW4 7276   1.237   0.941   2.251 -0.0036  0.1897  0.0622
 1878SOL     OW 7277   5.289   5.236   0.179  0.1339  0.4668  0.3445
 1878SOL    HW2 7278   5.326   5.217   0.265  2.8345  1.9448 -0.3676
 1878SOL    HW3 7279   5.245   5.321   0.190  1.7666  1.4013  0.0103
 1878SOL    MW4 7280   5.288   5.245   0.192  0.7056  0.7851  0.2065
 1879SOL     OW 7281   0.955   4.409   5.564  0.1365 -0.3276  0.3563
 1879SOL    HW2 7282   0.913   4.327   5.590  0.5346 -0.2174  1.3952
 1879SOL    HW3 7283   0.996   4.390   5.479  1.3838 -1.6149  1.2143
 1879SOL    MW4 7284   0.955   4.396   5.556  0.3536 -0.4829  0.6066
 1880SOL     OW 7285   0.567   2.088   3.160 -0.0330 -0.3394 -0.1808
 1880SOL    HW2 7286   0.591   2.165   3.212  0.7632 -0.7545  0.0783
 1880SOL    HW3 7287   0.480   2.064   3.192 -0.5747  0.8150 -0.7054
 1880SOL    MW4 7288   0.559   2.095   3.171  0.0006 -0.2418 -0.2158
 1881SOL     OW 7289   3.662   4.968   4.705  0.1454  0.2377 -0.3201
 1881SOL    HW2 7290   3.743   4.917   4.714  0.0407  0.1268 -0.0176
 1881SOL    HW3 7291   3.624   4.969   4.793 -0.2092  0.2490 -0.4718
 1881SOL    MW4 7292   3.668   4.962   4.718  0.0848  0.2245 -0.3002
 1882SOL     OW 7293   1.700   4.714   3.808  0.1587 -0.2292 -0.7220
 1882SOL    HW2 7294   1.631   4.769   3.771 -1.1018 -0.9911  0.3900
 1882SOL    HW3 7295   1.781   4.764   3.795 -0.8682  1.6539 -0.1748
 1882SOL    MW4 7296   1.702   4.728   3.801 -0.1431 -0.0813 -0.5031
 1883SOL     OW 7297   4.491   3.665   0.545 -0.1758 -0.4375  0.8162
 1883SOL    HW2 7298   4.423   3.708   0.494 -0.0484 -0.1772  0.8645
 1883SOL    HW3 7299   4.473   3.572   0.535  0.5627 -0.4462 -0.6983
 1883SOL    MW4 7300   4.480   3.658   0.537 -0.0616 -0.4043  0.6228
 1884SOL     OW 7301   1.797   3.606   6.006  0.7495 -0.7235 -0.1227
 1884SOL    HW2 7302   1.813   3.624   5.914  2.1342 -1.3883 -0.0309
 1884SOL    HW3 7303   1.872   3.644   6.051  0.4389 -1.0262  0.6674
 1884SOL    MW4 7304   1.809   3.614   6.000  0.8912 -0.8512 -0.0063
 1885SOL     OW 7305   3.935   3.554   5.469  0.0239  0.5570 -0.0972
 1885SOL    HW2 7306   4.007   3.492   5.455 -1.3018 -1.5340  1.6193
 1885SOL    HW3 7307   3.940   3.575   5.562 -0.4550  1.9251 -0.3676
 1885SOL    MW4 7308   3.945   3.548   5.479 -0.2142  0.4616  0.0936
 1886SOL     OW 7309   2.647   2.228   4.911 -0.0095 -0.4126 -0.2592
 1886SOL    HW2 7310   2.627   2.299   4.972 -1.2306 -0.5896 -0.4317
 1886SOL    HW3 7311   2.570   2.171   4.914  1.5334 -2.5581  0.9858
 1886SOL    MW4 7312   2.634   2.230   4.920  0.0330 -0.7190 -0.1177
 1887SOL     OW 7313   4.528   2.291   0.816 -0.6114 -0.2098 -0.5582
 1887SOL    HW2 7314   4.461   2.273   0.881  1.1612 -1.7165  0.9918
 1887SOL    HW3 7315   4.511   2.230   0.745 -0.7760 -0.7278 -0.0764
 1887SOL    MW4 7316   4.517   2.281   0.815 -0.3992 -0.4769 -0.2901
 1888SOL     OW 7317   6.047   2.134   0.566 -0.0845 -0.5446 -0.1267
 1888SOL    HW2 7318   5.987   2.208   0.580  0.5075  0.3077 -1.7662
 1888SOL    HW3 7319   6.105   2.135   0.642  0.1049  0.9027 -0.2557
 1888SOL    MW4 7320   6.046   2.144   0.578  0.0186 -0.2412 -0.3600
 1889SOL     OW 7321   5.841   0.133   2.639  0.4068 -0.0120  0.1343
 1889SOL    HW2 7322   5.790   0.063   2.599  0.5388  0.3669 -0.7122
 1889SOL    HW3 7323   5.932   0.105   2.631  0.3930 -0.3518  0.9968
 1889SOL    MW4 7324   5.846   0.120   2.633  0.4224 -0.0069  0.1364
 1890SOL     OW 7325   2.087   2.741   6.073 -0.0739  0.0730  0.4157
 1890SOL    HW2 7326   2.140   2.790   6.136 -1.0956  0.8679  0.6837
 1890SOL    HW3 7327   2.138   2.662   6.055  0.5608  0.1600  1.7171
 1890SOL    MW4 7328   2.101   2.737   6.079 -0.1250  0.1894  0.6228
 1891SOL     OW 7329   4.172   1.220   0.852 -0.3896 -0.0350  0.1284
 1891SOL    HW2 7330   4.175   1.138   0.902 -0.3384  0.1132  0.3685
 1891SOL    HW3 7331   4.229   1.204   0.777 -2.2928 -1.0984 -1.1634
 1891SOL    MW4 7332   4.180   1.207   0.849 -0.6339 -0.1557 -0.0104
 1892SOL     OW 7333   3.914   1.183   5.499 -0.3913  0.2994 -0.2556
 1892SOL    HW2 7334   3.908   1.129   5.578 -0.2079 -1.9840 -1.6841
 1892SOL    HW3 7335   3.842   1.152   5.444 -0.1156  1.3787 -1.2588
 1892SOL    MW4 7336   3.904   1.172   5.502 -0.3307  0.1405 -0.5764
 1893SOL     OW 7337   1.126   0.096   3.451 -0.1170 -0.1997 -0.0152
 1893SOL    HW2 7338   1.110   0.024   3.512  0.5053 -0.4371 -0.1158
 1893SOL    HW3 7339   1.220   0.090   3.432  0.3277  1.6820  1.3021
 1893SOL    MW4 7340   1.137   0.086   3.456  0.0238  0.0172  0.1454
 1894SOL     OW 7341   4.789   2.121   3.516 -0.2578  0.0691 -0.4212
 1894SOL    HW2 7342   4.811   2.105   3.425  1.6080 -2.0148  0.3052
 1894SOL    HW3 7343   4.698   2.092   3.525 -0.6404  0.8226 -1.7084
 1894SOL    MW4 7344   4.780   2.115   3.505 -0.0621 -0.1064 -0.4952
 1895SOL     OW 7345   3.484   2.937   4.574 -0.1171 -0.0035 -0.3173
 1895SOL    HW2 7346   3.463   2.988   4.652 -3.3013 -0.6063 -0.6255
 1895SOL    HW3 7347   3.489   3.001   4.503 -0.9508  0.2177 -0.1898
 1895SOL    MW4 7348   3.482   2.952   4.575 -0.6472 -0.0538 -0.3411
 1896SOL     OW 7349   1.853   2.327   6.229 -0.4241 -0.1441  0.0234
 1896SOL    HW2 7350   1.759   2.314   6.219 -0.5057  0.5687 -0.2372
 1896SOL    HW3 7351   1.893   2.255   6.181 -0.8411 -0.0326 -0.5037
 1896SOL    MW4 7352   1.846   2.316   6.221 -0.4899 -0.0354 -0.0805
 1897SOL     OW 7353   1.065   2.246   5.294  0.0885 -0.6740 -0.5022
 1897SOL    HW2 7354   1.101   2.235   5.206  2.3153  0.0323  0.2566
 1897SOL    HW3 7355   1.104   2.327   5.327 -1.3553 -0.4685  0.8542
 1897SOL    MW4 7356   1.075   2.255   5.287  0.1919 -0.5537 -0.2231
 1898SOL     OW 7357   1.238   0.554   1.553  0.3832  0.3523  0.2034
 1898SOL    HW2 7358   1.191   0.553   1.636  1.8200  0.2119  1.0336
 1898SOL    HW3 7359   1.228   0.643   1.521 -0.8076  0.2115  0.1394
 1898SOL    MW4 7360   1.230   0.565   1.560  0.4156  0.3152  0.3045
 1899SOL     OW 7361   6.412   6.361   4.377  0.3296 -0.0927  0.2642
 1899SOL    HW2 7362   6.403   6.454   4.356 -1.1914 -0.3978 -0.5875
 1899SOL    HW3 7363   6.339   6.344   4.438 -0.4930 -1.0845 -0.9608
 1899SOL    MW4 7364   6.401   6.371   4.383  0.0204 -0.2638 -0.0098
 1900SOL     OW 7365   4.944   1.807   1.476 -0.2437  0.0799 -0.3599
 1900SOL    HW2 7366   5.011   1.739   1.486  0.1743  0.5505  0.0463
 1900SOL    HW3 7367   4.909   1.792   1.388  0.5380 -0.0463 -0.6591
 1900SOL    MW4 7368   4.948   1.796   1.465 -0.0854  0.1254 -0.3458
 1901SOL     OW 7369   2.806   4.338   3.458  0.3149  0.2650 -0.1787
 1901SOL    HW2 7370   2.750   4.410   3.489  1.1218  1.2582 -0.9386
 1901SOL    HW3 7371   2.746   4.280   3.411 -0.3248  0.5245  0.2960
 1901SOL    MW4 7372   2.791   4.340   3.456  0.3370  0.4303 -0.2163
 1902SOL     OW 7373   6.172   3.298   3.511 -0.5178 -0.0548  0.5229
 1902SOL    HW2 7374   6.202   3.210   3.530 -0.9922 -0.9237 -2.2921
 1902SOL    HW3 7375   6.078   3.296   3.529 -0.5707 -0.1950  0.2306
 1902SOL    MW4 7376   6.164   3.286   3.516 -0.5874 -0.1879  0.1129
 1903SOL     OW 7377   5.033   5.685   5.581 -0.0507 -0.3597  0.5049
 1903SOL    HW2 7378   5.079   5.626   5.522 -0.5912 -0.6927  0.4108
 1903SOL    HW3 7379   4.949   5.642   5.597 -0.7270  0.7028 -0.0952
 1903SOL    MW4 7380   5.028   5.672   5.575 -0.2112 -0.2634  0.4133
 1904SOL     OW 7381   1.752   6.342   6.288 -0.5618  0.3444  0.8467
 1904SOL    HW2 7382   1.704   6.363   6.208  0.1421 -0.1294  0.2946
 1904SOL    HW3 7383   1.805   6.420   6.305 -0.0550  0.1168  0.3542
 1904SOL    MW4 7384   1.752   6.355   6.280 -0.4020  0.2518  0.7089
 1905SOL     OW 7385   4.122   0.625   2.502  0.0703  0.4024  0.0375
 1905SOL    HW2 7386   4.126   0.557   2.434 -0.0024  1.0887 -0.6659
 1905SOL    HW3 7387   4.213   0.648   2.518  0.0283  1.5068 -1.1444
 1905SOL    MW4 7388   4.134   0.619   2.495  0.0552  0.6387 -0.2113
 1906SOL     OW 7389   6.050   4.628   4.330 -0.3522 -0.3614 -0.3900
 1906SOL    HW2 7390   6.040   4.723   4.325  0.2198 -0.2934 -0.3064
 1906SOL    HW3 7391   5.978   4.598   4.385 -0.4771  0.0357 -0.3404
 1906SOL    MW4 7392   6.039   4.636   4.337 -0.2932 -0.3000 -0.3724
 1907SOL     OW 7393   1.656   3.917   2.413  0.8668  0.3095 -0.6049
 1907SOL    HW2 7394   1.595   3.973   2.364  0.4488  0.8408  0.4860
 1907SOL    HW3 7395   1.692   3.857   2.347 -2.2748 -1.3511 -1.0045
 1907SOL    MW4 7396   1.653   3.917   2.398  0.3971  0.1605 -0.5137
 1908SOL     OW 7397   6.173   0.406   3.726  0.0376  0.6494 -0.1473
 1908SOL    HW2 7398   6.166   0.501   3.715 -1.7190  0.4521 -1.0536
 1908SOL    HW3 7399   6.117   0.370   3.658  0.8809 -1.0701  0.0107
 1908SOL    MW4 7400   6.165   0.414   3.715 -0.0829  0.3965 -0.2460
 1909SOL     OW 7401   6.275   3.979   1.853  0.1508 -0.3918 -0.5267
 1909SOL    HW2 7402   6.289   3.888   1.879  0.6611  0.1856  1.3975
 1909SOL    HW3 7403   6.357   4.004   1.810  0.5079 -0.4789  0.0902
 1909SOL    MW4 7404   6.288   3.970   1.850  0.2652 -0.3271 -0.1914
 1910SOL     OW 7405   0.095   6.062   2.165 -0.6903 -0.1461 -0.1227
 1910SOL    HW2 7406   0.176   6.020   2.136 -0.5095 -0.8459  1.2961
 1910SOL    HW3 7407   0.041   6.068   2.086  0.2213 -0.9070 -0.8197
 1910SOL    MW4 7408   0.098   6.057   2.151 -0.5462 -0.3388 -0.0275
 1911SOL     OW 7409   6.329   1.784   2.190 -0.0320  0.3555  0.0376
 1911SOL    HW2 7410   6.399   1.726   2.160 -0.3344  0.5563 -1.1085
 1911SOL    HW3 7411   6.374   1.856   2.234  0.3191 -1.0803  2.1678
 1911SOL    MW4 7412   6.344   1.786   2.192 -0.0255  0.1925  0.1675
 1912SOL     OW 7413   5.886   1.418   1.165  0.3740  0.1960 -0.3221
 1912SOL    HW2 7414   5.875   1.501   1.211  1.3640 -0.8051  1.8509
 1912SOL    HW3 7415   5.974   1.423   1.127  1.3053 -0.6361  1.6224
 1912SOL    MW4 7416   5.896   1.430   1.166  0.6275 -0.0458  0.2212
 1913SOL     OW 7417   5.558   2.824   0.227 -0.1331 -0.2155  0.3615
 1913SOL    HW2 7418   5.652   2.813   0.211 -0.4907  0.5198 -2.9262
 1913SOL    HW3 7419   5.530   2.739   0.260  1.5976 -0.5768  1.0287
 1913SOL    MW4 7420   5.567   2.811   0.229  0.0480 -0.1662  0.0158
 1914SOL     OW 7421   3.483   1.996   5.560  0.8251 -0.3292 -0.0467
 1914SOL    HW2 7422   3.515   2.085   5.572 -2.3212  1.1020 -1.2503
 1914SOL    HW3 7423   3.446   1.994   5.472  1.1235 -2.9797 -0.2191
 1914SOL    MW4 7424   3.483   2.007   5.550  0.4493 -0.4901 -0.2282
 1915SOL     OW 7425   5.060   5.426   0.159  0.0108 -0.4150 -0.6261
 1915SOL    HW2 7426   5.125   5.477   0.206 -0.9154 -1.7735  2.3814
 1915SOL    HW3 7427   4.981   5.481   0.160 -0.1038 -0.5838 -0.2614
 1915SOL    MW4 7428   5.058   5.440   0.165 -0.1266 -0.6165 -0.1812
 1916SOL     OW 7429   1.566   0.618   4.039 -0.3310  0.0691 -0.5359
 1916SOL    HW2 7430   1.539   0.635   3.949 -1.3442  1.2671 -0.0289
 1916SOL    HW3 7431   1.634   0.682   4.056  0.8773 -1.0817 -0.8803
 1916SOL    MW4 7432   1.571   0.629   4.029 -0.3052  0.0753 -0.5144
 1917SOL     OW 7433   1.729   0.791   3.134 -0.1758  0.8181  0.7315
 1917SOL    HW2 7434   1.741   0.745   3.217  0.7214  0.9736  0.6942
 1917SOL    HW3 7435   1.796   0.858   3.134  0.9217 -0.2093 -0.8276
 1917SOL    MW4 7436   1.739   0.794   3.145  0.0874  0.7031  0.5209
 1918SOL     OW 7437   5.938   6.293   0.771 -0.2021 -0.0759  0.0554
 1918SOL    HW2 7438   5.953   6.387   0.780  1.2452 -0.3022  0.2574
 1918SOL    HW3 7439   5.904   6.282   0.682 -1.4462  0.7382  0.4120
 1918SOL    MW4 7440   5.935   6.304   0.761 -0.1753  0.0017  0.1291
 1919SOL     OW 7441   5.532   4.927   4.536 -0.4417  0.7607 -0.0192
 1919SOL    HW2 7442   5.456   4.981   4.516  0.8274  2.1075 -1.5015
 1919SOL    HW3 7443   5.531   4.858   4.469 -1.2664 -0.2517  1.0013
 1919SOL    MW4 7444   5.522   4.925   4.524 -0.3830  0.8048 -0.0801
 1920SOL     OW 7445   1.332   4.391   1.983 -0.4324 -0.2449 -0.4568
 1920SOL    HW2 7446   1.385   4.320   1.947 -2.6542 -2.1143 -0.2350
 1920SOL    HW3 7447   1.364   4.403   2.072  0.0332 -0.8819 -0.5359
 1920SOL    MW4 7448   1.343   4.383   1.990 -0.6641 -0.5756 -0.4380
 1921SOL     OW 7449   3.632   1.269   3.218  0.0246 -0.6273 -0.0897
 1921SOL    HW2 7450   3.684   1.317   3.154 -0.3823 -0.8807 -0.6194
 1921SOL    HW3 7451   3.672   1.290   3.302 -1.7960  2.8986  0.0634
 1921SOL    MW4 7452   3.644   1.278   3.220 -0.2693 -0.1955 -0.1394
 1922SOL     OW 7453   5.225   3.680   3.692  0.4921  0.1477 -0.2306
 1922SOL    HW2 7454   5.179   3.747   3.641  0.5800 -1.1557 -2.1432
 1922SOL    HW3 7455   5.156   3.634   3.740  0.2021  0.3439 -0.4599
 1922SOL    MW4 7456   5.210   3.682   3.692  0.4654  0.0016 -0.5132
 1923SOL     OW 7457   1.417   1.995   6.045  0.5057 -0.0716  0.4084
 1923SOL    HW2 7458   1.439   1.906   6.071 -2.4845 -1.4886 -1.3393
 1923SOL    HW3 7459   1.488   2.021   5.987  2.4111 -0.4691  2.4405
 1923SOL    MW4 7460   1.429   1.987   6.040  0.3626 -0.3110  0.4459
 1924SOL     OW 7461   1.039   3.460   0.024 -0.2043 -0.5052 -0.2984
 1924SOL    HW2 7462   1.044   3.543  -0.022 -0.3089  0.3679  1.2047
 1924SOL    HW3 7463   0.949   3.429   0.009 -0.5703  0.2939  0.1595
 1924SOL    MW4 7464   1.028   3.467   0.016 -0.2664 -0.2846 -0.0397
 1925SOL     OW 7465   1.143   2.306   4.557  0.4422  0.0638 -0.0724
 1925SOL    HW2 7466   1.065   2.283   4.607  0.9199  0.6822  1.0068
 1925SOL    HW3 7467   1.153   2.235   4.494 -0.0801 -0.8681  0.8577
 1925SOL    MW4 7468   1.134   2.293   4.556  0.4363  0.0225  0.1927
 1926SOL     OW 7469   3.814   6.315   5.925 -0.4030  0.5776 -0.0906
 1926SOL    HW2 7470   3.852   6.307   6.013 -1.5046 -0.7124  0.3017
 1926SOL    HW3 7471   3.762   6.396   5.929 -2.2307 -0.5784  1.2037
 1926SOL    MW4 7472   3.812   6.325   5.937 -0.7895  0.2549  0.1319
 1927SOL     OW 7473   1.478   2.897   6.218  0.1433 -0.4877 -0.2562
 1927SOL    HW2 7474   1.454   2.804   6.213  0.2569 -0.4993 -0.6371
 1927SOL    HW3 7475   1.394   2.942   6.226  0.1365 -0.6774  0.9724
 1927SOL    MW4 7476   1.464   2.890   6.218  0.1574 -0.5143 -0.1443
 1928SOL     OW 7477   1.260   6.042   5.944  0.2983  0.0695 -0.5110
 1928SOL    HW2 7478   1.233   5.964   5.993  1.0698 -0.4947 -0.9575
 1928SOL    HW3 7479   1.346   6.019   5.909 -0.6165  0.0765 -2.9354
 1928SOL    MW4 7480   1.268   6.029   5.946  0.2794 -0.0040 -0.8898
 1929SOL     OW 7481   5.174   0.152   5.533 -0.2222 -0.0337  0.1109
 1929SOL    HW2 7482   5.223   0.070   5.522  0.7266  0.6641 -1.0281
 1929SOL    HW3 7483   5.083   0.126   5.526  0.0761 -0.6516 -3.3403
 1929SOL    MW4 7484   5.169   0.138   5.531 -0.0577 -0.0232 -0.4947
 1930SOL     OW 7485   1.902   1.840   3.434  0.2891 -0.5942  0.4117
 1930SOL    HW2 7486   1.868   1.860   3.347 -1.0875 -0.6572  0.9119
 1930SOL    HW3 7487   1.885   1.919   3.485 -0.4520 -1.1598  1.0567
 1930SOL    MW4 7488   1.896   1.853   3.429  0.0097 -0.6771  0.5628
 1931SOL     OW 7489   0.280   3.581   2.031 -0.6104 -0.0494 -0.2634
 1931SOL    HW2 7490   0.219   3.571   1.958 -0.5901 -0.0428 -0.2814
 1931SOL    HW3 7491   0.256   3.665   2.071 -1.1246 -0.4172  0.2116
 1931SOL    MW4 7492   0.269   3.591   2.027 -0.6756 -0.0971 -0.2031
 1932SOL     OW 7493   1.426   4.776   2.352 -0.2082 -0.5916  0.6436
 1932SOL    HW2 7494   1.498   4.765   2.290 -1.6857 -1.4960 -1.0031
 1932SOL    HW3 7495   1.463   4.828   2.423  2.3815 -2.0023  0.4506
 1932SOL    MW4 7496   1.440   4.781   2.353 -0.0615 -0.8971  0.4008
 1933SOL     OW 7497   1.787   5.546   3.919 -0.4776 -0.1413  0.2711
 1933SOL    HW2 7498   1.852   5.586   3.978 -0.8262  1.7053 -0.5160
 1933SOL    HW3 7499   1.839   5.502   3.852 -0.0510 -0.2272  0.6521
 1933SOL    MW4 7500   1.802   5.546   3.918 -0.4673  0.0910  0.2175
 1934SOL     OW 7501   3.036   4.137   2.528 -0.2652  0.0943  0.2499
 1934SOL    HW2 7502   3.104   4.072   2.515 -0.9127 -0.2806 -1.5823
 1934SOL    HW3 7503   3.083   4.219   2.542  0.6245 -0.0438 -1.5699
 1934SOL    MW4 7504   3.051   4.140   2.528 -0.2333  0.0266 -0.2319
 1935SOL     OW 7505   3.317   5.546   3.545  0.7353  0.2448 -0.1207
 1935SOL    HW2 7506   3.233   5.571   3.507  1.2432  0.9645 -0.8055
 1935SOL    HW3 7507   3.377   5.546   3.471  1.3903 -0.0162  0.4063
 1935SOL    MW4 7508   3.314   5.549   3.530  0.8888  0.3053 -0.1415
 1936SOL     OW 7509   3.522   0.517   3.560 -0.3573 -0.5410 -0.2081
 1936SOL    HW2 7510   3.593   0.483   3.614 -0.6196 -1.1667 -0.2531
 1936SOL    HW3 7511   3.480   0.439   3.524 -0.7011 -0.1543 -0.6512
 1936SOL    MW4 7512   3.526   0.502   3.562 -0.4373 -0.5725 -0.2725
 1937SOL     OW 7513   6.348   5.263   6.379  0.1336 -0.5822  0.4076
 1937SOL    HW2 7514   6.269   5.216   6.352 -0.9862  0.5338  1.6008
 1937SOL    HW3 7515   6.416   5.195   6.382 -0.8332 -1.6274 -0.3542
 1937SOL    MW4 7516   6.347   5.248   6.376 -0.1417 -0.5729  0.4646
 1938SOL     OW 7517   3.132   5.736   4.947 -0.1324  0.3430  0.3720
 1938SOL    HW2 7518   3.043   5.723   4.915 -0.3621 -1.9354  1.6789
 1938SOL    HW3 7519   3.186   5.745   4.868 -1.3962  0.9548 -0.4484
 1938SOL    MW4 7520   3.127   5.736   4.933 -0.3294  0.1231  0.4362
 1939SOL     OW 7521   3.612   3.421   3.285 -0.1518 -0.1983 -0.2116
 1939SOL    HW2 7522   3.525   3.433   3.323  0.0020 -1.5430  0.6436
 1939SOL    HW3 7523   3.596   3.409   3.191 -0.7476  0.8952 -0.2654
 1939SOL    MW4 7524   3.598   3.421   3.277 -0.2101 -0.2314 -0.1059
 1940SOL     OW 7525   2.247   4.452   3.174 -0.1511 -0.1613 -0.5735
 1940SOL    HW2 7526   2.154   4.442   3.193 -0.1192  1.2463  0.5199
 1940SOL    HW3 7527   2.263   4.547   3.182  1.6116 -0.4900  0.4630
 1940SOL    MW4 7528   2.237   4.463   3.177  0.0857 -0.0189 -0.2925
 1941SOL     OW 7529   4.014   6.364   3.453 -0.4746  0.1255 -0.4701
 1941SOL    HW2 7530   4.032   6.338   3.362  1.9152  0.0027 -0.0385
 1941SOL    HW3 7531   4.002   6.458   3.449  0.1682  0.1934 -0.8494
 1941SOL    MW4 7532   4.015   6.373   3.440 -0.0745  0.1183 -0.4632
 1942SOL     OW 7533   0.362   2.894   3.977  0.0606 -0.4701  0.4785
 1942SOL    HW2 7534   0.414   2.959   3.930  1.9720 -1.4016  1.2156
 1942SOL    HW3 7535   0.343   2.936   4.061  0.7604 -0.6217  0.7163
 1942SOL    MW4 7536   0.366   2.908   3.982  0.4051 -0.6130  0.6071
 1943SOL     OW 7537   5.091   5.253   2.286 -0.0359  0.3839 -0.3531
 1943SOL    HW2 7538   5.073   5.336   2.330 -2.5718 -0.7054  0.8831
 1943SOL    HW3 7539   5.088   5.273   2.193 -0.4924  1.6916 -0.0707
 1943SOL    MW4 7540   5.089   5.266   2.280 -0.4307  0.4127 -0.1527
 1944SOL     OW 7541   4.925   1.738   5.702 -0.3996 -0.2236 -0.3395
 1944SOL    HW2 7542   4.833   1.718   5.721 -0.5057  0.2282 -0.3667
 1944SOL    HW3 7543   4.929   1.748   5.607 -0.7082  1.5810 -0.1959
 1944SOL    MW4 7544   4.913   1.736   5.692 -0.4543  0.0741 -0.3242
 1945SOL     OW 7545   1.693   4.400   2.422 -0.6371  0.0944 -0.0416
 1945SOL    HW2 7546   1.707   4.356   2.506  3.5699  0.7615 -0.1741
 1945SOL    HW3 7547   1.670   4.329   2.362 -0.0601 -1.0055  0.9754
 1945SOL    MW4 7548   1.692   4.385   2.425 -0.0059  0.0373  0.0751
 1946SOL     OW 7549   2.264   3.812   5.221  0.0953 -0.3169 -0.8836
 1946SOL    HW2 7550   2.172   3.836   5.227 -0.2192 -1.6553  0.2494
 1946SOL    HW3 7551   2.311   3.889   5.255 -0.6179  0.2499 -1.1694
 1946SOL    MW4 7552   2.258   3.826   5.226 -0.0403 -0.4187 -0.7718
 1947SOL     OW 7553   0.069   0.612   5.151 -0.3540 -0.2046  0.4287
 1947SOL    HW2 7554   0.093   0.697   5.189 -0.2484  0.2644 -0.6707
 1947SOL    HW3 7555   0.023   0.567   5.222  0.8142  0.2077  1.4888
 1947SOL    MW4 7556   0.066   0.617   5.166 -0.1859 -0.0883  0.4235
 1948SOL     OW 7557   3.095   5.861   6.205 -0.0667 -0.6464  0.0428
 1948SOL    HW2 7558   3.133   5.799   6.267 -0.7989 -0.5381  0.6137
 1948SOL    HW3 7559   3.071   5.936   6.258 -2.6277 -1.3718  0.0396
 1948SOL    MW4 7560   3.097   5.862   6.220 -0.5012 -0.7278  0.1177
 1949SOL     OW 7561   4.968   0.433   4.338  0.3113 -0.0151 -0.1308
 1949SOL    HW2 7562   4.945   0.362   4.398  0.0746 -0.0638 -0.2751
 1949SOL    HW3 7563   4.979   0.390   4.253  0.0016  0.1413 -0.2528
 1949SOL    MW4 7564   4.966   0.418   4.335  0.2392 -0.0009 -0.1659
 1950SOL     OW 7565   5.553   1.536   4.884  0.0249  0.3464 -0.6079
 1950SOL    HW2 7566   5.617   1.579   4.940 -1.4809 -0.4383  1.8923
 1950SOL    HW3 7567   5.491   1.604   4.861  0.4027  0.5738 -0.9667
 1950SOL    MW4 7568   5.553   1.550   4.889 -0.1239  0.2729 -0.3254
 1951SOL     OW 7569   0.192   6.355   2.191  0.3430 -0.4330  0.0823
 1951SOL    HW2 7570   0.259   6.379   2.254  0.6231 -1.2523  0.1129
 1951SOL    HW3 7571   0.170   6.264   2.213 -0.4884 -0.3027 -0.1764
 1951SOL    MW4 7572   0.198   6.346   2.202  0.2703 -0.5239  0.0522
 1952SOL     OW 7573   6.367   0.145   1.868  0.2113  0.2112  0.7464
 1952SOL    HW2 7574   6.306   0.072   1.867  0.5429 -0.0588  0.0274
 1952SOL    HW3 7575   6.451   0.108   1.840 -0.0582  1.2198 -1.6762
 1952SOL    MW4 7576   6.370   0.131   1.864  0.2195  0.3086  0.3319
 1953SOL     OW 7577   4.377   4.946   1.292 -0.9463 -0.2179 -0.0983
 1953SOL    HW2 7578   4.298   4.956   1.345 -0.6351  1.4848  0.0823
 1953SOL    HW3 7579   4.375   5.020   1.231  0.5079 -0.1576 -0.1046
 1953SOL    MW4 7580   4.366   4.957   1.291 -0.7133  0.0147 -0.0753
 1954SOL     OW 7581   5.139   1.247   2.435  0.0459  0.4457 -0.2320
 1954SOL    HW2 7582   5.103   1.326   2.478 -0.3069  0.1556  0.0124
 1954SOL    HW3 7583   5.064   1.188   2.428  0.6671 -0.5531  1.1699
 1954SOL    MW4 7584   5.124   1.250   2.440  0.0813  0.2756 -0.0148
 1955SOL     OW 7585   4.037   3.993   3.827 -0.3656  0.2821 -0.6018
 1955SOL    HW2 7586   3.985   4.073   3.816  0.4945  0.9031 -0.2874
 1955SOL    HW3 7587   4.127   4.020   3.808 -0.1983 -0.8751 -1.6040
 1955SOL    MW4 7588   4.042   4.007   3.823 -0.2301  0.2113 -0.6925
 1956SOL     OW 7589   0.398   2.123   0.735 -0.5239 -0.2104  0.4181
 1956SOL    HW2 7590   0.477   2.141   0.684 -0.4619  2.1664  1.2472
 1956SOL    HW3 7591   0.341   2.076   0.674  0.6849 -0.0662 -0.8841
 1956SOL    MW4 7592   0.401   2.119   0.720 -0.3562  0.1222  0.3557
 1957SOL     OW 7593   2.377   2.031   2.082 -0.1947  0.2503  0.0685
 1957SOL    HW2 7594   2.288   2.060   2.063  0.2018  1.9647  0.5622
 1957SOL    HW3 7595   2.427   2.113   2.088  1.1123 -0.5960  1.2320
 1957SOL    MW4 7596   2.372   2.046   2.080  0.0301  0.3648  0.2871
 1958SOL     OW 7597   4.925   4.247   5.807  0.3432 -0.4872  0.2219
 1958SOL    HW2 7598   4.867   4.240   5.883 -1.4337  1.0860 -0.8634
 1958SOL    HW3 7599   4.980   4.323   5.826  2.1989 -2.0234  1.2818
 1958SOL    MW4 7600   4.924   4.256   5.819  0.3536 -0.4823  0.2185
 1959SOL     OW 7601   4.139   3.557   0.174 -0.0233 -0.1187 -0.0609
 1959SOL    HW2 7602   4.166   3.469   0.147 -0.3354 -0.2291 -0.0096
 1959SOL    HW3 7603   4.093   3.543   0.257  0.0051  0.1036 -0.0071
 1959SOL    MW4 7604   4.137   3.544   0.182 -0.0608 -0.1039 -0.0471
 1960SOL     OW 7605   2.565   5.524   0.930 -0.0251  0.1840 -0.3998
 1960SOL    HW2 7606   2.656   5.547   0.951 -0.0118 -0.8285  0.7552
 1960SOL    HW3 7607   2.568   5.496   0.839  0.7117  0.7192 -0.5511
 1960SOL    MW4 7608   2.577   5.524   0.921  0.0739  0.1210 -0.2674
 1961SOL     OW 7609   1.092   4.769   3.758  0.1014 -0.2626 -0.1373
 1961SOL    HW2 7610   1.150   4.838   3.791  0.9706 -0.9344 -0.2434
 1961SOL    HW3 7611   1.046   4.737   3.835 -1.2143  1.2430 -0.2455
 1961SOL    MW4 7612   1.093   4.774   3.773  0.0425 -0.1526 -0.1655
 1962SOL     OW 7613   1.946   3.476   0.664  0.1419 -0.4350 -0.0831
 1962SOL    HW2 7614   1.966   3.406   0.726 -1.5647 -1.4771 -0.6237
 1962SOL    HW3 7615   1.856   3.458   0.637  0.1992  1.0899 -1.4198
 1962SOL    MW4 7616   1.937   3.464   0.668 -0.0757 -0.3713 -0.3308
 1963SOL     OW 7617   3.372   3.900   1.067  0.7133  0.3811  0.4892
 1963SOL    HW2 7618   3.277   3.887   1.071  0.8278 -0.2833  1.5395
 1963SOL    HW3 7619   3.391   3.909   0.974 -0.2143 -0.8938  0.1376
 1963SOL    MW4 7620   3.362   3.899   1.056  0.6060  0.1253  0.5814
 1964SOL     OW 7621   3.075   0.701   3.619  0.0457  0.3480 -0.0978
 1964SOL    HW2 7622   3.051   0.662   3.703  1.1350 -2.4302 -0.9747
 1964SOL    HW3 7623   3.078   0.795   3.636  1.3528 -0.1784  3.2670
 1964SOL    MW4 7624   3.072   0.708   3.632  0.3619 -0.0880  0.2304
 1965SOL     OW 7625   6.299   4.458   3.281 -0.3407  0.1307  0.0560
 1965SOL    HW2 7626   6.219   4.494   3.244 -0.7373  0.6348  1.3480
 1965SOL    HW3 7627   6.270   4.382   3.333  0.0187  0.2741  0.4778
 1965SOL    MW4 7628   6.285   4.452   3.283 -0.3456  0.2161  0.2821
 1966SOL     OW 7629   3.371   0.631   1.157 -0.4009  0.2117  0.0350
 1966SOL    HW2 7630   3.292   0.647   1.209 -1.1926 -0.9292 -0.7672
 1966SOL    HW3 7631   3.400   0.718   1.131 -0.8920  0.7056  1.0554
 1966SOL    MW4 7632   3.364   0.645   1.161 -0.5702  0.1264  0.0638
 1967SOL     OW 7633   5.944   1.877   5.010  0.0584 -0.8304 -0.5098
 1967SOL    HW2 7634   5.862   1.926   5.000 -0.4782 -1.5179  0.3831
 1967SOL    HW3 7635   5.965   1.883   5.103 -0.1365 -2.4492 -0.3283
 1967SOL    MW4 7636   5.936   1.884   5.021 -0.0381 -1.1347 -0.3681
 1968SOL     OW 7637   5.506   4.171   5.111 -0.2227  0.1200 -0.4136
 1968SOL    HW2 7638   5.457   4.253   5.105  0.8059  0.6528 -2.6790
 1968SOL    HW3 7639   5.585   4.195   5.160  0.4710  0.7600 -1.7715
 1968SOL    MW4 7640   5.510   4.185   5.116  0.0045  0.2747 -0.8916
 1969SOL     OW 7641   5.204   1.765   3.194  0.0982 -0.2260 -0.5493
 1969SOL    HW2 7642   5.263   1.722   3.256 -0.1004  0.3363  0.0439
 1969SOL    HW3 7643   5.122   1.775   3.242 -0.2177 -0.2463 -1.0785
 1969SOL    MW4 7644   5.201   1.761   3.208  0.0303 -0.1545 -0.5409
 1970SOL     OW 7645   5.407   1.443   4.334 -0.2556  0.5817 -0.3085
 1970SOL    HW2 7646   5.478   1.424   4.395 -0.4130  2.4106  0.5076
 1970SOL    HW3 7647   5.440   1.516   4.281 -0.4860 -0.3658 -1.8140
 1970SOL    MW4 7648   5.421   1.450   4.335 -0.3068  0.6980 -0.3994
 1971SOL     OW 7649   1.557   0.832   2.170 -0.4196 -0.1337 -0.2980
 1971SOL    HW2 7650   1.586   0.762   2.112 -0.9724  0.6808 -1.6023
 1971SOL    HW3 7651   1.633   0.850   2.226 -0.1415 -1.4710 -0.2183
 1971SOL    MW4 7652   1.571   0.825   2.170 -0.4559 -0.2026 -0.4595
 1972SOL     OW 7653   3.364   1.054   3.659  0.0479  0.0977  0.2362
 1972SOL    HW2 7654   3.401   0.969   3.682 -1.4590 -0.6543 -0.0284
 1972SOL    HW3 7655   3.384   1.065   3.566 -0.6211 -0.4482  0.0172
 1972SOL    MW4 7656   3.371   1.044   3.650 -0.2392 -0.0735  0.1724
 1973SOL     OW 7657   5.207   3.290   1.355  0.1432 -0.1106 -0.0614
 1973SOL    HW2 7658   5.169   3.247   1.432  1.9356 -0.1059  0.8633
 1973SOL    HW3 7659   5.191   3.229   1.283 -1.1871 -0.3082  0.3732
 1973SOL    MW4 7660   5.200   3.277   1.356  0.2041 -0.1360  0.1179
 1974SOL     OW 7661   2.422   6.013   1.220  0.1071 -0.1126  0.3491
 1974SOL    HW2 7662   2.458   6.101   1.232  0.0480 -0.1660  0.9209
 1974SOL    HW3 7663   2.370   5.998   1.298  0.4265 -0.8089  0.4303
 1974SOL    MW4 7664   2.420   6.023   1.232  0.1415 -0.2115  0.4353
 1975SOL     OW 7665   2.392   2.189   0.504 -0.4040 -0.1065 -0.3877
 1975SOL    HW2 7666   2.486   2.188   0.486 -0.8342 -0.1609 -2.9147
 1975SOL    HW3 7667   2.386   2.192   0.600  2.1519  0.4455 -0.1851
 1975SOL    MW4 7668   2.404   2.189   0.514 -0.1235 -0.0409 -0.6944
 1976SOL     OW 7669   0.739   4.192   5.322 -0.4026  0.3597  0.1058
 1976SOL    HW2 7670   0.723   4.286   5.327  0.3926  0.5095 -0.0882
 1976SOL    HW3 7671   0.652   4.153   5.312 -0.6297  1.2025 -1.5814
 1976SOL    MW4 7672   0.725   4.199   5.321 -0.3276  0.4906 -0.1424
 1977SOL     OW 7673   4.506   1.318   3.166  0.0264  0.0155 -0.5167
 1977SOL    HW2 7674   4.587   1.319   3.115 -0.0917  1.4772 -0.7259
 1977SOL    HW3 7675   4.444   1.272   3.110  0.6025 -0.7889 -0.5156
 1977SOL    MW4 7676   4.509   1.312   3.152  0.0868  0.1023 -0.5442
 1978SOL     OW 7677   0.070   4.899   5.346 -0.0760 -0.2596 -0.1379
 1978SOL    HW2 7678   0.058   4.951   5.266 -0.9072 -0.1074  0.0725
 1978SOL    HW3 7679   0.028   4.815   5.327 -0.0464 -0.3168  0.0456
 1978SOL    MW4 7680   0.063   4.895   5.333 -0.1817 -0.2471 -0.0859
 1979SOL     OW 7681   5.304   1.449   0.547 -0.3935  0.3044  0.0859
 1979SOL    HW2 7682   5.231   1.510   0.548 -0.1467  0.6053 -0.0514
 1979SOL    HW3 7683   5.356   1.473   0.624 -2.5270 -2.5050  2.6551
 1979SOL    MW4 7684   5.301   1.460   0.558 -0.6424 -0.0266  0.4068
 1980SOL     OW 7685   0.957   5.851   3.418  0.3144  0.3217 -0.1625
 1980SOL    HW2 7686   0.864   5.826   3.412  0.0656  1.0819  0.3191
 1980SOL    HW3 7687   0.955   5.938   3.457  1.3022 -0.2208  1.1581
 1980SOL    MW4 7688   0.944   5.859   3.423  0.4119  0.3504  0.0752
 1981SOL     OW 7689   5.046   1.012   5.099 -0.0654 -0.5259  0.0283
 1981SOL    HW2 7690   5.086   1.008   5.012 -0.7056  0.4700 -0.3390
 1981SOL    HW3 7691   5.023   1.104   5.110  1.4939 -0.3116  1.9759
 1981SOL    MW4 7692   5.048   1.024   5.089  0.0558 -0.3662  0.2368
 1982SOL     OW 7693   0.756   0.866   1.108  0.1552 -0.3318 -0.8838
 1982SOL    HW2 7694   0.740   0.926   1.035  1.4630 -1.0780 -1.8100
 1982SOL    HW3 7695   0.680   0.808   1.107  0.4470 -0.7292 -2.0759
 1982SOL    MW4 7696   0.743   0.867   1.098  0.3662 -0.4827 -1.1633
 1983SOL     OW 7697   6.266   5.057   4.053 -0.2312  0.0031 -0.0585
 1983SOL    HW2 7698   6.301   4.984   4.002  3.6771  2.1754 -0.9019
 1983SOL    HW3 7699   6.286   5.035   4.144 -1.2207 -0.9380 -0.0452
 1983SOL    MW4 7700   6.273   5.045   4.058  0.1539  0.1655 -0.1680
 1984SOL     OW 7701   4.002   0.428   1.803 -0.4443 -0.0813  0.4801
 1984SOL    HW2 7702   4.063   0.356   1.818 -0.5402  0.0321  1.5081
 1984SOL    HW3 7703   4.036   0.474   1.727 -1.2751 -2.1746 -1.2814
 1984SOL    MW4 7704   4.014   0.424   1.795 -0.5666 -0.3425  0.3833
 1985SOL     OW 7705   4.260   6.046   6.174  0.3570  0.0172 -0.4757
 1985SOL    HW2 7706   4.179   5.996   6.182  0.3434  0.0234 -0.5833
 1985SOL    HW3 7707   4.249   6.120   6.234 -0.0083  0.4163 -1.0275
 1985SOL    MW4 7708   4.248   6.049   6.183  0.3070  0.0706 -0.5627
 1986SOL     OW 7709   0.993   4.932   2.263  0.4487  0.1200  0.1769
 1986SOL    HW2 7710   1.085   4.928   2.238  0.8620 -1.1970  1.6993
 1986SOL    HW3 7711   0.993   4.971   2.350 -0.3049 -0.8720  0.6479
 1986SOL    MW4 7712   1.005   4.937   2.271  0.4038 -0.1847  0.4399
 1987SOL     OW 7713   2.988   2.715   2.610 -0.4317 -0.1718  0.2698
 1987SOL    HW2 7714   2.957   2.802   2.638  0.0245  0.2288 -0.4359
 1987SOL    HW3 7715   3.042   2.733   2.533  1.6717 -0.8372  1.5054
 1987SOL    MW4 7716   2.991   2.729   2.604 -0.0940 -0.2067  0.3397
 1988SOL     OW 7717   0.514   2.371   4.095 -0.1357  0.5452 -0.0121
 1988SOL    HW2 7718   0.420   2.361   4.106 -0.3143  1.1009 -0.9210
 1988SOL    HW3 7719   0.523   2.435   4.024  0.9229 -0.3693 -0.7337
 1988SOL    MW4 7720   0.503   2.378   4.087 -0.0196  0.4979 -0.2272
 1989SOL     OW 7721   6.398   1.847   2.745 -0.1502 -0.2470 -0.0567
 1989SOL    HW2 7722   6.312   1.835   2.787 -0.8912 -0.5579 -1.6036
 1989SOL    HW3 7723   6.384   1.822   2.654  1.0693  1.6339 -0.8182
 1989SOL    MW4 7724   6.385   1.842   2.739 -0.0870 -0.0398 -0.3612
 1990SOL     OW 7725   0.067   5.118   3.869  0.6511  0.2014  0.3903
 1990SOL    HW2 7726   0.140   5.086   3.923  1.4580  0.5857 -0.4628
 1990SOL    HW3 7727  -0.002   5.136   3.932  1.8113  1.3143  1.4119
 1990SOL    MW4 7728   0.068   5.116   3.885  0.9107  0.3990  0.4125
 1991SOL     OW 7729   3.215   5.144   5.943 -0.5125  0.4647  0.8186
 1991SOL    HW2 7730   3.307   5.152   5.965 -0.1912  1.9664 -0.8545
 1991SOL    HW3 7731   3.207   5.056   5.906  0.5049  0.7013 -0.0067
 1991SOL    MW4 7732   3.226   5.133   5.941 -0.3359  0.6940  0.4890
 1992SOL     OW 7733   3.258   4.304   1.899  0.3627 -0.0800 -0.4441
 1992SOL    HW2 7734   3.281   4.213   1.878  1.8880 -0.3582  1.9550
 1992SOL    HW3 7735   3.343   4.349   1.906 -0.3512  1.4473 -1.2205
 1992SOL    MW4 7736   3.273   4.298   1.897  0.4697  0.0848 -0.2300
 1993SOL     OW 7737   3.571   2.093   5.866  0.0407 -0.4198  0.3245
 1993SOL    HW2 7738   3.583   2.107   5.772 -0.0976  0.2662  0.4023
 1993SOL    HW3 7739   3.512   2.017   5.871  2.0599 -2.1037 -0.0822
 1993SOL    MW4 7740   3.565   2.085   5.854  0.2889 -0.5515  0.2811
 1994SOL     OW 7741   3.958   6.219   1.496 -0.3423 -0.2103  0.8253
 1994SOL    HW2 7742   3.891   6.228   1.428  0.4578 -0.0688  0.0331
 1994SOL    HW3 7743   3.911   6.228   1.578 -1.1880  0.5812  0.2667
 1994SOL    MW4 7744   3.943   6.221   1.498 -0.3483 -0.0872  0.6470
 1995SOL     OW 7745   1.079   0.495   4.957 -0.0611 -0.4519  0.4237
 1995SOL    HW2 7746   1.022   0.444   5.014 -1.0819 -0.8174 -0.8609
 1995SOL    HW3 7747   1.135   0.429   4.915  0.6775 -0.1883  0.9782
 1995SOL    MW4 7748   1.079   0.479   4.959 -0.0983 -0.4654  0.3273
 1996SOL     OW 7749   0.944   3.072   2.153 -0.3126 -0.0636 -0.5144
 1996SOL    HW2 7750   0.923   3.089   2.245 -1.6503 -0.0708 -0.8010
 1996SOL    HW3 7751   1.018   3.130   2.134 -1.2896  1.4133  0.0284
 1996SOL    MW4 7752   0.951   3.082   2.163 -0.6180  0.1303 -0.4806
 1997SOL     OW 7753   3.512   0.175   2.219 -0.1847  0.0838 -0.3267
 1997SOL    HW2 7754   3.475   0.087   2.222 -1.2958  0.4990 -0.9177
 1997SOL    HW3 7755   3.435   0.232   2.214  0.4674  1.1733  1.4496
 1997SOL    MW4 7756   3.497   0.171   2.219 -0.2453  0.2823 -0.1703
 1998SOL     OW 7757   5.932   6.018   0.331  0.0570 -0.3200  0.0548
 1998SOL    HW2 7758   5.973   5.940   0.370  0.4376 -0.5479 -0.7720
 1998SOL    HW3 7759   5.838   5.998   0.331  0.2429 -1.4865 -1.5501
 1998SOL    MW4 7760   5.925   6.005   0.336  0.1318 -0.5040 -0.2660
 1999SOL     OW 7761   0.705   4.058   0.870  0.0084 -0.1552 -0.1382
 1999SOL    HW2 7762   0.673   4.005   0.943 -1.5277  2.8385  1.5745
 1999SOL    HW3 7763   0.626   4.096   0.832  1.0773  2.5360  0.1201
 1999SOL    MW4 7764   0.690   4.056   0.875 -0.0533  0.5948  0.1219
 2000SOL     OW 7765   1.758   5.890   0.564  0.1522  0.0766 -0.1012
 2000SOL    HW2 7766   1.729   5.960   0.622  1.6188  1.7937 -1.3119
 2000SOL    HW3 7767   1.709   5.904   0.483  1.6102  0.7787 -0.9121
 2000SOL    MW4 7768   1.748   5.901   0.561  0.5381  0.3958 -0.3679
 2001SOL     OW 7769   0.219   2.211   1.295  0.0581 -0.1016  0.6024
 2001SOL    HW2 7770   0.241   2.174   1.210  2.1302  1.6462  0.2814
 2001SOL    HW3 7771   0.147   2.271   1.279  0.5325  0.3225  0.0288
 2001SOL    MW4 7772   0.213   2.214   1.282  0.3941  0.1849  0.4844
 2002SOL     OW 7773   4.077   1.978   0.693  0.2530 -0.0619  0.1616
 2002SOL    HW2 7774   4.035   2.057   0.658  1.7662  0.4323 -0.6333
 2002SOL    HW3 7775   4.005   1.924   0.724 -0.8504  1.5510  0.5693
 2002SOL    MW4 7776   4.062   1.982   0.693  0.3071  0.2161  0.1105
 2003SOL     OW 7777   2.642   2.819   5.699  0.2916  0.0910 -0.2318
 2003SOL    HW2 7778   2.591   2.744   5.666 -2.5498  1.9003 -0.2850
 2003SOL    HW3 7779   2.659   2.872   5.621 -0.4687  1.0161  0.2125
 2003SOL    MW4 7780   2.638   2.816   5.684 -0.1836  0.4518 -0.1802
 2004SOL     OW 7781   0.277   2.259   6.403 -0.0411 -0.2982  0.7624
 2004SOL    HW2 7782   0.325   2.343   6.408 -0.2640  0.0020 -1.3366
 2004SOL    HW3 7783   0.190   2.283   6.372  0.2715 -1.3897 -1.0977
 2004SOL    MW4 7784   0.272   2.273   6.400 -0.0293 -0.4026  0.2401
 2005SOL     OW 7785   0.764   2.564   5.215  0.5245 -0.0086  0.4156
 2005SOL    HW2 7786   0.785   2.504   5.287  1.1329 -1.2070 -0.7128
 2005SOL    HW3 7787   0.758   2.507   5.138  0.3142  1.2928 -0.5588
 2005SOL    MW4 7788   0.766   2.548   5.214  0.5770  0.0050  0.1381
 2006SOL     OW 7789   2.123   4.492   6.182 -0.0427  0.0159 -0.2272
 2006SOL    HW2 7790   2.203   4.452   6.149 -1.2177 -2.0909 -0.6699
 2006SOL    HW3 7791   2.065   4.495   6.107 -1.2604 -0.8801  0.6448
 2006SOL    MW4 7792   2.126   4.488   6.168 -0.3584 -0.3803 -0.1705
 2007SOL     OW 7793   3.366   0.590   5.130 -0.0949  0.1640 -0.5587
 2007SOL    HW2 7794   3.308   0.647   5.079  1.9682  0.1424 -3.1110
 2007SOL    HW3 7795   3.454   0.626   5.115  0.9937 -2.1341 -0.0484
 2007SOL    MW4 7796   3.370   0.603   5.121  0.3209 -0.1421 -0.8281
 2008SOL     OW 7797   2.995   1.217   2.476 -0.5723 -0.1095  0.5058
 2008SOL    HW2 7798   2.904   1.232   2.501 -0.8824  0.5662 -0.8943
 2008SOL    HW3 7799   3.005   1.266   2.394  0.5940 -1.4734 -0.2041
 2008SOL    MW4 7800   2.984   1.225   2.468 -0.4593 -0.2003  0.2274
 2009SOL     OW 7801   5.889   3.332   6.238 -0.4420 -0.3293  0.1165
 2009SOL    HW2 7802   5.864   3.392   6.309  0.8054 -0.4878  0.7182
 2009SOL    HW3 7803   5.820   3.266   6.238 -0.4106 -0.3828  1.2689
 2009SOL    MW4 7804   5.877   3.331   6.248 -0.2733 -0.3573  0.3479
 2010SOL     OW 7805   0.627   6.015   1.898 -0.2351 -0.1765 -0.0636
 2010SOL    HW2 7806   0.614   6.047   1.987 -0.3531  0.3236 -0.2591
 2010SOL    HW3 7807   0.622   5.919   1.906 -0.4779 -0.1256  0.4290
 2010SOL    MW4 7808   0.625   6.006   1.911 -0.2827 -0.1038 -0.0244
 2011SOL     OW 7809   1.711   4.256   4.631  0.5008  0.4141  0.0904
 2011SOL    HW2 7810   1.790   4.252   4.576  0.7874  1.3811  0.4198
 2011SOL    HW3 7811   1.745   4.270   4.720 -0.0137  0.0511  0.3471
 2011SOL    MW4 7812   1.726   4.257   4.636  0.4707  0.4938  0.1678
 2012SOL     OW 7813   3.450   3.970   0.178 -0.5584  0.1395  0.4441
 2012SOL    HW2 7814   3.435   3.995   0.086  0.9621  0.2112  0.1848
 2012SOL    HW3 7815   3.498   3.887   0.172 -2.4177 -1.0540  1.2402
 2012SOL    MW4 7816   3.454   3.963   0.165 -0.6031 -0.0085  0.5149
 2013SOL     OW 7817   4.850   4.923   5.441 -0.1720  0.4419  0.1013
 2013SOL    HW2 7818   4.837   4.833   5.412 -1.6255  0.8399 -0.5841
 2013SOL    HW3 7819   4.777   4.971   5.403  1.7986  2.3865 -1.5183
 2013SOL    MW4 7820   4.839   4.918   5.432 -0.1038  0.7510 -0.2028
 2014SOL     OW 7821   5.396   0.472   3.148 -0.2149  0.2658 -0.0925
 2014SOL    HW2 7822   5.402   0.447   3.240  2.5596 -2.5477 -0.8720
 2014SOL    HW3 7823   5.465   0.537   3.137  1.5847 -1.6313 -0.6811
 2014SOL    MW4 7824   5.406   0.477   3.159  0.3886 -0.3557 -0.2730
 2015SOL     OW 7825   3.802   5.574   0.119  0.6243  0.4624  0.2956
 2015SOL    HW2 7826   3.741   5.554   0.190 -0.7710  1.5559 -0.5398
 2015SOL    HW3 7827   3.828   5.488   0.085 -2.1346 -0.0929 -0.6840
 2015SOL    MW4 7828   3.797   5.560   0.123  0.0762  0.5334  0.0561
 2016SOL     OW 7829   5.641   1.172   4.472 -0.1856 -0.0404  0.0944
 2016SOL    HW2 7830   5.699   1.137   4.540  0.8394  1.5373  0.0827
 2016SOL    HW3 7831   5.604   1.251   4.511  1.1659  1.4321 -1.4619
 2016SOL    MW4 7832   5.644   1.178   4.486  0.1279  0.3621 -0.1124
 2017SOL     OW 7833   2.146   0.024   0.846 -0.5236 -0.0424 -0.5098
 2017SOL    HW2 7834   2.086   0.042   0.918 -1.2432  2.5403 -1.6166
 2017SOL    HW3 7835   2.140   0.102   0.790 -1.1131 -2.4230 -4.1363
 2017SOL    MW4 7836   2.137   0.037   0.848 -0.6963 -0.0157 -1.1343
 2018SOL     OW 7837   6.196   1.994   4.101 -0.5735 -0.5398  0.2791
 2018SOL    HW2 7838   6.278   1.960   4.064 -0.7306 -0.4166 -0.1979
 2018SOL    HW3 7839   6.155   2.041   4.028 -1.3130 -1.0251  0.3771
 2018SOL    MW4 7840   6.202   1.996   4.086 -0.6918 -0.5876  0.2291
 2019SOL     OW 7841   0.224   0.064   4.840  0.0024 -0.1615  0.4563
 2019SOL    HW2 7842   0.266   0.031   4.920  1.3462  2.6779  1.0573
 2019SOL    HW3 7843   0.297   0.093   4.786 -0.9581 -0.9892 -1.3703
 2019SOL    MW4 7844   0.239   0.063   4.844  0.0530  0.1040  0.2946
 2020SOL     OW 7845   0.962   4.292   4.052  0.3066 -0.4399 -0.4068
 2020SOL    HW2 7846   1.015   4.308   3.974 -1.2418  0.5831 -1.2817
 2020SOL    HW3 7847   1.007   4.219   4.096  1.3881 -0.8352 -2.0645
 2020SOL    MW4 7848   0.975   4.285   4.047  0.2450 -0.3571 -0.7409
 2021SOL     OW 7849   1.261   5.399   3.310  0.2761 -0.1507 -0.0230
 2021SOL    HW2 7850   1.209   5.457   3.255 -0.0404 -0.7525 -0.3717
 2021SOL    HW3 7851   1.261   5.315   3.264 -0.3766 -0.7980  1.1070
 2021SOL    MW4 7852   1.254   5.395   3.297  0.1483 -0.3155  0.0801
 2022SOL     OW 7853   3.313   3.406   4.656  0.5602 -0.7952 -0.6980
 2022SOL    HW2 7854   3.351   3.385   4.741 -1.4205  1.1484  0.7497
 2022SOL    HW3 7855   3.385   3.445   4.606  1.7989 -2.1712 -0.0564
 2022SOL    MW4 7856   3.328   3.408   4.660  0.4623 -0.7203 -0.4223
 2023SOL     OW 7857   1.398   4.844   1.398  0.2699 -0.0252  0.8512
 2023SOL    HW2 7858   1.481   4.867   1.439 -0.0072  0.2798  1.2411
 2023SOL    HW3 7859   1.414   4.854   1.304 -0.4180  3.8827  1.0009
 2023SOL    MW4 7860   1.411   4.848   1.391  0.1426  0.5306  0.9224
 2024SOL     OW 7861   5.980   4.089   0.684  0.2957 -0.0159  0.3589
 2024SOL    HW2 7862   6.018   4.151   0.746  0.8147 -0.7181  0.7603
 2024SOL    HW3 7863   5.888   4.084   0.709  0.3087  0.3904  0.4906
 2024SOL    MW4 7864   5.973   4.097   0.695  0.3659 -0.0549  0.4293
 2025SOL     OW 7865   1.075   4.548   5.789  0.3840  0.3446  0.6460
 2025SOL    HW2 7866   1.009   4.495   5.745  0.0216  0.3883  1.1320
 2025SOL    HW3 7867   1.148   4.552   5.727 -0.4883  1.2051 -0.3717
 2025SOL    MW4 7868   1.076   4.542   5.775  0.2211  0.4639  0.5759
 2026SOL     OW 7869   0.028   1.969   4.301  0.0065 -0.3365  0.0389
 2026SOL    HW2 7870   0.122   1.983   4.287  0.1042  0.0407  0.9814
 2026SOL    HW3 7871   0.014   1.992   4.393 -1.5131  2.4813 -0.7660
 2026SOL    MW4 7872   0.039   1.974   4.311 -0.1811  0.0851  0.0571
 2027SOL     OW 7873   4.133   2.049   3.894  0.1453 -0.0052  0.2534
 2027SOL    HW2 7874   4.146   2.056   3.800 -1.0357  0.5880  0.1115
 2027SOL    HW3 7875   4.055   1.993   3.903  1.5075 -1.9085  0.9749
 2027SOL    MW4 7876   4.125   2.042   3.883  0.1692 -0.1780  0.3299
 2028SOL     OW 7877   2.831   4.092   2.327  0.2357 -0.1669 -0.8772
 2028SOL    HW2 7878   2.911   4.093   2.381 -0.6099  0.8046  0.4142
 2028SOL    HW3 7879   2.760   4.079   2.390 -0.8129  1.2906 -1.7164
 2028SOL    MW4 7880   2.832   4.090   2.342 -0.0142  0.1536 -0.8175
 2029SOL     OW 7881   0.093   5.025   6.424  0.0192 -0.2967 -0.9774
 2029SOL    HW2 7882   0.046   5.018   6.507 -0.1725 -2.4068 -1.2196
 2029SOL    HW3 7883   0.057   4.955   6.370  2.0333 -0.6822 -1.8869
 2029SOL    MW4 7884   0.082   5.015   6.428  0.2596 -0.6260 -1.1293
 2030SOL     OW 7885   2.402   3.866   2.640 -0.3466 -0.2973 -0.1310
 2030SOL    HW2 7886   2.316   3.879   2.681  1.3985  1.8093  3.2464
 2030SOL    HW3 7887   2.465   3.878   2.710  2.9649  2.1379 -3.1581
 2030SOL    MW4 7888   2.399   3.869   2.654  0.3205  0.3019 -0.0848
 2031SOL     OW 7889   4.458   6.063   5.878 -0.0029  0.0250 -0.3658
 2031SOL    HW2 7890   4.377   6.112   5.867 -1.4963 -2.3547 -0.6199
 2031SOL    HW3 7891   4.466   6.051   5.973  0.1638  0.4328 -0.3280
 2031SOL    MW4 7892   4.448   6.068   5.889 -0.1779 -0.2352 -0.3944
 2032SOL     OW 7893   1.819   5.052   5.025  0.3195 -0.1202 -0.5455
 2032SOL    HW2 7894   1.736   5.081   5.062  0.1902 -0.2596 -0.7258
 2032SOL    HW3 7895   1.869   5.133   5.012  1.0506 -0.1762  1.5234
 2032SOL    MW4 7896   1.815   5.067   5.028  0.3989 -0.1460 -0.2963
 2033SOL     OW 7897   3.943   3.374   3.621 -0.4387  0.2550 -0.3245
 2033SOL    HW2 7898   4.023   3.371   3.569 -0.0820  2.4083 -0.0013
 2033SOL    HW3 7899   3.967   3.428   3.697 -2.0134  0.4036  0.0948
 2033SOL    MW4 7900   3.957   3.381   3.624 -0.5994  0.5587 -0.2266
 2034SOL     OW 7901   0.373   5.335   3.395 -0.3010  0.2506 -0.3223
 2034SOL    HW2 7902   0.317   5.410   3.417 -0.5354  0.3738 -1.2885
 2034SOL    HW3 7903   0.333   5.261   3.440 -0.3082  0.6283  0.3044
 2034SOL    MW4 7904   0.360   5.335   3.404 -0.3328  0.3167 -0.3671
 2035SOL     OW 7905   3.368   3.488   3.404  0.4014 -0.3208  0.4791
 2035SOL    HW2 7906   3.351   3.563   3.346 -1.1264  0.4291  1.8369
 2035SOL    HW3 7907   3.345   3.519   3.491  1.3122 -1.8789  1.3143
 2035SOL    MW4 7908   3.363   3.502   3.408  0.3200 -0.4275  0.7685
 2036SOL     OW 7909   2.392   3.550   2.373  0.3303 -0.2671  0.0387
 2036SOL    HW2 7910   2.485   3.574   2.375  0.4492 -0.7170  0.0915
 2036SOL    HW3 7911   2.393   3.454   2.375 -0.1101 -0.2963 -0.6728
 2036SOL    MW4 7912   2.405   3.540   2.373  0.2878 -0.3303 -0.0482
 2037SOL     OW 7913   1.643   4.797   0.265  0.1322 -0.1799  0.5174
 2037SOL    HW2 7914   1.689   4.875   0.297 -0.1732 -0.2083  1.0455
 2037SOL    HW3 7915   1.680   4.781   0.179 -0.8315  1.4228 -0.2434
 2037SOL    MW4 7916   1.654   4.805   0.258 -0.0352  0.0278  0.4867
 2038SOL     OW 7917   1.955   0.268   5.563 -0.2030  0.0193  0.3026
 2038SOL    HW2 7918   1.872   0.245   5.520  0.2803  0.4181 -0.8958
 2038SOL    HW3 7919   2.005   0.187   5.562 -0.2234  0.0080  0.1826
 2038SOL    MW4 7920   1.951   0.254   5.557 -0.1419  0.0704  0.1287
 2039SOL     OW 7921   5.634   0.778   2.756  0.2096 -0.1118  0.3801
 2039SOL    HW2 7922   5.679   0.744   2.679  0.9968 -0.4136  0.9644
 2039SOL    HW3 7923   5.700   0.831   2.802  0.1562 -0.9968  1.5337
 2039SOL    MW4 7924   5.649   0.780   2.752  0.3064 -0.2684  0.6094
 2040SOL     OW 7925   2.170   2.191   1.942 -0.3201  0.7074  0.3651
 2040SOL    HW2 7926   2.089   2.169   1.897 -0.6061 -0.3459  1.3626
 2040SOL    HW3 7927   2.238   2.183   1.875 -1.0387  1.8030 -0.5316
 2040SOL    MW4 7928   2.169   2.187   1.927 -0.4526  0.7130  0.3784
 2041SOL     OW 7929   0.543   1.191   4.165 -0.0465 -0.3262  0.0300
 2041SOL    HW2 7930   0.467   1.171   4.111  0.0889 -0.4307 -0.1220
 2041SOL    HW3 7931   0.615   1.202   4.103 -0.1192  0.6688  0.1001
 2041SOL    MW4 7932   0.542   1.190   4.150 -0.0382 -0.2087  0.0192
 2042SOL     OW 7933   5.863   4.925   6.221 -0.1207  0.5069  0.2111
 2042SOL    HW2 7934   5.910   4.983   6.161 -2.8452  1.4081 -1.2057
 2042SOL    HW3 7935   5.827   4.856   6.165  1.8228 -1.8921  1.6738
 2042SOL    MW4 7936   5.865   4.924   6.206 -0.2238  0.3093  0.2171
 2043SOL     OW 7937   1.878   3.363   5.347 -0.0036 -0.5881  0.6449
 2043SOL    HW2 7938   1.964   3.390   5.313  0.4396 -0.9752  1.4543
 2043SOL    HW3 7939   1.817   3.423   5.304  0.2867 -2.3348 -2.4687
 2043SOL    MW4 7940   1.881   3.375   5.337  0.0932 -0.8697  0.3409
 2044SOL     OW 7941   4.651   2.522   4.679 -0.0601 -0.8184 -0.3077
 2044SOL    HW2 7942   4.730   2.518   4.733 -0.6805 -0.5262  0.6404
 2044SOL    HW3 7943   4.655   2.443   4.624  1.6594 -0.0434 -1.3979
 2044SOL    MW4 7944   4.662   2.511   4.679  0.0849 -0.6776 -0.3265
 2045SOL     OW 7945   4.902   1.672   5.417  0.2608 -0.8662  0.1337
 2045SOL    HW2 7946   4.835   1.736   5.393  1.0014  0.2036  0.8135
 2045SOL    HW3 7947   4.977   1.695   5.361  0.1275 -1.9631 -0.5246
 2045SOL    MW4 7948   4.903   1.684   5.406  0.3409 -0.8698  0.1365
 2046SOL     OW 7949   3.543   3.505   4.514 -0.4785  0.4798 -0.0375
 2046SOL    HW2 7950   3.534   3.599   4.498  0.2294  0.4787 -0.4827
 2046SOL    HW3 7951   3.567   3.469   4.429 -0.9506 -0.1388  0.0856
 2046SOL    MW4 7952   3.545   3.513   4.501 -0.4474  0.3981 -0.0800
 2047SOL     OW 7953   3.205   5.700   5.292 -0.0638  0.2510  0.4066
 2047SOL    HW2 7954   3.117   5.696   5.256 -0.3639  0.7015  1.0926
 2047SOL    HW3 7955   3.234   5.790   5.274  0.3262  0.0507  0.0201
 2047SOL    MW4 7956   3.198   5.712   5.285 -0.0519  0.2840  0.4461
 2048SOL     OW 7957   2.897   0.333   3.566 -0.1632  0.3744 -0.7828
 2048SOL    HW2 7958   2.935   0.291   3.489 -0.5529 -1.6597  0.0889
 2048SOL    HW3 7959   2.900   0.267   3.634 -1.0993  1.6733  0.5904
 2048SOL    MW4 7960   2.902   0.319   3.565 -0.3381  0.2774 -0.4867
 2049SOL     OW 7961   2.465   0.273   3.434  0.1145 -0.2113  0.4072
 2049SOL    HW2 7962   2.423   0.294   3.351  0.7056 -0.3747  0.0562
 2049SOL    HW3 7963   2.393   0.267   3.497 -0.1313  2.7300  0.5412
 2049SOL    MW4 7964   2.450   0.275   3.431  0.1600  0.1552  0.3785
 2050SOL     OW 7965   3.809   1.317   2.836 -0.0575 -0.3802  0.0223
 2050SOL    HW2 7966   3.727   1.298   2.882 -0.9324 -0.0067 -1.3180
 2050SOL    HW3 7967   3.823   1.242   2.780  0.2407 -0.2067 -0.1360
 2050SOL    MW4 7968   3.800   1.305   2.835 -0.1336 -0.3080 -0.1754
 2051SOL     OW 7969   6.379   4.512   3.924 -0.4449  0.2455 -0.2659
 2051SOL    HW2 7970   6.383   4.593   3.973 -0.3120  0.8011 -1.1704
 2051SOL    HW3 7971   6.450   4.518   3.860 -0.9364 -0.2060 -0.8786
 2051SOL    MW4 7972   6.389   4.523   3.922 -0.4922  0.2593 -0.4661
 2052SOL     OW 7973   1.375   1.104   5.399 -0.7277 -0.2486  0.1854
 2052SOL    HW2 7974   1.331   1.175   5.352 -0.5824 -0.7521 -0.7556
 2052SOL    HW3 7975   1.468   1.122   5.388 -0.6690 -1.0930 -0.9250
 2052SOL    MW4 7976   1.381   1.116   5.391 -0.7008 -0.4264 -0.0852
 2053SOL     OW 7977   0.461   4.262   1.886 -0.1653 -0.2958  0.3647
 2053SOL    HW2 7978   0.389   4.213   1.924  0.9069 -1.7300  0.6482
 2053SOL    HW3 7979   0.474   4.223   1.800 -1.2969  1.6161 -0.7435
 2053SOL    MW4 7980   0.453   4.251   1.880 -0.1731 -0.2327  0.2559
 2054SOL     OW 7981   0.556   2.459   2.604  0.7304  0.0039 -0.4446
 2054SOL    HW2 7982   0.550   2.369   2.570 -0.3989 -0.7980  1.6841
 2054SOL    HW3 7983   0.608   2.506   2.538  0.1099 -1.8231 -2.3703
 2054SOL    MW4 7984   0.562   2.453   2.591  0.4995 -0.3430 -0.4178
 2055SOL     OW 7985   2.991   1.076   4.803 -0.2101  0.4972  0.3260
 2055SOL    HW2 7986   3.032   1.043   4.883 -1.9359  0.1366  1.0976
 2055SOL    HW3 7987   2.936   1.003   4.773  1.6439 -0.0169 -2.1539
 2055SOL    MW4 7988   2.989   1.062   4.809 -0.1932  0.3818  0.1006
 2056SOL     OW 7989   2.949   2.594   0.962  0.1406  0.2424  0.8595
 2056SOL    HW2 7990   2.870   2.643   0.941  0.1230  0.1477  0.6998
 2056SOL    HW3 7991   2.973   2.551   0.880 -1.3247 -2.1200  1.5798
 2056SOL    MW4 7992   2.942   2.595   0.949 -0.0551 -0.0818  0.9335
 2057SOL     OW 7993   6.138   2.935   5.777 -0.2938 -0.2159  0.6054
 2057SOL    HW2 7994   6.196   3.009   5.794  0.3115 -0.3846 -0.6226
 2057SOL    HW3 7995   6.057   2.957   5.824 -0.5535  1.8045 -0.6841
 2057SOL    MW4 7996   6.135   2.948   5.786 -0.2482  0.0284  0.2733
 2058SOL     OW 7997   5.877   3.254   4.293 -0.2900 -0.0178 -0.7265
 2058SOL    HW2 7998   5.797   3.200   4.298 -0.5611  0.4757  0.3601
 2058SOL    HW3 7999   5.946   3.197   4.327 -0.4637  0.0954 -0.1766
 2058SOL    MW4 8000   5.875   3.239   4.298 -0.3487  0.0623 -0.5106
 2059SOL     OW 8001   3.058   1.372   2.208  0.2873  0.0549 -0.1895
 2059SOL    HW2 8002   3.114   1.318   2.153 -0.4674 -0.6911 -0.2529
 2059SOL    HW3 8003   3.104   1.455   2.215  1.4756 -0.5982 -0.0790
 2059SOL    MW4 8004   3.071   1.376   2.202  0.3445 -0.1297 -0.1833
 2060SOL     OW 8005   4.723   5.221   4.841 -0.0530  0.2761 -0.0624
 2060SOL    HW2 8006   4.709   5.314   4.821  0.2026  0.1388 -0.9318
 2060SOL    HW3 8007   4.818   5.213   4.851 -0.0118 -0.0033 -0.6270
 2060SOL    MW4 8008   4.734   5.232   4.840 -0.0139  0.2211 -0.2516
 2061SOL     OW 8009   0.692   5.822   4.386 -0.0557  0.1237  0.1170
 2061SOL    HW2 8010   0.670   5.823   4.293  0.2012  0.0930  0.0566
 2061SOL    HW3 8011   0.716   5.731   4.404 -0.2815  0.0895  0.2553
 2061SOL    MW4 8012   0.692   5.810   4.376 -0.0516  0.1151  0.1273
 2062SOL     OW 8013   0.969   0.482   2.930  0.4935 -0.1356 -0.2601
 2062SOL    HW2 8014   0.990   0.408   2.987 -1.6152 -0.5421  0.0668
 2062SOL    HW3 8015   1.002   0.559   2.978 -0.2846 -0.5681  1.0218
 2062SOL    MW4 8016   0.976   0.483   2.944  0.1126 -0.2463 -0.0478
 2063SOL     OW 8017   4.830   0.866   1.482  0.4053  0.1398  0.5756
 2063SOL    HW2 8018   4.918   0.892   1.455 -0.7216  2.1568 -1.6063
 2063SOL    HW3 8019   4.843   0.792   1.540  3.4753 -0.4254 -0.6527
 2063SOL    MW4 8020   4.843   0.860   1.486  0.6617  0.3314  0.1256
 2064SOL     OW 8021   6.078   3.288   4.695 -0.4173 -0.7336 -0.7171
 2064SOL    HW2 8022   6.103   3.251   4.610  0.0664 -1.2280 -0.3710
 2064SOL    HW3 8023   6.132   3.240   4.758  0.4422  0.7562 -0.2722
 2064SOL    MW4 8024   6.089   3.277   4.692 -0.2401 -0.6023 -0.6127
 2065SOL     OW 8025   6.348   4.865   1.319  0.5130 -0.2427 -0.1363
 2065SOL    HW2 8026   6.394   4.782   1.316  1.0949  0.0647  0.1808
 2065SOL    HW3 8027   6.368   4.901   1.406  0.4101  0.3064 -0.3361
 2065SOL    MW4 8028   6.356   4.859   1.330  0.5762 -0.1297 -0.1208
 2066SOL     OW 8029   5.947   5.189   2.706  0.3486  0.6925 -0.0063
 2066SOL    HW2 8030   5.925   5.192   2.799 -1.1217 -0.2028 -0.2896
 2066SOL    HW3 8031   5.992   5.272   2.689 -0.5978  1.4916  1.2012
 2066SOL    MW4 8032   5.950   5.200   2.716  0.0297  0.6798  0.1156
 2067SOL     OW 8033   0.824   1.971   5.821 -0.0965 -0.5538  0.5774
 2067SOL    HW2 8034   0.776   2.039   5.774 -0.5198 -0.0847  1.6386
 2067SOL    HW3 8035   0.762   1.939   5.887  0.4307 -1.2763  0.7398
 2067SOL    MW4 8036   0.810   1.976   5.824 -0.0828 -0.5872  0.7389
 2068SOL     OW 8037   0.988   2.248   0.978 -0.1337  0.2758  0.5242
 2068SOL    HW2 8038   0.918   2.183   0.987  0.4482 -0.4344  0.1076
 2068SOL    HW3 8039   1.048   2.228   1.051  0.5946 -0.3780 -0.2311
 2068SOL    MW4 8040   0.987   2.236   0.989  0.0392  0.0959  0.3696
 2069SOL     OW 8041   0.991   2.693   3.212 -0.3763  0.2026 -0.0312
 2069SOL    HW2 8042   1.042   2.681   3.293  0.9765  0.7053 -0.7771
 2069SOL    HW3 8043   0.905   2.657   3.233  0.0310  0.0438  1.5390
 2069SOL    MW4 8044   0.986   2.686   3.225 -0.1441  0.2480  0.0776
 2070SOL     OW 8045   2.681   1.931   0.318 -0.4228 -0.1174 -0.6333
 2070SOL    HW2 8046   2.613   1.874   0.353  0.3893 -0.9680 -0.4084
 2070SOL    HW3 8047   2.760   1.877   0.317  0.4757  1.1343 -0.0027
 2070SOL    MW4 8048   2.682   1.916   0.322 -0.1971 -0.0645 -0.5204
 2071SOL     OW 8049   4.105   2.779   0.621 -0.5960  0.0555  0.2940
 2071SOL    HW2 8050   4.178   2.787   0.560 -0.3327 -1.0521  0.4466
 2071SOL    HW3 8051   4.145   2.753   0.704 -1.0350  0.7413  0.7269
 2071SOL    MW4 8052   4.120   2.777   0.624 -0.6192 -0.0001  0.3713
 2072SOL     OW 8053   3.631   2.676   5.595 -0.4162 -0.2446 -0.0964
 2072SOL    HW2 8054   3.596   2.597   5.634  0.8495 -0.8883 -0.2111
 2072SOL    HW3 8055   3.693   2.710   5.659  0.4756 -0.4247 -0.8343
 2072SOL    MW4 8056   3.634   2.670   5.608 -0.1316 -0.3533 -0.2089
 2073SOL     OW 8057   0.088   1.230   3.596 -0.1506 -0.0445  0.1462
 2073SOL    HW2 8058   0.139   1.239   3.515 -0.1398 -1.7862 -0.0850
 2073SOL    HW3 8059   0.137   1.281   3.661 -0.3812  1.7277 -1.0056
 2073SOL    MW4 8060   0.101   1.237   3.594 -0.1796 -0.0405 -0.0363
 2074SOL     OW 8061   4.451   5.229   0.611  0.3976  0.6961 -0.1764
 2074SOL    HW2 8062   4.405   5.280   0.678 -1.1751  0.1829 -0.8212
 2074SOL    HW3 8063   4.538   5.268   0.608  0.7315  0.3462  2.5807
 2074SOL    MW4 8064   4.456   5.241   0.620  0.2342  0.5823  0.1023
 2075SOL     OW 8065   2.040   0.107   4.597  0.1448  0.7290 -0.2627
 2075SOL    HW2 8066   1.976   0.172   4.567  0.3849  0.4673 -1.3846
 2075SOL    HW3 8067   2.096   0.155   4.658 -1.2576  0.8992  0.9565
 2075SOL    MW4 8068   2.039   0.122   4.601 -0.0085  0.7170 -0.2499
 2076SOL     OW 8069   6.251   0.947   1.361  0.2238  0.3291  0.4967
 2076SOL    HW2 8070   6.286   0.953   1.450 -1.0569 -0.5146  1.0874
 2076SOL    HW3 8071   6.164   0.986   1.367  0.5400  1.2658 -0.6540
 2076SOL    MW4 8072   6.244   0.953   1.373  0.0965  0.3414  0.4228
 2077SOL     OW 8073   5.133   1.458   6.169 -0.0492  0.0363  0.2196
 2077SOL    HW2 8074   5.219   1.481   6.205 -0.8652  1.2962  1.4173
 2077SOL    HW3 8075   5.153   1.389   6.105  1.9735  1.0757 -0.3611
 2077SOL    MW4 8076   5.147   1.452   6.165  0.1100  0.3397  0.3010
 2078SOL     OW 8077   4.486   0.608   5.523  0.3602  0.3284 -0.1195
 2078SOL    HW2 8078   4.581   0.610   5.538  0.3160 -1.6947  0.7284
 2078SOL    HW3 8079   4.471   0.679   5.461  2.3607  1.0111  0.0879
 2078SOL    MW4 8080   4.497   0.618   5.517  0.6183  0.1515  0.0198
 2079SOL     OW 8081   2.280   1.829   1.903 -0.1442  0.4175  0.0727
 2079SOL    HW2 8082   2.341   1.884   1.952  0.2807  0.0390 -0.0230
 2079SOL    HW3 8083   2.276   1.869   1.816  2.3546 -1.2353 -0.9246
 2079SOL    MW4 8084   2.288   1.841   1.898  0.2416  0.1495 -0.0715
 2080SOL     OW 8085   1.072   2.297   3.033 -0.2680  0.1337  0.1968
 2080SOL    HW2 8086   1.022   2.321   3.111 -1.1630 -0.9000 -0.0333
 2080SOL    HW3 8087   1.096   2.206   3.047 -2.5711 -0.8855 -1.7557
 2080SOL    MW4 8088   1.069   2.288   3.045 -0.6899 -0.1371 -0.0911
 2081SOL     OW 8089   5.424   2.032   4.834 -0.1176 -0.2504 -0.4822
 2081SOL    HW2 8090   5.388   1.982   4.906  1.6274 -2.9654 -1.3492
 2081SOL    HW3 8091   5.431   1.970   4.761  2.6039  1.0380 -1.4958
 2081SOL    MW4 8092   5.420   2.018   4.834  0.4717 -0.4386 -0.7303
 2082SOL     OW 8093   4.309   4.077   1.199  0.3665 -0.1364  0.3684
 2082SOL    HW2 8094   4.292   4.123   1.282  0.0102  1.2437 -0.4283
 2082SOL    HW3 8095   4.378   4.014   1.219  0.8910  0.7755  1.5191
 2082SOL    MW4 8096   4.316   4.075   1.213  0.3887  0.1660  0.4151
 2083SOL     OW 8097   0.781   5.116   2.280  0.3484  0.2129  0.4024
 2083SOL    HW2 8098   0.744   5.150   2.198  1.3143  0.0707 -0.1007
 2083SOL    HW3 8099   0.832   5.040   2.253 -2.0478 -1.9705  1.5376
 2083SOL    MW4 8100   0.783   5.111   2.265  0.1597 -0.0939  0.4858
 2084SOL     OW 8101   1.486   2.891   5.690 -0.0484  0.6058 -0.2208
 2084SOL    HW2 8102   1.535   2.864   5.612  0.4773 -1.5692  0.7908
 2084SOL    HW3 8103   1.553   2.921   5.752 -0.2952  0.5454  0.0774
 2084SOL    MW4 8104   1.502   2.892   5.688 -0.0116  0.3108 -0.0480
 2085SOL     OW 8105   2.233   0.291   2.656 -0.9330 -0.0192 -0.0973
 2085SOL    HW2 8106   2.248   0.308   2.749 -0.8251 -2.3199  0.3454
 2085SOL    HW3 8107   2.307   0.237   2.629 -2.4102 -1.7958 -0.7814
 2085SOL    MW4 8108   2.245   0.286   2.664 -1.1137 -0.5571 -0.1292
 2086SOL     OW 8109   0.190   1.621   0.406 -0.7608  0.3641  0.3398
 2086SOL    HW2 8110   0.104   1.621   0.449 -1.2959  0.6585 -0.7060
 2086SOL    HW3 8111   0.252   1.638   0.477 -1.6379  0.9855  0.9778
 2086SOL    MW4 8112   0.187   1.623   0.421 -0.9471  0.4849  0.2860
 2087SOL     OW 8113   3.260   4.602   5.158 -0.0615  0.3703 -0.0115
 2087SOL    HW2 8114   3.240   4.692   5.186 -2.2464 -0.2490  0.5688
 2087SOL    HW3 8115   3.175   4.560   5.150  0.9517 -2.1614  1.4112
 2087SOL    MW4 8116   3.247   4.609   5.161 -0.2161 -0.0455  0.2527
 2088SOL     OW 8117   2.564   2.310   4.538 -0.4254  0.3924  0.3843
 2088SOL    HW2 8118   2.620   2.247   4.584  0.0795  0.5827  0.0390
 2088SOL    HW3 8119   2.518   2.357   4.607  1.0706  1.3692  0.7505
 2088SOL    MW4 8120   2.565   2.308   4.553 -0.1614  0.5464  0.3871
 2089SOL     OW 8121   5.479   5.839   4.401  0.9766 -0.4175  0.8205
 2089SOL    HW2 8122   5.549   5.868   4.342 -0.3903  0.1714 -0.5783
 2089SOL    HW3 8123   5.447   5.920   4.441 -1.5974 -0.0220 -1.6853
 2089SOL    MW4 8124   5.484   5.853   4.398  0.4566 -0.2876  0.3053
 2090SOL     OW 8125   4.884   1.902   6.000  0.1984  0.0862  0.3793
 2090SOL    HW2 8126   4.915   1.944   5.920  1.5434 -1.2390  0.1553
 2090SOL    HW3 8127   4.933   1.820   6.005 -0.9636 -0.5816  1.7732
 2090SOL    MW4 8128   4.894   1.897   5.990  0.2225 -0.1768  0.5336
 2091SOL     OW 8129   4.438   5.468   0.354  0.1121  0.4473  0.2869
 2091SOL    HW2 8130   4.436   5.563   0.349 -1.6222  0.3875 -1.8684
 2091SOL    HW3 8131   4.389   5.447   0.434 -1.7706  1.3858 -0.5463
 2091SOL    MW4 8132   4.431   5.478   0.364 -0.3651  0.5632 -0.1074
 2092SOL     OW 8133   0.742   1.579   3.196 -0.2853 -0.6131 -0.0439
 2092SOL    HW2 8134   0.805   1.560   3.126 -0.5029  0.3966 -0.5231
 2092SOL    HW3 8135   0.701   1.661   3.171 -0.9315 -0.6301  0.8856
 2092SOL    MW4 8136   0.745   1.587   3.184 -0.3993 -0.4821  0.0155
 2093SOL     OW 8137   2.851   4.106   0.762 -0.3905 -0.0007  0.1914
 2093SOL    HW2 8138   2.899   4.076   0.684 -1.5971 -1.6183  0.0153
 2093SOL    HW3 8139   2.891   4.190   0.783  0.4299  0.1752 -1.7758
 2093SOL    MW4 8140   2.862   4.113   0.754 -0.4415 -0.1909 -0.0914
 2094SOL     OW 8141   4.233   4.864   2.472  0.7915  0.2555 -0.1007
 2094SOL    HW2 8142   4.203   4.913   2.395  0.9226  0.8099  0.1970
 2094SOL    HW3 8143   4.176   4.787   2.474  1.4309 -0.2794 -1.3177
 2094SOL    MW4 8144   4.221   4.861   2.462  0.8931  0.2581 -0.2220
 2095SOL     OW 8145   3.434   6.079   4.719 -0.2450  0.0261 -0.4212
 2095SOL    HW2 8146   3.445   6.132   4.798 -1.5066  0.3222 -0.4258
 2095SOL    HW3 8147   3.395   5.998   4.750  0.8875 -0.5718 -0.5275
 2095SOL    MW4 8148   3.430   6.076   4.734 -0.2621 -0.0137 -0.4358
 2096SOL     OW 8149   4.964   1.312   6.321 -0.1240 -0.4229 -0.0530
 2096SOL    HW2 8150   4.999   1.274   6.402 -0.3421 -0.1619  0.1648
 2096SOL    HW3 8151   5.041   1.351   6.278  0.0404 -0.7999 -0.1095
 2096SOL    MW4 8152   4.979   1.312   6.326 -0.1311 -0.4382 -0.0318
 2097SOL     OW 8153   2.239   5.388   2.638 -0.1964  0.0909 -0.5917
 2097SOL    HW2 8154   2.241   5.483   2.629  0.9847  0.0711 -0.6777
 2097SOL    HW3 8155   2.147   5.367   2.653 -0.7944  1.0719 -2.5070
 2097SOL    MW4 8156   2.227   5.398   2.639 -0.1194  0.2177 -0.8558
 2098SOL     OW 8157   2.390   2.782   0.946  0.0234 -0.3855  0.0880
 2098SOL    HW2 8158   2.363   2.729   0.871  0.5601 -0.3531 -0.1342
 2098SOL    HW3 8159   2.415   2.866   0.909  0.8377 -0.5561  0.2209
 2098SOL    MW4 8160   2.390   2.786   0.932  0.2017 -0.4037  0.0762
 2099SOL     OW 8161   4.050   6.077   3.823 -0.3507  0.1037  0.5096
 2099SOL    HW2 8162   4.042   5.986   3.796 -0.2298  0.4349 -0.6865
 2099SOL    HW3 8163   4.133   6.081   3.871  0.0808 -0.2435 -0.1954
 2099SOL    MW4 8164   4.060   6.066   3.826 -0.2778  0.1016  0.2588
 2100SOL     OW 8165   5.189   0.540   4.742  0.2318 -0.2128  0.0939
 2100SOL    HW2 8166   5.206   0.556   4.835  2.6746 -1.1188 -0.1358
 2100SOL    HW3 8167   5.145   0.456   4.740  0.7485 -0.4967  0.4092
 2100SOL    MW4 8168   5.186   0.531   4.754  0.6223 -0.3698  0.1052
 2101SOL     OW 8169   3.415   5.165   4.756  0.1191  0.1248  0.2072
 2101SOL    HW2 8170   3.456   5.098   4.811  0.3322  0.6157  0.6552
 2101SOL    HW3 8171   3.327   5.131   4.737  0.4182 -0.5300 -0.0291
 2101SOL    MW4 8172   3.409   5.151   4.761  0.1867  0.1031  0.2351
 2102SOL     OW 8173   1.059   0.289   5.488  0.3579  0.2803 -0.1803
 2102SOL    HW2 8174   1.025   0.233   5.418  0.6343 -1.4386  0.9741
 2102SOL    HW3 8175   1.055   0.233   5.566  1.0063  1.7852  0.9742
 2102SOL    MW4 8176   1.054   0.274   5.489  0.4799  0.2521  0.1243
 2103SOL     OW 8177   1.740   4.615   1.187  0.8855 -0.0438 -0.2439
 2103SOL    HW2 8178   1.692   4.619   1.270  2.4044 -3.4308  0.9817
 2103SOL    HW3 8179   1.683   4.566   1.128  0.8322  0.2162 -0.4116
 2103SOL    MW4 8180   1.726   4.609   1.190  1.0789 -0.4564 -0.1043
 2104SOL     OW 8181   3.000   6.197   2.706 -0.3464  0.0753  0.5457
 2104SOL    HW2 8182   2.939   6.147   2.760  0.0112 -0.8366  0.1174
 2104SOL    HW3 8183   3.059   6.132   2.669 -0.4890  0.6974 -0.8355
 2104SOL    MW4 8184   2.999   6.182   2.708 -0.3181  0.0370  0.3070
 2105SOL     OW 8185   2.081   0.675   5.570  0.0169  0.2056  0.2975
 2105SOL    HW2 8186   2.004   0.692   5.624 -0.0701  1.6970 -0.2588
 2105SOL    HW3 8187   2.151   0.723   5.614  0.2937  0.1423 -0.0760
 2105SOL    MW4 8188   2.080   0.683   5.583  0.0419  0.3940  0.1748
 2106SOL     OW 8189   0.608   4.787   0.807  0.2102 -0.0549 -0.0343
 2106SOL    HW2 8190   0.592   4.757   0.897  4.3785 -0.7928  0.6736
 2106SOL    HW3 8191   0.674   4.857   0.817 -0.2108  0.7751 -2.4634
 2106SOL    MW4 8192   0.615   4.792   0.821  0.7046 -0.0427 -0.2614
 2107SOL     OW 8193   5.950   3.276   2.242 -0.9506 -0.4571 -0.2647
 2107SOL    HW2 8194   5.999   3.195   2.226  1.1662  0.2613  1.9551
 2107SOL    HW3 8195   5.992   3.341   2.185  1.5045  0.3677  2.2747
 2107SOL    MW4 8196   5.962   3.274   2.232 -0.3473 -0.2535  0.3632
 2108SOL     OW 8197   5.737   6.200   5.750 -0.4493 -0.3194  0.0339
 2108SOL    HW2 8198   5.725   6.107   5.768  0.4731 -0.4622 -0.0423
 2108SOL    HW3 8199   5.781   6.234   5.828  2.0131 -0.5932 -1.1436
 2108SOL    MW4 8200   5.742   6.192   5.762 -0.0027 -0.3743 -0.1315
 2109SOL     OW 8201   5.095   3.967   4.432  0.0192 -0.1482 -0.2928
 2109SOL    HW2 8202   5.059   4.029   4.496 -0.6689 -0.3574 -0.4659
 2109SOL    HW3 8203   5.073   3.881   4.468 -0.0077 -0.2724 -0.6078
 2109SOL    MW4 8204   5.087   3.964   4.445 -0.0752 -0.1922 -0.3572
 2110SOL     OW 8205   0.708   4.409   0.827  0.6992 -0.5732 -0.2772
 2110SOL    HW2 8206   0.797   4.374   0.820  0.1574 -2.3398  0.9341
 2110SOL    HW3 8207   0.656   4.356   0.767  0.1412 -0.8504  0.4350
 2110SOL    MW4 8208   0.713   4.398   0.818  0.5541 -0.8429 -0.0234
 2111SOL     OW 8209   4.757   4.229   5.292  0.1694  0.5572 -0.0228
 2111SOL    HW2 8210   4.782   4.140   5.317  0.4186  0.5037 -0.4577
 2111SOL    HW3 8211   4.763   4.279   5.373  2.1763  0.6667 -0.2031
 2111SOL    MW4 8212   4.761   4.224   5.306  0.4670  0.5646 -0.1040
 2112SOL     OW 8213   2.115   6.355   4.339  0.5970 -0.0854  0.4186
 2112SOL    HW2 8214   2.089   6.424   4.401  1.2773  0.2977  0.2901
 2112SOL    HW3 8215   2.198   6.386   4.303  0.0270 -0.1237 -0.9660
 2112SOL    MW4 8216   2.123   6.368   4.343  0.6115 -0.0399  0.2189
 2113SOL     OW 8217   0.684   1.992   0.081 -0.0994  0.0762 -0.2775
 2113SOL    HW2 8218   0.633   2.022   0.157  1.2984  2.0363 -0.0414
 2113SOL    HW3 8219   0.619   1.956   0.022 -1.3237 -0.8459  1.5257
 2113SOL    MW4 8220   0.669   1.991   0.083 -0.0765  0.2131 -0.0085
 2114SOL     OW 8221   2.991   2.137   2.502 -0.4520  0.1627  0.3810
 2114SOL    HW2 8222   3.052   2.106   2.435  0.0371  1.8293  0.0040
 2114SOL    HW3 8223   2.983   2.064   2.563  0.4865 -0.7545 -0.5517
 2114SOL    MW4 8224   2.998   2.123   2.501 -0.2636  0.2616  0.2082
 2115SOL     OW 8225   1.026   1.939   1.803  0.0096 -0.5240 -0.2466
 2115SOL    HW2 8226   1.043   2.016   1.858 -1.9237  0.0626 -0.3858
 2115SOL    HW3 8227   1.045   1.967   1.714 -0.6686 -0.2021 -0.2938
 2115SOL    MW4 8228   1.031   1.953   1.799 -0.3350 -0.4042 -0.2712
 2116SOL     OW 8229   3.002   2.496   4.467  0.0960  0.0089 -0.2893
 2116SOL    HW2 8230   3.018   2.412   4.424  2.1473  0.0019  0.3907
 2116SOL    HW3 8231   2.975   2.473   4.556 -0.1000  0.0542 -0.3378
 2116SOL    MW4 8232   3.001   2.482   4.473  0.3408  0.0140 -0.2060
 2117SOL     OW 8233   1.810   5.521   5.602  0.1285  0.5863  0.3053
 2117SOL    HW2 8234   1.745   5.518   5.531 -0.3809  1.3252  0.7300
 2117SOL    HW3 8235   1.865   5.445   5.586 -0.7615  0.0101 -0.1395
 2117SOL    MW4 8236   1.808   5.511   5.590 -0.0561  0.6078  0.3027
 2118SOL     OW 8237   3.468   3.784   3.567  0.0809 -0.0463  0.3227
 2118SOL    HW2 8238   3.459   3.855   3.630 -0.2438  0.7868 -0.6372
 2118SOL    HW3 8239   3.399   3.722   3.591  0.2422  0.0525  1.0477
 2118SOL    MW4 8240   3.458   3.785   3.578  0.0593  0.0767  0.2917
 2119SOL     OW 8241   4.610   2.206   2.813  0.0916  0.0365 -0.3901
 2119SOL    HW2 8242   4.669   2.273   2.848  0.1705  0.9579 -2.1747
 2119SOL    HW3 8243   4.547   2.192   2.883  0.2299  1.7965  0.1465
 2119SOL    MW4 8244   4.610   2.213   2.827  0.1203  0.3903 -0.5547
 2120SOL     OW 8245   4.444   0.706   2.804 -0.2006 -0.4032  0.0420
 2120SOL    HW2 8246   4.392   0.781   2.831 -0.2016 -0.7852  1.1778
 2120SOL    HW3 8247   4.529   0.720   2.845  0.4301 -0.0596 -1.3461
 2120SOL    MW4 8248   4.448   0.718   2.813 -0.1175 -0.4083  0.0087
 2121SOL     OW 8249   6.066   1.280   3.483  0.4154 -0.2146  0.1454
 2121SOL    HW2 8250   6.015   1.214   3.529  0.2913  0.4954  1.0549
 2121SOL    HW3 8251   6.154   1.242   3.477  0.1058 -0.8816 -0.2492
 2121SOL    MW4 8252   6.071   1.266   3.488  0.3582 -0.2089  0.2134
 2122SOL     OW 8253   0.231   2.397   4.203 -0.4552  0.2387  0.6337
 2122SOL    HW2 8254   0.244   2.378   4.296 -1.3939  1.7927  1.1259
 2122SOL    HW3 8255   0.165   2.334   4.174  0.3808 -0.7415  0.8064
 2122SOL    MW4 8256   0.224   2.387   4.211 -0.4687  0.3144  0.7214
 2123SOL     OW 8257   0.774   0.003   3.582  0.3312  0.1943  0.0720
 2123SOL    HW2 8258   0.773  -0.007   3.487  1.3393  1.1992 -0.0535
 2123SOL    HW3 8259   0.749   0.094   3.597  0.8223  0.2223  0.7461
 2123SOL    MW4 8260   0.770   0.014   3.572  0.5290  0.3306  0.1444
 2124SOL     OW 8261   0.886   0.388   2.675  0.0035  0.7133  0.3139
 2124SOL    HW2 8262   0.893   0.309   2.621 -0.2045  1.6134 -1.0810
 2124SOL    HW3 8263   0.954   0.377   2.741 -1.0652 -1.3697  1.1655
 2124SOL    MW4 8264   0.896   0.376   2.676 -0.1650  0.5572  0.2422
 2125SOL     OW 8265   4.720   2.750   3.089 -0.1577  0.9949  0.2906
 2125SOL    HW2 8266   4.776   2.751   3.167 -1.1651  0.2647  1.0641
 2125SOL    HW3 8267   4.780   2.752   3.015  0.8736  0.5954  1.0968
 2125SOL    MW4 8268   4.735   2.750   3.090 -0.1546  0.8459  0.4990
 2126SOL     OW 8269   4.420   1.316   3.639  0.7793 -0.2061  0.7724
 2126SOL    HW2 8270   4.443   1.282   3.725  0.6469 -1.0132  0.4938
 2126SOL    HW3 8271   4.455   1.405   3.638  2.4918 -0.8483  0.9326
 2126SOL    MW4 8272   4.427   1.323   3.650  0.9878 -0.3973  0.7568
 2127SOL     OW 8273   2.179   5.075   1.062  0.0877 -0.3359 -0.5158
 2127SOL    HW2 8274   2.235   5.050   1.136 -0.7233 -2.1459 -0.4534
 2127SOL    HW3 8275   2.163   5.168   1.074  0.0027 -0.5724  1.5875
 2127SOL    MW4 8276   2.185   5.084   1.074 -0.0305 -0.6059 -0.2301
 2128SOL     OW 8277   0.541   3.461   0.209 -0.6098  0.0915  0.3128
 2128SOL    HW2 8278   0.561   3.456   0.302 -1.1046  3.8497  0.7597
 2128SOL    HW3 8279   0.625   3.449   0.165 -0.0911 -0.0686  1.3308
 2128SOL    MW4 8280   0.554   3.459   0.216 -0.6066  0.5662  0.5061
 2129SOL     OW 8281   3.275   6.128   3.885  0.5641  0.4414  0.3815
 2129SOL    HW2 8282   3.361   6.090   3.871 -0.3981 -0.9321 -2.4474
 2129SOL    HW3 8283   3.266   6.194   3.816 -1.4826 -1.0859 -0.9234
 2129SOL    MW4 8284   3.285   6.132   3.874  0.1671  0.0587 -0.1639
 2130SOL     OW 8285   0.493   4.045   2.413 -0.3936 -0.4651 -0.3634
 2130SOL    HW2 8286   0.474   4.086   2.497 -0.1117  1.2220 -1.0908
 2130SOL    HW3 8287   0.462   4.107   2.348  1.1249 -0.8491 -1.5249
 2130SOL    MW4 8288   0.487   4.058   2.416 -0.1560 -0.2931 -0.6126
 2131SOL     OW 8289   3.780   1.566   1.296  0.6616 -0.2378 -0.1019
 2131SOL    HW2 8290   3.699   1.551   1.247  1.1516  2.6092 -2.0322
 2131SOL    HW3 8291   3.750   1.595   1.382 -0.2656 -1.8070  0.1543
 2131SOL    MW4 8292   3.765   1.568   1.301  0.6039 -0.0692 -0.3228
 2132SOL     OW 8293   5.416   3.252   5.746  0.1411  0.3365  0.3159
 2132SOL    HW2 8294   5.398   3.312   5.674 -0.3103 -0.5015 -0.2862
 2132SOL    HW3 8295   5.371   3.171   5.722  1.2492 -0.4588  0.8132
 2132SOL    MW4 8296   5.408   3.249   5.734  0.2277  0.1210  0.3021
 2133SOL     OW 8297   1.573   0.743   5.918  0.6294 -0.2965 -0.5241
 2133SOL    HW2 8298   1.587   0.660   5.872 -2.3625 -0.5450 -1.2402
 2133SOL    HW3 8299   1.569   0.809   5.848 -0.4061 -0.1122 -0.3048
 2133SOL    MW4 8300   1.574   0.741   5.903  0.0980 -0.3050 -0.5896
 2134SOL     OW 8301   3.689   2.076   6.310 -0.0511 -0.0967 -0.6663
 2134SOL    HW2 8302   3.664   2.160   6.349 -0.1787 -0.8381  0.9306
 2134SOL    HW3 8303   3.629   2.066   6.236 -1.8108  0.0464  0.6638
 2134SOL    MW4 8304   3.678   2.086   6.305 -0.3001 -0.1756 -0.2801
 2135SOL     OW 8305   5.857   5.156   3.416  0.5167 -0.9393  0.3167
 2135SOL    HW2 8306   5.922   5.187   3.353  1.2032 -2.5183  0.2078
 2135SOL    HW3 8307   5.820   5.236   3.453  1.3243  0.0056 -0.8330
 2135SOL    MW4 8308   5.860   5.171   3.412  0.7138 -1.0229  0.1506
 2136SOL     OW 8309   3.012   0.554   2.083  0.0797  0.4811  0.2108
 2136SOL    HW2 8310   3.089   0.611   2.080 -0.4434  1.1579 -0.9436
 2136SOL    HW3 8311   2.989   0.551   2.176  0.5105  1.6385  0.3799
 2136SOL    MW4 8312   3.020   0.561   2.095  0.0675  0.7231  0.0808
 2137SOL     OW 8313   5.563   4.734   0.882 -0.2743 -0.1825  0.3394
 2137SOL    HW2 8314   5.515   4.815   0.900 -1.7601 -0.4772 -1.9595
 2137SOL    HW3 8315   5.578   4.696   0.969 -2.4364  0.9241  1.2823
 2137SOL    MW4 8316   5.559   4.740   0.896 -0.7556 -0.0754  0.1605
 2138SOL     OW 8317   3.230   0.442   4.860  0.7207  0.3437 -0.0652
 2138SOL    HW2 8318   3.139   0.423   4.881  0.6945  1.4143  0.8903
 2138SOL    HW3 8319   3.229   0.473   4.769 -0.0484  1.4651  0.3059
 2138SOL    MW4 8320   3.218   0.444   4.851  0.6158  0.6329  0.1098
 2139SOL     OW 8321   1.726   5.204   4.203 -0.1339  0.4399  0.0778
 2139SOL    HW2 8322   1.695   5.281   4.154  0.8690  1.0938  0.4485
 2139SOL    HW3 8323   1.779   5.156   4.140  0.5241  0.8784  0.2908
 2139SOL    MW4 8324   1.729   5.208   4.188  0.0853  0.5840  0.1548
 2140SOL     OW 8325   0.891   0.501   3.479 -0.0118 -0.4245  0.1973
 2140SOL    HW2 8326   0.901   0.430   3.542  0.0622 -0.9278 -0.3856
 2140SOL    HW3 8327   0.900   0.460   3.393  1.6904  0.5381 -0.1232
 2140SOL    MW4 8328   0.893   0.487   3.476  0.2226 -0.3639  0.0781
 2141SOL     OW 8329   2.918   1.784   5.386  0.4379  0.1735 -0.2887
 2141SOL    HW2 8330   2.976   1.854   5.358 -1.1810  1.2219 -1.1838
 2141SOL    HW3 8331   2.831   1.825   5.388 -0.3126 -1.3852  0.7778
 2141SOL    MW4 8332   2.914   1.799   5.383  0.1253  0.1062 -0.2661
 2142SOL     OW 8333   3.325   4.205   0.781  0.2825  0.1768 -0.0235
 2142SOL    HW2 8334   3.279   4.232   0.702 -1.0979  0.4943  0.8425
 2142SOL    HW3 8335   3.255   4.195   0.847  1.3896  0.0007  1.1648
 2142SOL    MW4 8336   3.310   4.208   0.779  0.2464  0.1954  0.2475
 2143SOL     OW 8337   2.633   5.107   0.141 -0.0346  0.1340  0.7768
 2143SOL    HW2 8338   2.617   5.036   0.203 -0.2336 -0.2420  0.2931
 2143SOL    HW3 8339   2.586   5.182   0.179  1.0102  0.3046  1.8180
 2143SOL    MW4 8340   2.624   5.108   0.154  0.0770  0.1069  0.8503
 2144SOL     OW 8341   1.598   5.884   4.295 -0.2669 -0.5404 -0.2544
 2144SOL    HW2 8342   1.559   5.830   4.363  1.3330 -1.5333 -0.0874
 2144SOL    HW3 8343   1.675   5.923   4.336  0.8370 -1.3041 -1.5173
 2144SOL    MW4 8344   1.603   5.882   4.309  0.0898 -0.7722 -0.3990
 2145SOL     OW 8345   0.006   5.127   2.068  0.2255  0.1891  0.5757
 2145SOL    HW2 8346  -0.047   5.204   2.089  0.4295  0.5883 -0.3753
 2145SOL    HW3 8347   0.091   5.145   2.107  0.2414  0.3903  0.4448
 2145SOL    MW4 8348   0.010   5.139   2.076  0.2545  0.2683  0.4330
 2146SOL     OW 8349   1.301   0.762   2.861  0.1857 -0.1678  0.2634
 2146SOL    HW2 8350   1.359   0.788   2.933  2.4599 -0.4103 -1.3423
 2146SOL    HW3 8351   1.301   0.837   2.802 -1.4284 -0.0772  0.3350
 2146SOL    MW4 8352   1.309   0.775   2.863  0.2728 -0.1879  0.0610
 2147SOL     OW 8353   4.089   0.862   6.079  0.5385 -0.1530  0.0260
 2147SOL    HW2 8354   4.029   0.934   6.095 -0.9973 -1.3049 -0.2318
 2147SOL    HW3 8355   4.157   0.871   6.146 -0.0746  1.0326  0.5110
 2147SOL    MW4 8356   4.090   0.872   6.090  0.2550 -0.1485  0.0560
 2148SOL     OW 8357   3.285   1.757   2.586 -0.0107  0.0501 -0.5327
 2148SOL    HW2 8358   3.249   1.698   2.520  0.5024 -1.2521  0.3160
 2148SOL    HW3 8359   3.218   1.826   2.595 -0.4557 -0.1873 -1.7977
 2148SOL    MW4 8360   3.271   1.758   2.578 -0.0017 -0.1530 -0.5877
 2149SOL     OW 8361   1.496   1.731   6.170  0.1272  0.3225 -0.0125
 2149SOL    HW2 8362   1.543   1.773   6.242  3.3883  1.0951 -2.3549
 2149SOL    HW3 8363   1.546   1.652   6.151 -1.5233 -0.6495 -0.5528
 2149SOL    MW4 8364   1.508   1.727   6.177  0.3397  0.2962 -0.3929
 2150SOL     OW 8365   4.073   5.134   6.135  0.5968  0.0592  0.1631
 2150SOL    HW2 8366   4.078   5.223   6.171  2.0414 -0.3126  0.9296
 2150SOL    HW3 8367   4.082   5.077   6.212 -0.6146 -0.7751 -0.2836
 2150SOL    MW4 8368   4.075   5.138   6.150  0.6276 -0.0999  0.2053
 2151SOL     OW 8369   1.131   4.687   2.843 -0.3087 -0.3038  0.1781
 2151SOL    HW2 8370   1.109   4.703   2.935 -2.0675  0.0303 -0.2644
 2151SOL    HW3 8371   1.050   4.702   2.796  1.0837  1.8046 -1.7454
 2151SOL    MW4 8372   1.118   4.691   2.849 -0.3571  0.0185 -0.1341
 2152SOL     OW 8373   4.889   3.519   5.354 -0.3293 -0.4096 -0.4691
 2152SOL    HW2 8374   4.905   3.498   5.446 -0.9930 -0.0741 -0.2681
 2152SOL    HW3 8375   4.959   3.474   5.306 -0.0748 -0.7203  0.1830
 2152SOL    MW4 8376   4.901   3.510   5.360 -0.3833 -0.4064 -0.3566
 2153SOL     OW 8377   4.882   1.578   0.777  0.3366 -0.0325  0.3916
 2153SOL    HW2 8378   4.789   1.570   0.799 -0.0699 -0.0723 -1.2452
 2153SOL    HW3 8379   4.918   1.637   0.844 -0.6987 -0.5554  1.4442
 2153SOL    MW4 8380   4.875   1.585   0.789  0.1463 -0.1068  0.3146
 2154SOL     OW 8381   2.817   5.583   1.279  0.2208  0.7089 -0.0503
 2154SOL    HW2 8382   2.744   5.642   1.296 -0.9481 -0.4861 -0.7239
 2154SOL    HW3 8383   2.784   5.496   1.301  1.1505  0.0351 -1.1523
 2154SOL    MW4 8384   2.803   5.580   1.284  0.1892  0.4623 -0.2846
 2155SOL     OW 8385   3.929   5.809   0.648  0.4834 -0.4259  0.1597
 2155SOL    HW2 8386   3.880   5.891   0.647  0.9194 -0.1457 -1.5996
 2155SOL    HW3 8387   3.978   5.811   0.730  1.4347  1.6544 -0.4001
 2155SOL    MW4 8388   3.929   5.820   0.659  0.6665 -0.1145 -0.1462
 2156SOL     OW 8389   2.123   5.115   3.598 -0.0781 -0.3442 -0.1821
 2156SOL    HW2 8390   2.129   5.124   3.693 -2.1498  2.0913 -0.1877
 2156SOL    HW3 8391   2.175   5.188   3.564  0.1132 -0.8227 -0.9398
 2156SOL    MW4 8392   2.131   5.125   3.606 -0.3262 -0.0860 -0.2828
 2157SOL     OW 8393   0.493   3.237   2.198 -0.1860 -0.8926  0.0976
 2157SOL    HW2 8394   0.403   3.232   2.229 -0.0514 -3.3208  0.2893
 2157SOL    HW3 8395   0.492   3.191   2.114  1.1423 -2.6076  0.9375
 2157SOL    MW4 8396   0.481   3.230   2.191  0.0070 -1.4393  0.2337
 2158SOL     OW 8397   5.887   1.748   3.237  0.2089 -0.3006  0.4467
 2158SOL    HW2 8398   5.927   1.761   3.323  0.8331 -0.1667  0.1416
 2158SOL    HW3 8399   5.884   1.835   3.198 -0.4362 -0.3021  0.4846
 2158SOL    MW4 8400   5.892   1.761   3.243  0.2061 -0.2831  0.4115
 2159SOL     OW 8401   2.468   0.770   1.985  0.1589  0.4516 -0.0923
 2159SOL    HW2 8402   2.558   0.801   1.974  1.0953 -1.7709  0.7239
 2159SOL    HW3 8403   2.422   0.844   2.024  1.4249  1.8828 -1.1821
 2159SOL    MW4 8404   2.474   0.784   1.989  0.4495  0.3472 -0.1284
 2160SOL     OW 8405   1.579   5.999   4.008  0.0595  0.0412 -0.0697
 2160SOL    HW2 8406   1.598   6.091   4.028  1.2299 -0.2938  0.4054
 2160SOL    HW3 8407   1.590   5.953   4.092  0.1261 -0.6343 -0.4414
 2160SOL    MW4 8408   1.583   6.005   4.022  0.2227 -0.0921 -0.0560
 2161SOL     OW 8409   4.415   0.363   2.651  0.1461 -0.9865  0.1946
 2161SOL    HW2 8410   4.490   0.415   2.622 -0.8442 -0.0228 -0.7718
 2161SOL    HW3 8411   4.434   0.341   2.742  1.4518 -0.5033  0.0571
 2161SOL    MW4 8412   4.427   0.367   2.659  0.1877 -0.7956  0.0490
 2162SOL     OW 8413   6.149   6.193   6.390 -0.1455  0.0506 -0.1927
 2162SOL    HW2 8414   6.174   6.220   6.479  1.2860 -0.4346 -0.4173
 2162SOL    HW3 8415   6.072   6.137   6.403 -0.1986  0.3082  0.7039
 2162SOL    MW4 8416   6.142   6.189   6.404  0.0364  0.0206 -0.1040
 2163SOL     OW 8417   3.546   5.017   0.284 -0.2099 -0.3329  0.0008
 2163SOL    HW2 8418   3.530   4.946   0.222  0.8797 -0.1448 -0.5277
 2163SOL    HW3 8419   3.551   4.975   0.369 -1.1071 -0.6808 -0.1145
 2163SOL    MW4 8420   3.545   5.002   0.287 -0.1845 -0.3540 -0.0842
 2164SOL     OW 8421   5.155   3.608   4.813 -0.6718 -0.0602  0.3512
 2164SOL    HW2 8422   5.219   3.551   4.856  0.8198 -0.8599 -2.6727
 2164SOL    HW3 8423   5.206   3.683   4.783 -1.2964 -0.2645 -1.3234
 2164SOL    MW4 8424   5.170   3.611   4.815 -0.5574 -0.1926 -0.2687
 2165SOL     OW 8425   3.465   3.036   1.868  0.2149  0.6457 -0.4341
 2165SOL    HW2 8426   3.559   3.040   1.885  0.2048  0.2970 -0.2742
 2165SOL    HW3 8427   3.449   3.103   1.801  0.3134  1.7980  0.6593
 2165SOL    MW4 8428   3.475   3.045   1.861  0.2266  0.7517 -0.2687
 2166SOL     OW 8429   2.436   0.869   1.492 -0.0374 -0.4405  0.2285
 2166SOL    HW2 8430   2.516   0.823   1.465  0.2581  0.2610 -0.1414
 2166SOL    HW3 8431   2.468   0.943   1.544 -0.3788  0.3081 -0.5939
 2166SOL    MW4 8432   2.451   0.873   1.495 -0.0434 -0.2492  0.0712
 2167SOL     OW 8433   4.073   4.021   1.047  0.0614  0.6701 -0.1126
 2167SOL    HW2 8434   4.089   3.961   0.974 -0.8127  1.5078 -1.0327
 2167SOL    HW3 8435   4.149   4.079   1.048  0.6048 -0.0379  0.3705
 2167SOL    MW4 8436   4.085   4.021   1.037  0.0178  0.6872 -0.1703
 2168SOL     OW 8437   5.224   0.287   3.321 -0.4040  0.7795  0.9284
 2168SOL    HW2 8438   5.206   0.261   3.231 -1.2721  0.0565  1.2865
 2168SOL    HW3 8439   5.179   0.371   3.332 -1.2129  0.3544  0.9797
 2168SOL    MW4 8440   5.215   0.295   3.311 -0.6253  0.6280  0.9824
 2169SOL     OW 8441   5.980   0.932   6.420 -0.5476  0.0923  0.8147
 2169SOL    HW2 8442   6.029   0.851   6.437 -1.6179 -1.2107 -1.7288
 2169SOL    HW3 8443   5.931   0.947   6.501  0.0996 -1.5037  1.5569
 2169SOL    MW4 8444   5.980   0.923   6.433 -0.6034 -0.2902  0.5771
 2170SOL     OW 8445   4.206   5.983   0.087 -0.5132 -0.3474 -0.2134
 2170SOL    HW2 8446   4.211   5.911   0.150 -0.4857  0.4593  0.7162
 2170SOL    HW3 8447   4.113   6.005   0.083 -0.7447 -1.4357 -1.6733
 2170SOL    MW4 8448   4.194   5.976   0.095 -0.5401 -0.3846 -0.2834
 2171SOL     OW 8449   3.511   4.702   5.726  0.1600  0.3364  0.1695
 2171SOL    HW2 8450   3.497   4.785   5.681 -0.7639  0.9706  1.5468
 2171SOL    HW3 8451   3.593   4.669   5.691 -0.1417  1.1521 -1.3947
 2171SOL    MW4 8452   3.520   4.709   5.716 -0.0017  0.5277  0.1448
 2172SOL     OW 8453   0.442   3.076   4.973 -0.2329 -0.3983 -0.2029
 2172SOL    HW2 8454   0.478   3.157   5.007 -1.7596  0.8643 -1.4395
 2172SOL    HW3 8455   0.429   3.021   5.050 -1.1222  1.3361  0.9304
 2172SOL    MW4 8456   0.445   3.079   4.987 -0.5517 -0.0029 -0.2165
 2173SOL     OW 8457   3.943   4.159   6.129 -0.1997  0.5265  0.4125
 2173SOL    HW2 8458   4.035   4.133   6.125 -0.9869 -2.5975 -0.1542
 2173SOL    HW3 8459   3.923   4.164   6.222  0.7594  2.4836  0.5773
 2173SOL    MW4 8460   3.953   4.156   6.141 -0.1770  0.3725  0.3595
 2174SOL     OW 8461   4.564   4.410   1.812  0.2896  0.7258  0.2346
 2174SOL    HW2 8462   4.638   4.424   1.872 -0.3735  2.1052  0.7593
 2174SOL    HW3 8463   4.492   4.459   1.851 -0.5616  0.4335 -0.9357
 2174SOL    MW4 8464   4.564   4.419   1.825  0.0898  0.8693  0.1494
 2175SOL     OW 8465   4.313   0.600   4.958 -0.0388 -0.1032 -0.5612
 2175SOL    HW2 8466   4.233   0.574   5.005  0.3744  0.7074  0.6395
 2175SOL    HW3 8467   4.381   0.602   5.026  0.5385  1.3340 -1.1457
 2175SOL    MW4 8468   4.312   0.596   4.973  0.0919  0.1934 -0.4799
 2176SOL     OW 8469   3.015   5.302   2.185 -0.3917 -0.1012  0.4864
 2176SOL    HW2 8470   3.081   5.281   2.252 -0.5130  0.7124  0.8758
 2176SOL    HW3 8471   2.935   5.317   2.234 -0.4333  0.7092  0.1800
 2176SOL    MW4 8472   3.013   5.301   2.201 -0.4132  0.1131  0.4973
 2177SOL     OW 8473   2.197   0.834   3.623 -0.2877  0.1439  0.1639
 2177SOL    HW2 8474   2.254   0.758   3.635  2.5727  1.9963 -0.6759
 2177SOL    HW3 8475   2.175   0.862   3.712 -0.9510 -1.3008  0.4807
 2177SOL    MW4 8476   2.202   0.828   3.636  0.0022  0.1977  0.0949
 2178SOL     OW 8477   1.472   3.471   2.266 -0.4394  0.3451 -0.2647
 2178SOL    HW2 8478   1.476   3.476   2.361  0.8469  1.2871 -0.3350
 2178SOL    HW3 8479   1.520   3.392   2.243 -1.4375 -0.3221 -0.1153
 2178SOL    MW4 8480   1.479   3.462   2.276 -0.4013  0.3814 -0.2543
 2179SOL     OW 8481   0.120   5.677   5.806 -0.2046  0.0355 -0.4428
 2179SOL    HW2 8482   0.172   5.607   5.768 -1.3981 -1.3632  0.3991
 2179SOL    HW3 8483   0.034   5.669   5.765 -0.8432 -0.0656  0.8580
 2179SOL    MW4 8484   0.115   5.667   5.796 -0.4463 -0.1624 -0.1601
 2180SOL     OW 8485   0.112   6.328   0.310  0.1544  0.1045 -0.1287
 2180SOL    HW2 8486   0.075   6.408   0.273 -1.7229 -0.4900  0.3555
 2180SOL    HW3 8487   0.122   6.347   0.403 -1.5497 -0.6138  0.2356
 2180SOL    MW4 8488   0.109   6.341   0.317 -0.3181 -0.0687 -0.0168
 2181SOL     OW 8489   4.381   3.306   5.827 -0.1494  0.2563 -0.1317
 2181SOL    HW2 8490   4.434   3.253   5.887 -2.9091 -2.6163  0.0110
 2181SOL    HW3 8491   4.416   3.286   5.740  1.4640  1.5410  0.1710
 2181SOL    MW4 8492   4.393   3.297   5.823 -0.3006  0.0468 -0.0730
 2182SOL     OW 8493   5.024   3.459   5.604  0.3757 -0.2203  0.0300
 2182SOL    HW2 8494   5.094   3.478   5.667 -0.8450 -0.0498  1.3844
 2182SOL    HW3 8495   4.964   3.401   5.652 -0.6931  0.0885 -0.8991
 2182SOL    MW4 8496   5.025   3.454   5.619  0.0736 -0.1571  0.0861
 2183SOL     OW 8497   1.013   6.118   1.221 -0.3768 -0.6768  0.0919
 2183SOL    HW2 8498   0.933   6.120   1.169  0.6550  1.7473 -1.5463
 2183SOL    HW3 8499   1.081   6.092   1.159  0.5885  0.4207  0.6621
 2183SOL    MW4 8500   1.011   6.115   1.206 -0.1133 -0.2122 -0.0490
 2184SOL     OW 8501   5.421   5.590   4.326  0.5536 -0.3858  0.6777
 2184SOL    HW2 8502   5.458   5.657   4.382 -0.9628  0.0458  1.1882
 2184SOL    HW3 8503   5.413   5.513   4.382  1.4389 -0.7349  0.3392
 2184SOL    MW4 8504   5.425   5.588   4.341  0.4703 -0.3749  0.7004
 2185SOL     OW 8505   0.991   3.865   4.329 -0.0786  0.3025  0.2871
 2185SOL    HW2 8506   0.943   3.831   4.404  0.1543 -1.1586 -0.1920
 2185SOL    HW3 8507   0.995   3.791   4.268 -0.2076  1.4321 -1.1329
 2185SOL    MW4 8508   0.985   3.851   4.331 -0.0649  0.2588  0.0365
 2186SOL     OW 8509   3.103   6.026   0.174  0.3228 -0.1655 -0.3855
 2186SOL    HW2 8510   3.014   6.023   0.136 -0.1745 -0.3168  0.7625
 2186SOL    HW3 8511   3.133   6.115   0.155  0.2255 -0.3298 -1.4066
 2186SOL    MW4 8512   3.095   6.038   0.166  0.2444 -0.2071 -0.3687
 2187SOL     OW 8513   4.895   0.647   0.515 -0.2747 -0.0090  0.0676
 2187SOL    HW2 8514   4.828   0.624   0.451  1.3793 -0.4099 -1.6226
 2187SOL    HW3 8515   4.977   0.617   0.475  1.2408  2.8052  0.8261
 2187SOL    MW4 8516   4.897   0.640   0.501  0.1435  0.3094 -0.0553
 2188SOL     OW 8517   3.542   6.062   0.372  0.2358  0.1081  0.5629
 2188SOL    HW2 8518   3.558   5.967   0.368  1.4617  0.3031  0.5054
 2188SOL    HW3 8519   3.456   6.070   0.415 -0.0645 -1.0341  0.2128
 2188SOL    MW4 8520   3.532   6.050   0.377  0.3579 -0.0168  0.5092
 2189SOL     OW 8521   2.574   4.703   1.713 -0.6703  0.0165 -0.3981
 2189SOL    HW2 8522   2.658   4.714   1.757 -0.4086 -2.1809 -0.2096
 2189SOL    HW3 8523   2.597   4.669   1.626 -1.3296 -0.0745 -0.5382
 2189SOL    MW4 8524   2.588   4.700   1.707 -0.7228 -0.2854 -0.3917
 2190SOL     OW 8525   1.040   0.162   2.972  0.5792  0.0701 -0.2996
 2190SOL    HW2 8526   0.963   0.108   2.959  1.9190 -2.3736  1.1188
 2190SOL    HW3 8527   1.074   0.178   2.884 -0.4400 -0.5366 -0.8094
 2190SOL    MW4 8528   1.035   0.157   2.959  0.6215 -0.3324 -0.1797
 2191SOL     OW 8529   6.273   1.873   3.217 -0.2524  0.3985 -0.9268
 2191SOL    HW2 8530   6.200   1.818   3.191  0.0647 -0.1739 -0.6267
 2191SOL    HW3 8531   6.343   1.812   3.241  0.1520  0.9259 -0.7188
 2191SOL    MW4 8532   6.273   1.858   3.217 -0.1572  0.3926 -0.8598
 2192SOL     OW 8533   2.047   4.817   4.425  0.4511  0.8366 -0.0261
 2192SOL    HW2 8534   2.054   4.866   4.343  1.1312 -0.9604 -1.1080
 2192SOL    HW3 8535   2.120   4.755   4.422  1.6539  1.9485  2.8596
 2192SOL    MW4 8536   2.057   4.815   4.414  0.6995  0.7462  0.2119
 2193SOL     OW 8537   5.664   1.148   5.316 -0.2959  0.2951 -0.0524
 2193SOL    HW2 8538   5.651   1.098   5.236  0.7741 -0.2720  0.1063
 2193SOL    HW3 8539   5.672   1.239   5.287 -1.6815  0.3296 -0.3959
 2193SOL    MW4 8540   5.663   1.153   5.302 -0.3375  0.2248 -0.0768
 2194SOL     OW 8541   2.670   2.361   5.203 -0.1481 -0.0724 -0.0762
 2194SOL    HW2 8542   2.722   2.283   5.223  0.2113  0.3237  0.5605
 2194SOL    HW3 8543   2.581   2.339   5.229 -0.1177 -0.4086 -0.2598
 2194SOL    MW4 8544   2.665   2.348   5.209 -0.0967 -0.0645 -0.0165
 2195SOL     OW 8545   1.771   1.857   5.129 -0.0911 -0.1004 -0.4596
 2195SOL    HW2 8546   1.792   1.944   5.096  0.2645 -0.2082 -0.5308
 2195SOL    HW3 8547   1.705   1.871   5.196  0.6016  0.3118  0.1506
 2195SOL    MW4 8548   1.765   1.870   5.133  0.0472 -0.0602 -0.3885
 2196SOL     OW 8549   4.123   2.452   3.202  0.3951  0.8668  0.1750
 2196SOL    HW2 8550   4.204   2.409   3.230  1.6891 -0.0192 -4.2321
 2196SOL    HW3 8551   4.059   2.380   3.196  0.8493  0.5443 -1.3301
 2196SOL    MW4 8552   4.125   2.437   3.205  0.6258  0.7073 -0.6050
 2197SOL     OW 8553   2.371   1.803   4.069 -0.5723  0.4081  0.4060
 2197SOL    HW2 8554   2.443   1.747   4.097 -0.4653 -0.2871 -1.1309
 2197SOL    HW3 8555   2.364   1.870   4.136  0.4240 -0.4722  1.4194
 2197SOL    MW4 8556   2.379   1.805   4.081 -0.4267  0.2002  0.3370
 2198SOL     OW 8557   1.962   4.402   6.392  0.3615 -0.7893  0.1266
 2198SOL    HW2 8558   2.029   4.390   6.459  0.6700 -1.9552 -0.3668
 2198SOL    HW3 8559   2.010   4.436   6.316 -0.0601  0.9986  0.6028
 2198SOL    MW4 8560   1.977   4.405   6.391  0.3466 -0.7072  0.1243
 2199SOL     OW 8561   4.527   0.686   6.315 -0.1122 -0.1051 -0.0005
 2199SOL    HW2 8562   4.621   0.702   6.302 -0.0557  0.4816  0.9938
 2199SOL    HW3 8563   4.523   0.631   6.394 -0.6720  1.6815  1.2831
 2199SOL    MW4 8564   4.539   0.681   6.324 -0.1786  0.2080  0.3001
 2200SOL     OW 8565   2.535   4.364   2.417  0.1791  0.3704  0.1164
 2200SOL    HW2 8566   2.447   4.385   2.449 -0.0655 -0.4439  0.0032
 2200SOL    HW3 8567   2.589   4.358   2.495 -0.2484 -0.8369  0.3506
 2200SOL    MW4 8568   2.530   4.366   2.431  0.0904  0.1037  0.1324
 2201SOL     OW 8569   6.308   0.792   4.318  0.2786 -0.5820  0.1451
 2201SOL    HW2 8570   6.365   0.799   4.242 -0.6636 -2.3433 -0.7741
 2201SOL    HW3 8571   6.235   0.850   4.300  0.5209 -0.2635  0.1712
 2201SOL    MW4 8572   6.306   0.800   4.306  0.1863 -0.7724  0.0273
 2202SOL     OW 8573   3.259   4.096   4.453  0.2550  0.0590 -0.1638
 2202SOL    HW2 8574   3.241   4.021   4.510 -0.1761  0.4707  0.2593
 2202SOL    HW3 8575   3.347   4.081   4.421  0.0321 -0.8227 -0.3913
 2202SOL    MW4 8576   3.268   4.085   4.457  0.1687 -0.0030 -0.1380
 2203SOL     OW 8577   5.044   5.191   5.607 -0.1904 -0.0230 -0.7039
 2203SOL    HW2 8578   5.029   5.098   5.591 -0.9501  0.0201 -0.2578
 2203SOL    HW3 8579   5.011   5.235   5.529 -2.1572  0.0485  0.1271
 2203SOL    MW4 8580   5.038   5.184   5.595 -0.5501 -0.0079 -0.5354
 2204SOL     OW 8581   0.763   2.866   2.102  0.0186 -0.6146 -0.2077
 2204SOL    HW2 8582   0.827   2.897   2.166  0.1559 -2.4618  0.6232
 2204SOL    HW3 8583   0.711   2.944   2.080  0.0492  0.1316  2.0715
 2204SOL    MW4 8584   0.764   2.880   2.107  0.0408 -0.7599  0.2026
 2205SOL     OW 8585   1.579   1.901   5.317 -0.0609 -0.6372 -0.0423
 2205SOL    HW2 8586   1.494   1.930   5.282 -0.0054 -3.0457 -2.5089
 2205SOL    HW3 8587   1.557   1.827   5.374  0.2348  0.6514  1.8653
 2205SOL    MW4 8588   1.565   1.895   5.320 -0.0146 -0.7850 -0.1160
 2206SOL     OW 8589   5.160   3.838   2.123 -0.3125  0.4662 -0.4733
 2206SOL    HW2 8590   5.074   3.799   2.133  0.1647 -0.7603 -0.8751
 2206SOL    HW3 8591   5.168   3.900   2.195 -1.1728 -0.0808  0.1048
 2206SOL    MW4 8592   5.150   3.841   2.133 -0.3631  0.2322 -0.4500
 2207SOL     OW 8593   0.819   0.612   1.608 -0.1738 -0.0474 -0.2173
 2207SOL    HW2 8594   0.778   0.664   1.677 -1.9894 -0.4133 -0.9541
 2207SOL    HW3 8595   0.746   0.578   1.557  1.0870 -0.5067 -1.8112
 2207SOL    MW4 8596   0.804   0.614   1.610 -0.2470 -0.1562 -0.5248
 2208SOL     OW 8597   2.348   0.418   5.627  0.5132  0.4276 -0.5504
 2208SOL    HW2 8598   2.322   0.426   5.535  1.1083  0.9630 -0.6774
 2208SOL    HW3 8599   2.266   0.424   5.676  0.3084  1.2589 -0.9883
 2208SOL    MW4 8600   2.334   0.420   5.621  0.5647  0.6079 -0.6250
 2209SOL     OW 8601   4.839   6.115   4.865  0.4186 -0.2363  0.3934
 2209SOL    HW2 8602   4.828   6.082   4.955  3.6182 -0.7536  0.7128
 2209SOL    HW3 8603   4.840   6.210   4.875 -3.0615 -0.0677  0.2684
 2209SOL    MW4 8604   4.838   6.123   4.878  0.3816 -0.2823  0.4191
 2210SOL     OW 8605   1.520   3.113   4.675 -0.1614  0.4292  0.9099
 2210SOL    HW2 8606   1.578   3.180   4.639  1.5029 -1.0999  0.6281
 2210SOL    HW3 8607   1.432   3.145   4.656  0.5423  2.9169  1.5342
 2210SOL    MW4 8608   1.516   3.126   4.667  0.1510  0.5557  0.9551
 2211SOL     OW 8609   3.617   0.840   2.118 -0.0307 -0.2756 -0.0748
 2211SOL    HW2 8610   3.601   0.883   2.034 -0.6950  1.2208  0.7907
 2211SOL    HW3 8611   3.552   0.770   2.121 -1.1725  0.7459 -0.0793
 2211SOL    MW4 8612   3.606   0.836   2.107 -0.2690  0.0566  0.0388
 2212SOL     OW 8613   5.681   5.466   6.266  0.0958  0.4730 -0.2454
 2212SOL    HW2 8614   5.682   5.438   6.175 -0.1380  0.6460 -0.3004
 2212SOL    HW3 8615   5.632   5.397   6.312  1.6106 -0.4697  0.0285
 2212SOL    MW4 8616   5.675   5.453   6.260  0.2648  0.3714 -0.2165
 2213SOL     OW 8617   0.477   3.313   2.622  0.1241 -0.8539  0.2142
 2213SOL    HW2 8618   0.531   3.238   2.595  0.5532 -0.4756  0.0057
 2213SOL    HW3 8619   0.464   3.300   2.716 -0.6089 -1.6956  0.0058
 2213SOL    MW4 8620   0.483   3.301   2.631  0.0840 -0.9150  0.1592
 2214SOL     OW 8621   0.122   3.904   0.811  0.5625 -0.1411 -0.4389
 2214SOL    HW2 8622   0.138   3.813   0.834 -2.1942 -1.2710 -2.5337
 2214SOL    HW3 8623   0.199   3.930   0.760  1.3469 -1.2696  0.1262
 2214SOL    MW4 8624   0.134   3.896   0.808  0.3023 -0.4390 -0.6407
 2215SOL     OW 8625   5.994   6.298   4.842 -0.0168 -0.2903 -0.0395
 2215SOL    HW2 8626   6.008   6.372   4.900 -0.5466  1.1951 -1.6938
 2215SOL    HW3 8627   5.937   6.239   4.891 -0.3415  0.8397  0.9899
 2215SOL    MW4 8628   5.988   6.300   4.856 -0.1295  0.0548 -0.1220
 2216SOL     OW 8629   1.376   0.895   0.730  0.1676 -0.0016  0.1534
 2216SOL    HW2 8630   1.313   0.953   0.773  0.8029  1.0209 -0.2650
 2216SOL    HW3 8631   1.322   0.824   0.694 -0.5001 -0.2848  1.6297
 2216SOL    MW4 8632   1.361   0.893   0.731  0.1633  0.0960  0.2930
 2217SOL     OW 8633   5.795   6.160   5.012 -0.2223  0.4249 -0.1728
 2217SOL    HW2 8634   5.812   6.176   5.105  0.2582 -0.8459 -0.0211
 2217SOL    HW3 8635   5.711   6.203   4.995  0.1045  1.4070  0.6282
 2217SOL    MW4 8636   5.786   6.168   5.022 -0.1158  0.3868 -0.0471
 2218SOL     OW 8637   3.275   3.177   3.651 -0.3789  0.7173  0.2678
 2218SOL    HW2 8638   3.309   3.147   3.567 -0.5901  0.1993  0.3580
 2218SOL    HW3 8639   3.343   3.234   3.686  1.1621 -1.4680  1.1285
 2218SOL    MW4 8640   3.289   3.180   3.645 -0.2034  0.3607  0.3932
 2219SOL     OW 8641   1.846   4.060   0.251  0.3160  0.3348  0.5135
 2219SOL    HW2 8642   1.902   4.061   0.173  0.8054  0.6317  0.8717
 2219SOL    HW3 8643   1.778   4.124   0.231  0.6058  0.6263  0.4521
 2219SOL    MW4 8644   1.844   4.068   0.238  0.4188  0.4124  0.5527
 2220SOL     OW 8645   4.549   3.864   4.054  0.1932 -0.4325  0.2964
 2220SOL    HW2 8646   4.482   3.921   4.091 -1.0744 -1.9704  0.4651
 2220SOL    HW3 8647   4.542   3.879   3.959 -0.0187 -0.1992  0.3461
 2220SOL    MW4 8648   4.539   3.874   4.046 -0.0020 -0.6047  0.3252
 2221SOL     OW 8649   4.970   4.580   2.677  0.2476 -0.1189 -0.1837
 2221SOL    HW2 8650   5.011   4.608   2.759  0.8055  1.8976 -1.0891
 2221SOL    HW3 8651   4.887   4.627   2.675  0.2062 -0.2184 -0.7570
 2221SOL    MW4 8652   4.964   4.590   2.688  0.3158  0.1340 -0.3788
 2222SOL     OW 8653   3.901   2.357   3.378 -0.2847 -0.5915  0.3786
 2222SOL    HW2 8654   3.882   2.443   3.341  0.7043 -0.8218 -0.7021
 2222SOL    HW3 8655   3.987   2.365   3.418  0.1586 -1.2660 -0.4017
 2222SOL    MW4 8656   3.910   2.369   3.378 -0.0957 -0.7109  0.1330
 2223SOL     OW 8657   6.408   4.624   5.341  0.7007  0.4197 -0.1314
 2223SOL    HW2 8658   6.362   4.591   5.264  1.6865 -1.4117  0.0085
 2223SOL    HW3 8659   6.343   4.625   5.411  0.3608 -0.1310 -0.4359
 2223SOL    MW4 8660   6.394   4.620   5.340  0.7859  0.1054 -0.1531
 2224SOL     OW 8661   3.136   4.817   6.381 -0.1049  0.2811 -0.3248
 2224SOL    HW2 8662   3.071   4.874   6.421  0.1854  0.9517 -0.8037
 2224SOL    HW3 8663   3.109   4.809   6.290  0.4712  0.5645 -0.5268
 2224SOL    MW4 8664   3.124   4.823   6.375  0.0094  0.4070 -0.4146
 2225SOL     OW 8665   3.031   5.754   1.009 -0.2619  0.4218  0.4428
 2225SOL    HW2 8666   2.975   5.678   0.992  0.7572  0.0999 -1.9925
 2225SOL    HW3 8667   3.030   5.802   0.926 -1.3382  3.4612  2.0657
 2225SOL    MW4 8668   3.023   5.751   0.996 -0.2694  0.7804  0.3356
 2226SOL     OW 8669   6.004   4.478   5.326  0.3236  0.0403  0.4251
 2226SOL    HW2 8670   6.061   4.441   5.259  0.9969  0.3658  0.8052
 2226SOL    HW3 8671   5.928   4.511   5.278  0.8483  0.3675 -0.1877
 2226SOL    MW4 8672   6.002   4.478   5.311  0.4816  0.1264  0.3944
 2227SOL     OW 8673   3.765   2.449   0.291 -0.1902  0.4635  0.2600
 2227SOL    HW2 8674   3.846   2.499   0.292 -0.7352  1.4544 -0.9497
 2227SOL    HW3 8675   3.715   2.483   0.365 -0.4191  1.5429 -0.3523
 2227SOL    MW4 8676   3.769   2.460   0.301 -0.2923  0.7366  0.0196
 2228SOL     OW 8677   6.045   6.230   3.490 -0.3547  0.3488  0.0706
 2228SOL    HW2 8678   6.065   6.147   3.532 -0.3625 -0.6116 -1.6929
 2228SOL    HW3 8679   6.022   6.289   3.561  3.1965 -0.0609  1.7372
 2228SOL    MW4 8680   6.044   6.227   3.505  0.1128  0.1680  0.0578
 2229SOL     OW 8681   1.413   3.532   1.528  0.0232  0.4214 -0.4352
 2229SOL    HW2 8682   1.435   3.575   1.445 -0.2469 -0.6751 -1.1004
 2229SOL    HW3 8683   1.321   3.555   1.543  0.3472  1.4326  0.0912
 2229SOL    MW4 8684   1.404   3.540   1.519  0.0303  0.4101 -0.4535
 2230SOL     OW 8685   1.210   1.681   3.888  0.1045 -0.1646 -0.9496
 2230SOL    HW2 8686   1.300   1.648   3.885  0.5288  0.9768 -0.9346
 2230SOL    HW3 8687   1.160   1.618   3.836  0.9688 -0.6096 -1.2607
 2230SOL    MW4 8688   1.215   1.668   3.881  0.2745 -0.0727 -0.9887
 2231SOL     OW 8689   2.487   1.012   4.437  0.3194  0.1663  0.1557
 2231SOL    HW2 8690   2.469   1.106   4.427  0.5030  0.1872  0.0097
 2231SOL    HW3 8691   2.532   1.006   4.521  3.3873  0.6754 -1.2997
 2231SOL    MW4 8692   2.491   1.024   4.447  0.7484  0.2362 -0.0556
 2232SOL     OW 8693   2.165   1.613   4.127  0.2476  0.4039 -0.0449
 2232SOL    HW2 8694   2.239   1.674   4.127  0.9620 -0.4188 -0.9578
 2232SOL    HW3 8695   2.095   1.660   4.081 -0.0005  1.3945  1.2915
 2232SOL    MW4 8696   2.166   1.627   4.121  0.3091  0.4261  0.0110
 2233SOL     OW 8697   5.250   4.157   0.595  0.0905 -0.0554 -0.0442
 2233SOL    HW2 8698   5.312   4.096   0.635  0.6791 -0.3372 -1.3196
 2233SOL    HW3 8699   5.205   4.198   0.668  0.8178 -0.8635  0.8749
 2233SOL    MW4 8700   5.253   4.155   0.610  0.2641 -0.1992 -0.0912
 2234SOL     OW 8701   3.301   1.562   0.654 -0.6269  0.1665  0.0345
 2234SOL    HW2 8702   3.258   1.549   0.570 -0.6043 -0.1297  0.0688
 2234SOL    HW3 8703   3.358   1.637   0.641  1.0312 -1.1824 -0.8526
 2234SOL    MW4 8704   3.303   1.570   0.641 -0.4051 -0.0505 -0.0780
 2235SOL     OW 8705   0.996   1.221   1.499  0.3438  0.0130 -0.1188
 2235SOL    HW2 8706   1.074   1.166   1.496 -0.1157 -0.6896  0.5105
 2235SOL    HW3 8707   0.966   1.226   1.409  0.5977 -0.4634 -0.2327
 2235SOL    MW4 8708   1.003   1.215   1.487  0.3167 -0.1425 -0.0508
 2236SOL     OW 8709   0.307   1.654   2.520 -0.1236  0.1610  0.4795
 2236SOL    HW2 8710   0.332   1.612   2.437  1.2595 -0.7196  1.2909
 2236SOL    HW3 8711   0.375   1.720   2.535  0.2076 -0.3643  1.3779
 2236SOL    MW4 8712   0.319   1.657   2.511  0.1025 -0.0245  0.7051
 2237SOL     OW 8713   5.754   1.276   0.177 -0.4029 -0.0834  0.0137
 2237SOL    HW2 8714   5.735   1.287   0.084  0.5727  0.7601 -0.1072
 2237SOL    HW3 8715   5.674   1.305   0.221 -0.2527  1.2380 -0.5286
 2237SOL    MW4 8716   5.741   1.281   0.171 -0.2544  0.2022 -0.0738
 2238SOL     OW 8717   5.030   4.151   5.501 -0.2766  0.5463  0.6139
 2238SOL    HW2 8718   4.948   4.200   5.514  0.5249  2.2101 -0.2616
 2238SOL    HW3 8719   5.022   4.076   5.560 -1.9375  1.2752  1.4090
 2238SOL    MW4 8720   5.018   4.147   5.510 -0.3900  0.8620  0.6033
 2239SOL     OW 8721   4.049   2.082   5.783 -0.0354 -0.0912 -0.3487
 2239SOL    HW2 8722   3.992   2.027   5.837 -1.3789  1.2175 -0.3540
 2239SOL    HW3 8723   4.031   2.052   5.693  0.3004 -0.5709 -0.2615
 2239SOL    MW4 8724   4.039   2.071   5.778 -0.1684  0.0182 -0.3379
 2240SOL     OW 8725   4.863   1.779   1.188 -0.2842  0.1843  0.1653
 2240SOL    HW2 8726   4.849   1.873   1.196 -1.0135  0.1985 -1.0169
 2240SOL    HW3 8727   4.777   1.741   1.205  0.3285 -0.4142  2.2538
 2240SOL    MW4 8728   4.850   1.786   1.192 -0.2996  0.1072  0.2849
 2241SOL     OW 8729   2.015   3.652   4.886 -0.4286 -0.3285  0.4926
 2241SOL    HW2 8730   1.969   3.602   4.819 -1.1606 -0.2224  0.9020
 2241SOL    HW3 8731   1.945   3.697   4.934  0.1719  0.6179  0.5017
 2241SOL    MW4 8732   1.999   3.652   4.884 -0.4460 -0.1896  0.5479
 2242SOL     OW 8733   4.170   5.643   5.102 -0.4823  0.5347 -0.1627
 2242SOL    HW2 8734   4.120   5.565   5.127 -0.9016  0.8906  0.1259
 2242SOL    HW3 8735   4.121   5.716   5.140  0.9240  0.8091  1.1790
 2242SOL    MW4 8736   4.157   5.642   5.110 -0.3521  0.6178  0.0524
 2243SOL     OW 8737   0.196   5.552   1.160 -0.2559 -0.4621  0.0194
 2243SOL    HW2 8738   0.208   5.463   1.127  0.6007 -0.7381  1.0311
 2243SOL    HW3 8739   0.163   5.601   1.084 -0.6400 -1.6039 -0.5773
 2243SOL    MW4 8740   0.193   5.547   1.145 -0.1936 -0.6492  0.0742
 2244SOL     OW 8741   6.276   4.784   3.969  0.0730 -0.1627 -0.0749
 2244SOL    HW2 8742   6.183   4.777   3.989 -0.0155  0.6165 -0.1920
 2244SOL    HW3 8743   6.320   4.778   4.053  0.1010 -3.0984 -0.2066
 2244SOL    MW4 8744   6.270   4.782   3.983  0.0650 -0.4472 -0.1078
 2245SOL     OW 8745   3.258   5.175   3.162  0.4945 -0.2028  0.0526
 2245SOL    HW2 8746   3.212   5.228   3.227 -3.1210 -2.6825 -0.2313
 2245SOL    HW3 8747   3.260   5.087   3.199 -0.3337 -1.3839 -2.5110
 2245SOL    MW4 8748   3.252   5.171   3.176 -0.0918 -0.6858 -0.3231
 2246SOL     OW 8749   0.484   0.970   1.353 -0.4657  0.4805 -0.5573
 2246SOL    HW2 8750   0.450   1.007   1.435 -1.6518 -0.9849 -0.3357
 2246SOL    HW3 8751   0.577   0.959   1.369 -0.4927  1.2013  0.2019
 2246SOL    MW4 8752   0.492   0.974   1.366 -0.6258  0.3822 -0.4279
 2247SOL     OW 8753   2.836   3.887   3.912 -0.0058 -0.2580  0.5689
 2247SOL    HW2 8754   2.916   3.903   3.862  0.4384  1.3848  1.7332
 2247SOL    HW3 8755   2.775   3.955   3.883  1.0953  2.4307  3.9074
 2247SOL    MW4 8756   2.838   3.898   3.901  0.1981  0.3135  1.1630
 2248SOL     OW 8757   6.407   4.109   2.423 -0.7336  0.2595 -0.6420
 2248SOL    HW2 8758   6.348   4.159   2.367  1.1269  0.0013 -3.0248
 2248SOL    HW3 8759   6.466   4.174   2.460 -1.6210  0.3677  0.6157
 2248SOL    MW4 8760   6.407   4.124   2.420 -0.6052  0.2397 -0.7904
 2249SOL     OW 8761   6.197   3.946   1.081  0.1212 -0.1615 -0.0358
 2249SOL    HW2 8762   6.175   4.029   1.121  0.0133 -0.3959  0.3988
 2249SOL    HW3 8763   6.114   3.911   1.050 -0.2185 -1.1710  1.8437
 2249SOL    MW4 8764   6.183   3.952   1.082  0.0621 -0.3256  0.2695
 2250SOL     OW 8765   5.807   0.771   1.796  0.2212 -0.0704 -0.2054
 2250SOL    HW2 8766   5.720   0.753   1.832  0.5788  0.1991  0.8487
 2250SOL    HW3 8767   5.866   0.765   1.872  0.8913  1.4564 -0.5585
 2250SOL    MW4 8768   5.804   0.768   1.811  0.3568  0.1666 -0.1129
 2251SOL     OW 8769   2.293   1.316   0.304 -0.3673 -0.0571  0.2420
 2251SOL    HW2 8770   2.362   1.332   0.369 -0.4200  1.2215  0.0126
 2251SOL    HW3 8771   2.313   1.229   0.270  1.6122  0.5744 -0.3689
 2251SOL    MW4 8772   2.305   1.307   0.308 -0.1131  0.1949  0.1311
 2252SOL     OW 8773   1.962   3.228   1.849  0.2904  0.1429 -0.0265
 2252SOL    HW2 8774   2.001   3.313   1.869  0.3416 -0.1879  1.4147
 2252SOL    HW3 8775   1.877   3.229   1.893  1.3612 -1.4654  2.3523
 2252SOL    MW4 8776   1.956   3.239   1.858  0.4385 -0.1130  0.4775
 2253SOL     OW 8777   2.170   0.852   1.724  0.3626 -0.2288 -0.5910
 2253SOL    HW2 8778   2.238   0.784   1.721  1.1400  0.5525 -1.5192
 2253SOL    HW3 8779   2.117   0.836   1.646 -0.1375 -0.4280 -0.2194
 2253SOL    MW4 8780   2.172   0.841   1.713  0.3992 -0.1520 -0.6645
 2254SOL     OW 8781   5.141   3.605   1.730  0.2170 -0.0929  0.1085
 2254SOL    HW2 8782   5.178   3.519   1.750  2.7664  0.9196  0.2028
 2254SOL    HW3 8783   5.202   3.667   1.771 -0.2306  1.8036 -1.9247
 2254SOL    MW4 8784   5.154   3.602   1.738  0.4943  0.2909 -0.1473
 2255SOL     OW 8785   2.386   1.440   0.992 -0.4985  0.1688  0.7320
 2255SOL    HW2 8786   2.359   1.394   0.913  2.3752  0.3312 -0.4339
 2255SOL    HW3 8787   2.386   1.533   0.967  0.1092  0.2538  1.0341
 2255SOL    MW4 8788   2.382   1.446   0.978 -0.0392  0.2015  0.6180
 2256SOL     OW 8789   2.213   3.141   4.466 -0.4750 -0.0183  0.1315
 2256SOL    HW2 8790   2.301   3.110   4.488  0.2970  0.9138 -1.4749
 2256SOL    HW3 8791   2.196   3.212   4.528  0.0945  0.0980  0.1583
 2256SOL    MW4 8792   2.222   3.146   4.477 -0.2980  0.1200 -0.0769
 2257SOL     OW 8793   4.683   4.297   0.204  0.3841  0.3799 -0.2214
 2257SOL    HW2 8794   4.629   4.291   0.282  0.4675 -0.6380 -0.2360
 2257SOL    HW3 8795   4.757   4.238   0.220  0.2596 -0.0601 -1.1709
 2257SOL    MW4 8796   4.686   4.289   0.216  0.3787  0.1876 -0.3486
 2258SOL     OW 8797   4.870   2.456   0.663  0.0128 -0.1832 -0.0459
 2258SOL    HW2 8798   4.863   2.377   0.610 -0.5451 -1.2894  1.6002
 2258SOL    HW3 8799   4.873   2.528   0.599  0.6847 -1.5152 -1.5812
 2258SOL    MW4 8800   4.870   2.455   0.648  0.0278 -0.5049 -0.0313
 2259SOL     OW 8801   5.142   1.878   3.625  0.6197 -0.1162  0.2532
 2259SOL    HW2 8802   5.047   1.887   3.631  0.7430  0.8351  1.3734
 2259SOL    HW3 8803   5.168   1.847   3.712  1.4223  0.8023  0.3602
 2259SOL    MW4 8804   5.133   1.875   3.638  0.7419  0.1305  0.4151
 2260SOL     OW 8805   4.959   5.787   2.273  0.7731 -0.2777 -0.5615
 2260SOL    HW2 8806   4.881   5.787   2.217  0.0957  0.3006  0.3547
 2260SOL    HW3 8807   4.990   5.696   2.271 -0.8767 -0.9094  0.3307
 2260SOL    MW4 8808   4.953   5.775   2.266  0.4661 -0.2847 -0.3229
 2261SOL     OW 8809   1.756   4.906   2.881 -0.4770 -0.0282  0.2276
 2261SOL    HW2 8810   1.794   4.820   2.901  1.3651  0.5831 -0.3762
 2261SOL    HW3 8811   1.769   4.917   2.787  0.3622  1.3575  0.4763
 2261SOL    MW4 8812   1.763   4.896   2.871 -0.1232  0.2353  0.1807
 2262SOL     OW 8813   5.344   4.669   5.189 -0.2370 -0.0900  0.8992
 2262SOL    HW2 8814   5.408   4.598   5.181  1.3279  1.2266  1.0375
 2262SOL    HW3 8815   5.387   4.744   5.147 -2.1917  0.5711 -0.0041
 2262SOL    MW4 8816   5.358   4.669   5.182 -0.2885  0.1710  0.7983
 2263SOL     OW 8817   0.185   5.511   4.135  0.4644  0.1398 -0.3697
 2263SOL    HW2 8818   0.242   5.583   4.107  0.8657 -0.2939 -0.6698
 2263SOL    HW3 8819   0.236   5.432   4.119  0.2716 -0.1855  0.5564
 2263SOL    MW4 8820   0.199   5.510   4.129  0.4919  0.0397 -0.2871
 2264SOL     OW 8821   5.455   1.048   2.534 -0.2003  0.2135 -0.2678
 2264SOL    HW2 8822   5.541   1.052   2.574 -0.8834  2.2691  1.1445
 2264SOL    HW3 8823   5.404   0.990   2.591  0.5040 -2.0199 -1.7861
 2264SOL    MW4 8824   5.459   1.041   2.547 -0.1975  0.1900 -0.2818
 2265SOL     OW 8825   0.034   5.745   3.069 -0.0988 -0.1665 -0.2057
 2265SOL    HW2 8826   0.039   5.840   3.082  0.6834 -0.4558  2.2352
 2265SOL    HW3 8827  -0.059   5.725   3.077 -0.2114  0.3437 -0.1975
 2265SOL    MW4 8828   0.023   5.755   3.072 -0.0104 -0.1374  0.1175
 2266SOL     OW 8829   1.734   0.245   3.157  0.7842 -0.0996 -0.0796
 2266SOL    HW2 8830   1.683   0.244   3.076 -0.4087 -2.1897  0.6124
 2266SOL    HW3 8831   1.796   0.173   3.146  2.6365  1.4586 -0.2826
 2266SOL    MW4 8832   1.735   0.235   3.145  0.8712 -0.1698 -0.0151
 2267SOL     OW 8833   1.892   5.702   4.126  0.4901  0.4698 -0.2869
 2267SOL    HW2 8834   1.909   5.795   4.112 -0.0133  0.9124  1.7404
 2267SOL    HW3 8835   1.875   5.694   4.220 -3.0323 -1.1079 -0.8979
 2267SOL    MW4 8836   1.892   5.713   4.137 -0.0410  0.3200 -0.1000
 2268SOL     OW 8837   6.348   0.615   6.297  0.0336 -0.4205  0.2540
 2268SOL    HW2 8838   6.338   0.671   6.220 -0.9965 -1.6195 -0.5271
 2268SOL    HW3 8839   6.299   0.660   6.366 -1.2542 -0.6152 -0.5152
 2268SOL    MW4 8840   6.340   0.629   6.296 -0.2722 -0.6044  0.0494
 2269SOL     OW 8841   2.400   5.589   4.750 -0.3482 -0.2713 -0.1679
 2269SOL    HW2 8842   2.370   5.501   4.725  0.4420 -0.2039 -1.4596
 2269SOL    HW3 8843   2.408   5.636   4.667  1.1643  0.3802  0.3036
 2269SOL    MW4 8844   2.397   5.583   4.735 -0.0444 -0.1765 -0.2761
 2270SOL     OW 8845   3.951   0.876   4.166 -0.0962 -0.6997  0.3639
 2270SOL    HW2 8846   4.021   0.940   4.153 -0.5439 -0.4825 -1.2464
 2270SOL    HW3 8847   3.995   0.791   4.152 -0.7997 -0.5139 -5.4343
 2270SOL    MW4 8848   3.966   0.873   4.162 -0.2481 -0.6465 -0.6136
 2271SOL     OW 8849   4.348   0.828   5.413  0.3698  0.0704 -0.9075
 2271SOL    HW2 8850   4.340   0.843   5.319  0.6841 -1.1404 -1.1448
 2271SOL    HW3 8851   4.305   0.744   5.428 -0.3530  0.6146  0.1616
 2271SOL    MW4 8852   4.342   0.819   5.403  0.3159 -0.0176 -0.7977
 2272SOL     OW 8853   6.031   2.797   3.832 -0.4185 -0.2130  0.1097
 2272SOL    HW2 8854   6.107   2.851   3.852 -0.8482  0.0566  1.0585
 2272SOL    HW3 8855   5.963   2.827   3.892 -1.9062  0.8583 -1.9857
 2272SOL    MW4 8856   6.032   2.808   3.843 -0.6715 -0.0361 -0.0416
 2273SOL     OW 8857   3.830   5.667   1.417  0.4558 -0.1280  0.3649
 2273SOL    HW2 8858   3.825   5.602   1.347 -2.4022  1.7983 -1.4257
 2273SOL    HW3 8859   3.775   5.631   1.486 -0.6968  0.0850 -0.4092
 2273SOL    MW4 8860   3.822   5.654   1.417 -0.0733  0.1542  0.0265
 2274SOL     OW 8861   4.070   1.905   1.860 -0.0959  0.3901 -0.3393
 2274SOL    HW2 8862   3.986   1.942   1.833 -0.3253 -0.6252 -1.0680
 2274SOL    HW3 8863   4.105   1.969   1.922 -1.3270  0.9051 -0.1418
 2274SOL    MW4 8864   4.063   1.919   1.865 -0.2886  0.3241 -0.4094
 2275SOL     OW 8865   4.110   1.876   4.318 -0.5210  0.1992 -0.0919
 2275SOL    HW2 8866   4.178   1.843   4.259 -0.4525  1.1660 -0.5804
 2275SOL    HW3 8867   4.068   1.798   4.353  1.3842 -0.4344  0.8717
 2275SOL    MW4 8868   4.113   1.862   4.315 -0.2606  0.2432 -0.0293
 2276SOL     OW 8869   2.511   1.604   4.253  0.0594  0.1589 -0.4618
 2276SOL    HW2 8870   2.491   1.677   4.311 -1.5481 -1.6018  1.3222
 2276SOL    HW3 8871   2.591   1.566   4.289 -0.3982 -0.3341  0.0713
 2276SOL    MW4 8872   2.519   1.608   4.265 -0.2131 -0.1384 -0.1561
 2277SOL     OW 8873   3.050   5.800   4.185  0.1787  0.0360 -0.2727
 2277SOL    HW2 8874   2.984   5.856   4.227 -0.2603 -1.3868  1.0356
 2277SOL    HW3 8875   3.122   5.859   4.166 -0.6663  1.2485  0.1395
 2277SOL    MW4 8876   3.051   5.815   4.188  0.0093  0.0082 -0.0457
 2278SOL     OW 8877   3.952   5.329   3.912 -0.0427  0.2758  0.2217
 2278SOL    HW2 8878   3.873   5.295   3.870  0.5665 -2.7856  1.3266
 2278SOL    HW3 8879   3.920   5.373   3.991 -0.7433  0.4984 -0.1772
 2278SOL    MW4 8880   3.937   5.330   3.917 -0.0548 -0.0988  0.3148
 2279SOL     OW 8881   3.336   4.156   5.761  0.8769  0.2810 -0.1364
 2279SOL    HW2 8882   3.356   4.150   5.854  1.5810  2.2631 -0.0975
 2279SOL    HW3 8883   3.366   4.073   5.724  2.6372  0.3120  1.0869
 2279SOL    MW4 8884   3.343   4.144   5.768  1.2020  0.5466  0.0301
 2280SOL     OW 8885   5.217   5.219   4.702  0.1967  0.5729 -0.2591
 2280SOL    HW2 8886   5.165   5.262   4.634  0.1994  0.2539 -0.4668
 2280SOL    HW3 8887   5.276   5.287   4.734 -0.4575  0.9842  0.0931
 2280SOL    MW4 8888   5.218   5.233   4.697  0.1108  0.5851 -0.2401
 2281SOL     OW 8889   2.136   2.671   4.293  0.3634  0.6629 -0.4166
 2281SOL    HW2 8890   2.164   2.761   4.311  0.3434  0.4848  0.5541
 2281SOL    HW3 8891   2.210   2.617   4.322 -0.5245  0.2461  1.2154
 2281SOL    MW4 8892   2.150   2.676   4.300  0.2436  0.5844 -0.0732
 2282SOL     OW 8893   3.850   3.910   3.239  0.6150 -0.2801  1.0008
 2282SOL    HW2 8894   3.933   3.914   3.287  1.8733 -1.4393 -0.9682
 2282SOL    HW3 8895   3.809   3.829   3.268  0.4741 -0.0507  1.4596
 2282SOL    MW4 8896   3.855   3.900   3.250  0.7624 -0.4028  0.8015
 2283SOL     OW 8897   1.571   5.158   5.119 -0.4777  0.4356 -0.1917
 2283SOL    HW2 8898   1.498   5.099   5.103 -2.1919  2.5628 -0.6244
 2283SOL    HW3 8899   1.553   5.197   5.204  0.1071  1.0591 -0.3403
 2283SOL    MW4 8900   1.559   5.155   5.128 -0.6267  0.7986 -0.2684
 2284SOL     OW 8901   1.028   1.102   3.295  0.5216  0.1718  0.3336
 2284SOL    HW2 8902   0.982   1.153   3.228  2.7533  2.2427  0.2412
 2284SOL    HW3 8903   1.016   1.011   3.269 -2.9286  0.6068  0.0206
 2284SOL    MW4 8904   1.021   1.097   3.283  0.3609  0.5024  0.2801
 2285SOL     OW 8905   2.514   5.195   6.103 -0.3089 -0.2243 -0.7122
 2285SOL    HW2 8906   2.587   5.152   6.059 -0.5713  0.0464 -1.4342
 2285SOL    HW3 8907   2.492   5.138   6.176 -0.8562 -1.4995 -1.8344
 2285SOL    MW4 8908   2.520   5.182   6.107 -0.4157 -0.3568 -0.9555
 2286SOL     OW 8909   5.645   5.126   0.448  0.0519  0.1437 -0.0833
 2286SOL    HW2 8910   5.661   5.111   0.541  1.6489  0.9132 -0.1979
 2286SOL    HW3 8911   5.549   5.124   0.440 -0.1006 -0.5695  1.4483
 2286SOL    MW4 8912   5.634   5.124   0.459  0.2425  0.1512  0.1036
 2287SOL     OW 8913   2.106   5.908   5.228 -0.1276  0.3883  0.3215
 2287SOL    HW2 8914   2.140   5.978   5.284  0.9384 -1.1541  1.6918
 2287SOL    HW3 8915   2.011   5.914   5.236 -0.0809  1.9148  0.0696
 2287SOL    MW4 8916   2.098   5.918   5.236  0.0192  0.3862  0.4690
 2288SOL     OW 8917   0.170   4.581   6.185  0.1432  0.2429 -0.3055
 2288SOL    HW2 8918   0.201   4.582   6.276  2.2995  1.3341 -0.9871
 2288SOL    HW3 8919   0.082   4.618   6.189  0.3902  0.7408  1.2689
 2288SOL    MW4 8920   0.163   4.586   6.198  0.4603  0.4525 -0.1877
 2289SOL     OW 8921   6.134   4.104   0.160  0.5707 -0.3644  0.2530
 2289SOL    HW2 8922   6.099   4.167   0.097 -1.0718 -1.4964 -0.0319
 2289SOL    HW3 8923   6.225   4.090   0.132  0.0779 -0.3400 -1.4663
 2289SOL    MW4 8924   6.142   4.110   0.148  0.2890 -0.5106 -0.0114
 2290SOL     OW 8925   5.823   5.527   1.206  0.4566  0.2956 -0.2470
 2290SOL    HW2 8926   5.905   5.482   1.228  0.5217 -1.7197 -3.9531
 2290SOL    HW3 8927   5.851   5.605   1.159  0.2529  0.6426  0.2060
 2290SOL    MW4 8928   5.838   5.531   1.203  0.4383  0.0755 -0.6762
 2291SOL     OW 8929   5.661   4.644   0.511 -0.0097  0.1273 -0.2192
 2291SOL    HW2 8930   5.682   4.627   0.419  0.1808  0.0491 -0.1607
 2291SOL    HW3 8931   5.658   4.558   0.552  0.1484  0.1788 -0.0999
 2291SOL    MW4 8932   5.663   4.631   0.504  0.0363  0.1238 -0.1957
 2292SOL     OW 8933   0.704   1.844   0.486  0.9051  0.7411  0.5809
 2292SOL    HW2 8934   0.647   1.819   0.413  0.9606  0.9858  0.4537
 2292SOL    HW3 8935   0.740   1.761   0.518  1.6291  0.7195 -0.2774
 2292SOL    MW4 8936   0.701   1.829   0.481  1.0079  0.7705  0.4508
 2293SOL     OW 8937   2.115   1.119   5.164  0.1489  0.4755 -0.4259
 2293SOL    HW2 8938   2.033   1.166   5.162 -0.9357 -1.3199 -2.2437
 2293SOL    HW3 8939   2.130   1.101   5.257 -0.0971  3.0429  0.1850
 2293SOL    MW4 8940   2.106   1.122   5.176 -0.0267  0.5773 -0.5851
 2294SOL     OW 8941   2.547   2.618   3.092 -0.2978 -0.1262 -0.3359
 2294SOL    HW2 8942   2.488   2.548   3.064 -0.6921  0.3080 -0.6080
 2294SOL    HW3 8943   2.573   2.661   3.010 -1.3588  1.0730 -0.0684
 2294SOL    MW4 8944   2.542   2.615   3.077 -0.4898  0.0893 -0.3365
 2295SOL     OW 8945   3.807   5.753   4.154  0.2437  0.4195  0.0664
 2295SOL    HW2 8946   3.802   5.657   4.157 -1.5492  0.4104 -1.2622
 2295SOL    HW3 8947   3.737   5.783   4.212 -1.1644  0.8303 -1.7565
 2295SOL    MW4 8948   3.797   5.744   4.162 -0.1786  0.4725 -0.3494
 2296SOL     OW 8949   2.547   1.287   0.116 -0.0577 -0.7932  0.0833
 2296SOL    HW2 8950   2.577   1.275   0.025 -0.0176 -2.1702  0.2435
 2296SOL    HW3 8951   2.617   1.248   0.168  0.4899  1.0799  0.7917
 2296SOL    MW4 8952   2.560   1.280   0.111  0.0199 -0.7278  0.1979
 2297SOL     OW 8953   4.747   1.707   4.537 -0.3675 -0.1402 -0.1268
 2297SOL    HW2 8954   4.701   1.708   4.454  0.9882  1.7582 -0.9293
 2297SOL    HW3 8955   4.840   1.707   4.514  0.0559 -1.1837  1.4073
 2297SOL    MW4 8956   4.754   1.707   4.523 -0.1327 -0.0274 -0.0303
 2298SOL     OW 8957   5.049   5.000   3.269  0.2766 -0.1030  0.0292
 2298SOL    HW2 8958   5.075   5.083   3.307  1.2226  0.3744 -1.5542
 2298SOL    HW3 8959   5.118   4.939   3.295 -0.9730 -0.7212  2.1123
 2298SOL    MW4 8960   5.062   5.003   3.277  0.2365 -0.1216  0.0951
 2299SOL     OW 8961   0.281   4.012   1.460 -0.1008  0.1971 -0.4771
 2299SOL    HW2 8962   0.332   4.069   1.517 -0.8765 -0.0348  0.4707
 2299SOL    HW3 8963   0.253   3.940   1.516 -2.4708  0.9216 -0.6340
 2299SOL    MW4 8964   0.284   4.010   1.475 -0.5159  0.2621 -0.3728
 2300SOL     OW 8965   3.299   6.283   5.790  0.0657  0.4347 -0.3032
 2300SOL    HW2 8966   3.223   6.271   5.847  0.1692  1.0341 -0.0358
 2300SOL    HW3 8967   3.371   6.306   5.850  0.2177  0.8858 -0.6551
 2300SOL    MW4 8968   3.299   6.284   5.806  0.0994  0.5733 -0.3143
 2301SOL     OW 8969   2.602   1.465   6.063  0.1467 -0.3128  0.0396
 2301SOL    HW2 8970   2.636   1.525   6.130 -0.6397  0.6461 -0.4008
 2301SOL    HW3 8971   2.536   1.413   6.109 -1.0058  0.9326 -0.1821
 2301SOL    MW4 8972   2.598   1.466   6.078 -0.1091 -0.0219 -0.0478
 2302SOL     OW 8973   3.506   3.414   5.623 -0.0236  0.4348  0.5033
 2302SOL    HW2 8974   3.500   3.474   5.697 -0.9409 -0.7332  1.4354
 2302SOL    HW3 8975   3.439   3.443   5.562  0.1255  0.8680  0.5455
 2302SOL    MW4 8976   3.496   3.426   5.625 -0.1250  0.3379  0.6319
 2303SOL     OW 8977   1.352   2.853   5.111 -0.2031 -0.1718 -0.1573
 2303SOL    HW2 8978   1.339   2.891   5.024 -0.1387  0.1340 -0.0341
 2303SOL    HW3 8979   1.417   2.909   5.152  1.6280 -1.7170 -0.7881
 2303SOL    MW4 8980   1.359   2.865   5.105  0.0470 -0.3353 -0.2243
 2304SOL     OW 8981   6.042   4.788   1.012 -0.6267 -0.5358  0.0647
 2304SOL    HW2 8982   6.044   4.827   1.099  0.6889  1.0389 -0.6265
 2304SOL    HW3 8983   5.953   4.808   0.980 -1.3035 -1.5934  1.2141
 2304SOL    MW4 8984   6.030   4.796   1.019 -0.5424 -0.4676  0.1251
 2305SOL     OW 8985   0.661   5.317   2.915  0.1011  0.0922 -0.3997
 2305SOL    HW2 8986   0.618   5.245   2.962  0.3711 -0.1421 -0.5090
 2305SOL    HW3 8987   0.591   5.381   2.900 -0.0786 -0.0150 -0.0442
 2305SOL    MW4 8988   0.646   5.316   2.920  0.1131  0.0471 -0.3672
 2306SOL     OW 8989   3.798   3.751   1.392 -0.2417 -0.3980 -0.1213
 2306SOL    HW2 8990   3.758   3.833   1.362 -1.8020 -1.3291 -0.6231
 2306SOL    HW3 8991   3.794   3.757   1.487  1.4439  0.9454 -0.0736
 2306SOL    MW4 8992   3.792   3.763   1.400 -0.2251 -0.3436 -0.1812
 2307SOL     OW 8993   3.482   5.378   3.890  0.2156  0.0749 -0.5186
 2307SOL    HW2 8994   3.393   5.354   3.865  0.7580 -0.7651 -1.7919
 2307SOL    HW3 8995   3.480   5.386   3.985 -1.4295  1.0441 -0.6069
 2307SOL    MW4 8996   3.470   5.375   3.899  0.0701  0.0919 -0.6982
 2308SOL     OW 8997   1.218   1.762   1.522  0.1755  0.2409 -0.4199
 2308SOL    HW2 8998   1.156   1.835   1.526  0.6474  0.6175  0.1812
 2308SOL    HW3 8999   1.183   1.698   1.584 -0.2099 -0.0248 -0.9075
 2308SOL    MW4 9000   1.205   1.764   1.531  0.1869  0.2556 -0.4049
 2309SOL     OW 9001   1.316   0.453   6.372 -0.5070 -0.4662  0.1508
 2309SOL    HW2 9002   1.337   0.536   6.330  0.2888 -0.7308  0.0090
 2309SOL    HW3 9003   1.353   0.386   6.314 -1.5117 -0.9531  0.0411
 2309SOL    MW4 9004   1.324   0.455   6.359 -0.5346 -0.5653  0.1176
 2310SOL     OW 9005   6.123   5.387   3.035 -0.2423 -0.2921 -0.4263
 2310SOL    HW2 9006   6.203   5.357   2.992  0.8313  2.4910 -0.5545
 2310SOL    HW3 9007   6.055   5.377   2.968  0.0997 -1.9362 -0.5800
 2310SOL    MW4 9008   6.125   5.382   3.020 -0.0556 -0.1419 -0.4635
 2311SOL     OW 9009   3.779   4.009   2.174  0.1924  0.8461 -0.1351
 2311SOL    HW2 9010   3.775   3.938   2.110 -1.1232  0.4362  0.3696
 2311SOL    HW3 9011   3.834   3.974   2.244 -0.2393  0.4160 -0.0063
 2311SOL    MW4 9012   3.786   3.995   2.175 -0.0381  0.7353 -0.0515
 2312SOL     OW 9013   3.822   5.115   0.287 -0.0049  0.9100 -0.1122
 2312SOL    HW2 9014   3.734   5.077   0.285 -0.1253  1.1385  0.5881
 2312SOL    HW3 9015   3.817   5.182   0.355  0.8857  0.5024  0.3704
 2312SOL    MW4 9016   3.809   5.119   0.295  0.0967  0.8864  0.0439
 2313SOL     OW 9017   1.255   1.170   3.445  0.0949  0.3292 -0.2452
 2313SOL    HW2 9018   1.190   1.151   3.377 -0.5611  0.0871  0.4311
 2313SOL    HW3 9019   1.241   1.262   3.466  0.6941  0.5588 -0.8472
 2313SOL    MW4 9020   1.244   1.179   3.439  0.0874  0.3275 -0.2354
 2314SOL     OW 9021   6.214   4.871   0.303  0.1668 -0.3226  0.2233
 2314SOL    HW2 9022   6.275   4.816   0.352  0.7164  0.6783  0.6894
 2314SOL    HW3 9023   6.259   4.955   0.295  0.6560 -0.7790 -3.1003
 2314SOL    MW4 9024   6.228   4.875   0.309  0.3039 -0.2508 -0.1537
 2315SOL     OW 9025   4.808   4.320   5.547 -0.1167 -0.4970  0.2317
 2315SOL    HW2 9026   4.775   4.410   5.556  1.3351 -0.0710  1.7085
 2315SOL    HW3 9027   4.817   4.288   5.637  0.1601 -1.8352 -0.2500
 2315SOL    MW4 9028   4.805   4.328   5.560  0.1114 -0.6173  0.3630
 2316SOL     OW 9029   2.573   0.569   2.506  1.0689  0.3361 -0.1635
 2316SOL    HW2 9030   2.592   0.620   2.584 -1.4778  0.5433  0.4031
 2316SOL    HW3 9031   2.623   0.488   2.517 -0.1912 -0.1831  2.3289
 2316SOL    MW4 9032   2.582   0.565   2.517  0.5667  0.2949  0.2401
 2317SOL     OW 9033   4.967   0.053   2.864 -0.0385 -0.2713 -0.2347
 2317SOL    HW2 9034   4.882   0.056   2.821 -0.8186 -0.6476  1.2047
 2317SOL    HW3 9035   5.010  -0.023   2.827 -0.6518 -0.5323 -0.4254
 2317SOL    MW4 9036   4.961   0.043   2.854 -0.2223 -0.3554 -0.0699
 2318SOL     OW 9037   3.368   0.676   5.422  0.1844 -0.5519 -0.3518
 2318SOL    HW2 9038   3.460   0.700   5.432  0.6101 -0.9994 -2.5530
 2318SOL    HW3 9039   3.363   0.636   5.335 -2.5702  1.7480 -1.4094
 2318SOL    MW4 9040   3.379   0.674   5.412 -0.1229 -0.3075 -0.7818
 2319SOL     OW 9041   4.679   0.473   2.619 -0.0252  0.3769 -0.0202
 2319SOL    HW2 9042   4.684   0.530   2.542  0.3083 -0.0633 -0.3286
 2319SOL    HW3 9043   4.693   0.385   2.585 -0.5555  0.1039  0.4546
 2319SOL    MW4 9044   4.682   0.469   2.604 -0.0512  0.2828  0.0017
 2320SOL     OW 9045   2.960   4.765   3.648 -0.0183 -0.7710 -0.2457
 2320SOL    HW2 9046   3.013   4.690   3.619 -0.1132 -0.3512 -1.5838
 2320SOL    HW3 9047   2.909   4.731   3.721  1.2595 -1.5051  0.3466
 2320SOL    MW4 9048   2.960   4.750   3.653  0.1378 -0.8124 -0.3441
 2321SOL     OW 9049   2.052   0.743   6.129  0.1541 -0.3180  0.6127
 2321SOL    HW2 9050   2.095   0.828   6.133  0.6913 -0.3882 -1.9569
 2321SOL    HW3 9051   1.959   0.763   6.141  0.1926  0.7608 -0.6656
 2321SOL    MW4 9052   2.045   0.757   6.131  0.2300 -0.1850  0.1050
 2322SOL     OW 9053   6.164   1.577   4.838  0.4115  0.5480  0.2786
 2322SOL    HW2 9054   6.180   1.670   4.823  2.4756  0.0468 -0.9437
 2322SOL    HW3 9055   6.177   1.565   4.932  0.8434  1.3689  0.3335
 2322SOL    MW4 9056   6.168   1.587   4.848  0.7408  0.5902  0.1246
 2323SOL     OW 9057   4.038   1.629   2.721  0.5229 -0.0873 -0.2986
 2323SOL    HW2 9058   3.954   1.675   2.715 -0.1582 -1.0508  1.2504
 2323SOL    HW3 9059   4.027   1.552   2.666  0.4615 -0.1324 -0.2224
 2323SOL    MW4 9060   4.025   1.625   2.713  0.4249 -0.2204 -0.0842
 2324SOL     OW 9061   0.763   4.770   4.861 -0.1057 -0.2728  0.3999
 2324SOL    HW2 9062   0.765   4.676   4.876 -0.0203 -0.5231 -1.0563
 2324SOL    HW3 9063   0.707   4.782   4.785 -0.3898  0.8939  0.7653
 2324SOL    MW4 9064   0.756   4.759   4.853 -0.1320 -0.1519  0.2560
 2325SOL     OW 9065   4.563   0.868   2.441  0.1084 -0.6466 -0.0034
 2325SOL    HW2 9066   4.525   0.947   2.481  1.4797 -0.1775  0.4514
 2325SOL    HW3 9067   4.571   0.890   2.348  0.3071 -0.3099  0.0891
 2325SOL    MW4 9068   4.559   0.882   2.434  0.3156 -0.5403  0.0688
 2326SOL     OW 9069   4.048   2.400   0.847 -0.6396  0.4636 -0.4427
 2326SOL    HW2 9070   4.097   2.472   0.887  0.2333 -0.2523 -0.2057
 2326SOL    HW3 9071   3.999   2.361   0.920 -0.3836  0.2387 -0.3883
 2326SOL    MW4 9072   4.048   2.404   0.862 -0.4906  0.3395 -0.4042
 2327SOL     OW 9073   1.870   5.623   0.889 -0.3454 -0.1046  0.0543
 2327SOL    HW2 9074   1.813   5.680   0.837  0.6927 -0.3694 -1.4233
 2327SOL    HW3 9075   1.860   5.537   0.849 -0.4771 -0.5868  1.1016
 2327SOL    MW4 9076   1.861   5.619   0.877 -0.2258 -0.2031 -0.0024
 2328SOL     OW 9077   4.814   0.681   6.290  0.3470  0.0961  0.3360
 2328SOL    HW2 9078   4.876   0.752   6.272  0.1358  0.7217  1.8964
 2328SOL    HW3 9079   4.792   0.647   6.203  1.2321  1.2575 -0.3954
 2328SOL    MW4 9080   4.820   0.686   6.276  0.4359  0.3318  0.4453
 2329SOL     OW 9081   2.826   1.163   5.621 -0.1462 -0.0670  0.3758
 2329SOL    HW2 9082   2.884   1.175   5.696 -0.5081  0.8628  0.5201
 2329SOL    HW3 9083   2.834   1.070   5.599  4.0484  0.4897 -1.7218
 2329SOL    MW4 9084   2.835   1.152   5.628  0.3595  0.1291  0.1181
 2330SOL     OW 9085   5.398   3.145   4.457  0.0844 -0.5972  0.8021
 2330SOL    HW2 9086   5.365   3.219   4.509 -0.4641 -2.2167  2.9306
 2330SOL    HW3 9087   5.319   3.096   4.433  0.3937 -0.2337 -1.1125
 2330SOL    MW4 9088   5.383   3.148   4.461  0.0528 -0.7629  0.8303
 2331SOL     OW 9089   3.463   0.417   1.004  0.2807  0.2589  0.2720
 2331SOL    HW2 9090   3.449   0.491   1.063 -0.1838  0.2287  0.2059
 2331SOL    HW3 9091   3.380   0.407   0.958 -0.8037 -2.1900  2.4572
 2331SOL    MW4 9092   3.450   0.425   1.006  0.0763 -0.0682  0.5516
 2332SOL     OW 9093   3.806   5.126   2.070  0.4053 -0.0446 -0.0603
 2332SOL    HW2 9094   3.784   5.140   1.978 -0.7188 -0.6618  0.0831
 2332SOL    HW3 9095   3.865   5.051   2.070 -0.3499 -0.6489 -0.2239
 2332SOL    MW4 9096   3.811   5.118   2.058  0.1574 -0.2057 -0.0629
 2333SOL     OW 9097   5.090   4.090   0.999  0.4508  0.6500  0.3074
 2333SOL    HW2 9098   5.090   4.154   0.927 -2.7047  0.6591  0.1798
 2333SOL    HW3 9099   5.136   4.134   1.070  1.8358  1.4537 -1.0116
 2333SOL    MW4 9100   5.096   4.104   0.999  0.2172  0.7572  0.1165
 2334SOL     OW 9101   1.034   2.510   1.911 -0.1676 -0.4097  0.1340
 2334SOL    HW2 9102   1.031   2.605   1.907  3.4375  0.0298  2.6621
 2334SOL    HW3 9103   1.019   2.488   2.003  1.3538 -1.9965  0.0775
 2334SOL    MW4 9104   1.032   2.519   1.922  0.5088 -0.5610  0.4601
 2335SOL     OW 9105   2.007   6.327   1.515  0.1447  0.6780  0.3911
 2335SOL    HW2 9106   2.037   6.318   1.606  0.6924  0.3984  0.1875
 2335SOL    HW3 9107   2.080   6.294   1.462 -0.8546 -0.8416 -0.0904
 2335SOL    MW4 9108   2.021   6.322   1.520  0.0851  0.4406  0.3007
 2336SOL     OW 9109   4.706   0.463   1.765 -0.2715  0.6054  0.2083
 2336SOL    HW2 9110   4.746   0.381   1.736 -0.0126  1.2517 -1.3362
 2336SOL    HW3 9111   4.611   0.446   1.763 -0.2010  0.2050  0.3189
 2336SOL    MW4 9112   4.698   0.450   1.761 -0.2280  0.6378  0.0191
 2337SOL     OW 9113   2.825   0.180   4.611  0.2473 -0.5887 -0.0052
 2337SOL    HW2 9114   2.743   0.204   4.653  1.4437 -0.1364  2.2243
 2337SOL    HW3 9115   2.801   0.159   4.520 -2.7435 -3.2075  1.2122
 2337SOL    MW4 9116   2.811   0.180   4.604  0.0105 -0.8745  0.4496
 2338SOL     OW 9117   1.527   5.476   3.259 -0.0588  0.0824 -0.2698
 2338SOL    HW2 9118   1.569   5.440   3.337 -1.3917 -0.4890  0.2129
 2338SOL    HW3 9119   1.434   5.462   3.273 -0.3772  0.6185 -1.6564
 2338SOL    MW4 9120   1.521   5.470   3.271 -0.2767  0.0777 -0.3891
 2339SOL     OW 9121   3.564   4.995   4.964  0.0745  0.9992 -0.0170
 2339SOL    HW2 9122   3.541   4.917   5.015  3.7884 -1.6688 -1.9357
 2339SOL    HW3 9123   3.637   5.034   5.012 -1.4118  3.1769  0.6436
 2339SOL    MW4 9124   3.571   4.990   4.977  0.3684  0.9345 -0.1830
 2340SOL     OW 9125   1.818   0.343   1.541  0.6407  0.0747 -0.3277
 2340SOL    HW2 9126   1.742   0.368   1.488  0.6025 -0.7185 -0.6506
 2340SOL    HW3 9127   1.871   0.422   1.545 -0.5003  0.8438  0.4382
 2340SOL    MW4 9128   1.815   0.357   1.535  0.4851  0.0715 -0.2693
 2341SOL     OW 9129   2.762   3.434   1.170  0.3327  0.3716  0.3245
 2341SOL    HW2 9130   2.699   3.469   1.232  1.0185  0.9238  0.7261
 2341SOL    HW3 9131   2.847   3.460   1.205  0.7954 -0.5114 -0.1108
 2341SOL    MW4 9132   2.765   3.442   1.183  0.4842  0.3279  0.3201
 2342SOL     OW 9133   1.066   5.328   4.450 -0.4659  0.1104 -0.3884
 2342SOL    HW2 9134   1.100   5.409   4.412  0.0045  0.2473  0.3011
 2342SOL    HW3 9135   1.085   5.336   4.544 -2.2888  0.1426  0.0283
 2342SOL    MW4 9136   1.073   5.340   4.457 -0.6443  0.1327 -0.2424
 2343SOL     OW 9137   5.678   5.253   5.490  0.5566 -0.4386 -0.8525
 2343SOL    HW2 9138   5.671   5.234   5.397  0.5075 -0.4240 -0.8517
 2343SOL    HW3 9139   5.757   5.307   5.497  0.4566 -0.2814 -0.9106
 2343SOL    MW4 9140   5.688   5.258   5.479  0.5369 -0.4160 -0.8601
 2344SOL     OW 9141   5.863   2.428   1.786 -0.0723 -0.6242  0.0809
 2344SOL    HW2 9142   5.815   2.443   1.704 -0.2783  1.2810  0.4919
 2344SOL    HW3 9143   5.955   2.436   1.762 -0.1559  1.7644  0.2592
 2344SOL    MW4 9144   5.869   2.431   1.772 -0.1105 -0.0577  0.1586
 2345SOL     OW 9145   3.167   2.332   1.727 -0.4555  0.3137 -0.6143
 2345SOL    HW2 9146   3.221   2.306   1.652 -1.0283  0.9446 -1.2630
 2345SOL    HW3 9147   3.230   2.364   1.791 -0.0170  0.6157 -1.1835
 2345SOL    MW4 9148   3.182   2.333   1.725 -0.4732  0.4368 -0.7750
 2346SOL     OW 9149   1.000   0.359   3.198 -0.0820 -0.4830  0.4466
 2346SOL    HW2 9150   1.074   0.417   3.214 -0.6263  0.3366  0.0774
 2346SOL    HW3 9151   1.039   0.277   3.168  0.6362  0.3470 -0.9854
 2346SOL    MW4 9152   1.015   0.356   3.196 -0.0590 -0.2653  0.2090
 2347SOL     OW 9153   3.708   5.941   0.068  0.0051 -0.0308  0.4721
 2347SOL    HW2 9154   3.734   5.912   0.155  1.0416 -2.0118 -0.4257
 2347SOL    HW3 9155   3.632   5.886   0.046  0.2005 -0.0531 -0.1588
 2347SOL    MW4 9156   3.701   5.930   0.077  0.1676 -0.2951  0.2704
 2348SOL     OW 9157   5.184   5.866   0.555  0.3818  0.4893 -0.1680
 2348SOL    HW2 9158   5.156   5.912   0.634  0.7037  0.4006 -0.0034
 2348SOL    HW3 9159   5.134   5.909   0.484 -1.0290 -0.4039  0.2397
 2348SOL    MW4 9160   5.173   5.878   0.556  0.2381  0.3597 -0.0925
 2349SOL     OW 9161   3.885   1.871   3.913  0.4971  0.0321 -0.3118
 2349SOL    HW2 9162   3.808   1.913   3.875 -1.7323 -2.7073  0.8493
 2349SOL    HW3 9163   3.924   1.823   3.840 -0.7160 -1.0160 -0.2920
 2349SOL    MW4 9164   3.880   1.870   3.898  0.0429 -0.4676 -0.1560
 2350SOL     OW 9165   2.563   0.259   1.904 -0.1496 -0.1620  0.4481
 2350SOL    HW2 9166   2.575   0.336   1.959  0.1086 -0.6126  1.0226
 2350SOL    HW3 9167   2.648   0.246   1.862  0.1539 -0.8258  1.2525
 2350SOL    MW4 9168   2.576   0.267   1.905 -0.0755 -0.3090  0.6300
 2351SOL     OW 9169   5.487   1.288   1.685 -0.5450  0.5975  0.3553
 2351SOL    HW2 9170   5.569   1.290   1.636 -0.0549  1.4828  1.1612
 2351SOL    HW3 9171   5.444   1.207   1.659  1.0642 -0.3842  0.6648
 2351SOL    MW4 9172   5.492   1.278   1.675 -0.2680  0.5848  0.5024
 2352SOL     OW 9173   1.042   3.943   3.600  0.0166 -0.2565  0.3431
 2352SOL    HW2 9174   0.947   3.935   3.590  0.1905 -1.8384 -0.4322
 2352SOL    HW3 9175   1.060   3.901   3.684  0.2764 -2.7636 -0.8591
 2352SOL    MW4 9176   1.032   3.936   3.609  0.0738 -0.7960  0.0822
 2353SOL     OW 9177   5.404   5.781   0.425  0.4629  0.0002 -0.8830
 2353SOL    HW2 9178   5.325   5.809   0.470  0.4391  0.1969 -1.0446
 2353SOL    HW3 9179   5.476   5.811   0.480  0.4162 -1.2190 -0.1180
 2353SOL    MW4 9180   5.403   5.789   0.438  0.4536 -0.1347 -0.8034
 2354SOL     OW 9181   6.062   4.734   6.246 -0.3862  0.1406  0.3180
 2354SOL    HW2 9182   6.008   4.813   6.245  0.6399  0.9829  2.4018
 2354SOL    HW3 9183   6.000   4.662   6.255 -1.3689  0.6162 -1.9911
 2354SOL    MW4 9184   6.047   4.735   6.247 -0.3805  0.3145  0.2883
 2355SOL     OW 9185   4.771   3.724   5.172  0.2096 -0.2914 -0.1164
 2355SOL    HW2 9186   4.689   3.724   5.123 -0.6780  1.6699  1.2523
 2355SOL    HW3 9187   4.780   3.635   5.204 -2.6666 -0.0641  1.6771
 2355SOL    MW4 9188   4.762   3.712   5.170 -0.2870 -0.0026  0.3008
 2356SOL     OW 9189   2.181   3.610   2.607  0.7964  0.1940  0.2226
 2356SOL    HW2 9190   2.268   3.620   2.571  0.9558  0.8483  0.7736
 2356SOL    HW3 9191   2.148   3.528   2.569  1.5148  0.1195 -0.2417
 2356SOL    MW4 9192   2.188   3.600   2.598  0.9122  0.2705  0.2341
 2357SOL     OW 9193   5.838   4.094   6.024 -0.2085  0.3751  0.0175
 2357SOL    HW2 9194   5.851   4.180   5.984  0.1974 -0.2609 -1.2847
 2357SOL    HW3 9195   5.909   4.041   5.988  0.4865 -0.1185  2.0093
 2357SOL    MW4 9196   5.849   4.098   6.014 -0.0632  0.2260  0.1085
 2358SOL     OW 9197   0.185   4.294   2.528  0.5235  0.0316 -0.9557
 2358SOL    HW2 9198   0.169   4.334   2.613  0.4677  1.5424 -1.6419
 2358SOL    HW3 9199   0.266   4.244   2.540 -0.9164 -2.1052  0.6921
 2358SOL    MW4 9200   0.194   4.292   2.541  0.3262 -0.0510 -0.8288
 2359SOL     OW 9201   4.310   1.554   1.376  0.2748  0.1155 -0.2444
 2359SOL    HW2 9202   4.319   1.555   1.281  1.8726 -1.2399 -0.1445
 2359SOL    HW3 9203   4.260   1.474   1.394 -0.6923  0.7588  0.0458
 2359SOL    MW4 9204   4.304   1.544   1.366  0.3580  0.0215 -0.1929
 2360SOL     OW 9205   5.837   1.630   2.333  0.4126 -0.0839  0.3973
 2360SOL    HW2 9206   5.848   1.654   2.425  1.2497  0.7068  0.1025
 2360SOL    HW3 9207   5.863   1.538   2.329  1.1388  0.0976  0.8141
 2360SOL    MW4 9208   5.842   1.621   2.345  0.6189  0.0444  0.4134
 2361SOL     OW 9209   4.328   5.169   2.563 -0.4479  0.0324  0.5363
 2361SOL    HW2 9210   4.373   5.086   2.543 -0.7759  0.2945 -1.5671
 2361SOL    HW3 9211   4.292   5.197   2.479 -0.5030  2.2352  1.2296
 2361SOL    MW4 9212   4.329   5.162   2.549 -0.4984  0.3576  0.3503
 2362SOL     OW 9213   5.634   6.008   2.604  0.1433 -0.2049 -1.0680
 2362SOL    HW2 9214   5.721   6.044   2.589  0.0218  0.9642  0.8107
 2362SOL    HW3 9215   5.576   6.084   2.610 -0.6840 -0.8584 -0.4436
 2362SOL    MW4 9216   5.638   6.022   2.603  0.0181 -0.1369 -0.7377
 2363SOL     OW 9217   5.910   0.681   2.054  0.5840 -0.2828  0.0937
 2363SOL    HW2 9218   5.854   0.706   2.127  0.1094 -0.1220 -0.3176
 2363SOL    HW3 9219   5.999   0.703   2.082  0.2980  0.7318  0.2183
 2363SOL    MW4 9220   5.914   0.687   2.067  0.4837 -0.1277  0.0559
 2364SOL     OW 9221   5.760   0.506   4.121  0.1778 -0.5200 -0.0512
 2364SOL    HW2 9222   5.817   0.433   4.144 -0.3782 -0.8047  0.4283
 2364SOL    HW3 9223   5.815   0.563   4.067  1.3260 -0.1185  1.4836
 2364SOL    MW4 9224   5.775   0.504   4.117  0.2559 -0.5046  0.2145
 2365SOL     OW 9225   3.829   2.453   3.849 -0.2086 -0.8919 -0.0047
 2365SOL    HW2 9226   3.819   2.509   3.926 -0.7384 -1.5882  0.4442
 2365SOL    HW3 9227   3.843   2.365   3.884  1.7508 -0.9167 -0.6724
 2365SOL    MW4 9228   3.830   2.448   3.864 -0.0200 -0.9870 -0.0336
 2366SOL     OW 9229   3.021   4.076   5.769  0.2828  0.1166  0.1083
 2366SOL    HW2 9230   3.057   4.052   5.684 -0.3040 -1.3944  0.2568
 2366SOL    HW3 9231   3.081   4.036   5.833 -0.5082 -0.6961  0.3645
 2366SOL    MW4 9232   3.034   4.068   5.766  0.1010 -0.1900  0.1617
 2367SOL     OW 9233   5.663   4.419   5.422  1.1028  0.1111  0.0223
 2367SOL    HW2 9234   5.579   4.433   5.466  1.5815 -0.5931  1.2151
 2367SOL    HW3 9235   5.700   4.506   5.412  0.5233  0.3712  0.0758
 2367SOL    MW4 9236   5.657   4.432   5.426  1.0895  0.0525  0.1868
 2368SOL     OW 9237   2.725   3.562   2.945  0.3968  1.0567  0.0348
 2368SOL    HW2 9238   2.686   3.478   2.969  0.8091  0.4977 -1.1809
 2368SOL    HW3 9239   2.718   3.615   3.024 -0.2505  0.0227  0.6940
 2368SOL    MW4 9240   2.719   3.558   2.958  0.3658  0.8465 -0.0386
 2369SOL     OW 9241   1.870   1.158   0.881  0.1267  0.1654  0.0372
 2369SOL    HW2 9242   1.784   1.189   0.855 -0.1687 -1.1071 -0.5801
 2369SOL    HW3 9243   1.931   1.219   0.841 -0.3852 -0.8364 -2.4285
 2369SOL    MW4 9244   1.867   1.170   0.872  0.0202 -0.1347 -0.3696
 2370SOL     OW 9245   0.102   4.629   4.816 -0.9321  0.1007 -0.3308
 2370SOL    HW2 9246   0.060   4.547   4.844 -0.3056 -0.4450 -0.9611
 2370SOL    HW3 9247   0.080   4.636   4.723 -0.7844  0.5310 -0.3335
 2370SOL    MW4 9248   0.093   4.619   4.808 -0.8300  0.0855 -0.4143
 2371SOL     OW 9249   5.716   2.710   3.810 -0.1729  0.0563 -0.4629
 2371SOL    HW2 9250   5.632   2.737   3.772 -1.4882 -3.0236 -0.0933
 2371SOL    HW3 9251   5.735   2.776   3.876 -2.8961  0.3267  0.1771
 2371SOL    MW4 9252   5.707   2.722   3.813 -0.7058 -0.3144 -0.3297
 2372SOL     OW 9253   5.760   4.661   3.335 -0.0293 -0.0629  0.2792
 2372SOL    HW2 9254   5.853   4.669   3.314  0.1071  0.0251  0.8839
 2372SOL    HW3 9255   5.758   4.642   3.429 -0.6964  2.5197  0.8740
 2372SOL    MW4 9256   5.772   4.660   3.345 -0.0993  0.2895  0.4375
 2373SOL     OW 9257   1.598   0.117   0.117  0.0180 -0.1212  0.6362
 2373SOL    HW2 9258   1.693   0.119   0.125 -0.0208  0.6327  1.0703
 2373SOL    HW3 9259   1.568   0.065   0.193  0.0126  1.0359  1.4521
 2373SOL    MW4 9260   1.606   0.110   0.128  0.0121  0.1309  0.8011
 2374SOL     OW 9261   6.164   1.560   1.855 -0.4650  0.1183 -0.4016
 2374SOL    HW2 9262   6.103   1.548   1.783  1.6626  0.9598 -2.4764
 2374SOL    HW3 9263   6.153   1.652   1.881 -0.4125  0.1446 -0.4712
 2374SOL    MW4 9264   6.155   1.571   1.849 -0.1774  0.2328 -0.6845
 2375SOL     OW 9265   6.388   3.841   2.510 -0.6329 -0.1776 -0.2816
 2375SOL    HW2 9266   6.375   3.928   2.471 -0.8792  0.1406  0.4961
 2375SOL    HW3 9267   6.465   3.852   2.566 -0.4659 -0.5505 -0.4407
 2375SOL    MW4 9268   6.396   3.854   2.512 -0.6434 -0.1848 -0.2000
 2376SOL     OW 9269   2.830   3.775   0.515  0.4046 -0.3967 -0.0389
 2376SOL    HW2 9270   2.869   3.858   0.542 -0.0161 -0.0614 -0.4590
 2376SOL    HW3 9271   2.898   3.733   0.462  0.2309  0.1583 -0.7184
 2376SOL    MW4 9272   2.844   3.780   0.512  0.3262 -0.2792 -0.1840
 2377SOL     OW 9273   4.491   5.547   2.284  0.1305  0.4447  0.6694
 2377SOL    HW2 9274   4.466   5.481   2.348 -0.0519  0.5668  0.7244
 2377SOL    HW3 9275   4.520   5.496   2.207  1.0593  0.2907  1.1080
 2377SOL    MW4 9276   4.492   5.531   2.282  0.2290  0.4405  0.7345
 2378SOL     OW 9277   3.909   2.946   1.565  0.0045 -0.2431 -0.4884
 2378SOL    HW2 9278   3.948   2.878   1.620  2.6889  2.3770  1.1618
 2378SOL    HW3 9279   3.915   3.026   1.618  0.3173  1.9705 -3.5765
 2378SOL    MW4 9280   3.915   2.948   1.579  0.3999  0.3947 -0.6781
 2379SOL     OW 9281   4.877   4.117   0.254 -0.3878  0.2809 -0.5493
 2379SOL    HW2 9282   4.859   4.070   0.173 -2.9047 -0.3283  0.2863
 2379SOL    HW3 9283   4.972   4.114   0.263 -0.2532 -2.2927 -1.9272
 2379SOL    MW4 9284   4.887   4.111   0.245 -0.7022 -0.1390 -0.6208
 2380SOL     OW 9285   1.114   4.383   2.528 -0.3665 -0.5956 -0.2132
 2380SOL    HW2 9286   1.200   4.422   2.546 -0.2146 -0.0231 -1.9801
 2380SOL    HW3 9287   1.078   4.363   2.614  1.1575  0.0026  0.5933
 2380SOL    MW4 9288   1.120   4.386   2.542 -0.1454 -0.4411 -0.3399
 2381SOL     OW 9289   4.782   2.906   0.430  0.2654  0.3904 -0.5567
 2381SOL    HW2 9290   4.723   2.842   0.471  0.1293 -1.0858 -2.8850
 2381SOL    HW3 9291   4.724   2.973   0.394  0.2720  0.7184  0.0213
 2381SOL    MW4 9292   4.767   2.906   0.431  0.2483  0.2389 -0.7876
 2382SOL     OW 9293   4.320   5.594   6.143  0.2283 -0.6379  0.2125
 2382SOL    HW2 9294   4.230   5.622   6.161  0.8889  2.5942 -0.8358
 2382SOL    HW3 9295   4.365   5.603   6.227  0.3670  1.5438 -0.0430
 2382SOL    MW4 9296   4.314   5.599   6.157  0.3338  0.0764  0.0405
 2383SOL     OW 9297   1.029   2.780   5.351  0.5982  0.5674 -0.4251
 2383SOL    HW2 9298   0.980   2.745   5.425  0.1160 -0.2196 -1.0951
 2383SOL    HW3 9299   1.091   2.842   5.390 -0.9375  1.6406  0.4475
 2383SOL    MW4 9300   1.030   2.784   5.366  0.3319  0.6052 -0.3984
 2384SOL     OW 9301   0.975   5.371   5.760  0.7282 -0.3414 -0.6799
 2384SOL    HW2 9302   0.976   5.321   5.842 -0.1023 -1.0848 -1.1167
 2384SOL    HW3 9303   0.942   5.457   5.786  0.0988 -0.6898 -0.2949
 2384SOL    MW4 9304   0.971   5.376   5.775  0.5355 -0.4855 -0.6867
 2385SOL     OW 9305   4.075   4.282   4.797 -0.0966 -0.3123 -0.1448
 2385SOL    HW2 9306   4.155   4.322   4.762 -1.5210  1.5305 -1.5217
 2385SOL    HW3 9307   4.028   4.355   4.837 -1.3774 -1.2258  0.0619
 2385SOL    MW4 9308   4.079   4.297   4.798 -0.4535 -0.1897 -0.2992
 2386SOL     OW 9309   3.049   6.420   3.581  0.3444  0.2759 -0.1807
 2386SOL    HW2 9310   3.084   6.456   3.500 -1.3295 -2.3675 -2.2738
 2386SOL    HW3 9311   3.037   6.327   3.562 -0.2043 -0.4353  3.1201
 2386SOL    MW4 9312   3.052   6.413   3.568  0.0512 -0.1667 -0.0214
 2387SOL     OW 9313   4.777   5.412   3.970  0.6508 -0.0875  0.6223
 2387SOL    HW2 9314   4.857   5.392   4.019  0.9394 -1.1824 -0.2534
 2387SOL    HW3 9315   4.732   5.328   3.963 -0.7909  0.5836  1.4376
 2387SOL    MW4 9316   4.782   5.398   3.976  0.4987 -0.1434  0.6144
 2388SOL     OW 9317   6.040   2.319   4.826  0.3585 -0.3812 -0.2695
 2388SOL    HW2 9318   6.034   2.415   4.823  2.2460 -0.2432 -2.2266
 2388SOL    HW3 9319   5.978   2.293   4.894 -0.8274  2.1639 -0.2667
 2388SOL    MW4 9320   6.031   2.328   4.834  0.4511 -0.0272 -0.5273
 2389SOL     OW 9321   3.208   5.770   1.230 -0.6889  0.1079 -0.1981
 2389SOL    HW2 9322   3.152   5.740   1.302 -0.6617 -0.0496 -0.2432
 2389SOL    HW3 9323   3.151   5.771   1.153 -0.8686  0.8177 -0.0677
 2389SOL    MW4 9324   3.193   5.767   1.230 -0.7090  0.1807 -0.1868
 2390SOL     OW 9325   5.880   2.670   5.679 -0.2104 -0.5406  0.1510
 2390SOL    HW2 9326   5.974   2.655   5.690 -0.0712 -0.5838 -1.0442
 2390SOL    HW3 9327   5.844   2.655   5.767  1.2032  2.1438  1.3249
 2390SOL    MW4 9328   5.888   2.666   5.692 -0.0055 -0.1921  0.1482
 2391SOL     OW 9329   5.128   3.092   4.721 -0.5286 -0.0470 -0.3812
 2391SOL    HW2 9330   5.141   3.000   4.744  0.4087  0.4219  1.0962
 2391SOL    HW3 9331   5.036   3.109   4.742 -0.1773 -0.1260  1.3606
 2391SOL    MW4 9332   5.118   3.082   4.727 -0.3586  0.0045  0.0436
 2392SOL     OW 9333   0.883   2.697   5.564  0.1380  0.6627  0.4640
 2392SOL    HW2 9334   0.798   2.741   5.569 -0.8975 -1.2564  0.6845
 2392SOL    HW3 9335   0.865   2.606   5.590  1.8360 -0.3384 -1.5719
 2392SOL    MW4 9336   0.870   2.691   5.568  0.2254  0.2775  0.2245
 2393SOL     OW 9337   5.109   6.268   3.916 -0.3950  0.5581 -0.4905
 2393SOL    HW2 9338   5.049   6.200   3.946  1.0611 -1.0393 -0.9865
 2393SOL    HW3 9339   5.097   6.269   3.821  1.0691 -0.5566 -0.7212
 2393SOL    MW4 9340   5.099   6.259   3.907 -0.0097  0.2002 -0.5864
 2394SOL     OW 9341   0.516   0.385   5.421  0.5273 -0.0463 -0.0821
 2394SOL    HW2 9342   0.434   0.340   5.403  1.5596 -2.6014  1.0572
 2394SOL    HW3 9343   0.505   0.422   5.509  0.8471 -1.1147  0.4216
 2394SOL    MW4 9344   0.504   0.384   5.430  0.7057 -0.5244  0.1347
 2395SOL     OW 9345   1.208   4.659   2.002 -0.8255  0.4357 -0.6462
 2395SOL    HW2 9346   1.273   4.590   2.017 -1.3499  0.0437 -0.0960
 2395SOL    HW3 9347   1.259   4.738   1.990 -0.2442  0.1573 -0.0588
 2395SOL    MW4 9348   1.223   4.660   2.003 -0.8180  0.3473 -0.4961
 2396SOL     OW 9349   4.260   3.660   3.561 -0.1524  0.3198  0.1062
 2396SOL    HW2 9350   4.354   3.679   3.551  0.1183 -1.1072 -0.2707
 2396SOL    HW3 9351   4.218   3.713   3.494  0.0287  3.2675  2.1233
 2396SOL    MW4 9352   4.267   3.670   3.551 -0.0928  0.5205  0.3226
 2397SOL     OW 9353   2.901   0.821   1.314  0.1949  0.3114 -0.2171
 2397SOL    HW2 9354   2.921   0.778   1.231  1.4013 -0.0391  0.2339
 2397SOL    HW3 9355   2.814   0.788   1.337  0.7841 -1.3960 -0.2357
 2397SOL    MW4 9356   2.892   0.811   1.306  0.4318  0.0399 -0.1600
 2398SOL     OW 9357   1.631   6.394   6.021  0.3804 -0.1405  0.0627
 2398SOL    HW2 9358   1.537   6.386   6.003  0.4006 -2.8862  0.8202
 2398SOL    HW3 9359   1.660   6.462   5.960 -1.9847  0.4085 -0.5801
 2398SOL    MW4 9360   1.622   6.402   6.010  0.0710 -0.4303  0.0778
 2399SOL     OW 9361   4.345   0.588   4.692 -0.1435  0.4143  0.3212
 2399SOL    HW2 9362   4.377   0.498   4.694 -2.1909 -0.3773 -0.0474
 2399SOL    HW3 9363   4.325   0.609   4.783 -0.8740 -0.0042  0.2689
 2399SOL    MW4 9364   4.346   0.579   4.704 -0.5100  0.2546  0.2657
 2400SOL     OW 9365   6.039   1.717   3.481  0.4719 -0.0765 -0.5475
 2400SOL    HW2 9366   6.033   1.653   3.552 -1.5808  1.6062  0.9014
 2400SOL    HW3 9367   6.120   1.764   3.499 -0.0667  0.3897  0.7757
 2400SOL    MW4 9368   6.049   1.715   3.493  0.1300  0.2070 -0.1818
 2401SOL     OW 9369   3.105   1.208   4.534  0.1696  0.4026  0.4195
 2401SOL    HW2 9370   3.167   1.245   4.471  1.5926 -0.2674  1.3829
 2401SOL    HW3 9371   3.157   1.147   4.586 -1.7588 -1.9018 -0.1780
 2401SOL    MW4 9372   3.120   1.205   4.532  0.1029  0.0102  0.4678
 2402SOL     OW 9373   2.684   6.232   4.604 -0.3296  0.2430 -0.3128
 2402SOL    HW2 9374   2.752   6.208   4.541 -0.3894 -1.1358  0.1096
 2402SOL    HW3 9375   2.602   6.206   4.562 -0.2368 -3.0839  1.2378
 2402SOL    MW4 9376   2.682   6.225   4.590 -0.3252 -0.3779 -0.0525
 2403SOL     OW 9377   6.163   1.477   5.533  0.3797 -0.3362 -0.8515
 2403SOL    HW2 9378   6.206   1.393   5.546 -0.4959 -0.6275  0.3247
 2403SOL    HW3 9379   6.231   1.542   5.553 -0.2858 -0.7496  3.9078
 2403SOL    MW4 9380   6.178   1.475   5.538  0.1763 -0.4292 -0.0684
 2404SOL     OW 9381   5.371   5.182   0.430  0.9783 -0.3320  0.4666
 2404SOL    HW2 9382   5.324   5.259   0.461  1.1496  0.0525 -0.2069
 2404SOL    HW3 9383   5.307   5.111   0.434  1.1555 -0.4469  2.2483
 2404SOL    MW4 9384   5.357   5.183   0.435  1.0243 -0.2964  0.6128
 2405SOL     OW 9385   5.814   3.325   2.491  0.1391 -0.0643  0.1671
 2405SOL    HW2 9386   5.789   3.241   2.529 -0.4039 -0.1204 -0.2985
 2405SOL    HW3 9387   5.866   3.302   2.414  0.0402  0.0282  0.0733
 2405SOL    MW4 9388   5.817   3.311   2.486  0.0544 -0.0595  0.0933
 2406SOL     OW 9389   3.977   3.456   5.034 -0.1961 -0.3853  0.2042
 2406SOL    HW2 9390   3.894   3.452   4.987 -1.2508  0.7631  1.8767
 2406SOL    HW3 9391   4.041   3.480   4.966 -1.0400 -2.0689 -1.2618
 2406SOL    MW4 9392   3.974   3.459   5.018 -0.4466 -0.4559  0.2314
 2407SOL     OW 9393   4.510   0.658   5.917  0.9180  0.0643  0.9569
 2407SOL    HW2 9394   4.435   0.704   5.879  1.2130  0.9449  1.3978
 2407SOL    HW3 9395   4.586   0.694   5.871  0.9697 -3.0488 -1.7733
 2407SOL    MW4 9396   4.510   0.669   5.906  0.9637 -0.2302  0.6549
 2408SOL     OW 9397   6.183   0.672   0.580 -0.3335 -0.0782 -0.0533
 2408SOL    HW2 9398   6.183   0.724   0.660  0.2954 -0.4738  0.2148
 2408SOL    HW3 9399   6.145   0.588   0.606 -0.8546  0.0619 -0.3563
 2408SOL    MW4 9400   6.178   0.667   0.594 -0.3193 -0.1119 -0.0579
 2409SOL     OW 9401   5.250   2.220   5.170 -0.0344  0.1699 -0.3359
 2409SOL    HW2 9402   5.242   2.259   5.257 -1.5717  0.3020 -0.5043
 2409SOL    HW3 9403   5.300   2.140   5.184 -0.8010 -0.1344  0.8027
 2409SOL    MW4 9404   5.255   2.214   5.183 -0.3384  0.1472 -0.2079
 2410SOL     OW 9405   4.769   5.331   2.249  0.5117  0.0193 -0.0623
 2410SOL    HW2 9406   4.862   5.342   2.227  0.2615  0.4159 -1.0058
 2410SOL    HW3 9407   4.758   5.380   2.330  0.3663  3.3600 -1.9067
 2410SOL    MW4 9408   4.780   5.339   2.257  0.4595  0.5124 -0.4301
 2411SOL     OW 9409   1.841   0.344   2.688 -0.2434 -0.0223 -0.6052
 2411SOL    HW2 9410   1.884   0.361   2.604  0.6308 -0.3787 -0.2453
 2411SOL    HW3 9411   1.904   0.290   2.736 -0.6776  0.2920  0.3350
 2411SOL    MW4 9412   1.855   0.339   2.683 -0.1854 -0.0278 -0.4337
 2412SOL     OW 9413   4.997   3.257   5.966  0.0101  0.4913  0.2533
 2412SOL    HW2 9414   4.937   3.194   5.927  2.0628 -1.2757 -0.2583
 2412SOL    HW3 9415   4.946   3.337   5.974 -2.4995 -0.9987  0.2329
 2412SOL    MW4 9416   4.982   3.259   5.962 -0.0502  0.0616  0.1831
 2413SOL     OW 9417   4.284   3.103   3.457  0.0417 -0.0819 -0.6007
 2413SOL    HW2 9418   4.326   3.100   3.543 -0.1918  1.7857 -0.3764
 2413SOL    HW3 9419   4.261   3.195   3.445 -0.2519 -0.3679 -2.5215
 2413SOL    MW4 9420   4.286   3.115   3.467 -0.0279  0.1268 -0.8246
 2414SOL     OW 9421   5.785   4.335   3.284 -0.2623  0.1003 -0.2816
 2414SOL    HW2 9422   5.694   4.364   3.283  0.1691  1.6819 -2.9711
 2414SOL    HW3 9423   5.780   4.240   3.272 -1.5749  0.3080 -1.6053
 2414SOL    MW4 9424   5.773   4.326   3.282 -0.3785  0.3364 -0.8111
 2415SOL     OW 9425   2.717   2.543   4.863 -0.5174  0.1806 -0.3781
 2415SOL    HW2 9426   2.699   2.475   4.798  0.7123 -0.7903  0.2394
 2415SOL    HW3 9427   2.699   2.625   4.818  0.5282 -0.4488 -2.0364
 2415SOL    MW4 9428   2.712   2.545   4.849 -0.2172 -0.0306 -0.5154
 2416SOL     OW 9429   6.105   2.719   1.675  0.1392  0.3375 -0.1012
 2416SOL    HW2 9430   6.101   2.626   1.695 -1.3956  0.1277 -1.1852
 2416SOL    HW3 9431   6.153   2.758   1.748 -0.8536 -1.0340  1.3373
 2416SOL    MW4 9432   6.111   2.712   1.687 -0.1943  0.1289 -0.0544
 2417SOL     OW 9433   5.979   2.581   4.878  0.0817 -0.5410  0.1326
 2417SOL    HW2 9434   5.893   2.549   4.905 -1.2820  0.7319 -2.3492
 2417SOL    HW3 9435   6.027   2.594   4.960 -2.9471  1.0562  1.8282
 2417SOL    MW4 9436   5.974   2.579   4.893 -0.4978 -0.1623  0.0289
 2418SOL     OW 9437   1.313   3.527   5.120  0.3551  0.2590  0.5060
 2418SOL    HW2 9438   1.285   3.570   5.200  1.3792 -0.3989  1.2442
 2418SOL    HW3 9439   1.234   3.483   5.087 -0.2809  1.2673  0.6536
 2418SOL    MW4 9440   1.299   3.527   5.126  0.4063  0.3053  0.6229
 2419SOL     OW 9441   3.779   4.751   5.834  0.2068  0.2013  0.3308
 2419SOL    HW2 9442   3.784   4.838   5.794 -2.2939 -0.0744 -0.7956
 2419SOL    HW3 9443   3.685   4.734   5.841  0.6106 -2.9178 -0.6635
 2419SOL    MW4 9444   3.767   4.761   5.829 -0.0699 -0.2466  0.0510
 2420SOL     OW 9445   4.555   0.373   3.339  0.2821  0.9073  0.1866
 2420SOL    HW2 9446   4.576   0.431   3.413 -0.3510  2.2183 -0.6083
 2420SOL    HW3 9447   4.612   0.297   3.351 -0.6895  0.4566  2.7181
 2420SOL    MW4 9448   4.566   0.371   3.350  0.0704  1.0208  0.4157
 2421SOL     OW 9449   2.295   1.317   5.673  0.3131  0.0721 -0.1759
 2421SOL    HW2 9450   2.269   1.263   5.748  0.5316 -0.5010 -0.5015
 2421SOL    HW3 9451   2.385   1.288   5.654  0.0324 -0.2478 -1.0547
 2421SOL    MW4 9452   2.304   1.306   5.680  0.3049 -0.0457 -0.3348
 2422SOL     OW 9453   1.736   1.578   3.899  0.5783  0.0837 -0.1232
 2422SOL    HW2 9454   1.770   1.513   3.838  1.0952 -2.2877  2.4775
 2422SOL    HW3 9455   1.813   1.630   3.924  0.6916 -0.0242 -0.2463
 2422SOL    MW4 9456   1.751   1.577   3.895  0.6614 -0.2434  0.2037
 2423SOL     OW 9457   0.174   3.307   2.163 -0.6668  0.4522  0.2585
 2423SOL    HW2 9458   0.172   3.369   2.236  1.9801  1.7487 -0.6626
 2423SOL    HW3 9459   0.209   3.358   2.090 -0.5587 -1.5746 -1.1634
 2423SOL    MW4 9460   0.178   3.322   2.163 -0.3033  0.3559 -0.0506
 2424SOL     OW 9461   1.030   5.068   1.319 -0.0555 -0.0213 -0.2030
 2424SOL    HW2 9462   1.012   5.124   1.243  0.1272  0.4847  0.1187
 2424SOL    HW3 9463   1.121   5.089   1.342  0.0370 -0.5117 -0.1296
 2424SOL    MW4 9464   1.040   5.078   1.312 -0.0192 -0.0193 -0.1509
 2425SOL     OW 9465   2.992   4.122   1.541 -0.0473 -0.3410  0.2042
 2425SOL    HW2 9466   3.050   4.199   1.544 -0.2992 -0.1653  1.8284
 2425SOL    HW3 9467   3.046   4.051   1.578 -0.8161 -0.1783  1.7200
 2425SOL    MW4 9468   3.007   4.123   1.547 -0.1820 -0.2964  0.6185
 2426SOL     OW 9469   3.490   3.522   2.800 -0.5541 -0.9136  0.0115
 2426SOL    HW2 9470   3.407   3.568   2.806 -0.2572 -0.4710  0.8702
 2426SOL    HW3 9471   3.469   3.439   2.756 -1.1696 -0.1648 -1.1616
 2426SOL    MW4 9472   3.476   3.517   2.795 -0.5961 -0.7564 -0.0300
 2427SOL     OW 9473   2.715   1.442   3.796  0.6008 -0.6642 -0.2234
 2427SOL    HW2 9474   2.694   1.493   3.875 -0.7185 -1.0254 -0.3261
 2427SOL    HW3 9475   2.632   1.434   3.750  1.1891 -1.2284 -1.2135
 2427SOL    MW4 9476   2.701   1.448   3.800  0.5044 -0.7863 -0.3676
 2428SOL     OW 9477   1.457   3.979   3.718  0.3777 -0.2038  0.0603
 2428SOL    HW2 9478   1.539   4.005   3.761  1.1939 -0.2218 -1.4332
 2428SOL    HW3 9479   1.425   4.060   3.677 -0.5440 -0.1216  0.9041
 2428SOL    MW4 9480   1.464   3.993   3.719  0.3638 -0.1953 -0.0254
 2429SOL     OW 9481   4.550   1.649   2.977  0.2533 -0.0258 -0.8945
 2429SOL    HW2 9482   4.579   1.734   2.942 -1.2316  0.2778 -1.4487
 2429SOL    HW3 9483   4.459   1.663   3.000 -0.1076 -1.5720 -1.3009
 2429SOL    MW4 9484   4.542   1.662   2.975  0.0097 -0.1898 -1.0213
 2430SOL     OW 9485   4.081   5.878   4.536  0.3322  0.1491 -0.1274
 2430SOL    HW2 9486   4.177   5.885   4.541  0.2802  0.0555  2.2615
 2430SOL    HW3 9487   4.054   5.957   4.488  1.5724  0.3263 -0.5751
 2430SOL    MW4 9488   4.090   5.889   4.530  0.4890  0.1601  0.1287
 2431SOL     OW 9489   5.867   1.558   0.291 -0.1254 -0.3235 -0.6154
 2431SOL    HW2 9490   5.859   1.463   0.299 -1.0434 -0.0853  2.8185
 2431SOL    HW3 9491   5.940   1.581   0.348 -2.2517  1.2499  1.6934
 2431SOL    MW4 9492   5.875   1.549   0.300 -0.5270 -0.0845  0.1422
 2432SOL     OW 9493   1.322   5.929   4.666  0.5174 -0.1219  0.1014
 2432SOL    HW2 9494   1.402   5.921   4.717  1.0572 -0.2883 -0.7493
 2432SOL    HW3 9495   1.327   6.016   4.626 -0.1627  0.2303  0.7434
 2432SOL    MW4 9496   1.333   5.939   4.667  0.4989 -0.0974  0.0739
 2433SOL     OW 9497   4.569   0.949   1.357  0.1240  0.0894 -0.5684
 2433SOL    HW2 9498   4.554   0.963   1.450 -0.1972  0.9305 -0.7328
 2433SOL    HW3 9499   4.659   0.919   1.351 -0.0469 -0.5841  0.0615
 2433SOL    MW4 9500   4.579   0.947   1.368  0.0591  0.1115 -0.5070
 2434SOL     OW 9501   2.208   4.126   1.949  0.2884 -0.8765  0.2787
 2434SOL    HW2 9502   2.154   4.070   2.006 -1.5257  0.6930  0.2158
 2434SOL    HW3 9503   2.238   4.196   2.007 -2.3926  1.3007 -0.7168
 2434SOL    MW4 9504   2.205   4.128   1.964 -0.3047 -0.3822  0.1391
 2435SOL     OW 9505   5.895   1.351   2.290 -0.4363 -0.0722 -0.1322
 2435SOL    HW2 9506   5.819   1.297   2.268 -1.1597  0.1530  1.6180
 2435SOL    HW3 9507   5.925   1.316   2.374 -0.2162  1.4904  0.4679
 2435SOL    MW4 9508   5.889   1.339   2.298 -0.5027  0.1637  0.1779
 2436SOL     OW 9509   4.748   2.102   1.786 -0.0107 -0.3635 -0.2419
 2436SOL    HW2 9510   4.763   2.009   1.804 -1.5528 -0.5993 -0.0497
 2436SOL    HW3 9511   4.805   2.147   1.848 -0.7491 -1.1815  1.0729
 2436SOL    MW4 9512   4.758   2.095   1.796 -0.3116 -0.5025 -0.0431
 2437SOL     OW 9513   5.696   2.113   0.280 -0.5823  0.1341  0.0008
 2437SOL    HW2 9514   5.774   2.070   0.316  0.3188  2.0977  0.5524
 2437SOL    HW3 9515   5.633   2.042   0.268  1.0229 -1.4087  0.2474
 2437SOL    MW4 9516   5.698   2.098   0.283 -0.2516  0.1896  0.1061
 2438SOL     OW 9517   0.342   6.384   1.930 -0.3066  0.0735  0.5274
 2438SOL    HW2 9518   0.294   6.379   2.013  0.7008  1.6742  1.2669
 2438SOL    HW3 9519   0.421   6.434   1.952  0.2644  0.0256 -1.2894
 2438SOL    MW4 9520   0.346   6.390   1.944 -0.0984  0.2784  0.3853
 2439SOL     OW 9521   6.155   3.895   5.385 -0.3848 -0.0870 -0.4287
 2439SOL    HW2 9522   6.182   3.856   5.468  0.6404  1.3610 -0.0260
 2439SOL    HW3 9523   6.061   3.909   5.394 -0.6000 -1.4995 -0.2131
 2439SOL    MW4 9524   6.146   3.892   5.397 -0.2780 -0.0823 -0.3471
 2440SOL     OW 9525   0.063   3.726   4.535 -0.4423 -0.2445  0.3041
 2440SOL    HW2 9526  -0.001   3.654   4.533 -0.3893 -0.4959  3.2821
 2440SOL    HW3 9527   0.123   3.706   4.463 -1.4661 -2.1809 -0.0976
 2440SOL    MW4 9528   0.062   3.714   4.525 -0.5704 -0.5332  0.6440
 2441SOL     OW 9529   0.904   4.571   2.474 -0.3016 -0.3471 -0.0017
 2441SOL    HW2 9530   0.982   4.524   2.506  0.1367  0.2099 -0.2292
 2441SOL    HW3 9531   0.935   4.616   2.395 -0.9555 -0.4143 -0.2985
 2441SOL    MW4 9532   0.919   4.571   2.467 -0.3300 -0.2825 -0.0708
 2442SOL     OW 9533   4.842   1.413   1.495 -0.0537  0.0156  0.1410
 2442SOL    HW2 9534   4.749   1.394   1.486 -0.3282  0.8162  1.0859
 2442SOL    HW3 9535   4.859   1.406   1.589  0.8167 -0.0131 -0.0054
 2442SOL    MW4 9536   4.832   1.410   1.506  0.0250  0.1175  0.2463
 2443SOL     OW 9537   4.018   4.500   4.983 -0.0553  0.7322 -0.1997
 2443SOL    HW2 9538   4.059   4.506   5.069  1.3557  0.9636 -0.8590
 2443SOL    HW3 9539   4.001   4.591   4.959 -0.5060  0.6643 -0.1431
 2443SOL    MW4 9540   4.021   4.513   4.991  0.0714  0.7538 -0.2792
 2444SOL     OW 9541   2.192   4.096   3.670  0.7266  0.2144  0.6746
 2444SOL    HW2 9542   2.209   4.079   3.763 -1.3956 -0.1619  1.0557
 2444SOL    HW3 9543   2.127   4.166   3.670  0.3078 -0.1473 -0.5078
 2444SOL    MW4 9544   2.186   4.103   3.682  0.3913  0.1170  0.5689
 2445SOL     OW 9545   0.845   5.303   1.800  0.7242  0.5029 -0.0164
 2445SOL    HW2 9546   0.920   5.296   1.741 -0.4086  0.0349 -1.4888
 2445SOL    HW3 9547   0.770   5.312   1.741 -0.3633  1.0644  1.4094
 2445SOL    MW4 9548   0.845   5.303   1.784  0.4313  0.5152 -0.0225
 2446SOL     OW 9549   1.630   0.492   6.155  0.6984  0.2869  0.3446
 2446SOL    HW2 9550   1.598   0.418   6.105 -1.6791  0.5342  1.3910
 2446SOL    HW3 9551   1.640   0.458   6.245 -1.4143  1.4139  1.0619
 2446SOL    MW4 9552   1.627   0.478   6.161  0.1060  0.4683  0.5773
 2447SOL     OW 9553   3.011   5.068   4.458  0.1327  0.9800  0.4139
 2447SOL    HW2 9554   2.950   5.062   4.385 -1.2226 -0.7366  1.5790
 2447SOL    HW3 9555   3.033   5.161   4.464  0.3152  1.1519 -2.1452
 2447SOL    MW4 9556   3.006   5.079   4.449 -0.0220  0.7762  0.2300
 2448SOL     OW 9557   3.889   1.800   0.817 -0.2479  0.1820  0.1407
 2448SOL    HW2 9558   3.923   1.764   0.900 -1.6622  2.2633  1.7314
 2448SOL    HW3 9559   3.808   1.752   0.802 -0.8212  0.8898  0.8776
 2448SOL    MW4 9560   3.883   1.789   0.826 -0.5102  0.5500  0.4478
 2449SOL     OW 9561   5.811   6.074   2.301  0.1093  0.2930 -0.1754
 2449SOL    HW2 9562   5.807   6.096   2.394  0.0599 -0.1348 -0.0772
 2449SOL    HW3 9563   5.876   6.134   2.266  0.8931 -0.2399  0.3355
 2449SOL    MW4 9564   5.819   6.085   2.309  0.2062  0.1662 -0.0951
 2450SOL     OW 9565   1.468   5.930   2.146  0.5020  0.2584  0.3476
 2450SOL    HW2 9566   1.405   5.869   2.107  0.1251  1.2747 -0.6677
 2450SOL    HW3 9567   1.434   6.017   2.125  0.7181  0.8620  2.2526
 2450SOL    MW4 9568   1.455   5.933   2.138  0.4808  0.4721  0.4650
 2451SOL     OW 9569   1.790   4.920   2.592 -0.0175  0.6818 -0.3783
 2451SOL    HW2 9570   1.696   4.932   2.579 -0.1469  0.9012  0.7034
 2451SOL    HW3 9571   1.807   4.831   2.562 -0.6556  0.4690 -0.1159
 2451SOL    MW4 9572   1.780   4.910   2.586 -0.1187  0.6827 -0.2010
 2452SOL     OW 9573   5.304   2.024   5.898 -0.1945  0.4856  0.2045
 2452SOL    HW2 9574   5.238   2.038   5.966 -0.0484 -0.2083  0.4924
 2452SOL    HW3 9575   5.268   1.954   5.843  0.5776 -0.3431  0.7331
 2452SOL    MW4 9576   5.291   2.017   5.899 -0.0734  0.2847  0.3122
 2453SOL     OW 9577   2.504   4.387   5.178  0.2796 -0.5742  0.5578
 2453SOL    HW2 9578   2.553   4.324   5.231  1.5400 -0.3783 -0.3412
 2453SOL    HW3 9579   2.494   4.463   5.235 -1.4047 -1.5781  1.7213
 2453SOL    MW4 9580   2.509   4.389   5.193  0.2236 -0.6808  0.5927
 2454SOL     OW 9581   1.522   2.140   3.475  0.4743  0.1076 -0.4047
 2454SOL    HW2 9582   1.492   2.208   3.536 -1.6347  1.3064 -2.6002
 2454SOL    HW3 9583   1.451   2.132   3.411  2.3999 -1.3168 -2.5360
 2454SOL    MW4 9584   1.508   2.148   3.475  0.4501  0.0779 -0.9756
 2455SOL     OW 9585   0.932   2.346   0.065  0.4589 -0.1914  0.4649
 2455SOL    HW2 9586   0.946   2.339   0.160  0.8984 -1.3870  0.3320
 2455SOL    HW3 9587   0.896   2.261   0.041 -1.4190  0.7265 -0.1729
 2455SOL    MW4 9588   0.929   2.334   0.075  0.2691 -0.2281  0.3632
 2456SOL     OW 9589   1.328   3.696   5.860 -0.0997  0.1832 -0.5707
 2456SOL    HW2 9590   1.338   3.603   5.841 -0.3168 -0.1686  0.9219
 2456SOL    HW3 9591   1.417   3.732   5.854  0.0438 -0.1982 -0.7349
 2456SOL    MW4 9592   1.341   3.689   5.857 -0.1094  0.0865 -0.3954
 2457SOL     OW 9593   4.667   4.432   1.548  0.0337  0.2088 -0.4375
 2457SOL    HW2 9594   4.635   4.522   1.540  0.0561  0.3076  0.4279
 2457SOL    HW3 9595   4.628   4.400   1.630  0.8163 -0.2332 -0.2285
 2457SOL    MW4 9596   4.657   4.439   1.558  0.1399  0.1635 -0.2957
 2458SOL     OW 9597   6.346   2.674   3.363  0.4562 -0.3960  0.1785
 2458SOL    HW2 9598   6.325   2.765   3.341 -1.9834 -1.3958 -2.1960
 2458SOL    HW3 9599   6.267   2.641   3.406  0.6137 -1.8629 -0.6082
 2458SOL    MW4 9600   6.333   2.682   3.366  0.1551 -0.7215 -0.2386
 2459SOL     OW 9601   3.773   6.052   0.683 -0.1867 -0.2540  0.1373
 2459SOL    HW2 9602   3.776   6.109   0.606  1.0195 -1.5986 -0.8612
 2459SOL    HW3 9603   3.699   5.994   0.668 -0.2635 -0.1859  0.2485
 2459SOL    MW4 9604   3.764   6.052   0.671 -0.0377 -0.4224  0.0202
 2460SOL     OW 9605   4.065   4.008   1.812 -0.3124 -0.1980  0.2312
 2460SOL    HW2 9606   4.037   4.061   1.887 -1.0094  1.1411 -0.9327
 2460SOL    HW3 9607   4.078   4.071   1.742  1.0273 -1.3442 -0.6093
 2460SOL    MW4 9608   4.063   4.024   1.813 -0.2276 -0.1726 -0.0332
 2461SOL     OW 9609   4.280   1.058   5.960 -0.0940 -0.1167  0.0980
 2461SOL    HW2 9610   4.304   1.033   6.049 -2.2837 -1.5531  0.3840
 2461SOL    HW3 9611   4.215   1.128   5.972  2.0471  2.0941 -0.5463
 2461SOL    MW4 9612   4.274   1.064   5.973 -0.1004 -0.0146  0.0507
 2462SOL     OW 9613   4.833   0.091   0.673  0.0601  0.3537  0.1424
 2462SOL    HW2 9614   4.815   0.011   0.623  1.7115  0.0025  0.0399
 2462SOL    HW3 9615   4.822   0.162   0.610  1.9970 -0.0750 -0.7524
 2462SOL    MW4 9616   4.830   0.090   0.658  0.5335  0.2508  0.0108
 2463SOL     OW 9617   0.151   3.235   0.473 -0.7035 -0.0474  0.0478
 2463SOL    HW2 9618   0.127   3.181   0.398  0.1950  1.1988 -1.2220
 2463SOL    HW3 9619   0.161   3.323   0.436  0.8566  0.4068  1.4037
 2463SOL    MW4 9620   0.149   3.240   0.458 -0.3792  0.1770  0.0592
 2464SOL     OW 9621   1.315   2.689   4.687  0.2620 -0.7492  0.3407
 2464SOL    HW2 9622   1.327   2.604   4.730  1.0370 -0.9518 -0.2593
 2464SOL    HW3 9623   1.231   2.680   4.641  1.3859 -2.0671 -1.6304
 2464SOL    MW4 9624   1.305   2.677   4.687  0.5125 -0.9498  0.0015
 2465SOL     OW 9625   5.052   5.628   5.092 -0.2613 -0.4768  0.7654
 2465SOL    HW2 9626   5.114   5.700   5.081  0.3767 -1.0024  0.8489
 2465SOL    HW3 9627   4.975   5.668   5.131 -0.5602  0.4680 -0.7019
 2465SOL    MW4 9628   5.050   5.642   5.095 -0.2166 -0.4215  0.5828
 2466SOL     OW 9629   3.930   5.561   5.877 -0.3190  0.0642  0.7968
 2466SOL    HW2 9630   3.876   5.576   5.799  0.2941  1.4866  0.6084
 2466SOL    HW3 9631   3.870   5.522   5.941 -0.8191 -1.1706 -0.3838
 2466SOL    MW4 9632   3.915   5.558   5.875 -0.3041  0.0890  0.6162
 2467SOL     OW 9633   1.269   5.844   6.354  0.3132  0.3135  0.1740
 2467SOL    HW2 9634   1.302   5.931   6.373  0.2891  0.2654  0.4324
 2467SOL    HW3 9635   1.174   5.851   6.364  0.3792  0.0250  1.1534
 2467SOL    MW4 9636   1.261   5.856   6.358  0.3187  0.2691  0.3373
 2468SOL     OW 9637   4.997   3.002   4.189  0.2058 -0.3917  0.0661
 2468SOL    HW2 9638   4.924   3.063   4.181  0.6990  0.2539  0.4881
 2468SOL    HW3 9639   4.959   2.917   4.167 -0.0737  0.2905 -2.4439
 2468SOL    MW4 9640   4.983   2.998   4.185  0.2340 -0.2165 -0.2094
 2469SOL     OW 9641   2.535   0.313   3.819  0.6204  0.3318  0.0069
 2469SOL    HW2 9642   2.517   0.220   3.809  0.2609  0.2841  0.9895
 2469SOL    HW3 9643   2.574   0.339   3.735 -2.2933  0.0572 -1.5817
 2469SOL    MW4 9644   2.538   0.304   3.806  0.1886  0.2893 -0.0730
 2470SOL     OW 9645   4.660   6.036   4.660 -0.4519 -0.2992 -0.0476
 2470SOL    HW2 9646   4.700   6.068   4.580 -0.4696 -0.4843 -0.1306
 2470SOL    HW3 9647   4.727   6.048   4.727 -0.9287  1.1969  0.2047
 2470SOL    MW4 9648   4.674   6.042   4.658 -0.5172 -0.1262 -0.0253
 2471SOL     OW 9649   0.474   4.547   1.396  0.4380  0.0810 -0.1904
 2471SOL    HW2 9650   0.564   4.580   1.405  0.4948  0.8312 -2.6128
 2471SOL    HW3 9651   0.423   4.625   1.374 -0.8261 -0.3562  1.0691
 2471SOL    MW4 9652   0.479   4.562   1.394  0.2787  0.1223 -0.3438
 2472SOL     OW 9653   4.985   1.776   0.933  0.8397 -0.3948  0.2561
 2472SOL    HW2 9654   5.069   1.810   0.963  0.2235  1.9667 -0.4636
 2472SOL    HW3 9655   4.934   1.764   1.012  1.3693 -0.4902  0.5891
 2472SOL    MW4 9656   4.989   1.779   0.947  0.8283 -0.0958  0.2051
 2473SOL     OW 9657   4.325   1.372   0.295 -0.3322  0.2599  0.6655
 2473SOL    HW2 9658   4.412   1.340   0.272 -0.3346  2.3721 -3.0302
 2473SOL    HW3 9659   4.337   1.420   0.376  1.6331 -0.5866  0.9291
 2473SOL    MW4 9660   4.338   1.374   0.302 -0.0732  0.4269  0.2127
 2474SOL     OW 9661   4.356   5.908   3.010  0.4783  0.1382  0.3697
 2474SOL    HW2 9662   4.287   5.975   3.004  0.1288 -0.0567  1.8095
 2474SOL    HW3 9663   4.319   5.840   3.066  0.6007 -1.6017 -1.5565
 2474SOL    MW4 9664   4.342   5.908   3.017  0.4484 -0.1171  0.3055
 2475SOL     OW 9665   5.572   1.996   4.373 -0.4460  0.6634 -0.2096
 2475SOL    HW2 9666   5.506   1.976   4.306 -1.0907  2.2613 -0.0989
 2475SOL    HW3 9667   5.655   1.970   4.332 -0.9209  0.7213 -1.2574
 2475SOL    MW4 9668   5.574   1.990   4.359 -0.5937  0.8819 -0.3332
 2476SOL     OW 9669   4.821   3.805   4.415 -0.2159 -0.0182 -0.2982
 2476SOL    HW2 9670   4.797   3.896   4.432  0.3322 -0.1081  1.1200
 2476SOL    HW3 9671   4.802   3.792   4.322  0.9635  1.9559 -0.8836
 2476SOL    MW4 9672   4.816   3.815   4.405  0.0120  0.2304 -0.1883
 2477SOL     OW 9673   1.084   6.089   3.218  0.0874  0.2715 -0.1578
 2477SOL    HW2 9674   1.157   6.032   3.199  0.3123  0.2198  0.8118
 2477SOL    HW3 9675   1.016   6.064   3.155 -1.0203 -3.2898  2.1856
 2477SOL    MW4 9676   1.084   6.078   3.207 -0.0291 -0.2052  0.2793
 2478SOL     OW 9677   6.289   2.988   0.391  0.1115 -0.0503 -0.4165
 2478SOL    HW2 9678   6.285   3.065   0.448 -0.2251 -0.4325  0.0847
 2478SOL    HW3 9679   6.358   2.934   0.429 -0.3216 -0.4485 -0.1870
 2478SOL    MW4 9680   6.297   2.991   0.404  0.0100 -0.1533 -0.3201
 2479SOL     OW 9681   0.070   0.659   2.157 -0.3103 -0.2451  0.1790
 2479SOL    HW2 9682   0.056   0.590   2.222 -1.9720 -0.0508  0.0724
 2479SOL    HW3 9683   0.020   0.630   2.080  3.3314 -1.5566 -1.9225
 2479SOL    MW4 9684   0.061   0.647   2.155 -0.0491 -0.3925 -0.1124
 2480SOL     OW 9685   4.434   4.903   5.485 -0.3910  0.0526  0.2498
 2480SOL    HW2 9686   4.386   4.849   5.421  0.2241  0.4749 -0.5912
 2480SOL    HW3 9687   4.492   4.957   5.431  0.5948 -0.0128  1.2165
 2480SOL    MW4 9688   4.435   4.903   5.469 -0.1798  0.0997  0.2664
 2481SOL     OW 9689   4.355   3.330   5.016  0.2364 -0.0859 -0.8586
 2481SOL    HW2 9690   4.261   3.322   5.029 -0.0358  0.7225 -2.1736
 2481SOL    HW3 9691   4.388   3.240   5.021 -0.3438 -0.2329  1.2483
 2481SOL    MW4 9692   4.347   3.317   5.018  0.1240  0.0014 -0.7541
 2482SOL     OW 9693   4.268   1.455   6.240 -0.8557  0.0492  0.1755
 2482SOL    HW2 9694   4.189   1.503   6.265 -1.3311 -1.0641  0.9098
 2482SOL    HW3 9695   4.329   1.469   6.312 -2.2183 -3.1434  2.1929
 2482SOL    MW4 9696   4.266   1.463   6.253 -1.0982 -0.5189  0.5385
 2483SOL     OW 9697   3.528   0.771   0.422  1.2266 -0.0480 -0.0281
 2483SOL    HW2 9698   3.503   0.743   0.333  0.4236 -0.4722  0.3168
 2483SOL    HW3 9699   3.597   0.836   0.408 -0.9503  2.2302 -1.1650
 2483SOL    MW4 9700   3.534   0.776   0.408  0.8334  0.1966 -0.1326
 2484SOL     OW 9701   1.294   0.279   0.384 -0.2702 -0.1761 -0.3604
 2484SOL    HW2 9702   1.226   0.215   0.363 -1.8501  1.6686 -1.2885
 2484SOL    HW3 9703   1.339   0.294   0.301  0.5253 -0.5480 -0.0022
 2484SOL    MW4 9704   1.291   0.273   0.370 -0.3737  0.0182 -0.4356
 2485SOL     OW 9705   0.028   6.112   0.709  0.4126 -0.2154  0.1996
 2485SOL    HW2 9706   0.007   6.029   0.752  2.6684 -1.2149 -0.4237
 2485SOL    HW3 9707   0.084   6.086   0.635 -1.3878  1.6368 -1.9267
 2485SOL    MW4 9708   0.033   6.097   0.705  0.4727 -0.1029 -0.1632
 2486SOL     OW 9709   5.082   2.542   1.340 -0.0639 -0.3199 -0.0628
 2486SOL    HW2 9710   5.049   2.526   1.252  1.7281 -3.3361 -0.3092
 2486SOL    HW3 9711   5.027   2.489   1.398 -0.2823  0.4782  0.4921
 2486SOL    MW4 9712   5.071   2.533   1.336  0.1437 -0.6126 -0.0221
 2487SOL     OW 9713   4.139   4.726   0.082 -0.2228  0.4538  0.4509
 2487SOL    HW2 9714   4.071   4.682   0.030  0.1977  0.0742  0.2083
 2487SOL    HW3 9715   4.213   4.667   0.078  0.3646  1.1951  0.1060
 2487SOL    MW4 9716   4.140   4.713   0.074 -0.0899  0.5015  0.3734
 2488SOL     OW 9717   2.905   1.314   3.948  0.3741 -0.7339  0.1374
 2488SOL    HW2 9718   2.838   1.282   4.008 -0.7749  0.5593 -0.4143
 2488SOL    HW3 9719   2.858   1.365   3.883  1.9284  0.7073  0.0529
 2488SOL    MW4 9720   2.890   1.316   3.948  0.4276 -0.3731  0.0534
 2489SOL     OW 9721   5.992   4.505   4.855 -0.1702  0.5026 -0.4065
 2489SOL    HW2 9722   6.023   4.418   4.829 -0.2767  0.5264 -0.6177
 2489SOL    HW3 9723   5.932   4.531   4.785 -0.6061  0.4937 -0.0425
 2489SOL    MW4 9724   5.988   4.497   4.842 -0.2417  0.5046 -0.3864
 2490SOL     OW 9725   1.475   0.973   4.903 -0.5306  0.0173  0.3539
 2490SOL    HW2 9726   1.529   0.911   4.952 -0.4317  0.8299  1.2993
 2490SOL    HW3 9727   1.537   1.024   4.851 -0.5598 -0.2534  0.0472
 2490SOL    MW4 9728   1.490   0.971   4.902 -0.5214  0.0888  0.4382
 2491SOL     OW 9729   1.843   3.280   5.622  0.1298 -0.4288  0.3820
 2491SOL    HW2 9730   1.901   3.207   5.643  0.1982 -0.2090  0.9797
 2491SOL    HW3 9731   1.870   3.309   5.535  0.2245 -0.9914  0.2230
 2491SOL    MW4 9732   1.854   3.274   5.613  0.1513 -0.4740  0.4399
 2492SOL     OW 9733   1.901   4.252   4.428 -0.4314  0.8902  0.2857
 2492SOL    HW2 9734   1.969   4.192   4.456 -2.0503 -1.7354 -0.9607
 2492SOL    HW3 9735   1.948   4.326   4.390  1.6892 -0.0399  0.9394
 2492SOL    MW4 9736   1.916   4.254   4.427 -0.3652  0.4211  0.2075
 2493SOL     OW 9737   4.125   4.998   1.388  0.5640 -0.1776 -0.3383
 2493SOL    HW2 9738   4.082   5.071   1.432 -0.5068 -1.5787  1.0671
 2493SOL    HW3 9739   4.111   5.014   1.295  1.4026  1.9940 -0.1311
 2493SOL    MW4 9740   4.117   5.009   1.381  0.5334 -0.0759 -0.1255
 2494SOL     OW 9741   6.362   1.634   0.533  0.5850 -0.0400 -0.2022
 2494SOL    HW2 9742   6.318   1.657   0.615  0.0779 -1.8008  0.0520
 2494SOL    HW3 9743   6.292   1.603   0.476  0.8886  1.4579 -1.4488
 2494SOL    MW4 9744   6.347   1.633   0.536  0.5582 -0.0746 -0.3331
 2495SOL     OW 9745   3.073   5.324   1.234 -0.0364 -0.3615  0.1492
 2495SOL    HW2 9746   3.126   5.375   1.173 -2.9899  1.2614 -1.2696
 2495SOL    HW3 9747   3.100   5.353   1.321 -0.5628  2.6352 -0.5839
 2495SOL    MW4 9748   3.083   5.334   1.237 -0.4956  0.2480 -0.1347
 2496SOL     OW 9749   5.030   0.939   2.073 -0.0500  0.5403 -0.4545
 2496SOL    HW2 9750   4.990   0.899   1.996  1.9386  1.2722 -1.9402
 2496SOL    HW3 9751   4.970   1.011   2.096 -0.7997  0.1441 -1.1381
 2496SOL    MW4 9752   5.017   0.943   2.066  0.1135  0.5846 -0.7407
 2497SOL     OW 9753   6.097   2.878   4.213  0.8840 -0.6295 -0.4546
 2497SOL    HW2 9754   6.040   2.902   4.141 -0.0519 -1.7843 -0.1377
 2497SOL    HW3 9755   6.126   2.961   4.250 -0.1454 -0.0202 -0.9812
 2497SOL    MW4 9756   6.093   2.892   4.209  0.6247 -0.7015 -0.4822
 2498SOL     OW 9757   1.505   0.895   1.104  0.0642 -0.0662 -0.0424
 2498SOL    HW2 9758   1.538   0.924   1.189 -0.4371 -0.8751  0.4440
 2498SOL    HW3 9759   1.563   0.824   1.079 -1.1126 -1.3307  0.7011
 2498SOL    MW4 9760   1.517   0.890   1.112 -0.1572 -0.3397  0.1199
 2499SOL     OW 9761   0.540   1.066   0.610 -0.2442  0.3126 -0.3543
 2499SOL    HW2 9762   0.617   1.092   0.558  0.9923 -0.1006  1.1822
 2499SOL    HW3 9763   0.482   1.142   0.607  1.3866  1.6573  0.5412
 2499SOL    MW4 9764   0.543   1.079   0.603  0.1341  0.4355 -0.0334
 2500SOL     OW 9765   3.714   5.684   4.639 -0.0406 -0.3106 -0.2644
 2500SOL    HW2 9766   3.809   5.690   4.651 -0.0191  1.1768 -0.9517
 2500SOL    HW3 9767   3.688   5.772   4.611 -1.5430 -0.8549 -0.6598
 2500SOL    MW4 9768   3.723   5.697   4.637 -0.2360 -0.1862 -0.4072
 2501SOL     OW 9769   4.354   4.466   6.198 -0.4712 -0.2546  0.7122
 2501SOL    HW2 9770   4.386   4.552   6.225 -0.9903 -0.1590  1.0235
 2501SOL    HW3 9771   4.341   4.474   6.103 -1.2250  0.2410  0.8529
 2501SOL    MW4 9772   4.356   4.478   6.189 -0.6391 -0.1766  0.7718
 2502SOL     OW 9773   1.651   6.111   0.758 -0.6189  0.0612 -0.0083
 2502SOL    HW2 9774   1.732   6.153   0.731 -0.6606  0.1081 -0.0600
 2502SOL    HW3 9775   1.679   6.032   0.804 -0.5941 -0.9351 -1.6830
 2502SOL    MW4 9776   1.665   6.106   0.761 -0.6212 -0.0641 -0.2361
 2503SOL     OW 9777   0.529   1.993   1.168  0.0997  0.0981 -0.2338
 2503SOL    HW2 9778   0.532   1.898   1.176 -1.1785 -0.0168 -0.8699
 2503SOL    HW3 9779   0.488   2.022   1.250  1.5369  0.2167  0.4725
 2503SOL    MW4 9780   0.524   1.984   1.180  0.1206  0.0986 -0.2245
 2504SOL     OW 9781   5.978   0.176   3.551 -0.1009  0.8606  0.1390
 2504SOL    HW2 9782   5.932   0.150   3.631  1.5649  0.6771  1.0780
 2504SOL    HW3 9783   5.923   0.144   3.480  0.5190 -3.0386  1.2075
 2504SOL    MW4 9784   5.965   0.168   3.552  0.2006  0.3219  0.4038
 2505SOL     OW 9785   3.749   1.873   5.574 -0.2204 -0.3773 -0.0040
 2505SOL    HW2 9786   3.704   1.819   5.638 -0.0127 -0.9359 -0.3188
 2505SOL    HW3 9787   3.683   1.937   5.545 -0.4444 -0.4125  0.4231
 2505SOL    MW4 9788   3.734   1.874   5.579 -0.2226 -0.4556  0.0108
 2506SOL     OW 9789   2.565   2.039   0.061  0.2340 -0.1384  0.3861
 2506SOL    HW2 9790   2.642   2.076   0.018  0.0185 -0.8156 -0.6091
 2506SOL    HW3 9791   2.601   1.980   0.128  0.6378 -1.8456 -1.2535
 2506SOL    MW4 9792   2.580   2.036   0.064  0.2589 -0.4530  0.0385
 2507SOL     OW 9793   2.097   6.371   0.112  0.2295 -0.1840 -0.4763
 2507SOL    HW2 9794   2.068   6.280   0.098  0.2538 -0.1228 -0.9571
 2507SOL    HW3 9795   2.175   6.379   0.056  0.6978 -0.1047  0.1814
 2507SOL    MW4 9796   2.104   6.360   0.103  0.2945 -0.1655 -0.4530
 2508SOL     OW 9797   3.160   1.254   3.866 -0.2229 -0.4924 -0.7205
 2508SOL    HW2 9798   3.162   1.297   3.780 -1.5249  0.6231 -0.2237
 2508SOL    HW3 9799   3.068   1.253   3.890  0.3475  1.9939  1.9988
 2508SOL    MW4 9800   3.148   1.260   3.858 -0.3194 -0.0172 -0.2961
 2509SOL     OW 9801   4.422   0.569   3.026  0.0154  0.2894 -0.4499
 2509SOL    HW2 9802   4.406   0.611   2.941 -5.5455 -2.4170 -1.2314
 2509SOL    HW3 9803   4.443   0.478   3.003 -0.9566 -0.3384  1.0357
 2509SOL    MW4 9804   4.423   0.562   3.012 -0.8465 -0.1505 -0.3570
 2510SOL     OW 9805   2.061   2.638   3.863  0.4950  0.6261  0.3248
 2510SOL    HW2 9806   2.123   2.709   3.877 -1.2412  2.1697  0.6183
 2510SOL    HW3 9807   2.074   2.611   3.772  2.0260  0.4293  0.5814
 2510SOL    MW4 9808   2.071   2.644   3.853  0.4679  0.8038  0.3974
 2511SOL     OW 9809   5.924   2.081   2.791  0.2111  0.0385 -0.0821
 2511SOL    HW2 9810   5.830   2.085   2.807  0.3253 -0.3407  0.7393
 2511SOL    HW3 9811   5.935   2.120   2.704 -0.6284  0.6874  0.0871
 2511SOL    MW4 9812   5.913   2.087   2.782  0.1154  0.0741  0.0486
 2512SOL     OW 9813   5.023   0.253   1.475  0.0192 -0.7811  0.8995
 2512SOL    HW2 9814   5.046   0.266   1.567 -0.6837  0.7030  0.8998
 2512SOL    HW3 9815   4.935   0.216   1.477  0.5128 -2.0062  0.8234
 2512SOL    MW4 9816   5.014   0.250   1.487 -0.0084 -0.7469  0.8895
 2513SOL     OW 9817   4.829   5.134   0.762 -0.1989  0.3660  0.8057
 2513SOL    HW2 9818   4.911   5.090   0.739 -0.4944 -0.5137  1.4174
 2513SOL    HW3 9819   4.835   5.219   0.717 -0.7777 -1.2307 -2.5991
 2513SOL    MW4 9820   4.841   5.140   0.753 -0.3142  0.0392  0.4372
 2514SOL     OW 9821   4.720   0.247   6.289  0.1953 -0.0766 -0.3807
 2514SOL    HW2 9822   4.767   0.178   6.336 -0.9530 -1.4475 -1.1598
 2514SOL    HW3 9823   4.719   0.218   6.198 -4.6756 -1.8163 -0.0737
 2514SOL    MW4 9824   4.726   0.234   6.283 -0.5989 -0.4870 -0.4430
 2515SOL     OW 9825   1.738   3.780   6.289 -0.0415 -0.3472 -0.1688
 2515SOL    HW2 9826   1.744   3.850   6.224 -1.2100  0.6534  0.7618
 2515SOL    HW3 9827   1.813   3.723   6.269 -1.0526 -0.8102 -3.1992
 2515SOL    MW4 9828   1.749   3.781   6.277 -0.3291 -0.2763 -0.4459
 2516SOL     OW 9829   5.506   3.603   3.698  0.4787 -0.3876 -0.0183
 2516SOL    HW2 9830   5.412   3.619   3.688  0.1560 -1.2265  1.3549
 2516SOL    HW3 9831   5.539   3.678   3.747  0.7338  0.3506 -1.2623
 2516SOL    MW4 9832   5.498   3.615   3.703  0.4698 -0.4009 -0.0013
 2517SOL     OW 9833   5.770   5.869   1.410 -0.3380  0.1730  0.2309
 2517SOL    HW2 9834   5.858   5.845   1.379 -0.4077 -0.1367  0.2764
 2517SOL    HW3 9835   5.784   5.896   1.501 -0.0298  1.6894 -0.2311
 2517SOL    MW4 9836   5.784   5.870   1.418 -0.3065  0.3322  0.1759
 2518SOL     OW 9837   0.674   0.453   1.184  0.2308  0.2824  0.3338
 2518SOL    HW2 9838   0.762   0.481   1.159  0.2957 -1.1851 -1.2240
 2518SOL    HW3 9839   0.616   0.517   1.142  0.4830 -0.2978 -0.9619
 2518SOL    MW4 9840   0.678   0.465   1.175  0.2727  0.0122 -0.0427
 2519SOL     OW 9841   3.408   5.551   3.285 -0.0003 -0.1137  0.1416
 2519SOL    HW2 9842   3.341   5.527   3.222  0.5125 -1.6173  0.1234
 2519SOL    HW3 9843   3.451   5.628   3.247 -1.0872  0.3058 -0.2816
 2519SOL    MW4 9844   3.405   5.558   3.272 -0.0761 -0.2567  0.0833
 2520SOL     OW 9845   2.028   3.673   4.332  0.0715  0.0990 -0.4180
 2520SOL    HW2 9846   2.079   3.690   4.253 -0.1158  0.4277 -0.4687
 2520SOL    HW3 9847   1.951   3.729   4.325  1.2527  2.0597  1.1524
 2520SOL    MW4 9848   2.025   3.683   4.321  0.2026  0.4011 -0.2175
 2521SOL     OW 9849   1.188   5.038   1.632  0.3367 -1.0015 -0.0163
 2521SOL    HW2 9850   1.282   5.055   1.624  0.4558 -1.5105  0.3461
 2521SOL    HW3 9851   1.172   5.031   1.726 -0.1414 -0.4985 -0.0525
 2521SOL    MW4 9852   1.198   5.040   1.643  0.2894 -1.0023  0.0267
 2522SOL     OW 9853   5.826   4.312   4.210  0.3543 -0.0984  0.0775
 2522SOL    HW2 9854   5.875   4.233   4.185 -0.4151 -1.1003  1.6206
 2522SOL    HW3 9855   5.734   4.289   4.195 -0.0567 -0.3252  2.4982
 2522SOL    MW4 9856   5.820   4.298   4.205  0.1985 -0.2605  0.6005
 2523SOL     OW 9857   1.980   2.356   5.793  0.1612 -0.7849  0.0145
 2523SOL    HW2 9858   2.018   2.364   5.706  0.8050 -0.9194  0.2730
 2523SOL    HW3 9859   1.943   2.268   5.795  0.8383 -1.0716  0.1378
 2523SOL    MW4 9860   1.980   2.346   5.782  0.3355 -0.8405  0.0649
 2524SOL     OW 9861   6.254   2.540   2.789 -0.2065 -0.1019 -0.2590
 2524SOL    HW2 9862   6.342   2.513   2.763  0.4328  1.5773 -0.0301
 2524SOL    HW3 9863   6.243   2.626   2.748 -0.4666  1.1473  2.2243
 2524SOL    MW4 9864   6.264   2.548   2.780 -0.1565  0.2844  0.0988
 2525SOL     OW 9865   6.303   3.679   0.112  0.3015  0.3922 -0.1989
 2525SOL    HW2 9866   6.258   3.654   0.032  1.5383  0.8622 -1.0695
 2525SOL    HW3 9867   6.236   3.676   0.180 -0.4989 -1.1655 -1.0253
 2525SOL    MW4 9868   6.288   3.675   0.111  0.3591  0.2487 -0.4228
 2526SOL     OW 9869   4.920   0.849   0.718 -0.7866 -0.1211  0.7718
 2526SOL    HW2 9870   4.890   0.783   0.656  0.5838 -0.1529  0.0880
 2526SOL    HW3 9871   4.912   0.808   0.803  1.9562 -2.0372  0.2241
 2526SOL    MW4 9872   4.915   0.835   0.721 -0.2439 -0.3781  0.6093
 2527SOL     OW 9873   4.310   6.314   2.772  0.6299 -0.1650  0.3955
 2527SOL    HW2 9874   4.327   6.373   2.846 -0.0136  0.2650  0.2049
 2527SOL    HW3 9875   4.329   6.367   2.694  2.3145 -0.9239  0.2376
 2527SOL    MW4 9876   4.315   6.329   2.772  0.7672 -0.2084  0.3496
 2528SOL     OW 9877   5.373   3.285   5.285  0.0087  0.0041  0.0903
 2528SOL    HW2 9878   5.430   3.349   5.243  0.3185 -0.6275 -0.4631
 2528SOL    HW3 9879   5.413   3.200   5.265 -0.5298 -0.3818  0.6098
 2528SOL    MW4 9880   5.386   3.282   5.277 -0.0214 -0.1301  0.0858
 2529SOL     OW 9881   0.911   2.036   2.153  0.4785 -0.2724 -0.1298
 2529SOL    HW2 9882   0.903   1.947   2.188  1.3638  0.2577  1.5200
 2529SOL    HW3 9883   0.846   2.040   2.083  2.2001 -3.0923 -2.1456
 2529SOL    MW4 9884   0.902   2.025   2.148  0.8224 -0.5745 -0.1781
 2530SOL     OW 9885   2.078   1.274   1.171  0.2901 -0.1384 -0.3457
 2530SOL    HW2 9886   2.033   1.196   1.206  0.3653 -0.3226 -0.6548
 2530SOL    HW3 9887   2.121   1.243   1.091  1.4134 -0.0958  0.2242
 2530SOL    MW4 9888   2.078   1.259   1.165  0.4482 -0.1571 -0.3113
 2531SOL     OW 9889   1.294   4.239   3.968 -0.4631 -0.2452  0.3151
 2531SOL    HW2 9890   1.250   4.311   4.012 -0.5445 -1.3722  2.1914
 2531SOL    HW3 9891   1.376   4.277   3.935 -0.3904  0.6631  1.4841
 2531SOL    MW4 9892   1.299   4.254   3.969 -0.4643 -0.2740  0.7169
 2532SOL     OW 9893   2.118   6.342   1.240  0.6720  0.2897 -0.2205
 2532SOL    HW2 9894   2.090   6.254   1.216  0.4855  0.0844  0.7301
 2532SOL    HW3 9895   2.062   6.400   1.188 -0.7151 -0.1306  0.7405
 2532SOL    MW4 9896   2.107   6.338   1.230  0.4644  0.2072  0.0317
 2533SOL     OW 9897   4.564   1.223   3.419 -0.6772 -0.1025  0.5134
 2533SOL    HW2 9898   4.516   1.246   3.498  0.2469 -0.4322  1.1785
 2533SOL    HW3 9899   4.525   1.278   3.351 -1.7309 -0.0886  1.1050
 2533SOL    MW4 9900   4.552   1.233   3.420 -0.6943 -0.1441  0.6792
 2534SOL     OW 9901   1.034   1.543   1.314  0.1218  0.0339 -0.5209
 2534SOL    HW2 9902   0.997   1.562   1.229  1.0299  1.0315 -0.7198
 2534SOL    HW3 9903   0.969   1.575   1.377 -0.0122  0.4084 -0.8483
 2534SOL    MW4 9904   1.021   1.549   1.311  0.2239  0.2149 -0.5903
 2535SOL     OW 9905   2.758   3.257   0.107 -0.0758 -0.4001 -0.4749
 2535SOL    HW2 9906   2.673   3.280   0.069 -0.1751 -1.8601 -1.2312
 2535SOL    HW3 9907   2.773   3.323   0.174 -1.4561  0.3287 -0.8340
 2535SOL    MW4 9908   2.749   3.268   0.111 -0.2710 -0.4966 -0.6220
 2536SOL     OW 9909   5.992   3.553   4.459  0.0650  0.1935  0.1659
 2536SOL    HW2 9910   5.984   3.648   4.470 -3.2330  0.0422  0.2928
 2536SOL    HW3 9911   5.986   3.539   4.365  1.8200  0.1263  0.0367
 2536SOL    MW4 9912   5.990   3.564   4.448 -0.1386  0.1647  0.1656
 2537SOL     OW 9913   1.992   3.017   0.920  0.3142  0.4589 -0.0344
 2537SOL    HW2 9914   2.047   2.944   0.948 -0.7922  0.4785  2.4491
 2537SOL    HW3 9915   1.960   2.990   0.834  1.5033 -1.0594 -0.0629
 2537SOL    MW4 9916   1.995   3.004   0.912  0.3251  0.2612  0.2895
 2538SOL     OW 9917   0.373   4.194   2.890 -0.2147 -1.0120 -0.3158
 2538SOL    HW2 9918   0.420   4.129   2.941  0.0063  0.0229  0.8557
 2538SOL    HW3 9919   0.288   4.154   2.872  0.1321 -1.8432 -0.1255
 2538SOL    MW4 9920   0.368   4.180   2.894 -0.1398 -0.9851 -0.1361
 2539SOL     OW 9921   6.268   4.232   3.469 -0.2799 -0.2586  0.1711
 2539SOL    HW2 9922   6.204   4.209   3.537 -0.7986 -0.9746 -0.5300
 2539SOL    HW3 9923   6.295   4.147   3.433 -0.0799  0.1093 -0.5647
 2539SOL    MW4 9924   6.263   4.218   3.473 -0.3220 -0.3045 -0.0185
 2540SOL     OW 9925   3.845   1.854   2.731  0.4598 -0.2654  0.2288
 2540SOL    HW2 9926   3.782   1.806   2.784  1.9652 -1.1425  1.3278
 2540SOL    HW3 9927   3.913   1.882   2.793  1.5780 -0.0787 -1.0103
 2540SOL    MW4 9928   3.846   1.852   2.746  0.8060 -0.3565  0.2103
 2541SOL     OW 9929   5.418   1.487   3.764  1.1572 -0.4122  0.1490
 2541SOL    HW2 9930   5.352   1.494   3.695  0.3510  1.3856  1.0385
 2541SOL    HW3 9931   5.501   1.505   3.720  0.6261  0.9796 -0.3544
 2541SOL    MW4 9932   5.420   1.490   3.749  0.9808  0.0086  0.1999
 2542SOL     OW 9933   2.645   1.130   1.833 -0.5868  0.0290  0.2041
 2542SOL    HW2 9934   2.683   1.047   1.862 -0.5254  0.0937  0.3080
 2542SOL    HW3 9935   2.621   1.114   1.742 -3.1160 -1.0099  0.9552
 2542SOL    MW4 9936   2.647   1.117   1.825 -0.9124 -0.0995  0.3169
 2543SOL     OW 9937   5.447   2.883   6.410  0.6297  0.4618 -0.3772
 2543SOL    HW2 9938   5.399   2.805   6.383 -1.4226  1.7501 -0.6641
 2543SOL    HW3 9939   5.499   2.854   6.486  1.4954 -1.6204 -1.6760
 2543SOL    MW4 9940   5.447   2.869   6.417  0.4731  0.3571 -0.5864
 2544SOL     OW 9941   1.084   5.973   0.333 -0.7715 -0.3902  0.2918
 2544SOL    HW2 9942   1.179   5.979   0.328 -0.6874  0.5838  2.1298
 2544SOL    HW3 9943   1.057   6.055   0.376 -2.5591 -0.0834 -1.2531
 2544SOL    MW4 9944   1.093   5.985   0.338 -0.9963 -0.2212  0.3305
 2545SOL     OW 9945   0.975   0.806   3.278  0.3536  0.1740 -0.6478
 2545SOL    HW2 9946   1.013   0.736   3.330  0.0657  0.2203 -0.3665
 2545SOL    HW3 9947   0.901   0.766   3.233 -0.5640  0.5517  0.4508
 2545SOL    MW4 9948   0.970   0.792   3.279  0.1946  0.2299 -0.4658
 2546SOL     OW 9949   3.884   4.117   0.743  0.4366 -0.2129  0.4357
 2546SOL    HW2 9950   3.808   4.143   0.690  0.7162  0.6037  0.4285
 2546SOL    HW3 9951   3.847   4.089   0.826  0.0164 -1.1886 -0.0617
 2546SOL    MW4 9952   3.869   4.116   0.747  0.4181 -0.2339  0.3692
 2547SOL     OW 9953   1.812   1.239   0.360 -0.1028 -0.8332  0.2041
 2547SOL    HW2 9954   1.847   1.163   0.313 -0.2171 -0.9215  0.2618
 2547SOL    HW3 9955   1.782   1.298   0.290 -0.7316 -1.1836  0.1758
 2547SOL    MW4 9956   1.813   1.237   0.344 -0.2008 -0.8911  0.2080
 2548SOL     OW 9957   3.120   2.309   1.394 -0.6579  0.1453  0.2264
 2548SOL    HW2 9958   3.125   2.213   1.404 -1.6004  0.0616 -0.0254
 2548SOL    HW3 9959   3.094   2.322   1.303  1.0485  0.7100 -0.2171
 2548SOL    MW4 9960   3.118   2.298   1.383 -0.5571  0.2088  0.1347
 2549SOL     OW 9961   0.606   3.039   2.706  0.6211 -0.0764 -0.1593
 2549SOL    HW2 9962   0.610   3.036   2.801 -0.9390  0.1635 -0.0604
 2549SOL    HW3 9963   0.684   3.089   2.680  0.5111  0.7581  1.0547
 2549SOL    MW4 9964   0.617   3.045   2.715  0.4008  0.0653  0.0139
 2550SOL     OW 9965   6.385   4.028   3.329  0.3215  0.4366 -0.1984
 2550SOL    HW2 9966   6.315   4.000   3.270  0.4689  0.7620 -0.5352
 2550SOL    HW3 9967   6.440   3.951   3.341 -1.5119 -0.6248  2.1865
 2550SOL    MW4 9968   6.383   4.014   3.323  0.0990  0.3395  0.0718
 2551SOL     OW 9969   3.009   1.285   5.155  0.4026  0.1529 -0.3449
 2551SOL    HW2 9970   2.995   1.367   5.202 -0.2539  1.1247 -2.1276
 2551SOL    HW3 9971   2.922   1.259   5.124  0.8784 -0.0708 -1.5804
 2551SOL    MW4 9972   2.995   1.292   5.157  0.3788  0.2516 -0.7431
 2552SOL     OW 9973   0.403   4.619   0.673 -0.4535 -0.1711  0.5757
 2552SOL    HW2 9974   0.342   4.655   0.738  0.0386  0.2649  0.8075
 2552SOL    HW3 9975   0.490   4.643   0.706  0.0007 -2.7771  1.4885
 2552SOL    MW4 9976   0.407   4.627   0.686 -0.3286 -0.4574  0.7267
 2553SOL     OW 9977   1.655   3.899   1.366 -0.1456  0.0273  0.2172
 2553SOL    HW2 9978   1.706   3.980   1.364  2.6629 -1.5700  1.1955
 2553SOL    HW3 9979   1.580   3.920   1.422  0.8166  1.8019  0.9264
 2553SOL    MW4 9980   1.652   3.913   1.373  0.3519  0.0507  0.4399
 2554SOL     OW 9981   6.408   0.711   2.669  0.0479 -0.4005 -0.1166
 2554SOL    HW2 9982   6.501   0.699   2.690  0.1301  2.1181  1.3420
 2554SOL    HW3 9983   6.364   0.704   2.753 -0.6478  1.7720 -0.2551
 2554SOL    MW4 9984   6.415   0.708   2.683 -0.0330  0.2185  0.0576
 2555SOL     OW 9985   5.023   4.661   0.631 -0.1696  0.9022 -0.3015
 2555SOL    HW2 9986   4.952   4.614   0.588  0.5591  0.4810 -1.0672
 2555SOL    HW3 9987   5.011   4.642   0.724 -0.5663  0.1421 -0.4994
 2555SOL    MW4 9988   5.012   4.652   0.638 -0.1258  0.7463 -0.4286
 2556SOL     OW 9989   5.548   0.707   1.907  0.5521 -0.0916  0.0281
 2556SOL    HW2 9990   5.512   0.636   1.854  1.7996 -1.1478  0.5581
 2556SOL    HW3 9991   5.562   0.669   1.993  3.5773 -0.0060 -0.3276
 2556SOL    MW4 9992   5.545   0.693   1.911  1.1159 -0.2197  0.0511
 2557SOL     OW 9993   1.624   1.507   1.171 -0.2290 -0.5221  0.3785
 2557SOL    HW2 9994   1.601   1.440   1.107  0.9584 -0.3984 -0.2002
 2557SOL    HW3 9995   1.585   1.588   1.137 -1.3637 -0.8252  0.8990
 2557SOL    MW4 9996   1.616   1.509   1.158 -0.2221 -0.5458  0.3708
 2558SOL     OW 9997   0.804   2.491   0.616 -0.8120  0.0223 -0.5213
 2558SOL    HW2 9998   0.758   2.546   0.553  0.5254  1.2030 -0.5058
 2558SOL    HW3 9999   0.748   2.413   0.625 -1.1713 -0.0827 -2.9417
 2558SOL    MW410000   0.790   2.488   0.609 -0.6829  0.1643 -0.8386
 2559SOL     OW10001   2.726   0.533   0.051 -0.1914 -0.3587 -0.4219
 2559SOL    HW210002   2.787   0.606   0.058  1.0012 -1.4397  1.9252
 2559SOL    HW310003   2.662   0.560  -0.014  0.7346  2.3474 -0.3125
 2559SOL    MW410004   2.726   0.546   0.043  0.0881 -0.1443 -0.0978
 2560SOL     OW10005   3.200   2.898   1.914  0.1179  0.3708 -0.5313
 2560SOL    HW210006   3.274   2.958   1.927  0.8228 -0.2396 -1.5385
 2560SOL    HW310007   3.210   2.833   1.983  0.0276  0.7564 -0.1509
 2560SOL    MW410008   3.211   2.897   1.925  0.1990  0.3411 -0.6140
 2561SOL     OW10009   4.031   2.104   5.249 -0.0207  0.0128 -0.1047
 2561SOL    HW210010   4.037   2.192   5.211  1.3567  0.9270  2.0476
 2561SOL    HW310011   4.111   2.061   5.222 -0.2314 -0.2336 -0.3378
 2561SOL    MW410012   4.042   2.110   5.241  0.1332  0.1009  0.1485
 2562SOL     OW10013   0.787   4.854   3.210  0.0748 -0.3434  0.0805
 2562SOL    HW210014   0.719   4.881   3.271 -0.8729 -1.7034 -0.2972
 2562SOL    HW310015   0.753   4.880   3.124 -0.2224 -1.4360 -0.1523
 2562SOL    MW410016   0.773   4.861   3.207 -0.0894 -0.6670 -0.0001
 2563SOL     OW10017   1.001   1.790   5.706  0.8877  0.3337  0.1694
 2563SOL    HW210018   0.949   1.869   5.725  1.3659  0.4080  1.2330
 2563SOL    HW310019   0.943   1.718   5.729  0.4556  0.3593 -0.7871
 2563SOL    MW410020   0.986   1.791   5.711  0.8938  0.3469  0.1835
 2564SOL     OW10021   5.616   2.305   3.907  0.1998  0.2253 -0.2404
 2564SOL    HW210022   5.696   2.282   3.861  0.6675 -0.9810  1.0819
 2564SOL    HW310023   5.629   2.269   3.995 -0.5275  2.6226  0.9305
 2564SOL    MW410024   5.628   2.298   3.913  0.1656  0.3824  0.0885
 2565SOL     OW10025   0.089   2.932   6.044  0.3460 -0.5978  1.0233
 2565SOL    HW210026   0.014   2.952   6.100  0.7054  0.9324  1.0129
 2565SOL    HW310027   0.050   2.904   5.961 -0.3677  2.3762  0.2110
 2565SOL    MW410028   0.074   2.931   6.040  0.2992 -0.0035  0.9147
 2566SOL     OW10029   0.322   0.950   5.984  0.3123 -0.1474 -0.5740
 2566SOL    HW210030   0.368   0.867   5.994  1.4320  0.3740 -1.1337
 2566SOL    HW310031   0.335   0.995   6.068 -0.5021 -0.6217 -0.1832
 2566SOL    MW410032   0.330   0.945   5.996  0.3526 -0.1412 -0.5963
 2567SOL     OW10033   4.958   0.768   1.867  0.0343  0.3227 -0.4315
 2567SOL    HW210034   5.008   0.712   1.807 -0.9983  0.1614 -1.1625
 2567SOL    HW310035   4.936   0.845   1.815 -1.0860  0.0706 -0.3579
 2567SOL    MW410036   4.962   0.770   1.852 -0.2497  0.2681 -0.5183
 2568SOL     OW10037   0.782   5.767   4.821 -0.1446  0.1506 -0.1927
 2568SOL    HW210038   0.849   5.715   4.778 -0.2036  1.2061 -1.6357
 2568SOL    HW310039   0.699   5.730   4.789 -0.2258 -0.0377  0.2274
 2568SOL    MW410040   0.780   5.755   4.811 -0.1631  0.2650 -0.3276
 2569SOL     OW10041   0.898   3.135   6.363  0.3904  0.4830 -0.1206
 2569SOL    HW210042   0.894   3.134   6.459  3.8292  0.7097  0.1506
 2569SOL    HW310043   0.935   3.050   6.340 -1.8485 -0.1992 -1.4434
 2569SOL    MW410044   0.903   3.124   6.373  0.5487  0.4229 -0.2593
 2570SOL     OW10045   4.158   5.427   0.609  0.1454  0.6022  0.5879
 2570SOL    HW210046   4.212   5.487   0.660 -0.8907  0.6611  1.6660
 2570SOL    HW310047   4.116   5.483   0.543  0.9941  0.6356  0.0644
 2570SOL    MW410048   4.160   5.442   0.607  0.1207  0.6143  0.6611
 2571SOL     OW10049   6.370   2.092   5.129  0.3189  0.0072  0.0968
 2571SOL    HW210050   6.400   2.093   5.220 -1.1480  2.7788  0.6657
 2571SOL    HW310051   6.333   2.005   5.116  1.3805 -0.7515  1.8411
 2571SOL    MW410052   6.369   2.081   5.139  0.2654  0.2727  0.4020
 2572SOL     OW10053   1.915   4.731   1.531 -0.3933 -0.2199 -0.8255
 2572SOL    HW210054   1.989   4.672   1.519 -1.2330 -1.5202  0.1420
 2572SOL    HW310055   1.840   4.685   1.492 -1.1838 -0.1051  0.4880
 2572SOL    MW410056   1.915   4.717   1.525 -0.6084 -0.3763 -0.5246
 2573SOL     OW10057   5.258   1.531   1.024  0.5580 -0.0756 -0.1436
 2573SOL    HW210058   5.316   1.489   1.088 -1.0627  0.8716  2.0916
 2573SOL    HW310059   5.277   1.624   1.032  0.4049  0.0551 -1.1729
 2573SOL    MW410060   5.268   1.537   1.033  0.3240  0.0666  0.0155
 2574SOL     OW10061   2.301   6.224   0.823  0.7329 -0.2402  0.2703
 2574SOL    HW210062   2.234   6.293   0.828  0.9738 -0.0328  0.6424
 2574SOL    HW310063   2.378   6.268   0.789  1.1611 -0.1178  1.3746
 2574SOL    MW410064   2.302   6.239   0.819  0.8211 -0.1967  0.4651
 2575SOL     OW10065   0.632   1.054   0.880  0.1395 -0.6570  0.5643
 2575SOL    HW210066   0.589   1.084   0.799  1.9162  0.9625  0.1396
 2575SOL    HW310067   0.568   1.072   0.949 -0.0445  1.3929 -0.0667
 2575SOL    MW410068   0.618   1.061   0.878  0.3496 -0.1729  0.4250
 2576SOL     OW10069   3.052   0.365   4.521 -0.3099  0.4594  0.1100
 2576SOL    HW210070   2.976   0.324   4.561 -0.9509 -0.1753 -1.6732
 2576SOL    HW310071   3.030   0.457   4.515 -0.2683  0.5418  1.0120
 2576SOL    MW410072   3.039   0.372   4.525 -0.3890  0.3865 -0.0063
 2577SOL     OW10073   0.704   2.356   1.292 -0.0054  0.2934 -0.2496
 2577SOL    HW210074   0.664   2.271   1.313 -0.3491 -0.3315 -3.0634
 2577SOL    HW310075   0.631   2.418   1.295 -0.4739 -0.1560 -1.4928
 2577SOL    MW410076   0.689   2.353   1.295 -0.1126  0.1516 -0.7848
 2578SOL     OW10077   5.193   4.357   4.521  0.3199  0.1144  0.0435
 2578SOL    HW210078   5.109   4.322   4.490 -0.1776  1.2181  0.0840
 2578SOL    HW310079   5.206   4.437   4.469  0.7471  0.6063  0.8812
 2578SOL    MW410080   5.184   4.363   4.510  0.3106  0.3249  0.1594
 2579SOL     OW10081   3.527   1.272   5.594  0.2726  0.3875 -0.0684
 2579SOL    HW210082   3.465   1.199   5.600  0.4037  0.2129 -0.7455
 2579SOL    HW310083   3.599   1.247   5.651  0.4886 -0.1958 -0.5847
 2579SOL    MW410084   3.528   1.259   5.602  0.3184  0.2875 -0.2258
 2580SOL     OW10085   6.073   5.245   4.284 -0.0597  0.0363  0.0248
 2580SOL    HW210086   6.047   5.226   4.374 -2.0071 -0.0600 -0.5206
 2580SOL    HW310087   6.053   5.338   4.273  1.0883  0.2919 -0.0383
 2580SOL    MW410088   6.067   5.255   4.295 -0.1652  0.0573 -0.0554
 2581SOL     OW10089   0.623   4.534   0.232 -0.4844 -0.0448 -0.4295
 2581SOL    HW210090   0.578   4.618   0.219 -1.1851 -0.3719 -0.1312
 2581SOL    HW310091   0.636   4.500   0.143  1.6155  1.2934 -0.7159
 2581SOL    MW410092   0.619   4.541   0.218 -0.2998  0.0886 -0.4279
 2582SOL     OW10093   5.948   0.228   1.568 -0.5575 -0.0117  0.2604
 2582SOL    HW210094   5.984   0.231   1.479 -2.4509  0.9789 -0.5405
 2582SOL    HW310095   6.019   0.261   1.623  0.3706  0.1790 -0.9945
 2582SOL    MW410096   5.962   0.233   1.563 -0.6848  0.1441 -0.0108
 2583SOL     OW10097   5.889   5.165   3.019  0.1515  0.3141 -0.0690
 2583SOL    HW210098   5.899   5.070   3.023  0.4521  0.3646  0.4348
 2583SOL    HW310099   5.795   5.178   3.001  0.2675 -0.0837 -1.0690
 2583SOL    MW410100   5.878   5.154   3.017  0.2064  0.2683 -0.1345
 2584SOL     OW10101   3.732   0.032   1.553 -0.2607 -0.1136 -0.7991
 2584SOL    HW210102   3.726  -0.052   1.507  0.2229  0.0124 -1.0968
 2584SOL    HW310103   3.704   0.097   1.488  0.2286  0.0450 -0.8544
 2584SOL    MW410104   3.727   0.029   1.538 -0.1323 -0.0761 -0.8457
 2585SOL     OW10105   5.196   3.400   5.833 -0.0431  0.1296 -0.4239
 2585SOL    HW210106   5.131   3.345   5.877 -1.5488  0.3141 -2.2431
 2585SOL    HW310107   5.266   3.340   5.808 -0.4146 -0.4526 -0.0866
 2585SOL    MW410108   5.196   3.385   5.835 -0.2908  0.0771 -0.6194
 2586SOL     OW10109   1.072   4.479   5.042  0.4165  0.5743  0.8276
 2586SOL    HW210110   1.072   4.558   5.097  0.2190  2.7506 -2.0542
 2586SOL    HW310111   1.154   4.486   4.992 -0.1200 -0.4643 -0.2375
 2586SOL    MW410112   1.083   4.490   5.042  0.3197  0.7244  0.3068
 2587SOL     OW10113   1.791   1.392   1.854 -0.0955 -0.2849 -0.4233
 2587SOL    HW210114   1.821   1.480   1.875 -1.8642  0.5548 -1.1834
 2587SOL    HW310115   1.732   1.369   1.927 -0.3224 -0.4711 -0.6619
 2587SOL    MW410116   1.787   1.400   1.866 -0.3588 -0.1987 -0.5550
 2588SOL     OW10117   4.265   6.177   5.588  0.1340  0.5111 -0.7680
 2588SOL    HW210118   4.339   6.131   5.550 -0.0570 -0.4053 -0.0850
 2588SOL    HW310119   4.223   6.221   5.514  0.0625 -0.8046 -1.5466
 2588SOL    MW410120   4.269   6.177   5.573  0.0994  0.2166 -0.7806
 2589SOL     OW10121   2.128   3.422   3.870 -0.0947 -0.4001 -0.0002
 2589SOL    HW210122   2.153   3.389   3.957 -0.8642  1.6808  1.0937
 2589SOL    HW310123   2.033   3.418   3.869 -0.0597 -1.6016 -1.3060
 2589SOL    MW410124   2.119   3.417   3.882 -0.1916 -0.2841 -0.0281
 2590SOL     OW10125   4.778   3.424   4.490 -0.0504  0.0981 -0.5636
 2590SOL    HW210126   4.700   3.442   4.439 -0.2153  2.4497  0.3691
 2590SOL    HW310127   4.747   3.412   4.579  0.5471 -0.2717 -0.3956
 2590SOL    MW410128   4.764   3.425   4.495  0.0067  0.3596 -0.4184
 2591SOL     OW10129   2.559   4.114   1.394 -0.5957  0.6059  0.2338
 2591SOL    HW210130   2.569   4.043   1.331  1.4315  0.0536  1.1072
 2591SOL    HW310131   2.512   4.076   1.467  1.6180 -0.3295  1.2821
 2591SOL    MW410132   2.554   4.100   1.395 -0.0361  0.4096  0.4873
 2592SOL     OW10133   1.267   1.826   0.773  0.2749 -0.3936  0.4363
 2592SOL    HW210134   1.352   1.848   0.813  0.1222  0.6549  0.2190
 2592SOL    HW310135   1.286   1.819   0.680  0.0773  0.1243  0.3537
 2592SOL    MW410136   1.281   1.828   0.766  0.2287 -0.1869  0.3967
 2593SOL     OW10137   1.160   0.897   6.408 -0.3686 -0.3496 -0.2629
 2593SOL    HW210138   1.140   0.844   6.486  0.4302 -0.0248  0.1717
 2593SOL    HW310139   1.142   0.839   6.334  0.3174 -1.1656  0.2005
 2593SOL    MW410140   1.155   0.882   6.409 -0.1727 -0.4144 -0.1444
 2594SOL     OW10141   3.261   6.085   2.486  0.0458 -0.3513  0.0789
 2594SOL    HW210142   3.228   6.161   2.438 -0.3016 -1.1051 -0.9238
 2594SOL    HW310143   3.356   6.093   2.482  0.0203  0.5246  0.8250
 2594SOL    MW410144   3.269   6.096   2.479 -0.0034 -0.3352  0.0450
 2595SOL     OW10145   4.516   1.581   3.648  0.6841 -0.0983  0.5795
 2595SOL    HW210146   4.592   1.567   3.591  0.8636  1.4591  0.3943
 2595SOL    HW310147   4.540   1.658   3.700 -0.9844  0.7558  0.1366
 2595SOL    MW410148   4.529   1.590   3.648  0.4877  0.2199  0.4966
 2596SOL     OW10149   5.657   3.246   1.335  0.4049 -0.2340 -0.4866
 2596SOL    HW210150   5.656   3.303   1.259  1.0373  0.7160  0.2080
 2596SOL    HW310151   5.725   3.181   1.317  0.1812 -0.3422 -0.9521
 2596SOL    MW410152   5.666   3.245   1.323  0.4588 -0.1230 -0.4564
 2597SOL     OW10153   4.140   0.922   4.729 -0.2307 -0.3034 -0.0617
 2597SOL    HW210154   4.054   0.945   4.692 -0.9956  0.7018  2.1961
 2597SOL    HW310155   4.132   0.829   4.751  0.0308 -0.7630 -1.7479
 2597SOL    MW410156   4.127   0.913   4.727 -0.2971 -0.2314  0.0137
 2598SOL     OW10157   0.929   2.759   0.428  0.1755 -0.4944  0.1127
 2598SOL    HW210158   0.853   2.805   0.463  1.2868  2.0578 -0.6702
 2598SOL    HW310159   0.893   2.700   0.362 -1.0647  1.4469 -1.0283
 2598SOL    MW410160   0.914   2.757   0.424  0.1585  0.0985 -0.1411
 2599SOL     OW10161   3.156   5.424   1.510  0.7032  0.4483  0.3901
 2599SOL    HW210162   3.161   5.411   1.605 -2.0941 -0.5267  0.4950
 2599SOL    HW310163   3.097   5.498   1.499  0.8978  0.4749 -0.6140
 2599SOL    MW410164   3.149   5.432   1.521  0.3598  0.3232  0.2714
 2600SOL     OW10165   1.368   5.584   6.344  0.3500 -0.2497  0.2148
 2600SOL    HW210166   1.337   5.673   6.360  0.6825  0.0647 -0.8293
 2600SOL    HW310167   1.463   5.589   6.357  0.5752 -0.0814 -1.3180
 2600SOL    MW410168   1.376   5.596   6.348  0.4236 -0.1860 -0.1252
 2601SOL     OW10169   2.985   5.553   1.711  0.2791  0.0388  0.0798
 2601SOL    HW210170   3.055   5.542   1.775  0.5776 -1.0245 -0.4094
 2601SOL    HW310171   2.952   5.464   1.696 -0.9248  0.4711  0.0199
 2601SOL    MW410172   2.990   5.540   1.718  0.1596 -0.0444  0.0073
 2602SOL     OW10173   4.811   1.422   3.953 -0.1289 -0.3548  0.3273
 2602SOL    HW210174   4.843   1.466   4.031 -1.1740 -0.6092  0.9237
 2602SOL    HW310175   4.870   1.450   3.883 -1.1098  2.5295  0.5370
 2602SOL    MW410176   4.823   1.431   3.954 -0.3962 -0.0079  0.4336
 2603SOL     OW10177   0.647   1.482   2.335 -0.1086  0.7797 -0.0281
 2603SOL    HW210178   0.734   1.470   2.297 -1.0644  1.3397 -2.5584
 2603SOL    HW310179   0.614   1.393   2.347  0.1256  0.5878 -0.7557
 2603SOL    MW410180   0.654   1.469   2.332 -0.2038  0.8282 -0.4579
 2604SOL     OW10181   4.893   5.257   1.075 -0.0016 -0.1049  0.1066
 2604SOL    HW210182   4.869   5.234   1.164  1.6799  1.5547  1.0544
 2604SOL    HW310183   4.916   5.173   1.034 -1.2871 -0.9395  1.0346
 2604SOL    MW410184   4.893   5.243   1.081  0.0506  0.0040  0.3541
 2605SOL     OW10185   3.175   3.077   2.677 -0.1050  0.0580 -0.4551
 2605SOL    HW210186   3.235   3.005   2.657 -0.8345 -0.5330 -0.5616
 2605SOL    HW310187   3.162   3.121   2.593  0.7186  0.6211 -0.2987
 2605SOL    MW410188   3.181   3.073   2.663 -0.0926  0.0543 -0.4485
 2606SOL     OW10189   5.277   0.044   0.249  0.2188 -0.2540 -0.1190
 2606SOL    HW210190   5.294   0.134   0.278 -0.3704 -0.3898  0.6941
 2606SOL    HW310191   5.350   0.023   0.191  0.1664  0.8820 -0.6216
 2606SOL    MW410192   5.289   0.053   0.245  0.1342 -0.1220 -0.0780
 2607SOL     OW10193   5.292   0.345   2.928  0.4120 -0.2567 -0.3188
 2607SOL    HW210194   5.331   0.258   2.936  2.4267  0.5491 -0.8382
 2607SOL    HW310195   5.321   0.392   3.007 -0.1850  0.1197 -0.3176
 2607SOL    MW410196   5.301   0.340   2.939  0.5991 -0.1007 -0.3872
 2608SOL     OW10197   5.037   6.049   4.306  0.0302  0.1361 -0.1861
 2608SOL    HW210198   5.092   6.024   4.380  0.8112  1.5870 -0.2419
 2608SOL    HW310199   5.018   5.967   4.261  1.1355 -0.5389  0.5437
 2608SOL    MW410200   5.042   6.035   4.310  0.2791  0.2385 -0.0972
 2609SOL     OW10201   2.649   4.237   5.373 -0.6505 -0.3207  0.3020
 2609SOL    HW210202   2.668   4.148   5.402  0.2845  0.0811  0.9680
 2609SOL    HW310203   2.733   4.282   5.376 -1.1504  0.6511  0.1906
 2609SOL    MW410204   2.663   4.231   5.377 -0.5931 -0.1395  0.3752
 2610SOL     OW10205   0.334   2.339   3.869 -0.1998  0.2043 -0.3861
 2610SOL    HW210206   0.273   2.412   3.862  0.7565  0.9532 -1.2270
 2610SOL    HW310207   0.282   2.262   3.848 -1.8305  0.2514  2.7733
 2610SOL    MW410208   0.319   2.339   3.866 -0.2887  0.3093 -0.0802
 2611SOL     OW10209   1.212   3.088   3.190  0.2717  0.2461 -0.4735
 2611SOL    HW210210   1.146   3.083   3.121 -0.4612 -0.5002  0.2726
 2611SOL    HW310211   1.163   3.079   3.272  1.2863 -0.2937  0.0960
 2611SOL    MW410212   1.197   3.087   3.192  0.3088  0.0764 -0.2999
 2612SOL     OW10213   1.150   0.906   1.280 -0.1532 -0.2807 -0.3340
 2612SOL    HW210214   1.193   0.827   1.247 -0.6294 -0.5769 -0.2559
 2612SOL    HW310215   1.095   0.875   1.352 -1.2769 -0.0805 -1.0688
 2612SOL    MW410216   1.148   0.892   1.285 -0.3643 -0.2934 -0.4207
 2613SOL     OW10217   2.716   0.405   6.054 -0.1552 -0.3785 -0.0495
 2613SOL    HW210218   2.670   0.482   6.086  0.3386 -0.9880  2.2723
 2613SOL    HW310219   2.659   0.331   6.077  0.4887 -0.8992 -0.0748
 2613SOL    MW410220   2.702   0.405   6.061 -0.0051 -0.5276  0.2535
 2614SOL     OW10221   3.438   0.121   3.158  0.4103 -0.2774  0.2180
 2614SOL    HW210222   3.435   0.094   3.066  1.1321 -1.6529  0.5789
 2614SOL    HW310223   3.403   0.046   3.207  2.2241 -0.5308  1.2262
 2614SOL    MW410224   3.433   0.108   3.152  0.7448 -0.4923  0.3986
 2615SOL     OW10225   2.785   0.973   3.411  0.6159  0.4424 -0.3017
 2615SOL    HW210226   2.791   0.881   3.439 -1.5798  0.4382  0.3374
 2615SOL    HW310227   2.712   0.974   3.349 -0.5520  2.0302  1.0392
 2615SOL    MW410228   2.777   0.961   3.406  0.1721  0.6514 -0.0405
 2616SOL     OW10229   2.835   2.494   4.129 -0.2569  0.5493 -0.1461
 2616SOL    HW210230   2.928   2.495   4.105 -0.3314  2.3613 -0.4396
 2616SOL    HW310231   2.806   2.406   4.104  1.3137  0.0220 -0.2570
 2616SOL    MW410232   2.843   2.482   4.122 -0.0595  0.7188 -0.1995
 2617SOL     OW10233   1.260   1.478   2.179 -0.6196 -0.6527  0.0746
 2617SOL    HW210234   1.293   1.396   2.142  1.5695  0.1254  0.1870
 2617SOL    HW310235   1.209   1.517   2.108  0.6858 -0.7886 -0.9803
 2617SOL    MW410236   1.258   1.472   2.165 -0.1585 -0.5679 -0.0498
 2618SOL     OW10237   2.100   2.501   2.320  0.1825 -0.1876  0.1214
 2618SOL    HW210238   2.138   2.415   2.337 -0.3555  0.0960  3.2942
 2618SOL    HW310239   2.006   2.489   2.334  0.0314  0.8029  0.0197
 2618SOL    MW410240   2.093   2.488   2.324  0.0916 -0.0195  0.5266
 2619SOL     OW10241   1.431   2.198   1.344  0.5769  0.1664  0.7314
 2619SOL    HW210242   1.522   2.176   1.321  0.0206 -1.3834 -0.1671
 2619SOL    HW310243   1.414   2.280   1.298  0.9236 -0.5635 -0.7963
 2619SOL    MW410244   1.441   2.206   1.334  0.5493 -0.1344  0.4113
 2620SOL     OW10245   2.946   4.419   0.199 -0.0878  0.4240 -0.6112
 2620SOL    HW210246   2.899   4.499   0.173 -0.4810  1.0011  1.6214
 2620SOL    HW310247   3.030   4.451   0.232  0.9734 -0.4035 -2.3467
 2620SOL    MW410248   2.951   4.434   0.200  0.0003  0.3910 -0.5456
 2621SOL     OW10249   6.300   1.177   4.120  0.2933  0.7293  0.2824
 2621SOL    HW210250   6.286   1.240   4.190 -0.7564 -0.3137  1.0593
 2621SOL    HW310251   6.393   1.185   4.098  0.7451  0.7969  2.0813
 2621SOL    MW410252   6.310   1.186   4.126  0.2144  0.6006  0.6222
 2622SOL     OW10253   0.621   2.621   0.447 -0.2720  0.4675  0.1112
 2622SOL    HW210254   0.625   2.715   0.427 -1.3312  0.0210 -2.6947
 2622SOL    HW310255   0.626   2.579   0.361 -1.4396 -2.0031  1.1732
 2622SOL    MW410256   0.623   2.628   0.433 -0.5658  0.0826 -0.1189
 2623SOL     OW10257   0.530   5.032   5.065 -0.1644 -0.2129 -0.5780
 2623SOL    HW210258   0.574   4.946   5.066  0.8286  0.2827 -0.1675
 2623SOL    HW310259   0.527   5.058   5.156  0.4554  0.6354 -0.7886
 2623SOL    MW410260   0.536   5.024   5.077  0.0484 -0.0356 -0.5516
 2624SOL     OW10261   4.701   0.755   2.929  0.2964 -0.7955  0.5101
 2624SOL    HW210262   4.736   0.666   2.921  0.1869 -0.7496 -0.6797
 2624SOL    HW310263   4.745   0.804   2.860  1.0348  0.3239  1.7281
 2624SOL    MW410264   4.711   0.750   2.919  0.3793 -0.6417  0.5139
 2625SOL     OW10265   0.633   3.870   1.066  0.4303 -0.7688  0.1635
 2625SOL    HW210266   0.552   3.834   1.104 -0.0279  0.9681  0.9585
 2625SOL    HW310267   0.702   3.813   1.098 -0.3871 -1.8249  0.1217
 2625SOL    MW410268   0.631   3.858   1.075  0.2620 -0.6790  0.2629
 2626SOL     OW10269   0.269   4.564   0.016 -0.6043 -0.1385  0.1541
 2626SOL    HW210270   0.203   4.578   0.084 -1.5275  0.1765 -0.7750
 2626SOL    HW310271   0.310   4.649   0.005 -0.8699 -0.0414 -0.0970
 2626SOL    MW410272   0.266   4.577   0.023 -0.7611 -0.0841 -0.0016
 2627SOL     OW10273   2.517   0.594   6.313  0.5116  0.5054  0.0928
 2627SOL    HW210274   2.463   0.539   6.369  1.2886 -0.0052  0.3618
 2627SOL    HW310275   2.468   0.602   6.232 -1.2950  2.3838  1.2766
 2627SOL    MW410276   2.504   0.588   6.310  0.3757  0.6859  0.2844
 2628SOL     OW10277   1.219   3.007   3.933  0.2662 -0.2829 -0.2440
 2628SOL    HW210278   1.260   2.931   3.974  0.8789 -0.0663 -0.4337
 2628SOL    HW310279   1.284   3.037   3.869 -0.1696  0.1117 -0.5057
 2628SOL    MW410280   1.233   3.001   3.930  0.2895 -0.2023 -0.3035
 2629SOL     OW10281   4.291   1.753   2.795  0.0020 -0.8072  0.0216
 2629SOL    HW210282   4.335   1.801   2.725  0.2076 -0.3963  0.4277
 2629SOL    HW310283   4.215   1.713   2.752  0.0433 -0.4398 -0.4041
 2629SOL    MW410284   4.287   1.754   2.780  0.0346 -0.7046  0.0191
 2630SOL     OW10285   0.416   3.306   5.811  0.1177  0.2488  0.4571
 2630SOL    HW210286   0.329   3.272   5.830  0.3400  0.3558  1.7452
 2630SOL    HW310287   0.474   3.231   5.825  0.1980 -0.0252 -1.0983
 2630SOL    MW410288   0.412   3.291   5.815  0.1576  0.2268  0.4218
 2631SOL     OW10289   0.699   0.748   1.820  0.2606 -0.4202  0.6629
 2631SOL    HW210290   0.653   0.815   1.769 -0.1886 -1.9762 -1.1020
 2631SOL    HW310291   0.754   0.797   1.881  0.4900  1.5604 -1.0309
 2631SOL    MW410292   0.700   0.763   1.821  0.2316 -0.3641  0.2066
 2632SOL     OW10293   4.333   2.480   2.249  0.2420  0.1954 -0.3580
 2632SOL    HW210294   4.257   2.430   2.221 -0.0969  0.6650 -0.2925
 2632SOL    HW310295   4.387   2.418   2.298 -0.2416 -0.0606 -0.1491
 2632SOL    MW410296   4.330   2.466   2.252  0.1335  0.2236 -0.3218
 2633SOL     OW10297   2.274   6.255   4.875  0.0700 -0.2260  0.3791
 2633SOL    HW210298   2.368   6.242   4.867  0.0325  0.0291 -0.5648
 2633SOL    HW310299   2.240   6.171   4.905  0.3243 -1.0641 -1.5258
 2633SOL    MW410300   2.282   6.243   4.878  0.0986 -0.3030  0.0032
 2634SOL     OW10301   3.023   0.416   0.173 -0.4085  0.2197  0.2040
 2634SOL    HW210302   2.928   0.407   0.166 -0.7196  2.7552  0.4616
 2634SOL    HW310303   3.054   0.414   0.082 -0.7304 -0.2491  0.0996
 2634SOL    MW410304   3.015   0.415   0.160 -0.4920  0.4923  0.2242
 2635SOL     OW10305   4.488   3.100   4.993  0.2738 -0.2553 -0.4064
 2635SOL    HW210306   4.513   3.082   4.902  0.3511  1.2187 -0.6891
 2635SOL    HW310307   4.571   3.099   5.041  0.4875  0.9833 -0.7176
 2635SOL    MW410308   4.502   3.097   4.987  0.3122  0.1026 -0.4848
 2636SOL     OW10309   0.513   1.247   6.229 -0.1447  0.1112  0.4233
 2636SOL    HW210310   0.596   1.234   6.183  0.4326  2.1895  0.7646
 2636SOL    HW310311   0.491   1.339   6.214 -1.9334 -0.1556  1.1046
 2636SOL    MW410312   0.521   1.257   6.221 -0.3045  0.3502  0.5582
 2637SOL     OW10313   1.254   3.005   1.878 -0.1568  0.0507 -0.4383
 2637SOL    HW210314   1.225   2.938   1.816 -0.1898  0.3062 -0.6967
 2637SOL    HW310315   1.346   3.021   1.855 -0.0064 -0.2492 -0.0691
 2637SOL    MW410316   1.262   2.998   1.867 -0.1413  0.0448 -0.4237
 2638SOL     OW10317   1.720   0.127   5.464  0.1569  0.3482  0.3278
 2638SOL    HW210318   1.642   0.115   5.518  0.8933  0.5286  1.4741
 2638SOL    HW310319   1.743   0.039   5.435 -1.3114  0.4549 -1.2738
 2638SOL    MW410320   1.713   0.114   5.468  0.0603  0.3861  0.2677
 2639SOL     OW10321   3.538   3.286   6.193 -0.1436 -0.3193 -0.1277
 2639SOL    HW210322   3.613   3.275   6.134 -1.5377 -0.5553 -1.9404
 2639SOL    HW310323   3.525   3.381   6.197  0.6514 -0.2297  0.7703
 2639SOL    MW410324   3.546   3.297   6.185 -0.2226 -0.3386 -0.2484
 2640SOL     OW10325   3.196   0.180   5.185 -0.0680 -0.1473 -0.5166
 2640SOL    HW210326   3.202   0.119   5.111  0.1182 -1.3917  0.4946
 2640SOL    HW310327   3.285   0.211   5.199 -0.2239  0.7222 -1.2887
 2640SOL    MW410328   3.208   0.176   5.177 -0.0640 -0.1967 -0.4851
 2641SOL     OW10329   2.922   1.634   1.934 -0.0423  0.0239 -0.3002
 2641SOL    HW210330   2.863   1.561   1.952 -0.9567  0.4926 -1.2934
 2641SOL    HW310331   2.894   1.667   1.849  0.8638  1.0468 -0.2238
 2641SOL    MW410332   2.911   1.629   1.925 -0.0434  0.2207 -0.4212
 2642SOL     OW10333   5.836   1.850   3.797 -0.2080 -0.0758 -0.1197
 2642SOL    HW210334   5.837   1.853   3.893 -1.0412  1.8540 -0.1205
 2642SOL    HW310335   5.923   1.882   3.772 -0.3118  0.3069 -0.0008
 2642SOL    MW410336   5.848   1.855   3.806 -0.3316  0.2293 -0.1041
 2643SOL     OW10337   6.123   0.979   4.224  0.1729 -0.6847 -0.0031
 2643SOL    HW210338   6.185   1.045   4.191  1.5069 -0.5480  2.5467
 2643SOL    HW310339   6.046   1.030   4.250  0.1812 -0.4590 -0.4113
 2643SOL    MW410340   6.121   0.995   4.223  0.3500 -0.6369  0.2795
 2644SOL     OW10341   0.545   2.998   4.736 -0.3915  0.5210 -0.1818
 2644SOL    HW210342   0.511   3.010   4.824 -1.0509  0.2738 -0.3937
 2644SOL    HW310343   0.615   2.934   4.746  0.9292  2.0098  0.4505
 2644SOL    MW410344   0.550   2.991   4.749 -0.3043  0.6848 -0.1263
 2645SOL     OW10345   4.241   1.150   1.861 -0.1896 -0.3496  0.2444
 2645SOL    HW210346   4.220   1.139   1.768  0.7823  2.8248 -0.4965
 2645SOL    HW310347   4.290   1.071   1.885 -1.5089 -1.7948 -1.5653
 2645SOL    MW410348   4.245   1.138   1.852 -0.2354 -0.1214 -0.0921
 2646SOL     OW10349   6.154   5.519   3.441 -0.2456 -0.3107 -0.2460
 2646SOL    HW210350   6.204   5.451   3.485 -0.5329 -0.7000 -0.5131
 2646SOL    HW310351   6.123   5.576   3.511  0.2972 -0.2527 -0.0536
 2646SOL    MW410352   6.156   5.518   3.456 -0.2119 -0.3544 -0.2559
 2647SOL     OW10353   4.410   1.630   4.545 -0.6603 -0.2548  0.3842
 2647SOL    HW210354   4.423   1.722   4.523 -3.1002  0.2741  0.9250
 2647SOL    HW310355   4.485   1.607   4.599  0.3799  1.1706 -0.3875
 2647SOL    MW410356   4.421   1.639   4.549 -0.8449  0.0031  0.3537
 2648SOL     OW10357   3.636   2.783   0.890 -0.0224  0.2597  0.0795
 2648SOL    HW210358   3.686   2.743   0.961  0.4625  0.9653  0.1487
 2648SOL    HW310359   3.619   2.873   0.920  0.9102  0.8339 -1.0327
 2648SOL    MW410360   3.640   2.790   0.903  0.1646  0.4285 -0.0581
 2649SOL     OW10361   1.829   4.570   4.787 -0.1346 -0.3945 -0.0518
 2649SOL    HW210362   1.829   4.505   4.857 -0.7590 -0.9558 -0.5685
 2649SOL    HW310363   1.743   4.562   4.747  1.0429 -1.8456 -2.5102
 2649SOL    MW410364   1.818   4.560   4.791 -0.0616 -0.6600 -0.4443
 2650SOL     OW10365   0.317   3.844   2.135 -0.1857  0.0864  0.3770
 2650SOL    HW210366   0.233   3.885   2.154 -0.7671 -1.0032  0.2275
 2650SOL    HW310367   0.337   3.792   2.213 -0.3288 -0.7379 -0.1252
 2650SOL    MW410368   0.309   3.842   2.148 -0.2813 -0.1662  0.2911
 2651SOL     OW10369   2.294   2.654   0.720 -0.2371  0.2400  0.8060
 2651SOL    HW210370   2.300   2.695   0.633 -1.9906  1.5505  1.2344
 2651SOL    HW310371   2.344   2.573   0.712  0.1966  0.6515 -1.2288
 2651SOL    MW410372   2.301   2.649   0.707 -0.4112  0.4672  0.5941
 2652SOL     OW10373   4.382   2.148   1.300 -0.3690  0.0962 -0.2079
 2652SOL    HW210374   4.327   2.199   1.361  1.0485 -0.7623  1.8857
 2652SOL    HW310375   4.469   2.150   1.339  0.0826 -2.5382 -0.9424
 2652SOL    MW410376   4.386   2.155   1.313 -0.1224 -0.3646 -0.0286
 2653SOL     OW10377   1.850   0.054   3.761  0.0886  0.0545  0.1158
 2653SOL    HW210378   1.943   0.034   3.768 -0.1128 -1.7202 -1.4149
 2653SOL    HW310379   1.822   0.009   3.682 -1.9577  1.0871  0.1871
 2653SOL    MW410380   1.859   0.046   3.751 -0.2080 -0.0434 -0.0768
 2654SOL     OW10381   6.001   3.828   4.520  0.3773  0.3036  0.3975
 2654SOL    HW210382   5.999   3.837   4.615  1.1428  2.1737  0.2716
 2654SOL    HW310383   5.916   3.859   4.490  0.6994  1.2280  0.3975
 2654SOL    MW410384   5.990   3.833   4.528  0.5208  0.6723  0.3809
 2655SOL     OW10385   4.915   1.074   0.330  0.1291  0.4746 -0.1384
 2655SOL    HW210386   4.861   0.998   0.307 -0.1898  0.6438  0.0545
 2655SOL    HW310387   4.861   1.125   0.390  0.1296  1.1389 -0.6861
 2655SOL    MW410388   4.901   1.071   0.335  0.0871  0.5846 -0.1852
 2656SOL     OW10389   6.345   4.403   0.009 -0.1600 -0.0233 -0.0616
 2656SOL    HW210390   6.323   4.494   0.029  0.3007  0.4794 -1.6737
 2656SOL    HW310391   6.261   4.360  -0.005 -0.4661 -0.2364  2.0609
 2656SOL    MW410392   6.331   4.410   0.010 -0.1396  0.0149  0.0058
 2657SOL     OW10393   2.628   5.974   5.888 -0.3510  0.7796  0.2085
 2657SOL    HW210394   2.664   6.034   5.954  0.3600  1.2651 -0.5961
 2657SOL    HW310395   2.700   5.913   5.869 -0.5644  0.6104 -0.0675
 2657SOL    MW410396   2.643   5.974   5.894 -0.2854  0.8214  0.0660
 2658SOL     OW10397   1.814   1.555   5.224 -0.6318 -0.7988 -0.0308
 2658SOL    HW210398   1.853   1.545   5.311  0.8124  1.6975 -0.3063
 2658SOL    HW310399   1.833   1.645   5.199 -2.2439 -1.0126 -2.3785
 2658SOL    MW410400   1.821   1.566   5.232 -0.6540 -0.4976 -0.3769
 2659SOL     OW10401   5.706   0.048   5.328  0.0988 -0.3386 -0.0986
 2659SOL    HW210402   5.686   0.091   5.412 -0.9329 -1.0639  0.0371
 2659SOL    HW310403   5.729   0.120   5.270  2.7352  0.0775  1.2752
 2659SOL    MW410404   5.707   0.063   5.332  0.3106 -0.3794  0.1006
 2660SOL     OW10405   1.300   3.341   3.099 -0.0452 -0.5199 -0.2044
 2660SOL    HW210406   1.263   3.424   3.129 -0.0554 -0.1166 -1.2998
 2660SOL    HW310407   1.258   3.275   3.155 -1.0085  0.0933 -0.1703
 2660SOL    MW410408   1.289   3.343   3.110 -0.1736 -0.3858 -0.3444
 2661SOL     OW10409   4.713   0.203   4.267 -0.3049 -0.2959  0.3838
 2661SOL    HW210410   4.704   0.253   4.185  1.4913 -2.3680 -1.2145
 2661SOL    HW310411   4.633   0.152   4.273 -0.3831 -0.2483 -0.1785
 2661SOL    MW410412   4.702   0.203   4.257 -0.0782 -0.5630  0.0987
 2662SOL     OW10413   2.584   6.086   0.297  0.2892  0.4064 -0.0209
 2662SOL    HW210414   2.643   6.017   0.265  1.8783  1.1939  1.0903
 2662SOL    HW310415   2.566   6.061   0.388 -0.6183  0.5124 -0.1649
 2662SOL    MW410416   2.589   6.073   0.305  0.3792  0.5243  0.1067
 2663SOL     OW10417   2.369   3.867   3.430 -0.4043 -0.3121  0.0901
 2663SOL    HW210418   2.404   3.942   3.479 -0.6108 -0.1401 -0.0257
 2663SOL    HW310419   2.274   3.882   3.427 -0.6493 -1.3653  1.4300
 2663SOL    MW410420   2.361   3.879   3.436 -0.4639 -0.4283  0.2516
 2664SOL     OW10421   4.121   0.463   2.257  0.4331  0.0458  0.1382
 2664SOL    HW210422   4.192   0.511   2.214 -0.6391  1.9968  0.4562
 2664SOL    HW310423   4.047   0.471   2.197  0.3592 -1.7630 -0.0709
 2664SOL    MW410424   4.121   0.470   2.243  0.2819  0.0645  0.1526
 2665SOL     OW10425   4.648   4.473   0.917  0.0566  0.4892 -0.1354
 2665SOL    HW210426   4.585   4.409   0.948  1.4207 -1.3704 -1.0030
 2665SOL    HW310427   4.603   4.519   0.846 -0.6989 -0.0817 -0.0334
 2665SOL    MW410428   4.634   4.471   0.911  0.1369  0.1685 -0.2364
 2666SOL     OW10429   1.777   1.276   6.326 -0.2071  0.2617  0.1459
 2666SOL    HW210430   1.864   1.241   6.347  0.3535 -0.1500 -2.4830
 2666SOL    HW310431   1.790   1.323   6.243 -2.1658  1.7014  0.6042
 2666SOL    MW410432   1.790   1.277   6.317 -0.3916  0.3973 -0.1405
 2667SOL     OW10433   0.882   6.019   2.782  0.3710 -0.6499 -0.2834
 2667SOL    HW210434   0.942   5.963   2.831 -0.0144  0.1256  1.1364
 2667SOL    HW310435   0.926   6.034   2.698  0.7608 -2.5341 -0.4748
 2667SOL    MW410436   0.896   6.014   2.777  0.3716 -0.7962 -0.1213
 2668SOL     OW10437   5.232   3.654   0.321 -0.3570 -0.1103  0.2312
 2668SOL    HW210438   5.313   3.624   0.281  0.4938  1.4229  0.7349
 2668SOL    HW310439   5.168   3.585   0.301  1.2295 -1.7155  0.4873
 2668SOL    MW410440   5.234   3.641   0.313 -0.0354 -0.1198  0.3314
 2669SOL     OW10441   0.203   5.631   5.133 -0.0100 -0.2278 -0.3777
 2669SOL    HW210442   0.126   5.621   5.077  0.9020 -2.1240 -1.4048
 2669SOL    HW310443   0.174   5.688   5.204 -2.0651 -0.1172 -1.2331
 2669SOL    MW410444   0.189   5.637   5.135 -0.1608 -0.4634 -0.6260
 2670SOL     OW10445   3.726   1.818   4.381  0.0050  0.6207 -0.0265
 2670SOL    HW210446   3.756   1.866   4.303  0.2199  0.2780 -0.1547
 2670SOL    HW310447   3.631   1.830   4.381 -0.2136 -0.8956 -1.3618
 2670SOL    MW410448   3.717   1.826   4.371  0.0045  0.3754 -0.2196
 2671SOL     OW10449   0.603   3.069   4.142 -0.6108 -0.0671 -0.4527
 2671SOL    HW210450   0.587   3.000   4.207 -0.8684  2.5552  2.5351
 2671SOL    HW310451   0.562   3.147   4.181 -0.6464  1.7435 -3.7917
 2671SOL    MW410452   0.595   3.070   4.156 -0.6495  0.5178 -0.4990
 2672SOL     OW10453   3.259   2.169   0.491  0.4632  0.3804  0.4357
 2672SOL    HW210454   3.287   2.163   0.400  0.9321  1.5520  0.4837
 2672SOL    HW310455   3.185   2.110   0.498  1.2440 -0.7265 -0.3724
 2672SOL    MW410456   3.253   2.161   0.480  0.6281  0.3890  0.3354
 2673SOL     OW10457   4.105   1.730   1.293 -0.3100  0.0049 -0.2465
 2673SOL    HW210458   4.147   1.805   1.252 -0.8006  1.3221  1.5731
 2673SOL    HW310459   4.177   1.683   1.336 -0.1636  0.0810 -0.4075
 2673SOL    MW410460   4.120   1.733   1.293 -0.3554  0.1887 -0.0277
 2674SOL     OW10461   3.890   4.279   5.703  0.3763 -0.3219  0.2455
 2674SOL    HW210462   3.918   4.192   5.674  0.4678  0.3270 -1.7999
 2674SOL    HW310463   3.971   4.322   5.731  0.2093 -1.1588  2.1470
 2674SOL    MW410464   3.905   4.273   5.703  0.3663 -0.3467  0.2265
 2675SOL     OW10465   6.361   3.134   1.565  0.1403  0.3376 -0.1022
 2675SOL    HW210466   6.360   3.038   1.562  1.6655  0.2095  1.5275
 2675SOL    HW310467   6.280   3.157   1.610 -0.6519 -0.1102 -1.2495
 2675SOL    MW410468   6.350   3.124   1.570  0.2370  0.2617 -0.0385
 2676SOL     OW10469   0.146   4.915   3.686  0.4770 -0.5836 -0.4526
 2676SOL    HW210470   0.192   4.870   3.756  1.7318  0.5792 -0.4902
 2676SOL    HW310471   0.109   4.993   3.727  0.0920 -0.5740 -0.8075
 2676SOL    MW410472   0.147   4.919   3.701  0.5918 -0.4289 -0.5044
 2677SOL     OW10473   5.453   3.421   6.398 -0.2411  0.1025 -0.2462
 2677SOL    HW210474   5.464   3.331   6.426  0.6807  0.5413  0.9020
 2677SOL    HW310475   5.360   3.439   6.410 -0.5137 -0.8050 -0.8914
 2677SOL    MW410476   5.442   3.412   6.403 -0.1555  0.0407 -0.1798
 2678SOL     OW10477   0.868   6.259   2.420 -0.3017 -0.1294  0.3747
 2678SOL    HW210478   0.821   6.298   2.494 -0.7711 -0.5147  0.2841
 2678SOL    HW310479   0.897   6.334   2.368  1.8562  0.2642  2.0093
 2678SOL    MW410480   0.866   6.274   2.423 -0.0789 -0.1283  0.5784
 2679SOL     OW10481   3.911   3.324   5.769 -0.1154 -0.2688  0.0181
 2679SOL    HW210482   3.958   3.255   5.721  0.2419  0.2570 -0.3931
 2679SOL    HW310483   3.937   3.312   5.860 -1.1206 -1.5439  0.1798
 2679SOL    MW410484   3.920   3.313   5.775 -0.2009 -0.3677 -0.0148
 2680SOL     OW10485   3.209   1.814   0.329 -0.1941 -0.0436 -0.6181
 2680SOL    HW210486   3.240   1.787   0.242 -1.9703  0.1439 -1.3476
 2680SOL    HW310487   3.235   1.905   0.336  1.1222 -0.4090 -0.3651
 2680SOL    MW410488   3.216   1.822   0.318 -0.2548 -0.0671 -0.6810
 2681SOL     OW10489   1.256   1.865   3.673 -0.4092 -0.2474  0.1028
 2681SOL    HW210490   1.244   1.793   3.734 -0.9499 -0.0093  0.2855
 2681SOL    HW310491   1.350   1.869   3.658 -0.1972  0.0656  1.3892
 2681SOL    MW410492   1.266   1.856   3.679 -0.4526 -0.1747  0.2967
 2682SOL     OW10493   6.158   5.616   0.177 -0.4705  0.1508 -0.9909
 2682SOL    HW210494   6.208   5.638   0.098 -1.0365  1.2319 -1.0701
 2682SOL    HW310495   6.189   5.530   0.202 -0.7800 -0.5292 -2.8133
 2682SOL    MW410496   6.168   5.608   0.170 -0.5860  0.2037 -1.2418
 2683SOL     OW10497   0.571   4.660   6.299 -0.5069  0.1399  0.4744
 2683SOL    HW210498   0.580   4.743   6.344  0.7808 -0.1584  0.7854
 2683SOL    HW310499   0.651   4.651   6.248 -0.4129 -1.1200  0.8139
 2683SOL    MW410500   0.583   4.670   6.298 -0.3246 -0.0657  0.5602
 2684SOL     OW10501   2.934   0.134   3.795  0.0923 -0.0726  0.4811
 2684SOL    HW210502   2.953   0.069   3.728  2.0927  1.0604 -0.1197
 2684SOL    HW310503   3.018   0.175   3.814 -0.6781  0.6654  2.6299
 2684SOL    MW410504   2.947   0.131   3.789  0.2546  0.1743  0.6853
 2685SOL     OW10505   5.793   5.822   3.886  0.6998 -0.6887 -0.2425
 2685SOL    HW210506   5.811   5.853   3.797  1.8911  0.7159  0.4574
 2685SOL    HW310507   5.704   5.786   3.881 -1.2144  3.5760 -0.9582
 2685SOL    MW410508   5.784   5.821   3.873  0.6044  0.0593 -0.2446
 2686SOL     OW10509   0.199   4.822   4.376 -0.0260 -0.3772  0.0532
 2686SOL    HW210510   0.240   4.886   4.435 -1.3308  0.6227 -0.0757
 2686SOL    HW310511   0.268   4.800   4.313  0.8494 -0.1133  0.8901
 2686SOL    MW410512   0.214   4.828   4.375 -0.0827 -0.2105  0.1466
 2687SOL     OW10513   4.333   1.777   4.190 -0.2610  0.1665 -0.1381
 2687SOL    HW210514   4.329   1.831   4.111  0.0840  0.7520  0.2393
 2687SOL    HW310515   4.319   1.688   4.158 -0.3273  0.4172 -0.8354
 2687SOL    MW410516   4.330   1.773   4.175 -0.2243  0.2768 -0.1803
 2688SOL     OW10517   0.749   3.409   0.916  0.4034  0.0911  0.1379
 2688SOL    HW210518   0.821   3.357   0.881 -1.2695 -1.8499 -0.6275
 2688SOL    HW310519   0.770   3.421   1.008  0.7144 -2.2958  0.4413
 2688SOL    MW410520   0.761   3.404   0.923  0.2237 -0.4799  0.0769
 2689SOL     OW10521   4.721   3.063   0.191  0.2655 -0.4647  0.0697
 2689SOL    HW210522   4.666   3.134   0.222 -1.1399 -1.3349 -0.3301
 2689SOL    HW310523   4.780   3.104   0.128 -0.7549  0.3008 -0.4101
 2689SOL    MW410524   4.722   3.078   0.186 -0.0545 -0.4785 -0.0463
 2690SOL     OW10525   4.224   2.753   1.284 -0.2296 -0.0274  0.4639
 2690SOL    HW210526   4.204   2.705   1.364 -2.1833 -0.9926 -0.5329
 2690SOL    HW310527   4.142   2.798   1.262  0.3059  0.3306 -0.9201
 2690SOL    MW410528   4.210   2.753   1.292 -0.4167 -0.1076  0.1498
 2691SOL     OW10529   3.075   4.786   6.122 -0.1047  0.4430  0.3779
 2691SOL    HW210530   3.149   4.726   6.109 -0.0632  0.2533  1.4054
 2691SOL    HW310531   2.999   4.736   6.093  0.0445  0.2216  0.3565
 2691SOL    MW410532   3.075   4.771   6.117 -0.0795  0.3887  0.5107
 2692SOL     OW10533   5.567   0.194   6.132  0.2688 -0.3995 -0.1003
 2692SOL    HW210534   5.535   0.219   6.219  0.8947 -2.9152  0.9243
 2692SOL    HW310535   5.488   0.170   6.084 -0.0508  0.7381 -0.1858
 2692SOL    MW410536   5.552   0.194   6.137  0.3092 -0.5813  0.0236
 2693SOL     OW10537   5.666   4.215   1.223 -0.0036  0.5413  0.0929
 2693SOL    HW210538   5.612   4.176   1.292  0.2696  1.5641  0.9110
 2693SOL    HW310539   5.754   4.219   1.261  0.5988 -0.7592 -1.0805
 2693SOL    MW410540   5.671   4.210   1.237  0.1120  0.5047  0.0460
 2694SOL     OW10541   5.433   5.784   5.886  0.0354 -0.1414  0.0106
 2694SOL    HW210542   5.436   5.726   5.809 -0.9810 -0.8167  0.4530
 2694SOL    HW310543   5.491   5.857   5.863  0.8781 -1.0344 -0.8109
 2694SOL    MW410544   5.441   5.786   5.873  0.0125 -0.3483 -0.0394
 2695SOL     OW10545   6.118   4.258   0.851 -0.0300 -0.9118  0.2513
 2695SOL    HW210546   6.145   4.349   0.848  0.2832 -0.9974 -3.2538
 2695SOL    HW310547   6.200   4.209   0.845 -0.3274 -1.3842 -0.0082
 2695SOL    MW410548   6.133   4.263   0.850 -0.0279 -0.9854 -0.2454
 2696SOL     OW10549   2.407   0.589   6.059  0.8633  0.3775 -0.8628
 2696SOL    HW210550   2.438   0.516   6.006  2.9047  0.6242 -0.1072
 2696SOL    HW310551   2.332   0.555   6.107  0.1904 -0.4163 -2.4347
 2696SOL    MW410552   2.401   0.575   6.059  1.0438  0.3053 -0.9705
 2697SOL     OW10553   0.954   3.983   0.779 -0.0602  0.0171  0.2544
 2697SOL    HW210554   0.994   3.921   0.840  1.2934  1.3577  0.7913
 2697SOL    HW310555   0.866   3.998   0.814 -0.6035 -1.9107 -0.1554
 2697SOL    MW410556   0.947   3.976   0.792  0.0467 -0.0604  0.2712
 2698SOL     OW10557   1.393   1.078   2.439  0.2526 -0.2670  0.0447
 2698SOL    HW210558   1.346   1.028   2.372  2.4940  2.9049 -4.3843
 2698SOL    HW310559   1.472   1.027   2.456 -0.6522 -1.4307  0.9466
 2698SOL    MW410560   1.398   1.065   2.432  0.4290 -0.0020 -0.4207
 2699SOL     OW10561   0.112   5.584   0.223 -0.1436 -0.1904 -0.3178
 2699SOL    HW210562   0.188   5.643   0.215  0.0339 -0.4907 -0.9263
 2699SOL    HW310563   0.073   5.583   0.136 -2.5412  2.1547  0.5936
 2699SOL    MW410564   0.117   5.592   0.211 -0.4365  0.0794 -0.2778
 2700SOL     OW10565   3.092   0.837   1.685 -0.2297  0.0071  0.4359
 2700SOL    HW210566   3.035   0.762   1.670 -1.8580  0.7940  2.2600
 2700SOL    HW310567   3.105   0.838   1.780  0.4623  1.5372  0.3500
 2700SOL    MW410568   3.087   0.827   1.696 -0.3533  0.3128  0.6652
 2701SOL     OW10569   3.268   2.415   3.221 -0.6164 -0.5247  0.0778
 2701SOL    HW210570   3.176   2.441   3.222 -0.2845  1.2705 -3.1802
 2701SOL    HW310571   3.283   2.379   3.134  1.7679 -0.7612  0.4955
 2701SOL    MW410572   3.258   2.414   3.210 -0.2580 -0.3190 -0.2969
 2702SOL     OW10573   2.245   2.055   3.256  0.6917 -0.5356  0.0110
 2702SOL    HW210574   2.236   1.979   3.313 -0.9916 -0.7271 -0.4431
 2702SOL    HW310575   2.155   2.078   3.232  1.2869  0.0379 -1.8970
 2702SOL    MW410576   2.232   2.048   3.260  0.5481 -0.4852 -0.3007
 2703SOL     OW10577   0.915   0.012   5.984  0.0040  0.3403  0.1119
 2703SOL    HW210578   0.979   0.080   6.005 -0.9142  0.8404  1.3476
 2703SOL    HW310579   0.832   0.058   5.973 -1.0905 -0.6928  3.0230
 2703SOL    MW410580   0.913   0.027   5.985 -0.2616  0.2700  0.6590
 2704SOL     OW10581   0.378   2.394   3.078  0.3531 -0.1972  0.2335
 2704SOL    HW210582   0.338   2.310   3.055  0.2186 -0.2329  0.5865
 2704SOL    HW310583   0.311   2.459   3.059  1.3073  0.1153 -2.4455
 2704SOL    MW410584   0.364   2.391   3.072  0.4612 -0.1607 -0.0734
 2705SOL     OW10585   1.941   5.709   5.879 -0.2374  0.2395 -0.5163
 2705SOL    HW210586   1.846   5.697   5.870 -0.0395 -1.9281 -0.1751
 2705SOL    HW310587   1.979   5.646   5.817  0.9872  0.6227 -0.1763
 2705SOL    MW410588   1.933   5.699   5.869 -0.0497  0.0041 -0.4264
 2706SOL     OW10589   0.893   1.826   5.443  0.1247 -0.1519  0.0166
 2706SOL    HW210590   0.931   1.776   5.515  1.8994 -0.9588 -1.4056
 2706SOL    HW310591   0.942   1.908   5.441 -0.2006  0.0474 -0.0421
 2706SOL    MW410592   0.904   1.831   5.452  0.3159 -0.2321 -0.1787
 2707SOL     OW10593   5.265   5.863   2.578  0.0809  0.1206 -0.2348
 2707SOL    HW210594   5.343   5.856   2.633  0.9704 -1.6579 -1.6167
 2707SOL    HW310595   5.290   5.924   2.508  0.1040 -0.1419 -0.4576
 2707SOL    MW410596   5.279   5.870   2.576  0.2013 -0.1487 -0.4466
 2708SOL     OW10597   1.869   4.930   2.244  0.2817 -0.0786 -0.0352
 2708SOL    HW210598   1.934   4.862   2.225  0.4604  0.5439 -1.7804
 2708SOL    HW310599   1.901   4.970   2.326  0.7101 -1.4084  0.4776
 2708SOL    MW410600   1.882   4.926   2.252  0.3618 -0.1719 -0.1978
 2709SOL     OW10601   0.476   1.800   4.120  0.3301  0.4133  0.2894
 2709SOL    HW210602   0.539   1.728   4.130  0.0061  0.2755  1.4656
 2709SOL    HW310603   0.490   1.831   4.031 -1.5013 -2.9495 -1.3775
 2709SOL    MW410604   0.487   1.794   4.110  0.0457 -0.0485  0.2247
 2710SOL     OW10605   1.857   3.456   3.889 -0.4157  0.2588  0.1257
 2710SOL    HW210606   1.817   3.409   3.816 -2.1449  1.2750  0.3483
 2710SOL    HW310607   1.801   3.436   3.964  0.0446  0.9925  0.6791
 2710SOL    MW410608   1.845   3.447   3.889 -0.5832  0.4897  0.2281
 2711SOL     OW10609   4.154   4.289   2.780 -0.0068 -0.2245  0.3147
 2711SOL    HW210610   4.139   4.243   2.863  1.9905 -0.2094  0.7280
 2711SOL    HW310611   4.132   4.225   2.713  0.0132 -0.8217  0.8622
 2711SOL    MW410612   4.149   4.274   2.782  0.2594 -0.3013  0.4414
 2712SOL     OW10613   1.015   1.200   5.469  0.2040 -0.1377 -0.2708
 2712SOL    HW210614   1.060   1.153   5.399  1.7076  0.1660  0.4726
 2712SOL    HW310615   1.023   1.293   5.445  1.3190  0.0160  0.6157
 2712SOL    MW410616   1.022   1.206   5.456  0.5495 -0.0773 -0.0558
 2713SOL     OW10617   0.707   2.640   3.808 -0.9892  0.6237 -0.3363
 2713SOL    HW210618   0.783   2.583   3.823  0.1661  2.1702 -0.1116
 2713SOL    HW310619   0.692   2.635   3.714 -0.9086 -0.0535 -0.3180
 2713SOL    MW410620   0.715   2.632   3.798 -0.8262  0.7384 -0.3043
 2714SOL     OW10621   0.277   2.216   2.303 -0.3025 -0.5346  0.0317
 2714SOL    HW210622   0.235   2.218   2.217  0.0672  0.6315 -0.1319
 2714SOL    HW310623   0.324   2.299   2.309 -0.5448 -0.4732  1.4687
 2714SOL    MW410624   0.278   2.227   2.293 -0.2857 -0.3726  0.1997
 2715SOL     OW10625   5.186   1.279   0.900  0.5791 -0.2676  0.3686
 2715SOL    HW210626   5.201   1.368   0.932 -2.9034  0.8139 -0.5552
 2715SOL    HW310627   5.162   1.229   0.978  1.3566 -0.0966  0.7233
 2715SOL    MW410628   5.185   1.284   0.914  0.2222 -0.1024  0.2935
 2716SOL     OW10629   5.183   2.592   4.199 -0.0335  0.4397  0.5086
 2716SOL    HW210630   5.227   2.514   4.164 -0.6046  0.4881 -0.3634
 2716SOL    HW310631   5.162   2.644   4.121  0.7401  1.6971  1.1151
 2716SOL    MW410632   5.186   2.588   4.184 -0.0068  0.6120  0.4736
 2717SOL     OW10633   3.372   1.861   1.932  0.2685  0.0529  0.1762
 2717SOL    HW210634   3.443   1.923   1.951 -0.5462  1.1495 -0.1990
 2717SOL    HW310635   3.293   1.915   1.932 -0.3522 -0.7874 -1.2401
 2717SOL    MW410636   3.371   1.877   1.934  0.0791  0.0867 -0.0602
 2718SOL     OW10637   4.344   2.083   5.657 -0.0261 -0.5052  0.2218
 2718SOL    HW210638   4.302   2.013   5.706  0.1013 -0.2815  0.6510
 2718SOL    HW310639   4.276   2.114   5.597 -0.1807 -0.7734  0.2552
 2718SOL    MW410640   4.329   2.078   5.656 -0.0297 -0.5111  0.2829
 2719SOL     OW10641   1.976   3.860   5.226  0.7214  0.2051  0.5327
 2719SOL    HW210642   1.959   3.853   5.320  0.8409  1.6701  0.6815
 2719SOL    HW310643   1.991   3.953   5.211 -0.8193  0.2220 -1.2153
 2719SOL    MW410644   1.976   3.872   5.237  0.5339  0.4006  0.3217
 2720SOL     OW10645   0.814   3.297   1.543  0.1603 -0.0377  0.5487
 2720SOL    HW210646   0.746   3.353   1.581 -0.6313  1.0723 -2.2943
 2720SOL    HW310647   0.785   3.208   1.564 -1.3953  0.4585  0.6726
 2720SOL    MW410648   0.801   3.293   1.551 -0.1494  0.1742  0.1900
 2721SOL     OW10649   0.462   0.703   4.674 -0.1775  0.8656  0.2492
 2721SOL    HW210650   0.378   0.727   4.714 -0.8840  1.1333 -1.2957
 2721SOL    HW310651   0.501   0.786   4.649 -1.3047  0.6967 -2.5207
 2721SOL    MW410652   0.456   0.717   4.676 -0.4194  0.8787 -0.3201
 2722SOL     OW10653   1.955   0.837   1.519  0.3281 -0.0995 -0.4411
 2722SOL    HW210654   1.987   0.884   1.442  0.8459  2.7738  1.4099
 2722SOL    HW310655   1.902   0.900   1.567  0.3856 -1.6355  1.8238
 2722SOL    MW410656   1.952   0.851   1.515  0.4040  0.0770  0.1019
 2723SOL     OW10657   1.997   4.386   3.284 -0.0187  0.2555  0.5915
 2723SOL    HW210658   1.941   4.448   3.329 -2.0188  1.5314 -3.2373
 2723SOL    HW310659   1.947   4.305   3.281 -1.3730  1.0826 -1.8658
 2723SOL    MW410660   1.983   4.384   3.290 -0.4613  0.5330 -0.2379
 2724SOL     OW10661   0.857   3.970   0.008  0.5543 -0.1125  0.2651
 2724SOL    HW210662   0.834   3.982   0.100 -0.7217  0.3639 -0.0865
 2724SOL    HW310663   0.901   4.051  -0.018  1.1187 -0.3379  0.5032
 2724SOL    MW410664   0.860   3.982   0.016  0.4604 -0.0794  0.2501
 2725SOL     OW10665   6.170   2.118   1.885  0.2811 -0.5509 -0.0862
 2725SOL    HW210666   6.202   2.029   1.894  1.0876 -0.5541 -2.3209
 2725SOL    HW310667   6.133   2.122   1.796  1.4155  1.6262 -0.5542
 2725SOL    MW410668   6.169   2.107   1.874  0.5372 -0.2640 -0.4428
 2726SOL     OW10669   0.092   4.313   3.579 -0.2397  0.3174  0.4247
 2726SOL    HW210670   0.071   4.400   3.613 -0.0017 -0.0736  1.6174
 2726SOL    HW310671   0.008   4.273   3.559 -0.3307  1.4714 -1.9602
 2726SOL    MW410672   0.078   4.319   3.581 -0.2203  0.4180  0.2674
 2727SOL     OW10673   2.054   0.210   5.216 -0.6505 -0.1564 -0.3424
 2727SOL    HW210674   1.976   0.156   5.227 -1.2498  0.6154 -0.6852
 2727SOL    HW310675   2.022   0.289   5.173  0.2422  0.3835 -0.0363
 2727SOL    MW410676   2.039   0.213   5.212 -0.6118  0.0166 -0.3472
 2728SOL     OW10677   4.900   2.744   1.379 -0.0904  0.2134  0.2203
 2728SOL    HW210678   4.821   2.727   1.431 -0.4397 -1.0631 -0.6695
 2728SOL    HW310679   4.959   2.672   1.401  0.2419  0.3566 -0.1960
 2728SOL    MW410680   4.897   2.732   1.389 -0.0927  0.0639  0.0480
 2729SOL     OW10681   0.118   0.872   1.763  0.2647 -0.2368  0.6558
 2729SOL    HW210682   0.064   0.816   1.819  0.2276  0.3389  1.2156
 2729SOL    HW310683   0.202   0.828   1.758 -0.8301 -2.2598 -1.9643
 2729SOL    MW410684   0.122   0.859   1.770  0.1153 -0.4277  0.3840
 2730SOL     OW10685   0.260   0.721   5.567 -0.0234  0.1459  0.5676
 2730SOL    HW210686   0.353   0.700   5.576 -0.3473 -1.4121  0.4701
 2730SOL    HW310687   0.256   0.816   5.575  1.4464  0.1397  1.7095
 2730SOL    MW410688   0.272   0.731   5.569  0.1277 -0.0605  0.7054
 2731SOL     OW10689   5.170   0.685   6.366 -0.1592 -0.4658  0.3799
 2731SOL    HW210690   5.154   0.591   6.362 -1.8999 -0.1865 -0.9624
 2731SOL    HW310691   5.195   0.709   6.276 -2.3025  0.6629 -0.0080
 2731SOL    MW410692   5.171   0.676   6.353 -0.6717 -0.2800  0.1516
 2732SOL     OW10693   0.789   6.195   4.961  0.6506  0.7245  0.4777
 2732SOL    HW210694   0.828   6.157   4.882  0.6376  1.0598  0.3066
 2732SOL    HW310695   0.852   6.178   5.030  0.2225 -0.4246  0.5950
 2732SOL    MW410696   0.802   6.188   4.960  0.5924  0.6171  0.4706
 2733SOL     OW10697   6.287   1.853   1.915 -0.0301  0.4535 -0.2766
 2733SOL    HW210698   6.377   1.852   1.883 -0.1544  0.6180 -0.6374
 2733SOL    HW310699   6.295   1.846   2.010  0.2942 -1.6453 -0.4123
 2733SOL    MW410700   6.300   1.852   1.923 -0.0037  0.1983 -0.3421
 2734SOL     OW10701   0.632   6.184   0.759 -0.0353 -0.0827  0.3105
 2734SOL    HW210702   0.594   6.228   0.683 -1.0089  0.3317  1.0128
 2734SOL    HW310703   0.723   6.167   0.735 -0.1378  0.6916 -0.6620
 2734SOL    MW410704   0.639   6.187   0.746 -0.1773  0.0741  0.2749
 2735SOL     OW10705   1.190   3.266   1.650 -0.1645  0.1742  0.2224
 2735SOL    HW210706   1.119   3.318   1.688  0.3282 -0.0711  1.5235
 2735SOL    HW310707   1.155   3.176   1.648 -0.0731  0.1354  0.3875
 2735SOL    MW410708   1.176   3.261   1.654 -0.0874  0.1367  0.4158
 2736SOL     OW10709   1.017   0.417   0.217  0.2954  0.0376 -0.2057
 2736SOL    HW210710   1.039   0.325   0.208 -0.1157  0.0038 -0.8494
 2736SOL    HW310711   0.972   0.423   0.302  0.4777 -0.3213 -0.0851
 2736SOL    MW410712   1.014   0.406   0.227  0.2652 -0.0142 -0.2747
 2737SOL     OW10713   5.128   6.063   0.727  0.1972  0.1568  0.2426
 2737SOL    HW210714   5.164   6.104   0.805  0.6820  0.4810 -0.1388
 2737SOL    HW310715   5.144   6.127   0.657  2.3241 -1.2483 -0.6788
 2737SOL    MW410716   5.135   6.077   0.728  0.5418  0.0142  0.0707
 2738SOL     OW10717   0.655   0.387   0.680  0.2382  0.8431 -0.3247
 2738SOL    HW210718   0.714   0.384   0.604  1.5378  1.0846  0.6431
 2738SOL    HW310719   0.666   0.303   0.723 -1.0315  0.4288 -0.7677
 2738SOL    MW410720   0.664   0.376   0.675  0.2422  0.8203 -0.2554
 2739SOL     OW10721   2.424   0.352   1.670  0.2127  0.1326  0.2071
 2739SOL    HW210722   2.427   0.438   1.712  0.3993 -0.3031  1.1094
 2739SOL    HW310723   2.481   0.297   1.724 -0.9198 -0.8903  0.4070
 2739SOL    MW410724   2.432   0.356   1.683  0.0879 -0.0599  0.3525
 2740SOL     OW10725   5.565   3.854   1.868  0.4229 -0.4580  0.2033
 2740SOL    HW210726   5.472   3.856   1.893  0.2052 -0.9731 -0.5268
 2740SOL    HW310727   5.599   3.937   1.898 -0.2156 -0.3685  0.7222
 2740SOL    MW410728   5.557   3.865   1.876  0.3099 -0.5142  0.1755
 2741SOL     OW10729   5.065   5.350   1.622 -0.1138  0.4546 -0.5662
 2741SOL    HW210730   5.120   5.276   1.595 -2.8897 -2.0763  0.1121
 2741SOL    HW310731   5.086   5.420   1.560  1.4214 -1.4680 -2.3739
 2741SOL    MW410732   5.075   5.349   1.610 -0.2775 -0.1330 -0.7152
 2742SOL     OW10733   2.909   4.865   1.672 -0.4716  0.7430 -0.0938
 2742SOL    HW210734   2.991   4.907   1.647 -0.5196  1.4972  0.9356
 2742SOL    HW310735   2.930   4.772   1.674  0.4258  0.9425  0.3664
 2742SOL    MW410736   2.922   4.858   1.669 -0.3595  0.8688  0.1027
 2743SOL     OW10737   0.840   1.667   2.584 -0.3103 -0.1001 -0.4377
 2743SOL    HW210738   0.898   1.598   2.618 -1.2780 -1.3532 -1.2405
 2743SOL    HW310739   0.841   1.655   2.489  0.0973  1.5173 -0.6717
 2743SOL    MW410740   0.848   1.656   2.576 -0.3842 -0.0520 -0.5745
 2744SOL     OW10741   1.078   2.965   0.316  0.2047  0.5164  0.8190
 2744SOL    HW210742   1.034   2.882   0.335  0.0948  0.9489  2.6491
 2744SOL    HW310743   1.132   2.947   0.238  0.4605 -1.3632  1.3867
 2744SOL    MW410744   1.079   2.952   0.308  0.2239  0.3255  1.1354
 2745SOL     OW10745   2.582   0.205   6.172 -0.0770  0.0013  0.6879
 2745SOL    HW210746   2.618   0.160   6.248 -0.9709 -1.1351  0.4690
 2745SOL    HW310747   2.496   0.165   6.159 -0.0097  0.2842 -0.8069
 2745SOL    MW410748   2.576   0.194   6.180 -0.1861 -0.1113  0.4618
 2746SOL     OW10749   0.065   1.165   6.083 -0.3732  0.1431  0.1055
 2746SOL    HW210750   0.144   1.139   6.130 -0.2364 -0.6653 -0.5522
 2746SOL    HW310751  -0.004   1.107   6.117 -0.6843  0.8148  0.6458
 2746SOL    MW410752   0.066   1.154   6.094 -0.3962  0.1251  0.0900
 2747SOL     OW10753   5.561   6.261   0.546  0.1368 -0.0202 -0.0617
 2747SOL    HW210754   5.569   6.356   0.549 -1.3321  0.1075  0.6995
 2747SOL    HW310755   5.649   6.230   0.525  0.3870  1.5456 -1.5620
 2747SOL    MW410756   5.574   6.269   0.543 -0.0240  0.2032 -0.1592
 2748SOL     OW10757   5.757   1.613   4.658  0.5585  0.0803 -0.3899
 2748SOL    HW210758   5.781   1.602   4.750 -0.7601 -0.6660 -0.1098
 2748SOL    HW310759   5.723   1.703   4.654  0.1590 -0.0485 -0.0318
 2748SOL    MW410760   5.755   1.624   4.670  0.3318 -0.0352 -0.3057
 2749SOL     OW10761   2.484   1.362   0.509 -1.0230  0.4470  0.4094
 2749SOL    HW210762   2.569   1.396   0.539 -1.2466  1.2160  0.1956
 2749SOL    HW310763   2.492   1.267   0.517 -0.0164  0.4908  0.0848
 2749SOL    MW410764   2.497   1.354   0.514 -0.9197  0.5542  0.3383
 2750SOL     OW10765   4.732   0.972   4.710  0.2360 -0.2079  0.2616
 2750SOL    HW210766   4.652   0.921   4.698  0.3277 -0.1607 -0.5853
 2750SOL    HW310767   4.753   1.005   4.623  0.4190  0.9241  0.7084
 2750SOL    MW410768   4.724   0.970   4.697  0.2723 -0.0523  0.2088
 2751SOL     OW10769   4.552   3.729   1.609 -0.1146 -0.1494 -0.6055
 2751SOL    HW210770   4.489   3.665   1.576 -0.2712 -0.0873 -0.4273
 2751SOL    HW310771   4.624   3.727   1.545 -0.5990  0.2594 -1.1830
 2751SOL    MW410772   4.553   3.721   1.596 -0.1992 -0.0873 -0.6581
 2752SOL     OW10773   0.202   2.581   4.568 -0.0250 -0.0632 -0.4981
 2752SOL    HW210774   0.231   2.618   4.485 -0.7085  0.2014 -0.6205
 2752SOL    HW310775   0.108   2.570   4.559 -0.3136  1.1632  0.7026
 2752SOL    MW410776   0.194   2.584   4.556 -0.1533  0.1335 -0.3558
 2753SOL     OW10777   2.451   1.811   4.423  1.0704 -0.3419  0.0286
 2753SOL    HW210778   2.441   1.756   4.501 -0.2521 -1.2901 -0.7692
 2753SOL    HW310779   2.364   1.847   4.408  2.1379  3.2920  1.3762
 2753SOL    MW410780   2.438   1.809   4.432  1.0367  0.0124  0.1011
 2754SOL     OW10781   1.390   0.383   2.205  0.2211 -0.0553  0.3388
 2754SOL    HW210782   1.412   0.473   2.229  0.3927  0.4805 -1.6993
 2754SOL    HW310783   1.474   0.344   2.179  0.0614 -0.6451  0.6892
 2754SOL    MW410784   1.404   0.390   2.205  0.2227 -0.0624  0.1161
 2755SOL     OW10785   4.066   0.038   3.014  0.1659  0.0554  0.0293
 2755SOL    HW210786   4.024   0.112   3.058 -2.4611  0.0707 -2.2358
 2755SOL    HW310787   4.056  -0.035   3.075  0.8356  1.0365  1.3704
 2755SOL    MW410788   4.059   0.039   3.028 -0.0923  0.1869 -0.0926
 2756SOL     OW10789   1.834   2.657   3.080 -0.4745  0.4226 -0.1221
 2756SOL    HW210790   1.838   2.698   3.167  0.1585  0.3207 -0.0988
 2756SOL    HW310791   1.740   2.652   3.061 -0.6846 -0.4808  1.0001
 2756SOL    MW410792   1.822   2.662   3.089 -0.4187  0.2900  0.0291
 2757SOL     OW10793   3.742   0.250   4.448 -0.2938 -0.0879  0.0132
 2757SOL    HW210794   3.677   0.276   4.514  0.0498  0.8670 -0.0081
 2757SOL    HW310795   3.743   0.323   4.386 -0.4844 -0.8940 -0.9626
 2757SOL    MW410796   3.733   0.263   4.449 -0.2736 -0.0682 -0.1184
 2758SOL     OW10797   2.963   3.559   3.266 -0.1667  0.3538 -0.4161
 2758SOL    HW210798   2.991   3.619   3.197  2.0575 -0.2289 -0.0998
 2758SOL    HW310799   2.973   3.609   3.347  2.0586 -0.4868 -0.1173
 2758SOL    MW410800   2.968   3.573   3.268  0.4203  0.1660 -0.3349
 2759SOL     OW10801   1.407   0.132   2.685 -0.6897  0.1639 -0.0286
 2759SOL    HW210802   1.373   0.044   2.675 -0.1867 -0.2028  1.2859
 2759SOL    HW310803   1.445   0.153   2.600 -1.3709 -0.6327 -0.5409
 2759SOL    MW410804   1.407   0.123   2.673 -0.7132  0.0104  0.0773
 2760SOL     OW10805   0.002   6.065   0.281  0.6003  0.4074 -0.1766
 2760SOL    HW210806  -0.016   6.049   0.189  1.1388  0.7773 -0.3465
 2760SOL    HW310807   0.028   6.157   0.285  0.0705  0.5375  0.4199
 2760SOL    MW410808   0.003   6.075   0.270  0.6014  0.4733 -0.1203
 2761SOL     OW10809   0.716   5.696   2.933 -0.0531  0.1766  0.1010
 2761SOL    HW210810   0.641   5.645   2.904  0.4341 -1.1195  1.0301
 2761SOL    HW310811   0.787   5.669   2.874  0.4287 -0.9284  1.1564
 2761SOL    MW410812   0.716   5.686   2.921  0.0748 -0.1402  0.3629
 2762SOL     OW10813   4.274   2.928   0.346  0.2291 -0.2714 -0.6122
 2762SOL    HW210814   4.187   2.967   0.350 -0.1177 -1.0455 -0.4549
 2762SOL    HW310815   4.313   2.965   0.267 -0.4010 -0.2440 -0.9153
 2762SOL    MW410816   4.268   2.938   0.336  0.1002 -0.3699 -0.6315
 2763SOL     OW10817   4.927   2.030   5.767  0.3014  0.8977  0.5699
 2763SOL    HW210818   4.927   1.949   5.716  0.9525 -0.0406  2.0027
 2763SOL    HW310819   5.013   2.069   5.750 -0.3717  1.8635 -0.9084
 2763SOL    MW410820   4.938   2.024   5.758  0.2985  0.9014  0.5639
 2764SOL     OW10821   0.750   0.712   3.124 -0.0143  0.0660 -0.2357
 2764SOL    HW210822   0.695   0.634   3.116  1.6135 -0.9767 -1.8911
 2764SOL    HW310823   0.691   0.785   3.104 -1.1931 -0.8614 -0.2448
 2764SOL    MW410824   0.735   0.711   3.120  0.0449 -0.1939 -0.4553
 2765SOL     OW10825   5.931   0.296   4.170  0.3947 -0.1466  0.0531
 2765SOL    HW210826   5.972   0.294   4.084  0.4131  0.8935  0.0242
 2765SOL    HW310827   5.886   0.212   4.177  2.6445 -1.4212  0.1566
 2765SOL    MW410828   5.930   0.285   4.160  0.6939 -0.1775  0.0629
 2766SOL     OW10829   5.544   2.115   0.526 -0.2150 -0.2186 -0.5746
 2766SOL    HW210830   5.456   2.085   0.503  0.7711 -3.8513 -0.2633
 2766SOL    HW310831   5.581   2.144   0.443 -2.1278  3.0068 -0.4515
 2766SOL    MW410832   5.537   2.115   0.512 -0.3373 -0.2723 -0.5173
 2767SOL     OW10833   4.259   3.960   0.512 -0.5696  0.2944  0.1820
 2767SOL    HW210834   4.319   3.984   0.442 -1.8385 -0.5047 -1.2388
 2767SOL    HW310835   4.226   3.874   0.487 -0.1172 -0.6272  2.4331
 2767SOL    MW410836   4.263   3.952   0.500 -0.6774  0.0674  0.2915
 2768SOL     OW10837   5.553   4.859   2.682 -0.6834  0.0236  0.1109
 2768SOL    HW210838   5.480   4.799   2.667 -1.7680  1.7307 -2.2883
 2768SOL    HW310839   5.607   4.850   2.603  0.5726  0.2847  0.9214
 2768SOL    MW410840   5.550   4.850   2.669 -0.6608  0.2833 -0.0987
 2769SOL     OW10841   4.219   4.510   3.144  0.2991 -0.0398 -0.2903
 2769SOL    HW210842   4.146   4.570   3.129 -0.6841 -1.0939  0.1094
 2769SOL    HW310843   4.289   4.565   3.178 -0.6898  0.8363  0.3893
 2769SOL    MW410844   4.219   4.525   3.147  0.0389 -0.0633 -0.1479
 2770SOL     OW10845   4.586   6.249   2.822 -0.2312  0.5280  0.3901
 2770SOL    HW210846   4.491   6.246   2.808 -0.4241  0.0704  1.6307
 2770SOL    HW310847   4.609   6.161   2.851  0.5471  0.6859  0.2692
 2770SOL    MW410848   4.576   6.237   2.824 -0.1540  0.4885  0.5378
 2771SOL     OW10849   1.892   2.546   1.613 -0.5761 -0.1201 -0.3852
 2771SOL    HW210850   1.928   2.458   1.602 -0.8976 -0.1402 -1.3831
 2771SOL    HW310851   1.967   2.599   1.639 -0.3087 -0.6171 -0.1111
 2771SOL    MW410852   1.907   2.541   1.615 -0.5832 -0.1883 -0.4807
 2772SOL     OW10853   0.184   0.577   0.825  0.3150  0.3046 -0.3015
 2772SOL    HW210854   0.197   0.502   0.883  0.3484  0.0912 -0.5827
 2772SOL    HW310855   0.125   0.545   0.757  1.7893 -0.0343 -1.4721
 2772SOL    MW410856   0.178   0.563   0.824  0.5139  0.2318 -0.4931
 2773SOL     OW10857   5.874   0.408   1.143 -0.4978  0.0340  0.2735
 2773SOL    HW210858   5.909   0.446   1.062 -0.0023 -0.5203  0.2238
 2773SOL    HW310859   5.784   0.385   1.121 -0.4328  0.0819 -0.0562
 2773SOL    MW410860   5.867   0.410   1.129 -0.4239 -0.0328  0.2234
 2774SOL     OW10861   2.979   4.393   1.264 -0.4110  0.8300  0.1457
 2774SOL    HW210862   2.942   4.314   1.225  0.9624 -1.0874  2.4389
 2774SOL    HW310863   2.918   4.416   1.334  0.7304 -0.1303  1.5108
 2774SOL    MW410864   2.966   4.385   1.268 -0.0792  0.4503  0.6284
 2775SOL     OW10865   1.547   4.556   4.734 -0.4375 -0.1882 -0.0592
 2775SOL    HW210866   1.547   4.515   4.648  3.8828  0.2252 -0.4768
 2775SOL    HW310867   1.507   4.642   4.719  2.0643  0.7160 -2.2614
 2775SOL    MW410868   1.542   4.562   4.721  0.4626 -0.0143 -0.4049
 2776SOL     OW10869   5.778   5.707   0.749  0.1392  0.5752  0.3030
 2776SOL    HW210870   5.863   5.670   0.773  0.5408 -0.1071 -1.9445
 2776SOL    HW310871   5.716   5.663   0.808  1.0675 -0.7349  0.3537
 2776SOL    MW410872   5.781   5.696   0.760  0.3147  0.3123  0.0131
 2777SOL     OW10873   1.302   4.570   1.035  0.1915  0.6156 -0.0420
 2777SOL    HW210874   1.282   4.642   0.976  0.2255  0.8485  0.2328
 2777SOL    HW310875   1.252   4.587   1.114 -0.6307 -0.2182 -0.3624
 2777SOL    MW410876   1.293   4.581   1.037  0.0875  0.5363 -0.0480
 2778SOL     OW10877   6.156   1.876   4.828 -0.3247 -0.2828  0.1577
 2778SOL    HW210878   6.078   1.863   4.883 -0.5774 -0.1162 -0.1582
 2778SOL    HW310879   6.127   1.938   4.761 -0.2435 -1.0728 -0.6216
 2778SOL    MW410880   6.142   1.882   4.827 -0.3473 -0.3650  0.0132
 2779SOL     OW10881   1.785   3.726   4.048  0.4498  0.1840 -0.3483
 2779SOL    HW210882   1.694   3.755   4.047  0.3041 -0.2615 -0.4275
 2779SOL    HW310883   1.780   3.633   4.025  0.8404 -0.0784  0.5841
 2779SOL    MW410884   1.772   3.717   4.044  0.4821  0.0906 -0.2358
 2780SOL     OW10885   0.319   3.344   3.929  0.8896 -0.0895  0.3755
 2780SOL    HW210886   0.285   3.313   3.845 -0.4278  1.5201  0.2695
 2780SOL    HW310887   0.390   3.284   3.950  0.4010 -1.2928 -1.2622
 2780SOL    MW410888   0.324   3.332   3.921  0.6513 -0.0359  0.1455
 2781SOL     OW10889   6.191   2.385   5.590 -0.3893 -0.4140 -0.1459
 2781SOL    HW210890   6.175   2.445   5.663  0.3529 -0.0528 -0.2706
 2781SOL    HW310891   6.286   2.375   5.588 -0.1027  1.7537 -2.7688
 2781SOL    MW410892   6.201   2.391   5.600 -0.2535 -0.0804 -0.5084
 2782SOL     OW10893   5.470   6.221   2.641 -0.5996  0.4496  0.2806
 2782SOL    HW210894   5.539   6.285   2.658  0.6167 -0.6202 -0.4520
 2782SOL    HW310895   5.421   6.217   2.723  0.3802  1.0170  0.9218
 2782SOL    MW410896   5.473   6.229   2.654 -0.3098  0.3833  0.2685
 2783SOL     OW10897   3.999   1.893   0.030 -0.1980 -0.3057  0.3240
 2783SOL    HW210898   4.028   1.981   0.005  0.7319 -0.6169  0.2710
 2783SOL    HW310899   3.911   1.886  -0.005 -0.1086  0.4381 -0.0694
 2783SOL    MW410900   3.991   1.904   0.022 -0.0635 -0.2486  0.2651
 2784SOL     OW10901   2.469   6.197   5.399 -0.5750 -0.0691  0.3813
 2784SOL    HW210902   2.467   6.162   5.310 -1.9554 -0.8258  0.6746
 2784SOL    HW310903   2.464   6.292   5.388  0.8907 -0.0643 -0.3723
 2784SOL    MW410904   2.468   6.205   5.386 -0.5637 -0.1683  0.3206
 2785SOL     OW10905   3.453   1.653   2.136  0.4997  0.0821 -0.4864
 2785SOL    HW210906   3.412   1.707   2.068  3.5018  0.5728 -2.0933
 2785SOL    HW310907   3.533   1.700   2.158  0.7484 -1.2581  1.7726
 2785SOL    MW410908   3.458   1.666   2.130  0.9286 -0.0300 -0.4003
 2786SOL     OW10909   0.989   4.204   6.388  0.8591 -0.3285  0.0303
 2786SOL    HW210910   1.047   4.205   6.465  1.5509  1.0662 -0.4852
 2786SOL    HW310911   0.909   4.247   6.419  1.5890  1.3646 -0.3313
 2786SOL    MW410912   0.986   4.210   6.402  1.0467  0.0789 -0.0854
 2787SOL     OW10913   5.486   6.412   1.247  0.3036  0.0251  0.1015
 2787SOL    HW210914   5.402   6.377   1.218  0.5631  0.6386 -1.5063
 2787SOL    HW310915   5.472   6.435   1.339 -1.2804  0.0892 -0.1257
 2787SOL    MW410916   5.473   6.411   1.255  0.1288  0.1145 -0.1406
 2788SOL     OW10917   1.414   1.306   4.242 -0.1325  0.0987 -0.3004
 2788SOL    HW210918   1.497   1.352   4.261  0.0653 -0.3575 -0.0533
 2788SOL    HW310919   1.386   1.342   4.158  0.4041  0.1407 -0.4676
 2788SOL    MW410920   1.421   1.317   4.233 -0.0356  0.0441 -0.2899
 2789SOL     OW10921   1.843   5.969   5.257 -0.6186  0.3299 -0.6846
 2789SOL    HW210922   1.809   5.890   5.215  1.4762 -0.1622 -1.5655
 2789SOL    HW310923   1.796   6.041   5.214  0.3604 -0.2481 -2.8234
 2789SOL    MW410924   1.832   5.968   5.246 -0.2130  0.1887 -1.0830
 2790SOL     OW10925   0.512   3.595   4.563  0.6951 -0.0299  0.0278
 2790SOL    HW210926   0.512   3.500   4.557 -0.2661  0.0252 -1.8342
 2790SOL    HW310927   0.439   3.615   4.622  0.0299 -0.4509 -0.6232
 2790SOL    MW410928   0.502   3.585   4.570  0.4805 -0.0781 -0.3037
 2791SOL     OW10929   6.321   3.901   5.980  0.5781 -0.2385 -0.1986
 2791SOL    HW210930   6.371   3.920   5.900  0.7450  0.2398  0.0101
 2791SOL    HW310931   6.263   3.976   5.990  3.5549  2.0194  2.4555
 2791SOL    MW410932   6.320   3.914   5.971  0.9929  0.1225  0.1791
 2792SOL     OW10933   1.341   6.029   3.105 -0.2379 -0.5551 -0.4337
 2792SOL    HW210934   1.413   5.978   3.142  0.3727 -0.0107 -0.8578
 2792SOL    HW310935   1.342   6.008   3.011 -1.8203 -1.9783 -0.1892
 2792SOL    MW410936   1.351   6.019   3.097 -0.3661 -0.6711 -0.4574
 2793SOL     OW10937   5.003   3.837   6.286 -0.4599  0.1296  0.1364
 2793SOL    HW210938   4.975   3.803   6.201 -3.3138  0.3332  0.9085
 2793SOL    HW310939   5.052   3.916   6.266  0.0392 -0.5245 -1.3454
 2793SOL    MW410940   5.006   3.843   6.272 -0.7706  0.0701  0.0428
 2794SOL     OW10941   1.944   1.844   0.759  0.0715 -0.0371 -0.4157
 2794SOL    HW210942   1.960   1.763   0.807 -2.0848  0.2361  0.9023
 2794SOL    HW310943   1.905   1.815   0.676 -1.7292 -0.3971  0.4978
 2794SOL    MW410944   1.941   1.829   0.754 -0.4505 -0.0485 -0.1213
 2795SOL     OW10945   4.360   1.416   4.375 -0.3098 -0.1171  0.2205
 2795SOL    HW210946   4.409   1.342   4.412  1.0250 -0.0833 -1.3523
 2795SOL    HW310947   4.391   1.492   4.423 -0.0261 -0.3048  0.3354
 2795SOL    MW410948   4.370   1.416   4.386 -0.0962 -0.1374  0.0281
 2796SOL     OW10949   4.413   3.055   3.696  0.8995  0.3958  0.9127
 2796SOL    HW210950   4.500   3.093   3.704  1.2520 -0.0610 -0.5205
 2796SOL    HW310951   4.427   2.961   3.699  0.8368  0.1978 -1.9952
 2796SOL    MW410952   4.426   3.048   3.698  0.9378  0.3094  0.3399
 2797SOL     OW10953   0.527   0.447   5.697 -0.2883 -0.5856  0.0663
 2797SOL    HW210954   0.489   0.531   5.726 -0.9427 -1.2569  1.2149
 2797SOL    HW310955   0.464   0.381   5.725  1.6265 -1.7568  1.8973
 2797SOL    MW410956   0.513   0.450   5.704 -0.1220 -0.8287  0.4594
 2798SOL     OW10957   6.205   3.160   2.556  0.2743  0.8094  0.0597
 2798SOL    HW210958   6.252   3.224   2.503 -0.1158  0.3598 -0.8369
 2798SOL    HW310959   6.169   3.097   2.493  0.3271 -0.0851  0.8916
 2798SOL    MW410960   6.207   3.160   2.541  0.2298  0.6321  0.0512
 2799SOL     OW10961   4.566   1.249   0.203  0.2402 -0.5763 -0.0942
 2799SOL    HW210962   4.595   1.231   0.292  0.8379 -0.5286 -0.2736
 2799SOL    HW310963   4.627   1.316   0.172 -1.3518  1.1216  0.2551
 2799SOL    MW410964   4.578   1.256   0.211  0.1090 -0.3460 -0.0718
 2800SOL     OW10965   1.745   4.404   0.820  0.0440 -0.5003 -0.1929
 2800SOL    HW210966   1.812   4.472   0.812 -0.0057 -0.6200 -2.3636
 2800SOL    HW310967   1.688   4.433   0.892  0.2386  1.5764 -0.8228
 2800SOL    MW410968   1.746   4.417   0.828  0.0631 -0.2421 -0.5624
 2801SOL     OW10969   3.109   5.267   2.613 -0.4715 -0.2553 -0.0505
 2801SOL    HW210970   3.152   5.236   2.533  1.0313  0.5451  0.3945
 2801SOL    HW310971   3.079   5.355   2.593  1.5673  0.6968  0.7499
 2801SOL    MW410972   3.111   5.274   2.600 -0.0042 -0.0241  0.1139
 2802SOL     OW10973   6.246   0.606   5.579 -0.1358 -0.1735 -0.6088
 2802SOL    HW210974   6.204   0.536   5.628  2.0968 -1.1187  0.0948
 2802SOL    HW310975   6.178   0.672   5.568 -1.9866 -1.9340 -0.2822
 2802SOL    MW410976   6.232   0.606   5.584 -0.0854 -0.5305 -0.4729
 2803SOL     OW10977   5.937   4.808   2.304 -0.4075 -0.2403 -0.5044
 2803SOL    HW210978   5.999   4.776   2.370  0.5563  0.8326 -0.8548
 2803SOL    HW310979   5.959   4.760   2.225 -1.7789 -1.7685 -0.0132
 2803SOL    MW410980   5.948   4.797   2.303 -0.4613 -0.3004 -0.4858
 2804SOL     OW10981   2.580   1.544   0.229 -0.3757  0.2997  0.6339
 2804SOL    HW210982   2.538   1.606   0.169 -0.6981  1.0713  1.6421
 2804SOL    HW310983   2.561   1.458   0.192  1.6332  0.7954 -1.8549
 2804SOL    MW410984   2.572   1.541   0.216 -0.1532  0.4669  0.4386
 2805SOL     OW10985   0.352   3.970   3.110 -0.2910  0.3757 -0.6538
 2805SOL    HW210986   0.423   3.994   3.169  0.1220  0.1321 -1.0493
 2805SOL    HW310987   0.280   4.029   3.134  0.1071  0.7574 -0.3858
 2805SOL    MW410988   0.352   3.981   3.121 -0.1840  0.3939 -0.6706
 2806SOL     OW10989   2.674   3.927   4.320 -0.0886  0.0943  0.3131
 2806SOL    HW210990   2.655   3.936   4.413  1.2270 -0.7705  0.6803
 2806SOL    HW310991   2.737   3.997   4.301 -0.5851  0.4637 -0.0127
 2806SOL    MW410992   2.680   3.937   4.329  0.0195  0.0290  0.3186
 2807SOL     OW10993   0.517   3.641   1.274 -0.1788  0.8290  0.4634
 2807SOL    HW210994   0.581   3.636   1.346  1.9933  0.5099 -1.3668
 2807SOL    HW310995   0.489   3.550   1.262  1.8490  0.3333 -1.0312
 2807SOL    MW410996   0.522   3.628   1.282  0.3753  0.7215  0.0248
 2808SOL     OW10997   1.163   2.690   6.032  0.6305 -0.8309 -0.2818
 2808SOL    HW210998   1.156   2.764   5.971  0.7963 -0.9645 -0.4682
 2808SOL    HW310999   1.075   2.679   6.067  0.9565  0.5633  1.0669
 2808SOL    MW411000   1.151   2.698   6.028  0.6954 -0.6646 -0.1284
 2809SOL     OW11001   3.499   5.296   3.215 -0.5052  0.1657 -0.3913
 2809SOL    HW211002   3.421   5.267   3.169 -0.6581  0.2038 -0.1565
 2809SOL    HW311003   3.480   5.387   3.240 -0.3406  0.2141 -0.4382
 2809SOL    MW411004   3.486   5.304   3.212 -0.5037  0.1771 -0.3665
 2810SOL     OW11005   0.222   1.554   5.810 -0.2121 -0.3929 -0.9162
 2810SOL    HW211006   0.295   1.493   5.797  0.1618  0.0678 -1.0281
 2810SOL    HW311007   0.159   1.505   5.862  0.5737 -0.5141 -0.0284
 2810SOL    MW411008   0.224   1.539   5.815 -0.0591 -0.3481 -0.8138
 2811SOL     OW11009   5.755   2.283   3.590  0.1454 -0.3974 -0.1364
 2811SOL    HW211010   5.667   2.250   3.572  0.0089 -0.3681  0.4580
 2811SOL    HW311011   5.813   2.219   3.549 -0.1532  0.4699 -2.0362
 2811SOL    MW411012   5.751   2.270   3.582  0.0880 -0.2791 -0.3087
 2812SOL     OW11013   0.672   5.755   5.444 -0.3435 -0.3941  0.2698
 2812SOL    HW211014   0.604   5.758   5.377 -3.7016 -1.3507  3.3328
 2812SOL    HW311015   0.664   5.838   5.491  3.3454  1.1917 -1.4998
 2812SOL    MW411016   0.662   5.766   5.442 -0.2999 -0.3111  0.4404
 2813SOL     OW11017   1.824   0.201   1.820  0.3674  0.0868  0.0492
 2813SOL    HW211018   1.906   0.211   1.870  0.7639  0.9097 -0.7326
 2813SOL    HW311019   1.840   0.249   1.739 -0.7488 -0.1118 -0.3006
 2813SOL    MW411020   1.837   0.209   1.816  0.2725  0.1692 -0.1001
 2814SOL     OW11021   1.840   1.554   5.504 -0.1872 -0.8655 -0.3843
 2814SOL    HW211022   1.924   1.513   5.524  0.8042  0.4773 -1.5366
 2814SOL    HW311023   1.844   1.639   5.548 -1.3417 -1.1429  0.2912
 2814SOL    MW411024   1.852   1.560   5.512 -0.2087 -0.7249 -0.4472
 2815SOL     OW11025   1.527   1.755   5.011  0.4936  0.4420  0.4370
 2815SOL    HW211026   1.616   1.787   5.029  1.4254 -1.8180  0.0713
 2815SOL    HW311027   1.517   1.680   5.069 -0.6525 -0.1989 -0.5666
 2815SOL    MW411028   1.537   1.750   5.021  0.4654  0.0593  0.2563
 2816SOL     OW11029   4.341   4.573   2.339 -0.6511  0.1827  0.6850
 2816SOL    HW211030   4.395   4.631   2.392  1.3578  0.5008 -1.5185
 2816SOL    HW311031   4.306   4.509   2.401  1.6877  0.4110  2.3781
 2816SOL    MW411032   4.344   4.572   2.354 -0.0775  0.2548  0.6177
 2817SOL     OW11033   2.482   4.173   1.820  0.1329 -0.3007  0.3373
 2817SOL    HW211034   2.413   4.188   1.885 -0.2583  0.7844 -0.3035
 2817SOL    HW311035   2.516   4.086   1.841 -1.6117 -0.9933  0.5128
 2817SOL    MW411036   2.477   4.163   1.831 -0.1489 -0.2489  0.2759
 2818SOL     OW11037   5.671   1.263   1.881 -0.0732  0.4030  0.2798
 2818SOL    HW211038   5.599   1.265   1.818 -1.7448 -1.0389  2.0467
 2818SOL    HW311039   5.716   1.181   1.863  0.5186  0.8091 -0.1334
 2818SOL    MW411040   5.668   1.252   1.870 -0.2157  0.2663  0.4584
 2819SOL     OW11041   1.739   1.881   3.186 -0.0232  0.0056  0.0800
 2819SOL    HW211042   1.651   1.852   3.209  0.9377 -0.7233  3.3280
 2819SOL    HW311043   1.775   1.811   3.132 -1.2360  0.1135 -0.9065
 2819SOL    MW411044   1.732   1.868   3.181 -0.0565 -0.0764  0.3783
 2820SOL     OW11045   4.226   2.766   6.246 -0.6041 -0.4348  0.1239
 2820SOL    HW211046   4.217   2.840   6.306  1.3617 -0.7766  0.9133
 2820SOL    HW311047   4.138   2.752   6.212 -1.3853  1.0405  1.4041
 2820SOL    MW411048   4.213   2.774   6.249 -0.4478 -0.2852  0.3970
 2821SOL     OW11049   4.920   5.939   2.972  0.5312  0.5725  0.9078
 2821SOL    HW211050   4.833   5.961   2.940  0.3715 -1.7427 -0.4452
 2821SOL    HW311051   4.954   6.021   3.008 -1.3403  2.0448 -0.5167
 2821SOL    MW411052   4.913   5.953   2.973  0.2632  0.4613  0.5413
 2822SOL     OW11053   5.519   5.449   0.180 -0.6909 -0.4561  0.4769
 2822SOL    HW211054   5.596   5.437   0.236 -0.1858  0.7892  0.0825
 2822SOL    HW311055   5.540   5.402   0.100  0.1384  0.7711 -0.0458
 2822SOL    MW411056   5.532   5.441   0.177 -0.5149 -0.1299  0.3559
 2823SOL     OW11057   0.236   3.640   0.900 -0.5726 -0.2189 -0.1271
 2823SOL    HW211058   0.240   3.589   0.980  1.6647 -1.2884 -0.8531
 2823SOL    HW311059   0.323   3.679   0.892 -1.5413  1.9831 -0.7380
 2823SOL    MW411060   0.248   3.639   0.909 -0.4052 -0.0695 -0.3035
 2824SOL     OW11061   5.845   5.793   6.180  0.1396  0.0474  0.4915
 2824SOL    HW211062   5.792   5.753   6.112 -0.7340  3.4654 -1.0581
 2824SOL    HW311063   5.787   5.801   6.255  0.3460 -1.5096  0.8406
 2824SOL    MW411064   5.830   5.789   6.181  0.0516  0.2929  0.3331
 2825SOL     OW11065   1.743   2.443   0.237 -0.0507 -0.1815  1.0075
 2825SOL    HW211066   1.726   2.504   0.165 -1.3100 -0.9662  0.6072
 2825SOL    HW311067   1.818   2.480   0.283 -0.2947  1.2484  0.3058
 2825SOL    MW411068   1.750   2.456   0.234 -0.2491 -0.0964  0.8621
 2826SOL     OW11069   6.282   2.488   2.225  0.0234 -0.4112 -0.2831
 2826SOL    HW211070   6.225   2.412   2.235  0.0569 -0.5284 -0.9941
 2826SOL    HW311071   6.364   2.462   2.268  0.2238 -0.9782 -0.9987
 2826SOL    MW411072   6.286   2.475   2.232  0.0543 -0.5015 -0.4713
 2827SOL     OW11073   0.853   1.194   1.267 -0.5925  0.1943  0.0705
 2827SOL    HW211074   0.915   1.235   1.206  0.1317  1.5237  1.6117
 2827SOL    HW311075   0.767   1.222   1.237 -0.3925 -0.6425 -1.3634
 2827SOL    MW411076   0.850   1.203   1.255 -0.4706  0.2593  0.0847
 2828SOL     OW11077   4.142   2.389   5.091  0.4934  0.4507 -0.0232
 2828SOL    HW211078   4.156   2.483   5.104 -0.4479  0.5052  0.6771
 2828SOL    HW311079   4.231   2.353   5.087  0.8650  1.2541  0.6222
 2828SOL    MW411080   4.156   2.397   5.092  0.4183  0.5639  0.1543
 2829SOL     OW11081   5.764   5.431   1.779 -0.3939  0.4277 -0.1496
 2829SOL    HW211082   5.822   5.485   1.726 -0.9600  0.6756 -0.5258
 2829SOL    HW311083   5.713   5.381   1.715 -2.2481  1.9210  0.0422
 2829SOL    MW411084   5.765   5.432   1.763 -0.7133  0.6574 -0.1739
 2830SOL     OW11085   5.162   1.380   4.548 -1.2342  0.3707 -0.4815
 2830SOL    HW211086   5.221   1.374   4.473 -1.5220  0.7376 -0.7402
 2830SOL    HW311087   5.118   1.295   4.550 -1.2147  0.3525 -0.7211
 2830SOL    MW411088   5.164   1.368   4.538 -1.2696  0.4167 -0.5472
 2831SOL     OW11089   0.122   5.796   2.256  0.0810 -0.3805  0.3026
 2831SOL    HW211090   0.085   5.879   2.225 -0.0521 -0.3895  0.4401
 2831SOL    HW311091   0.047   5.743   2.279  0.1487 -0.7254 -0.2498
 2831SOL    MW411092   0.107   5.800   2.255  0.0724 -0.4272  0.2479
 2832SOL     OW11093   4.445   5.135   2.854 -1.0049  0.3778 -0.1590
 2832SOL    HW211094   4.432   5.056   2.907 -1.3037 -0.6910 -1.7363
 2832SOL    HW311095   4.495   5.194   2.910 -2.9193  0.0927  2.0116
 2832SOL    MW411096   4.450   5.132   2.868 -1.2969  0.1992 -0.0807
 2833SOL     OW11097   5.250   0.481   2.028 -0.3471 -0.1720 -0.0466
 2833SOL    HW211098   5.243   0.560   1.975  1.0081  0.6957  0.9915
 2833SOL    HW311099   5.234   0.511   2.118 -0.1582 -1.1381  0.3272
 2833SOL    MW411100   5.247   0.495   2.033 -0.1433 -0.1850  0.1397
 2834SOL     OW11101   2.951   4.146   2.989 -0.1060 -0.7380 -0.1032
 2834SOL    HW211102   2.952   4.242   2.994  0.0954 -0.7717  0.4861
 2834SOL    HW311103   2.939   4.117   3.079 -1.7567 -1.2464 -0.4589
 2834SOL    MW411104   2.950   4.155   3.001 -0.2972 -0.8095 -0.0724
 2835SOL     OW11105   1.847   1.496   4.730 -0.7708 -0.3956  0.5469
 2835SOL    HW211106   1.915   1.561   4.747 -1.2316 -0.1158  1.3670
 2835SOL    HW311107   1.895   1.414   4.717  0.1798  0.6089 -4.2410
 2835SOL    MW411108   1.862   1.494   4.730 -0.7062 -0.2261  0.0234
 2836SOL     OW11109   5.837   3.436   3.129  0.3106  0.4573  0.2650
 2836SOL    HW211110   5.919   3.392   3.151  0.1299  0.3757  0.7967
 2836SOL    HW311111   5.846   3.524   3.167 -0.0751  0.2577  0.8416
 2836SOL    MW411112   5.849   3.442   3.137  0.2359  0.4202  0.4112
 2837SOL     OW11113   6.334   5.222   6.031 -0.3976  0.6715 -0.0269
 2837SOL    HW211114   6.425   5.229   6.059 -0.5251  1.0144  0.3048
 2837SOL    HW311115   6.297   5.309   6.046  0.0375  1.5076 -3.1304
 2837SOL    MW411116   6.341   5.234   6.037 -0.3570  0.8271 -0.3926
 2838SOL     OW11117   2.220   1.882   0.664 -0.5067 -0.2280 -0.1856
 2838SOL    HW211118   2.125   1.895   0.670 -0.3281  1.3443 -0.3284
 2838SOL    HW311119   2.238   1.889   0.570 -0.0245  1.6029 -0.0051
 2838SOL    MW411120   2.210   1.885   0.652 -0.4195  0.2210 -0.1806
 2839SOL     OW11121   1.861   3.932   0.501  0.3732  0.2299  0.2642
 2839SOL    HW211122   1.804   3.857   0.484  1.3629 -0.3678 -0.5164
 2839SOL    HW311123   1.874   3.972   0.415 -0.4991  1.5871  0.7284
 2839SOL    MW411124   1.855   3.927   0.487  0.3887  0.3301  0.2225
 2840SOL     OW11125   1.274   3.153   2.874 -0.2077 -0.2901 -0.0572
 2840SOL    HW211126   1.261   3.206   2.952  0.7787  0.6427 -0.4979
 2840SOL    HW311127   1.196   3.098   2.868 -0.3519 -0.2887  1.5034
 2840SOL    MW411128   1.262   3.153   2.883 -0.0965 -0.1669  0.0905
 2841SOL     OW11129   5.863   5.777   2.273 -0.7285 -0.0352  0.4654
 2841SOL    HW211130   5.826   5.766   2.185  0.0093  0.4496  0.0908
 2841SOL    HW311131   5.853   5.870   2.292  0.4878  0.1501  0.2675
 2841SOL    MW411132   5.857   5.788   2.264 -0.4707  0.0532  0.3899
 2842SOL     OW11133   4.407   0.454   4.324 -0.2950 -0.2086  0.3474
 2842SOL    HW211134   4.454   0.514   4.266 -1.3959  1.3247  0.9573
 2842SOL    HW311135   4.475   0.423   4.385  0.2092  0.9802  0.4408
 2842SOL    MW411136   4.422   0.458   4.325 -0.3737  0.1506  0.4402
 2843SOL     OW11137   2.638   6.145   2.357 -0.3537  0.3462  0.0145
 2843SOL    HW211138   2.623   6.228   2.311 -0.2029 -0.1833 -1.0094
 2843SOL    HW311139   2.727   6.121   2.335  0.1003  0.5971  1.4545
 2843SOL    MW411140   2.648   6.153   2.348 -0.2739  0.3094  0.0694
 2844SOL     OW11141   1.574   4.517   4.190  0.5700 -0.3975 -0.2121
 2844SOL    HW211142   1.494   4.569   4.201  0.3405 -0.3760 -1.8029
 2844SOL    HW311143   1.602   4.498   4.280 -1.1176 -0.2576  0.3877
 2844SOL    MW411144   1.567   4.521   4.203  0.3170 -0.3762 -0.3428
 2845SOL     OW11145   4.403   2.288   5.041 -0.0870 -0.5170  0.2887
 2845SOL    HW211146   4.424   2.230   5.114 -2.0225 -0.1792  1.1552
 2845SOL    HW311147   4.459   2.256   4.970  0.1546 -2.3387  1.2207
 2845SOL    MW411148   4.413   2.276   5.041 -0.3105 -0.7128  0.5260
 2846SOL     OW11149   5.072   2.540   4.573 -0.6165  0.7002  0.0705
 2846SOL    HW211150   5.083   2.446   4.588 -2.3881  0.2511 -1.2359
 2846SOL    HW311151   5.034   2.572   4.655 -0.3760  0.2154  0.3811
 2846SOL    MW411152   5.068   2.532   4.586 -0.8185  0.5770 -0.0609
 2847SOL     OW11153   4.207   5.134   1.961  0.5275 -0.5144  0.3030
 2847SOL    HW211154   4.278   5.194   1.982  0.7221 -0.0555 -1.4410
 2847SOL    HW311155   4.251   5.054   1.934  0.2744 -1.3663  2.2689
 2847SOL    MW411156   4.222   5.132   1.960  0.5198 -0.5662  0.3323
 2848SOL     OW11157   1.008   3.733   2.666 -0.2314  0.2841 -0.1021
 2848SOL    HW211158   0.918   3.752   2.640  0.1678  2.1516 -0.2673
 2848SOL    HW311159   1.046   3.686   2.592 -0.4359  1.5231 -1.0340
 2848SOL    MW411160   1.002   3.729   2.653 -0.2057  0.6940 -0.2468
 2849SOL     OW11161   3.950   4.389   1.281  0.0121 -0.1566  0.1642
 2849SOL    HW211162   3.997   4.306   1.292 -0.8563 -0.6146  0.6028
 2849SOL    HW311163   3.862   4.362   1.254 -1.9608  0.1755  5.1514
 2849SOL    MW411164   3.945   4.374   1.279 -0.3628 -0.1732  0.8801
 2850SOL     OW11165   3.610   1.814   3.102  0.2662  0.2111  0.1799
 2850SOL    HW211166   3.579   1.726   3.122 -0.1462  0.1768 -0.5696
 2850SOL    HW311167   3.671   1.835   3.172  0.7916 -0.8897  0.0582
 2850SOL    MW411168   3.614   1.805   3.114  0.2811  0.0613  0.0650
 2851SOL     OW11169   2.304   6.005   0.278  0.3467  0.2189 -0.1763
 2851SOL    HW211170   2.327   6.064   0.349  0.0673 -0.1649  0.2343
 2851SOL    HW311171   2.214   5.978   0.296  0.3492 -0.0606 -0.5496
 2851SOL    MW411172   2.295   6.009   0.290  0.3102  0.1314 -0.1714
 2852SOL     OW11173   5.128   0.540   5.418  0.2429 -0.8430 -0.6159
 2852SOL    HW211174   5.113   0.445   5.414 -1.8582 -0.5751 -0.0767
 2852SOL    HW311175   5.062   0.577   5.360 -1.6773  0.4822  2.2156
 2852SOL    MW411176   5.117   0.532   5.410 -0.2877 -0.6328 -0.1712
 2853SOL     OW11177   5.720   2.396   0.223  0.6085 -0.0109 -0.4377
 2853SOL    HW211178   5.691   2.305   0.221  2.1384 -0.5135 -2.3957
 2853SOL    HW311179   5.640   2.447   0.227 -0.3444 -1.4101 -1.1276
 2853SOL    MW411180   5.706   2.391   0.223  0.6846 -0.2619 -0.7870
 2854SOL     OW11181   3.271   6.324   3.280  0.6613 -0.2206  0.2396
 2854SOL    HW211182   3.219   6.399   3.310  1.7880  0.0150  1.7196
 2854SOL    HW311183   3.206   6.257   3.257 -0.3217  0.7405  0.1563
 2854SOL    MW411184   3.256   6.325   3.281  0.6802 -0.0627  0.4239
 2855SOL     OW11185   1.318   2.041   3.262  0.0826 -0.2462 -0.2094
 2855SOL    HW211186   1.359   2.076   3.183 -0.3342  0.2551 -0.2106
 2855SOL    HW311187   1.257   2.110   3.289  0.7961 -0.0609  0.9968
 2855SOL    MW411188   1.315   2.055   3.255  0.1218 -0.1556 -0.0504
 2856SOL     OW11189   6.324   0.084   2.782 -0.0820 -0.3121 -0.2393
 2856SOL    HW211190   6.321   0.081   2.878 -0.1914  1.0265 -0.1805
 2856SOL    HW311191   6.249   0.139   2.757  0.6858  0.4265 -1.0025
 2856SOL    MW411192   6.313   0.091   2.791  0.0049 -0.0381 -0.3322
 2857SOL     OW11193   0.914   1.434   3.030  0.1548  0.7074 -0.0339
 2857SOL    HW211194   0.920   1.437   2.935 -0.6503 -2.3359 -0.2802
 2857SOL    HW311195   1.005   1.438   3.060  0.4222  1.5430 -0.8819
 2857SOL    MW411196   0.927   1.435   3.022  0.0839  0.4161 -0.1783
 2858SOL     OW11197   2.170   0.484   4.513  0.0449 -0.5336 -0.1824
 2858SOL    HW211198   2.085   0.522   4.492 -0.0153 -0.2186  0.6072
 2858SOL    HW311199   2.188   0.423   4.441  0.0068  0.7655 -1.3401
 2858SOL    MW411200   2.161   0.481   4.501  0.0319 -0.3207 -0.2309
 2859SOL     OW11201   0.505   4.329   6.334  0.0702 -0.0047  0.2809
 2859SOL    HW211202   0.501   4.417   6.296  1.2115 -0.0077  0.1050
 2859SOL    HW311203   0.419   4.316   6.375  0.0071  1.3257  0.6188
 2859SOL    MW411204   0.493   4.339   6.334  0.2124  0.1704  0.3022
 2860SOL     OW11205   4.812   2.164   4.452  0.0154  0.1268 -0.4288
 2860SOL    HW211206   4.799   2.253   4.419 -1.3310  0.3217  0.5347
 2860SOL    HW311207   4.825   2.176   4.546 -0.1637 -0.6936 -0.2975
 2860SOL    MW411208   4.812   2.178   4.460 -0.1859  0.0442 -0.2843
 2861SOL     OW11209   4.757   0.164   3.794  0.1956  0.3969 -0.3560
 2861SOL    HW211210   4.664   0.188   3.788  0.3053  0.7791 -0.6059
 2861SOL    HW311211   4.758   0.085   3.847 -0.1736  1.0631  0.6723
 2861SOL    MW411212   4.745   0.157   3.800  0.1613  0.5353 -0.2533
 2862SOL     OW11213   4.101   0.238   3.935 -0.0144 -0.3374 -0.4008
 2862SOL    HW211214   4.046   0.249   4.012 -0.1518  1.3823 -0.7167
 2862SOL    HW311215   4.106   0.143   3.923 -3.0971 -0.5961 -0.4947
 2862SOL    MW411216   4.094   0.227   3.943 -0.4392 -0.1446 -0.4548
 2863SOL     OW11217   4.919   2.442   1.082 -0.1735  0.2637  0.1199
 2863SOL    HW211218   4.824   2.435   1.096 -0.2287 -0.0404 -0.3615
 2863SOL    HW311219   4.938   2.377   1.014  1.0356 -2.6792  3.0164
 2863SOL    MW411220   4.909   2.432   1.075 -0.0213 -0.1647  0.4385
 2864SOL     OW11221   1.571   4.480   1.028 -0.1451 -0.3436 -0.0889
 2864SOL    HW211222   1.491   4.532   1.037  0.3342  0.1820  1.4631
 2864SOL    HW311223   1.574   4.427   1.108 -0.2035 -2.1961 -1.2723
 2864SOL    MW411224   1.561   4.480   1.040 -0.0896 -0.5187 -0.0403
 2865SOL     OW11225   0.412   3.587   3.545  0.1580  0.4693 -0.0579
 2865SOL    HW211226   0.331   3.573   3.496  0.4354 -1.8576 -0.0049
 2865SOL    HW311227   0.387   3.571   3.636  0.6872 -0.5448 -0.0725
 2865SOL    MW411228   0.398   3.583   3.551  0.2644  0.0285 -0.0528
 2866SOL     OW11229   4.534   1.396   4.030  0.2317  0.5039  0.2017
 2866SOL    HW211230   4.512   1.326   3.969 -0.2247  2.4659 -2.0589
 2866SOL    HW311231   4.624   1.421   4.006  0.1043  1.2035  0.4364
 2866SOL    MW411232   4.543   1.390   4.019  0.1547  0.8551 -0.0656
 2867SOL     OW11233   6.268   0.124   0.701 -0.4067  0.4573 -0.5062
 2867SOL    HW211234   6.319   0.044   0.715  0.2259  0.8096 -0.7470
 2867SOL    HW311235   6.284   0.146   0.609 -1.2397  0.4081 -0.6692
 2867SOL    MW411236   6.277   0.116   0.690 -0.4332  0.4973 -0.5595
 2868SOL     OW11237   6.126   5.886   4.870 -0.2035 -0.2272 -0.2983
 2868SOL    HW211238   6.182   5.821   4.829  2.7822  0.2462  2.5801
 2868SOL    HW311239   6.063   5.835   4.921  1.6534 -1.0095  1.3640
 2868SOL    MW411240   6.125   5.871   4.871  0.4354 -0.2679  0.3008
 2869SOL     OW11241   5.539   2.116   3.517 -0.0606  0.4490 -0.2038
 2869SOL    HW211242   5.505   2.093   3.603 -1.8445 -1.4432 -1.3327
 2869SOL    HW311243   5.607   2.051   3.499  0.9728  1.4097  0.1257
 2869SOL    MW411244   5.543   2.105   3.526 -0.1596  0.3261 -0.3093
 2870SOL     OW11245   5.331   3.813   3.185  0.3148  0.1514 -0.1722
 2870SOL    HW211246   5.404   3.847   3.236  0.3520 -0.2388  0.0357
 2870SOL    HW311247   5.366   3.736   3.140 -0.1049 -0.3525  0.3492
 2870SOL    MW411248   5.345   3.808   3.186  0.2643  0.0334 -0.0760
 2871SOL     OW11249   0.708   2.415   2.848  0.0503  0.2772 -0.4714
 2871SOL    HW211250   0.661   2.424   2.764 -0.6343  1.9834  0.0436
 2871SOL    HW311251   0.800   2.428   2.825 -0.1033  0.4986 -0.9855
 2871SOL    MW411252   0.714   2.418   2.834 -0.0603  0.5315 -0.4712
 2872SOL     OW11253   1.452   5.914   5.334 -0.2280  0.2263  0.5428
 2872SOL    HW211254   1.477   5.927   5.243 -0.9273  0.0415  0.3172
 2872SOL    HW311255   1.461   6.000   5.375  1.5294  0.0039  0.6699
 2872SOL    MW411256   1.456   5.927   5.327 -0.0884  0.1726  0.5298
 2873SOL     OW11257   6.278   3.557   5.770  0.0846  0.2726  0.0620
 2873SOL    HW211258   6.256   3.466   5.751 -1.4613  0.2757  1.5348
 2873SOL    HW311259   6.276   3.562   5.866 -1.4069  2.1808 -0.0171
 2873SOL    MW411260   6.275   3.546   5.780 -0.3161  0.5248  0.2459
 2874SOL     OW11261   0.343   0.079   3.548 -0.0124  0.0359 -0.0069
 2874SOL    HW211262   0.362   0.172   3.534 -1.8158  1.0564  3.2682
 2874SOL    HW311263   0.392   0.034   3.480  3.8891  3.1183  0.3993
 2874SOL    MW411264   0.352   0.086   3.537  0.2644  0.5772  0.4788
 2875SOL     OW11265   5.941   5.247   5.139 -0.3266  0.8794  0.2909
 2875SOL    HW211266   5.996   5.170   5.127 -1.5241 -0.0960  0.7382
 2875SOL    HW311267   5.970   5.309   5.072 -0.3571 -0.5749 -1.1179
 2875SOL    MW411268   5.952   5.245   5.129 -0.4886  0.5588  0.1640
 2876SOL     OW11269   0.365   3.501   1.643 -0.1889 -0.6713 -0.2501
 2876SOL    HW211270   0.384   3.592   1.664 -0.8065 -0.1570 -1.7922
 2876SOL    HW311271   0.452   3.460   1.635  0.1662  0.2196 -1.2746
 2876SOL    MW411272   0.379   3.507   1.644 -0.2235 -0.4859 -0.5887
 2877SOL     OW11273   1.817   2.100   3.501  0.0825 -0.3315 -0.4683
 2877SOL    HW211274   1.731   2.060   3.510  0.2101 -0.4143  0.4562
 2877SOL    HW311275   1.833   2.142   3.586  0.7311  0.1257 -0.8059
 2877SOL    MW411276   1.808   2.100   3.513  0.1849 -0.2821 -0.3908
 2878SOL     OW11277   5.990   1.787   1.623 -0.1396 -0.6370 -0.2673
 2878SOL    HW211278   5.927   1.715   1.614 -0.0344 -1.3630  3.2837
 2878SOL    HW311279   5.976   1.820   1.712  1.7942  1.8732 -0.7814
 2878SOL    MW411280   5.980   1.782   1.633  0.1294 -0.4016  0.1334
 2879SOL     OW11281   5.280   3.326   4.664  0.7787 -0.6562  0.3283
 2879SOL    HW211282   5.240   3.388   4.603  0.6272 -0.6016  0.4793
 2879SOL    HW311283   5.214   3.256   4.673  0.9029 -0.7840  0.2417
 2879SOL    MW411284   5.266   3.325   4.657  0.7751 -0.6658  0.3368
 2880SOL     OW11285   4.342   1.215   2.961  0.1641 -0.6162 -0.6406
 2880SOL    HW211286   4.366   1.255   2.877  2.9709 -1.7987 -0.5337
 2880SOL    HW311287   4.250   1.236   2.972  0.1125  1.0192 -3.2033
 2880SOL    MW411288   4.333   1.223   2.951  0.5276 -0.5564 -0.9646
 2881SOL     OW11289   0.548   5.519   5.877 -0.2157 -0.1535  0.6736
 2881SOL    HW211290   0.623   5.478   5.919  0.0510 -0.5845 -0.1927
 2881SOL    HW311291   0.583   5.559   5.798 -0.8073  0.1007  0.5335
 2881SOL    MW411292   0.562   5.519   5.872 -0.2586 -0.1768  0.5408
 2882SOL     OW11293   4.605   2.365   5.727  0.3089  0.2390 -0.4981
 2882SOL    HW211294   4.598   2.347   5.633  0.8319  0.7066 -0.6348
 2882SOL    HW311295   4.664   2.440   5.732  1.7471 -0.9103  0.3172
 2882SOL    MW411296   4.612   2.373   5.715  0.5677  0.1491 -0.4086
 2883SOL     OW11297   4.229   2.016   4.630  0.7440  0.0404  0.4203
 2883SOL    HW211298   4.150   2.070   4.629  1.0147  0.4745  1.3768
 2883SOL    HW311299   4.214   1.951   4.698  1.0287 -0.1443  0.3106
 2883SOL    MW411300   4.217   2.015   4.639  0.8173  0.0733  0.5321
 2884SOL     OW11301   5.061   5.963   2.737  0.2051  0.3518 -0.0814
 2884SOL    HW211302   5.079   5.958   2.831 -1.0361  0.2835  0.1739
 2884SOL    HW311303   5.145   5.948   2.695  1.0122  1.5492  1.0407
 2884SOL    MW411304   5.074   5.961   2.744  0.1478  0.5008  0.1003
 2885SOL     OW11305   5.465   1.741   0.079 -0.3439 -0.1456 -0.5783
 2885SOL    HW211306   5.420   1.660   0.101 -1.0632  0.2625 -0.5052
 2885SOL    HW311307   5.557   1.717   0.076 -0.4085 -0.6821  0.7867
 2885SOL    MW411308   5.471   1.727   0.082 -0.4473 -0.1626 -0.3886
 2886SOL     OW11309   0.628   6.034   2.682 -0.2519 -0.0553 -0.0341
 2886SOL    HW211310   0.717   6.021   2.715 -0.1876  1.3855  0.4132
 2886SOL    HW311311   0.621   5.972   2.609  1.3188  0.2150 -0.4555
 2886SOL    MW411312   0.639   6.024   2.677 -0.0361  0.1705 -0.0307
 2887SOL     OW11313   5.828   0.675   5.459  0.3579 -0.1208  0.4266
 2887SOL    HW211314   5.894   0.650   5.395 -0.7194  0.6932 -1.0535
 2887SOL    HW311315   5.864   0.646   5.543  2.2321 -0.3616 -0.4197
 2887SOL    MW411316   5.841   0.668   5.462  0.4630 -0.0452  0.1197
 2888SOL     OW11317   0.641   3.845   0.338  0.1282 -0.0633  0.4766
 2888SOL    HW211318   0.708   3.792   0.294 -0.5513 -1.2119  0.7978
 2888SOL    HW311319   0.661   3.836   0.431 -0.9420 -1.0904  0.6284
 2888SOL    MW411320   0.653   3.836   0.344 -0.1026 -0.3504  0.5390
 2889SOL     OW11321   0.737   5.120   0.390 -0.2581 -0.6671 -0.0299
 2889SOL    HW211322   0.651   5.147   0.422 -0.4672  0.5577 -1.5391
 2889SOL    HW311323   0.799   5.155   0.455 -0.7596  0.4922 -0.1509
 2889SOL    MW411324   0.734   5.128   0.403 -0.3518 -0.3525 -0.2450
 2890SOL     OW11325   2.305   5.141   3.207  0.0136 -0.1416 -0.3469
 2890SOL    HW211326   2.333   5.056   3.174  0.9477  0.3823 -0.9321
 2890SOL    HW311327   2.289   5.194   3.129 -0.2387  0.3285  0.0148
 2890SOL    MW411328   2.306   5.137   3.193  0.1035 -0.0104 -0.3764
 2891SOL     OW11329   2.507   3.685   4.590 -0.6433 -0.2864 -0.2769
 2891SOL    HW211330   2.431   3.743   4.582  1.2023  2.1475 -1.2071
 2891SOL    HW311331   2.526   3.659   4.499 -0.1103 -0.5704 -0.0855
 2891SOL    MW411332   2.499   3.689   4.577 -0.3295 -0.0028 -0.3744
 2892SOL     OW11333   0.290   4.278   1.174  0.3771  0.1471  0.4193
 2892SOL    HW211334   0.372   4.258   1.219 -0.3249 -0.2021  1.5837
 2892SOL    HW311335   0.249   4.193   1.161  0.7841  0.1874 -1.3723
 2892SOL    MW411336   0.296   4.264   1.178  0.3382  0.1064  0.3365
 2893SOL     OW11337   6.340   3.846   4.169 -0.0546 -0.8398  0.4527
 2893SOL    HW211338   6.431   3.815   4.172  0.3157  0.2005  0.2110
 2893SOL    HW311339   6.340   3.915   4.103 -0.4807  0.8459  2.1233
 2893SOL    MW411340   6.352   3.851   4.161 -0.0620 -0.4801  0.6412
 2894SOL     OW11341   6.070   5.521   0.993  0.5540  0.0622  0.0750
 2894SOL    HW211342   6.144   5.545   1.048  0.5997 -1.3065  0.6405
 2894SOL    HW311343   6.077   5.579   0.917  2.0656  0.1119  0.2217
 2894SOL    MW411344   6.080   5.532   0.990  0.7595 -0.1118  0.1690
 2895SOL     OW11345   4.805   5.788   1.086  0.5747 -0.1620 -0.0680
 2895SOL    HW211346   4.797   5.851   1.158  0.4065  0.0817 -0.2996
 2895SOL    HW311347   4.889   5.809   1.045  0.2418  0.2956 -0.5125
 2895SOL    MW411348   4.815   5.799   1.090  0.5086 -0.0695 -0.1572
 2896SOL     OW11349   6.376   4.328   1.880 -0.3625 -0.2301  0.6651
 2896SOL    HW211350   6.439   4.297   1.945 -1.5494  0.1975  2.0671
 2896SOL    HW311351   6.421   4.318   1.796  1.7940  0.5998  1.6437
 2896SOL    MW411352   6.390   4.323   1.878 -0.2346 -0.0642  0.9792
 2897SOL     OW11353   1.326   6.254   1.044 -0.0400 -0.3055  0.0187
 2897SOL    HW211354   1.281   6.282   0.964 -0.8972 -1.3085  0.1246
 2897SOL    HW311355   1.290   6.167   1.062 -0.1048  0.0452  1.6938
 2897SOL    MW411356   1.315   6.246   1.036 -0.1616 -0.3916  0.2537
 2898SOL     OW11357   4.550   4.470   4.602 -0.6190  0.2141  0.8407
 2898SOL    HW211358   4.635   4.432   4.625 -0.5227 -0.5394 -0.6794
 2898SOL    HW311359   4.494   4.394   4.585 -0.7034  0.7048 -1.2740
 2898SOL    MW411360   4.554   4.455   4.603 -0.6174  0.1794  0.3612
 2899SOL     OW11361   4.988   2.384   1.911 -0.3009  0.2221 -0.2286
 2899SOL    HW211362   5.062   2.432   1.948  0.6162  0.0091 -1.6973
 2899SOL    HW311363   4.987   2.301   1.957 -0.2694  0.6283  0.5160
 2899SOL    MW411364   4.998   2.380   1.922 -0.1757  0.2476 -0.3241
 2900SOL     OW11365   2.781   4.044   1.721 -0.0436  0.4171 -0.4915
 2900SOL    HW211366   2.842   4.054   1.648 -0.7552  0.5469 -1.0882
 2900SOL    HW311367   2.772   4.132   1.757  0.4964  0.3094 -0.0877
 2900SOL    MW411368   2.788   4.057   1.716 -0.0662  0.4200 -0.5169
 2901SOL     OW11369   4.600   3.900   5.821 -0.1888 -0.0276 -0.1742
 2901SOL    HW211370   4.685   3.858   5.810 -1.1216 -2.2283  0.4820
 2901SOL    HW311371   4.562   3.900   5.733 -0.2008 -0.6021 -0.1688
 2901SOL    MW411372   4.606   3.895   5.808 -0.3134 -0.3938 -0.0869
 2902SOL     OW11373   2.581   0.838   0.260  0.1198  0.0266  0.7688
 2902SOL    HW211374   2.537   0.777   0.320  0.4179 -1.1512 -0.1833
 2902SOL    HW311375   2.674   0.815   0.266 -0.0201 -1.4293 -1.5409
 2902SOL    MW411376   2.588   0.827   0.269  0.1407 -0.3209  0.3385
 2903SOL     OW11377   2.107   2.465   4.070 -0.1309  0.1415 -0.2063
 2903SOL    HW211378   2.115   2.524   4.145 -2.0746 -0.4677  0.5509
 2903SOL    HW311379   2.088   2.522   3.996  1.2766  0.7082 -0.1583
 2903SOL    MW411380   2.105   2.480   4.070 -0.2016  0.1359 -0.1001
 2904SOL     OW11381   4.530   1.871   1.477 -0.2447 -0.3878  0.0612
 2904SOL    HW211382   4.479   1.806   1.525  0.4585  0.0130  1.4085
 2904SOL    HW311383   4.526   1.950   1.531  0.7061  0.0450 -0.4710
 2904SOL    MW411384   4.523   1.873   1.490 -0.0265 -0.2778  0.1688
 2905SOL     OW11385   4.058   4.023   5.672 -0.5818 -0.2579  0.0090
 2905SOL    HW211386   4.127   4.084   5.647 -1.3650 -0.1755 -2.1702
 2905SOL    HW311387   4.100   3.961   5.733  0.7542  1.1578  0.5735
 2905SOL    MW411388   4.073   4.023   5.677 -0.5088 -0.0602 -0.2041
 2906SOL     OW11389   0.163   1.572   2.894 -0.0545  0.2868  0.0756
 2906SOL    HW211390   0.077   1.558   2.853 -1.1062  1.5536  1.7222
 2906SOL    HW311391   0.200   1.646   2.846  0.2808 -0.4367 -0.8213
 2906SOL    MW411392   0.157   1.580   2.882 -0.1490  0.3585  0.1745
 2907SOL     OW11393   2.227   1.322   1.828  0.2439  0.5904 -0.0192
 2907SOL    HW211394   2.302   1.306   1.886 -0.1263  1.0384  0.6005
 2907SOL    HW311395   2.221   1.418   1.823  0.5878  0.5637 -1.2322
 2907SOL    MW411396   2.236   1.333   1.835  0.2405  0.6460 -0.0975
 2908SOL     OW11397   0.001   3.658   2.291  0.0215  0.2652  0.2039
 2908SOL    HW211398  -0.020   3.710   2.369 -3.4967 -2.5042  1.3551
 2908SOL    HW311399   0.055   3.586   2.325 -1.2766 -0.7897  0.0811
 2908SOL    MW411400   0.005   3.655   2.306 -0.6139 -0.2394  0.3396
 2909SOL     OW11401   3.173   3.329   5.820 -0.4056  0.0085 -0.3591
 2909SOL    HW211402   3.112   3.356   5.888  0.3578  1.1060 -0.0804
 2909SOL    HW311403   3.245   3.287   5.867 -0.0563  0.4312 -0.5023
 2909SOL    MW411404   3.174   3.327   5.835 -0.2588  0.2091 -0.3412
 2910SOL     OW11405   3.894   5.379   0.809 -0.8997 -0.5087  0.6936
 2910SOL    HW211406   3.863   5.446   0.871 -0.3355  0.4981 -0.0879
 2910SOL    HW311407   3.880   5.418   0.723  1.2943 -0.5358  0.2627
 2910SOL    MW411408   3.888   5.393   0.806 -0.5358 -0.3794  0.5336
 2911SOL     OW11409   6.096   1.132   2.826 -0.1603 -0.1557 -0.5216
 2911SOL    HW211410   6.027   1.199   2.827 -0.8622 -0.8479 -1.2693
 2911SOL    HW311411   6.171   1.176   2.785 -0.5239  0.2635 -0.7456
 2911SOL    MW411412   6.097   1.147   2.821 -0.3009 -0.1917 -0.6498
 2912SOL     OW11413   5.633   2.961   2.182  0.5330 -0.0632  0.4026
 2912SOL    HW211414   5.659   3.054   2.184  1.2838 -0.2641  0.3474
 2912SOL    HW311415   5.682   2.925   2.108 -0.8121 -0.2074 -0.4458
 2912SOL    MW411416   5.643   2.969   2.172  0.4546 -0.1087  0.2834
 2913SOL     OW11417   0.445   5.117   6.276  0.1403  1.0244 -0.0065
 2913SOL    HW211418   0.494   5.053   6.224  2.0019  1.7870  0.7369
 2913SOL    HW311419   0.483   5.201   6.253  0.1618  1.4967  1.6585
 2913SOL    MW411420   0.457   5.120   6.266  0.3887  1.1874  0.3112
 2914SOL     OW11421   1.536   0.250   2.944 -0.1427  0.2367 -0.2834
 2914SOL    HW211422   1.546   0.184   2.876 -0.4986  0.0592 -0.1645
 2914SOL    HW311423   1.456   0.225   2.991 -0.8652  1.3183 -0.8779
 2914SOL    MW411424   1.527   0.238   2.941 -0.2850  0.3560 -0.3462
 2915SOL     OW11425   0.717   1.171   3.961 -0.3154 -0.2272 -0.2275
 2915SOL    HW211426   0.690   1.181   3.870  0.6334  1.0780 -0.3870
 2915SOL    HW311427   0.771   1.248   3.979  1.4260 -1.5953  0.7371
 2915SOL    MW411428   0.720   1.182   3.952  0.0396 -0.2355 -0.1213
 2916SOL     OW11429   0.947   0.477   1.101 -0.1547  0.0672  0.7083
 2916SOL    HW211430   0.955   0.389   1.065 -0.5184 -0.0074  0.8041
 2916SOL    HW311431   0.995   0.473   1.184 -1.2205 -0.3990  1.3190
 2916SOL    MW411432   0.954   0.465   1.108 -0.3433 -0.0041  0.8015
 2917SOL     OW11433   2.846   4.165   0.304  0.1910 -0.5935 -0.3536
 2917SOL    HW211434   2.762   4.211   0.295  0.3642  0.0844  1.1518
 2917SOL    HW311435   2.912   4.232   0.288  0.4411 -0.6216  0.5070
 2917SOL    MW411436   2.844   4.180   0.301  0.2469 -0.5078 -0.0415
 2918SOL     OW11437   3.752   0.267   2.124  0.1433 -0.1601 -0.0482
 2918SOL    HW211438   3.805   0.202   2.171  0.3018  0.2665  0.3829
 2918SOL    HW311439   3.662   0.249   2.151  0.0626 -0.8462 -0.7319
 2918SOL    MW411440   3.748   0.256   2.134  0.1536 -0.1943 -0.0815
 2919SOL     OW11441   6.341   5.059   1.793 -0.1369 -0.6623 -0.2838
 2919SOL    HW211442   6.267   5.018   1.837 -0.6374  1.3120  0.8640
 2919SOL    HW311443   6.398   5.088   1.864  2.2942 -2.9343 -1.1358
 2919SOL    MW411444   6.339   5.058   1.808  0.1178 -0.7016 -0.2448
 2920SOL     OW11445   2.205   2.069   6.125  0.3446  0.0212  0.0398
 2920SOL    HW211446   2.261   2.046   6.050 -0.2514  0.7769 -0.6631
 2920SOL    HW311447   2.249   2.031   6.201  0.2755 -1.9187 -0.8456
 2920SOL    MW411448   2.218   2.061   6.125  0.2569 -0.1350 -0.1698
 2921SOL     OW11449   4.043   3.076   0.191 -0.3265 -0.4052  0.3849
 2921SOL    HW211450   4.028   3.032   0.107  1.2939  0.6901 -0.5438
 2921SOL    HW311451   3.969   3.136   0.200  0.0026  0.2338 -0.8365
 2921SOL    MW411452   4.031   3.078   0.181 -0.0693 -0.1763  0.1012
 2922SOL     OW11453   1.593   2.878   0.047  0.3776 -0.5176 -0.1295
 2922SOL    HW211454   1.563   2.889  -0.044 -2.0172 -1.6263  0.4356
 2922SOL    HW311455   1.617   2.785   0.053 -1.0122 -0.8561  0.7156
 2922SOL    MW411456   1.592   2.867   0.036 -0.1217 -0.7085  0.0566
 2923SOL     OW11457   1.927   3.899   5.905 -0.3205 -0.0895  0.1033
 2923SOL    HW211458   1.949   3.992   5.914 -1.4599  0.0398  2.1248
 2923SOL    HW311459   1.845   3.889   5.953  0.1073 -2.2694  0.4795
 2923SOL    MW411460   1.919   3.910   5.913 -0.4144 -0.3600  0.4197
 2924SOL     OW11461   5.110   6.226   2.308 -0.1511 -0.1604 -0.4568
 2924SOL    HW211462   5.043   6.260   2.367 -0.7855 -2.6477  0.3630
 2924SOL    HW311463   5.062   6.167   2.249  0.8991  0.2384 -1.7559
 2924SOL    MW411464   5.095   6.223   2.308 -0.0962 -0.4359 -0.5200
 2925SOL     OW11465   0.155   4.989   1.219  0.0407 -0.1217  0.2206
 2925SOL    HW211466   0.075   4.947   1.252  1.6682 -2.2031  1.8300
 2925SOL    HW311467   0.174   5.059   1.281 -0.4186  0.2667 -0.0702
 2925SOL    MW411468   0.147   4.992   1.232  0.1948 -0.3450  0.3946
 2926SOL     OW11469   0.381   3.483   6.403  0.2323 -0.5257  0.7847
 2926SOL    HW211470   0.292   3.489   6.438  0.1333  0.9749  0.3565
 2926SOL    HW311471   0.437   3.469   6.479 -0.4984 -3.3501  0.8863
 2926SOL    MW411472   0.377   3.482   6.417  0.1228 -0.7004  0.7416
 2927SOL     OW11473   2.635   4.332   0.995  0.4957 -0.1201  0.0280
 2927SOL    HW211474   2.728   4.313   1.002  0.1740 -2.1943 -0.5609
 2927SOL    HW311475   2.612   4.311   0.904 -0.1527  2.5133 -0.4933
 2927SOL    MW411476   2.644   4.326   0.984  0.3677 -0.0463 -0.1184
 2928SOL     OW11477   0.909   3.402   5.569  0.5497 -0.1397 -0.1147
 2928SOL    HW211478   0.940   3.468   5.630  1.5379 -0.9897  0.3445
 2928SOL    HW311479   0.814   3.405   5.575  0.6292  0.1282  1.0937
 2928SOL    MW411480   0.900   3.411   5.578  0.6905 -0.2165  0.1053
 2929SOL     OW11481   5.714   5.012   4.309 -0.4660 -0.1145 -0.0044
 2929SOL    HW211482   5.657   4.937   4.325  0.9151 -1.0807  0.5889
 2929SOL    HW311483   5.801   4.974   4.299 -0.0284  1.2404 -1.7098
 2929SOL    MW411484   5.718   4.997   4.310 -0.2260 -0.0632 -0.1511
 2930SOL     OW11485   6.175   5.560   5.451  0.5205 -0.0941  0.6832
 2930SOL    HW211486   6.174   5.623   5.379  0.4389 -0.9659 -0.1113
 2930SOL    HW311487   6.180   5.474   5.407 -0.1787 -0.6777  1.6981
 2930SOL    MW411488   6.175   5.557   5.435  0.4174 -0.2861  0.7122
 2931SOL     OW11489   5.554   1.405   0.315  0.4924 -0.0485 -0.0591
 2931SOL    HW211490   5.494   1.477   0.297  0.9569  0.0068 -1.5211
 2931SOL    HW311491   5.579   1.417   0.407 -1.1295  0.3567  0.3591
 2931SOL    MW411492   5.549   1.416   0.325  0.3397  0.0122 -0.1968
 2932SOL     OW11493   5.535   6.392   5.713 -0.8394  0.3324 -0.9334
 2932SOL    HW211494   5.609   6.334   5.730 -1.1423  0.6459  1.9305
 2932SOL    HW311495   5.575   6.478   5.698 -0.5561  0.7908  1.9535
 2932SOL    MW411496   5.550   6.396   5.713 -0.8420  0.4342 -0.1747
 2933SOL     OW11497   4.459   2.790   5.499  0.2045 -0.3827 -0.3904
 2933SOL    HW211498   4.419   2.854   5.440  0.3297 -0.7758 -0.9059
 2933SOL    HW311499   4.392   2.723   5.511  1.2081 -1.9186 -2.5911
 2933SOL    MW411500   4.445   2.790   5.493  0.3534 -0.6372 -0.7488
 2934SOL     OW11501   4.617   1.520   2.727  0.0636  0.0920  0.3145
 2934SOL    HW211502   4.543   1.463   2.704  1.3219 -1.5020  0.0978
 2934SOL    HW311503   4.587   1.567   2.805 -0.6889 -1.5889  1.0987
 2934SOL    MW411504   4.603   1.519   2.734  0.1303 -0.3401  0.3893
 2935SOL     OW11505   3.397   2.539   3.433 -0.1082  0.2892  0.1034
 2935SOL    HW211506   3.369   2.501   3.517 -1.8698  1.0247 -0.1053
 2935SOL    HW311507   3.342   2.495   3.368 -0.5050  1.4722 -0.3860
 2935SOL    MW411508   3.386   2.528   3.436 -0.3930  0.5424  0.0112
 2936SOL     OW11509   1.177   3.327   4.818  0.3194 -0.2207 -0.1478
 2936SOL    HW211510   1.146   3.337   4.908 -1.7693  0.1061 -0.8451
 2936SOL    HW311511   1.161   3.235   4.797  1.4353 -0.4632  0.0090
 2936SOL    MW411512   1.171   3.316   4.827  0.1911 -0.2096 -0.2191
 2937SOL     OW11513   2.176   3.088   5.663 -0.4453 -0.1517  0.1406
 2937SOL    HW211514   2.270   3.069   5.663 -0.0798  1.5271  0.3612
 2937SOL    HW311515   2.140   3.030   5.730  0.5426 -0.3010  0.5646
 2937SOL    MW411516   2.184   3.078   5.672 -0.2667  0.0501  0.2256
 2938SOL     OW11517   3.461   5.823   0.090  0.0898  0.2318 -0.0889
 2938SOL    HW211518   3.414   5.822   0.173  0.0920  0.0330 -0.0894
 2938SOL    HW311519   3.413   5.885   0.036 -0.4956 -0.3642 -0.2718
 2938SOL    MW411520   3.448   5.831   0.093  0.0128  0.1269 -0.1131
 2939SOL     OW11521   0.486   1.374   0.251  0.0931 -0.4052 -0.5969
 2939SOL    HW211522   0.566   1.409   0.209 -1.7537  0.5794 -3.6465
 2939SOL    HW311523   0.494   1.279   0.241  0.3170 -0.2601 -2.1615
 2939SOL    MW411524   0.498   1.366   0.244 -0.1210 -0.2561 -1.2057
 2940SOL     OW11525   3.594   3.526   0.094  0.1641 -0.5144 -0.0051
 2940SOL    HW211526   3.504   3.531   0.063  0.4548 -0.2407 -0.8314
 2940SOL    HW311527   3.609   3.433   0.109 -0.9347 -0.3746  2.2462
 2940SOL    MW411528   3.584   3.514   0.092  0.0575 -0.4598  0.1829
 2941SOL     OW11529   3.345   2.753   0.443 -0.5800  0.4076 -0.1170
 2941SOL    HW211530   3.312   2.799   0.366 -1.4435  0.8444  0.5044
 2941SOL    HW311531   3.273   2.756   0.506  0.1073  0.0398  0.7073
 2941SOL    MW411532   3.331   2.759   0.441 -0.6032  0.4167  0.0738
 2942SOL     OW11533   0.902   4.856   1.984  0.2241 -0.7023  0.3238
 2942SOL    HW211534   0.917   4.841   2.078 -0.5831  1.1466  0.7836
 2942SOL    HW311535   0.873   4.771   1.951 -0.8740 -1.0588  2.0681
 2942SOL    MW411536   0.900   4.843   1.992 -0.0273 -0.5054  0.6146
 2943SOL     OW11537   3.000   6.028   0.786 -0.7368  0.1162 -0.1544
 2943SOL    HW211538   3.004   6.080   0.867  2.3079  0.7429 -0.6053
 2943SOL    HW311539   2.908   6.003   0.779 -1.2417  0.5765  3.1466
 2943SOL    MW411540   2.988   6.032   0.796 -0.4017  0.2596  0.2217
 2944SOL     OW11541   2.262   3.296   3.119 -0.3137  0.4945 -0.4354
 2944SOL    HW211542   2.193   3.253   3.068  0.2442 -0.6636 -0.2455
 2944SOL    HW311543   2.344   3.267   3.080  0.2026 -1.6427  1.9361
 2944SOL    MW411544   2.264   3.286   3.107 -0.1720  0.0597 -0.0974
 2945SOL     OW11545   4.302   4.788   4.913 -0.2376 -0.1649 -0.2025
 2945SOL    HW211546   4.332   4.833   4.834  2.8380 -0.4084  0.6882
 2945SOL    HW311547   4.336   4.699   4.904 -0.7202 -0.4818  0.9458
 2945SOL    MW411548   4.310   4.782   4.901  0.1045 -0.2389  0.0665
 2946SOL     OW11549   5.865   4.890   3.051  0.3064 -1.1794 -0.6006
 2946SOL    HW211550   5.945   4.860   3.094  0.5439 -1.2732 -1.1059
 2946SOL    HW311551   5.807   4.914   3.124  1.1107 -0.2718 -0.2216
 2946SOL    MW411552   5.868   4.889   3.067  0.4438 -1.0720 -0.6173
 2947SOL     OW11553   3.267   3.282   4.018 -0.5479  0.3017 -0.0549
 2947SOL    HW211554   3.244   3.357   3.963 -0.8417 -1.1572 -2.0598
 2947SOL    HW311555   3.186   3.232   4.025 -0.2074 -0.1621  0.6799
 2947SOL    MW411556   3.253   3.285   4.011 -0.5418  0.0480 -0.2225
 2948SOL     OW11557   0.296   3.281   4.832  0.1393  0.2276  0.2243
 2948SOL    HW211558   0.295   3.355   4.892 -1.6161  0.0819  0.4173
 2948SOL    HW311559   0.316   3.206   4.887 -0.4869  0.2267  0.4503
 2948SOL    MW411560   0.299   3.281   4.847 -0.1749  0.2083  0.2796
 2949SOL     OW11561   4.326   3.990   5.120 -0.3234 -0.1682  0.1170
 2949SOL    HW211562   4.397   4.054   5.126 -0.4516  0.0900 -0.9581
 2949SOL    HW311563   4.247   4.042   5.103 -0.3102 -0.6148 -1.5477
 2949SOL    MW411564   4.325   4.005   5.118 -0.3385 -0.1931 -0.2445
 2950SOL     OW11565   0.486   5.876   2.860  0.6729  0.3168 -0.2713
 2950SOL    HW211566   0.554   5.914   2.805  0.8020  1.2392  0.4986
 2950SOL    HW311567   0.419   5.945   2.867  1.3423  0.8226  1.9071
 2950SOL    MW411568   0.486   5.890   2.854  0.7783  0.5052  0.1177
 2951SOL     OW11569   1.728   0.428   4.493 -0.0656 -0.7191 -0.3381
 2951SOL    HW211570   1.753   0.431   4.585  0.3612 -1.3498 -0.4307
 2951SOL    HW311571   1.695   0.339   4.479 -0.4527 -0.5229 -0.7111
 2951SOL    MW411572   1.727   0.417   4.503 -0.0603 -0.7764 -0.3995
 2952SOL     OW11573   2.393   0.702   1.734  0.6064 -0.4862  0.1041
 2952SOL    HW211574   2.438   0.741   1.809  0.3432  0.4757 -0.2223
 2952SOL    HW311575   2.416   0.758   1.661 -0.2530 -0.6165 -0.2747
 2952SOL    MW411576   2.402   0.714   1.734  0.4582 -0.3765  0.0110
 2953SOL     OW11577   4.191   4.958   0.850 -0.4834  0.1056  0.3086
 2953SOL    HW211578   4.282   4.939   0.872 -0.2569  0.4951 -0.2410
 2953SOL    HW311579   4.197   5.023   0.779 -1.2017  1.6790  1.6139
 2953SOL    MW411580   4.203   4.964   0.843 -0.5483  0.3646  0.4083
 2954SOL     OW11581   0.814   2.448   5.696  0.0145 -0.0137 -0.0071
 2954SOL    HW211582   0.776   2.488   5.774  0.0754 -0.1427  0.0897
 2954SOL    HW311583   0.898   2.413   5.725  0.2082  0.2699 -0.2216
 2954SOL    MW411584   0.820   2.448   5.710  0.0481  0.0067 -0.0226
 2955SOL     OW11585   0.304   0.089   4.010 -0.0716 -0.0566 -0.1077
 2955SOL    HW211586   0.270   0.036   4.082  0.1535  0.6603  0.5337
 2955SOL    HW311587   0.326   0.025   3.942 -2.1670 -0.5882 -0.3445
 2955SOL    MW411588   0.303   0.073   4.010 -0.3184 -0.0321 -0.0543
 2956SOL     OW11589   2.933   0.362   4.879 -0.4007 -0.0075  0.4322
 2956SOL    HW211590   2.889   0.278   4.893  1.6185 -0.9194  1.7969
 2956SOL    HW311591   2.964   0.387   4.966  1.4480  0.7284 -0.3922
 2956SOL    MW411592   2.931   0.354   4.892  0.1096 -0.0307  0.5035
 2957SOL     OW11593   5.380   3.876   0.458 -0.3920 -0.4457 -0.5108
 2957SOL    HW211594   5.316   3.813   0.424 -0.9054 -0.5647  0.6183
 2957SOL    HW311595   5.365   3.876   0.552  0.2715  0.6547 -0.3922
 2957SOL    MW411596   5.370   3.867   0.466 -0.3722 -0.3162 -0.3462
 2958SOL     OW11597   1.503   3.129   2.691 -0.3136 -0.4843 -0.2754
 2958SOL    HW211598   1.547   3.182   2.757 -0.4770 -0.2590 -0.3445
 2958SOL    HW311599   1.410   3.141   2.709 -0.3415 -1.2335  0.0893
 2958SOL    MW411600   1.496   3.138   2.702 -0.3388 -0.5534 -0.2364
 2959SOL     OW11601   6.214   4.554   0.832  0.4236 -0.4725 -0.1307
 2959SOL    HW211602   6.135   4.609   0.830 -0.1365 -1.2697 -0.9153
 2959SOL    HW311603   6.284   4.611   0.799 -0.2496 -0.3589 -1.4315
 2959SOL    MW411604   6.213   4.569   0.827  0.2608 -0.5627 -0.4058
 2960SOL     OW11605   3.841   5.915   2.055  0.1964 -0.0379  0.1350
 2960SOL    HW211606   3.760   5.935   2.101  0.8038 -1.0630  1.7206
 2960SOL    HW311607   3.907   5.906   2.124  1.5972  0.4183 -1.0866
 2960SOL    MW411608   3.839   5.916   2.070  0.4613 -0.1129  0.1831
 2961SOL     OW11609   0.347   3.858   1.200 -0.1247  0.2328  0.3413
 2961SOL    HW211610   0.408   3.787   1.220 -2.0065 -1.8352 -0.8504
 2961SOL    HW311611   0.360   3.920   1.272  2.5662 -0.5959  0.7059
 2961SOL    MW411612   0.357   3.857   1.212 -0.0180 -0.1494  0.2322
 2962SOL     OW11613   5.963   3.806   4.794  0.0518  0.2244 -0.2577
 2962SOL    HW211614   5.935   3.874   4.855  1.5345  1.1838 -0.5912
 2962SOL    HW311615   5.886   3.749   4.785 -1.7223  2.5602 -0.9703
 2962SOL    MW411616   5.949   3.807   4.801  0.0134  0.6591 -0.3957
 2963SOL     OW11617   4.676   3.334   6.173  0.3407  0.0426  0.4867
 2963SOL    HW211618   4.716   3.275   6.237  0.1137 -0.4156  0.2153
 2963SOL    HW311619   4.611   3.383   6.222 -0.1710 -0.6505  0.5127
 2963SOL    MW411620   4.673   3.332   6.188  0.2433 -0.1093  0.4543
 2964SOL     OW11621   6.338   0.429   1.974  0.4955 -0.1894 -0.7448
 2964SOL    HW211622   6.361   0.348   1.928 -1.1984 -0.6846 -0.7819
 2964SOL    HW311623   6.261   0.406   2.025  0.4455  1.2160 -0.1554
 2964SOL    MW411624   6.331   0.416   1.975  0.2654 -0.0693 -0.6720
 2965SOL     OW11625   4.140   0.327   2.728 -0.0818  0.0274  0.1946
 2965SOL    HW211626   4.217   0.351   2.677  0.1510 -1.3251 -0.1388
 2965SOL    HW311627   4.169   0.334   2.819 -0.3336  1.9010  0.1639
 2965SOL    MW411628   4.154   0.331   2.734 -0.0843  0.0962  0.1466
 2966SOL     OW11629   2.980   3.314   4.599  0.2317 -0.3045 -0.3406
 2966SOL    HW211630   2.966   3.229   4.558 -0.7060 -0.7496  0.8396
 2966SOL    HW311631   2.907   3.323   4.660  1.1163  0.6965  0.6068
 2966SOL    MW411632   2.968   3.304   4.602  0.2247 -0.2312 -0.0599
 2967SOL     OW11633   3.593   2.703   4.879 -0.1948 -0.3429 -0.0831
 2967SOL    HW211634   3.607   2.703   4.784 -1.2757 -3.2370 -0.3201
 2967SOL    HW311635   3.516   2.759   4.891 -0.3624 -0.3597 -0.9735
 2967SOL    MW411636   3.585   2.711   4.868 -0.3595 -0.7270 -0.2318
 2968SOL     OW11637   5.982   4.465   4.029 -0.3871  0.2743 -0.6346
 2968SOL    HW211638   6.057   4.406   4.027  0.1991  1.0284 -1.4532
 2968SOL    HW311639   5.927   4.431   4.100  0.2677 -0.8343 -0.6361
 2968SOL    MW411640   5.985   4.453   4.038 -0.2234  0.2275 -0.7428
 2969SOL     OW11641   6.225   5.823   1.915 -0.0425 -0.4031  0.1282
 2969SOL    HW211642   6.143   5.857   1.879 -0.7204  0.0673  2.0219
 2969SOL    HW311643   6.209   5.815   2.009  1.9255 -0.7981  0.4732
 2969SOL    MW411644   6.212   5.826   1.922  0.1277 -0.3932  0.4236
 2970SOL     OW11645   0.694   6.408   4.710  0.0294  0.0410 -0.1313
 2970SOL    HW211646   0.622   6.367   4.757  0.5820 -1.0494 -0.1966
 2970SOL    HW311647   0.732   6.469   4.773 -2.0356  2.0341 -0.6652
 2970SOL    MW411648   0.690   6.411   4.724 -0.1702  0.1601 -0.2103
 2971SOL     OW11649   1.544   1.290   2.344 -0.0288  0.0600 -0.1218
 2971SOL    HW211650   1.487   1.223   2.380  1.5658  0.0063  2.5787
 2971SOL    HW311651   1.632   1.264   2.370  1.0590  1.2276 -2.3302
 2971SOL    MW411652   1.548   1.278   2.352  0.3251  0.2070 -0.0569
 2972SOL     OW11653   6.053   4.158   2.993  0.2363  0.1382 -0.1908
 2972SOL    HW211654   6.035   4.165   2.899 -0.9747  0.4469  0.0486
 2972SOL    HW311655   6.139   4.198   3.004  0.3177  0.2492 -1.1414
 2972SOL    MW411656   6.062   4.164   2.982  0.0873  0.1936 -0.2846
 2973SOL     OW11657   6.309   5.056   4.711 -0.0590  0.4279 -0.2944
 2973SOL    HW211658   6.274   4.995   4.775 -0.0589 -0.8147 -1.4399
 2973SOL    HW311659   6.317   5.139   4.759  2.2711 -0.9831  2.0288
 2973SOL    MW411660   6.306   5.059   4.726  0.2485  0.0778 -0.1390
 2974SOL     OW11661   4.456   5.364   0.912  0.6188  0.2614  0.1909
 2974SOL    HW211662   4.532   5.405   0.871  0.0459 -0.9521 -2.2841
 2974SOL    HW311663   4.405   5.437   0.947  0.6581  1.5870 -2.2502
 2974SOL    MW411664   4.459   5.379   0.911  0.5484  0.2762 -0.4577
 2975SOL     OW11665   4.990   5.064   4.502 -0.5352 -0.5256  0.5202
 2975SOL    HW211666   4.975   5.002   4.574 -0.0958 -0.2975  0.8115
 2975SOL    HW311667   5.047   5.017   4.442  2.3365  0.5773  2.1648
 2975SOL    MW411668   4.996   5.050   4.504 -0.0983 -0.3500  0.7756
 2976SOL     OW11669   5.303   3.059   2.847 -0.2194  0.2857  0.0874
 2976SOL    HW211670   5.359   2.988   2.879  0.8443  0.6711 -0.8481
 2976SOL    HW311671   5.218   3.043   2.888  0.9340  0.5176  2.7486
 2976SOL    MW411672   5.299   3.048   2.856  0.0731  0.3672  0.3151
 2977SOL     OW11673   4.703   5.794   2.188 -0.1739  0.1400 -0.3182
 2977SOL    HW211674   4.686   5.744   2.268 -0.5921  1.2737  0.3383
 2977SOL    HW311675   4.688   5.885   2.214 -0.4231  0.5266 -1.7286
 2977SOL    MW411676   4.699   5.800   2.202 -0.2619  0.3406 -0.4176
 2978SOL     OW11677   3.450   5.972   2.664  0.1687  0.0417 -0.5801
 2978SOL    HW211678   3.463   6.064   2.686  0.8885 -0.2651  0.3571
 2978SOL    HW311679   3.515   5.954   2.596  2.1579 -0.4956  1.3472
 2978SOL    MW411680   3.461   5.981   2.658  0.5261 -0.0697 -0.2022
 2979SOL     OW11681   2.439   1.358   5.391 -0.3600  0.4104 -0.2535
 2979SOL    HW211682   2.480   1.294   5.332 -1.7482 -2.0796  1.2862
 2979SOL    HW311683   2.351   1.369   5.356 -1.1388 -0.9582  1.1633
 2979SOL    MW411684   2.433   1.351   5.379 -0.6459 -0.0987  0.1365
 2980SOL     OW11685   1.510   1.117   3.801  0.0176  0.1113  0.1556
 2980SOL    HW211686   1.546   1.132   3.888  0.3442  1.3279 -0.1734
 2980SOL    HW311687   1.443   1.049   3.814 -0.4308  0.7690  1.4726
 2980SOL    MW411688   1.506   1.110   3.814  0.0015  0.3586  0.2859
 2981SOL     OW11689   3.869   5.502   2.958  0.5485 -0.1647 -0.9765
 2981SOL    HW211690   3.939   5.493   3.023 -0.5461 -0.6356  0.1913
 2981SOL    HW311691   3.818   5.421   2.967 -0.4081  0.3687 -1.4705
 2981SOL    MW411692   3.872   5.490   2.968  0.2779 -0.1565 -0.8876
 2982SOL     OW11693   1.320   5.785   2.332  0.1179  0.3841 -0.0290
 2982SOL    HW211694   1.323   5.836   2.413  0.8457  0.5400 -0.1446
 2982SOL    HW311695   1.376   5.833   2.271 -0.5437  0.3500 -0.6773
 2982SOL    MW411696   1.328   5.798   2.334  0.1266  0.4002 -0.1298
 2983SOL     OW11697   5.502   1.844   2.401  0.7004  0.0683  0.1172
 2983SOL    HW211698   5.505   1.749   2.393  1.9867  0.1136 -0.2163
 2983SOL    HW311699   5.571   1.875   2.342 -1.3517  1.3597 -1.7574
 2983SOL    MW411700   5.512   1.836   2.393  0.5994  0.2446 -0.1741
 2984SOL     OW11701   6.254   2.769   2.650  0.0422 -0.3193 -0.1458
 2984SOL    HW211702   6.285   2.747   2.563  1.5754 -2.9761  0.9614
 2984SOL    HW311703   6.196   2.844   2.637  1.9542  0.7891 -3.1295
 2984SOL    MW411704   6.250   2.776   2.637  0.4967 -0.5235 -0.3934
 2985SOL     OW11705   1.382   4.956   5.112  0.5718 -0.1633 -0.2807
 2985SOL    HW211706   1.403   4.863   5.118 -0.2812 -0.3352  0.2366
 2985SOL    HW311707   1.349   4.968   5.023  1.4057 -0.1884 -0.6046
 2985SOL    MW411708   1.381   4.946   5.101  0.5693 -0.1893 -0.2551
 2986SOL     OW11709   3.997   6.380   4.439 -0.7273  0.2326  0.2902
 2986SOL    HW211710   4.058   6.419   4.502 -1.5935  1.0337  0.6471
 2986SOL    HW311711   3.913   6.380   4.483 -1.0764 -0.5354 -0.3399
 2986SOL    MW411712   3.994   6.385   4.453 -0.8876  0.2370  0.2542
 2987SOL     OW11713   5.377   4.940   6.374  0.4127  0.3389 -0.2841
 2987SOL    HW211714   5.454   4.992   6.352 -0.0711  1.1615 -0.0793
 2987SOL    HW311715   5.321   4.946   6.297  1.0422 -1.2261 -0.8979
 2987SOL    MW411716   5.380   4.948   6.361  0.4320  0.2410 -0.3381
 2988SOL     OW11717   4.403   3.203   2.740 -0.5771  0.3883 -0.4185
 2988SOL    HW211718   4.414   3.264   2.668  1.5453 -1.3927 -1.7632
 2988SOL    HW311719   4.358   3.128   2.702 -1.7144  0.4377  0.7774
 2988SOL    MW411720   4.399   3.201   2.725 -0.4471  0.1599 -0.4382
 2989SOL     OW11721   0.970   0.391   2.008  0.0625  0.0298  0.0496
 2989SOL    HW211722   0.963   0.395   2.103 -0.5577  0.5851 -0.0093
 2989SOL    HW311723   0.888   0.429   1.977 -0.7450 -2.2258 -0.7109
 2989SOL    MW411724   0.958   0.397   2.016 -0.1259 -0.1945 -0.0585
 2990SOL     OW11725   1.149   6.321   5.543 -0.0996  0.0519 -0.7190
 2990SOL    HW211726   1.137   6.234   5.581  0.5328  0.1704 -0.2309
 2990SOL    HW311727   1.187   6.373   5.614 -1.0407  0.8995 -0.8079
 2990SOL    MW411728   1.152   6.317   5.557 -0.1403  0.1793 -0.6664
 2991SOL     OW11729   4.511   2.071   0.075 -0.2285  0.3978 -0.5658
 2991SOL    HW211730   4.528   2.163   0.097 -2.0292  0.6626 -0.1466
 2991SOL    HW311731   4.449   2.075   0.002 -1.0233 -0.4652  0.0421
 2991SOL    MW411732   4.505   2.084   0.068 -0.5709  0.3188 -0.4303
 2992SOL     OW11733   5.063   4.299   1.400  0.3121 -0.1092 -0.3041
 2992SOL    HW211734   4.996   4.283   1.468  0.9713 -0.6188  0.2373
 2992SOL    HW311735   5.057   4.393   1.383 -0.9289 -0.2370 -0.6721
 2992SOL    MW411736   5.053   4.309   1.407  0.2354 -0.1933 -0.2812
 2993SOL     OW11737   2.989   2.471   2.310  0.1291 -0.1212  0.0144
 2993SOL    HW211738   2.932   2.408   2.266  0.3294 -0.1610 -0.1894
 2993SOL    HW311739   2.953   2.479   2.398  1.1109 -1.8377  0.6150
 2993SOL    MW411740   2.977   2.464   2.316  0.2851 -0.3530  0.0667
 2994SOL     OW11741   1.681   1.985   2.795  0.1358 -0.0933  0.1872
 2994SOL    HW211742   1.663   2.046   2.723 -0.9041 -0.4578  0.1200
 2994SOL    HW311743   1.768   2.011   2.827  0.7263 -0.0589 -1.3311
 2994SOL    MW411744   1.690   1.997   2.789  0.0765 -0.1369 -0.0220
 2995SOL     OW11745   5.826   1.942   6.377 -0.2785  0.4325 -0.2934
 2995SOL    HW211746   5.863   2.019   6.420  2.5294 -1.5723  1.2080
 2995SOL    HW311747   5.902   1.886   6.359 -2.3365 -2.9993  0.7775
 2995SOL    MW411748   5.841   1.945   6.380 -0.1796 -0.2848  0.0460
 2996SOL     OW11749   0.901   5.156   3.724  0.9211 -0.2293 -0.0345
 2996SOL    HW211750   0.906   5.200   3.639  1.1991 -0.7544 -0.2933
 2996SOL    HW311751   0.825   5.195   3.767  0.4262 -0.3752 -0.7616
 2996SOL    MW411752   0.891   5.167   3.718  0.8925 -0.3178 -0.1646
 2997SOL     OW11753   1.179   5.886   3.588 -0.3874  0.7622 -0.1305
 2997SOL    HW211754   1.201   5.979   3.578 -0.5358  0.8317  0.1796
 2997SOL    HW311755   1.086   5.881   3.565 -0.1051  0.5006 -1.2545
 2997SOL    MW411756   1.170   5.897   3.584 -0.3698  0.7369 -0.2379
 2998SOL     OW11757   2.787   2.963   3.667  0.3791  0.3697  0.2152
 2998SOL    HW211758   2.878   2.952   3.639  0.4794  1.0276  0.2694
 2998SOL    HW311759   2.771   3.057   3.661 -0.2617  0.2741  0.3263
 2998SOL    MW411760   2.797   2.974   3.663  0.3078  0.4439  0.2370
 2999SOL     OW11761   4.109   1.106   1.279  0.1295  0.5511  0.4899
 2999SOL    HW211762   4.139   1.181   1.331  1.0434  0.9751 -0.5939
 2999SOL    HW311763   4.013   1.116   1.276  0.0042  0.2587  2.4200
 2999SOL    MW411764   4.100   1.117   1.285  0.2336  0.5685  0.6015
 3000SOL     OW11765   1.507   2.059   2.378  0.3431  0.5383 -0.3691
 3000SOL    HW211766   1.482   1.993   2.443  1.3010  0.9155  0.3961
 3000SOL    HW311767   1.468   2.140   2.410 -0.9551  0.3470 -1.3845
 3000SOL    MW411768   1.498   2.061   2.391  0.2982  0.5628 -0.4021
 3001SOL     OW11769   3.836   1.408   3.092  0.1645 -0.0765  0.8650
 3001SOL    HW211770   3.874   1.385   3.007  1.5444  1.0078  1.1519
 3001SOL    HW311771   3.911   1.417   3.150 -0.5533  1.5487  1.6103
 3001SOL    MW411772   3.851   1.406   3.088  0.2518  0.2810  1.0012
 3002SOL     OW11773   4.072   5.021   3.784 -0.4667 -0.6655  0.2936
 3002SOL    HW211774   4.087   4.942   3.732  0.6237 -0.7475  0.7055
 3002SOL    HW311775   4.020   5.078   3.727  0.0511 -1.0571 -0.5867
 3002SOL    MW411776   4.067   5.018   3.770 -0.2545 -0.7280  0.2318
 3003SOL     OW11777   3.063   1.374   0.386 -0.1495  0.1702 -0.2341
 3003SOL    HW211778   3.046   1.280   0.381  0.0705  0.1761 -1.4695
 3003SOL    HW311779   3.144   1.386   0.337 -0.6481  1.1191 -0.8496
 3003SOL    MW411780   3.071   1.363   0.379 -0.1863  0.2962 -0.4783
 3004SOL     OW11781   5.546   1.313   2.805  0.7154 -0.2420 -0.0073
 3004SOL    HW211782   5.460   1.279   2.781  0.5367 -0.4210  0.8388
 3004SOL    HW311783   5.546   1.404   2.773 -0.1104  0.0243  0.7059
 3004SOL    MW411784   5.535   1.321   2.798  0.5829 -0.2305  0.1984
 3005SOL     OW11785   5.763   3.797   2.979  0.2134  0.2939 -0.5328
 3005SOL    HW211786   5.770   3.889   2.952  2.3885  0.6284  0.9741
 3005SOL    HW311787   5.787   3.747   2.901 -0.3730  0.9881 -1.1792
 3005SOL    MW411788   5.767   3.803   2.965  0.4230  0.4296 -0.4193
 3006SOL     OW11789   6.400   4.764   1.738  0.3222  0.3369 -0.3152
 3006SOL    HW211790   6.491   4.751   1.711 -0.4056  0.1080 -2.8230
 3006SOL    HW311791   6.396   4.856   1.765  1.3918  0.2001  0.4226
 3006SOL    MW411792   6.412   4.774   1.738  0.3673  0.2887 -0.5487
 3007SOL     OW11793   2.661   2.809   3.421 -0.1884  0.3660 -0.0002
 3007SOL    HW211794   2.716   2.731   3.411  1.1666  1.5454 -2.9884
 3007SOL    HW311795   2.692   2.850   3.502 -0.3860 -1.7085  1.1927
 3007SOL    MW411796   2.672   2.804   3.431 -0.0357  0.2479 -0.2371
 3008SOL     OW11797   0.458   5.499   2.872 -0.2393  0.0971 -0.2070
 3008SOL    HW211798   0.406   5.503   2.952 -0.2399  0.6184 -0.2328
 3008SOL    HW311799   0.407   5.547   2.807 -0.3377 -0.5019 -0.5824
 3008SOL    MW411800   0.445   5.506   2.874 -0.2523  0.0868 -0.2599
 3009SOL     OW11801   1.395   0.484   2.811  0.3508 -0.0913 -0.0995
 3009SOL    HW211802   1.352   0.399   2.818  1.0081 -0.4609 -0.4018
 3009SOL    HW311803   1.325   0.546   2.796 -0.3438 -0.3299  1.8359
 3009SOL    MW411804   1.380   0.481   2.810  0.3458 -0.1716  0.1160
 3010SOL     OW11805   5.419   1.435   0.800  0.3639  0.3257  0.3983
 3010SOL    HW211806   5.345   1.375   0.789  0.3138  0.6484 -1.2235
 3010SOL    HW311807   5.396   1.488   0.876 -0.7288 -0.0594  0.3552
 3010SOL    MW411808   5.406   1.434   0.808  0.2131  0.3175  0.1786
 3011SOL     OW11809   0.328   6.047   0.147 -0.1145 -0.4924 -0.4579
 3011SOL    HW211810   0.414   6.014   0.121  0.4489  0.5723  0.0048
 3011SOL    HW311811   0.343   6.088   0.233 -1.0948 -0.3655 -0.3420
 3011SOL    MW411812   0.341   6.048   0.155 -0.1695 -0.3352 -0.3816
 3012SOL     OW11813   2.934   4.507   2.281 -0.4284  0.7469 -0.0840
 3012SOL    HW211814   2.842   4.504   2.258 -1.0168  0.8982  2.0391
 3012SOL    HW311815   2.980   4.479   2.202 -2.2695  0.8189 -1.2175
 3012SOL    MW411816   2.928   4.503   2.268 -0.7489  0.7763  0.0466
 3013SOL     OW11817   2.978   4.621   3.283 -0.0572 -0.0508  0.5534
 3013SOL    HW211818   2.888   4.627   3.313  0.0245  0.9170  0.6336
 3013SOL    HW311819   2.985   4.686   3.213  0.1647 -1.2085 -0.5370
 3013SOL    MW411820   2.967   4.630   3.278 -0.0171 -0.0758  0.4201
 3014SOL     OW11821   0.931   3.697   6.320 -0.1803  0.1220  0.7764
 3014SOL    HW211822   0.963   3.701   6.230  1.5218 -0.2447  1.3389
 3014SOL    HW311823   0.904   3.787   6.340  1.5909  0.7145  0.6427
 3014SOL    MW411824   0.932   3.709   6.311  0.2780  0.1518  0.8330
 3015SOL     OW11825   3.730   5.485   1.668  0.0357  0.4606  0.1782
 3015SOL    HW211826   3.663   5.545   1.698 -0.6565 -0.2865  0.1786
 3015SOL    HW311827   3.717   5.406   1.720 -0.1326 -0.2703 -0.9247
 3015SOL    MW411828   3.719   5.482   1.679 -0.0778  0.2656  0.0328
 3016SOL     OW11829   1.842   4.509   5.086 -0.0973 -0.2613 -0.5871
 3016SOL    HW211830   1.843   4.511   5.182  2.1801  1.0138 -0.5528
 3016SOL    HW311831   1.785   4.436   5.064  0.1646 -1.2650  1.7587
 3016SOL    MW411832   1.835   4.500   5.096  0.2378 -0.2255 -0.2731
 3017SOL     OW11833   1.528   3.282   4.295  0.2366  0.2939  0.5896
 3017SOL    HW211834   1.498   3.343   4.362 -0.3080 -0.2317  0.8346
 3017SOL    HW311835   1.567   3.210   4.345  0.8860  0.4366  0.3036
 3017SOL    MW411836   1.529   3.280   4.310  0.2504  0.2434  0.5842
 3018SOL     OW11837   5.829   4.066   3.207 -0.0949 -0.6255 -0.0600
 3018SOL    HW211838   5.896   4.032   3.267  0.1771  0.2156  0.1233
 3018SOL    HW311839   5.863   4.049   3.120  0.0037 -0.8910  0.0305
 3018SOL    MW411840   5.842   4.059   3.204 -0.0460 -0.5495 -0.0239
 3019SOL     OW11841   6.380   4.810   3.517  0.2755  0.7455  0.8118
 3019SOL    HW211842   6.433   4.858   3.581  0.9812 -1.1093  1.7126
 3019SOL    HW311843   6.339   4.740   3.568 -1.1955  0.7466 -0.3258
 3019SOL    MW411844   6.382   4.807   3.532  0.1745  0.5010  0.7805
 3020SOL     OW11845   0.985   2.418   2.788 -0.3200  0.4532 -0.2071
 3020SOL    HW211846   1.005   2.366   2.866 -1.7148  0.6551  0.3150
 3020SOL    HW311847   1.025   2.503   2.804  0.2210  0.1881 -0.1462
 3020SOL    MW411848   0.993   2.422   2.800 -0.4327  0.4449 -0.1302
 3021SOL     OW11849   0.516   1.764   0.291 -0.0601  0.0294  0.2754
 3021SOL    HW211850   0.558   1.753   0.205  0.7119  0.8190  0.5379
 3021SOL    HW311851   0.472   1.848   0.285  0.6863  0.4780  0.9215
 3021SOL    MW411852   0.516   1.774   0.279  0.1403  0.1927  0.3953
 3022SOL     OW11853   6.037   5.527   2.377  0.0124 -0.4624  0.2127
 3022SOL    HW211854   5.989   5.605   2.352  0.4104 -0.6456 -1.2147
 3022SOL    HW311855   5.971   5.458   2.384 -0.2898 -0.0883  1.1162
 3022SOL    MW411856   6.022   5.528   2.375  0.0251 -0.4372  0.1436
 3023SOL     OW11857   3.837   1.035   3.844  0.6792  0.3470 -0.4683
 3023SOL    HW211858   3.769   1.080   3.794  0.5029  0.1196 -0.4303
 3023SOL    HW311859   3.807   1.038   3.935 -0.1752 -1.3468 -0.6644
 3023SOL    MW411860   3.824   1.042   3.849  0.5432  0.0935 -0.4892
 3024SOL     OW11861   2.949   0.706   1.047  0.1759 -0.3067  0.0632
 3024SOL    HW211862   2.903   0.780   1.006  1.2669  0.7324  0.6668
 3024SOL    HW311863   2.882   0.637   1.052 -1.2237  1.0212  0.5701
 3024SOL    MW411864   2.934   0.707   1.042  0.1352  0.0056  0.2097
 3025SOL     OW11865   4.806   1.212   3.286  0.2700  0.1479 -0.4466
 3025SOL    HW211866   4.839   1.125   3.310  1.4672  0.9805  1.0622
 3025SOL    HW311867   4.713   1.209   3.310  0.4377 -0.5279  0.1653
 3025SOL    MW411868   4.798   1.200   3.293  0.4501  0.1686 -0.1668
 3026SOL     OW11869   0.036   1.035   1.196  0.2853 -0.2127 -0.5009
 3026SOL    HW211870   0.080   0.964   1.150  2.1842 -0.1914  1.1378
 3026SOL    HW311871  -0.002   0.994   1.273 -0.4565  0.1990 -0.6414
 3026SOL    MW411872   0.037   1.020   1.200  0.4380 -0.1555 -0.3032
 3027SOL     OW11873   4.059   0.696   0.051 -0.2680 -0.6295  0.1451
 3027SOL    HW211874   4.033   0.781   0.015  0.5154  0.0593  1.1394
 3027SOL    HW311875   3.976   0.653   0.072 -0.6785 -0.0659 -0.2799
 3027SOL    MW411876   4.045   0.702   0.049 -0.2188 -0.4643  0.2202
 3028SOL     OW11877   6.100   4.933   3.219  0.8382 -0.4599 -0.4695
 3028SOL    HW211878   6.193   4.916   3.232  0.8727  0.8156  1.3305
 3028SOL    HW311879   6.089   5.026   3.238 -0.6222 -0.2895 -1.8816
 3028SOL    MW411880   6.111   4.943   3.223  0.6500 -0.2692 -0.4183
 3029SOL     OW11881   1.554   2.205   2.646 -0.3177  0.5082 -0.4546
 3029SOL    HW211882   1.460   2.222   2.648 -0.7440 -1.3261  3.0155
 3029SOL    HW311883   1.594   2.285   2.678 -0.9203  0.5245  0.2854
 3029SOL    MW411884   1.547   2.218   2.651 -0.4535  0.2683  0.1008
 3030SOL     OW11885   5.037   5.738   3.537 -0.1468 -0.2539  0.3378
 3030SOL    HW211886   5.065   5.692   3.617 -0.6682 -0.9548  0.1346
 3030SOL    HW311887   5.116   5.745   3.485  0.1947  0.1808  0.9045
 3030SOL    MW411888   5.051   5.733   3.541 -0.1706 -0.2890  0.3858
 3031SOL     OW11889   1.877   3.538   5.734 -0.0784 -0.5050  0.4924
 3031SOL    HW211890   1.907   3.584   5.656  0.7638 -0.0264  1.0776
 3031SOL    HW311891   1.871   3.446   5.707  1.5923 -0.5694  0.2202
 3031SOL    MW411892   1.880   3.532   5.720  0.2532 -0.4503  0.5337
 3032SOL     OW11893   2.608   0.752   0.680  0.0484  0.6402 -0.2327
 3032SOL    HW211894   2.567   0.751   0.593  0.9292 -1.2109 -0.6664
 3032SOL    HW311895   2.702   0.759   0.663  0.5079 -2.5805  0.3490
 3032SOL    MW411896   2.615   0.753   0.666  0.2252 -0.0290 -0.2131
 3033SOL     OW11897   4.796   0.663   4.343 -0.3186 -0.2958 -0.5390
 3033SOL    HW211898   4.867   0.600   4.327 -1.1756 -1.2805 -0.5513
 3033SOL    HW311899   4.795   0.673   4.438  0.2854  0.2623 -0.5841
 3033SOL    MW411900   4.806   0.656   4.354 -0.3520 -0.3521 -0.5466
 3034SOL     OW11901   4.962   2.724   3.733 -0.0611  0.1136  0.6017
 3034SOL    HW211902   4.884   2.684   3.770 -0.6926  0.5785 -0.1966
 3034SOL    HW311903   5.020   2.738   3.807 -0.4954 -0.7749  1.1192
 3034SOL    MW411904   4.960   2.721   3.747 -0.2017  0.0577  0.5646
 3035SOL     OW11905   1.497   1.223   0.372  0.5018  0.2596  0.2787
 3035SOL    HW211906   1.591   1.228   0.393  0.6541 -0.9256 -0.0529
 3035SOL    HW311907   1.494   1.190   0.283 -0.2064 -3.7839  1.5808
 3035SOL    MW411908   1.509   1.220   0.363  0.4285 -0.4303  0.4068
 3036SOL     OW11909   6.112   0.256   6.176  0.6450  0.1234  0.0420
 3036SOL    HW211910   6.178   0.256   6.107  0.2601  1.7664 -0.3573
 3036SOL    HW311911   6.100   0.163   6.197 -0.1408 -0.5950 -2.9926
 3036SOL    MW411912   6.119   0.244   6.170  0.4905  0.2454 -0.4111
 3037SOL     OW11913   5.753   0.407   0.156  0.2588 -0.6045  0.0341
 3037SOL    HW211914   5.768   0.501   0.169  1.3823 -0.8702  0.8033
 3037SOL    HW311915   5.830   0.377   0.108 -1.2366 -0.7115 -2.4887
 3037SOL    MW411916   5.765   0.416   0.151  0.2098 -0.6537 -0.1973
 3038SOL     OW11917   5.450   0.524   0.039  0.8645  0.0607 -0.4054
 3038SOL    HW211918   5.355   0.530   0.044  0.8928 -0.2925  0.7220
 3038SOL    HW311919   5.467   0.436   0.004  0.7954 -0.3143  0.4981
 3038SOL    MW411920   5.440   0.514   0.035  0.8591 -0.0354 -0.1374
 3039SOL     OW11921   1.149   4.826   0.137 -0.4070  0.1754 -0.1585
 3039SOL    HW211922   1.063   4.798   0.104 -0.8513  0.4452  0.7386
 3039SOL    HW311923   1.176   4.897   0.078 -1.6800  1.3897  0.6695
 3039SOL    MW411924   1.141   4.832   0.125 -0.6336  0.3712  0.0691
 3040SOL     OW11925   5.612   4.931   5.464  0.1222  0.0178 -0.6889
 3040SOL    HW211926   5.518   4.934   5.480  0.5377  0.4641  2.3756
 3040SOL    HW311927   5.630   5.006   5.407 -1.4215 -0.5964 -2.0694
 3040SOL    MW411928   5.602   4.941   5.459 -0.0266 -0.0043 -0.4667
 3041SOL     OW11929   5.749   5.277   6.060 -0.6139  0.6128 -0.2557
 3041SOL    HW211930   5.830   5.247   6.102  0.2645  0.9898 -1.5935
 3041SOL    HW311931   5.700   5.197   6.043  0.1234  0.2331 -0.6713
 3041SOL    MW411932   5.753   5.263   6.063 -0.4007  0.6124 -0.4871
 3042SOL     OW11933   4.203   4.607   5.641 -0.0696  0.3761 -0.0151
 3042SOL    HW211934   4.141   4.628   5.571 -0.2472 -1.2348 -0.3858
 3042SOL    HW311935   4.148   4.579   5.714  0.1827 -0.1186 -0.0107
 3042SOL    MW411936   4.188   4.606   5.641 -0.0598  0.0983 -0.0634
 3043SOL     OW11937   4.470   4.697   6.308  0.0612 -0.4051 -0.0717
 3043SOL    HW211938   4.393   4.754   6.317 -0.5642 -1.1552 -0.5091
 3043SOL    HW311939   4.511   4.726   6.226  0.1911 -0.0731  0.1080
 3043SOL    MW411940   4.465   4.709   6.298 -0.0042 -0.4603 -0.1057
 3044SOL     OW11941   1.860   1.250   5.159 -0.4745 -0.8567 -0.6508
 3044SOL    HW211942   1.867   1.345   5.158  2.0253 -0.9367  0.7732
 3044SOL    HW311943   1.867   1.224   5.067  1.9967  0.2626 -0.8779
 3044SOL    MW411944   1.862   1.259   5.147  0.1813 -0.7196 -0.4929
 3045SOL     OW11945   0.502   4.804   1.689 -0.3051 -0.1234  0.0450
 3045SOL    HW211946   0.561   4.849   1.750 -0.7267  1.7054 -0.8127
 3045SOL    HW311947   0.520   4.844   1.604 -2.0517 -0.2077 -0.4148
 3045SOL    MW411948   0.512   4.815   1.686 -0.5912  0.1068 -0.1288
 3046SOL     OW11949   3.094   4.339   4.405  0.0664 -0.1534  0.1438
 3046SOL    HW211950   3.139   4.255   4.406 -0.3306 -0.3831 -0.4892
 3046SOL    HW311951   3.129   4.386   4.480  0.2161 -0.9218  0.5634
 3046SOL    MW411952   3.104   4.334   4.415  0.0338 -0.2851  0.1157
 3047SOL     OW11953   3.954   0.561   0.516  0.2475 -0.1290  0.2749
 3047SOL    HW211954   3.867   0.543   0.553  0.2484 -1.1020 -0.1577
 3047SOL    HW311955   4.013   0.506   0.567  0.5722  0.3185  0.3811
 3047SOL    MW411956   3.950   0.551   0.528  0.2904 -0.1983  0.2318
 3048SOL     OW11957   0.376   0.341   3.435 -0.3933 -0.3518 -0.3213
 3048SOL    HW211958   0.359   0.380   3.520  1.0983 -0.8560  0.2421
 3048SOL    HW311959   0.354   0.410   3.372 -2.3406 -0.2680  0.3986
 3048SOL    MW411960   0.371   0.355   3.438 -0.4534 -0.4073 -0.1520
 3049SOL     OW11961   5.597   5.566   2.599 -0.0128 -0.2225  0.4222
 3049SOL    HW211962   5.530   5.506   2.566  0.7450 -1.5876  1.2539
 3049SOL    HW311963   5.592   5.642   2.541 -1.1060 -1.0296 -0.5879
 3049SOL    MW411964   5.588   5.568   2.587 -0.0571 -0.5091  0.3987
 3050SOL     OW11965   1.579   4.332   1.263  0.0691  0.0074  0.2699
 3050SOL    HW211966   1.648   4.285   1.309  2.0355  0.9539 -1.5236
 3050SOL    HW311967   1.521   4.264   1.230  0.9081 -0.9291  0.6814
 3050SOL    MW411968   1.580   4.317   1.265  0.4392  0.0088  0.0876
 3051SOL     OW11969   1.244   3.291   1.209  1.1068 -0.3463 -0.4568
 3051SOL    HW211970   1.311   3.262   1.271  0.5318 -0.3829  0.1646
 3051SOL    HW311971   1.183   3.342   1.262  1.4057  0.9189 -1.2890
 3051SOL    MW411972   1.245   3.294   1.224  1.0704 -0.1842 -0.4846
 3052SOL     OW11973   4.280   3.474   3.987  0.0123 -0.1432 -0.1872
 3052SOL    HW211974   4.316   3.444   4.071 -1.0510 -1.0841 -0.0384
 3052SOL    HW311975   4.300   3.403   3.926  0.5776  0.4351 -0.6805
 3052SOL    MW411976   4.287   3.460   3.990 -0.0534 -0.1910 -0.2326
 3053SOL     OW11977   2.853   1.727   1.280 -0.3414  0.3376 -0.2942
 3053SOL    HW211978   2.900   1.664   1.334 -2.1500 -1.4734 -0.6725
 3053SOL    HW311979   2.920   1.789   1.250  1.4809 -1.2028  0.3900
 3053SOL    MW411980   2.868   1.727   1.283 -0.3396 -0.1046 -0.2539
 3054SOL     OW11981   1.408   1.341   4.789  0.1242 -0.0141 -0.4553
 3054SOL    HW211982   1.465   1.381   4.854  0.2568 -0.4269 -0.3155
 3054SOL    HW311983   1.331   1.398   4.787 -0.0853 -0.2558  0.3940
 3054SOL    MW411984   1.405   1.354   4.797  0.1140 -0.1004 -0.3248
 3055SOL     OW11985   4.438   0.364   1.755 -0.7189 -0.0020  0.2665
 3055SOL    HW211986   4.403   0.450   1.779 -0.2280  0.2732  0.0238
 3055SOL    HW311987   4.373   0.302   1.787 -0.7705  0.4240  1.0129
 3055SOL    MW411988   4.425   0.367   1.762 -0.6609  0.0905  0.3329
 3056SOL     OW11989   6.300   4.301   2.222 -0.0991  0.0122 -0.0803
 3056SOL    HW211990   6.283   4.393   2.238 -0.7137 -0.1854  0.4519
 3056SOL    HW311991   6.226   4.271   2.169 -0.6080 -0.4831  0.8892
 3056SOL    MW411992   6.288   4.309   2.217 -0.2473 -0.0792  0.1178
 3057SOL     OW11993   4.314   6.123   3.232 -0.5213 -0.5934  0.0391
 3057SOL    HW211994   4.269   6.119   3.316 -0.3448 -1.3090  0.1052
 3057SOL    HW311995   4.347   6.213   3.227 -1.7073 -0.1344  0.1079
 3057SOL    MW411996   4.312   6.134   3.242 -0.6545 -0.6273  0.0569
 3058SOL     OW11997   6.009   0.282   0.085 -0.4327 -0.3099  0.1252
 3058SOL    HW211998   6.030   0.190   0.097  0.4892 -0.1508 -0.1678
 3058SOL    HW311999   6.089   0.320   0.047 -0.7787  0.6143  0.2968
 3058SOL    MW412000   6.023   0.275   0.082 -0.3567 -0.1670  0.1092
 3059SOL     OW12001   2.738   2.965   4.574 -0.5059 -0.0193  0.0783
 3059SOL    HW212002   2.820   2.970   4.625  0.1754  1.9157 -1.0894
 3059SOL    HW312003   2.760   2.910   4.499 -1.4838 -2.7925  1.6853
 3059SOL    MW412004   2.752   2.958   4.571 -0.5450 -0.1299  0.1363
 3060SOL     OW12005   0.232   1.697   6.071 -0.3086  0.4416  0.8017
 3060SOL    HW212006   0.213   1.788   6.048 -1.0941  0.2041  0.4863
 3060SOL    HW312007   0.259   1.657   5.988  0.4558  0.4846  1.0210
 3060SOL    MW412008   0.233   1.704   6.057 -0.3114  0.4160  0.7891
 3061SOL     OW12009   4.918   0.011   1.299 -0.4881  0.3624  0.3944
 3061SOL    HW212010   4.894  -0.021   1.385  0.1853  0.0457  0.4718
 3061SOL    HW312011   5.002   0.056   1.312 -1.3515  2.0838  0.2713
 3061SOL    MW412012   4.926   0.013   1.312 -0.5132  0.5477  0.3884
 3062SOL     OW12013   6.353   1.220   2.943 -0.3074 -0.1740 -0.1834
 3062SOL    HW212014   6.425   1.261   2.991  0.1090 -0.4908 -0.5376
 3062SOL    HW312015   6.391   1.191   2.861 -0.7643 -0.6331 -0.2414
 3062SOL    MW412016   6.367   1.221   2.939 -0.3127 -0.2764 -0.2378
 3063SOL     OW12017   4.616   1.482   0.439 -0.2094  0.0740 -0.9269
 3063SOL    HW212018   4.537   1.475   0.492 -1.4411  0.0433 -2.7140
 3063SOL    HW312019   4.670   1.546   0.487 -0.7159 -0.8444  0.9805
 3063SOL    MW412020   4.613   1.490   0.452 -0.4387 -0.0513 -0.9110
 3064SOL     OW12021   3.142   0.734   0.859  0.0614  0.4561  0.2795
 3064SOL    HW212022   3.072   0.726   0.924 -0.7907 -0.9901 -0.7603
 3064SOL    HW312023   3.122   0.814   0.811  1.8872  2.7984  3.0485
 3064SOL    MW412024   3.130   0.744   0.861  0.1898  0.5743  0.5076
 3065SOL     OW12025   6.266   1.172   4.518 -0.2736 -0.2180  0.0369
 3065SOL    HW212026   6.340   1.113   4.503  1.0595  1.5832 -0.8355
 3065SOL    HW312027   6.281   1.207   4.606  0.3470  0.6928 -0.4165
 3065SOL    MW412028   6.278   1.169   4.528 -0.0159  0.1399 -0.1380
 3066SOL     OW12029   5.357   6.013   1.969  0.2637 -0.1310 -0.2416
 3066SOL    HW212030   5.269   6.028   2.005 -0.0183  2.3076 -1.7280
 3066SOL    HW312031   5.412   6.001   2.047 -0.8721  1.6352  0.9328
 3066SOL    MW412032   5.353   6.014   1.984  0.0767  0.4238 -0.2828
 3067SOL     OW12033   5.053   2.330   3.128 -0.2005  0.0705  0.9105
 3067SOL    HW212034   5.084   2.309   3.040 -0.5926 -0.5679  0.9155
 3067SOL    HW312035   5.132   2.359   3.175  0.1910 -0.4745  0.6107
 3067SOL    MW412036   5.068   2.331   3.123 -0.2005 -0.0857  0.8716
 3068SOL     OW12037   4.820   5.957   5.996 -0.6409  1.2912  0.0051
 3068SOL    HW212038   4.899   5.925   6.040 -1.0738  1.0558  0.6104
 3068SOL    HW312039   4.764   5.881   5.987 -0.8547  1.4834 -0.3270
 3068SOL    MW412040   4.823   5.943   6.000 -0.7262  1.2855  0.0411
 3069SOL     OW12041   4.950   1.998   2.931  0.4743  0.6573 -0.7024
 3069SOL    HW212042   5.006   2.028   3.002  0.1145  0.6292 -0.4050
 3069SOL    HW312043   4.923   2.079   2.887  1.5397  0.6258 -1.4671
 3069SOL    MW412044   4.954   2.013   2.934  0.5674  0.6495 -0.7641
 3070SOL     OW12045   2.776   3.183   3.485 -0.1093  0.7760 -0.0819
 3070SOL    HW212046   2.784   3.230   3.402  0.1296  3.8529  1.5116
 3070SOL    HW312047   2.682   3.178   3.501 -0.1254  1.2909  0.0055
 3070SOL    MW412048   2.765   3.189   3.477 -0.0799  1.2499  0.1399
 3071SOL     OW12049   1.497   2.602   4.235 -0.2977 -0.0632 -0.2048
 3071SOL    HW212050   1.565   2.614   4.169  0.6869  0.8938  0.9585
 3071SOL    HW312051   1.539   2.621   4.318 -2.1875  1.4448  0.4856
 3071SOL    MW412052   1.511   2.606   4.237 -0.4172  0.2620  0.0398
 3072SOL     OW12053   5.975   3.075   4.919 -0.4816  0.0362  0.3275
 3072SOL    HW212054   6.017   3.138   4.978 -0.4113  0.3222 -0.0228
 3072SOL    HW312055   5.919   3.129   4.864 -0.0470 -0.1490 -0.3020
 3072SOL    MW412056   5.973   3.090   4.920 -0.4150  0.0495  0.1982
 3073SOL     OW12057   1.910   5.133   6.063  0.3037 -0.0360 -0.2967
 3073SOL    HW212058   1.999   5.160   6.042  1.0575 -1.9671  0.2108
 3073SOL    HW312059   1.895   5.056   6.008 -0.6278 -0.3871  0.4252
 3073SOL    MW412060   1.920   5.126   6.053  0.2802 -0.3371 -0.1345
 3074SOL     OW12061   3.388   5.846   4.486 -0.3571  1.0147  0.1395
 3074SOL    HW212062   3.337   5.768   4.462  0.8329  0.5430 -1.0113
 3074SOL    HW312063   3.327   5.918   4.478 -1.5882  0.1781  1.5748
 3074SOL    MW412064   3.374   5.845   4.481 -0.3625  0.8420  0.1770
 3075SOL     OW12065   3.817   4.331   1.557 -0.5759 -0.3363 -0.1593
 3075SOL    HW212066   3.890   4.290   1.511 -0.2323 -0.4271  0.4555
 3075SOL    HW312067   3.745   4.268   1.549  0.0648 -1.2462  1.1110
 3075SOL    MW412068   3.817   4.317   1.550 -0.4460 -0.4683  0.0894
 3076SOL     OW12069   2.293   5.537   3.258  0.5783 -0.1270  0.2332
 3076SOL    HW212070   2.356   5.542   3.185 -0.0673 -0.6480 -0.3697
 3076SOL    HW312071   2.231   5.608   3.241 -0.8562 -1.5885 -0.9761
 3076SOL    MW412072   2.293   5.547   3.246  0.3039 -0.3885 -0.0059
 3077SOL     OW12073   3.436   3.080   5.075  1.0061 -0.9334  0.1402
 3077SOL    HW212074   3.372   3.093   5.146  0.3551  1.1239 -0.7398
 3077SOL    HW312075   3.513   3.130   5.102  0.0131  1.6412 -1.4175
 3077SOL    MW412076   3.437   3.089   5.088  0.7892 -0.3223 -0.1814
 3078SOL     OW12077   4.803   0.965   3.988  0.3126  0.4820 -0.0629
 3078SOL    HW212078   4.720   0.918   3.978  0.0183  1.2274 -1.3647
 3078SOL    HW312079   4.815   1.010   3.904  3.1714 -1.3801 -0.8081
 3078SOL    MW412080   4.793   0.964   3.975  0.6510  0.3347 -0.3330
 3079SOL     OW12081   6.083   3.144   0.750 -0.6459 -0.7538 -0.0938
 3079SOL    HW212082   6.003   3.195   0.766 -0.0664  0.1987 -0.1567
 3079SOL    HW312083   6.062   3.091   0.673 -1.3390 -0.7700  0.0971
 3079SOL    MW412084   6.069   3.144   0.742 -0.6609 -0.6303 -0.0769
 3080SOL     OW12085   4.051   0.016   0.538 -0.6329  0.0549 -0.0732
 3080SOL    HW212086   4.047   0.007   0.633 -0.8737  0.9075  0.0039
 3080SOL    HW312087   4.145   0.020   0.518 -0.3798 -3.3805 -0.2308
 3080SOL    MW412088   4.063   0.015   0.548 -0.6312 -0.2859 -0.0838
 3081SOL     OW12089   3.272   3.694   1.938  0.3567  0.3718  0.1016
 3081SOL    HW212090   3.216   3.769   1.960  1.1990  0.8972  0.4962
 3081SOL    HW312091   3.305   3.664   2.023  1.1811  0.4692 -0.1814
 3081SOL    MW412092   3.269   3.700   1.952  0.5766  0.4539  0.1163
 3082SOL     OW12093   6.170   6.257   0.936 -0.0556 -0.6535  0.9074
 3082SOL    HW212094   6.183   6.342   0.977  3.6846 -0.5848 -0.0880
 3082SOL    HW312095   6.110   6.274   0.863  0.9262  1.2078  0.4921
 3082SOL    MW412096   6.164   6.270   0.932  0.5674 -0.3989  0.7213
 3083SOL     OW12097   0.941   4.716   1.556 -0.4331  0.8320 -0.3623
 3083SOL    HW212098   0.858   4.668   1.551  0.2676 -0.3236 -2.3287
 3083SOL    HW312099   0.915   4.807   1.572 -2.0588  0.4508 -0.6238
 3083SOL    MW412100   0.926   4.722   1.557 -0.5552  0.6292 -0.6563
 3084SOL     OW12101   1.690   3.734   0.403  0.2125  0.1010  0.0470
 3084SOL    HW212102   1.604   3.767   0.379  0.0587  1.0376  1.6921
 3084SOL    HW312103   1.672   3.666   0.468  0.6695 -0.9677 -0.9094
 3084SOL    MW412104   1.676   3.729   0.409  0.2525  0.0836  0.1379
 3085SOL     OW12105   3.136   6.185   5.590  0.2813  0.2785  0.6891
 3085SOL    HW212106   3.195   6.178   5.665 -0.9197 -2.5821  1.4699
 3085SOL    HW312107   3.065   6.124   5.608 -1.4128  1.3972 -1.6076
 3085SOL    MW412108   3.135   6.176   5.602 -0.1007  0.0486  0.4891
 3086SOL     OW12109   4.383   0.932   1.923  0.0382  0.5298 -0.5678
 3086SOL    HW212110   4.444   0.860   1.910  0.4265  0.9401 -1.0966
 3086SOL    HW312111   4.341   0.915   2.007  0.8940  0.2496 -0.1922
 3086SOL    MW412112   4.386   0.921   1.932  0.2024  0.5470 -0.5880
 3087SOL     OW12113   0.909   6.341   0.841  0.0181 -0.0402  0.8827
 3087SOL    HW212114   1.001   6.314   0.836  0.6068  1.0515  4.0499
 3087SOL    HW312115   0.868   6.280   0.902 -1.0714  0.2637  0.4941
 3087SOL    MW412116   0.916   6.330   0.848 -0.0480  0.1439  1.2493
 3088SOL     OW12117   2.068   4.126   0.894  0.7085  0.1902  0.5888
 3088SOL    HW212118   2.156   4.098   0.920  1.7000  1.5021 -1.1738
 3088SOL    HW312119   2.038   4.057   0.835  0.4609 -0.3344  1.3064
 3088SOL    MW412120   2.076   4.113   0.890  0.8066  0.2941  0.4510
 3089SOL     OW12121   2.732   1.546   2.608 -0.0333 -0.1072 -0.3312
 3089SOL    HW212122   2.675   1.595   2.550 -0.4168  1.7642  1.4873
 3089SOL    HW312123   2.704   1.571   2.696  1.4089 -1.7422  0.6622
 3089SOL    MW412124   2.721   1.556   2.612  0.1064 -0.0760  0.0398
 3090SOL     OW12125   5.601   4.391   0.638  0.1343  0.1860 -0.0007
 3090SOL    HW212126   5.640   4.321   0.586  1.1156 -0.0843  1.0706
 3090SOL    HW312127   5.654   4.396   0.717 -1.0524  0.8864  0.7943
 3090SOL    MW412128   5.613   4.383   0.641  0.1072  0.2428  0.2455
 3091SOL     OW12129   2.887   5.841   5.870 -0.5049 -0.3438  0.1188
 3091SOL    HW212130   2.897   5.843   5.774  1.0726 -0.1375  0.2582
 3091SOL    HW312131   2.967   5.882   5.903 -0.7418 -0.9763  1.5492
 3091SOL    MW412132   2.899   5.846   5.861 -0.3281 -0.4000  0.3259
 3092SOL     OW12133   1.280   3.141   2.275 -0.0321  0.2010 -0.2336
 3092SOL    HW212134   1.279   3.105   2.364  0.3584  0.4469 -0.1241
 3092SOL    HW312135   1.253   3.068   2.219  2.4608 -0.8455 -0.2005
 3092SOL    MW412136   1.277   3.127   2.279  0.3483  0.0953 -0.2148
 3093SOL     OW12137   5.884   2.850   4.780 -0.0196  0.0430 -0.6314
 3093SOL    HW212138   5.892   2.904   4.859  0.3970  0.0143 -0.6519
 3093SOL    HW312139   5.906   2.761   4.809 -0.7760 -0.1291 -0.5828
 3093SOL    MW412140   5.888   2.845   4.795 -0.0645  0.0165 -0.6277
 3094SOL     OW12141   0.960   2.653   2.551 -0.0291 -0.0857  0.0916
 3094SOL    HW212142   0.923   2.733   2.589 -2.6909 -0.0570 -2.2791
 3094SOL    HW312143   0.991   2.680   2.464 -2.2353 -1.8000 -1.3206
 3094SOL    MW412144   0.959   2.667   2.545 -0.6714 -0.3081 -0.4075
 3095SOL     OW12145   2.796   0.580   4.764 -0.0129  0.0666  0.1959
 3095SOL    HW212146   2.736   0.544   4.699  1.1285 -2.9551  0.6508
 3095SOL    HW312147   2.836   0.504   4.805  1.6542  1.9008  2.2713
 3095SOL    MW412148   2.794   0.566   4.761  0.3577 -0.0901  0.5298
 3096SOL     OW12149   5.819   1.402   5.080  0.1911  0.3086 -0.1883
 3096SOL    HW212150   5.822   1.340   5.007  2.0318  0.6633 -0.4645
 3096SOL    HW312151   5.833   1.488   5.039 -1.6805  0.8730  0.2669
 3096SOL    MW412152   5.821   1.406   5.065  0.1871  0.4299 -0.1647
 3097SOL     OW12153   4.340   0.074   2.973  0.2945 -0.4619 -0.4614
 3097SOL    HW212154   4.256   0.104   3.008 -0.2637  0.4981 -2.5344
 3097SOL    HW312155   4.385   0.038   3.050 -0.5120  2.2523  1.4389
 3097SOL    MW412156   4.335   0.073   2.988  0.1145  0.0228 -0.4841
 3098SOL     OW12157   2.453   4.818   1.959 -0.9871 -0.3586 -0.4531
 3098SOL    HW212158   2.482   4.788   2.046 -0.3546  1.4747  0.0162
 3098SOL    HW312159   2.492   4.755   1.898  0.1119 -0.6252  0.4850
 3098SOL    MW412160   2.462   4.806   1.963 -0.7587 -0.1519 -0.2674
 3099SOL     OW12161   1.147   2.374   3.785  0.9057 -0.3979  0.5011
 3099SOL    HW212162   1.102   2.307   3.836  0.9077 -0.6106  0.2277
 3099SOL    HW312163   1.197   2.325   3.720  0.9680 -0.1358  0.3493
 3099SOL    MW412164   1.147   2.359   3.783  0.9142 -0.3914  0.4450
 3100SOL     OW12165   0.207   5.210   6.140  0.2691 -0.3696  0.6922
 3100SOL    HW212166   0.254   5.240   6.062  1.6150  0.2358  1.6820
 3100SOL    HW312167   0.276   5.174   6.196 -0.3742  0.9133  2.3809
 3100SOL    MW412168   0.223   5.209   6.137  0.3618 -0.1204  1.0456
 3101SOL     OW12169   2.262   2.830   3.899  0.0761  0.1669  0.7332
 3101SOL    HW212170   2.290   2.803   3.987  0.8511  0.1424  0.4871
 3101SOL    HW312171   2.228   2.919   3.912  0.6624  0.3645  0.9786
 3101SOL    MW412172   2.261   2.839   3.913  0.2557  0.1897  0.7331
 3102SOL     OW12173   6.414   0.306   0.870  0.5290  0.1430 -0.0280
 3102SOL    HW212174   6.439   0.244   0.939  1.2907 -0.5309 -0.8898
 3102SOL    HW312175   6.357   0.255   0.812 -2.9537  1.5873  1.8114
 3102SOL    MW412176   6.410   0.291   0.872  0.1700  0.2446  0.1009
 3103SOL     OW12177   2.998   0.373   5.493 -0.0849  0.5756 -0.2445
 3103SOL    HW212178   2.982   0.393   5.586  0.6976  2.5703 -0.4904
 3103SOL    HW312179   2.947   0.438   5.446  1.7357  1.4210 -1.1465
 3103SOL    MW412180   2.989   0.384   5.499  0.2586  0.9503 -0.3959
 3104SOL     OW12181   5.619   2.970   3.302 -0.8438  0.4833  0.1982
 3104SOL    HW212182   5.609   3.048   3.247 -2.7422 -1.3068 -2.2602
 3104SOL    HW312183   5.707   2.938   3.281 -0.6023  1.1780  0.1145
 3104SOL    MW412184   5.629   2.976   3.292 -1.0624  0.3388 -0.1372
 3105SOL     OW12185   0.716   4.900   2.555  0.3567  0.1320 -0.0411
 3105SOL    HW212186   0.764   4.833   2.604 -1.3207 -1.2565 -0.1814
 3105SOL    HW312187   0.677   4.853   2.481  0.0616  1.5075 -0.8098
 3105SOL    MW412188   0.717   4.885   2.552  0.0965  0.1303 -0.1610
 3106SOL     OW12189   2.337   2.766   0.170  0.0297 -0.2456  0.4840
 3106SOL    HW212190   2.415   2.821   0.164 -0.2884  0.5584  2.8197
 3106SOL    HW312191   2.268   2.818   0.129  0.4277 -0.4267 -0.4476
 3106SOL    MW412192   2.338   2.780   0.164  0.0402 -0.1635  0.6693
 3107SOL     OW12193   3.670   2.802   4.180 -0.1075 -0.1410 -0.1439
 3107SOL    HW212194   3.577   2.782   4.193 -0.2167  0.4090 -0.0640
 3107SOL    HW312195   3.691   2.864   4.250 -0.5663  2.4413 -2.1376
 3107SOL    MW412196   3.660   2.807   4.191 -0.1825  0.2723 -0.3964
 3108SOL     OW12197   0.448   1.541   1.169  0.5768 -0.0295 -0.0605
 3108SOL    HW212198   0.408   1.558   1.254 -0.5450 -0.0981 -0.5627
 3108SOL    HW312199   0.506   1.616   1.154 -0.6623  0.9605 -0.0828
 3108SOL    MW412200   0.450   1.553   1.178  0.2653  0.0921 -0.1297
 3109SOL     OW12201   0.810   1.226   0.068 -0.7047  0.6512 -0.4413
 3109SOL    HW212202   0.879   1.195   0.126 -0.3624  1.0791 -0.6098
 3109SOL    HW312203   0.733   1.175   0.093 -0.3727  0.2849 -0.1379
 3109SOL    MW412204   0.809   1.215   0.079 -0.6157  0.6593 -0.4235
 3110SOL     OW12205   5.374   4.024   3.642 -0.1046  0.1527 -0.0724
 3110SOL    HW212206   5.339   4.059   3.560 -1.9116  1.9186  1.3252
 3110SOL    HW312207   5.300   4.028   3.703  1.1363 -1.1951  1.6261
 3110SOL    MW412208   5.359   4.029   3.639 -0.1793  0.2078  0.3361
 3111SOL     OW12209   3.744   4.440   3.651  0.5227  0.7668 -0.3717
 3111SOL    HW212210   3.792   4.523   3.650 -0.7440  1.5353 -0.5671
 3111SOL    HW312211   3.711   4.433   3.741  2.0680 -0.4339  0.1462
 3111SOL    MW412212   3.746   4.450   3.663  0.5594  0.7097 -0.3292
 3112SOL     OW12213   3.955   1.924   2.986  0.1153  0.2182 -0.2194
 3112SOL    HW212214   3.936   2.003   3.037 -0.0608  0.7024 -1.0177
 3112SOL    HW312215   3.928   1.852   3.043  1.0839  0.6884  0.8670
 3112SOL    MW412216   3.949   1.925   3.000  0.2199  0.3441 -0.1814
 3113SOL     OW12217   3.640   0.035   5.631  0.2131 -0.1926 -0.1510
 3113SOL    HW212218   3.633  -0.057   5.656  0.3632 -0.4462 -1.0155
 3113SOL    HW312219   3.558   0.074   5.661  0.1682 -0.5874  0.2604
 3113SOL    MW412220   3.628   0.028   5.639  0.2270 -0.2782 -0.2108
 3114SOL     OW12221   3.266   4.723   1.622  0.0094 -0.9128 -0.0125
 3114SOL    HW212222   3.244   4.815   1.605  0.3950 -0.9061 -0.4959
 3114SOL    HW312223   3.193   4.674   1.586 -0.0735 -0.8100  0.0129
 3114SOL    MW412224   3.254   4.729   1.615  0.0493 -0.8984 -0.0729
 3115SOL     OW12225   4.635   2.095   5.527  0.2004  0.4070  0.0077
 3115SOL    HW212226   4.627   2.034   5.454  2.0944  0.0292  0.0574
 3115SOL    HW312227   4.553   2.086   5.575 -0.1911 -0.9631 -0.8538
 3115SOL    MW412228   4.623   2.086   5.523  0.3986  0.1764 -0.0994
 3116SOL     OW12229   6.097   5.606   5.875  0.0492 -0.4997  0.6873
 3116SOL    HW212230   6.028   5.541   5.861 -1.0813  0.6775  0.6554
 3116SOL    HW312231   6.159   5.591   5.803 -0.5419 -1.0896  0.2907
 3116SOL    MW412232   6.096   5.595   5.864 -0.1779 -0.4222  0.6308
 3117SOL     OW12233   0.413   6.348   3.105  0.3539  0.0431  0.2131
 3117SOL    HW212234   0.447   6.258   3.102  0.1333 -0.0963  1.3437
 3117SOL    HW312235   0.319   6.339   3.085  0.5409  0.1709 -0.7818
 3117SOL    MW412236   0.405   6.335   3.102  0.3495  0.0416  0.2310
 3118SOL     OW12237   5.328   2.369   0.171  0.5926  0.3004  0.5914
 3118SOL    HW212238   5.386   2.382   0.096  0.5349 -0.9516  0.3055
 3118SOL    HW312239   5.302   2.277   0.166 -0.4991  0.5368  1.3784
 3118SOL    MW412240   5.332   2.358   0.160  0.4410  0.1664  0.6575
 3119SOL     OW12241   0.719   1.495   0.151  0.5252  0.4095 -0.2301
 3119SOL    HW212242   0.762   1.430   0.095 -0.0877 -0.3719  0.1933
 3119SOL    HW312243   0.683   1.559   0.090  1.1404  0.3650 -0.6526
 3119SOL    MW412244   0.720   1.495   0.136  0.5255  0.3005 -0.2300
 3120SOL     OW12245   5.450   4.835   0.493  0.5003  0.0068 -0.0327
 3120SOL    HW212246   5.446   4.844   0.398 -2.0136  0.3851  0.0400
 3120SOL    HW312247   5.533   4.791   0.510  1.7176  1.2621 -2.2699
 3120SOL    MW412248   5.460   4.830   0.483  0.3293  0.2223 -0.3183
 3121SOL     OW12249   2.219   5.722   2.694  0.1162  0.1099 -0.1147
 3121SOL    HW212250   2.210   5.703   2.787  2.3424 -0.8094 -0.0191
 3121SOL    HW312251   2.310   5.699   2.674 -0.2276  0.5648 -2.4549
 3121SOL    MW412252   2.230   5.717   2.704  0.3646  0.0486 -0.4109
 3122SOL     OW12253   3.282   0.156   4.121 -0.2139  0.1690 -0.5761
 3122SOL    HW212254   3.225   0.102   4.176  0.1815 -0.9750 -1.2705
 3122SOL    HW312255   3.250   0.143   4.032  0.0941  0.8361 -0.7953
 3122SOL    MW412256   3.270   0.147   4.117 -0.1211  0.1061 -0.6966
 3123SOL     OW12257   5.699   4.071   1.957  0.3023  0.1227 -0.3364
 3123SOL    HW212258   5.757   4.042   1.887 -0.9043 -0.1977 -1.2502
 3123SOL    HW312259   5.648   4.142   1.918  1.2662  1.6144  0.9983
 3123SOL    MW412260   5.700   4.076   1.943  0.2703  0.2773 -0.2808
 3124SOL     OW12261   1.537   0.230   0.547  0.1806 -0.3141 -0.4900
 3124SOL    HW212262   1.471   0.250   0.480  0.6174  1.3635 -0.4797
 3124SOL    HW312263   1.488   0.188   0.617 -0.3925 -1.5536 -1.5888
 3124SOL    MW412264   1.521   0.227   0.547  0.1626 -0.2563 -0.6336
 3125SOL     OW12265   2.365   3.342   5.428  0.3291  0.1086  0.2508
 3125SOL    HW212266   2.322   3.372   5.508  2.4800  0.4564  1.3470
 3125SOL    HW312267   2.330   3.397   5.359 -2.0101 -0.5765  0.8031
 3125SOL    MW412268   2.355   3.353   5.429  0.3042  0.0641  0.4683
 3126SOL     OW12269   5.012   2.004   4.807  0.5863 -0.0743  0.1033
 3126SOL    HW212270   4.989   1.912   4.794 -0.3852  0.2979 -0.9785
 3126SOL    HW312271   5.022   2.013   4.901  0.0176 -1.1394  0.2833
 3126SOL    MW412272   5.010   1.993   4.817  0.3831 -0.1658 -0.0157
 3127SOL     OW12273   1.548   3.959   4.853 -0.1212  0.1932  0.1589
 3127SOL    HW212274   1.520   3.871   4.878  1.2431  0.0583  1.3608
 3127SOL    HW312275   1.478   4.016   4.886 -0.0850 -0.2974  1.1186
 3127SOL    MW412276   1.535   3.955   4.861  0.0635  0.1107  0.4441
 3128SOL     OW12277   4.049   6.406   2.350 -0.4537 -0.3597 -0.1431
 3128SOL    HW212278   4.134   6.373   2.322 -0.5056  1.5348 -2.8403
 3128SOL    HW312279   4.068   6.490   2.392 -0.9547 -0.1565 -0.3162
 3128SOL    MW412280   4.063   6.413   2.352 -0.5266 -0.0829 -0.5218
 3129SOL     OW12281   5.609   4.345   6.366  0.2215 -0.2482 -0.3048
 3129SOL    HW212282   5.611   4.416   6.301  0.3596  2.1799  2.1899
 3129SOL    HW312283   5.684   4.290   6.343  1.2481  1.4380 -1.2437
 3129SOL    MW412284   5.619   4.347   6.354  0.3752  0.2947 -0.0995
 3130SOL     OW12285   1.423   6.230   0.107 -0.5990 -0.3689  0.1485
 3130SOL    HW212286   1.360   6.198   0.042 -1.2582 -2.7702  1.8425
 3130SOL    HW312287   1.507   6.194   0.080 -0.4330  0.5576 -0.6071
 3130SOL    MW412288   1.425   6.221   0.095 -0.6641 -0.5635  0.2723
 3131SOL     OW12289   5.085   1.217   1.724  0.0764  0.5637  0.1122
 3131SOL    HW212290   5.142   1.179   1.790 -0.4787 -1.7825 -0.6464
 3131SOL    HW312291   5.143   1.237   1.651  0.0591 -1.9375 -0.7100
 3131SOL    MW412292   5.100   1.214   1.723  0.0009 -0.0759 -0.0964
 3132SOL     OW12293   3.486   1.920   2.470 -0.5564  0.0563  0.4507
 3132SOL    HW212294   3.397   1.902   2.502 -1.5252 -0.4864 -2.2732
 3132SOL    HW312295   3.534   1.839   2.487 -0.6100  0.2692  1.7321
 3132SOL    MW412296   3.481   1.907   2.477 -0.6913  0.0128  0.2604
 3133SOL     OW12297   2.616   3.435   0.601  0.0486 -0.4878  0.4096
 3133SOL    HW212298   2.599   3.514   0.548 -0.9206 -1.5282 -0.9019
 3133SOL    HW312299   2.571   3.365   0.554  0.0569 -1.6642  2.0845
 3133SOL    MW412300   2.608   3.436   0.588 -0.0782 -0.7803  0.4575
 3134SOL     OW12301   2.635   3.439   1.844  1.1088  0.6118 -0.3943
 3134SOL    HW212302   2.609   3.348   1.859 -1.3908  1.0638 -1.4577
 3134SOL    HW312303   2.571   3.491   1.893  0.9635  1.8102 -1.7776
 3134SOL    MW412304   2.623   3.434   1.853  0.7598  0.8295 -0.7171
 3135SOL     OW12305   3.559   6.085   1.662 -0.0322 -0.1250 -0.3808
 3135SOL    HW212306   3.480   6.114   1.708  0.9579  0.7906  0.8021
 3135SOL    HW312307   3.551   5.990   1.657 -0.1632 -0.2614  1.7330
 3135SOL    MW412308   3.547   6.076   1.667  0.0811 -0.0222  0.0542
 3136SOL     OW12309   5.578   4.666   3.105  0.1483 -0.0171 -0.1701
 3136SOL    HW212310   5.641   4.683   3.035 -0.5711 -0.0714 -0.8501
 3136SOL    HW312311   5.630   4.665   3.185  1.0351 -0.2205 -0.7334
 3136SOL    MW412312   5.593   4.668   3.106  0.1704 -0.0511 -0.3341
 3137SOL     OW12313   5.964   2.101   3.472 -0.6460 -0.0824 -0.4653
 3137SOL    HW212314   6.010   2.053   3.541 -0.3552 -1.4955 -1.6173
 3137SOL    HW312315   5.893   2.043   3.446 -0.0642 -0.0735 -2.1433
 3137SOL    MW412316   5.961   2.087   3.478 -0.5308 -0.2676 -0.8387
 3138SOL     OW12317   6.310   2.100   2.190 -0.0039  0.6052 -0.2370
 3138SOL    HW212318   6.226   2.062   2.167  0.3637 -0.5234  0.2216
 3138SOL    HW312319   6.288   2.178   2.241 -0.7748 -0.0793  0.5098
 3138SOL    MW412320   6.296   2.106   2.194 -0.0571  0.3660 -0.0780
 3139SOL     OW12321   2.378   0.503   5.303  0.5032  0.6188  0.2268
 3139SOL    HW212322   2.330   0.583   5.325 -0.2091  0.0168  0.9151
 3139SOL    HW312323   2.463   0.534   5.271 -0.7557  1.7674 -2.2245
 3139SOL    MW412324   2.383   0.518   5.302  0.2431  0.6909 -0.0058
 3140SOL     OW12325   4.110   0.572   3.650 -0.2425  0.1434 -0.0621
 3140SOL    HW212326   4.028   0.537   3.615 -0.8233 -1.5584  2.6842
 3140SOL    HW312327   4.083   0.647   3.703 -0.0967 -0.5498  1.0240
 3140SOL    MW412328   4.095   0.577   3.652 -0.2999 -0.1726  0.4436
 3141SOL     OW12329   6.321   5.983   5.778  0.1032  0.6056 -0.2598
 3141SOL    HW212330   6.387   6.050   5.760 -0.0332  0.5170 -1.1436
 3141SOL    HW312331   6.299   5.995   5.870 -0.6777  2.4674 -0.6438
 3141SOL    MW412332   6.327   5.993   5.788 -0.0178  0.8396 -0.4271
 3142SOL     OW12333   3.581   0.639   1.809 -0.5098 -0.1167 -0.5865
 3142SOL    HW212334   3.486   0.631   1.818 -0.5088 -2.4310 -1.9292
 3142SOL    HW312335   3.612   0.549   1.795  2.1092  0.3241  1.5836
 3142SOL    MW412336   3.573   0.626   1.808 -0.1641 -0.3639 -0.4774
 3143SOL     OW12337   3.680   2.186   3.082  0.4095  0.0011  0.6888
 3143SOL    HW212338   3.680   2.155   2.992 -0.9937  0.0439  0.6473
 3143SOL    HW312339   3.642   2.274   3.077  3.1659  1.3354  0.9637
 3143SOL    MW412340   3.675   2.194   3.070  0.5880  0.1828  0.7196
 3144SOL     OW12341   3.552   3.015   0.433 -0.0535  0.0023 -0.2558
 3144SOL    HW212342   3.627   2.959   0.412 -0.3596 -0.2464 -0.7094
 3144SOL    HW312343   3.590   3.101   0.450  0.2939 -0.0171 -0.9107
 3144SOL    MW412344   3.567   3.019   0.433 -0.0481 -0.0330 -0.4021
 3145SOL     OW12345   5.009   0.444   4.045 -0.1832 -0.6430 -0.2303
 3145SOL    HW212346   5.011   0.537   4.065 -2.0419 -0.6142  0.0021
 3145SOL    HW312347   5.083   0.430   3.985  2.5607  0.1952  2.6626
 3145SOL    MW412348   5.019   0.454   4.040 -0.0664 -0.5286  0.1821
 3146SOL     OW12349   1.103   0.734   0.209 -0.0409  0.1074 -0.2166
 3146SOL    HW212350   1.184   0.692   0.237  0.8962  1.6099 -0.5860
 3146SOL    HW312351   1.044   0.661   0.189  1.2261 -1.0101 -0.0009
 3146SOL    MW412352   1.106   0.719   0.210  0.2499  0.1582 -0.2369
 3147SOL     OW12353   3.309   4.959   4.498 -0.2753  0.0935  0.3530
 3147SOL    HW212354   3.262   4.966   4.581  0.4575  0.0016  0.7782
 3147SOL    HW312355   3.391   4.916   4.520 -0.7463 -1.4082 -0.6947
 3147SOL    MW412356   3.313   4.955   4.512 -0.2407 -0.1168  0.2709
 3148SOL     OW12357   2.639   4.058   2.046 -0.6281 -0.2112 -0.3534
 3148SOL    HW212358   2.727   4.065   2.083 -0.3721  1.3633 -1.1800
 3148SOL    HW312359   2.584   4.105   2.108 -0.7088 -0.2832 -0.3710
 3148SOL    MW412360   2.643   4.065   2.059 -0.6049 -0.0130 -0.4648
 3149SOL     OW12361   1.889   2.992   3.154 -0.1921 -0.0284  0.6791
 3149SOL    HW212362   1.859   3.063   3.211  0.3996  0.1202  0.8130
 3149SOL    HW312363   1.882   2.913   3.207 -0.3724 -0.0003  0.6984
 3149SOL    MW412364   1.884   2.991   3.168 -0.1378 -0.0051  0.6993
 3150SOL     OW12365   2.701   5.991   1.784  0.2582 -0.2154 -0.0219
 3150SOL    HW212366   2.739   5.904   1.794 -3.0494 -1.6188  1.8853
 3150SOL    HW312367   2.692   6.002   1.689  0.3570 -2.1223 -0.2977
 3150SOL    MW412368   2.705   5.981   1.773 -0.1652 -0.6521  0.1933
 3151SOL     OW12369   5.911   5.521   2.917  0.1569  0.1579 -0.6932
 3151SOL    HW212370   5.915   5.616   2.928  2.8893  0.3850 -2.7358
 3151SOL    HW312371   5.940   5.505   2.827  2.6228 -2.7220  0.4202
 3151SOL    MW412372   5.915   5.531   2.907  0.8428 -0.1921 -0.8158
 3152SOL     OW12373   0.355   4.784   4.146  0.6419  0.0497 -0.6071
 3152SOL    HW212374   0.316   4.720   4.086 -1.3495  0.1158  0.5284
 3152SOL    HW312375   0.448   4.764   4.145  0.2890 -1.7572 -1.5844
 3152SOL    MW412376   0.362   4.773   4.138  0.3326 -0.1800 -0.5863
 3153SOL     OW12377   4.490   6.249   4.216  0.0740  0.3479 -0.2942
 3153SOL    HW212378   4.420   6.210   4.268  0.1595  1.2031  0.4987
 3153SOL    HW312379   4.510   6.331   4.262  2.3917 -0.4176  0.1880
 3153SOL    MW412380   4.483   6.255   4.229  0.3911  0.3597 -0.1259
 3154SOL     OW12381   6.186   0.895   1.078 -0.1088 -1.0089  0.1636
 3154SOL    HW212382   6.225   0.908   1.164 -0.5785  0.0457  0.2378
 3154SOL    HW312383   6.103   0.851   1.095 -0.7606  0.2366  0.3987
 3154SOL    MW412384   6.180   0.891   1.092 -0.2567 -0.7054  0.2044
 3155SOL     OW12385   4.741   0.146   3.343 -0.2746  0.5703 -0.0193
 3155SOL    HW212386   4.750   0.134   3.248 -1.2855  0.7718 -0.1580
 3155SOL    HW312387   4.831   0.147   3.376  0.0693 -0.5194 -0.8412
 3155SOL    MW412388   4.754   0.144   3.334 -0.3626  0.4531 -0.1460
 3156SOL     OW12389   3.325   0.037   1.744 -0.0516  0.0739  0.3183
 3156SOL    HW212390   3.307  -0.056   1.758 -1.6247  0.0235 -1.5448
 3156SOL    HW312391   3.252   0.081   1.787  0.1741  0.3977  0.3665
 3156SOL    MW412392   3.313   0.030   1.751 -0.2294  0.1100  0.0788
 3157SOL     OW12393   0.737   4.583   3.125  0.0260  0.1230 -0.8204
 3157SOL    HW212394   0.752   4.531   3.204 -0.3589  0.3621 -0.5874
 3157SOL    HW312395   0.804   4.651   3.128  2.5498 -2.0394 -2.6542
 3157SOL    MW412396   0.748   4.585   3.136  0.3082 -0.1307 -1.0316
 3158SOL     OW12397   3.591   1.117   1.927 -0.1346  0.5825 -0.3495
 3158SOL    HW212398   3.505   1.075   1.931  0.3331 -0.5346 -1.3706
 3158SOL    HW312399   3.571   1.211   1.926 -1.3538  0.3432 -0.6242
 3158SOL    MW412400   3.577   1.124   1.927 -0.2338  0.4036 -0.5205
 3159SOL     OW12401   5.155   2.635   6.145  0.3506  0.1167  0.5314
 3159SOL    HW212402   5.155   2.719   6.099  0.5284 -0.8109 -1.2681
 3159SOL    HW312403   5.062   2.609   6.145  0.5736 -0.9293 -1.4570
 3159SOL    MW412404   5.142   2.643   6.139  0.4035 -0.1437  0.0316
 3160SOL     OW12405   5.683   3.879   0.561  0.6442 -0.2348 -0.1844
 3160SOL    HW212406   5.693   3.971   0.537  1.4390 -0.6041 -1.3538
 3160SOL    HW312407   5.614   3.847   0.503  0.9601 -0.5762 -0.3752
 3160SOL    MW412408   5.675   3.887   0.550  0.7907 -0.3286 -0.3639
 3161SOL     OW12409   6.052   3.850   0.096 -0.0398 -0.1858  0.1790
 3161SOL    HW212410   5.981   3.866   0.035 -1.3936 -1.8354  1.2394
 3161SOL    HW312411   6.079   3.937   0.125  0.0026  0.5746 -2.0029
 3161SOL    MW412412   6.047   3.864   0.092 -0.2128 -0.3031  0.0310
 3162SOL     OW12413   4.660   0.747   1.944 -0.5878 -0.2957 -0.0213
 3162SOL    HW212414   4.752   0.735   1.919 -0.6452 -1.7987  0.3991
 3162SOL    HW312415   4.611   0.714   1.869 -0.7957  0.1872 -0.1023
 3162SOL    MW412416   4.666   0.741   1.931 -0.6228 -0.4303  0.0235
 3163SOL     OW12417   1.109   3.637   2.379 -0.3464  0.2293  0.5794
 3163SOL    HW212418   1.128   3.547   2.353 -1.5384 -0.0892  0.7451
 3163SOL    HW312419   1.195   3.676   2.393  0.1994 -1.2156  1.6314
 3163SOL    MW412420   1.122   3.630   2.378 -0.4317 -0.0034  0.7400
 3164SOL     OW12421   2.963   3.651   0.313  0.1241 -0.6431 -0.5661
 3164SOL    HW212422   2.966   3.728   0.257  0.4470 -0.4745 -0.3238
 3164SOL    HW312423   2.885   3.604   0.286  0.2421 -0.5284 -1.1107
 3164SOL    MW412424   2.953   3.655   0.302  0.1822 -0.6057 -0.6060
 3165SOL     OW12425   3.193   4.523   0.329 -0.4555 -0.0372  0.1781
 3165SOL    HW212426   3.202   4.478   0.413 -0.9506  0.7717  0.6717
 3165SOL    HW312427   3.281   4.555   0.310 -0.7644  1.7497  1.5271
 3165SOL    MW412428   3.206   4.521   0.338 -0.5616  0.3053  0.4212
 3166SOL     OW12429   4.577   2.797   4.028 -0.2818  0.3130  0.2612
 3166SOL    HW212430   4.545   2.732   4.091 -1.9074  1.2617  0.4702
 3166SOL    HW312431   4.647   2.752   3.981 -0.3713 -1.0881  1.3898
 3166SOL    MW412432   4.582   2.782   4.030 -0.5081  0.2533  0.4377
 3167SOL     OW12433   4.880   4.250   6.303  0.3585 -0.1316  0.7855
 3167SOL    HW212434   4.936   4.293   6.368  0.4653  0.5129  0.2736
 3167SOL    HW312435   4.796   4.294   6.310  0.3592 -0.0853  0.5137
 3167SOL    MW412436   4.876   4.261   6.313  0.3727 -0.0404  0.6821
 3168SOL     OW12437   2.121   3.926   0.369  0.0288  0.1842  0.4953
 3168SOL    HW212438   2.149   3.897   0.456  0.5323 -0.3523  0.1682
 3168SOL    HW312439   2.073   4.007   0.384  1.2047  0.7850  1.1576
 3168SOL    MW412440   2.119   3.933   0.382  0.2504  0.1927  0.5395
 3169SOL     OW12441   1.702   1.290   1.614 -0.0621 -0.5451  0.3506
 3169SOL    HW212442   1.728   1.334   1.695  0.8395  1.4349 -0.9431
 3169SOL    HW312443   1.754   1.209   1.613  1.8422  0.6010  0.5922
 3169SOL    MW412444   1.713   1.285   1.625  0.3081 -0.1327  0.2118
 3170SOL     OW12445   4.576   0.169   0.269 -0.1289  0.9530 -0.0820
 3170SOL    HW212446   4.574   0.087   0.219  2.7669  1.4770 -1.2458
 3170SOL    HW312447   4.500   0.218   0.237 -0.6196 -0.3614 -1.0242
 3170SOL    MW412448   4.565   0.164   0.258  0.1884  0.8487 -0.3599
 3171SOL     OW12449   5.641   4.737   2.065 -0.1441  0.2361 -0.2703
 3171SOL    HW212450   5.634   4.652   2.109 -1.1322 -1.0926 -2.7870
 3171SOL    HW312451   5.734   4.760   2.070  0.4729 -1.9111 -1.0977
 3171SOL    MW412452   5.652   4.729   2.072 -0.1931 -0.2225 -0.7115
 3172SOL     OW12453   6.169   3.735   3.979 -0.0499 -0.7928  0.0350
 3172SOL    HW212454   6.244   3.757   4.035 -1.5500 -1.5522  2.4867
 3172SOL    HW312455   6.180   3.642   3.960  1.5548 -0.1431 -2.8665
 3172SOL    MW412456   6.180   3.726   3.984 -0.0361 -0.8073 -0.0243
 3173SOL     OW12457   3.189   0.485   1.589 -0.0104  0.5671 -0.5559
 3173SOL    HW212458   3.198   0.393   1.614 -2.0018 -0.3713 -2.9339
 3173SOL    HW312459   3.229   0.533   1.661  1.4759 -2.1433  0.5845
 3173SOL    MW412460   3.196   0.479   1.602 -0.0770  0.0857 -0.7192
 3174SOL     OW12461   5.580   0.191   0.245  0.6023  0.2152  0.2266
 3174SOL    HW212462   5.611   0.281   0.234 -0.8028  0.8282  0.9421
 3174SOL    HW312463   5.659   0.137   0.242  1.5728  1.5623  0.6924
 3174SOL    MW412464   5.595   0.196   0.243  0.5450  0.4738  0.3825
 3175SOL     OW12465   2.942   5.808   2.612 -0.2293 -0.5545  0.0379
 3175SOL    HW212466   2.858   5.851   2.599  0.4638  1.3686  1.4532
 3175SOL    HW312467   2.990   5.866   2.670  2.0343 -1.6731 -0.5912
 3175SOL    MW412468   2.937   5.821   2.618  0.1608 -0.4483  0.1416
 3176SOL     OW12469   5.224   2.964   1.708 -0.6122  0.1244 -0.5880
 3176SOL    HW212470   5.230   2.893   1.644  0.9622 -1.3106  1.0371
 3176SOL    HW312471   5.315   2.987   1.727 -1.0789  2.0858 -0.4945
 3176SOL    MW412472   5.237   2.958   1.702 -0.4660  0.1939 -0.3613
 3177SOL     OW12473   2.792   4.279   1.861 -0.4116 -0.2245  0.2884
 3177SOL    HW212474   2.821   4.257   1.950  0.5643  0.1996  0.0914
 3177SOL    HW312475   2.869   4.318   1.820 -1.1032  0.3621 -0.4760
 3177SOL    MW412476   2.806   4.281   1.867 -0.3741 -0.0911  0.1615
 3178SOL     OW12477   1.737   4.036   3.123  0.4432 -0.6641  0.1730
 3178SOL    HW212478   1.752   4.090   3.200 -1.3580 -2.2393  1.7123
 3178SOL    HW312479   1.821   4.033   3.078  0.9922  2.0319  0.8852
 3178SOL    MW412480   1.750   4.043   3.127  0.2780 -0.5162  0.4700
 3179SOL     OW12481   3.759   2.618   5.336 -0.5272 -0.0358 -0.2250
 3179SOL    HW212482   3.720   2.641   5.421 -0.7678 -1.0163 -0.0647
 3179SOL    HW312483   3.685   2.592   5.282 -0.1382 -1.6861  0.0041
 3179SOL    MW412484   3.744   2.618   5.340 -0.5076 -0.3829 -0.1736
 3180SOL     OW12485   1.674   4.179   5.285  0.4284  0.1406 -0.4003
 3180SOL    HW212486   1.747   4.226   5.325  1.2555 -1.5319  0.1696
 3180SOL    HW312487   1.712   4.133   5.210 -0.7288  1.7216 -2.0333
 3180SOL    MW412488   1.689   4.179   5.281  0.3849  0.1285 -0.5405
 3181SOL     OW12489   5.899   4.311   2.487 -0.6705 -0.6331 -0.7767
 3181SOL    HW212490   5.893   4.344   2.397 -1.0589  0.3199 -0.4159
 3181SOL    HW312491   5.840   4.367   2.537  1.3433  0.4779  0.5242
 3181SOL    MW412492   5.890   4.323   2.481 -0.4560 -0.3607 -0.5574
 3182SOL     OW12493   2.223   0.156   5.776  0.3787 -0.2658 -0.2479
 3182SOL    HW212494   2.257   0.224   5.835 -0.5175 -0.2013  0.2131
 3182SOL    HW312495   2.179   0.204   5.706 -1.2383 -0.3414  0.6646
 3182SOL    MW412496   2.222   0.171   5.775  0.0472 -0.2673 -0.0667
 3183SOL     OW12497   5.967   1.882   1.885 -0.3559 -0.1878  0.7071
 3183SOL    HW212498   5.917   1.962   1.901  0.8525  0.5087  1.2179
 3183SOL    HW312499   5.999   1.857   1.972  2.0963  0.7495  0.1703
 3183SOL    MW412500   5.965   1.889   1.898  0.1271  0.0278  0.7037
 3184SOL     OW12501   5.777   0.165   3.800  0.4493  0.7745  0.4530
 3184SOL    HW212502   5.837   0.200   3.867 -1.7472  2.4727  1.6681
 3184SOL    HW312503   5.734   0.091   3.842 -1.7183  2.4984  1.4363
 3184SOL    MW412504   5.780   0.160   3.814 -0.1265  1.2260  0.7430
 3185SOL     OW12505   0.904   6.067   6.069  0.5965 -0.3781  0.1773
 3185SOL    HW212506   0.908   6.105   5.981  0.4583 -1.2651 -0.2275
 3185SOL    HW312507   0.984   6.014   6.075 -0.0423 -1.3686  0.0815
 3185SOL    MW412508   0.915   6.065   6.058  0.4940 -0.6258  0.1112
 3186SOL     OW12509   1.865   2.087   5.834 -0.0246 -0.2679 -0.3402
 3186SOL    HW212510   1.772   2.106   5.848  0.3907  0.0280  2.7501
 3186SOL    HW312511   1.871   1.991   5.841  0.0503 -0.1891  0.8097
 3186SOL    MW412512   1.854   2.077   5.837  0.0401 -0.2184  0.2192
 3187SOL     OW12513   2.570   2.440   1.761 -0.1230 -0.1914  0.4380
 3187SOL    HW212514   2.586   2.531   1.738 -0.3842 -0.5625 -1.3037
 3187SOL    HW312515   2.657   2.401   1.767 -0.0219  0.0917  0.9549
 3187SOL    MW412516   2.584   2.447   1.759 -0.1441 -0.2031  0.2764
 3188SOL     OW12517   6.002   2.155   1.633  0.3876  0.1339 -0.1294
 3188SOL    HW212518   6.012   2.078   1.578  1.7652 -0.2882  0.6786
 3188SOL    HW312519   5.947   2.214   1.581  0.9749 -0.5675 -1.6072
 3188SOL    MW412520   5.996   2.153   1.619  0.6468 -0.0143 -0.2178
 3189SOL     OW12521   0.609   6.146   3.135 -0.3957 -0.4714 -0.0838
 3189SOL    HW212522   0.692   6.179   3.101 -1.7786  1.2522 -2.1156
 3189SOL    HW312523   0.627   6.121   3.225  2.3360 -0.3249 -0.5212
 3189SOL    MW412524   0.622   6.147   3.142 -0.2178 -0.2247 -0.4096
 3190SOL     OW12525   6.125   1.760   2.584  0.4365  0.2254 -0.4765
 3190SOL    HW212526   6.123   1.801   2.671 -1.2139 -1.4834  0.3661
 3190SOL    HW312527   6.071   1.817   2.530  1.4999  1.3229 -0.4470
 3190SOL    MW412528   6.118   1.773   2.588  0.3591  0.1447 -0.3614
 3191SOL     OW12529   4.317   6.125   2.565  0.3809  0.1348  0.2177
 3191SOL    HW212530   4.314   6.176   2.646  0.2173 -1.6849  1.4222
 3191SOL    HW312531   4.232   6.142   2.523 -0.0588  0.1408  1.0790
 3191SOL    MW412532   4.305   6.134   2.570  0.3013 -0.1045  0.4903
 3192SOL     OW12533   0.639   3.243   6.276  0.4083  0.1004  0.0504
 3192SOL    HW212534   0.646   3.274   6.185 -1.3299 -2.3180 -1.0310
 3192SOL    HW312535   0.719   3.194   6.291  0.0680 -0.7259 -0.7460
 3192SOL    MW412536   0.650   3.241   6.266  0.1341 -0.3277 -0.1974
 3193SOL     OW12537   1.340   6.260   2.405  0.8482 -0.3990 -0.0014
 3193SOL    HW212538   1.302   6.347   2.399 -0.6192 -0.9610  0.7349
 3193SOL    HW312539   1.281   6.211   2.462  2.4806 -1.4346  0.9021
 3193SOL    MW412540   1.327   6.265   2.412  0.8699 -0.6098  0.2149
 3194SOL     OW12541   1.469   4.110   0.418  0.4202  0.2245  0.1453
 3194SOL    HW212542   1.443   4.037   0.361  0.1321  1.1914 -1.0059
 3194SOL    HW312543   1.523   4.166   0.362 -0.9082  1.8559  0.3895
 3194SOL    MW412544   1.473   4.108   0.403  0.2069  0.5673  0.0256
 3195SOL     OW12545   5.760   3.474   4.596  0.3221  0.2983  0.6047
 3195SOL    HW212546   5.849   3.493   4.566  0.2350  0.3707  0.3942
 3195SOL    HW312547   5.706   3.479   4.517 -0.3767  3.3467  1.1434
 3195SOL    MW412548   5.764   3.478   4.582  0.2184  0.7100  0.6480
 3196SOL     OW12549   5.252   2.795   5.670 -0.0518 -0.1285  0.1257
 3196SOL    HW212550   5.215   2.881   5.690 -0.1321 -0.2977  0.7525
 3196SOL    HW312551   5.178   2.734   5.681  0.0898 -0.3153  0.0459
 3196SOL    MW412552   5.237   2.798   5.674 -0.0437 -0.1755  0.1979
 3197SOL     OW12553   3.498   3.346   4.835 -0.1029  0.1394  0.0898
 3197SOL    HW212554   3.477   3.291   4.911 -0.4571 -0.0107 -0.1133
 3197SOL    HW312555   3.550   3.288   4.778  0.6590  0.4290  0.4725
 3197SOL    MW412556   3.502   3.331   4.838 -0.0491  0.1578  0.1135
 3198SOL     OW12557   1.530   5.616   0.837 -0.8062  0.3131 -0.0415
 3198SOL    HW212558   1.562   5.700   0.870 -0.1693  0.1662 -0.2754
 3198SOL    HW312559   1.490   5.637   0.752  0.4614  0.1978 -0.6802
 3198SOL    MW412560   1.529   5.630   0.830 -0.5549  0.2785 -0.1566
 3199SOL     OW12561   5.338   5.129   3.815  0.2116  0.0214  0.3320
 3199SOL    HW212562   5.364   5.111   3.725  0.9739 -0.0563  0.5572
 3199SOL    HW312563   5.248   5.160   3.809  0.6214  1.0857 -0.5802
 3199SOL    MW412564   5.330   5.131   3.803  0.3662  0.1516  0.2413
 3200SOL     OW12565   5.615   6.182   1.645 -0.9648 -0.7204  0.1865
 3200SOL    HW212566   5.569   6.265   1.651 -0.0090 -0.1964  0.4343
 3200SOL    HW312567   5.615   6.148   1.734  0.8178  0.2362  0.5976
 3200SOL    MW412568   5.609   6.188   1.657 -0.6035 -0.5250  0.2734
 3201SOL     OW12569   2.863   5.123   2.634  0.1849  0.3196  0.5732
 3201SOL    HW212570   2.939   5.177   2.611 -0.0826  0.5097  0.1260
 3201SOL    HW312571   2.875   5.042   2.583 -0.1561  0.5444  0.1258
 3201SOL    MW412572   2.875   5.119   2.624  0.1046  0.3744  0.4552
 3202SOL     OW12573   3.189   3.969   5.995  0.6308  0.0902 -0.6980
 3202SOL    HW212574   3.131   4.001   6.065 -0.3922 -0.7478 -1.1269
 3202SOL    HW312575   3.265   4.027   5.999 -0.7649  2.0678 -0.9228
 3202SOL    MW412576   3.191   3.981   6.005  0.3117  0.2405 -0.7842
 3203SOL     OW12577   4.651   1.057   6.294  0.2630  0.2083 -0.0916
 3203SOL    HW212578   4.744   1.036   6.287  0.5039  1.4085 -0.8511
 3203SOL    HW312579   4.627   1.027   6.382  0.8276 -2.0187 -0.6311
 3203SOL    MW412580   4.660   1.051   6.305  0.3693  0.0728 -0.2630
 3204SOL     OW12581   4.599   4.408   2.314 -0.1632  0.9372 -0.1629
 3204SOL    HW212582   4.546   4.463   2.372  1.3311  1.6616  0.5746
 3204SOL    HW312583   4.679   4.392   2.363 -0.2684 -1.3730 -0.6468
 3204SOL    MW412584   4.603   4.413   2.328  0.0201  0.7279 -0.1295
 3205SOL     OW12585   3.895   3.100   4.158 -0.1436  0.5207  0.1681
 3205SOL    HW212586   3.847   3.080   4.078 -0.3221  1.1447  0.1112
 3205SOL    HW312587   3.859   3.040   4.224  0.9224 -0.9264 -0.5045
 3205SOL    MW412588   3.884   3.090   4.156 -0.0265  0.4121  0.0719
 3206SOL     OW12589   3.712   2.838   3.438 -0.2335 -0.0460 -0.9489
 3206SOL    HW212590   3.625   2.869   3.462 -0.5262 -1.0266 -0.7163
 3206SOL    HW312591   3.744   2.794   3.517 -0.1223 -0.9582 -1.4969
 3206SOL    MW412592   3.705   2.836   3.452 -0.2575 -0.2957 -0.9905
 3207SOL     OW12593   5.182   1.814   5.770 -0.6446 -0.0551 -0.4409
 3207SOL    HW212594   5.090   1.788   5.762 -0.6228 -0.1830 -0.2849
 3207SOL    HW312595   5.229   1.753   5.714 -0.7817  0.8005 -1.5273
 3207SOL    MW412596   5.176   1.803   5.762 -0.6598  0.0409 -0.5637
 3208SOL     OW12597   1.834   5.600   3.519 -0.4927 -0.3578  0.2620
 3208SOL    HW212598   1.926   5.592   3.544 -0.5927 -1.4875  0.2963
 3208SOL    HW312599   1.834   5.589   3.424 -0.5576 -0.0103  0.2202
 3208SOL    MW412600   1.846   5.598   3.510 -0.5145 -0.4610  0.2610
 3209SOL     OW12601   3.055   3.134   2.947  0.5661  0.3265  0.6387
 3209SOL    HW212602   3.101   3.141   2.864  0.6329  1.4304  0.7522
 3209SOL    HW312603   3.112   3.079   3.002  1.1258  0.6232  0.3604
 3209SOL    MW412604   3.069   3.127   2.943  0.6488  0.5113  0.6170
 3210SOL     OW12605   3.606   3.380   2.084 -0.0500  0.1859  0.2192
 3210SOL    HW212606   3.655   3.322   2.142  1.5219  1.5675  0.3663
 3210SOL    HW312607   3.643   3.364   1.997 -2.3629 -1.8435 -0.5038
 3210SOL    MW412608   3.617   3.370   2.080 -0.1478  0.1004  0.1432
 3211SOL     OW12609   2.746   5.892   5.257 -0.4774  0.3664 -0.1529
 3211SOL    HW212610   2.673   5.833   5.274 -0.9378  0.7015 -0.8974
 3211SOL    HW312611   2.749   5.950   5.333  0.0808 -0.6935  0.6616
 3211SOL    MW412612   2.737   5.892   5.269 -0.4645  0.2708 -0.1436
 3212SOL     OW12613   4.604   5.090   3.272 -0.1632 -0.4731 -0.1399
 3212SOL    HW212614   4.554   5.152   3.325  0.0156  0.7403 -1.3409
 3212SOL    HW312615   4.673   5.142   3.231  1.5621 -1.9447  0.7556
 3212SOL    MW412616   4.606   5.105   3.273  0.0880 -0.5072 -0.1802
 3213SOL     OW12617   1.596   2.272   1.569  0.0194  0.0738 -0.5733
 3213SOL    HW212618   1.512   2.247   1.530  1.1995 -1.8659 -2.0778
 3213SOL    HW312619   1.661   2.237   1.508  1.9659 -1.0466  1.9801
 3213SOL    MW412620   1.593   2.264   1.556  0.4319 -0.3300 -0.4350
 3214SOL     OW12621   2.031   3.255   5.959 -0.3767  0.4421 -0.2648
 3214SOL    HW212622   2.064   3.273   6.047 -0.7064 -1.0778  0.2119
 3214SOL    HW312623   1.940   3.228   5.973 -0.3188 -0.1799 -1.0136
 3214SOL    MW412624   2.023   3.254   5.972 -0.4126  0.1595 -0.3007
 3215SOL     OW12625   2.899   2.903   4.280  0.4558  0.4542  0.3235
 3215SOL    HW212626   2.935   2.891   4.192  0.2705 -0.4386  0.3541
 3215SOL    HW312627   2.853   2.820   4.298 -0.8421  1.2139  0.6380
 3215SOL    MW412628   2.897   2.890   4.271  0.2601  0.4367  0.3690
 3216SOL     OW12629   1.643   3.698   0.919  0.2109  0.2551 -0.5121
 3216SOL    HW212630   1.629   3.788   0.947  0.7306  0.2652 -0.2713
 3216SOL    HW312631   1.736   3.695   0.893 -0.1437  0.1555 -1.8840
 3216SOL    MW412632   1.654   3.709   0.919  0.2327  0.2433 -0.6613
 3217SOL     OW12633   2.922   4.061   3.260 -0.1634 -0.1553  0.2998
 3217SOL    HW212634   2.880   4.039   3.343 -1.8929  1.5937 -0.0264
 3217SOL    HW312635   2.971   4.141   3.278 -0.6607  0.3160 -0.3739
 3217SOL    MW412636   2.923   4.069   3.273 -0.4572  0.1376  0.1679
 3218SOL     OW12637   0.218   1.909   3.474  0.5509  0.0247  0.0756
 3218SOL    HW212638   0.171   1.836   3.434  0.7512  0.4015 -0.8960
 3218SOL    HW312639   0.154   1.953   3.529  0.6758 -1.4264  1.4222
 3218SOL    MW412640   0.204   1.906   3.476  0.5938 -0.1171  0.1250
 3219SOL     OW12641   2.343   3.399   1.299 -0.0919 -0.2758 -0.2108
 3219SOL    HW212642   2.276   3.376   1.364 -0.4850  0.5986 -0.3009
 3219SOL    HW312643   2.385   3.315   1.279 -0.3980 -0.6670  0.6867
 3219SOL    MW412644   2.340   3.385   1.305 -0.1842 -0.2121 -0.1043
 3220SOL     OW12645   2.226   1.817   4.972  0.0146 -0.0816  0.3468
 3220SOL    HW212646   2.203   1.908   4.991  0.8247  0.2273 -0.1133
 3220SOL    HW312647   2.178   1.797   4.891 -0.6566 -0.2741  0.7818
 3220SOL    MW412648   2.217   1.826   4.963  0.0329 -0.0663  0.3435
 3221SOL     OW12649   5.336   3.820   1.406 -0.0707  0.0957  0.5613
 3221SOL    HW212650   5.285   3.849   1.482 -0.2775 -0.7806  0.7681
 3221SOL    HW312651   5.270   3.802   1.339 -0.0067 -0.5221  0.6554
 3221SOL    MW412652   5.320   3.822   1.407 -0.0895 -0.1014  0.6010
 3222SOL     OW12653   5.106   5.973   6.052  0.1362 -0.1640  0.7824
 3222SOL    HW212654   5.134   5.882   6.039 -0.4066 -0.2314 -0.0195
 3222SOL    HW312655   5.125   5.991   6.144 -0.9060 -1.5002  1.2904
 3222SOL    MW412656   5.112   5.963   6.062 -0.0729 -0.3492  0.7436
 3223SOL     OW12657   1.844   4.747   1.813  0.2237 -0.0022  0.2284
 3223SOL    HW212658   1.931   4.713   1.834  0.1832 -0.3631 -0.1882
 3223SOL    HW312659   1.849   4.774   1.722 -0.0177  0.2489  0.2873
 3223SOL    MW412660   1.856   4.746   1.804  0.1865 -0.0167  0.1812
 3224SOL     OW12661   2.029   3.801   1.222  0.7646  0.1768 -0.0838
 3224SOL    HW212662   1.971   3.796   1.298  1.5388  1.3062  0.6222
 3224SOL    HW312663   1.987   3.865   1.164  1.0043  0.5533  0.1565
 3224SOL    MW412664   2.016   3.809   1.224  0.8984  0.3755  0.0411
 3225SOL     OW12665   3.553   5.954   5.126  0.9091 -0.6894  0.1764
 3225SOL    HW212666   3.537   5.868   5.086  1.3387  0.0771 -1.7855
 3225SOL    HW312667   3.596   5.934   5.209 -0.5460 -2.4042  0.5792
 3225SOL    MW412668   3.557   5.940   5.132  0.7738 -0.8145 -0.0293
 3226SOL     OW12669   2.173   2.442   3.328 -0.2846 -1.1393  0.4661
 3226SOL    HW212670   2.211   2.354   3.331  1.4105 -0.5696 -1.7002
 3226SOL    HW312671   2.109   2.439   3.257  2.0832  0.0569 -1.9276
 3226SOL    MW412672   2.169   2.430   3.319  0.2515 -0.9063 -0.1356
 3227SOL     OW12673   5.669   2.664   3.049 -0.5884  0.2614  0.3856
 3227SOL    HW212674   5.665   2.663   3.145 -1.2985 -1.5357  0.3711
 3227SOL    HW312675   5.684   2.573   3.025  3.4771  1.1051 -1.1111
 3227SOL    MW412676   5.671   2.652   3.058 -0.1457  0.1356  0.1863
 3228SOL     OW12677   4.935   2.881   4.588  0.3339  0.0622  0.1783
 3228SOL    HW212678   4.876   2.916   4.521  1.3405  2.0416  0.2728
 3228SOL    HW312679   4.877   2.837   4.650 -0.6477 -1.6786 -1.8430
 3228SOL    MW412680   4.919   2.880   4.587  0.3372  0.0937 -0.0759
 3229SOL     OW12681   0.005   5.527   6.400 -0.6532  0.0863 -0.4648
 3229SOL    HW212682  -0.069   5.583   6.376 -0.5476  0.0750 -0.8314
 3229SOL    HW312683  -0.025   5.438   6.381 -1.1684 -0.0877  1.0070
 3229SOL    MW412684  -0.009   5.523   6.394 -0.7073  0.0618 -0.3190
 3230SOL     OW12685   0.136   0.276   2.544 -0.3098  0.2925  0.8894
 3230SOL    HW212686   0.116   0.187   2.516 -0.5426  0.4377  0.5875
 3230SOL    HW312687   0.083   0.288   2.623 -1.7536  0.7946 -0.0947
 3230SOL    MW412688   0.126   0.266   2.551 -0.5310  0.3779  0.7197
 3231SOL     OW12689   2.054   5.076   0.823 -0.2291  0.3574  0.2710
 3231SOL    HW212690   2.103   5.083   0.905 -1.8270 -2.1626  1.5565
 3231SOL    HW312691   1.964   5.057   0.850 -0.1527 -4.5442 -1.8881
 3231SOL    MW412692   2.049   5.074   0.837 -0.4298 -0.6218  0.1558
 3232SOL     OW12693   5.930   6.310   4.409  0.3508 -0.0107  0.2765
 3232SOL    HW212694   6.006   6.324   4.465 -0.0823  1.1147  0.6191
 3232SOL    HW312695   5.871   6.254   4.460  0.3013  0.3611  0.6284
 3232SOL    MW412696   5.932   6.305   4.423  0.2871  0.1869  0.3681
 3233SOL     OW12697   3.973   5.228   3.607  0.0707  0.2870  0.1838
 3233SOL    HW212698   3.930   5.182   3.534 -0.3191  0.0879  0.5403
 3233SOL    HW312699   3.929   5.313   3.611  0.9864  0.8271 -0.6630
 3233SOL    MW412700   3.962   5.233   3.598  0.1401  0.3320  0.1191
 3234SOL     OW12701   4.282   1.126   1.565  0.3425 -0.2012  0.1026
 3234SOL    HW212702   4.296   1.189   1.494 -1.6352  1.4374  1.0565
 3234SOL    HW312703   4.211   1.070   1.533 -0.1771  0.1959  0.5368
 3234SOL    MW412704   4.275   1.127   1.551  0.0130  0.0674  0.2857
 3235SOL     OW12705   4.722   3.508   0.374  0.9000  0.4731 -0.2418
 3235SOL    HW212706   4.687   3.562   0.444  0.9232 -1.0820  1.0176
 3235SOL    HW312707   4.660   3.436   0.366  1.4806  0.0476 -1.0678
 3235SOL    MW412708   4.709   3.505   0.382  0.9797  0.2118 -0.1846
 3236SOL     OW12709   1.139   0.706   2.124 -0.1790  0.0786  0.0879
 3236SOL    HW212710   1.219   0.679   2.079 -0.7427 -0.3300 -0.7038
 3236SOL    HW312711   1.163   0.785   2.172  0.7510 -0.1679  0.0426
 3236SOL    MW412712   1.152   0.713   2.124 -0.1307 -0.0078 -0.0226
 3237SOL     OW12713   2.810   1.331   2.898  0.6316 -0.3875  0.1785
 3237SOL    HW212714   2.831   1.238   2.893 -0.2626 -0.5385 -1.1809
 3237SOL    HW312715   2.717   1.337   2.876  0.7072  0.8349  0.1049
 3237SOL    MW412716   2.801   1.320   2.894  0.5236 -0.2461 -0.0106
 3238SOL     OW12717   1.158   6.153   3.467 -0.0134  0.3967 -0.0565
 3238SOL    HW212718   1.090   6.187   3.525  0.4569 -0.9372  1.3171
 3238SOL    HW312719   1.119   6.158   3.380 -0.5541  2.9210  0.2471
 3238SOL    MW412720   1.144   6.158   3.463 -0.0227  0.5538  0.1648
 3239SOL     OW12721   5.179   3.274   1.005  0.6838 -0.0331 -0.4393
 3239SOL    HW212722   5.120   3.242   0.936 -1.1104  1.8805  0.0852
 3239SOL    HW312723   5.150   3.364   1.021  1.4545 -0.1944  2.3684
 3239SOL    MW412724   5.167   3.281   0.998  0.5487  0.1981  0.0003
 3240SOL     OW12725   3.945   5.437   4.364 -0.0370  0.1813 -0.2385
 3240SOL    HW212726   4.006   5.366   4.347 -0.9529 -0.4813 -0.8815
 3240SOL    HW312727   3.913   5.422   4.453  0.9676  0.7295  0.2317
 3240SOL    MW412728   3.949   5.426   4.373 -0.0253  0.1662 -0.2613
 3241SOL     OW12729   0.389   0.953   2.033  0.3579 -0.1055 -0.5032
 3241SOL    HW212730   0.386   0.861   2.006 -1.9616  0.3504 -2.0749
 3241SOL    HW312731   0.300   0.985   2.021  0.3051  1.5786  3.0530
 3241SOL    MW412732   0.377   0.945   2.028  0.0449  0.1769 -0.2414
 3242SOL     OW12733   3.877   4.782   4.671  0.5249 -0.2394 -0.1940
 3242SOL    HW212734   3.822   4.706   4.650  0.2816  0.1202 -0.8565
 3242SOL    HW312735   3.928   4.753   4.746 -0.0304 -0.8423 -0.0331
 3242SOL    MW412736   3.876   4.768   4.678  0.4195 -0.2715 -0.2601
 3243SOL     OW12737   0.144   1.941   5.942  0.0786 -0.3549  0.0901
 3243SOL    HW212738   0.184   2.017   5.900 -1.3568 -0.2043 -1.0695
 3243SOL    HW312739   0.058   1.971   5.972 -0.3226 -1.3937  0.0365
 3243SOL    MW412740   0.138   1.955   5.941 -0.1637 -0.4721 -0.0699
 3244SOL     OW12741   2.934   2.615   1.684 -0.2775  0.0069 -0.2295
 3244SOL    HW212742   2.880   2.595   1.608 -1.1171  3.5489 -0.7333
 3244SOL    HW312743   3.023   2.592   1.658 -0.6117  0.7207 -2.1451
 3244SOL    MW412744   2.938   2.609   1.671 -0.4324  0.5684 -0.5487
 3245SOL     OW12745   0.357   0.051   5.527  0.2481  0.0618  0.4423
 3245SOL    HW212746   0.347   0.128   5.583  1.6343 -0.5885  1.6444
 3245SOL    HW312747   0.451   0.032   5.530 -0.1645 -2.1006  0.7619
 3245SOL    MW412748   0.368   0.059   5.534  0.3765 -0.3093  0.6431
 3246SOL     OW12749   3.800   1.851   5.045 -0.1655  0.4450  0.2036
 3246SOL    HW212750   3.815   1.833   5.138  0.3692  0.5841  0.1487
 3246SOL    HW312751   3.811   1.766   5.003 -3.5287 -0.3244  0.5886
 3246SOL    MW412752   3.803   1.837   5.052 -0.5387  0.3619  0.2472
 3247SOL     OW12753   6.201   2.161   0.061  0.0256  0.1731 -0.0808
 3247SOL    HW212754   6.105   2.161   0.054  0.1231 -0.1651 -1.8173
 3247SOL    HW312755   6.223   2.253   0.075 -0.5529  0.2593  0.3195
 3247SOL    MW412756   6.191   2.173   0.062 -0.0378  0.1399 -0.2571
 3248SOL     OW12757   5.451   5.724   1.320  0.1289 -0.3649  0.1450
 3248SOL    HW212758   5.396   5.766   1.386  1.0154  2.2580 -0.6261
 3248SOL    HW312759   5.514   5.673   1.370 -1.5717 -1.5866  1.1176
 3248SOL    MW412760   5.452   5.723   1.335  0.0215 -0.1800  0.1716
 3249SOL     OW12761   2.938   1.441   4.581  0.1056  0.1942  0.6573
 3249SOL    HW212762   3.012   1.384   4.603  0.0076  0.1337  0.8259
 3249SOL    HW312763   2.894   1.458   4.664 -0.1088  0.1791  0.5476
 3249SOL    MW412764   2.942   1.436   4.595  0.0644  0.1843  0.6651
 3250SOL     OW12765   2.319   4.001   2.399 -0.4162  0.2466 -0.1508
 3250SOL    HW212766   2.372   3.967   2.471 -0.2797  1.3734  0.3004
 3250SOL    HW312767   2.378   4.056   2.348 -0.9504  0.8883 -0.0915
 3250SOL    MW412768   2.334   4.004   2.402 -0.4687  0.4799 -0.0834
 3251SOL     OW12769   0.680   0.868   2.476  0.2410  0.4916  0.1321
 3251SOL    HW212770   0.733   0.793   2.504  0.1811  0.6581  0.7217
 3251SOL    HW312771   0.641   0.901   2.558 -0.8132  0.3420 -0.3004
 3251SOL    MW412772   0.682   0.863   2.491  0.0940  0.4938  0.1528
 3252SOL     OW12773   6.218   0.870   0.775  0.1070  0.3165  0.2503
 3252SOL    HW212774   6.139   0.898   0.729 -0.0981 -0.8963 -0.1702
 3252SOL    HW312775   6.193   0.871   0.868 -1.0608 -1.9038  0.0214
 3252SOL    MW412776   6.204   0.874   0.781 -0.0741 -0.1365  0.1647
 3253SOL     OW12777   6.273   4.369   4.671  0.1397  0.2926  0.3017
 3253SOL    HW212778   6.353   4.321   4.647 -1.4674 -1.9754 -0.9387
 3253SOL    HW312779   6.249   4.415   4.591 -0.8594 -0.7094 -0.0022
 3253SOL    MW412780   6.280   4.369   4.657 -0.2041 -0.1388  0.0979
 3254SOL     OW12781   3.526   4.533   2.833 -0.0411 -0.2294  0.3544
 3254SOL    HW212782   3.568   4.558   2.750 -0.2651 -2.2848 -0.4379
 3254SOL    HW312783   3.507   4.440   2.823 -3.5937  0.2501  1.2000
 3254SOL    MW412784   3.529   4.524   2.821 -0.5394 -0.4373  0.3615
 3255SOL     OW12785   3.908   0.296   0.895  0.7514  0.1011 -0.4310
 3255SOL    HW212786   3.928   0.268   0.984 -0.6628  4.0916  1.4204
 3255SOL    HW312787   3.934   0.389   0.893 -2.9862  1.3158 -2.7497
 3255SOL    MW412788   3.914   0.305   0.906  0.0717  0.7879 -0.4927
 3256SOL     OW12789   3.711   3.198   4.708  0.1416 -0.1723 -0.1837
 3256SOL    HW212790   3.748   3.285   4.694  1.6442 -0.7534  0.0437
 3256SOL    HW312791   3.763   3.160   4.778 -0.8031 -1.0852  0.0461
 3256SOL    MW412792   3.723   3.204   4.715  0.2152 -0.3694 -0.1234
 3257SOL     OW12793   1.600   5.762   2.652  0.3246  0.6629 -0.0603
 3257SOL    HW212794   1.692   5.746   2.629  0.4466  0.5729  0.4876
 3257SOL    HW312795   1.603   5.841   2.706  0.3946 -0.7848  2.1762
 3257SOL    MW412796   1.613   5.770   2.656  0.3499  0.4600  0.3071
 3258SOL     OW12797   3.473   2.188   5.138 -0.6831 -0.3279  0.8712
 3258SOL    HW212798   3.460   2.250   5.210 -2.7253  2.2657 -1.4941
 3258SOL    HW312799   3.565   2.199   5.113 -0.6033  0.6000  1.5287
 3258SOL    MW412800   3.483   2.198   5.144 -0.9420  0.1367  0.6459
 3259SOL     OW12801   4.663   5.752   4.906  0.4616  0.3116 -0.2515
 3259SOL    HW212802   4.598   5.821   4.895  0.8818  0.8818  0.6698
 3259SOL    HW312803   4.666   5.737   5.001  0.9764 -0.3872 -0.3664
 3259SOL    MW412804   4.655   5.759   4.917  0.5850  0.2947 -0.1451
 3260SOL     OW12805   3.976   4.183   5.326 -0.3486  0.5601 -0.5572
 3260SOL    HW212806   3.968   4.104   5.379  0.4470  1.8964  1.7056
 3260SOL    HW312807   3.886   4.212   5.311 -0.6546  1.5284  2.4171
 3260SOL    MW412808   3.963   4.177   5.331 -0.2840  0.8642  0.1338
 3261SOL     OW12809   3.088   1.685   6.079 -0.0110  0.3643  0.1646
 3261SOL    HW212810   3.169   1.714   6.038  0.8668 -1.7345  0.2894
 3261SOL    HW312811   3.115   1.644   6.161 -1.0175 -1.4187 -0.3227
 3261SOL    MW412812   3.102   1.683   6.084 -0.0280 -0.1479  0.1167
 3262SOL     OW12813   5.889   4.015   1.751  0.0523 -0.2052  0.2218
 3262SOL    HW212814   5.838   3.995   1.672  2.2066 -1.7360 -0.8579
 3262SOL    HW312815   5.952   4.082   1.722 -0.0446  0.2552  1.0376
 3262SOL    MW412816   5.890   4.021   1.737  0.3237 -0.3464  0.1870
 3263SOL     OW12817   0.194   0.992   3.762  0.0750 -0.3172 -0.0008
 3263SOL    HW212818   0.179   1.053   3.690 -0.3340  0.0972  0.4226
 3263SOL    HW312819   0.288   0.974   3.760  0.2772  0.6385  0.0971
 3263SOL    MW412820   0.204   0.998   3.752  0.0477 -0.1364  0.0680
 3264SOL     OW12821   1.622   4.805   4.952  0.1487  0.1053 -0.2025
 3264SOL    HW212822   1.571   4.748   5.008  0.0499  0.9712  0.6267
 3264SOL    HW312823   1.587   4.791   4.864 -0.6116 -0.2841  0.1528
 3264SOL    MW412824   1.611   4.796   4.948  0.0353  0.1682 -0.0463
 3265SOL     OW12825   0.310   0.088   5.985  0.0581 -0.0575  0.0293
 3265SOL    HW212826   0.252   0.080   5.909 -0.7688 -1.2838  0.7589
 3265SOL    HW312827   0.397   0.069   5.951 -0.3617 -1.0019 -0.5457
 3265SOL    MW412828   0.313   0.085   5.970 -0.1064 -0.3439  0.0497
 3266SOL     OW12829   2.094   4.686   5.259 -0.0228  0.4764  0.5216
 3266SOL    HW212830   2.122   4.624   5.327 -1.1370  0.7540  1.2473
 3266SOL    HW312831   1.999   4.677   5.256 -0.1382  1.6996  0.1924
 3266SOL    MW412832   2.085   4.676   5.268 -0.1851  0.6744  0.5739
 3267SOL     OW12833   6.028   0.131   0.843  0.0806 -0.0887 -0.4982
 3267SOL    HW212834   6.051   0.148   0.934 -0.4217 -0.4531 -0.2980
 3267SOL    HW312835   6.110   0.138   0.795  0.3878 -0.1370  0.0207
 3267SOL    MW412836   6.042   0.134   0.849  0.0549 -0.1432 -0.4033
 3268SOL     OW12837   2.711   6.113   0.899  0.3030  0.6861 -0.2314
 3268SOL    HW212838   2.763   6.189   0.870  0.8366 -0.1492 -1.5596
 3268SOL    HW312839   2.705   6.057   0.821  2.0495 -1.8378  1.3112
 3268SOL    MW412840   2.717   6.116   0.885  0.6038  0.2429 -0.2031
 3269SOL     OW12841   4.169   0.204   1.846  0.0138  0.0391 -0.3228
 3269SOL    HW212842   4.128   0.160   1.921  1.5431 -0.3583  0.3196
 3269SOL    HW312843   4.129   0.163   1.770  0.3184 -1.4447  0.2767
 3269SOL    MW412844   4.158   0.192   1.846  0.2558 -0.2091 -0.1589
 3270SOL     OW12845   1.442   0.360   5.581 -0.1008 -0.5293 -0.3691
 3270SOL    HW212846   1.364   0.400   5.619  1.0465  0.7184  0.7390
 3270SOL    HW312847   1.444   0.393   5.491 -1.3487 -1.3369 -0.7170
 3270SOL    MW412848   1.432   0.370   5.574 -0.1141 -0.4712 -0.2688
 3271SOL     OW12849   4.038   4.638   2.532 -0.2343  0.5815 -0.3977
 3271SOL    HW212850   4.105   4.570   2.528 -0.3374  0.3072  1.5441
 3271SOL    HW312851   4.029   4.657   2.625 -3.4754 -0.0372 -0.4593
 3271SOL    MW412852   4.046   4.632   2.543 -0.6756  0.4637 -0.1496
 3272SOL     OW12853   1.489   4.272   6.377  0.1795 -0.3575 -0.2353
 3272SOL    HW212854   1.454   4.342   6.432  0.3059 -0.1623 -0.4010
 3272SOL    HW312855   1.442   4.194   6.405  1.5344 -0.6441  1.4611
 3272SOL    MW412856   1.479   4.271   6.388  0.3750 -0.3696 -0.0333
 3273SOL     OW12857   5.779   3.537   3.779  0.2144  0.0446 -0.0855
 3273SOL    HW212858   5.687   3.512   3.781  0.9601 -3.1117  1.3022
 3273SOL    HW312859   5.799   3.564   3.869  1.2991 -2.5055  0.5254
 3273SOL    MW412860   5.769   3.537   3.791  0.4559 -0.7083  0.1782
 3274SOL     OW12861   3.849   3.821   5.953  0.6748  0.1836  0.1177
 3274SOL    HW212862   3.821   3.775   5.874 -0.2832 -2.6900  1.9622
 3274SOL    HW312863   3.817   3.910   5.942 -2.5637 -0.9939 -1.2526
 3274SOL    MW412864   3.841   3.826   5.941  0.1211 -0.3509  0.1803
 3275SOL     OW12865   1.110   5.393   3.829 -0.0460  0.0265  0.1543
 3275SOL    HW212866   1.026   5.428   3.798 -0.0311 -0.8237 -0.9227
 3275SOL    HW312867   1.165   5.390   3.751  0.3113 -1.3203  0.4218
 3275SOL    MW412868   1.106   5.397   3.815  0.0031 -0.2633  0.0475
 3276SOL     OW12869   0.766   3.505   1.925 -0.3304 -0.3097 -0.4187
 3276SOL    HW212870   0.762   3.437   1.992  0.6064 -0.6425 -0.6921
 3276SOL    HW312871   0.834   3.477   1.865  1.0979  1.5117  0.2217
 3276SOL    MW412872   0.775   3.493   1.926 -0.0183 -0.1133 -0.3703
 3277SOL     OW12873   2.410   1.317   6.232 -0.0309 -0.2584  0.4184
 3277SOL    HW212874   2.378   1.377   6.299 -0.1111  0.9814 -0.6758
 3277SOL    HW312875   2.366   1.234   6.250 -0.1302  0.0763  1.8151
 3277SOL    MW412876   2.400   1.314   6.243 -0.0546 -0.0507  0.4583
 3278SOL     OW12877   0.587   1.813   3.106 -0.2429  0.0748 -0.3345
 3278SOL    HW212878   0.589   1.909   3.112  0.4974  0.1643 -1.5938
 3278SOL    HW312879   0.495   1.790   3.119  0.0325  0.5874  3.9714
 3278SOL    MW412880   0.575   1.823   3.109 -0.1089  0.1543  0.0675
 3279SOL     OW12881   2.939   3.529   5.357 -0.5183 -0.3661 -0.0966
 3279SOL    HW212882   2.951   3.559   5.267  0.0515 -0.3655 -0.0277
 3279SOL    HW312883   3.018   3.477   5.376  0.7320  1.8857  1.2984
 3279SOL    MW412884   2.951   3.526   5.348 -0.2782 -0.0689  0.0965
 3280SOL     OW12885   5.227   5.102   1.577  0.1081  0.0645 -0.3354
 3280SOL    HW212886   5.166   5.030   1.593 -0.2923  0.1181 -1.5166
 3280SOL    HW312887   5.291   5.095   1.648 -1.7335  0.5439  1.4845
 3280SOL    MW412888   5.227   5.091   1.589 -0.1877  0.1348 -0.2511
 3281SOL     OW12889   2.165   3.205   3.370 -0.0015 -0.2270  0.1658
 3281SOL    HW212890   2.203   3.238   3.289 -1.7967  1.8495  0.0656
 3281SOL    HW312891   2.208   3.256   3.439  0.0275 -0.4951  0.3466
 3281SOL    MW412892   2.175   3.216   3.369 -0.2345  0.0116  0.1765
 3282SOL     OW12893   5.048   5.334   1.993 -0.0142  0.2841  1.0246
 3282SOL    HW212894   5.127   5.374   1.956 -1.4444  1.4786 -0.8926
 3282SOL    HW312895   4.975   5.378   1.949 -1.7669 -3.6056 -0.4300
 3282SOL    MW412896   5.049   5.345   1.982 -0.4341 -0.0715  0.5797
 3283SOL     OW12897   2.090   5.667   2.370  0.5711 -0.0167 -0.0020
 3283SOL    HW212898   2.185   5.658   2.384  0.6957  1.0574 -0.0812
 3283SOL    HW312899   2.062   5.580   2.341  1.6024 -0.2449 -0.3717
 3283SOL    MW412900   2.099   5.654   2.368  0.7236  0.0949 -0.0613
 3284SOL     OW12901   0.892   2.682   4.711 -0.2821  0.7559 -0.2854
 3284SOL    HW212902   0.954   2.626   4.664 -0.9916 -0.5715  0.3261
 3284SOL    HW312903   0.945   2.723   4.779  0.2610  0.9231 -0.7946
 3284SOL    MW412904   0.907   2.680   4.714 -0.3040  0.6028 -0.2719
 3285SOL     OW12905   2.509   1.422   2.861 -0.5696  0.2403  0.4988
 3285SOL    HW212906   2.467   1.376   2.788  0.1615 -0.8581  0.7428
 3285SOL    HW312907   2.451   1.406   2.936 -0.1175 -0.6470  0.6714
 3285SOL    MW412908   2.496   1.414   2.861 -0.4135 -0.0217  0.5538
 3286SOL     OW12909   6.247   1.709   0.775 -0.0874  0.2528 -0.0983
 3286SOL    HW212910   6.152   1.719   0.779 -0.0638 -0.0325  2.3813
 3286SOL    HW312911   6.280   1.760   0.848  1.3953 -2.3566  1.1879
 3286SOL    MW412912   6.238   1.717   0.785  0.1113 -0.1291  0.3985
 3287SOL     OW12913   3.433   2.628   6.182 -0.0976 -0.2067  0.1899
 3287SOL    HW212914   3.388   2.647   6.264  0.3672  0.0479  0.3944
 3287SOL    HW312915   3.484   2.549   6.202 -0.6163 -0.6203 -0.1056
 3287SOL    MW412916   3.434   2.620   6.196 -0.1047 -0.2277  0.1779
 3288SOL     OW12917   0.388   5.578   1.572 -0.4840 -0.6353  0.1495
 3288SOL    HW212918   0.362   5.550   1.660 -0.9310  0.2757  0.3155
 3288SOL    HW312919   0.482   5.563   1.569 -0.6007 -1.4944  0.4739
 3288SOL    MW412920   0.397   5.572   1.583 -0.5584 -0.6284  0.2142
 3289SOL     OW12921   4.600   2.116   3.106  0.0645 -0.4278 -0.4134
 3289SOL    HW212922   4.683   2.094   3.148 -0.6852 -1.3041  0.6597
 3289SOL    HW312923   4.535   2.059   3.148 -0.9913 -0.1977 -1.6539
 3289SOL    MW412924   4.602   2.106   3.117 -0.1737 -0.5130 -0.4355
 3290SOL     OW12925   5.234   3.740   6.413  0.5144 -0.4697 -0.3991
 3290SOL    HW212926   5.146   3.767   6.387  0.6275 -0.4427 -0.7608
 3290SOL    HW312927   5.221   3.658   6.460  0.3871 -0.9874 -1.3188
 3290SOL    MW412928   5.221   3.733   6.416  0.5125 -0.5345 -0.5681
 3291SOL     OW12929   3.647   1.666   2.497  0.1121 -0.4489 -0.4159
 3291SOL    HW212930   3.682   1.638   2.582 -1.2389 -1.1385 -0.0641
 3291SOL    HW312931   3.718   1.649   2.435  0.2968 -2.1442  0.2178
 3291SOL    MW412932   3.661   1.660   2.500 -0.0418 -0.7635 -0.2859
 3292SOL     OW12933   1.646   5.182   3.896 -0.1853 -0.1078 -0.0179
 3292SOL    HW212934   1.665   5.110   3.836  0.2561 -2.0101  2.2592
 3292SOL    HW312935   1.733   5.215   3.921 -0.3842  1.2720 -1.0422
 3292SOL    MW412936   1.660   5.177   3.891 -0.1533 -0.1768  0.1474
 3293SOL     OW12937   2.414   0.405   0.108  0.4333  0.2561  0.1261
 3293SOL    HW212938   2.399   0.451   0.190 -1.5003  1.3785 -0.7845
 3293SOL    HW312939   2.332   0.359   0.090  0.8358 -0.0267 -1.1320
 3293SOL    MW412940   2.401   0.405   0.116  0.2313  0.3669 -0.1600
 3294SOL     OW12941   0.047   3.479   3.720  0.0107 -0.2761 -0.2536
 3294SOL    HW212942  -0.048   3.484   3.720  0.0100  0.0123 -1.5670
 3294SOL    HW312943   0.066   3.385   3.710 -0.1069 -0.4839  1.2630
 3294SOL    MW412944   0.037   3.467   3.719 -0.0049 -0.2655 -0.2268
 3295SOL     OW12945   3.790   4.056   1.043  0.0849  0.1610 -0.2103
 3295SOL    HW212946   3.752   3.995   0.980  1.1430  1.5644 -2.2803
 3295SOL    HW312947   3.883   4.033   1.046  0.6569  2.1273 -1.6308
 3295SOL    MW412948   3.797   4.045   1.035  0.3000  0.6056 -0.6708
 3296SOL     OW12949   2.856   5.753   0.766 -0.1297 -0.3291 -0.3568
 3296SOL    HW212950   2.808   5.804   0.702  1.9562  0.9029 -1.0320
 3296SOL    HW312951   2.798   5.749   0.842 -0.2899  3.4098 -0.1188
 3296SOL    MW412952   2.842   5.759   0.768  0.1244  0.3267 -0.4145
 3297SOL     OW12953   0.110   2.556   5.883  0.1560  0.1265 -0.2340
 3297SOL    HW212954   0.076   2.476   5.841  1.4007 -0.5745  0.0326
 3297SOL    HW312955   0.064   2.627   5.840 -0.1340 -0.6875 -1.3250
 3297SOL    MW412956   0.100   2.555   5.872  0.2820 -0.0734 -0.3428
 3298SOL     OW12957   0.956   1.855   1.213  0.0135  0.5520 -0.1280
 3298SOL    HW212958   0.987   1.799   1.283  1.0880  2.3252  0.9069
 3298SOL    HW312959   1.019   1.843   1.142  1.8255  2.2863  1.0546
 3298SOL    MW412960   0.968   1.846   1.213  0.3943  1.0148  0.1646
 3299SOL     OW12961   6.115   0.606   4.754  0.4892  0.6763 -0.5391
 3299SOL    HW212962   6.097   0.635   4.665 -0.0248  0.1787 -0.6073
 3299SOL    HW312963   6.039   0.553   4.777 -0.2624  2.2587  0.8527
 3299SOL    MW412964   6.103   0.603   4.745  0.3222  0.8194 -0.3645
 3300SOL     OW12965   2.642   0.949   3.709  0.1064 -0.1489 -0.0938
 3300SOL    HW212966   2.649   0.934   3.615  1.9899  0.1349 -0.0498
 3300SOL    HW312967   2.723   0.911   3.745 -1.8766 -2.9470  1.8223
 3300SOL    MW412968   2.654   0.942   3.701  0.0932 -0.4806  0.1648
 3301SOL     OW12969   4.554   5.458   4.582 -0.6583 -0.6970  0.0767
 3301SOL    HW212970   4.501   5.527   4.544  2.0155  2.0891  1.0200
 3301SOL    HW312971   4.612   5.429   4.511  0.1684  0.1621  0.3704
 3301SOL    MW412972   4.555   5.463   4.568 -0.1964 -0.2160  0.2399
 3302SOL     OW12973   1.952   0.382   4.715  0.2518  0.3175  0.1229
 3302SOL    HW212974   1.924   0.318   4.781  1.0628 -1.2549 -0.9942
 3302SOL    HW312975   2.046   0.367   4.705  0.2341  0.8665 -1.0349
 3302SOL    MW412976   1.961   0.371   4.722  0.3564  0.1825 -0.1772
 3303SOL     OW12977   6.111   1.836   4.545 -0.2480  0.8042  0.3674
 3303SOL    HW212978   6.066   1.753   4.528 -0.5651  1.0705 -0.1363
 3303SOL    HW312979   6.204   1.813   4.548 -0.1780  0.6473 -1.4428
 3303SOL    MW412980   6.118   1.822   4.543 -0.2806  0.8186  0.0621
 3304SOL     OW12981   6.392   6.137   5.436 -0.1398  0.1590  0.1166
 3304SOL    HW212982   6.433   6.209   5.483  3.5177 -1.4262 -0.2471
 3304SOL    HW312983   6.400   6.062   5.495 -1.8391 -0.4310 -0.3570
 3304SOL    MW412984   6.399   6.136   5.450  0.1185 -0.1280  0.0061
 3305SOL     OW12985   0.053   1.240   5.550  0.3370 -0.3551 -0.3661
 3305SOL    HW212986  -0.030   1.224   5.504 -0.5480  1.6409  0.4491
 3305SOL    HW312987   0.042   1.197   5.635  0.4447 -0.7038 -0.5239
 3305SOL    MW412988   0.041   1.232   5.555  0.2344 -0.1377 -0.2794
 3306SOL     OW12989   0.946   5.557   0.328 -0.2018 -0.5426  0.3457
 3306SOL    HW212990   0.991   5.618   0.269  1.4401  0.0532  2.1048
 3306SOL    HW312991   0.939   5.476   0.278 -1.5787  0.7442 -1.7128
 3306SOL    MW412992   0.951   5.555   0.313 -0.1669 -0.2942  0.3062
 3307SOL     OW12993   6.197   0.063   1.465 -0.2473 -0.7017  0.1748
 3307SOL    HW212994   6.246  -0.013   1.433  0.4157 -0.0583 -0.3947
 3307SOL    HW312995   6.105   0.037   1.460 -0.0229 -1.4888  0.0582
 3307SOL    MW412996   6.191   0.050   1.460 -0.1303 -0.7206  0.0843
 3308SOL     OW12997   3.687   4.000   1.347 -0.1335 -0.1448 -0.8896
 3308SOL    HW212998   3.777   4.030   1.331  0.0210 -0.0199  0.1457
 3308SOL    HW312999   3.639   4.024   1.268  0.4688  0.8949 -0.9530
 3308SOL    MW413000   3.693   4.007   1.334 -0.0337  0.0089 -0.7614
 3309SOL     OW13001   5.715   3.477   1.481 -0.0332 -0.4093 -0.8937
 3309SOL    HW213002   5.664   3.557   1.469 -1.8836 -1.4394 -0.2397
 3309SOL    HW313003   5.669   3.410   1.430 -0.2553 -1.7210  0.9169
 3309SOL    MW413004   5.702   3.478   1.472 -0.3067 -0.7183 -0.5685
 3310SOL     OW13005   5.848   6.376   2.199 -0.3841  0.5493 -0.1107
 3310SOL    HW213006   5.770   6.376   2.144  1.2622 -0.4497 -2.6507
 3310SOL    HW313007   5.907   6.438   2.156 -0.3493  2.7675  2.8165
 3310SOL    MW413008   5.846   6.384   2.186 -0.1623  0.7102 -0.0596
 3311SOL     OW13009   5.485   0.434   4.086  0.4398 -0.0173 -0.3652
 3311SOL    HW213010   5.576   0.460   4.105  0.8071 -0.2974 -1.6296
 3311SOL    HW313011   5.476   0.449   3.992 -0.9030  0.2009 -0.2109
 3311SOL    MW413012   5.496   0.439   4.076  0.3111 -0.0254 -0.5116
 3312SOL     OW13013   2.083   3.004   5.404  0.7228  0.4298  0.2451
 3312SOL    HW213014   2.150   2.937   5.392 -0.1949 -0.5444  0.4322
 3312SOL    HW313015   2.112   3.053   5.481  1.0105 -0.2450  0.5699
 3312SOL    MW413016   2.095   3.002   5.413  0.6397  0.2123  0.3127
 3313SOL     OW13017   3.566   2.441   5.744 -0.0284  0.4762 -0.1560
 3313SOL    HW213018   3.626   2.420   5.815 -0.6922 -3.3523 -0.5200
 3313SOL    HW313019   3.483   2.460   5.787  0.0701  0.1744  0.1695
 3313SOL    MW413020   3.563   2.441   5.759 -0.1030 -0.0687 -0.1611
 3314SOL     OW13021   3.361   4.021   6.346 -0.3816  0.8459  0.5185
 3314SOL    HW213022   3.379   4.005   6.253  0.7558  1.3218  0.6422
 3314SOL    HW313023   3.284   3.968   6.365 -0.8955  1.0697 -0.8033
 3314SOL    MW413024   3.353   4.012   6.336 -0.2994  0.9382  0.3604
 3315SOL     OW13025   5.879   2.906   3.279 -0.3926  0.2710 -0.4114
 3315SOL    HW213026   5.909   2.883   3.367 -0.5017 -1.9019 -0.8800
 3315SOL    HW313027   5.916   2.838   3.223 -1.3688  0.8963 -1.8701
 3315SOL    MW413028   5.888   2.894   3.283 -0.5358  0.0668 -0.6657
 3316SOL     OW13029   1.029   3.692   3.331  0.0419 -0.2721  0.1345
 3316SOL    HW213030   0.938   3.718   3.348  0.0973  1.0136 -1.3541
 3316SOL    HW313031   1.046   3.721   3.241  1.9450 -0.4243  0.4085
 3316SOL    MW413032   1.019   3.700   3.322  0.3003 -0.1225 -0.0258
 3317SOL     OW13033   6.241   2.376   4.113  1.0833  0.0433  0.6066
 3317SOL    HW213034   6.238   2.351   4.206  1.3361 -0.3154  0.5227
 3317SOL    HW313035   6.231   2.471   4.113  1.5466  0.0976  1.0357
 3317SOL    MW413036   6.240   2.385   4.125  1.1778  0.0032  0.6522
 3318SOL     OW13037   6.140   0.868   1.801  0.1544  0.3211  0.6965
 3318SOL    HW213038   6.200   0.910   1.740 -1.1667  0.6410 -0.4302
 3318SOL    HW313039   6.121   0.935   1.866 -0.4381  0.8383 -0.0022
 3318SOL    MW413040   6.146   0.882   1.801 -0.0981  0.4316  0.4557
 3319SOL     OW13041   3.603   5.000   1.580 -0.4120  0.3048  0.0489
 3319SOL    HW213042   3.615   4.934   1.647  0.5801  1.2385  0.8425
 3319SOL    HW313043   3.650   4.966   1.504  1.3593  0.7187  0.9129
 3319SOL    MW413044   3.611   4.987   1.578 -0.0474  0.4826  0.2676
 3320SOL     OW13045   3.587   0.921   3.128 -0.2002 -0.5059 -0.3897
 3320SOL    HW213046   3.620   0.839   3.090 -0.7940 -0.9909  0.1154
 3320SOL    HW313047   3.501   0.932   3.088  0.4652  0.6692 -1.5822
 3320SOL    MW413048   3.580   0.911   3.118 -0.1908 -0.4149 -0.4804
 3321SOL     OW13049   6.150   0.325   0.298 -0.3347  0.4296 -0.0219
 3321SOL    HW213050   6.085   0.307   0.231  0.0914 -2.4692  0.2280
 3321SOL    HW313051   6.211   0.386   0.257 -0.3466 -0.8908 -2.1004
 3321SOL    MW413052   6.149   0.331   0.284 -0.2800 -0.1270 -0.2632
 3322SOL     OW13053   3.952   3.471   0.386  0.6591  0.2351 -0.2830
 3322SOL    HW213054   4.013   3.414   0.433 -2.0451 -1.3493  1.5289
 3322SOL    HW313055   3.895   3.411   0.338  0.1510  1.6521 -1.5244
 3322SOL    MW413056   3.953   3.456   0.386  0.2352  0.2130 -0.2077
 3323SOL     OW13057   4.107   1.200   0.360 -0.9732 -0.0115  0.3793
 3323SOL    HW213058   4.137   1.122   0.407  0.8341  1.6867  2.2654
 3323SOL    HW313059   4.186   1.251   0.346 -2.2719  2.1434  0.4820
 3323SOL    MW413060   4.121   1.196   0.364 -0.9061  0.4968  0.6417
 3324SOL     OW13061   0.554   0.100   2.015  0.0408  0.0116 -0.1951
 3324SOL    HW213062   0.637   0.052   2.022 -0.0865 -0.0577  0.9956
 3324SOL    HW313063   0.560   0.168   2.082 -0.2730  0.9366 -1.0791
 3324SOL    MW413064   0.566   0.103   2.025 -0.0174  0.1245 -0.1547
 3325SOL     OW13065   0.039   5.646   0.921 -0.1443  0.5082  0.1787
 3325SOL    HW213066   0.127   5.670   0.892  0.5308  0.8340  2.3622
 3325SOL    HW313067   0.006   5.590   0.851  1.9378  0.0572 -0.5164
 3325SOL    MW413068   0.046   5.642   0.908  0.2195  0.4917  0.3751
 3326SOL     OW13069   1.577   5.896   3.210  0.2595  0.9671 -0.1694
 3326SOL    HW213070   1.577   5.871   3.303  3.1849 -0.5405 -0.4466
 3326SOL    HW313071   1.555   5.816   3.164  1.8265  0.8732 -0.8269
 3326SOL    MW413072   1.574   5.882   3.217  0.8522  0.7558 -0.2927
 3327SOL     OW13073   1.851   2.497   0.677  0.3938 -0.1991  0.3882
 3327SOL    HW213074   1.826   2.583   0.643  0.4926 -1.0265 -1.9791
 3327SOL    HW313075   1.768   2.454   0.697  0.1946 -0.4827 -0.9616
 3327SOL    MW413076   1.837   2.503   0.675  0.3806 -0.3457 -0.1022
 3328SOL     OW13077   5.620   0.223   5.612 -0.4830  0.5407  0.1153
 3328SOL    HW213078   5.526   0.242   5.615 -0.2203  1.8547  1.5235
 3328SOL    HW313079   5.656   0.293   5.558 -0.3163 -0.0416 -0.5384
 3328SOL    MW413080   5.612   0.235   5.606 -0.4264  0.6373  0.2149
 3329SOL     OW13081   2.055   3.293   0.859 -0.3476 -0.2787 -0.2029
 3329SOL    HW213082   2.025   3.207   0.890 -0.8890  0.6985  2.2155
 3329SOL    HW313083   2.128   3.315   0.917 -0.0035  0.7802 -1.0099
 3329SOL    MW413084   2.061   3.284   0.870 -0.3736 -0.0100  0.0097
 3330SOL     OW13085   3.670   1.416   2.265 -0.4397  0.0968 -0.1064
 3330SOL    HW213086   3.639   1.357   2.197  1.0637 -1.2552  0.3251
 3330SOL    HW313087   3.662   1.366   2.347 -0.7741  1.1230  0.5089
 3330SOL    MW413088   3.665   1.402   2.267 -0.2855  0.0538  0.0317
 3331SOL     OW13089   1.182   4.249   5.785 -0.6602  0.2759 -0.0068
 3331SOL    HW213090   1.117   4.303   5.830  0.0795  1.2402 -0.0776
 3331SOL    HW313091   1.159   4.256   5.693 -0.1840  1.0171 -0.0805
 3331SOL    MW413092   1.170   4.257   5.779 -0.4998  0.5009 -0.0259
 3332SOL     OW13093   3.349   0.908   2.960  0.3908 -0.0499  0.3218
 3332SOL    HW213094   3.338   0.981   2.900  2.7448  0.8541  0.8611
 3332SOL    HW313095   3.263   0.896   3.000 -0.4018  1.4525 -0.8362
 3332SOL    MW413096   3.336   0.916   2.958  0.5968  0.2676  0.2401
 3333SOL     OW13097   0.718   2.557   2.403 -0.5328  0.1754  0.1945
 3333SOL    HW213098   0.793   2.576   2.459  0.5712 -2.8528 -0.0758
 3333SOL    HW313099   0.749   2.490   2.343 -2.9640  0.1444 -1.1665
 3333SOL    MW413100   0.732   2.551   2.403 -0.7079 -0.2282 -0.0207
 3334SOL     OW13101   0.011   2.824   0.533 -0.5633  0.0460 -0.0535
 3334SOL    HW213102   0.101   2.847   0.552 -0.1634 -0.3116 -1.3721
 3334SOL    HW313103  -0.035   2.834   0.616  0.4240  1.4881  0.3571
 3334SOL    MW413104   0.017   2.828   0.546 -0.3803  0.1891 -0.1733
 3335SOL     OW13105   3.221   4.397   4.159  0.0660 -0.1279 -0.5261
 3335SOL    HW213106   3.176   4.392   4.244 -1.3017 -0.7336 -1.2548
 3335SOL    HW313107   3.186   4.323   4.110 -0.9555  1.5253 -2.4480
 3335SOL    MW413108   3.210   4.387   4.164 -0.2492  0.0103 -0.8758
 3336SOL     OW13109   2.889   3.774   0.969  0.0595  0.1553 -0.1213
 3336SOL    HW213110   2.817   3.743   1.023  1.2356 -1.0969  0.7934
 3336SOL    HW313111   2.965   3.774   1.027  0.6869  2.2178 -0.8295
 3336SOL    MW413112   2.890   3.770   0.984  0.2974  0.2622 -0.0940
 3337SOL     OW13113   3.601   6.391   1.120  0.1459  0.1398  0.0491
 3337SOL    HW213114   3.513   6.380   1.157 -0.3283 -0.3171 -1.1647
 3337SOL    HW313115   3.620   6.484   1.129 -0.7187  0.3506 -0.2425
 3337SOL    MW413116   3.592   6.402   1.126 -0.0307  0.1073 -0.1495
 3338SOL     OW13117   5.590   5.055   6.015  0.1657 -0.5034  0.0072
 3338SOL    HW213118   5.500   5.031   6.037 -1.0182  2.1151 -1.5313
 3338SOL    HW313119   5.600   5.031   5.923  0.6221  0.3008 -0.1641
 3338SOL    MW413120   5.580   5.049   6.006  0.0697 -0.0518 -0.2184
 3339SOL     OW13121   2.828   4.319   4.396 -0.3835 -0.2290  0.1456
 3339SOL    HW213122   2.803   4.277   4.478  1.0539  0.9519  1.2441
 3339SOL    HW313123   2.923   4.332   4.404 -0.0084 -1.0451 -2.1688
 3339SOL    MW413124   2.838   4.315   4.408 -0.1443 -0.1809 -0.0148
 3340SOL     OW13125   1.324   0.403   3.608  0.2200 -0.2738 -0.1566
 3340SOL    HW213126   1.354   0.386   3.518 -1.3442  0.2015 -0.8068
 3340SOL    HW313127   1.283   0.321   3.634 -1.0561  0.1826 -0.6395
 3340SOL    MW413128   1.323   0.390   3.599 -0.1547 -0.1508 -0.3061
 3341SOL     OW13129   5.619   0.959   1.433 -0.2879  0.2029 -0.2001
 3341SOL    HW213130   5.668   0.902   1.493  0.5697  3.0887  2.0874
 3341SOL    HW313131   5.527   0.935   1.447  0.0673 -1.1301  0.0529
 3341SOL    MW413132   5.613   0.948   1.443 -0.1279  0.4078  0.1351
 3342SOL     OW13133   0.750   1.849   0.873  0.8298 -0.2944 -0.0458
 3342SOL    HW213134   0.811   1.795   0.822  1.4577  0.1337  0.2432
 3342SOL    HW313135   0.664   1.816   0.849  1.1005  0.0731 -1.5868
 3342SOL    MW413136   0.747   1.837   0.863  0.9484 -0.1895 -0.2110
 3343SOL     OW13137   3.194   0.206   1.555 -0.3017  0.3133  0.1717
 3343SOL    HW213138   3.236   0.239   1.475  1.6023 -0.3120  0.8675
 3343SOL    HW313139   3.180   0.113   1.539  1.9611 -0.2871  1.2399
 3343SOL    MW413140   3.198   0.198   1.542  0.2481  0.1516  0.4044
 3344SOL     OW13141   2.128   2.878   2.550 -0.2896  0.7158 -0.7152
 3344SOL    HW213142   2.199   2.815   2.548 -1.3940 -0.6261  0.1791
 3344SOL    HW313143   2.143   2.929   2.630 -0.6629 -0.0192 -0.1558
 3344SOL    MW413144   2.139   2.876   2.561 -0.4845  0.4418 -0.5234
 3345SOL     OW13145   4.529   4.585   5.307 -0.1109  0.3371  0.0361
 3345SOL    HW213146   4.497   4.554   5.392 -1.0479  0.4867 -0.2587
 3345SOL    HW313147   4.489   4.526   5.243  0.5262  0.2735 -0.3155
 3345SOL    MW413148   4.520   4.573   5.310 -0.1505  0.3484 -0.0492
 3346SOL     OW13149   5.232   1.295   2.185  0.1207 -0.1424  0.3556
 3346SOL    HW213150   5.315   1.343   2.191  0.9847 -1.5106 -0.0023
 3346SOL    HW313151   5.199   1.292   2.274  0.6813  0.0348  0.5723
 3346SOL    MW413152   5.239   1.301   2.197  0.3087 -0.2995  0.3370
 3347SOL     OW13153   4.603   3.072   4.030 -0.1782  0.1852 -0.2554
 3347SOL    HW213154   4.644   3.067   3.944  0.9975 -0.0688  0.2893
 3347SOL    HW313155   4.579   2.982   4.051  0.6371  0.0640  0.1810
 3347SOL    MW413156   4.605   3.059   4.022  0.0845  0.1357 -0.1260
 3348SOL     OW13157   0.830   2.928   3.721 -0.1284  0.6104 -0.2867
 3348SOL    HW213158   0.813   2.885   3.804 -0.4304  1.6017  0.1822
 3348SOL    HW313159   0.838   2.856   3.658  0.5612 -0.1667  0.6651
 3348SOL    MW413160   0.829   2.913   3.723 -0.0773  0.6387 -0.0993
 3349SOL     OW13161   1.715   4.988   1.261  0.0085  0.3452 -0.0775
 3349SOL    HW213162   1.792   4.951   1.218 -0.7307 -0.4676 -0.7379
 3349SOL    HW313163   1.642   4.965   1.204 -0.6678  1.5971  0.2438
 3349SOL    MW413164   1.716   4.980   1.248 -0.1783  0.4032 -0.1223
 3350SOL     OW13165   6.184   6.072   2.314 -0.7707  0.2355 -0.0670
 3350SOL    HW213166   6.193   6.162   2.280  2.0956 -1.0200 -3.1805
 3350SOL    HW313167   6.246   6.067   2.386 -2.0504  1.0988  1.1443
 3350SOL    MW413168   6.193   6.083   2.319 -0.5613  0.1837 -0.3179
 3351SOL     OW13169   2.372   2.489   3.776  0.4786 -0.0934  0.2186
 3351SOL    HW213170   2.290   2.516   3.735  1.0196 -0.5357 -1.1992
 3351SOL    HW313171   2.345   2.450   3.859 -0.8463 -1.1416 -0.6589
 3351SOL    MW413172   2.358   2.488   3.782  0.3752 -0.2901 -0.0842
 3352SOL     OW13173   0.079   4.644   4.544 -0.3118 -0.1444 -0.3076
 3352SOL    HW213174  -0.006   4.689   4.545 -0.3660 -0.2124 -1.0253
 3352SOL    HW313175   0.136   4.701   4.493  0.1035 -0.0573  0.2456
 3352SOL    MW413176   0.075   4.657   4.538 -0.2641 -0.1419 -0.3293
 3353SOL     OW13177   6.394   6.415   4.879  0.1759  0.1200  0.0617
 3353SOL    HW213178   6.484   6.441   4.861 -0.5412  3.0322  0.2613
 3353SOL    HW313179   6.395   6.385   4.970  0.8041  0.9931  0.3538
 3353SOL    MW413180   6.406   6.414   4.889  0.1642  0.6194  0.1266
 3354SOL     OW13181   6.117   6.078   1.330 -0.3651 -0.2195 -0.4012
 3354SOL    HW213182   6.205   6.067   1.366 -0.2627  0.6490 -0.3617
 3354SOL    HW313183   6.080   5.989   1.329  0.4826 -0.5799 -0.3618
 3354SOL    MW413184   6.124   6.065   1.335 -0.2397 -0.1525 -0.3908
 3355SOL     OW13185   4.034   5.237   2.663  0.2071  0.2626 -0.3801
 3355SOL    HW213186   4.035   5.235   2.568 -0.3109  0.3129 -0.3884
 3355SOL    HW313187   3.970   5.172   2.689 -0.2665  0.8322 -0.0917
 3355SOL    MW413188   4.026   5.228   2.654  0.0763  0.3444 -0.3431
 3356SOL     OW13189   2.429   2.335   5.563 -0.3648 -0.7873  0.3080
 3356SOL    HW213190   2.484   2.293   5.630 -2.2141 -0.6804  1.9842
 3356SOL    HW313191   2.444   2.429   5.575 -0.4526 -0.7812  0.3763
 3356SOL    MW413192   2.438   2.342   5.573 -0.6204 -0.7724  0.5381
 3357SOL     OW13193   2.941   5.110   5.404  0.1589 -0.4069  0.1828
 3357SOL    HW213194   3.020   5.094   5.455  0.8927  0.9996 -0.4524
 3357SOL    HW313195   2.953   5.198   5.369 -2.1398  0.2137  0.8320
 3357SOL    MW413196   2.953   5.120   5.406 -0.0476 -0.1394  0.1846
 3358SOL     OW13197   1.502   0.920   2.994  0.2737 -0.5729 -0.8149
 3358SOL    HW213198   1.497   1.016   2.991  0.6268 -0.4889  0.6012
 3358SOL    HW313199   1.575   0.902   3.054 -0.9785 -1.7251  0.4241
 3358SOL    MW413200   1.511   0.930   3.002  0.1551 -0.7138 -0.4646
 3359SOL     OW13201   5.992   3.921   3.424 -0.8688  0.3011 -0.1781
 3359SOL    HW213202   5.925   3.858   3.450 -1.4216  1.1853  0.6093
 3359SOL    HW313203   6.075   3.874   3.434 -1.3537 -0.9506 -1.5640
 3359SOL    MW413204   5.994   3.907   3.428 -1.0057  0.2526 -0.2571
 3360SOL     OW13205   3.128   5.850   2.411 -0.6761 -0.2589 -0.0651
 3360SOL    HW213206   3.080   5.824   2.490  1.7895 -0.2936  1.5085
 3360SOL    HW313207   3.173   5.930   2.436 -1.1668  0.6707 -2.0208
 3360SOL    MW413208   3.127   5.857   2.425 -0.4156 -0.1408 -0.1155
 3361SOL     OW13209   0.986   4.058   1.450 -0.7038  0.3583  0.1670
 3361SOL    HW213210   1.013   4.129   1.391 -0.6538 -0.6162 -1.0188
 3361SOL    HW313211   1.047   4.064   1.523  0.3001  0.5795 -0.6570
 3361SOL    MW413212   0.997   4.068   1.452 -0.5647  0.2589 -0.0982
 3362SOL     OW13213   0.660   1.120   3.382 -0.2312  0.3894 -0.1477
 3362SOL    HW213214   0.653   1.064   3.305  1.3507  0.4459 -0.3684
 3362SOL    HW313215   0.721   1.075   3.440 -1.3104  0.4056  1.0531
 3362SOL    MW413216   0.667   1.107   3.380 -0.1649  0.3990 -0.0184
 3363SOL     OW13217   3.858   3.942   4.171  0.6271 -0.0262 -0.6054
 3363SOL    HW213218   3.798   3.920   4.100 -0.0269  0.5559 -0.2437
 3363SOL    HW313219   3.808   3.927   4.251  1.4148 -0.8464 -0.2517
 3363SOL    MW413220   3.844   3.937   4.172  0.6448 -0.0576 -0.5110
 3364SOL     OW13221   1.711   3.983   6.094 -0.0515 -0.5479  0.0866
 3364SOL    HW213222   1.626   4.011   6.061  0.3220  0.3187 -0.1548
 3364SOL    HW313223   1.753   4.064   6.125  0.8074 -0.9234 -0.0786
 3364SOL    MW413224   1.706   3.997   6.094  0.1111 -0.4831  0.0330
 3365SOL     OW13225   3.804   5.931   1.325 -0.5065 -0.3614 -0.0362
 3365SOL    HW213226   3.812   5.838   1.343  1.0247 -0.3326 -0.4734
 3365SOL    HW313227   3.709   5.947   1.323 -0.7815 -1.7762  0.6063
 3365SOL    MW413228   3.792   5.921   1.327 -0.3407 -0.5443 -0.0091
 3366SOL     OW13229   6.098   0.419   2.126  0.1725  0.8732  0.3661
 3366SOL    HW213230   6.095   0.514   2.130  1.0075  0.9383 -0.3223
 3366SOL    HW313231   6.164   0.394   2.191  0.5739  0.8265 -0.0509
 3366SOL    MW413232   6.106   0.428   2.135  0.3356  0.8756  0.2203
 3367SOL     OW13233   2.235   0.750   5.325 -0.3967 -0.4841  0.0707
 3367SOL    HW213234   2.195   0.779   5.407 -0.0472 -0.4376  0.2301
 3367SOL    HW313235   2.171   0.770   5.257 -0.9883 -1.1549  0.4135
 3367SOL    MW413236   2.222   0.756   5.327 -0.4287 -0.5665  0.1370
 3368SOL     OW13237   1.710   5.330   4.943  0.6369 -0.3924 -0.6137
 3368SOL    HW213238   1.644   5.272   4.982 -1.2753  0.7836 -1.9537
 3368SOL    HW313239   1.718   5.403   5.004  0.6368 -0.4891 -0.4985
 3368SOL    MW413240   1.703   5.332   4.956  0.3846 -0.2500 -0.7753
 3369SOL     OW13241   5.670   1.740   2.814 -0.4551 -0.1383 -0.1826
 3369SOL    HW213242   5.630   1.759   2.899  1.8309  1.2788  0.6660
 3369SOL    HW313243   5.661   1.822   2.765  0.4320 -0.1431 -0.3604
 3369SOL    MW413244   5.663   1.753   2.819 -0.0365  0.0480 -0.0941
 3370SOL     OW13245   2.416   2.270   5.287  0.4799 -0.2860  0.1270
 3370SOL    HW213246   2.424   2.282   5.382  0.7706 -0.3083  0.1082
 3370SOL    HW313247   2.449   2.182   5.271 -0.5987 -0.7022  0.1300
 3370SOL    MW413248   2.422   2.260   5.298  0.3759 -0.3439  0.1249
 3371SOL     OW13249   2.978   5.298   3.637  0.3583 -0.3930  0.5335
 3371SOL    HW213250   2.988   5.340   3.722  0.0830  1.1352 -0.1637
 3371SOL    HW313251   2.917   5.226   3.653  0.6831 -0.4236  1.7169
 3371SOL    MW413252   2.971   5.294   3.650  0.3648 -0.1954  0.5977
 3372SOL     OW13253   1.159   6.427   4.638 -0.0861  0.3123  0.2493
 3372SOL    HW213254   1.133   6.341   4.672 -1.5057  1.2588  1.7169
 3372SOL    HW313255   1.235   6.451   4.690  0.0759  0.1135  0.1048
 3372SOL    MW413256   1.166   6.419   4.649 -0.2520  0.4109  0.4239
 3373SOL     OW13257   1.870   5.722   2.550  0.0774 -0.4228 -0.3219
 3373SOL    HW213258   1.955   5.728   2.506 -0.3448  0.9571 -0.9924
 3373SOL    HW313259   1.881   5.651   2.613  1.9719  0.2176  0.1282
 3373SOL    MW413260   1.883   5.713   2.553  0.2716 -0.1562 -0.3510
 3374SOL     OW13261   5.108   1.405   2.826  0.4320  0.2911  0.3815
 3374SOL    HW213262   5.162   1.458   2.884  2.1737 -2.5212  1.5127
 3374SOL    HW313263   5.168   1.343   2.787 -1.2855 -0.0748 -1.9185
 3374SOL    MW413264   5.123   1.404   2.828  0.4352 -0.1282  0.2273
 3375SOL     OW13265   4.348   2.948   5.309 -0.6469  0.3569  0.1332
 3375SOL    HW213266   4.276   2.976   5.252  0.1823  1.5142 -0.3634
 3375SOL    HW313267   4.399   3.027   5.324  0.8368 -0.5528  0.0329
 3375SOL    MW413268   4.345   2.962   5.303 -0.3417  0.3896  0.0545
 3376SOL     OW13269   0.107   0.384   0.456  0.0163  0.2058 -0.1144
 3376SOL    HW213270   0.091   0.446   0.528 -0.3094  1.5254 -1.2700
 3376SOL    HW313271   0.193   0.408   0.422  1.3454 -2.0908  1.4093
 3376SOL    MW413272   0.116   0.395   0.461  0.1487  0.0769 -0.0659
 3377SOL     OW13273   0.583   6.089   4.554  0.3851  0.2581  0.5561
 3377SOL    HW213274   0.509   6.055   4.604 -0.4623 -0.1035 -0.8892
 3377SOL    HW313275   0.548   6.102   4.466  1.6390  1.5582  0.2172
 3377SOL    MW413276   0.569   6.086   4.549  0.4388  0.3819  0.3207
 3378SOL     OW13277   4.198   6.407   6.018 -0.0383 -0.7660 -0.1858
 3378SOL    HW213278   4.175   6.347   6.088  0.8081 -0.5120  0.3244
 3378SOL    HW313279   4.127   6.471   6.017 -0.6783 -1.4667 -0.3891
 3378SOL    MW413280   4.186   6.408   6.027 -0.0111 -0.8250 -0.1453
 3379SOL     OW13281   1.185   5.791   4.082 -0.3696  0.0735 -0.7388
 3379SOL    HW213282   1.249   5.749   4.024  0.8524  0.3519  0.3636
 3379SOL    HW313283   1.209   5.761   4.170 -2.0758 -0.1967 -0.3392
 3379SOL    MW413284   1.197   5.781   4.086 -0.4335  0.0746 -0.5406
 3380SOL     OW13285   1.387   4.677   0.235  0.3640 -0.2864 -0.2689
 3380SOL    HW213286   1.336   4.721   0.167 -0.6270 -0.2282  0.4802
 3380SOL    HW313287   1.476   4.709   0.224 -0.1710  1.2409 -0.2897
 3380SOL    MW413288   1.392   4.687   0.225  0.1627 -0.0772 -0.1728
 3381SOL     OW13289   2.406   5.748   0.889 -0.0933 -0.3140  0.2194
 3381SOL    HW213290   2.320   5.725   0.924 -0.3662  0.2039 -0.1162
 3381SOL    HW313291   2.461   5.673   0.912 -0.0093  0.4077  2.6663
 3381SOL    MW413292   2.402   5.735   0.897 -0.1182 -0.1504  0.4980
 3382SOL     OW13293   0.353   1.323   4.823  0.5556 -0.0307  0.4005
 3382SOL    HW213294   0.372   1.286   4.909  1.1921  1.6923  1.0512
 3382SOL    HW313295   0.291   1.262   4.784 -1.4578  0.1849  2.9546
 3382SOL    MW413296   0.347   1.310   4.830  0.3739  0.2250  0.8234
 3383SOL     OW13297   4.622   0.875   3.652  0.2022  0.1597 -0.5275
 3383SOL    HW213298   4.581   0.798   3.693  0.6553  0.3293  0.2654
 3383SOL    HW313299   4.551   0.916   3.602 -0.6178  0.4685  0.8469
 3383SOL    MW413300   4.607   0.870   3.651  0.1538  0.2228 -0.2416
 3384SOL     OW13301   1.688   4.212   2.698 -0.3745 -0.0056  0.0763
 3384SOL    HW213302   1.606   4.259   2.683 -1.2601  0.6151  5.0518
 3384SOL    HW313303   1.663   4.119   2.696 -0.4622  0.0337 -1.4639
 3384SOL    MW413304   1.674   4.206   2.696 -0.5029  0.0814  0.5295
 3385SOL     OW13305   5.474   5.902   2.819  0.4498  0.1258 -0.2098
 3385SOL    HW213306   5.454   5.970   2.884  1.5086  0.6337 -0.3916
 3385SOL    HW313307   5.554   5.932   2.777  0.9215 -1.2254 -0.3233
 3385SOL    MW413308   5.482   5.915   2.822  0.6518  0.0145 -0.2488
 3386SOL     OW13309   4.921   4.160   5.067 -0.2457  0.3195 -0.5017
 3386SOL    HW213310   4.884   4.188   5.150 -0.7341  0.2614 -0.6962
 3386SOL    HW313311   4.983   4.229   5.043 -0.6495  0.7030 -0.4494
 3386SOL    MW413312   4.924   4.173   5.075 -0.3634  0.3624 -0.5205
 3387SOL     OW13313   4.746   0.725   3.432  0.2444 -0.2807 -0.4075
 3387SOL    HW213314   4.692   0.697   3.359  0.1984  0.3116 -0.6070
 3387SOL    HW313315   4.688   0.777   3.488  0.0556 -1.4356  0.5044
 3387SOL    MW413316   4.731   0.728   3.430  0.2134 -0.3549 -0.3135
 3388SOL     OW13317   5.356   2.059   0.994  0.1768 -0.8078  0.1304
 3388SOL    HW213318   5.323   2.087   0.908  1.0462 -0.6257 -0.1523
 3388SOL    HW313319   5.313   2.117   1.056  0.4564 -0.1462 -0.2873
 3388SOL    MW413320   5.346   2.070   0.991  0.3284 -0.6965  0.0380
 3389SOL     OW13321   0.106   4.141   2.845 -0.3512 -0.3429 -0.2422
 3389SOL    HW213322   0.049   4.218   2.834  0.6176  0.2283 -1.6194
 3389SOL    HW313323   0.045   4.068   2.853 -1.3899  0.0842 -2.8987
 3389SOL    MW413324   0.090   4.141   2.844 -0.3604 -0.2112 -0.7744
 3390SOL     OW13325   4.554   2.764   0.573  0.1126  0.5364  0.2801
 3390SOL    HW213326   4.514   2.851   0.575  0.2621  0.6094  1.7737
 3390SOL    HW313327   4.480   2.704   0.568 -0.1081  0.7251  1.0353
 3390SOL    MW413328   4.539   2.768   0.573  0.1032  0.5709  0.5768
 3391SOL     OW13329   4.015   1.053   2.869  0.9489 -0.2864  0.4803
 3391SOL    HW213330   4.039   1.141   2.898 -0.5141 -0.0452  1.0641
 3391SOL    HW313331   4.096   1.003   2.876  1.6798  0.8784  0.6596
 3391SOL    MW413332   4.028   1.058   2.874  0.8523 -0.1009  0.5810
 3392SOL     OW13333   3.503   5.904   5.564 -0.4020 -0.3949  0.4186
 3392SOL    HW213334   3.453   5.875   5.641 -1.9405 -0.9169 -0.7176
 3392SOL    HW313335   3.452   5.977   5.529 -1.0330 -1.6416 -1.4026
 3392SOL    MW413336   3.489   5.910   5.570 -0.6882 -0.6282  0.0284
 3393SOL     OW13337   6.178   4.665   2.457  0.7498  0.4955  0.4997
 3393SOL    HW213338   6.230   4.621   2.389 -0.1589 -2.0113  1.3127
 3393SOL    HW313339   6.232   4.740   2.484  2.0211  0.3768 -1.5551
 3393SOL    MW413340   6.192   4.669   2.452  0.7976  0.1491  0.3359
 3394SOL     OW13341   5.241   4.620   0.470  0.4140  0.6139  0.0261
 3394SOL    HW213342   5.289   4.703   0.472 -0.3786  1.1233 -1.1321
 3394SOL    HW313343   5.168   4.632   0.532  0.9485  0.3399  0.7312
 3394SOL    MW413344   5.238   4.632   0.479  0.3800  0.6450 -0.0337
 3395SOL     OW13345   1.571   2.357   5.725  0.1240 -0.1719 -0.3889
 3395SOL    HW213346   1.533   2.443   5.745  0.4751  0.1720 -1.1691
 3395SOL    HW313347   1.519   2.325   5.652  1.3759  0.3447 -1.5311
 3395SOL    MW413348   1.559   2.364   5.718  0.3355 -0.0584 -0.6426
 3396SOL     OW13349   3.764   3.238   2.882  0.0963 -0.2686 -0.1103
 3396SOL    HW213350   3.808   3.317   2.914 -1.0334  0.5325 -0.4963
 3396SOL    HW313351   3.673   3.249   2.907 -0.0839 -1.4505 -0.2018
 3396SOL    MW413352   3.758   3.250   2.889 -0.0765 -0.3188 -0.1733
 3397SOL     OW13353   5.693   5.642   5.446  0.0217  0.1404  0.4376
 3397SOL    HW213354   5.644   5.662   5.526 -0.8667  1.3363 -0.3671
 3397SOL    HW313355   5.736   5.559   5.464 -0.5002  0.1833  2.0047
 3397SOL    MW413356   5.692   5.634   5.459 -0.1644  0.3038  0.5382
 3398SOL     OW13357   3.820   5.103   0.004 -0.1595 -0.3305 -0.0574
 3398SOL    HW213358   3.806   5.108   0.098 -1.0123  0.5101 -0.2138
 3398SOL    HW313359   3.737   5.132  -0.034  0.6991  0.9204 -1.0573
 3398SOL    MW413360   3.808   5.107   0.011 -0.1587 -0.0545 -0.2099
 3399SOL     OW13361   5.781   6.194   5.318  0.0005 -0.0620  0.1229
 3399SOL    HW213362   5.789   6.289   5.317 -1.4027  0.0870  0.8821
 3399SOL    HW313363   5.700   6.176   5.271  1.0678 -1.0183 -1.4703
 3399SOL    MW413364   5.772   6.204   5.311 -0.0438 -0.1685  0.0129
 3400SOL     OW13365   6.071   0.975   2.519  0.2998 -0.4927  0.3910
 3400SOL    HW213366   6.052   0.973   2.425  0.1565 -0.1620  0.4140
 3400SOL    HW313367   6.167   0.978   2.524  0.2843  1.9612  0.2058
 3400SOL    MW413368   6.081   0.975   2.507  0.2789 -0.1253  0.3696
 3401SOL     OW13369   4.953   4.539   1.634  0.2021  0.0839  0.2283
 3401SOL    HW213370   4.908   4.601   1.691 -1.3165  1.2363 -2.0695
 3401SOL    HW313371   4.909   4.547   1.549  2.0060 -1.8853 -1.0175
 3401SOL    MW413372   4.941   4.549   1.630  0.2397 -0.0239 -0.2393
 3402SOL     OW13373   6.293   4.597   3.664 -0.2774  0.3948 -0.3871
 3402SOL    HW213374   6.274   4.589   3.757 -2.2385 -0.0739 -0.7811
 3402SOL    HW313375   6.208   4.610   3.623  0.6788  2.1584 -1.9795
 3402SOL    MW413376   6.279   4.598   3.671 -0.4100  0.5656 -0.6492
 3403SOL     OW13377   1.215   5.494   4.721 -0.3423  0.2364  0.5950
 3403SOL    HW213378   1.228   5.427   4.788 -0.6029 -0.4008  0.0258
 3403SOL    HW313379   1.265   5.462   4.646  1.3471  1.7647  0.9802
 3403SOL    MW413380   1.224   5.481   4.720 -0.1538  0.3540  0.5707
 3404SOL     OW13381   4.705   2.665   3.826  0.3309 -0.1240  0.2018
 3404SOL    HW213382   4.683   2.572   3.828  1.2208 -0.3708 -0.6808
 3404SOL    HW313383   4.629   2.706   3.785  0.4119 -0.6253 -0.4727
 3404SOL    MW413384   4.692   2.658   3.821  0.4590 -0.2227 -0.0036
 3405SOL     OW13385   5.520   1.873   0.297  0.3649 -0.7621 -0.9609
 3405SOL    HW213386   5.440   1.916   0.328 -0.3260 -2.4436 -0.2844
 3405SOL    HW313387   5.493   1.831   0.215  1.3161  0.9173 -2.1947
 3405SOL    MW413388   5.506   1.873   0.290  0.3992 -0.7624 -1.0344
 3406SOL     OW13389   1.887   2.908   2.733 -0.1931 -0.3586 -0.2339
 3406SOL    HW213390   1.833   2.935   2.808  1.2081 -1.1031  1.0879
 3406SOL    HW313391   1.948   2.980   2.721  0.1480 -0.6244 -0.0954
 3406SOL    MW413392   1.888   2.921   2.741  0.0368 -0.4919 -0.0413
 3407SOL     OW13393   5.044   6.340   6.302  0.1296 -0.0663  0.0971
 3407SOL    HW213394   5.131   6.301   6.294 -0.5678 -1.9336  1.0836
 3407SOL    HW313395   5.000   6.318   6.220 -0.0991 -1.0149  0.4564
 3407SOL    MW413396   5.050   6.332   6.290  0.0074 -0.4378  0.2746
 3408SOL     OW13397   3.621   1.055   2.321  0.2549 -0.6254 -0.2741
 3408SOL    HW213398   3.633   0.989   2.252 -0.9411  1.5305 -2.7252
 3408SOL    HW313399   3.531   1.086   2.308  0.6263  1.1711  1.0893
 3408SOL    MW413400   3.611   1.050   2.310  0.1461 -0.1039 -0.4176
 3409SOL     OW13401   4.806   6.264   3.072  0.0956 -0.0590 -0.2109
 3409SOL    HW213402   4.724   6.215   3.065  1.1135 -1.9476  0.2514
 3409SOL    HW313403   4.786   6.350   3.037 -2.0473 -0.5089 -0.2064
 3409SOL    MW413404   4.793   6.269   3.066 -0.0528 -0.3676 -0.1493
 3410SOL     OW13405   0.782   2.819   2.702 -0.4346 -0.2056 -0.4628
 3410SOL    HW213406   0.738   2.757   2.759 -0.9947  0.6552  0.0675
 3410SOL    HW313407   0.719   2.890   2.689  0.8058  1.1170  0.4239
 3410SOL    MW413408   0.768   2.821   2.708 -0.3448  0.0825 -0.2759
 3411SOL     OW13409   3.426   2.242   6.122 -0.1456 -0.4907 -0.2993
 3411SOL    HW213410   3.496   2.297   6.087  1.0853 -1.4479  0.5510
 3411SOL    HW313411   3.360   2.238   6.052  0.1197  1.3431 -0.6835
 3411SOL    MW413412   3.426   2.248   6.108  0.0518 -0.3751 -0.2378
 3412SOL     OW13413   2.522   5.474   2.265  0.0204  0.0427 -0.4481
 3412SOL    HW213414   2.483   5.437   2.185  4.2585  1.5379 -3.6066
 3412SOL    HW313415   2.463   5.545   2.290 -1.6062 -0.6633 -2.0690
 3412SOL    MW413416   2.509   5.479   2.258  0.3649  0.1468 -1.0786
 3413SOL     OW13417   2.002   4.445   4.171  0.2321 -0.4791  0.1926
 3413SOL    HW213418   2.000   4.481   4.260  1.2469  1.0708 -0.3672
 3413SOL    HW313419   1.931   4.490   4.125 -1.2217 -2.3156  0.5475
 3413SOL    MW413420   1.992   4.456   4.176  0.1742 -0.5169  0.1656
 3414SOL     OW13421   2.520   2.702   4.475  0.3688 -0.2230 -0.4554
 3414SOL    HW213422   2.605   2.663   4.450  0.4972 -0.9843  1.0445
 3414SOL    HW313423   2.459   2.628   4.471  0.4341 -0.4257  1.5486
 3414SOL    MW413424   2.523   2.687   4.471  0.3944 -0.3502  0.0069
 3415SOL     OW13425   5.769   4.036   3.935 -0.0394 -0.0522 -0.2194
 3415SOL    HW213426   5.745   4.015   4.026 -1.8448 -2.3068 -1.1280
 3415SOL    HW313427   5.702   3.992   3.882  1.1825  0.8986 -2.6788
 3415SOL    MW413428   5.757   4.028   3.940 -0.1164 -0.2242 -0.6638
 3416SOL     OW13429   4.922   2.125   3.871  0.4713 -0.2649 -0.0414
 3416SOL    HW213430   4.997   2.160   3.822 -2.2267  1.3532 -3.4623
 3416SOL    HW313431   4.900   2.043   3.826  0.7491 -1.2990  1.6245
 3416SOL    MW413432   4.929   2.119   3.859  0.1520 -0.1878 -0.2730
 3417SOL     OW13433   5.875   0.591   6.144  0.1684  0.2111  0.3587
 3417SOL    HW213434   5.799   0.548   6.105  0.4362 -1.2450  1.3613
 3417SOL    HW313435   5.859   0.588   6.238  1.5573 -0.3417  0.5994
 3417SOL    MW413436   5.863   0.585   6.151  0.3870 -0.0539  0.5227
 3418SOL     OW13437   3.539   1.404   2.003 -0.5814 -0.1465 -0.2598
 3418SOL    HW213438   3.591   1.446   1.934  0.3329 -0.1560  0.4091
 3418SOL    HW313439   3.504   1.477   2.054 -3.3563 -0.0085 -2.1522
 3418SOL    MW413440   3.542   1.419   2.000 -0.8269 -0.1295 -0.4213
 3419SOL     OW13441   0.107   1.464   4.163  0.0433  0.5886 -0.2532
 3419SOL    HW213442   0.110   1.446   4.257  0.8618  2.0089  0.0261
 3419SOL    HW313443   0.104   1.378   4.122 -3.0016 -0.0808  1.1067
 3419SOL    MW413444   0.107   1.450   4.170 -0.2504  0.6877 -0.0370
 3420SOL     OW13445   0.883   0.614   2.513 -0.3485 -0.2480 -0.5360
 3420SOL    HW213446   0.957   0.672   2.528  0.0046 -0.9276  0.4940
 3420SOL    HW313447   0.888   0.550   2.585 -1.5342 -0.7037 -0.8343
 3420SOL    MW413448   0.893   0.613   2.525 -0.4584 -0.3978 -0.4394
 3421SOL     OW13449   5.750   1.846   2.201 -0.0856 -0.5432 -0.1952
 3421SOL    HW213450   5.697   1.832   2.122 -0.3523 -1.1603  0.0854
 3421SOL    HW313451   5.791   1.761   2.217  0.1656 -0.3496  0.1848
 3421SOL    MW413452   5.748   1.833   2.193 -0.0877 -0.5990 -0.1080
 3422SOL     OW13453   5.718   3.647   0.335 -0.0190 -0.0147  0.0155
 3422SOL    HW213454   5.655   3.661   0.265 -0.8474 -1.1936  0.4967
 3422SOL    HW313455   5.769   3.728   0.338 -1.2595  0.8204 -0.6260
 3422SOL    MW413456   5.716   3.659   0.326 -0.2920 -0.0601 -0.0056
 3423SOL     OW13457   3.933   0.261   3.170  0.2724  0.7461 -0.6981
 3423SOL    HW213458   3.912   0.244   3.261  0.9521  2.1122 -0.2538
 3423SOL    HW313459   3.856   0.306   3.135 -0.0879 -0.0020 -0.8725
 3423SOL    MW413460   3.920   0.265   3.177  0.3145  0.8277 -0.6625
 3424SOL     OW13461   4.535   3.738   3.514 -0.1014  0.3065  0.3768
 3424SOL    HW213462   4.599   3.732   3.584 -0.3487  1.2845  0.7042
 3424SOL    HW313463   4.544   3.828   3.482  0.0908 -0.1515 -0.9275
 3424SOL    MW413464   4.545   3.749   3.519 -0.1087  0.3751  0.2479
 3425SOL     OW13465   4.006   1.705   5.805 -0.5321 -0.1977 -0.1189
 3425SOL    HW213466   4.038   1.648   5.875 -0.2022  0.2957  0.1450
 3425SOL    HW313467   4.082   1.759   5.782 -0.5603 -0.5487 -1.0598
 3425SOL    MW413468   4.020   1.705   5.811 -0.4923 -0.1789 -0.2082
 3426SOL     OW13469   4.344   5.605   0.711  0.8365 -0.4025 -0.3268
 3426SOL    HW213470   4.315   5.676   0.654  0.8686 -1.1623 -1.3176
 3426SOL    HW313471   4.438   5.617   0.719  0.6604  0.4778  0.6738
 3426SOL    MW413472   4.353   5.616   0.704  0.8175 -0.3866 -0.3255
 3427SOL     OW13473   1.608   5.980   2.795  0.3945  0.5241 -0.1840
 3427SOL    HW213474   1.601   6.072   2.770  0.8833  0.6138  0.0021
 3427SOL    HW313475   1.686   5.976   2.850  1.5381 -0.3279 -1.7611
 3427SOL    MW413476   1.617   5.992   2.799  0.6099  0.4236 -0.3675
 3428SOL     OW13477   6.087   1.498   1.510  0.0519 -0.6193 -0.0298
 3428SOL    HW213478   6.037   1.418   1.530 -0.3820 -0.2339  0.4565
 3428SOL    HW313479   6.165   1.466   1.464 -0.1418 -1.3210  0.1091
 3428SOL    MW413480   6.091   1.483   1.506 -0.0309 -0.6611  0.0527
 3429SOL     OW13481   2.340   1.565   5.764 -0.9796 -0.3035  0.3399
 3429SOL    HW213482   2.327   1.601   5.676  0.4264 -0.1790  0.1608
 3429SOL    HW313483   2.335   1.470   5.753  0.1897 -0.3362 -0.0802
 3429SOL    MW413484   2.338   1.558   5.751 -0.6398 -0.2914  0.2609
 3430SOL     OW13485   3.742   3.047   1.885  0.8484  0.1366  0.1443
 3430SOL    HW213486   3.781   2.963   1.861 -1.0795 -0.3022 -1.7646
 3430SOL    HW313487   3.799   3.112   1.845  1.1230 -0.3668 -0.2958
 3430SOL    MW413488   3.754   3.044   1.877  0.6303  0.0123 -0.1656
 3431SOL     OW13489   1.496   3.574   2.838  0.0483 -0.3817 -0.0319
 3431SOL    HW213490   1.446   3.652   2.862 -1.1767 -1.0781 -0.2164
 3431SOL    HW313491   1.500   3.523   2.919 -2.1941 -1.7203 -0.7008
 3431SOL    MW413492   1.490   3.578   2.852 -0.4092 -0.6502 -0.1445
 3432SOL     OW13493   3.807   3.545   6.337  0.2332  0.7805  0.3630
 3432SOL    HW213494   3.740   3.502   6.391 -0.6401  1.2723 -0.3089
 3432SOL    HW313495   3.830   3.624   6.387  0.1708  0.7103  0.5052
 3432SOL    MW413496   3.801   3.550   6.351  0.1098  0.8361  0.2931
 3433SOL     OW13497   2.078   2.406   0.290 -0.3704  0.2402  0.0158
 3433SOL    HW213498   2.066   2.311   0.302  2.0581 -0.6301 -3.1154
 3433SOL    HW313499   2.158   2.426   0.340 -0.2937  0.4011 -0.1699
 3433SOL    MW413500   2.087   2.396   0.299 -0.0398  0.1466 -0.4218
 3434SOL     OW13501   1.851   0.188   4.897 -0.3388  0.4434 -0.2023
 3434SOL    HW213502   1.815   0.202   4.985  0.7578  0.8264  0.1991
 3434SOL    HW313503   1.774   0.172   4.843 -0.9256 -2.1415  1.2120
 3434SOL    MW413504   1.836   0.188   4.902 -0.2715  0.1529  0.0372
 3435SOL     OW13505   0.858   4.376   4.688 -0.3311 -0.0790  0.2422
 3435SOL    HW213506   0.828   4.398   4.776 -0.3114  1.2580 -0.0641
 3435SOL    HW313507   0.817   4.442   4.631 -0.2438 -0.8420 -0.7316
 3435SOL    MW413508   0.849   4.388   4.692 -0.3170 -0.0033  0.0733
 3436SOL     OW13509   2.373   3.336   1.599 -0.4150 -0.3250 -0.2310
 3436SOL    HW213510   2.350   3.337   1.692  0.3279 -0.2007 -0.0445
 3436SOL    HW313511   2.336   3.417   1.564  0.5382  0.3326  0.2668
 3436SOL    MW413512   2.365   3.347   1.606 -0.1912 -0.2218 -0.1407
 3437SOL     OW13513   2.776   0.189   0.248  0.1376  0.6531 -0.2993
 3437SOL    HW213514   2.827   0.202   0.328 -0.6773  1.8729  0.0608
 3437SOL    HW313515   2.806   0.105   0.213  0.2723 -0.0694  1.4629
 3437SOL    MW413516   2.787   0.180   0.254  0.0479  0.7187 -0.0193
 3438SOL     OW13517   3.012   3.151   5.209 -0.1309 -0.5332  0.3808
 3438SOL    HW213518   2.934   3.206   5.204 -0.6416 -1.2393  0.3391
 3438SOL    HW313519   2.994   3.091   5.281  0.5775 -0.4017  0.6721
 3438SOL    MW413520   2.999   3.150   5.218 -0.1048 -0.6090  0.4137
 3439SOL     OW13521   5.616   3.482   4.356 -0.2700 -0.2558  0.3679
 3439SOL    HW213522   5.626   3.429   4.277 -3.0054 -1.7215  0.8798
 3439SOL    HW313523   5.533   3.529   4.343 -0.9840 -0.8456  2.5062
 3439SOL    MW413524   5.606   3.482   4.344 -0.7251 -0.5270  0.7175
 3440SOL     OW13525   2.842   5.082   3.624 -0.5982 -0.2039 -0.0127
 3440SOL    HW213526   2.839   4.998   3.578  0.2817  0.0626 -0.5802
 3440SOL    HW313527   2.752   5.099   3.649 -0.4644 -2.7709  2.7788
 3440SOL    MW413528   2.830   5.073   3.621 -0.4645 -0.5074  0.2807
 3441SOL     OW13529   5.831   2.919   2.382 -0.5993  0.1015 -0.1761
 3441SOL    HW213530   5.807   2.900   2.472  0.3843 -0.3551  0.0058
 3441SOL    HW313531   5.755   2.893   2.330 -0.6691 -0.8925  0.4099
 3441SOL    MW413532   5.818   2.913   2.387 -0.4787 -0.0899 -0.0748
 3442SOL     OW13533   4.479   5.741   0.322 -0.0640  0.0069 -0.2641
 3442SOL    HW213534   4.557   5.777   0.363 -0.3715 -1.0028  1.3278
 3442SOL    HW313535   4.472   5.786   0.238  1.8621  0.5608 -0.1701
 3442SOL    MW413536   4.488   5.752   0.316  0.1496 -0.0532 -0.0416
 3443SOL     OW13537   1.398   0.055   0.734  0.1063 -0.0292  0.2172
 3443SOL    HW213538   1.346   0.128   0.768 -1.6700 -1.3878  0.5237
 3443SOL    HW313539   1.459   0.034   0.805 -0.2458  0.3118  0.6267
 3443SOL    MW413540   1.399   0.062   0.748 -0.1745 -0.1635  0.3117
 3444SOL     OW13541   5.889   2.618   0.089 -0.1753 -0.1048  0.7203
 3444SOL    HW213542   5.859   2.527   0.099 -0.5379 -0.0429  0.2043
 3444SOL    HW313543   5.946   2.616   0.013 -1.7459  0.4624 -0.5371
 3444SOL    MW413544   5.892   2.606   0.080 -0.4304 -0.0218  0.4864
 3445SOL     OW13545   2.305   4.227   5.825 -0.5238 -0.1625  0.0885
 3445SOL    HW213546   2.380   4.201   5.877 -1.1246 -0.1396  0.9944
 3445SOL    HW313547   2.307   4.323   5.827  0.1391 -0.1394 -0.9652
 3445SOL    MW413548   2.315   4.236   5.832 -0.5156 -0.1565  0.0690
 3446SOL     OW13549   5.838   5.672   2.669 -0.6125  0.6155 -0.3992
 3446SOL    HW213550   5.907   5.609   2.647 -1.4245 -0.7818  0.8925
 3446SOL    HW313551   5.756   5.626   2.651 -1.2264  1.2444  0.6558
 3446SOL    MW413552   5.836   5.657   2.664 -0.8006  0.5141 -0.0896
 3447SOL     OW13553   2.318   4.011   0.989 -0.7698  0.0148 -0.3876
 3447SOL    HW213554   2.340   3.930   0.943  0.5231 -0.6995  1.3588
 3447SOL    HW313555   2.296   3.983   1.078 -1.1098  1.5140  0.0329
 3447SOL    MW413556   2.318   3.996   0.995 -0.6441  0.1184 -0.1017
 3448SOL     OW13557   2.535   3.490   3.783  0.3953 -0.2359  0.2515
 3448SOL    HW213558   2.544   3.580   3.814  0.2925 -0.9666  2.5575
 3448SOL    HW313559   2.515   3.499   3.689 -0.8624  2.1693  0.6784
 3448SOL    MW413560   2.533   3.503   3.774  0.2158 -0.0150  0.6121
 3449SOL     OW13561   0.155   4.978   2.928 -0.1607  0.0267 -0.1220
 3449SOL    HW213562   0.187   5.046   2.868  1.9526 -1.4636 -0.8265
 3449SOL    HW313563   0.227   4.967   2.990 -0.7883 -1.0277  0.4303
 3449SOL    MW413564   0.169   4.985   2.928  0.0353 -0.3090 -0.1421
 3450SOL     OW13565   5.572   0.746   0.434  0.2065 -0.1713  0.4276
 3450SOL    HW213566   5.556   0.780   0.522  0.3164  1.8404 -0.2687
 3450SOL    HW313567   5.485   0.740   0.395  0.0816 -1.8211  0.8950
 3450SOL    MW413568   5.559   0.750   0.440  0.2046 -0.1235  0.3974
 3451SOL     OW13569   4.960   1.877   3.328  0.0311  0.2908  0.7998
 3451SOL    HW213570   4.878   1.835   3.302 -0.6633  1.0691  1.6831
 3451SOL    HW313571   4.992   1.823   3.401  0.0535  0.2832  0.7844
 3451SOL    MW413572   4.954   1.864   3.334 -0.0576  0.3925  0.9143
 3452SOL     OW13573   3.020   3.110   2.011 -0.4957  0.4222  0.4458
 3452SOL    HW213574   3.065   3.046   1.955 -0.8050  0.6968 -0.1310
 3452SOL    HW313575   2.997   3.061   2.090 -0.4860 -0.1090  0.1261
 3452SOL    MW413576   3.023   3.095   2.014 -0.5352  0.3884  0.3275
 3453SOL     OW13577   0.894   1.518   5.174 -0.1375  0.3793 -0.0552
 3453SOL    HW213578   0.812   1.483   5.139 -0.4523  0.4713  0.5810
 3453SOL    HW313579   0.887   1.613   5.161  0.6768  0.2505 -1.6951
 3453SOL    MW413580   0.883   1.526   5.168 -0.0716  0.3745 -0.1876
 3454SOL     OW13581   3.755   6.236   0.445  0.1754  0.2957 -0.1856
 3454SOL    HW213582   3.745   6.323   0.482  0.1967  0.1199  0.2349
 3454SOL    HW313583   3.667   6.212   0.416  0.5218  1.3288 -2.2983
 3454SOL    MW413584   3.743   6.244   0.446  0.2239  0.4088 -0.4089
 3455SOL     OW13585   6.034   5.366   1.326 -0.0555  0.2380 -0.1347
 3455SOL    HW213586   5.954   5.334   1.368  1.1742  0.5862  2.7489
 3455SOL    HW313587   6.057   5.299   1.262 -0.6279 -1.8090  1.7028
 3455SOL    MW413588   6.027   5.353   1.323  0.0313  0.0139  0.4882
 3456SOL     OW13589   3.965   2.459   4.301 -0.3316  0.2885 -0.1833
 3456SOL    HW213590   3.924   2.505   4.228 -0.7766  0.8390  0.3964
 3456SOL    HW313591   4.015   2.388   4.260  0.2450  1.1882 -1.0885
 3456SOL    MW413592   3.966   2.455   4.286 -0.3142  0.4798 -0.2262
 3457SOL     OW13593   5.619   3.383   4.060 -0.0706 -0.4580  0.2659
 3457SOL    HW213594   5.529   3.367   4.091 -1.6125 -0.7092 -3.7027
 3457SOL    HW313595   5.654   3.295   4.045 -0.2491 -0.3801 -0.7193
 3457SOL    MW413596   5.612   3.369   4.062 -0.2976 -0.4809 -0.3877
 3458SOL     OW13597   3.801   2.181   2.024  0.0227 -0.1054  0.5777
 3458SOL    HW213598   3.709   2.157   2.035 -0.3318  1.1172  0.3818
 3458SOL    HW313599   3.801   2.277   2.021  0.7699 -0.0297 -3.6255
 3458SOL    MW413600   3.789   2.191   2.025  0.0745  0.0659 -0.0027
 3459SOL     OW13601   5.699   3.066   3.569  0.2591 -0.1666  0.2528
 3459SOL    HW213602   5.639   3.048   3.496 -0.5167 -0.2151  0.8967
 3459SOL    HW313603   5.777   3.015   3.547 -0.2294 -0.7562 -0.1964
 3459SOL    MW413604   5.701   3.057   3.556  0.0923 -0.2508  0.2785
 3460SOL     OW13605   0.973   4.683   5.201  0.9460 -0.0277  0.1261
 3460SOL    HW213606   1.005   4.729   5.279 -0.1796  0.8601  0.0943
 3460SOL    HW313607   0.957   4.753   5.137  1.6412 -0.7250 -0.8342
 3460SOL    MW413608   0.975   4.698   5.203  0.8892 -0.0026 -0.0048
 3461SOL     OW13609   2.526   2.040   5.506 -0.3927  0.1058  0.9658
 3461SOL    HW213610   2.571   1.956   5.493 -1.6286 -0.6540  1.4133
 3461SOL    HW313611   2.562   2.074   5.587 -0.5492 -0.4466  1.2716
 3461SOL    MW413612   2.537   2.033   5.515 -0.5764 -0.0674  1.0652
 3462SOL     OW13613   0.370   5.654   6.353  0.2225  0.5957 -0.4042
 3462SOL    HW213614   0.306   5.698   6.409 -0.3624 -0.4060 -0.2819
 3462SOL    HW313615   0.318   5.614   6.284  0.7033 -0.3315 -0.2344
 3462SOL    MW413616   0.355   5.655   6.351  0.2088  0.3412 -0.3657
 3463SOL     OW13617   3.028   1.842   3.848  0.4616  0.2810 -0.4980
 3463SOL    HW213618   3.090   1.907   3.881  2.1356 -0.3919 -2.1327
 3463SOL    HW313619   2.990   1.884   3.770  0.1782  0.0011 -0.5126
 3463SOL    MW413620   3.031   1.856   3.842  0.6451  0.1553 -0.7156
 3464SOL     OW13621   0.108   0.003   3.391 -0.5078  0.2846 -0.2163
 3464SOL    HW213622   0.129   0.089   3.353  1.8784  0.4030  1.0944
 3464SOL    HW313623   0.151   0.005   3.477 -3.7032 -0.7896  1.5596
 3464SOL    MW413624   0.117   0.015   3.398 -0.6145  0.1585  0.1909
 3465SOL     OW13625   2.661   3.546   4.378  0.0900 -0.3980 -0.1645
 3465SOL    HW213626   2.610   3.466   4.394 -0.0155  0.0494  2.0259
 3465SOL    HW313627   2.642   3.568   4.286 -2.2913 -1.2151  0.0489
 3465SOL    MW413628   2.651   3.538   4.368 -0.2381 -0.4467  0.1527
 3466SOL     OW13629   5.528   1.002   2.094  0.0674  0.0034  0.0020
 3466SOL    HW213630   5.516   0.945   2.169  0.5745 -0.2190 -0.0792
 3466SOL    HW313631   5.442   1.039   2.077 -0.1179 -0.2106  0.4791
 3466SOL    MW413632   5.515   0.999   2.101  0.1099 -0.0541  0.0543
 3467SOL     OW13633   6.344   0.905   3.740 -0.2593  0.3131 -0.0433
 3467SOL    HW213634   6.331   0.994   3.773  0.4710  1.1853 -1.9533
 3467SOL    HW313635   6.439   0.895   3.736 -0.2741 -1.2903  1.8819
 3467SOL    MW413636   6.355   0.915   3.744 -0.1649  0.2166 -0.0413
 3468SOL     OW13637   3.625   6.102   5.909 -0.5561  0.3005  0.0608
 3468SOL    HW213638   3.579   6.092   5.992  0.7949 -0.3695  0.7658
 3468SOL    HW313639   3.696   6.163   5.928 -0.8727  0.9900 -0.8932
 3468SOL    MW413640   3.629   6.108   5.923 -0.4196  0.3031  0.0280
 3469SOL     OW13641   1.706   4.009   3.825 -0.5473  0.5318 -0.3051
 3469SOL    HW213642   1.731   4.101   3.816  0.5311  0.1931 -0.9660
 3469SOL    HW313643   1.671   4.002   3.914  1.2963  1.1752  0.5182
 3469SOL    MW413644   1.705   4.020   3.836 -0.1618  0.5720 -0.2837
 3470SOL     OW13645   2.290   2.797   5.405 -0.1379 -0.2006 -0.2834
 3470SOL    HW213646   2.325   2.718   5.364 -1.2181 -0.0623 -1.5159
 3470SOL    HW313647   2.356   2.864   5.388 -0.6002 -0.1202 -1.9215
 3470SOL    MW413648   2.304   2.795   5.397 -0.3414 -0.1718 -0.6621
 3471SOL     OW13649   0.379   4.411   6.018  0.5323 -0.5232  0.0216
 3471SOL    HW213650   0.358   4.323   6.050 -0.1583 -1.1102 -1.8734
 3471SOL    HW313651   0.315   4.468   6.060  0.8356 -0.9485  1.0896
 3471SOL    MW413652   0.368   4.407   6.028  0.4812 -0.6568 -0.0875
 3472SOL     OW13653   6.361   3.128   2.803 -0.7728 -0.3089 -0.3044
 3472SOL    HW213654   6.312   3.129   2.721 -0.9998 -1.3504 -0.2007
 3472SOL    HW313655   6.386   3.036   2.815  0.3101  0.0231  0.1783
 3472SOL    MW413656   6.358   3.116   2.794 -0.6599 -0.4025 -0.2271
 3473SOL     OW13657   6.125   4.649   0.528  1.2937  0.2099 -0.3408
 3473SOL    HW213658   6.083   4.731   0.555  1.3231 -0.0135  0.4144
 3473SOL    HW313659   6.064   4.580   0.558  2.4976 -0.1534  1.4035
 3473SOL    MW413660   6.111   4.651   0.536  1.4564  0.1325 -0.0111
 3474SOL     OW13661   5.088   2.920   6.092 -0.0780  0.3065  0.2963
 3474SOL    HW213662   5.156   2.988   6.097 -0.3810  0.6958 -0.6865
 3474SOL    HW313663   5.033   2.935   6.169 -0.7252  1.8356 -0.4244
 3474SOL    MW413664   5.090   2.931   6.103 -0.2034  0.5596  0.0715
 3475SOL     OW13665   3.592   2.478   3.063 -0.0817 -0.0758  0.8452
 3475SOL    HW213666   3.634   2.508   3.144 -1.4004  2.1422  0.7818
 3475SOL    HW313667   3.637   2.525   2.993 -0.5376 -0.1410  0.4978
 3475SOL    MW413668   3.603   2.488   3.065 -0.3158  0.2083  0.7910
 3476SOL     OW13669   4.775   5.974   5.542  0.0064  0.0218 -0.1216
 3476SOL    HW213670   4.825   6.031   5.600 -0.9766  1.4314 -0.5998
 3476SOL    HW313671   4.737   5.908   5.599  1.4773 -0.4197  0.3946
 3476SOL    MW413672   4.777   5.973   5.557  0.0708  0.1495 -0.1166
 3477SOL     OW13673   3.179   5.674   4.390  0.0768 -0.0003 -0.0344
 3477SOL    HW213674   3.205   5.586   4.364  3.0457  1.3692 -2.2186
 3477SOL    HW313675   3.151   5.716   4.308  2.8642  2.3221  0.0618
 3477SOL    MW413676   3.179   5.668   4.376  0.8363  0.4868 -0.3099
 3478SOL     OW13677   5.414   5.153   1.838 -0.1443  0.0180 -0.0263
 3478SOL    HW213678   5.363   5.103   1.902 -0.8473 -0.5729 -1.0300
 3478SOL    HW313679   5.369   5.237   1.832 -0.2172 -0.0133  0.0660
 3478SOL    MW413680   5.401   5.158   1.846 -0.2467 -0.0641 -0.1465
 3479SOL     OW13681   3.874   4.365   1.843  0.6334  0.4836  0.1647
 3479SOL    HW213682   3.811   4.331   1.779  0.4817 -0.8533  0.9878
 3479SOL    HW313683   3.886   4.293   1.905  0.5392  1.8476  1.8263
 3479SOL    MW413684   3.867   4.351   1.842  0.6009  0.4872  0.4925
 3480SOL     OW13685   5.285   0.017   4.287 -0.2811 -0.2250  0.0500
 3480SOL    HW213686   5.266  -0.075   4.271 -2.2510 -0.0301  1.0006
 3480SOL    HW313687   5.220   0.064   4.235  0.7670  0.6662 -0.5000
 3480SOL    MW413688   5.274   0.011   4.278 -0.4027 -0.0817  0.1029
 3481SOL     OW13689   3.837   5.641   5.638 -0.2606 -0.3760  0.2824
 3481SOL    HW213690   3.749   5.604   5.628 -0.4083  0.1555 -0.4699
 3481SOL    HW313691   3.869   5.652   5.549  0.5594 -0.5154  0.5462
 3481SOL    MW413692   3.830   5.637   5.625 -0.1719 -0.3243  0.2180
 3482SOL     OW13693   0.182   2.051   1.527 -0.2719 -0.4619  0.3809
 3482SOL    HW213694   0.097   2.019   1.498  0.5702 -0.2737 -2.5482
 3482SOL    HW313695   0.216   2.102   1.453  3.4172 -2.5152  0.3937
 3482SOL    MW413696   0.175   2.053   1.514  0.3260 -0.7080 -0.0038
 3483SOL     OW13697   1.224   5.455   0.149 -0.4293 -0.0652  0.0826
 3483SOL    HW213698   1.206   5.494   0.235 -1.8412  1.1139 -0.7129
 3483SOL    HW313699   1.291   5.511   0.110 -0.5497  0.0195 -0.0032
 3483SOL    MW413700   1.230   5.468   0.155 -0.6315  0.1015 -0.0337
 3484SOL     OW13701   4.817   3.480   5.983 -0.3071 -0.1597  0.8144
 3484SOL    HW213702   4.756   3.547   5.953 -1.1307 -0.9047  0.7799
 3484SOL    HW313703   4.770   3.434   6.052  0.1799 -0.8158  0.7170
 3484SOL    MW413704   4.803   3.483   5.989 -0.3515 -0.3446  0.7970
 3485SOL     OW13705   4.438   4.703   3.234 -0.0615  0.9934 -0.3585
 3485SOL    HW213706   4.474   4.751   3.160  0.5432  0.5678 -0.3464
 3485SOL    HW313707   4.357   4.750   3.256 -0.1805  1.1914 -1.2014
 3485SOL    MW413708   4.432   4.716   3.227  0.0026  0.9634 -0.4681
 3486SOL     OW13709   0.199   2.593   3.887  0.1461  0.0725  0.0613
 3486SOL    HW213710   0.181   2.645   3.809  1.8163 -1.2507 -1.2741
 3486SOL    HW313711   0.294   2.599   3.898  0.3469 -2.3541  0.0707
 3486SOL    MW413712   0.209   2.601   3.878  0.3929 -0.4222 -0.1137
 3487SOL     OW13713   0.793   0.830   0.769  0.2037  0.6870  0.2087
 3487SOL    HW213714   0.729   0.760   0.783 -0.0743  0.2225 -2.7434
 3487SOL    HW313715   0.745   0.910   0.790 -0.8249  0.2308 -0.2997
 3487SOL    MW413716   0.778   0.831   0.773  0.0313  0.5655 -0.2478
 3488SOL     OW13717   3.504   4.588   6.350  0.2729  0.4215 -0.8269
 3488SOL    HW213718   3.419   4.607   6.391  0.5661 -1.0914  0.6401
 3488SOL    HW313719   3.505   4.640   6.270 -2.6236 -0.5130 -1.5988
 3488SOL    MW413720   3.493   4.597   6.345 -0.0705  0.0986 -0.7352
 3489SOL     OW13721   6.283   0.464   4.365 -0.0311  0.3635  0.4790
 3489SOL    HW213722   6.294   0.483   4.272  0.7631  0.1845  0.5301
 3489SOL    HW313723   6.203   0.412   4.370 -0.3866  0.8414 -0.0355
 3489SOL    MW413724   6.274   0.460   4.353  0.0268  0.4029  0.4179
 3490SOL     OW13725   2.727   1.883   1.487  0.0199 -0.0190  0.0841
 3490SOL    HW213726   2.772   1.831   1.420 -0.0203 -0.0034  0.0452
 3490SOL    HW313727   2.766   1.970   1.480 -0.8425  0.3094 -0.7428
 3490SOL    MW413728   2.738   1.887   1.477 -0.0992  0.0264 -0.0301
 3491SOL     OW13729   0.909   5.536   3.709 -0.0801 -0.2794  0.1791
 3491SOL    HW213730   0.813   5.539   3.710 -0.3833 -1.1884 -4.2461
 3491SOL    HW313731   0.936   5.628   3.719 -1.1791 -0.2181  3.5307
 3491SOL    MW413732   0.900   5.549   3.710 -0.2651 -0.3913  0.0374
 3492SOL     OW13733   1.944   0.558   4.371  0.1798 -0.1360  0.1832
 3492SOL    HW213734   1.930   0.559   4.277 -0.8860 -0.7238  0.3187
 3492SOL    HW313735   1.879   0.496   4.404  0.2366  0.4054  1.3493
 3492SOL    MW413736   1.934   0.550   4.363  0.0467 -0.1421  0.3550
 3493SOL     OW13737   6.056   2.297   6.245 -0.1640  0.2280 -0.7464
 3493SOL    HW213738   5.998   2.369   6.268 -0.0348 -0.1993  1.0755
 3493SOL    HW313739   5.999   2.232   6.204 -1.0996 -0.3009  1.2623
 3493SOL    MW413740   6.041   2.298   6.243 -0.2704  0.1018 -0.2410
 3494SOL     OW13741   6.349   5.399   2.050 -0.0961  0.3621 -0.3850
 3494SOL    HW213742   6.265   5.444   2.046 -0.8343 -1.0357 -1.3267
 3494SOL    HW313743   6.385   5.423   2.136 -1.8818  0.2774  0.4343
 3494SOL    MW413744   6.342   5.408   2.061 -0.4291  0.1665 -0.4012
 3495SOL     OW13745   3.404   5.206   4.379  0.0306  0.1606  0.0579
 3495SOL    HW213746   3.477   5.212   4.440  0.8797  0.6100 -0.9768
 3495SOL    HW313747   3.361   5.123   4.401  2.2491 -1.3256 -0.8136
 3495SOL    MW413748   3.408   5.196   4.390  0.4354  0.0238 -0.1936
 3496SOL     OW13749   1.588   1.492   4.592  0.2896 -0.0097  0.2004
 3496SOL    HW213750   1.672   1.485   4.636  0.5419 -1.3158 -0.4304
 3496SOL    HW313751   1.533   1.425   4.634  0.4454 -1.0784 -1.2022
 3496SOL    MW413752   1.592   1.482   4.603  0.3435 -0.3230 -0.0679
 3497SOL     OW13753   0.372   4.025   4.997  0.3556  0.2055 -0.7297
 3497SOL    HW213754   0.378   4.097   4.934  1.0438  0.9146  0.1280
 3497SOL    HW313755   0.279   4.020   5.019  0.4083  1.3540 -0.2092
 3497SOL    MW413756   0.361   4.034   4.991  0.4534  0.4506 -0.5479
 3498SOL     OW13757   3.232   3.536   3.892  0.0729  0.2610  0.3028
 3498SOL    HW213758   3.146   3.563   3.923  0.3951  0.7123  0.8291
 3498SOL    HW313759   3.288   3.612   3.909  0.7666 -0.3434  0.8069
 3498SOL    MW413760   3.228   3.550   3.899  0.2069  0.2408  0.4387
 3499SOL     OW13761   4.525   3.311   0.133 -0.2368 -0.2250 -0.5843
 3499SOL    HW213762   4.510   3.387   0.189 -1.5271 -1.0316  0.2291
 3499SOL    HW313763   4.473   3.241   0.173  2.4900 -2.1357 -0.0883
 3499SOL    MW413764   4.516   3.312   0.146 -0.0472 -0.5835 -0.4115
 3500SOL     OW13765   2.700   1.883   2.715 -0.1178  0.1733  0.1981
 3500SOL    HW213766   2.617   1.880   2.667 -0.3096  1.0728  0.4550
 3500SOL    HW313767   2.701   1.801   2.765 -0.7513  0.0588  0.0333
 3500SOL    MW413768   2.689   1.872   2.715 -0.2267  0.2769  0.2103
 3501SOL     OW13769   2.088   5.651   0.134 -0.5065 -0.1360  0.4434
 3501SOL    HW213770   2.090   5.556   0.119  0.1748 -0.0231 -0.2582
 3501SOL    HW313771   2.167   5.683   0.090  0.2873  0.5331  2.2476
 3501SOL    MW413772   2.099   5.643   0.126 -0.3118 -0.0328  0.5888
 3502SOL     OW13773   3.358   1.984   1.433  0.4963  0.1880  0.2280
 3502SOL    HW213774   3.453   1.968   1.439  0.2260 -1.5037  0.5029
 3502SOL    HW313775   3.346   2.022   1.346  1.4130  0.3565  0.1603
 3502SOL    MW413776   3.369   1.987   1.422  0.5816 -0.0130  0.2553
 3503SOL     OW13777   5.242   4.242   1.198 -0.1352 -0.8362 -0.3507
 3503SOL    HW213778   5.170   4.274   1.253 -1.3983  0.5312 -2.6521
 3503SOL    HW313779   5.279   4.322   1.159  0.8313 -1.7547 -1.3694
 3503SOL    MW413780   5.238   4.257   1.200 -0.1744 -0.7770 -0.7887
 3504SOL     OW13781   1.141   2.893   1.069 -0.9256  0.2957  0.4811
 3504SOL    HW213782   1.060   2.905   1.019 -0.5041  2.5337  0.2433
 3504SOL    HW313783   1.135   2.955   1.141  0.4313  0.2367  0.6701
 3504SOL    MW413784   1.129   2.903   1.072 -0.6910  0.5832  0.4746
 3505SOL     OW13785   1.477   1.666   2.239 -0.5394 -0.3215  0.0521
 3505SOL    HW213786   1.408   1.732   2.233  0.0289  0.2474 -0.3160
 3505SOL    HW313787   1.438   1.586   2.205 -0.7707  0.1923 -0.9126
 3505SOL    MW413788   1.463   1.664   2.234 -0.4949 -0.1786 -0.1237
 3506SOL     OW13789   0.580   3.918   2.083 -0.0488  0.0233 -0.2083
 3506SOL    HW213790   0.600   3.850   2.019  0.8673  1.0295 -1.0289
 3506SOL    HW313791   0.485   3.925   2.082 -0.1338 -0.9969 -0.3581
 3506SOL    MW413792   0.570   3.910   2.074  0.0609  0.0215 -0.3363
 3507SOL     OW13793   1.474   4.857   4.409 -0.7290  0.5082  0.1407
 3507SOL    HW213794   1.496   4.936   4.360  1.4644 -0.1135  0.0191
 3507SOL    HW313795   1.405   4.816   4.358 -0.6756  1.4587 -0.7398
 3507SOL    MW413796   1.468   4.862   4.396 -0.4326  0.5516  0.0085
 3508SOL     OW13797   1.457   5.313   1.156  0.1423  0.4255 -0.2220
 3508SOL    HW213798   1.399   5.275   1.221  1.8823 -0.6410  0.7845
 3508SOL    HW313799   1.449   5.256   1.080  0.8351 -0.5521  0.3985
 3508SOL    MW413800   1.449   5.301   1.155  0.4633  0.1558 -0.0074
 3509SOL     OW13801   4.900   5.775   0.685  0.1514 -0.0228 -0.5488
 3509SOL    HW213802   4.904   5.839   0.756 -1.2239  0.3425 -0.7746
 3509SOL    HW313803   4.940   5.696   0.721 -0.3236  0.2279  0.5667
 3509SOL    MW413804   4.906   5.773   0.699 -0.0927  0.0585 -0.4314
 3510SOL     OW13805   1.521   3.675   0.692  0.0140  0.1368  0.0294
 3510SOL    HW213806   1.565   3.679   0.776 -2.0682  0.0321  1.2088
 3510SOL    HW313807   1.500   3.766   0.671 -1.5492  0.0174  0.8722
 3510SOL    MW413808   1.524   3.687   0.700 -0.4669  0.1072  0.2962
 3511SOL     OW13809   2.489   0.306   5.047 -0.1901 -0.1391  0.0117
 3511SOL    HW213810   2.555   0.368   5.080  1.0269  0.5634 -3.3511
 3511SOL    HW313811   2.527   0.220   5.063  0.8663  0.2114 -0.5656
 3511SOL    MW413812   2.503   0.303   5.054  0.1099 -0.0002 -0.5082
 3512SOL     OW13813   5.162   4.619   4.994  0.0901  0.3007  0.3529
 3512SOL    HW213814   5.231   4.656   5.050 -0.1618  0.6948  0.4069
 3512SOL    HW313815   5.144   4.688   4.930 -3.0103  1.9183  2.6506
 3512SOL    MW413816   5.169   4.633   4.993 -0.3522  0.5661  0.6632
 3513SOL     OW13817   1.289   5.590   3.913  0.1047  0.0229 -0.0344
 3513SOL    HW213818   1.214   5.536   3.890 -0.1682  0.3486  0.0761
 3513SOL    HW313819   1.359   5.561   3.854  0.0562 -0.6615  0.2434
 3513SOL    MW413820   1.288   5.579   3.902  0.0623 -0.0244  0.0168
 3514SOL     OW13821   1.271   0.708   3.958 -0.4565 -0.2051  0.6206
 3514SOL    HW213822   1.303   0.619   3.975  0.6491  0.4900  2.3803
 3514SOL    HW313823   1.227   0.734   4.038  1.2267  1.6475  1.0183
 3514SOL    MW413824   1.270   0.699   3.971 -0.0885  0.1310  0.9052
 3515SOL     OW13825   1.138   3.613   1.547 -0.3240 -0.0650 -0.3948
 3515SOL    HW213826   1.097   3.639   1.629 -1.6704 -1.0715 -0.7205
 3515SOL    HW313827   1.151   3.696   1.500 -0.6725  0.4052  0.3085
 3515SOL    MW413828   1.135   3.628   1.552 -0.5476 -0.1358 -0.3450
 3516SOL     OW13829   2.685   4.498   2.183  0.0905 -0.0836  0.2292
 3516SOL    HW213830   2.647   4.444   2.252 -1.5946  2.4802  1.4999
 3516SOL    HW313831   2.651   4.461   2.102 -1.2717 -0.7502  1.0688
 3516SOL    MW413832   2.675   4.486   2.182 -0.3116  0.1668  0.5076
 3517SOL     OW13833   5.050   4.780   4.020  0.7032  0.8932 -0.2246
 3517SOL    HW213834   5.135   4.822   4.010 -0.0453  3.1169  1.8147
 3517SOL    HW313835   4.990   4.835   3.970  0.1865  0.4526 -0.0955
 3517SOL    MW413836   5.053   4.793   4.012  0.5363  1.1285  0.0615
 3518SOL     OW13837   6.373   4.897   3.152 -0.2446 -0.3172 -0.2331
 3518SOL    HW213838   6.401   4.968   3.095  1.9084  0.8528  2.0828
 3518SOL    HW313839   6.434   4.826   3.136  0.7399  0.2270  0.9270
 3518SOL    MW413840   6.385   4.897   3.143  0.1693 -0.0911  0.2255
 3519SOL     OW13841   5.953   3.582   5.133 -0.0318 -0.0153 -0.3739
 3519SOL    HW213842   5.989   3.573   5.044 -1.5137  0.2197 -1.0190
 3519SOL    HW313843   5.861   3.605   5.120 -0.4464 -0.6348  1.2317
 3519SOL    MW413844   5.946   3.584   5.119 -0.2821 -0.0661 -0.2472
 3520SOL     OW13845   2.885   6.308   0.787 -0.8090  0.1092 -0.4192
 3520SOL    HW213846   2.954   6.254   0.749 -0.4814  0.3806 -0.2268
 3520SOL    HW313847   2.840   6.347   0.712 -1.3278 -0.7675 -0.5685
 3520SOL    MW413848   2.888   6.306   0.772 -0.8342  0.0293 -0.4135
 3521SOL     OW13849   5.184   4.735   1.883 -0.1519 -0.3179  0.7912
 3521SOL    HW213850   5.119   4.717   1.951  1.0810 -1.6974  1.6676
 3521SOL    HW313851   5.262   4.763   1.932  0.7869 -1.4112 -0.0385
 3521SOL    MW413852   5.186   4.736   1.899  0.1346 -0.6442  0.7973
 3522SOL     OW13853   2.495   6.279   1.784  0.3675  0.3372 -0.1760
 3522SOL    HW213854   2.467   6.347   1.845 -0.1266 -0.3476  0.3760
 3522SOL    HW313855   2.503   6.200   1.838  0.1444 -0.2252 -0.9511
 3522SOL    MW413856   2.492   6.277   1.799  0.2729  0.1727 -0.2054
 3523SOL     OW13857   5.363   5.225   0.790  0.0827  0.4067 -0.1884
 3523SOL    HW213858   5.451   5.249   0.764  0.9297 -1.8717  0.3020
 3523SOL    HW313859   5.309   5.243   0.713  1.7299 -1.9196 -2.0444
 3523SOL    MW413860   5.367   5.230   0.776  0.4118 -0.2008 -0.3686
 3524SOL     OW13861   0.891   4.216   1.844 -0.6614  0.3252  0.1087
 3524SOL    HW213862   0.971   4.218   1.895  0.6348  1.1157 -1.8081
 3524SOL    HW313863   0.824   4.183   1.904  0.9144  0.4009  1.9985
 3524SOL    MW413864   0.893   4.212   1.858 -0.2825  0.4395  0.1051
 3525SOL     OW13865   2.327   3.560   3.088  0.1551  0.8189  0.1934
 3525SOL    HW213866   2.289   3.505   3.157 -0.2751  1.2185  0.2851
 3525SOL    HW313867   2.282   3.533   3.008  1.0168  0.0019 -0.0289
 3525SOL    MW413868   2.316   3.549   3.087  0.2120  0.7638  0.1762
 3526SOL     OW13869   3.467   5.131   2.556  0.3375 -0.2269 -0.6534
 3526SOL    HW213870   3.545   5.083   2.527  0.3783 -0.7510  0.2818
 3526SOL    HW313871   3.444   5.186   2.482  1.9304  0.3500 -0.7548
 3526SOL    MW413872   3.475   5.132   2.542  0.5530 -0.2199 -0.5434
 3527SOL     OW13873   2.857   1.019   0.008  0.3363  0.0532 -0.0271
 3527SOL    HW213874   2.807   1.020  -0.073 -0.9893  1.6757  0.7240
 3527SOL    HW313875   2.873   0.927   0.027 -1.4377 -0.4598 -0.8977
 3527SOL    MW413876   2.852   1.007  -0.000 -0.0727  0.1996 -0.0429
 3528SOL     OW13877   3.155   5.055   4.811  0.0518 -0.1397  0.5927
 3528SOL    HW213878   3.090   4.987   4.794  0.0662 -0.3491  1.3449
 3528SOL    HW313879   3.105   5.137   4.805 -0.2244 -0.2830  0.9024
 3528SOL    MW413880   3.140   5.057   4.808  0.0173 -0.1863  0.7328
 3529SOL     OW13881   0.910   1.912   0.247  0.1377 -0.1021  0.3465
 3529SOL    HW213882   0.847   1.948   0.185  0.1281 -2.3982 -1.1135
 3529SOL    HW313883   0.861   1.901   0.328 -0.0055  2.4404  0.6765
 3529SOL    MW413884   0.895   1.915   0.250  0.1175 -0.0696  0.1974
 3530SOL     OW13885   5.021   5.382   4.082 -0.9249 -0.0661  0.2657
 3530SOL    HW213886   5.103   5.430   4.077 -0.4988 -0.8599 -0.6018
 3530SOL    HW313887   4.993   5.391   4.173 -0.1013  0.5679  0.4628
 3530SOL    MW413888   5.028   5.390   4.093 -0.7600 -0.0872  0.1772
 3531SOL     OW13889   5.276   0.883   6.209  0.2577  0.1707  0.7059
 3531SOL    HW213890   5.259   0.962   6.260 -1.1598 -0.2277  0.8871
 3531SOL    HW313891   5.334   0.831   6.265 -0.7576  0.0293  1.6705
 3531SOL    MW413892   5.282   0.886   6.223 -0.0633  0.0994  0.8571
 3532SOL     OW13893   3.638   3.788   6.131  0.0952  0.5710 -0.2213
 3532SOL    HW213894   3.681   3.811   6.214 -1.3212 -1.4095  1.1267
 3532SOL    HW313895   3.709   3.788   6.067  1.3936  1.2514  1.1533
 3532SOL    MW413896   3.653   3.791   6.133  0.0796  0.3995  0.1379
 3533SOL     OW13897   1.515   2.462   1.229 -0.1673  0.4790 -0.3955
 3533SOL    HW213898   1.581   2.416   1.177 -0.4565  0.4890 -0.7768
 3533SOL    HW313899   1.565   2.521   1.284  0.1032  1.0206 -1.2077
 3533SOL    MW413900   1.530   2.463   1.229 -0.1698  0.5518 -0.5530
 3534SOL     OW13901   6.228   0.196   4.625 -0.3766  0.1381  0.0849
 3534SOL    HW213902   6.170   0.223   4.554  1.3451 -1.1489 -1.9179
 3534SOL    HW313903   6.307   0.250   4.614 -0.1564  0.0870  1.2100
 3534SOL    MW413904   6.231   0.207   4.615 -0.1204 -0.0385 -0.0309
 3535SOL     OW13905   4.000   4.703   3.062  0.4418 -0.2919  0.3735
 3535SOL    HW213906   3.993   4.677   2.970  2.6737  0.4998 -0.0885
 3535SOL    HW313907   3.915   4.740   3.083 -1.0077 -2.8629 -0.5455
 3535SOL    MW413908   3.988   4.704   3.052  0.5450 -0.5267  0.1913
 3536SOL     OW13909   5.073   1.540   0.125 -0.1210 -0.2374  0.1515
 3536SOL    HW213910   5.076   1.445   0.111  0.8429 -0.4844  1.7813
 3536SOL    HW313911   5.019   1.573   0.053  1.0900 -1.7873 -1.5634
 3536SOL    MW413912   5.067   1.532   0.114  0.1660 -0.4745  0.1403
 3537SOL     OW13913   3.544   3.963   5.017 -0.1026 -0.4950  0.2471
 3537SOL    HW213914   3.571   3.889   4.963  0.2300  0.8402 -1.5241
 3537SOL    HW313915   3.453   3.978   4.992 -0.1466 -0.2702  0.5469
 3537SOL    MW413916   3.535   3.955   5.006 -0.0645 -0.2892  0.0529
 3538SOL     OW13917   5.310   4.471   1.860  0.6614  0.8366  0.0931
 3538SOL    HW213918   5.298   4.482   1.766 -0.1643  0.7012  0.1692
 3538SOL    HW313919   5.284   4.555   1.897 -0.7478  0.3402  0.3105
 3538SOL    MW413920   5.305   4.483   1.853  0.3666  0.7532  0.1318
 3539SOL     OW13921   2.056   0.861   0.521 -0.3031 -0.1090  0.3411
 3539SOL    HW213922   1.998   0.876   0.595 -0.4800  0.1781  0.1480
 3539SOL    HW313923   2.108   0.941   0.514  1.9148 -1.2860  2.0683
 3539SOL    MW413924   2.055   0.873   0.530 -0.0339 -0.2264  0.5435
 3540SOL     OW13925   5.367   1.494   1.531  0.3025  0.4079  0.2672
 3540SOL    HW213926   5.422   1.572   1.530  1.8537 -0.6114 -1.8878
 3540SOL    HW313927   5.405   1.437   1.597  1.4399  0.0130 -0.7018
 3540SOL    MW413928   5.379   1.496   1.539  0.6572  0.2213 -0.1450
 3541SOL     OW13929   6.029   3.832   6.080  0.5371 -0.1286 -0.0423
 3541SOL    HW213930   6.119   3.854   6.056  0.7254  0.1677  0.8773
 3541SOL    HW313931   6.007   3.757   6.025  0.7322  0.8431 -1.5127
 3541SOL    MW413932   6.038   3.825   6.070  0.5877  0.0387 -0.1149
 3542SOL     OW13933   6.318   2.246   4.356  0.5072 -0.4740 -0.3091
 3542SOL    HW213934   6.359   2.208   4.433  0.1563  1.8534  1.1271
 3542SOL    HW313935   6.237   2.195   4.344  0.1882 -0.4077  1.3462
 3542SOL    MW413936   6.312   2.234   4.364  0.4188 -0.1582  0.0988
 3543SOL     OW13937   2.623   4.786   5.741 -0.5445  0.0546 -0.1427
 3543SOL    HW213938   2.629   4.785   5.645 -0.8565 -0.3440 -0.1579
 3543SOL    HW313939   2.699   4.838   5.769  0.1965 -0.7892 -0.5544
 3543SOL    MW413940   2.634   4.793   5.732 -0.4879 -0.1093 -0.1990
 3544SOL     OW13941   2.194   6.353   3.462 -0.0877 -0.0499 -0.3437
 3544SOL    HW213942   2.169   6.266   3.494  0.1959 -0.3884 -1.0297
 3544SOL    HW313943   2.288   6.358   3.477 -0.1321  0.2207 -0.1333
 3544SOL    MW413944   2.203   6.342   3.468 -0.0561 -0.0588 -0.4064
 3545SOL     OW13945   4.634   6.220   1.989  0.0377 -0.4491  0.3133
 3545SOL    HW213946   4.559   6.174   2.027  0.7681 -1.3775  0.6638
 3545SOL    HW313947   4.678   6.261   2.063  0.0062 -0.0924  0.1380
 3545SOL    MW413948   4.630   6.219   2.003  0.1299 -0.5245  0.3364
 3546SOL     OW13949   4.837   5.559   1.223  0.1322 -0.4282  0.5638
 3546SOL    HW213950   4.755   5.511   1.234 -0.6031  0.4684 -0.8111
 3546SOL    HW313951   4.811   5.645   1.190  1.5497  0.2995  1.2461
 3546SOL    MW413952   4.823   5.564   1.220  0.2222 -0.2139  0.4724
 3547SOL     OW13953   5.941   5.510   3.250  0.0910  0.1504  0.4594
 3547SOL    HW213954   6.018   5.493   3.304  0.0056 -1.5851  0.0816
 3547SOL    HW313955   5.966   5.481   3.162 -0.9698 -0.4059  0.3246
 3547SOL    MW413956   5.955   5.504   3.245 -0.0602 -0.1520  0.3918
 3548SOL     OW13957   2.585   4.849   0.673  0.6459  0.2133 -0.0973
 3548SOL    HW213958   2.608   4.940   0.658  2.0003  0.0005  0.5528
 3548SOL    HW313959   2.499   4.852   0.714  0.9165  1.2239  0.4081
 3548SOL    MW413960   2.577   4.861   0.676  0.8603  0.3186  0.0551
 3549SOL     OW13961   1.499   0.832   6.371  0.5501  0.2534 -0.2952
 3549SOL    HW213962   1.540   0.749   6.397 -0.5343 -0.8026 -1.7597
 3549SOL    HW313963   1.445   0.856   6.446  1.1999 -0.1494  0.3140
 3549SOL    MW413964   1.497   0.824   6.385  0.4928  0.0609 -0.4081
 3550SOL     OW13965   5.405   6.092   4.623 -0.6430 -0.5717  0.0021
 3550SOL    HW213966   5.447   6.145   4.555 -0.4430 -0.3636  0.2867
 3550SOL    HW313967   5.354   6.154   4.675 -0.5389 -0.6795  0.2353
 3550SOL    MW413968   5.404   6.107   4.621 -0.6029 -0.5584  0.0704
 3551SOL     OW13969   4.243   0.867   3.979  0.3535  0.7318 -0.3353
 3551SOL    HW213970   4.186   0.794   4.004  2.2356 -0.7279 -0.0314
 3551SOL    HW313971   4.248   0.862   3.884  0.3995  0.4847 -0.3226
 3551SOL    MW413972   4.236   0.856   3.970  0.6079  0.5066 -0.2935
 3552SOL     OW13973   0.112   3.160   0.966 -0.4191 -0.0601  0.4939
 3552SOL    HW213974   0.119   3.231   1.031 -0.3872 -0.2392  0.6873
 3552SOL    HW313975   0.044   3.189   0.906  0.8615  0.9967 -0.4949
 3552SOL    MW413976   0.104   3.173   0.967 -0.2459  0.0557  0.3890
 3553SOL     OW13977   0.494   4.692   3.083  0.0225 -0.0240 -0.5288
 3553SOL    HW213978   0.571   4.655   3.126 -0.6384 -0.2663  0.4806
 3553SOL    HW313979   0.442   4.616   3.057 -0.3460  0.1506 -0.3118
 3553SOL    MW413980   0.498   4.677   3.085 -0.1133 -0.0329 -0.3670
 3554SOL     OW13981   4.581   2.177   6.114  0.2719  0.1882  0.4474
 3554SOL    HW213982   4.568   2.270   6.133  0.5162  0.0730  1.1997
 3554SOL    HW313983   4.608   2.175   6.022  2.9415  1.1000  1.1236
 3554SOL    MW413984   4.583   2.189   6.104  0.6564  0.2933  0.6359
 3555SOL     OW13985   2.497   4.434   2.838 -0.0595  0.4099  0.3503
 3555SOL    HW213986   2.459   4.365   2.785 -1.0762  0.5657  0.8395
 3555SOL    HW313987   2.429   4.501   2.842  0.7226  1.2286  0.2842
 3555SOL    MW413988   2.483   4.434   2.832 -0.0905  0.5385  0.4061
 3556SOL     OW13989   2.912   2.613   5.051  0.0342  0.7600 -0.0135
 3556SOL    HW213990   2.982   2.548   5.055  0.7188  1.5300  1.1288
 3556SOL    HW313991   2.840   2.568   5.006 -0.3391 -1.5966  2.6110
 3556SOL    MW413992   2.912   2.598   5.046  0.0753  0.5507  0.4835
 3557SOL     OW13993   3.648   1.681   1.506  0.0428 -0.0516 -0.0495
 3557SOL    HW213994   3.670   1.695   1.598  0.6300  0.6487 -0.2849
 3557SOL    HW313995   3.562   1.640   1.507 -0.2931  0.6444  0.7920
 3557SOL    MW413996   3.640   1.678   1.518  0.0760  0.1326  0.0305
 3558SOL     OW13997   3.679   3.135   3.924  0.5915  0.2001 -0.4810
 3558SOL    HW213998   3.650   3.138   3.833  0.0268 -2.6505 -0.4935
 3558SOL    HW313999   3.599   3.116   3.974  1.0066  1.0442  0.5440
 3558SOL    MW414000   3.665   3.133   3.919  0.5718 -0.0646 -0.3474
 3559SOL     OW14001   0.393   4.852   0.499  0.5181  0.2731 -0.4314
 3559SOL    HW214002   0.418   4.771   0.543  0.8252  1.2863  1.3281
 3559SOL    HW314003   0.403   4.832   0.406  1.4878 -1.4054 -0.0080
 3559SOL    MW414004   0.397   4.838   0.492  0.6866  0.1853 -0.1434
 3560SOL     OW14005   5.138   6.328   5.963  0.5156 -0.3497 -0.3109
 3560SOL    HW214006   5.175   6.250   5.922  0.7671 -0.1351 -0.4967
 3560SOL    HW314007   5.049   6.302   5.988  0.3172 -0.4589 -1.0870
 3560SOL    MW414008   5.131   6.315   5.961  0.5226 -0.3358 -0.4378
 3561SOL     OW14009   3.657   5.527   4.864  0.0139  0.8259 -0.3089
 3561SOL    HW214010   3.672   5.579   4.785 -2.8143  2.2168 -0.0494
 3561SOL    HW314011   3.571   5.486   4.850 -1.0484  1.8984  2.3829
 3561SOL    MW414012   3.647   5.528   4.852 -0.4994  1.1509  0.0805
 3562SOL     OW14013   1.603   0.770   1.452 -0.4342 -0.4414 -0.1137
 3562SOL    HW214014   1.508   0.779   1.456 -0.3363  0.6513  0.0946
 3562SOL    HW314015   1.633   0.850   1.407  0.5783  0.6045  2.2419
 3562SOL    MW414016   1.595   0.782   1.447 -0.2877 -0.1593  0.2246
 3563SOL     OW14017   0.840   2.421   3.900 -0.7117 -0.3061  0.3797
 3563SOL    HW214018   0.879   2.375   3.975 -2.1316 -1.3437  0.5120
 3563SOL    HW314019   0.775   2.360   3.866 -0.2563  0.2436 -1.5788
 3563SOL    MW414020   0.837   2.407   3.905 -0.8390 -0.3705  0.1387
 3564SOL     OW14021   4.168   2.771   2.186  0.5491  0.0398  0.5280
 3564SOL    HW214022   4.204   2.708   2.249  0.0423  0.3835  1.1702
 3564SOL    HW314023   4.133   2.842   2.240 -1.0499 -0.2450 -0.0773
 3564SOL    MW414024   4.168   2.772   2.202  0.2712  0.0475  0.5329
 3565SOL     OW14025   5.211   4.690   5.477 -0.3524 -0.5009 -0.3512
 3565SOL    HW214026   5.136   4.683   5.535 -0.8333 -1.7245 -1.0728
 3565SOL    HW314027   5.173   4.695   5.389  0.3819  0.3224 -0.6393
 3565SOL    MW414028   5.196   4.690   5.473 -0.3190 -0.5538 -0.4844
 3566SOL     OW14029   5.506   0.592   2.422  0.9411  0.0378 -0.0641
 3566SOL    HW214030   5.475   0.683   2.424 -2.5591 -1.0171  0.1248
 3566SOL    HW314031   5.478   0.556   2.506  0.6835 -1.6626 -0.8466
 3566SOL    MW414032   5.498   0.599   2.434  0.4453 -0.3257 -0.1424
 3567SOL     OW14033   4.178   5.475   2.146 -0.5506  0.6608 -0.0928
 3567SOL    HW214034   4.089   5.471   2.110 -0.4069  1.1269 -0.5167
 3567SOL    HW314035   4.194   5.569   2.158 -0.2256  0.5585  0.2549
 3567SOL    MW414036   4.168   5.487   2.143 -0.4888  0.7088 -0.1029
 3568SOL     OW14037   4.740   3.754   0.232 -0.2609  0.1291  0.0358
 3568SOL    HW214038   4.740   3.674   0.284  1.0648 -0.4903 -0.8814
 3568SOL    HW314039   4.816   3.803   0.263 -1.2098  1.2150  0.7867
 3568SOL    MW414040   4.750   3.750   0.243 -0.2112  0.1906  0.0139
 3569SOL     OW14041   5.667   1.670   1.977 -0.1885 -0.2428  0.4126
 3569SOL    HW214042   5.745   1.618   1.955 -0.5041 -1.1243  1.2724
 3569SOL    HW314043   5.667   1.742   1.914  0.2666 -1.2859 -0.8255
 3569SOL    MW414044   5.677   1.672   1.966 -0.1701 -0.4967  0.3627
 3570SOL     OW14045   2.763   5.471   0.397  0.2483 -0.4306  0.3296
 3570SOL    HW214046   2.799   5.413   0.331 -1.0207 -0.3003 -0.5052
 3570SOL    HW314047   2.786   5.559   0.368  1.8275 -0.4615  1.3862
 3570SOL    MW414048   2.770   5.475   0.385  0.2892 -0.4175  0.3589
 3571SOL     OW14049   0.979   1.452   6.118 -0.2164 -0.2237  0.1861
 3571SOL    HW214050   1.016   1.393   6.184 -0.8910 -1.0389 -0.1468
 3571SOL    HW314051   1.050   1.512   6.098 -0.5233  1.1839  2.9237
 3571SOL    MW414052   0.993   1.452   6.124 -0.3459 -0.1455  0.5033
 3572SOL     OW14053   0.295   4.986   5.540 -0.0587 -0.2711 -0.0218
 3572SOL    HW214054   0.246   4.931   5.478  2.0658 -1.8543 -0.3985
 3572SOL    HW314055   0.342   5.048   5.485  1.2293 -1.1807  0.0218
 3572SOL    MW414056   0.294   4.987   5.524  0.3915 -0.6000 -0.0657
 3573SOL     OW14057   0.785   4.896   4.161 -0.0489  0.5181  0.0408
 3573SOL    HW214058   0.877   4.892   4.136  0.0410  0.9358  0.2908
 3573SOL    HW314059   0.749   4.812   4.134  0.5706  0.0595  0.5974
 3573SOL    MW414060   0.792   4.884   4.154  0.0447  0.5127  0.1472
 3574SOL     OW14061   1.336   3.623   3.341  0.2996 -0.4377 -0.5720
 3574SOL    HW214062   1.265   3.688   3.344  0.9261  0.2435  1.7130
 3574SOL    HW314063   1.298   3.544   3.381  0.5492 -0.3547 -0.1637
 3574SOL    MW414064   1.322   3.621   3.347  0.4152 -0.3369 -0.2167
 3575SOL     OW14065   0.445   0.677   5.826  0.4084 -0.1444 -0.0818
 3575SOL    HW214066   0.525   0.711   5.866  0.7277 -0.9357 -0.0337
 3575SOL    HW314067   0.405   0.625   5.895  0.0334 -0.0487 -0.2265
 3575SOL    MW414068   0.450   0.675   5.840  0.4011 -0.2362 -0.0945
 3576SOL     OW14069   1.969   1.822   5.891  0.0321 -0.0164 -0.3757
 3576SOL    HW214070   1.956   1.821   5.986 -1.0271  1.3540 -0.4740
 3576SOL    HW314071   2.055   1.862   5.878  0.8618 -1.6091  0.0342
 3576SOL    MW414072   1.979   1.827   5.902  0.0018 -0.0457 -0.3346
 3577SOL     OW14073   0.085   5.704   0.512 -0.3230  0.3400 -0.8870
 3577SOL    HW214074   0.101   5.653   0.432  0.2579 -1.5768  0.4059
 3577SOL    HW314075  -0.009   5.694   0.529 -0.1990 -0.3774 -0.6014
 3577SOL    MW414076   0.074   5.696   0.503 -0.2300 -0.0075 -0.6787
 3578SOL     OW14077   5.197   3.505   4.450  0.0563 -0.2677 -0.0123
 3578SOL    HW214078   5.149   3.584   4.475 -1.0408 -0.5827 -1.0137
 3578SOL    HW314079   5.141   3.462   4.385  2.6293  0.4757 -3.0003
 3578SOL    MW414080   5.183   3.509   4.445  0.2510 -0.2112 -0.5386
 3579SOL     OW14081   3.776   0.063   0.531  0.1518  0.6724 -0.1718
 3579SOL    HW214082   3.773   0.136   0.469 -1.3167  1.0509  0.2973
 3579SOL    HW314083   3.869   0.042   0.539  0.4793  1.5225 -1.4405
 3579SOL    MW414084   3.788   0.070   0.524  0.0013  0.8345 -0.2773
 3580SOL     OW14085   3.031   5.690   1.447  0.4809  0.1009 -0.0020
 3580SOL    HW214086   3.024   5.674   1.541 -1.6419 -1.1180 -0.3093
 3580SOL    HW314087   2.951   5.652   1.410  1.7368 -0.3582 -2.4240
 3580SOL    MW414088   3.019   5.683   1.454  0.3665 -0.1205 -0.3621
 3581SOL     OW14089   3.395   3.209   2.049 -0.5265 -0.4294  0.3841
 3581SOL    HW214090   3.420   3.138   1.990 -1.1539 -0.8836  0.6496
 3581SOL    HW314091   3.475   3.260   2.062  0.6819 -2.6760  2.3829
 3581SOL    MW414092   3.409   3.207   2.043 -0.4499 -0.7858  0.6828
 3582SOL     OW14093   4.161   2.588   4.463 -0.2426 -0.4296  0.6194
 3582SOL    HW214094   4.098   2.652   4.498 -0.9947 -1.1259  0.5865
 3582SOL    HW314095   4.113   2.544   4.394  0.7451 -0.0822 -0.3077
 3582SOL    MW414096   4.146   2.591   4.459 -0.2115 -0.4756  0.4927
 3583SOL     OW14097   4.038   0.483   5.124  0.3672  0.1003 -0.0654
 3583SOL    HW214098   4.033   0.578   5.129 -0.2649  0.1008 -0.5245
 3583SOL    HW314099   3.992   0.461   5.043 -1.9008 -0.7672  1.3552
 3583SOL    MW414100   4.031   0.493   5.114 -0.0155 -0.0141  0.0614
 3584SOL     OW14101   1.285   4.533   4.872  0.5418  0.8706  0.2528
 3584SOL    HW214102   1.356   4.469   4.867  0.0337  0.4025 -1.8217
 3584SOL    HW314103   1.221   4.503   4.807 -1.2787  1.6244  1.6149
 3584SOL    MW414104   1.286   4.521   4.863  0.2345  0.9083  0.1588
 3585SOL     OW14105   5.736   1.954   3.421  0.1526 -0.3631  0.1365
 3585SOL    HW214106   5.704   1.993   3.340 -1.4946 -0.0945  0.8753
 3585SOL    HW314107   5.700   1.866   3.422  1.5876 -0.9776 -0.2141
 3585SOL    MW414108   5.727   1.948   3.411  0.1246 -0.4088  0.1877
 3586SOL     OW14109   4.508   0.250   2.202 -0.3705  0.3724 -0.1462
 3586SOL    HW214110   4.508   0.342   2.228  0.9348  0.8337 -1.6920
 3586SOL    HW314111   4.528   0.250   2.109 -0.3855 -1.4890 -0.1999
 3586SOL    MW414112   4.510   0.262   2.193 -0.2003  0.1877 -0.3572
 3587SOL     OW14113   2.017   0.397   1.202  0.1036  0.4569 -0.2268
 3587SOL    HW214114   1.950   0.394   1.270 -0.1312  1.3093 -0.4072
 3587SOL    HW314115   2.089   0.345   1.238 -0.2362  0.4255  0.4291
 3587SOL    MW414116   2.018   0.390   1.216  0.0278  0.5652 -0.1640
 3588SOL     OW14117   2.269   4.731   3.219 -0.7975 -0.1166  0.3821
 3588SOL    HW214118   2.283   4.790   3.293 -0.7270  3.3647 -2.2002
 3588SOL    HW314119   2.186   4.760   3.180 -0.3001 -1.1119 -1.5391
 3588SOL    MW414120   2.260   4.742   3.224 -0.7226  0.2114 -0.2121
 3589SOL     OW14121   0.941   3.640   2.093  0.4071 -0.3175  0.2057
 3589SOL    HW214122   0.873   3.605   2.034 -0.0535 -0.9584  1.0944
 3589SOL    HW314123   0.991   3.563   2.119  0.5507 -0.0488  0.7206
 3589SOL    MW414124   0.938   3.626   2.088  0.3653 -0.3666  0.3909
 3590SOL     OW14125   5.222   0.118   4.753  0.2214  0.1650  0.3275
 3590SOL    HW214126   5.304   0.168   4.748 -0.5740  1.4859  0.2321
 3590SOL    HW314127   5.155   0.178   4.723 -0.7576 -1.0365  0.0153
 3590SOL    MW414128   5.224   0.132   4.748 -0.0127  0.1808  0.2737
 3591SOL     OW14129   1.688   4.386   1.581 -0.4055 -0.0021  0.1595
 3591SOL    HW214130   1.603   4.360   1.617  0.8427 -2.1351  1.8738
 3591SOL    HW314131   1.748   4.378   1.656  1.9222 -2.2187 -1.7621
 3591SOL    MW414132   1.685   4.381   1.596  0.0663 -0.5760  0.1322
 3592SOL     OW14133   3.637   3.672   2.461  0.1579  0.1557 -0.1541
 3592SOL    HW214134   3.721   3.651   2.502  0.2469  1.2765  0.2654
 3592SOL    HW314135   3.639   3.766   2.448 -1.8402  0.5359  1.6955
 3592SOL    MW414136   3.648   3.681   2.465 -0.0940  0.3537  0.1453
 3593SOL     OW14137   3.993   3.956   0.343 -0.4820  0.7680 -0.3954
 3593SOL    HW214138   3.903   3.987   0.345 -0.5762  0.4628  0.7536
 3593SOL    HW314139   3.991   3.873   0.391  0.5848  1.2708  0.5739
 3593SOL    MW414140   3.981   3.949   0.350 -0.3537  0.7941 -0.1159
 3594SOL     OW14141   1.531   1.156   0.110  0.3333  0.3523 -0.0604
 3594SOL    HW214142   1.532   1.244   0.072  0.1666  0.6415  0.5744
 3594SOL    HW314143   1.464   1.109   0.061 -0.6797  1.0593  0.5796
 3594SOL    MW414144   1.522   1.161   0.099  0.1777  0.4837  0.1078
 3595SOL     OW14145   1.399   2.195   0.884  0.0293 -0.0293  0.4049
 3595SOL    HW214146   1.446   2.160   0.808  1.5076 -0.5132  1.4935
 3595SOL    HW314147   1.327   2.246   0.847 -0.4482 -1.8099 -1.2835
 3595SOL    MW414148   1.396   2.197   0.869  0.1613 -0.3281  0.3258
 3596SOL     OW14149   0.958   4.393   2.751 -0.0934  0.2671 -0.3868
 3596SOL    HW214150   0.867   4.407   2.725  0.1542  0.8153 -0.9722
 3596SOL    HW314151   0.957   4.308   2.796 -1.0282  0.6149  0.2899
 3596SOL    MW414152   0.946   4.383   2.754 -0.1841  0.3853 -0.3748
 3597SOL     OW14153   6.237   1.657   5.759 -0.1545 -0.3857 -0.3260
 3597SOL    HW214154   6.256   1.570   5.794 -1.3317 -0.5270  0.0150
 3597SOL    HW314155   6.323   1.696   5.743  0.3967 -1.5835 -0.4319
 3597SOL    MW414156   6.251   1.651   5.761 -0.2371 -0.5624 -0.2950
 3598SOL     OW14157   3.513   4.797   4.560 -0.5494 -0.4195  0.5451
 3598SOL    HW214158   3.517   4.724   4.621  2.1985 -0.9111 -0.0621
 3598SOL    HW314159   3.570   4.864   4.598 -2.1639  1.0195  0.5599
 3598SOL    MW414160   3.521   4.796   4.573 -0.3999 -0.2945  0.4669
 3599SOL     OW14161   2.598   4.858   6.173 -0.0417  0.2761 -0.2680
 3599SOL    HW214162   2.644   4.817   6.246  0.2845  0.6978 -0.2397
 3599SOL    HW314163   2.541   4.923   6.214  0.4042  0.7630 -0.4124
 3599SOL    MW414164   2.596   4.861   6.188  0.0602  0.3960 -0.2833
 3600SOL     OW14165   2.480   6.086   5.141  0.0062  0.1136  0.4613
 3600SOL    HW214166   2.562   6.105   5.096  1.7763  0.1780  3.4184
 3600SOL    HW314167   2.441   6.013   5.092  0.8595  1.2387 -2.0404
 3600SOL    MW414168   2.485   6.079   5.129  0.3523  0.2705  0.5214
 3601SOL     OW14169   5.269   6.038   3.273 -0.1023 -0.0510  1.3491
 3601SOL    HW214170   5.276   6.095   3.350  0.7611  1.8552 -0.0409
 3601SOL    HW314171   5.341   6.067   3.216  0.6971 -2.9392  0.7636
 3601SOL    MW414172   5.279   6.050   3.276  0.1171 -0.1806  1.0885
 3602SOL     OW14173   5.593   4.881   3.573 -0.0766  0.3255  0.4758
 3602SOL    HW214174   5.567   4.968   3.541  1.6975  0.8399  0.3479
 3602SOL    HW314175   5.618   4.896   3.664  2.5696  0.4839 -0.2116
 3602SOL    MW414176   5.593   4.895   3.580  0.5066  0.4143  0.3682
 3603SOL     OW14177   4.101   2.662   2.596 -0.4725  0.2859 -0.1406
 3603SOL    HW214178   4.036   2.625   2.537  1.0231 -3.0317  0.0648
 3603SOL    HW314179   4.185   2.638   2.557  0.5838  0.8052  1.6858
 3603SOL    MW414180   4.104   2.654   2.583 -0.1358 -0.0833  0.1275
 3604SOL     OW14181   5.690   3.095   5.761  0.1565 -0.1490 -0.2932
 3604SOL    HW214182   5.644   3.170   5.726 -1.0195 -0.1484  1.1498
 3604SOL    HW314183   5.730   3.053   5.685  1.0363  2.0237 -1.1036
 3604SOL    MW414184   5.690   3.099   5.746  0.1174  0.1378 -0.2097
 3605SOL     OW14185   3.386   0.064   2.871 -0.3924 -0.2606  0.1535
 3605SOL    HW214186   3.380   0.095   2.781  0.5787  1.3180  0.6118
 3605SOL    HW314187   3.317  -0.003   2.877 -1.6567  0.8462 -1.2466
 3605SOL    MW414188   3.376   0.059   2.860 -0.4311  0.0937  0.0292
 3606SOL     OW14189   3.383   2.788   5.254  0.2291 -0.3029  0.1964
 3606SOL    HW214190   3.288   2.780   5.244  0.1093  0.7810  0.2892
 3606SOL    HW314191   3.418   2.707   5.217 -0.6393  0.0652 -1.5797
 3606SOL    MW414192   3.375   2.776   5.248  0.0987 -0.1113 -0.0257
 3607SOL     OW14193   2.609   3.765   2.082 -1.0696  0.1562 -0.2397
 3607SOL    HW214194   2.594   3.858   2.094  0.1727  0.5680 -1.6297
 3607SOL    HW314195   2.704   3.756   2.075 -1.1633 -1.2249 -0.0412
 3607SOL    MW414196   2.620   3.776   2.083 -0.9181  0.0283 -0.3969
 3608SOL     OW14197   1.962   1.346   3.436 -0.5586  0.2086 -0.0931
 3608SOL    HW214198   1.910   1.400   3.377 -0.1872 -0.6395 -1.2399
 3608SOL    HW314199   2.005   1.282   3.378  0.5366 -0.0761  0.9933
 3608SOL    MW414200   1.961   1.345   3.420 -0.3651  0.0591 -0.1011
 3609SOL     OW14201   3.427   4.374   6.140  0.5901 -0.6611  0.1719
 3609SOL    HW214202   3.494   4.396   6.075  0.7900  0.1452  0.6397
 3609SOL    HW314203   3.457   4.415   6.221 -0.0119 -1.0599  0.6106
 3609SOL    MW414204   3.440   4.382   6.142  0.5371 -0.6074  0.2915
 3610SOL     OW14205   0.748   1.655   1.991 -0.1151 -0.0806 -0.3081
 3610SOL    HW214206   0.807   1.583   1.968 -0.0850 -0.2950  0.3999
 3610SOL    HW314207   0.761   1.720   1.922 -0.6833 -1.0571 -1.3730
 3610SOL    MW414208   0.758   1.654   1.979 -0.1861 -0.2378 -0.3552
 3611SOL     OW14209   5.692   1.130   2.665 -0.2170  0.5291  0.0356
 3611SOL    HW214210   5.739   1.077   2.730  0.1501  1.0735  0.2175
 3611SOL    HW314211   5.646   1.196   2.717  0.4489  1.2552 -0.2906
 3611SOL    MW414212   5.692   1.131   2.681 -0.0807  0.6967  0.0165
 3612SOL     OW14213   0.606   2.265   3.827 -0.1597 -0.0130  0.2101
 3612SOL    HW214214   0.516   2.297   3.828 -0.9499 -1.8311 -2.5925
 3612SOL    HW314215   0.600   2.175   3.860 -0.2448 -1.6874 -3.8552
 3612SOL    MW414216   0.593   2.257   3.832 -0.2752 -0.4738 -0.6960
 3613SOL     OW14217   3.592   6.389   5.178 -0.4144  0.2961  0.5512
 3613SOL    HW214218   3.654   6.316   5.184  0.6801  1.0616 -0.6917
 3613SOL    HW314219   3.631   6.459   5.230 -0.5844  0.5429  0.3550
 3613SOL    MW414220   3.605   6.389   5.185 -0.2925  0.4297  0.3613
 3614SOL     OW14221   2.979   3.049   1.499 -1.0512 -0.0071  0.1088
 3614SOL    HW214222   3.014   3.135   1.525 -1.3804 -0.2699  1.4747
 3614SOL    HW314223   2.991   2.994   1.576 -1.6583 -0.9529 -0.4606
 3614SOL    MW414224   2.986   3.053   1.512 -1.1747 -0.1665  0.2139
 3615SOL     OW14225   2.762   6.254   1.171  0.6604  0.0877 -0.3223
 3615SOL    HW214226   2.709   6.238   1.093  1.3564 -1.0245 -0.5953
 3615SOL    HW314227   2.699   6.249   1.244  0.2004 -0.0463 -0.7246
 3615SOL    MW414228   2.747   6.251   1.171  0.6916 -0.0767 -0.4114
 3616SOL     OW14229   2.016   4.935   0.193 -0.4972 -0.4750  0.9937
 3616SOL    HW214230   2.038   4.982   0.112 -1.9850 -1.4081 -0.0084
 3616SOL    HW314231   2.011   4.843   0.167 -1.3515 -0.7527  2.0588
 3616SOL    MW414232   2.018   4.929   0.179 -0.8062 -0.6348  1.0020
 3617SOL     OW14233   6.045   6.232   5.992 -0.7673  0.1264 -0.2818
 3617SOL    HW214234   6.079   6.290   6.061 -1.3251  0.4733 -0.2996
 3617SOL    HW314235   5.968   6.191   6.031 -1.1088  0.3520 -0.7126
 3617SOL    MW414236   6.040   6.234   6.007 -0.8859  0.2019 -0.3410
 3618SOL     OW14237   3.218   0.303   5.715 -0.6068 -0.0677 -0.1121
 3618SOL    HW214238   3.265   0.344   5.643 -0.3835  1.2268  0.7312
 3618SOL    HW314239   3.195   0.216   5.683  1.0441 -0.1769 -1.0935
 3618SOL    MW414240   3.221   0.297   5.701 -0.3595  0.0887 -0.1303
 3619SOL     OW14241   3.137   5.076   1.134  0.3922  0.0049 -0.4110
 3619SOL    HW214242   3.184   5.033   1.205  0.9107  0.1248 -0.6749
 3619SOL    HW314243   3.116   5.163   1.168  0.2759 -0.0836 -0.2572
 3619SOL    MW414244   3.141   5.082   1.148  0.4452  0.0090 -0.4255
 3620SOL     OW14245   2.182   2.237   2.302  0.0489 -0.2343 -0.4183
 3620SOL    HW214246   2.118   2.214   2.370 -0.5621  2.2268 -0.0887
 3620SOL    HW314247   2.141   2.207   2.221 -0.7071 -0.2768 -0.0325
 3620SOL    MW414248   2.168   2.230   2.301 -0.1315  0.0848 -0.3239
 3621SOL     OW14249   1.099   5.783   3.189 -0.4867  0.2830  0.3962
 3621SOL    HW214250   1.189   5.807   3.210  0.3078 -1.9067 -0.3106
 3621SOL    HW314251   1.048   5.820   3.261  0.7639  2.6661  0.1632
 3621SOL    MW414252   1.104   5.791   3.201 -0.2169  0.3085  0.2722
 3622SOL     OW14253   6.034   1.970   5.265 -0.1433 -0.1856 -0.4309
 3622SOL    HW214254   6.112   1.914   5.260 -0.3628 -0.4520 -0.9531
 3622SOL    HW314255   5.978   1.927   5.329  0.9463  1.0476  1.4479
 3622SOL    MW414256   6.037   1.957   5.273 -0.0285 -0.0581 -0.2519
 3623SOL     OW14257   3.974   4.057   1.319 -0.1835  0.2726 -0.2981
 3623SOL    HW214258   4.016   4.023   1.240  1.4056  0.7865  0.3039
 3623SOL    HW314259   4.011   4.005   1.390 -0.0320  1.2115  0.3163
 3623SOL    MW414260   3.984   4.045   1.318  0.0461  0.4643 -0.1376
 3624SOL     OW14261   2.941   6.023   0.410 -0.0960  0.7294 -0.3116
 3624SOL    HW214262   2.884   5.979   0.347 -0.8980  0.1815  0.7611
 3624SOL    HW314263   3.021   6.042   0.361  0.5127 -2.3555 -0.7604
 3624SOL    MW414264   2.944   6.020   0.395 -0.1215  0.2501 -0.2293
 3625SOL     OW14265   3.836   5.990   5.048  0.8043  0.1405 -0.1530
 3625SOL    HW214266   3.747   5.994   5.013  0.8239  1.7693 -0.1061
 3625SOL    HW314267   3.891   5.968   4.973  0.3062 -1.7451 -0.0144
 3625SOL    MW414268   3.831   5.988   5.034  0.7412  0.1066 -0.1285
 3626SOL     OW14269   4.542   5.521   5.456  0.0579 -0.0740 -0.4913
 3626SOL    HW214270   4.580   5.440   5.490 -0.9771 -0.9858 -1.4205
 3626SOL    HW314271   4.470   5.492   5.399  0.9123  1.4019 -2.4511
 3626SOL    MW414272   4.537   5.507   5.453  0.0341  0.0004 -0.8725
 3627SOL     OW14273   5.971   4.487   1.051  0.2164 -0.1929 -0.0909
 3627SOL    HW214274   5.880   4.502   1.074 -0.2144 -1.1085 -1.0714
 3627SOL    HW314275   6.007   4.574   1.035 -0.8240  0.1142 -0.8723
 3627SOL    MW414276   5.964   4.500   1.052  0.0223 -0.2732 -0.3233
 3628SOL     OW14277   6.018   1.325   1.999  0.7139 -0.0929 -0.0568
 3628SOL    HW214278   6.010   1.371   2.082  1.1407  0.6533 -0.4190
 3628SOL    HW314279   6.007   1.393   1.932 -1.8329 -0.9957 -0.6772
 3628SOL    MW414280   6.016   1.340   2.001  0.4342 -0.1135 -0.1865
 3629SOL     OW14281   3.584   3.057   3.650  0.1246  0.4028  0.2487
 3629SOL    HW214282   3.494   3.081   3.669  0.1023 -0.1607  0.8932
 3629SOL    HW314283   3.609   3.112   3.575 -1.9116 -1.9220 -2.3723
 3629SOL    MW414284   3.575   3.067   3.642 -0.1470  0.0218 -0.0121
 3630SOL     OW14285   5.056   4.570   1.318  0.3304 -0.0277 -0.1293
 3630SOL    HW214286   5.130   4.623   1.288 -0.4213  0.8942 -0.3877
 3630SOL    HW314287   4.981   4.605   1.270 -0.0839 -1.7902 -0.8388
 3630SOL    MW414288   5.056   4.581   1.307  0.1766 -0.1386 -0.2570
 3631SOL     OW14289   5.902   3.664   5.862  0.2109 -0.1414  0.0586
 3631SOL    HW214290   5.928   3.577   5.831  1.1759  1.4375 -4.3468
 3631SOL    HW314291   5.815   3.677   5.825  0.5952  1.2073 -0.4121
 3631SOL    MW414292   5.894   3.654   5.853  0.3889  0.2449 -0.5848
 3632SOL     OW14293   2.195   1.199   2.394  0.0034 -0.1090 -0.4398
 3632SOL    HW214294   2.274   1.150   2.418 -1.1249 -1.6677  0.2804
 3632SOL    HW314295   2.196   1.275   2.452  0.2077 -0.9097  0.6400
 3632SOL    MW414296   2.206   1.203   2.405 -0.1185 -0.4203 -0.2023
 3633SOL     OW14297   4.680   1.897   2.964  0.0198 -0.2619 -0.0007
 3633SOL    HW214298   4.768   1.934   2.957 -0.3779  0.7600  0.2069
 3633SOL    HW314299   4.628   1.966   3.005 -0.7790 -1.0245  0.3095
 3633SOL    MW414300   4.685   1.911   2.969 -0.1381 -0.2276  0.0676
 3634SOL     OW14301   4.535   2.906   2.303  0.0351 -0.2293  0.1401
 3634SOL    HW214302   4.545   2.896   2.208 -1.4818 -0.5623 -0.0138
 3634SOL    HW314303   4.503   2.995   2.314 -0.1806 -0.3274  0.3048
 3634SOL    MW414304   4.532   2.917   2.292 -0.1935 -0.2862  0.1415
 3635SOL     OW14305   6.254   4.653   0.071  0.2521 -0.5492  0.6049
 3635SOL    HW214306   6.163   4.661   0.099 -0.1166 -1.0654 -0.3862
 3635SOL    HW314307   6.305   4.664   0.152 -0.6221  0.7556  1.0091
 3635SOL    MW414308   6.249   4.655   0.085  0.0881 -0.4452  0.5275
 3636SOL     OW14309   1.630   1.507   6.076  0.0495  0.1159 -0.4992
 3636SOL    HW214310   1.559   1.443   6.080  0.9609 -0.8652  0.5964
 3636SOL    HW314311   1.632   1.535   5.984 -1.5511 -0.0351 -0.6114
 3636SOL    MW414312   1.621   1.502   6.064 -0.0414 -0.0335 -0.3694
 3637SOL     OW14313   4.344   4.244   2.073  0.1600 -0.1490 -0.2532
 3637SOL    HW214314   4.345   4.332   2.036  1.5259 -0.0125  0.0566
 3637SOL    HW314315   4.434   4.213   2.063  0.2431 -0.6308  1.7012
 3637SOL    MW414316   4.356   4.252   2.067  0.3511 -0.1945  0.0455
 3638SOL     OW14317   1.143   4.659   2.275  0.6922 -0.4004  0.4044
 3638SOL    HW214318   1.159   4.661   2.181  2.5522  0.7375  0.7154
 3638SOL    HW314319   1.197   4.587   2.307  0.8083 -0.1567  0.7488
 3638SOL    MW414320   1.152   4.649   2.267  0.9529 -0.2181  0.4909
 3639SOL     OW14321   3.347   5.051   3.854  0.2555 -0.3358 -0.2055
 3639SOL    HW214322   3.356   5.075   3.946  0.1286  1.6972 -0.6801
 3639SOL    HW314323   3.315   5.130   3.812 -0.2403 -1.4053 -1.9188
 3639SOL    MW414324   3.344   5.065   3.861  0.1734 -0.2087 -0.4942
 3640SOL     OW14325   4.150   1.334   4.647 -0.0066  0.0518 -0.1082
 3640SOL    HW214326   4.144   1.430   4.645  1.4071  0.1539 -1.1246
 3640SOL    HW314327   4.122   1.307   4.560  0.3635 -0.3919 -0.0902
 3640SOL    MW414328   4.145   1.343   4.635  0.2287  0.0068 -0.2399
 3641SOL     OW14329   5.542   6.260   4.393  0.3281 -0.0381  0.3272
 3641SOL    HW214330   5.557   6.351   4.369 -2.0912  0.5577  0.8507
 3641SOL    HW314331   5.618   6.237   4.446  1.5682  1.2621 -0.7888
 3641SOL    MW414332   5.554   6.269   4.397  0.1725  0.2120  0.2490
 3642SOL     OW14333   4.781   0.209   6.023  0.1722  0.2273  0.2164
 3642SOL    HW214334   4.837   0.170   5.956  0.5160 -0.9410  1.1409
 3642SOL    HW314335   4.720   0.264   5.974 -1.4894 -2.8034 -1.4102
 3642SOL    MW414336   4.780   0.211   6.008 -0.0016 -0.3267  0.1237
 3643SOL     OW14337   4.281   0.354   3.631  0.0808 -0.3370  0.2397
 3643SOL    HW214338   4.248   0.431   3.678  0.6876  0.0011  0.1217
 3643SOL    HW314339   4.324   0.301   3.698  1.7073  0.5635 -0.0505
 3643SOL    MW414340   4.282   0.358   3.646  0.3755 -0.1736  0.1859
 3644SOL     OW14341   0.845   5.657   1.404  0.0571 -0.8134  0.2197
 3644SOL    HW214342   0.807   5.715   1.469  1.0633  1.0711 -0.7843
 3644SOL    HW314343   0.928   5.699   1.380  1.0183 -2.8646 -0.3078
 3644SOL    MW414344   0.851   5.670   1.409  0.3167 -0.8354  0.0177
 3645SOL     OW14345   0.751   1.761   4.416  0.2054  0.1686 -0.4752
 3645SOL    HW214346   0.714   1.846   4.439  0.7498  0.1555  0.4844
 3645SOL    HW314347   0.838   1.782   4.382  0.8828 -0.0826  1.0340
 3645SOL    MW414348   0.758   1.775   4.414  0.3666  0.1338 -0.1495
 3646SOL     OW14349   1.070   0.800   2.623 -0.4074  0.3650 -0.1720
 3646SOL    HW214350   1.049   0.871   2.562 -2.8638  0.8470  1.1096
 3646SOL    HW314351   1.150   0.829   2.666  0.2751  0.9254 -1.7377
 3646SOL    MW414352   1.078   0.813   2.620 -0.6414  0.5026 -0.2095
 3647SOL     OW14353   2.613   3.220   3.887  0.1656  0.5287  0.1907
 3647SOL    HW214354   2.636   3.133   3.920 -1.3016  0.1830  0.3383
 3647SOL    HW314355   2.581   3.267   3.963  1.0383  1.2603  0.1295
 3647SOL    MW414356   2.612   3.215   3.901  0.0872  0.5796  0.2021
 3648SOL     OW14357   3.427   3.747   4.423 -0.1270 -0.2246 -0.2013
 3648SOL    HW214358   3.369   3.695   4.368  1.1572  0.0031 -1.8704
 3648SOL    HW314359   3.374   3.772   4.498 -1.8947 -0.7482 -1.2316
 3648SOL    MW414360   3.413   3.743   4.425 -0.1908 -0.2636 -0.5574
 3649SOL     OW14361   5.709   4.062   2.906 -0.0835  0.5734 -0.1297
 3649SOL    HW214362   5.756   4.067   2.823  0.0293 -0.0554 -0.1134
 3649SOL    HW314363   5.629   4.112   2.892 -0.1832  0.2646 -0.7065
 3649SOL    MW414364   5.705   4.069   2.894 -0.0818  0.4497 -0.2036
 3650SOL     OW14365   5.508   0.755   6.331 -0.1585 -0.2957  0.2243
 3650SOL    HW214366   5.497   0.663   6.356 -1.2978 -0.2386 -0.0433
 3650SOL    HW314367   5.603   0.767   6.328  0.0396 -0.9312  2.2005
 3650SOL    MW414368   5.519   0.744   6.334 -0.2827 -0.3721  0.4497
 3651SOL     OW14369   0.817   1.610   0.553 -0.0991 -0.4158  0.2608
 3651SOL    HW214370   0.856   1.627   0.639  1.5463  1.5481 -0.7912
 3651SOL    HW314371   0.891   1.594   0.495 -0.6489  3.2971 -1.7891
 3651SOL    MW414372   0.832   1.610   0.557  0.0454  0.3332 -0.1484
 3652SOL     OW14373   3.683   0.531   4.945 -0.3566 -0.0150 -0.1566
 3652SOL    HW214374   3.694   0.587   5.022 -1.3763 -0.4779  0.3470
 3652SOL    HW314375   3.629   0.458   4.976 -1.5212  0.2291 -1.5011
 3652SOL    MW414376   3.677   0.529   4.959 -0.6448 -0.0439 -0.2676
 3653SOL     OW14377   2.524   1.434   4.005 -0.0543 -0.2735 -0.0444
 3653SOL    HW214378   2.434   1.417   3.978 -0.1579  2.0459 -1.3871
 3653SOL    HW314379   2.516   1.475   4.092 -0.1212 -1.8344  0.7226
 3653SOL    MW414380   2.511   1.437   4.013 -0.0768 -0.1734 -0.1203
 3654SOL     OW14381   1.708   0.941   0.500  0.0834 -0.2670  0.0690
 3654SOL    HW214382   1.796   0.936   0.461 -0.2293 -0.2889 -0.6624
 3654SOL    HW314383   1.709   0.875   0.568  1.9959  2.4671  2.9829
 3654SOL    MW414384   1.720   0.932   0.504  0.2945  0.0908  0.3569
 3655SOL     OW14385   4.824   4.904   6.003 -0.6477 -0.2002 -0.1595
 3655SOL    HW214386   4.810   4.999   6.003  1.3008  0.1534  1.1671
 3655SOL    HW314387   4.803   4.877   5.914 -0.4950  1.5967 -0.7867
 3655SOL    MW414388   4.819   4.913   5.991 -0.3704  0.0835 -0.0672
 3656SOL     OW14389   0.173   2.170   0.267  0.0048 -0.3170 -0.0744
 3656SOL    HW214390   0.183   2.245   0.326 -0.5832  0.0662 -0.4527
 3656SOL    HW314391   0.230   2.190   0.193  1.8315 -1.4387  0.9377
 3656SOL    MW414392   0.182   2.183   0.265  0.1682 -0.4145  0.0092
 3657SOL     OW14393   3.597   3.210   0.041 -0.0799 -0.0516  0.6276
 3657SOL    HW214394   3.564   3.120   0.048  0.1438 -0.2174 -0.3640
 3657SOL    HW314395   3.558   3.244  -0.039  1.7736 -0.1190 -0.3739
 3657SOL    MW414396   3.587   3.202   0.032  0.1942 -0.0824  0.3647
 3658SOL     OW14397   4.793   4.677   1.417  0.3532  0.1545 -0.0849
 3658SOL    HW214398   4.873   4.730   1.415  0.2854  0.3930  1.5646
 3658SOL    HW314399   4.766   4.671   1.326  2.5504 -0.4132 -0.7641
 3658SOL    MW414400   4.800   4.683   1.405  0.6341  0.1111  0.0432
 3659SOL     OW14401   5.669   0.173   2.850 -0.1464  0.1264 -0.3712
 3659SOL    HW214402   5.725   0.172   2.772  0.3997  0.1974  0.0131
 3659SOL    HW314403   5.699   0.098   2.901 -1.0421 -0.4008 -0.5960
 3659SOL    MW414404   5.680   0.163   2.846 -0.1925  0.0662 -0.3501
 3660SOL     OW14405   4.556   2.994   1.286  0.3403 -1.1071  0.2782
 3660SOL    HW214406   4.525   3.002   1.376 -2.3079 -0.7776 -0.5710
 3660SOL    HW314407   4.540   2.903   1.263  0.3918 -1.0376 -0.0333
 3660SOL    MW414408   4.549   2.983   1.295 -0.0023 -1.0544  0.1251
 3661SOL     OW14409   0.943   4.676   3.517  0.2203 -0.0157 -0.2016
 3661SOL    HW214410   0.996   4.693   3.595  1.4840 -0.3169 -0.9655
 3661SOL    HW314411   0.872   4.621   3.548 -0.3861  1.4394  1.0964
 3661SOL    MW414412   0.941   4.671   3.531  0.3070  0.1365 -0.1312
 3662SOL     OW14413   3.727   4.291   2.263  0.3458  0.5998 -0.2509
 3662SOL    HW214414   3.805   4.319   2.310 -0.3260  0.5683  0.8988
 3662SOL    HW314415   3.749   4.203   2.232  0.0164 -0.2986  1.9091
 3662SOL    MW414416   3.740   4.283   2.265  0.2137  0.4771  0.1858
 3663SOL     OW14417   5.483   4.215   2.879  0.2967 -0.0153  0.1064
 3663SOL    HW214418   5.532   4.296   2.882  1.1562 -0.5095 -0.2310
 3663SOL    HW314419   5.468   4.192   2.971 -1.3285  1.3115  0.2200
 3663SOL    MW414420   5.487   4.222   2.892  0.1957  0.0945  0.0769
 3664SOL     OW14421   3.247   0.485   3.012  0.5278  0.1077  0.0370
 3664SOL    HW214422   3.233   0.392   2.999  1.5689  0.1771 -2.0185
 3664SOL    HW314423   3.315   0.490   3.080  0.5729 -0.6349  0.0488
 3664SOL    MW414424   3.254   0.474   3.019  0.6711  0.0189 -0.2326
 3665SOL     OW14425   3.525   6.299   0.643 -0.6009 -0.0555 -0.2342
 3665SOL    HW214426   3.582   6.336   0.710 -0.1996 -1.0101 -0.0303
 3665SOL    HW314427   3.463   6.244   0.691 -1.5116  0.7076 -0.4827
 3665SOL    MW414428   3.524   6.296   0.658 -0.6681 -0.0808 -0.2401
 3666SOL     OW14429   0.692   0.782   2.204  0.5808 -0.2703  0.4227
 3666SOL    HW214430   0.717   0.830   2.283 -1.4951  1.5065  0.0932
 3666SOL    HW314431   0.765   0.797   2.143  1.8793 -1.0839  1.7253
 3666SOL    MW414432   0.705   0.791   2.206  0.4783 -0.1432  0.5510
 3667SOL     OW14433   3.440   1.837   4.670  0.2054 -0.1763  0.2433
 3667SOL    HW214434   3.455   1.829   4.764 -0.1628 -1.0811  0.2385
 3667SOL    HW314435   3.348   1.811   4.658 -0.0566  0.9187 -0.2509
 3667SOL    MW414436   3.430   1.832   4.681  0.1223 -0.1512  0.1775
 3668SOL     OW14437   2.827   0.491   0.489  0.4290 -0.0817  0.3443
 3668SOL    HW214438   2.858   0.401   0.496  0.8982  0.0169 -0.3515
 3668SOL    HW314439   2.763   0.489   0.418 -1.7000 -0.4012  2.1342
 3668SOL    MW414440   2.823   0.479   0.481  0.2100 -0.1108  0.4886
 3669SOL     OW14441   1.117   0.719   6.152 -0.0623 -0.0696 -1.0496
 3669SOL    HW214442   1.093   0.647   6.211 -0.2595  0.7159 -0.1401
 3669SOL    HW314443   1.210   0.704   6.133  0.1753  0.0038 -0.0066
 3669SOL    MW414444   1.126   0.708   6.158 -0.0570  0.0437 -0.7920
 3670SOL     OW14445   5.459   0.489   1.743 -0.0443 -0.0696 -0.1179
 3670SOL    HW214446   5.480   0.395   1.736 -1.6390 -0.4040 -0.8097
 3670SOL    HW314447   5.483   0.525   1.658 -1.5689 -0.3282 -0.6816
 3670SOL    MW414448   5.465   0.481   1.731 -0.4558 -0.1479 -0.2835
 3671SOL     OW14449   5.898   1.055   3.571  0.0487  0.8546  0.4719
 3671SOL    HW214450   5.829   1.030   3.509  1.1681 -0.9320 -0.1365
 3671SOL    HW314451   5.966   0.988   3.559  2.2188  2.9101  0.5274
 3671SOL    MW414452   5.898   1.042   3.561  0.4827  0.8901  0.3990
 3672SOL     OW14453   5.435   5.361   4.487  0.0923  0.1342  0.2612
 3672SOL    HW214454   5.463   5.388   4.574 -2.2468  1.0767  0.7874
 3672SOL    HW314455   5.413   5.268   4.496  0.7189 -0.0050  0.4196
 3672SOL    MW414456   5.436   5.352   4.499 -0.1337  0.2402  0.3515
 3673SOL     OW14457   4.244   5.321   3.913  0.1441  0.6496 -0.2284
 3673SOL    HW214458   4.293   5.266   3.853 -0.4873 -1.7646  1.3426
 3673SOL    HW314459   4.154   5.290   3.906 -0.1988  1.3388  0.8629
 3673SOL    MW414460   4.239   5.310   3.904  0.0156  0.4220  0.1229
 3674SOL     OW14461   1.288   0.682   5.734 -0.0834 -0.1961 -0.3870
 3674SOL    HW214462   1.378   0.712   5.743  0.0664 -1.0786  1.6363
 3674SOL    HW314463   1.281   0.654   5.642  0.9857  1.9298 -1.1915
 3674SOL    MW414464   1.299   0.682   5.723  0.0774 -0.0320 -0.2262
 3675SOL     OW14465   1.492   3.756   3.529 -0.3494 -0.2314  0.0689
 3675SOL    HW214466   1.434   3.717   3.463 -1.8033 -0.5615  1.4620
 3675SOL    HW314467   1.434   3.814   3.579  0.9729  0.8883  0.3560
 3675SOL    MW414468   1.476   3.758   3.527 -0.3668 -0.1273  0.2906
 3676SOL     OW14469   3.979   6.111   0.020  0.2065 -0.5308  0.0386
 3676SOL    HW214470   3.903   6.053   0.026 -0.2255  0.0380  0.1775
 3676SOL    HW314471   3.955   6.187   0.072  0.2318  0.3459 -1.1923
 3676SOL    MW414472   3.966   6.113   0.028  0.1528 -0.3400 -0.1055
 3677SOL     OW14473   2.723   3.144   2.139 -0.0357 -0.0997 -0.5200
 3677SOL    HW214474   2.678   3.228   2.148 -2.8762 -1.4534 -1.0971
 3677SOL    HW314475   2.681   3.087   2.203  3.2153 -0.6834  1.3067
 3677SOL    MW414476   2.712   3.148   2.148  0.0185 -0.3553 -0.3552
 3678SOL     OW14477   1.646   2.894   4.539 -0.0251 -1.0453  0.2182
 3678SOL    HW214478   1.581   2.959   4.565 -2.2175 -3.4002  1.1253
 3678SOL    HW314479   1.729   2.926   4.573 -1.1095  0.9494  1.0993
 3678SOL    MW414480   1.648   2.907   4.547 -0.4575 -1.0928  0.4542
 3679SOL     OW14481   4.715   4.102   4.441  0.1614  0.5172  0.2828
 3679SOL    HW214482   4.654   4.117   4.368  0.3460 -0.1429 -0.0119
 3679SOL    HW314483   4.681   4.156   4.512 -0.8560  0.0295  0.1730
 3679SOL    MW414484   4.703   4.111   4.441  0.0515  0.3657  0.2294
 3680SOL     OW14485   6.135   3.232   1.671 -0.2572 -0.0476 -0.2734
 3680SOL    HW214486   6.094   3.317   1.654  0.2841  0.4041  0.5883
 3680SOL    HW314487   6.101   3.207   1.757  1.5528  0.5465  0.6802
 3680SOL    MW414488   6.125   3.240   1.680  0.0530  0.0904 -0.0339
 3681SOL     OW14489   2.222   0.347   5.014 -0.0676  1.0272  0.0471
 3681SOL    HW214490   2.314   0.324   5.022  0.1169  1.2474 -1.2980
 3681SOL    HW314491   2.175   0.274   5.054  0.6563  0.5634  0.0587
 3681SOL    MW414492   2.228   0.334   5.020  0.0523  0.9951 -0.1288
 3682SOL     OW14493   1.565   2.765   0.863  0.4325  0.2018 -0.0222
 3682SOL    HW214494   1.498   2.833   0.873 -0.1188 -0.2177 -0.7864
 3682SOL    HW314495   1.635   2.792   0.923 -0.0793  1.0618  0.2112
 3682SOL    MW414496   1.565   2.778   0.872  0.2922  0.2599 -0.0922
 3683SOL     OW14497   3.224   1.448   1.341  0.3948 -0.4273  0.4086
 3683SOL    HW214498   3.307   1.473   1.383 -0.1436  1.3330  0.5316
 3683SOL    HW314499   3.157   1.479   1.402 -0.3560 -1.2247 -0.0098
 3683SOL    MW414500   3.226   1.456   1.355  0.2247 -0.3003  0.3696
 3684SOL     OW14501   4.633   6.254   5.750  0.0470 -0.5120  0.4740
 3684SOL    HW214502   4.657   6.274   5.659  1.1865 -0.1097  0.8438
 3684SOL    HW314503   4.591   6.168   5.746  0.0101 -0.4587 -0.4455
 3684SOL    MW414504   4.631   6.246   5.738  0.1925 -0.4519  0.4015
 3685SOL     OW14505   2.975   6.062   1.740  0.2758  0.1177 -0.4297
 3685SOL    HW214506   2.975   6.156   1.727  1.9722  0.3244  0.6780
 3685SOL    HW314507   2.888   6.042   1.775  0.2614  1.4469  0.3642
 3685SOL    MW414508   2.963   6.071   1.743  0.4977  0.3203 -0.1788
 3686SOL     OW14509   1.600   6.239   1.068 -0.6731 -0.0144 -0.5636
 3686SOL    HW214510   1.506   6.225   1.072 -0.5191 -1.0753 -0.1521
 3686SOL    HW314511   1.625   6.261   1.158 -0.3936 -0.8345 -0.4269
 3686SOL    MW414512   1.591   6.240   1.081 -0.6159 -0.2625 -0.4912
 3687SOL     OW14513   0.927   1.379   4.485  0.3533  0.6809 -0.4199
 3687SOL    HW214514   0.877   1.308   4.444  3.0165 -0.3899 -2.0242
 3687SOL    HW314515   0.991   1.335   4.541 -1.0662  2.0553  2.5400
 3687SOL    MW414516   0.929   1.363   4.487  0.5174  0.7210 -0.2411
 3688SOL     OW14517   1.007   5.971   5.194  0.5306  0.3766  0.0881
 3688SOL    HW214518   1.042   5.897   5.243  1.2854  0.5771 -0.1269
 3688SOL    HW314519   0.918   5.945   5.169  0.3535  0.0466  1.0564
 3688SOL    MW414520   1.000   5.958   5.197  0.6069  0.3595  0.1875
 3689SOL     OW14521   5.514   5.643   5.250  0.3322 -0.1139  0.0685
 3689SOL    HW214522   5.576   5.648   5.323  1.0963 -0.3420 -0.5590
 3689SOL    HW314523   5.564   5.673   5.174 -0.8072  1.2958 -0.1635
 3689SOL    MW414524   5.529   5.648   5.250  0.2827  0.0420 -0.0449
 3690SOL     OW14525   1.143   5.590   2.137 -0.6247  0.1942 -0.4626
 3690SOL    HW214526   1.130   5.574   2.230  0.4354  3.7846  0.4677
 3690SOL    HW314527   1.198   5.517   2.107  1.1139  0.2260  2.3568
 3690SOL    MW414528   1.149   5.578   2.145 -0.2554  0.6721  0.0321
 3691SOL     OW14529   0.460   1.067   1.102  0.2385 -0.0387  0.2095
 3691SOL    HW214530   0.369   1.092   1.086 -0.2144 -1.8127 -0.2053
 3691SOL    HW314531   0.461   1.037   1.193  0.1937 -0.8390 -0.0456
 3691SOL    MW414532   0.448   1.066   1.112  0.1729 -0.3784  0.1211
 3692SOL     OW14533   4.347   0.577   2.149 -0.0361  0.1996 -0.0683
 3692SOL    HW214534   4.320   0.564   2.058  0.6964  0.4146 -0.3226
 3692SOL    HW314535   4.324   0.668   2.169  1.2335  0.6443 -0.5549
 3692SOL    MW414536   4.340   0.587   2.140  0.2281  0.2866 -0.1661
 3693SOL     OW14537   5.621   6.397   2.056  0.1005 -0.2094 -0.2472
 3693SOL    HW214538   5.571   6.397   2.137  1.2811  1.2527  0.5355
 3693SOL    HW314539   5.628   6.489   2.032  1.1622 -0.4906 -1.1159
 3693SOL    MW414540   5.615   6.409   2.064  0.3963 -0.0536 -0.2585
 3694SOL     OW14541   3.303   2.721   6.414 -0.1889 -0.5265 -0.0598
 3694SOL    HW214542   3.345   2.688   6.493  0.5968 -1.3870 -0.8166
 3694SOL    HW314543   3.228   2.662   6.400 -0.3759 -0.3246  0.0809
 3694SOL    MW414544   3.299   2.709   6.423 -0.1099 -0.6134 -0.1411
 3695SOL     OW14545   1.542   3.661   4.347  0.5999 -0.0132 -0.3791
 3695SOL    HW214546   1.593   3.740   4.331  0.4414 -0.3423 -2.8414
 3695SOL    HW314547   1.478   3.658   4.276 -0.8952 -1.2004  0.9349
 3695SOL    MW414548   1.540   3.671   4.335  0.3817 -0.2132 -0.5306
 3696SOL     OW14549   1.677   5.882   6.371  0.5000  0.3749  0.3698
 3696SOL    HW214550   1.684   5.976   6.388  1.8277  0.2752  0.4929
 3696SOL    HW314551   1.637   5.877   6.284  1.0362  1.0744  0.0687
 3696SOL    MW414552   1.673   5.894   6.361  0.7459  0.4540  0.3463
 3697SOL     OW14553   0.453   4.746   5.468  0.3465 -0.1564 -0.2193
 3697SOL    HW214554   0.417   4.822   5.515 -0.0305 -0.2213 -0.3970
 3697SOL    HW314555   0.415   4.753   5.380  1.6849  0.4210 -0.7808
 3697SOL    MW414556   0.443   4.757   5.463  0.4734 -0.0888 -0.3169
 3698SOL     OW14557   5.344   0.977   3.979  0.3241  0.0973 -0.4687
 3698SOL    HW214558   5.384   1.019   4.056  0.1334 -2.5198  1.1803
 3698SOL    HW314559   5.415   0.926   3.940 -0.0532 -0.0652 -0.9441
 3698SOL    MW414560   5.359   0.976   3.984  0.2492 -0.2694 -0.3139
 3699SOL     OW14561   1.190   6.044   3.929  0.4608  0.4346 -0.4123
 3699SOL    HW214562   1.226   6.112   3.987  1.1158  0.3184 -0.6804
 3699SOL    HW314563   1.169   5.972   3.988  2.8362 -0.4005 -0.5013
 3699SOL    MW414564   1.192   6.043   3.945  0.8606  0.3091 -0.4594
 3700SOL     OW14565   3.975   6.097   4.398 -0.3876 -0.3274 -0.2021
 3700SOL    HW214566   3.986   6.192   4.398  1.5076 -0.5003  0.2525
 3700SOL    HW314567   3.939   6.077   4.312  1.1509  0.6522 -1.1390
 3700SOL    MW414568   3.972   6.107   4.386  0.0655 -0.2210 -0.2657
 3701SOL     OW14569   1.348   6.071   0.332  0.7994 -0.0764 -0.2519
 3701SOL    HW214570   1.356   6.128   0.255 -2.1082  0.6972 -0.0928
 3701SOL    HW314571   1.324   6.131   0.403 -1.4814 -1.3225  0.1140
 3701SOL    MW414572   1.346   6.087   0.332  0.1149 -0.1387 -0.1827
 3702SOL     OW14573   2.143   4.584   1.423  0.1151  0.1377  0.3528
 3702SOL    HW214574   2.108   4.528   1.355  0.5522  1.1043 -0.6975
 3702SOL    HW314575   2.236   4.593   1.402  0.5781 -0.6502  1.8680
 3702SOL    MW414576   2.151   4.578   1.411  0.2338  0.1613  0.4141
 3703SOL     OW14577   1.630   2.277   5.126  0.4695  0.4077  0.1238
 3703SOL    HW214578   1.678   2.241   5.052 -0.3304  2.4178 -1.4774
 3703SOL    HW314579   1.647   2.371   5.122 -1.1784  0.8064  1.2804
 3703SOL    MW414580   1.638   2.285   5.116  0.1465  0.7255  0.0651
 3704SOL     OW14581   3.672   6.200   1.434  0.1299 -0.5180 -0.2136
 3704SOL    HW214582   3.644   6.156   1.514 -0.8775 -0.5585 -0.5749
 3704SOL    HW314583   3.632   6.150   1.364  0.4039 -0.0485 -0.7167
 3704SOL    MW414584   3.663   6.188   1.435  0.0331 -0.4614 -0.3277
 3705SOL     OW14585   3.872   0.516   3.467 -0.4363 -0.7374  0.1292
 3705SOL    HW214586   3.806   0.475   3.411  0.3623  1.7815 -2.9795
 3705SOL    HW314587   3.833   0.600   3.492  0.1165 -0.8753  1.5330
 3705SOL    MW414588   3.858   0.522   3.463 -0.2580 -0.4232 -0.0958
 3706SOL     OW14589   2.186   5.152   6.031  0.2995 -0.0616  0.6242
 3706SOL    HW214590   2.220   5.066   6.056  1.3984  0.1715  0.0001
 3706SOL    HW314591   2.262   5.210   6.034 -0.3886  0.8585  0.8409
 3706SOL    MW414592   2.200   5.149   6.035  0.3537  0.0905  0.5704
 3707SOL     OW14593   1.599   5.093   6.182 -0.0210  0.2000 -0.1738
 3707SOL    HW214594   1.539   5.024   6.153  0.2570 -0.1631  0.1009
 3707SOL    HW314595   1.671   5.046   6.224  0.1679  0.6602  0.0254
 3707SOL    MW414596   1.600   5.078   6.184  0.0406  0.2128 -0.1113
 3708SOL     OW14597   1.458   5.199   2.453  0.0476  0.5954 -0.2502
 3708SOL    HW214598   1.430   5.233   2.368  0.2495  2.1828  0.2808
 3708SOL    HW314599   1.543   5.240   2.469  0.5948 -0.6391  0.1862
 3708SOL    MW414600   1.466   5.209   2.444  0.1464  0.6420 -0.1226
 3709SOL     OW14601   1.987   3.508   1.367 -0.0632  0.0457 -0.7971
 3709SOL    HW214602   1.927   3.501   1.441 -2.5212  1.5334 -2.5165
 3709SOL    HW314603   2.012   3.418   1.348 -1.3506 -0.5807  0.2841
 3709SOL    MW414604   1.982   3.496   1.374 -0.5574  0.1593 -0.8813
 3710SOL     OW14605   4.988   5.790   4.233 -0.4566 -0.5751 -0.1001
 3710SOL    HW214606   5.064   5.747   4.272  0.0014  1.9854  2.0850
 3710SOL    HW314607   4.912   5.749   4.275 -0.1481 -0.9830  0.0610
 3710SOL    MW414608   4.988   5.779   4.243 -0.3555 -0.2911  0.2094
 3711SOL     OW14609   2.263   2.490   1.121  0.1711 -0.2248  0.2767
 3711SOL    HW214610   2.176   2.484   1.161 -0.5722  0.9459 -1.0643
 3711SOL    HW314611   2.251   2.455   1.032  1.1643 -0.3948  0.2007
 3711SOL    MW414612   2.250   2.484   1.114  0.2041 -0.0928  0.0898
 3712SOL     OW14613   0.062   4.365   4.932 -0.7980 -0.5921  0.1476
 3712SOL    HW214614  -0.015   4.308   4.932 -1.3758  0.1692  0.7966
 3712SOL    HW314615   0.084   4.376   5.025 -0.4265 -0.1179  0.0092
 3712SOL    MW414616   0.055   4.359   4.945 -0.8252 -0.4291  0.2150
 3713SOL     OW14617   1.265   1.159   2.096  0.1919  0.5998 -0.5202
 3713SOL    HW214618   1.346   1.148   2.046 -0.0257  0.2717 -0.8104
 3713SOL    HW314619   1.195   1.150   2.030 -0.0934  0.3198 -0.1868
 3713SOL    MW414620   1.266   1.156   2.081  0.1255  0.5196 -0.5145
 3714SOL     OW14621   4.264   2.767   3.156  0.3706  0.1632  0.0520
 3714SOL    HW214622   4.213   2.772   3.076 -0.1957 -0.9255  0.3388
 3714SOL    HW314623   4.319   2.689   3.145  1.4492  0.8986  0.0599
 3714SOL    MW414624   4.265   2.758   3.144  0.4382  0.1166  0.0909
 3715SOL     OW14625   0.227   5.543   3.493  0.1720  0.3863  0.1970
 3715SOL    HW214626   0.307   5.596   3.483  0.9623 -1.1931 -3.0658
 3715SOL    HW314627   0.159   5.592   3.447 -0.0674  0.3846  0.5430
 3715SOL    MW414628   0.229   5.556   3.486  0.2447  0.1777 -0.1878
 3716SOL     OW14629   3.510   5.689   1.466 -0.5084  0.5012 -0.0217
 3716SOL    HW214630   3.490   5.681   1.372  0.7662 -0.0131 -0.2779
 3716SOL    HW314631   3.517   5.599   1.497 -0.0057  0.6612  0.3492
 3716SOL    MW414632   3.509   5.676   1.457 -0.2739  0.4544 -0.0066
 3717SOL     OW14633   1.982   5.972   5.978  0.5175  0.2456 -0.0532
 3717SOL    HW214634   1.909   6.034   5.983 -0.0860 -0.5734  2.5918
 3717SOL    HW314635   1.942   5.890   5.947  0.2974 -0.1733  1.2918
 3717SOL    MW414636   1.967   5.969   5.974  0.4089  0.0823  0.4732
 3718SOL     OW14637   5.304   5.032   2.094 -0.0199 -0.0985 -0.1748
 3718SOL    HW214638   5.343   5.116   2.118  0.5503 -0.5076  0.3571
 3718SOL    HW314639   5.211   5.041   2.118  0.1152  0.2409  0.2378
 3718SOL    MW414640   5.297   5.044   2.101  0.0731 -0.1077 -0.0502
 3719SOL     OW14641   4.291   4.381   0.752 -0.0079  0.1687  0.4581
 3719SOL    HW214642   4.347   4.305   0.738 -0.2705 -0.1789  1.1850
 3719SOL    HW314643   4.250   4.364   0.837 -1.6855  0.1057 -0.3186
 3719SOL    MW414644   4.293   4.368   0.762 -0.2639  0.1145  0.4515
 3720SOL     OW14645   4.366   2.079   6.283 -0.3086  0.0127 -0.1355
 3720SOL    HW214646   4.341   1.987   6.270  0.0765  0.1206 -1.8312
 3720SOL    HW314647   4.436   2.094   6.219  0.6415  1.0992  1.1177
 3720SOL    MW414648   4.372   2.069   6.273 -0.1325  0.1703 -0.1938
 3721SOL     OW14649   2.417   0.625   3.638  0.0258  0.1424 -0.0055
 3721SOL    HW214650   2.424   0.643   3.732  1.0059  1.1384 -0.2473
 3721SOL    HW314651   2.481   0.556   3.622 -0.8961 -0.8006  0.2172
 3721SOL    MW414652   2.426   0.618   3.648  0.0335  0.1494 -0.0080
 3722SOL     OW14653   5.179   2.069   1.820  0.5486 -0.1726  0.3718
 3722SOL    HW214654   5.145   2.103   1.737 -1.8210 -0.2909  1.2201
 3722SOL    HW314655   5.213   1.982   1.798 -0.3429 -0.3319 -0.4337
 3722SOL    MW414656   5.179   2.062   1.806  0.1183 -0.2092  0.3774
 3723SOL     OW14657   1.892   3.843   1.863  0.0707 -0.2899 -0.1956
 3723SOL    HW214658   1.830   3.904   1.822 -0.0055  0.4100  0.9325
 3723SOL    HW314659   1.938   3.896   1.928  1.0601 -1.0846 -0.2297
 3723SOL    MW414660   1.890   3.858   1.866  0.1912 -0.3024 -0.0513
 3724SOL     OW14661   1.109   4.304   0.193 -0.2482  0.1633 -0.2187
 3724SOL    HW214662   1.151   4.286   0.277  0.9917 -1.7333 -1.1851
 3724SOL    HW314663   1.047   4.375   0.212  2.1560  1.9175  1.6311
 3724SOL    MW414664   1.106   4.311   0.207  0.2326  0.1445 -0.1021
 3725SOL     OW14665   6.104   3.283   0.134  0.1330 -0.4109  0.0282
 3725SOL    HW214666   6.052   3.354   0.098 -0.1030 -0.0126  1.1232
 3725SOL    HW314667   6.192   3.320   0.143  1.0686 -1.5261 -3.2165
 3725SOL    MW414668   6.109   3.297   0.131  0.2253 -0.5055 -0.2554
 3726SOL     OW14669   6.316   3.188   0.571 -0.0852  0.2628 -0.1951
 3726SOL    HW214670   6.279   3.263   0.525 -0.5420  0.2230  0.1029
 3726SOL    HW314671   6.410   3.198   0.561 -0.1031  1.3344  0.5554
 3726SOL    MW414672   6.323   3.199   0.564 -0.1478  0.3989 -0.0568
 3727SOL     OW14673   0.441   2.485   5.505 -0.0199 -0.2045 -0.4720
 3727SOL    HW214674   0.352   2.520   5.509 -0.5676 -1.6159  0.2357
 3727SOL    HW314675   0.464   2.466   5.596  0.1781 -1.8036 -0.8239
 3727SOL    MW414676   0.432   2.487   5.517 -0.0660 -0.6017 -0.4250
 3728SOL     OW14677   5.646   5.213   5.226 -1.2425 -0.5493 -0.5088
 3728SOL    HW214678   5.726   5.231   5.176 -0.7751 -2.0511 -0.3432
 3728SOL    HW314679   5.575   5.241   5.168 -0.6159  1.8035 -0.2405
 3728SOL    MW414680   5.647   5.219   5.211 -1.0982 -0.4370 -0.4516
 3729SOL     OW14681   3.849   1.760   5.322 -0.6366  0.2546  0.6039
 3729SOL    HW214682   3.823   1.788   5.410  0.0471 -0.5204  1.0655
 3729SOL    HW314683   3.944   1.751   5.327 -0.6133  0.0047 -0.1625
 3729SOL    MW414684   3.858   1.762   5.334 -0.5433  0.1194  0.5637
 3730SOL     OW14685   0.771   4.418   2.152  0.2655  0.7204  0.3274
 3730SOL    HW214686   0.837   4.409   2.221  0.6296  1.0824  0.0343
 3730SOL    HW314687   0.753   4.329   2.123 -0.0071  0.5548  0.9950
 3730SOL    MW414688   0.777   4.405   2.157  0.2776  0.7463  0.3768
 3731SOL     OW14689   2.741   1.965   4.158 -0.5301 -0.4491 -0.2699
 3731SOL    HW214690   2.711   1.919   4.236 -2.1377 -0.7735 -1.0273
 3731SOL    HW314691   2.702   1.917   4.085  2.0136 -0.9685 -1.3929
 3731SOL    MW414692   2.732   1.953   4.158 -0.4066 -0.5604 -0.5180
 3732SOL     OW14693   0.994   4.063   4.608 -0.4218 -0.0607  0.7042
 3732SOL    HW214694   1.038   4.123   4.549 -2.5900 -0.4043 -1.4109
 3732SOL    HW314695   1.052   3.988   4.614  0.8022  0.8692  0.7442
 3732SOL    MW414696   1.007   4.061   4.601 -0.5464  0.0167  0.4304
 3733SOL     OW14697   6.079   5.427   0.553  0.4406  0.3013 -0.3080
 3733SOL    HW214698   6.070   5.341   0.594 -0.2646 -0.5459 -2.1484
 3733SOL    HW314699   5.989   5.453   0.534  0.7275 -1.3471 -5.1590
 3733SOL    MW414700   6.066   5.419   0.556  0.3854 -0.0280 -1.1909
 3734SOL     OW14701   1.337   1.224   2.827 -0.4272 -0.6850  0.5557
 3734SOL    HW214702   1.330   1.303   2.880 -1.9838  0.2146 -0.8775
 3734SOL    HW314703   1.425   1.228   2.790 -0.4785  0.4028  0.5073
 3734SOL    MW414704   1.348   1.235   2.829 -0.6393 -0.4228  0.3602
 3735SOL     OW14705   1.443   0.847   0.259 -0.2612 -0.2641  0.2632
 3735SOL    HW214706   1.407   0.905   0.326  0.7645 -1.6267  2.0912
 3735SOL    HW314707   1.532   0.881   0.245 -0.3552 -0.1916 -0.1644
 3735SOL    MW414708   1.450   0.859   0.266 -0.1383 -0.4343  0.4479
 3736SOL     OW14709   1.603   1.669   0.159 -0.1067 -0.1697 -0.1735
 3736SOL    HW214710   1.653   1.589   0.175 -1.9577 -1.5233 -0.6433
 3736SOL    HW314711   1.600   1.714   0.243  0.7467 -0.7371  0.1695
 3736SOL    MW414712   1.609   1.664   0.172 -0.2383 -0.4231 -0.1902
 3737SOL     OW14713   5.291   4.111   4.926  0.0666 -0.2639 -0.0818
 3737SOL    HW214714   5.381   4.097   4.955 -0.0493  0.3163  0.5911
 3737SOL    HW314715   5.237   4.065   4.991 -0.1305 -0.4243 -0.3591
 3737SOL    MW414716   5.295   4.103   4.938  0.0253 -0.2085 -0.0296
 3738SOL     OW14717   5.431   4.472   1.185  0.8085 -0.7767 -0.4669
 3738SOL    HW214718   5.512   4.479   1.135  0.9299  0.9794 -0.0709
 3738SOL    HW314719   5.398   4.561   1.191 -0.6476 -1.3277  0.2317
 3738SOL    MW414720   5.438   4.485   1.179  0.6324 -0.6177 -0.3225
 3739SOL     OW14721   5.295   4.746   2.954 -0.3587 -0.1682 -0.4623
 3739SOL    HW214722   5.376   4.765   3.000 -0.4199 -3.2095  1.1924
 3739SOL    HW314723   5.322   4.726   2.864  1.1025 -2.8126  0.4467
 3739SOL    MW414724   5.309   4.746   2.948 -0.1740 -0.9184 -0.1241
 3740SOL     OW14725   5.002   6.273   0.927 -0.1020 -0.0337  0.1849
 3740SOL    HW214726   4.990   6.249   1.019  0.2937  0.4107  0.3536
 3740SOL    HW314727   5.079   6.329   0.926  0.8935 -1.3316 -0.6263
 3740SOL    MW414728   5.010   6.277   0.939  0.0816 -0.1463  0.1001
 3741SOL     OW14729   0.851   3.972   3.999 -0.7666 -0.2958  0.5653
 3741SOL    HW214730   0.871   4.047   3.943 -2.4116 -1.0706 -1.1915
 3741SOL    HW314731   0.815   4.010   4.079 -2.2090  0.8516 -0.5591
 3741SOL    MW414732   0.849   3.987   4.002 -1.1739 -0.2467  0.1852
 3742SOL     OW14733   0.900   6.289   6.233 -0.2961 -0.1799 -0.0034
 3742SOL    HW214734   0.916   6.211   6.179 -1.0755  0.0973 -0.6460
 3742SOL    HW314735   0.894   6.361   6.170 -3.6879 -0.1768  0.1371
 3742SOL    MW414736   0.901   6.288   6.218 -0.8464 -0.1429 -0.0696
 3743SOL     OW14737   0.311   3.075   3.510 -0.3800  0.1634 -0.4591
 3743SOL    HW214738   0.387   3.022   3.534  0.2933  1.4978  0.4797
 3743SOL    HW314739   0.338   3.120   3.430  0.8564  2.5210  1.1582
 3743SOL    MW414740   0.325   3.074   3.503 -0.1281  0.6505 -0.1219
 3744SOL     OW14741   5.335   0.688   5.522 -0.6431 -0.3331 -0.2738
 3744SOL    HW214742   5.309   0.738   5.599  0.6362  1.3672 -0.8995
 3744SOL    HW314743   5.253   0.650   5.489 -1.2281 -0.9608  1.7795
 3744SOL    MW414744   5.320   0.689   5.528 -0.5515 -0.1916 -0.0854
 3745SOL     OW14745   2.670   5.880   2.528  0.6936 -0.0935 -0.0137
 3745SOL    HW214746   2.652   5.815   2.460  2.2724  0.0257 -0.5826
 3745SOL    HW314747   2.662   5.964   2.483 -0.0519  0.0658  0.4036
 3745SOL    MW414748   2.667   5.882   2.513  0.8035 -0.0568 -0.0337
 3746SOL     OW14749   2.256   0.953   6.111  0.1358  0.2827 -0.2530
 3746SOL    HW214750   2.243   0.993   6.197 -0.0489  2.6622 -1.3182
 3746SOL    HW314751   2.351   0.947   6.101  0.2109  1.7223 -0.5862
 3746SOL    MW414752   2.267   0.957   6.121  0.1213  0.7866 -0.4375
 3747SOL     OW14753   5.853   3.051   1.327 -0.3450  0.6282  0.0431
 3747SOL    HW214754   5.859   3.061   1.422  1.6583 -0.0759  0.0296
 3747SOL    HW314755   5.930   3.096   1.293 -1.4941  1.6567 -1.3653
 3747SOL    MW414756   5.864   3.059   1.335 -0.2323  0.6710 -0.1445
 3748SOL     OW14757   5.799   4.365   0.819 -0.2353 -0.8088 -0.3189
 3748SOL    HW214758   5.883   4.354   0.863 -1.7410 -1.5734  2.7036
 3748SOL    HW314759   5.764   4.276   0.812 -1.5427 -0.3722  0.2275
 3748SOL    MW414760   5.805   4.352   0.824 -0.6065 -0.8521  0.1520
 3749SOL     OW14761   0.143   4.584   3.713  0.0008 -0.1885 -0.7537
 3749SOL    HW214762   0.199   4.648   3.758 -1.3640 -0.6435  1.7739
 3749SOL    HW314763   0.068   4.635   3.682 -0.9090 -0.4050  0.9432
 3749SOL    MW414764   0.141   4.599   3.715 -0.2993 -0.2771 -0.1963
 3750SOL     OW14765   2.665   4.777   5.476 -0.2678  0.0394  0.1333
 3750SOL    HW214766   2.657   4.848   5.412 -0.8601 -1.9014 -2.1193
 3750SOL    HW314767   2.756   4.780   5.505  0.4636  0.0645 -2.0128
 3750SOL    MW414768   2.676   4.787   5.471 -0.2495 -0.2133 -0.4471
 3751SOL     OW14769   2.846   2.324   5.665  0.2996 -0.3166  0.0974
 3751SOL    HW214770   2.876   2.370   5.742  1.5186 -0.6124 -0.1882
 3751SOL    HW314771   2.856   2.387   5.593 -0.6375 -0.1102  0.1319
 3751SOL    MW414772   2.851   2.338   5.665  0.3368 -0.3284  0.0642
 3752SOL     OW14773   1.692   2.894   4.245  0.4554  0.0784 -0.9549
 3752SOL    HW214774   1.776   2.926   4.213  0.1183  0.4586 -1.4692
 3752SOL    HW314775   1.699   2.899   4.341  0.8343  0.5785 -1.0100
 3752SOL    MW414776   1.704   2.899   4.254  0.4609  0.1945 -1.0300
 3753SOL     OW14777   2.742   5.591   2.746 -0.2131  0.6025 -0.2742
 3753SOL    HW214778   2.783   5.656   2.802  2.0576 -0.6643 -0.3333
 3753SOL    HW314779   2.815   5.546   2.703 -1.7487 -0.6269 -1.7974
 3753SOL    MW414780   2.757   5.594   2.747 -0.1161  0.2732 -0.4829
 3754SOL     OW14781   0.098   2.821   3.083  0.4005 -0.6264  0.2047
 3754SOL    HW214782   0.086   2.840   2.990  1.7667 -2.4899 -0.4112
 3754SOL    HW314783   0.184   2.859   3.105  0.0608 -0.1453  0.7421
 3754SOL    MW414784   0.108   2.829   3.074  0.5360 -0.8088  0.1944
 3755SOL     OW14785   5.757   5.797   4.281  0.4087 -0.2431 -0.1607
 3755SOL    HW214786   5.770   5.878   4.231  0.9397  0.9862  1.8408
 3755SOL    HW314787   5.700   5.744   4.226  0.9451  1.0048 -2.0505
 3755SOL    MW414788   5.751   5.801   4.267  0.5495  0.0838 -0.1459
 3756SOL     OW14789   5.122   0.983   0.484 -0.1055 -0.3996  0.4514
 3756SOL    HW214790   5.054   1.031   0.436  0.3903 -0.3013 -0.1581
 3756SOL    HW314791   5.076   0.909   0.523 -1.1932  1.2843  2.5693
 3756SOL    MW414792   5.107   0.980   0.483 -0.1836 -0.1645  0.6504
 3757SOL     OW14793   3.494   3.144   1.502  0.5198 -0.2534 -0.6050
 3757SOL    HW214794   3.400   3.127   1.501  0.3072  0.6457  0.9495
 3757SOL    HW314795   3.533   3.063   1.534  0.4072 -1.0497 -2.4065
 3757SOL    MW414796   3.487   3.131   1.506  0.4769 -0.2398 -0.6376
 3758SOL     OW14797   1.975   5.349   0.496 -0.1796 -0.2589 -0.0259
 3758SOL    HW214798   1.891   5.373   0.458 -0.3684  0.8097  0.9942
 3758SOL    HW314799   1.974   5.253   0.499 -0.1959 -0.3792 -2.4963
 3758SOL    MW414800   1.964   5.339   0.492 -0.2066 -0.1338 -0.2172
 3759SOL     OW14801   4.429   4.137   3.908 -0.2695  0.7915  0.5384
 3759SOL    HW214802   4.510   4.184   3.888 -0.4116  1.5162  1.5764
 3759SOL    HW314803   4.402   4.100   3.824  1.1379  0.5169  0.1817
 3759SOL    MW414804   4.436   4.138   3.894 -0.1026  0.8509  0.6283
 3760SOL     OW14805   2.360   0.404   1.114 -0.4821  0.3692  0.0470
 3760SOL    HW214806   2.325   0.420   1.026 -2.2522 -1.6350  0.3211
 3760SOL    HW314807   2.434   0.345   1.099 -1.3966 -0.7788 -0.0599
 3760SOL    MW414808   2.365   0.398   1.100 -0.8363 -0.0467  0.0690
 3761SOL     OW14809   3.685   0.691   3.008  0.5922 -0.5867  0.1075
 3761SOL    HW214810   3.635   0.664   2.931  0.8103  0.2451 -0.3447
 3761SOL    HW314811   3.777   0.678   2.982  0.6569 -0.5391  0.3129
 3761SOL    MW414812   3.691   0.686   2.994  0.6295 -0.4707  0.0750
 3762SOL     OW14813   0.367   3.851   2.835  0.6975 -0.1060 -0.7062
 3762SOL    HW214814   0.367   3.877   2.927  2.3217 -0.1427 -0.6642
 3762SOL    HW314815   0.445   3.894   2.798  0.0720 -0.0990 -2.0598
 3762SOL    MW414816   0.378   3.860   2.842  0.8293 -0.1099 -0.8792
 3763SOL     OW14817   1.633   1.860   6.372 -0.2016  0.9968 -0.2258
 3763SOL    HW214818   1.699   1.845   6.304 -1.2494  1.6422 -1.4486
 3763SOL    HW314819   1.636   1.782   6.426  1.1242  0.7461 -0.6226
 3763SOL    MW414820   1.642   1.848   6.370 -0.1649  1.0489 -0.4395
 3764SOL     OW14821   3.365   2.087   1.141 -0.3089  0.2052 -0.0467
 3764SOL    HW214822   3.446   2.137   1.137 -0.5984  0.7204  0.3273
 3764SOL    HW314823   3.374   2.020   1.073  1.0008 -0.6138  0.8780
 3764SOL    MW414824   3.377   2.085   1.132 -0.1743  0.1651  0.1246
 3765SOL     OW14825   3.204   3.070   0.598  0.0550 -0.5326  0.2680
 3765SOL    HW214826   3.156   3.123   0.534 -0.6412 -0.3103  0.9560
 3765SOL    HW314827   3.169   2.982   0.586 -0.9197 -0.2832  1.1021
 3765SOL    MW414828   3.193   3.066   0.588 -0.1654 -0.4703  0.4688
 3766SOL     OW14829   1.399   1.842   2.967 -0.2896  0.5038 -0.1324
 3766SOL    HW214830   1.410   1.801   3.053  0.8386 -0.3349 -0.6658
 3766SOL    HW314831   1.421   1.934   2.982  1.6918  0.0227  0.1104
 3766SOL    MW414832   1.403   1.849   2.981  0.1206  0.3297 -0.1707
 3767SOL     OW14833   2.560   2.973   4.951  0.2468 -0.0789  0.0701
 3767SOL    HW214834   2.549   2.920   5.030  0.7468  0.1139  0.2735
 3767SOL    HW314835   2.579   2.908   4.882  0.0118 -0.2308  0.1474
 3767SOL    MW414836   2.561   2.957   4.952  0.2817 -0.0735  0.1072
 3768SOL     OW14837   1.147   1.200   3.838 -0.0891 -0.2069 -0.0435
 3768SOL    HW214838   1.191   1.244   3.911  2.3682 -0.7961 -1.0415
 3768SOL    HW314839   1.197   1.119   3.826  0.9483  0.7786 -3.5752
 3768SOL    MW414840   1.160   1.195   3.846  0.3720 -0.1546 -0.6411
 3769SOL     OW14841   2.537   4.640   5.985 -0.4722 -0.0110 -0.3928
 3769SOL    HW214842   2.576   4.655   5.899 -1.0204  0.6328 -0.5347
 3769SOL    HW314843   2.546   4.723   6.031  0.0068 -0.4126  0.2599
 3769SOL    MW414844   2.543   4.653   5.980 -0.4813  0.0210 -0.3254
 3770SOL     OW14845   4.171   2.766   0.122 -0.5981  0.0434 -0.2205
 3770SOL    HW214846   4.238   2.699   0.111 -0.4136  0.0136  0.9437
 3770SOL    HW314847   4.203   2.820   0.195 -0.7633  1.3762 -1.1032
 3770SOL    MW414848   4.184   2.765   0.130 -0.5955  0.2153 -0.1834
 3771SOL     OW14849   5.703   2.165   2.940  0.0528 -0.0029  0.0622
 3771SOL    HW214850   5.610   2.149   2.923  0.1300 -0.9548  0.4597
 3771SOL    HW314851   5.716   2.258   2.919 -0.3570 -0.4756 -2.7984
 3771SOL    MW414852   5.693   2.175   2.935  0.0089 -0.1908 -0.2628
 3772SOL     OW14853   4.048   1.613   6.336 -0.7314 -0.0507 -0.8022
 3772SOL    HW214854   4.066   1.705   6.358 -1.0594  0.0025 -0.7545
 3772SOL    HW314855   3.953   1.608   6.330 -0.7817 -0.6097  0.1733
 3772SOL    MW414856   4.038   1.624   6.338 -0.7813 -0.1174 -0.6672
 3773SOL     OW14857   3.052   2.282   0.252 -0.0676 -0.7412 -0.5650
 3773SOL    HW214858   2.973   2.271   0.200 -1.5197  1.0182  1.0910
 3773SOL    HW314859   3.062   2.199   0.300 -0.0614 -1.4826 -1.8090
 3773SOL    MW414860   3.043   2.270   0.252 -0.2584 -0.6069 -0.5106
 3774SOL     OW14861   2.843   0.435   2.905  0.6108 -0.4156  0.3045
 3774SOL    HW214862   2.878   0.353   2.869  1.0456 -0.3507  0.5752
 3774SOL    HW314863   2.769   0.455   2.848  1.4563 -0.1669 -0.7447
 3774SOL    MW414864   2.838   0.426   2.893  0.7797 -0.3742  0.2017
 3775SOL     OW14865   0.598   5.523   4.147  0.0704  0.2837 -0.1496
 3775SOL    HW214866   0.584   5.489   4.235  0.1026  0.2036 -0.1754
 3775SOL    HW314867   0.691   5.547   4.145  0.0566  0.3364 -0.1435
 3775SOL    MW414868   0.609   5.521   4.158  0.0728  0.2801 -0.1522
 3776SOL     OW14869   2.493   3.961   0.538  0.7761 -0.0737  0.0568
 3776SOL    HW214870   2.545   3.971   0.618  1.2043  1.8099 -0.4152
 3776SOL    HW314871   2.405   3.941   0.570  1.0611  0.0890  0.9823
 3776SOL    MW414872   2.488   3.960   0.553  0.8702  0.1963  0.1166
 3777SOL     OW14873   5.551   6.005   2.180 -0.2240 -0.0304  0.1671
 3777SOL    HW214874   5.508   6.033   2.261 -1.4019 -1.9062  0.2374
 3777SOL    HW314875   5.642   5.989   2.206  0.0589  1.8521  0.5059
 3777SOL    MW414876   5.557   6.007   2.194 -0.3421 -0.0295  0.2211
 3778SOL     OW14877   0.980   3.324   3.521 -0.4447  0.0759  0.5145
 3778SOL    HW214878   0.886   3.304   3.522 -0.4262  0.0095  1.2386
 3778SOL    HW314879   1.021   3.246   3.558  0.1670 -1.1404 -2.4353
 3778SOL    MW414880   0.973   3.311   3.526 -0.3615 -0.0934  0.2208
 3779SOL     OW14881   4.290   6.317   0.183  0.2216 -0.0014  0.0419
 3779SOL    HW214882   4.382   6.330   0.162  0.5143 -0.1463  1.1592
 3779SOL    HW314883   4.287   6.231   0.226 -0.0974  0.8279  1.7920
 3779SOL    MW414884   4.302   6.307   0.186  0.2182  0.0889  0.4202
 3780SOL     OW14885   0.128   4.143   0.462  0.0596 -0.2988  0.7127
 3780SOL    HW214886   0.143   4.222   0.410 -1.2266 -0.4497  0.0833
 3780SOL    HW314887   0.112   4.074   0.397 -0.1872 -0.7830  1.2812
 3780SOL    MW414888   0.128   4.145   0.447 -0.1427 -0.3826  0.7047
 3781SOL     OW14889   4.217   5.079   5.533  0.0264  0.4203  0.1339
 3781SOL    HW214890   4.247   5.169   5.548 -0.4433  0.8413 -1.2855
 3781SOL    HW314891   4.293   5.034   5.497 -0.0920  0.6176 -0.3825
 3781SOL    MW414892   4.231   5.085   5.530 -0.0512  0.5019 -0.1215
 3782SOL     OW14893   4.970   5.766   1.911  0.2951 -0.2878 -0.3056
 3782SOL    HW214894   4.922   5.684   1.916 -0.1719 -0.0123 -0.2172
 3782SOL    HW314895   5.062   5.741   1.918  0.1934 -0.8623 -1.0180
 3782SOL    MW414896   4.976   5.752   1.913  0.2201 -0.3272 -0.3880
 3783SOL     OW14897   5.817   0.283   0.445 -0.1292 -0.3790 -0.0285
 3783SOL    HW214898   5.753   0.233   0.495  0.9371 -0.7138  1.0694
 3783SOL    HW314899   5.765   0.340   0.389 -1.3903 -0.4617  1.0070
 3783SOL    MW414900   5.802   0.284   0.444 -0.1549 -0.4341  0.2530
 3784SOL     OW14901   6.340   5.883   0.816  0.3770  0.4017 -0.0442
 3784SOL    HW214902   6.376   5.803   0.853 -0.4405 -0.0701 -0.2520
 3784SOL    HW314903   6.272   5.910   0.878  0.3791  0.7077 -0.1733
 3784SOL    MW414904   6.336   5.876   0.829  0.2694  0.3798 -0.0886
 3785SOL     OW14905   4.784   3.877   0.839  0.5356 -0.4813 -0.6453
 3785SOL    HW214906   4.715   3.940   0.861  0.6463 -1.0124  1.3889
 3785SOL    HW314907   4.760   3.844   0.752 -0.5602  0.9435 -0.9180
 3785SOL    MW414908   4.772   3.881   0.830  0.4056 -0.3634 -0.4129
 3786SOL     OW14909   5.722   2.457   5.568  0.0005 -0.3942 -0.2694
 3786SOL    HW214910   5.759   2.469   5.481 -1.4375 -1.9138 -1.1454
 3786SOL    HW314911   5.766   2.523   5.622  0.3791  1.1065 -2.2891
 3786SOL    MW414912   5.733   2.467   5.564 -0.1393 -0.3967 -0.6515
 3787SOL     OW14913   0.959   4.339   3.079 -0.8787 -0.4574 -0.2611
 3787SOL    HW214914   0.955   4.353   3.174  4.8989 -0.1721  0.3097
 3787SOL    HW314915   0.972   4.426   3.043 -1.0535 -0.7691 -1.0855
 3787SOL    MW414916   0.960   4.352   3.087 -0.1395 -0.4609 -0.2945
 3788SOL     OW14917   1.393   1.378   1.922  0.2585 -0.2942  0.1588
 3788SOL    HW214918   1.418   1.464   1.888 -1.3881  0.5755  1.0255
 3788SOL    HW314919   1.390   1.322   1.845 -0.8787  0.9991 -0.7893
 3788SOL    MW414920   1.396   1.382   1.907 -0.1088 -0.0088  0.1481
 3789SOL     OW14921   4.981   3.075   5.551  0.0624 -0.1323  0.2805
 3789SOL    HW214922   5.022   3.096   5.467 -0.5989 -0.7754 -0.2287
 3789SOL    HW314923   4.911   3.140   5.560  1.2934  1.1106  1.2621
 3789SOL    MW414924   4.977   3.086   5.541  0.1376 -0.0532  0.3428
 3790SOL     OW14925   3.816   3.860   1.660 -0.4320 -0.2045 -0.2868
 3790SOL    HW214926   3.764   3.913   1.721  0.1242  0.7757 -0.6526
 3790SOL    HW314927   3.906   3.868   1.692 -0.3136 -0.7745 -0.4651
 3790SOL    MW414928   3.821   3.868   1.673 -0.3430 -0.1504 -0.3586
 3791SOL     OW14929   5.002   2.543   0.280  0.1821 -0.4666  0.1495
 3791SOL    HW214930   5.036   2.533   0.191 -1.8819 -0.5078 -0.6724
 3791SOL    HW314931   5.027   2.632   0.306 -0.2139 -0.0317 -0.9292
 3791SOL    MW414932   5.010   2.553   0.272 -0.1425 -0.4147 -0.1013
 3792SOL     OW14933   5.430   5.363   5.556 -0.1182  0.5915  0.8799
 3792SOL    HW214934   5.379   5.336   5.632 -0.1783 -1.1424  0.2617
 3792SOL    HW314935   5.507   5.306   5.557  0.8983  1.9080  0.7501
 3792SOL    MW414936   5.433   5.352   5.566  0.0080  0.5364  0.7812
 3793SOL     OW14937   4.030   1.049   3.635 -0.6457 -0.0121  0.3899
 3793SOL    HW214938   3.984   1.065   3.718 -1.2023  2.1748 -0.2781
 3793SOL    HW314939   4.045   1.136   3.599  2.1291 -0.7645 -0.4766
 3793SOL    MW414940   4.026   1.063   3.642 -0.3531  0.1772  0.1874
 3794SOL     OW14941   0.920   2.078   6.373 -0.1619 -0.1629 -0.3135
 3794SOL    HW214942   0.838   2.030   6.386  0.7273 -1.0215  3.3389
 3794SOL    HW314943   0.904   2.131   6.295 -3.2142 -2.2031 -1.2874
 3794SOL    MW414944   0.907   2.079   6.365 -0.4473 -0.5454  0.0399
 3795SOL     OW14945   1.185   1.650   5.527 -0.1684  0.0836 -0.5249
 3795SOL    HW214946   1.205   1.581   5.590  1.2971  0.1538 -0.8896
 3795SOL    HW314947   1.170   1.728   5.581  0.2389 -0.0438 -0.2276
 3795SOL    MW414948   1.185   1.651   5.542  0.0787  0.0761 -0.5338
 3796SOL     OW14949   2.302   4.583   2.256  0.3649 -0.2465 -0.1166
 3796SOL    HW214950   2.295   4.581   2.351 -0.4822  1.2792 -0.1152
 3796SOL    HW314951   2.381   4.634   2.238  0.4773 -0.4601 -0.2383
 3796SOL    MW414952   2.312   4.589   2.266  0.2680 -0.0734 -0.1325
 3797SOL     OW14953   3.861   2.446   5.774  0.3264  0.5356 -0.5494
 3797SOL    HW214954   3.919   2.415   5.843  0.7488  1.2512 -0.5790
 3797SOL    HW314955   3.897   2.407   5.694 -0.2482 -0.4097 -0.3578
 3797SOL    MW414956   3.874   2.436   5.772  0.3063  0.5053 -0.5281
 3798SOL     OW14957   3.650   3.275   0.456  0.4838 -0.0855  0.7155
 3798SOL    HW214958   3.674   3.301   0.545 -2.0995 -0.6601  1.6825
 3798SOL    HW314959   3.565   3.316   0.442 -0.1063 -1.6949 -0.6869
 3798SOL    MW414960   3.642   3.284   0.466  0.0651 -0.3737  0.6581
 3799SOL     OW14961   6.234   4.588   5.115  0.0400 -0.3535 -0.0774
 3799SOL    HW214962   6.153   4.638   5.110  1.3145  1.7689 -1.2038
 3799SOL    HW314963   6.207   4.497   5.104 -1.9651  0.4827 -3.3283
 3799SOL    MW414964   6.220   4.583   5.113 -0.0564  0.0368 -0.6549
 3800SOL     OW14965   4.039   4.833   3.467 -0.5426  0.1512 -0.4184
 3800SOL    HW214966   3.981   4.777   3.519  1.5832 -0.8518  1.0213
 3800SOL    HW314967   3.986   4.910   3.447 -1.9200 -0.0499  2.0709
 3800SOL    MW414968   4.024   4.836   3.471 -0.4439 -0.0077  0.1000
 3801SOL     OW14969   4.468   5.952   4.958 -0.2854 -0.0070  0.2904
 3801SOL    HW214970   4.461   6.011   4.883 -1.1714 -1.3426 -0.7285
 3801SOL    HW314971   4.484   6.009   5.032 -0.1469  1.4252 -0.8031
 3801SOL    MW414972   4.469   5.967   4.958 -0.3840  0.0058  0.0117
 3802SOL     OW14973   4.862   3.229   0.606  0.4107 -0.4158 -0.2257
 3802SOL    HW214974   4.881   3.201   0.696  2.2746 -0.8422 -0.6957
 3802SOL    HW314975   4.886   3.321   0.604 -0.1153 -0.2738 -0.1706
 3802SOL    MW414976   4.868   3.237   0.618  0.5872 -0.4533 -0.2804
 3803SOL     OW14977   4.017   0.093   1.634 -0.2615 -0.4397 -0.4431
 3803SOL    HW214978   3.935   0.046   1.647  0.4978 -1.6262  0.2744
 3803SOL    HW314979   4.052   0.058   1.552 -0.0390 -0.6055 -0.2786
 3803SOL    MW414980   4.011   0.082   1.625 -0.1319 -0.6181 -0.3267
 3804SOL     OW14981   1.122   4.539   0.755  0.2339  0.2652  0.1598
 3804SOL    HW214982   1.120   4.622   0.803  3.0331 -0.0713  0.9979
 3804SOL    HW314983   1.052   4.487   0.795 -1.0191  1.8504  0.1716
 3804SOL    MW414984   1.112   4.543   0.766  0.4379  0.4299  0.2719
 3805SOL     OW14985   0.382   0.052   2.370  0.1892  0.1077 -0.5712
 3805SOL    HW214986   0.397   0.132   2.422  0.7476 -0.1323 -0.3459
 3805SOL    HW314987   0.468   0.009   2.368 -0.5921 -1.7345  1.3852
 3805SOL    MW414988   0.396   0.057   2.377  0.1598 -0.1670 -0.2834
 3806SOL     OW14989   2.924   4.901   4.673  0.3300 -0.0687 -0.7572
 3806SOL    HW214990   2.847   4.947   4.705  0.6491 -0.9218  1.3964
 3806SOL    HW314991   2.937   4.934   4.584 -1.3007  1.5793 -0.4303
 3806SOL    MW414992   2.915   4.911   4.665  0.1569  0.0362 -0.4300
 3807SOL     OW14993   3.679   2.329   5.994 -0.8402 -0.6242  0.1464
 3807SOL    HW214994   3.675   2.245   5.948  1.6903 -0.9814  0.4544
 3807SOL    HW314995   3.772   2.349   5.999 -1.3831  2.4565 -0.3022
 3807SOL    MW414996   3.690   2.321   5.988 -0.5780 -0.2649  0.1279
 3808SOL     OW14997   5.324   2.360   6.093 -0.1669  0.6997 -1.0554
 3808SOL    HW214998   5.388   2.432   6.096  0.2811  0.2888 -0.6457
 3808SOL    HW314999   5.255   2.392   6.035 -0.2443  1.6819 -0.4442
 3808SOL    MW415000   5.324   2.374   6.086 -0.1180  0.7751 -0.9207
 3809SOL     OW15001   6.051   1.273   5.199 -0.0755 -0.4121  0.2643
 3809SOL    HW215002   5.970   1.308   5.163 -0.6251 -1.0278  0.8716
 3809SOL    HW315003   6.120   1.318   5.151 -0.6712  2.6581  1.9873
 3809SOL    MW415004   6.049   1.284   5.188 -0.2266 -0.0883  0.5717
 3810SOL     OW15005   6.215   2.618   6.059 -0.5689 -0.4666 -0.4839
 3810SOL    HW215006   6.150   2.644   6.125 -0.9101  0.3855 -1.1492
 3810SOL    HW315007   6.299   2.627   6.104 -0.8909 -1.4833  0.3525
 3810SOL    MW415008   6.218   2.623   6.074 -0.6564 -0.4883 -0.4613
 3811SOL     OW15009   2.039   3.370   4.316 -0.4557  0.6859 -0.0701
 3811SOL    HW215010   2.078   3.339   4.235 -0.5379  2.5733 -0.8841
 3811SOL    HW315011   2.106   3.425   4.356 -0.4359 -0.1660  1.1429
 3811SOL    MW415012   2.053   3.373   4.311 -0.4639  0.8225 -0.0175
 3812SOL     OW15013   3.583   1.888   2.839  0.1454 -0.3565 -0.0526
 3812SOL    HW215014   3.534   1.809   2.816 -2.4675  1.1084  0.1557
 3812SOL    HW315015   3.619   1.869   2.926 -0.2118 -1.4016 -0.1163
 3812SOL    MW415016   3.581   1.875   2.847 -0.2465 -0.3011 -0.0335
 3813SOL     OW15017   0.520   3.696   1.905 -0.2170  0.3242  0.3380
 3813SOL    HW215018   0.447   3.652   1.948 -0.1271 -0.8641 -0.6807
 3813SOL    HW315019   0.593   3.635   1.913  0.1448  0.6602 -0.3407
 3813SOL    MW415020   0.520   3.682   1.912 -0.1574  0.2117  0.1140
 3814SOL     OW15021   5.702   1.665   5.518 -0.0760 -0.1191  0.2624
 3814SOL    HW215022   5.680   1.748   5.560 -2.5613 -0.1332 -0.8468
 3814SOL    HW315023   5.771   1.628   5.574 -0.5608  1.5896  2.1291
 3814SOL    MW415024   5.708   1.671   5.531 -0.4678  0.1045  0.3623
 3815SOL     OW15025   3.117   4.090   4.186 -0.9356  0.3486  0.1008
 3815SOL    HW215026   3.179   4.041   4.132 -1.4008  1.1727 -1.2399
 3815SOL    HW315027   3.133   4.060   4.275 -0.2361 -1.1613 -0.5072
 3815SOL    MW415028   3.127   4.080   4.190 -0.9047  0.2581 -0.1563
 3816SOL     OW15029   3.726   4.506   4.933  0.2708  0.1741  0.2799
 3816SOL    HW215030   3.666   4.435   4.956 -0.4167  1.4156  2.7374
 3816SOL    HW315031   3.809   4.481   4.975  1.2109 -0.8992 -2.0150
 3816SOL    MW415032   3.729   4.493   4.942  0.3041  0.1963  0.3013
 3817SOL     OW15033   4.866   1.388   1.778 -0.7152 -0.1415  0.2813
 3817SOL    HW215034   4.949   1.341   1.770  0.2564  1.5153  0.1191
 3817SOL    HW315035   4.846   1.387   1.871  0.0488  0.3335  0.4573
 3817SOL    MW415036   4.874   1.382   1.789 -0.4862  0.1398  0.2831
 3818SOL     OW15037   1.081   2.057   0.386 -0.0206  0.3617 -0.8549
 3818SOL    HW215038   1.018   1.998   0.346 -0.2308 -0.0753  0.0917
 3818SOL    HW315039   1.073   2.041   0.480  0.6494  1.1609 -0.6454
 3818SOL    MW415040   1.072   2.047   0.393  0.0400  0.4095 -0.7023
 3819SOL     OW15041   3.609   1.071   0.171  0.0435  0.4787  0.0113
 3819SOL    HW215042   3.644   1.159   0.158  0.6495  0.4814  1.4837
 3819SOL    HW315043   3.683   1.020   0.203 -0.6412 -0.1984  0.5503
 3819SOL    MW415044   3.623   1.076   0.173  0.0331  0.3898  0.2767
 3820SOL     OW15045   1.441   3.059   5.288  0.2983  0.5616 -0.5095
 3820SOL    HW215046   1.517   3.018   5.328 -0.0550  1.3713  1.0474
 3820SOL    HW315047   1.460   3.153   5.289 -0.7251  0.7783 -0.0617
 3820SOL    MW415048   1.454   3.066   5.293  0.1167  0.6971 -0.2450
 3821SOL     OW15049   1.637   3.462   4.108 -0.3766 -0.1261 -0.4022
 3821SOL    HW215050   1.676   3.521   4.172  0.2815 -0.8178 -0.1461
 3821SOL    HW315051   1.598   3.392   4.160  2.0035 -1.8383 -0.7275
 3821SOL    MW415052   1.637   3.460   4.123  0.0242 -0.4433 -0.4113
 3822SOL     OW15053   1.682   0.495   5.379 -0.4106  0.3974 -0.2932
 3822SOL    HW215054   1.777   0.499   5.364 -0.1125 -0.2399  1.2524
 3822SOL    HW315055   1.651   0.583   5.360  0.4699  0.5910 -0.9038
 3822SOL    MW415056   1.691   0.507   5.375 -0.2551  0.3388 -0.1698
 3823SOL     OW15057   1.623   2.623   3.983  0.0685 -0.0695  0.8220
 3823SOL    HW215058   1.657   2.535   3.974 -0.6894 -0.2747 -0.3092
 3823SOL    HW315059   1.532   2.617   3.954  0.2663  1.2540 -0.2128
 3823SOL    MW415060   1.615   2.611   3.978 -0.0054  0.0780  0.5362
 3824SOL     OW15061   6.177   6.395   3.315 -0.5116 -0.6378 -0.3595
 3824SOL    HW215062   6.211   6.471   3.362  0.4453 -0.7093 -0.9177
 3824SOL    HW315063   6.154   6.333   3.384 -1.0425  0.0444  0.0884
 3824SOL    MW415064   6.179   6.397   3.330 -0.4554 -0.5572 -0.3740
 3825SOL     OW15065   5.625   3.319   2.791 -0.6061 -0.2313 -0.1236
 3825SOL    HW215066   5.549   3.371   2.818 -0.5219  0.8181 -1.7388
 3825SOL    HW315067   5.698   3.380   2.793 -0.1016 -0.8223 -0.1113
 3825SOL    MW415068   5.625   3.334   2.795 -0.5285 -0.1708 -0.3351
 3826SOL     OW15069   5.282   5.974   3.574 -0.3065  0.1416 -0.3377
 3826SOL    HW215070   5.294   5.928   3.657  1.2281  1.9444  0.5201
 3826SOL    HW315071   5.284   5.905   3.508  0.3982 -1.1595  0.9782
 3826SOL    MW415072   5.284   5.959   3.576 -0.0111  0.2078 -0.0509
 3827SOL     OW15073   3.924   4.888   2.143 -0.0113  0.5154  0.1424
 3827SOL    HW215074   3.945   4.828   2.072  2.0201 -0.0719  1.1775
 3827SOL    HW315075   3.851   4.847   2.189  0.2448 -0.2954 -0.1682
 3827SOL    MW415076   3.917   4.875   2.140  0.2905  0.3309  0.2380
 3828SOL     OW15077   6.416   3.772   6.199 -0.3345  0.3451 -0.0201
 3828SOL    HW215078   6.336   3.727   6.225 -0.0972  0.5138  1.0463
 3828SOL    HW315079   6.394   3.815   6.117 -1.2377  0.1164  0.0991
 3828SOL    MW415080   6.403   3.772   6.192 -0.4224  0.3372  0.1363
 3829SOL     OW15081   2.491   1.642   3.257 -0.2074 -0.6135 -0.4725
 3829SOL    HW215082   2.417   1.647   3.197 -0.5490  1.0411  0.0195
 3829SOL    HW315083   2.551   1.710   3.226  0.0046 -0.3246  0.5292
 3829SOL    MW415084   2.489   1.652   3.245 -0.2245 -0.3571 -0.2755
 3830SOL     OW15085   5.956   1.396   2.780  0.1201 -0.9128 -0.0002
 3830SOL    HW215086   5.933   1.470   2.724 -1.7576 -0.0758  1.7433
 3830SOL    HW315087   6.031   1.427   2.831  0.0770 -0.6349 -0.1014
 3830SOL    MW415088   5.963   1.410   2.779 -0.1333 -0.7657  0.2165
 3831SOL     OW15089   3.787   4.457   0.480 -0.2891  0.2765 -0.2484
 3831SOL    HW215090   3.818   4.411   0.402 -1.4498 -1.8074  0.4586
 3831SOL    HW315091   3.867   4.477   0.529  0.2583 -1.3215 -0.4294
 3831SOL    MW415092   3.802   4.454   0.477 -0.3700 -0.2093 -0.1790
 3832SOL     OW15093   4.878   0.346   3.064 -0.9497 -0.5073  0.1208
 3832SOL    HW215094   4.965   0.308   3.074 -0.4356 -0.0716 -2.2755
 3832SOL    HW315095   4.884   0.431   3.107 -0.0207 -0.2371 -0.5442
 3832SOL    MW415096   4.890   0.352   3.071 -0.7593 -0.4142 -0.2831
 3833SOL     OW15097   0.287   0.312   5.630  0.5815  0.5647  0.5463
 3833SOL    HW215098   0.266   0.365   5.706  0.9076 -0.3059  1.2653
 3833SOL    HW315099   0.205   0.308   5.580  0.3127  0.9894  0.9450
 3833SOL    MW415100   0.273   0.318   5.633  0.5890  0.5059  0.6938
 3834SOL     OW15101   1.609   5.034   3.216  0.2154 -0.2374  0.3361
 3834SOL    HW215102   1.606   5.046   3.121  1.0735 -2.1478  0.0161
 3834SOL    HW315103   1.518   5.015   3.240 -0.0880  0.7075 -0.0142
 3834SOL    MW415104   1.597   5.033   3.207  0.2886 -0.3648  0.2476
 3835SOL     OW15105   3.564   1.283   1.633 -0.2845  0.4713 -0.0542
 3835SOL    HW215106   3.505   1.209   1.616  0.8468 -1.4288  3.2475
 3835SOL    HW315107   3.631   1.275   1.566 -0.4678 -1.2710 -0.0945
 3835SOL    MW415108   3.565   1.272   1.622 -0.1594 -0.0093  0.3761
 3836SOL     OW15109   0.596   5.852   3.624  0.6109  0.2245  0.3584
 3836SOL    HW215110   0.537   5.840   3.698  1.9703 -0.1560  1.4373
 3836SOL    HW315111   0.540   5.850   3.547 -0.8671  0.7938  1.3857
 3836SOL    MW415112   0.581   5.850   3.623  0.5952  0.2494  0.6363
 3837SOL     OW15113   5.998   4.119   4.097 -0.2283 -0.3192  0.1941
 3837SOL    HW215114   6.009   4.025   4.110 -1.6954 -0.3966  1.0495
 3837SOL    HW315115   6.066   4.142   4.033 -1.1784 -2.3330 -1.6865
 3837SOL    MW415116   6.009   4.110   4.090 -0.5473 -0.5951  0.0588
 3838SOL     OW15117   2.754   6.296   2.017 -0.6521  0.0641  0.0103
 3838SOL    HW215118   2.736   6.202   2.011 -0.4052  0.0674 -0.9306
 3838SOL    HW315119   2.849   6.302   2.019 -0.6590  0.2088  2.0480
 3838SOL    MW415120   2.764   6.284   2.017 -0.6204  0.0836  0.1550
 3839SOL     OW15121   3.800   3.734   0.472 -0.1977  0.3397  0.2954
 3839SOL    HW215122   3.833   3.781   0.548  0.2689 -0.7881  0.8179
 3839SOL    HW315123   3.850   3.652   0.471 -0.4506  0.1823 -1.0201
 3839SOL    MW415124   3.811   3.729   0.482 -0.1695  0.1701  0.1908
 3840SOL     OW15125   5.469   5.120   2.789  0.2044  0.0519 -0.0563
 3840SOL    HW215126   5.492   5.032   2.758  3.0815  1.5834 -2.7868
 3840SOL    HW315127   5.404   5.151   2.726 -0.0454  0.2708  0.3058
 3840SOL    MW415128   5.463   5.112   2.777  0.5510  0.2828 -0.3688
 3841SOL     OW15129   2.447   4.170   2.220 -0.3481  0.7334 -0.0269
 3841SOL    HW215130   2.369   4.211   2.183 -0.6605  0.7605  0.6393
 3841SOL    HW315131   2.477   4.232   2.287  1.7971  2.0080 -1.9998
 3841SOL    MW415132   2.441   4.184   2.224 -0.1063  0.9051 -0.1993
 3842SOL     OW15133   4.189   6.041   0.507  0.1507 -0.4939  0.5183
 3842SOL    HW215134   4.210   5.953   0.538 -2.0050 -0.4823  2.2895
 3842SOL    HW315135   4.173   6.091   0.587  1.5317  1.6021 -0.4502
 3842SOL    MW415136   4.190   6.036   0.522  0.0485 -0.2158  0.6242
 3843SOL     OW15137   2.023   5.691   5.509  0.2152 -0.3818  0.1014
 3843SOL    HW215138   1.964   5.626   5.547 -1.5800 -0.6806 -2.8747
 3843SOL    HW315139   2.075   5.642   5.445  0.3246  0.7128 -0.6775
 3843SOL    MW415140   2.022   5.676   5.505 -0.0072 -0.2768 -0.3940
 3844SOL     OW15141   2.451   3.217   0.485 -0.4051 -0.1164  0.0253
 3844SOL    HW215142   2.381   3.186   0.542 -0.4658  0.5335  0.3144
 3844SOL    HW315143   2.410   3.284   0.430  0.3672  1.6343  1.4630
 3844SOL    MW415144   2.436   3.222   0.485 -0.3112  0.2004  0.2531
 3845SOL     OW15145   3.629   1.184   3.729  0.5070 -0.3462  0.3841
 3845SOL    HW215146   3.592   1.271   3.741  1.3458 -0.1661  1.9668
 3845SOL    HW315147   3.553   1.126   3.726 -0.0329  0.0865  2.9059
 3845SOL    MW415148   3.614   1.188   3.730  0.5464 -0.2654  0.9256
 3846SOL     OW15149   1.060   1.156   5.748 -0.3470  0.0520  0.4469
 3846SOL    HW215150   1.038   1.063   5.755 -1.1469  0.0265 -1.6943
 3846SOL    HW315151   1.052   1.175   5.655  0.2906  2.1683  0.7825
 3846SOL    MW415152   1.056   1.146   5.737 -0.3684  0.3278  0.2087
 3847SOL     OW15153   2.724   6.118   5.425  0.3922  0.7993  0.3162
 3847SOL    HW215154   2.741   6.194   5.371  0.2268 -0.1064 -1.0758
 3847SOL    HW315155   2.629   6.120   5.441  0.1401  0.1285 -0.9633
 3847SOL    MW415156   2.714   6.128   5.420  0.3371  0.5913 -0.0363
 3848SOL     OW15157   1.618   6.382   1.566  0.1710  0.3048  0.2404
 3848SOL    HW215158   1.673   6.369   1.643 -1.7034 -0.1440  1.5773
 3848SOL    HW315159   1.598   6.476   1.567 -2.1537 -0.1284  2.0414
 3848SOL    MW415160   1.623   6.393   1.576 -0.3830  0.1885  0.6544
 3849SOL     OW15161   6.224   5.736   5.238  0.2788 -0.5683 -0.0794
 3849SOL    HW215162   6.194   5.716   5.149 -0.4287 -1.2323  0.3067
 3849SOL    HW315163   6.175   5.815   5.262  2.1661  1.0008 -1.1320
 3849SOL    MW415164   6.213   5.744   5.229  0.4344 -0.4489 -0.1673
 3850SOL     OW15165   1.148   0.453   0.542  0.3082  0.4361 -0.4263
 3850SOL    HW215166   1.215   0.421   0.603 -0.3488 -0.8493 -0.3497
 3850SOL    HW315167   1.188   0.447   0.456 -0.0489 -1.3378 -0.4913
 3850SOL    MW415168   1.162   0.448   0.539  0.1744  0.0325 -0.4247
 3851SOL     OW15169   3.590   1.739   5.815  0.4292  0.0184  0.0762
 3851SOL    HW215170   3.596   1.669   5.749  0.8407  0.5088 -0.4172
 3851SOL    HW315171   3.656   1.715   5.880  0.1161 -0.3983  0.2452
 3851SOL    MW415172   3.600   1.726   5.815  0.4422  0.0281  0.0334
 3852SOL     OW15173   3.428   1.247   2.298 -0.7150 -0.0881 -0.2751
 3852SOL    HW215174   3.425   1.317   2.362  1.9027 -0.9739  0.9525
 3852SOL    HW315175   3.365   1.273   2.231 -1.2857  2.4024  1.1141
 3852SOL    MW415176   3.419   1.260   2.297 -0.4449  0.1236  0.0701
 3853SOL     OW15177   4.287   4.251   1.427 -0.2775  0.0058  0.0851
 3853SOL    HW215178   4.367   4.237   1.477  0.4656  0.7741 -0.8416
 3853SOL    HW315179   4.301   4.335   1.383 -1.2533 -0.2559 -0.7596
 3853SOL    MW415180   4.299   4.260   1.428 -0.3082  0.0726 -0.1486
 3854SOL     OW15181   5.376   3.270   3.016  0.6859  0.0126 -0.7353
 3854SOL    HW215182   5.309   3.283   3.083  1.4046 -0.2457  0.0501
 3854SOL    HW315183   5.353   3.187   2.974  0.9221 -0.4377  0.0190
 3854SOL    MW415184   5.364   3.261   3.019  0.8119 -0.0809 -0.5321
 3855SOL     OW15185   5.164   4.759   4.538  0.2155  0.0840  0.9488
 3855SOL    HW215186   5.084   4.726   4.580 -0.1230  0.1251  0.3514
 3855SOL    HW315187   5.233   4.745   4.603 -0.4257  0.8622  1.8173
 3855SOL    MW415188   5.163   4.753   4.552  0.0863  0.1921  0.9846
 3856SOL     OW15189   3.175   2.049   2.301  0.3650  0.1654 -0.1327
 3856SOL    HW215190   3.144   1.999   2.225  0.3386  0.5206 -0.3548
 3856SOL    HW315191   3.270   2.048   2.293  0.4141 -0.6832  0.3965
 3856SOL    MW415192   3.184   2.042   2.290  0.3680  0.1003 -0.0922
 3857SOL     OW15193   1.869   0.052   4.307 -0.4249 -0.3909  0.0224
 3857SOL    HW215194   1.850  -0.035   4.344 -0.3190 -0.0540  0.8963
 3857SOL    HW315195   1.815   0.112   4.359  0.5291  0.2149  0.3345
 3857SOL    MW415196   1.859   0.048   4.319 -0.2850 -0.2665  0.1789
 3858SOL     OW15197   2.473   0.911   2.695 -0.5131  0.4251 -0.4948
 3858SOL    HW215198   2.435   0.940   2.612  1.5723  1.0213 -1.2832
 3858SOL    HW315199   2.522   0.986   2.727 -0.7214 -0.0290  0.9454
 3858SOL    MW415200   2.474   0.924   2.688 -0.2654  0.4438 -0.4088
 3859SOL     OW15201   3.479   2.742   3.789  0.2116  0.0107 -0.4963
 3859SOL    HW215202   3.406   2.781   3.836  0.4484 -0.0397 -0.0801
 3859SOL    HW315203   3.557   2.771   3.837  0.4096 -0.6590 -0.4000
 3859SOL    MW415204   3.480   2.751   3.802  0.2689 -0.0843 -0.4287
 3860SOL     OW15205   0.053   0.332   2.817 -0.0214 -0.3620  0.0718
 3860SOL    HW215206   0.136   0.336   2.864  0.2996  0.6280 -0.5384
 3860SOL    HW315207   0.021   0.244   2.832  1.6002 -1.0829 -0.4318
 3860SOL    MW415208   0.060   0.321   2.825  0.2349 -0.3265 -0.0752
 3861SOL     OW15209   3.483   6.358   6.007  0.1199 -0.6781 -0.0295
 3861SOL    HW215210   3.531   6.441   6.005  0.0425 -0.6096  0.5643
 3861SOL    HW315211   3.542   6.295   5.967  0.3983 -0.4382 -0.0032
 3861SOL    MW415212   3.497   6.361   6.002  0.1464 -0.6374  0.0523
 3862SOL     OW15213   3.513   1.528   3.454 -0.0975 -0.3066  0.1280
 3862SOL    HW215214   3.534   1.489   3.539  1.2088  1.5251  0.7037
 3862SOL    HW315215   3.418   1.513   3.444  0.1283 -2.6597  0.7351
 3862SOL    MW415216   3.503   1.521   3.464  0.1046 -0.3754  0.2840
 3863SOL     OW15217   1.586   1.867   1.220  0.3900 -0.0185  0.4867
 3863SOL    HW215218   1.675   1.837   1.240  0.3299 -0.1741  0.5254
 3863SOL    HW315219   1.537   1.851   1.300  0.2593 -0.2017  0.3707
 3863SOL    MW415220   1.592   1.861   1.233  0.3648 -0.0632  0.4765
 3864SOL     OW15221   0.628   3.564   6.213  0.0469 -0.5097  1.0563
 3864SOL    HW215222   0.547   3.516   6.230 -0.3652 -0.1171  0.2435
 3864SOL    HW315223   0.601   3.637   6.158  0.9842 -0.4634  0.6559
 3864SOL    MW415224   0.614   3.567   6.208  0.1162 -0.4518  0.8962
 3865SOL     OW15225   5.673   1.992   4.976  0.3904 -0.0077  0.0538
 3865SOL    HW215226   5.668   2.068   5.035  2.3909  1.4236 -1.4668
 3865SOL    HW315227   5.609   2.011   4.908  1.0455  0.4774 -0.4455
 3865SOL    MW415228   5.664   2.005   4.975  0.7408  0.2452 -0.2127
 3866SOL     OW15229   3.791   6.100   5.495  0.5301 -0.2599 -0.2560
 3866SOL    HW215230   3.738   6.148   5.558  1.8642  0.5278  0.3192
 3866SOL    HW315231   3.750   6.014   5.490  0.1511 -0.2200  1.4009
 3866SOL    MW415232   3.779   6.095   5.503  0.6561 -0.1507  0.0385
 3867SOL     OW15233   4.280   6.178   4.399  0.3623 -0.1603 -0.4217
 3867SOL    HW215234   4.186   6.158   4.398  0.7562 -2.3306  1.2720
 3867SOL    HW315235   4.291   6.238   4.472  0.4187 -0.6282 -0.0440
 3867SOL    MW415236   4.269   6.183   4.408  0.4217 -0.5083 -0.1484
 3868SOL     OW15237   6.149   3.638   2.716  0.3801 -0.0331  0.1586
 3868SOL    HW215238   6.145   3.603   2.805  0.5078  0.7115  0.4658
 3868SOL    HW315239   6.162   3.732   2.728  1.3313 -0.0448 -0.6500
 3868SOL    MW415240   6.150   3.646   2.729  0.5225  0.0636  0.0925
 3869SOL     OW15241   2.256   4.942   1.291  0.3741 -0.0764  0.3906
 3869SOL    HW215242   2.195   4.964   1.362 -0.9528  2.0662 -1.2890
 3869SOL    HW315243   2.336   4.989   1.313 -0.3458  1.3773  0.0726
 3869SOL    MW415244   2.258   4.951   1.304  0.1041  0.3981  0.1271
 3870SOL     OW15245   1.631   3.336   4.993  0.3548 -0.0302  0.4778
 3870SOL    HW215246   1.611   3.242   4.995 -2.9414  0.5316  2.7779
 3870SOL    HW315247   1.570   3.372   4.929  1.1773  0.6330  0.0520
 3870SOL    MW415248   1.620   3.328   4.985  0.0284  0.1314  0.7251
 3871SOL     OW15249   0.161   2.863   1.665  0.7523  0.0193  0.2714
 3871SOL    HW215250   0.254   2.861   1.644  0.8017  2.3290 -0.0104
 3871SOL    HW315251   0.118   2.837   1.583  1.1267  0.9792 -0.2477
 3871SOL    MW415252   0.167   2.859   1.651  0.8082  0.4507  0.1657
 3872SOL     OW15253   0.695   2.416   2.058  0.3517 -0.0378  0.4778
 3872SOL    HW215254   0.675   2.363   2.135  1.4211  0.3639  1.0626
 3872SOL    HW315255   0.615   2.464   2.040 -0.4043 -1.2979  0.3796
 3872SOL    MW415256   0.682   2.415   2.066  0.3930 -0.1510  0.5420
 3873SOL     OW15257   1.741   4.178   1.417  0.1405  0.7383  0.1683
 3873SOL    HW215258   1.728   4.242   1.487  0.2440  0.7724  0.1572
 3873SOL    HW315259   1.828   4.198   1.383  0.2086  0.5364  0.2222
 3873SOL    MW415260   1.751   4.189   1.422  0.1631  0.7162  0.1740
 3874SOL     OW15261   6.050   2.812   5.330  0.0629  0.4697 -0.9196
 3874SOL    HW215262   6.100   2.876   5.279  0.4209  1.4163  0.5538
 3874SOL    HW315263   6.116   2.770   5.385 -0.1359 -1.3458 -1.9986
 3874SOL    MW415264   6.066   2.815   5.330  0.0839  0.3550 -0.8676
 3875SOL     OW15265   3.174   0.688   4.977 -0.3032  0.1027 -0.5762
 3875SOL    HW215266   3.189   0.781   4.960  1.4551 -0.3616 -1.7859
 3875SOL    HW315267   3.216   0.643   4.905 -0.3765 -1.6923  0.4394
 3875SOL    MW415268   3.181   0.695   4.966 -0.0809 -0.1953 -0.6018
 3876SOL     OW15269   4.228   4.392   3.616 -0.2135  0.1942 -0.4045
 3876SOL    HW215270   4.319   4.396   3.648 -0.2538 -2.0716  0.1953
 3876SOL    HW315271   4.226   4.314   3.560 -1.5269  0.8781 -1.3524
 3876SOL    MW415272   4.240   4.382   3.613 -0.3921 -0.0145 -0.4504
 3877SOL     OW15273   6.266   0.549   0.967  0.1489 -0.3210  0.0798
 3877SOL    HW215274   6.301   0.484   0.906 -1.7680  0.0213 -1.4818
 3877SOL    HW315275   6.256   0.501   1.050  0.8370 -1.3874 -0.4325
 3877SOL    MW415276   6.269   0.534   0.970 -0.0132 -0.4165 -0.1938
 3878SOL     OW15277   3.872   2.262   2.289 -0.2472  0.5518 -0.4777
 3878SOL    HW215278   3.857   2.196   2.222 -0.0876  0.0469 -0.0171
 3878SOL    HW315279   3.872   2.214   2.371 -0.1961  1.1328 -0.1314
 3878SOL    MW415280   3.870   2.247   2.291 -0.2194  0.5619 -0.3713
 3879SOL     OW15281   1.950   5.779   4.420  0.5267  0.3165 -0.0238
 3879SOL    HW215282   1.935   5.869   4.450 -0.1102  0.5344 -0.9371
 3879SOL    HW315283   2.038   5.780   4.382 -0.0173  0.9541 -1.3560
 3879SOL    MW415284   1.959   5.791   4.419  0.3709  0.4294 -0.3201
 3880SOL     OW15285   1.677   4.697   0.525 -0.6428 -0.3570  0.0763
 3880SOL    HW215286   1.646   4.711   0.435  0.9728 -0.3943 -0.5164
 3880SOL    HW315287   1.637   4.614   0.551  1.2633 -1.9962 -1.7976
 3880SOL    MW415288   1.668   4.688   0.516 -0.1781 -0.5782 -0.2491
 3881SOL     OW15289   1.198   2.429   0.505  0.5764  0.1173  0.2831
 3881SOL    HW215290   1.220   2.522   0.508 -1.3413  0.5940  0.8912
 3881SOL    HW315291   1.135   2.421   0.433 -0.6758 -0.3443  1.3819
 3881SOL    MW415292   1.193   2.440   0.496  0.1582  0.1193  0.5083
 3882SOL     OW15293   2.856   1.829   0.966  0.1771  0.4233 -0.6238
 3882SOL    HW215294   2.921   1.817   1.035 -0.3866 -0.6174 -0.2402
 3882SOL    HW315295   2.780   1.866   1.011 -0.4507 -0.9237 -0.5037
 3882SOL    MW415296   2.854   1.832   0.981  0.0199  0.1083 -0.5573
 3883SOL     OW15297   2.542   2.190   0.744 -0.2421 -0.0772 -0.3185
 3883SOL    HW215298   2.545   2.095   0.736 -0.0301 -0.0589 -0.4486
 3883SOL    HW315299   2.631   2.215   0.768 -0.3243  0.0793 -0.1690
 3883SOL    MW415300   2.554   2.181   0.746 -0.2250 -0.0541 -0.3160
 3884SOL     OW15301   2.091   4.320   2.835 -0.1168  0.9484 -0.0360
 3884SOL    HW215302   2.087   4.291   2.926 -0.3228  1.3451  0.0833
 3884SOL    HW315303   2.065   4.243   2.784  0.4463  0.5921  0.2098
 3884SOL    MW415304   2.087   4.306   2.840 -0.0697  0.9537  0.0122
 3885SOL     OW15305   2.550   6.350   0.756  0.5091 -0.3336  0.3003
 3885SOL    HW215306   2.552   6.389   0.669 -1.9924 -0.8050 -0.0551
 3885SOL    HW315307   2.594   6.413   0.812  0.7553  0.7285 -1.0293
 3885SOL    MW415308   2.556   6.363   0.752  0.2115 -0.2557  0.0780
 3886SOL     OW15309   4.702   2.882   4.375 -0.4699 -0.6668 -0.3382
 3886SOL    HW215310   4.614   2.884   4.414  0.8328  0.7079  2.9371
 3886SOL    HW315311   4.714   2.970   4.339 -0.5150 -0.9444 -1.0446
 3886SOL    MW415312   4.692   2.894   4.375 -0.3040 -0.5220  0.0007
 3887SOL     OW15313   5.995   3.842   2.515 -0.1741 -0.0729 -0.2782
 3887SOL    HW215314   6.039   3.908   2.462 -0.5735  0.8227  0.4806
 3887SOL    HW315315   5.965   3.776   2.451  2.6097 -0.9929 -0.8084
 3887SOL    MW415316   5.997   3.842   2.499  0.1405 -0.0761 -0.2480
 3888SOL     OW15317   2.981   2.872   1.737 -0.1992  0.6965 -0.1330
 3888SOL    HW215318   3.053   2.880   1.800 -0.8779 -0.1770  0.7855
 3888SOL    HW315319   2.953   2.781   1.745  0.5781  0.1509 -2.7084
 3888SOL    MW415320   2.987   2.861   1.746 -0.1862  0.5093 -0.3516
 3889SOL     OW15321   2.209   6.032   0.659 -0.0798  0.2137  0.7658
 3889SOL    HW215322   2.231   6.106   0.715  2.4611 -0.8771  1.3520
 3889SOL    HW315323   2.206   6.069   0.571  0.6993  1.1306  1.1073
 3889SOL    MW415324   2.212   6.046   0.655  0.3583  0.1908  0.8882
 3890SOL     OW15325   3.627   2.179   1.118  0.4246  0.2795  0.3043
 3890SOL    HW215326   3.648   2.156   1.027 -1.2811  0.4521 -0.1609
 3890SOL    HW315327   3.645   2.099   1.167 -0.6711 -0.5067 -0.5271
 3890SOL    MW415328   3.632   2.165   1.112  0.0550  0.1985  0.1332
 3891SOL     OW15329   1.245   0.330   1.960 -0.1564 -0.0579  0.1634
 3891SOL    HW215330   1.284   0.325   2.047 -1.1119  1.0694  0.6868
 3891SOL    HW315331   1.155   0.359   1.976 -0.4633 -0.2014 -1.1726
 3891SOL    MW415332   1.238   0.333   1.973 -0.3229  0.0719  0.0562
 3892SOL     OW15333   2.093   2.182   2.573  0.0149 -0.1614  0.0445
 3892SOL    HW215334   2.077   2.097   2.614 -0.9726  0.5498  1.2219
 3892SOL    HW315335   2.148   2.229   2.636 -2.3916  1.3310  1.1619
 3892SOL    MW415336   2.098   2.177   2.587 -0.4329  0.1294  0.3473
 3893SOL     OW15337   3.151   4.514   0.848 -0.4226 -0.3681  0.0376
 3893SOL    HW215338   3.225   4.535   0.905  0.4104  1.0352 -1.4714
 3893SOL    HW315339   3.118   4.600   0.819 -0.2995 -1.0081 -2.1892
 3893SOL    MW415340   3.156   4.528   0.851 -0.2965 -0.2674 -0.4553
 3894SOL     OW15341   6.375   6.291   1.380 -0.7121  0.6543  0.5781
 3894SOL    HW215342   6.461   6.332   1.365 -0.6323  0.2553 -0.0857
 3894SOL    HW315343   6.354   6.248   1.297 -1.1882  0.0659  0.9945
 3894SOL    MW415344   6.384   6.291   1.367 -0.7644  0.5241  0.5454
 3895SOL     OW15345   1.783   0.983   2.832  0.0728 -0.0491  0.5007
 3895SOL    HW215346   1.721   0.920   2.796 -0.3382 -0.3408  1.6787
 3895SOL    HW315347   1.837   0.931   2.892  0.5799  0.4728  0.5062
 3895SOL    MW415348   1.782   0.968   2.835  0.0855 -0.0187  0.6568
 3896SOL     OW15349   4.614   5.753   0.891 -0.4641  0.7502  0.0096
 3896SOL    HW215350   4.680   5.770   0.958 -1.5007  1.2813  0.9242
 3896SOL    HW315351   4.548   5.699   0.935 -0.3199 -0.3644 -1.0834
 3896SOL    MW415352   4.614   5.748   0.906 -0.5818  0.6732 -0.0139
 3897SOL     OW15353   5.881   0.249   5.972  0.3173  0.1325  0.3535
 3897SOL    HW215354   5.956   0.246   6.032 -0.4262  0.0227  1.3055
 3897SOL    HW315355   5.817   0.304   6.017 -0.1258  0.3274 -0.5051
 3897SOL    MW415356   5.883   0.256   5.986  0.1607  0.1437  0.3658
 3898SOL     OW15357   3.024   2.563   3.262 -0.5071  0.4734  0.2192
 3898SOL    HW215358   3.040   2.644   3.212 -1.6300 -0.3419 -1.5603
 3898SOL    HW315359   2.931   2.546   3.248 -0.3571 -0.9324  0.8775
 3898SOL    MW415360   3.014   2.572   3.253 -0.6355  0.1803  0.0713
 3899SOL     OW15361   2.467   4.095   3.565  0.3146 -0.1763 -0.3861
 3899SOL    HW215362   2.392   4.143   3.599  1.0131  0.3160  0.5036
 3899SOL    HW315363   2.504   4.152   3.498  2.6468  1.8516  2.3602
 3899SOL    MW415364   2.462   4.109   3.561  0.7144  0.1562  0.0936
 3900SOL     OW15365   2.076   3.361   2.501  0.2722 -0.3097 -0.0614
 3900SOL    HW215366   2.037   3.346   2.415  0.5586 -0.5393 -0.1544
 3900SOL    HW315367   2.005   3.344   2.563  0.1986 -0.6383 -0.2324
 3900SOL    MW415368   2.061   3.357   2.498  0.3003 -0.3833 -0.0962
 3901SOL     OW15369   1.209   6.152   6.371 -0.0690  0.2289 -0.5314
 3901SOL    HW215370   1.120   6.155   6.407 -0.2563 -0.7564 -0.8687
 3901SOL    HW315371   1.210   6.222   6.305  0.1706  1.8208  1.0777
 3901SOL    MW415372   1.197   6.162   6.367 -0.0621  0.3089 -0.3636
 3902SOL     OW15373   0.330   1.238   1.597  0.0460 -0.0860  0.1199
 3902SOL    HW215374   0.395   1.278   1.539  1.0148 -2.5640 -0.5936
 3902SOL    HW315375   0.249   1.238   1.546  0.0578  0.8044  0.0852
 3902SOL    MW415376   0.328   1.244   1.583  0.1754 -0.2955  0.0212
 3903SOL     OW15377   3.300   1.458   5.684 -0.0896  0.1063 -0.4378
 3903SOL    HW215378   3.262   1.475   5.770  1.9790  1.1042  0.3509
 3903SOL    HW315379   3.351   1.378   5.697  1.6943  1.2421 -0.1830
 3903SOL    MW415380   3.302   1.450   5.697  0.4187  0.3878 -0.3001
 3904SOL     OW15381   3.773   4.849   3.153  0.2814  0.0511  0.0261
 3904SOL    HW215382   3.691   4.832   3.107 -0.3758 -1.7202  1.7027
 3904SOL    HW315383   3.753   4.830   3.245  1.8374  2.3316  0.9235
 3904SOL    MW415384   3.759   4.844   3.159  0.4000  0.1183  0.3657
 3905SOL     OW15385   5.045   6.245   2.722  0.2028 -0.3765  0.2045
 3905SOL    HW215386   5.047   6.151   2.738  0.8546 -0.2709  0.7530
 3905SOL    HW315387   5.025   6.253   2.628  0.1061 -1.0505  0.1630
 3905SOL    MW415388   5.042   6.234   2.712  0.2760 -0.4515  0.2714
 3906SOL     OW15389   0.803   4.589   4.496  0.8244  0.1451 -0.7001
 3906SOL    HW215390   0.812   4.685   4.498  0.1955  0.2007 -0.2512
 3906SOL    HW315391   0.709   4.574   4.494  0.8423 -0.4351 -4.6190
 3906SOL    MW415392   0.792   4.600   4.496  0.7437  0.0759 -1.1579
 3907SOL     OW15393   5.122   2.006   6.162  0.0133  0.0094  0.5098
 3907SOL    HW215394   5.047   1.960   6.125 -0.4931  0.7074  0.6397
 3907SOL    HW315395   5.175   1.937   6.202  1.1374 -0.9470 -2.3537
 3907SOL    MW415396   5.119   1.991   6.162  0.0948 -0.0247  0.1491
 3908SOL     OW15397   4.710   1.861   5.361 -0.1221  0.0913  0.2970
 3908SOL    HW215398   4.691   1.844   5.269  1.3028  0.4409 -0.0882
 3908SOL    HW315399   4.639   1.818   5.409 -1.1676  0.3469 -0.9704
 3908SOL    MW415400   4.698   1.853   5.355 -0.0721  0.1712  0.0790
 3909SOL     OW15401   5.986   1.731   0.814 -0.3827  0.1118  0.3608
 3909SOL    HW215402   5.937   1.788   0.755 -1.9216 -1.2181  0.2396
 3909SOL    HW315403   5.930   1.724   0.892 -0.1830 -1.0666  0.4252
 3909SOL    MW415404   5.972   1.737   0.817 -0.5594 -0.2191  0.3533
 3910SOL     OW15405   4.442   0.479   5.210 -0.3384 -0.2250  0.3034
 3910SOL    HW215406   4.415   0.445   5.295  0.1262 -0.8342  0.2126
 3910SOL    HW315407   4.518   0.534   5.228  0.2713 -1.0213  0.1879
 3910SOL    MW415408   4.448   0.482   5.223 -0.1966 -0.4105  0.2762
 3911SOL     OW15409   5.168   5.500   1.436 -0.3303 -0.2559  0.3145
 3911SOL    HW215410   5.138   5.590   1.421  2.7713  0.6185 -1.5403
 3911SOL    HW315411   5.148   5.454   1.355 -0.3390 -0.7769  0.6080
 3911SOL    MW415412   5.162   5.506   1.423  0.0778 -0.2093  0.1085
 3912SOL     OW15413   0.479   2.137   4.354  0.5930  0.3939 -0.2924
 3912SOL    HW215414   0.535   2.091   4.416  0.7139  0.3783 -0.4126
 3912SOL    HW315415   0.437   2.206   4.407  0.9163  0.5652 -0.2526
 3912SOL    MW415416   0.481   2.140   4.370  0.6516  0.4144 -0.3030
 3913SOL     OW15417   0.357   6.136   1.316 -0.8399 -0.1574  0.5891
 3913SOL    HW215418   0.326   6.057   1.273 -2.4458 -0.0481  1.4290
 3913SOL    HW315419   0.338   6.121   1.409 -0.6121  0.9646  0.8315
 3913SOL    MW415420   0.350   6.124   1.323 -1.0217  0.0051  0.7319
 3914SOL     OW15421   1.220   3.484   2.048 -0.1510  0.4675  0.5671
 3914SOL    HW215422   1.289   3.462   2.110  0.0254 -0.4710  0.0726
 3914SOL    HW315423   1.257   3.554   1.994 -0.6371  1.9289  2.0439
 3914SOL    MW415424   1.234   3.490   2.049 -0.1919  0.5365  0.6967
 3915SOL     OW15425   1.079   2.657   3.881 -0.7662  0.0081 -0.3843
 3915SOL    HW215426   1.044   2.569   3.866 -0.5799 -0.0766 -0.3277
 3915SOL    HW315427   1.006   2.705   3.920 -1.1333  0.1205 -1.1898
 3915SOL    MW415428   1.065   2.651   3.885 -0.7900  0.0117 -0.4831
 3916SOL     OW15429   3.872   6.309   0.193  0.0127  0.1545 -0.6190
 3916SOL    HW215430   3.940   6.376   0.201  2.2537 -2.1088  0.9673
 3916SOL    HW315431   3.846   6.290   0.283 -2.3738  0.5427 -1.1682
 3916SOL    MW415432   3.878   6.315   0.206 -0.0065 -0.0929 -0.4822
 3917SOL     OW15433   0.734   5.851   4.104  0.0099  0.1329 -0.1654
 3917SOL    HW215434   0.796   5.794   4.058 -1.5970 -0.6913 -1.3721
 3917SOL    HW315435   0.708   5.915   4.039 -0.6121  0.3127  0.2573
 3917SOL    MW415436   0.739   5.852   4.089 -0.2842  0.0479 -0.2689
 3918SOL     OW15437   4.297   0.410   3.265  0.5755 -0.2860 -0.1392
 3918SOL    HW215438   4.257   0.332   3.303 -0.7073  0.1842 -0.4695
 3918SOL    HW315439   4.391   0.393   3.268  0.3224 -1.8151 -0.1441
 3918SOL    MW415440   4.304   0.398   3.270  0.3728 -0.4257 -0.1835
 3919SOL     OW15441   5.185   2.596   3.628 -0.8833  0.0949  0.3115
 3919SOL    HW215442   5.111   2.647   3.661 -0.1022  0.5722  1.3685
 3919SOL    HW315443   5.144   2.518   3.590 -1.9345  0.2736  1.0068
 3919SOL    MW415444   5.170   2.592   3.628 -0.9189  0.1815  0.5427
 3920SOL     OW15445   1.673   2.586   0.027 -0.3572 -0.0486  0.4977
 3920SOL    HW215446   1.735   2.591  -0.046  1.0618 -0.6457  1.6147
 3920SOL    HW315447   1.623   2.506   0.009  1.0287 -1.0628  0.9146
 3920SOL    MW415448   1.675   2.576   0.015  0.0129 -0.2612  0.7001
 3921SOL     OW15449   0.497   1.610   1.693  0.0014  0.1788 -0.1277
 3921SOL    HW215450   0.493   1.612   1.788 -1.3579  1.3815 -0.1824
 3921SOL    HW315451   0.567   1.548   1.673 -0.6212 -1.1710  1.6330
 3921SOL    MW415452   0.506   1.602   1.703 -0.2601  0.1593  0.0974
 3922SOL     OW15453   3.254   5.816   0.287  0.4864 -0.0714  0.1589
 3922SOL    HW215454   3.189   5.862   0.235  2.6381  0.9255 -1.8364
 3922SOL    HW315455   3.213   5.733   0.310 -1.1431  0.1195 -1.7878
 3922SOL    MW415456   3.240   5.811   0.283  0.5553  0.0853 -0.3612
 3923SOL     OW15457   4.878   1.005   1.729  0.0963  0.2926 -0.6818
 3923SOL    HW215458   4.858   0.985   1.637  0.5744 -0.3555 -0.6517
 3923SOL    HW315459   4.946   1.072   1.724 -0.7696  1.1733 -0.7908
 3923SOL    MW415460   4.884   1.011   1.716  0.0451  0.3233 -0.6922
 3924SOL     OW15461   4.552   4.629   4.240 -0.6942  0.1101 -0.3119
 3924SOL    HW215462   4.529   4.567   4.171 -1.0125  0.5704 -0.6253
 3924SOL    HW315463   4.474   4.633   4.295  0.0877 -1.4269  0.9775
 3924SOL    MW415464   4.538   4.622   4.238 -0.6330 -0.0320 -0.1831
 3925SOL     OW15465   0.726   4.781   3.808 -0.3733  0.6233  0.0606
 3925SOL    HW215466   0.753   4.839   3.737 -0.1093  0.9249  0.3973
 3925SOL    HW315467   0.661   4.833   3.856 -0.9756  0.2016 -0.2912
 3925SOL    MW415468   0.721   4.796   3.805 -0.4179  0.6075  0.0586
 3926SOL     OW15469   0.437   2.267   4.955  0.3373 -0.8510 -0.1559
 3926SOL    HW215470   0.523   2.309   4.961  0.3242 -0.9664  1.3076
 3926SOL    HW315471   0.432   2.235   4.865  0.9517  0.9866 -0.8960
 3926SOL    MW415472   0.448   2.268   4.944  0.4166 -0.6237 -0.0604
 3927SOL     OW15473   1.798   2.212   5.364 -0.2154 -0.2308  0.1306
 3927SOL    HW215474   1.720   2.210   5.309  0.0413  1.5973 -0.3654
 3927SOL    HW315475   1.784   2.284   5.425  0.1097 -1.3537  1.6057
 3927SOL    MW415476   1.786   2.221   5.365 -0.1387 -0.1377  0.2598
 3928SOL     OW15477   3.317   5.657   0.820 -0.4274  0.3581 -0.5999
 3928SOL    HW215478   3.398   5.608   0.823 -0.3685  0.3948 -1.3023
 3928SOL    HW315479   3.276   5.631   0.737 -0.4413  1.4043 -0.9409
 3928SOL    MW415480   3.322   5.647   0.809 -0.4215  0.5010 -0.7375
 3929SOL     OW15481   3.055   4.279   5.173 -0.4900 -0.4573  0.1763
 3929SOL    HW215482   3.135   4.226   5.182 -1.8319 -2.3096  2.3349
 3929SOL    HW315483   2.992   4.220   5.132 -1.6471 -0.1016  1.3921
 3929SOL    MW415484   3.058   4.264   5.169 -0.8197 -0.6548  0.6215
 3930SOL     OW15485   1.674   1.794   1.878  0.2300 -0.0094 -0.4054
 3930SOL    HW215486   1.719   1.726   1.928 -2.9472 -2.4336 -0.5060
 3930SOL    HW315487   1.629   1.846   1.945  1.7275  1.3926 -0.4152
 3930SOL    MW415488   1.674   1.791   1.894  0.0084 -0.1443 -0.4200
 3931SOL     OW15489   3.539   4.908   2.892 -0.2841  0.5463  0.0552
 3931SOL    HW215490   3.525   4.847   2.965 -0.4427 -0.6020 -0.9050
 3931SOL    HW315491   3.450   4.929   2.862 -0.1948  0.0399 -0.5807
 3931SOL    MW415492   3.525   4.902   2.898 -0.2933  0.3280 -0.1554
 3932SOL     OW15493   4.370   4.918   1.794  0.3793 -0.0551  0.4400
 3932SOL    HW215494   4.395   4.995   1.743 -0.9299  0.9039  1.1890
 3932SOL    HW315495   4.315   4.867   1.735 -1.3919  1.2094  0.9201
 3932SOL    MW415496   4.366   4.922   1.780 -0.0272  0.2382  0.6022
 3933SOL     OW15497   5.934   3.689   5.400  0.0899  0.0001  0.2888
 3933SOL    HW215498   5.877   3.765   5.389  1.3835  0.9171 -0.2852
 3933SOL    HW315499   5.956   3.661   5.311 -1.0501 -1.6299  0.4555
 3933SOL    MW415500   5.929   3.695   5.387  0.1101 -0.0940  0.2351
 3934SOL     OW15501   3.333   1.926   3.176 -0.9267  0.1480 -0.3916
 3934SOL    HW215502   3.421   1.899   3.148 -1.0010 -0.0065 -0.4804
 3934SOL    HW315503   3.340   2.020   3.190 -0.6521  0.0767 -0.0392
 3934SOL    MW415504   3.346   1.935   3.174 -0.9002  0.1182 -0.3568
 3935SOL     OW15505   5.676   0.538   5.025  0.8041  0.0632 -0.2338
 3935SOL    HW215506   5.634   0.574   5.103  0.7684  0.5670 -0.4829
 3935SOL    HW315507   5.616   0.560   4.954  1.0484 -0.0165 -0.4644
 3935SOL    MW415508   5.663   0.546   5.026  0.8316  0.1192 -0.2971
 3936SOL     OW15509   3.647   1.945   1.448  0.5617  0.6838 -0.1964
 3936SOL    HW215510   3.652   2.001   1.525  0.4965  0.6693 -0.1816
 3936SOL    HW315511   3.660   1.857   1.481 -1.3505  0.4555  0.0893
 3936SOL    MW415512   3.649   1.941   1.462  0.3008  0.6517 -0.1567
 3937SOL     OW15513   1.873   0.204   2.227  0.2200 -0.4140 -0.2428
 3937SOL    HW215514   1.880   0.279   2.168  0.8172  0.0953  0.4519
 3937SOL    HW315515   1.933   0.139   2.190  0.6399 -0.0718 -0.1725
 3937SOL    MW415516   1.882   0.205   2.214  0.3542 -0.3016 -0.1418
 3938SOL     OW15517   2.585   5.179   3.684  0.2821 -0.2495  0.4441
 3938SOL    HW215518   2.552   5.246   3.624  1.7678 -0.0916 -0.2484
 3938SOL    HW315519   2.537   5.099   3.660  1.2860 -0.3372 -1.4039
 3938SOL    MW415520   2.574   5.177   3.673  0.6106 -0.2402  0.1089
 3939SOL     OW15521   5.228   2.910   2.624 -0.5589 -0.6040 -0.0916
 3939SOL    HW215522   5.165   2.954   2.567 -1.8026 -0.3295  1.4363
 3939SOL    HW315523   5.258   2.978   2.685 -0.2746 -1.1894  0.4367
 3939SOL    MW415524   5.224   2.925   2.624 -0.6855 -0.6450  0.1797
 3940SOL     OW15525   6.090   0.258   3.936  0.4488  0.8203  0.3170
 3940SOL    HW215526   6.139   0.308   3.870  0.6607  0.7233  0.4011
 3940SOL    HW315527   6.157   0.223   3.994  0.3729 -0.4123 -0.3229
 3940SOL    MW415528   6.105   0.260   3.935  0.4667  0.6449  0.2437
 3941SOL     OW15529   5.541   3.886   0.049 -0.2025 -0.2355  0.5355
 3941SOL    HW215530   5.607   3.948   0.080 -1.3117  1.1708  0.1897
 3941SOL    HW315531   5.466   3.940   0.026 -1.4080 -1.7646  0.6866
 3941SOL    MW415532   5.540   3.901   0.050 -0.5079 -0.2517  0.5098
 3942SOL     OW15533   0.357   2.614   5.978  0.3568 -0.1732  0.2923
 3942SOL    HW215534   0.263   2.598   5.987  0.3703 -0.7560 -0.4654
 3942SOL    HW315535   0.378   2.678   6.046 -0.4148 -0.7009  1.0319
 3942SOL    MW415536   0.348   2.620   5.988  0.2568 -0.3197  0.2899
 3943SOL     OW15537   1.232   3.947   3.379 -0.2157  0.3536 -0.1795
 3943SOL    HW215538   1.155   3.930   3.433 -0.6803 -2.1398 -1.4237
 3943SOL    HW315539   1.197   3.985   3.299 -0.5250 -2.3375 -1.4568
 3943SOL    MW415540   1.218   3.950   3.375 -0.3178 -0.3304 -0.5122
 3944SOL     OW15541   1.094   5.828   6.067  0.6970  0.1057 -0.8352
 3944SOL    HW215542   1.137   5.765   6.009  0.8500  1.2917 -2.0473
 3944SOL    HW315543   1.130   5.810   6.154  0.6248 -1.5606 -1.1109
 3944SOL    MW415544   1.104   5.817   6.071  0.7077  0.0424 -1.0315
 3945SOL     OW15545   0.376   3.589   3.820  0.5015  0.3415 -0.1612
 3945SOL    HW215546   0.438   3.612   3.889  1.4319  0.0733 -0.8786
 3945SOL    HW315547   0.334   3.509   3.851 -0.5228  1.2876  0.9602
 3945SOL    MW415548   0.379   3.581   3.833  0.4891  0.4309 -0.1079
 3946SOL     OW15549   0.444   0.023   4.458  0.0141  0.3185  0.7558
 3946SOL    HW215550   0.359  -0.020   4.466 -0.1214  0.4261 -0.0791
 3946SOL    HW315551   0.508  -0.044   4.485 -0.3681  0.4761  2.1255
 3946SOL    MW415552   0.442   0.009   4.463 -0.0542  0.3535  0.8264
 3947SOL     OW15553   3.595   2.510   4.435  0.2218 -0.6510  0.4158
 3947SOL    HW215554   3.676   2.465   4.460  1.2127  0.7995 -0.0303
 3947SOL    HW315555   3.526   2.460   4.478  1.3328 -1.9774  0.7628
 3947SOL    MW415556   3.597   2.497   4.444  0.4991 -0.6347  0.4027
 3948SOL     OW15557   4.124   4.567   1.539 -0.3824 -0.4277 -0.1351
 3948SOL    HW215558   4.048   4.584   1.484 -1.3030  0.4878  1.3532
 3948SOL    HW315559   4.197   4.561   1.478 -1.1276  1.9948 -1.3934
 3948SOL    MW415560   4.124   4.568   1.524 -0.6022  0.0127 -0.1048
 3949SOL     OW15561   5.146   5.369   1.199 -0.2189 -0.0322  0.0499
 3949SOL    HW215562   5.195   5.431   1.145  0.7711  0.1054  1.0761
 3949SOL    HW315563   5.060   5.363   1.157  0.8738 -0.8318 -2.2230
 3949SOL    MW415564   5.141   5.377   1.186  0.0559 -0.1196 -0.1146
 3950SOL     OW15565   3.041   2.689   5.808 -0.1292  0.4603  0.1135
 3950SOL    HW215566   3.094   2.722   5.880  0.4788 -0.9378  0.3495
 3950SOL    HW315567   3.013   2.602   5.837  1.2671 -0.7296 -1.8269
 3950SOL    MW415568   3.044   2.682   5.821  0.1353  0.1188 -0.1113
 3951SOL     OW15569   6.114   5.006   5.935 -0.1962  0.1730 -0.3721
 3951SOL    HW215570   6.084   4.923   5.898 -1.6271  0.4503  0.0800
 3951SOL    HW315571   6.208   4.995   5.948 -0.2687 -1.1570 -0.8674
 3951SOL    MW415572   6.122   4.994   5.932 -0.3945  0.0341 -0.3778
 3952SOL     OW15573   5.231   2.588   0.510 -0.2070 -0.5737 -0.1752
 3952SOL    HW215574   5.181   2.659   0.551  2.9893 -0.4446  4.2322
 3952SOL    HW315575   5.321   2.622   0.505  1.4143 -4.0404  1.8497
 3952SOL    MW415576   5.237   2.602   0.514  0.4286 -1.0140  0.6734
 3953SOL     OW15577   6.278   2.638   3.047 -0.1227  0.4478  0.2157
 3953SOL    HW215578   6.280   2.577   2.974  0.1178 -0.4946  0.9870
 3953SOL    HW315579   6.345   2.606   3.107 -3.2612 -1.6192  2.9919
 3953SOL    MW415580   6.287   2.626   3.045 -0.5051  0.0507  0.6837
 3954SOL     OW15581   5.561   5.479   3.798 -0.3760 -0.5526 -0.5349
 3954SOL    HW215582   5.655   5.465   3.784  0.1884  1.5258  0.7812
 3954SOL    HW315583   5.546   5.452   3.888 -0.3421  1.9129  0.2844
 3954SOL    MW415584   5.572   5.474   3.808 -0.2970  0.0469 -0.2531
 3955SOL     OW15585   6.147   5.267   2.349 -0.3008  0.2665 -0.1878
 3955SOL    HW215586   6.239   5.254   2.375 -0.3679  0.2908  0.0673
 3955SOL    HW315587   6.138   5.362   2.339 -0.7295  0.4393  1.4604
 3955SOL    MW415588   6.158   5.278   2.351 -0.3662  0.2925  0.0633
 3956SOL     OW15589   4.882   4.454   3.848 -0.3912  0.4159 -0.5605
 3956SOL    HW215590   4.886   4.512   3.924  0.9054 -1.8086  1.1903
 3956SOL    HW315591   4.794   4.416   3.851 -0.9963  1.7029 -1.3062
 3956SOL    MW415592   4.871   4.457   3.859 -0.3000  0.2922 -0.4279
 3957SOL     OW15593   2.518   6.017   2.839 -0.3912 -0.4349 -0.1031
 3957SOL    HW215594   2.571   6.093   2.864  0.4103 -0.5560 -1.3802
 3957SOL    HW315595   2.555   5.945   2.889 -1.3937  0.0477  1.4061
 3957SOL    MW415596   2.529   6.018   2.849 -0.4177 -0.3872 -0.0725
 3958SOL     OW15597   1.668   3.467   0.583  0.1778  0.0018 -0.0538
 3958SOL    HW215598   1.621   3.437   0.504 -0.3585 -1.0806  0.6484
 3958SOL    HW315599   1.605   3.524   0.627 -0.3544 -1.1145  0.6729
 3958SOL    MW415600   1.653   3.471   0.578  0.0368 -0.2883  0.1347
 3959SOL     OW15601   2.734   3.892   4.855 -0.3225 -0.4947 -0.0171
 3959SOL    HW215602   2.827   3.884   4.878 -0.3445  0.3216  0.3654
 3959SOL    HW315603   2.714   3.809   4.810  0.4552 -0.8940  0.3469
 3959SOL    MW415604   2.744   3.880   4.852 -0.2228 -0.4397  0.0814
 3960SOL     OW15605   0.013   1.191   5.103  0.6503 -0.3860  0.5877
 3960SOL    HW215606  -0.052   1.128   5.072 -0.7723  0.3315  2.0058
 3960SOL    HW315607   0.065   1.143   5.167  0.1786 -0.4015  0.9657
 3960SOL    MW415608   0.011   1.177   5.107  0.4003 -0.2934  0.8247
 3961SOL     OW15609   3.935   0.438   4.883 -0.1927  0.1930  0.2305
 3961SOL    HW215610   3.846   0.470   4.903 -0.0963  0.4798  0.2104
 3961SOL    HW315611   3.921   0.356   4.836 -0.4322 -0.2088  0.9891
 3961SOL    MW415612   3.921   0.432   4.880 -0.2116  0.1778  0.3279
 3962SOL     OW15613   3.353   1.299   5.290 -0.7017 -0.1437 -0.4195
 3962SOL    HW215614   3.287   1.332   5.351 -0.1406  2.0512 -0.9446
 3962SOL    HW315615   3.335   1.344   5.208  0.3305 -0.9238 -1.0991
 3962SOL    MW415616   3.342   1.309   5.287 -0.4915  0.0430 -0.5784
 3963SOL     OW15617   4.915   4.238   1.612 -0.3294 -0.1782 -0.0112
 3963SOL    HW215618   4.983   4.233   1.678 -0.4465 -2.1642  0.0196
 3963SOL    HW315619   4.852   4.301   1.647  1.2095  1.3107  0.1842
 3963SOL    MW415620   4.916   4.245   1.625 -0.1418 -0.2438  0.0186
 3964SOL     OW15621   5.270   2.679   1.169 -0.2369 -0.3440  0.4638
 3964SOL    HW215622   5.190   2.676   1.223  0.6171 -0.9231  1.7499
 3964SOL    HW315623   5.334   2.724   1.223  0.5433 -0.5967 -0.2290
 3964SOL    MW415624   5.268   2.684   1.183 -0.0213 -0.4537  0.5421
 3965SOL     OW15625   2.690   1.365   5.821 -0.2545  0.1049  0.1778
 3965SOL    HW215626   2.662   1.419   5.895 -1.9584 -0.7332  0.1754
 3965SOL    HW315627   2.669   1.418   5.744 -1.1571 -0.1865  0.2087
 3965SOL    MW415628   2.684   1.379   5.821 -0.5984 -0.0441  0.1816
 3966SOL     OW15629   3.152   5.744   3.083 -0.2768  0.3477  0.1242
 3966SOL    HW215630   3.122   5.792   3.160 -0.0087 -0.5659  0.8209
 3966SOL    HW315631   3.211   5.805   3.039 -0.7600  1.0382  0.4120
 3966SOL    MW415632   3.156   5.758   3.088 -0.3052  0.3182  0.2541
 3967SOL     OW15633   2.776   6.352   0.101 -0.4333 -0.1248 -0.2937
 3967SOL    HW215634   2.688   6.335   0.135 -0.1067 -0.4809  0.4036
 3967SOL    HW315635   2.761   6.389   0.014 -1.2565 -0.8502 -0.4842
 3967SOL    MW415636   2.762   6.354   0.094 -0.4988 -0.2675 -0.2268
 3968SOL     OW15637   6.049   0.866   4.795 -0.7483 -0.0464 -0.0580
 3968SOL    HW215638   6.093   0.781   4.800 -1.8845 -0.6123  0.9439
 3968SOL    HW315639   5.956   0.843   4.782 -0.8489  1.0883 -1.6088
 3968SOL    MW415640   6.042   0.851   4.794 -0.9115  0.0287 -0.1304
 3969SOL     OW15641   6.322   1.994   1.481 -0.2341 -0.4726 -0.1286
 3969SOL    HW215642   6.280   1.994   1.396  2.6678 -1.3503 -1.7017
 3969SOL    HW315643   6.302   1.907   1.518  1.6669 -1.6872 -1.7490
 3969SOL    MW415644   6.314   1.982   1.475  0.3996 -0.7487 -0.5500
 3970SOL     OW15645   0.173   5.382   5.223 -0.1957  0.0720 -0.4057
 3970SOL    HW215646   0.178   5.397   5.318  0.1926 -1.0186 -0.2304
 3970SOL    HW315647   0.167   5.469   5.185 -0.6387  0.5224  0.6398
 3970SOL    MW415648   0.173   5.395   5.231 -0.2029 -0.0125 -0.2446
 3971SOL     OW15649   4.326   1.513   3.241 -0.1758  0.3538  0.4107
 3971SOL    HW215650   4.396   1.453   3.216  0.2755  1.3763 -0.9358
 3971SOL    HW315651   4.290   1.542   3.157 -2.3544 -0.2820  1.0687
 3971SOL    MW415652   4.330   1.509   3.227 -0.4037  0.4048  0.3198
 3972SOL     OW15653   4.968   0.857   2.479 -0.3991 -0.2374  0.3859
 3972SOL    HW215654   4.931   0.846   2.567 -0.0156  3.0146  1.0912
 3972SOL    HW315655   4.929   0.939   2.447  1.1917 -0.1687 -1.5654
 3972SOL    MW415656   4.958   0.866   2.486 -0.1386  0.2007  0.2215
 3973SOL     OW15657   4.781   2.894   4.872  0.7949  0.4043  0.8496
 3973SOL    HW215658   4.714   2.827   4.867  1.1720  0.0546  0.3044
 3973SOL    HW315659   4.831   2.874   4.951 -0.1363  1.0545  1.6195
 3973SOL    MW415660   4.779   2.883   4.882  0.7218  0.4439  0.8792
 3974SOL     OW15661   3.764   4.882   1.362 -0.2128 -0.6262 -0.1156
 3974SOL    HW215662   3.690   4.841   1.319  0.6689 -1.4575 -0.8670
 3974SOL    HW315663   3.820   4.810   1.388  0.9896  0.0461 -0.7628
 3974SOL    MW415664   3.761   4.867   1.360  0.0622 -0.6471 -0.3001
 3975SOL     OW15665   2.092   4.231   0.436  0.0300 -0.3254  0.3657
 3975SOL    HW215666   2.186   4.227   0.454  0.0668 -0.3704  0.1644
 3975SOL    HW315667   2.051   4.230   0.522  0.1814 -1.1224  0.4312
 3975SOL    MW415668   2.099   4.231   0.450  0.0548 -0.4365  0.3478
 3976SOL     OW15669   0.174   3.201   3.708  0.2822  1.0281  0.0300
 3976SOL    HW215670   0.232   3.179   3.635 -0.2622 -0.5035  0.0214
 3976SOL    HW315671   0.153   3.117   3.749 -2.2434  1.4533 -0.2025
 3976SOL    MW415672   0.179   3.187   3.704 -0.1228  0.8822 -0.0018
 3977SOL     OW15673   3.249   2.415   3.634 -0.3794 -0.2032 -0.4492
 3977SOL    HW215674   3.234   2.470   3.711  0.6160 -0.9232  0.3012
 3977SOL    HW315675   3.318   2.355   3.662 -1.7411 -2.1413 -1.0674
 3977SOL    MW415676   3.257   2.414   3.648 -0.4277 -0.5539 -0.4318
 3978SOL     OW15677   3.997   1.840   1.541 -0.3678 -0.0779 -0.2319
 3978SOL    HW215678   4.011   1.792   1.459 -1.4689 -0.6400 -0.1115
 3978SOL    HW315679   4.084   1.872   1.565  0.0226 -0.1492 -1.4648
 3978SOL    MW415680   4.010   1.838   1.533 -0.4616 -0.1615 -0.3787
 3979SOL     OW15681   3.004   3.277   3.741 -0.3251 -0.4911  0.8135
 3979SOL    HW215682   3.078   3.237   3.697  0.5499  0.6350  1.2179
 3979SOL    HW315683   2.955   3.322   3.672 -0.6396 -1.2179  0.5515
 3979SOL    MW415684   3.007   3.278   3.726 -0.2511 -0.4384  0.8323
 3980SOL     OW15685   0.623   2.271   0.627 -0.0679  0.3085  0.1025
 3980SOL    HW215686   0.624   2.281   0.722  0.2391  1.9488 -0.0538
 3980SOL    HW315687   0.694   2.209   0.608  0.6857  0.9218  0.8527
 3980SOL    MW415688   0.632   2.264   0.637  0.0720  0.6059  0.1809
 3981SOL     OW15689   5.406   0.523   0.883  0.0126  0.3525 -0.3552
 3981SOL    HW215690   5.325   0.572   0.870 -0.8820 -0.6745  1.0298
 3981SOL    HW315691   5.421   0.527   0.978  0.7444 -0.7592 -0.4073
 3981SOL    MW415692   5.397   0.530   0.894 -0.0089  0.0704 -0.1793
 3982SOL     OW15693   2.918   4.025   4.560 -0.0129  0.0605  0.2943
 3982SOL    HW215694   2.961   4.089   4.616  1.2310 -1.6834  1.4404
 3982SOL    HW315695   2.825   4.037   4.577  0.1960  1.5688  0.4474
 3982SOL    MW415696   2.911   4.035   4.570  0.1788  0.0294  0.4657
 3983SOL     OW15697   3.459   0.413   3.200 -0.3600 -0.2832  0.0259
 3983SOL    HW215698   3.528   0.452   3.253 -1.5026  1.0296  0.6236
 3983SOL    HW315699   3.440   0.330   3.243  0.3826 -0.3341  0.2612
 3983SOL    MW415700   3.465   0.407   3.213 -0.4127 -0.1167  0.1358
 3984SOL     OW15701   2.479   2.001   5.149  0.2838 -0.3504 -0.4386
 3984SOL    HW215702   2.453   2.013   5.057  1.0595  2.4544 -0.3845
 3984SOL    HW315703   2.572   1.978   5.144  0.4008  0.0972 -0.3653
 3984SOL    MW415704   2.488   1.999   5.136  0.4016  0.0787 -0.4218
 3985SOL     OW15705   4.207   4.130   6.065  0.4326  0.3938 -0.2900
 3985SOL    HW215706   4.240   4.049   6.026 -0.0395 -0.4697  1.0284
 3985SOL    HW315707   4.277   4.159   6.124 -0.7304 -1.0260  1.9288
 3985SOL    MW415708   4.220   4.123   6.068  0.2169  0.0926  0.1767
 3986SOL     OW15709   4.503   3.285   2.060  0.2035 -0.2151 -0.0534
 3986SOL    HW215710   4.579   3.308   2.007 -1.4861  0.7184 -2.2471
 3986SOL    HW315711   4.469   3.369   2.092  1.1634 -0.7467  2.6576
 3986SOL    MW415712   4.508   3.299   2.057  0.1072 -0.1621  0.0149
 3987SOL     OW15713   4.481   1.304   2.338 -0.2372  0.1820 -0.7003
 3987SOL    HW215714   4.450   1.251   2.265  0.0198  0.2595 -0.8651
 3987SOL    HW315715   4.541   1.367   2.299 -0.1830  0.2949 -0.4393
 3987SOL    MW415716   4.485   1.305   2.324 -0.1961  0.2071 -0.6876
 3988SOL     OW15717   5.192   5.623   0.696 -0.4404  0.2159 -0.1797
 3988SOL    HW215718   5.226   5.666   0.775  1.0244  0.3020 -0.8431
 3988SOL    HW315719   5.199   5.690   0.628  2.7016 -1.2425 -1.4393
 3988SOL    MW415720   5.197   5.638   0.698  0.1674  0.0348 -0.4334
 3989SOL     OW15721   3.882   5.651   3.463 -0.1522 -0.0021 -0.4288
 3989SOL    HW215722   3.976   5.667   3.451 -0.3438  1.5891 -0.0729
 3989SOL    HW315723   3.878   5.577   3.523  0.8734 -0.2382 -0.6351
 3989SOL    MW415724   3.894   5.644   3.470 -0.0421  0.1767 -0.4091
 3990SOL     OW15725   3.799   3.445   4.663  0.6237 -0.3106 -0.2571
 3990SOL    HW215726   3.891   3.419   4.661  0.5892 -0.7038  1.6077
 3990SOL    HW315727   3.773   3.451   4.571  2.0059 -1.9755 -0.7896
 3990SOL    MW415728   3.807   3.442   4.650  0.8015 -0.5821 -0.0814
 3991SOL     OW15729   3.240   2.521   2.471  0.2516  0.6332  0.2025
 3991SOL    HW215730   3.171   2.547   2.409 -2.5623 -0.4481  2.6075
 3991SOL    HW315731   3.265   2.603   2.514 -1.6296  0.7794  1.1607
 3991SOL    MW415732   3.234   2.535   2.469 -0.3678  0.5098  0.6462
 3992SOL     OW15733   0.108   3.640   1.791  0.0489 -0.0460  0.4235
 3992SOL    HW215734   0.023   3.667   1.826  1.3174  0.7720  3.0853
 3992SOL    HW315735   0.087   3.565   1.735 -2.3006 -0.6739  1.9841
 3992SOL    MW415736   0.094   3.633   1.788 -0.0937 -0.0209  0.9806
 3993SOL     OW15737   6.301   4.294   3.053 -0.4182 -0.0315 -0.0583
 3993SOL    HW215738   6.303   4.326   2.963  2.2058 -1.6187 -0.6450
 3993SOL    HW315739   6.316   4.372   3.106 -1.0492  0.7626 -1.0001
 3993SOL    MW415740   6.303   4.309   3.048 -0.1552 -0.1361 -0.2600
 3994SOL     OW15741   4.385   5.841   3.764 -0.3702  0.3053  0.1079
 3994SOL    HW215742   4.415   5.854   3.675 -0.7255 -1.0457 -0.2447
 3994SOL    HW315743   4.370   5.746   3.770 -0.3050  0.3692  1.6113
 3994SOL    MW415744   4.387   5.830   3.753 -0.4085  0.1354  0.2598
 3995SOL     OW15745   3.557   0.984   6.341  0.0627 -0.5617 -0.5078
 3995SOL    HW215746   3.516   1.065   6.309  0.4164 -0.1095  0.1480
 3995SOL    HW315747   3.570   1.000   6.435  0.3463 -1.2951 -0.4212
 3995SOL    MW415748   3.554   0.997   6.349  0.1467 -0.5988 -0.4099
 3996SOL     OW15749   1.181   2.752   0.527 -0.3723  0.4545 -0.0417
 3996SOL    HW215750   1.174   2.726   0.618 -0.4950 -1.6337 -0.5981
 3996SOL    HW315751   1.091   2.765   0.498 -0.3579  0.6229 -0.0163
 3996SOL    MW415752   1.168   2.751   0.535 -0.3866  0.2012 -0.1117
 3997SOL     OW15753   5.504   5.668   3.288 -0.3458 -0.0625 -0.5411
 3997SOL    HW215754   5.522   5.574   3.286  3.0198  0.4193  0.6950
 3997SOL    HW315755   5.531   5.698   3.201  1.2471  0.0587 -0.0495
 3997SOL    MW415756   5.510   5.659   3.276  0.3084  0.0171 -0.3132
 3998SOL     OW15757   2.058   1.508   1.450 -0.3450 -0.0646 -0.6086
 3998SOL    HW215758   2.108   1.544   1.524 -0.3864 -1.5481  0.1829
 3998SOL    HW315759   1.967   1.521   1.474 -0.3666 -1.1408 -0.0715
 3998SOL    MW415760   2.053   1.515   1.463 -0.3533 -0.4023 -0.4333
 3999SOL     OW15761   0.890   3.081   5.877  0.2619  0.3665  0.5913
 3999SOL    HW215762   0.954   3.120   5.935 -0.2008  1.6028  0.3209
 3999SOL    HW315763   0.941   3.039   5.808  0.8049  1.9466 -0.0097
 3999SOL    MW415764   0.905   3.081   5.875  0.2725  0.7381  0.4763
 4000SOL     OW15765   2.860   5.618   4.954  0.2558  0.2831 -0.1750
 4000SOL    HW215766   2.837   5.593   4.865  0.1582 -0.5498  0.0803
 4000SOL    HW315767   2.775   5.630   4.998  0.2802 -1.2706  0.3424
 4000SOL    MW415768   2.846   5.616   4.948  0.2461 -0.0318 -0.0731
 4001SOL     OW15769   4.424   6.383   3.217  0.1150 -0.0176 -0.8036
 4001SOL    HW215770   4.395   6.433   3.293 -0.0352 -0.1896 -0.7459
 4001SOL    HW315771   4.516   6.366   3.233  0.2168  0.4136 -0.9213
 4001SOL    MW415772   4.432   6.387   3.229  0.1086  0.0166 -0.8115
 4002SOL     OW15773   3.455   1.088   3.379  0.2177 -0.0528  0.4734
 4002SOL    HW215774   3.468   0.994   3.390  0.9131 -0.1853 -1.1946
 4002SOL    HW315775   3.521   1.114   3.315  0.5134  1.7224  1.4445
 4002SOL    MW415776   3.466   1.079   3.372  0.3484  0.1640  0.3814
 4003SOL     OW15777   1.678   3.975   4.623  0.0634 -0.6937 -0.1181
 4003SOL    HW215778   1.698   4.068   4.628 -1.5927 -0.2706 -0.7131
 4003SOL    HW315779   1.628   3.957   4.702 -1.5991 -0.5163 -1.0813
 4003SOL    MW415780   1.674   3.985   4.634 -0.3745 -0.6145 -0.3237
 4004SOL     OW15781   3.898   2.591   1.529  0.4564 -0.3774 -0.7915
 4004SOL    HW215782   3.837   2.597   1.456  1.1278 -3.1396 -1.6990
 4004SOL    HW315783   3.860   2.527   1.588  0.9534  0.2617  0.2676
 4004SOL    MW415784   3.885   2.584   1.527  0.6105 -0.6575 -0.7715
 4005SOL     OW15785   6.052   5.966   3.605  0.4731 -0.2720 -0.4403
 4005SOL    HW215786   6.087   5.879   3.626  0.4020  0.1303  1.4964
 4005SOL    HW315787   5.958   5.953   3.598  0.5691 -0.5526 -1.3488
 4005SOL    MW415788   6.044   5.953   3.607  0.4764 -0.2560 -0.3046
 4006SOL     OW15789   3.910   2.565   2.413 -0.7094 -0.3090 -0.2874
 4006SOL    HW215790   3.920   2.606   2.327  0.0066  2.5808  1.0353
 4006SOL    HW315791   3.966   2.487   2.410  1.5557  1.2559 -1.5945
 4006SOL    MW415792   3.919   2.560   2.402 -0.3161  0.2787 -0.2853
 4007SOL     OW15793   3.708   5.269   3.011 -0.5546 -0.3188  0.5368
 4007SOL    HW215794   3.638   5.263   3.076 -1.2109 -0.4067 -0.1695
 4007SOL    HW315795   3.663   5.263   2.926  0.2146  0.4622  0.0571
 4007SOL    MW415796   3.693   5.268   3.008 -0.5397 -0.2273  0.3803
 4008SOL     OW15797   6.321   5.973   4.444  0.0751  0.3934 -0.1150
 4008SOL    HW215798   6.274   5.954   4.525  2.0322 -0.4889  0.8680
 4008SOL    HW315799   6.253   5.972   4.376 -1.3165 -0.8203  1.2264
 4008SOL    MW415800   6.306   5.970   4.446  0.1497  0.1168  0.1917
 4009SOL     OW15801   2.916   2.983   2.692 -0.0579  0.2441  0.5324
 4009SOL    HW215802   2.900   2.944   2.778  0.1417  0.1774  0.5392
 4009SOL    HW315803   3.008   3.007   2.693  0.0237 -0.0485  0.2179
 4009SOL    MW415804   2.926   2.981   2.703 -0.0208  0.1967  0.4918
 4010SOL     OW15805   1.628   2.571   4.772  0.0440  0.3340 -0.0801
 4010SOL    HW215806   1.600   2.583   4.682  0.2449  1.5429  0.0054
 4010SOL    HW315807   1.650   2.659   4.803  0.1847 -0.0846  1.0795
 4010SOL    MW415808   1.627   2.584   4.765  0.0891  0.4382  0.0842
 4011SOL     OW15809   1.608   4.160   0.808 -0.8849 -0.1160  0.9164
 4011SOL    HW215810   1.518   4.184   0.827 -0.3892  1.3604  1.5653
 4011SOL    HW315811   1.659   4.239   0.829  0.8952 -1.7298  3.2689
 4011SOL    MW415812   1.603   4.173   0.813 -0.5847 -0.1341  1.3124
 4012SOL     OW15813   4.094   5.066   4.060  0.0770 -0.0271  0.2154
 4012SOL    HW215814   4.102   4.978   4.097  3.0006 -0.1654 -0.5111
 4012SOL    HW315815   4.079   5.051   3.966  3.2630  0.0745 -0.4233
 4012SOL    MW415816   4.093   5.052   4.052  0.8831 -0.0320  0.0352
 4013SOL     OW15817   1.123   5.095   3.491 -0.1930 -0.2094  0.3505
 4013SOL    HW215818   1.079   5.179   3.502 -1.6096 -1.2191  3.2338
 4013SOL    HW315819   1.204   5.103   3.541  0.1011 -0.3093 -0.0979
 4013SOL    MW415820   1.128   5.107   3.499 -0.3411 -0.3558  0.6718
 4014SOL     OW15821   5.582   0.096   4.342  0.7603  0.1993 -0.0344
 4014SOL    HW215822   5.640   0.100   4.266  0.7349  0.3244 -0.0475
 4014SOL    HW315823   5.496   0.078   4.305  0.8422 -0.2907  0.0092
 4014SOL    MW415824   5.578   0.094   4.327  0.7678  0.1512 -0.0304
 4015SOL     OW15825   0.689   3.794   2.637  0.3326  0.6106 -0.4426
 4015SOL    HW215826   0.708   3.801   2.543  0.5065 -1.2589 -0.5789
 4015SOL    HW315827   0.664   3.703   2.649 -0.9351  1.1424  1.1252
 4015SOL    MW415828   0.689   3.783   2.626  0.1883  0.4341 -0.2537
 4016SOL     OW15829   1.570   3.768   1.651 -0.2432  0.4251  0.1427
 4016SOL    HW215830   1.622   3.713   1.711  1.8484  0.5054 -1.4850
 4016SOL    HW315831   1.502   3.709   1.618  0.6844 -0.6091  0.0130
 4016SOL    MW415832   1.568   3.753   1.655  0.1552  0.2992 -0.0892
 4017SOL     OW15833   6.021   5.670   3.667 -0.0282  0.5578  0.5287
 4017SOL    HW215834   5.965   5.604   3.708 -1.2044  2.4943  2.2591
 4017SOL    HW315835   6.107   5.658   3.708  1.4577 -3.2373 -3.0162
 4017SOL    MW415836   6.025   5.660   3.678  0.0127  0.3126  0.2893
 4018SOL     OW15837   5.849   2.517   6.101 -0.2842  0.1819 -0.7934
 4018SOL    HW215838   5.888   2.476   6.024  0.6803  2.9136 -1.8849
 4018SOL    HW315839   5.783   2.577   6.066  0.6998  2.0574  0.3927
 4018SOL    MW415840   5.846   2.520   6.086 -0.0271  0.7898 -0.7809
 4019SOL     OW15841   3.168   0.668   1.357  0.1582 -0.5151 -0.2478
 4019SOL    HW215842   3.159   0.599   1.423  1.1230  2.3041  3.1770
 4019SOL    HW315843   3.081   0.707   1.352 -0.0388 -1.0543 -1.0657
 4019SOL    MW415844   3.155   0.664   1.365  0.2595 -0.2143  0.0961
 4020SOL     OW15845   6.374   1.009   0.007  0.0396 -0.6186  0.0801
 4020SOL    HW215846   6.314   1.023  -0.066 -0.7409 -1.4297  0.5409
 4020SOL    HW315847   6.331   1.049   0.082  0.2774 -0.8248  0.3321
 4020SOL    MW415848   6.361   1.016   0.008 -0.0320 -0.7529  0.1741
 4021SOL     OW15849   2.067   0.281   3.372  0.2625  0.0425 -0.1024
 4021SOL    HW215850   1.995   0.341   3.352  0.5686  0.6829  0.6480
 4021SOL    HW315851   2.024   0.199   3.395 -0.3447  0.8618  1.9029
 4021SOL    MW415852   2.052   0.278   3.372  0.2228  0.2351  0.2612
 4022SOL     OW15853   1.308   2.915   4.827 -0.9411 -0.2907  0.1261
 4022SOL    HW215854   1.296   2.849   4.758  1.3787  0.0733 -0.7216
 4022SOL    HW315855   1.305   2.999   4.780  4.1508 -0.1098 -0.3544
 4022SOL    MW415856   1.306   2.917   4.811  0.0368 -0.2188 -0.0491
 4023SOL     OW15857   5.657   4.499   6.161 -0.2600  1.0085 -0.3402
 4023SOL    HW215858   5.635   4.592   6.152 -1.1522  0.7940 -0.4877
 4023SOL    HW315859   5.606   4.455   6.093  0.6210  0.4648 -0.6700
 4023SOL    MW415860   5.647   4.506   6.151 -0.2615  0.9084 -0.4032
 4024SOL     OW15861   5.754   0.356   3.032 -0.2525  0.3760  0.3153
 4024SOL    HW215862   5.706   0.439   3.028 -1.6196 -0.3423  1.1416
 4024SOL    HW315863   5.722   0.306   2.957  1.8229  1.1779 -1.2063
 4024SOL    MW415864   5.743   0.360   3.022 -0.1590  0.3870  0.2236
 4025SOL     OW15865   3.816   2.190   0.366  0.0823  0.4419  0.0191
 4025SOL    HW215866   3.727   2.157   0.354  0.8161 -1.0903 -1.6969
 4025SOL    HW315867   3.812   2.282   0.340 -1.0452  0.4733  0.2608
 4025SOL    MW415868   3.804   2.198   0.361  0.0303  0.2439 -0.1755
 4026SOL     OW15869   4.359   1.153   0.656  0.2772 -0.2608 -0.5115
 4026SOL    HW215870   4.316   1.080   0.612  0.3499 -0.6724  0.0889
 4026SOL    HW315871   4.438   1.116   0.693  1.2368  0.5186 -1.6979
 4026SOL    MW415872   4.363   1.139   0.655  0.4134 -0.2123 -0.5888
 4027SOL     OW15873   1.495   4.415   2.957 -0.0670 -0.4387  0.3248
 4027SOL    HW215874   1.402   4.416   2.981 -0.2138 -0.4750 -0.2231
 4027SOL    HW315875   1.498   4.462   2.874  0.2286 -1.4788 -0.2714
 4027SOL    MW415876   1.483   4.421   2.949 -0.0474 -0.5807  0.1739
 4028SOL     OW15877   4.638   1.135   2.812 -0.0054 -0.0941 -0.1097
 4028SOL    HW215878   4.598   1.150   2.727  0.7297  1.7094 -0.1696
 4028SOL    HW315879   4.733   1.139   2.795  0.1494  0.3201  0.7961
 4028SOL    MW415880   4.646   1.137   2.798  0.1120  0.1985  0.0019
 4029SOL     OW15881   0.091   1.316   1.459  0.0918 -0.3022 -0.0607
 4029SOL    HW215882   0.144   1.329   1.381 -0.7081  0.1896 -0.5341
 4029SOL    HW315883   0.107   1.394   1.513 -0.0152 -0.2332 -0.1279
 4029SOL    MW415884   0.100   1.328   1.456 -0.0278 -0.2282 -0.1320
 4030SOL     OW15885   0.215   5.045   5.800 -0.1303 -0.0309 -0.3581
 4030SOL    HW215886   0.164   5.125   5.787 -2.2909 -1.1873  0.4530
 4030SOL    HW315887   0.243   5.019   5.712  1.0376  1.8553 -0.5755
 4030SOL    MW415888   0.212   5.052   5.787 -0.2613  0.0654 -0.2797
 4031SOL     OW15889   4.839   1.292   3.542 -0.3537  0.2798 -0.6237
 4031SOL    HW215890   4.814   1.258   3.456  0.2240 -1.1975 -0.2348
 4031SOL    HW315891   4.933   1.277   3.547 -0.4704 -0.1633  0.4891
 4031SOL    MW415892   4.848   1.285   3.531 -0.2929  0.0264 -0.4256
 4032SOL     OW15893   1.592   5.570   5.405 -0.1077 -0.0470 -0.4896
 4032SOL    HW215894   1.508   5.523   5.398  0.0884 -0.4321 -0.3022
 4032SOL    HW315895   1.574   5.640   5.468 -0.3532  0.0099 -0.6210
 4032SOL    MW415896   1.578   5.573   5.413 -0.1142 -0.0903 -0.4822
 4033SOL     OW15897   5.614   1.906   4.642 -0.4952 -0.0067 -0.2617
 4033SOL    HW215898   5.702   1.938   4.665 -0.7579  0.5516 -0.0268
 4033SOL    HW315899   5.590   1.957   4.565  0.4444 -1.9688 -1.9474
 4033SOL    MW415900   5.623   1.917   4.635 -0.4059 -0.1919 -0.4531
 4034SOL     OW15901   0.333   3.154   1.597 -0.2778  0.4139  0.0414
 4034SOL    HW215902   0.301   3.169   1.508 -0.4999  1.2657  0.2490
 4034SOL    HW315903   0.267   3.194   1.653 -0.1522 -0.1450  0.5915
 4034SOL    MW415904   0.320   3.162   1.592 -0.2905  0.4525  0.1414
 4035SOL     OW15905   4.063   0.652   1.630  0.2398  0.3260  0.6368
 4035SOL    HW215906   4.106   0.732   1.600 -1.0944  0.4704 -1.0085
 4035SOL    HW315907   3.994   0.683   1.689  1.2121  0.2022  1.8812
 4035SOL    MW415908   4.060   0.667   1.634  0.1921  0.3287  0.5839
 4036SOL     OW15909   5.702   1.803   5.917 -0.1908  0.1114  0.0304
 4036SOL    HW215910   5.748   1.722   5.896 -0.2610  0.1058 -0.0999
 4036SOL    HW315911   5.637   1.813   5.848  0.4050  0.7432 -0.4638
 4036SOL    MW415912   5.700   1.794   5.906 -0.1214  0.1941 -0.0520
 4037SOL     OW15913   3.352   2.365   5.343  0.3903  0.0643  0.3136
 4037SOL    HW215914   3.262   2.358   5.313  1.1701 -2.3890 -1.8582
 4037SOL    HW315915   3.348   2.346   5.436 -1.3230  0.0336  0.2622
 4037SOL    MW415916   3.340   2.361   5.351  0.2671 -0.2634  0.0203
 4038SOL     OW15917   6.159   0.242   4.892 -0.6412 -0.0244  0.1207
 4038SOL    HW215918   6.184   0.207   4.807 -1.2503 -0.8961  0.2835
 4038SOL    HW315919   6.101   0.316   4.872 -1.5274 -0.7936 -0.2297
 4038SOL    MW415920   6.155   0.247   4.878 -0.8384 -0.2409  0.0959
 4039SOL     OW15921   2.917   3.271   2.289  0.1552  0.2612  0.5403
 4039SOL    HW215922   2.857   3.268   2.214 -1.4055 -0.0822  1.7394
 4039SOL    HW315923   2.866   3.233   2.361  1.6298  0.5275  1.7659
 4039SOL    MW415924   2.902   3.265   2.288  0.1439  0.2510  0.8602
 4040SOL     OW15925   4.963   1.440   5.577 -0.3588 -0.4158 -0.0051
 4040SOL    HW215926   4.921   1.526   5.575 -0.0044 -0.2377  0.1680
 4040SOL    HW315927   5.005   1.436   5.663 -1.2905 -1.1997  0.4378
 4040SOL    MW415928   4.963   1.451   5.588 -0.4349 -0.4958  0.0762
 4041SOL     OW15929   3.316   1.076   2.706  0.3470  0.1917 -0.2184
 4041SOL    HW215930   3.353   1.164   2.712  0.6882  0.0388 -0.0318
 4041SOL    HW315931   3.371   1.030   2.643  1.8200 -0.6747  1.5970
 4041SOL    MW415932   3.328   1.081   2.699  0.5863  0.0572  0.0458
 4042SOL     OW15933   2.235   4.343   2.150  0.1322 -0.1284 -0.1695
 4042SOL    HW215934   2.257   4.433   2.172 -2.9363  0.9188 -0.8946
 4042SOL    HW315935   2.198   4.306   2.231 -1.2588  0.2569 -0.5959
 4042SOL    MW415936   2.233   4.350   2.164 -0.4562  0.0606 -0.3214
 4043SOL     OW15937   6.057   4.343   0.032 -0.1664 -0.6910 -0.2562
 4043SOL    HW215938   5.963   4.350   0.016 -0.6444 -0.5000  2.2109
 4043SOL    HW315939   6.071   4.390   0.114  1.4920 -3.4037  1.1841
 4043SOL    MW415940   6.047   4.350   0.041 -0.0107 -1.0237  0.2593
 4044SOL     OW15941   1.394   2.530   0.887 -0.2820 -0.1962  0.1879
 4044SOL    HW215942   1.351   2.511   0.971 -0.4343  0.1983  0.1992
 4044SOL    HW315943   1.439   2.613   0.902  0.4236 -0.5641  0.1539
 4044SOL    MW415944   1.394   2.539   0.900 -0.2090 -0.1927  0.1849
 4045SOL     OW15945   1.960   6.093   0.775 -0.1648 -0.2177 -0.2584
 4045SOL    HW215946   1.954   6.167   0.715 -1.1802 -0.2364 -0.1998
 4045SOL    HW315947   2.037   6.045   0.746  0.0113  0.3939 -0.8306
 4045SOL    MW415948   1.969   6.096   0.764 -0.2755 -0.1394 -0.3261
 4046SOL     OW15949   1.082   4.099   2.554  0.5485  0.0693  0.0043
 4046SOL    HW215950   1.112   4.051   2.476  0.8903  0.3018 -0.0063
 4046SOL    HW315951   1.108   4.189   2.539 -1.1764  0.5142 -0.5357
 4046SOL    MW415952   1.089   4.104   2.542  0.3661  0.1586 -0.0683
 4047SOL     OW15953   4.843   3.413   1.525  0.1358 -0.2176  0.2905
 4047SOL    HW215954   4.765   3.359   1.522 -0.2434  0.3260  0.2882
 4047SOL    HW315955   4.914   3.352   1.543 -0.2802 -0.7209  0.2261
 4047SOL    MW415956   4.842   3.398   1.527  0.0309 -0.2123  0.2817
 4048SOL     OW15957   0.520   3.582   4.954 -0.3324 -0.0559  0.3383
 4048SOL    HW215958   0.576   3.524   4.902  1.7595  2.1483 -0.0136
 4048SOL    HW315959   0.434   3.542   4.949  0.7111 -2.3497 -1.0649
 4048SOL    MW415960   0.516   3.569   4.947  0.0813 -0.0677  0.1067
 4049SOL     OW15961   1.632   3.673   4.737  0.0264  0.5055  0.4648
 4049SOL    HW215962   1.616   3.685   4.831 -0.2207  0.0067  0.4907
 4049SOL    HW315963   1.550   3.637   4.703 -0.1401  1.3770 -0.0829
 4049SOL    MW415964   1.619   3.670   4.745 -0.0282  0.5547  0.3960
 4050SOL     OW15965   0.609   0.519   1.434 -0.0089 -0.0821  0.2492
 4050SOL    HW215966   0.541   0.580   1.405 -0.4059  0.0835  1.4490
 4050SOL    HW315967   0.652   0.490   1.354 -0.9175  0.4923 -0.4621
 4050SOL    MW415968   0.606   0.523   1.420 -0.1812  0.0156  0.3136
 4051SOL     OW15969   4.322   0.837   1.306  0.5187 -0.7371 -0.4178
 4051SOL    HW215970   4.410   0.872   1.321  0.5066 -0.8087 -0.1762
 4051SOL    HW315971   4.268   0.878   1.374  0.1668  0.0493 -1.1500
 4051SOL    MW415972   4.326   0.847   1.317  0.4706 -0.6428 -0.4825
 4052SOL     OW15973   0.607   0.333   0.348 -0.3736  0.2429  0.2689
 4052SOL    HW215974   0.677   0.391   0.379 -1.3141  1.5723 -0.0068
 4052SOL    HW315975   0.607   0.345   0.253 -0.9688  0.2481  0.2662
 4052SOL    MW415976   0.617   0.342   0.339 -0.5762  0.4190  0.2322
 4053SOL     OW15977   0.124   6.022   4.136 -0.1397  0.0946  0.1953
 4053SOL    HW215978   0.083   6.009   4.050  0.1955 -0.8466  0.1608
 4053SOL    HW315979   0.059   5.990   4.199 -0.6576  1.4083  0.3508
 4053SOL    MW415980   0.110   6.016   4.133 -0.1638  0.1438  0.2113
 4054SOL     OW15981   6.317   1.474   4.620 -0.0210 -0.6595 -0.0346
 4054SOL    HW215982   6.382   1.447   4.684 -0.0361  1.2439  0.8493
 4054SOL    HW315983   6.238   1.492   4.671 -1.5869 -3.6277 -1.1533
 4054SOL    MW415984   6.315   1.473   4.635 -0.2296 -0.8000 -0.0656
 4055SOL     OW15985   4.443   5.802   2.777 -0.7679 -0.7305  0.2817
 4055SOL    HW215986   4.381   5.835   2.842 -1.0563 -0.7907  0.0398
 4055SOL    HW315987   4.389   5.780   2.701 -0.3031  0.4452 -0.4163
 4055SOL    MW415988   4.428   5.803   2.776 -0.7447 -0.5833  0.1577
 4056SOL     OW15989   2.593   5.870   4.800 -0.1217  0.2012 -0.2260
 4056SOL    HW215990   2.629   5.871   4.712  0.7002  1.4721  0.1038
 4056SOL    HW315991   2.634   5.945   4.844 -0.1704 -0.6680  1.3682
 4056SOL    MW415992   2.603   5.880   4.794 -0.0197  0.2542  0.0279
 4057SOL     OW15993   5.404   0.102   2.919 -0.0233  0.0852  0.2890
 4057SOL    HW215994   5.498   0.105   2.900 -0.0945 -1.0892 -0.3533
 4057SOL    HW315995   5.363   0.083   2.834 -0.7758 -0.2291  0.7129
 4057SOL    MW415996   5.411   0.100   2.905 -0.1320 -0.1112  0.2602
 4058SOL     OW15997   3.251   3.902   2.813  0.1748 -0.2859  0.0466
 4058SOL    HW215998   3.162   3.924   2.785 -0.2105 -0.6353  0.9544
 4058SOL    HW315999   3.284   3.844   2.744 -0.2313 -0.0184 -0.3829
 4058SOL    MW416000   3.243   3.898   2.800  0.0704 -0.2967  0.1097
 4059SOL     OW16001   6.148   2.944   1.859  0.2726 -0.2529 -0.2178
 4059SOL    HW216002   6.094   3.005   1.809  3.4297  1.5008 -1.8255
 4059SOL    HW316003   6.142   2.976   1.949 -2.0701 -0.7703 -0.1271
 4059SOL    MW416004   6.140   2.957   1.864  0.3801 -0.0898 -0.4180
 4060SOL     OW16005   4.485   2.590   3.085  0.0324 -0.3639  0.4160
 4060SOL    HW216006   4.509   2.514   3.137  0.9374 -0.4622 -0.1304
 4060SOL    HW316007   4.566   2.641   3.076 -0.4209  0.3572  0.2699
 4060SOL    MW416008   4.499   2.587   3.091  0.0920 -0.2818  0.3246
 4061SOL     OW16009   4.251   0.149   3.403  0.2881  0.3374  0.4943
 4061SOL    HW216010   4.225   0.072   3.452 -0.5430 -0.1296 -0.6286
 4061SOL    HW316011   4.337   0.173   3.438 -0.0413 -0.2892  1.7657
 4061SOL    MW416012   4.259   0.142   3.414  0.1350  0.1931  0.5139
 4062SOL     OW16013   4.667   1.144   4.931 -0.1007 -0.0764 -0.0927
 4062SOL    HW216014   4.716   1.086   4.989  0.2921  1.2782  0.9781
 4062SOL    HW316015   4.686   1.111   4.843  1.4354 -0.5634  0.3908
 4062SOL    MW416016   4.676   1.132   4.927  0.1538  0.0381  0.1124
 4063SOL     OW16017   5.576   0.231   4.793  0.5724  0.0573 -0.0994
 4063SOL    HW216018   5.541   0.300   4.737 -1.7221  0.1808  1.3224
 4063SOL    HW316019   5.632   0.179   4.736 -1.0644  0.5874 -2.3043
 4063SOL    MW416020   5.579   0.233   4.778  0.0537  0.1435 -0.2027
 4064SOL     OW16021   1.874   1.530   2.605 -0.1714  0.6056 -0.1388
 4064SOL    HW216022   1.864   1.462   2.538  0.4780  0.2765  0.0855
 4064SOL    HW316023   1.828   1.495   2.682  3.3556 -1.4641  1.2924
 4064SOL    MW416024   1.867   1.516   2.606  0.3796  0.2891  0.0796
 4065SOL     OW16025   3.389   0.518   4.418 -0.0618  0.0104 -0.1867
 4065SOL    HW216026   3.390   0.606   4.381  0.1299 -0.3632 -1.1037
 4065SOL    HW316027   3.330   0.469   4.362 -1.5675 -0.0348  1.3610
 4065SOL    MW416028   3.382   0.523   4.406 -0.2352 -0.0448 -0.1035
 4066SOL     OW16029   1.134   6.036   4.941  0.3182  0.3182 -0.3369
 4066SOL    HW216030   1.089   6.002   5.019  2.0274 -1.6069 -0.0751
 4066SOL    HW316031   1.141   5.960   4.883 -0.7322  1.6805 -2.3201
 4066SOL    MW416032   1.129   6.021   4.944  0.4051  0.2440 -0.5640
 4067SOL     OW16033   2.225   1.416   3.959 -0.2866  0.1295  0.1333
 4067SOL    HW216034   2.214   1.487   4.023  2.2413 -1.2799  2.3372
 4067SOL    HW316035   2.145   1.363   3.969 -0.4026  0.5065  1.3971
 4067SOL    MW416036   2.213   1.419   3.969  0.0316 -0.0067  0.5908
 4068SOL     OW16037   4.823   1.225   5.490  0.0698  0.1989  0.4095
 4068SOL    HW216038   4.900   1.173   5.466 -0.2282  0.6048 -1.6326
 4068SOL    HW316039   4.860   1.308   5.521  0.4807 -0.0568  0.6208
 4068SOL    MW416040   4.838   1.229   5.491  0.0847  0.2187  0.1679
 4069SOL     OW16041   1.357   3.808   2.982 -0.3767 -0.4656  0.8132
 4069SOL    HW216042   1.376   3.899   2.960 -1.3773 -0.2530  0.7459
 4069SOL    HW316043   1.425   3.783   3.045  0.9902 -0.2689 -0.5460
 4069SOL    MW416044   1.368   3.817   2.988 -0.3283 -0.4116  0.6250
 4070SOL     OW16045   1.368   0.600   1.977 -0.0304  0.3890  0.2313
 4070SOL    HW216046   1.462   0.599   1.995 -0.0279  0.1218  0.1983
 4070SOL    HW316047   1.346   0.509   1.958 -0.5405  0.2458  1.4545
 4070SOL    MW416048   1.378   0.588   1.977 -0.0974  0.3349  0.3884
 4071SOL     OW16049   1.031   2.994   4.377  0.1119 -0.0504 -0.2409
 4071SOL    HW216050   1.079   2.915   4.353 -0.0834 -0.1095 -0.4409
 4071SOL    HW316051   1.066   3.062   4.319  0.9499  0.2278  0.5752
 4071SOL    MW416052   1.042   2.992   4.366  0.1967 -0.0215 -0.1596
 4072SOL     OW16053   4.340   3.572   1.966  0.8222 -0.4187  0.3152
 4072SOL    HW216054   4.251   3.595   1.992  1.6081  0.5408  2.3242
 4072SOL    HW316055   4.372   3.649   1.919  1.3075  0.1538  1.5363
 4072SOL    MW416056   4.333   3.585   1.963  0.9899 -0.2166  0.7413
 4073SOL     OW16057   6.358   0.706   1.904 -0.7146 -0.0622  0.0444
 4073SOL    HW216058   6.302   0.758   1.846 -0.6979 -0.7802 -0.6254
 4073SOL    HW316059   6.336   0.615   1.885  0.3734 -0.3530  0.0799
 4073SOL    MW416060   6.348   0.701   1.894 -0.5689 -0.1953 -0.0393
 4074SOL     OW16061   5.500   4.418   3.251 -0.3210  0.7157 -0.4642
 4074SOL    HW216062   5.466   4.460   3.330  1.5938  2.1346 -0.3188
 4074SOL    HW316063   5.485   4.482   3.182 -1.1793 -0.1502 -1.0949
 4074SOL    MW416064   5.493   4.432   3.252 -0.1816  0.7887 -0.5282
 4075SOL     OW16065   0.493   1.577   1.964 -0.2150  0.2279  0.2348
 4075SOL    HW216066   0.472   1.489   1.994 -1.4409  0.2723 -0.4396
 4075SOL    HW316067   0.588   1.585   1.978  0.0693 -1.4823 -0.4844
 4075SOL    MW416068   0.503   1.567   1.970 -0.3392  0.0081  0.0510
 4076SOL     OW16069   3.410   3.407   0.419  0.0958  0.9874  0.3907
 4076SOL    HW216070   3.345   3.338   0.434  0.7972  0.3675  0.6451
 4076SOL    HW316071   3.364   3.472   0.366 -0.7389  0.5732  0.5882
 4076SOL    MW416072   3.396   3.407   0.414  0.0782  0.8509  0.4503
 4077SOL     OW16073   1.949   5.100   2.464  0.0578  0.1800  0.1421
 4077SOL    HW216074   1.887   5.168   2.436 -0.2239 -0.3109 -0.4534
 4077SOL    HW316075   1.895   5.034   2.507  0.4941  0.9581  1.9854
 4077SOL    MW416076   1.934   5.100   2.466  0.0782  0.2179  0.3067
 4078SOL     OW16077   6.332   5.278   2.899  0.2894 -0.2711  0.6592
 4078SOL    HW216078   6.292   5.192   2.907  0.8902 -0.4826  1.6370
 4078SOL    HW316079   6.403   5.277   2.964  0.9285  0.6049  0.0015
 4078SOL    MW416080   6.336   5.266   2.908  0.4530 -0.1834  0.7014
 4079SOL     OW16081   2.362   0.389   0.836 -0.2268  0.6935  0.1260
 4079SOL    HW216082   2.364   0.315   0.776 -0.4629  1.7390 -1.2320
 4079SOL    HW316083   2.437   0.443   0.811 -0.5754  1.3647  0.4752
 4079SOL    MW416084   2.372   0.387   0.825 -0.3039  0.9200 -0.0071
 4080SOL     OW16085   4.536   6.006   0.841  0.2418 -0.4209 -0.0678
 4080SOL    HW216086   4.559   5.918   0.873  2.0475  0.9782  2.9306
 4080SOL    HW316087   4.452   6.024   0.882  1.2116  0.2519  1.7628
 4080SOL    MW416088   4.528   5.997   0.851  0.6080 -0.1475  0.5693
 4081SOL     OW16089   0.905   5.314   2.770  0.0907 -0.1948  0.0562
 4081SOL    HW216090   0.823   5.301   2.817 -0.2401 -2.0534 -0.9335
 4081SOL    HW316091   0.883   5.297   2.678  1.5942 -0.9086 -0.2010
 4081SOL    MW416092   0.891   5.310   2.764  0.2454 -0.5342 -0.1083
 4082SOL     OW16093   3.858   5.025   2.795 -0.5343  0.0119 -0.8306
 4082SOL    HW216094   3.876   5.021   2.889 -0.6720 -0.6609 -0.8258
 4082SOL    HW316095   3.799   4.951   2.779  1.4681 -1.4819 -1.8487
 4082SOL    MW416096   3.853   5.014   2.806 -0.2883 -0.2739 -0.9643
 4083SOL     OW16097   2.027   1.608   0.895  0.8800  0.8708  0.2117
 4083SOL    HW216098   2.026   1.529   0.841  0.6542  1.1831 -0.2501
 4083SOL    HW316099   2.009   1.578   0.984  0.2473  0.4748 -0.0515
 4083SOL    MW416100   2.025   1.594   0.899  0.7667  0.8598  0.1161
 4084SOL     OW16101   5.606   6.137   3.864 -0.6151 -0.3166  0.3691
 4084SOL    HW216102   5.554   6.141   3.783 -1.5988  1.1577  1.0290
 4084SOL    HW316103   5.567   6.066   3.914 -2.1819  0.8979  0.9399
 4084SOL    MW416104   5.594   6.128   3.860 -0.9516  0.0381  0.5315
 4085SOL     OW16105   5.976   5.980   0.012  0.2171  0.1382 -0.6088
 4085SOL    HW216106   5.988   5.885   0.016  1.9904  0.3581  0.0803
 4085SOL    HW316107   5.933   6.001   0.095 -2.6881 -0.3193 -1.8834
 4085SOL    MW416108   5.972   5.970   0.023  0.0677  0.1068 -0.6861
 4086SOL     OW16109   1.093   3.947   5.067  0.3843  0.0178  0.3107
 4086SOL    HW216110   1.060   3.976   5.152  2.7738  2.0730  0.6513
 4086SOL    HW316111   1.177   3.906   5.087  0.5214 -0.3628 -0.9750
 4086SOL    MW416112   1.100   3.945   5.081  0.7176  0.2388  0.1860
 4087SOL     OW16113   4.435   1.530   1.998  0.4319 -0.8250  0.0565
 4087SOL    HW216114   4.398   1.615   1.973 -1.3627 -1.4407  0.4389
 4087SOL    HW316115   4.503   1.552   2.062  0.0455  0.3355  0.1009
 4087SOL    MW416116   4.439   1.544   2.003  0.1441 -0.7531  0.1128
 4088SOL     OW16117   2.652   0.978   4.228  0.2223  0.6059 -0.4406
 4088SOL    HW216118   2.580   0.989   4.290  1.0576  0.1914  0.6445
 4088SOL    HW316119   2.659   1.062   4.183 -1.6067  0.3183 -1.3312
 4088SOL    MW416120   2.644   0.990   4.230  0.0912  0.5133 -0.4150
 4089SOL     OW16121   3.986   5.089   5.397 -0.7656  0.1077  0.0789
 4089SOL    HW216122   3.925   5.021   5.423  0.0335 -0.5690  0.2283
 4089SOL    HW316123   4.063   5.076   5.453  0.1301 -0.0319 -1.1280
 4089SOL    MW416124   3.988   5.078   5.408 -0.5420 -0.0000 -0.0607
 4090SOL     OW16125   1.516   5.148   0.893 -0.2088  0.4351 -0.9832
 4090SOL    HW216126   1.452   5.093   0.848  0.6408 -1.4657 -0.0097
 4090SOL    HW316127   1.589   5.089   0.914  0.0729  1.5229  1.5500
 4090SOL    MW416128   1.517   5.133   0.890 -0.0595  0.3279 -0.5205
 4091SOL     OW16129   5.997   1.671   1.280 -0.4264 -0.3355 -0.0860
 4091SOL    HW216130   6.019   1.637   1.367  0.1808  3.1265  1.2697
 4091SOL    HW316131   6.080   1.668   1.232 -0.0015  0.6287  0.5602
 4091SOL    MW416132   6.011   1.666   1.285 -0.2903  0.2484  0.1781
 4092SOL     OW16133   6.069   2.960   2.730  0.3593  0.8584 -0.4352
 4092SOL    HW216134   5.978   2.938   2.708  0.9856 -0.5434 -1.8754
 4092SOL    HW316135   6.065   3.049   2.763 -1.7444  0.2771  1.1230
 4092SOL    MW416136   6.057   2.969   2.731  0.1643  0.5968 -0.4196
 4093SOL     OW16137   5.862   2.834   2.954  0.7385 -0.1776 -0.5162
 4093SOL    HW216138   5.823   2.921   2.942  0.3088 -0.3068 -0.0534
 4093SOL    HW316139   5.790   2.779   2.986  1.3469 -0.3663  0.5669
 4093SOL    MW416140   5.847   2.838   2.956  0.7621 -0.2196 -0.3122
 4094SOL     OW16141   0.153   3.707   5.821  0.4301 -0.5022  0.1266
 4094SOL    HW216142   0.110   3.785   5.786  1.6702 -0.3694 -1.2179
 4094SOL    HW316143   0.209   3.676   5.750  2.7449 -0.5156  1.8122
 4094SOL    MW416144   0.155   3.713   5.807  0.8991 -0.4865  0.1716
 4095SOL     OW16145   2.782   4.685   0.256  0.0134 -0.2325 -0.0310
 4095SOL    HW216146   2.865   4.727   0.276 -1.1145  3.1453 -1.6750
 4095SOL    HW316147   2.716   4.751   0.275 -2.0695 -1.6809 -1.6815
 4095SOL    MW416148   2.784   4.699   0.261 -0.4102  0.0220 -0.4657
 4096SOL     OW16149   3.814   2.980   0.026  0.1930 -0.5037  0.0673
 4096SOL    HW216150   3.728   2.939   0.021 -1.3386  2.1401  1.9363
 4096SOL    HW316151   3.832   3.010  -0.063 -1.0063 -0.7402 -0.2761
 4096SOL    MW416152   3.805   2.978   0.014 -0.1673 -0.1861  0.2686
 4097SOL     OW16153   1.954   0.013   5.793  0.0401  0.4343 -0.2187
 4097SOL    HW216154   2.031  -0.005   5.739  0.9668 -1.1161  1.5072
 4097SOL    HW316155   1.900  -0.066   5.785 -0.8541  1.0543 -0.5155
 4097SOL    MW416156   1.957  -0.000   5.785  0.0444  0.3116 -0.0301
 4098SOL     OW16157   0.174   5.992   0.501 -0.1813 -0.7564  0.0971
 4098SOL    HW216158   0.121   6.020   0.426  1.8662 -1.2671 -1.6407
 4098SOL    HW316159   0.153   5.899   0.511  0.4795 -1.0155 -0.7366
 4098SOL    MW416160   0.164   5.983   0.492  0.1760 -0.8580 -0.2422
 4099SOL     OW16161   0.083   4.327   0.218  0.7116  0.4202  0.0075
 4099SOL    HW216162   0.168   4.303   0.182  0.7968  0.8464 -0.0777
 4099SOL    HW316163   0.026   4.339   0.141  0.5592  0.0921  0.0650
 4099SOL    MW416164   0.086   4.326   0.203  0.7027  0.4331  0.0039
 4100SOL     OW16165   5.382   5.422   0.997 -0.3287  0.2939 -0.0095
 4100SOL    HW216166   5.441   5.365   1.047 -1.1659 -0.3975  0.2083
 4100SOL    HW316167   5.361   5.372   0.918 -0.5373  0.5783 -0.1372
 4100SOL    MW416168   5.387   5.408   0.993 -0.4667  0.2402  0.0024
 4101SOL     OW16169   5.595   1.035   0.406  0.0257  0.4620 -0.5228
 4101SOL    HW216170   5.521   1.074   0.451  0.4365  1.4316 -0.6639
 4101SOL    HW316171   5.558   0.959   0.360 -1.2181  1.7945 -1.8501
 4101SOL    MW416172   5.580   1.030   0.406 -0.0842  0.7657 -0.7165
 4102SOL     OW16173   2.699   1.237   4.141  0.2661  0.0376  0.5147
 4102SOL    HW216174   2.708   1.286   4.223  0.0692  1.3874 -0.2349
 4102SOL    HW316175   2.643   1.292   4.086  0.3209 -0.8790 -0.5039
 4102SOL    MW416176   2.692   1.251   4.145  0.2474  0.0948  0.2814
 4103SOL     OW16177   3.455   0.678   6.056  0.3531  0.0654  0.0039
 4103SOL    HW216178   3.423   0.591   6.080 -2.2525  1.1036  0.7101
 4103SOL    HW316179   3.530   0.693   6.112  1.7032 -2.2040 -1.0677
 4103SOL    MW416180   3.460   0.668   6.067  0.1874 -0.0971 -0.0443
 4104SOL     OW16181   5.748   3.233   0.611  0.1454  0.2908  0.5431
 4104SOL    HW216182   5.713   3.145   0.596  1.6903 -0.1247 -0.8549
 4104SOL    HW316183   5.817   3.243   0.546 -0.1601  2.6599  0.5143
 4104SOL    MW416184   5.753   3.222   0.601  0.3089  0.5485  0.3548
 4105SOL     OW16185   5.108   0.649   2.822  0.2093 -0.1078  0.2078
 4105SOL    HW216186   5.138   0.687   2.905  1.2782 -0.6418  0.0809
 4105SOL    HW316187   5.019   0.619   2.840  0.1719  0.4204  0.9555
 4105SOL    MW416188   5.100   0.650   2.835  0.3454 -0.1086  0.2897
 4106SOL     OW16189   1.414   6.117   3.777  0.2437  0.6358 -0.1393
 4106SOL    HW216190   1.480   6.074   3.831  0.6070  1.9383  0.4990
 4106SOL    HW316191   1.330   6.083   3.808  0.3122  2.5758  2.4746
 4106SOL    MW416192   1.412   6.107   3.788  0.3006  1.0636  0.2898
 4107SOL     OW16193   5.022   3.459   0.354  0.5922  0.2993 -0.0127
 4107SOL    HW216194   5.027   3.366   0.332  1.5333 -0.1604  1.8889
 4107SOL    HW316195   4.929   3.474   0.373  0.8375 -1.2591  3.1863
 4107SOL    MW416196   5.010   3.449   0.354  0.7487  0.0331  0.6603
 4108SOL     OW16197   3.825   5.033   4.052 -0.0709  0.1202  0.2056
 4108SOL    HW216198   3.806   5.090   3.978  1.0135  0.6201  0.3013
 4108SOL    HW316199   3.917   5.048   4.072 -0.1722 -0.4948  1.2394
 4108SOL    MW416200   3.834   5.042   4.045  0.0588  0.1050  0.3546
 4109SOL     OW16201   5.762   2.213   3.257 -0.2166 -0.0665 -0.7987
 4109SOL    HW216202   5.808   2.292   3.227  1.5244 -0.1121  1.5074
 4109SOL    HW316203   5.784   2.146   3.192  1.8611  0.2951 -0.5355
 4109SOL    MW416204   5.771   2.215   3.244  0.2872 -0.0248 -0.4597
 4110SOL     OW16205   2.002   2.542   1.249 -0.0008  0.2342  0.6143
 4110SOL    HW216206   2.024   2.516   1.338  2.0748 -0.1627  0.0361
 4110SOL    HW316207   1.936   2.479   1.221  2.1099 -2.0835  0.5904
 4110SOL    MW416208   1.996   2.530   1.257  0.5515 -0.1240  0.5349
 4111SOL     OW16209   1.923   2.639   5.307  0.6154 -0.5815  0.4377
 4111SOL    HW216210   1.976   2.564   5.332  3.3603  0.9069 -0.4601
 4111SOL    HW316211   1.908   2.686   5.389 -0.1703 -1.5224  0.8418
 4111SOL    MW416212   1.928   2.636   5.321  0.8739 -0.5093  0.3725
 4112SOL     OW16213   5.496   2.997   1.777 -0.4592 -0.4202  0.2956
 4112SOL    HW216214   5.512   3.073   1.833 -0.4913  0.0406 -0.3085
 4112SOL    HW316215   5.508   3.030   1.688 -2.6044 -0.5818 -0.0972
 4112SOL    MW416216   5.500   3.011   1.772 -0.7465 -0.3807  0.1641
 4113SOL     OW16217   5.270   3.836   1.855  0.2871  0.2722 -0.3400
 4113SOL    HW216218   5.228   3.823   1.940 -2.8707 -3.0891 -2.1205
 4113SOL    HW316219   5.218   3.905   1.813  1.0957  1.0950 -0.0107
 4113SOL    MW416220   5.257   3.843   1.861 -0.0228 -0.0627 -0.5315
 4114SOL     OW16221   2.047   4.835   3.108  0.3686 -0.0029 -0.5289
 4114SOL    HW216222   2.042   4.903   3.041  0.0866  1.3707  0.8319
 4114SOL    HW316223   1.981   4.860   3.172  1.6053 -0.4689  0.9694
 4114SOL    MW416224   2.038   4.847   3.107  0.4945  0.1168 -0.1517
 4115SOL     OW16225   3.008   1.608   2.583 -0.0758 -0.3184  0.1937
 4115SOL    HW216226   2.923   1.567   2.595 -0.1099  0.0390  1.2989
 4115SOL    HW316227   3.071   1.541   2.611  0.0066 -0.5277 -0.4751
 4115SOL    MW416228   3.005   1.594   2.588 -0.0694 -0.2989  0.2513
 4116SOL     OW16229   5.732   3.159   0.037  0.2020  0.6690  0.1744
 4116SOL    HW216230   5.774   3.073   0.033  1.6120  1.3552 -0.3402
 4116SOL    HW316231   5.746   3.188   0.128  3.2493  1.9929 -0.5976
 4116SOL    MW416232   5.739   3.152   0.049  0.7901  0.9342  0.0047
 4117SOL     OW16233   3.698   3.848   4.400 -0.0666  0.2822  0.0175
 4117SOL    HW216234   3.608   3.816   4.409 -1.0773  2.2135 -2.2345
 4117SOL    HW316235   3.740   3.823   4.483 -2.4803 -1.1597  0.9271
 4117SOL    MW416236   3.692   3.840   4.412 -0.5184  0.3467 -0.1596
 4118SOL     OW16237   5.917   0.915   4.017  0.4516  0.0603 -0.5812
 4118SOL    HW216238   5.975   0.906   4.092 -0.3361 -1.6369 -0.1330
 4118SOL    HW316239   5.828   0.915   4.054  0.0633 -0.5072 -1.4728
 4118SOL    MW416240   5.913   0.914   4.031  0.2964 -0.2385 -0.6397
 4119SOL     OW16241   4.107   2.373   3.822 -0.0780  0.3414 -0.4498
 4119SOL    HW216242   4.022   2.416   3.831 -0.0130  0.4720 -0.4444
 4119SOL    HW316243   4.156   2.430   3.762 -0.4695 -0.4742 -1.5648
 4119SOL    MW416244   4.103   2.386   3.815 -0.1211  0.2510 -0.5962
 4120SOL     OW16245   3.390   5.116   1.461 -0.4335 -0.2914 -0.1874
 4120SOL    HW216246   3.416   5.207   1.446 -0.2851 -0.3965 -0.5648
 4120SOL    HW316247   3.458   5.082   1.519 -0.9745  0.0940  0.6959
 4120SOL    MW416248   3.402   5.124   1.467 -0.4853 -0.2544 -0.1206
 4121SOL     OW16249   1.929   2.990   4.142  0.1914 -0.4315  0.2749
 4121SOL    HW216250   1.928   3.054   4.072 -0.8600 -0.5386  0.1842
 4121SOL    HW316251   2.022   2.979   4.163  0.5701 -0.7539 -1.4132
 4121SOL    MW416252   1.941   2.997   4.136  0.1027 -0.4882  0.0402
 4122SOL     OW16253   0.640   5.370   6.261  0.4264 -0.3728  0.3661
 4122SOL    HW216254   0.720   5.326   6.291 -1.1162 -3.1663  0.8228
 4122SOL    HW316255   0.604   5.411   6.340  0.6744 -0.3833  0.4842
 4122SOL    MW416256   0.645   5.369   6.276  0.2556 -0.7428  0.4420
 4123SOL     OW16257   1.111   3.238   1.966  0.1859  0.0395  0.0008
 4123SOL    HW216258   1.182   3.177   1.950 -0.1220 -0.4524  0.4739
 4123SOL    HW316259   1.154   3.321   1.984  0.5899  0.1731 -1.4186
 4123SOL    MW416260   1.126   3.241   1.966  0.1985 -0.0078 -0.1240
 4124SOL     OW16261   4.680   6.229   0.985  0.1994 -0.1787  0.4757
 4124SOL    HW216262   4.657   6.305   0.932  1.0755 -0.2331  0.0178
 4124SOL    HW316263   4.627   6.158   0.949  1.6816 -0.5125 -1.1782
 4124SOL    MW416264   4.670   6.229   0.973  0.5105 -0.2300  0.1971
 4125SOL     OW16265   0.074   3.733   5.069  0.3574  0.1922 -0.1012
 4125SOL    HW216266   0.036   3.699   5.150  1.7183  0.8071  0.8291
 4125SOL    HW316267   0.102   3.822   5.091  0.4226  0.5051 -1.3585
 4125SOL    MW416268   0.073   3.740   5.082  0.5456  0.3146 -0.1443
 4126SOL     OW16269   4.280   3.208   0.694 -0.0499 -0.1443  0.2432
 4126SOL    HW216270   4.351   3.271   0.678 -0.5525 -0.1414 -2.5477
 4126SOL    HW316271   4.269   3.208   0.789  3.8448 -0.3295  0.8856
 4126SOL    MW416272   4.288   3.216   0.704  0.3976 -0.1684 -0.0403
 4127SOL     OW16273   5.141   6.314   3.437  0.6574  0.0235 -0.4201
 4127SOL    HW216274   5.071   6.272   3.486  0.2929 -0.3798 -1.2587
 4127SOL    HW316275   5.211   6.327   3.501 -0.3305  0.8187  0.5339
 4127SOL    MW416276   5.141   6.310   3.452  0.4790  0.0752 -0.4048
 4128SOL     OW16277   3.365   1.640   5.024  0.2517 -0.0095  0.5214
 4128SOL    HW216278   3.368   1.637   5.120 -0.7761 -0.2118  0.5605
 4128SOL    HW316279   3.403   1.725   5.001 -2.5893  1.6375  1.3180
 4128SOL    MW416280   3.370   1.651   5.034 -0.2587  0.1811  0.6316
 4129SOL     OW16281   5.899   0.958   5.086  0.0882  0.1431 -0.0032
 4129SOL    HW216282   5.923   0.966   5.178  1.2472  1.6959 -0.4056
 4129SOL    HW316283   5.913   0.866   5.065  2.0616  0.2303  0.7808
 4129SOL    MW416284   5.904   0.947   5.095  0.5015  0.3594  0.0472
 4130SOL     OW16285   5.973   3.485   4.185  0.0723 -0.7703  0.3419
 4130SOL    HW216286   5.934   3.410   4.229  1.8901 -1.9399  0.0649
 4130SOL    HW316287   6.067   3.477   4.202  0.3416  1.3784  0.1954
 4130SOL    MW416288   5.980   3.474   4.193  0.3476 -0.6411  0.2860
 4131SOL     OW16289   6.264   6.415   2.393  0.0534  0.4517  0.6507
 4131SOL    HW216290   6.252   6.383   2.303 -3.6442 -0.1480  1.1979
 4131SOL    HW316291   6.249   6.509   2.387 -1.1016  0.2873  0.7136
 4131SOL    MW416292   6.260   6.423   2.380 -0.5869  0.3509  0.7312
 4132SOL     OW16293   0.001   5.015   1.538  0.2427  0.1583  0.0394
 4132SOL    HW216294  -0.018   5.043   1.627 -0.7573  0.8922 -0.3866
 4132SOL    HW316295   0.076   5.067   1.511 -0.2772  0.8899 -0.0031
 4132SOL    MW416296   0.008   5.025   1.546  0.0422  0.3517 -0.0224
 4133SOL     OW16297   2.928   3.778   6.278  0.0992 -0.4511  0.2179
 4133SOL    HW216298   2.843   3.748   6.312  0.6075 -2.0941  0.1044
 4133SOL    HW316299   2.985   3.702   6.284  1.9268  0.9280  1.3655
 4133SOL    MW416300   2.924   3.764   6.283  0.4074 -0.4859  0.3544
 4134SOL     OW16301   0.067   2.506   4.876  0.3404  0.4810 -0.3232
 4134SOL    HW216302   0.097   2.416   4.883  1.2863  0.8337  0.4780
 4134SOL    HW316303   0.117   2.542   4.803 -1.7719 -0.2689 -2.2206
 4134SOL    MW416304   0.078   2.499   4.868  0.1865  0.4286 -0.4679
 4135SOL     OW16305   5.451   0.871   2.308 -0.4673  0.1265 -0.0547
 4135SOL    HW216306   5.355   0.875   2.309 -0.5871 -1.7886  0.8974
 4135SOL    HW316307   5.478   0.932   2.377 -0.9750  0.7626 -0.4034
 4135SOL    MW416308   5.442   0.880   2.317 -0.5501 -0.0423  0.0249
 4136SOL     OW16309   4.761   3.940   5.374 -0.1174  0.5087 -0.3200
 4136SOL    HW216310   4.687   3.945   5.434  0.4082  1.0324  0.3048
 4136SOL    HW316311   4.746   3.860   5.323 -0.2297 -0.3428  0.9966
 4136SOL    MW416312   4.749   3.930   5.375 -0.0628  0.4654 -0.0638
 4137SOL     OW16313   3.293   3.636   4.938  0.1185 -0.4107  0.1576
 4137SOL    HW216314   3.238   3.624   4.861  0.5416 -1.2102 -0.0331
 4137SOL    HW316315   3.232   3.650   5.010 -0.2895  0.0097 -0.2690
 4137SOL    MW416316   3.278   3.636   4.938  0.1205 -0.4607  0.0761
 4138SOL     OW16317   2.762   4.425   5.013  0.4724  0.3015 -0.2713
 4138SOL    HW216318   2.685   4.437   5.068  0.5781  0.9486 -0.2548
 4138SOL    HW316319   2.792   4.336   5.031 -0.2237  0.0777 -0.2196
 4138SOL    MW416320   2.756   4.415   5.023  0.3945  0.3574 -0.2623
 4139SOL     OW16321   6.331   4.075   0.883 -0.7482 -0.3629  0.6204
 4139SOL    HW216322   6.396   4.005   0.880 -1.4575 -1.0168  0.2137
 4139SOL    HW316323   6.280   4.057   0.962 -0.4693  0.1178  0.9116
 4139SOL    MW416324   6.333   4.063   0.893 -0.8049 -0.3858  0.6052
 4140SOL     OW16325   3.035   4.771   2.240  0.0144 -0.4092  0.1645
 4140SOL    HW216326   3.004   4.799   2.326 -0.2490 -0.2645  0.0209
 4140SOL    HW316327   3.000   4.682   2.230 -1.0991  0.0691 -0.3677
 4140SOL    MW416328   3.027   4.763   2.250 -0.1672 -0.3270  0.0753
 4141SOL     OW16329   1.159   0.239   0.789  0.6269  0.1129 -0.2458
 4141SOL    HW216330   1.106   0.214   0.865 -1.7751  1.3236 -1.4213
 4141SOL    HW316331   1.195   0.324   0.812 -0.2838  0.5838 -0.4937
 4141SOL    MW416332   1.156   0.247   0.802  0.1898  0.3348 -0.4336
 4142SOL     OW16333   3.493   3.188   1.166  0.0372 -0.2769 -0.5319
 4142SOL    HW216334   3.530   3.116   1.115 -1.3097 -1.5860  0.2270
 4142SOL    HW316335   3.522   3.172   1.256 -3.8056 -2.6542  0.5579
 4142SOL    MW416336   3.501   3.176   1.171 -0.6475 -0.7633 -0.2880
 4143SOL     OW16337   2.318   3.271   2.707 -0.4767 -0.3855  0.2295
 4143SOL    HW216338   2.232   3.227   2.707 -0.6206 -0.1605 -1.3548
 4143SOL    HW316339   2.380   3.201   2.688 -0.5909 -0.1224 -1.1819
 4143SOL    MW416340   2.315   3.256   2.705 -0.5107 -0.3211 -0.1658
 4144SOL     OW16341   0.368   4.235   2.236  0.1432  0.1757  0.2525
 4144SOL    HW216342   0.388   4.324   2.206  0.2274 -0.9810 -3.6806
 4144SOL    HW316343   0.274   4.226   2.223  0.2507 -0.5076 -0.1018
 4144SOL    MW416344   0.358   4.246   2.230  0.1685 -0.0670 -0.3131
 4145SOL     OW16345   5.106   2.355   3.544  0.2222 -0.3144 -0.7730
 4145SOL    HW216346   5.027   2.383   3.499  1.2806  2.1190 -1.2339
 4145SOL    HW316347   5.175   2.358   3.478  1.3528  1.0313  0.3963
 4145SOL    MW416348   5.105   2.359   3.530  0.5110  0.1842 -0.6795
 4146SOL     OW16349   3.884   1.001   4.616  0.1218 -0.0777  0.4119
 4146SOL    HW216350   3.939   0.973   4.543  0.8190  1.1013  0.4685
 4146SOL    HW316351   3.873   1.095   4.604 -2.6261 -0.3827 -0.0664
 4146SOL    MW416352   3.890   1.009   4.605 -0.1488  0.0376  0.3563
 4147SOL     OW16353   3.561   2.865   5.877 -0.4003  0.2654 -0.8108
 4147SOL    HW216354   3.487   2.920   5.851 -0.6691 -0.6215 -1.9912
 4147SOL    HW316355   3.632   2.891   5.818  0.7796  2.2072  1.3088
 4147SOL    MW416356   3.560   2.876   5.866 -0.2801  0.4046 -0.6869
 4148SOL     OW16357   0.155   5.326   0.617  0.6762 -0.0861 -0.1362
 4148SOL    HW216358   0.083   5.378   0.653 -0.5377 -0.4186 -1.9524
 4148SOL    HW316359   0.231   5.385   0.620 -0.0925  0.9239  0.1335
 4148SOL    MW416360   0.156   5.341   0.622  0.4146  0.0033 -0.3402
 4149SOL     OW16361   0.667   1.689   6.044  0.3350 -0.8628  0.1288
 4149SOL    HW216362   0.638   1.780   6.053  3.3554  0.3396 -0.8312
 4149SOL    HW316363   0.734   1.679   6.111  2.9761 -0.8952 -2.2915
 4149SOL    MW416364   0.672   1.700   6.054  1.0820 -0.7084 -0.3172
 4150SOL     OW16365   0.176   1.209   4.651  0.9146  0.6700 -0.1313
 4150SOL    HW216366   0.154   1.120   4.679  0.4289  0.8752  0.1597
 4150SOL    HW316367   0.125   1.265   4.709  2.7724  1.2076  1.0527
 4150SOL    MW416368   0.166   1.205   4.662  1.0956  0.7680  0.0633
 4151SOL     OW16369   5.437   1.439   5.762 -0.9367 -0.2805 -0.2785
 4151SOL    HW216370   5.515   1.443   5.706 -1.6729 -0.1764 -1.3153
 4151SOL    HW316371   5.420   1.346   5.774 -1.7307 -0.3200 -1.6008
 4151SOL    MW416372   5.445   1.428   5.756 -1.1386 -0.2720 -0.5898
 4152SOL     OW16373   5.471   4.877   5.078  0.3660  0.4770  0.2428
 4152SOL    HW216374   5.399   4.939   5.077 -0.7851 -0.8049  0.5171
 4152SOL    HW316375   5.494   4.866   4.986 -0.0779  0.5776  0.1178
 4152SOL    MW416376   5.465   4.884   5.066  0.1556  0.3211  0.2625
 4153SOL     OW16377   2.007   2.595   4.839 -0.3307 -0.2645 -0.5910
 4153SOL    HW216378   2.021   2.531   4.909 -0.2715  0.1104 -0.2585
 4153SOL    HW316379   1.944   2.657   4.875  0.3134  0.3905 -0.5621
 4153SOL    MW416380   2.001   2.594   4.853 -0.2379 -0.1286 -0.5433
 4154SOL     OW16381   0.335   2.222   5.444  0.6565 -0.2470  0.2182
 4154SOL    HW216382   0.386   2.302   5.456 -0.0565  0.1181  0.8983
 4154SOL    HW316383   0.398   2.151   5.456  1.3613  0.2053 -0.7101
 4154SOL    MW416384   0.350   2.223   5.447  0.6554 -0.1391  0.1854
 4155SOL     OW16385   6.168   4.882   1.927  0.2895  0.6984 -0.2147
 4155SOL    HW216386   6.207   4.891   2.014 -2.0531 -1.6948  1.2269
 4155SOL    HW316387   6.088   4.935   1.931 -0.8998 -1.0314 -0.1277
 4155SOL    MW416388   6.162   4.890   1.939 -0.1765  0.1544 -0.0130
 4156SOL     OW16389   6.017   3.523   0.692 -0.7265 -0.2434 -0.6056
 4156SOL    HW216390   5.955   3.595   0.696 -0.9251 -0.3648 -1.3971
 4156SOL    HW316391   6.007   3.487   0.604  0.3112 -0.3980 -0.6807
 4156SOL    MW416392   6.008   3.528   0.681 -0.6158 -0.2799 -0.7200
 4157SOL     OW16393   5.460   2.380   2.746  0.3498  0.0116  0.2156
 4157SOL    HW216394   5.437   2.339   2.829 -1.0064 -0.5988 -0.4393
 4157SOL    HW316395   5.397   2.346   2.683  2.6745 -1.2646 -1.5895
 4157SOL    MW416396   5.449   2.370   2.749  0.4775 -0.2373 -0.1090
 4158SOL     OW16397   5.661   0.802   1.207 -0.1540 -0.2108 -0.4548
 4158SOL    HW216398   5.664   0.877   1.266  1.9934  0.1312 -0.8840
 4158SOL    HW316399   5.633   0.839   1.123 -1.5506 -0.3802 -0.0755
 4158SOL    MW416400   5.658   0.817   1.204 -0.0550 -0.1880 -0.4614
 4159SOL     OW16401   2.095   4.676   3.611  0.1483  0.3330  0.5445
 4159SOL    HW216402   2.020   4.636   3.569  1.5790 -1.1576 -0.7257
 4159SOL    HW316403   2.058   4.742   3.670 -2.2509 -1.9007  1.6879
 4159SOL    MW416404   2.080   4.680   3.613  0.0205 -0.1584  0.5278
 4160SOL     OW16405   3.300   1.716   5.581  0.0703  0.7851 -0.5989
 4160SOL    HW216406   3.372   1.777   5.600  1.2740 -0.4501 -1.0688
 4160SOL    HW316407   3.318   1.640   5.636 -1.6505  0.9726  0.2921
 4160SOL    MW416408   3.312   1.714   5.591  0.0020  0.6468 -0.5434
 4161SOL     OW16409   3.101   5.664   3.932 -0.7582  0.2270 -0.0100
 4161SOL    HW216410   3.080   5.706   4.015  0.3519  1.8446 -0.5132
 4161SOL    HW316411   3.099   5.734   3.867  1.6726 -0.3262 -0.8034
 4161SOL    MW416412   3.098   5.679   3.934 -0.2910  0.3675 -0.1811
 4162SOL     OW16413   2.647   3.837   2.837 -0.0933  0.3506  0.4309
 4162SOL    HW216414   2.623   3.745   2.827 -0.2611  0.5338 -1.0019
 4162SOL    HW316415   2.639   3.853   2.931 -0.6455 -0.9331  0.6292
 4162SOL    MW416416   2.643   3.827   2.848 -0.1883  0.2054  0.2680
 4163SOL     OW16417   1.025   2.305   4.083  0.2555 -0.5552  0.5908
 4163SOL    HW216418   1.060   2.391   4.107  1.8949 -1.0443  0.0636
 4163SOL    HW316419   0.963   2.284   4.153  2.1643 -0.3069  2.4347
 4163SOL    MW416420   1.021   2.313   4.096  0.7236 -0.5870  0.7645
 4164SOL     OW16421   1.119   1.262   4.642  0.7379 -0.1411  0.0737
 4164SOL    HW216422   1.173   1.228   4.571  0.4629 -0.0627 -0.1760
 4164SOL    HW316423   1.078   1.185   4.682 -1.2723 -0.0331 -1.6010
 4164SOL    MW416424   1.121   1.248   4.638  0.4364 -0.1165 -0.1802
 4165SOL     OW16425   5.070   3.155   0.424 -0.0394 -0.1587 -0.7157
 4165SOL    HW216426   5.115   3.083   0.468 -0.6725 -0.9160 -1.2607
 4165SOL    HW316427   4.994   3.174   0.480  0.8374  1.0107  0.1218
 4165SOL    MW416428   5.066   3.148   0.437 -0.0073 -0.1043 -0.6771
 4166SOL     OW16429   0.349   0.477   0.359 -1.5546 -0.0477  0.1997
 4166SOL    HW216430   0.344   0.541   0.430 -0.5757  0.2558  0.0141
 4166SOL    HW316431   0.439   0.444   0.363 -1.5933 -0.2775 -0.6822
 4166SOL    MW416432   0.360   0.481   0.369 -1.4306 -0.0380  0.0589
 4167SOL     OW16433   0.436   2.905   1.582  0.2509  0.0278 -0.2847
 4167SOL    HW216434   0.466   2.885   1.670  0.2314 -0.6086 -0.4196
 4167SOL    HW316435   0.396   2.992   1.589 -3.1033 -1.4547  1.1609
 4167SOL    MW416436   0.435   2.914   1.595 -0.1943 -0.2518 -0.1117
 4168SOL     OW16437   0.141   0.643   3.544 -0.2543 -0.2654 -0.3329
 4168SOL    HW216438   0.070   0.610   3.489 -0.6928 -0.1894  0.1744
 4168SOL    HW316439   0.178   0.565   3.586  0.7163 -0.4337 -1.4553
 4168SOL    MW416440   0.137   0.628   3.542 -0.1841 -0.2775 -0.4141
 4169SOL     OW16441   1.323   2.857   4.157  0.1345  0.4538 -0.6699
 4169SOL    HW216442   1.397   2.915   4.140 -0.8864  1.4280 -1.9988
 4169SOL    HW316443   1.363   2.771   4.171  1.5069  0.7634 -2.2963
 4169SOL    MW416444   1.338   2.853   4.156  0.1809  0.6232 -1.0598
 4170SOL     OW16445   4.688   5.500   4.812  0.0534 -0.6941  0.1858
 4170SOL    HW216446   4.631   5.497   4.735 -2.8696 -0.7934  2.2009
 4170SOL    HW316447   4.673   5.587   4.849  0.7838 -0.9372  1.0807
 4170SOL    MW416448   4.678   5.511   4.806 -0.2359 -0.7393  0.5698
 4171SOL     OW16449   4.993   5.284   3.307  0.2560  0.0723 -0.5579
 4171SOL    HW216450   4.950   5.354   3.356  1.2046  0.3689 -0.1031
 4171SOL    HW316451   5.059   5.329   3.254  0.9471 -0.4627 -0.1836
 4171SOL    MW416452   4.996   5.299   3.307  0.4723  0.0408 -0.4485
 4172SOL     OW16453   5.016   1.622   4.525  0.2774  0.0521  0.3421
 4172SOL    HW216454   5.073   1.673   4.467  0.8914  0.5085  1.3247
 4172SOL    HW316455   5.067   1.543   4.544 -0.0551 -0.2424  0.0127
 4172SOL    MW416456   5.031   1.619   4.520  0.3146  0.0735  0.4283
 4173SOL     OW16457   1.065   0.562   3.769 -0.4366 -0.4090 -0.4770
 4173SOL    HW216458   1.128   0.578   3.839  0.8722 -2.6140 -1.0501
 4173SOL    HW316459   1.097   0.483   3.726 -2.4323 -0.3690 -2.1761
 4173SOL    MW416460   1.077   0.553   3.773 -0.5272 -0.6946 -0.7768
 4174SOL     OW16461   1.581   6.253   2.725  0.5839  0.3848 -0.0628
 4174SOL    HW216462   1.488   6.272   2.710  0.7584  0.5383 -1.0143
 4174SOL    HW316463   1.627   6.322   2.677  1.1952  0.0225 -0.0058
 4174SOL    MW416464   1.575   6.265   2.716  0.6876  0.3572 -0.1808
 4175SOL     OW16465   2.972   4.701   2.699  0.0831  0.3858 -0.5234
 4175SOL    HW216466   2.966   4.771   2.763  0.6444 -0.7563  0.8304
 4175SOL    HW316467   2.908   4.635   2.729  2.1761 -1.3228  0.4355
 4175SOL    MW416468   2.962   4.701   2.711  0.4333  0.0097 -0.2183
 4176SOL     OW16469   5.660   1.445   5.321  0.0629 -0.1521  0.3647
 4176SOL    HW216470   5.718   1.470   5.249 -1.3134  2.2847 -0.0129
 4176SOL    HW316471   5.681   1.507   5.391 -2.8005  1.7096 -0.2362
 4176SOL    MW416472   5.671   1.457   5.321 -0.4965  0.4150  0.2356
 4177SOL     OW16473   2.538   4.223   4.820 -0.3047 -0.0826 -0.1382
 4177SOL    HW216474   2.569   4.177   4.897 -1.7283 -1.1468 -0.1686
 4177SOL    HW316475   2.460   4.175   4.792  0.3266  0.1068 -2.4067
 4177SOL    MW416476   2.531   4.211   4.826 -0.4092 -0.1981 -0.4415
 4178SOL     OW16477   1.067   1.886   4.016  0.2807 -0.1391 -0.2487
 4178SOL    HW216478   1.123   1.821   3.974 -0.8819  0.4643 -2.8864
 4178SOL    HW316479   1.048   1.848   4.102 -0.5680 -3.4662 -1.7461
 4178SOL    MW416480   1.072   1.873   4.022  0.0153 -0.4984 -0.7943
 4179SOL     OW16481   0.638   2.121   4.102 -0.3017  0.7901 -0.6030
 4179SOL    HW216482   0.599   2.096   4.186  0.4454  1.0488 -0.1713
 4179SOL    HW316483   0.624   2.216   4.098  1.4495  1.1229  0.1968
 4179SOL    MW416484   0.631   2.131   4.113  0.0279  0.8681 -0.4405
 4180SOL     OW16485   4.819   1.893   6.410 -0.5058 -0.2822  0.2962
 4180SOL    HW216486   4.816   1.961   6.343 -3.2648 -0.4044  0.1909
 4180SOL    HW316487   4.881   1.926   6.475 -0.7306  1.6953 -0.4303
 4180SOL    MW416488   4.827   1.906   6.410 -0.8995 -0.0374  0.1864
 4181SOL     OW16489   4.906   3.181   0.884  0.4799 -0.4293 -0.0787
 4181SOL    HW216490   4.890   3.241   0.956 -0.1360  0.2563 -0.7762
 4181SOL    HW316491   4.836   3.116   0.890  0.8045 -0.7521  0.3167
 4181SOL    MW416492   4.895   3.180   0.894  0.4415 -0.3814 -0.1185
 4182SOL     OW16493   2.480   5.055   6.330 -0.1312  0.0330  0.4835
 4182SOL    HW216494   2.398   5.039   6.376 -0.2953  1.2909  0.6718
 4182SOL    HW316495   2.546   5.061   6.400 -0.2686  1.2745  0.5227
 4182SOL    MW416496   2.478   5.054   6.346 -0.1710  0.3627  0.5135
 4183SOL     OW16497   6.401   1.509   3.302 -0.4578 -0.5925 -0.5701
 4183SOL    HW216498   6.306   1.521   3.304 -0.5675 -1.3465  1.7200
 4183SOL    HW316499   6.426   1.494   3.394  2.0477  0.8089 -0.9211
 4183SOL    MW416500   6.392   1.509   3.314 -0.1417 -0.5071 -0.3142
 4184SOL     OW16501   1.855   4.503   5.379 -0.2856 -0.3890  0.5118
 4184SOL    HW216502   1.765   4.491   5.410 -1.3090 -1.8900 -2.6728
 4184SOL    HW316503   1.908   4.454   5.442 -2.2058 -3.0827  0.2462
 4184SOL    MW416504   1.850   4.495   5.392 -0.6740 -0.9424  0.0566
 4185SOL     OW16505   2.485   2.060   3.568  0.2844 -0.1918  0.3713
 4185SOL    HW216506   2.573   2.072   3.533  0.4934 -1.5264  0.3725
 4185SOL    HW316507   2.463   1.969   3.546 -1.0381  0.0879  0.4877
 4185SOL    MW416508   2.494   2.049   3.561  0.1375 -0.3310  0.3868
 4186SOL     OW16509   2.195   5.052   6.392 -0.0770 -0.2137 -0.0538
 4186SOL    HW216510   2.178   4.999   6.314 -2.4416  0.1145  0.1531
 4186SOL    HW316511   2.174   5.141   6.365  0.8984  0.1826  0.4537
 4186SOL    MW416512   2.190   5.057   6.378 -0.2603 -0.1181  0.0405
 4187SOL     OW16513   1.235   2.881   2.140  0.3705  0.3164 -0.3444
 4187SOL    HW216514   1.318   2.832   2.139  0.3305  0.2505 -0.4464
 4187SOL    HW316515   1.221   2.904   2.048 -0.5766 -1.1034 -0.5954
 4187SOL    MW416516   1.244   2.877   2.128  0.2403  0.1204 -0.3910
 4188SOL     OW16517   5.949   6.298   1.381  0.6123  0.0587  0.1821
 4188SOL    HW216518   6.021   6.246   1.346  0.3890  0.6948 -1.3083
 4188SOL    HW316519   5.879   6.289   1.316 -0.4326 -0.0419  1.2989
 4188SOL    MW416520   5.950   6.290   1.368  0.4450  0.1294  0.1328
 4189SOL     OW16521   1.252   0.904   4.575 -0.1148 -0.1081  0.3832
 4189SOL    HW216522   1.204   0.841   4.522  1.8704 -0.3904 -1.2270
 4189SOL    HW316523   1.266   0.979   4.516  3.1728 -0.9065 -0.0678
 4189SOL    MW416524   1.248   0.906   4.560  0.5809 -0.2507  0.1113
 4190SOL     OW16525   3.214   5.700   6.402  0.0998  0.2103  0.1366
 4190SOL    HW216526   3.307   5.681   6.414  0.0694  0.0948  0.1871
 4190SOL    HW316527   3.172   5.615   6.404 -0.1106  0.3274  1.0218
 4190SOL    MW416528   3.221   5.686   6.404  0.0680  0.2105  0.2601
 4191SOL     OW16529   5.024   1.283   1.309  0.1639 -0.6274 -0.0528
 4191SOL    HW216530   5.055   1.370   1.285 -2.1994 -0.1459 -1.7449
 4191SOL    HW316531   4.967   1.298   1.385 -1.2201 -0.4456 -1.0833
 4191SOL    MW416532   5.021   1.296   1.316 -0.3305 -0.5399 -0.4120
 4192SOL     OW16533   2.610   0.044   5.102 -0.6867  0.0999  0.0335
 4192SOL    HW216534   2.578  -0.025   5.044  1.7819 -0.4386 -0.8132
 4192SOL    HW316535   2.660  -0.003   5.169 -0.0757  0.9764  0.2047
 4192SOL    MW416536   2.613   0.028   5.103 -0.2804  0.1445 -0.0557
 4193SOL     OW16537   1.581   3.801   5.814 -0.6242  0.1108  0.1811
 4193SOL    HW216538   1.588   3.897   5.814 -0.0390  0.0756  0.5711
 4193SOL    HW316539   1.644   3.772   5.749  0.3124 -0.0647  1.1396
 4193SOL    MW416540   1.590   3.810   5.806 -0.4234  0.0830  0.3591
 4194SOL     OW16541   5.894   6.121   2.570 -0.1740  0.5124 -0.2148
 4194SOL    HW216542   5.927   6.203   2.534  0.5964  0.5744  0.6180
 4194SOL    HW316543   5.884   6.137   2.664  1.1365 -0.6943  0.1679
 4194SOL    MW416544   5.897   6.134   2.578  0.1005  0.3614 -0.0544
 4195SOL     OW16545   0.089   0.334   1.302 -0.2793 -0.2742  0.0918
 4195SOL    HW216546   0.117   0.370   1.387  1.6154  0.3959 -0.7525
 4195SOL    HW316547   0.132   0.390   1.237 -0.9874 -1.3055 -1.3102
 4195SOL    MW416548   0.099   0.346   1.305 -0.1227 -0.3218 -0.2046
 4196SOL     OW16549   5.127   5.107   4.247  0.4087 -0.0894  0.2580
 4196SOL    HW216550   5.096   5.197   4.259  0.1183 -0.3275  1.4985
 4196SOL    HW316551   5.047   5.057   4.231  0.4522 -0.2706  0.5890
 4196SOL    MW416552   5.112   5.113   4.247  0.3761 -0.1447  0.4653
 4197SOL     OW16553   4.553   5.535   1.280 -0.6036  0.4676  0.5855
 4197SOL    HW216554   4.548   5.590   1.358  0.1145 -1.4593  2.0667
 4197SOL    HW316555   4.544   5.446   1.312  0.0771 -0.4313 -1.4930
 4197SOL    MW416556   4.551   5.531   1.294 -0.4190  0.0948  0.5067
 4198SOL     OW16557   3.974   5.626   5.402 -0.0271 -0.6749  0.6596
 4198SOL    HW216558   3.948   5.534   5.410  1.5874 -1.0925  1.4461
 4198SOL    HW316559   4.064   5.629   5.435 -0.4198  1.3810  1.7024
 4198SOL    MW416560   3.982   5.614   5.407  0.1341 -0.4588  0.9010
 4199SOL     OW16561   6.413   2.270   5.823  0.0816  0.0150 -0.2796
 4199SOL    HW216562   6.409   2.183   5.783  0.6882 -0.2023  0.1154
 4199SOL    HW316563   6.349   2.265   5.895  0.8020 -0.4285  0.3416
 4199SOL    MW416564   6.404   2.258   5.827  0.2566 -0.0722 -0.1455
 4200SOL     OW16565   6.310   2.247   1.634 -0.3109  0.2899  0.6189
 4200SOL    HW216566   6.298   2.173   1.574 -1.5082  0.3396  0.7891
 4200SOL    HW316567   6.357   2.210   1.709 -1.3611 -0.4313  0.9404
 4200SOL    MW416568   6.315   2.232   1.636 -0.6075  0.2013  0.6838
 4201SOL     OW16569   0.300   0.932   4.388 -0.3295 -0.1247 -0.1678
 4201SOL    HW216570   0.224   0.952   4.443  0.1909 -1.0667  0.9239
 4201SOL    HW316571   0.307   0.837   4.389  2.0134 -0.0285  1.4120
 4201SOL    MW416572   0.291   0.922   4.396  0.0483 -0.2363  0.1846
 4202SOL     OW16573   2.921   4.191   2.083  0.5724 -0.0267 -0.1278
 4202SOL    HW216574   2.906   4.153   2.170  1.0756  0.2417  0.0808
 4202SOL    HW316575   2.985   4.132   2.042  1.2897  0.5335  0.1648
 4202SOL    MW416576   2.928   4.178   2.089  0.7334  0.0826 -0.0617
 4203SOL     OW16577   5.536   6.107   5.215  0.0794 -0.2354  0.0998
 4203SOL    HW216578   5.502   6.023   5.244  2.2985 -1.7034 -1.2695
 4203SOL    HW316579   5.519   6.109   5.121  1.0243  0.3463 -0.0702
 4203SOL    MW416580   5.529   6.096   5.206  0.4968 -0.3524 -0.1033
 4204SOL     OW16581   1.447   4.427   5.833  0.2599  0.5356  0.3475
 4204SOL    HW216582   1.432   4.392   5.921 -1.1707 -1.3450 -0.5566
 4204SOL    HW316583   1.378   4.387   5.780  2.9248 -0.8985 -2.2872
 4204SOL    MW416584   1.436   4.417   5.838  0.4227  0.0983 -0.1194
 4205SOL     OW16585   1.254   4.674   1.612 -0.2885  0.1357  0.1914
 4205SOL    HW216586   1.286   4.733   1.545  1.2638 -0.3981  0.4221
 4205SOL    HW316587   1.164   4.703   1.629 -0.1288  1.3402 -0.8830
 4205SOL    MW416588   1.246   4.685   1.606 -0.0626  0.2242  0.0801
 4206SOL     OW16589   0.828   1.242   4.743  0.5338 -0.7481 -0.3025
 4206SOL    HW216590   0.821   1.331   4.709  2.0593 -0.4500  0.1127
 4206SOL    HW316591   0.812   1.186   4.666 -2.0162 -0.2116 -0.2727
 4206SOL    MW416592   0.825   1.246   4.728  0.3986 -0.6380 -0.2438
 4207SOL     OW16593   1.290   0.973   2.699  0.7013 -0.1867  0.0112
 4207SOL    HW216594   1.315   1.014   2.616 -0.7194  0.9639  0.1243
 4207SOL    HW316595   1.304   1.041   2.764 -1.5305  0.1331  0.2269
 4207SOL    MW416596   1.295   0.987   2.697  0.2194  0.0073  0.0546
 4208SOL     OW16597   5.300   5.784   1.566 -0.0423  0.0817 -0.0009
 4208SOL    HW216598   5.206   5.766   1.568 -0.1030 -0.0294 -2.0482
 4208SOL    HW316599   5.308   5.875   1.592 -0.5094 -0.4079  2.0372
 4208SOL    MW416600   5.288   5.794   1.570 -0.1119  0.0024 -0.0021
 4209SOL     OW16601   1.547   0.191   5.267  0.3757 -0.4064  0.0667
 4209SOL    HW216602   1.461   0.211   5.303  1.1777  1.9955  0.8749
 4209SOL    HW316603   1.604   0.182   5.343  0.8893 -1.8602 -0.4569
 4209SOL    MW416604   1.543   0.193   5.282  0.5493 -0.2813  0.1043
 4210SOL     OW16605   2.692   4.401   0.648  0.0078  0.3079  0.0632
 4210SOL    HW216606   2.626   4.465   0.673  0.4717  1.2002 -0.9392
 4210SOL    HW316607   2.703   4.413   0.554  1.0579 -0.3365  0.0849
 4210SOL    MW416608   2.685   4.411   0.639  0.2076  0.3406 -0.0662
 4211SOL     OW16609   0.842   1.642   1.531  0.0355  0.0744 -0.3048
 4211SOL    HW216610   0.798   1.558   1.524 -1.3447  0.4233  2.6463
 4211SOL    HW316611   0.787   1.702   1.479  0.6434 -0.6471 -1.8401
 4211SOL    MW416612   0.829   1.639   1.523 -0.0664  0.0253 -0.1180
 4212SOL     OW16613   0.288   4.509   3.023 -0.4408 -0.3841 -0.1366
 4212SOL    HW216614   0.283   4.514   2.927 -2.6075 -1.5026 -0.1278
 4212SOL    HW316615   0.312   4.419   3.041 -0.8320 -0.3835  0.3928
 4212SOL    MW416616   0.290   4.498   3.012 -0.7783 -0.5316 -0.0656
 4213SOL     OW16617   0.911   1.508   2.278 -0.0969 -0.2613  0.0334
 4213SOL    HW216618   0.983   1.508   2.341  1.1495  0.5635 -1.3257
 4213SOL    HW316619   0.907   1.598   2.246  0.3584 -0.9605 -2.1682
 4213SOL    MW416620   0.920   1.520   2.282  0.1276 -0.2447 -0.4364
 4214SOL     OW16621   5.510   6.368   3.167  0.4111  0.6027  0.1915
 4214SOL    HW216622   5.415   6.361   3.156  0.4620  0.3643 -0.1346
 4214SOL    HW316623   5.528   6.462   3.160  0.3006  0.5702 -0.7014
 4214SOL    MW416624   5.500   6.379   3.164  0.4032  0.5670  0.0306
 4215SOL     OW16625   5.500   2.598   6.161 -0.0586  0.9417 -0.3747
 4215SOL    HW216626   5.556   2.676   6.158  0.8075  0.3201 -1.2570
 4215SOL    HW316627   5.417   2.629   6.197  0.6493  2.0204  0.3843
 4215SOL    MW416628   5.497   2.613   6.165  0.1491  1.0020 -0.3910
 4216SOL     OW16629   1.172   5.827   4.404 -0.2959  0.4108  0.2367
 4216SOL    HW216630   1.098   5.878   4.437 -1.5624  0.0253 -1.8426
 4216SOL    HW316631   1.136   5.739   4.391  0.5371  0.1956 -0.7322
 4216SOL    MW416632   1.158   5.822   4.407 -0.3531  0.3315 -0.1655
 4217SOL     OW16633   2.365   2.450   2.990 -0.5991  0.3171  0.0418
 4217SOL    HW216634   2.389   2.367   3.031 -1.5071 -0.0034 -0.0572
 4217SOL    HW316635   2.326   2.426   2.907 -0.2488  0.8871 -0.2987
 4217SOL    MW416636   2.363   2.436   2.985 -0.6727  0.3500 -0.0162
 4218SOL     OW16637   0.008   2.126   4.558  0.0122  0.1672 -0.0210
 4218SOL    HW216638  -0.054   2.131   4.631  0.5876  0.3578  0.4624
 4218SOL    HW316639   0.087   2.087   4.596 -0.1193 -0.9684 -0.8493
 4218SOL    MW416640   0.010   2.122   4.573  0.0707  0.0425 -0.0665
 4219SOL     OW16641   5.786   0.813   2.284  0.6492 -0.4328  0.0267
 4219SOL    HW216642   5.710   0.830   2.228  0.7078 -0.4805 -0.0678
 4219SOL    HW316643   5.847   0.883   2.264 -0.6576  1.5501  2.4639
 4219SOL    MW416644   5.784   0.824   2.274  0.4845 -0.1775  0.3358
 4220SOL     OW16645   4.248   1.996   4.950  0.0889  0.8350  0.4297
 4220SOL    HW216646   4.259   2.083   4.911 -1.4761 -0.0536 -2.2457
 4220SOL    HW316647   4.297   1.937   4.892 -1.6383 -0.4473  0.1874
 4220SOL    MW416648   4.256   2.000   4.937 -0.3454  0.5486  0.0448
 4221SOL     OW16649   4.338   5.029   3.129  0.2183 -0.1426  0.2228
 4221SOL    HW216650   4.282   5.102   3.102 -1.0287 -1.8528 -2.2030
 4221SOL    HW316651   4.277   4.960   3.154  1.2948 -1.1792  0.0816
 4221SOL    MW416652   4.322   5.029   3.129  0.1958 -0.5050 -0.1159
 4222SOL     OW16653   3.935   4.806   0.495 -0.2556  0.1097 -0.1330
 4222SOL    HW216654   3.898   4.878   0.547 -1.9805 -0.3778 -0.6354
 4222SOL    HW316655   3.985   4.849   0.427 -3.4946  1.0758 -2.1433
 4222SOL    MW416656   3.937   4.821   0.493 -0.9105  0.1728 -0.4645
 4223SOL     OW16657   0.409   1.758   4.668 -0.9702 -0.1414  0.0488
 4223SOL    HW216658   0.423   1.769   4.762 -2.7702  0.9608  0.2463
 4223SOL    HW316659   0.364   1.674   4.660  1.2358 -1.3826 -0.1205
 4223SOL    MW416660   0.405   1.748   4.679 -0.9166 -0.1597  0.0525
 4224SOL     OW16661   2.102   5.296   6.304 -0.4143 -0.0530 -0.3623
 4224SOL    HW216662   2.011   5.310   6.278 -0.0718  1.1943 -0.9827
 4224SOL    HW316663   2.153   5.347   6.241  0.6618  0.0331  0.5435
 4224SOL    MW416664   2.097   5.304   6.293 -0.2271  0.1229 -0.3246
 4225SOL     OW16665   5.260   4.012   0.033  0.2339  0.1123 -0.0754
 4225SOL    HW216666   5.211   4.052  -0.039 -1.0203 -0.6829  0.3075
 4225SOL    HW316667   5.239   3.919   0.028 -1.0128  0.2022  2.1350
 4225SOL    MW416668   5.251   4.005   0.023 -0.0961  0.0193  0.2667
 4226SOL     OW16669   2.305   4.382   3.487 -0.0893  0.3946 -0.3199
 4226SOL    HW216670   2.290   4.417   3.399 -2.1649  1.3239  0.3380
 4226SOL    HW316671   2.334   4.457   3.538  2.1786 -0.3559 -0.3750
 4226SOL    MW416672   2.307   4.396   3.482 -0.0639  0.4182 -0.2404
 4227SOL     OW16673   5.599   4.514   4.000 -0.4449 -0.0954  0.1300
 4227SOL    HW216674   5.541   4.517   3.924 -0.8231  1.3049  0.4485
 4227SOL    HW316675   5.663   4.446   3.978 -2.1098 -1.6126 -0.2743
 4227SOL    MW416676   5.600   4.505   3.987 -0.7145 -0.1108  0.1187
 4228SOL     OW16677   6.065   0.312   4.419 -0.3931  0.1230  0.1502
 4228SOL    HW216678   6.002   0.345   4.484  0.6840  1.1653  0.7068
 4228SOL    HW316679   6.011   0.289   4.344 -1.4530  0.9916  0.6058
 4228SOL    MW416680   6.050   0.313   4.418 -0.3908  0.3751  0.2837
 4229SOL     OW16681   5.434   4.395   5.932 -0.4340  0.0190  0.0985
 4229SOL    HW216682   5.388   4.434   6.007 -1.0207  0.6027 -0.5457
 4229SOL    HW316683   5.461   4.470   5.879  1.4106 -0.3068  0.5148
 4229SOL    MW416684   5.431   4.410   5.935 -0.2680  0.0531  0.0685
 4230SOL     OW16685   0.786   5.002   0.871 -0.2892 -0.0941  0.3619
 4230SOL    HW216686   0.773   4.994   0.965 -0.2717 -0.2175  0.3547
 4230SOL    HW316687   0.736   5.079   0.845 -1.2557 -0.7353  0.2847
 4230SOL    MW416688   0.778   5.011   0.880 -0.4144 -0.1950  0.3508
 4231SOL     OW16689   6.174   4.128   6.022  0.6431 -0.1978  0.4400
 4231SOL    HW216690   6.115   4.188   6.067 -0.3767  0.1186 -1.2390
 4231SOL    HW316691   6.239   4.184   5.980  0.6463 -0.3788  0.1995
 4231SOL    MW416692   6.175   4.143   6.023  0.5090 -0.1800  0.1868
 4232SOL     OW16693   0.241   1.307   1.856  0.3176  0.1483  0.0061
 4232SOL    HW216694   0.251   1.270   1.769  0.7607  0.3380 -0.0239
 4232SOL    HW316695   0.231   1.401   1.842 -0.2848  0.1020  0.1163
 4232SOL    MW416696   0.241   1.315   1.843  0.2966  0.1672  0.0167
 4233SOL     OW16697   4.582   6.033   1.765 -0.5766  0.0005 -0.2118
 4233SOL    HW216698   4.487   6.045   1.767 -0.4260  1.3945 -0.3278
 4233SOL    HW316699   4.617   6.120   1.783  0.6748 -0.3191 -1.0046
 4233SOL    MW416700   4.574   6.046   1.767 -0.3916  0.1423 -0.3317
 4234SOL     OW16701   6.223   3.456   6.018  0.2243 -0.1139 -0.3213
 4234SOL    HW216702   6.301   3.401   6.025  0.9818  1.0643  0.9526
 4234SOL    HW316703   6.217   3.499   6.104 -1.9135 -0.2946 -0.3337
 4234SOL    MW416704   6.232   3.454   6.030  0.0422  0.0177 -0.1549
 4235SOL     OW16705   3.893   3.945   5.470  0.2943  0.2034 -0.4941
 4235SOL    HW216706   3.952   3.936   5.545  0.7747  0.3755 -0.8522
 4235SOL    HW316707   3.810   3.973   5.509  1.3005  3.1529 -0.2469
 4235SOL    MW416708   3.890   3.947   5.485  0.4905  0.6152 -0.5088
 4236SOL     OW16709   3.921   1.908   5.978 -0.5978 -0.6489  0.3569
 4236SOL    HW216710   3.932   1.843   5.908  1.6682  0.3868 -0.3413
 4236SOL    HW316711   3.978   1.878   6.048 -1.2608 -0.5667  0.9431
 4236SOL    MW416712   3.930   1.896   5.978 -0.3863 -0.5014  0.3421
 4237SOL     OW16713   0.398   3.777   0.411 -0.1595  0.0068 -0.5526
 4237SOL    HW216714   0.431   3.691   0.437  0.5210  0.7542  1.2819
 4237SOL    HW316715   0.467   3.815   0.356  1.0617  0.6063  1.2918
 4237SOL    MW416716   0.411   3.771   0.407  0.0914  0.1845 -0.0672
 4238SOL     OW16717   4.154   3.368   2.364  0.1209 -0.3987 -0.1364
 4238SOL    HW216718   4.155   3.389   2.458 -1.0094  1.1127 -0.4155
 4238SOL    HW316719   4.203   3.440   2.323 -3.3352  1.6842 -1.0689
 4238SOL    MW416720   4.160   3.380   2.371 -0.4842  0.0756 -0.2963
 4239SOL     OW16721   1.092   1.283   1.766 -0.1213  0.0841 -0.1989
 4239SOL    HW216722   1.049   1.252   1.686 -0.5673 -2.0665  0.8055
 4239SOL    HW316723   1.182   1.299   1.739 -0.4594  0.2232 -1.3231
 4239SOL    MW416724   1.098   1.281   1.752 -0.2247 -0.1813 -0.2147
 4240SOL     OW16725   1.075   1.098   4.206 -0.6517 -0.6559 -0.0984
 4240SOL    HW216726   1.043   1.059   4.125  1.5522  1.7761 -2.3541
 4240SOL    HW316727   1.061   1.192   4.194  3.1448  0.1814  0.5402
 4240SOL    MW416728   1.069   1.106   4.194  0.1400 -0.2245 -0.3117
 4241SOL     OW16729   3.952   0.758   3.781 -0.0258 -0.0113  0.0055
 4241SOL    HW216730   3.870   0.742   3.734 -0.4545  0.6864  0.4864
 4241SOL    HW316731   3.968   0.852   3.768  1.2365 -0.3306 -0.9126
 4241SOL    MW416732   3.943   0.769   3.773  0.0842  0.0386 -0.0522
 4242SOL     OW16733   0.865   3.418   5.269  0.3562  0.1157  0.4781
 4242SOL    HW216734   0.891   3.396   5.358  0.8449 -0.1778  0.2697
 4242SOL    HW316735   0.947   3.440   5.225  0.1351  0.1246  0.0630
 4242SOL    MW416736   0.879   3.418   5.275  0.3915  0.0782  0.3959
 4243SOL     OW16737   1.814   1.277   2.393 -0.5991  0.0351  0.0683
 4243SOL    HW216738   1.852   1.239   2.473 -2.1608 -0.7679  0.4638
 4243SOL    HW316739   1.854   1.228   2.322 -0.4146 -0.3702  0.4423
 4243SOL    MW416740   1.824   1.266   2.394 -0.7808 -0.1243  0.1698
 4244SOL     OW16741   6.299   4.579   2.196  0.0629  0.2855  0.4655
 4244SOL    HW216742   6.280   4.575   2.102  0.3768  1.5065  0.3353
 4244SOL    HW316743   6.390   4.610   2.200  0.5627 -1.1589  1.1584
 4244SOL    MW416744   6.309   4.582   2.184  0.1703  0.2560  0.5397
 4245SOL     OW16745   5.134   5.089   3.551 -0.4758 -0.0127 -0.2912
 4245SOL    HW216746   5.059   5.138   3.584 -1.9673 -1.8162 -0.8699
 4245SOL    HW316747   5.173   5.146   3.485  0.2992  2.0497  1.8109
 4245SOL    MW416748   5.129   5.103   3.546 -0.5704  0.0215 -0.0902
 4246SOL     OW16749   0.069   4.016   1.722  0.2784  0.5769  0.2330
 4246SOL    HW216750   0.063   3.946   1.656 -1.3971  0.2379  0.6999
 4246SOL    HW316751   0.075   4.096   1.671 -0.4772  0.2775 -0.3491
 4246SOL    MW416752   0.069   4.017   1.706 -0.0423  0.4927  0.2178
 4247SOL     OW16753   1.532   4.770   1.908 -0.3916 -0.5141  0.0751
 4247SOL    HW216754   1.485   4.689   1.885 -0.1235  0.0281 -2.7054
 4247SOL    HW316755   1.570   4.800   1.826  0.1417  2.0898  1.1753
 4247SOL    MW416756   1.531   4.763   1.894 -0.2859 -0.0990 -0.1466
 4248SOL     OW16757   5.063   5.037   2.514 -0.5446 -0.1612  0.0148
 4248SOL    HW216758   5.011   5.031   2.435  1.2838  0.5464 -1.3163
 4248SOL    HW316759   5.090   4.947   2.532 -1.5757 -0.4251  0.2899
 4248SOL    MW416760   5.060   5.024   2.506 -0.4394 -0.1027 -0.1246
 4249SOL     OW16761   0.389   2.651   2.024  0.2607 -0.6776 -0.2476
 4249SOL    HW216762   0.442   2.668   2.102 -0.2263  2.4231 -0.4488
 4249SOL    HW316763   0.321   2.590   2.054  0.4131  0.0114  1.6383
 4249SOL    MW416764   0.387   2.645   2.039  0.2166 -0.1776 -0.0253
 4250SOL     OW16765   5.341   4.127   6.033  0.4331 -0.6359  0.2973
 4250SOL    HW216766   5.353   4.216   6.000 -1.8771 -0.5759 -0.5664
 4250SOL    HW316767   5.344   4.072   5.954  0.2812 -1.1382  0.6342
 4250SOL    MW416768   5.343   4.131   6.018  0.1083 -0.6943  0.2278
 4251SOL     OW16769   3.318   3.894   4.646  0.6647 -0.4231 -0.0136
 4251SOL    HW216770   3.301   3.962   4.712  1.0287 -0.0842 -0.2688
 4251SOL    HW316771   3.268   3.819   4.677  0.1940 -0.0173  0.2338
 4251SOL    MW416772   3.309   3.893   4.659  0.6507 -0.3249 -0.0146
 4252SOL     OW16773   4.868   2.837   5.640 -0.2960  0.1762 -0.0266
 4252SOL    HW216774   4.923   2.904   5.600  0.0890  0.7562  1.4085
 4252SOL    HW316775   4.894   2.837   5.732 -0.1126 -2.1361 -0.0331
 4252SOL    MW416776   4.878   2.846   5.647 -0.2210 -0.0524  0.1619
 4253SOL     OW16777   3.352   1.666   3.820  0.5566  0.1322 -0.1822
 4253SOL    HW216778   3.349   1.692   3.728  2.1796  0.6887 -0.1222
 4253SOL    HW316779   3.407   1.588   3.821 -0.2944 -0.4705  0.2121
 4253SOL    MW416780   3.359   1.659   3.808  0.6584  0.1261 -0.1222
 4254SOL     OW16781   2.233   1.586   2.330  0.4536  0.3397 -0.5851
 4254SOL    HW216782   2.300   1.586   2.263  1.1025  1.5472  0.0261
 4254SOL    HW316783   2.196   1.674   2.327  0.9639  0.6482  1.0654
 4254SOL    MW416784   2.237   1.598   2.321  0.6065  0.5397 -0.2867
 4255SOL     OW16785   4.636   3.549   3.321  0.1806 -0.0069 -0.1099
 4255SOL    HW216786   4.595   3.617   3.374 -0.2950 -0.1449 -0.2919
 4255SOL    HW316787   4.639   3.472   3.379  0.8981  0.2177  0.1617
 4255SOL    MW416788   4.631   3.548   3.335  0.2125  0.0045 -0.0981
 4256SOL     OW16789   5.044   4.493   5.891  0.4912 -0.4027 -0.9757
 4256SOL    HW216790   4.967   4.523   5.940  0.2854 -0.1909 -1.4194
 4256SOL    HW316791   5.113   4.485   5.957 -0.1209 -1.3995 -0.4193
 4256SOL    MW416792   5.043   4.495   5.906  0.3833 -0.5063 -0.9608
 4257SOL     OW16793   0.096   2.085   5.385  0.1649  0.7462 -0.0400
 4257SOL    HW216794   0.111   1.996   5.354 -0.5597 -0.0614  1.8221
 4257SOL    HW316795   0.181   2.112   5.421  0.8742  1.5114 -2.0972
 4257SOL    MW416796   0.109   2.077   5.386  0.1629  0.7406 -0.0657
 4258SOL     OW16797   2.832   4.122   4.222  0.0269  0.1964  0.0946
 4258SOL    HW216798   2.925   4.107   4.206  0.0495 -1.2570  1.3435
 4258SOL    HW316799   2.830   4.196   4.282  0.1736  2.1604 -2.1476
 4258SOL    MW416800   2.844   4.129   4.228  0.0493  0.2638 -0.0364
 4259SOL     OW16801   5.988   6.127   3.210 -0.4699 -0.0440 -0.5219
 4259SOL    HW216802   6.021   6.159   3.294 -1.0871 -1.7931  0.4132
 4259SOL    HW316803   6.064   6.135   3.151 -0.1628  1.6525  0.0189
 4259SOL    MW416804   6.003   6.133   3.213 -0.5108 -0.0509 -0.3272
 4260SOL     OW16805   1.423   0.334   1.062  0.0382  0.3988  0.2166
 4260SOL    HW216806   1.384   0.373   1.140  0.7696  0.4659  0.5536
 4260SOL    HW316807   1.386   0.384   0.989 -0.6341  0.3447  0.5161
 4260SOL    MW416808   1.413   0.346   1.062  0.0460  0.4005  0.3006
 4261SOL     OW16809   5.079   4.625   6.307  0.2581 -0.8267  0.1750
 4261SOL    HW216810   5.061   4.584   6.391 -1.3062 -1.2335 -0.3263
 4261SOL    HW316811   5.056   4.717   6.319  1.8366 -0.4626  0.7050
 4261SOL    MW416812   5.074   4.631   6.320  0.2599 -0.8323  0.1788
 4262SOL     OW16813   3.863   0.202   3.424 -0.4090  0.2943  0.0259
 4262SOL    HW216814   3.865   0.237   3.513 -0.5659 -0.0857  0.1817
 4262SOL    HW316815   3.776   0.162   3.416 -0.2516 -0.0178 -0.1594
 4262SOL    MW416816   3.852   0.201   3.435 -0.4089  0.2030  0.0220
 4263SOL     OW16817   0.290   5.437   3.131 -0.9819 -0.3540  0.2397
 4263SOL    HW216818   0.208   5.397   3.105  0.3414 -2.8524 -0.4172
 4263SOL    HW316819   0.312   5.395   3.214  0.1390 -0.5113 -0.1197
 4263SOL    MW416820   0.282   5.426   3.139 -0.6594 -0.7044  0.1056
 4264SOL     OW16821   5.484   3.804   2.803  0.1833 -0.3984 -0.7219
 4264SOL    HW216822   5.468   3.710   2.813 -1.1826 -0.1760 -0.6063
 4264SOL    HW316823   5.568   3.819   2.845 -0.9237 -1.0957  1.9501
 4264SOL    MW416824   5.493   3.794   2.810 -0.1429 -0.4611 -0.3541
 4265SOL     OW16825   2.149   2.086   5.020 -0.2790 -0.1164  0.9771
 4265SOL    HW216826   2.079   2.109   4.959  1.3427  0.5473 -0.7355
 4265SOL    HW316827   2.104   2.058   5.099 -2.4874 -1.0041 -0.5014
 4265SOL    MW416828   2.134   2.085   5.022 -0.3564 -0.1460  0.5561
 4266SOL     OW16829   0.945   4.627   3.950 -0.0268  0.2076 -0.2169
 4266SOL    HW216830   0.902   4.551   3.989 -0.2148  0.4731  0.0948
 4266SOL    HW316831   0.875   4.673   3.903 -0.2244  0.9667  0.7878
 4266SOL    MW416832   0.930   4.623   3.949 -0.0777  0.3428 -0.0432
 4267SOL     OW16833   3.206   2.887   4.556  0.5789 -0.2446 -0.4476
 4267SOL    HW216834   3.202   2.816   4.492 -0.1606  1.3225 -2.2272
 4267SOL    HW316835   3.299   2.908   4.564  0.7859 -1.2295 -0.0605
 4267SOL    MW416836   3.218   2.881   4.549  0.5086 -0.1678 -0.6313
 4268SOL     OW16837   2.076   4.035   4.220 -0.5162 -0.2819 -0.1757
 4268SOL    HW216838   2.103   3.947   4.196 -0.6441 -0.8074  1.5328
 4268SOL    HW316839   2.090   4.041   4.314  0.3010  1.8174 -0.3577
 4268SOL    MW416840   2.081   4.024   4.229 -0.4252 -0.0743  0.0257
 4269SOL     OW16841   0.116   5.194   4.304 -0.2365  0.2973  0.0082
 4269SOL    HW216842   0.153   5.190   4.392  0.3093  0.2537 -0.2208
 4269SOL    HW316843   0.080   5.106   4.290 -0.5943  0.3931  0.2979
 4269SOL    MW416844   0.116   5.182   4.314 -0.2117  0.3042  0.0162
 4270SOL     OW16845   0.744   3.197   0.618  0.5502 -0.1447  0.8152
 4270SOL    HW216846   0.684   3.225   0.549  1.8332 -0.6320 -0.5614
 4270SOL    HW316847   0.762   3.276   0.669  3.1628  1.4550 -2.2427
 4270SOL    MW416848   0.739   3.211   0.616  1.0642  0.0020  0.2301
 4271SOL     OW16849   3.960   3.704   5.217 -0.5930 -0.3975  0.0912
 4271SOL    HW216850   3.956   3.679   5.309 -0.0786  2.0565  0.8565
 4271SOL    HW316851   3.940   3.623   5.169  0.3521 -2.0430  2.2951
 4271SOL    MW416852   3.957   3.690   5.223 -0.4004 -0.2908  0.4829
 4272SOL     OW16853   5.909   5.389   2.013  0.3052 -0.1547 -0.1394
 4272SOL    HW216854   5.974   5.457   2.028 -0.7835  0.6470  1.3543
 4272SOL    HW316855   5.870   5.410   1.928  0.2554  0.8688  0.1296
 4272SOL    MW416856   5.912   5.400   2.004  0.1550  0.0861  0.0932
 4273SOL     OW16857   2.910   6.074   2.338 -0.1336  0.1950  0.1494
 4273SOL    HW216858   2.970   6.000   2.346  0.9353  0.9774 -0.5725
 4273SOL    HW316859   2.964   6.151   2.350 -0.9812  0.9258 -0.5952
 4273SOL    MW416860   2.925   6.074   2.341 -0.1044  0.3947 -0.0441
 4274SOL     OW16861   5.469   0.293   5.060  0.0555  0.7869 -0.0074
 4274SOL    HW216862   5.489   0.296   4.967  1.8621  2.7308  0.3682
 4274SOL    HW316863   5.392   0.236   5.066  0.1104  0.3059 -2.6113
 4274SOL    MW416864   5.462   0.286   5.049  0.3011  0.9799 -0.3014
 4275SOL     OW16865   1.609   1.954   4.726 -0.0085 -0.2485 -0.1551
 4275SOL    HW216866   1.533   1.896   4.725 -0.1272 -0.1473  1.3380
 4275SOL    HW316867   1.633   1.964   4.633 -0.3973 -2.0979 -0.4796
 4275SOL    MW416868   1.602   1.948   4.713 -0.0755 -0.4792 -0.0009
 4276SOL     OW16869   4.494   4.475   3.686  0.1130  0.1383 -0.1318
 4276SOL    HW216870   4.490   4.510   3.775 -0.0861 -0.5289  0.1335
 4276SOL    HW316871   4.517   4.550   3.631 -2.0189  1.0707  0.1663
 4276SOL    MW416872   4.497   4.489   3.691 -0.1945  0.1733 -0.0575
 4277SOL     OW16873   0.392   1.079   2.476 -0.2580  0.2473 -0.3508
 4277SOL    HW216874   0.382   0.997   2.428  1.0371 -0.0924 -0.0948
 4277SOL    HW316875   0.470   1.120   2.438  1.0531 -0.2277  1.6681
 4277SOL    MW416876   0.401   1.074   2.465  0.0859  0.1398 -0.0506
 4278SOL     OW16877   6.379   4.372   0.971 -0.2857 -0.0879 -0.0891
 4278SOL    HW216878   6.312   4.437   0.950 -1.7357 -1.1569  0.9881
 4278SOL    HW316879   6.419   4.351   0.887 -1.3852  0.4983 -0.7895
 4278SOL    MW416880   6.375   4.378   0.957 -0.6221 -0.1516 -0.0394
 4279SOL     OW16881   3.581   4.747   5.141 -0.6663  0.4710  0.2959
 4279SOL    HW216882   3.586   4.688   5.216  0.9825  0.0803 -0.0745
 4279SOL    HW316883   3.666   4.738   5.097 -1.9917 -0.2920 -2.3690
 4279SOL    MW416884   3.593   4.738   5.145 -0.6236  0.3188 -0.1045
 4280SOL     OW16885   3.930   2.083   2.498  0.6367  0.9803 -0.3398
 4280SOL    HW216886   3.913   1.990   2.487  0.0741  0.8774  1.1359
 4280SOL    HW316887   4.024   2.093   2.481  0.8752 -0.0099  0.3445
 4280SOL    MW416888   3.940   2.072   2.494  0.5940  0.8361 -0.0548
 4281SOL     OW16889   6.007   5.128   2.034  0.0950 -0.5207  0.2873
 4281SOL    HW216890   5.960   5.207   2.007  0.2229 -0.8525 -0.9793
 4281SOL    HW316891   5.965   5.101   2.116 -1.5224 -0.4565 -0.4816
 4281SOL    MW416892   5.995   5.135   2.042 -0.1015 -0.5560  0.0187
 4282SOL     OW16893   0.654   5.522   1.597  0.0767 -0.0454  0.2349
 4282SOL    HW216894   0.627   5.433   1.619 -0.3809  0.3397  1.2542
 4282SOL    HW316895   0.724   5.510   1.532 -0.7282 -1.1113 -0.4669
 4282SOL    MW416896   0.660   5.509   1.591 -0.0899 -0.1352  0.2768
 4283SOL     OW16897   5.729   2.436   2.910 -0.5216  0.2765  0.0872
 4283SOL    HW216898   5.801   2.420   2.970  0.1707 -1.7321 -1.1961
 4283SOL    HW316899   5.770   2.471   2.831 -0.8229 -1.3134 -0.8278
 4283SOL    MW416900   5.744   2.438   2.907 -0.4700 -0.1983 -0.2028
 4284SOL     OW16901   1.964   4.031   6.412 -0.6814  0.2883  0.1186
 4284SOL    HW216902   2.045   4.082   6.410 -0.0981 -0.6405 -0.3083
 4284SOL    HW316903   1.898   4.089   6.374 -0.2538  1.1017  0.5897
 4284SOL    MW416904   1.966   4.045   6.407 -0.5480  0.2731  0.1244
 4285SOL     OW16905   3.337   5.094   0.937 -0.4095 -0.4739  0.1544
 4285SOL    HW216906   3.405   5.152   0.971  1.0307 -2.0003  0.0114
 4285SOL    HW316907   3.281   5.075   1.013  0.4831 -0.7460  0.7561
 4285SOL    MW416908   3.339   5.099   0.952 -0.1017 -0.7112  0.2149
 4286SOL     OW16909   4.839   5.824   3.236 -0.2425 -0.4687 -0.2246
 4286SOL    HW216910   4.756   5.789   3.202 -0.4262  0.7784 -1.1490
 4286SOL    HW316911   4.886   5.852   3.157  1.1647 -1.3420  0.2711
 4286SOL    MW416912   4.834   5.823   3.221 -0.0811 -0.4194 -0.2811
 4287SOL     OW16913   3.476   4.448   0.826 -0.2103  0.0245  0.2857
 4287SOL    HW216914   3.439   4.527   0.787  0.1206  0.0589  0.0376
 4287SOL    HW316915   3.407   4.382   0.815  0.1147 -0.1405 -0.9658
 4287SOL    MW416916   3.462   4.450   0.819 -0.1238  0.0073  0.0879
 4288SOL     OW16917   3.449   0.248   5.270  0.2692 -0.0938 -0.5800
 4288SOL    HW216918   3.542   0.245   5.293  0.7999  3.1573 -1.7550
 4288SOL    HW316919   3.409   0.300   5.339 -0.8051 -1.7070  0.0664
 4288SOL    MW416920   3.456   0.255   5.282  0.1975  0.1223 -0.6497
 4289SOL     OW16921   1.305   1.697   0.167  0.1765  0.0242  0.0272
 4289SOL    HW216922   1.391   1.659   0.184  0.3422 -0.0417 -0.8900
 4289SOL    HW316923   1.293   1.688   0.072 -0.9256 -0.1461  0.1647
 4289SOL    MW416924   1.315   1.690   0.156  0.0530 -0.0070 -0.0756
 4290SOL     OW16925   5.624   2.357   1.922  0.5355  0.7257 -0.4222
 4290SOL    HW216926   5.698   2.385   1.868 -0.1456  0.8359 -1.3346
 4290SOL    HW316927   5.623   2.419   1.995  1.8355  0.2086  0.0566
 4290SOL    MW416928   5.634   2.369   1.924  0.6172  0.6720 -0.4794
 4291SOL     OW16929   2.313   6.356   5.945 -0.3688 -0.2202  0.6258
 4291SOL    HW216930   2.361   6.307   5.879 -1.7270 -0.3938 -0.2849
 4291SOL    HW316931   2.270   6.426   5.895 -1.4311 -0.3707  1.3130
 4291SOL    MW416932   2.314   6.359   5.929 -0.6882 -0.2629  0.5963
 4292SOL     OW16933   1.369   2.616   3.866  0.1647 -0.4066  0.9892
 4292SOL    HW216934   1.275   2.620   3.848  0.2955  0.6370  0.4163
 4292SOL    HW316935   1.402   2.548   3.807 -0.2098 -0.6684  1.0798
 4292SOL    MW416936   1.361   2.608   3.856  0.1325 -0.3034  0.9256
 4293SOL     OW16937   3.473   2.221   3.651 -0.3665  0.0064  0.0261
 4293SOL    HW216938   3.421   2.149   3.615 -0.3949 -0.5830  1.1829
 4293SOL    HW316939   3.546   2.231   3.590  0.5374 -2.1165  0.6720
 4293SOL    MW416940   3.476   2.212   3.638 -0.2510 -0.3515  0.2640
 4294SOL     OW16941   1.563   3.025   1.171 -0.4348 -0.5779  0.2125
 4294SOL    HW216942   1.641   2.976   1.145 -0.3424 -0.6890  0.6840
 4294SOL    HW316943   1.596   3.105   1.210 -0.5131 -1.0924  1.3723
 4294SOL    MW416944   1.577   3.029   1.173 -0.4329 -0.6605  0.4277
 4295SOL     OW16945   1.785   4.605   4.060 -0.5487 -1.0018 -0.5747
 4295SOL    HW216946   1.714   4.573   4.117 -0.7118  1.0732  0.5048
 4295SOL    HW316947   1.744   4.615   3.974 -1.3576 -0.6546 -0.1642
 4295SOL    MW416948   1.770   4.602   4.057 -0.6770 -0.6822 -0.3782
 4296SOL     OW16949   4.936   2.304   6.033  0.1743 -0.1704  0.2099
 4296SOL    HW216950   4.862   2.271   5.981  0.5738 -2.0887  0.7616
 4296SOL    HW316951   4.932   2.252   6.114  1.0083  1.0463  1.0574
 4296SOL    MW416952   4.925   2.292   6.037  0.3370 -0.2630  0.3945
 4297SOL     OW16953   3.886   0.961   3.169 -0.0660  0.1753 -0.3025
 4297SOL    HW216954   3.817   0.990   3.108  0.2325 -1.7307 -1.6481
 4297SOL    HW316955   3.921   0.881   3.129 -0.5685 -1.8229  2.9037
 4297SOL    MW416956   3.881   0.954   3.155 -0.0929 -0.3398 -0.0570
 4298SOL     OW16957   4.068   2.991   0.906  0.3828 -0.2234 -0.1798
 4298SOL    HW216958   4.107   3.069   0.944  0.9058 -0.4066 -0.3308
 4298SOL    HW316959   3.983   3.020   0.872 -0.2675 -0.1412  1.4634
 4298SOL    MW416960   4.062   3.005   0.906  0.3660 -0.2367  0.0171
 4299SOL     OW16961   0.734   0.220   2.342 -0.0974 -0.3023  0.1090
 4299SOL    HW216962   0.787   0.250   2.268  1.9757 -3.1273  0.2785
 4299SOL    HW316963   0.644   0.240   2.317  0.6484  0.0408 -2.5748
 4299SOL    MW416964   0.729   0.227   2.329  0.2745 -0.6298 -0.2227
 4300SOL     OW16965   1.165   1.832   1.033  0.3895 -0.2658 -0.0585
 4300SOL    HW216966   1.165   1.825   0.937  0.2428 -0.5951 -0.0375
 4300SOL    HW316967   1.228   1.901   1.052 -0.5708  0.7332 -0.4498
 4300SOL    MW416968   1.173   1.840   1.023  0.2435 -0.1774 -0.1074
 4301SOL     OW16969   1.699   3.495   3.289 -0.0839  0.0655 -0.2333
 4301SOL    HW216970   1.723   3.575   3.336 -1.2636  1.1185 -1.3423
 4301SOL    HW316971   1.772   3.434   3.306  1.9912  2.1317 -1.1644
 4301SOL    MW416972   1.712   3.497   3.298  0.0342  0.4771 -0.5024
 4302SOL     OW16973   5.892   4.295   1.360  0.6180 -0.6746  0.1453
 4302SOL    HW216974   5.982   4.314   1.389  0.7774  0.0368 -0.7651
 4302SOL    HW316975   5.844   4.376   1.376  0.2963 -0.8350  0.0054
 4302SOL    MW416976   5.898   4.308   1.366  0.5966 -0.6019  0.0067
 4303SOL     OW16977   6.180   1.426   2.511  0.8389  0.0236 -0.1634
 4303SOL    HW216978   6.191   1.467   2.597 -0.5806  0.7978 -0.3299
 4303SOL    HW316979   6.126   1.349   2.528  1.4018 -0.3915 -0.2247
 4303SOL    MW416980   6.174   1.421   2.525  0.7259  0.0710 -0.1934
 4304SOL     OW16981   2.417   0.982   3.852  0.1312  0.0614 -0.0952
 4304SOL    HW216982   2.404   0.889   3.873  0.9865 -0.0506 -0.0225
 4304SOL    HW316983   2.502   0.985   3.807  0.0880  0.7973 -0.1430
 4304SOL    MW416984   2.427   0.970   3.849  0.2384  0.1437 -0.0919
 4305SOL     OW16985   3.678   4.489   2.035 -0.5722 -0.6569  0.5228
 4305SOL    HW216986   3.698   4.452   2.120  0.3451 -0.2579  0.4905
 4305SOL    HW316987   3.758   4.476   1.984 -0.5957  0.4345  0.1938
 4305SOL    MW416988   3.691   4.482   2.039 -0.4543 -0.4603  0.4751
 4306SOL     OW16989   1.269   3.654   0.328  0.2672 -0.2798  0.4827
 4306SOL    HW216990   1.212   3.680   0.255  1.9947 -0.2984 -0.9546
 4306SOL    HW316991   1.231   3.572   0.360 -1.6290  0.7084  0.9161
 4306SOL    MW416992   1.256   3.647   0.322  0.2449 -0.1518  0.3503
 4307SOL     OW16993   4.442   4.491   5.572  0.5088 -0.4252 -0.3355
 4307SOL    HW216994   4.367   4.546   5.595  1.1642  0.1728  0.3986
 4307SOL    HW316995   4.409   4.402   5.579  0.1503 -0.2062  1.0812
 4307SOL    MW416996   4.428   4.487   5.576  0.5479 -0.3174 -0.0517
 4308SOL     OW16997   1.345   4.452   2.259  0.3440  0.0759  0.2293
 4308SOL    HW216998   1.351   4.371   2.309 -0.6891 -0.4559 -0.4587
 4308SOL    HW316999   1.411   4.510   2.297  1.2382 -1.1562  0.6056
 4308SOL    MW417000   1.354   4.449   2.270  0.3257 -0.1568  0.1882
 4309SOL     OW17001   5.472   0.859   0.699  0.3012 -0.0600  0.2278
 4309SOL    HW217002   5.461   0.951   0.675  0.5158 -0.1380 -0.1675
 4309SOL    HW317003   5.397   0.814   0.659  0.1499 -0.0450  0.4926
 4309SOL    MW417004   5.461   0.865   0.691  0.3096 -0.0683  0.2106
 4310SOL     OW17005   5.011   0.890   0.069 -0.9321 -0.2535 -0.6888
 4310SOL    HW217006   5.078   0.927   0.126 -2.0219  1.5706 -0.4918
 4310SOL    HW317007   5.054   0.818   0.024  1.7457  1.9773 -1.9774
 4310SOL    MW417008   5.025   0.885   0.071 -0.7226  0.2815 -0.8328
 4311SOL     OW17009   0.567   0.307   1.763 -0.3202  0.1434 -0.1710
 4311SOL    HW217010   0.582   0.278   1.673  0.9620 -0.4823  0.2317
 4311SOL    HW317011   0.570   0.227   1.815 -0.5053  0.5646  0.5018
 4311SOL    MW417012   0.569   0.293   1.758 -0.1755  0.1164 -0.0291
 4312SOL     OW17013   0.195   3.741   2.626  0.4318 -0.2106 -0.0816
 4312SOL    HW217014   0.230   3.787   2.702  0.6331 -1.2528  0.4730
 4312SOL    HW317015   0.273   3.713   2.578  0.3318 -0.8884  0.1470
 4312SOL    MW417016   0.210   3.744   2.630  0.4451 -0.4375  0.0217
 4313SOL     OW17017   2.873   2.530   3.746 -0.2764 -0.1626  0.2393
 4313SOL    HW217018   2.864   2.599   3.680 -0.0994 -0.7407 -0.4041
 4313SOL    HW317019   2.966   2.532   3.770  0.1942 -1.4663 -1.2585
 4313SOL    MW417020   2.884   2.539   3.740 -0.1910 -0.4109 -0.0432
 4314SOL     OW17021   2.907   5.724   5.612  0.0152  0.5022  0.2600
 4314SOL    HW217022   3.000   5.703   5.619  0.0815  0.5244 -0.5368
 4314SOL    HW317023   2.863   5.653   5.658  0.4863  1.2956  2.0300
 4314SOL    MW417024   2.914   5.712   5.619  0.0861  0.6098  0.3884
 4315SOL     OW17025   3.223   4.865   2.068  0.0031  0.1514  0.3261
 4315SOL    HW217026   3.242   4.911   2.149 -1.2079 -0.5864  1.0584
 4315SOL    HW317027   3.138   4.824   2.083 -0.8574  1.0388 -1.7759
 4315SOL    MW417028   3.214   4.866   2.080 -0.2702  0.1712  0.1454
 4316SOL     OW17029   1.325   3.998   2.660  0.3771  0.3107 -0.0505
 4316SOL    HW217030   1.238   4.005   2.699  0.9169  1.4979  1.0279
 4316SOL    HW317031   1.317   3.927   2.596 -1.4394  0.5833 -0.1759
 4316SOL    MW417032   1.313   3.989   2.657  0.2086  0.5033  0.0753
 4317SOL     OW17033   4.765   1.949   4.253  0.3186  0.9082 -0.1634
 4317SOL    HW217034   4.777   2.018   4.319 -0.0207  0.4114  0.4266
 4317SOL    HW317035   4.709   1.989   4.187 -0.4671  0.9891  0.5246
 4317SOL    MW417036   4.759   1.964   4.253  0.1702  0.8533  0.0052
 4318SOL     OW17037   3.784   2.148   3.528  0.2825  0.2723  0.0087
 4318SOL    HW217038   3.765   2.078   3.464  0.4669 -0.4887  0.7669
 4318SOL    HW317039   3.807   2.224   3.474 -0.2329 -0.1599 -0.8404
 4318SOL    MW417040   3.785   2.148   3.512  0.2388  0.1148 -0.0033
 4319SOL     OW17041   1.241   6.255   1.855  0.0363 -0.1773 -0.2091
 4319SOL    HW217042   1.248   6.350   1.852 -1.0085 -0.1113 -2.6480
 4319SOL    HW317043   1.180   6.238   1.927  1.6203  0.8251  1.4545
 4319SOL    MW417044   1.234   6.265   1.864  0.1075 -0.0364 -0.3114
 4320SOL     OW17045   2.854   1.357   5.410  0.1680 -0.1804 -0.3427
 4320SOL    HW217046   2.832   1.288   5.472  0.4612 -0.4871 -0.5800
 4320SOL    HW317047   2.948   1.369   5.419  0.0173  0.7170  0.2391
 4320SOL    MW417048   2.863   1.349   5.419  0.1868 -0.1025 -0.2972
 4321SOL     OW17049   4.526   4.504   2.607 -0.0615  0.2395 -0.1262
 4321SOL    HW217050   4.457   4.508   2.674 -0.2276  0.9991 -0.3256
 4321SOL    HW317051   4.580   4.430   2.632 -1.3606 -0.8220 -0.3587
 4321SOL    MW417052   4.524   4.495   2.619 -0.2548  0.1997 -0.1832
 4322SOL     OW17053   0.666   5.171   2.627  0.3489 -0.0612  1.2796
 4322SOL    HW217054   0.637   5.163   2.718  0.0629  1.1252  1.3082
 4322SOL    HW317055   0.693   5.082   2.603  0.3559 -0.4127  2.4921
 4322SOL    MW417056   0.666   5.158   2.636  0.3121  0.0489  1.4433
 4323SOL     OW17057   0.278   5.162   2.688 -0.6697  0.0016 -0.0803
 4323SOL    HW217058   0.219   5.236   2.678 -0.3443  0.1655 -0.8535
 4323SOL    HW317059   0.245   5.097   2.626 -0.6761 -0.3279  0.2622
 4323SOL    MW417060   0.266   5.163   2.678 -0.6276 -0.0202 -0.1371
 4324SOL     OW17061   2.304   1.058   4.121 -0.5586  0.0416  0.1861
 4324SOL    HW217062   2.345   1.052   4.035 -1.2413 -1.7406 -0.0661
 4324SOL    HW317063   2.372   1.095   4.178 -0.0070  0.9631 -1.0411
 4324SOL    MW417064   2.318   1.062   4.117 -0.5759 -0.0720 -0.0091
 4325SOL     OW17065   2.528   1.915   0.742  0.2586  0.0490  0.5462
 4325SOL    HW217066   2.435   1.896   0.733  0.2410  0.8078 -1.1574
 4325SOL    HW317067   2.572   1.841   0.701  0.2948  1.1129 -1.4633
 4325SOL    MW417068   2.522   1.903   0.735  0.2610  0.2895  0.0563
 4326SOL     OW17069   0.033   0.290   6.052 -0.8223 -0.0316  0.0278
 4326SOL    HW217070  -0.021   0.362   6.021 -0.6244 -0.5418 -1.5961
 4326SOL    HW317071   0.063   0.247   5.972  2.3541  0.4718  0.8440
 4326SOL    MW417072   0.030   0.294   6.037 -0.3771 -0.0325 -0.0787
 4327SOL     OW17073   4.253   4.089   5.374  0.2235 -0.4532 -0.5929
 4327SOL    HW217074   4.177   4.141   5.348  0.4491 -0.0576 -0.4740
 4327SOL    HW317075   4.304   4.079   5.294 -0.1412 -1.0463 -0.7572
 4327SOL    MW417076   4.250   4.094   5.360  0.2052 -0.4793 -0.5989
 4328SOL     OW17077   1.914   6.400   5.330 -0.0448  0.4287 -0.4230
 4328SOL    HW217078   1.958   6.339   5.270  0.4925  0.5415 -0.1492
 4328SOL    HW317079   1.978   6.415   5.400 -0.5453  0.5444  0.0161
 4328SOL    MW417080   1.928   6.394   5.331 -0.0400  0.4588 -0.3289
 4329SOL     OW17081   2.427   1.302   3.105  0.0859  0.0044  0.6037
 4329SOL    HW217082   2.519   1.286   3.124 -0.3388  0.3772  3.4283
 4329SOL    HW317083   2.387   1.319   3.191 -2.5869  0.0158 -0.5306
 4329SOL    MW417084   2.434   1.302   3.119 -0.3228  0.0551  0.8267
 4330SOL     OW17085   6.244   5.678   3.828 -0.0742  0.2460  0.1800
 4330SOL    HW217086   6.299   5.614   3.873 -0.9024 -0.8638 -0.3380
 4330SOL    HW317087   6.191   5.717   3.898  0.4398  0.3667  0.5031
 4330SOL    MW417088   6.244   5.675   3.843 -0.1156  0.1155  0.1543
 4331SOL     OW17089   3.140   4.791   0.801  0.0044 -0.7117  0.0656
 4331SOL    HW217090   3.140   4.845   0.722 -0.5258 -1.4707 -0.4708
 4331SOL    HW317091   3.153   4.853   0.873 -1.0583  0.1932 -0.4930
 4331SOL    MW417092   3.142   4.806   0.800 -0.2058 -0.6925 -0.0789
 4332SOL     OW17093   3.255   0.305   0.288  0.0146 -0.3211 -0.1860
 4332SOL    HW217094   3.171   0.343   0.263  0.8532  0.7736 -1.4668
 4332SOL    HW317095   3.237   0.211   0.295 -0.9164 -0.3586 -2.3707
 4332SOL    MW417096   3.241   0.297   0.286  0.0024 -0.1816 -0.6432
 4333SOL     OW17097   0.858   0.834   4.357  0.1941  0.4283 -0.5665
 4333SOL    HW217098   0.947   0.807   4.336 -0.2987 -0.7898 -1.1692
 4333SOL    HW317099   0.847   0.813   4.449 -0.2608 -1.8138 -1.0644
 4333SOL    MW417100   0.868   0.828   4.366  0.0690 -0.0282 -0.7117
 4334SOL     OW17101   0.142   3.956   0.278  0.1021  0.2729 -0.5363
 4334SOL    HW217102   0.215   3.916   0.231 -0.7504 -1.6001 -0.3405
 4334SOL    HW317103   0.073   3.965   0.213 -0.2585 -0.0678 -0.2051
 4334SOL    MW417104   0.143   3.952   0.263 -0.0579 -0.0192 -0.4668
 4335SOL     OW17105   3.821   4.750   2.378 -0.1547 -0.2697  0.2462
 4335SOL    HW217106   3.791   4.827   2.426 -0.9958 -0.8639  0.7115
 4335SOL    HW317107   3.900   4.721   2.424  0.9137  1.0416 -0.7010
 4335SOL    MW417108   3.827   4.756   2.390 -0.1247 -0.1751  0.1826
 4336SOL     OW17109   5.621   1.213   1.290 -0.4285  0.0585 -0.3392
 4336SOL    HW217110   5.689   1.192   1.227  0.0504  0.9436 -0.1287
 4336SOL    HW317111   5.627   1.142   1.355  0.7794  0.4957  0.0585
 4336SOL    MW417112   5.631   1.201   1.291 -0.2060  0.2329 -0.2590
 4337SOL     OW17113   3.488   3.428   2.396  0.0823 -0.1344 -0.2800
 4337SOL    HW217114   3.512   3.517   2.422 -2.2655  0.6066 -0.3923
 4337SOL    HW317115   3.404   3.413   2.439 -0.2714 -1.7376 -1.4475
 4337SOL    MW417116   3.480   3.438   2.405 -0.2741 -0.2482 -0.4489
 4338SOL     OW17117   6.107   5.146   1.144  0.3986  0.7467 -0.3390
 4338SOL    HW217118   6.103   5.063   1.191 -0.0115  1.5849  1.1833
 4338SOL    HW317119   6.201   5.158   1.126  0.6359  0.6092  0.7058
 4338SOL    MW417120   6.119   5.137   1.148  0.3758  0.8391 -0.0003
 4339SOL     OW17121   3.370   3.068   3.382  0.0218  0.9876 -0.6981
 4339SOL    HW217122   3.453   3.101   3.349 -0.1311 -0.9031 -3.2466
 4339SOL    HW317123   3.390   2.983   3.421 -0.5383  1.0676 -0.2102
 4339SOL    MW417124   3.383   3.061   3.383 -0.0722  0.7487 -0.9700
 4340SOL     OW17125   3.630   0.521   2.768 -0.0137 -0.1108  0.0877
 4340SOL    HW217126   3.696   0.564   2.713 -0.5862 -0.0824 -0.5885
 4340SOL    HW317127   3.548   0.564   2.746 -0.3618 -0.5556  0.4834
 4340SOL    MW417128   3.628   0.532   2.758 -0.1352 -0.1657  0.0507
 4341SOL     OW17129   6.138   3.036   2.113  0.1996 -0.1895 -0.4859
 4341SOL    HW217130   6.108   3.003   2.198 -0.4138 -1.2280 -1.0884
 4341SOL    HW317131   6.205   3.101   2.135  0.0528 -0.4456  0.7869
 4341SOL    MW417132   6.143   3.040   2.127  0.0993 -0.3603 -0.3975
 4342SOL     OW17133   5.556   5.521   0.577  0.1002  0.2621  0.3892
 4342SOL    HW217134   5.491   5.540   0.510  0.7681  0.9538 -0.0836
 4342SOL    HW317135   5.545   5.590   0.643  1.1247  1.1016 -0.2838
 4342SOL    MW417136   5.546   5.533   0.577  0.3235  0.4642  0.2380
 4343SOL     OW17137   3.362   0.465   2.351  0.2088 -0.0079  0.0340
 4343SOL    HW217138   3.299   0.398   2.326 -0.8169  0.1995  1.9276
 4343SOL    HW317139   3.384   0.509   2.269  0.5965 -2.3603 -1.1913
 4343SOL    MW417140   3.357   0.462   2.337  0.1247 -0.2909  0.1222
 4344SOL     OW17141   4.593   2.047   2.399 -0.2656  0.2062  0.5483
 4344SOL    HW217142   4.608   2.023   2.491  0.3961  0.5607  0.5397
 4344SOL    HW317143   4.553   1.969   2.361 -0.1311 -0.1074  1.0306
 4344SOL    MW417144   4.590   2.033   2.406 -0.1605  0.2116  0.6108
 4345SOL     OW17145   1.605   5.076   1.997  0.0261 -0.0027 -0.0581
 4345SOL    HW217146   1.569   5.059   2.084 -0.0691  2.1746  0.3788
 4345SOL    HW317147   1.528   5.080   1.940 -0.0897  0.6443  0.1409
 4345SOL    MW417148   1.590   5.074   2.001 -0.0018  0.3699  0.0258
 4346SOL     OW17149   2.192   0.603   5.069 -0.0037  0.0541 -0.3718
 4346SOL    HW217150   2.127   0.640   5.009 -0.1284 -0.6957 -0.7166
 4346SOL    HW317151   2.184   0.508   5.057 -0.0783 -0.1192  0.8805
 4346SOL    MW417152   2.182   0.595   5.060 -0.0300 -0.0677 -0.2520
 4347SOL     OW17153   0.794   5.220   3.215  0.0255 -0.0774  0.2595
 4347SOL    HW217154   0.874   5.169   3.225  0.6757  1.0602  1.1968
 4347SOL    HW317155   0.825   5.306   3.184 -1.0523 -0.2793 -1.5124
 4347SOL    MW417156   0.809   5.225   3.212 -0.0309  0.0461  0.1494
 4348SOL     OW17157   0.464   0.916   3.702  0.3449  0.1514  0.9973
 4348SOL    HW217158   0.539   0.888   3.755  1.9157  0.5604 -0.9050
 4348SOL    HW317159   0.455   0.847   3.636  0.1390  0.9482  0.1858
 4348SOL    MW417160   0.473   0.903   3.701  0.5250  0.3105  0.6392
 4349SOL     OW17161   6.260   4.488   4.386 -0.1115  0.2005  0.4724
 4349SOL    HW217162   6.222   4.402   4.367 -0.3567  0.5719 -0.8595
 4349SOL    HW317163   6.189   4.550   4.366  0.8372  0.8467 -1.1425
 4349SOL    MW417164   6.245   4.485   4.381 -0.0187  0.3348  0.0836
 4350SOL     OW17165   5.493   2.238   4.633 -0.5921  0.1348  0.6962
 4350SOL    HW217166   5.411   2.252   4.586 -0.3891 -0.1552  0.2439
 4350SOL    HW317167   5.469   2.184   4.708 -0.6141 -1.0877 -0.1637
 4350SOL    MW417168   5.479   2.233   4.637 -0.5682 -0.0647  0.5231
 4351SOL     OW17169   1.336   5.178   1.921  0.0663  0.5316  0.4682
 4351SOL    HW217170   1.310   5.268   1.942 -0.5290  0.2156  1.1243
 4351SOL    HW317171   1.253   5.131   1.912  0.3522  0.2782 -0.9437
 4351SOL    MW417172   1.321   5.184   1.923  0.0255  0.4565  0.3685
 4352SOL     OW17173   3.200   5.468   1.022 -0.0250  0.0438  0.0137
 4352SOL    HW217174   3.145   5.423   0.958  0.5959  0.0392 -0.5173
 4352SOL    HW317175   3.223   5.551   0.980 -3.2150  2.1437  1.8898
 4352SOL    MW417176   3.195   5.473   1.008 -0.3640  0.3203  0.1912
 4353SOL     OW17177   0.470   5.120   0.462  0.1484 -0.4731  0.3163
 4353SOL    HW217178   0.433   5.032   0.465  0.1597 -0.5304 -0.6421
 4353SOL    HW317179   0.437   5.164   0.540 -1.2397 -0.7894 -0.0795
 4353SOL    MW417180   0.461   5.114   0.472 -0.0332 -0.5224  0.1376
 4354SOL     OW17181   1.533   1.489   5.178  0.3235  0.1564  0.4147
 4354SOL    HW217182   1.614   1.519   5.219  1.7652 -2.1973 -0.4968
 4354SOL    HW317183   1.559   1.463   5.090 -1.8566  1.1607 -0.6049
 4354SOL    MW417184   1.547   1.490   5.172  0.2261 -0.0216  0.1599
 4355SOL     OW17185   2.653   1.451   3.361 -0.0804  0.1150 -0.1062
 4355SOL    HW217186   2.591   1.397   3.410 -1.0364  0.6949 -0.6451
 4355SOL    HW317187   2.599   1.517   3.318  0.7952 -0.0096 -1.4657
 4355SOL    MW417188   2.638   1.453   3.362 -0.0910  0.1751 -0.3567
 4356SOL     OW17189   5.544   4.149   4.419  0.3709 -0.1994 -0.2672
 4356SOL    HW217190   5.509   4.207   4.352  0.4628  0.7388  0.4772
 4356SOL    HW317191   5.599   4.205   4.474 -0.7301 -0.6436  1.3652
 4356SOL    MW417192   5.547   4.164   4.418  0.2378 -0.1342  0.0464
 4357SOL     OW17193   3.928   0.336   5.385 -0.5810 -0.0974 -0.1898
 4357SOL    HW217194   3.963   0.375   5.305 -1.4909  0.9616 -0.0947
 4357SOL    HW317195   3.976   0.254   5.395  0.8842  0.6524 -0.7960
 4357SOL    MW417196   3.939   0.330   5.376 -0.5078  0.1413 -0.2572
 4358SOL     OW17197   1.496   3.672   1.307 -0.0959  0.3647 -0.7222
 4358SOL    HW217198   1.563   3.738   1.328  1.3882 -1.2412 -0.2348
 4358SOL    HW317199   1.538   3.613   1.245 -0.4619 -1.6314  0.8457
 4358SOL    MW417200   1.510   3.673   1.302  0.0516 -0.1105 -0.4511
 4359SOL     OW17201   5.036   5.579   0.989 -0.2825 -0.0810  0.3193
 4359SOL    HW217202   5.117   5.600   1.035 -0.4249  0.2953  0.3982
 4359SOL    HW317203   4.970   5.573   1.057 -0.2609 -0.7283  0.2924
 4359SOL    MW417204   5.038   5.581   1.004 -0.2985 -0.1167  0.3262
 4360SOL     OW17205   6.285   5.022   4.351 -0.3912  0.0443 -0.1736
 4360SOL    HW217206   6.226   5.092   4.380 -1.7991 -1.4959  0.8659
 4360SOL    HW317207   6.266   4.949   4.410  0.4085 -1.5048 -1.7515
 4360SOL    MW417208   6.274   5.022   4.362 -0.4714 -0.3633 -0.2446
 4361SOL     OW17209   3.326   1.268   4.100 -0.5282 -0.0861 -0.1324
 4361SOL    HW217210   3.280   1.251   4.017  0.1985  0.0185 -0.5651
 4361SOL    HW317211   3.419   1.261   4.078 -0.3309 -2.0934  1.1043
 4361SOL    MW417212   3.332   1.265   4.086 -0.4063 -0.3372 -0.0263
 4362SOL     OW17213   3.946   2.983   0.536  0.4147  0.0575  0.0810
 4362SOL    HW217214   3.983   2.905   0.577 -0.7929 -0.2829  0.5718
 4362SOL    HW317215   3.880   2.949   0.475  1.1151  0.6296 -1.0135
 4362SOL    MW417216   3.942   2.968   0.533  0.3477  0.0880  0.0014
 4363SOL     OW17217   5.052   3.013   2.922 -0.3418  0.6047 -0.1513
 4363SOL    HW217218   4.991   2.939   2.921 -2.6518  2.3808 -0.0051
 4363SOL    HW317219   5.015   3.076   2.861  2.5094  1.0346 -1.6273
 4363SOL    MW417220   5.039   3.011   2.914 -0.2704  0.8958 -0.3267
 4364SOL     OW17221   3.359   2.387   0.009 -0.1831 -0.5637  0.1664
 4364SOL    HW217222   3.376   2.449   0.080  0.6572 -2.1567  1.4050
 4364SOL    HW317223   3.443   2.346  -0.008 -0.4161 -0.3681 -1.6514
 4364SOL    MW417224   3.372   2.390   0.016 -0.1029 -0.7481  0.0900
 4365SOL     OW17225   3.604   5.982   2.164  0.1752  0.4376 -0.4788
 4365SOL    HW217226   3.607   5.977   2.260  0.3422  0.3931 -0.4867
 4365SOL    HW317227   3.520   5.942   2.141  0.6161 -0.5428 -0.4217
 4365SOL    MW417228   3.593   5.976   2.174  0.2554  0.3024 -0.4723
 4366SOL     OW17229   2.516   0.481   1.447  0.1318 -0.3779  0.3146
 4366SOL    HW217230   2.487   0.435   1.527  1.0002 -1.5308 -0.0052
 4366SOL    HW317231   2.435   0.514   1.408 -0.2478  0.9330  2.0766
 4366SOL    MW417232   2.502   0.479   1.453  0.1963 -0.3571  0.5049
 4367SOL     OW17233   5.383   3.100   1.097 -0.0166 -0.5852 -0.3722
 4367SOL    HW217234   5.477   3.118   1.099 -0.0081 -0.4451  2.2441
 4367SOL    HW317235   5.347   3.166   1.038  1.2386  1.4115  0.9529
 4367SOL    MW417236   5.390   3.111   1.090  0.1501 -0.3033  0.1478
 4368SOL     OW17237   5.593   5.786   2.411  0.1827 -0.6428  0.1506
 4368SOL    HW217238   5.678   5.788   2.366 -0.2037  1.5022 -0.6191
 4368SOL    HW317239   5.596   5.860   2.471 -1.3393 -0.1490 -0.3203
 4368SOL    MW417240   5.605   5.796   2.413 -0.0691 -0.2946 -0.0131
 4369SOL     OW17241   2.911   5.083   0.468 -0.6057 -0.1057 -0.0116
 4369SOL    HW217242   2.826   5.088   0.512 -0.8877 -1.6992 -0.3046
 4369SOL    HW317243   2.909   5.155   0.404 -1.1072  0.8063  0.9973
 4369SOL    MW417244   2.900   5.093   0.465 -0.7091 -0.1956  0.0828
 4370SOL     OW17245   1.963   1.054   5.615 -0.7915 -0.4366 -0.2013
 4370SOL    HW217246   1.957   1.134   5.666  0.6228 -0.4395  0.0083
 4370SOL    HW317247   1.987   0.987   5.679  0.1560 -0.6052 -0.7189
 4370SOL    MW417248   1.965   1.055   5.631 -0.4799 -0.4592 -0.2420
 4371SOL     OW17249   3.341   1.014   5.312  0.3305  0.0756  0.0236
 4371SOL    HW217250   3.357   1.108   5.311  0.9886 -0.0341 -0.0673
 4371SOL    HW317251   3.368   0.986   5.400  0.6611 -0.1115 -0.1342
 4371SOL    MW417252   3.347   1.023   5.324  0.4610  0.0365 -0.0092
 4372SOL     OW17253   5.749   2.780   0.533  0.2912 -0.3763 -0.1921
 4372SOL    HW217254   5.803   2.738   0.466  1.6535 -0.6889  1.0294
 4372SOL    HW317255   5.737   2.713   0.600  1.0214  0.6077  0.9799
 4372SOL    MW417256   5.755   2.766   0.533  0.5673 -0.2877  0.1237
 4373SOL     OW17257   2.163   4.870   6.129 -0.0910  0.3039 -0.1054
 4373SOL    HW217258   2.078   4.837   6.099 -1.4493  0.6099  3.0403
 4373SOL    HW317259   2.195   4.802   6.188  1.9837  0.1619 -1.2842
 4373SOL    MW417260   2.156   4.856   6.133  0.0035  0.3256  0.1541
 4374SOL     OW17261   2.874   4.153   1.122 -0.3205  0.0315  0.2245
 4374SOL    HW217262   2.907   4.078   1.171 -1.8941  0.4765  2.0460
 4374SOL    HW317263   2.783   4.132   1.102 -0.1991  0.5946 -1.0806
 4374SOL    MW417264   2.866   4.141   1.126 -0.5121  0.1645  0.2926
 4375SOL     OW17265   4.658   1.826   5.091  0.6183 -0.2181 -0.8233
 4375SOL    HW217266   4.645   1.919   5.074  1.8835 -0.3209 -2.5837
 4375SOL    HW317267   4.588   1.783   5.044 -0.9226 -0.1490  1.2638
 4375SOL    MW417268   4.647   1.833   5.083  0.5819 -0.2225 -0.7802
 4376SOL     OW17269   4.896   6.237   6.066 -0.1741  0.6167 -0.1830
 4376SOL    HW217270   4.890   6.141   6.062  0.5063  0.5730 -0.3081
 4376SOL    HW317271   4.805   6.267   6.063 -0.3595  0.0099 -1.2712
 4376SOL    MW417272   4.883   6.228   6.065 -0.1088  0.5309 -0.3430
 4377SOL     OW17273   0.303   6.049   1.585 -0.5383  0.9450 -0.5260
 4377SOL    HW217274   0.223   5.998   1.595  1.6138 -2.3465  2.2311
 4377SOL    HW317275   0.329   6.072   1.674  1.4772  2.0843 -1.3243
 4377SOL    MW417276   0.296   6.045   1.598  0.0115  0.6610 -0.2675
 4378SOL     OW17277   3.711   0.568   6.266 -0.0147  0.2441  0.8228
 4378SOL    HW217278   3.781   0.556   6.202  1.1396  1.0589  1.8727
 4378SOL    HW317279   3.696   0.480   6.302 -0.5445 -0.1842 -0.4002
 4378SOL    MW417280   3.718   0.555   6.263  0.0677  0.2951  0.8000
 4379SOL     OW17281   0.773   2.717   3.525  0.2935  0.4398  0.3401
 4379SOL    HW217282   0.857   2.674   3.543  0.3677  0.6588  0.5222
 4379SOL    HW317283   0.741   2.675   3.445  0.5194  0.2709  0.3379
 4379SOL    MW417284   0.780   2.706   3.516  0.3331  0.4464  0.3638
 4380SOL     OW17285   3.505   6.013   3.796 -0.0181  0.0055  0.9790
 4380SOL    HW217286   3.454   5.964   3.733 -0.2425 -0.5022  1.5466
 4380SOL    HW317287   3.571   6.060   3.744  0.3643 -1.0981  0.4531
 4380SOL    MW417288   3.507   6.013   3.781  0.0028 -0.2071  0.9845
 4381SOL     OW17289   4.988   2.995   6.360 -0.2497 -0.4869  0.4489
 4381SOL    HW217290   5.042   3.029   6.431 -0.3305 -0.1637  0.3573
 4381SOL    HW317291   4.966   2.906   6.387  1.3699 -1.0867 -0.0994
 4381SOL    MW417292   4.992   2.988   6.373 -0.0467 -0.5234  0.3645
 4382SOL     OW17293   0.863   3.674   0.831  0.2910  0.3389 -0.7856
 4382SOL    HW217294   0.931   3.640   0.773  0.8976 -1.5745  0.9193
 4382SOL    HW317295   0.839   3.599   0.886 -0.3837  2.0003  1.3057
 4382SOL    MW417296   0.869   3.659   0.830  0.2820  0.3057 -0.2848
 4383SOL     OW17297   3.095   5.967   4.645  0.0775  0.1905 -0.0401
 4383SOL    HW217298   3.086   6.060   4.664 -1.3441  0.0637  0.0442
 4383SOL    HW317299   3.149   5.933   4.716 -1.5432  0.5296  1.4397
 4383SOL    MW417300   3.101   5.975   4.657 -0.3239  0.2185  0.1663
 4384SOL     OW17301   2.019   5.239   2.698  0.4574  0.1583  0.0420
 4384SOL    HW217302   2.004   5.186   2.620 -0.1086  1.2437 -0.6046
 4384SOL    HW317303   2.005   5.178   2.771 -0.0365 -0.6182 -0.6859
 4384SOL    MW417304   2.015   5.224   2.698  0.3176  0.1991 -0.1394
 4385SOL     OW17305   2.870   0.820   2.763 -0.3944 -0.1937  0.0707
 4385SOL    HW217306   2.917   0.900   2.738  2.2269 -2.3687 -2.7289
 4385SOL    HW317307   2.929   0.776   2.825 -1.5409 -0.2954  1.1360
 4385SOL    MW417308   2.884   0.825   2.768 -0.1998 -0.4940 -0.1581
 4386SOL     OW17309   5.830   0.040   4.184 -0.2670 -0.1487  0.1309
 4386SOL    HW217310   5.799  -0.009   4.108 -1.6022 -0.9045  1.1161
 4386SOL    HW317311   5.865  -0.027   4.242  0.8654  0.4376  0.1380
 4386SOL    MW417312   5.830   0.025   4.182 -0.2937 -0.1711  0.2618
 4387SOL     OW17313   6.382   6.169   3.496  0.8273 -0.4295 -0.2990
 4387SOL    HW217314   6.454   6.115   3.526  1.0341  0.1716  0.3152
 4387SOL    HW317315   6.423   6.253   3.474  0.0295  0.8082  2.4745
 4387SOL    MW417316   6.397   6.173   3.497  0.7493 -0.1869  0.1480
 4388SOL     OW17317   1.925   4.535   4.423  0.2020  0.5614 -0.3001
 4388SOL    HW217318   1.984   4.549   4.497  0.9878 -0.2256 -0.7663
 4388SOL    HW317319   1.904   4.623   4.392  1.1808  0.8469 -0.1705
 4388SOL    MW417320   1.930   4.549   4.429  0.4348  0.4952 -0.3445
 4389SOL     OW17321   3.416   6.215   3.495  0.7132  0.4785  0.0927
 4389SOL    HW217322   3.389   6.270   3.422  2.6349  0.2494 -0.8467
 4389SOL    HW317323   3.410   6.126   3.460  1.9754  0.3896  0.0677
 4389SOL    MW417324   3.412   6.210   3.480  1.1333  0.4365 -0.0346
 4390SOL     OW17325   4.891   1.129   2.399  0.0909 -0.3526 -0.0194
 4390SOL    HW217326   4.850   1.205   2.440 -0.5155 -0.8685  0.3691
 4390SOL    HW317327   4.860   1.130   2.308 -1.4964 -1.1693  0.4553
 4390SOL    MW417328   4.881   1.139   2.393 -0.1985 -0.5284  0.0945
 4391SOL     OW17329   5.011   2.053   5.072  0.0398  0.7048  0.4945
 4391SOL    HW217330   5.105   2.052   5.087 -0.0541 -0.5274  1.1099
 4391SOL    HW317331   4.974   2.078   5.157 -0.1856  1.7115  0.1205
 4391SOL    MW417332   5.018   2.056   5.085 -0.0023  0.6750  0.5263
 4392SOL     OW17333   6.069   2.962   4.582 -0.1050  0.6925  0.5804
 4392SOL    HW217334   6.147   2.911   4.604 -0.5691 -0.0157  0.6125
 4392SOL    HW317335   6.012   2.952   4.658 -0.0838  1.5272  0.7225
 4392SOL    MW417336   6.072   2.954   4.595 -0.1634  0.7092  0.6033
 4393SOL     OW17337   0.469   3.769   0.841 -0.0300  0.0544 -0.1217
 4393SOL    HW217338   0.520   3.696   0.808  2.5283  1.0479  1.3367
 4393SOL    HW317339   0.530   3.819   0.895 -2.0792  2.4055  0.2307
 4393SOL    MW417340   0.484   3.766   0.843  0.0372  0.4957  0.1172
 4394SOL     OW17341   4.663   1.913   2.020  0.8636 -0.1592  0.4812
 4394SOL    HW217342   4.725   1.895   1.949  1.0305 -1.2815  0.8913
 4394SOL    HW317343   4.711   1.892   2.100 -0.2301 -1.7080  0.7843
 4394SOL    MW417344   4.677   1.908   2.021  0.7413 -0.5116  0.5753
 4395SOL     OW17345   2.784   1.681   5.047  0.5492 -0.1632 -0.1964
 4395SOL    HW217346   2.717   1.641   5.102  2.2914 -1.1140  1.3640
 4395SOL    HW317347   2.785   1.773   5.073  0.0147 -0.1839 -0.0840
 4395SOL    MW417348   2.775   1.687   5.057  0.7086 -0.2914  0.0243
 4396SOL     OW17349   2.385   1.339   3.390 -0.9183  0.9861 -0.3792
 4396SOL    HW217350   2.360   1.263   3.442 -1.2787  1.3680  0.0107
 4396SOL    HW317351   2.321   1.406   3.413 -0.0968  1.6809 -0.0825
 4396SOL    MW417352   2.374   1.338   3.400 -0.8575  1.1281 -0.2886
 4397SOL     OW17353   1.970   2.174   4.801  0.2175 -0.5054  0.1152
 4397SOL    HW217354   1.904   2.238   4.775  0.5290  0.2160  1.0393
 4397SOL    HW317355   1.972   2.111   4.729 -1.3608 -0.4569 -0.0142
 4397SOL    MW417356   1.961   2.174   4.788  0.0503 -0.4038  0.2201
 4398SOL     OW17357   2.548   3.422   3.497  0.3407 -0.4074 -0.5420
 4398SOL    HW217358   2.536   3.460   3.410 -2.9974 -0.0252 -0.0440
 4398SOL    HW317359   2.518   3.331   3.488 -0.1706 -0.3206  0.2043
 4398SOL    MW417360   2.542   3.415   3.484 -0.1671 -0.3456 -0.3778
 4399SOL     OW17361   2.070   0.097   6.239  0.0902 -0.0899  0.0609
 4399SOL    HW217362   2.017   0.159   6.189  0.6195 -0.1602 -0.6030
 4399SOL    HW317363   2.052   0.012   6.198 -1.4528 -0.5793  1.6313
 4399SOL    MW417364   2.061   0.094   6.227 -0.0435 -0.1637  0.1805
 4400SOL     OW17365   1.952   3.563   1.847 -0.0110  0.0481 -0.4289
 4400SOL    HW217366   1.910   3.649   1.844  0.3673  0.2616  0.3925
 4400SOL    HW317367   2.045   3.581   1.850  0.1214 -0.4170 -1.2713
 4400SOL    MW417368   1.959   3.577   1.847  0.0563  0.0149 -0.4317
 4401SOL     OW17369   3.887   5.056   3.391 -0.6030 -0.1211  0.3705
 4401SOL    HW217370   3.806   5.057   3.443 -0.9227  0.2806 -0.1241
 4401SOL    HW317371   3.878   5.131   3.331 -0.8351 -1.3232 -1.1576
 4401SOL    MW417372   3.875   5.066   3.390 -0.6758 -0.2267  0.1036
 4402SOL     OW17373   3.715   3.698   5.722  0.0644 -0.5130 -0.7554
 4402SOL    HW217374   3.634   3.655   5.749 -0.7080  1.1842 -0.2218
 4402SOL    HW317375   3.698   3.729   5.633 -0.7234  1.6648  0.0732
 4402SOL    MW417376   3.702   3.696   5.714 -0.1415 -0.0018 -0.5757
 4403SOL     OW17377   4.475   2.112   1.645  0.0074 -0.1636  0.7263
 4403SOL    HW217378   4.540   2.128   1.713 -0.2576 -0.7580  1.1294
 4403SOL    HW317379   4.489   2.182   1.581  0.0502  0.5950  1.5400
 4403SOL    MW417380   4.485   2.123   1.645 -0.0219 -0.1419  0.8868
 4404SOL     OW17381   2.650   1.816   3.117 -0.8177 -0.1770  0.3552
 4404SOL    HW217382   2.640   1.764   3.038 -2.9595  1.2623 -0.4068
 4404SOL    HW317383   2.641   1.907   3.088 -1.6304  0.3930  2.2033
 4404SOL    MW417384   2.648   1.821   3.103 -1.2075  0.0881  0.4985
 4405SOL     OW17385   1.679   2.497   3.571 -0.2638  0.2528  0.1826
 4405SOL    HW217386   1.762   2.513   3.527 -0.5657  1.5347  0.0407
 4405SOL    HW317387   1.640   2.584   3.581 -1.2359 -0.2513  0.9381
 4405SOL    MW417388   1.685   2.511   3.567 -0.4318  0.3554  0.2635
 4406SOL     OW17389   2.417   2.759   1.889  0.6879 -0.0380  0.2183
 4406SOL    HW217390   2.407   2.841   1.937 -0.5752 -0.6307  1.0132
 4406SOL    HW317391   2.431   2.693   1.957  1.8326 -0.4881 -0.4154
 4406SOL    MW417392   2.418   2.761   1.904  0.6722 -0.1756  0.2395
 4407SOL     OW17393   4.260   3.576   1.058 -0.2524 -0.4928 -0.1226
 4407SOL    HW217394   4.319   3.595   0.985 -1.2775 -1.0748 -1.1465
 4407SOL    HW317395   4.240   3.662   1.096 -1.0309  0.0288 -1.6215
 4407SOL    MW417396   4.265   3.590   1.053 -0.4903 -0.5008 -0.4555
 4408SOL     OW17397   0.644   6.007   5.600  0.1033 -0.6097  0.1928
 4408SOL    HW217398   0.673   6.081   5.546 -2.2979 -0.5812 -1.1939
 4408SOL    HW317399   0.637   6.043   5.688  0.4544  0.4028 -0.1762
 4408SOL    MW417400   0.647   6.021   5.604 -0.1672 -0.4723 -0.0389
 4409SOL     OW17401   1.438   3.549   3.905 -0.2722  0.0056 -0.5978
 4409SOL    HW217402   1.494   3.595   3.843  0.0173 -0.3778 -0.6260
 4409SOL    HW317403   1.498   3.515   3.971 -0.7883  2.4813  1.2927
 4409SOL    MW417404   1.453   3.550   3.906 -0.3021  0.2816 -0.3521
 4410SOL     OW17405   2.155   1.879   2.375  1.0435  0.2660  0.0102
 4410SOL    HW217406   2.082   1.884   2.437  0.0756  0.8392 -1.1304
 4410SOL    HW317407   2.211   1.954   2.397  0.3116  0.9111 -0.2502
 4410SOL    MW417408   2.153   1.890   2.386  0.8193  0.4267 -0.1747
 4411SOL     OW17409   3.653   3.411   1.097  0.4363 -0.3054 -0.7761
 4411SOL    HW217410   3.606   3.332   1.122 -0.3066 -0.4186 -2.3920
 4411SOL    HW317411   3.744   3.394   1.122 -0.0191 -0.9081  0.5491
 4411SOL    MW417412   3.659   3.398   1.103  0.2782 -0.3999 -0.8145
 4412SOL     OW17413   1.919   2.338   4.349 -0.8014  0.1321 -0.5384
 4412SOL    HW217414   1.877   2.423   4.331 -1.5228 -0.2168 -0.5448
 4412SOL    HW317415   1.975   2.323   4.274  0.7864  1.4654  0.2960
 4412SOL    MW417416   1.921   2.347   4.337 -0.6871  0.2620 -0.4292
 4413SOL     OW17417   0.064   5.363   2.683  0.0849 -0.3034 -0.1024
 4413SOL    HW217418  -0.002   5.331   2.744  0.4606 -1.8643 -0.4758
 4413SOL    HW317419   0.093   5.447   2.721 -0.5194 -0.6715  1.2314
 4413SOL    MW417420   0.059   5.370   2.696  0.0547 -0.5579  0.0243
 4414SOL     OW17421   3.696   0.524   5.485 -0.4914 -0.3804  0.3943
 4414SOL    HW217422   3.614   0.508   5.531 -1.3432 -0.8420 -1.1902
 4414SOL    HW317423   3.721   0.438   5.450  0.0484 -0.0290 -0.1073
 4414SOL    MW417424   3.688   0.511   5.486 -0.5326 -0.3950  0.1191
 4415SOL     OW17425   5.919   2.779   4.401 -0.5058 -0.2994 -0.1684
 4415SOL    HW217426   5.973   2.808   4.328 -1.1697  0.5129 -0.3514
 4415SOL    HW317427   5.946   2.834   4.475 -1.7113  0.7874 -0.4957
 4415SOL    MW417428   5.929   2.790   4.401 -0.7525 -0.0488 -0.2357
 4416SOL     OW17429   5.219   5.059   1.190 -0.2086  0.4523  0.1128
 4416SOL    HW217430   5.206   5.127   1.255  0.5094  0.6852  0.0219
 4416SOL    HW317431   5.311   5.065   1.166 -0.7775  1.4487 -2.1175
 4416SOL    MW417432   5.229   5.069   1.195 -0.1889  0.6145 -0.1935
 4417SOL     OW17433   1.534   5.617   1.156  0.7360  0.0419  0.0925
 4417SOL    HW217434   1.607   5.616   1.219  0.6636 -0.3297  0.1711
 4417SOL    HW317435   1.573   5.585   1.074  0.7720  0.2926  0.0103
 4417SOL    MW417436   1.549   5.613   1.153  0.7312  0.0259  0.0920
 4418SOL     OW17437   4.628   5.815   4.051  0.1435 -0.3440  0.4387
 4418SOL    HW217438   4.641   5.721   4.060  0.0629 -0.6073 -1.5826
 4418SOL    HW317439   4.645   5.832   3.958 -0.8981  1.4624  0.5376
 4418SOL    MW417440   4.632   5.805   4.040 -0.0046 -0.1404  0.1850
 4419SOL     OW17441   1.798   2.375   1.149 -0.1817  0.3584  0.3090
 4419SOL    HW217442   1.786   2.291   1.193  0.0528 -0.2517 -0.7580
 4419SOL    HW317443   1.826   2.352   1.061  0.5442  1.5730  0.1967
 4419SOL    MW417444   1.800   2.361   1.143 -0.0550  0.4381  0.1534
 4420SOL     OW17445   2.702   5.591   6.118  0.4617  0.2278 -0.3544
 4420SOL    HW217446   2.772   5.585   6.054  2.3762  2.4591  1.3272
 4420SOL    HW317447   2.695   5.685   6.137 -0.2569 -0.2924  2.3940
 4420SOL    MW417448   2.710   5.603   6.112  0.6195  0.4535  0.2301
 4421SOL     OW17449   4.153   5.210   2.998  0.1064  0.2957 -0.1085
 4421SOL    HW217450   4.138   5.302   3.020  0.5831  0.4654 -0.4965
 4421SOL    HW317451   4.070   5.167   3.019  0.1839  0.6446  0.9557
 4421SOL    MW417452   4.140   5.216   3.003  0.1795  0.3641 -0.0193
 4422SOL     OW17453   3.547   4.689   6.084  0.1688 -0.0725  0.6852
 4422SOL    HW217454   3.583   4.611   6.041  2.5766  0.3925  1.7005
 4422SOL    HW317455   3.457   4.695   6.050  0.4466 -2.3001 -0.7072
 4422SOL    MW417456   3.539   4.679   6.074  0.5232 -0.3051  0.6355
 4423SOL     OW17457   4.398   3.116   3.165  0.0156 -0.4398 -0.1594
 4423SOL    HW217458   4.373   3.110   3.257  1.0117 -1.6079  0.0647
 4423SOL    HW317459   4.429   3.028   3.143 -1.3947 -0.5477 -1.9831
 4423SOL    MW417460   4.399   3.104   3.174 -0.0391 -0.6082 -0.3704
 4424SOL     OW17461   2.437   0.851   5.466  0.1974  0.2400  0.6493
 4424SOL    HW217462   2.492   0.918   5.426  0.9313 -0.2449  0.8411
 4424SOL    HW317463   2.385   0.816   5.393  1.8806 -0.9945 -0.0146
 4424SOL    MW417464   2.437   0.855   5.451  0.5163  0.0132  0.5870
 4425SOL     OW17465   5.645   1.727   5.104 -0.4973  0.5693 -0.3254
 4425SOL    HW217466   5.567   1.723   5.159 -0.4955 -0.9759 -0.3793
 4425SOL    HW317467   5.637   1.809   5.056 -2.3692  0.1946 -0.7333
 4425SOL    MW417468   5.634   1.737   5.105 -0.7440  0.3160 -0.3863
 4426SOL     OW17469   5.589   0.355   1.302  0.2039 -0.1087  0.2598
 4426SOL    HW217470   5.512   0.349   1.359 -0.7123  0.8959 -0.8110
 4426SOL    HW317471   5.663   0.354   1.362 -0.6959  5.8012  2.1951
 4426SOL    MW417472   5.588   0.354   1.318 -0.0357  0.8036  0.3739
 4427SOL     OW17473   3.788   4.359   4.276  0.2970 -0.4702  0.2314
 4427SOL    HW217474   3.845   4.298   4.229 -1.2468 -1.2428 -0.7162
 4427SOL    HW317475   3.701   4.346   4.237 -0.4709  0.9101  1.3859
 4427SOL    MW417476   3.784   4.349   4.265 -0.0080 -0.3900  0.2587
 4428SOL     OW17477   1.038   6.351   3.626  0.5163 -0.7985  0.0074
 4428SOL    HW217478   1.064   6.342   3.718 -1.3655 -0.6970  0.6002
 4428SOL    HW317479   0.948   6.385   3.630  0.2087 -1.2740 -1.8662
 4428SOL    MW417480   1.029   6.355   3.639  0.2275 -0.8478 -0.1616
 4429SOL     OW17481   3.783   3.894   6.359  0.3003 -0.3113 -0.2205
 4429SOL    HW217482   3.785   3.989   6.358 -1.1563 -0.2293  1.0682
 4429SOL    HW317483   3.774   3.871   6.451 -0.3285 -1.6728 -0.5931
 4429SOL    MW417484   3.782   3.903   6.371  0.0251 -0.4801 -0.0996
 4430SOL     OW17485   1.938   3.746   2.580  0.2608  0.3315  0.0778
 4430SOL    HW217486   1.927   3.805   2.655 -1.1143 -0.6954  0.7241
 4430SOL    HW317487   2.028   3.714   2.588  0.7577  1.6591  0.1839
 4430SOL    MW417488   1.948   3.750   2.591  0.1449  0.3712  0.1770
 4431SOL     OW17489   1.335   6.299   6.010 -0.4414  0.0206  0.2135
 4431SOL    HW217490   1.287   6.336   6.084 -2.7738 -0.1947 -1.1085
 4431SOL    HW317491   1.295   6.214   5.995  1.1902 -0.7064 -0.2292
 4431SOL    MW417492   1.323   6.293   6.018 -0.5338 -0.1037 -0.0194
 4432SOL     OW17493   5.690   5.092   2.184 -0.1929  0.2610 -0.3252
 4432SOL    HW217494   5.706   5.140   2.103 -0.0926 -0.0495 -0.4928
 4432SOL    HW317495   5.773   5.093   2.231  0.3360 -1.2441 -1.1379
 4432SOL    MW417496   5.703   5.098   2.180 -0.1099  0.0215 -0.4545
 4433SOL     OW17497   0.612   3.558   5.281 -0.0772  0.1023  0.3910
 4433SOL    HW217498   0.696   3.537   5.241  0.5727  0.1240  1.6701
 4433SOL    HW317499   0.636   3.598   5.365 -1.3641 -0.2558  0.9497
 4433SOL    MW417500   0.626   3.560   5.287 -0.1613  0.0579  0.6335
 4434SOL     OW17501   2.080   6.217   5.576 -0.2178  0.1908 -0.1460
 4434SOL    HW217502   2.108   6.177   5.658 -1.3700 -0.8927 -0.2438
 4434SOL    HW317503   1.984   6.212   5.579 -0.4404  3.0863 -0.1297
 4434SOL    MW417504   2.071   6.211   5.587 -0.3992  0.4298 -0.1568
 4435SOL     OW17505   4.661   2.115   5.011 -0.4886 -0.5926  0.3746
 4435SOL    HW217506   4.711   2.177   5.063 -0.8882  0.1655 -0.1261
 4435SOL    HW317507   4.681   2.138   4.920 -2.0081 -0.0397  0.1597
 4435SOL    MW417508   4.670   2.126   5.006 -0.7418 -0.4196  0.2802
 4436SOL     OW17509   3.289   4.668   2.794  0.3017  0.6198 -0.1039
 4436SOL    HW217510   3.380   4.643   2.810  0.3877  0.1867 -1.2112
 4436SOL    HW317511   3.291   4.763   2.783  0.7397  0.5158 -0.9320
 4436SOL    MW417512   3.301   4.677   2.795  0.3708  0.5490 -0.3593
 4437SOL     OW17513   1.710   2.311   3.314 -0.1606 -0.2869  0.3906
 4437SOL    HW217514   1.784   2.366   3.338  1.4382 -1.7893 -0.9163
 4437SOL    HW317515   1.704   2.247   3.385 -0.0353 -0.3256  0.3664
 4437SOL    MW417516   1.719   2.310   3.327  0.0669 -0.4902  0.2150
 4438SOL     OW17517   1.363   4.428   0.120  0.0521  0.2439 -0.1687
 4438SOL    HW217518   1.381   4.502   0.178 -0.5204  0.4645 -0.2636
 4438SOL    HW317519   1.279   4.392   0.152  0.5875 -0.7025  0.2188
 4438SOL    MW417520   1.354   4.433   0.132  0.0472  0.1481 -0.1301
 4439SOL     OW17521   1.985   2.115   3.179 -0.1816  0.0356 -0.1862
 4439SOL    HW217522   1.908   2.107   3.235 -0.1789 -0.3134 -0.2322
 4439SOL    HW317523   2.000   2.209   3.172 -0.0606  0.0795  0.5628
 4439SOL    MW417524   1.977   2.126   3.185 -0.1653 -0.0047 -0.0934
 4440SOL     OW17525   5.546   2.769   1.559  0.0330 -1.3811  0.2081
 4440SOL    HW217526   5.552   2.820   1.640 -1.5233  1.0040 -1.0603
 4440SOL    HW317527   5.455   2.740   1.556  0.3755 -2.4386 -0.1417
 4440SOL    MW417528   5.535   2.772   1.569 -0.1271 -1.2059 -0.0054
 4441SOL     OW17529   2.456   5.772   0.278 -0.1576 -0.2230 -0.3845
 4441SOL    HW217530   2.414   5.857   0.270  1.0189  0.2809 -1.4176
 4441SOL    HW317531   2.396   5.721   0.332 -0.7381  1.3478  0.5234
 4441SOL    MW417532   2.443   5.776   0.284 -0.0790  0.0507 -0.4010
 4442SOL     OW17533   3.704   1.277   2.495  0.7537 -0.2613  0.0117
 4442SOL    HW217534   3.698   1.194   2.447  1.4039  0.3848 -1.2434
 4442SOL    HW317535   3.646   1.265   2.570 -0.3628 -1.3030 -0.9599
 4442SOL    MW417536   3.696   1.264   2.498  0.6922 -0.3135 -0.2821
 4443SOL     OW17537   4.702   0.608   0.315 -0.3307  0.2854  0.8572
 4443SOL    HW217538   4.637   0.577   0.251  1.6730 -1.5917 -0.4011
 4443SOL    HW317539   4.731   0.692   0.280 -0.1730 -0.1327 -0.0582
 4443SOL    MW417540   4.697   0.615   0.302 -0.0456 -0.0175  0.5704
 4444SOL     OW17541   2.217   3.611   1.790  0.3325  0.1783 -0.4031
 4444SOL    HW217542   2.229   3.599   1.696 -0.3893 -1.4730 -0.3212
 4444SOL    HW317543   2.222   3.706   1.803  0.4423  0.4355 -2.0956
 4444SOL    MW417544   2.219   3.622   1.779  0.2518 -0.0056 -0.6156
 4445SOL     OW17545   6.245   5.626   4.498 -0.1989 -0.8112  0.1519
 4445SOL    HW217546   6.155   5.624   4.467  0.0015 -0.1452 -0.4892
 4445SOL    HW317547   6.276   5.536   4.486 -0.8330 -1.0945  0.5687
 4445SOL    MW417548   6.237   5.614   4.492 -0.2561 -0.7607  0.1223
 4446SOL     OW17549   0.031   0.825   6.080  0.1616 -0.2861  0.2581
 4446SOL    HW217550  -0.006   0.879   6.010 -0.5554 -1.9781 -0.7154
 4446SOL    HW317551   0.123   0.854   6.086 -0.4165  1.6952  0.4752
 4446SOL    MW417552   0.039   0.836   6.071 -0.0093 -0.2479  0.1583
 4447SOL     OW17553   5.060   3.771   1.515  0.0212  0.0288  0.8858
 4447SOL    HW217554   5.074   3.720   1.436 -0.9722 -0.4929  1.0230
 4447SOL    HW317555   5.074   3.709   1.587 -1.9785 -0.3232  1.0380
 4447SOL    MW417556   5.063   3.756   1.514 -0.3737 -0.0864  0.9240
 4448SOL     OW17557   1.762   2.034   0.838  0.0848 -0.1132  0.3781
 4448SOL    HW217558   1.685   1.995   0.879  0.6645  0.5453  2.1638
 4448SOL    HW317559   1.819   1.960   0.818  0.2296 -0.3919  1.7349
 4448SOL    MW417560   1.759   2.019   0.841  0.1804 -0.0631  0.7927
 4449SOL     OW17561   5.977   1.166   6.264 -0.1207 -0.4248 -0.3380
 4449SOL    HW217562   5.988   1.227   6.337 -0.5074  0.2742 -0.8450
 4449SOL    HW317563   5.979   1.080   6.304 -0.9700 -0.0321  0.5959
 4449SOL    MW417564   5.979   1.163   6.279 -0.2838 -0.2808 -0.2817
 4450SOL     OW17565   3.485   1.041   4.626  0.2736 -0.1872 -0.1680
 4450SOL    HW217566   3.542   1.022   4.700  0.3961 -0.5125 -0.3439
 4450SOL    HW317567   3.408   0.986   4.639 -0.1368  0.4683  0.2243
 4450SOL    MW417568   3.482   1.032   4.637  0.2356 -0.1436 -0.1394
 4451SOL     OW17569   1.631   3.968   0.997 -0.1253  0.4669 -0.2599
 4451SOL    HW217570   1.631   4.041   0.935  0.3401  0.6356 -0.0663
 4451SOL    HW317571   1.564   3.992   1.062  0.2487  0.8837 -0.0170
 4451SOL    MW417572   1.622   3.981   0.998 -0.0145  0.5442 -0.2023
 4452SOL     OW17573   4.685   5.702   5.176 -0.3810 -0.0007 -0.3860
 4452SOL    HW217574   4.705   5.615   5.210  0.7696  0.3082 -0.2494
 4452SOL    HW317575   4.701   5.761   5.249 -1.2298  0.3294 -0.4561
 4452SOL    MW417576   4.690   5.698   5.190 -0.3412  0.0836 -0.3772
 4453SOL     OW17577   1.956   4.196   4.034  0.4201  0.0727  0.1704
 4453SOL    HW217578   1.983   4.283   4.063 -2.3901  1.4721 -0.9970
 4453SOL    HW317579   1.976   4.139   4.108 -0.5175  2.3026  2.2914
 4453SOL    MW417580   1.962   4.200   4.048 -0.0744  0.5515  0.2962
 4454SOL     OW17581   2.891   0.063   1.253  0.0792  0.2685 -0.0741
 4454SOL    HW217582   2.827   0.077   1.323  1.1747 -1.1191  1.2904
 4454SOL    HW317583   2.862  -0.018   1.210  0.2561  0.2806 -0.2180
 4454SOL    MW417584   2.879   0.054   1.256  0.2471  0.0870  0.0869
 4455SOL     OW17585   4.232   5.814   4.896 -0.2096  0.0607  0.1899
 4455SOL    HW217586   4.295   5.876   4.933  0.0151  0.2596 -0.5044
 4455SOL    HW317587   4.215   5.751   4.966 -0.5770  1.0090  0.9648
 4455SOL    MW417588   4.238   5.814   4.910 -0.2284  0.2121  0.2005
 4456SOL     OW17589   0.049   4.091   4.352 -0.1650 -1.0238 -0.4066
 4456SOL    HW217590   0.022   4.114   4.263  1.0503 -2.2165 -1.1386
 4456SOL    HW317591  -0.003   4.013   4.373  0.2258 -1.3032 -0.4646
 4456SOL    MW417592   0.039   4.084   4.343  0.0469 -1.2181 -0.5108
 4457SOL     OW17593   2.252   2.872   6.229  0.3234  0.2021  0.0171
 4457SOL    HW217594   2.246   2.949   6.173 -0.2118  0.8704  0.9597
 4457SOL    HW317595   2.342   2.841   6.217  0.4569  0.8044 -0.5980
 4457SOL    MW417596   2.263   2.878   6.220  0.2704  0.3698  0.0603
 4458SOL     OW17597   2.450   1.601   1.603  0.5274  0.4828 -0.0877
 4458SOL    HW217598   2.488   1.542   1.537 -1.1371  0.8340 -1.4505
 4458SOL    HW317599   2.497   1.581   1.684  1.3315 -1.3371 -0.9516
 4458SOL    MW417600   2.461   1.591   1.605  0.4139  0.2890 -0.3815
 4459SOL     OW17601   4.902   4.920   3.837 -0.2012  0.3868 -0.2595
 4459SOL    HW217602   4.895   4.922   3.742  1.8668 -1.5222 -0.5294
 4459SOL    HW317603   4.945   5.003   3.860 -1.0247  1.0158 -0.9076
 4459SOL    MW417604   4.907   4.931   3.828 -0.0370  0.2179 -0.3806
 4460SOL     OW17605   0.775   1.053   5.399  0.2355  0.5765 -0.0762
 4460SOL    HW217606   0.815   1.001   5.329 -0.7788  2.0152 -1.7958
 4460SOL    HW317607   0.834   1.127   5.412  1.4620 -0.6645  2.0819
 4460SOL    MW417608   0.788   1.056   5.392  0.2635  0.6026 -0.0183
 4461SOL     OW17609   1.159   0.247   2.714  0.3103 -0.6760  0.1365
 4461SOL    HW217610   1.242   0.201   2.712  0.9626  0.4314  0.6786
 4461SOL    HW317611   1.126   0.241   2.624  1.9933  0.6291 -0.6318
 4461SOL    MW417612   1.165   0.240   2.702  0.6184 -0.3577  0.1067
 4462SOL     OW17613   5.304   2.022   0.394 -0.3479 -0.0142 -0.7848
 4462SOL    HW217614   5.300   2.060   0.307 -0.7072  1.0871 -0.2986
 4462SOL    HW317615   5.213   2.014   0.422 -0.5379 -3.6666 -1.8473
 4462SOL    MW417616   5.292   2.026   0.387 -0.4204 -0.3508 -0.8609
 4463SOL     OW17617   2.295   0.255   5.350 -0.5618 -0.2301 -0.1049
 4463SOL    HW217618   2.235   0.225   5.282  0.3505 -2.3251 -0.0451
 4463SOL    HW317619   2.333   0.336   5.315 -1.4968 -0.2638 -1.2420
 4463SOL    MW417620   2.292   0.262   5.336 -0.5648 -0.5110 -0.2470
 4464SOL     OW17621   5.243   5.715   1.909  0.6775 -0.1828  0.3367
 4464SOL    HW217622   5.301   5.777   1.952  0.2513  1.2777 -1.1214
 4464SOL    HW317623   5.299   5.669   1.847  0.0722  2.4659 -2.3672
 4464SOL    MW417624   5.258   5.717   1.907  0.5414  0.3594 -0.2124
 4465SOL     OW17625   3.892   3.394   2.395  0.0842 -0.5284 -0.0692
 4465SOL    HW217626   3.868   3.448   2.320 -0.4159 -2.7556 -1.6104
 4465SOL    HW317627   3.982   3.367   2.378 -0.2540 -1.6065 -0.2840
 4465SOL    MW417628   3.901   3.397   2.383 -0.0264 -0.9645 -0.3009
 4466SOL     OW17629   1.432   3.064   0.596 -0.6536 -0.1060  0.1470
 4466SOL    HW217630   1.423   3.011   0.675 -1.4364  0.2001  0.2711
 4466SOL    HW317631   1.504   3.123   0.615  1.1214 -1.9477 -0.4780
 4466SOL    MW417632   1.440   3.065   0.609 -0.5227 -0.3086  0.0809
 4467SOL     OW17633   1.943   5.104   2.935 -0.2643 -0.0081 -0.7051
 4467SOL    HW217634   1.878   5.035   2.927  0.5584 -0.8696 -0.1225
 4467SOL    HW317635   1.940   5.131   3.026 -0.1544  0.3161 -0.7934
 4467SOL    MW417636   1.934   5.098   2.946 -0.1412 -0.0790 -0.6399
 4468SOL     OW17637   5.258   3.858   4.738  0.0617  0.1699  0.4278
 4468SOL    HW217638   5.317   3.884   4.667 -1.6627  0.7129 -0.8724
 4468SOL    HW317639   5.213   3.939   4.762 -0.1561 -0.2322  1.4072
 4468SOL    MW417640   5.260   3.872   4.732 -0.1946  0.1885  0.3855
 4469SOL     OW17641   3.770   1.595   6.272  0.4009 -0.7290  1.0724
 4469SOL    HW217642   3.758   1.545   6.353  0.2465  1.5386  2.5260
 4469SOL    HW317643   3.761   1.687   6.298  0.3166  0.0937 -1.5379
 4469SOL    MW417644   3.767   1.600   6.286  0.3694 -0.3213  0.9198
 4470SOL     OW17645   6.251   6.033   6.053  0.7116 -0.7718 -0.4890
 4470SOL    HW217646   6.193   5.963   6.083 -1.1757  0.2978 -1.3922
 4470SOL    HW317647   6.192   6.108   6.040  2.5004  0.6975 -0.4623
 4470SOL    MW417648   6.235   6.034   6.055  0.6986 -0.4369 -0.6046
 4471SOL     OW17649   0.721   6.238   4.214  0.0472  0.1426  0.2280
 4471SOL    HW217650   0.786   6.168   4.203 -0.0506 -0.3334  2.3569
 4471SOL    HW317651   0.745   6.303   4.148  2.1297 -0.4344  0.3482
 4471SOL    MW417652   0.733   6.237   4.204  0.3091  0.0037  0.5248
 4472SOL     OW17653   3.297   0.862   0.091 -0.3828  0.2150  0.1861
 4472SOL    HW217654   3.298   0.947   0.135 -0.7647  0.7836 -0.8603
 4472SOL    HW317655   3.371   0.815   0.128  0.8567  1.6338 -0.3794
 4472SOL    MW417656   3.307   0.867   0.102 -0.2696  0.4772 -0.0266
 4473SOL     OW17657   3.707   3.658   3.637 -0.1579  0.3271  0.2282
 4473SOL    HW217658   3.626   3.704   3.618 -1.0423 -1.6867 -1.2849
 4473SOL    HW317659   3.777   3.721   3.617 -1.2998  1.2360 -1.0323
 4473SOL    MW417660   3.706   3.672   3.632 -0.4253  0.1813 -0.1377
 4474SOL     OW17661   4.468   0.748   1.739  0.1337 -0.7237  0.1052
 4474SOL    HW217662   4.450   0.697   1.660 -1.1145 -0.0722 -0.0602
 4474SOL    HW317663   4.504   0.830   1.706  1.5063 -1.2148  0.3350
 4474SOL    MW417664   4.470   0.752   1.724  0.1501 -0.7026  0.1137
 4475SOL     OW17665   2.372   6.311   1.094 -0.0355  0.1603 -0.2409
 4475SOL    HW217666   2.297   6.354   1.134 -1.3682 -0.6949 -1.7087
 4475SOL    HW317667   2.349   6.304   1.001  0.7397 -2.4055 -0.3112
 4475SOL    MW417668   2.359   6.316   1.087 -0.1090 -0.2910 -0.4438
 4476SOL     OW17669   0.145   0.952   5.010  0.3428  0.0589 -0.4145
 4476SOL    HW217670   0.168   0.875   4.959 -0.0583 -0.6125  0.4064
 4476SOL    HW317671   0.071   0.990   4.963 -0.8154 -1.2401  0.3031
 4476SOL    MW417672   0.138   0.947   4.997  0.1371 -0.2010 -0.2115
 4477SOL     OW17673   6.306   0.854   0.377  0.0819  0.2547 -0.1171
 4477SOL    HW217674   6.253   0.923   0.335  1.1854  0.6137 -0.9844
 4477SOL    HW317675   6.247   0.814   0.441 -1.0220  1.0830 -0.5743
 4477SOL    MW417676   6.291   0.858   0.380  0.0818  0.4113 -0.2919
 4478SOL     OW17677   6.130   3.275   5.111 -0.5353  0.6333  0.1480
 4478SOL    HW217678   6.199   3.251   5.049  1.4919 -0.2732  2.5967
 4478SOL    HW317679   6.095   3.357   5.077  2.0498  1.3558 -0.9949
 4478SOL    MW417680   6.134   3.283   5.098  0.0732  0.6090  0.3202
 4479SOL     OW17681   2.591   3.722   5.517 -0.4522  0.0901  0.2945
 4479SOL    HW217682   2.546   3.690   5.438 -1.2283  1.4929  0.1323
 4479SOL    HW317683   2.621   3.810   5.493 -1.5433  0.9326  1.8352
 4479SOL    MW417684   2.589   3.729   5.503 -0.6986  0.3863  0.4764
 4480SOL     OW17685   4.337   4.948   6.350 -0.2652  0.4141 -0.4652
 4480SOL    HW217686   4.327   4.983   6.262 -2.3320  2.0395  0.3320
 4480SOL    HW317687   4.258   4.977   6.397 -0.8507 -3.1388  1.0537
 4480SOL    MW417688   4.325   4.956   6.345 -0.6151  0.1598 -0.1596
 4481SOL     OW17689   3.561   0.551   4.709  0.8645 -0.0959  0.0312
 4481SOL    HW217690   3.630   0.537   4.644  0.2159 -0.0906 -0.6804
 4481SOL    HW317691   3.603   0.533   4.793  1.0639 -2.7568 -0.5475
 4481SOL    MW417692   3.575   0.547   4.711  0.8053 -0.4463 -0.1390
 4482SOL     OW17693   5.465   1.197   3.765 -0.0989 -0.1855 -0.0847
 4482SOL    HW217694   5.493   1.288   3.764  0.7022 -0.4219  0.0326
 4482SOL    HW317695   5.420   1.187   3.849  0.3493 -0.0517  0.1738
 4482SOL    MW417696   5.463   1.207   3.776  0.0659 -0.1990 -0.0351
 4483SOL     OW17697   2.997   2.939   5.410  0.6541 -0.5715 -0.2535
 4483SOL    HW217698   2.909   2.946   5.447  0.8685  1.7312 -0.0354
 4483SOL    HW317699   3.055   2.955   5.485  1.1708  0.7638 -0.9109
 4483SOL    MW417700   2.993   2.942   5.425  0.7505 -0.0915 -0.3115
 4484SOL     OW17701   0.226   3.314   1.816 -0.3917 -0.1695 -0.1978
 4484SOL    HW217702   0.283   3.388   1.794 -1.4353  0.6831 -0.0814
 4484SOL    HW317703   0.147   3.328   1.763 -0.8091 -0.9220  0.2175
 4484SOL    MW417704   0.223   3.326   1.806 -0.5844 -0.1563 -0.1276
 4485SOL     OW17705   0.685   0.056   1.348  0.0029 -0.0098  0.1824
 4485SOL    HW217706   0.767   0.090   1.312  0.1929 -1.2435 -0.6304
 4485SOL    HW317707   0.658   0.121   1.413  1.0209  0.9876 -0.3553
 4485SOL    MW417708   0.692   0.069   1.352  0.1623 -0.0410  0.0042
 4486SOL     OW17709   1.350   1.167   1.250 -0.3824  0.0376  0.0387
 4486SOL    HW217710   1.432   1.208   1.279 -0.4076 -0.7284  1.2831
 4486SOL    HW317711   1.377   1.107   1.181 -0.1052  0.8466 -0.5696
 4486SOL    MW417712   1.364   1.165   1.245 -0.3491  0.0433  0.1226
 4487SOL     OW17713   4.356   5.507   4.344 -0.1081 -0.6519 -0.2651
 4487SOL    HW217714   4.428   5.527   4.285 -0.1628 -1.4262 -0.6046
 4487SOL    HW317715   4.291   5.576   4.329  1.6100  1.6113  1.9130
 4487SOL    MW417716   4.357   5.519   4.334  0.1113 -0.4555 -0.0225
 4488SOL     OW17717   3.350   1.931   0.907 -0.8060  0.5041 -0.2250
 4488SOL    HW217718   3.277   1.879   0.873 -1.4054  1.1332  0.0889
 4488SOL    HW317719   3.372   1.991   0.837 -1.4603  1.2036  0.1619
 4488SOL    MW417720   3.343   1.932   0.894 -0.9714  0.6794 -0.1326
 4489SOL     OW17721   1.425   4.283   1.599  0.0980 -0.6151 -0.3225
 4489SOL    HW217722   1.427   4.271   1.694  1.1328  2.6860  0.1766
 4489SOL    HW317723   1.333   4.295   1.578 -0.0661 -0.6362  0.3568
 4489SOL    MW417724   1.413   4.283   1.609  0.2129 -0.1823 -0.1670
 4490SOL     OW17725   5.338   4.368   0.025 -0.4352  0.1161  0.0158
 4490SOL    HW217726   5.426   4.353  -0.011 -1.3364  1.1804 -2.8414
 4490SOL    HW317727   5.348   4.348   0.118  2.4004 -1.5393 -0.4953
 4490SOL    MW417728   5.351   4.363   0.033 -0.1800  0.0381 -0.4286
 4491SOL     OW17729   1.675   2.843   1.978 -0.3372  0.1593  0.1177
 4491SOL    HW217730   1.598   2.793   2.005 -0.7405 -0.3919 -1.8533
 4491SOL    HW317731   1.750   2.788   2.002 -0.5003  0.6713  1.9906
 4491SOL    MW417732   1.675   2.829   1.985 -0.4119  0.1541  0.1048
 4492SOL     OW17733   2.416   5.633   6.056 -0.4257  0.8472 -0.2494
 4492SOL    HW217734   2.500   5.599   6.024  0.1771  1.0143  1.0870
 4492SOL    HW317735   2.408   5.719   6.015 -0.9762 -0.0089 -2.0371
 4492SOL    MW417736   2.426   5.640   6.046 -0.4188  0.7563 -0.3089
 4493SOL     OW17737   3.089   1.599   5.238 -0.1661  0.1536  0.3792
 4493SOL    HW217738   3.086   1.601   5.143  0.7214 -0.8132  0.3054
 4493SOL    HW317739   3.006   1.637   5.266 -0.7730 -0.2630 -0.7894
 4493SOL    MW417740   3.078   1.604   5.229 -0.1291 -0.0289  0.2152
 4494SOL     OW17741   2.620   6.044   2.037  0.1988  0.0233  0.0595
 4494SOL    HW217742   2.626   6.015   1.946 -0.4535  0.6290 -0.1900
 4494SOL    HW317743   2.561   5.981   2.079  0.2483 -0.0730 -0.0148
 4494SOL    MW417744   2.613   6.032   2.031  0.1193  0.0905  0.0168
 4495SOL     OW17745   4.699   3.954   2.160 -0.4318 -0.0220  0.1866
 4495SOL    HW217746   4.740   3.960   2.246 -0.0143  2.0140 -0.1033
 4495SOL    HW317747   4.771   3.930   2.101  0.1780  2.3295 -0.1279
 4495SOL    MW417748   4.714   3.952   2.164 -0.2962  0.5569  0.1069
 4496SOL     OW17749   0.754   4.113   5.831 -0.1355 -0.6697  0.1973
 4496SOL    HW217750   0.760   4.106   5.736 -0.3155  0.9990  0.0429
 4496SOL    HW317751   0.751   4.207   5.849  1.9550 -0.8470  1.9836
 4496SOL    MW417752   0.754   4.124   5.821  0.1166 -0.4730  0.4126
 4497SOL     OW17753   3.089   1.234   0.799 -0.2623 -0.2583 -0.1302
 4497SOL    HW217754   3.030   1.214   0.872 -0.1468 -1.0707 -0.2455
 4497SOL    HW317755   3.164   1.278   0.840 -0.9720  0.8637  0.0041
 4497SOL    MW417756   3.091   1.237   0.814 -0.3407 -0.2175 -0.1277
 4498SOL     OW17757   4.630   4.221   2.074 -0.0039 -0.4649  0.1172
 4498SOL    HW217758   4.619   4.282   2.148 -0.2661  0.3271 -0.5572
 4498SOL    HW317759   4.632   4.134   2.114  1.9465  0.0512  1.2835
 4498SOL    MW417760   4.629   4.218   2.089  0.2189 -0.2923  0.1821
 4499SOL     OW17761   0.407   1.485   3.271  0.6462 -0.1882 -0.1688
 4499SOL    HW217762   0.324   1.438   3.276  0.4155  0.3449  3.1935
 4499SOL    HW317763   0.473   1.417   3.255 -0.2092 -0.8669 -0.8973
 4499SOL    MW417764   0.405   1.470   3.270  0.5029 -0.2074  0.1787
 4500SOL     OW17765   4.752   3.326   2.305 -0.7444  0.0427  0.3161
 4500SOL    HW217766   4.718   3.407   2.266  0.2440  1.4507  2.2519
 4500SOL    HW317767   4.837   3.350   2.341  0.7465 -2.5003 -1.2073
 4500SOL    MW417768   4.759   3.340   2.304 -0.4173 -0.1070  0.3705
 4501SOL     OW17769   0.224   4.778   5.041 -0.4960 -0.7014  1.0301
 4501SOL    HW217770   0.239   4.734   5.125  0.2888 -1.3064  0.5849
 4501SOL    HW317771   0.284   4.735   4.980  0.4386  1.1231  0.6046
 4501SOL    MW417772   0.234   4.767   5.044 -0.2691 -0.5405  0.9152
 4502SOL     OW17773   2.240   5.284   3.430  0.1873  0.3054  0.1179
 4502SOL    HW217774   2.239   5.223   3.356 -1.8844  0.4022  0.0079
 4502SOL    HW317775   2.253   5.370   3.390 -1.2607  0.3995 -0.2339
 4502SOL    MW417776   2.241   5.287   3.415 -0.2771  0.3306  0.0569
 4503SOL     OW17777   0.732   2.105   1.006  0.1014 -0.2358 -0.5912
 4503SOL    HW217778   0.753   2.029   0.952  0.0403  0.0847 -1.0701
 4503SOL    HW317779   0.652   2.080   1.052 -0.1655 -0.3021 -1.0815
 4503SOL    MW417780   0.724   2.092   1.005  0.0581 -0.2023 -0.7191
 4504SOL     OW17781   5.549   1.935   1.835  0.4194 -0.2010 -0.8359
 4504SOL    HW217782   5.507   1.995   1.897  2.4989 -1.9754  2.5938
 4504SOL    HW317783   5.616   1.988   1.793  1.4400  0.2691  1.2602
 4504SOL    MW417784   5.552   1.950   1.838  0.8284 -0.3731 -0.1069
 4505SOL     OW17785   6.287   1.143   3.437 -0.0475  0.5223  0.2670
 4505SOL    HW217786   6.357   1.164   3.499  2.0315 -0.0993 -1.7096
 4505SOL    HW317787   6.260   1.054   3.460  0.1683  0.5841  0.7523
 4505SOL    MW417788   6.293   1.134   3.448  0.2553  0.4485  0.0702
 4506SOL     OW17789   2.531   6.183   6.204  0.3736 -0.2747 -0.1909
 4506SOL    HW217790   2.569   6.107   6.249 -1.9944 -0.3533  1.9457
 4506SOL    HW317791   2.437   6.162   6.199 -0.4314  2.6272  0.8267
 4506SOL    MW417792   2.524   6.170   6.210 -0.0450  0.0978  0.2253
 4507SOL     OW17793   6.325   5.724   4.736 -0.2206 -0.0840 -0.4757
 4507SOL    HW217794   6.403   5.770   4.706  0.3509 -1.0407 -0.4916
 4507SOL    HW317795   6.285   5.690   4.656 -1.1495  1.1398 -0.5561
 4507SOL    MW417796   6.330   5.726   4.721 -0.2677 -0.0488 -0.4884
 4508SOL     OW17797   0.503   2.067   5.806  0.0673 -0.4018  0.3274
 4508SOL    HW217798   0.422   2.118   5.804 -0.2110 -0.8480  0.1572
 4508SOL    HW317799   0.568   2.123   5.762 -0.4138 -0.5011 -0.5334
 4508SOL    MW417800   0.501   2.081   5.800 -0.0329 -0.4738  0.1914
 4509SOL     OW17801   4.224   1.921   0.441 -0.1680 -0.2729  0.2654
 4509SOL    HW217802   4.190   1.900   0.528  0.8096 -1.4418  0.3856
 4509SOL    HW317803   4.146   1.938   0.389 -0.7300  1.6576  1.6420
 4509SOL    MW417804   4.209   1.920   0.446 -0.1132 -0.1724  0.4629
 4510SOL     OW17805   1.826   3.305   2.640 -0.2341 -0.3485 -0.0864
 4510SOL    HW217806   1.776   3.255   2.576  1.1586 -0.0741 -1.4760
 4510SOL    HW317807   1.792   3.394   2.633  1.7376  0.3585 -2.6592
 4510SOL    MW417808   1.815   3.310   2.630  0.2098 -0.2190 -0.6092
 4511SOL     OW17809   4.867   3.840   4.908  0.1749  0.6912 -0.2997
 4511SOL    HW217810   4.791   3.888   4.874 -1.1327 -0.8193  0.3802
 4511SOL    HW317811   4.865   3.856   5.002  1.1343  1.1886 -0.3506
 4511SOL    MW417812   4.856   3.849   4.916  0.1290  0.5575 -0.2167
 4512SOL     OW17813   1.199   3.349   2.667 -0.7141  0.2826  0.0925
 4512SOL    HW217814   1.229   3.282   2.729  3.0151  1.0719 -0.6016
 4512SOL    HW317815   1.157   3.415   2.722  0.2836 -0.1989  1.5139
 4512SOL    MW417816   1.198   3.349   2.683 -0.0905  0.3232  0.1885
 4513SOL     OW17817   2.798   4.690   0.810 -0.0995 -0.2836  0.5953
 4513SOL    HW217818   2.731   4.731   0.756  1.9789  0.8101 -1.3401
 4513SOL    HW317819   2.833   4.761   0.863  0.3018 -0.5930  0.7467
 4513SOL    MW417820   2.794   4.704   0.810  0.2276 -0.1801  0.3599
 4514SOL     OW17821   4.161   1.450   1.997 -0.0626 -0.2520  0.4499
 4514SOL    HW217822   4.110   1.441   2.077  0.8450  0.5852  1.1368
 4514SOL    HW317823   4.250   1.467   2.026  0.6603 -1.7643 -0.7316
 4514SOL    MW417824   4.166   1.451   2.011  0.1525 -0.3411  0.3847
 4515SOL     OW17825   1.207   4.238   0.459  0.2461  0.1510 -0.2374
 4515SOL    HW217826   1.137   4.182   0.493  0.8059  0.0666  0.8409
 4515SOL    HW317827   1.281   4.179   0.445  0.8073  0.5670  0.7996
 4515SOL    MW417828   1.208   4.223   0.462  0.3940  0.1948  0.0417
 4516SOL     OW17829   2.853   3.329   0.513 -0.0500 -0.6345  0.7614
 4516SOL    HW217830   2.846   3.234   0.524 -2.6377 -0.7319 -0.8584
 4516SOL    HW317831   2.762   3.360   0.509  0.6181  1.4166 -2.1625
 4516SOL    MW417832   2.840   3.321   0.514 -0.3033 -0.3768  0.1619
 4517SOL     OW17833   2.855   1.110   4.448 -0.2015  0.3586 -0.0151
 4517SOL    HW217834   2.881   1.076   4.362  0.7117 -1.5418  0.9292
 4517SOL    HW317835   2.935   1.150   4.482  0.6290 -2.2573  1.4114
 4517SOL    MW417836   2.869   1.111   4.441  0.0286 -0.2373  0.2977
 4518SOL     OW17837   6.246   1.181   1.105  0.5245 -0.1859  0.1991
 4518SOL    HW217838   6.335   1.149   1.118  0.8889  0.4855 -0.4985
 4518SOL    HW317839   6.194   1.103   1.091  0.6899 -0.7084  2.1867
 4518SOL    MW417840   6.251   1.167   1.105  0.5944 -0.1663  0.3693
 4519SOL     OW17841   3.879   5.362   4.657 -0.2428 -0.5502 -0.3025
 4519SOL    HW217842   3.884   5.453   4.688  1.2110 -0.2217 -1.4091
 4519SOL    HW317843   3.789   5.352   4.627 -0.0530  1.0043 -1.5220
 4519SOL    MW417844   3.868   5.372   4.657 -0.0260 -0.3017 -0.6094
 4520SOL     OW17845   5.534   4.484   4.801  0.0795  0.3129  0.4290
 4520SOL    HW217846   5.491   4.413   4.753 -0.7551  0.0932  1.4684
 4520SOL    HW317847   5.488   4.563   4.773  0.4430  0.3446 -0.0872
 4520SOL    MW417848   5.522   4.485   4.791  0.0173  0.2881  0.4980
 4521SOL     OW17849   3.252   1.645   2.327 -0.0384  0.0732  0.2248
 4521SOL    HW217850   3.177   1.694   2.293 -2.6130 -2.3780  1.9073
 4521SOL    HW317851   3.317   1.648   2.256 -2.0233  1.6541 -1.6580
 4521SOL    MW417852   3.251   1.652   2.313 -0.6400 -0.0417  0.1984
 4522SOL     OW17853   5.348   4.422   2.553 -0.0335  0.8326 -0.0182
 4522SOL    HW217854   5.309   4.424   2.465 -2.2020  1.5186  0.8813
 4522SOL    HW317855   5.323   4.337   2.589  0.6603  0.6408  0.0142
 4522SOL    MW417856   5.339   4.411   2.546 -0.2280  0.8978  0.1048
 4523SOL     OW17857   0.479   4.130   1.645  0.0596 -0.1141 -0.1891
 4523SOL    HW217858   0.550   4.134   1.581  2.1058  0.7357  1.9596
 4523SOL    HW317859   0.485   4.042   1.682  0.6854  0.2640  0.6560
 4523SOL    MW417860   0.489   4.119   1.641  0.4121  0.0479  0.2059
 4524SOL     OW17861   5.344   2.030   3.342  0.5301 -0.1757 -0.1511
 4524SOL    HW217862   5.311   1.972   3.411 -1.7031 -0.4087 -1.3365
 4524SOL    HW317863   5.403   2.090   3.388  0.7268 -1.6010  1.5884
 4524SOL    MW417864   5.347   2.030   3.357  0.2614 -0.3945 -0.0780
 4525SOL     OW17865   3.562   2.071   4.622  0.0875  0.0383 -0.1688
 4525SOL    HW217866   3.533   2.102   4.536  0.2165  0.1881 -0.1586
 4525SOL    HW317867   3.507   1.995   4.640 -1.3855  1.2092  0.5280
 4525SOL    MW417868   3.551   2.065   4.613 -0.0899  0.2126 -0.0755
 4526SOL     OW17869   2.310   4.046   0.203 -0.0728  0.2894 -0.0015
 4526SOL    HW217870   2.388   4.089   0.239  1.3922 -0.7956 -1.7161
 4526SOL    HW317871   2.264   4.011   0.279  1.8136 -0.1774  0.9775
 4526SOL    MW417872   2.314   4.047   0.218  0.3694  0.0847 -0.0986
 4527SOL     OW17873   2.253   4.695   4.819 -0.3465 -0.3823 -0.2391
 4527SOL    HW217874   2.308   4.617   4.827 -1.3975 -1.5610 -3.2250
 4527SOL    HW317875   2.186   4.684   4.886 -0.0643 -1.6930 -0.1391
 4527SOL    MW417876   2.252   4.683   4.829 -0.4479 -0.7107 -0.6198
 4528SOL     OW17877   6.311   3.426   1.154 -0.6734 -0.2339 -0.3053
 4528SOL    HW217878   6.247   3.394   1.090  1.4673 -2.0861 -1.6563
 4528SOL    HW317879   6.304   3.522   1.148 -1.5047 -0.3702 -2.3227
 4528SOL    MW417880   6.302   3.435   1.144 -0.5006 -0.4962 -0.7497
 4529SOL     OW17881   2.806   3.018   0.564  0.1210 -0.0711  0.1644
 4529SOL    HW217882   2.855   3.035   0.645 -0.7883  0.1675  0.6794
 4529SOL    HW317883   2.715   3.015   0.592 -0.1106 -1.1772 -0.6762
 4529SOL    MW417884   2.801   3.020   0.578 -0.0295 -0.1855  0.1214
 4530SOL     OW17885   5.670   5.601   1.414 -0.7766  0.3439  0.2724
 4530SOL    HW217886   5.690   5.694   1.401  3.5150 -0.0793  1.9532
 4530SOL    HW317887   5.717   5.557   1.343 -1.0089 -0.6101  0.6968
 4530SOL    MW417888   5.679   5.607   1.403 -0.2410  0.1622  0.5501
 4531SOL     OW17889   1.880   3.040   2.124  0.3719 -0.1803  0.2310
 4531SOL    HW217890   1.953   3.008   2.070 -0.6738 -0.9846 -0.7493
 4531SOL    HW317891   1.802   3.007   2.080 -0.5197 -1.9768  2.9381
 4531SOL    MW417892   1.879   3.031   2.111  0.1163 -0.5235  0.4588
 4532SOL     OW17893   2.289   3.663   1.190  0.1578  0.2957  0.3516
 4532SOL    HW217894   2.284   3.589   1.250  0.1825  0.9825  1.2145
 4532SOL    HW317895   2.203   3.705   1.197  0.5407  1.0194  0.7388
 4532SOL    MW417896   2.277   3.659   1.199  0.2116  0.4818  0.5165
 4533SOL     OW17897   4.776   4.490   0.568 -0.2616 -0.3269 -0.1760
 4533SOL    HW217898   4.809   4.486   0.478 -0.4159  0.8156 -0.2953
 4533SOL    HW317899   4.720   4.568   0.570  0.2871  0.0658  1.0809
 4533SOL    MW417900   4.773   4.500   0.556 -0.2095 -0.1244 -0.0259
 4534SOL     OW17901   6.311   2.964   6.258  0.1588 -0.4382 -0.2814
 4534SOL    HW217902   6.341   2.931   6.343  2.6614  0.3812 -0.7616
 4534SOL    HW317903   6.239   3.024   6.279  0.6079 -0.3877  1.2394
 4534SOL    MW417904   6.305   2.967   6.272  0.5483 -0.3234 -0.1441
 4535SOL     OW17905   5.989   1.212   3.217 -0.5518  0.1295 -0.0096
 4535SOL    HW217906   6.060   1.156   3.185 -0.4456  0.4286 -0.3110
 4535SOL    HW317907   5.997   1.209   3.313  0.4201  0.8461 -0.0514
 4535SOL    MW417908   6.000   1.204   3.226 -0.4096  0.2635 -0.0549
 4536SOL     OW17909   1.685   4.505   3.125 -0.0285  0.3334 -0.1808
 4536SOL    HW217910   1.616   4.481   3.063  1.2132  0.5151 -1.6844
 4536SOL    HW317911   1.661   4.459   3.206 -2.1331  0.7634 -0.5136
 4536SOL    MW417912   1.673   4.496   3.127 -0.1423  0.4141 -0.4231
 4537SOL     OW17913   4.512   3.053   4.715 -0.4526 -0.1521 -0.3322
 4537SOL    HW217914   4.583   3.107   4.682 -0.3484  0.2523  0.5190
 4537SOL    HW317915   4.502   2.983   4.650  1.4993 -0.8971  0.1298
 4537SOL    MW417916   4.520   3.051   4.702 -0.1814 -0.1970 -0.1589
 4538SOL     OW17917   2.930   5.204   5.067 -0.1425 -0.2910 -0.1294
 4538SOL    HW217918   2.953   5.261   4.994 -0.2150 -0.3375 -0.1884
 4538SOL    HW317919   2.941   5.259   5.145 -0.1791 -0.2078 -0.1833
 4538SOL    MW417920   2.934   5.218   5.068 -0.1569 -0.2862 -0.1443
 4539SOL     OW17921   0.533   1.834   5.162  0.4304  0.0348 -0.5824
 4539SOL    HW217922   0.465   1.769   5.146  1.4918 -1.0781 -0.6267
 4539SOL    HW317923   0.562   1.817   5.252 -0.8657  1.9539  0.2716
 4539SOL    MW417924   0.528   1.824   5.172  0.3994  0.1412 -0.4756
 4540SOL     OW17925   0.584   4.536   1.840 -0.5013  0.1025  0.4994
 4540SOL    HW217926   0.550   4.447   1.843 -0.7138  0.1996  1.0838
 4540SOL    HW317927   0.515   4.587   1.796 -0.0092 -0.1758 -0.6276
 4540SOL    MW417928   0.570   4.531   1.834 -0.4644  0.0786  0.4278
 4541SOL     OW17929   4.457   3.999   0.347 -0.1688  0.2733 -0.0629
 4541SOL    HW217930   4.437   4.040   0.262 -1.1996 -0.8205 -0.3854
 4541SOL    HW317931   4.550   3.979   0.343 -0.2763 -0.1218 -1.1339
 4541SOL    MW417932   4.467   4.002   0.335 -0.3190  0.0768 -0.2468
 4542SOL     OW17933   6.126   2.563   3.504 -0.1330 -0.1992 -0.1897
 4542SOL    HW217934   6.037   2.551   3.538 -0.0532  1.0940  0.5422
 4542SOL    HW317935   6.136   2.496   3.437 -1.0680 -1.4729  0.8881
 4542SOL    MW417936   6.116   2.552   3.500 -0.2458 -0.1966  0.0490
 4543SOL     OW17937   0.858   6.318   4.462 -0.2527 -0.0848  0.5416
 4543SOL    HW217938   0.822   6.337   4.549  0.7922 -1.0573  1.2313
 4543SOL    HW317939   0.791   6.265   4.419 -0.2048 -0.8029  1.3206
 4543SOL    MW417940   0.845   6.313   4.468 -0.1085 -0.3079  0.7354
 4544SOL     OW17941   1.850   5.283   3.169  0.2076 -0.6085  0.0817
 4544SOL    HW217942   1.870   5.257   3.259 -0.2289 -3.3463 -0.5248
 4544SOL    HW317943   1.758   5.262   3.158  0.5768 -1.5895 -1.3921
 4544SOL    MW417944   1.841   5.277   3.180  0.1988 -1.0991 -0.1928
 4545SOL     OW17945   2.695   2.364   3.580  0.0524  0.0702 -0.1882
 4545SOL    HW217946   2.644   2.433   3.537 -2.2234 -0.0993  1.9858
 4545SOL    HW317947   2.775   2.407   3.608 -0.6554  1.4594 -0.2093
 4545SOL    MW417948   2.699   2.379   3.578 -0.3412  0.2311  0.0959
 4546SOL     OW17949   4.387   0.900   3.480  0.7362  0.1917  0.0471
 4546SOL    HW217950   4.365   0.954   3.404 -0.3576 -0.5140 -0.1732
 4546SOL    HW317951   4.350   0.814   3.459  1.4629 -0.3408  0.8714
 4546SOL    MW417952   4.379   0.896   3.467  0.6878  0.0284  0.1268
 4547SOL     OW17953   5.933   4.458   0.563  0.1506 -0.6408  0.1514
 4547SOL    HW217954   5.899   4.445   0.651  2.5865 -0.3624  1.2055
 4547SOL    HW317955   5.976   4.375   0.542  5.3364  1.1849  2.0598
 4547SOL    MW417956   5.934   4.445   0.572  1.1562 -0.3632  0.5422
 4548SOL     OW17957   4.877   5.994   0.879 -0.3382  0.1896  0.2053
 4548SOL    HW217958   4.949   6.020   0.822 -0.6634 -0.0182 -0.3036
 4548SOL    HW317959   4.812   6.064   0.870 -0.3442  0.2096  0.4006
 4548SOL    MW417960   4.878   6.007   0.871 -0.3819  0.1648  0.1639
 4549SOL     OW17961   5.539   4.314   1.982 -0.1413 -0.2965  0.4196
 4549SOL    HW217962   5.629   4.344   1.973  0.0707  0.5104  3.8492
 4549SOL    HW317963   5.489   4.372   1.925  1.3114  0.4574 -0.1454
 4549SOL    MW417964   5.544   4.325   1.974  0.0784 -0.0906  0.7975
 4550SOL     OW17965   0.799   4.931   3.591 -0.2224 -0.7966  0.2361
 4550SOL    HW217966   0.856   4.992   3.638 -0.8177 -1.6049  2.1155
 4550SOL    HW317967   0.859   4.866   3.554  0.6345  1.7943 -3.4891
 4550SOL    MW417968   0.814   4.930   3.592 -0.1879 -0.5614 -0.0075
 4551SOL     OW17969   0.821   5.690   6.103 -0.3099  0.0994 -0.1122
 4551SOL    HW217970   0.855   5.604   6.129 -2.0326 -0.9182 -1.0346
 4551SOL    HW317971   0.899   5.745   6.096  0.6580 -0.7124  2.7543
 4551SOL    MW417972   0.836   5.686   6.106 -0.4095 -0.1420  0.1443
 4552SOL     OW17973   1.232   3.419   5.539 -0.4236 -0.0602  0.2178
 4552SOL    HW217974   1.184   3.470   5.605  1.2792  1.1214  0.5937
 4552SOL    HW317975   1.253   3.337   5.583 -1.8437 -0.5155  0.1202
 4552SOL    MW417976   1.228   3.415   5.554 -0.3863  0.0356  0.2546
 4553SOL     OW17977   2.560   1.578   1.906  0.5044  0.0762  0.3550
 4553SOL    HW217978   2.592   1.657   1.949 -0.9332  1.1368 -0.4581
 4553SOL    HW317979   2.482   1.553   1.956  0.5386 -0.4162  0.1721
 4553SOL    MW417980   2.554   1.585   1.918  0.3192  0.1512  0.2236
 4554SOL     OW17981   2.826   4.962   5.777 -0.3771 -0.0355  0.1209
 4554SOL    HW217982   2.803   5.012   5.856 -0.6715 -0.6828  0.4531
 4554SOL    HW317983   2.914   4.930   5.794 -1.0231 -1.5140  0.9028
 4554SOL    MW417984   2.834   4.964   5.790 -0.5011 -0.3160  0.2679
 4555SOL     OW17985   0.084   1.899   1.040  0.2623  0.8232 -0.3465
 4555SOL    HW217986   0.140   1.822   1.031  0.0502  0.8887 -2.7905
 4555SOL    HW317987   0.144   1.973   1.026  0.0848  1.0078 -0.1345
 4555SOL    MW417988   0.100   1.899   1.037  0.2109  0.8562 -0.6410
 4556SOL     OW17989   3.338   1.107   0.995  0.0416  0.1256 -0.1848
 4556SOL    HW217990   3.271   1.117   1.063  1.1199 -2.5186  1.4038
 4556SOL    HW317991   3.335   1.190   0.947 -3.1484  0.7831  0.8827
 4556SOL    MW417992   3.329   1.120   0.998 -0.2370 -0.1365  0.1656
 4557SOL     OW17993   5.965   1.013   2.249  0.0009 -0.2254 -0.8781
 4557SOL    HW217994   6.042   1.068   2.265  0.0879 -0.9239  1.3727
 4557SOL    HW317995   5.897   1.075   2.222  0.8186  0.6448 -1.0167
 4557SOL    MW417996   5.966   1.029   2.247  0.1203 -0.2027 -0.5994
 4558SOL     OW17997   1.059   0.418   4.427  0.2779 -0.6616 -0.1523
 4558SOL    HW217998   1.141   0.381   4.458 -1.0068 -1.8665  2.0177
 4558SOL    HW317999   1.006   0.342   4.403 -1.4035 -0.1644  1.7191
 4558SOL    MW418000   1.063   0.403   4.428 -0.1134 -0.7550  0.3809
 4559SOL     OW18001   1.635   0.010   4.734  0.0004 -0.6609 -0.0090
 4559SOL    HW218002   1.594  -0.069   4.699 -0.7533 -0.8067  1.1562
 4559SOL    HW318003   1.668  -0.017   4.820  1.4376 -0.2056 -0.3889
 4559SOL    MW418004   1.634  -0.004   4.741  0.0906 -0.6201  0.0946
 4560SOL     OW18005   0.526   4.598   4.473 -0.4352  0.1007  0.4589
 4560SOL    HW218006   0.457   4.535   4.493  0.6284 -0.6131  2.0809
 4560SOL    HW318007   0.532   4.654   4.551  0.1778  0.7421 -0.0313
 4560SOL    MW418008   0.518   4.597   4.486 -0.2140  0.0912  0.6082
 4561SOL     OW18009   6.200   3.515   3.711  0.6475 -0.1725  0.3287
 4561SOL    HW218010   6.164   3.456   3.645 -1.5541  1.0606  0.3378
 4561SOL    HW318011   6.144   3.502   3.788  0.6930  1.2477  0.6327
 4561SOL    MW418012   6.188   3.505   3.713  0.3631  0.1776  0.3700
 4562SOL     OW18013   5.955   5.703   4.992 -0.1295  0.7178  0.7293
 4562SOL    HW218014   5.946   5.716   5.086 -0.2923  1.5920  0.6010
 4562SOL    HW318015   5.983   5.612   4.983 -0.6383  0.4641  1.5910
 4562SOL    MW418016   5.957   5.693   5.003 -0.2181  0.7996  0.8260
 4563SOL     OW18017   5.170   1.121   1.137  0.2310 -0.3485 -0.6028
 4563SOL    HW218018   5.136   1.164   1.216 -1.1594 -0.2589 -1.2188
 4563SOL    HW318019   5.263   1.142   1.137  0.2846 -0.4213  1.0537
 4563SOL    MW418020   5.178   1.130   1.148  0.0546 -0.3463 -0.4656
 4564SOL     OW18021   3.697   5.880   2.874 -0.0962 -0.2829 -0.0984
 4564SOL    HW218022   3.689   5.823   2.797 -1.0060 -0.7024  0.2897
 4564SOL    HW318023   3.608   5.884   2.910  0.2005  0.4106  0.5763
 4564SOL    MW418024   3.684   5.873   2.869 -0.1771 -0.2468  0.0418
 4565SOL     OW18025   0.983   0.714   4.006 -0.0615 -0.4430  0.6144
 4565SOL    HW218026   0.966   0.807   3.998 -0.1602 -0.6009 -1.4457
 4565SOL    HW318027   0.979   0.680   3.916 -0.8902 -2.5824  1.3896
 4565SOL    MW418028   0.980   0.722   3.993 -0.1839 -0.7461  0.4449
 4566SOL     OW18029   0.380   0.362   0.673 -0.2502 -0.0926 -0.3065
 4566SOL    HW218030   0.475   0.361   0.668 -0.1472  1.8239  0.4958
 4566SOL    HW318031   0.358   0.447   0.711 -2.4094  0.7604 -3.1116
 4566SOL    MW418032   0.389   0.373   0.678 -0.5215  0.2728 -0.5707
 4567SOL     OW18033   0.738   1.895   3.474 -0.3927  0.4143  0.3526
 4567SOL    HW218034   0.770   1.806   3.467  1.2303  0.8311  1.8125
 4567SOL    HW318035   0.643   1.886   3.482 -0.5042 -0.9968 -1.8956
 4567SOL    MW418036   0.730   1.882   3.474 -0.1933  0.2831  0.2486
 4568SOL     OW18037   1.383   1.633   3.518 -0.2158 -0.2329  0.5540
 4568SOL    HW218038   1.430   1.593   3.445 -0.7605  0.7149 -0.3460
 4568SOL    HW318039   1.451   1.674   3.571  0.0796  0.1340 -0.1030
 4568SOL    MW418040   1.398   1.633   3.515 -0.2487 -0.0594  0.3485
 4569SOL     OW18041   0.547   5.766   0.538 -0.3337  0.3341 -0.2919
 4569SOL    HW218042   0.605   5.742   0.611  0.6284  1.4861 -0.6456
 4569SOL    HW318043   0.590   5.730   0.461  0.3137  1.7807 -0.6382
 4569SOL    MW418044   0.560   5.758   0.538 -0.1213  0.6770 -0.3843
 4570SOL     OW18045   3.901   5.370   6.385 -0.4714 -0.1809 -0.6508
 4570SOL    HW218046   3.995   5.356   6.382 -0.6938 -2.5087  0.9974
 4570SOL    HW318047   3.863   5.283   6.386 -2.6947  0.6976 -1.5003
 4570SOL    MW418048   3.908   5.357   6.385 -0.7941 -0.3721 -0.5454
 4571SOL     OW18049   2.258   6.137   6.107  0.3553  0.4333 -0.6722
 4571SOL    HW218050   2.263   6.194   6.031 -0.3887 -1.1637 -1.9893
 4571SOL    HW318051   2.181   6.166   6.154 -0.8429 -0.3245 -2.0950
 4571SOL    MW418052   2.249   6.148   6.103  0.0990  0.1226 -1.0337
 4572SOL     OW18053   2.180   5.183   1.925  0.1932  0.1811 -0.4352
 4572SOL    HW218054   2.246   5.157   1.989 -2.7632 -1.7964  2.0856
 4572SOL    HW318055   2.172   5.107   1.867 -0.6569 -0.0862  0.0168
 4572SOL    MW418056   2.188   5.170   1.926 -0.3090 -0.1150 -0.0429
 4573SOL     OW18057   0.697   4.438   1.111  0.0695 -0.4669 -0.1001
 4573SOL    HW218058   0.624   4.390   1.151 -0.6930  1.2086  0.6307
 4573SOL    HW318059   0.672   4.447   1.019  0.2677 -1.5020 -0.2737
 4573SOL    MW418060   0.684   4.433   1.104 -0.0050 -0.3824 -0.0266
 4574SOL     OW18061   4.551   4.708   3.505  0.3987 -0.7219  0.1323
 4574SOL    HW218062   4.521   4.735   3.418 -0.1130 -0.4614  0.3844
 4574SOL    HW318063   4.636   4.752   3.516  0.0559 -0.0387  0.1184
 4574SOL    MW418064   4.558   4.717   3.495  0.2860 -0.5974  0.1637
 4575SOL     OW18065   5.092   2.979   1.097  0.5100 -0.3439 -0.4772
 4575SOL    HW218066   5.044   3.051   1.056  1.0940  0.4368  0.1695
 4575SOL    HW318067   5.184   3.003   1.086  0.7033 -0.7762  0.1364
 4575SOL    MW418068   5.098   2.992   1.090  0.6126 -0.2979 -0.3109
 4576SOL     OW18069   2.384   1.324   2.622  0.0657  0.3926  0.4083
 4576SOL    HW218070   2.321   1.265   2.663  0.5742  0.3724  1.1570
 4576SOL    HW318071   2.420   1.273   2.549 -1.2685  0.6352 -0.4814
 4576SOL    MW418072   2.380   1.309   2.618 -0.0433  0.4219  0.3897
 4577SOL     OW18073   0.414   6.017   4.753  0.1370  0.2480  0.1530
 4577SOL    HW218074   0.376   5.932   4.775 -1.3404  0.1917 -2.2308
 4577SOL    HW318075   0.432   6.058   4.837 -0.0453 -1.9985  1.3610
 4577SOL    MW418076   0.411   6.011   4.767 -0.0820 -0.0559 -0.0021
 4578SOL     OW18077   0.185   5.999   3.512 -0.0424 -0.0046 -0.1401
 4578SOL    HW218078   0.233   6.028   3.590  0.8029 -0.9037 -0.3151
 4578SOL    HW318079   0.146   5.916   3.537  1.3692 -1.0035 -1.0673
 4578SOL    MW418080   0.186   5.992   3.526  0.2554 -0.2551 -0.2856
 4579SOL     OW18081   2.925   6.208   5.052  0.3341  0.1821 -0.1852
 4579SOL    HW218082   2.935   6.243   4.964  0.8601 -0.1965 -0.2774
 4579SOL    HW318083   3.012   6.176   5.076  1.0224  3.0067  1.6677
 4579SOL    MW418084   2.938   6.209   5.044  0.4943  0.5048  0.0471
 4580SOL     OW18085   5.131   2.793   0.875  0.5244  0.0512 -0.0931
 4580SOL    HW218086   5.044   2.815   0.907 -0.1579 -1.6909 -0.6360
 4580SOL    HW318087   5.177   2.760   0.952  0.8627  1.3093  0.2728
 4580SOL    MW418088   5.126   2.792   0.889  0.4790 -0.0126 -0.1164
 4581SOL     OW18089   5.377   3.313   4.233 -0.1092  0.0223 -0.5949
 4581SOL    HW218090   5.366   3.261   4.312  2.5715  0.4719  0.1829
 4581SOL    HW318091   5.290   3.347   4.214 -1.4508 -2.6341  0.3054
 4581SOL    MW418092   5.364   3.311   4.241  0.0675 -0.2689 -0.3735
 4582SOL     OW18093   1.267   1.430   1.429  0.0965  0.4313 -0.3724
 4582SOL    HW218094   1.183   1.463   1.396 -2.2894 -2.1057  2.4054
 4582SOL    HW318095   1.274   1.342   1.393  2.2349  0.9822 -1.4451
 4582SOL    MW418096   1.256   1.423   1.420  0.0639  0.1693 -0.1474
 4583SOL     OW18097   4.178   3.403   5.450 -0.0407  0.1888 -0.1281
 4583SOL    HW218098   4.136   3.352   5.381  0.4209  0.0910 -0.3397
 4583SOL    HW318099   4.252   3.445   5.407  0.2599  0.1118  0.3114
 4583SOL    MW418100   4.182   3.401   5.435  0.0599  0.1657 -0.0980
 4584SOL     OW18101   1.812   5.542   4.395 -0.0617 -0.1155  0.3877
 4584SOL    HW218102   1.867   5.609   4.436 -0.2435 -1.2111  2.5353
 4584SOL    HW318103   1.873   5.470   4.375 -0.3153 -0.4071  0.6556
 4584SOL    MW418104   1.828   5.541   4.398 -0.1191 -0.2985  0.7064
 4585SOL     OW18105   4.611   6.060   1.416 -0.3142  0.0960 -0.2647
 4585SOL    HW218106   4.591   6.112   1.494 -2.5444  0.3626 -0.9283
 4585SOL    HW318107   4.526   6.050   1.372  0.4700 -2.0315 -1.4358
 4585SOL    MW418108   4.597   6.065   1.421 -0.5050 -0.1495 -0.5068
 4586SOL     OW18109   0.915   3.090   5.439  0.4737 -0.4180 -0.0085
 4586SOL    HW218110   0.895   3.165   5.494 -0.2696  0.8873 -1.9492
 4586SOL    HW318111   0.975   3.124   5.372 -1.3931 -0.9787 -2.0983
 4586SOL    MW418112   0.920   3.105   5.437  0.1294 -0.3197 -0.5403
 4587SOL     OW18113   2.726   1.659   6.251  0.2716  0.1682  0.3159
 4587SOL    HW218114   2.788   1.731   6.258 -0.0658  0.7379 -1.8381
 4587SOL    HW318115   2.649   1.688   6.301  1.6048 -0.5423  2.9892
 4587SOL    MW418116   2.724   1.672   6.259  0.4030  0.1496  0.3844
 4588SOL     OW18117   1.025   0.266   1.560 -0.4052  0.1299  0.2815
 4588SOL    HW218118   1.117   0.260   1.533 -0.7580  0.6709 -1.1516
 4588SOL    HW318119   1.012   0.192   1.618  0.8234 -0.2158  0.1502
 4588SOL    MW418120   1.035   0.256   1.564 -0.2897  0.1557  0.0751
 4589SOL     OW18121   1.257   5.400   3.578 -0.5028  0.8058  0.2950
 4589SOL    HW218122   1.267   5.402   3.483  0.8805 -2.6754  0.2201
 4589SOL    HW318123   1.296   5.482   3.608 -0.4052  1.7083 -2.0744
 4589SOL    MW418124   1.264   5.411   3.569 -0.3074  0.4656 -0.0275
 4590SOL     OW18125   1.285   0.946   3.838  0.1249 -0.2021  0.2286
 4590SOL    HW218126   1.267   0.928   3.746  0.6815 -1.9404  0.4244
 4590SOL    HW318127   1.269   0.863   3.883  2.4116 -0.1429  1.2900
 4590SOL    MW418128   1.281   0.933   3.832  0.5001 -0.4236  0.3945
 4591SOL     OW18129   2.939   1.092   2.851 -0.1998 -0.2180 -0.7158
 4591SOL    HW218130   2.974   1.035   2.919 -0.9403  0.6451  0.4367
 4591SOL    HW318131   2.981   1.062   2.770 -0.0693 -1.9340 -0.0562
 4591SOL    MW418132   2.949   1.081   2.849 -0.2802 -0.3305 -0.4767
 4592SOL     OW18133   0.998   1.011   2.417  0.0630  0.2494  0.2063
 4592SOL    HW218134   0.930   1.040   2.355 -1.3047 -2.3522  0.3083
 4592SOL    HW318135   1.003   1.081   2.482 -1.5370  1.1656 -0.5874
 4592SOL    MW418136   0.989   1.024   2.417 -0.3286  0.0270  0.1150
 4593SOL     OW18137   3.863   1.947   4.177 -0.0096  0.2112 -0.3801
 4593SOL    HW218138   3.946   1.924   4.218  0.3443  1.3491 -0.4298
 4593SOL    HW318139   3.865   1.903   4.092  0.6858  0.4883 -0.5123
 4593SOL    MW418140   3.874   1.938   4.171  0.1288  0.3979 -0.4041
 4594SOL     OW18141   0.675   5.851   3.128 -0.2783  0.1664 -0.3239
 4594SOL    HW218142   0.694   5.794   3.054 -2.2268 -0.7690 -0.1795
 4594SOL    HW318143   0.638   5.930   3.090 -2.2909 -0.7433 -0.3762
 4594SOL    MW418144   0.673   5.854   3.113 -0.8009 -0.0771 -0.3117
 4595SOL     OW18145   3.411   0.112   0.515 -0.3127  0.6420 -0.1950
 4595SOL    HW218146   3.471   0.046   0.550 -0.0091  0.4643 -1.0464
 4595SOL    HW318147   3.466   0.189   0.499 -0.3908  0.6118 -0.6018
 4595SOL    MW418148   3.426   0.114   0.518 -0.2829  0.6146 -0.3610
 4596SOL     OW18149   0.790   5.187   4.127 -0.5413  0.0901  0.3444
 4596SOL    HW218150   0.860   5.122   4.128  1.3561  1.9007 -1.5754
 4596SOL    HW318151   0.803   5.238   4.207  2.5150  2.3108 -1.3188
 4596SOL    MW418152   0.801   5.185   4.137  0.1123  0.6219 -0.1284
 4597SOL     OW18153   3.558   2.577   0.492 -0.2749  0.6269 -0.2189
 4597SOL    HW218154   3.495   2.648   0.501 -0.4105  0.2477  2.4556
 4597SOL    HW318155   3.631   2.602   0.548  1.4705  0.4443 -2.2635
 4597SOL    MW418156   3.559   2.590   0.500 -0.0625  0.5527 -0.1358
 4598SOL     OW18157   2.090   1.448   5.509 -0.8302 -0.0343 -0.3644
 4598SOL    HW218158   2.145   1.385   5.555  0.6855 -0.2163 -2.3189
 4598SOL    HW318159   2.116   1.533   5.544 -1.0558 -0.2780  0.4271
 4598SOL    MW418160   2.100   1.451   5.520 -0.6600 -0.0905 -0.5178
 4599SOL     OW18161   0.899   5.339   3.498  0.0141  0.5362 -0.6218
 4599SOL    HW218162   0.804   5.346   3.486 -0.1044  1.3136  0.6151
 4599SOL    HW318163   0.920   5.403   3.566  1.2662 -0.4249 -0.0557
 4599SOL    MW418164   0.889   5.349   3.505  0.1637  0.5119 -0.3839
 4600SOL     OW18165   3.611   3.771   5.466  0.1289 -0.1507 -0.0497
 4600SOL    HW218166   3.669   3.820   5.408  2.5857 -1.7595  0.8788
 4600SOL    HW318167   3.563   3.711   5.408  0.3971  0.2549 -0.7003
 4600SOL    MW418168   3.612   3.769   5.451  0.4884 -0.3094 -0.0131
 4601SOL     OW18169   1.572   2.347   6.335 -0.6184  0.0168 -0.0307
 4601SOL    HW218170   1.532   2.278   6.389  0.3026 -1.4720 -1.1816
 4601SOL    HW318171   1.508   2.363   6.266 -0.1328 -0.9284 -0.7239
 4601SOL    MW418172   1.558   2.340   6.333 -0.4328 -0.3043 -0.2740
 4602SOL     OW18173   3.930   0.930   0.007  0.5387  0.4336  0.2630
 4602SOL    HW218174   3.939   0.954  -0.086 -1.6928 -1.7664 -0.6213
 4602SOL    HW318175   3.843   0.891   0.013  1.8280 -2.4220  2.6086
 4602SOL    MW418176   3.920   0.928  -0.005  0.4144 -0.2334  0.4558
 4603SOL     OW18177   2.079   6.231   2.291  0.7148  0.4650 -0.4548
 4603SOL    HW218178   2.155   6.190   2.250  1.5036  1.6088 -0.1797
 4603SOL    HW318179   2.089   6.210   2.384  1.3254  1.5652 -0.2607
 4603SOL    MW418180   2.090   6.223   2.298  0.8994  0.7611 -0.3929
 4604SOL     OW18181   3.379   3.382   5.128  0.4136 -0.1514  0.2593
 4604SOL    HW218182   3.377   3.465   5.081 -0.3603 -1.3104 -1.8774
 4604SOL    HW318183   3.296   3.339   5.104  1.2541 -1.9677  0.4573
 4604SOL    MW418184   3.368   3.387   5.119  0.4224 -0.5439  0.0035
 4605SOL     OW18185   5.438   1.699   5.278 -0.6655 -0.5628  0.4363
 4605SOL    HW218186   5.421   1.705   5.372 -0.8091 -2.0374  0.5328
 4605SOL    HW318187   5.380   1.629   5.248  1.4917 -2.2026 -0.1541
 4605SOL    MW418188   5.428   1.691   5.287 -0.3998 -0.9737  0.3711
 4606SOL     OW18189   0.270   5.050   5.003 -0.0096 -0.7004  0.7586
 4606SOL    HW218190   0.230   4.968   5.029 -1.5667  0.2550  1.5091
 4606SOL    HW318191   0.363   5.039   5.024 -0.1843 -2.2425  0.8406
 4606SOL    MW418192   0.277   5.038   5.009 -0.2381 -0.7778  0.8684
 4607SOL     OW18193   4.971   5.540   4.800  0.7443 -0.0145 -0.2725
 4607SOL    HW218194   4.879   5.538   4.776  0.8301  0.1078 -0.6217
 4607SOL    HW318195   4.977   5.607   4.868  0.6851  0.4466 -0.7214
 4607SOL    MW418196   4.960   5.548   4.806  0.7478  0.0625 -0.3778
 4608SOL     OW18197   2.095   1.760   2.957 -0.2104  0.7128 -0.2162
 4608SOL    HW218198   2.176   1.807   2.975  0.5103 -0.4490 -0.3353
 4608SOL    HW318199   2.106   1.725   2.869 -0.4218 -0.2655  0.1328
 4608SOL    MW418200   2.107   1.762   2.948 -0.1432  0.4305 -0.1859
 4609SOL     OW18201   5.556   2.412   0.579 -0.1208 -0.3194 -0.4581
 4609SOL    HW218202   5.491   2.346   0.554 -0.3254 -0.9973  1.6333
 4609SOL    HW318203   5.535   2.433   0.670  1.2980  1.0339 -0.3990
 4609SOL    MW418204   5.544   2.406   0.588  0.0394 -0.2303 -0.1744
 4610SOL     OW18205   4.788   3.341   1.123  0.4951  0.1764 -0.1968
 4610SOL    HW218206   4.784   3.258   1.170 -0.3647  1.5385  2.2999
 4610SOL    HW318207   4.851   3.394   1.172 -0.6818  1.7795 -0.3443
 4610SOL    MW418208   4.796   3.337   1.135  0.2264  0.5676  0.1132
 4611SOL     OW18209   3.696   0.364   3.037 -0.4008 -0.0633 -0.0562
 4611SOL    HW218210   3.693   0.429   2.967 -0.0568 -0.4533 -0.4413
 4611SOL    HW318211   3.608   0.365   3.074 -1.6843 -2.1668 -2.6520
 4611SOL    MW418212   3.684   0.372   3.032 -0.5247 -0.3923 -0.4495
 4612SOL     OW18213   4.107   3.890   4.076  0.0357 -0.1981 -0.5900
 4612SOL    HW218214   4.031   3.915   4.129  0.0259  0.8609 -1.0795
 4612SOL    HW318215   4.077   3.899   3.986  1.3527  2.4623 -0.8729
 4612SOL    MW418216   4.093   3.895   4.071  0.2082  0.2927 -0.6919
 4613SOL     OW18217   0.803   0.084   0.008  0.1582 -0.3212 -0.2034
 4613SOL    HW218218   0.748   0.156   0.039  0.7903 -0.3532  1.0429
 4613SOL    HW318219   0.762   0.005   0.044 -0.1850 -0.5578 -1.0652
 4613SOL    MW418220   0.790   0.083   0.017  0.1963 -0.3566 -0.1527
 4614SOL     OW18221   1.785   3.745   3.383  0.6601  0.8472  0.1622
 4614SOL    HW218222   1.780   3.807   3.456 -0.8200  1.4622 -0.4299
 4614SOL    HW318223   1.747   3.792   3.309 -2.8611 -1.5268  0.2273
 4614SOL    MW418224   1.779   3.759   3.383  0.0002  0.6151  0.0926
 4615SOL     OW18225   2.982   3.436   2.680 -0.0125  0.2690  0.9047
 4615SOL    HW218226   3.074   3.415   2.662 -0.4581 -0.4611 -0.7072
 4615SOL    HW318227   2.984   3.523   2.718  1.2211  1.0767 -0.8907
 4615SOL    MW418228   2.994   3.444   2.683  0.0914  0.2793  0.4551
 4616SOL     OW18229   5.286   5.237   6.167  0.3339 -0.6091  0.1602
 4616SOL    HW218230   5.292   5.268   6.257  1.4464  0.6680 -0.3404
 4616SOL    HW318231   5.306   5.313   6.113  0.0271 -1.4403 -1.1752
 4616SOL    MW418232   5.289   5.251   6.172  0.4402 -0.5503 -0.0820
 4617SOL     OW18233   5.729   0.560   3.770 -0.0527  0.1998  0.8526
 4617SOL    HW218234   5.786   0.572   3.845  0.3332 -1.3427  0.8475
 4617SOL    HW318235   5.658   0.504   3.802 -0.1205 -0.1086  0.1859
 4617SOL    MW418236   5.727   0.554   3.784 -0.0108 -0.0444  0.7640
 4618SOL     OW18237   2.812   5.075   3.097  0.1876  0.3713  0.4606
 4618SOL    HW218238   2.776   5.100   3.012 -0.3948  0.8747  0.8436
 4618SOL    HW318239   2.735   5.068   3.154  0.6318  0.7767  1.1228
 4618SOL    MW418240   2.797   5.077   3.093  0.1694  0.4912  0.5985
 4619SOL     OW18241   0.203   3.079   5.382 -0.4128  0.0876  0.5226
 4619SOL    HW218242   0.145   3.092   5.307  0.7534  0.3885 -0.3721
 4619SOL    HW318243   0.278   3.137   5.364 -0.2646  0.4337  2.1020
 4619SOL    MW418244   0.205   3.089   5.369 -0.2394  0.1730  0.6129
 4620SOL     OW18245   2.302   5.358   2.898 -0.1650  0.3810  0.3238
 4620SOL    HW218246   2.280   5.379   2.807  0.3362  1.6584  0.4775
 4620SOL    HW318247   2.344   5.272   2.893 -0.5952  0.2119 -0.5857
 4620SOL    MW418248   2.305   5.350   2.885 -0.1556  0.5272  0.2241
 4621SOL     OW18249   1.949   3.263   2.261  0.1675 -0.3064 -0.2711
 4621SOL    HW218250   1.896   3.192   2.226  0.1283 -1.1926  1.4996
 4621SOL    HW318251   1.908   3.343   2.225 -1.6901 -1.0174  0.1376
 4621SOL    MW418252   1.936   3.264   2.252 -0.0827 -0.5171  0.0164
 4622SOL     OW18253   3.537   4.742   1.257 -0.1962 -0.1916  0.1566
 4622SOL    HW218254   3.500   4.693   1.330 -1.5444  0.0433 -0.3450
 4622SOL    HW318255   3.551   4.677   1.189  0.4385 -0.2924  0.3673
 4622SOL    MW418256   3.534   4.727   1.258 -0.2904 -0.1739  0.1182
 4623SOL     OW18257   1.350   4.218   2.386 -0.4211  0.1422 -0.0474
 4623SOL    HW218258   1.279   4.154   2.375 -1.1315  0.6277  1.4062
 4623SOL    HW318259   1.358   4.228   2.481  0.9377  0.8375 -0.2202
 4623SOL    MW418260   1.342   4.211   2.397 -0.3355  0.2980  0.1216
 4624SOL     OW18261   4.366   5.858   4.174  0.1024 -0.3308  0.5607
 4624SOL    HW218262   4.455   5.830   4.154 -0.2262 -1.9386  1.2346
 4624SOL    HW318263   4.311   5.812   4.111 -0.2087  1.6045 -0.6829
 4624SOL    MW418264   4.370   5.848   4.163  0.0180 -0.2876  0.4856
 4625SOL     OW18265   6.270   1.974   6.301  0.0036  0.0774  0.0356
 4625SOL    HW218266   6.247   2.061   6.334  2.7604  1.1348 -0.5321
 4625SOL    HW318267   6.321   1.934   6.371 -1.2910 -1.1323  0.3091
 4625SOL    MW418268   6.274   1.980   6.314  0.1965  0.0573 -0.0033
 4626SOL     OW18269   3.397   2.709   4.177 -0.3676 -1.1575 -0.4549
 4626SOL    HW218270   3.360   2.710   4.265  2.0954  2.3114  0.7550
 4626SOL    HW318271   3.450   2.629   4.174  1.4510 -0.1930  2.2424
 4626SOL    MW418272   3.399   2.698   4.188  0.1973 -0.5725  0.0606
 4627SOL     OW18273   5.160   3.017   3.937  0.4084  0.3209  0.4894
 4627SOL    HW218274   5.253   3.037   3.947  0.9138 -1.7995  0.4165
 4627SOL    HW318275   5.126   3.011   4.026 -0.1029  2.7803  0.5195
 4627SOL    MW418276   5.167   3.019   3.950  0.4076  0.3656  0.4837
 4628SOL     OW18277   1.430   1.541   2.517 -0.0610 -0.1000 -0.0611
 4628SOL    HW218278   1.374   1.565   2.443  0.0855 -0.9577 -0.4687
 4628SOL    HW318279   1.497   1.484   2.479  0.4023 -0.0281  0.6264
 4628SOL    MW418280   1.431   1.536   2.503  0.0194 -0.2037 -0.0242
 4629SOL     OW18281   0.544   5.171   3.729  0.2642  0.2609 -0.0855
 4629SOL    HW218282   0.616   5.199   3.786  1.2227 -0.6535 -0.8225
 4629SOL    HW318283   0.476   5.237   3.745  2.3111  2.9649 -1.5538
 4629SOL    MW418284   0.545   5.184   3.739  0.6607  0.4970 -0.3765
 4630SOL     OW18285   3.975   5.298   1.825  0.2051  0.1628  0.9169
 4630SOL    HW218286   4.008   5.311   1.736 -1.4561  0.2351  0.2624
 4630SOL    HW318287   4.033   5.233   1.863  0.2523 -0.7795 -0.6570
 4630SOL    MW418288   3.987   5.292   1.818 -0.0078  0.0480  0.6229
 4631SOL     OW18289   5.683   5.238   4.475 -0.2148 -0.1964  0.5167
 4631SOL    HW218290   5.677   5.154   4.429  0.8060 -0.6800  1.2201
 4631SOL    HW318291   5.609   5.289   4.441 -0.5757 -1.1970 -0.2774
 4631SOL    MW418292   5.672   5.233   4.465 -0.1277 -0.3922  0.5047
 4632SOL     OW18293   5.153   0.137   0.937  0.2118  0.5223 -0.2511
 4632SOL    HW218294   5.108   0.216   0.967  1.8417  1.6967 -0.7459
 4632SOL    HW318295   5.244   0.164   0.924  1.3663 -1.9799  1.7256
 4632SOL    MW418296   5.159   0.151   0.939  0.5791  0.3471 -0.0556
 4633SOL     OW18297   5.597   0.579   2.146 -0.4493 -0.7326 -0.5073
 4633SOL    HW218298   5.554   0.619   2.221 -0.0228  0.6322 -0.9735
 4633SOL    HW318299   5.667   0.525   2.184  0.4572  0.7930  0.0558
 4633SOL    MW418300   5.601   0.577   2.161 -0.2734 -0.3512 -0.4945
 4634SOL     OW18301   5.756   4.306   4.804  0.5924 -0.2601 -0.2086
 4634SOL    HW218302   5.664   4.311   4.830  0.4521 -1.1764 -0.4654
 4634SOL    HW318303   5.757   4.240   4.734  1.3702  0.1132 -0.5622
 4634SOL    MW418304   5.744   4.298   4.798  0.6765 -0.3317 -0.2891
 4635SOL     OW18305   0.792   1.313   0.861  0.2823 -0.0887  0.6353
 4635SOL    HW218306   0.767   1.220   0.858 -0.0779  0.0257 -0.3889
 4635SOL    HW318307   0.878   1.315   0.818 -0.1088  0.1656 -0.1461
 4635SOL    MW418308   0.800   1.301   0.855  0.1832 -0.0401  0.3971
 4636SOL     OW18309   4.253   3.728   5.207 -0.1610 -0.2097 -0.2415
 4636SOL    HW218310   4.158   3.734   5.193 -0.1441 -1.1152 -0.8012
 4636SOL    HW318311   4.286   3.815   5.184 -0.7645 -0.1428 -0.8773
 4636SOL    MW418312   4.245   3.741   5.202 -0.2384 -0.3204 -0.3992
 4637SOL     OW18313   4.044   6.123   0.737 -0.0862 -0.6139  0.2571
 4637SOL    HW218314   4.007   6.207   0.763  1.3162  0.2813 -0.5403
 4637SOL    HW318315   3.968   6.066   0.724 -1.2283  1.1639 -1.3839
 4637SOL    MW418316   4.029   6.126   0.739 -0.0519 -0.2612 -0.0646
 4638SOL     OW18317   5.107   2.478   0.042  0.3561  0.3837  0.1819
 4638SOL    HW218318   5.186   2.439   0.081  1.8157  1.8416 -1.1450
 4638SOL    HW318319   5.088   2.423  -0.033 -1.0153 -1.0050  1.4721
 4638SOL    MW418320   5.115   2.465   0.038  0.3677  0.3929  0.1771
 4639SOL     OW18321   1.600   3.948   2.682  0.2514  0.2002  0.2385
 4639SOL    HW218322   1.639   3.924   2.598 -1.2446 -1.2860 -0.0781
 4639SOL    HW318323   1.506   3.957   2.663 -0.1198 -0.2130  1.7488
 4639SOL    MW418324   1.593   3.946   2.669  0.0051 -0.0504  0.3960
 4640SOL     OW18325   5.226   6.088   5.828 -0.0909  0.0509  0.4866
 4640SOL    HW218326   5.201   6.029   5.899  0.5329  1.1271  1.6532
 4640SOL    HW318327   5.227   6.034   5.750 -0.6483 -1.2121  1.3300
 4640SOL    MW418328   5.223   6.073   5.827 -0.0822  0.0262  0.7518
 4641SOL     OW18329   0.872   3.110   4.056 -0.1402 -0.5687  0.1562
 4641SOL    HW218330   0.787   3.087   4.095 -1.2038 -0.1880 -1.8058
 4641SOL    HW318331   0.889   3.199   4.088 -0.3273 -0.7613  0.8056
 4641SOL    MW418332   0.863   3.119   4.066 -0.3052 -0.5439 -0.0170
 4642SOL     OW18333   4.669   5.520   0.775  0.1944 -0.0920  0.5351
 4642SOL    HW218334   4.757   5.498   0.805  1.0830  0.9015 -1.1702
 4642SOL    HW318335   4.657   5.611   0.804  0.9479  0.7814 -1.6135
 4642SOL    MW418336   4.679   5.529   0.783  0.4110  0.1543  0.0266
 4643SOL     OW18337   5.916   5.035   3.661 -0.1466  0.7790 -0.5441
 4643SOL    HW218338   5.963   5.102   3.710 -0.5006  0.5915  0.0608
 4643SOL    HW318339   5.906   5.072   3.574 -0.4249  1.5526 -0.1895
 4643SOL    MW418340   5.921   5.049   3.656 -0.2300  0.8563 -0.4175
 4644SOL     OW18341   3.738   0.751   3.576  0.7857  0.6099 -0.1458
 4644SOL    HW218342   3.649   0.748   3.541  0.6501 -0.0977  0.2198
 4644SOL    HW318343   3.773   0.834   3.546 -0.1280  1.0695  0.0106
 4644SOL    MW418344   3.731   0.761   3.568  0.6473  0.5771 -0.0769
 4645SOL     OW18345   6.375   1.378   1.873 -0.5538  0.9304  0.3447
 4645SOL    HW218346   6.449   1.434   1.850  0.1859 -1.0744 -2.9614
 4645SOL    HW318347   6.298   1.434   1.864  0.3397  2.1603  0.1615
 4645SOL    MW418348   6.374   1.393   1.869 -0.3383  0.8281 -0.1157
 4646SOL     OW18349   5.254   5.816   3.811 -0.4765  0.0414  1.0827
 4646SOL    HW218350   5.196   5.742   3.791  2.0143 -0.9226 -4.1561
 4646SOL    HW318351   5.331   5.776   3.851 -0.0471  0.1241  0.3392
 4646SOL    MW418352   5.256   5.801   3.814 -0.0912 -0.0749  0.2934
 4647SOL     OW18353   6.355   2.612   4.527  0.5810  0.2669 -0.0536
 4647SOL    HW218354   6.323   2.673   4.594  1.7686  0.6240  0.2006
 4647SOL    HW318355   6.280   2.555   4.510 -0.2467  1.1746  0.4149
 4647SOL    MW418356   6.341   2.613   4.534  0.6285  0.4338  0.0418
 4648SOL     OW18357   5.182   3.077   5.744 -0.3956 -0.2440 -0.3318
 4648SOL    HW218358   5.147   3.115   5.825 -1.4847 -1.2720 -0.2866
 4648SOL    HW318359   5.107   3.076   5.685 -0.3576 -2.0781 -0.4054
 4648SOL    MW418360   5.167   3.082   5.747 -0.5343 -0.6217 -0.3355
 4649SOL     OW18361   4.525   3.858   5.544 -0.2401 -0.2045 -0.2070
 4649SOL    HW218362   4.433   3.835   5.538  0.0160 -1.5492  0.5312
 4649SOL    HW318363   4.572   3.778   5.521  0.7176 -0.0901  1.1920
 4649SOL    MW418364   4.519   3.845   5.540 -0.0800 -0.3668  0.0749
 4650SOL     OW18365   3.269   5.285   3.669 -0.3149 -0.0068 -0.3096
 4650SOL    HW218366   3.300   5.374   3.650 -1.3323  0.8621  1.8128
 4650SOL    HW318367   3.189   5.276   3.616 -0.8190  0.7962  0.2808
 4650SOL    MW418368   3.262   5.296   3.659 -0.5157  0.2138  0.0483
 4651SOL     OW18369   4.062   1.478   3.758 -0.2819  0.3148  0.2397
 4651SOL    HW218370   4.032   1.430   3.835  0.2148 -1.5540 -0.6539
 4651SOL    HW318371   4.103   1.411   3.703  0.2179  1.7508 -1.2255
 4651SOL    MW418372   4.063   1.463   3.761 -0.1504  0.2577 -0.0715
 4652SOL     OW18373   4.594   0.943   2.151 -0.1210  0.5215 -0.0974
 4652SOL    HW218374   4.535   1.007   2.111  0.1225  0.2361 -0.9247
 4652SOL    HW318375   4.603   0.874   2.085  0.2148 -0.0038  0.4901
 4652SOL    MW418376   4.587   0.943   2.137 -0.0446  0.4146 -0.1290
 4653SOL     OW18377   2.007   6.007   2.013 -0.2622 -0.5174  0.4184
 4653SOL    HW218378   1.951   6.015   2.090  1.5964  0.4565  1.7614
 4653SOL    HW318379   2.081   5.953   2.043  0.2388 -0.5535 -0.8357
 4653SOL    MW418380   2.010   6.001   2.027  0.0491 -0.3937  0.4301
 4654SOL     OW18381   3.434   0.826   4.812 -0.4045  0.0651 -0.2339
 4654SOL    HW218382   3.491   0.758   4.777  0.5842  1.2505 -0.9916
 4654SOL    HW318383   3.463   0.837   4.902 -0.2275 -0.1618 -0.2616
 4654SOL    MW418384   3.445   0.818   4.819 -0.2507  0.1915 -0.3375
 4655SOL     OW18385   3.574   4.726   0.539  0.5414 -0.3170  0.7153
 4655SOL    HW218386   3.521   4.702   0.615 -0.4645  0.8703  0.4189
 4655SOL    HW318387   3.642   4.659   0.535 -0.8345 -1.8040  1.2123
 4655SOL    MW418388   3.576   4.714   0.549  0.2272 -0.3566  0.7418
 4656SOL     OW18389   0.213   3.455   1.399 -0.2978  0.3703 -0.3859
 4656SOL    HW218390   0.185   3.538   1.360 -1.9831 -0.1573 -0.4159
 4656SOL    HW318391   0.271   3.479   1.471 -0.2508  1.5369 -0.8038
 4656SOL    MW418392   0.217   3.469   1.403 -0.5140  0.4546 -0.4450
 4657SOL     OW18393   3.028   5.361   4.433 -0.2171 -0.4515  0.2295
 4657SOL    HW218394   3.037   5.428   4.501 -0.7964  0.9072 -0.9915
 4657SOL    HW318395   3.117   5.345   4.404 -0.0515 -0.3923  0.6866
 4657SOL    MW418396   3.041   5.368   4.438 -0.2717 -0.2644  0.1287
 4658SOL     OW18397   0.356   2.945   1.149  0.4156  0.6503  0.1670
 4658SOL    HW218398   0.307   2.998   1.212  1.3716  1.6948  0.0536
 4658SOL    HW318399   0.294   2.929   1.078 -1.0007 -1.3352  1.7173
 4658SOL    MW418400   0.341   2.950   1.148  0.3549  0.5261  0.3566
 4659SOL     OW18401   0.795   6.141   1.023 -0.6584  0.6805 -0.4035
 4659SOL    HW218402   0.757   6.070   0.971 -1.1823  0.0150  0.8420
 4659SOL    HW318403   0.720   6.178   1.070 -0.0245  0.4445  0.8154
 4659SOL    MW418404   0.780   6.136   1.022 -0.6439  0.5615 -0.0784
 4660SOL     OW18405   5.295   1.128   6.377  0.0919  0.1969 -0.0554
 4660SOL    HW218406   5.372   1.085   6.415  1.0196  1.8691  0.0312
 4660SOL    HW318407   5.238   1.144   6.452 -0.3202 -0.9329 -0.1020
 4660SOL    MW418408   5.298   1.124   6.392  0.1599  0.2685 -0.0501
 4661SOL     OW18409   0.450   5.690   4.465  0.1313  1.0179  0.0906
 4661SOL    HW218410   0.362   5.699   4.430  0.2642  0.4867 -0.3774
 4661SOL    HW318411   0.503   5.752   4.414  0.2646  0.4653 -0.4469
 4661SOL    MW418412   0.446   5.699   4.454  0.1664  0.8749 -0.0420
 4662SOL     OW18413   0.976   1.470   5.432  0.7499 -0.2361  0.4959
 4662SOL    HW218414   1.056   1.521   5.444 -0.0581  0.8975  1.2768
 4662SOL    HW318415   0.959   1.474   5.338  1.6379 -0.5255  0.3232
 4662SOL    MW418416   0.984   1.478   5.421  0.7604 -0.1247  0.5761
 4663SOL     OW18417   0.558   4.150   4.788 -0.0867 -0.5011  0.3980
 4663SOL    HW218418   0.484   4.211   4.789 -0.1858 -0.6201  0.9903
 4663SOL    HW318419   0.615   4.180   4.859 -0.1295 -1.0793  0.6862
 4663SOL    MW418420   0.556   4.162   4.798 -0.1055 -0.5931  0.5141
 4664SOL     OW18421   1.487   2.827   3.720 -0.0013  0.3458  0.2380
 4664SOL    HW218422   1.447   2.815   3.634  0.7474 -0.6220  0.0034
 4664SOL    HW318423   1.450   2.757   3.774  1.5132 -0.7632 -0.0642
 4664SOL    MW418424   1.477   2.816   3.716  0.2973  0.0718  0.1671
 4665SOL     OW18425   0.034   2.210   4.105 -0.3442  0.2877 -0.3187
 4665SOL    HW218426  -0.045   2.265   4.104 -0.0222  0.7799  0.6320
 4665SOL    HW318427   0.024   2.155   4.183  1.6580  2.4849  1.6237
 4665SOL    MW418428   0.022   2.210   4.115 -0.0376  0.6425  0.0630
 4666SOL     OW18429   3.194   6.151   5.089 -0.4364 -0.1351 -0.0207
 4666SOL    HW218430   3.226   6.210   5.158 -1.4746  0.4582 -0.0271
 4666SOL    HW318431   3.210   6.063   5.124  3.0762  0.0028 -0.8554
 4666SOL    MW418432   3.200   6.147   5.103 -0.1099 -0.0386 -0.1317
 4667SOL     OW18433   4.616   3.082   2.843  0.4992 -0.0706 -0.1438
 4667SOL    HW218434   4.541   3.131   2.811  1.0725  0.8075 -0.2018
 4667SOL    HW318435   4.581   3.025   2.912 -0.1376  0.6890  0.1790
 4667SOL    MW418436   4.602   3.081   2.848  0.4908  0.1455 -0.1089
 4668SOL     OW18437   3.217   2.680   2.093 -0.1066 -0.2439  0.2161
 4668SOL    HW218438   3.194   2.730   2.172 -0.4098  0.3072 -0.2103
 4668SOL    HW318439   3.308   2.653   2.107  0.1797  0.7361  0.3087
 4668SOL    MW418440   3.226   2.683   2.105 -0.1088 -0.0419  0.1721
 4669SOL     OW18441   2.863   6.295   4.812 -0.5652  0.0706  0.0922
 4669SOL    HW218442   2.951   6.321   4.784 -0.5646  0.8269  0.7730
 4669SOL    HW318443   2.816   6.278   4.731  0.2114 -0.3545 -0.2810
 4669SOL    MW418444   2.869   6.296   4.798 -0.4627  0.1143  0.1328
 4670SOL     OW18445   4.847   4.518   6.105  0.5026 -0.1965 -0.1117
 4670SOL    HW218446   4.883   4.552   6.187  1.4916  0.4717 -0.8055
 4670SOL    HW318447   4.827   4.426   6.125  2.3450 -0.5421  0.4105
 4670SOL    MW418448   4.849   4.510   6.119  0.8762 -0.1540 -0.1344
 4671SOL     OW18449   5.805   0.729   1.532 -0.2128 -0.1977 -0.2473
 4671SOL    HW218450   5.876   0.668   1.510 -1.1740 -1.5208  0.1655
 4671SOL    HW318451   5.813   0.742   1.626  1.4021  2.2114 -0.6536
 4671SOL    MW418452   5.815   0.722   1.541 -0.1266 -0.0544 -0.2464
 4672SOL     OW18453   2.853   6.018   2.850  0.2452  0.0965  0.3536
 4672SOL    HW218454   2.759   6.037   2.845 -0.0267 -1.0378  0.8179
 4672SOL    HW318455   2.876   6.035   2.942  0.3038 -0.4185  0.4392
 4672SOL    MW418456   2.844   6.023   2.862  0.2171 -0.1211  0.4262
 4673SOL     OW18457   1.960   6.128   3.297  0.1925  0.1724  0.3040
 4673SOL    HW218458   1.872   6.113   3.261  0.0173 -1.8204  1.3871
 4673SOL    HW318459   2.020   6.093   3.231  0.0579 -0.2525  0.4034
 4673SOL    MW418460   1.956   6.121   3.284  0.1516 -0.1466  0.4600
 4674SOL     OW18461   4.045   1.868   4.794 -0.4586 -0.1359 -0.1283
 4674SOL    HW218462   3.976   1.915   4.747 -0.4471  0.6745  0.6474
 4674SOL    HW318463   4.073   1.928   4.863  0.9661 -0.4948 -0.3730
 4674SOL    MW418464   4.039   1.882   4.797 -0.2691 -0.0763 -0.0583
 4675SOL     OW18465   0.898   1.127   2.785  0.4093  0.3656  0.6446
 4675SOL    HW218466   0.908   1.031   2.790 -2.0842  0.0102  0.1107
 4675SOL    HW318467   0.983   1.158   2.756  0.4181 -2.0073 -2.3716
 4675SOL    MW418468   0.910   1.118   2.782  0.0815  0.0056  0.1762
 4676SOL     OW18469   4.333   2.219   5.338 -0.6235 -0.4196 -0.1433
 4676SOL    HW218470   4.254   2.260   5.372 -0.2050  0.1579  0.1484
 4676SOL    HW318471   4.405   2.270   5.375  0.0052 -2.3736  1.5758
 4676SOL    MW418472   4.332   2.231   5.348 -0.4854 -0.6012  0.1220
 4677SOL     OW18473   4.575   2.379   0.374  0.0366  0.3293  0.0034
 4677SOL    HW218474   4.495   2.400   0.424 -1.3852 -0.2226 -1.9086
 4677SOL    HW318475   4.629   2.457   0.382 -1.5152  1.4769 -0.1395
 4677SOL    MW418476   4.571   2.392   0.382 -0.3558  0.4079 -0.2677
 4678SOL     OW18477   1.260   5.670   5.518  0.2915 -0.2093  0.0276
 4678SOL    HW218478   1.200   5.595   5.511  0.8075 -0.7800  1.3807
 4678SOL    HW318479   1.242   5.722   5.440 -1.3754 -0.8004 -0.0226
 4678SOL    MW418480   1.249   5.667   5.507  0.1397 -0.3626  0.1995
 4679SOL     OW18481   1.492   4.152   6.021 -0.0713 -0.4304 -0.5218
 4679SOL    HW218482   1.502   4.168   5.928  1.4998  0.1372 -0.2932
 4679SOL    HW318483   1.482   4.239   6.060 -1.5369 -0.7121 -0.2224
 4679SOL    MW418484   1.492   4.166   6.014 -0.0574 -0.3927 -0.4522
 4680SOL     OW18485   1.807   5.688   2.026 -0.1041  0.0674 -0.2736
 4680SOL    HW218486   1.778   5.712   2.113  2.0856 -1.0164  0.8394
 4680SOL    HW318487   1.804   5.593   2.024 -1.7463  0.0937 -2.0390
 4680SOL    MW418488   1.803   5.679   2.037 -0.0319 -0.0721 -0.3597
 4681SOL     OW18489   5.392   2.989   4.104  0.2490 -0.3014  0.5224
 4681SOL    HW218490   5.398   2.922   4.173 -0.1787  0.9098  1.7994
 4681SOL    HW318491   5.361   3.067   4.150 -2.2075  0.0075 -1.4427
 4681SOL    MW418492   5.389   2.990   4.120 -0.1315 -0.1009  0.4316
 4682SOL     OW18493   4.080   3.052   4.854  0.2266 -0.4644 -0.1153
 4682SOL    HW218494   4.098   3.119   4.788 -0.8111 -1.0913 -1.0772
 4682SOL    HW318495   3.992   3.073   4.885  1.1921  0.6258  2.0991
 4682SOL    MW418496   4.071   3.064   4.850  0.2171 -0.4032  0.0500
 4683SOL     OW18497   2.034   4.014   4.936 -0.1466  0.7289  0.3743
 4683SOL    HW218498   2.030   3.951   4.864  0.1779 -0.7841  1.6106
 4683SOL    HW318499   2.115   4.063   4.922 -0.2546  0.6738 -0.4576
 4683SOL    MW418500   2.044   4.012   4.925 -0.1180  0.5220  0.4277
 4684SOL     OW18501   5.737   1.753   4.327  0.3096  0.2152 -1.5192
 4684SOL    HW218502   5.819   1.714   4.357  0.8885  0.9367 -2.1096
 4684SOL    HW318503   5.751   1.771   4.234 -0.3044  0.8680 -1.5008
 4684SOL    MW418504   5.750   1.750   4.319  0.3050  0.3965 -1.5946
 4685SOL     OW18505   5.352   0.066   2.640 -0.4879 -0.9310  0.5914
 4685SOL    HW218506   5.431   0.116   2.619 -1.4723  0.8214  0.8522
 4685SOL    HW318507   5.368  -0.020   2.603  0.6168  0.0590 -1.4111
 4685SOL    MW418508   5.365   0.061   2.632 -0.4720 -0.5691  0.3616
 4686SOL     OW18509   1.732   4.729   0.010 -0.2483 -1.1980  0.3808
 4686SOL    HW218510   1.775   4.794  -0.044  0.4162 -1.0432  1.0767
 4686SOL    HW318511   1.638   4.741  -0.007 -0.0877 -0.5728 -0.0670
 4686SOL    MW418512   1.725   4.739   0.001 -0.1394 -1.0951  0.4135
 4687SOL     OW18513   3.251   2.283   4.189  0.3887 -0.8027 -0.3643
 4687SOL    HW218514   3.243   2.286   4.094 -1.2355  0.7577 -0.2177
 4687SOL    HW318515   3.162   2.275   4.221  0.8485 -0.5966  1.0527
 4687SOL    MW418516   3.238   2.282   4.181  0.2351 -0.5697 -0.1580
 4688SOL     OW18517   5.649   0.589   3.003 -0.5484  0.4627  0.0465
 4688SOL    HW218518   5.698   0.665   3.036 -0.1921 -0.0429  0.7220
 4688SOL    HW318519   5.634   0.608   2.911 -0.1823  1.2107  0.1312
 4688SOL    MW418520   5.654   0.602   2.995 -0.4531  0.4947  0.1468
 4689SOL     OW18521   1.459   5.552   2.760 -0.5227  0.5113 -0.0930
 4689SOL    HW218522   1.532   5.492   2.770  0.7587  2.0504  0.1751
 4689SOL    HW318523   1.495   5.628   2.715 -1.9339  1.3354  0.0843
 4689SOL    MW418524   1.473   5.554   2.756 -0.5398  0.8231 -0.0343
 4690SOL     OW18525   0.643   1.333   3.201 -0.2419  0.2921 -0.4511
 4690SOL    HW218526   0.678   1.275   3.269 -0.0593  0.8451 -0.0676
 4690SOL    HW318527   0.688   1.417   3.216 -0.8458  0.6644 -0.7067
 4690SOL    MW418528   0.654   1.337   3.212 -0.2975  0.4141 -0.4342
 4691SOL     OW18529   2.926   4.885   2.482 -0.5487 -0.1930 -0.3180
 4691SOL    HW218530   2.832   4.877   2.461 -1.9932  0.3383  4.6867
 4691SOL    HW318531   2.942   4.817   2.547  2.7638 -0.4595 -1.2402
 4691SOL    MW418532   2.915   4.875   2.488 -0.3022 -0.1580  0.2206
 4692SOL     OW18533   0.135   5.839   4.712  0.0891  0.2836  0.0239
 4692SOL    HW218534   0.153   5.833   4.618  2.9116  0.9040  0.4325
 4692SOL    HW318535   0.115   5.931   4.727 -1.8567 -0.0737 -0.1328
 4692SOL    MW418536   0.135   5.850   4.701  0.2048  0.3183  0.0572
 4693SOL     OW18537   3.070   0.994   2.615 -0.6930 -0.5178 -0.0071
 4693SOL    HW218538   3.043   1.065   2.558  1.2395 -1.1415 -1.8040
 4693SOL    HW318539   3.158   1.018   2.645 -1.0374 -0.9569  1.4681
 4693SOL    MW418540   3.078   1.006   2.612 -0.4835 -0.6580 -0.0496
 4694SOL     OW18541   3.881   4.760   6.325 -0.1623 -0.1284 -0.0006
 4694SOL    HW218542   3.895   4.788   6.234  0.1021 -1.0073 -0.2412
 4694SOL    HW318543   3.811   4.817   6.357  0.2358  0.6763 -0.5226
 4694SOL    MW418544   3.874   4.772   6.317 -0.0749 -0.1382 -0.1012
 4695SOL     OW18545   2.119   0.974   2.913  0.3773  0.0329 -0.2724
 4695SOL    HW218546   2.130   1.049   2.855 -0.9562 -0.5891 -1.4000
 4695SOL    HW318547   2.198   0.972   2.966 -0.0243  2.8857  0.5853
 4695SOL    MW418548   2.131   0.983   2.912  0.1484  0.3273 -0.3080
 4696SOL     OW18549   0.686   0.143   0.830  0.5762  0.1040 -0.2975
 4696SOL    HW218550   0.658   0.172   0.917  0.1455  2.0637 -1.0394
 4696SOL    HW318551   0.717   0.053   0.843  0.1810  0.2323  1.7978
 4696SOL    MW418552   0.687   0.135   0.843  0.4672  0.3794 -0.1189
 4697SOL     OW18553   0.895   3.156   0.208  0.0075 -0.2900  0.2628
 4697SOL    HW218554   0.951   3.099   0.259 -2.0514 -1.7634  0.9857
 4697SOL    HW318555   0.900   3.241   0.252  1.2244 -0.5340  0.6147
 4697SOL    MW418556   0.903   3.160   0.220 -0.1036 -0.5166  0.4046
 4698SOL     OW18557   4.424   1.914   3.238  0.3837 -0.0942 -0.2700
 4698SOL    HW218558   4.424   1.833   3.289 -1.6294  0.8244  1.3732
 4698SOL    HW318559   4.356   1.900   3.172 -0.4975  0.4464  0.4824
 4698SOL    MW418560   4.415   1.901   3.236  0.0018  0.0983  0.0460
 4699SOL     OW18561   5.589   2.830   5.386  0.2425 -0.0790  0.3965
 4699SOL    HW218562   5.653   2.871   5.445 -1.9992  1.1353  2.1171
 4699SOL    HW318563   5.544   2.765   5.440  0.3090 -1.2774 -0.9259
 4699SOL    MW418564   5.592   2.827   5.401 -0.0445 -0.0769  0.4490
 4700SOL     OW18565   1.104   2.946   3.430 -0.2740  0.1476  0.5054
 4700SOL    HW218566   1.133   2.856   3.441  1.3989  0.5124 -0.4735
 4700SOL    HW318567   1.164   2.998   3.485 -0.4420  0.7597  0.1250
 4700SOL    MW418568   1.116   2.941   3.439 -0.0755  0.2765  0.3261
 4701SOL     OW18569   3.797   1.923   4.623  0.2818  0.1858  0.1882
 4701SOL    HW218570   3.788   1.874   4.542  1.9359  1.0162 -0.5472
 4701SOL    HW318571   3.724   1.985   4.622  0.0877 -0.0482 -0.4744
 4701SOL    MW418572   3.786   1.925   4.612  0.4745  0.2645  0.0038
 4702SOL     OW18573   4.313   5.255   5.108 -0.1544 -0.2563 -0.0031
 4702SOL    HW218574   4.252   5.183   5.124  0.4550 -0.5396  1.2277
 4702SOL    HW318575   4.283   5.296   5.027  0.7888 -3.2697 -2.0517
 4702SOL    MW418576   4.301   5.251   5.100  0.0504 -0.6913 -0.1110
 4703SOL     OW18577   6.179   2.159   2.894 -0.0533  0.2150 -0.1390
 4703SOL    HW218578   6.155   2.189   2.982 -0.3051 -1.1074  0.2544
 4703SOL    HW318579   6.097   2.130   2.855  0.0896  0.6075 -0.7504
 4703SOL    MW418580   6.165   2.159   2.900 -0.0677  0.0923 -0.1677
 4704SOL     OW18581   2.523   5.337   0.256 -0.2688 -0.6627  0.0611
 4704SOL    HW218582   2.545   5.393   0.182  0.5037  0.1560  0.8755
 4704SOL    HW318583   2.579   5.369   0.327 -0.2209 -2.1037  0.7094
 4704SOL    MW418584   2.533   5.348   0.256 -0.1606 -0.7448  0.2541
 4705SOL     OW18585   2.831   2.295   2.162  0.5317  0.0925 -1.0285
 4705SOL    HW218586   2.779   2.375   2.165  1.6059  0.8304 -1.5469
 4705SOL    HW318587   2.802   2.244   2.238 -0.7662  0.5770 -1.1750
 4705SOL    MW418588   2.820   2.299   2.172  0.5022  0.2538 -1.1162
 4706SOL     OW18589   5.946   5.921   4.641 -0.4677 -0.2530  0.1452
 4706SOL    HW218590   5.988   5.897   4.724 -0.9808 -0.7738  0.2666
 4706SOL    HW318591   5.955   5.843   4.587 -1.0319 -0.2753  0.0777
 4706SOL    MW418592   5.952   5.907   4.645 -0.6098 -0.3247  0.1523
 4707SOL     OW18593   2.432   2.907   3.687 -0.6999  0.3196 -0.2287
 4707SOL    HW218594   2.496   2.836   3.686 -1.1505 -0.0806 -0.7422
 4707SOL    HW318595   2.377   2.888   3.764 -1.5605 -0.5603 -1.0397
 4707SOL    MW418596   2.433   2.895   3.697 -0.8729  0.1507 -0.4034
 4708SOL     OW18597   3.570   0.141   4.056  0.3654  0.1829 -0.1626
 4708SOL    HW218598   3.483   0.130   4.093  0.6630  0.0875  0.5282
 4708SOL    HW318599   3.560   0.118   3.964 -0.1429 -0.7542  0.1115
 4708SOL    MW418600   3.557   0.136   4.049  0.3376  0.0467 -0.0353
 4709SOL     OW18601   4.370   4.383   4.187  0.4622  0.0246 -0.2021
 4709SOL    HW218602   4.325   4.392   4.103 -0.3035  1.7192  0.3455
 4709SOL    HW318603   4.304   4.350   4.247  0.3069  1.1877  0.2857
 4709SOL    MW418604   4.356   4.380   4.183  0.3407  0.4016 -0.0655
 4710SOL     OW18605   0.381   2.235   1.826  0.0892  0.4413  0.4800
 4710SOL    HW218606   0.404   2.197   1.910 -0.1923  2.0857  1.3418
 4710SOL    HW318607   0.289   2.212   1.814  0.2813 -0.2796  0.3256
 4710SOL    MW418608   0.372   2.227   1.835  0.0774  0.5631  0.5733
 4711SOL     OW18609   3.539   0.817   3.389  0.2552 -0.1253  0.0611
 4711SOL    HW218610   3.585   0.852   3.312  0.4133  0.9312  0.6159
 4711SOL    HW318611   3.458   0.781   3.353 -1.7779  4.1040 -0.3020
 4711SOL    MW418612   3.534   0.817   3.374  0.0078  0.5721  0.0864
 4712SOL     OW18613   0.124   4.168   5.666 -0.1491 -0.4060  0.0611
 4712SOL    HW218614   0.132   4.239   5.730 -0.0044 -1.3966  1.1727
 4712SOL    HW318615   0.213   4.157   5.632 -0.2787  0.3103 -0.5485
 4712SOL    MW418616   0.137   4.176   5.670 -0.1471 -0.4422  0.1274
 4713SOL     OW18617   3.711   5.214   1.753 -0.4697  0.0652  0.1663
 4713SOL    HW218618   3.681   5.154   1.684 -0.3180  0.0421  0.1205
 4713SOL    HW318619   3.806   5.212   1.747 -0.4646  1.0151 -0.4576
 4713SOL    MW418620   3.719   5.206   1.743 -0.4490  0.1875  0.0780
 4714SOL     OW18621   2.073   0.456   5.731  0.5685 -0.2436 -0.0149
 4714SOL    HW218622   2.021   0.400   5.674 -0.4444  0.2901  0.3482
 4714SOL    HW318623   2.096   0.531   5.677  1.8045 -0.9177 -0.4593
 4714SOL    MW418624   2.069   0.459   5.717  0.5979 -0.2621 -0.0256
 4715SOL     OW18625   1.919   2.933   4.593  0.4766 -0.1709 -0.3672
 4715SOL    HW218626   1.941   2.996   4.662  1.4201  0.3320 -1.0991
 4715SOL    HW318627   1.904   2.987   4.515 -0.2953 -0.7478 -0.6354
 4715SOL    MW418628   1.920   2.949   4.592  0.4992 -0.1807 -0.4992
 4716SOL     OW18629   5.088   2.909   2.123  0.2603 -0.1938  0.0291
 4716SOL    HW218630   5.057   2.998   2.141  0.2560 -0.1458 -0.2033
 4716SOL    HW318631   5.182   2.913   2.136  0.7438  0.6398 -2.8898
 4716SOL    MW418632   5.096   2.922   2.127  0.3235 -0.0775 -0.3867
 4717SOL     OW18633   3.708   0.410   3.760 -0.3733 -0.3862  0.5343
 4717SOL    HW218634   3.758   0.330   3.744 -1.0885 -1.1515  1.9360
 4717SOL    HW318635   3.771   0.471   3.798  0.4604  0.1861 -1.6167
 4717SOL    MW418636   3.723   0.408   3.763 -0.3577 -0.4116  0.4354
 4718SOL     OW18637   0.186   0.293   4.176  0.4965 -0.0108 -0.4582
 4718SOL    HW218638   0.220   0.252   4.097  0.7640  0.7937 -0.7654
 4718SOL    HW318639   0.212   0.385   4.170 -0.1993  0.2448  0.1563
 4718SOL    MW418640   0.194   0.300   4.165  0.4400  0.1290 -0.4176
 4719SOL     OW18641   0.550   6.132   5.844  0.0657 -0.4822  0.4147
 4719SOL    HW218642   0.458   6.108   5.859 -0.5107  2.0866  1.5520
 4719SOL    HW318643   0.581   6.161   5.930  2.4802 -2.7264  0.4281
 4719SOL    MW418644   0.542   6.133   5.858  0.3082 -0.4394  0.5665
 4720SOL     OW18645   5.524   2.194   2.348 -0.3110  0.5683 -0.0956
 4720SOL    HW218646   5.606   2.176   2.302 -0.0362  0.5536  0.4027
 4720SOL    HW318647   5.542   2.174   2.440 -0.9441  0.3222 -0.0169
 4720SOL    MW418648   5.537   2.189   2.354 -0.3583  0.5339 -0.0195
 4721SOL     OW18649   0.272   6.259   6.087  0.2157  0.6130 -0.1345
 4721SOL    HW218650   0.248   6.351   6.078 -0.1099  0.6348  0.8671
 4721SOL    HW318651   0.260   6.240   6.180  2.5652  0.1961  0.1331
 4721SOL    MW418652   0.267   6.269   6.098  0.4828  0.5609  0.0329
 4722SOL     OW18653   2.521   0.161   4.794  0.4119 -0.4923 -0.5814
 4722SOL    HW218654   2.526   0.218   4.871  0.4677 -0.6640 -0.4550
 4722SOL    HW318655   2.453   0.200   4.740  0.1407 -0.5512 -0.2891
 4722SOL    MW418656   2.513   0.173   4.797  0.3835 -0.5227 -0.5261
 4723SOL     OW18657   4.665   2.530   0.831  0.0975 -0.2864 -0.2653
 4723SOL    HW218658   4.610   2.457   0.859 -2.0811  0.4332 -2.3134
 4723SOL    HW318659   4.741   2.489   0.790  0.6300 -1.3047  1.6052
 4723SOL    MW418660   4.668   2.515   0.829 -0.1197 -0.3258 -0.2887
 4724SOL     OW18661   5.903   1.961   5.518  0.4158 -0.2728 -0.0183
 4724SOL    HW218662   5.913   2.056   5.524 -1.0566 -0.1133  0.3712
 4724SOL    HW318663   5.981   1.925   5.559  0.3834  0.7797  0.9912
 4724SOL    MW418664   5.915   1.969   5.524  0.2173 -0.1129  0.1663
 4725SOL     OW18665   4.136   6.094   3.493  0.4356 -0.8049  0.3705
 4725SOL    HW218666   4.099   6.181   3.483  1.6724 -0.2941  0.0573
 4725SOL    HW318667   4.062   6.039   3.519 -0.3796  0.3066  0.4591
 4725SOL    MW418668   4.121   6.098   3.495  0.4913 -0.5909  0.3409
 4726SOL     OW18669   3.841   2.784   1.880  0.4269  0.4503  0.3963
 4726SOL    HW218670   3.854   2.741   1.965 -0.7621  0.2859  0.5168
 4726SOL    HW318671   3.927   2.785   1.840  0.4200 -2.9751 -0.0465
 4726SOL    MW418672   3.854   2.778   1.886  0.2691 -0.0233  0.3538
 4727SOL     OW18673   0.615   0.933   4.731  0.4666  0.2512  0.2021
 4727SOL    HW218674   0.574   0.997   4.673 -0.1602 -0.1830  0.1496
 4727SOL    HW318675   0.696   0.909   4.688 -0.6832 -1.1813 -1.2745
 4727SOL    MW418676   0.620   0.938   4.718  0.2322  0.0049  0.0004
 4728SOL     OW18677   2.423   5.582   1.330  0.1938  0.2128 -0.7890
 4728SOL    HW218678   2.414   5.496   1.290  0.8589 -0.4879  0.5131
 4728SOL    HW318679   2.426   5.565   1.424  2.2748  1.4408 -0.5687
 4728SOL    MW418680   2.422   5.569   1.337  0.5561  0.2824 -0.5882
 4729SOL     OW18681   3.652   6.160   4.018 -0.1192 -0.0104  0.1721
 4729SOL    HW218682   3.726   6.211   3.986  1.5734 -1.8870  0.8862
 4729SOL    HW318683   3.581   6.178   3.957  1.4169  0.6273 -1.4794
 4729SOL    MW418684   3.652   6.169   4.006  0.3068 -0.1738  0.0484
 4730SOL     OW18685   1.833   5.394   5.876  0.3523 -0.0538 -0.1360
 4730SOL    HW218686   1.927   5.406   5.863  0.2910  1.4240  0.5679
 4730SOL    HW318687   1.793   5.439   5.801  0.1828  1.5650  0.8767
 4730SOL    MW418688   1.840   5.401   5.864  0.3218  0.3547  0.0905
 4731SOL     OW18689   3.350   0.560   0.595  0.6723  0.2244  0.1436
 4731SOL    HW218690   3.331   0.477   0.638  1.0135 -0.6532 -1.3238
 4731SOL    HW318691   3.383   0.616   0.665 -2.2093  0.0907  1.7448
 4731SOL    MW418692   3.352   0.556   0.610  0.3371  0.0910  0.1612
 4732SOL     OW18693   3.034   2.007   0.504  0.0548  0.1024  0.3555
 4732SOL    HW218694   3.051   1.913   0.503 -1.4693 -0.3627 -3.8919
 4732SOL    HW318695   2.959   2.017   0.563  0.1438 -1.3884  0.7656
 4732SOL    MW418696   3.026   1.996   0.512 -0.1345 -0.1557 -0.1508
 4733SOL     OW18697   5.371   2.701   3.469  0.4940 -0.3341 -0.1902
 4733SOL    HW218698   5.336   2.767   3.410 -0.2645 -0.6048 -0.0686
 4733SOL    HW318699   5.293   2.660   3.507  0.9597 -0.2064  0.9488
 4733SOL    MW418700   5.356   2.704   3.466  0.4554 -0.3529 -0.0238
 4734SOL     OW18701   5.830   5.543   0.505  0.4822 -0.1273  0.1459
 4734SOL    HW218702   5.823   5.478   0.436  0.2417  0.0281  0.0206
 4734SOL    HW318703   5.747   5.538   0.552  0.1803  0.5484 -0.2848
 4734SOL    MW418704   5.818   5.534   0.502  0.4106 -0.0176  0.0725
 4735SOL     OW18705   1.651   3.214   0.673  0.3485  0.5170  0.1145
 4735SOL    HW218706   1.658   3.306   0.646 -0.6674  0.9555  1.2811
 4735SOL    HW318707   1.642   3.217   0.768 -0.1051 -0.7727  0.1323
 4735SOL    MW418708   1.651   3.226   0.682  0.1546  0.4047  0.2707
 4736SOL     OW18709   6.072   4.910   1.293  0.1133  0.0902  0.2444
 4736SOL    HW218710   6.009   4.841   1.314  1.0097 -1.3883 -1.5948
 4736SOL    HW318711   6.157   4.870   1.309  0.6730  1.9353  2.3308
 4736SOL    MW418712   6.075   4.896   1.298  0.3054  0.1386  0.2770
 4737SOL     OW18713   5.688   0.036   5.010  0.1666  0.2949 -1.1643
 4737SOL    HW218714   5.782   0.044   5.025  0.1536 -1.3918  0.1562
 4737SOL    HW318715   5.658   0.125   4.997  1.8915  0.9009 -1.2434
 4737SOL    MW418716   5.697   0.048   5.010  0.3924  0.1523 -1.0006
 4738SOL     OW18717   2.093   5.564   3.593 -0.5908  0.2621  0.1340
 4738SOL    HW218718   2.146   5.629   3.547 -0.6061  0.3789  0.2833
 4738SOL    HW318719   2.098   5.589   3.685  1.2086 -1.1851  0.4953
 4738SOL    MW418720   2.101   5.576   3.599 -0.3554  0.0866  0.2014
 4739SOL     OW18721   0.536   2.983   3.672 -0.5569  0.0226 -0.0066
 4739SOL    HW218722   0.516   3.042   3.744 -1.4153  1.3666 -1.2962
 4739SOL    HW318723   0.629   2.960   3.684 -0.4882  0.8248  1.0704
 4739SOL    MW418724   0.546   2.987   3.683 -0.6611  0.3057 -0.0347
 4740SOL     OW18725   0.819   5.174   6.391 -0.0747 -0.3302  0.6617
 4740SOL    HW218726   0.905   5.215   6.405  0.2367 -0.9473  0.5751
 4740SOL    HW318727   0.774   5.185   6.475 -0.0507  0.3067  0.6002
 4740SOL    MW418728   0.825   5.181   6.404 -0.0304 -0.3276  0.6422
 4741SOL     OW18729   0.308   2.854   0.552  0.7014  0.0246 -0.0885
 4741SOL    HW218730   0.360   2.811   0.620  0.0882 -0.7928 -0.1278
 4741SOL    HW318731   0.334   2.946   0.556  1.5014 -0.2231  0.4829
 4741SOL    MW418732   0.318   2.861   0.561  0.7260 -0.1159 -0.0183
 4742SOL     OW18733   4.590   2.969   0.986 -0.3410 -0.2496  0.0439
 4742SOL    HW218734   4.672   2.920   0.975 -0.2676  0.0114 -0.6071
 4742SOL    HW318735   4.586   2.987   1.080  0.3790 -0.2123  0.0768
 4742SOL    MW418736   4.600   2.965   0.997 -0.2363 -0.2102 -0.0377
 4743SOL     OW18737   5.249   1.088   3.417 -0.2109 -0.2322  0.1404
 4743SOL    HW218738   5.199   1.151   3.470  0.3933 -1.2232  1.9543
 4743SOL    HW318739   5.184   1.023   3.390 -0.7912  0.9899 -1.5426
 4743SOL    MW418740   5.233   1.088   3.420 -0.2077 -0.2017  0.1577
 4744SOL     OW18741   4.371   3.193   1.239  0.4982  0.3708  0.4541
 4744SOL    HW218742   4.445   3.133   1.251  0.4619  0.6465  2.3560
 4744SOL    HW318743   4.412   3.279   1.232  0.4537  0.3176 -0.6225
 4744SOL    MW418744   4.386   3.197   1.239  0.4875  0.4001  0.5630
 4745SOL     OW18745   0.596   6.094   5.211 -0.9062 -0.0225  0.1268
 4745SOL    HW218746   0.537   6.125   5.142  0.0986  1.3970 -0.1319
 4745SOL    HW318747   0.653   6.031   5.166  0.1695  1.3714 -0.5582
 4745SOL    MW418748   0.596   6.090   5.196 -0.6317  0.3487  0.0023
 4746SOL     OW18749   0.792   0.857   0.081  0.3123 -0.7648 -0.2584
 4746SOL    HW218750   0.756   0.880  -0.005  1.5272 -1.8425 -1.1073
 4746SOL    HW318751   0.846   0.779   0.064  2.3794  0.2927  1.0685
 4746SOL    MW418752   0.794   0.850   0.067  0.7453 -0.7675 -0.1953
 4747SOL     OW18753   2.670   1.235   3.588 -0.3843 -0.2738  0.0012
 4747SOL    HW218754   2.664   1.146   3.622 -0.1568  0.2674  1.5250
 4747SOL    HW318755   2.715   1.285   3.656  1.0353  0.6599 -1.5444
 4747SOL    MW418756   2.675   1.230   3.601 -0.1670 -0.0792 -0.0017
 4748SOL     OW18757   0.951   6.055   4.185 -0.5593 -0.2385  0.2779
 4748SOL    HW218758   0.901   5.975   4.168 -1.0632  0.0846  0.2238
 4748SOL    HW318759   0.961   6.058   4.280 -0.3959 -0.4533  0.2672
 4748SOL    MW418760   0.945   6.045   4.195 -0.6042 -0.2242  0.2693
 4749SOL     OW18761   6.041   2.466   2.585  0.4978  0.8881  0.0905
 4749SOL    HW218762   6.023   2.373   2.579 -1.0780  1.1595  0.1589
 4749SOL    HW318763   6.103   2.474   2.658 -0.8039  0.0507  1.3393
 4749SOL    MW418764   6.047   2.455   2.594  0.1181  0.8134  0.2643
 4750SOL     OW18765   1.872   0.957   4.606 -0.3308 -0.1799 -0.2860
 4750SOL    HW218766   1.868   0.925   4.516  0.1190  1.4200 -0.9029
 4750SOL    HW318767   1.909   1.045   4.598 -2.6059  0.9789  1.2286
 4750SOL    MW418768   1.877   0.964   4.593 -0.5716  0.1841 -0.1676
 4751SOL     OW18769   6.316   4.898   2.462  0.4614  0.0010 -0.2345
 4751SOL    HW218770   6.275   4.886   2.376 -0.1994 -1.3847  0.2464
 4751SOL    HW318771   6.410   4.898   2.445  0.3215  0.7623 -1.0676
 4751SOL    MW418772   6.323   4.896   2.449  0.3557 -0.0814 -0.2809
 4752SOL     OW18773   1.326   2.569   5.071  0.0499 -0.2819 -0.0579
 4752SOL    HW218774   1.315   2.663   5.086  1.3603 -0.0861 -0.2664
 4752SOL    HW318775   1.307   2.529   5.155 -1.4107  0.0681 -0.1806
 4752SOL    MW418776   1.322   2.576   5.084  0.0301 -0.2099 -0.1016
 4753SOL     OW18777   2.758   1.967   5.118 -0.1170 -0.5600 -0.0118
 4753SOL    HW218778   2.766   2.026   5.193 -0.4462  0.7117 -0.9434
 4753SOL    HW318779   2.814   2.006   5.051 -1.3291 -0.5792 -1.0787
 4753SOL    MW418780   2.766   1.980   5.119 -0.3204 -0.3947 -0.2755
 4754SOL     OW18781   4.352   4.775   2.937  0.9157  0.1880  0.1858
 4754SOL    HW218782   4.293   4.836   2.891  0.7660  0.4701  0.7461
 4754SOL    HW318783   4.324   4.689   2.907 -0.0206  0.2964  0.7070
 4754SOL    MW418784   4.341   4.772   2.927  0.7724  0.2395  0.3285
 4755SOL     OW18785   0.052   1.900   2.470  0.8009  0.7035  0.5741
 4755SOL    HW218786   0.136   1.907   2.515 -0.2221 -0.3734  2.8342
 4755SOL    HW318787   0.048   1.808   2.441  0.9443  1.0876 -0.6959
 4755SOL    MW418788   0.062   1.889   2.472  0.6849  0.6121  0.7047
 4756SOL     OW18789   2.585   3.596   4.098 -0.0026  0.0503 -0.0251
 4756SOL    HW218790   2.634   3.591   4.016  0.1940 -0.9620  0.1402
 4756SOL    HW318791   2.556   3.687   4.103  1.6203  0.6094 -0.2573
 4756SOL    MW418792   2.588   3.607   4.087  0.2374 -0.0095 -0.0339
 4757SOL     OW18793   0.150   1.361   3.116  0.3633  0.0129 -0.3290
 4757SOL    HW218794   0.158   1.434   3.055  0.4612 -0.8119 -1.3159
 4757SOL    HW318795   0.089   1.392   3.183 -0.3865  0.6368 -1.2814
 4757SOL    MW418796   0.143   1.375   3.117  0.2773 -0.0136 -0.5849
 4758SOL     OW18797   2.311   1.693   0.834  0.2465 -0.3064 -0.3074
 4758SOL    HW218798   2.226   1.677   0.875 -0.4861  3.6098  0.1160
 4758SOL    HW318799   2.295   1.764   0.772  3.1963  0.7284 -0.0803
 4758SOL    MW418800   2.298   1.700   0.832  0.5390  0.3469 -0.2216
 4759SOL     OW18801   3.690   3.240   2.309  0.2630 -0.6236 -0.5998
 4759SOL    HW218802   3.766   3.282   2.349 -0.0159 -1.2091  0.5919
 4759SOL    HW318803   3.615   3.288   2.343  0.0366 -0.9261 -0.6698
 4759SOL    MW418804   3.690   3.252   2.319  0.1964 -0.7408 -0.4518
 4760SOL     OW18805   5.831   3.188   0.327  0.6776  0.5839 -0.0337
 4760SOL    HW218806   5.909   3.133   0.337  0.0337 -0.4472 -0.5696
 4760SOL    HW318807   5.762   3.141   0.373  0.2303  1.2227 -0.0396
 4760SOL    MW418808   5.832   3.174   0.335  0.5336  0.5321 -0.1052
 4761SOL     OW18809   5.172   5.545   2.599  0.1673 -0.0558 -0.0034
 4761SOL    HW218810   5.247   5.503   2.556 -0.7391  0.1970 -1.9495
 4761SOL    HW318811   5.116   5.473   2.625 -0.0568 -0.1661 -0.7754
 4761SOL    MW418812   5.175   5.530   2.597  0.0182 -0.0370 -0.3620
 4762SOL     OW18813   4.908   4.248   2.054  0.1143 -0.2469  0.0759
 4762SOL    HW218814   4.949   4.226   2.137 -0.3812 -0.9027  0.1533
 4762SOL    HW318815   4.814   4.236   2.069 -0.3861  3.2696  0.5286
 4762SOL    MW418816   4.901   4.243   2.067 -0.0171  0.1305  0.1458
 4763SOL     OW18817   3.971   4.518   2.205 -0.4799 -0.6209  0.0110
 4763SOL    HW218818   3.980   4.541   2.112 -0.8578  0.1283  0.1443
 4763SOL    HW318819   3.934   4.597   2.245 -1.5240 -1.3682  0.5737
 4763SOL    MW418820   3.967   4.532   2.198 -0.6675 -0.6207  0.1028
 4764SOL     OW18821   3.608   4.529   1.068  0.3047 -0.7182  0.0658
 4764SOL    HW218822   3.587   4.521   0.975  0.2646 -0.0831  0.0165
 4764SOL    HW318823   3.664   4.453   1.086 -1.1438 -1.8596 -0.0412
 4764SOL    MW418824   3.612   4.518   1.058  0.1083 -0.7850  0.0452
 4765SOL     OW18825   4.740   5.819   3.814 -0.1358 -0.1950  0.1512
 4765SOL    HW218826   4.733   5.897   3.759 -1.5556  0.8660  1.7349
 4765SOL    HW318827   4.831   5.818   3.843 -0.5390  2.0704  1.7173
 4765SOL    MW418828   4.751   5.829   3.810 -0.3763  0.2439  0.5668
 4766SOL     OW18829   5.114   5.577   3.753  0.7564  0.1271 -0.4477
 4766SOL    HW218830   5.100   5.559   3.846 -1.1724 -0.6657 -0.8379
 4766SOL    HW318831   5.166   5.503   3.722  0.0058 -0.4720 -0.3133
 4766SOL    MW418832   5.119   5.565   3.761  0.4029 -0.0565 -0.4814
 4767SOL     OW18833   6.305   1.982   6.003 -0.0957  0.1101 -0.5507
 4767SOL    HW218834   6.282   2.003   6.094  1.0027 -0.9782  0.0162
 4767SOL    HW318835   6.247   2.037   5.950  1.4294  3.2152  0.7710
 4767SOL    MW418836   6.294   1.992   6.008  0.2504  0.3762 -0.3015
 4768SOL     OW18837   2.333   3.024   1.985  0.2767 -0.0118 -0.1718
 4768SOL    HW218838   2.314   3.096   2.046 -1.0919 -1.9615  1.8525
 4768SOL    HW318839   2.258   3.023   1.926  0.1986  0.0981 -0.0754
 4768SOL    MW418840   2.321   3.033   1.985  0.0858 -0.2545  0.1080
 4769SOL     OW18841   4.257   1.947   5.220  0.1950  0.1961 -0.2559
 4769SOL    HW218842   4.305   2.016   5.266  0.5408  0.5722 -1.1655
 4769SOL    HW318843   4.277   1.961   5.128 -1.8797  0.5232 -0.7032
 4769SOL    MW418844   4.266   1.958   5.214 -0.0331  0.2889 -0.4349
 4770SOL     OW18845   0.469   4.821   2.681 -0.2540 -0.0066  0.3345
 4770SOL    HW218846   0.550   4.834   2.631 -1.9008  3.0382 -1.9699
 4770SOL    HW318847   0.465   4.897   2.740 -1.6568  0.2618 -0.0599
 4770SOL    MW418848   0.479   4.833   2.682 -0.6564  0.4305 -0.0215
 4771SOL     OW18849   0.865   0.627   4.807  0.0338  0.3263  0.5520
 4771SOL    HW218850   0.776   0.592   4.819 -0.8752  1.2325 -2.5672
 4771SOL    HW318851   0.921   0.567   4.856 -2.0597 -1.7063  0.6324
 4771SOL    MW418852   0.860   0.614   4.815 -0.3624  0.1777  0.1510
 4772SOL     OW18853   5.247   1.977   4.594  0.2489 -0.2027 -0.0313
 4772SOL    HW218854   5.273   2.051   4.540  2.4226 -1.0780 -0.2731
 4772SOL    HW318855   5.183   2.013   4.655  1.0538  1.8025 -0.3049
 4772SOL    MW418856   5.242   1.991   4.595  0.6419 -0.0536 -0.0993
 4773SOL     OW18857   5.379   1.769   3.499  0.0170  0.1751 -0.6738
 4773SOL    HW218858   5.443   1.786   3.569  0.9932 -4.0014 -0.2980
 4773SOL    HW318859   5.294   1.789   3.538  0.7380  0.7681  0.6491
 4773SOL    MW418860   5.377   1.774   3.513  0.2410 -0.2977 -0.4497
 4774SOL     OW18861   4.593   0.730   4.573  0.0043 -0.6263  0.6527
 4774SOL    HW218862   4.509   0.684   4.569 -1.4678  1.6313  2.5463
 4774SOL    HW318863   4.588   0.796   4.504  0.2589 -0.5450  0.7108
 4774SOL    MW418864   4.581   0.733   4.564 -0.1563 -0.3177  0.9102
 4775SOL     OW18865   0.021   1.774   0.017  0.5064  0.1140 -0.0728
 4775SOL    HW218866   0.044   1.718  -0.057  0.5977 -0.1344  0.1401
 4775SOL    HW318867  -0.040   1.721   0.069 -0.6665  0.8167 -0.6952
 4775SOL    MW418868   0.016   1.759   0.014  0.3637  0.1740 -0.1269
 4776SOL     OW18869   1.030   5.223   2.128 -0.1016  0.1293  0.1552
 4776SOL    HW218870   0.976   5.301   2.117 -0.4208 -0.0542  0.4009
 4776SOL    HW318871   0.999   5.184   2.209  1.6443  1.0223  1.3217
 4776SOL    MW418872   1.019   5.228   2.137  0.0866  0.2229  0.3416
 4777SOL     OW18873   4.116   0.512   6.256 -0.2089  0.0213  0.1425
 4777SOL    HW218874   4.105   0.561   6.337 -0.0062 -0.2950  0.3622
 4777SOL    HW318875   4.201   0.542   6.221 -0.7094  0.8281 -0.4227
 4777SOL    MW418876   4.126   0.522   6.262 -0.2482  0.0861  0.0969
 4778SOL     OW18877   2.035   4.306   0.698 -0.1522 -1.6638 -0.1784
 4778SOL    HW218878   1.944   4.302   0.669  0.1419 -2.1559 -1.0864
 4778SOL    HW318879   2.042   4.239   0.765 -0.1562 -2.5435 -1.0342
 4778SOL    MW418880   2.024   4.297   0.703 -0.1139 -1.8448 -0.4111
 4779SOL     OW18881   5.936   3.015   5.936 -0.1093 -0.4983 -0.0839
 4779SOL    HW218882   5.970   3.103   5.953  0.1306 -0.4070 -0.9844
 4779SOL    HW318883   5.852   3.030   5.891 -2.4427 -0.6708  3.7348
 4779SOL    MW418884   5.929   3.029   5.932 -0.3855 -0.5090  0.3011
 4780SOL     OW18885   1.353   5.163   3.998  0.3044  0.4791  0.6784
 4780SOL    HW218886   1.346   5.245   4.047 -1.1581  1.8255 -1.5952
 4780SOL    HW318887   1.420   5.180   3.932 -0.9347  0.3574 -0.6506
 4780SOL    MW418888   1.361   5.176   3.996 -0.0521  0.6407  0.2031
 4781SOL     OW18889   5.599   5.277   1.088 -0.1062  0.0726  0.1285
 4781SOL    HW218890   5.664   5.340   1.119  0.3861 -0.0300 -0.6713
 4781SOL    HW318891   5.566   5.236   1.168 -0.1523  1.0613  0.6301
 4781SOL    MW418892   5.603   5.280   1.103 -0.0473  0.1895  0.0891
 4782SOL     OW18893   4.504   3.672   5.061 -0.4233 -0.7019  0.1444
 4782SOL    HW218894   4.413   3.695   5.082 -0.5758 -0.9530 -0.2431
 4782SOL    HW318895   4.500   3.635   4.973 -0.2316 -2.5912  0.8890
 4782SOL    MW418896   4.491   3.670   5.052 -0.4181 -0.9843  0.1915
 4783SOL     OW18897   2.583   4.454   1.909  0.3447 -0.1803 -0.4327
 4783SOL    HW218898   2.488   4.457   1.902 -0.1112 -1.5879  3.1446
 4783SOL    HW318899   2.607   4.368   1.874  0.0428 -0.6065  0.3803
 4783SOL    MW418900   2.574   4.443   1.904  0.2447 -0.4223  0.1465
 4784SOL     OW18901   2.828   5.763   1.846  0.0715  0.9139  0.0656
 4784SOL    HW218902   2.852   5.728   1.932  0.2754  1.0688  0.0724
 4784SOL    HW318903   2.848   5.693   1.785 -1.5535  0.2109  0.3113
 4784SOL    MW418904   2.834   5.749   1.849 -0.1160  0.8416  0.0989
 4785SOL     OW18905   2.618   2.009   1.853 -0.1923  0.2340  0.7382
 4785SOL    HW218906   2.630   1.981   1.762 -2.7865 -2.5002  1.0587
 4785SOL    HW318907   2.550   2.076   1.849  0.9531  1.4308  0.5837
 4785SOL    MW418908   2.611   2.014   1.840 -0.3835  0.0312  0.7601
 4786SOL     OW18909   3.983   4.189   4.174 -0.4204 -0.4775 -0.0142
 4786SOL    HW218910   3.953   4.099   4.186  0.6643 -1.0772 -1.4623
 4786SOL    HW318911   4.003   4.196   4.080 -0.2578  1.2074  0.1011
 4786SOL    MW418912   3.982   4.178   4.163 -0.2558 -0.3343 -0.1900
 4787SOL     OW18913   0.720   4.704   1.230  0.2321  0.0307  0.4227
 4787SOL    HW218914   0.808   4.739   1.241  0.3162 -0.0573  0.0221
 4787SOL    HW318915   0.733   4.614   1.202  0.0117 -0.0730  0.6448
 4787SOL    MW418916   0.733   4.697   1.228  0.2141  0.0054  0.3992
 4788SOL     OW18917   1.807   3.068   5.347  0.4148  0.6818  0.2931
 4788SOL    HW218918   1.894   3.034   5.367  0.2266 -1.0706 -1.4470
 4788SOL    HW318919   1.818   3.163   5.345  2.6275  0.4880 -1.0660
 4788SOL    MW418920   1.820   3.076   5.349  0.6819  0.4250 -0.1158
 4789SOL     OW18921   4.890   6.195   1.161  0.2136  0.0597  0.0139
 4789SOL    HW218922   4.807   6.197   1.113 -0.2070 -0.2069  0.6979
 4789SOL    HW318923   4.891   6.278   1.209 -0.1185 -0.3247  0.7200
 4789SOL    MW418924   4.879   6.206   1.161  0.1143 -0.0262  0.1973
 4790SOL     OW18925   4.208   3.303   0.144 -0.0427  0.3364 -0.1319
 4790SOL    HW218926   4.188   3.285   0.052 -0.6491  1.0143 -0.1368
 4790SOL    HW318927   4.166   3.230   0.191  0.9562 -0.4592 -0.4341
 4790SOL    MW418928   4.200   3.291   0.138  0.0091  0.3208 -0.1725
 4791SOL     OW18929   2.047   0.910   1.969 -0.7647 -0.1536 -0.4550
 4791SOL    HW218930   2.076   0.873   1.885  0.2891  1.9341 -1.0840
 4791SOL    HW318931   2.028   1.002   1.950  0.4602  0.6491  1.7761
 4791SOL    MW418932   2.048   0.917   1.955 -0.4641  0.2277 -0.2436
 4792SOL     OW18933   5.609   5.253   1.622 -0.0840 -0.5938  0.0379
 4792SOL    HW218934   5.628   5.159   1.622 -1.3557 -0.9683 -3.2306
 4792SOL    HW318935   5.513   5.258   1.626  0.0064  0.7276  2.4388
 4792SOL    MW418936   5.598   5.241   1.623 -0.2399 -0.4689 -0.0766
 4793SOL     OW18937   3.766   0.537   5.897 -0.2059  0.2960  0.0312
 4793SOL    HW218938   3.820   0.575   5.966 -0.7692 -0.2712  0.8076
 4793SOL    HW318939   3.827   0.517   5.827  0.4023  0.7598  0.4131
 4793SOL    MW418940   3.781   0.539   5.897 -0.2000  0.2824  0.1840
 4794SOL     OW18941   1.610   4.880   1.616 -0.1180 -0.4002  0.1357
 4794SOL    HW218942   1.684   4.889   1.556 -0.5670  0.2708 -0.3226
 4794SOL    HW318943   1.592   4.969   1.646 -0.1411 -0.6753  0.9829
 4794SOL    MW418944   1.618   4.893   1.612 -0.1803 -0.3480  0.1870
 4795SOL     OW18945   1.913   1.525   1.144 -1.2030  0.3242  0.2720
 4795SOL    HW218946   1.819   1.522   1.163 -1.2780 -0.5846 -0.1532
 4795SOL    HW318947   1.939   1.433   1.141 -0.3082  0.5666  0.3206
 4795SOL    MW418948   1.904   1.512   1.146 -1.0948  0.2363  0.2223
 4796SOL     OW18949   4.815   4.341   2.705  0.0788  0.4519  0.3484
 4796SOL    HW218950   4.878   4.413   2.707  1.0898 -0.4168  0.9873
 4796SOL    HW318951   4.781   4.336   2.794 -1.4586  1.3564 -0.1469
 4796SOL    MW418952   4.819   4.350   2.717  0.0093  0.4566  0.3674
 4797SOL     OW18953   2.931   1.869   2.546  0.4638  0.4012 -0.2946
 4797SOL    HW218954   2.963   1.779   2.555 -0.5553  0.1333  0.7892
 4797SOL    HW318955   2.858   1.876   2.608  1.5463  2.4568  0.8761
 4797SOL    MW418956   2.926   1.858   2.556  0.4721  0.6371  0.0029
 4798SOL     OW18957   3.084   2.058   3.389 -0.0541  0.3354  0.2651
 4798SOL    HW218958   3.022   2.006   3.337  0.2071  0.6750 -0.4020
 4798SOL    HW318959   3.036   2.139   3.409 -0.0137  0.3737  0.2074
 4798SOL    MW418960   3.069   2.062   3.385 -0.0143  0.3853  0.1695
 4799SOL     OW18961   4.347   1.122   0.004  0.3069 -0.4675  0.6549
 4799SOL    HW218962   4.258   1.138   0.037  0.2385  0.3939  0.0999
 4799SOL    HW318963   4.387   1.209   0.002  0.6935 -0.6567 -0.4065
 4799SOL    MW418964   4.340   1.136   0.008  0.3489 -0.3788  0.4416
 4800SOL     OW18965   3.629   0.077   3.364 -0.1575  0.4643 -0.1404
 4800SOL    HW218966   3.595   0.107   3.279  0.1325 -1.7012 -1.0752
 4800SOL    HW318967   3.622  -0.018   3.360 -1.2093  0.3396  2.7433
 4800SOL    MW418968   3.623   0.069   3.352 -0.2580  0.1621  0.1167
 4801SOL     OW18969   5.025   0.897   5.988 -0.5827  0.2494 -0.7488
 4801SOL    HW218970   5.000   0.950   6.063  2.2270  0.9859 -0.2222
 4801SOL    HW318971   5.070   0.821   6.026  0.2637  0.2827 -1.6483
 4801SOL    MW418972   5.028   0.894   6.003 -0.1003  0.3509 -0.7980
 4802SOL     OW18973   4.547   4.966   4.373  0.0911 -0.0069  0.3534
 4802SOL    HW218974   4.597   5.021   4.432 -0.0958 -1.2654  1.7570
 4802SOL    HW318975   4.456   4.985   4.394  0.0236 -0.5110  0.5352
 4802SOL    MW418976   4.541   4.975   4.383  0.0576 -0.2395  0.5626
 4803SOL     OW18977   3.135   3.575   0.753 -0.3876 -0.1323  0.0030
 4803SOL    HW218978   3.048   3.557   0.718 -0.0875  0.1101 -0.9204
 4803SOL    HW318979   3.134   3.669   0.772 -0.6336 -0.3120  0.9208
 4803SOL    MW418980   3.124   3.585   0.751 -0.3804 -0.1240  0.0022
 4804SOL     OW18981   4.665   5.279   4.336  0.0731 -0.8198 -0.2699
 4804SOL    HW218982   4.603   5.262   4.264  0.4483 -0.5029 -0.6714
 4804SOL    HW318983   4.626   5.235   4.412 -0.0944 -1.5624 -0.7734
 4804SOL    MW418984   4.651   5.271   4.336  0.1005 -0.8760 -0.3893
 4805SOL     OW18985   5.620   1.069   5.065 -0.2918 -0.3941 -0.2057
 4805SOL    HW218986   5.632   1.121   4.985  3.3770 -1.2523 -0.3978
 4805SOL    HW318987   5.684   0.999   5.057  0.5002 -0.3082  3.6651
 4805SOL    MW418988   5.630   1.067   5.053  0.2967 -0.4960  0.2797
 4806SOL     OW18989   6.339   5.703   4.224  0.6761  0.2071 -0.1805
 4806SOL    HW218990   6.289   5.679   4.302  0.1530  0.9634 -0.2637
 4806SOL    HW318991   6.409   5.638   4.218  0.5819  0.0086  0.7841
 4806SOL    MW418992   6.341   5.691   4.234  0.5946  0.2807 -0.0642
 4807SOL     OW18993   6.181   1.536   2.253  0.6724 -0.6547  0.0657
 4807SOL    HW218994   6.248   1.605   2.260 -0.2975  0.4154 -0.8811
 4807SOL    HW318995   6.171   1.504   2.343  1.7853 -0.1968  0.3767
 4807SOL    MW418996   6.189   1.541   2.266  0.6912 -0.4531 -0.0182
 4808SOL     OW18997   3.223   5.085   0.290 -0.2286  0.8442 -0.8990
 4808SOL    HW218998   3.296   5.033   0.256  1.3516  2.1938  0.2504
 4808SOL    HW318999   3.204   5.049   0.376 -1.4872  0.0004 -1.5073
 4808SOL    MW419000   3.230   5.074   0.297 -0.1861  0.9110 -0.8276
 4809SOL     OW19001   0.604   5.131   4.813 -0.1450  0.4415 -0.0427
 4809SOL    HW219002   0.544   5.199   4.784 -1.8661 -1.6477 -1.7304
 4809SOL    HW319003   0.579   5.113   4.903 -0.2099  1.4603  0.1474
 4809SOL    MW419004   0.593   5.138   4.821 -0.3806  0.3002 -0.2403
 4810SOL     OW19005   3.278   4.645   1.902 -0.3926  0.2213  0.4485
 4810SOL    HW219006   3.306   4.722   1.952  0.8851 -0.4724  0.8356
 4810SOL    HW319007   3.253   4.680   1.816 -0.4967  1.1480  0.8362
 4810SOL    MW419008   3.278   4.660   1.898 -0.2377  0.2520  0.5507
 4811SOL     OW19009   1.024   4.820   5.705 -0.3130  0.4285 -0.1485
 4811SOL    HW219010   1.034   4.724   5.711 -0.5838  0.2946 -1.5860
 4811SOL    HW319011   1.039   4.840   5.613 -0.7694  1.7264  0.0420
 4811SOL    MW419012   1.027   4.810   5.694 -0.4089  0.5820 -0.3130
 4812SOL     OW19013   3.672   6.298   2.480  0.1534 -0.3884  0.1087
 4812SOL    HW219014   3.615   6.313   2.405  1.3413  0.3948 -0.6719
 4812SOL    HW319015   3.612   6.284   2.553 -1.0985 -3.1557 -1.2878
 4812SOL    MW419016   3.657   6.298   2.480  0.1449 -0.6502 -0.1786
 4813SOL     OW19017   4.357   4.529   1.976 -0.4093 -0.0095  0.1229
 4813SOL    HW219018   4.280   4.511   1.922 -0.9662 -0.8284  1.1675
 4813SOL    HW319019   4.326   4.591   2.042 -0.3050 -0.7190  0.8475
 4813SOL    MW419020   4.343   4.535   1.978 -0.4690 -0.2112  0.3563
 4814SOL     OW19021   4.337   5.767   2.301  0.1853 -0.0827 -0.3223
 4814SOL    HW219022   4.385   5.841   2.264 -0.4697  0.3245 -0.3731
 4814SOL    HW319023   4.399   5.694   2.298  0.4541  0.1720 -1.3471
 4814SOL    MW419024   4.352   5.767   2.296  0.1344  0.0046 -0.4642
 4815SOL     OW19025   5.552   0.641   1.539  0.1190  0.2425 -0.2085
 4815SOL    HW219026   5.643   0.665   1.521  0.1519  0.7323  0.5876
 4815SOL    HW319027   5.536   0.565   1.483  1.5352 -0.9158  0.8807
 4815SOL    MW419028   5.562   0.635   1.529  0.3102  0.1543  0.0403
 4816SOL     OW19029   4.586   5.750   3.105 -0.4123  0.6888  0.8832
 4816SOL    HW219030   4.544   5.743   3.019  0.2587 -0.2860  0.6097
 4816SOL    HW319031   4.524   5.710   3.166 -1.3070  2.2376  1.0193
 4816SOL    MW419032   4.572   5.744   3.101 -0.4418  0.7646  0.8651
 4817SOL     OW19033   5.400   0.780   4.567 -0.2282  0.1296  0.2397
 4817SOL    HW219034   5.478   0.743   4.526 -0.4589  0.7014 -0.7383
 4817SOL    HW319035   5.327   0.748   4.514 -0.3454  3.4269 -1.8890
 4817SOL    MW419036   5.401   0.771   4.555 -0.2741  0.6401 -0.1702
 4818SOL     OW19037   2.156   5.736   0.703  0.2951 -0.9685 -0.1382
 4818SOL    HW219038   2.175   5.828   0.724  0.9927 -1.3894  1.2361
 4818SOL    HW319039   2.092   5.740   0.632  0.2108  0.5825 -0.0091
 4818SOL    MW419040   2.150   5.749   0.697  0.3760 -0.8194  0.0601
 4819SOL     OW19041   3.918   1.668   3.088 -0.3168 -0.1278  0.4138
 4819SOL    HW219042   3.936   1.658   3.182  0.9902 -2.0431  0.0201
 4819SOL    HW319043   3.863   1.593   3.066  0.3579 -0.3547 -0.5610
 4819SOL    MW419044   3.913   1.657   3.098 -0.0554 -0.4105  0.2332
 4820SOL     OW19045   3.711   3.881   3.966  0.4278  0.0248  0.0545
 4820SOL    HW219046   3.759   3.932   3.901 -0.3066  0.1120 -0.4373
 4820SOL    HW319047   3.714   3.791   3.933 -0.0025  0.0800 -0.1451
 4820SOL    MW419048   3.718   3.876   3.953  0.2742  0.0436 -0.0367
 4821SOL     OW19049   5.375   3.794   6.150  0.1143  0.0298  0.7170
 4821SOL    HW219050   5.329   3.773   6.231  1.4066  0.4632  1.6074
 4821SOL    HW319051   5.371   3.889   6.145 -1.9720 -0.0879 -1.0036
 4821SOL    MW419052   5.369   3.803   6.160  0.0096  0.0714  0.6074
 4822SOL     OW19053   4.634   3.653   1.195 -0.4670  0.0358  0.2393
 4822SOL    HW219054   4.601   3.738   1.225 -0.4078 -0.2479  1.1472
 4822SOL    HW319055   4.680   3.618   1.271 -2.6374 -1.9400  0.7489
 4822SOL    MW419056   4.636   3.660   1.209 -0.7455 -0.2623  0.4263
 4823SOL     OW19057   5.211   1.648   2.029 -0.4726 -0.5646  0.1939
 4823SOL    HW219058   5.279   1.581   2.027  0.1716  0.1066 -0.7625
 4823SOL    HW319059   5.248   1.719   2.082  0.0621  0.2893 -1.2750
 4823SOL    MW419060   5.225   1.649   2.036 -0.3171 -0.3634 -0.1261
 4824SOL     OW19061   2.717   0.188   5.420  0.0737 -0.5928  0.3650
 4824SOL    HW219062   2.701   0.264   5.476  0.9769 -2.2047  2.9958
 4824SOL    HW319063   2.642   0.131   5.435 -1.1424  0.0992 -2.4160
 4824SOL    MW419064   2.705   0.191   5.429  0.0325 -0.7141  0.3452
 4825SOL     OW19065   4.519   1.414   1.487 -0.2545  0.2777 -0.0707
 4825SOL    HW219066   4.490   1.379   1.572 -0.1053 -1.8184 -0.8208
 4825SOL    HW319067   4.457   1.484   1.468 -2.4107 -1.4154  0.2468
 4825SOL    MW419068   4.507   1.419   1.496 -0.5193 -0.2223 -0.1278
 4826SOL     OW19069   4.356   6.337   4.841 -0.4794  0.0514 -0.8062
 4826SOL    HW219070   4.310   6.260   4.875  0.0751 -0.3783 -1.0127
 4826SOL    HW319071   4.346   6.403   4.909  0.7847 -0.8590  0.3196
 4826SOL    MW419072   4.348   6.335   4.854 -0.2395 -0.1254 -0.6849
 4827SOL     OW19073   3.249   1.440   3.376 -0.3125  0.6155  0.2941
 4827SOL    HW219074   3.217   1.403   3.459 -0.4203 -0.1511 -0.0774
 4827SOL    HW319075   3.182   1.503   3.351  1.0327  2.9904  2.1809
 4827SOL    MW419076   3.236   1.443   3.384 -0.1492  0.8277  0.4941
 4828SOL     OW19077   3.987   0.565   2.750 -0.0793  0.3331 -0.2470
 4828SOL    HW219078   4.011   0.472   2.743 -0.3959  0.2494 -0.2473
 4828SOL    HW319079   4.033   0.607   2.677  1.6954  0.5245  0.9264
 4828SOL    MW419080   3.997   0.558   2.739  0.1131  0.3473 -0.0922
 4829SOL     OW19081   5.760   5.817   1.969 -0.2876  0.5539 -0.5314
 4829SOL    HW219082   5.676   5.772   1.977 -0.1187  0.3124 -0.0348
 4829SOL    HW319083   5.772   5.829   1.875 -0.5248 -0.1020 -0.6554
 4829SOL    MW419084   5.751   5.812   1.957 -0.2966  0.4355 -0.4822
 4830SOL     OW19085   3.752   1.269   6.236 -0.9211 -0.0806 -0.3672
 4830SOL    HW219086   3.659   1.251   6.238 -1.1148  0.8792  0.0577
 4830SOL    HW319087   3.775   1.285   6.328 -0.6186  0.9740 -0.6125
 4830SOL    MW419088   3.743   1.269   6.249 -0.9067  0.1852 -0.3435
 4831SOL     OW19089   3.334   2.509   4.913 -0.2881 -0.1271 -0.0023
 4831SOL    HW219090   3.424   2.478   4.923 -0.1273  0.2202 -0.4080
 4831SOL    HW319091   3.340   2.604   4.911 -0.4846 -0.1263 -1.7329
 4831SOL    MW419092   3.346   2.517   4.914 -0.2928 -0.0812 -0.2842
 4832SOL     OW19093   5.653   1.869   1.238 -0.1097  0.0023  0.4776
 4832SOL    HW219094   5.665   1.924   1.161 -0.4539 -1.2748 -0.5167
 4832SOL    HW319095   5.729   1.887   1.293  0.3686  0.5810 -0.3627
 4832SOL    MW419096   5.664   1.879   1.235 -0.0920 -0.0899  0.2356
 4833SOL     OW19097   1.834   3.515   1.598 -0.1310  0.2971  0.8339
 4833SOL    HW219098   1.740   3.521   1.616 -0.4605  0.3295 -0.7456
 4833SOL    HW319099   1.876   3.526   1.683 -1.5322  1.1969  1.4387
 4833SOL    MW419100   1.827   3.517   1.611 -0.3593  0.4201  0.7053
 4834SOL     OW19101   3.202   0.296   0.554 -0.4882 -0.2644  0.0865
 4834SOL    HW219102   3.226   0.321   0.465 -1.1336 -1.0756 -0.3282
 4834SOL    HW319103   3.262   0.225   0.576  1.2712  1.4504  1.2226
 4834SOL    MW419104   3.213   0.290   0.545 -0.3412 -0.1452  0.1817
 4835SOL     OW19105   5.259   6.027   1.681  0.5032 -0.1568  0.2807
 4835SOL    HW219106   5.178   5.978   1.693 -0.7685  1.7456 -0.1012
 4835SOL    HW319107   5.299   6.030   1.768 -1.6192  1.7862  1.2809
 4835SOL    MW419108   5.254   6.021   1.694  0.0554  0.3505  0.3622
 4836SOL     OW19109   2.354   5.736   4.107 -0.0211 -0.6224 -0.1175
 4836SOL    HW219110   2.317   5.765   4.024  1.2161 -1.4469 -1.0007
 4836SOL    HW319111   2.388   5.649   4.088  0.1297 -0.8992  1.3177
 4836SOL    MW419112   2.354   5.728   4.094  0.1620 -0.7677 -0.0446
 4837SOL     OW19113   1.903   3.455   3.596  0.4015 -0.0465  0.5604
 4837SOL    HW219114   1.983   3.480   3.549  0.6233 -0.0141  0.9446
 4837SOL    HW319115   1.871   3.378   3.550 -1.3556  1.9285 -1.8720
 4837SOL    MW419116   1.910   3.448   3.584  0.1989  0.2183  0.2902
 4838SOL     OW19117   5.531   1.673   3.057 -0.1231  0.3525  0.4713
 4838SOL    HW219118   5.595   1.612   3.094  0.2051  1.2608  1.4608
 4838SOL    HW319119   5.455   1.619   3.037  0.9162 -0.7482 -0.6916
 4838SOL    MW419120   5.530   1.658   3.059  0.0573  0.3271  0.4484
 4839SOL     OW19121   1.905   5.186   3.431 -0.1623 -0.0605 -0.1320
 4839SOL    HW219122   1.918   5.121   3.361  1.3451  1.4241 -1.3226
 4839SOL    HW319123   1.967   5.161   3.499  0.2838  0.0305 -0.5047
 4839SOL    MW419124   1.915   5.174   3.431  0.0955  0.1474 -0.3383
 4840SOL     OW19125   0.644   3.100   1.945  0.1170 -0.5074 -0.1781
 4840SOL    HW219126   0.587   3.036   1.902 -0.9136  1.2555 -1.5511
 4840SOL    HW319127   0.732   3.080   1.911 -0.5526  0.3107 -2.5638
 4840SOL    MW419128   0.648   3.089   1.934 -0.1073 -0.1669 -0.6740
 4841SOL     OW19129   2.470   5.827   2.111  0.3262 -0.2955 -0.1953
 4841SOL    HW219130   2.377   5.839   2.127  0.5964 -0.1897  1.4441
 4841SOL    HW319131   2.508   5.813   2.198  1.8826 -0.0159 -0.7943
 4841SOL    MW419132   2.463   5.827   2.125  0.5672 -0.2447 -0.0580
 4842SOL     OW19133   3.442   1.614   2.816 -0.2128  0.1906  0.3372
 4842SOL    HW219134   3.378   1.648   2.755  1.2968  2.2241 -0.2204
 4842SOL    HW319135   3.394   1.602   2.898 -1.2925  1.8064 -0.0178
 4842SOL    MW419136   3.427   1.617   2.819 -0.1560  0.6720  0.2168
 4843SOL     OW19137   4.352   1.723   6.042  0.4615  0.3482 -0.1833
 4843SOL    HW219138   4.348   1.628   6.035  0.3803  0.2296  1.3232
 4843SOL    HW319139   4.444   1.744   6.029  0.4271  0.1115 -0.8716
 4843SOL    MW419140   4.363   1.713   6.039  0.4462  0.3013 -0.0754
 4844SOL     OW19141   4.601   4.315   1.297  0.4952  0.4960 -0.1206
 4844SOL    HW219142   4.622   4.401   1.261  3.4302 -0.3336 -0.5982
 4844SOL    HW319143   4.599   4.328   1.392  0.1412  1.2229 -0.2209
 4844SOL    MW419144   4.603   4.328   1.305  0.8357  0.4825 -0.1968
 4845SOL     OW19145   0.999   5.010   3.237 -0.1311 -0.2903 -0.7228
 4845SOL    HW219146   1.013   5.019   3.331  0.5837 -1.2734 -0.7178
 4845SOL    HW319147   0.925   4.949   3.230  1.5967 -2.4995 -0.7714
 4845SOL    MW419148   0.991   5.003   3.248  0.1912 -0.7115 -0.7286
 4846SOL     OW19149   3.971   2.100   1.431  0.0284  0.0623 -0.5898
 4846SOL    HW219150   4.007   2.053   1.356 -1.5369 -0.1750 -1.2207
 4846SOL    HW319151   3.968   2.034   1.501  0.7341  0.0694 -0.5505
 4846SOL    MW419152   3.975   2.085   1.431 -0.0850  0.0319 -0.6679
 4847SOL     OW19153   4.626   3.184   0.451  0.2870 -0.0911  0.3533
 4847SOL    HW219154   4.569   3.135   0.511 -0.9293 -0.1966 -0.8579
 4847SOL    HW319155   4.708   3.192   0.499 -0.6137 -0.2521  2.0026
 4847SOL    MW419156   4.629   3.178   0.465  0.0077 -0.1263  0.4111
 4848SOL     OW19157   2.721   1.693   3.540  0.4452 -0.4897  0.2435
 4848SOL    HW219158   2.664   1.693   3.617 -0.0776 -1.9382 -0.1183
 4848SOL    HW319159   2.701   1.611   3.495  0.2647  0.6018 -1.7937
 4848SOL    MW419160   2.711   1.682   3.544  0.3524 -0.5368 -0.0730
 4849SOL     OW19161   3.725   0.381   1.720  0.3863  0.1560  0.7136
 4849SOL    HW219162   3.817   0.373   1.744 -0.1241  0.3394  2.9761
 4849SOL    HW319163   3.683   0.305   1.761 -0.7320  1.1312  1.4695
 4849SOL    MW419164   3.731   0.370   1.729  0.1714  0.3089  1.1118
 4850SOL     OW19165   5.882   2.184   0.059 -0.0790  0.0322  0.3401
 4850SOL    HW219166   5.814   2.159   0.121  0.4566 -1.0469  0.5140
 4850SOL    HW319167   5.834   2.221  -0.015 -0.7452  0.9787  1.2071
 4850SOL    MW419168   5.867   2.186   0.057 -0.0963  0.0147  0.4775
 4851SOL     OW19169   2.082   3.248   1.360 -0.0505 -0.1855  0.0701
 4851SOL    HW219170   2.044   3.216   1.278  0.1752 -1.3033  0.3858
 4851SOL    HW319171   2.028   3.209   1.428  1.2942 -1.3569  0.5150
 4851SOL    MW419172   2.070   3.239   1.358  0.1567 -0.4875  0.1704
 4852SOL     OW19173   4.292   0.442   5.682  0.0678  0.5720  0.1737
 4852SOL    HW219174   4.241   0.458   5.761 -0.8287  1.1480 -0.5008
 4852SOL    HW319175   4.346   0.521   5.673  2.6662 -0.8533  1.9921
 4852SOL    MW419176   4.292   0.455   5.691  0.2923  0.4599  0.3246
 4853SOL     OW19177   3.529   1.363   4.706  0.1527  0.4933  0.0840
 4853SOL    HW219178   3.557   1.274   4.682  0.3070  0.4716  0.3327
 4853SOL    HW319179   3.596   1.392   4.769  1.0256  1.4284 -1.2404
 4853SOL    MW419180   3.542   1.355   4.711  0.2882  0.6138 -0.0579
 4854SOL     OW19181   5.550   3.250   1.897  0.0066 -0.2151 -0.2058
 4854SOL    HW219182   5.597   3.221   1.975  0.3989 -1.4573 -0.8726
 4854SOL    HW319183   5.519   3.338   1.919  0.9247 -0.1588  0.9878
 4854SOL    MW419184   5.552   3.257   1.910  0.1795 -0.3715 -0.1363
 4855SOL     OW19185   5.031   6.140   3.641 -0.4516  0.0239 -0.4685
 4855SOL    HW219186   4.970   6.072   3.610 -0.7776 -0.0094  0.2153
 4855SOL    HW319187   5.117   6.109   3.614 -0.5590 -0.8548  0.1308
 4855SOL    MW419188   5.034   6.127   3.634 -0.5088 -0.0964 -0.2992
 4856SOL     OW19189   2.784   0.175   3.325  0.2297 -0.0631 -0.0173
 4856SOL    HW219190   2.735   0.252   3.296  0.2250 -0.1076 -0.1276
 4856SOL    HW319191   2.857   0.168   3.264  1.9240  1.5618  1.7194
 4856SOL    MW419192   2.787   0.184   3.313  0.4526  0.1454  0.1973
 4857SOL     OW19193   0.717   2.592   3.229  1.1853 -0.1676 -0.4827
 4857SOL    HW219194   0.698   2.634   3.145 -2.4218  1.0119  0.7393
 4857SOL    HW319195   0.672   2.508   3.225  0.2411  0.2639  0.5381
 4857SOL    MW419196   0.709   2.586   3.217  0.5848  0.0449 -0.1868
 4858SOL     OW19197   3.109   5.328   3.348 -0.1024 -0.0536 -0.6043
 4858SOL    HW219198   3.025   5.304   3.309 -0.2388  0.3663 -0.5755
 4858SOL    HW319199   3.099   5.420   3.372  1.0682  0.6183 -2.4770
 4858SOL    MW419200   3.097   5.337   3.346  0.0341  0.0905 -0.8476
 4859SOL     OW19201   5.477   3.625   0.178 -0.1140 -0.0861 -0.5626
 4859SOL    HW219202   5.500   3.558   0.113  0.4539 -0.2297 -0.2225
 4859SOL    HW319203   5.479   3.707   0.129  0.8404 -0.1306 -0.6208
 4859SOL    MW419204   5.480   3.627   0.163  0.0868 -0.1109 -0.5254
 4860SOL     OW19205   6.098   6.403   3.778 -0.1553 -0.1017  0.9592
 4860SOL    HW219206   6.062   6.488   3.805  0.1496  0.7124 -1.0521
 4860SOL    HW319207   6.036   6.339   3.814 -2.6621  1.1596 -0.8275
 4860SOL    MW419208   6.085   6.406   3.787 -0.4458  0.1721  0.4581
 4861SOL     OW19209   4.662   5.519   6.187  0.4682 -0.4557  0.9304
 4861SOL    HW219210   4.617   5.555   6.263 -0.1927 -0.7230  0.6792
 4861SOL    HW319211   4.662   5.590   6.123  0.2698 -0.5015  0.8788
 4861SOL    MW419212   4.656   5.533   6.188  0.3548 -0.4970  0.8904
 4862SOL     OW19213   3.148   4.527   2.993  0.1608  0.0357  0.1367
 4862SOL    HW219214   3.195   4.579   2.928  0.0295  1.1413  0.8882
 4862SOL    HW319215   3.216   4.480   3.040  0.3345 -0.0211 -0.1700
 4862SOL    MW419216   3.163   4.528   2.991  0.1664  0.1741  0.1954
 4863SOL     OW19217   5.172   2.118   5.648  0.1369  0.0379 -0.1367
 4863SOL    HW219218   5.170   2.043   5.587 -0.2650 -0.2840  0.2635
 4863SOL    HW319219   5.241   2.095   5.711 -2.9572 -2.3059  2.8056
 4863SOL    MW419220   5.181   2.105   5.648 -0.3244 -0.3138  0.3043
 4864SOL     OW19221   3.996   2.863   1.175 -0.1953  0.3599 -0.3490
 4864SOL    HW219222   4.026   2.901   1.093  1.2255  0.2066  0.0649
 4864SOL    HW319223   3.961   2.937   1.225  0.1875  0.6905 -0.5654
 4864SOL    MW419224   3.995   2.878   1.171  0.0427  0.3833 -0.3229
 4865SOL     OW19225   4.190   4.452   0.507 -0.1173  0.1273  0.4437
 4865SOL    HW219226   4.236   4.407   0.577  0.4006 -0.0843 -0.0246
 4865SOL    HW319227   4.160   4.382   0.449  0.7082  0.3771 -0.2983
 4865SOL    MW419228   4.192   4.437   0.508  0.0599  0.1324  0.2840
 4866SOL     OW19229   3.329   2.348   2.946 -0.1593  0.1635  0.4880
 4866SOL    HW219230   3.406   2.394   2.978  0.5985  0.1853 -1.2342
 4866SOL    HW319231   3.355   2.256   2.943 -0.4037  0.0947  0.4454
 4866SOL    MW419232   3.342   2.342   2.950 -0.0916  0.1573  0.2551
 4867SOL     OW19233   2.996   5.008   3.886  0.0262 -0.0205 -0.0144
 4867SOL    HW219234   3.078   4.970   3.854 -0.8166 -0.6575 -1.5700
 4867SOL    HW319235   2.976   5.077   3.822  0.2515  1.4083  1.3852
 4867SOL    MW419236   3.004   5.012   3.873 -0.0553  0.0840 -0.0350
 4868SOL     OW19237   5.548   3.766   5.519 -0.6769  0.6777  0.0883
 4868SOL    HW219238   5.589   3.728   5.598  1.2935  0.3888 -1.0031
 4868SOL    HW319239   5.456   3.742   5.526 -0.1677 -1.1695  1.2700
 4868SOL    MW419240   5.541   3.758   5.531 -0.3498  0.3958  0.1002
 4869SOL     OW19241   6.362   0.465   4.092 -0.0759 -0.2612 -0.2286
 4869SOL    HW219242   6.353   0.372   4.069  1.0076  0.0840 -2.3206
 4869SOL    HW319243   6.456   0.477   4.104  0.0230  0.8899 -1.8005
 4869SOL    MW419244   6.373   0.454   4.090  0.0801 -0.0638 -0.7120
 4870SOL     OW19245   6.383   3.499   5.507  0.2895  0.0547  0.2250
 4870SOL    HW219246   6.290   3.508   5.484  0.4483  0.4286 -0.2828
 4870SOL    HW319247   6.389   3.534   5.596  0.0234  0.4453  0.0893
 4870SOL    MW419248   6.371   3.505   5.516  0.2754  0.1556  0.1401
 4871SOL     OW19249   4.071   6.258   3.207 -0.6754 -0.2536  0.1793
 4871SOL    HW219250   3.999   6.198   3.190 -0.9393  0.0707  0.1528
 4871SOL    HW319251   4.150   6.204   3.199 -0.9698 -1.0944  2.1823
 4871SOL    MW419252   4.072   6.243   3.204 -0.7491 -0.3218  0.4400
 4872SOL     OW19253   0.877   0.025   3.325 -0.3151  0.0037  0.5594
 4872SOL    HW219254   0.946   0.070   3.374 -0.2268 -1.7502  2.1578
 4872SOL    HW319255   0.916  -0.060   3.303 -0.1412  0.8702 -3.1445
 4872SOL    MW419256   0.892   0.020   3.328 -0.2805 -0.1134  0.2816
 4873SOL     OW19257   1.440   4.075   1.196  0.0229 -0.0322  0.2380
 4873SOL    HW219258   1.381   4.133   1.148  0.4537  0.7752  0.6661
 4873SOL    HW319259   1.406   3.987   1.180  0.1868  0.1972 -1.6102
 4873SOL    MW419260   1.428   4.071   1.187  0.1013  0.1046  0.0506
 4874SOL     OW19261   4.473   4.857   0.883  0.2028 -0.5540 -0.1689
 4874SOL    HW219262   4.485   4.765   0.860  1.5534 -0.7177  1.0285
 4874SOL    HW319263   4.533   4.904   0.825 -1.0906 -0.3215 -1.3541
 4874SOL    MW419264   4.483   4.851   0.872  0.2103 -0.5449 -0.1673
 4875SOL     OW19265   5.997   2.515   3.872 -0.2748 -0.3039 -0.2224
 4875SOL    HW219266   5.985   2.602   3.833 -2.4433 -0.4950 -0.1424
 4875SOL    HW319267   5.995   2.530   3.966 -1.4636 -0.4887 -0.2008
 4875SOL    MW419268   5.995   2.529   3.879 -0.7177 -0.3535 -0.2090
 4876SOL     OW19269   4.418   3.447   5.296  0.0800  0.8575  0.3544
 4876SOL    HW219270   4.391   3.449   5.204  0.5232 -0.1507  0.1914
 4876SOL    HW319271   4.465   3.364   5.305 -0.0236  0.9174  1.5119
 4876SOL    MW419272   4.421   3.436   5.285  0.1248  0.7324  0.4856
 4877SOL     OW19273   4.297   1.508   4.106  0.5119  0.5149  0.1495
 4877SOL    HW219274   4.378   1.490   4.059 -0.7583 -0.5452 -1.7817
 4877SOL    HW319275   4.318   1.491   4.198  2.4347  0.1840 -0.3067
 4877SOL    MW419276   4.310   1.503   4.112  0.5980  0.3314 -0.1655
 4878SOL     OW19277   1.519   1.877   4.312 -0.5083 -0.3250  0.4882
 4878SOL    HW219278   1.475   1.792   4.319 -0.4682 -0.3721  0.1854
 4878SOL    HW319279   1.450   1.938   4.287 -0.3452 -0.4595 -0.3178
 4878SOL    MW419280   1.504   1.874   4.309 -0.4815 -0.3489  0.3419
 4879SOL     OW19281   4.593   0.915   5.526  0.1379  0.1382 -0.4093
 4879SOL    HW219282   4.573   0.962   5.606  0.6815 -0.8305  0.3197
 4879SOL    HW319283   4.508   0.881   5.496 -0.0225  0.2326 -0.0614
 4879SOL    MW419284   4.579   0.916   5.533  0.1885  0.0228 -0.2672
 4880SOL     OW19285   0.989   4.787   1.288  0.4627  0.3650  0.3191
 4880SOL    HW219286   0.976   4.751   1.376  0.3770  0.2001  0.2390
 4880SOL    HW319287   1.019   4.876   1.304  1.7286 -0.0794  0.5276
 4880SOL    MW419288   0.991   4.794   1.302  0.6184  0.2846  0.3361
 4881SOL     OW19289   1.381   4.238   3.217  0.0708  0.1704  0.0533
 4881SOL    HW219290   1.420   4.180   3.151 -0.6597 -0.3938  0.1003
 4881SOL    HW319291   1.454   4.291   3.248  1.1795 -1.9600  1.3087
 4881SOL    MW419292   1.396   4.237   3.212  0.1207 -0.1851  0.2252
 4882SOL     OW19293   1.668   5.362   2.785  0.1254 -1.1424 -0.3182
 4882SOL    HW219294   1.629   5.334   2.868 -1.4599  0.2691 -0.5149
 4882SOL    HW319295   1.725   5.435   2.808 -2.5902  1.2900 -0.6401
 4882SOL    MW419296   1.670   5.368   2.799 -0.4421 -0.6353 -0.3866
 4883SOL     OW19297   1.159   2.676   0.814 -0.2498  0.5093  0.5065
 4883SOL    HW219298   1.079   2.649   0.858  0.1164 -0.6204  0.5053
 4883SOL    HW319299   1.228   2.623   0.854  0.9400  3.1537  2.2687
 4883SOL    MW419300   1.158   2.665   0.825 -0.0445  0.7092  0.7389
 4884SOL     OW19301   0.161   5.572   4.424 -0.0735 -0.2178 -0.3667
 4884SOL    HW219302   0.145   5.664   4.402 -0.4865  0.0941  1.1284
 4884SOL    HW319303   0.171   5.529   4.339 -0.9473  1.0130 -1.1362
 4884SOL    MW419304   0.160   5.579   4.410 -0.2432 -0.0142 -0.2710
 4885SOL     OW19305   6.364   5.604   5.007  0.2207  0.3841 -0.0100
 4885SOL    HW219306   6.343   5.514   5.032 -2.6894  1.1911  0.9037
 4885SOL    HW319307   6.346   5.607   4.913  0.5051 -0.0327 -0.0813
 4885SOL    MW419308   6.359   5.592   4.998 -0.1257  0.4356  0.1012
 4886SOL     OW19309   2.648   5.072   2.128 -0.6248 -0.4371  0.4019
 4886SOL    HW219310   2.659   5.116   2.044  2.5008 -0.8430  0.5106
 4886SOL    HW319311   2.708   4.998   2.126 -1.4907 -1.3060  2.4864
 4886SOL    MW419312   2.657   5.068   2.117 -0.3266 -0.6053  0.6913
 4887SOL     OW19313   4.022   5.834   5.207  0.3548 -0.4608  0.0758
 4887SOL    HW219314   3.974   5.777   5.268  0.7834 -0.5635  0.3248
 4887SOL    HW319315   3.955   5.868   5.148 -0.0536 -0.4454  0.5401
 4887SOL    MW419316   4.007   5.831   5.207  0.3574 -0.4723  0.1699
 4888SOL     OW19317   0.115   4.269   2.084 -0.1989 -0.2665 -0.4084
 4888SOL    HW219318   0.038   4.279   2.139  0.6722  1.0856  0.6129
 4888SOL    HW319319   0.128   4.174   2.077 -2.1882 -0.5485 -0.9984
 4888SOL    MW419320   0.107   4.257   2.090 -0.3465 -0.1253 -0.3515
 4889SOL     OW19321   3.725   4.090   3.746  0.1876 -0.1816  0.0579
 4889SOL    HW219322   3.743   4.088   3.652 -0.5086  2.7375 -0.2279
 4889SOL    HW319323   3.633   4.064   3.754  0.3729 -0.8596 -0.0221
 4889SOL    MW419324   3.715   4.086   3.735  0.1202  0.1141  0.0096
 4890SOL     OW19325   3.113   3.252   0.412  0.0476  0.0150  0.1861
 4890SOL    HW219326   3.084   3.202   0.335 -1.0583  0.8175  0.0577
 4890SOL    HW319327   3.037   3.304   0.437 -0.2668 -1.6256  3.0405
 4890SOL    MW419328   3.099   3.252   0.405 -0.1398 -0.0956  0.5457
 4891SOL     OW19329   5.336   2.953   1.344  0.1678 -0.2950  0.0907
 4891SOL    HW219330   5.374   2.972   1.258  0.6581 -0.2067  0.3207
 4891SOL    HW319331   5.242   2.952   1.329  0.2566 -0.4601 -0.4862
 4891SOL    MW419332   5.329   2.955   1.330  0.2442 -0.3051  0.0449
 4892SOL     OW19333   0.591   0.636   0.812  0.0829  0.1935  0.2408
 4892SOL    HW219334   0.516   0.668   0.762  1.4680  0.7637 -1.6064
 4892SOL    HW319335   0.617   0.556   0.766  1.7670  1.0603 -0.4195
 4892SOL    MW419336   0.585   0.630   0.799  0.4878  0.3831 -0.0901
 4893SOL     OW19337   0.256   3.154   1.310 -0.0458 -0.0984 -0.1013
 4893SOL    HW219338   0.160   3.162   1.306 -0.1408 -1.4037 -1.0305
 4893SOL    HW319339   0.287   3.244   1.304 -1.1796  0.2305 -1.8303
 4893SOL    MW419340   0.247   3.167   1.308 -0.2079 -0.2273 -0.4520
 4894SOL     OW19341   2.839   5.898   4.321  0.1875 -0.4111  0.5329
 4894SOL    HW219342   2.758   5.853   4.297  0.7229 -2.0965  1.7212
 4894SOL    HW319343   2.854   5.873   4.413  1.7779  0.2935  0.4979
 4894SOL    MW419344   2.830   5.889   4.330  0.4680 -0.5405  0.6851
 4895SOL     OW19345   0.530   1.625   4.904 -0.0152 -0.0795  0.4263
 4895SOL    HW219346   0.581   1.558   4.949 -0.9799 -0.7213  0.5955
 4895SOL    HW319347   0.439   1.604   4.926 -0.4329  0.2695 -0.8901
 4895SOL    MW419348   0.525   1.613   4.913 -0.1976 -0.1182  0.2750
 4896SOL     OW19349   0.290   1.857   0.060 -0.5046 -0.4918  0.2856
 4896SOL    HW219350   0.200   1.841   0.032  0.1091 -1.1077 -1.4584
 4896SOL    HW319351   0.322   1.772   0.089 -0.1278 -0.5183 -0.1960
 4896SOL    MW419352   0.283   1.844   0.060 -0.3739 -0.5766 -0.0080
 4897SOL     OW19353   2.917   4.720   4.310  0.2772  0.5237 -0.1182
 4897SOL    HW219354   2.901   4.674   4.393 -0.7194  0.1257 -0.5221
 4897SOL    HW319355   2.974   4.793   4.335  0.7468 -0.1112  0.7617
 4897SOL    MW419356   2.922   4.724   4.324  0.2077  0.3874 -0.0554
 4898SOL     OW19357   3.625   5.998   2.445  0.3422  0.9355 -0.3602
 4898SOL    HW219358   3.648   6.090   2.451  0.1747  1.0724 -1.6201
 4898SOL    HW319359   3.709   5.953   2.437  0.3804  1.0544 -0.6215
 4898SOL    MW419360   3.639   6.004   2.445  0.3252  0.9692 -0.5609
 4899SOL     OW19361   2.040   0.459   1.779 -0.3588 -0.0603  0.0193
 4899SOL    HW219362   2.113   0.513   1.811 -0.8830  0.0543  1.0693
 4899SOL    HW319363   2.026   0.488   1.689  0.0616  0.8084  0.2198
 4899SOL    MW419364   2.048   0.470   1.772 -0.3725  0.0694  0.1843
 4900SOL     OW19365   0.834   3.286   5.010  0.2398 -0.3503 -0.3789
 4900SOL    HW219366   0.780   3.254   5.082  0.7847  1.8618  1.1223
 4900SOL    HW319367   0.772   3.329   4.951  0.0783  0.2070  0.1839
 4900SOL    MW419368   0.819   3.288   5.012  0.2904  0.0151 -0.1065
 4901SOL     OW19369   5.990   3.410   1.520 -0.1707  0.1947  0.3958
 4901SOL    HW219370   6.027   3.342   1.464  0.8645  3.0906 -2.8018
 4901SOL    HW319371   5.896   3.407   1.503 -0.4546 -1.7505  2.0113
 4901SOL    MW419372   5.983   3.401   1.510 -0.0715  0.3202  0.1871
 4902SOL     OW19373   4.596   3.644   5.930 -0.3604  0.4282  0.5415
 4902SOL    HW219374   4.595   3.738   5.910 -0.6437 -0.0151 -1.7789
 4902SOL    HW319375   4.507   3.615   5.911  0.0542 -0.5320  0.0257
 4902SOL    MW419376   4.584   3.653   5.925 -0.3431  0.2430  0.1673
 4903SOL     OW19377   0.395   4.978   1.061  0.1474  0.5701  0.1210
 4903SOL    HW219378   0.326   4.984   1.127  1.1612  0.7930  1.1824
 4903SOL    HW319379   0.475   5.000   1.107  1.3127 -2.0085 -0.4731
 4903SOL    MW419380   0.396   4.982   1.075  0.4349  0.2593  0.1826
 4904SOL     OW19381   0.400   2.888   5.202  0.3988  0.2292  0.2536
 4904SOL    HW219382   0.322   2.911   5.253  0.6365 -0.2638  0.8556
 4904SOL    HW319383   0.461   2.852   5.267  0.9382  0.1530 -0.2893
 4904SOL    MW419384   0.398   2.886   5.217  0.5013  0.1541  0.2614
 4905SOL     OW19385   3.961   0.715   3.021 -0.5541 -0.4965  0.1139
 4905SOL    HW219386   3.981   0.657   3.094  1.2482 -0.5597 -0.3657
 4905SOL    HW319387   3.992   0.667   2.944  0.9664  1.0379 -0.2967
 4905SOL    MW419388   3.968   0.701   3.020 -0.1157 -0.3024 -0.0036
 4906SOL     OW19389   5.332   1.511   0.158 -0.0054 -0.2302  0.5897
 4906SOL    HW219390   5.338   1.476   0.069  0.2686  1.2991 -0.0344
 4906SOL    HW319391   5.243   1.544   0.165  0.8607  2.6226 -0.3699
 4906SOL    MW419392   5.321   1.511   0.147  0.1450  0.3480  0.3808
 4907SOL     OW19393   3.282   5.924   4.091 -0.0467  0.1180  0.3014
 4907SOL    HW219394   3.326   5.966   4.165 -0.2220  2.1406 -0.6841
 4907SOL    HW319395   3.278   5.992   4.023 -2.1845 -0.8768 -0.6533
 4907SOL    MW419396   3.288   5.938   4.092 -0.3519  0.2536  0.0454
 4908SOL     OW19397   0.860   1.771   2.229  0.0143 -0.3426 -0.6877
 4908SOL    HW219398   0.771   1.776   2.263  0.6512 -1.0613  1.2182
 4908SOL    HW319399   0.850   1.739   2.139 -1.5680 -2.0655  0.0422
 4908SOL    MW419400   0.847   1.768   2.221 -0.1104 -0.6647 -0.3400
 4909SOL     OW19401   3.970   2.782   6.115 -0.1089 -0.0165  0.1453
 4909SOL    HW219402   3.956   2.829   6.033 -0.6967 -0.2180  0.1267
 4909SOL    HW319403   3.886   2.740   6.134  0.0919 -0.1719  0.7237
 4909SOL    MW419404   3.957   2.782   6.106 -0.1600 -0.0636  0.2192
 4910SOL     OW19405   1.037   0.569   1.753  0.3159 -0.1907 -0.7574
 4910SOL    HW219406   0.947   0.567   1.721 -1.4906  1.0992  3.4565
 4910SOL    HW319407   1.043   0.493   1.811  1.4517  0.4483  0.0030
 4910SOL    MW419408   1.026   0.559   1.757  0.2274  0.0638 -0.1011
 4911SOL     OW19409   1.173   3.417   4.182 -0.0673 -0.2178 -0.6554
 4911SOL    HW219410   1.157   3.396   4.274 -0.9914  2.3218 -0.1443
 4911SOL    HW319411   1.086   3.413   4.142  0.0009  0.7159 -0.9165
 4911SOL    MW419412   1.159   3.414   4.189 -0.1802  0.2404 -0.6224
 4912SOL     OW19413   3.342   2.027   3.512  0.0487  0.3448 -0.0939
 4912SOL    HW219414   3.372   2.075   3.434  0.4524  4.0075  2.1090
 4912SOL    HW319415   3.247   2.039   3.513 -0.5006 -2.7302 -1.7129
 4912SOL    MW419416   3.334   2.035   3.502  0.0295  0.4224 -0.0169
 4913SOL     OW19417   5.285   1.004   2.880  0.6020 -0.4051 -0.1898
 4913SOL    HW219418   5.313   0.922   2.839  2.3628  0.7298 -1.4178
 4913SOL    HW319419   5.360   1.033   2.932  0.2043  0.6760 -0.1735
 4913SOL    MW419420   5.298   0.997   2.881  0.7818 -0.1127 -0.3496
 4914SOL     OW19421   2.120   1.560   2.731 -0.0412 -0.3178 -0.4081
 4914SOL    HW219422   2.191   1.563   2.667  1.2416  0.8895  1.0006
 4914SOL    HW319423   2.041   1.546   2.679  0.7917  1.7303 -2.3789
 4914SOL    MW419424   2.119   1.558   2.716  0.2379  0.1117 -0.4823
 4915SOL     OW19425   5.117   2.354   2.849 -0.1091  0.2550 -0.3915
 4915SOL    HW219426   5.141   2.434   2.803 -1.6241  1.4598  0.7671
 4915SOL    HW319427   5.061   2.306   2.788 -2.5805  2.1064  0.2543
 4915SOL    MW419428   5.112   2.358   2.835 -0.6351  0.6582 -0.1534
 4916SOL     OW19429   0.014   2.918   1.885  0.0802 -0.3400 -0.1076
 4916SOL    HW219430   0.056   2.901   1.801  0.2883  0.6062 -0.2096
 4916SOL    HW319431  -0.079   2.923   1.866 -0.1911 -2.9781  0.2034
 4916SOL    MW419432   0.007   2.916   1.872  0.0718 -0.5632 -0.0800
 4917SOL     OW19433   0.426   2.486   0.047  0.0994 -0.3349  0.4180
 4917SOL    HW219434   0.344   2.528   0.073 -1.2049 -0.1282 -3.3946
 4917SOL    HW319435   0.468   2.548  -0.012  2.2032 -1.1407  0.9819
 4917SOL    MW419436   0.421   2.499   0.042  0.2049 -0.4139 -0.0106
 4918SOL     OW19437   5.208   3.662   5.919 -0.7789 -0.5151  0.2879
 4918SOL    HW219438   5.216   3.575   5.879 -2.0515 -1.3357  1.7495
 4918SOL    HW319439   5.285   3.669   5.976  0.1513 -0.0130 -0.9756
 4918SOL    MW419440   5.220   3.651   5.921 -0.8241 -0.5571  0.3140
 4919SOL     OW19441   6.321   3.276   0.851 -0.4352  0.0267  0.1593
 4919SOL    HW219442   6.303   3.232   0.768  1.1868 -0.1865 -0.1240
 4919SOL    HW319443   6.295   3.367   0.836 -0.9813 -0.1955 -0.2720
 4919SOL    MW419444   6.315   3.282   0.838 -0.2932 -0.0308  0.0650
 4920SOL     OW19445   0.571   2.204   2.536  0.0869 -0.2453  0.2893
 4920SOL    HW219446   0.642   2.166   2.588 -0.4375  0.6982  1.7740
 4920SOL    HW319447   0.510   2.132   2.522  0.2118 -0.5081  1.0470
 4920SOL    MW419448   0.573   2.190   2.541  0.0342 -0.1555  0.5852
 4921SOL     OW19449   5.577   0.218   3.213  0.7936 -0.5870  0.1244
 4921SOL    HW219450   5.625   0.265   3.145  2.1186 -1.8526  0.1582
 4921SOL    HW319451   5.541   0.287   3.269  0.7441  0.4361 -1.1327
 4921SOL    MW419452   5.578   0.233   3.211  0.9619 -0.6190 -0.0370
 4922SOL     OW19453   1.979   3.383   3.294 -0.5013  0.0565 -0.5362
 4922SOL    HW219454   1.988   3.399   3.200  0.7965  1.4008 -0.2163
 4922SOL    HW319455   2.061   3.340   3.319 -0.1256  1.1987  0.2603
 4922SOL    MW419456   1.991   3.379   3.285 -0.2805  0.3846 -0.3889
 4923SOL     OW19457   2.509   0.204   2.526  0.0642 -0.8797  0.2408
 4923SOL    HW219458   2.509   0.198   2.430  0.1588 -0.2544  0.2001
 4923SOL    HW319459   2.598   0.233   2.548  0.3300 -1.9189  0.5809
 4923SOL    MW419460   2.521   0.207   2.516  0.1117 -0.9343  0.2803
 4924SOL     OW19461   3.615   3.623   5.204 -0.4491 -0.0052  0.6569
 4924SOL    HW219462   3.669   3.697   5.231 -1.0880  0.7256 -0.0246
 4924SOL    HW319463   3.642   3.551   5.262  0.4462  0.6472  1.0718
 4924SOL    MW419464   3.626   3.623   5.215 -0.4153  0.1773  0.6217
 4925SOL     OW19465   0.191   3.515   0.405 -0.1291  0.3322  0.5573
 4925SOL    HW219466   0.286   3.514   0.420 -0.0935  0.5105  0.3342
 4925SOL    HW319467   0.155   3.554   0.485  0.0973  1.7436 -0.0100
 4925SOL    MW419468   0.199   3.520   0.418 -0.0945  0.5419  0.4530
 4926SOL     OW19469   0.467   0.312   2.196  0.0770  0.0504 -0.3416
 4926SOL    HW219470   0.477   0.407   2.191 -0.9281  0.1924  0.0153
 4926SOL    HW319471   0.378   0.296   2.164  1.1528 -1.0650 -3.1321
 4926SOL    MW419472   0.456   0.322   2.191  0.0863 -0.0780 -0.6627
 4927SOL     OW19473   4.434   3.456   1.235  0.5301 -0.0115  0.2570
 4927SOL    HW219474   4.510   3.512   1.218  0.9708 -0.6876 -0.0687
 4927SOL    HW319475   4.371   3.477   1.167  0.5694  0.3043  0.3196
 4927SOL    MW419476   4.436   3.466   1.224  0.5934 -0.0590  0.2223
 4928SOL     OW19477   2.719   4.560   4.777 -0.1754 -0.1121  0.2643
 4928SOL    HW219478   2.729   4.512   4.859 -1.7302 -0.9273  0.0229
 4928SOL    HW319479   2.624   4.570   4.767 -0.0457 -0.4844 -1.6872
 4928SOL    MW419480   2.708   4.555   4.787 -0.3634 -0.2687 -0.0250
 4929SOL     OW19481   3.933   1.307   3.924 -0.1677  0.0369  0.4588
 4929SOL    HW219482   3.919   1.300   4.018  2.2352 -3.0105  0.7672
 4929SOL    HW319483   3.885   1.232   3.888  0.8782 -0.2234 -0.4335
 4929SOL    MW419484   3.925   1.296   3.931  0.2873 -0.3995  0.3818
 4930SOL     OW19485   2.185   1.968   5.766  0.0881  0.0070  0.0266
 4930SOL    HW219486   2.194   2.022   5.687 -0.0505  0.4420  0.3072
 4930SOL    HW319487   2.271   1.970   5.806 -0.0762  0.5101  0.3534
 4930SOL    MW419488   2.197   1.975   5.761  0.0481  0.1308  0.1067
 4931SOL     OW19489   3.504   4.160   2.034 -1.2022 -0.0898 -0.1882
 4931SOL    HW219490   3.411   4.184   2.038 -1.2391  0.3611 -2.3482
 4931SOL    HW319491   3.539   4.184   2.120 -3.2753 -1.2551  1.0660
 4931SOL    MW419492   3.496   4.166   2.046 -1.4806 -0.1841 -0.3077
 4932SOL     OW19493   5.354   0.658   3.416  0.2366  0.6393  0.0964
 4932SOL    HW219494   5.272   0.611   3.399  0.9042 -0.3108 -0.6108
 4932SOL    HW319495   5.354   0.674   3.510 -1.0125  1.1522  0.0265
 4932SOL    MW419496   5.343   0.654   3.426  0.1599  0.5816 -0.0062
 4933SOL     OW19497   1.249   1.924   4.612 -0.0431 -0.0352 -0.0808
 4933SOL    HW219498   1.294   1.844   4.639 -0.5973 -0.3152  0.0093
 4933SOL    HW319499   1.313   1.994   4.631  0.1884 -0.3843  0.4572
 4933SOL    MW419500   1.264   1.923   4.618 -0.0857 -0.1182  0.0021
 4934SOL     OW19501   3.802   5.408   6.085  0.5731 -0.0813  0.2526
 4934SOL    HW219502   3.782   5.447   6.170  0.6363 -1.1303  0.7595
 4934SOL    HW319503   3.807   5.314   6.102  2.9568 -0.1386 -0.4284
 4934SOL    MW419504   3.800   5.401   6.098  0.8959 -0.2272  0.2296
 4935SOL     OW19505   3.131   2.803   0.613  0.0252 -0.0344  0.2086
 4935SOL    HW219506   3.185   2.781   0.688 -0.6072  0.5884  0.8658
 4935SOL    HW319507   3.047   2.759   0.630  0.3869 -1.2323 -0.9367
 4935SOL    MW419508   3.127   2.795   0.625 -0.0105 -0.1103  0.1442
 4936SOL     OW19509   4.071   1.024   5.763 -0.2889 -0.1146  0.3909
 4936SOL    HW219510   4.004   0.956   5.754  0.4854 -0.7650 -0.7906
 4936SOL    HW319511   4.130   0.991   5.831 -1.0692  0.3966  1.3384
 4936SOL    MW419512   4.070   1.011   5.770 -0.2897 -0.1329  0.3600
 4937SOL     OW19513   1.349   2.396   1.725  0.4154  0.4444 -0.4642
 4937SOL    HW219514   1.272   2.441   1.689  0.1133  0.1526 -0.1908
 4937SOL    HW319515   1.410   2.466   1.745  0.2794  0.6707 -0.8237
 4937SOL    MW419516   1.347   2.411   1.723  0.3576  0.4357 -0.4756
 4938SOL     OW19517   0.749   6.213   5.419  0.0176  0.3272 -0.0538
 4938SOL    HW219518   0.842   6.230   5.402 -0.3363  0.9625 -1.4448
 4938SOL    HW319519   0.714   6.185   5.335 -1.1620  0.5549  0.3475
 4938SOL    MW419520   0.757   6.211   5.406 -0.1848  0.4411 -0.1844
 4939SOL     OW19521   5.454   0.451   3.817 -0.2444  0.2183  0.1213
 4939SOL    HW219522   5.445   0.377   3.758 -1.4323  0.6417 -0.2588
 4939SOL    HW319523   5.364   0.473   3.842  0.2154  0.2956  1.7890
 4939SOL    MW419524   5.441   0.444   3.812 -0.3405  0.2844  0.2912
 4940SOL     OW19525   3.297   5.685   2.285  0.4929  0.7568  0.1872
 4940SOL    HW219526   3.240   5.748   2.331 -0.9580 -0.7264  0.5300
 4940SOL    HW319527   3.364   5.662   2.350  1.0193  1.8852  0.0683
 4940SOL    MW419528   3.298   5.691   2.300  0.3709  0.7100  0.2167
 4941SOL     OW19529   1.893   0.128   1.394  0.2481 -0.1604  0.1477
 4941SOL    HW219530   1.910   0.043   1.433  0.2718 -0.5725 -0.7333
 4941SOL    HW319531   1.858   0.181   1.465  2.3706 -0.1957  1.3076
 4941SOL    MW419532   1.891   0.124   1.408  0.5312 -0.2194  0.1845
 4942SOL     OW19533   4.567   5.991   0.219  0.1090 -0.1629  0.2929
 4942SOL    HW219534   4.657   6.009   0.246 -0.3031  2.2216  0.3313
 4942SOL    HW319535   4.514   6.022   0.292 -0.7889 -4.5848  1.8053
 4942SOL    MW419536   4.572   5.998   0.232 -0.0638 -0.4317  0.4975
 4943SOL     OW19537   0.474   0.613   3.632  0.0121  0.2265  0.1666
 4943SOL    HW219538   0.454   0.644   3.544  1.6699 -0.2110 -0.3995
 4943SOL    HW319539   0.570   0.617   3.638 -0.0119 -0.5643  1.6442
 4943SOL    MW419540   0.484   0.617   3.621  0.2276  0.0645  0.2868
 4944SOL     OW19541   3.455   5.251   1.893  0.1800 -0.1853  0.1781
 4944SOL    HW219542   3.539   5.247   1.848  0.2039  2.3833 -0.1552
 4944SOL    HW319543   3.468   5.315   1.963 -1.7129  1.0928 -0.5355
 4944SOL    MW419544   3.468   5.259   1.896 -0.0666  0.3222  0.0400
 4945SOL     OW19545   0.490   1.950   3.553  0.3669  0.1493  0.0317
 4945SOL    HW219546   0.409   1.916   3.514  1.8999 -1.7724 -1.7369
 4945SOL    HW319547   0.492   2.042   3.529 -1.8042  0.5338  1.0942
 4945SOL    MW419548   0.479   1.957   3.545  0.2827 -0.0535 -0.0615
 4946SOL     OW19549   4.028   0.857   4.445 -0.1653 -0.1036  0.1349
 4946SOL    HW219550   4.097   0.791   4.438 -0.4272 -0.4243  0.4852
 4946SOL    HW319551   3.977   0.846   4.365 -0.3400 -0.4863  0.2937
 4946SOL    MW419552   4.030   0.847   4.433 -0.2229 -0.1964  0.2020
 4947SOL     OW19553   1.400   2.850   3.256  0.3011 -0.3051  0.4223
 4947SOL    HW219554   1.450   2.793   3.198  1.0979  1.4691 -0.7289
 4947SOL    HW319555   1.374   2.923   3.201  2.8024  2.5121  2.6367
 4947SOL    MW419556   1.403   2.852   3.241  0.7363  0.3007  0.5626
 4948SOL     OW19557   5.824   2.489   0.578 -0.2519  0.2938 -0.0775
 4948SOL    HW219558   5.729   2.477   0.584 -0.4398  1.8753  0.7205
 4948SOL    HW319559   5.855   2.480   0.669  0.1328  1.3505 -0.0950
 4948SOL    MW419560   5.815   2.486   0.591 -0.2259  0.6419  0.0255
 4949SOL     OW19561   2.153   2.367   2.786 -0.4445  0.2989 -0.4201
 4949SOL    HW219562   2.062   2.338   2.786 -0.1173 -0.8133 -2.1097
 4949SOL    HW319563   2.149   2.456   2.751 -1.0848  1.2001  1.7341
 4949SOL    MW419564   2.140   2.375   2.781 -0.4858  0.2711 -0.3588
 4950SOL     OW19565   5.904   2.277   4.258  0.3583  0.3533  0.3032
 4950SOL    HW219566   5.832   2.276   4.322  1.6810 -0.4071  1.8595
 4950SOL    HW319567   5.964   2.210   4.289  0.3323 -1.2281 -2.6871
 4950SOL    MW419568   5.902   2.268   4.271  0.5294  0.0443  0.1140
 4951SOL     OW19569   4.908   5.163   2.877 -0.4027  0.0758 -0.5612
 4951SOL    HW219570   4.953   5.083   2.903 -2.0768 -0.9934 -0.8631
 4951SOL    HW319571   4.971   5.208   2.821  0.4808 -1.1297 -0.5730
 4951SOL    MW419572   4.923   5.159   2.873 -0.5070 -0.2243 -0.6026
 4952SOL     OW19573   5.851   1.985   3.098  0.2529 -0.7315 -0.4713
 4952SOL    HW219574   5.819   2.038   3.025 -2.8835 -0.5132  0.9079
 4952SOL    HW319575   5.930   2.030   3.126 -1.1020  2.0651 -0.7175
 4952SOL    MW419576   5.857   1.998   3.092 -0.3397 -0.3337 -0.3218
 4953SOL     OW19577   5.653   6.203   0.139 -0.0907 -0.1896  0.3780
 4953SOL    HW219578   5.701   6.284   0.153  1.6588 -1.2462  0.8277
 4953SOL    HW319579   5.659   6.156   0.222 -0.6972 -0.9752 -0.0074
 4953SOL    MW419580   5.660   6.207   0.151  0.0601 -0.4326  0.3865
 4954SOL     OW19581   1.260   4.625   6.231  0.2432 -0.5083  0.6977
 4954SOL    HW219582   1.189   4.562   6.232  0.0897 -0.3888 -0.8332
 4954SOL    HW319583   1.232   4.693   6.169  1.3221 -0.0309  0.7055
 4954SOL    MW419584   1.247   4.626   6.223  0.3653 -0.4296  0.4968
 4955SOL     OW19585   5.568   3.428   0.506  0.2275  0.2795  0.2619
 4955SOL    HW219586   5.630   3.501   0.499  0.7101 -0.1408  0.1145
 4955SOL    HW319587   5.622   3.353   0.532 -0.1580 -0.1747 -0.2381
 4955SOL    MW419588   5.583   3.428   0.509  0.2403  0.1642  0.1765
 4956SOL     OW19589   3.874   2.274   5.539  0.3454 -0.2566  0.3136
 4956SOL    HW219590   3.922   2.191   5.533  3.2169  1.2747  0.3147
 4956SOL    HW319591   3.838   2.288   5.451 -1.5523 -2.1675  0.7050
 4956SOL    MW419592   3.876   2.265   5.527  0.4739 -0.3067  0.3654
 4957SOL     OW19593   5.155   2.192   1.240  0.3007 -0.1135 -0.2227
 4957SOL    HW219594   5.068   2.203   1.201 -0.1985  3.1022  1.4592
 4957SOL    HW319595   5.208   2.261   1.200  0.8891  0.5963  1.6586
 4957SOL    MW419596   5.150   2.203   1.230  0.3125  0.4045  0.2474
 4958SOL     OW19597   0.929   0.201   0.616 -0.6539 -0.1683 -0.4681
 4958SOL    HW219598   1.016   0.211   0.655 -0.1751 -0.5590 -1.4120
 4958SOL    HW319599   0.878   0.153   0.682 -1.0471  2.5112  1.3426
 4958SOL    MW419600   0.934   0.196   0.630 -0.6426  0.1337 -0.3537
 4959SOL     OW19601   5.438   5.016   3.250  0.3117  0.0932 -0.0684
 4959SOL    HW219602   5.520   4.972   3.230 -0.3489 -1.2734  0.1080
 4959SOL    HW319603   5.377   4.945   3.269 -0.6908  1.1115  0.6403
 4959SOL    MW419604   5.441   5.001   3.250  0.0923  0.0473  0.0484
 4960SOL     OW19605   0.827   0.151   1.967  0.6653 -0.1205 -0.1742
 4960SOL    HW219606   0.892   0.220   1.979 -0.4590  1.2835 -1.6910
 4960SOL    HW319607   0.846   0.115   1.880 -0.1929 -0.1042 -0.3760
 4960SOL    MW419608   0.838   0.155   1.957  0.4037  0.0669 -0.4009
 4961SOL     OW19609   2.831   6.106   6.123 -0.2529 -0.1457 -0.3214
 4961SOL    HW219610   2.788   6.030   6.162  0.9887  0.0161  1.5165
 4961SOL    HW319611   2.767   6.177   6.130 -0.6751 -0.5408 -0.1735
 4961SOL    MW419612   2.817   6.106   6.129 -0.1448 -0.1765 -0.0594
 4962SOL     OW19613   0.328   2.065   2.770 -0.5126  0.0717  0.4191
 4962SOL    HW219614   0.401   2.109   2.812  0.7327  0.2802 -1.8210
 4962SOL    HW319615   0.250   2.097   2.816  0.7407  0.1520  2.5757
 4962SOL    MW419616   0.327   2.075   2.781 -0.1830  0.1098  0.4081
 4963SOL     OW19617   6.204   0.515   2.595  0.3497 -0.5939  0.6296
 4963SOL    HW219618   6.293   0.548   2.606  0.5024 -0.8281  0.1221
 4963SOL    HW319619   6.148   0.592   2.604  0.6877 -0.2227 -0.3422
 4963SOL    MW419620   6.208   0.530   2.598  0.4144 -0.5758  0.4344
 4964SOL     OW19621   1.460   1.444   0.044  0.1907  0.5963 -0.3128
 4964SOL    HW219622   1.521   1.508   0.082 -0.6481  0.3883  1.5018
 4964SOL    HW319623   1.451   1.470  -0.048  1.9699  1.4157 -0.2846
 4964SOL    MW419624   1.467   1.456   0.037  0.3148  0.6770 -0.0696
 4965SOL     OW19625   5.028   5.296   2.656 -0.7296  0.5959  0.0324
 4965SOL    HW219626   5.025   5.211   2.612 -0.7385  1.3622 -1.5276
 4965SOL    HW319627   4.967   5.350   2.606  1.4736  2.3584 -0.9200
 4965SOL    MW419628   5.020   5.292   2.644 -0.4401  0.9295 -0.2991
 4966SOL     OW19629   1.321   2.849   1.637  0.2322 -0.1515 -0.2107
 4966SOL    HW219630   1.252   2.809   1.585  0.6990 -1.7577  0.3507
 4966SOL    HW319631   1.386   2.879   1.573  0.0186 -0.5924 -0.6318
 4966SOL    MW419632   1.321   2.848   1.622  0.2656 -0.4216 -0.1921
 4967SOL     OW19633   2.018   4.961   4.163 -0.2160 -0.3071 -0.3261
 4967SOL    HW219634   1.937   4.932   4.122  0.0366 -0.2113 -0.9067
 4967SOL    HW319635   2.086   4.940   4.099  0.2127 -0.3483  0.1383
 4967SOL    MW419636   2.016   4.955   4.149 -0.1261 -0.2999 -0.3414
 4968SOL     OW19637   2.984   5.520   2.625 -0.0112 -0.4796 -0.4842
 4968SOL    HW219638   2.947   5.598   2.583 -1.2259 -0.2168  1.0053
 4968SOL    HW319639   3.073   5.546   2.648 -0.0246  0.0716 -1.0096
 4968SOL    MW419640   2.991   5.534   2.622 -0.1732 -0.3722 -0.3570
 4969SOL     OW19641   2.920   0.221   0.493  0.0506  0.0675 -0.3246
 4969SOL    HW219642   2.868   0.227   0.572  0.5751 -0.6305  0.0831
 4969SOL    HW319643   3.008   0.248   0.519 -0.0867  1.2914 -1.0189
 4969SOL    MW419644   2.925   0.225   0.507  0.1017  0.1369 -0.3624
 4970SOL     OW19645   0.841   2.009   3.880 -0.5157  0.0162  0.1226
 4970SOL    HW219646   0.789   2.039   3.954 -1.5495 -1.0913 -0.1088
 4970SOL    HW319647   0.915   1.963   3.919  0.3044  1.5732  0.4587
 4970SOL    MW419648   0.844   2.007   3.895 -0.5439  0.0755  0.1364
 4971SOL     OW19649   3.930   1.492   5.630 -0.0479  0.1405  0.3373
 4971SOL    HW219650   3.984   1.485   5.551 -0.0694  1.6435  0.1654
 4971SOL    HW319651   3.965   1.568   5.676 -0.8005 -0.0076  1.1789
 4971SOL    MW419652   3.942   1.501   5.626 -0.1500  0.3193  0.4257
 4972SOL     OW19653   5.266   3.504   2.467  0.4289 -0.5239 -0.0431
 4972SOL    HW219654   5.180   3.485   2.431  0.8862 -1.5160 -0.6381
 4972SOL    HW319655   5.316   3.540   2.393  0.5222  0.0939  0.3095
 4972SOL    MW419656   5.261   3.507   2.453  0.5015 -0.5733 -0.0751
 4973SOL     OW19657   5.685   3.123   0.996  0.1346  0.0114  0.2539
 4973SOL    HW219658   5.690   3.164   0.909  1.6523  0.6605  0.6167
 4973SOL    HW319659   5.721   3.189   1.055 -0.4844 -0.5960  1.3179
 4973SOL    MW419660   5.691   3.137   0.992  0.2531  0.0169  0.4421
 4974SOL     OW19661   2.837   0.616   4.255 -0.4807  0.1926  0.3268
 4974SOL    HW219662   2.920   0.639   4.212 -0.1838  1.0601  1.3371
 4974SOL    HW319663   2.771   0.664   4.206 -0.1188  1.3590  0.9549
 4974SOL    MW419664   2.839   0.625   4.243 -0.3938  0.4609  0.5429
 4975SOL     OW19665   6.316   1.423   3.804  0.3237 -0.2608  0.2133
 4975SOL    HW219666   6.298   1.461   3.890  2.8097  0.6616  0.4048
 4975SOL    HW319667   6.296   1.330   3.815 -1.8634  0.2334  0.9738
 4975SOL    MW419668   6.311   1.415   3.817  0.3631 -0.0739  0.3389
 4976SOL     OW19669   2.198   4.324   1.533  0.4484  0.0742 -0.2754
 4976SOL    HW219670   2.174   4.411   1.500 -0.5840 -0.5311 -1.1738
 4976SOL    HW319671   2.237   4.280   1.458 -0.2806 -0.6921 -0.2186
 4976SOL    MW419672   2.200   4.330   1.519  0.2160 -0.1067 -0.3864
 4977SOL     OW19673   2.966   3.962   2.771  0.4562 -0.2265  0.9996
 4977SOL    HW219674   2.967   4.018   2.694 -0.2294 -1.1611  0.2919
 4977SOL    HW319675   2.984   4.022   2.844  0.4047  0.7916  0.2044
 4977SOL    MW419676   2.969   3.977   2.770  0.3590 -0.2155  0.8013
 4978SOL     OW19677   4.896   6.080   1.936 -0.2026 -0.4292  0.4608
 4978SOL    HW219678   4.810   6.119   1.920  0.3486  0.1039 -1.4904
 4978SOL    HW319679   4.889   5.992   1.900 -0.8517 -1.5583  3.1462
 4978SOL    MW419680   4.884   6.074   1.929 -0.2155 -0.5078  0.5577
 4979SOL     OW19681   1.790   1.575   1.509 -0.1530 -0.7995 -0.3672
 4979SOL    HW219682   1.769   1.666   1.528  0.3864 -0.4902 -1.2134
 4979SOL    HW319683   1.705   1.534   1.490 -0.6084 -0.8972  1.6409
 4979SOL    MW419684   1.776   1.582   1.509 -0.1419 -0.7716 -0.2139
 4980SOL     OW19685   5.297   1.840   6.300  0.0413 -0.0155 -0.0574
 4980SOL    HW219686   5.358   1.879   6.238  1.4830 -3.1095 -0.8020
 4980SOL    HW319687   5.352   1.787   6.357 -1.7496 -1.3972  0.4808
 4980SOL    MW419688   5.313   1.838   6.299 -0.0048 -0.6060 -0.0847
 4981SOL     OW19689   5.265   2.840   4.692  0.0475 -0.3426 -0.0877
 4981SOL    HW219690   5.267   2.763   4.635 -2.7137 -0.4302 -0.1765
 4981SOL    HW319691   5.329   2.900   4.653  2.2253 -2.5039 -0.0370
 4981SOL    MW419692   5.274   2.838   4.679 -0.0295 -0.6393 -0.0927
 4982SOL     OW19693   3.040   5.484   0.002 -0.6949 -0.8732 -0.1447
 4982SOL    HW219694   3.054   5.429  -0.075  1.5723  0.9239 -1.1064
 4982SOL    HW319695   3.098   5.448   0.068 -0.1386 -0.4061 -0.3739
 4982SOL    MW419696   3.049   5.472  -0.000 -0.3224 -0.5745 -0.3018
 4983SOL     OW19697   0.256   4.076   1.931 -0.2568  0.3396 -0.5691
 4983SOL    HW219698   0.213   4.060   1.847 -1.0850  2.2170 -0.5433
 4983SOL    HW319699   0.255   3.991   1.975 -2.9907  0.0385 -1.0389
 4983SOL    MW419700   0.250   4.063   1.926 -0.7268  0.5475 -0.6277
 4984SOL     OW19701   6.365   1.129   0.792 -0.1942 -0.5137  0.0277
 4984SOL    HW219702   6.312   1.051   0.809 -0.6310 -0.2140  0.0606
 4984SOL    HW319703   6.311   1.201   0.823  1.0494 -0.3381  1.9848
 4984SOL    MW419704   6.351   1.128   0.799 -0.0877 -0.4510  0.2903
 4985SOL     OW19705   6.341   2.339   3.165 -0.0403 -0.4806  0.3039
 4985SOL    HW219706   6.397   2.268   3.134 -0.8029 -1.3342  0.8369
 4985SOL    HW319707   6.361   2.347   3.258  1.3304  1.2302 -0.0788
 4985SOL    MW419708   6.351   2.331   3.173  0.0399 -0.3675  0.3237
 4986SOL     OW19709   5.336   2.626   4.533 -0.6530  0.1412  0.0569
 4986SOL    HW219710   5.248   2.591   4.529 -1.5511  2.3655 -2.4489
 4986SOL    HW319711   5.356   2.652   4.443  1.4926  2.1276  0.9915
 4986SOL    MW419712   5.327   2.625   4.521 -0.4884  0.6967 -0.1504
 4987SOL     OW19713   2.819   0.023   4.039  0.3882  0.0311  0.4633
 4987SOL    HW219714   2.878  -0.052   4.031  1.2636  0.8334 -0.9776
 4987SOL    HW319715   2.844   0.081   3.967 -0.6059  1.4736  1.2352
 4987SOL    MW419716   2.830   0.021   4.029  0.3726  0.3273  0.3750
 4988SOL     OW19717   0.595   1.204   5.889 -0.2807 -0.6945 -0.1717
 4988SOL    HW219718   0.683   1.213   5.924 -0.3710  0.4856 -0.2332
 4988SOL    HW319719   0.599   1.124   5.835  0.2049 -1.7677  1.3879
 4988SOL    MW419720   0.607   1.194   5.886 -0.2285 -0.6804  0.0259
 4989SOL     OW19721   1.013   2.064   5.498  0.2637  0.1941 -0.4236
 4989SOL    HW219722   1.041   2.120   5.425 -0.1745  1.4443  0.3296
 4989SOL    HW319723   0.960   2.122   5.554  0.7023 -0.6813  0.9573
 4989SOL    MW419724   1.010   2.079   5.496  0.2637  0.2436 -0.1420
 4990SOL     OW19725   4.877   2.740   4.136  0.0126 -0.7591  0.1321
 4990SOL    HW219726   4.897   2.676   4.205  0.8750 -0.5485  0.0903
 4990SOL    HW319727   4.802   2.789   4.170  1.4521  0.4687  1.7242
 4990SOL    MW419728   4.870   2.738   4.150  0.3163 -0.5693  0.3366
 4991SOL     OW19729   5.892   3.564   1.826  0.3664  0.3667  0.5394
 4991SOL    HW219730   5.809   3.580   1.871 -0.7746 -1.0225 -0.9265
 4991SOL    HW319731   5.870   3.500   1.758  2.7431 -0.3648  0.3699
 4991SOL    MW419732   5.878   3.557   1.823  0.5294  0.0869  0.3237
 4992SOL     OW19733   0.664   0.814   5.908  0.1091  0.3592  0.1456
 4992SOL    HW219734   0.659   0.870   5.830  2.5216  2.0362  1.1008
 4992SOL    HW319735   0.745   0.765   5.898 -0.0186 -0.0936  1.1698
 4992SOL    MW419736   0.674   0.815   5.896  0.4105  0.5207  0.4068
 4993SOL     OW19737   0.676   1.728   1.126 -0.5530 -0.3734 -0.9620
 4993SOL    HW219738   0.692   1.758   1.036  1.6084 -1.7047 -1.0743
 4993SOL    HW319739   0.735   1.780   1.179 -1.1564 -0.2446 -0.4091
 4993SOL    MW419740   0.686   1.739   1.121 -0.3474 -0.5320 -0.9038
 4994SOL     OW19741   1.116   1.651   2.016 -0.5184 -0.4864 -0.0200
 4994SOL    HW219742   1.080   1.623   1.932  0.2990  1.0905 -0.9279
 4994SOL    HW319743   1.168   1.728   1.996 -0.4248  0.0218  1.9686
 4994SOL    MW419744   1.118   1.657   2.002 -0.3982 -0.2113  0.1226
 4995SOL     OW19745   5.552   5.175   3.589  0.5516 -0.2463  0.1297
 4995SOL    HW219746   5.612   5.174   3.664 -0.6991  1.0821  1.2125
 4995SOL    HW319747   5.585   5.246   3.534  0.3879  0.0051  0.3564
 4995SOL    MW419748   5.565   5.184   3.592  0.3650 -0.0378  0.3025
 4996SOL     OW19749   3.164   5.342   6.198  0.1910  0.3407 -0.0647
 4996SOL    HW219750   3.238   5.281   6.191  0.9030  1.1501  0.2352
 4996SOL    HW319751   3.193   5.420   6.150 -0.5602  0.5765 -0.1356
 4996SOL    MW419752   3.178   5.344   6.191  0.1858  0.4786 -0.0345
 4997SOL     OW19753   6.130   3.038   3.206  0.0143 -0.4101 -0.4731
 4997SOL    HW219754   6.066   2.989   3.258  0.4020 -0.1455  0.2694
 4997SOL    HW319755   6.141   2.986   3.126 -1.1528 -0.4366 -0.6267
 4997SOL    MW419756   6.123   3.025   3.203 -0.0885 -0.3787 -0.3954
 4998SOL     OW19757   4.370   0.017   0.722 -0.0383  0.0353 -0.2198
 4998SOL    HW219758   4.377   0.008   0.627 -1.1772  1.4249 -0.4645
 4998SOL    HW319759   4.461   0.026   0.752  0.3307 -0.4486 -1.1515
 4998SOL    MW419760   4.383   0.017   0.714 -0.1399  0.1548 -0.3750
 4999SOL     OW19761   5.993   0.569   0.937  0.4456  0.3280  0.4537
 4999SOL    HW219762   6.088   0.572   0.931  0.3279  1.9180 -1.9908
 4999SOL    HW319763   5.972   0.620   1.015  1.5796 -2.2075  2.5936
 4999SOL    MW419764   6.003   0.576   0.946  0.5797  0.2032  0.4135
 5000SOL     OW19765   2.468   2.608   5.662 -0.0726  0.1325  0.0714
 5000SOL    HW219766   2.452   2.585   5.754  0.1718  0.2735  0.1507
 5000SOL    HW319767   2.386   2.647   5.632 -0.9517 -1.9982 -0.4384
 5000SOL    MW419768   2.455   2.610   5.670 -0.1563 -0.1300  0.0146
 5001SOL     OW19769   3.302   3.957   3.996 -0.1198  0.6823 -0.1743
 5001SOL    HW219770   3.328   3.872   4.032 -1.9255  0.1898  0.0680
 5001SOL    HW319771   3.363   4.020   4.035 -0.1135 -0.2256  1.3560
 5001SOL    MW419772   3.314   3.954   4.006 -0.3572  0.4975  0.0596
 5002SOL     OW19773   5.775   4.584   4.678  0.6168 -0.9154 -0.0135
 5002SOL    HW219774   5.786   4.526   4.603  0.1842 -3.0768  1.4902
 5002SOL    HW319775   5.715   4.537   4.736 -1.2185  1.8827  0.5445
 5002SOL    MW419776   5.769   4.570   4.676  0.3176 -0.8314  0.2585
 5003SOL     OW19777   0.038   4.634   3.109  0.3497 -0.2632  0.0595
 5003SOL    HW219778   0.121   4.596   3.080  0.4388 -0.5397  0.6721
 5003SOL    HW319779  -0.003   4.565   3.162 -0.3210 -0.1670 -0.3144
 5003SOL    MW419780   0.044   4.620   3.112  0.2729 -0.2870  0.0910
 5004SOL     OW19781   0.813   3.167   4.597 -0.0103 -0.2171  0.0080
 5004SOL    HW219782   0.881   3.167   4.665  0.1063 -0.0673 -0.1072
 5004SOL    HW319783   0.779   3.078   4.597  0.5294 -0.4264 -0.2793
 5004SOL    MW419784   0.818   3.156   4.606  0.0763 -0.2249 -0.0451
 5005SOL     OW19785   6.231   1.207   5.435  0.0235  0.2879 -0.1901
 5005SOL    HW219786   6.196   1.177   5.351  0.6199 -1.1561  0.0461
 5005SOL    HW319787   6.164   1.183   5.499  0.2107  0.0642 -0.0778
 5005SOL    MW419788   6.217   1.200   5.432  0.1268  0.0679 -0.1441
 5006SOL     OW19789   5.576   2.986   4.627  0.1500  0.0850  0.2698
 5006SOL    HW219790   5.647   3.040   4.663 -1.0949  0.3216  2.5525
 5006SOL    HW319791   5.518   3.048   4.583 -0.2345  0.3469  1.1282
 5006SOL    MW419792   5.578   3.001   4.626 -0.0650  0.1508  0.6843
 5007SOL     OW19793   2.451   3.049   5.660 -0.2069  0.1071 -0.0579
 5007SOL    HW219794   2.485   2.966   5.694 -0.2040  0.0169 -0.2769
 5007SOL    HW319795   2.465   3.043   5.565 -1.8792 -0.4152 -0.2976
 5007SOL    MW419796   2.457   3.037   5.652 -0.4272  0.0263 -0.1184
 5008SOL     OW19797   1.285   4.004   6.168  0.0403  0.0475 -0.1612
 5008SOL    HW219798   1.205   4.056   6.171 -0.1908 -0.3476  0.7968
 5008SOL    HW319799   1.351   4.064   6.133 -0.1623  1.0800  1.1394
 5008SOL    MW419800   1.283   4.019   6.163 -0.0169  0.1316  0.1368
 5009SOL     OW19801   3.193   0.413   3.704  0.2872 -0.2500  0.8283
 5009SOL    HW219802   3.215   0.468   3.779 -0.3586  2.0011 -0.5357
 5009SOL    HW319803   3.102   0.434   3.684  1.3146  1.7573 -2.4827
 5009SOL    MW419804   3.184   0.423   3.711  0.3375  0.3118  0.2115
 5010SOL     OW19805   5.133   3.253   3.237  0.5102 -0.1751  0.9782
 5010SOL    HW219806   5.095   3.332   3.199 -0.6764 -0.8504  0.7009
 5010SOL    HW319807   5.067   3.185   3.221  1.7779 -1.3705  0.6312
 5010SOL    MW419808   5.119   3.254   3.230  0.5209 -0.4219  0.8958
 5011SOL     OW19809   6.087   3.314   0.998  0.0130  0.4990 -0.0782
 5011SOL    HW219810   6.142   3.270   0.932  0.5568  2.5010 -1.0357
 5011SOL    HW319811   6.003   3.328   0.954 -0.6642 -0.7991  0.7231
 5011SOL    MW419812   6.083   3.310   0.983 -0.0046  0.5919 -0.0988
 5012SOL     OW19813   1.971   1.899   1.963  0.6058 -0.3048  0.2891
 5012SOL    HW219814   1.920   1.818   1.961 -0.4769  0.3549  0.0622
 5012SOL    HW319815   2.061   1.871   1.977  0.1297 -1.4896  1.1461
 5012SOL    MW419816   1.976   1.885   1.964  0.4001 -0.3741  0.3723
 5013SOL     OW19817   4.112   1.579   1.771  0.4339  0.3669  0.2035
 5013SOL    HW219818   4.130   1.542   1.857  0.7975  0.4645  0.1700
 5013SOL    HW319819   4.117   1.674   1.784 -1.4418  0.4524  0.5016
 5013SOL    MW419820   4.115   1.586   1.784  0.2344  0.3911  0.2384
 5014SOL     OW19821   4.169   5.339   6.304  0.4328  0.5273 -0.1807
 5014SOL    HW219822   4.209   5.419   6.270  1.2267  0.5733  0.8115
 5014SOL    HW319823   4.223   5.316   6.380 -1.0152  0.1928  0.7787
 5014SOL    MW419824   4.182   5.346   6.309  0.3465  0.4893  0.0768
 5015SOL     OW19825   0.553   5.378   0.607 -0.0905 -0.6368 -0.3452
 5015SOL    HW219826   0.606   5.334   0.673 -0.7591 -0.7259  0.1306
 5015SOL    HW319827   0.503   5.444   0.655  0.7500  0.5335 -1.0168
 5015SOL    MW419828   0.554   5.381   0.622 -0.0678 -0.4942 -0.3710
 5016SOL     OW19829   2.811   0.861   5.237 -0.3247 -0.0236 -0.4316
 5016SOL    HW219830   2.817   0.844   5.143  0.2673  0.0879 -0.4130
 5016SOL    HW319831   2.882   0.922   5.256  0.4896 -1.1742  0.3511
 5016SOL    MW419832   2.821   0.867   5.228 -0.1392 -0.1607 -0.3259
 5017SOL     OW19833   2.255   0.618   3.183  0.1356  0.4156  0.0415
 5017SOL    HW219834   2.277   0.527   3.206  2.2924  0.5946 -1.1030
 5017SOL    HW319835   2.226   0.614   3.092 -0.8447  0.7375  0.3328
 5017SOL    MW419836   2.254   0.605   3.174  0.2908  0.4817 -0.0711
 5018SOL     OW19837   3.912   1.604   4.130 -0.3372  0.2972  0.4540
 5018SOL    HW219838   3.954   1.667   4.071  0.0135  0.7846  1.2041
 5018SOL    HW319839   3.959   1.614   4.213 -0.0702 -1.1915  0.5113
 5018SOL    MW419840   3.924   1.614   4.134 -0.2557  0.1651  0.5606
 5019SOL     OW19841   2.919   3.797   5.450  0.1609 -0.0194  0.3820
 5019SOL    HW219842   2.964   3.786   5.534  1.4611 -0.7058 -0.3694
 5019SOL    HW319843   2.882   3.711   5.431  0.3099 -0.0073  0.0181
 5019SOL    MW419844   2.920   3.784   5.458  0.3521 -0.1083  0.2348
 5020SOL     OW19845   0.005   1.069   3.205 -0.1029 -0.0894  0.4528
 5020SOL    HW219846  -0.054   1.071   3.130 -0.2597  1.0158  0.5941
 5020SOL    HW319847  -0.050   1.087   3.280  0.7297  3.8858  0.3187
 5020SOL    MW419848  -0.010   1.071   3.205 -0.0137  0.5809  0.4537
 5021SOL     OW19849   0.785   5.615   1.056  0.3363 -0.7682 -0.7094
 5021SOL    HW219850   0.876   5.639   1.077 -0.2026  0.1704  0.7635
 5021SOL    HW319851   0.745   5.697   1.027 -0.3461 -0.8942 -0.1505
 5021SOL    MW419852   0.792   5.629   1.055  0.1751 -0.6610 -0.4413
 5022SOL     OW19853   0.747   2.823   5.102  0.4272  0.0094 -0.4888
 5022SOL    HW219854   0.720   2.825   5.010 -0.7960  0.9694 -0.1354
 5022SOL    HW319855   0.750   2.730   5.124  0.1361 -0.2119 -1.3365
 5022SOL    MW419856   0.744   2.811   5.093  0.2274  0.1069 -0.5541
 5023SOL     OW19857   2.301   0.969   2.050 -0.2910  0.0286  0.0099
 5023SOL    HW219858   2.208   0.969   2.024 -0.3368 -1.1045  0.1233
 5023SOL    HW319859   2.332   1.057   2.025 -1.2710  0.2682 -0.4576
 5023SOL    MW419860   2.293   0.981   2.043 -0.4264 -0.0893 -0.0368
 5024SOL     OW19861   3.448   4.619   0.290 -0.3260 -0.5121 -0.0328
 5024SOL    HW219862   3.496   4.548   0.248 -0.9815 -1.7015  1.1454
 5024SOL    HW319863   3.511   4.661   0.348 -0.3188 -1.0901  0.3752
 5024SOL    MW419864   3.462   4.615   0.292 -0.4115 -0.7453  0.1765
 5025SOL     OW19865   2.729   5.081   4.741 -0.3192 -0.5947 -0.6896
 5025SOL    HW219866   2.754   5.163   4.699 -0.5225 -0.6152 -0.8558
 5025SOL    HW319867   2.719   5.102   4.833 -2.0034 -0.0451 -0.9639
 5025SOL    MW419868   2.731   5.094   4.747 -0.5682 -0.5249 -0.7477
 5026SOL     OW19869   0.943   3.563   3.705 -0.4473  0.1218  0.5443
 5026SOL    HW219870   0.990   3.487   3.672  1.1317  1.2236  0.1444
 5026SOL    HW319871   1.011   3.628   3.721 -1.6777  1.2081  1.5753
 5026SOL    MW419872   0.958   3.562   3.703 -0.4013  0.4105  0.6276
 5027SOL     OW19873   3.361   3.775   5.235  0.7035  0.1698 -0.4312
 5027SOL    HW219874   3.339   3.717   5.308  1.6897  0.4647  0.1223
 5027SOL    HW319875   3.423   3.724   5.182  0.3707  0.1440 -0.8014
 5027SOL    MW419876   3.367   3.760   5.238  0.7897  0.2053 -0.4070
 5028SOL     OW19877   1.097   2.024   3.070  0.0748  0.0860 -0.4891
 5028SOL    HW219878   1.024   2.005   3.129 -0.4674  1.5332 -0.6489
 5028SOL    HW319879   1.166   1.963   3.096 -0.9869 -0.9259  0.0375
 5028SOL    MW419880   1.097   2.013   3.081 -0.1368  0.1434 -0.4407
 5029SOL     OW19881   5.098   3.343   3.482  0.0279  0.2472  0.5993
 5029SOL    HW219882   5.177   3.334   3.536  0.0259 -0.0916  0.5480
 5029SOL    HW319883   5.127   3.320   3.394  0.1377  1.2507  0.3669
 5029SOL    MW419884   5.113   3.339   3.478  0.0421  0.3349  0.5619
 5030SOL     OW19885   1.213   5.060   5.301  0.6957 -0.1743 -0.1596
 5030SOL    HW219886   1.281   5.097   5.357  1.4314 -2.4698  0.5500
 5030SOL    HW319887   1.259   5.035   5.221  0.0818  0.8977 -0.8956
 5030SOL    MW419888   1.228   5.062   5.298  0.7117 -0.3357 -0.1631
 5031SOL     OW19889   2.577   2.550   0.921  0.4480  0.0413 -0.1897
 5031SOL    HW219890   2.525   2.610   0.974  0.6595  0.8172 -0.8472
 5031SOL    HW319891   2.596   2.476   0.980  0.6216  0.8489  0.7918
 5031SOL    MW419892   2.573   2.548   0.936  0.4988  0.2502 -0.1470
 5032SOL     OW19893   4.797   0.851   0.233 -0.4027 -0.2990 -0.2759
 5032SOL    HW219894   4.865   0.857   0.166  2.1693  0.7377  2.1886
 5032SOL    HW319895   4.725   0.903   0.199  1.2377  1.1375 -1.7931
 5032SOL    MW419896   4.797   0.859   0.220  0.1531  0.0273 -0.1509
 5033SOL     OW19897   2.716   3.692   6.416  0.1823  0.4372  0.7760
 5033SOL    HW219898   2.702   3.777   6.458  0.3913  0.6344  0.4520
 5033SOL    HW319899   2.627   3.660   6.397  0.1172  0.9532  0.1749
 5033SOL    MW419900   2.702   3.699   6.419  0.2013  0.5313  0.6540
 5034SOL     OW19901   5.605   1.544   6.203 -0.4266 -0.0277 -0.3717
 5034SOL    HW219902   5.625   1.630   6.166 -3.6448  0.7644 -0.5912
 5034SOL    HW319903   5.680   1.525   6.260  0.2471  3.1039  0.0077
 5034SOL    MW419904   5.618   1.553   6.206 -0.7623  0.4900 -0.3506
 5035SOL     OW19905   2.435   0.606   2.263 -0.4810  0.1312 -0.3181
 5035SOL    HW219906   2.499   0.608   2.334 -0.7465  1.0146 -0.0887
 5035SOL    HW319907   2.405   0.697   2.255 -2.3671 -0.4081  0.1624
 5035SOL    MW419908   2.440   0.618   2.271 -0.7649  0.1766 -0.2244
 5036SOL     OW19909   2.858   0.352   6.300 -0.1591  0.1802 -0.4561
 5036SOL    HW219910   2.817   0.380   6.219 -2.2719 -0.1894  0.4065
 5036SOL    HW319911   2.824   0.411   6.367  0.0865 -0.6461  0.4369
 5036SOL    MW419912   2.848   0.363   6.298 -0.4054  0.0224 -0.2244
 5037SOL     OW19913   6.236   2.637   0.385 -0.0808  0.2304 -0.0476
 5037SOL    HW219914   6.238   2.546   0.414  0.2316 -0.1225 -1.1239
 5037SOL    HW319915   6.300   2.681   0.441 -0.5662 -0.1112  0.7857
 5037SOL    MW419916   6.245   2.631   0.396 -0.1036  0.1388 -0.0797
 5038SOL     OW19917   4.532   0.403   0.572  0.3723  0.5561 -0.5777
 5038SOL    HW219918   4.604   0.362   0.524  1.3108  0.1221  1.1222
 5038SOL    HW319919   4.454   0.355   0.543  1.2126 -1.2912  0.0222
 5038SOL    MW419920   4.531   0.391   0.562  0.6070  0.2551 -0.2743
 5039SOL     OW19921   6.023   0.739   2.664 -0.1215  0.0424  0.4360
 5039SOL    HW219922   5.937   0.721   2.627 -0.2066 -0.3021  0.7927
 5039SOL    HW319923   6.052   0.820   2.621 -1.2210  0.9466  1.3288
 5039SOL    MW419924   6.016   0.747   2.654 -0.2778  0.1163  0.6009
 5040SOL     OW19925   1.528   0.487   4.830  0.0800  0.2603 -0.4970
 5040SOL    HW219926   1.513   0.581   4.822  0.9202  0.2725 -2.3609
 5040SOL    HW319927   1.571   0.477   4.915  0.1935  1.5900 -0.3795
 5040SOL    MW419928   1.532   0.498   4.840  0.2058  0.4374 -0.7274
 5041SOL     OW19929   3.556   2.089   0.332  0.0042 -0.5326 -0.3427
 5041SOL    HW219930   3.602   2.011   0.301  0.9359 -0.2997  0.3800
 5041SOL    HW319931   3.543   2.073   0.426 -3.5267 -1.6022 -0.8997
 5041SOL    MW419932   3.561   2.077   0.341 -0.3387 -0.6430 -0.3208
 5042SOL     OW19933   0.169   1.437   0.991  0.4661  0.8205 -0.1379
 5042SOL    HW219934   0.109   1.434   0.917  2.3258 -2.0407 -1.7024
 5042SOL    HW319935   0.236   1.501   0.965  0.3506  0.8946 -0.2528
 5042SOL    MW419936   0.170   1.445   0.978  0.6962  0.4528 -0.3595
 5043SOL     OW19937   4.093   3.580   3.774  0.1382  0.0596 -0.4742
 5043SOL    HW219938   4.156   3.627   3.719 -0.5191  2.7068  0.8443
 5043SOL    HW319939   4.144   3.555   3.852  0.2473 -0.5597 -0.7379
 5043SOL    MW419940   4.108   3.583   3.777  0.0659  0.3272 -0.3350
 5044SOL     OW19941   5.263   1.184   1.515  0.3839  0.0548  0.0556
 5044SOL    HW219942   5.203   1.114   1.491  0.0661  0.4613 -0.3546
 5044SOL    HW319943   5.294   1.218   1.431  0.8579  0.1344  0.2581
 5044SOL    MW419944   5.260   1.179   1.501  0.4045  0.1189  0.0282
 5045SOL     OW19945   1.470   5.752   5.017  0.4465 -0.3884 -0.3504
 5045SOL    HW219946   1.446   5.669   5.057  2.7985 -0.9161  0.1196
 5045SOL    HW319947   1.487   5.731   4.925  0.4369 -0.3163 -0.3693
 5045SOL    MW419948   1.469   5.738   5.010  0.7555 -0.4485 -0.2909
 5046SOL     OW19949   5.254   2.405   3.316 -0.1014  0.3678  0.1240
 5046SOL    HW219950   5.244   2.493   3.281 -2.6597 -0.4515 -1.4791
 5046SOL    HW319951   5.343   2.379   3.291  0.3932  2.1627 -0.0926
 5046SOL    MW419952   5.264   2.413   3.308 -0.3737  0.4966 -0.1161
 5047SOL     OW19953   5.503   2.542   4.195 -0.2596 -0.1613 -0.0928
 5047SOL    HW219954   5.518   2.447   4.191  0.8002 -0.0819  1.2184
 5047SOL    HW319955   5.586   2.581   4.168 -0.5160  0.3926 -0.1031
 5047SOL    MW419956   5.516   2.535   4.191 -0.1536 -0.0778  0.0789
 5048SOL     OW19957   5.690   4.702   1.789 -0.4386  0.0188 -0.0824
 5048SOL    HW219958   5.676   4.608   1.785  0.9377 -0.1964 -0.0720
 5048SOL    HW319959   5.650   4.729   1.871 -2.1185 -0.3024 -0.7510
 5048SOL    MW419960   5.683   4.693   1.799 -0.4787 -0.0520 -0.1692
 5049SOL     OW19961   5.833   1.503   1.819  0.2854 -0.1995  0.0347
 5049SOL    HW219962   5.792   1.419   1.842 -2.3008  1.1280  0.6870
 5049SOL    HW319963   5.790   1.529   1.738 -0.0286  1.1373  0.6062
 5049SOL    MW419964   5.822   1.495   1.811 -0.0972  0.1520  0.1962
 5050SOL     OW19965   4.461   3.721   0.155 -0.1418 -0.2221 -0.2945
 5050SOL    HW219966   4.411   3.793   0.115 -0.4475 -0.1537  0.2005
 5050SOL    HW319967   4.547   3.758   0.171 -0.2348 -0.0286 -0.2323
 5050SOL    MW419968   4.465   3.736   0.152 -0.1944 -0.1876 -0.2210
 5051SOL     OW19969   0.352   5.766   4.858 -0.5362  0.1076  0.7202
 5051SOL    HW219970   0.325   5.809   4.940  0.0876 -1.0710  1.5728
 5051SOL    HW319971   0.275   5.772   4.802 -0.6086  1.9333  0.9653
 5051SOL    MW419972   0.338   5.773   4.862 -0.4635  0.1930  0.8650
 5052SOL     OW19973   0.740   1.034   1.710 -0.0256  0.1319 -0.0085
 5052SOL    HW219974   0.807   1.076   1.658 -1.7484  0.1467 -2.3906
 5052SOL    HW319975   0.665   1.025   1.651 -1.0643 -2.7721  1.5066
 5052SOL    MW419976   0.739   1.038   1.695 -0.3899 -0.2493 -0.1229
 5053SOL     OW19977   0.357   5.937   5.083 -0.0338 -0.0916 -0.1717
 5053SOL    HW219978   0.406   5.877   5.138 -0.2132  1.7994  2.2514
 5053SOL    HW319979   0.325   6.004   5.143  0.1688  2.4540 -2.6577
 5053SOL    MW419980   0.359   5.938   5.098 -0.0307  0.4938 -0.1800
 5054SOL     OW19981   0.932   5.505   4.191 -0.3189 -0.0369 -0.3800
 5054SOL    HW219982   0.969   5.426   4.152 -0.8850 -0.2497 -0.4943
 5054SOL    HW319983   0.957   5.576   4.132  0.5616 -0.0625 -0.0484
 5054SOL    MW419984   0.940   5.504   4.178 -0.2774 -0.0684 -0.3513
 5055SOL     OW19985   0.460   4.222   2.642  0.6867  0.2573 -0.1508
 5055SOL    HW219986   0.530   4.284   2.666  0.1877  0.8850 -0.2871
 5055SOL    HW319987   0.413   4.205   2.723 -0.8958  2.2480 -0.5635
 5055SOL    MW419988   0.463   4.228   2.656  0.4121  0.6027 -0.2233
 5056SOL     OW19989   4.527   3.056   1.568  0.4319 -0.7979  0.3287
 5056SOL    HW219990   4.590   2.995   1.607  1.1651  0.1583  0.6601
 5056SOL    HW319991   4.442   3.028   1.604  0.4517 -2.8487 -1.0295
 5056SOL    MW419992   4.524   3.044   1.578  0.5312 -0.9423  0.1933
 5057SOL     OW19993   4.925   0.975   5.738  0.1214  0.5342 -0.1376
 5057SOL    HW219994   4.959   0.966   5.827  0.9200 -0.4338 -0.5206
 5057SOL    HW319995   4.991   1.028   5.693  0.6283 -0.4835 -0.6156
 5057SOL    MW419996   4.938   0.981   5.744  0.2936  0.2722 -0.2512
 5058SOL     OW19997   5.291   6.303   1.068  0.0256 -0.1459 -0.3245
 5058SOL    HW219998   5.349   6.304   0.991  1.3345 -0.8657  0.6225
 5058SOL    HW319999   5.298   6.215   1.103 -1.5937 -0.2184 -0.1144
 5058SOL    MW420000   5.300   6.292   1.062 -0.0154 -0.2504 -0.1718
 5059SOL     OW20001   2.743   2.635   6.265 -0.2028  0.2536  0.4581
 5059SOL    HW220002   2.739   2.576   6.189 -0.3683 -1.2187  1.5616
 5059SOL    HW320003   2.673   2.698   6.249  0.4365  0.6157 -1.1068
 5059SOL    MW420004   2.733   2.635   6.253 -0.1403  0.1071  0.3973
 5060SOL     OW20005   5.434   3.060   0.322  0.3360  0.3209  0.2936
 5060SOL    HW220006   5.355   3.018   0.355  0.3748 -1.4007 -1.6194
 5060SOL    HW320007   5.478   2.991   0.272  1.9508  1.8444 -0.4603
 5060SOL    MW420008   5.429   3.045   0.320  0.5541  0.2947 -0.0583
 5061SOL     OW20009   4.703   5.128   4.557 -0.0748  0.0900 -0.5336
 5061SOL    HW220010   4.793   5.113   4.527  0.3595  1.9964 -0.2968
 5061SOL    HW320011   4.711   5.144   4.651 -0.6457  0.4826 -0.5495
 5061SOL    MW420012   4.716   5.128   4.566 -0.0928  0.3933 -0.5044
 5062SOL     OW20013   3.716   1.049   2.730  0.1342  0.2437  0.1993
 5062SOL    HW220014   3.798   1.002   2.717 -0.2106  0.0661 -1.6494
 5062SOL    HW320015   3.653   1.004   2.674 -0.7770  1.4975  0.1570
 5062SOL    MW420016   3.718   1.037   2.721 -0.0315  0.3857 -0.0502
 5063SOL     OW20017   0.687   4.900   5.892  0.0895 -0.3621 -0.1626
 5063SOL    HW220018   0.658   4.815   5.859  1.9473 -0.6185 -1.2241
 5063SOL    HW320019   0.630   4.963   5.849 -0.0800 -0.9555 -0.8162
 5063SOL    MW420020   0.675   4.897   5.882  0.3122 -0.4742 -0.3889
 5064SOL     OW20021   1.391   4.240   3.512  0.3172  0.0558  0.0592
 5064SOL    HW220022   1.383   4.206   3.423 -2.0382  1.1299 -0.2317
 5064SOL    HW320023   1.389   4.335   3.501 -1.8184  0.2243  1.2930
 5064SOL    MW420024   1.389   4.248   3.499 -0.2754  0.2198  0.1836
 5065SOL     OW20025   2.933   5.578   5.946 -0.4563 -0.3050  0.0086
 5065SOL    HW220026   2.922   5.669   5.920  1.0454 -0.3328 -0.8215
 5065SOL    HW320027   3.009   5.578   6.004 -0.0873 -1.0957 -0.4524
 5065SOL    MW420028   2.942   5.590   5.950 -0.2094 -0.4130 -0.1618
 5066SOL     OW20029   4.483   2.715   0.891 -0.2141  0.1120 -0.0719
 5066SOL    HW220030   4.542   2.644   0.867 -0.2846 -0.1035  0.3964
 5066SOL    HW320031   4.521   2.793   0.849 -0.6924 -0.3643 -1.4535
 5066SOL    MW420032   4.496   2.716   0.882 -0.2865  0.0207 -0.1924
 5067SOL     OW20033   3.871   3.987   5.002 -0.4888  0.4930  0.7706
 5067SOL    HW220034   3.906   3.937   4.928 -1.3604 -1.1037  1.3817
 5067SOL    HW320035   3.945   4.040   5.032  0.0736  0.6398 -0.7829
 5067SOL    MW420036   3.885   3.988   4.996 -0.5296  0.3017  0.6463
 5068SOL     OW20037   4.409   1.511   0.047 -0.1245  0.1514 -0.1375
 5068SOL    HW220038   4.355   1.589   0.061  0.7514  0.7882 -0.2095
 5068SOL    HW320039   4.417   1.472   0.134 -0.0698  0.4827  0.0093
 5068SOL    MW420040   4.403   1.516   0.060 -0.0017  0.2792 -0.1276
 5069SOL     OW20041   0.381   6.113   1.852  0.3379  0.2116 -0.0319
 5069SOL    HW220042   0.475   6.099   1.857  0.2159 -0.6334  0.1994
 5069SOL    HW320043   0.366   6.199   1.890  0.6696 -1.0634  3.3238
 5069SOL    MW420044   0.391   6.122   1.857  0.3656 -0.0681  0.4414
 5070SOL     OW20045   5.298   5.389   3.680 -0.1124  0.6926 -0.0713
 5070SOL    HW220046   5.386   5.413   3.710  0.4580  0.2558 -1.3363
 5070SOL    HW320047   5.313   5.317   3.619 -1.5747 -1.2487  1.7354
 5070SOL    MW420048   5.312   5.383   3.676 -0.2301  0.3788  0.0002
 5071SOL     OW20049   4.285   2.268   4.458  0.3568 -0.6635  0.5545
 5071SOL    HW220050   4.248   2.336   4.514 -0.6972  1.1794 -2.1487
 5071SOL    HW320051   4.380   2.280   4.467  0.1985  0.9647  0.4417
 5071SOL    MW420052   4.293   2.279   4.467  0.1968 -0.2055  0.1830
 5072SOL     OW20053   4.851   0.224   1.741 -0.4327  0.3672  0.3092
 5072SOL    HW220054   4.802   0.150   1.776  0.1377 -0.7981 -1.2375
 5072SOL    HW320055   4.942   0.204   1.762 -0.4449  2.0235  2.2787
 5072SOL    MW420056   4.857   0.212   1.748 -0.3590  0.4320  0.3650
 5073SOL     OW20057   5.984   3.840   4.159 -0.7341 -0.6695 -0.6128
 5073SOL    HW220058   6.049   3.778   4.127 -0.5785  0.3879 -2.5056
 5073SOL    HW320059   5.962   3.809   4.247  0.7285 -2.2735 -0.7617
 5073SOL    MW420060   5.989   3.828   4.167 -0.5206 -0.7416 -0.8822
 5074SOL     OW20061   4.808   5.088   1.297 -0.5166 -0.2058  0.1539
 5074SOL    HW220062   4.775   5.038   1.222  0.3661  3.5192 -3.0480
 5074SOL    HW320063   4.889   5.044   1.321 -1.1057 -1.8308 -0.6362
 5074SOL    MW420064   4.814   5.076   1.290 -0.4778  0.0713 -0.3728
 5075SOL     OW20065   6.006   0.886   0.395  0.3498 -0.3142  0.0421
 5075SOL    HW220066   5.937   0.920   0.338  0.3207 -0.2040  0.1431
 5075SOL    HW320067   5.989   0.927   0.480  0.8140  0.0641 -0.0462
 5075SOL    MW420068   5.995   0.896   0.399  0.4072 -0.2497  0.0438
 5076SOL     OW20069   0.380   5.721   5.633 -0.2037  0.0264 -0.0556
 5076SOL    HW220070   0.394   5.731   5.727  1.3471 -0.4347 -0.2054
 5076SOL    HW320071   0.363   5.809   5.601  1.1847  0.4823  0.3962
 5076SOL    MW420072   0.380   5.734   5.641  0.1841  0.0257 -0.0157
 5077SOL     OW20073   4.100   4.139   5.064 -0.0682  0.0870 -0.0682
 5077SOL    HW220074   4.096   4.200   4.991  0.4524  0.7369  0.4401
 5077SOL    HW320075   4.063   4.187   5.138  1.6269  0.3163  0.6851
 5077SOL    MW420076   4.094   4.153   5.064  0.2241  0.2030  0.0982
 5078SOL     OW20077   1.628   2.538   1.647 -0.0271  0.1010 -0.2529
 5078SOL    HW220078   1.610   2.450   1.613 -1.4576  0.8816 -1.6883
 5078SOL    HW320079   1.724   2.542   1.654  0.0309 -1.9540  1.0564
 5078SOL    MW420080   1.638   2.527   1.643 -0.2082 -0.0672 -0.2695
 5079SOL     OW20081   1.853   5.373   6.263  0.9176  0.2324 -0.7673
 5079SOL    HW220082   1.885   5.450   6.217 -0.9476  0.6557 -1.4715
 5079SOL    HW320083   1.798   5.409   6.334  0.3523 -0.4284 -0.8579
 5079SOL    MW420084   1.850   5.388   6.266  0.5969  0.2011 -0.8722
 5080SOL     OW20085   3.284   4.279   3.091 -0.1046 -0.0374 -0.1561
 5080SOL    HW220086   3.271   4.238   3.005 -0.3120  0.2049 -0.2412
 5080SOL    HW320087   3.329   4.212   3.143 -1.6204 -0.8618  0.1274
 5080SOL    MW420088   3.289   4.265   3.086 -0.3320 -0.1142 -0.1300
 5081SOL     OW20089   3.019   1.887   4.232  0.2692  0.0903  0.3214
 5081SOL    HW220090   2.936   1.926   4.204 -0.0729  1.6121  3.0936
 5081SOL    HW320091   3.082   1.915   4.166 -1.0915  0.2820 -0.9526
 5081SOL    MW420092   3.017   1.896   4.220  0.0446  0.3164  0.5191
 5082SOL     OW20093   5.083   4.210   2.288  0.6114 -0.3324  0.3909
 5082SOL    HW220094   5.146   4.143   2.313  0.7457 -0.5254 -0.4212
 5082SOL    HW320095   5.136   4.288   2.270  0.5405 -0.2613  0.4867
 5082SOL    MW420096   5.098   4.212   2.289  0.6197 -0.3485  0.2964
 5083SOL     OW20097   5.038   4.562   2.391  0.2378  0.5513  0.7056
 5083SOL    HW220098   4.966   4.612   2.353 -0.2396 -0.5761  0.0903
 5083SOL    HW320099   5.032   4.579   2.485  0.6594  2.3574  0.4468
 5083SOL    MW420100   5.028   4.571   2.399  0.2305  0.6408  0.5903
 5084SOL     OW20101   4.949   5.456   6.135  0.0272  0.2077  0.0258
 5084SOL    HW220102   4.856   5.468   6.156  0.1034  0.4060  0.2476
 5084SOL    HW320103   4.959   5.361   6.126 -0.2803  0.2106 -0.3850
 5084SOL    MW420104   4.938   5.445   6.137 -0.0033  0.2342  0.0009
 5085SOL     OW20105   1.702   1.204   0.622  0.2931  0.7694 -0.6329
 5085SOL    HW220106   1.683   1.113   0.597 -2.0641  1.1914 -0.6493
 5085SOL    HW320107   1.771   1.231   0.562  1.6364 -1.2240 -0.0976
 5085SOL    MW420108   1.708   1.196   0.611  0.1593  0.5621 -0.5644
 5086SOL     OW20109   5.055   1.483   2.567 -0.2282  0.1699 -0.2001
 5086SOL    HW220110   5.103   1.561   2.536  1.3117 -0.6268  0.0941
 5086SOL    HW320111   5.080   1.474   2.659 -0.7140 -0.4488 -0.1224
 5086SOL    MW420112   5.065   1.492   2.575 -0.0891 -0.0169 -0.1510
 5087SOL     OW20113   3.365   3.128   0.844  0.0539  0.6526 -0.3292
 5087SOL    HW220114   3.352   3.107   0.751 -0.9579 -0.8053  0.0995
 5087SOL    HW320115   3.328   3.215   0.854 -0.4039  0.5678 -1.1744
 5087SOL    MW420116   3.358   3.136   0.833 -0.1400  0.4490 -0.3841
 5088SOL     OW20117   3.703   6.354   1.935  0.2779 -0.1457 -0.0752
 5088SOL    HW220118   3.746   6.382   2.016  0.4600 -0.4800 -0.0527
 5088SOL    HW320119   3.673   6.435   1.894  0.9915  0.1064 -0.1198
 5088SOL    MW420120   3.705   6.368   1.940  0.3961 -0.1565 -0.0781
 5089SOL     OW20121   3.756   0.502   1.081 -0.6389  0.1481  0.2999
 5089SOL    HW220122   3.715   0.418   1.103 -1.9428  1.1532  1.8851
 5089SOL    HW320123   3.821   0.516   1.150  1.4102 -0.6831 -1.3365
 5089SOL    MW420124   3.759   0.492   1.093 -0.5406  0.1710  0.2932
 5090SOL     OW20125   5.668   3.651   5.059 -0.3701  0.0772 -0.6331
 5090SOL    HW220126   5.626   3.569   5.084  0.4775 -0.2065 -0.0854
 5090SOL    HW320127   5.620   3.718   5.106  1.6118 -0.4925  2.5249
 5090SOL    MW420128   5.656   3.649   5.068  0.0032 -0.0354 -0.1442
 5091SOL     OW20129   5.057   1.410   3.278 -0.2187 -0.0610  0.2445
 5091SOL    HW220130   5.031   1.450   3.195 -1.6285 -0.2974  0.5375
 5091SOL    HW320131   5.010   1.327   3.279  0.3669 -0.3893  0.9553
 5091SOL    MW420132   5.047   1.404   3.267 -0.3274 -0.1355  0.3769
 5092SOL     OW20133   5.445   1.170   1.008 -0.1582 -0.0278  0.1687
 5092SOL    HW220134   5.369   1.192   0.955  0.1921 -1.9666 -1.2634
 5092SOL    HW320135   5.506   1.242   0.995 -0.9663  0.5975 -0.2361
 5092SOL    MW420136   5.443   1.182   0.999 -0.2186 -0.2011 -0.0736
 5093SOL     OW20137   4.577   3.598   5.454 -0.0989  0.2031 -0.1392
 5093SOL    HW220138   4.511   3.548   5.405  0.9531 -1.2181 -0.1586
 5093SOL    HW320139   4.656   3.593   5.401  0.7703 -0.4373  1.1628
 5093SOL    MW420140   4.578   3.591   5.441  0.1546 -0.0689  0.0300
 5094SOL     OW20141   4.303   3.273   4.732  0.5841  0.7223 -0.1823
 5094SOL    HW220142   4.376   3.217   4.706  1.7946  2.2421 -0.1802
 5094SOL    HW320143   4.326   3.303   4.820  1.0515  2.8748 -0.9719
 5094SOL    MW420144   4.316   3.270   4.740  0.8055  1.2068 -0.2862
 5095SOL     OW20145   4.796   6.387   4.592 -0.8487  0.3687  0.2986
 5095SOL    HW220146   4.813   6.348   4.678 -0.6819 -0.4763 -0.1122
 5095SOL    HW320147   4.785   6.312   4.533 -2.6032  0.8960 -0.1252
 5095SOL    MW420148   4.797   6.372   4.596 -1.0581  0.3268  0.1885
 5096SOL     OW20149   5.310   1.227   2.727  0.0926 -0.3304  0.5440
 5096SOL    HW220150   5.286   1.146   2.772  0.0142 -1.2579 -1.0960
 5096SOL    HW320151   5.344   1.199   2.642  0.3913  1.3434  0.0654
 5096SOL    MW420152   5.311   1.213   2.722  0.1217 -0.2320  0.2645
 5097SOL     OW20153   1.613   5.650   5.952  0.2200  0.0794 -0.4012
 5097SOL    HW220154   1.546   5.635   5.885  0.5777 -1.4061 -0.4768
 5097SOL    HW320155   1.615   5.568   6.003  0.9486  0.6458  0.5221
 5097SOL    MW420156   1.605   5.637   5.950  0.3633 -0.0419 -0.2894
 5098SOL     OW20157   2.888   3.298   4.145  0.0552 -1.3156  0.2736
 5098SOL    HW220158   2.916   3.352   4.220  0.5587 -1.1797 -0.0100
 5098SOL    HW320159   2.837   3.358   4.091  2.2380 -0.5131 -1.0527
 5098SOL    MW420160   2.885   3.313   4.148  0.4096 -1.1918  0.0612
 5099SOL     OW20161   0.202   2.333   5.222  0.1834  0.2127 -0.1195
 5099SOL    HW220162   0.265   2.401   5.197  1.0891 -0.2213  0.9175
 5099SOL    HW320163   0.253   2.272   5.276  0.1395 -2.7227 -3.0372
 5099SOL    MW420164   0.217   2.333   5.226  0.2971 -0.2318 -0.3676
 5100SOL     OW20165   2.336   0.993   1.251  0.3714  0.0375  0.5339
 5100SOL    HW220166   2.362   1.085   1.260  2.2453 -0.2312 -1.3200
 5100SOL    HW320167   2.383   0.948   1.322  1.2311  0.2217  0.0921
 5100SOL    MW420168   2.346   0.999   1.262  0.7320  0.0263  0.2310
 5101SOL     OW20169   0.856   0.837   4.642 -0.7294 -0.3089 -0.0896
 5101SOL    HW220170   0.925   0.886   4.685 -1.4073  1.3182 -0.7656
 5101SOL    HW320171   0.840   0.762   4.700  0.8793 -0.1744  0.5737
 5101SOL    MW420172   0.863   0.833   4.656 -0.6066 -0.0765 -0.0913
 5102SOL     OW20173   0.154   3.444   1.110  0.3221  0.4437 -0.2245
 5102SOL    HW220174   0.171   3.454   1.204  0.3610  1.9998 -0.3587
 5102SOL    HW320175   0.060   3.463   1.101  0.3351  0.3772 -0.5033
 5102SOL    MW420176   0.144   3.448   1.121  0.3290  0.6402 -0.2790
 5103SOL     OW20177   2.416   3.803   4.947 -0.7816  0.7451 -0.2710
 5103SOL    HW220178   2.420   3.708   4.937 -2.6062  0.6050 -0.0447
 5103SOL    HW320179   2.346   3.818   5.010 -0.1653  2.2344  0.1069
 5103SOL    MW420180   2.407   3.792   4.954 -0.9410  0.9231 -0.1913
 5104SOL     OW20181   1.620   0.481   5.756 -0.8365  0.1979 -0.3803
 5104SOL    HW220182   1.572   0.440   5.685  0.8653 -0.4206 -1.2430
 5104SOL    HW320183   1.678   0.544   5.712 -0.1682  0.2151  0.5039
 5104SOL    MW420184   1.622   0.484   5.741 -0.5238  0.1186 -0.3775
 5105SOL     OW20185   6.316   6.101   1.952  0.0701 -0.0389  0.0297
 5105SOL    HW220186   6.275   6.015   1.963 -0.5273  0.3099  0.5823
 5105SOL    HW320187   6.242   6.162   1.952  0.6276  0.9284  4.0949
 5105SOL    MW420188   6.301   6.097   1.954  0.0648  0.1348  0.6390
 5106SOL     OW20189   4.290   5.438   2.767  0.4488  0.4262  0.2147
 5106SOL    HW220190   4.224   5.507   2.767 -2.1983 -1.9207  1.8301
 5106SOL    HW320191   4.373   5.484   2.783 -0.9774  3.2965 -0.0711
 5106SOL    MW420192   4.292   5.453   2.769 -0.0886  0.4952  0.3901
 5107SOL     OW20193   2.537   3.152   1.813 -0.4826  0.0766  0.5620
 5107SOL    HW220194   2.461   3.118   1.859  0.4016 -0.3933  1.7311
 5107SOL    HW320195   2.610   3.097   1.843  0.5914  1.5233  0.7100
 5107SOL    MW420196   2.537   3.140   1.823 -0.2242  0.2055  0.7358
 5108SOL     OW20197   4.787   0.324   5.440 -0.0382 -0.7027 -0.3603
 5108SOL    HW220198   4.860   0.266   5.463  0.0081 -0.9525 -1.1341
 5108SOL    HW320199   4.805   0.351   5.350 -2.5636 -3.3823 -1.8283
 5108SOL    MW420200   4.799   0.320   5.431 -0.3653 -1.0892 -0.6561
 5109SOL     OW20201   0.284   5.176   2.154  0.3372  0.1467  0.0375
 5109SOL    HW220202   0.356   5.169   2.216  0.1496 -2.4936  0.1086
 5109SOL    HW320203   0.322   5.218   2.077  0.6917  3.0573  1.6817
 5109SOL    MW420204   0.299   5.180   2.152  0.3592  0.1823  0.2638
 5110SOL     OW20205   4.977   3.031   1.843  0.4666 -0.1390  0.0913
 5110SOL    HW220206   5.001   2.982   1.921  1.7330  0.5404  0.1523
 5110SOL    HW320207   5.058   3.036   1.792 -0.5877 -1.6696 -1.9204
 5110SOL    MW420208   4.990   3.025   1.846  0.4946 -0.2513 -0.1661
 5111SOL     OW20209   2.380   4.301   0.531 -0.0047  0.0698  0.3422
 5111SOL    HW220210   2.437   4.259   0.596 -1.0296  0.7333  1.7206
 5111SOL    HW320211   2.349   4.381   0.574 -1.5056  0.0251 -0.5814
 5111SOL    MW420212   2.384   4.306   0.545 -0.3379  0.1515  0.4022
 5112SOL     OW20213   3.925   0.560   1.308 -0.2424 -0.2706  0.1662
 5112SOL    HW220214   3.850   0.537   1.363 -0.4070 -0.8034 -0.2728
 5112SOL    HW320215   3.992   0.496   1.332  0.1236  0.2877  0.6547
 5112SOL    MW420216   3.924   0.549   1.318 -0.2159 -0.2672  0.1728
 5113SOL     OW20217   3.630   3.274   5.151 -0.6960  0.3041  0.4035
 5113SOL    HW220218   3.665   3.304   5.235 -0.8000  0.3432  0.4330
 5113SOL    HW320219   3.544   3.316   5.145 -0.1316  1.4014 -0.3571
 5113SOL    MW420220   3.623   3.284   5.161 -0.6352  0.4541  0.3070
 5114SOL     OW20221   5.233   2.403   3.981 -0.4031  0.0655  0.0898
 5114SOL    HW220222   5.210   2.346   3.907 -2.0258 -1.1552  1.4468
 5114SOL    HW320223   5.310   2.451   3.951  0.2140 -1.8502 -1.6530
 5114SOL    MW420224   5.240   2.401   3.967 -0.5358 -0.3483  0.0389
 5115SOL     OW20225   0.229   0.555   4.060  0.5890  0.4729  0.2850
 5115SOL    HW220226   0.317   0.593   4.070  1.4837 -1.0012 -1.3678
 5115SOL    HW320227   0.198   0.591   3.977 -0.2650  0.7122  0.6951
 5115SOL    MW420228   0.237   0.565   4.050  0.5944  0.3100  0.1211
 5116SOL     OW20229   3.891   3.895   2.962 -0.0063 -0.5588 -0.0591
 5116SOL    HW220230   3.861   3.897   3.053 -1.8086 -1.4402 -0.5816
 5116SOL    HW320231   3.848   3.969   2.921  1.6384  0.4837 -0.0111
 5116SOL    MW420232   3.882   3.905   2.968 -0.0271 -0.5375 -0.1217
 5117SOL     OW20233   3.344   1.112   6.051 -0.0887 -0.0887  0.0199
 5117SOL    HW220234   3.291   1.043   6.090  0.4545 -1.0139 -0.8049
 5117SOL    HW320235   3.400   1.066   5.988 -0.0697  1.1754 -0.9304
 5117SOL    MW420236   3.345   1.097   6.048 -0.0145 -0.0440 -0.2143
 5118SOL     OW20237   5.771   0.447   3.522 -0.3278  0.3991  0.5734
 5118SOL    HW220238   5.758   0.498   3.602 -0.5685  0.2295  0.6430
 5118SOL    HW320239   5.861   0.466   3.497 -0.5540  1.2137  0.3469
 5118SOL    MW420240   5.781   0.457   3.529 -0.3894  0.4842  0.5527
 5119SOL     OW20241   1.154   3.384   4.456 -0.1664 -0.0415 -0.1246
 5119SOL    HW220242   1.091   3.455   4.471  0.8865  0.5873  1.7732
 5119SOL    HW320243   1.137   3.322   4.527  0.6176 -0.4018 -0.2398
 5119SOL    MW420244   1.143   3.385   4.468  0.0760 -0.0061  0.1106
 5120SOL     OW20245   3.793   3.392   0.696  0.3798  0.6015 -0.1486
 5120SOL    HW220246   3.879   3.405   0.656  1.3632 -1.1155  1.2400
 5120SOL    HW320247   3.788   3.459   0.765  1.9608 -1.0444  1.7108
 5120SOL    MW420248   3.803   3.403   0.700  0.7181  0.1578  0.2799
 5121SOL     OW20249   2.878   4.163   5.012  0.0916 -0.5010  0.2752
 5121SOL    HW220250   2.932   4.096   4.972  0.9576  0.6866 -0.6359
 5121SOL    HW320251   2.798   4.118   5.040  0.9851 -2.0278  0.4238
 5121SOL    MW420252   2.874   4.148   5.010  0.3238 -0.5458  0.1746
 5122SOL     OW20253   1.467   0.451   1.711 -0.0864 -0.3337  0.6840
 5122SOL    HW220254   1.407   0.505   1.660 -1.6577  0.8459  3.5591
 5122SOL    HW320255   1.544   0.506   1.723  1.6015 -1.6556 -2.5530
 5122SOL    MW420256   1.469   0.465   1.706 -0.0710 -0.3525  0.6362
 5123SOL     OW20257   4.085   5.449   3.104 -0.6850  0.1140 -0.6794
 5123SOL    HW220258   4.117   5.540   3.111 -0.2667 -0.0219 -0.7690
 5123SOL    HW320259   4.056   5.428   3.193 -3.0673  1.1422 -1.1481
 5123SOL    MW420260   4.086   5.458   3.117 -0.9441  0.2318 -0.7530
 5124SOL     OW20261   1.518   0.530   3.096  0.6344 -0.6446  0.2124
 5124SOL    HW220262   1.532   0.451   3.044  1.8843 -0.1627 -0.2237
 5124SOL    HW320263   1.528   0.602   3.033  0.3650 -0.1067  0.7734
 5124SOL    MW420264   1.521   0.529   3.081  0.7638 -0.5100  0.2289
 5125SOL     OW20265   5.894   4.760   1.600  0.3404 -0.2741  0.1821
 5125SOL    HW220266   5.850   4.716   1.673 -1.0241  1.2103  0.2831
 5125SOL    HW320267   5.980   4.718   1.596 -0.6756 -2.5528  0.6307
 5125SOL    MW420268   5.900   4.748   1.609  0.0263 -0.3789  0.2546
 5126SOL     OW20269   0.420   3.212   4.359  0.3811  0.1451 -0.2365
 5126SOL    HW220270   0.464   3.244   4.438  0.4347  1.3404 -0.7228
 5126SOL    HW320271   0.449   3.272   4.290 -2.2906  1.2579 -0.5247
 5126SOL    MW420272   0.430   3.224   4.361  0.0357  0.4496 -0.3387
 5127SOL     OW20273   5.839   0.946   2.827 -0.2736 -0.8878 -0.2012
 5127SOL    HW220274   5.924   0.957   2.785 -0.5750  1.3872 -0.3820
 5127SOL    HW320275   5.843   1.001   2.905 -1.0018 -2.1207  0.7444
 5127SOL    MW420276   5.850   0.955   2.832 -0.4094 -0.7503 -0.1003
 5128SOL     OW20277   4.544   3.158   5.993  0.1138  0.3051  0.6906
 5128SOL    HW220278   4.489   3.097   6.041  0.7307 -0.3678  0.5691
 5128SOL    HW320279   4.562   3.228   6.055  0.4399 -0.2785  1.2645
 5128SOL    MW420280   4.539   3.159   6.007  0.2382  0.1393  0.7502
 5129SOL     OW20281   3.590   4.338   5.458  0.0187 -0.0609  0.2785
 5129SOL    HW220282   3.630   4.283   5.391 -1.1078  0.8039 -1.1730
 5129SOL    HW320283   3.502   4.356   5.426 -0.9008 -0.3349  2.4409
 5129SOL    MW420284   3.584   4.333   5.445 -0.2512  0.0171  0.3723
 5130SOL     OW20285   1.682   3.240   2.861 -0.4731  0.3185 -0.1995
 5130SOL    HW220286   1.745   3.273   2.798  2.2250 -3.1103  0.4475
 5130SOL    HW320287   1.665   3.315   2.919  2.3304  1.6554 -0.9348
 5130SOL    MW420288   1.688   3.254   2.860  0.2528  0.0425 -0.2112
 5131SOL     OW20289   2.344   1.051   0.211 -0.1042 -0.0300 -0.3936
 5131SOL    HW220290   2.282   0.979   0.197 -1.3551  1.1800 -1.2967
 5131SOL    HW320291   2.428   1.016   0.180 -0.5476 -1.3094 -0.2221
 5131SOL    MW420292   2.347   1.037   0.205 -0.3277 -0.0392 -0.4901
 5132SOL     OW20293   1.457   3.936   2.196  0.1429 -0.8799 -0.3298
 5132SOL    HW220294   1.501   4.002   2.143 -0.9740 -0.1751 -0.4293
 5132SOL    HW320295   1.485   3.852   2.160  1.4116 -0.4589 -0.3519
 5132SOL    MW420296   1.466   3.934   2.185  0.1629 -0.7314 -0.3458
 5133SOL     OW20297   1.674   6.133   0.028 -0.1387 -0.3440  0.1145
 5133SOL    HW220298   1.678   6.217  -0.018 -1.9736 -0.4845 -0.3498
 5133SOL    HW320299   1.720   6.149   0.110  0.2551  0.8739 -0.3190
 5133SOL    MW420300   1.681   6.147   0.033 -0.3288 -0.2019 -0.0039
 5134SOL     OW20301   4.286   2.718   5.826 -0.0280 -0.2854 -0.0114
 5134SOL    HW220302   4.193   2.732   5.845 -0.9803 -0.4657 -3.7555
 5134SOL    HW320303   4.319   2.805   5.803  0.3412 -0.4767 -0.2071
 5134SOL    MW420304   4.278   2.731   5.826 -0.1049 -0.3344 -0.5312
 5135SOL     OW20305   4.660   3.429   0.878  0.2432  0.0273 -0.1124
 5135SOL    HW220306   4.667   3.405   0.970 -0.7260 -0.1258 -0.0618
 5135SOL    HW320307   4.747   3.460   0.854  0.3200  0.8077  1.0622
 5135SOL    MW420308   4.672   3.430   0.887  0.1255  0.1100  0.0492
 5136SOL     OW20309   0.662   5.623   0.337 -0.2456 -0.1136  0.0065
 5136SOL    HW220310   0.625   5.579   0.261 -0.7719 -0.1244  0.2619
 5136SOL    HW320311   0.756   5.604   0.333 -0.1552  0.4852 -1.0356
 5136SOL    MW420312   0.669   5.615   0.327 -0.3031 -0.0360 -0.0973
 5137SOL     OW20313   4.122   1.277   6.084 -0.1035 -0.0294 -0.6071
 5137SOL    HW220314   4.190   1.326   6.130 -1.5611  1.4011  0.0929
 5137SOL    HW320315   4.081   1.341   6.025 -0.7007 -0.9177 -1.1854
 5137SOL    MW420316   4.126   1.292   6.082 -0.3746  0.0421 -0.5910
 5138SOL     OW20317   5.797   5.247   1.410 -0.0917 -0.0450 -0.3379
 5138SOL    HW220318   5.739   5.266   1.484  0.7431  2.5291 -0.2542
 5138SOL    HW320319   5.860   5.184   1.445  0.1922  0.9950  1.1380
 5138SOL    MW420320   5.797   5.241   1.425  0.0559  0.4318 -0.1321
 5139SOL     OW20321   0.278   5.461   5.465 -0.2692  0.3761 -0.2815
 5139SOL    HW220322   0.243   5.409   5.538 -0.0154  0.1888 -0.2921
 5139SOL    HW320323   0.300   5.545   5.503 -0.1902  0.2972 -0.1543
 5139SOL    MW420324   0.276   5.465   5.479 -0.2253  0.3409 -0.2661
 5140SOL     OW20325   1.705   1.943   4.109 -0.1151 -0.2124 -0.2517
 5140SOL    HW220326   1.658   1.906   4.184  0.1401  0.5240  0.2899
 5140SOL    HW320327   1.698   2.037   4.121 -0.8024 -0.0737 -1.6369
 5140SOL    MW420328   1.698   1.950   4.121 -0.1721 -0.0969 -0.3630
 5141SOL     OW20329   1.336   0.605   0.323 -0.0235 -0.5134 -0.2767
 5141SOL    HW220330   1.370   0.532   0.272  0.3253 -1.4211  1.2098
 5141SOL    HW320331   1.387   0.681   0.294  1.6942 -1.4173  0.2801
 5141SOL    MW420332   1.347   0.606   0.312  0.2492 -0.7524 -0.0071
 5142SOL     OW20333   5.213   3.476   0.080  0.3191  0.0751 -0.1741
 5142SOL    HW220334   5.118   3.462   0.072  0.3857 -0.3188 -0.3122
 5142SOL    HW320335   5.238   3.430   0.160  0.5734 -0.8044 -0.7394
 5142SOL    MW420336   5.203   3.468   0.089  0.3614 -0.0929 -0.2669
 5143SOL     OW20337   3.394   5.084   0.668 -0.0012  0.6417  0.3997
 5143SOL    HW220338   3.351   5.003   0.643 -0.1930  0.7522  0.3683
 5143SOL    HW320339   3.395   5.083   0.764  0.5386  0.3199  0.3921
 5143SOL    MW420340   3.389   5.073   0.677  0.0447  0.6138  0.3946
 5144SOL     OW20341   4.166   3.891   2.543 -0.6188 -0.3042  0.0710
 5144SOL    HW220342   4.132   3.820   2.489  2.5170 -0.4593 -1.9471
 5144SOL    HW320343   4.201   3.847   2.621 -1.1273 -0.5872  0.1507
 5144SOL    MW420344   4.166   3.876   2.546 -0.2722 -0.3620 -0.1847
 5145SOL     OW20345   3.545   2.053   0.642  0.1096  0.4171 -0.1648
 5145SOL    HW220346   3.606   2.075   0.713  1.6634  2.3258 -1.9801
 5145SOL    HW320347   3.490   2.130   0.633  1.5626  1.2694 -2.5839
 5145SOL    MW420348   3.546   2.066   0.650  0.5063  0.7814 -0.7235
 5146SOL     OW20349   4.688   6.028   4.209 -0.1522 -0.1204 -0.3543
 5146SOL    HW220350   4.619   6.092   4.197 -1.4662 -1.5197 -0.5533
 5146SOL    HW320351   4.668   5.958   4.147  0.9640 -0.9407  0.1585
 5146SOL    MW420352   4.676   6.027   4.199 -0.1783 -0.4132 -0.3129
 5147SOL     OW20353   5.935   5.087   2.308 -0.8271  0.5517 -0.2165
 5147SOL    HW220354   6.018   5.134   2.305 -1.2719  1.3655  0.0278
 5147SOL    HW320355   5.957   5.001   2.345 -0.2393  1.0994  0.7295
 5147SOL    MW420356   5.949   5.082   2.313 -0.8083  0.7313 -0.0594
 5148SOL     OW20357   2.688   3.929   0.155 -0.0394  0.0257 -0.3264
 5148SOL    HW220358   2.700   3.981   0.234 -0.7276 -0.4000  0.0707
 5148SOL    HW320359   2.691   3.993   0.084 -1.8117  0.7897  0.2052
 5148SOL    MW420360   2.690   3.945   0.156 -0.3640  0.0703 -0.2039
 5149SOL     OW20361   3.269   2.637   4.419  0.3805 -0.3222 -0.2973
 5149SOL    HW220362   3.313   2.586   4.486 -0.3567 -2.0758 -1.0877
 5149SOL    HW320363   3.177   2.611   4.425 -0.7118  3.2692  1.3412
 5149SOL    MW420364   3.263   2.627   4.428  0.1391 -0.0797 -0.1854
 5150SOL     OW20365   4.810   1.630   2.408  0.0419 -0.3271  0.4723
 5150SOL    HW220366   4.788   1.649   2.499 -0.9061 -1.8869  0.6030
 5150SOL    HW320367   4.906   1.626   2.407  0.0598 -0.2979  1.3928
 5150SOL    MW420368   4.820   1.632   2.420 -0.0808 -0.5290  0.6110
 5151SOL     OW20369   1.431   4.680   5.148 -0.3830 -0.3540 -0.7060
 5151SOL    HW220370   1.421   4.585   5.140 -1.4409 -0.3499  0.3176
 5151SOL    HW320371   1.479   4.692   5.230 -1.8823  0.0329  0.1569
 5151SOL    MW420372   1.436   4.669   5.158 -0.7204 -0.3024 -0.4571
 5152SOL     OW20373   5.650   0.943   4.109  0.0887 -0.5618 -0.3472
 5152SOL    HW220374   5.630   0.892   4.031  0.0227 -1.0710 -0.0044
 5152SOL    HW320375   5.638   1.034   4.082 -1.0365 -0.7749 -0.6284
 5152SOL    MW420376   5.645   0.949   4.095 -0.0685 -0.6571 -0.3391
 5153SOL     OW20377   5.644   5.801   0.011 -0.0125 -0.0654 -0.2398
 5153SOL    HW220378   5.717   5.739   0.012 -0.2345 -0.3312  0.8237
 5153SOL    HW320379   5.566   5.746  -0.003 -0.1705  0.0102  0.3164
 5153SOL    MW420380   5.643   5.785   0.009 -0.0626 -0.0905 -0.0261
 5154SOL     OW20381   4.763   6.338   3.892  0.2051  0.0273  0.0066
 5154SOL    HW220382   4.828   6.276   3.925 -0.9889 -0.6527  1.1673
 5154SOL    HW320383   4.680   6.291   3.896 -1.0495  2.1821  2.5628
 5154SOL    MW420384   4.761   6.324   3.897 -0.1180  0.2219  0.4970
 5155SOL     OW20385   0.958   0.197   4.763  0.0979 -0.2289 -0.0019
 5155SOL    HW220386   1.007   0.149   4.696  0.1470 -2.0203  1.2302
 5155SOL    HW320387   0.888   0.241   4.715 -1.2633 -3.2966 -1.0725
 5155SOL    MW420388   0.955   0.196   4.748 -0.0752 -0.8700  0.0194
 5156SOL     OW20389   6.040   4.809   5.438 -0.2388 -0.1973  0.4593
 5156SOL    HW220390   5.959   4.759   5.437  1.0357 -2.4750 -1.4979
 5156SOL    HW320391   6.075   4.799   5.349  1.6771  1.5664  0.9338
 5156SOL    MW420392   6.034   4.801   5.426  0.1822 -0.2651  0.2637
 5157SOL     OW20393   2.265   2.912   2.932  0.3081  0.1475 -0.2803
 5157SOL    HW220394   2.302   2.910   3.020  0.0186 -1.2452 -0.1645
 5157SOL    HW320395   2.198   2.844   2.933 -0.2171  0.6268 -1.3589
 5157SOL    MW420396   2.261   2.903   2.944  0.2006  0.0270 -0.4073
 5158SOL     OW20397   5.071   4.102   3.778 -0.8437 -0.3477  0.3330
 5158SOL    HW220398   5.101   4.193   3.776  1.1609 -0.9033  2.0411
 5158SOL    HW320399   4.976   4.108   3.772 -1.0199  2.0742  3.3007
 5158SOL    MW420400   5.062   4.114   3.777 -0.6025 -0.1015  0.9499
 5159SOL     OW20401   2.163   0.849   0.161  0.2018 -0.1385  1.4246
 5159SOL    HW220402   2.195   0.802   0.083 -0.9273  0.9263  0.2725
 5159SOL    HW320403   2.138   0.779   0.222 -2.4667 -1.1714 -0.6520
 5159SOL    MW420404   2.164   0.834   0.158 -0.2992 -0.1343  0.9986
 5160SOL     OW20405   4.432   4.950   2.165  0.2988  0.2579  0.1177
 5160SOL    HW220406   4.490   5.015   2.205  0.8703 -0.1478 -0.0242
 5160SOL    HW320407   4.491   4.878   2.141 -0.2475 -0.0962 -0.1786
 5160SOL    MW420408   4.448   4.949   2.167  0.3021  0.1576  0.0599
 5161SOL     OW20409   1.109   6.069   5.716 -0.1365  0.1041  0.2983
 5161SOL    HW220410   1.076   5.981   5.701 -0.6610  0.1479  1.0820
 5161SOL    HW320411   1.159   6.063   5.797 -1.7161  0.8633  1.3970
 5161SOL    MW420412   1.111   6.057   5.725 -0.4141  0.2101  0.5466
 5162SOL     OW20413   6.345   0.663   1.394  0.1777  0.0647 -0.2795
 5162SOL    HW220414   6.281   0.734   1.407 -0.4569 -0.5288 -0.1250
 5162SOL    HW320415   6.341   0.613   1.476 -0.9235 -1.3751 -1.1699
 5162SOL    MW420416   6.336   0.666   1.407 -0.0513 -0.2035 -0.3766
 5163SOL     OW20417   2.082   1.672   6.252 -0.2020  0.1542 -0.0213
 5163SOL    HW220418   2.034   1.611   6.195  0.5132  1.0031 -1.5969
 5163SOL    HW320419   2.169   1.677   6.214 -0.2247  2.1265  0.0707
 5163SOL    MW420420   2.087   1.664   6.239 -0.1106  0.5265 -0.2170
 5164SOL     OW20421   6.345   3.432   3.327  0.3049 -0.1130 -0.1344
 5164SOL    HW220422   6.388   3.358   3.284  0.5373 -0.2971  0.4002
 5164SOL    HW320423   6.287   3.391   3.392 -0.6606  0.1350 -0.8286
 5164SOL    MW420424   6.343   3.416   3.330  0.2082 -0.1046 -0.1554
 5165SOL     OW20425   1.275   0.435   3.250  0.2612  0.2216 -0.3476
 5165SOL    HW220426   1.308   0.347   3.270  1.5707  1.0569  1.4932
 5165SOL    HW320427   1.326   0.464   3.175 -0.8564 -0.9277 -1.5846
 5165SOL    MW420428   1.286   0.427   3.243  0.2865  0.1802 -0.2679
 5166SOL     OW20429   3.938   0.253   4.163  0.4742  0.0231  0.1639
 5166SOL    HW220430   3.936   0.158   4.175  1.7927 -0.4707 -2.6787
 5166SOL    HW320431   3.847   0.278   4.154  0.1707 -1.1503 -0.1829
 5166SOL    MW420432   3.926   0.244   4.164  0.6082 -0.1969 -0.2569
 5167SOL     OW20433   5.900   5.677   4.505  0.5277 -0.7280  0.1336
 5167SOL    HW220434   5.825   5.687   4.563  0.2337  0.6385 -0.4489
 5167SOL    HW320435   5.874   5.719   4.423  1.6849 -0.8179 -0.3143
 5167SOL    MW420436   5.887   5.684   4.502  0.6416 -0.5596 -0.0023
 5168SOL     OW20437   5.066   3.506   3.095 -0.0034 -0.3081  0.3053
 5168SOL    HW220438   5.143   3.543   3.051 -1.5369  0.1080 -2.2719
 5168SOL    HW320439   5.054   3.561   3.172  0.3931  1.7719 -1.0226
 5168SOL    MW420440   5.075   3.519   3.099 -0.1534  0.0212 -0.2099
 5169SOL     OW20441   5.895   3.208   5.403 -0.2018 -0.2800  0.1838
 5169SOL    HW220442   5.963   3.149   5.437  1.3382  1.8244  0.9808
 5169SOL    HW320443   5.828   3.208   5.471 -0.6149 -1.7126 -0.2040
 5169SOL    MW420444   5.895   3.200   5.417 -0.0531 -0.1914  0.2378
 5170SOL     OW20445   2.926   0.312   2.009  0.5750 -0.4290  0.0101
 5170SOL    HW220446   2.962   0.397   2.030 -1.2542 -0.1290  2.4259
 5170SOL    HW320447   2.866   0.293   2.081  0.5864 -3.5754 -0.6553
 5170SOL    MW420448   2.923   0.320   2.021  0.3352 -0.8046  0.2411
 5171SOL     OW20449   3.374   4.343   1.461 -0.5972 -0.4460  0.2246
 5171SOL    HW220450   3.344   4.342   1.370  1.2772 -1.4198 -0.4418
 5171SOL    HW320451   3.381   4.436   1.483 -0.5550 -0.1919 -0.8118
 5171SOL    MW420452   3.371   4.355   1.452 -0.3443 -0.5410 -0.0001
 5172SOL     OW20453   3.376   0.773   4.355  0.8597  0.0885  0.7589
 5172SOL    HW220454   3.424   0.816   4.284  1.0324 -0.2361  0.6771
 5172SOL    HW320455   3.289   0.812   4.352  0.3795 -1.0063 -0.6133
 5172SOL    MW420456   3.371   0.784   4.345  0.8191 -0.0988  0.5671
 5173SOL     OW20457   4.108   2.502   1.891  0.1742  0.0275  0.0364
 5173SOL    HW220458   4.123   2.417   1.849 -0.8634 -0.3317  0.3519
 5173SOL    HW320459   4.189   2.519   1.939  0.4065 -0.7852 -0.0443
 5173SOL    MW420460   4.121   2.493   1.892  0.0679 -0.1271  0.0674
 5174SOL     OW20461   0.630   0.215   2.750 -0.1275 -0.8809 -0.2296
 5174SOL    HW220462   0.575   0.218   2.671  0.4039 -2.3224 -0.6877
 5174SOL    HW320463   0.587   0.151   2.806  0.7571 -1.5918 -0.3456
 5174SOL    MW420464   0.617   0.207   2.747  0.0594 -1.1649 -0.3053
 5175SOL     OW20465   5.609   0.267   1.700 -0.2941 -0.6253 -0.1981
 5175SOL    HW220466   5.643   0.291   1.786 -2.5467  0.1435  0.5393
 5175SOL    HW320467   5.659   0.323   1.639  0.0268  0.2006  0.7878
 5175SOL    MW420468   5.620   0.278   1.703 -0.5490 -0.4149  0.0293
 5176SOL     OW20469   0.221   0.408   1.067 -0.0662  0.7451  0.4885
 5176SOL    HW220470   0.253   0.318   1.060 -0.1655  0.7642 -0.2624
 5176SOL    HW320471   0.298   0.460   1.086 -0.0778  0.4470  1.4144
 5176SOL    MW420472   0.235   0.403   1.069 -0.0808  0.7083  0.5116
 5177SOL     OW20473   0.029   1.424   5.966 -0.2658 -0.3742 -0.0180
 5177SOL    HW220474   0.030   1.328   5.970 -1.8259 -0.4037  0.4334
 5177SOL    HW320475   0.028   1.451   6.058  0.3882  0.0993 -0.1430
 5177SOL    MW420476   0.029   1.415   5.979 -0.3853 -0.3156  0.0251
 5178SOL     OW20477   3.927   5.111   1.552  0.2406  0.6544 -0.2867
 5178SOL    HW220478   3.863   5.165   1.505 -1.9793 -1.9227 -0.4307
 5178SOL    HW320479   3.916   5.023   1.516  2.3288 -0.3554  1.3043
 5178SOL    MW420480   3.917   5.107   1.541  0.2232  0.1812 -0.0958
 5179SOL     OW20481   3.604   1.476   3.739  0.2769 -1.1233  0.0973
 5179SOL    HW220482   3.636   1.482   3.829  1.9880 -0.5909 -0.5136
 5179SOL    HW320483   3.674   1.513   3.686 -1.5977  0.6319 -1.2999
 5179SOL    MW420484   3.618   1.482   3.744  0.2553 -0.8215 -0.1676
 5180SOL     OW20485   2.032   6.140   3.577  0.4902  0.0484  0.3591
 5180SOL    HW220486   1.946   6.123   3.615  0.4775  1.0631  0.8080
 5180SOL    HW320487   2.014   6.158   3.484  0.0752  1.3180  0.6658
 5180SOL    MW420488   2.018   6.140   3.570  0.4338  0.3498  0.4588
 5181SOL     OW20489   4.398   3.922   2.416  0.0690  0.3155  0.2972
 5181SOL    HW220490   4.400   4.017   2.400 -1.1337  0.4499  0.8082
 5181SOL    HW320491   4.321   3.909   2.471  1.3289 -0.7239  1.9236
 5181SOL    MW420492   4.388   3.933   2.421  0.0765  0.1961  0.5792
 5182SOL     OW20493   2.124   3.652   0.049  0.3381  0.4103  0.1748
 5182SOL    HW220494   2.140   3.734   0.003 -1.0194  0.2951 -0.5828
 5182SOL    HW320495   2.062   3.675   0.118  0.7088  0.1960  0.5816
 5182SOL    MW420496   2.118   3.666   0.052  0.2079  0.3668  0.1285
 5183SOL     OW20497   2.687   0.400   3.145  0.5603 -0.1516  0.2079
 5183SOL    HW220498   2.758   0.432   3.090 -2.0831  0.8166 -3.0441
 5183SOL    HW320499   2.673   0.468   3.210 -1.9736  3.6035 -3.7349
 5183SOL    MW420500   2.694   0.413   3.146 -0.1228  0.4716 -0.7414
 5184SOL     OW20501   0.563   3.739   6.004 -0.0943  0.3659 -0.1088
 5184SOL    HW220502   0.480   3.785   6.008  0.0025  0.4771  0.6331
 5184SOL    HW320503   0.571   3.712   5.912  0.2101  2.4864 -0.7590
 5184SOL    MW420504   0.553   3.741   5.992 -0.0414  0.6603 -0.0967
 5185SOL     OW20505   2.153   4.985   4.887  0.2752  0.7336  0.1422
 5185SOL    HW220506   2.070   4.937   4.896  0.6699  0.2720  1.6135
 5185SOL    HW320507   2.132   5.075   4.911 -0.1603  1.0165 -1.2215
 5185SOL    MW420508   2.139   4.990   4.891  0.2698  0.7100  0.1564
 5186SOL     OW20509   3.304   3.985   0.435 -0.3430  0.0203  0.3729
 5186SOL    HW220510   3.329   3.960   0.346 -0.0844  0.7879  0.2266
 5186SOL    HW320511   3.323   3.907   0.488  1.0908  0.1198  0.0439
 5186SOL    MW420512   3.310   3.971   0.431 -0.1197  0.1347  0.3102
 5187SOL     OW20513   4.778   5.433   2.518 -0.2184  0.4174  0.1845
 5187SOL    HW220514   4.790   5.529   2.516  0.5093  0.3224 -0.8719
 5187SOL    HW320515   4.685   5.421   2.532 -0.0344  1.2682  2.6638
 5187SOL    MW420516   4.768   5.444   2.520 -0.0981  0.5171  0.3722
 5188SOL     OW20517   2.829   1.024   0.467  0.2797  0.1666 -0.0333
 5188SOL    HW220518   2.914   1.032   0.425  0.9056  3.7731  1.5742
 5188SOL    HW320519   2.847   0.974   0.547  0.3997 -0.9031 -0.7052
 5188SOL    MW420520   2.843   1.018   0.472  0.3781  0.5013  0.0902
 5189SOL     OW20521   5.993   5.721   4.031  0.4012  0.2903  0.0021
 5189SOL    HW220522   6.025   5.800   4.075  0.7954  1.6375 -2.5021
 5189SOL    HW320523   5.914   5.750   3.984  0.1497 -0.9827 -0.3995
 5189SOL    MW420524   5.987   5.735   4.030  0.4200  0.3001 -0.3812
 5190SOL     OW20525   3.752   0.727   0.065 -0.0899 -0.4876 -0.4164
 5190SOL    HW220526   3.744   0.675  -0.014 -2.7711 -1.5827  0.4698
 5190SOL    HW320527   3.779   0.664   0.133  1.1653  0.2346 -0.2003
 5190SOL    MW420528   3.755   0.712   0.064 -0.2780 -0.5368 -0.2710
 5191SOL     OW20529   5.104   0.922   1.425 -0.2866 -0.6580  0.5229
 5191SOL    HW220530   5.172   0.906   1.490 -0.1373  1.0580  0.8233
 5191SOL    HW320531   5.153   0.938   1.344 -0.3155  0.3359  0.6877
 5191SOL    MW420532   5.119   0.922   1.423 -0.2707 -0.3004  0.5843
 5192SOL     OW20533   1.958   3.632   6.230 -0.0986 -0.9943  0.0092
 5192SOL    HW220534   2.004   3.548   6.224  0.4468 -0.6455 -0.9981
 5192SOL    HW320535   2.027   3.697   6.240 -0.3952 -0.5180 -0.9076
 5192SOL    MW420536   1.973   3.630   6.231 -0.0658 -0.8854 -0.2447
 5193SOL     OW20537   0.084   3.122   0.215  0.0071 -0.0502  0.0479
 5193SOL    HW220538   0.030   3.189   0.174 -0.9010 -1.1593 -0.6418
 5193SOL    HW320539   0.164   3.119   0.163 -0.4403 -0.2903 -0.6396
 5193SOL    MW420540   0.087   3.130   0.203 -0.1718 -0.2282 -0.1338
 5194SOL     OW20541   3.744   3.006   2.157  0.2376 -0.2716 -0.0347
 5194SOL    HW220542   3.737   3.086   2.209  0.3572 -0.2529 -0.0472
 5194SOL    HW320543   3.754   3.036   2.067 -2.4187 -0.2941 -0.4308
 5194SOL    MW420544   3.744   3.021   2.152 -0.0971 -0.2721 -0.0886
 5195SOL     OW20545   4.162   4.296   5.844 -0.4702 -0.2772 -0.3048
 5195SOL    HW220546   4.226   4.265   5.780 -0.7178 -0.5269 -0.4341
 5195SOL    HW320547   4.180   4.244   5.923 -0.1120  0.0874 -0.1429
 5195SOL    MW420548   4.173   4.285   5.846 -0.4556 -0.2621 -0.3005
 5196SOL     OW20549   2.158   1.383   2.937 -0.6333  0.6953 -0.3606
 5196SOL    HW220550   2.151   1.431   2.854 -1.3685  0.7155 -0.2999
 5196SOL    HW320551   2.069   1.385   2.973 -0.2471  1.0147  0.6173
 5196SOL    MW420552   2.145   1.390   2.931 -0.6794  0.7401 -0.2236
 5197SOL     OW20553   2.952   2.251   6.102 -0.2481  0.0641 -0.7551
 5197SOL    HW220554   3.026   2.300   6.136 -0.0637 -1.5543  1.3251
 5197SOL    HW320555   2.989   2.168   6.073 -1.0513 -0.1951 -1.0812
 5197SOL    MW420556   2.967   2.247   6.102 -0.3298 -0.1836 -0.5237
 5198SOL     OW20557   0.624   4.658   4.211  0.5845  0.0134  0.3412
 5198SOL    HW220558   0.637   4.571   4.173  2.8798 -0.0943  1.2501
 5198SOL    HW320559   0.571   4.641   4.290  1.2538 -0.6174  0.6681
 5198SOL    MW420560   0.619   4.644   4.217  0.9756 -0.0840  0.5042
 5199SOL     OW20561   5.657   2.840   6.190  0.0877  0.4392 -0.4698
 5199SOL    HW220562   5.596   2.882   6.251 -0.1764  0.9036 -1.0443
 5199SOL    HW320563   5.742   2.876   6.213 -0.0531  0.8357 -0.5660
 5199SOL    MW420564   5.660   2.850   6.201  0.0342  0.5528 -0.5583
 5200SOL     OW20565   0.722   4.562   1.564  0.1774  0.5476 -0.3994
 5200SOL    HW220566   0.776   4.483   1.572  1.6312  1.6358  1.2938
 5200SOL    HW320567   0.674   4.567   1.647 -3.0067 -0.6038 -2.0008
 5200SOL    MW420568   0.723   4.552   1.576 -0.0509  0.5393 -0.3873
 5201SOL     OW20569   4.503   0.214   5.474 -0.5863 -0.4251 -0.4651
 5201SOL    HW220570   4.595   0.238   5.471 -0.8008  0.3478 -1.3198
 5201SOL    HW320571   4.486   0.195   5.566  0.0440  0.9772 -0.0277
 5201SOL    MW420572   4.513   0.215   5.486 -0.5314 -0.1381 -0.5201
 5202SOL     OW20573   4.714   5.368   0.550  0.3871 -0.5453 -0.3396
 5202SOL    HW220574   4.804   5.379   0.519 -0.3479  0.1919 -2.3246
 5202SOL    HW320575   4.699   5.445   0.605  0.1505  0.7824 -2.1659
 5202SOL    MW420576   4.724   5.380   0.553  0.2589 -0.2729 -0.8425
 5203SOL     OW20577   5.646   2.173   2.592 -0.1777  0.1269  0.0465
 5203SOL    HW220578   5.690   2.246   2.549 -1.0008 -0.3342 -1.6880
 5203SOL    HW320579   5.597   2.213   2.664 -0.2595  1.2262 -0.6038
 5203SOL    MW420580   5.645   2.188   2.596 -0.2971  0.2111 -0.2682
 5204SOL     OW20581   5.089   0.538   3.372  0.3836 -0.1584  0.3868
 5204SOL    HW220582   5.032   0.568   3.302 -0.3298 -1.6490  0.2989
 5204SOL    HW320583   5.039   0.555   3.452  0.3321 -0.3349  0.3925
 5204SOL    MW420584   5.075   0.544   3.373  0.2827 -0.3783  0.3759
 5205SOL     OW20585   3.903   1.490   0.445  0.0592 -0.1022 -0.0727
 5205SOL    HW220586   3.812   1.521   0.446  0.6548  1.7958  1.0607
 5205SOL    HW320587   3.896   1.396   0.430 -2.3278 -0.6222  3.1180
 5205SOL    MW420588   3.890   1.482   0.443 -0.1772  0.0796  0.4978
 5206SOL     OW20589   4.317   5.406   1.885  0.3070 -0.2233 -0.1490
 5206SOL    HW220590   4.269   5.381   1.806  0.8072  0.2870 -0.6167
 5206SOL    HW320591   4.249   5.431   1.947 -0.0814 -0.4687 -0.4661
 5206SOL    MW420592   4.302   5.406   1.883  0.3217 -0.1884 -0.2525
 5207SOL     OW20593   4.618   2.370   3.198 -0.8684 -0.1333 -0.0345
 5207SOL    HW220594   4.705   2.382   3.237 -0.1510  0.3140 -1.6644
 5207SOL    HW320595   4.613   2.276   3.179 -1.1124 -0.3065  0.8551
 5207SOL    MW420596   4.629   2.359   3.201 -0.8059 -0.0972 -0.1322
 5208SOL     OW20597   0.697   0.508   1.967 -0.2010 -0.2358 -0.0588
 5208SOL    HW220598   0.696   0.599   1.939  2.1805  0.1613  0.9195
 5208SOL    HW320599   0.662   0.460   1.892 -3.1037  1.5349  0.0123
 5208SOL    MW420600   0.693   0.513   1.953 -0.2698  0.0502  0.0796
 5209SOL     OW20601   3.234   3.578   2.895 -0.6656  0.1210  0.0422
 5209SOL    HW220602   3.208   3.491   2.924 -0.5943 -1.2443 -3.5482
 5209SOL    HW320603   3.152   3.622   2.872 -0.6632  0.8839  1.3900
 5209SOL    MW420604   3.220   3.573   2.896 -0.6559  0.0415 -0.2537
 5210SOL     OW20605   2.636   4.728   1.387  0.4299 -0.4655  0.7441
 5210SOL    HW220606   2.646   4.757   1.296 -0.9455 -0.3652  0.6075
 5210SOL    HW320607   2.622   4.808   1.436  0.5903 -0.5699  0.9612
 5210SOL    MW420608   2.636   4.742   1.381  0.2696 -0.4661  0.7547
 5211SOL     OW20609   3.227   4.715   3.916  1.0222  0.3322 -0.3977
 5211SOL    HW220610   3.287   4.768   3.968  0.3314  1.4005 -0.6691
 5211SOL    HW320611   3.165   4.680   3.979  2.5836 -1.7803  0.0737
 5211SOL    MW420612   3.227   4.717   3.931  1.1371  0.1944 -0.3713
 5212SOL     OW20613   5.800   4.325   3.884 -0.0169  0.3912 -0.2272
 5212SOL    HW220614   5.818   4.235   3.911 -0.0165  0.7069  0.8846
 5212SOL    HW320615   5.871   4.377   3.921 -1.0490  1.1079  0.8540
 5212SOL    MW420616   5.811   4.320   3.893 -0.1530  0.5274  0.0621
 5213SOL     OW20617   4.870   1.307   4.305  0.9895 -0.0705  0.3332
 5213SOL    HW220618   4.800   1.270   4.252  0.6805  0.5703  0.2883
 5213SOL    HW320619   4.950   1.266   4.271  0.7915  0.3201 -0.6155
 5213SOL    MW420620   4.872   1.296   4.294  0.9226  0.0656  0.2021
 5214SOL     OW20621   4.486   5.317   5.755  0.3051 -0.1445  0.1113
 5214SOL    HW220622   4.455   5.384   5.817  1.3438 -1.1351  1.7566
 5214SOL    HW320623   4.458   5.234   5.793  2.9518 -0.9387  0.4968
 5214SOL    MW420624   4.478   5.315   5.768  0.7914 -0.3800  0.3792
 5215SOL     OW20625   0.889   0.171   4.399 -0.1588  0.8398 -0.5644
 5215SOL    HW220626   0.801   0.171   4.363 -0.2766  0.5965 -0.2801
 5215SOL    HW320627   0.899   0.084   4.439 -0.3698  1.4031  0.7931
 5215SOL    MW420628   0.879   0.160   4.400 -0.2022  0.8820 -0.3478
 5216SOL     OW20629   5.089   4.874   1.644  0.2262 -0.2350 -0.5713
 5216SOL    HW220630   4.993   4.875   1.650  0.1887  2.4251 -0.3148
 5216SOL    HW320631   5.118   4.831   1.724 -0.7697  0.7883  0.3693
 5216SOL    MW420632   5.080   4.869   1.655  0.0898  0.2510 -0.4134
 5217SOL     OW20633   6.335   5.966   0.012 -0.1812 -0.1148  0.3555
 5217SOL    HW220634   6.391   5.967  -0.067  0.3090 -0.1622  0.6945
 5217SOL    HW320635   6.262   6.023  -0.010  0.3212  0.4588  0.1274
 5217SOL    MW420636   6.333   5.974  -0.002 -0.0502 -0.0454  0.3702
 5218SOL     OW20637   4.880   0.915   4.252 -0.0192  0.1649  0.4493
 5218SOL    HW220638   4.828   0.835   4.261 -2.7500  1.5487 -1.5764
 5218SOL    HW320639   4.881   0.933   4.158  1.3318  2.0132  0.7523
 5218SOL    MW420640   4.873   0.907   4.241 -0.2013  0.5913  0.2220
 5219SOL     OW20641   5.415   4.084   0.972 -0.0255  0.9022 -0.7818
 5219SOL    HW220642   5.422   4.014   1.037 -0.0095  0.5451 -1.1638
 5219SOL    HW320643   5.333   4.129   0.993  1.4266  2.8061  1.4564
 5219SOL    MW420644   5.405   4.081   0.983  0.1682  1.1063 -0.5369
 5220SOL     OW20645   0.999   1.109   5.158  0.1947 -0.2130  0.9119
 5220SOL    HW220646   1.072   1.114   5.096  0.5441  1.1758  1.4037
 5220SOL    HW320647   0.988   1.015   5.174  2.4168 -0.4404  1.4387
 5220SOL    MW420648   1.007   1.097   5.152  0.5339 -0.0598  1.0463
 5221SOL     OW20649   2.754   5.216   5.649 -0.2355  0.4955  0.0887
 5221SOL    HW220650   2.661   5.196   5.644 -0.5920  1.6374  1.3633
 5221SOL    HW320651   2.795   5.135   5.679 -0.8567  0.0781 -0.1767
 5221SOL    MW420652   2.747   5.203   5.652 -0.3645  0.5911  0.2219
 5222SOL     OW20653   2.712   2.966   3.926  0.5636  0.0328  0.3084
 5222SOL    HW220654   2.730   2.950   3.833 -0.8637 -0.4853  0.0947
 5222SOL    HW320655   2.665   2.888   3.955  2.0250 -0.3455  1.7974
 5222SOL    MW420656   2.708   2.954   3.918  0.5681 -0.0855  0.4766
 5223SOL     OW20657   5.796   4.731   6.011 -0.4404  0.1249 -0.1178
 5223SOL    HW220658   5.789   4.738   5.916 -1.9203  0.0066 -0.0440
 5223SOL    HW320659   5.865   4.666   6.025 -0.2524  0.0893 -1.1117
 5223SOL    MW420660   5.804   4.723   6.000 -0.6108  0.1046 -0.2392
 5224SOL     OW20661   4.147   1.295   3.548  0.3165 -0.7375 -0.2691
 5224SOL    HW220662   4.122   1.328   3.461 -0.5802  2.5021  1.0799
 5224SOL    HW320663   4.242   1.300   3.549  0.3231 -0.5787 -0.9691
 5224SOL    MW420664   4.156   1.300   3.536  0.1991 -0.2892 -0.1835
 5225SOL     OW20665   1.886   4.002   1.092  0.5990  0.1766  0.6990
 5225SOL    HW220666   1.930   4.042   1.017  1.3566 -0.0622  1.0063
 5225SOL    HW320667   1.800   3.977   1.058  0.6878  0.6594  0.0902
 5225SOL    MW420668   1.880   4.004   1.078  0.7106  0.2088  0.6592
 5226SOL     OW20669   2.184   1.867   3.845  0.0115  0.0921 -0.4494
 5226SOL    HW220670   2.208   1.784   3.803 -0.2524 -0.0001 -0.4194
 5226SOL    HW320671   2.240   1.871   3.923  2.1309  1.3228 -1.9368
 5226SOL    MW420672   2.195   1.857   3.850  0.2563  0.2423 -0.6417
 5227SOL     OW20673   1.482   5.102   1.692 -0.6915  0.4682 -0.2108
 5227SOL    HW220674   1.440   5.131   1.773  0.4678  0.9993  0.2296
 5227SOL    HW320675   1.509   5.184   1.650  2.0324  0.1338  0.7092
 5227SOL    MW420676   1.480   5.117   1.697 -0.1792  0.4942 -0.0313
 5228SOL     OW20677   4.935   4.281   4.424 -0.6502  0.1072 -0.0113
 5228SOL    HW220678   4.861   4.221   4.429  0.1382 -0.7620  1.9112
 5228SOL    HW320679   4.895   4.366   4.401 -1.7936 -1.0025 -2.6217
 5228SOL    MW420680   4.920   4.285   4.421 -0.6970 -0.1539 -0.1021
 5229SOL     OW20681   2.961   2.675   0.245 -0.0311 -0.4389  0.0992
 5229SOL    HW220682   3.022   2.635   0.307 -0.5423 -0.2241  0.7581
 5229SOL    HW320683   2.895   2.718   0.300  0.6874  1.6282 -0.5782
 5229SOL    MW420684   2.960   2.675   0.260 -0.0037 -0.1378  0.0967
 5230SOL     OW20685   0.117   2.082   1.823 -0.7202 -0.1023 -0.0541
 5230SOL    HW220686   0.126   2.083   1.728 -2.6049  1.2441 -0.2812
 5230SOL    HW320687   0.127   1.990   1.847  0.4678 -0.3672 -1.4628
 5230SOL    MW420688   0.119   2.070   1.813 -0.8121  0.0404 -0.2699
 5231SOL     OW20689   0.324   0.640   2.010  0.5175  0.1705  0.3984
 5231SOL    HW220690   0.395   0.603   2.062  1.3171  0.4696 -0.4566
 5231SOL    HW320691   0.254   0.656   2.074  0.3716 -2.1700  0.9056
 5231SOL    MW420692   0.324   0.637   2.026  0.6038 -0.0989  0.3525
 5232SOL     OW20693   6.131   6.204   0.253  0.4564  0.0746  0.4736
 5232SOL    HW220694   6.133   6.248   0.338  0.5078 -1.6159  1.3778
 5232SOL    HW320695   6.065   6.136   0.263  0.3701 -0.0638 -0.8953
 5232SOL    MW420696   6.123   6.201   0.265  0.4518 -0.1667  0.4123
 5233SOL     OW20697   2.481   6.203   5.765  0.2563  0.2765  0.3492
 5233SOL    HW220698   2.561   6.186   5.814 -0.2957  1.3848  1.6958
 5233SOL    HW320699   2.497   6.286   5.720 -0.5417  1.1682  1.6321
 5233SOL    MW420700   2.494   6.212   5.766  0.0782  0.5404  0.6961
 5234SOL     OW20701   4.284   2.133   4.206  0.0123 -0.0852  0.0288
 5234SOL    HW220702   4.285   2.161   4.298  2.4164 -1.7059  0.5878
 5234SOL    HW320703   4.207   2.076   4.199 -0.6903  0.7309  0.7595
 5234SOL    MW420704   4.274   2.129   4.217  0.2368 -0.1913  0.1990
 5235SOL     OW20705   4.595   0.043   0.871  0.2751 -0.1634 -0.4349
 5235SOL    HW220706   4.563   0.120   0.917 -3.5170 -0.2085 -2.5454
 5235SOL    HW320707   4.674   0.073   0.825  1.4735  1.0930  2.2511
 5235SOL    MW420708   4.601   0.057   0.871 -0.0671 -0.0036 -0.3589
 5236SOL     OW20709   3.466   1.315   2.701  0.0448 -0.3566 -0.4297
 5236SOL    HW220710   3.464   1.383   2.768 -1.8552 -1.2803  0.5417
 5236SOL    HW320711   3.423   1.355   2.625  0.4943  0.0660 -0.4710
 5236SOL    MW420712   3.460   1.329   2.700 -0.1466 -0.4227 -0.3070
 5237SOL     OW20713   1.874   4.074   2.423 -0.3401  0.1590  0.2819
 5237SOL    HW220714   1.877   4.107   2.333 -1.2767  0.2297  0.2671
 5237SOL    HW320715   1.798   4.016   2.425 -0.4544  0.3222  1.0856
 5237SOL    MW420716   1.865   4.070   2.411 -0.4787  0.1899  0.3860
 5238SOL     OW20717   4.531   1.718   5.513 -0.4183 -0.4560  0.2021
 5238SOL    HW220718   4.461   1.655   5.497 -1.2782  0.4480  0.3881
 5238SOL    HW320719   4.559   1.701   5.603 -2.2280  0.9340  1.0748
 5238SOL    MW420720   4.526   1.707   5.522 -0.7705 -0.1533  0.3418
 5239SOL     OW20721   6.233   1.033   6.201  0.0017  0.1867 -0.6459
 5239SOL    HW220722   6.154   1.082   6.226 -1.0550 -1.7489  0.0987
 5239SOL    HW320723   6.202   0.968   6.138  1.2047  0.0044 -1.0765
 5239SOL    MW420724   6.218   1.031   6.196  0.0210 -0.0927 -0.6044
 5240SOL     OW20725   4.852   2.125   3.221 -0.0094  0.5223  0.3558
 5240SOL    HW220726   4.907   2.193   3.181  1.6143 -0.3185  1.0370
 5240SOL    HW320727   4.914   2.056   3.244 -1.4601 -0.7112  0.7089
 5240SOL    MW420728   4.868   2.125   3.219  0.0134  0.2486  0.4923
 5241SOL     OW20729   5.072   3.519   0.985 -0.4672 -0.5088  0.0657
 5241SOL    HW220730   4.981   3.544   0.967  0.0554  0.7261 -1.0136
 5241SOL    HW320731   5.124   3.571   0.923  1.1241  0.2985  1.9809
 5241SOL    MW420732   5.067   3.529   0.974 -0.1883 -0.2393  0.1760
 5242SOL     OW20733   3.029   1.669   5.621 -0.4456  0.0625 -0.2982
 5242SOL    HW220734   3.121   1.692   5.612 -0.0560 -1.7917 -1.4295
 5242SOL    HW320735   2.988   1.702   5.541 -0.3999 -0.6905 -0.6416
 5242SOL    MW420736   3.036   1.677   5.609 -0.3882 -0.2815 -0.4928
 5243SOL     OW20737   0.604   5.771   1.257  0.2996  0.5704 -0.3630
 5243SOL    HW220738   0.562   5.822   1.326  1.4210  1.0492 -0.0109
 5243SOL    HW320739   0.688   5.745   1.293 -0.1219 -1.3401 -0.6404
 5243SOL    MW420740   0.609   5.775   1.271  0.3920  0.3815 -0.3532
 5244SOL     OW20741   0.045   1.774   5.725  0.7657 -0.5708 -0.1915
 5244SOL    HW220742   0.101   1.696   5.723  0.0029 -1.1551  0.6095
 5244SOL    HW320743   0.086   1.831   5.790  2.1587  0.3817 -1.8115
 5244SOL    MW420744   0.058   1.771   5.733  0.8488 -0.5223 -0.2996
 5245SOL     OW20745   2.229   3.385   3.594  0.1964  0.5143  0.1666
 5245SOL    HW220746   2.175   3.389   3.673  1.5541 -1.3408  1.2699
 5245SOL    HW320747   2.295   3.453   3.608 -0.2301  0.9490  0.0921
 5245SOL    MW420748   2.231   3.394   3.607  0.3193  0.3269  0.3023
 5246SOL     OW20749   2.659   2.409   0.228  0.1633  0.1524 -0.7130
 5246SOL    HW220750   2.578   2.434   0.184  0.8250  0.1777 -1.9484
 5246SOL    HW320751   2.700   2.346   0.169  0.2742 -1.1173  0.6586
 5246SOL    MW420752   2.653   2.404   0.214  0.2652 -0.0118 -0.6950
 5247SOL     OW20753   0.512   5.705   5.217  0.4242 -0.2597 -0.0639
 5247SOL    HW220754   0.433   5.664   5.183  0.6676 -0.3446 -0.5343
 5247SOL    HW320755   0.584   5.653   5.181  0.6776 -0.7531  1.1129
 5247SOL    MW420756   0.511   5.693   5.208  0.4897 -0.3360  0.0293
 5248SOL     OW20757   2.993   4.853   3.092  0.3383  0.2142 -0.3312
 5248SOL    HW220758   3.023   4.870   3.003  0.4655  1.3770 -0.0824
 5248SOL    HW320759   2.929   4.922   3.110 -1.7167 -1.5551 -0.4441
 5248SOL    MW420760   2.989   4.864   3.083  0.0840  0.1342 -0.3133
 5249SOL     OW20761   1.417   6.335   3.181  0.0453 -0.1342 -0.1547
 5249SOL    HW220762   1.477   6.364   3.113 -0.9768 -0.2454 -1.1167
 5249SOL    HW320763   1.434   6.241   3.190 -0.8171 -0.4161 -1.2976
 5249SOL    MW420764   1.427   6.327   3.173 -0.2033 -0.1861 -0.4324
 5250SOL     OW20765   3.961   4.890   1.742  0.3020 -0.3930 -0.2188
 5250SOL    HW220766   3.971   4.985   1.744  0.0677 -0.0975 -4.1696
 5250SOL    HW320767   4.034   4.859   1.688  0.0574 -2.4197  0.5157
 5250SOL    MW420768   3.972   4.898   1.735  0.2388 -0.6214 -0.6431
 5251SOL     OW20769   2.953   1.094   1.311 -0.6604  0.1473 -0.1942
 5251SOL    HW220770   2.982   1.091   1.402 -1.5516 -0.2129  0.0844
 5251SOL    HW320771   2.902   1.014   1.299  0.4518 -0.4158 -1.3601
 5251SOL    MW420772   2.950   1.083   1.321 -0.6312  0.0255 -0.3113
 5252SOL     OW20773   0.826   5.022   5.476  0.1273 -0.1777  0.4184
 5252SOL    HW220774   0.788   4.934   5.479  0.4422 -0.3323  0.0102
 5252SOL    HW320775   0.801   5.062   5.559 -0.9738 -0.2578  0.1374
 5252SOL    MW420776   0.818   5.016   5.487  0.0236 -0.2087  0.3275
 5253SOL     OW20777   4.508   2.364   0.089 -0.9495 -0.2051 -0.2855
 5253SOL    HW220778   4.465   2.444   0.060 -0.9001 -0.2256 -0.4153
 5253SOL    HW320779   4.526   2.378   0.182  0.9736  0.7949 -0.7639
 5253SOL    MW420780   4.505   2.376   0.097 -0.6893 -0.0759 -0.3657
 5254SOL     OW20781   1.026   0.731   5.487  0.5073  0.6797 -0.6413
 5254SOL    HW220782   0.956   0.675   5.520  0.9577 -0.1998 -1.1464
 5254SOL    HW320783   0.992   0.767   5.405 -0.9374  3.5088  1.0272
 5254SOL    MW420784   1.012   0.729   5.480  0.3761  0.9370 -0.4878
 5255SOL     OW20785   5.468   4.633   3.780  0.1481  0.7962 -0.9587
 5255SOL    HW220786   5.378   4.615   3.754 -0.3816  1.9292  0.0691
 5255SOL    HW320787   5.519   4.615   3.700 -0.8771 -0.4967 -1.3650
 5255SOL    MW420788   5.463   4.628   3.766 -0.0570  0.7751 -0.8767
 5256SOL     OW20789   4.252   2.559   4.094 -0.2078 -0.0117 -0.1985
 5256SOL    HW220790   4.220   2.469   4.094 -0.8149  0.1799  1.1002
 5256SOL    HW320791   4.341   2.553   4.128 -0.2947 -0.1160  0.0129
 5256SOL    MW420792   4.259   2.547   4.098 -0.2994 -0.0002  0.0008
 5257SOL     OW20793   4.425   1.804   0.571 -0.5242 -0.2317  0.9490
 5257SOL    HW220794   4.379   1.732   0.613  0.1962 -1.6208 -0.5484
 5257SOL    HW320795   4.384   1.813   0.485  0.4765  0.0290  0.4839
 5257SOL    MW420796   4.414   1.796   0.565 -0.2971 -0.3806  0.6900
 5258SOL     OW20797   3.981   0.064   5.427  0.1349 -0.1725 -0.3701
 5258SOL    HW220798   4.063   0.036   5.387 -0.3792 -0.1593 -1.4620
 5258SOL    HW320799   3.972   0.009   5.505  1.2361 -0.0803 -0.1658
 5258SOL    MW420800   3.991   0.053   5.432  0.2124 -0.1586 -0.4872
 5259SOL     OW20801   0.632   3.578   2.348  0.8210 -0.4177  0.1952
 5259SOL    HW220802   0.670   3.518   2.284  1.2462 -0.6855  0.6902
 5259SOL    HW320803   0.696   3.648   2.358 -0.4310  1.1088 -1.7021
 5259SOL    MW420804   0.645   3.579   2.341  0.7119 -0.2516  0.0102
 5260SOL     OW20805   4.458   3.008   0.600  0.2782 -0.0743  0.2962
 5260SOL    HW220806   4.516   3.030   0.672  0.1425  0.4949  0.2430
 5260SOL    HW320807   4.373   3.042   0.627  0.5963  1.8656 -0.9045
 5260SOL    MW420808   4.454   3.016   0.613  0.3023  0.2567  0.1308
 5261SOL     OW20809   3.883   4.394   0.867  0.6688  0.1776 -0.1087
 5261SOL    HW220810   3.919   4.453   0.801  2.0301 -1.0178 -0.5029
 5261SOL    HW320811   3.866   4.313   0.819 -1.5294  0.3307  0.3342
 5261SOL    MW420812   3.886   4.391   0.852  0.5584  0.0401 -0.1023
 5262SOL     OW20813   4.803   3.953   6.076  0.2899  0.3144  0.2250
 5262SOL    HW220814   4.721   3.917   6.110 -0.2844  1.1656 -0.2135
 5262SOL    HW320815   4.852   3.877   6.046 -0.1186 -0.2522  0.9502
 5262SOL    MW420816   4.799   3.938   6.077  0.1602  0.3519  0.2628
 5263SOL     OW20817   3.705   2.080   0.868  0.4337 -0.2022 -0.2604
 5263SOL    HW220818   3.737   1.995   0.898 -0.4147 -0.5580 -0.3155
 5263SOL    HW320819   3.783   2.129   0.842  1.0526 -0.4623  1.0520
 5263SOL    MW420820   3.719   2.075   0.869  0.4034 -0.2835 -0.0945
 5264SOL     OW20821   1.132   4.363   4.686 -0.3675 -0.3069 -0.0089
 5264SOL    HW220822   1.036   4.367   4.686 -0.3747 -0.3043 -0.6584
 5264SOL    HW320823   1.157   4.417   4.610  0.0940 -1.2395 -0.5291
 5264SOL    MW420824   1.122   4.371   4.676 -0.3076 -0.4296 -0.1632
 5265SOL     OW20825   0.274   5.028   4.048  0.1685  0.4100  0.4334
 5265SOL    HW220826   0.330   5.079   4.107  1.6895 -0.4232 -0.2443
 5265SOL    HW320827   0.285   4.938   4.076  2.1620 -0.2086 -2.0230
 5265SOL    MW420828   0.283   5.023   4.060  0.6322  0.2185  0.0199
 5266SOL     OW20829   1.313   3.158   5.627  0.2552 -0.2569  0.3344
 5266SOL    HW220830   1.402   3.143   5.658  0.4163 -1.6049 -0.6797
 5266SOL    HW320831   1.293   3.081   5.573 -0.9768  0.7320 -0.6811
 5266SOL    MW420832   1.322   3.146   5.624  0.1139 -0.3043  0.0666
 5267SOL     OW20833   6.405   6.004   1.714  0.5788 -0.0412  0.0116
 5267SOL    HW220834   6.368   6.016   1.801 -0.5116  0.8788 -0.5613
 5267SOL    HW320835   6.420   6.093   1.681 -0.3288 -0.3289 -1.2751
 5267SOL    MW420836   6.402   6.018   1.721  0.3152  0.0422 -0.2338
 5268SOL     OW20837   5.119   2.256   6.275 -0.2557 -0.4775  0.1941
 5268SOL    HW220838   5.097   2.178   6.226 -0.9985  0.2960 -0.7390
 5268SOL    HW320839   5.210   2.275   6.252  0.3742 -1.7730  1.4455
 5268SOL    MW420840   5.128   2.248   6.266 -0.2706 -0.5464  0.2361
 5269SOL     OW20841   2.659   0.681   5.506 -0.1998  0.6105  0.0136
 5269SOL    HW220842   2.677   0.654   5.417  0.6938  1.6588 -0.1465
 5269SOL    HW320843   2.567   0.709   5.505 -1.1075 -2.0469  0.1435
 5269SOL    MW420844   2.649   0.681   5.494 -0.2017  0.3982  0.0096
 5270SOL     OW20845   4.555   0.993   0.772 -0.2963  1.0209 -0.2444
 5270SOL    HW220846   4.554   0.937   0.693  0.6698  3.1710 -1.8844
 5270SOL    HW320847   4.633   1.046   0.762 -0.4907  1.7972  1.9189
 5270SOL    MW420848   4.565   0.992   0.760 -0.1945  1.4070 -0.1754
 5271SOL     OW20849   0.102   0.163   5.790  0.2452 -0.1119  0.5316
 5271SOL    HW220850   0.142   0.184   5.706 -0.2955  0.7037  0.4702
 5271SOL    HW320851   0.032   0.101   5.769 -0.9729  1.3310  0.1403
 5271SOL    MW420852   0.098   0.158   5.776  0.0132  0.1861  0.4719
 5272SOL     OW20853   0.053   0.581   3.173 -0.3329  1.0990  0.4220
 5272SOL    HW220854   0.042   0.673   3.147 -1.7783  1.0480  0.7817
 5272SOL    HW320855   0.144   0.576   3.203  0.4269  1.9025 -1.5474
 5272SOL    MW420856   0.064   0.593   3.174 -0.4234  1.1983  0.2097
 5273SOL     OW20857   4.244   0.087   1.200 -0.1490  0.6141  0.7825
 5273SOL    HW220858   4.154   0.114   1.180 -0.2865 -0.3291  0.0587
 5273SOL    HW320859   4.237   0.041   1.284 -0.7134 -1.2504 -0.2398
 5273SOL    MW420860   4.231   0.084   1.208 -0.2416  0.2436  0.5522
 5274SOL     OW20861   3.063   4.754   0.356  0.1333  0.2424 -0.0349
 5274SOL    HW220862   3.101   4.667   0.347  1.6375  0.5938  1.9344
 5274SOL    HW320863   3.093   4.802   0.279 -3.2924 -1.6912 -2.8288
 5274SOL    MW420864   3.072   4.749   0.345 -0.1202  0.0336 -0.1437
 5275SOL     OW20865   2.495   3.109   4.572  0.3101  0.4559  0.2138
 5275SOL    HW220866   2.577   3.059   4.565 -0.8038 -2.1005  3.0403
 5275SOL    HW320867   2.512   3.174   4.640  0.2654  0.4490  0.2320
 5275SOL    MW420868   2.508   3.111   4.580  0.1573  0.1177  0.5891
 5276SOL     OW20869   4.018   0.784   5.098  0.1598 -0.5765 -0.1775
 5276SOL    HW220870   3.982   0.771   5.186 -0.2279  0.3825 -0.1783
 5276SOL    HW320871   3.942   0.806   5.044  0.7055  1.7245 -0.1317
 5276SOL    MW420872   4.003   0.785   5.102  0.1806 -0.1464 -0.1716
 5277SOL     OW20873   3.957   1.956   0.286 -0.2896  0.0745 -0.2006
 5277SOL    HW220874   3.922   2.045   0.275 -0.7333 -0.2442 -1.5386
 5277SOL    HW320875   3.977   1.927   0.197  1.3589 -0.5848  0.3348
 5277SOL    MW420876   3.955   1.964   0.273 -0.1307 -0.0545 -0.3065
 5278SOL     OW20877   0.623   0.084   6.221 -0.1054 -0.4149 -0.0844
 5278SOL    HW220878   0.542   0.103   6.268 -1.4001 -0.3224 -2.2315
 5278SOL    HW320879   0.689   0.075   6.290 -1.3728  2.0925  1.6341
 5278SOL    MW420880   0.621   0.085   6.236 -0.4435 -0.0719 -0.1410
 5279SOL     OW20881   3.984   3.713   2.787  0.8208 -0.0637 -0.8933
 5279SOL    HW220882   4.079   3.715   2.795  0.8103  2.4078 -0.5160
 5279SOL    HW320883   3.953   3.779   2.850 -1.3650 -2.7823  1.1223
 5279SOL    MW420884   3.993   3.722   2.797  0.5310 -0.0963 -0.5776
 5280SOL     OW20885   4.579   4.229   3.568  0.4444  0.0926 -0.4799
 5280SOL    HW220886   4.640   4.276   3.511  0.7928  0.0682 -0.1317
 5280SOL    HW320887   4.514   4.294   3.593  0.5282  0.2095 -0.5636
 5280SOL    MW420888   4.579   4.244   3.563  0.5014  0.1048 -0.4450
 5281SOL     OW20889   6.197   1.640   1.104  0.0169 -0.1269 -0.2239
 5281SOL    HW220890   6.213   1.726   1.064 -0.5677  2.2701  4.0556
 5281SOL    HW320891   6.283   1.609   1.130  0.1049 -0.1237 -0.5123
 5281SOL    MW420892   6.210   1.647   1.102 -0.0487  0.1898  0.3027
 5282SOL     OW20893   4.635   1.163   4.180  0.2413  0.5653 -0.4582
 5282SOL    HW220894   4.579   1.233   4.144 -2.0040 -1.0052 -0.2463
 5282SOL    HW320895   4.681   1.128   4.104  0.0217  1.1098 -0.8539
 5282SOL    MW420896   4.634   1.168   4.165 -0.0839  0.4300 -0.4825
 5283SOL     OW20897   2.489   1.744   5.939  0.0155 -0.3033  0.1016
 5283SOL    HW220898   2.583   1.728   5.925  0.1139  0.2244  0.1480
 5283SOL    HW320899   2.447   1.701   5.864  0.4922  1.8028 -1.4616
 5283SOL    MW420900   2.496   1.736   5.927  0.0914  0.0442 -0.0985
 5284SOL     OW20901   2.169   1.893   3.480  0.0946  0.1461 -0.0138
 5284SOL    HW220902   2.077   1.868   3.471 -0.3776  2.0994 -1.3488
 5284SOL    HW320903   2.171   1.950   3.556  0.1215  0.4025 -0.2052
 5284SOL    MW420904   2.157   1.897   3.489  0.0358  0.4376 -0.2152
 5285SOL     OW20905   5.756   4.742   5.718  0.2205  0.5139  0.2086
 5285SOL    HW220906   5.726   4.831   5.703 -0.4637  0.0902 -1.1512
 5285SOL    HW320907   5.677   4.694   5.746 -0.1464 -0.2959 -2.0115
 5285SOL    MW420908   5.741   4.747   5.720  0.0818  0.3511 -0.2637
 5286SOL     OW20909   5.546   5.075   2.419  0.2454  0.4999  0.0686
 5286SOL    HW220910   5.622   5.113   2.463  1.3374  0.1528 -1.4283
 5286SOL    HW320911   5.570   5.074   2.326  0.1279 -3.3405 -0.1061
 5286SOL    MW420912   5.560   5.080   2.412  0.3740 -0.0526 -0.1520
 5287SOL     OW20913   4.936   2.947   5.098 -0.1480 -0.3113 -0.0421
 5287SOL    HW220914   5.020   2.972   5.059  0.1432 -0.5000  0.4567
 5287SOL    HW320915   4.953   2.861   5.137 -0.5090 -0.2474  0.2589
 5287SOL    MW420916   4.950   2.939   5.098 -0.1572 -0.3277  0.0634
 5288SOL     OW20917   4.126   5.724   1.487  0.1013  0.4470 -0.0062
 5288SOL    HW220918   4.124   5.820   1.491  0.0427  0.4255  0.6643
 5288SOL    HW320919   4.036   5.699   1.465  0.3157  0.5708 -1.0607
 5288SOL    MW420920   4.114   5.733   1.485  0.1219  0.4605 -0.0569
 5289SOL     OW20921   1.894   0.252   6.078  0.8117  0.2431  0.4077
 5289SOL    HW220922   1.938   0.336   6.069  0.8364  0.2067  0.1658
 5289SOL    HW320923   1.883   0.221   5.988 -1.1367  0.9866  0.3492
 5289SOL    MW420924   1.898   0.259   6.065  0.5579  0.3364  0.3681
 5290SOL     OW20925   6.037   0.441   3.449  0.6450 -0.1905  0.7813
 5290SOL    HW220926   6.031   0.434   3.354  1.3210 -1.4590  0.8074
 5290SOL    HW320927   6.022   0.352   3.480  0.7836  0.1427  1.8441
 5290SOL    MW420928   6.034   0.428   3.441  0.7525 -0.3139  0.9250
 5291SOL     OW20929   1.875   0.887   0.744  0.1428 -0.0903  0.1573
 5291SOL    HW220930   1.949   0.847   0.789  0.8103  1.4642  0.5313
 5291SOL    HW320931   1.888   0.981   0.757  0.6176  0.5138 -3.6085
 5291SOL    MW420932   1.887   0.894   0.751  0.2935  0.1945 -0.2902
 5292SOL     OW20933   3.380   5.805   6.111 -0.5170  0.3800  0.2550
 5292SOL    HW220934   3.333   5.820   6.193  0.0065  0.6380  0.5141
 5292SOL    HW320935   3.405   5.893   6.082 -0.6780  0.2890 -0.1736
 5292SOL    MW420936   3.377   5.819   6.118 -0.4692  0.4020  0.2327
 5293SOL     OW20937   5.815   2.544   4.507 -0.0982  0.2559  0.7257
 5293SOL    HW220938   5.742   2.553   4.569 -0.5199 -1.4495  0.5254
 5293SOL    HW320939   5.823   2.631   4.467 -3.5004  0.0431 -0.8142
 5293SOL    MW420940   5.806   2.557   4.510 -0.6027  0.0028  0.4961
 5294SOL     OW20941   3.090   3.844   0.760 -0.5322 -0.0662 -0.2022
 5294SOL    HW220942   3.056   3.901   0.691 -0.4598 -0.3017 -0.4315
 5294SOL    HW320943   3.015   3.825   0.816 -0.7987 -0.6636 -0.7592
 5294SOL    MW420944   3.076   3.849   0.758 -0.5578 -0.1761 -0.3059
 5295SOL     OW20945   4.475   4.137   5.878  0.6129 -0.2733  0.2002
 5295SOL    HW220946   4.477   4.159   5.971 -0.6220  0.3054  0.1002
 5295SOL    HW320947   4.522   4.054   5.872  0.8013 -0.2583  1.3207
 5295SOL    MW420948   4.482   4.129   5.889  0.4749 -0.1950  0.3349
 5296SOL     OW20949   2.750   6.401   1.755 -0.0729  0.2724  0.5290
 5296SOL    HW220950   2.744   6.384   1.849 -1.3638 -0.1088  0.3904
 5296SOL    HW320951   2.662   6.388   1.722  0.7032 -1.5057 -1.0542
 5296SOL    MW420952   2.738   6.397   1.763 -0.1408 -0.0125  0.3018
 5297SOL     OW20953   4.177   4.966   2.766 -0.3956 -0.1321 -0.2415
 5297SOL    HW220954   4.081   4.958   2.769 -0.3553 -0.4872  0.2270
 5297SOL    HW320955   4.199   4.954   2.674 -0.7824 -0.3332 -0.3099
 5297SOL    MW420956   4.167   4.963   2.754 -0.4413 -0.2055 -0.1887
 5298SOL     OW20957   5.571   3.903   5.105 -0.3670  0.1526  0.3736
 5298SOL    HW220958   5.558   3.917   5.011  1.2165 -0.4790  0.0192
 5298SOL    HW320959   5.545   3.985   5.146  0.7134  1.1309 -0.8205
 5298SOL    MW420960   5.566   3.915   5.098 -0.0155  0.1983  0.1693
 5299SOL     OW20961   5.816   4.081   5.643  0.0978  0.1628 -0.1750
 5299SOL    HW220962   5.742   4.130   5.679 -0.8578 -0.8697 -0.6538
 5299SOL    HW320963   5.886   4.145   5.634 -1.4536  1.7202 -1.8831
 5299SOL    MW420964   5.815   4.096   5.647 -0.2330  0.2321 -0.4635
 5300SOL     OW20965   2.741   1.268   2.564  0.1254  0.6687 -0.7220
 5300SOL    HW220966   2.673   1.253   2.498  0.3160 -1.1755 -0.5785
 5300SOL    HW320967   2.732   1.360   2.588  0.7484  1.7654 -4.0933
 5300SOL    MW420968   2.731   1.278   2.558  0.2327  0.5701 -1.1478
 5301SOL     OW20969   5.266   5.576   0.266  0.6332 -0.0643  0.7231
 5301SOL    HW220970   5.276   5.652   0.324  2.2951 -0.6258  1.2250
 5301SOL    HW320971   5.353   5.561   0.231  0.2935 -1.6356  0.4874
 5301SOL    MW420972   5.279   5.584   0.269  0.8076 -0.3457  0.7582
 5302SOL     OW20973   0.752   5.877   5.092  0.2404  0.4849 -0.4060
 5302SOL    HW220974   0.774   5.785   5.104  0.7791  0.6173 -0.3731
 5302SOL    HW320975   0.759   5.891   4.998  1.9019  0.9234 -0.2365
 5302SOL    MW420976   0.756   5.867   5.081  0.5307  0.5602 -0.3793
 5303SOL     OW20977   5.451   2.547   3.910  0.5184 -0.5595  0.2460
 5303SOL    HW220978   5.519   2.481   3.897  1.2360 -0.0450  1.1877
 5303SOL    HW320979   5.466   2.579   3.999  0.4090  1.1097 -0.3058
 5303SOL    MW420980   5.462   2.543   3.920  0.5986 -0.2714  0.2974
 5304SOL     OW20981   3.116   6.383   1.398 -0.3375 -0.6787  0.0530
 5304SOL    HW220982   3.183   6.371   1.330 -0.6187 -2.6326  0.0590
 5304SOL    HW320983   3.037   6.407   1.350 -0.3982 -1.5006 -0.2679
 5304SOL    MW420984   3.114   6.385   1.383 -0.3826 -1.0449  0.0114
 5305SOL     OW20985   1.346   0.777   1.772  0.1074  0.0672 -0.2196
 5305SOL    HW220986   1.252   0.794   1.767  0.1854  2.0795  2.7723
 5305SOL    HW320987   1.355   0.711   1.841  0.8499 -1.8681 -2.0467
 5305SOL    MW420988   1.335   0.770   1.780  0.2156  0.0774 -0.0659
 5306SOL     OW20989   2.667   1.871   3.862 -0.1457 -0.6539  0.0126
 5306SOL    HW220990   2.740   1.898   3.805 -1.2277  0.3754 -0.9640
 5306SOL    HW320991   2.616   1.811   3.808 -2.0128  1.4856 -0.7628
 5306SOL    MW420992   2.670   1.867   3.847 -0.5348 -0.2358 -0.2185
 5307SOL     OW20993   1.140   5.188   0.315 -0.0102 -0.0531 -0.6734
 5307SOL    HW220994   1.137   5.096   0.341  1.1234 -0.4711 -1.9078
 5307SOL    HW320995   1.226   5.200   0.275  0.7920  2.1391  1.4586
 5307SOL    MW420996   1.151   5.178   0.313  0.2452  0.1810 -0.5550
 5308SOL     OW20997   1.468   4.364   5.152 -0.2262 -0.4119  0.2944
 5308SOL    HW220998   1.529   4.305   5.196  0.7263 -0.4791 -1.0442
 5308SOL    HW320999   1.442   4.316   5.072  0.0862  0.7139 -0.5112
 5308SOL    MW421000   1.472   4.350   5.147 -0.0593 -0.2722  0.0115
 5309SOL     OW21001   0.639   1.582   4.232 -0.2093  0.1273  0.2117
 5309SOL    HW221002   0.634   1.658   4.291 -1.8711  1.1446 -1.1489
 5309SOL    HW321003   0.605   1.509   4.284  0.0787  0.6053  1.0890
 5309SOL    MW421004   0.634   1.583   4.247 -0.3905  0.3246  0.1480
 5310SOL     OW21005   5.838   1.566   5.897  0.2916  0.2150  0.3625
 5310SOL    HW221006   5.767   1.502   5.897  0.2910  0.2116 -0.4299
 5310SOL    HW321007   5.872   1.565   5.808  0.6446  0.9263  0.4814
 5310SOL    MW421008   5.833   1.558   5.886  0.3381  0.3084  0.2736
 5311SOL     OW21009   3.545   4.757   2.006  0.1592 -0.5396  0.3313
 5311SOL    HW221010   3.598   4.683   2.035  1.7712  1.0263  1.5827
 5311SOL    HW321011   3.583   4.782   1.922  0.3803 -0.4205  0.4647
 5311SOL    MW421012   3.557   4.751   1.999  0.4011 -0.3173  0.5140
 5312SOL     OW21013   1.429   2.426   5.300  0.3796 -0.2921  0.8180
 5312SOL    HW221014   1.486   2.363   5.256  1.6140  0.8485  0.6881
 5312SOL    HW321015   1.375   2.373   5.358  0.3957 -1.5899 -0.2983
 5312SOL    MW421016   1.430   2.411   5.302  0.5446 -0.3128  0.6536
 5313SOL     OW21017   0.160   4.991   4.744  0.2916  0.1921 -0.0929
 5313SOL    HW221018   0.184   4.980   4.835 -0.2327  0.4656  0.0848
 5313SOL    HW321019   0.071   5.026   4.747 -0.7937 -2.3098 -0.7496
 5313SOL    MW421020   0.152   4.994   4.756  0.0792 -0.1019 -0.1561
 5314SOL     OW21021   4.118   3.980   0.750 -0.3036  0.2664 -0.0166
 5314SOL    HW221022   4.180   4.008   0.682  0.8144  2.0675  1.6641
 5314SOL    HW321023   4.039   4.031   0.732 -0.2607  0.2013 -0.3979
 5314SOL    MW421024   4.116   3.990   0.738 -0.1504  0.4955  0.1548
 5315SOL     OW21025   1.804   2.541   5.909 -0.6615  0.0025 -0.0011
 5315SOL    HW221026   1.736   2.495   5.957  1.1736 -2.0605  0.7680
 5315SOL    HW321027   1.860   2.473   5.873  1.2901  1.5865 -0.1845
 5315SOL    MW421028   1.803   2.526   5.911 -0.1619 -0.0607  0.0762
 5316SOL     OW21029   5.271   1.575   3.002  0.4321 -0.8760  0.3502
 5316SOL    HW221030   5.235   1.630   3.071  0.4054  0.2444 -0.5289
 5316SOL    HW321031   5.262   1.627   2.922 -0.2336 -2.4283 -0.6470
 5316SOL    MW421032   5.265   1.589   3.000  0.3407 -0.9330  0.1026
 5317SOL     OW21033   3.816   1.132   0.690 -0.2055 -0.6038  0.2119
 5317SOL    HW221034   3.872   1.193   0.739  0.6648 -0.5189 -0.8394
 5317SOL    HW321035   3.849   1.045   0.712  2.6892 -0.4940 -2.9371
 5317SOL    MW421036   3.828   1.129   0.700  0.2912 -0.5781 -0.3423
 5318SOL     OW21037   2.346   1.281   4.904  0.3100  0.2754  0.2524
 5318SOL    HW221038   2.314   1.191   4.911 -2.0586  1.0362  0.3046
 5318SOL    HW321039   2.402   1.281   4.826 -0.2162 -1.1213 -0.1498
 5318SOL    MW421040   2.349   1.269   4.894 -0.0720  0.1915  0.2062
 5319SOL     OW21041   3.481   2.594   2.116  0.3491 -0.1373  0.3978
 5319SOL    HW221042   3.534   2.668   2.146  3.2616 -1.6037 -0.6489
 5319SOL    HW321043   3.499   2.525   2.180 -0.8184 -0.5126  0.3357
 5319SOL    MW421044   3.491   2.595   2.129  0.5793 -0.3803  0.2515
 5320SOL     OW21045   4.400   3.499   0.306 -0.5869  0.4963 -0.4992
 5320SOL    HW221046   4.398   3.572   0.245 -0.8158  0.0632 -1.0137
 5320SOL    HW321047   4.316   3.454   0.293 -0.8535  0.6791  0.4804
 5320SOL    MW421048   4.389   3.503   0.297 -0.6523  0.4633 -0.4378
 5321SOL     OW21049   3.816   3.128   4.966 -0.1196  0.4045  0.4059
 5321SOL    HW221050   3.764   3.167   5.037  0.5840  0.4635  0.9075
 5321SOL    HW321051   3.811   3.034   4.982 -0.3698  0.3894  0.2398
 5321SOL    MW421052   3.809   3.121   4.978 -0.0598  0.4103  0.4502
 5322SOL     OW21053   3.092   2.309   5.295  0.2734  0.1390 -0.4951
 5322SOL    HW221054   3.051   2.379   5.345 -0.0152  0.3884 -1.0671
 5322SOL    HW321055   3.079   2.334   5.204 -0.3414 -0.9382 -0.7229
 5322SOL    MW421056   3.085   2.322   5.290  0.1542  0.0298 -0.6006
 5323SOL     OW21057   1.241   5.055   1.022 -0.2978  0.4621 -0.0036
 5323SOL    HW221058   1.172   5.118   1.042 -0.9349 -0.2790  0.2043
 5323SOL    HW321059   1.249   5.057   0.927 -1.7390 -0.5810 -0.1755
 5323SOL    MW421060   1.233   5.064   1.012 -0.5720  0.2267  0.0011
 5324SOL     OW21061   2.131   3.503   5.318  0.3784  0.3081  0.1684
 5324SOL    HW221062   2.112   3.569   5.384  0.7772 -0.1046  0.7032
 5324SOL    HW321063   2.178   3.551   5.249 -1.9044  1.2045 -0.8639
 5324SOL    MW421064   2.135   3.518   5.318  0.1299  0.3719  0.1028
 5325SOL     OW21065   4.813   1.114   2.114  0.0165 -0.5245 -0.6556
 5325SOL    HW221066   4.729   1.069   2.102  0.0705 -0.7298 -0.2631
 5325SOL    HW321067   4.795   1.204   2.087 -0.4171 -0.4952 -0.2874
 5325SOL    MW421068   4.799   1.120   2.109 -0.0336 -0.5478 -0.5552
 5326SOL     OW21069   0.827   3.411   3.098 -0.2999 -0.1536 -0.5506
 5326SOL    HW221070   0.801   3.325   3.132  0.7365 -0.7656 -1.2681
 5326SOL    HW321071   0.910   3.430   3.141 -0.2177  0.2130 -0.8669
 5326SOL    MW421072   0.834   3.402   3.109 -0.1523 -0.1860 -0.6870
 5327SOL     OW21073   4.553   0.636   1.175 -0.0283 -0.4094  0.5199
 5327SOL    HW221074   4.507   0.574   1.119 -0.6498 -0.1715  0.7555
 5327SOL    HW321075   4.530   0.722   1.139 -0.1875 -0.2690  0.9510
 5327SOL    MW421076   4.544   0.639   1.163 -0.1313 -0.3595  0.6079
 5328SOL     OW21077   6.230   0.333   5.696  0.2896  0.5854  0.1512
 5328SOL    HW221078   6.158   0.282   5.658 -0.3335  1.9472 -0.5760
 5328SOL    HW321079   6.306   0.311   5.641  0.9374 -2.1683  1.9458
 5328SOL    MW421080   6.231   0.324   5.683  0.2928  0.4018  0.2921
 5329SOL     OW21081   1.954   3.190   1.123  0.1365 -0.3768  0.3678
 5329SOL    HW221082   1.970   3.128   1.051 -0.8557 -0.9687  0.6441
 5329SOL    HW321083   1.944   3.275   1.079 -2.5601 -1.0189 -0.4673
 5329SOL    MW421084   1.955   3.193   1.107 -0.3502 -0.5396  0.2941
 5330SOL     OW21085   6.088   2.085   3.212 -0.3066 -0.2744 -0.0714
 5330SOL    HW221086   6.072   2.115   3.302 -0.9234  1.8512 -0.8391
 5330SOL    HW321087   6.167   2.031   3.219  0.8187  1.4648  1.4531
 5330SOL    MW421088   6.096   2.082   3.225 -0.2395  0.2355  0.0284
 5331SOL     OW21089   3.962   3.605   5.729 -0.2857 -0.0644 -0.5323
 5331SOL    HW221090   3.869   3.625   5.739 -0.1997 -0.0366  0.3305
 5331SOL    HW321091   3.970   3.515   5.760  0.4316  0.8958  2.4198
 5331SOL    MW421092   3.951   3.596   5.735 -0.1797  0.0660 -0.0289
 5332SOL     OW21093   1.783   0.951   5.420 -1.0254  0.2552  0.0428
 5332SOL    HW221094   1.839   0.996   5.483 -0.3390 -0.2334 -0.2151
 5332SOL    HW321095   1.724   1.019   5.388 -0.7790  0.7068  0.5379
 5332SOL    MW421096   1.782   0.966   5.424 -0.9023  0.2503  0.0741
 5333SOL     OW21097   5.980   0.072   5.034 -0.0339  0.6020  0.3407
 5333SOL    HW221098   6.020   0.058   5.120  0.3315 -1.6523 -0.1495
 5333SOL    HW321099   6.044   0.126   4.987  0.2014  1.0547  1.1504
 5333SOL    MW421100   5.994   0.077   5.039  0.0453  0.3643  0.3829
 5334SOL     OW21101   0.244   6.079   2.939  0.3722 -0.5761  0.2205
 5334SOL    HW221102   0.158   6.061   2.903  0.8100  1.7745 -2.2939
 5334SOL    HW321103   0.229   6.095   3.032 -1.7021 -1.2426  0.0363
 5334SOL    MW421104   0.231   6.079   2.947  0.1562 -0.3539 -0.1355
 5335SOL     OW21105   1.492   2.339   4.323 -0.4708  0.0341  0.1517
 5335SOL    HW221106   1.488   2.431   4.298  1.8472  0.6351  1.6699
 5335SOL    HW321107   1.569   2.305   4.276  0.3187 -0.3659  1.6585
 5335SOL    MW421108   1.502   2.346   4.313 -0.0608  0.0606  0.5508
 5336SOL     OW21109   5.302   4.946   0.734 -0.4987 -0.6972 -0.1028
 5336SOL    HW221110   5.329   4.922   0.645  0.5551  1.1248 -0.3163
 5336SOL    HW321111   5.333   5.036   0.746 -1.5175 -0.5287  1.7548
 5336SOL    MW421112   5.309   4.955   0.724 -0.4941 -0.4346  0.1141
 5337SOL     OW21113   0.641   0.443   6.015  0.3550 -0.0942  0.3876
 5337SOL    HW221114   0.601   0.471   5.933  0.8739 -1.5634 -0.3868
 5337SOL    HW321115   0.666   0.352   6.001  3.6549  0.6113  0.9682
 5337SOL    MW421116   0.639   0.435   6.003  0.8588 -0.1950  0.3620
 5338SOL     OW21117   4.109   2.319   4.105 -0.2498 -0.2429 -0.1131
 5338SOL    HW221118   4.164   2.254   4.148  0.4783 -0.0030 -0.6656
 5338SOL    HW321119   4.098   2.286   4.016  0.0940  0.3559 -0.3879
 5338SOL    MW421120   4.115   2.306   4.099 -0.1084 -0.1322 -0.2223
 5339SOL     OW21121   5.154   1.475   5.794  0.0679  0.3772 -0.6924
 5339SOL    HW221122   5.154   1.560   5.837  0.0898 -0.8194  1.8722
 5339SOL    HW321123   5.242   1.466   5.758  0.4570  0.9581  0.0920
 5339SOL    MW421124   5.166   1.485   5.795  0.1221  0.2960 -0.2506
 5340SOL     OW21125   0.455   1.039   5.403  0.2368 -0.1253 -0.4721
 5340SOL    HW221126   0.505   0.963   5.371 -0.4962 -1.5565  1.5968
 5340SOL    HW321127   0.518   1.111   5.402  1.3679 -1.0849 -1.1164
 5340SOL    MW421128   0.470   1.038   5.398  0.2893 -0.4407 -0.2841
 5341SOL     OW21129   3.768   2.139   2.787  0.2269  0.0123  0.1987
 5341SOL    HW221130   3.704   2.166   2.721 -0.5963  0.4614  1.1632
 5341SOL    HW321131   3.784   2.046   2.768  0.3330  0.2375 -0.8847
 5341SOL    MW421132   3.762   2.130   2.776  0.1323  0.1013  0.1830
 5342SOL     OW21133   2.814   3.211   6.223 -0.0423  0.2022  0.0191
 5342SOL    HW221134   2.905   3.187   6.205  0.3328  2.0180 -0.7108
 5342SOL    HW321135   2.808   3.212   6.318  0.9950  0.9902  0.1000
 5342SOL    MW421136   2.825   3.208   6.233  0.1441  0.5458 -0.0665
 5343SOL     OW21137   0.539   4.967   1.466  0.6219 -0.7279  0.0278
 5343SOL    HW221138   0.607   5.027   1.435  1.6816 -2.1441 -0.5262
 5343SOL    HW321139   0.514   4.917   1.388 -2.0809  0.6498 -0.1005
 5343SOL    MW421140   0.545   4.968   1.451  0.4051 -0.7330 -0.0622
 5344SOL     OW21141   1.639   2.663   1.401  0.2270  0.2235  0.1645
 5344SOL    HW221142   1.712   2.701   1.352  0.9128 -1.1436  0.0674
 5344SOL    HW321143   1.673   2.651   1.489 -0.0750  0.1113  0.2669
 5344SOL    MW421144   1.653   2.667   1.406  0.2776  0.0283  0.1652
 5345SOL     OW21145   5.461   3.305   2.357 -0.3214  0.3529 -0.1699
 5345SOL    HW221146   5.519   3.254   2.413  1.4021  1.9343 -0.4044
 5345SOL    HW321147   5.408   3.356   2.418  0.1646  0.6066  0.0447
 5345SOL    MW421148   5.462   3.305   2.373 -0.0299  0.5951 -0.1726
 5346SOL     OW21149   3.370   6.045   6.349  0.1183  0.1548 -0.6253
 5346SOL    HW221150   3.435   6.106   6.383  1.7900 -1.4329 -0.8051
 5346SOL    HW321151   3.286   6.090   6.358  1.3064  2.5708 -1.0725
 5346SOL    MW421152   3.367   6.059   6.355  0.4957  0.2641 -0.7081
 5347SOL     OW21153   5.536   6.220   6.002 -0.1810  0.5823 -0.2868
 5347SOL    HW221154   5.504   6.218   5.912  1.6256 -2.8247 -1.0182
 5347SOL    HW321155   5.609   6.282   6.001 -0.8574  1.3754 -0.8800
 5347SOL    MW421156   5.542   6.228   5.990 -0.0319  0.2374 -0.4616
 5348SOL     OW21157   0.590   1.280   2.935  0.0289  0.1054  0.2405
 5348SOL    HW221158   0.607   1.308   3.025 -2.1404  0.5885  0.5672
 5348SOL    HW321159   0.502   1.242   2.938  0.5884 -1.4749 -1.3585
 5348SOL    MW421160   0.580   1.278   2.947 -0.1835 -0.0394  0.0726
 5349SOL     OW21161   1.472   1.829   3.254  0.8778  0.1922  0.0763
 5349SOL    HW221162   1.437   1.753   3.301  2.3034 -0.3831  0.2723
 5349SOL    HW321163   1.412   1.901   3.276  1.0923 -0.2073  2.2401
 5349SOL    MW421164   1.459   1.829   3.263  1.0942  0.0636  0.3876
 5350SOL     OW21165   5.274   5.751   2.295  0.0638 -0.1361 -0.1759
 5350SOL    HW221166   5.361   5.791   2.302 -0.1645  0.2713  0.4907
 5350SOL    HW321167   5.236   5.761   2.382 -0.6055 -0.4228 -0.4254
 5350SOL    MW421168   5.280   5.758   2.307 -0.0546 -0.1202 -0.1209
 5351SOL     OW21169   1.529   1.828   2.521  0.3222  0.2434  0.2337
 5351SOL    HW221170   1.525   1.806   2.614 -1.2960  0.7594  0.3150
 5351SOL    HW321171   1.509   1.746   2.476  1.3411 -0.0641  0.3057
 5351SOL    MW421172   1.526   1.814   2.528  0.2431  0.2709  0.2539
 5352SOL     OW21173   5.701   5.200   1.919 -0.0284 -0.5551 -0.2007
 5352SOL    HW221174   5.612   5.179   1.892  0.1735 -1.7057 -0.0561
 5352SOL    HW321175   5.724   5.278   1.869 -2.0421  1.3791  1.7168
 5352SOL    MW421176   5.692   5.207   1.909 -0.2674 -0.4517  0.0714
 5353SOL     OW21177   6.276   3.544   0.800  0.0036 -0.1628 -0.0318
 5353SOL    HW221178   6.210   3.562   0.733  0.2273  0.6167 -0.0453
 5353SOL    HW321179   6.359   3.543   0.752  0.3853  2.2515  0.4871
 5353SOL    MW421180   6.278   3.546   0.784  0.0834  0.2586  0.0349
 5354SOL     OW21181   2.507   2.537   3.410  0.5900 -0.3733 -0.7696
 5354SOL    HW221182   2.540   2.602   3.348 -1.0877  0.9095 -0.3836
 5354SOL    HW321183   2.477   2.464   3.355 -0.5330  0.5867 -1.4793
 5354SOL    MW421184   2.507   2.536   3.395  0.2205 -0.0774 -0.8123
 5355SOL     OW21185   2.763   4.305   4.666  0.2529  0.0679 -0.0001
 5355SOL    HW221186   2.750   4.398   4.683  0.6302 -0.0252  0.8473
 5355SOL    HW321187   2.683   4.263   4.698  0.8464 -0.0772  1.3812
 5355SOL    MW421188   2.751   4.312   4.673  0.3810  0.0365  0.2939
 5356SOL     OW21189   2.246   1.155   3.679  0.4553 -0.3148  0.4311
 5356SOL    HW221190   2.308   1.095   3.718 -0.6066 -2.3871 -0.8735
 5356SOL    HW321191   2.174   1.161   3.742  0.2334 -1.0042  0.2435
 5356SOL    MW421192   2.244   1.148   3.692  0.2859 -0.6792  0.2342
 5357SOL     OW21193   4.235   0.427   1.391  0.5887 -0.0440 -0.0021
 5357SOL    HW221194   4.249   0.443   1.297  2.7556 -1.1592  0.0549
 5357SOL    HW321195   4.249   0.511   1.433 -3.2800  1.2008 -0.8002
 5357SOL    MW421196   4.239   0.440   1.384  0.3641 -0.0269 -0.0999
 5358SOL     OW21197   5.094   1.670   5.171 -0.3607  0.1420  0.2718
 5358SOL    HW221198   5.151   1.604   5.132  0.9617  1.7547 -0.6243
 5358SOL    HW321199   5.010   1.659   5.126  0.3374  0.1550 -1.0683
 5358SOL    MW421200   5.091   1.660   5.160 -0.0941  0.3565 -0.0233
 5359SOL     OW21201   0.589   1.680   6.423 -0.2845 -0.3360 -0.5144
 5359SOL    HW221202   0.528   1.624   6.376 -0.6925  0.0083 -0.3958
 5359SOL    HW321203   0.670   1.675   6.373 -0.0255 -1.7827  0.0156
 5359SOL    MW421204   0.592   1.672   6.410 -0.3041 -0.4815 -0.4288
 5360SOL     OW21205   1.659   5.322   0.152  0.1284  0.4391 -0.7889
 5360SOL    HW221206   1.728   5.263   0.121  1.1153  0.5928  0.9888
 5360SOL    HW321207   1.675   5.330   0.246 -1.0662  2.1474 -0.6916
 5360SOL    MW421208   1.670   5.315   0.160  0.1010  0.6847 -0.5415
 5361SOL     OW21209   5.775   6.164   2.828 -0.0501  0.1845 -0.0390
 5361SOL    HW221210   5.781   6.246   2.876  2.2348 -0.6983  1.3577
 5361SOL    HW321211   5.772   6.096   2.895 -0.0997 -0.9563 -1.1475
 5361SOL    MW421212   5.776   6.166   2.843  0.2448 -0.0825 -0.0010
 5362SOL     OW21213   5.668   3.539   5.397  0.2344 -0.2264  0.5585
 5362SOL    HW221214   5.606   3.602   5.435  0.1672  0.5065 -0.7061
 5362SOL    HW321215   5.750   3.588   5.391  0.0005  0.0237 -1.1034
 5362SOL    MW421216   5.671   3.554   5.402  0.1946 -0.0967  0.1724
 5363SOL     OW21217   4.340   2.560   6.395 -0.3008  0.5108 -0.0652
 5363SOL    HW221218   4.256   2.513   6.401 -0.1500  0.0758 -1.1892
 5363SOL    HW321219   4.321   2.636   6.340 -0.5818  1.9336  1.8703
 5363SOL    MW421220   4.326   2.564   6.389 -0.3180  0.6411  0.0419
 5364SOL     OW21221   5.106   0.215   2.689  0.3960 -0.0489 -0.6460
 5364SOL    HW221222   5.182   0.157   2.685 -0.4583 -1.2293 -0.3813
 5364SOL    HW321223   5.048   0.174   2.753 -1.2488 -0.1671 -2.1224
 5364SOL    MW421224   5.109   0.202   2.697  0.0663 -0.2202 -0.8059
 5365SOL     OW21225   6.269   3.518   2.109  0.4029 -0.4120 -0.2424
 5365SOL    HW221226   6.299   3.428   2.119  0.6085 -0.4611 -1.2144
 5365SOL    HW321227   6.292   3.560   2.192 -0.1415 -1.3688  0.4256
 5365SOL    MW421228   6.276   3.512   2.121  0.3582 -0.5447 -0.2825
 5366SOL     OW21229   3.778   1.968   1.196  0.0254  0.1811  0.3044
 5366SOL    HW221230   3.736   1.939   1.277 -0.3791  0.0144  0.0445
 5366SOL    HW321231   3.731   1.920   1.127 -0.6750  1.4675 -0.1458
 5366SOL    MW421232   3.766   1.958   1.198 -0.1204  0.3288  0.2107
 5367SOL     OW21233   0.488   4.209   0.447  0.2982 -0.0453  0.9462
 5367SOL    HW221234   0.492   4.172   0.535  0.4422 -1.4346  0.3724
 5367SOL    HW321235   0.579   4.216   0.419  0.2438  0.2257  0.8336
 5367SOL    MW421236   0.500   4.205   0.455  0.3101 -0.1928  0.8556
 5368SOL     OW21237   0.621   3.134   0.207 -0.1174 -0.0428 -0.1616
 5368SOL    HW221238   0.716   3.137   0.215 -0.0534 -0.3908 -0.7118
 5368SOL    HW321239   0.603   3.172   0.121 -0.4463 -0.3211 -0.2163
 5368SOL    MW421240   0.631   3.139   0.196 -0.1524 -0.1254 -0.2414
 5369SOL     OW21241   5.734   1.507   3.232  0.3734  0.2848 -0.0834
 5369SOL    HW221242   5.755   1.420   3.199 -0.0990 -0.9760  2.6106
 5369SOL    HW321243   5.808   1.562   3.207  0.7132 -0.8709 -1.7789
 5369SOL    MW421244   5.746   1.503   3.225  0.3559 -0.0340  0.0483
 5370SOL     OW21245   2.214   1.073   0.981  0.0038 -0.3854  0.3132
 5370SOL    HW221246   2.251   1.023   1.053  2.1733 -1.4788 -1.4136
 5370SOL    HW321247   2.169   1.009   0.926  1.7453 -0.3414 -1.2762
 5370SOL    MW421248   2.213   1.058   0.983  0.5198 -0.5239 -0.1244
 5371SOL     OW21249   2.257   3.966   1.259  0.6398 -0.4808 -0.0077
 5371SOL    HW221250   2.182   3.938   1.311  0.0263  0.3195 -0.4482
 5371SOL    HW321251   2.271   4.057   1.283  0.7746 -0.3003 -0.7399
 5371SOL    MW421252   2.249   3.974   1.269  0.5766 -0.3514 -0.1624
 5372SOL     OW21253   5.034   0.732   4.041  0.5319 -0.1450 -0.3369
 5372SOL    HW221254   5.082   0.793   4.096  1.3177 -0.1612 -0.9838
 5372SOL    HW321255   5.002   0.784   3.967 -0.1643 -0.2053 -0.0914
 5372SOL    MW421256   5.036   0.747   4.038  0.5437 -0.1551 -0.3899
 5373SOL     OW21257   3.690   1.802   2.145  0.2547 -0.4985  0.1163
 5373SOL    HW221258   3.778   1.790   2.108  0.9741  2.1158  0.7507
 5373SOL    HW321259   3.706   1.829   2.235 -0.9600  2.9916 -0.5497
 5373SOL    MW421260   3.704   1.804   2.152  0.1893  0.3069  0.1121
 5374SOL     OW21261   0.317   1.543   4.022 -0.2015  0.4124 -0.1363
 5374SOL    HW221262   0.246   1.517   4.081  0.7534 -2.9021 -0.2457
 5374SOL    HW321263   0.396   1.534   4.074  0.3495  1.8292 -0.6808
 5374SOL    MW421264   0.318   1.538   4.037 -0.0028  0.1620 -0.2226
 5375SOL     OW21265   2.152   4.824   2.580 -0.2614  0.7044  0.1880
 5375SOL    HW221266   2.197   4.741   2.562  2.0025  1.5896  1.3192
 5375SOL    HW321267   2.173   4.880   2.506 -1.1666  0.5306 -0.2135
 5375SOL    MW421268   2.161   4.820   2.568 -0.0822  0.7983  0.2843
 5376SOL     OW21269   1.201   1.768   2.466  0.4789 -0.5108  0.8134
 5376SOL    HW221270   1.200   1.840   2.529  2.1368  0.5147 -0.2876
 5376SOL    HW321271   1.210   1.810   2.381 -1.9102 -1.8647 -0.2050
 5376SOL    MW421272   1.202   1.783   2.463  0.3824 -0.5541  0.5338
 5377SOL     OW21273   4.009   5.105   5.851 -0.7107  0.2406  0.0735
 5377SOL    HW221274   4.025   5.113   5.945 -0.9246  0.7051  0.0752
 5377SOL    HW321275   4.013   5.195   5.818  0.7070 -0.0480 -0.5971
 5377SOL    MW421276   4.012   5.118   5.859 -0.5519  0.2638 -0.0148
 5378SOL     OW21277   0.712   3.229   3.515  0.2311  0.0874 -0.9356
 5378SOL    HW221278   0.755   3.166   3.457 -1.4672 -1.5436 -0.5140
 5378SOL    HW321279   0.647   3.271   3.460  0.6685  0.7738 -0.9474
 5378SOL    MW421280   0.709   3.226   3.500  0.0647 -0.0372 -0.8815
 5379SOL     OW21281   1.837   2.106   6.423  0.1261  0.8592  0.7110
 5379SOL    HW221282   1.792   2.030   6.387 -0.5034  0.9265  1.3364
 5379SOL    HW321283   1.824   2.176   6.360 -0.9264  0.9658  1.0327
 5379SOL    MW421284   1.830   2.105   6.410 -0.0958  0.8822  0.8360
 5380SOL     OW21285   0.612   1.649   5.778  0.0678  0.4150  0.3054
 5380SOL    HW221286   0.634   1.664   5.870  0.9539 -1.5968  0.4828
 5380SOL    HW321287   0.697   1.642   5.734 -0.2878 -1.2072 -0.1736
 5380SOL    MW421288   0.626   1.650   5.785  0.1378 -0.0644  0.2656
 5381SOL     OW21289   0.463   3.883   5.373  0.2314 -0.1239 -0.4914
 5381SOL    HW221290   0.391   3.888   5.435  0.1063 -0.0307 -0.6452
 5381SOL    HW321291   0.436   3.816   5.310  0.1595  0.1047 -0.7051
 5381SOL    MW421292   0.450   3.875   5.373  0.2054 -0.0814 -0.5399
 5382SOL     OW21293   4.308   0.711   0.456  0.0124 -0.2977  0.3592
 5382SOL    HW221294   4.397   0.734   0.484 -0.1266  0.8107 -0.0396
 5382SOL    HW321295   4.271   0.664   0.531 -0.4874  2.9008  2.3543
 5382SOL    MW421296   4.315   0.708   0.470 -0.0719  0.2705  0.5698
 5383SOL     OW21297   4.112   5.385   1.135  0.3126  0.3070  0.2144
 5383SOL    HW221298   4.159   5.302   1.127 -1.4646 -0.6706 -0.9036
 5383SOL    HW321299   4.133   5.432   1.054 -0.0496  0.1590  0.0285
 5383SOL    MW421300   4.121   5.380   1.123  0.0303  0.1585  0.0423
 5384SOL     OW21301   6.115   4.084   2.417 -0.1335 -0.7059 -0.1204
 5384SOL    HW221302   6.036   4.105   2.368 -0.4564 -0.4171  0.5079
 5384SOL    HW321303   6.102   4.125   2.503  1.8168  1.6144 -0.8169
 5384SOL    MW421304   6.103   4.092   2.422  0.0812 -0.3616 -0.1294
 5385SOL     OW21305   0.697   4.505   5.526  0.4963 -0.3095  0.1911
 5385SOL    HW221306   0.789   4.488   5.547  0.4474 -1.6194 -0.5746
 5385SOL    HW321307   0.699   4.586   5.476  1.1538  0.0255  0.7386
 5385SOL    MW421308   0.709   4.513   5.522  0.5766 -0.4381  0.1623
 5386SOL     OW21309   4.772   4.754   4.792  0.2473  0.1532 -0.6015
 5386SOL    HW221310   4.684   4.755   4.756  0.0047 -0.8258 -0.0662
 5386SOL    HW321311   4.773   4.680   4.852  0.6925  1.5832  1.2545
 5386SOL    MW421312   4.761   4.745   4.795  0.2740  0.2127 -0.2860
 5387SOL     OW21313   5.390   2.753   5.908 -0.4039  0.7804 -0.1128
 5387SOL    HW221314   5.347   2.756   5.823 -3.5868 -0.8384  1.2803
 5387SOL    HW321315   5.391   2.660   5.931 -0.5651  1.2630  2.0450
 5387SOL    MW421316   5.385   2.741   5.900 -0.8451  0.6305  0.3557
 5388SOL     OW21317   6.294   3.410   0.385 -0.0263  0.1042  0.3841
 5388SOL    HW221318   6.346   3.404   0.305 -1.9678 -2.3823 -0.8477
 5388SOL    HW321319   6.231   3.480   0.366 -1.3566 -1.3611 -0.9418
 5388SOL    MW421320   6.292   3.419   0.372 -0.4580 -0.4172  0.0466
 5389SOL     OW21321   4.741   4.660   2.980  0.6852 -0.2668 -0.1903
 5389SOL    HW221322   4.834   4.680   2.973  0.5809  0.2314 -0.1839
 5389SOL    HW321323   4.701   4.741   3.012  0.3035 -0.5962  0.1873
 5389SOL    MW421324   4.748   4.673   2.983  0.6211 -0.2445 -0.1397
 5390SOL     OW21325   3.731   1.893   3.357 -0.1838 -0.6428  0.0857
 5390SOL    HW221326   3.811   1.841   3.355 -0.0812 -0.4595 -0.6761
 5390SOL    HW321327   3.675   1.849   3.422 -0.4604 -2.2350 -1.1748
 5390SOL    MW421328   3.734   1.881   3.365 -0.2068 -0.8287 -0.1812
 5391SOL     OW21329   2.341   5.281   2.402 -0.2110  0.4216  0.3825
 5391SOL    HW221330   2.416   5.340   2.389  0.9499 -0.9090  0.8390
 5391SOL    HW321331   2.290   5.323   2.471 -0.3275  1.7229 -0.4401
 5391SOL    MW421332   2.344   5.295   2.409 -0.0732  0.4178  0.3342
 5392SOL     OW21333   5.558   5.510   4.696  0.0558  0.2000 -0.2264
 5392SOL    HW221334   5.473   5.530   4.737  0.3005  1.3619 -0.2343
 5392SOL    HW321335   5.602   5.595   4.691  1.2823 -0.4073 -0.1082
 5392SOL    MW421336   5.552   5.524   4.701  0.2499  0.2732 -0.2118
 5393SOL     OW21337   5.547   2.698   0.808 -0.1070  0.1220 -0.3818
 5393SOL    HW221338   5.497   2.622   0.837 -0.1003 -0.2778 -1.3896
 5393SOL    HW321339   5.597   2.725   0.886 -1.3080  0.0829  0.4365
 5393SOL    MW421340   5.547   2.692   0.822 -0.2646  0.0641 -0.4068
 5394SOL     OW21341   0.930   2.241   1.828  0.3367 -0.2368 -0.8833
 5394SOL    HW221342   0.838   2.238   1.855  0.2908 -0.4897 -1.0676
 5394SOL    HW321343   0.959   2.329   1.853  0.2433 -0.4022 -0.1813
 5394SOL    MW421344   0.922   2.252   1.835  0.3183 -0.2920 -0.8150
 5395SOL     OW21345   1.541   4.729   3.194 -0.0546  0.7612 -0.0301
 5395SOL    HW221346   1.550   4.761   3.283 -0.5784  0.8280  0.0027
 5395SOL    HW321347   1.589   4.647   3.192 -1.4990 -0.1457  0.7968
 5395SOL    MW421348   1.549   4.723   3.205 -0.3143  0.6504  0.0834
 5396SOL     OW21349   3.127   1.080   6.376  0.0176  0.9820  0.0586
 5396SOL    HW221350   3.037   1.049   6.390  0.6816 -0.6383  1.0629
 5396SOL    HW321351   3.180   1.001   6.385  1.7264  2.2229  1.4112
 5396SOL    MW421352   3.122   1.065   6.379  0.3307  0.9319  0.3696
 5397SOL     OW21353   5.483   4.558   1.449  0.3054 -0.0972 -0.5946
 5397SOL    HW221354   5.487   4.498   1.375  0.9332 -1.6616  0.6634
 5397SOL    HW321355   5.389   4.569   1.466  0.1388  0.5924 -1.8287
 5397SOL    MW421356   5.471   4.552   1.441  0.3663 -0.2126 -0.5915
 5398SOL     OW21357   4.550   1.298   6.271 -0.4817  0.1892 -0.0533
 5398SOL    HW221358   4.519   1.312   6.182  1.2703  0.7992 -0.6051
 5398SOL    HW321359   4.586   1.209   6.270  0.8231  0.7041 -0.3724
 5398SOL    MW421360   4.550   1.288   6.259 -0.0784  0.3376 -0.1682
 5399SOL     OW21361   3.612   4.446   5.972  0.1017 -0.6109  0.6251
 5399SOL    HW221362   3.707   4.446   5.982  0.1997  0.8479 -0.1003
 5399SOL    HW321363   3.597   4.407   5.886  0.0530 -0.5176  0.5919
 5399SOL    MW421364   3.622   4.441   5.962  0.1082 -0.4061  0.5250
 5400SOL     OW21365   0.372   4.958   3.077  0.2385 -0.3852 -0.0918
 5400SOL    HW221366   0.405   5.026   3.136  1.7343  0.4576 -1.7706
 5400SOL    HW321367   0.428   4.882   3.094  0.6231 -0.1656 -0.3583
 5400SOL    MW421368   0.384   4.957   3.087  0.4866 -0.2450 -0.3485
 5401SOL     OW21369   6.349   2.074   0.270 -0.2217 -0.4488  0.0131
 5401SOL    HW221370   6.442   2.092   0.258  0.0231 -1.7083 -0.1652
 5401SOL    HW321371   6.307   2.120   0.197  0.1812  0.6862  0.4837
 5401SOL    MW421372   6.356   2.083   0.259 -0.1362 -0.4653  0.0517
 5402SOL     OW21373   1.759   3.761   5.076 -0.6669  0.1216 -0.1962
 5402SOL    HW221374   1.767   3.676   5.120 -0.9063 -0.5024 -1.3122
 5402SOL    HW321375   1.828   3.815   5.116 -0.3294 -0.6763  0.3402
 5402SOL    MW421376   1.769   3.757   5.087 -0.6539 -0.0660 -0.2727
 5403SOL     OW21377   4.968   6.005   2.479  0.0258  0.1760 -0.3909
 5403SOL    HW221378   5.000   5.934   2.423  2.6526 -0.1461  1.3456
 5403SOL    HW321379   4.993   5.978   2.568 -0.2085  2.6178  0.4802
 5403SOL    MW421380   4.976   5.992   2.483  0.3415  0.4557 -0.0469
 5404SOL     OW21381   2.173   1.520   3.417 -0.2495 -0.5237 -0.6479
 5404SOL    HW221382   2.181   1.560   3.331  0.7407  0.0800 -0.3003
 5404SOL    HW321383   2.095   1.465   3.412 -0.2057 -0.4842 -1.9162
 5404SOL    MW421384   2.164   1.518   3.405 -0.1130 -0.4389 -0.7693
 5405SOL     OW21385   5.057   5.104   0.099 -0.1944  0.1089  0.1600
 5405SOL    HW221386   4.991   5.172   0.115 -1.1033 -0.8826  0.7869
 5405SOL    HW321387   5.139   5.142   0.129 -0.8361  0.6319  1.3069
 5405SOL    MW421388   5.059   5.118   0.105 -0.3989  0.0471  0.3940
 5406SOL     OW21389   0.293   4.344   3.991  0.1122  0.4551 -0.3810
 5406SOL    HW221390   0.348   4.275   4.027  0.0994 -0.5830 -2.2067
 5406SOL    HW321391   0.280   4.405   4.063  2.8519  0.2634  0.3859
 5406SOL    MW421392   0.298   4.343   4.005  0.4720  0.2928 -0.5207
 5407SOL     OW21393   2.893   2.505   0.044 -0.0430  0.0735  0.3845
 5407SOL    HW221394   2.813   2.539   0.002 -0.5161 -0.9108  0.4627
 5407SOL    HW321395   2.913   2.569   0.112  0.0547  1.0787 -0.5495
 5407SOL    MW421396   2.885   2.518   0.047 -0.0925  0.0763  0.2716
 5408SOL     OW21397   2.256   4.490   5.844  0.0079  0.0578 -0.0074
 5408SOL    HW221398   2.167   4.485   5.878 -0.4919 -1.4739 -1.4216
 5408SOL    HW321399   2.312   4.481   5.921 -1.0529 -0.2025  0.7511
 5408SOL    MW421400   2.251   4.488   5.858 -0.1980 -0.1786 -0.0939
 5409SOL     OW21401   4.433   3.371   3.029  0.2602 -0.1507 -0.1862
 5409SOL    HW221402   4.520   3.393   3.064 -0.7808  1.1436  1.7574
 5409SOL    HW321403   4.414   3.285   3.066  1.8114 -1.7928 -2.9093
 5409SOL    MW421404   4.442   3.363   3.039  0.3275 -0.1966 -0.2890
 5410SOL     OW21405   4.628   1.761   6.005 -0.4809 -0.4361 -0.6304
 5410SOL    HW221406   4.682   1.702   6.057 -0.0391  1.2737  0.9374
 5410SOL    HW321407   4.688   1.831   5.978 -1.1812 -0.2320 -1.7506
 5410SOL    MW421408   4.643   1.763   6.008 -0.5150 -0.1836 -0.5713
 5411SOL     OW21409   0.514   2.177   1.378 -0.4918 -0.2826  0.6244
 5411SOL    HW221410   0.509   2.159   1.472 -1.3652 -0.5396  0.5369
 5411SOL    HW321411   0.435   2.228   1.359  0.3705  0.9685  0.2804
 5411SOL    MW421412   0.503   2.182   1.388 -0.4933 -0.1514  0.5675
 5412SOL     OW21413   6.225   5.703   6.334  0.0457  0.1824 -0.3878
 5412SOL    HW221414   6.180   5.698   6.249  1.4001 -0.4955 -1.1041
 5412SOL    HW321415   6.241   5.796   6.348 -1.0607  0.3808 -0.3901
 5412SOL    MW421416   6.221   5.714   6.325  0.0785  0.1191 -0.4826
 5413SOL     OW21417   6.274   3.530   4.519 -0.2519  0.8170  0.3357
 5413SOL    HW221418   6.250   3.456   4.575 -0.9290  0.6496 -0.1750
 5413SOL    HW321419   6.191   3.567   4.491  0.0763  1.9525  0.8090
 5413SOL    MW421420   6.260   3.525   4.523 -0.2979  0.9447  0.3308
 5414SOL     OW21421   1.881   0.020   3.023 -0.1321 -0.5242 -0.1325
 5414SOL    HW221422   1.956  -0.014   3.073  0.8169 -0.1749 -1.2755
 5414SOL    HW321423   1.920   0.082   2.962 -1.3647 -0.3927 -0.8048
 5414SOL    MW421424   1.896   0.024   3.022 -0.1695 -0.4608 -0.3720
 5415SOL     OW21425   3.983   4.300   2.369  0.0744 -0.5565  0.0925
 5415SOL    HW221426   4.050   4.248   2.325 -0.2619 -0.3077 -0.7269
 5415SOL    HW321427   3.988   4.386   2.327  0.0180 -0.1858  0.8238
 5415SOL    MW421428   3.993   4.304   2.358  0.0226 -0.4747  0.0809
 5416SOL     OW21429   1.363   6.300   1.587  0.3108  0.0791  0.3073
 5416SOL    HW221430   1.328   6.336   1.668  0.9749 -0.8090  1.0027
 5416SOL    HW321431   1.458   6.313   1.593  0.3004  0.7772 -0.7165
 5416SOL    MW421432   1.371   6.306   1.598  0.3970  0.0540  0.2639
 5417SOL     OW21433   3.024   3.673   1.712  0.4757  0.0016 -0.0338
 5417SOL    HW221434   2.934   3.691   1.738 -0.1868 -1.9532 -0.8054
 5417SOL    HW321435   3.067   3.645   1.793 -0.3855 -1.7286 -0.1222
 5417SOL    MW421436   3.018   3.672   1.726  0.2746 -0.4846 -0.1473
 5418SOL     OW21437   4.322   3.928   3.042 -0.8586  0.7577 -0.3305
 5418SOL    HW221438   4.404   3.940   2.993 -1.5227 -0.7246 -1.9030
 5418SOL    HW321439   4.287   4.017   3.051  0.9846  1.4546  0.5636
 5418SOL    MW421440   4.328   3.941   3.037 -0.7030  0.6541 -0.4200
 5419SOL     OW21441   0.454   5.135   5.340 -0.5512  0.1257  0.2509
 5419SOL    HW221442   0.507   5.142   5.419 -3.0743 -1.1021  2.2120
 5419SOL    HW321443   0.449   5.225   5.306 -1.3324  1.1800  2.9052
 5419SOL    MW421444   0.460   5.148   5.346 -0.9871  0.1028  0.8599
 5420SOL     OW21445   5.907   2.440   3.135  0.3809 -0.0177 -0.4849
 5420SOL    HW221446   5.984   2.407   3.181  1.3182  2.0592 -0.4449
 5420SOL    HW321447   5.920   2.535   3.130 -0.5319  0.0806 -3.4385
 5420SOL    MW421448   5.919   2.448   3.140  0.3841  0.2693 -0.8693
 5421SOL     OW21449   1.052   1.108   0.224 -0.8184 -0.2922 -0.1910
 5421SOL    HW221450   1.048   1.170   0.297 -1.2006  0.4711 -0.8420
 5421SOL    HW321451   1.072   1.024   0.265  1.1389  0.5028  0.5749
 5421SOL    MW421452   1.054   1.105   0.239 -0.6106 -0.0866 -0.1758
 5422SOL     OW21453   6.080   4.212   3.700  0.0498  0.2037  0.6958
 5422SOL    HW221454   6.009   4.265   3.664 -0.8336 -1.7716 -0.6698
 5422SOL    HW321455   6.042   4.125   3.710  2.2197 -0.8767  0.1067
 5422SOL    MW421456   6.065   4.207   3.696  0.2195 -0.1994  0.4379
 5423SOL     OW21457   4.064   0.600   4.125  0.6437  0.4543  0.6065
 5423SOL    HW221458   4.025   0.548   4.195 -1.2186 -1.1535 -1.5330
 5423SOL    HW321459   4.140   0.549   4.097  0.8312  0.6213  0.8070
 5423SOL    MW421460   4.069   0.586   4.131  0.4227  0.2642  0.3507
 5424SOL     OW21461   1.614   5.863   0.939  0.1921  0.1829 -0.3735
 5424SOL    HW221462   1.688   5.862   1.000 -0.4594  2.4024  0.5243
 5424SOL    HW321463   1.537   5.875   0.995 -0.8814 -1.8427 -1.3083
 5424SOL    MW421464   1.613   5.864   0.955 -0.0355  0.2085 -0.3783
 5425SOL     OW21465   4.808   5.562   5.687 -0.3843 -0.3156  0.8671
 5425SOL    HW221466   4.843   5.593   5.770 -1.9940 -1.2439  1.9365
 5425SOL    HW321467   4.727   5.612   5.675  0.9497  1.5567 -1.3877
 5425SOL    MW421468   4.802   5.573   5.696 -0.4207 -0.1910  0.7107
 5426SOL     OW21469   4.128   5.150   0.632  0.5092 -0.2417 -0.0826
 5426SOL    HW221470   4.145   5.243   0.649  0.7318 -0.6454  2.2151
 5426SOL    HW321471   4.135   5.141   0.537  1.9952  1.8060 -0.2285
 5426SOL    MW421472   4.131   5.161   0.621  0.7346 -0.0248  0.2013
 5427SOL     OW21473   5.618   3.928   5.916 -0.0321 -0.3686  0.0429
 5427SOL    HW221474   5.682   3.958   5.981 -0.4052  1.4797 -0.3944
 5427SOL    HW321475   5.573   4.007   5.889 -1.7261 -1.4824 -0.5202
 5427SOL    MW421476   5.621   3.942   5.921 -0.3049 -0.2717 -0.0891
 5428SOL     OW21477   4.333   4.224   3.204  0.1862  0.0403  0.0835
 5428SOL    HW221478   4.414   4.255   3.246 -0.2650  0.7980  0.4220
 5428SOL    HW321479   4.296   4.303   3.165  0.0730 -0.4724 -0.8686
 5428SOL    MW421480   4.339   4.239   3.205  0.1118  0.0727  0.0026
 5429SOL     OW21481   1.696   5.809   2.265  0.1582 -0.2516 -0.4768
 5429SOL    HW221482   1.756   5.883   2.271  1.1952 -1.1306  0.4334
 5429SOL    HW321483   1.621   5.843   2.217  0.2030  1.6447  0.6863
 5429SOL    MW421484   1.694   5.823   2.259  0.3009 -0.1173 -0.2032
 5430SOL     OW21485   1.467   6.222   5.708 -0.5008 -0.1137 -0.0356
 5430SOL    HW221486   1.415   6.301   5.715 -0.4102 -0.1164  0.8433
 5430SOL    HW321487   1.519   6.234   5.629 -1.6019  0.0175 -0.7537
 5430SOL    MW421488   1.467   6.234   5.698 -0.6341 -0.0968 -0.0144
 5431SOL     OW21489   0.140   2.701   3.636  0.1018  0.0525 -0.0185
 5431SOL    HW221490   0.229   2.715   3.603 -0.5443  1.1423 -1.3843
 5431SOL    HW321491   0.089   2.773   3.599 -1.4776 -0.8704  0.2860
 5431SOL    MW421492   0.145   2.712   3.627 -0.1918  0.0745 -0.1585
 5432SOL     OW21493   2.875   4.426   5.420 -0.0382 -0.3422  0.2105
 5432SOL    HW221494   2.893   4.471   5.338 -0.3059  0.4851  0.5883
 5432SOL    HW321495   2.961   4.400   5.453  0.1517  0.1748  0.1330
 5432SOL    MW421496   2.889   4.428   5.414 -0.0485 -0.1649  0.2501
 5433SOL     OW21497   4.401   1.446   0.589  0.1036  0.0136 -0.3839
 5433SOL    HW221498   4.386   1.508   0.660 -1.3335 -0.4021 -0.2836
 5433SOL    HW321499   4.384   1.360   0.629 -1.0912 -0.1976 -1.2998
 5433SOL    MW421500   4.397   1.443   0.604 -0.2436 -0.0691 -0.4915
 5434SOL     OW21501   2.300   0.553   2.572  0.2412  0.0376  0.5939
 5434SOL    HW221502   2.392   0.544   2.546 -0.3593 -0.0969 -1.6769
 5434SOL    HW321503   2.273   0.464   2.595  0.4219 -0.0958  0.3019
 5434SOL    MW421504   2.308   0.540   2.572  0.1858  0.0022  0.2558
 5435SOL     OW21505   1.215   2.576   2.678  0.1471  0.1389 -0.0536
 5435SOL    HW221506   1.267   2.630   2.619 -0.0622 -0.0162 -0.3796
 5435SOL    HW321507   1.124   2.600   2.659  0.0531 -0.3236 -0.1982
 5435SOL    MW421508   1.210   2.587   2.668  0.1071  0.0574 -0.1157
 5436SOL     OW21509   3.291   1.720   0.089  0.4337 -0.2681  0.1798
 5436SOL    HW221510   3.281   1.790   0.024 -1.0604 -0.5046  0.1025
 5436SOL    HW321511   3.378   1.685   0.073  2.3639  3.2176  1.9224
 5436SOL    MW421512   3.301   1.724   0.078  0.4912  0.1606  0.3995
 5437SOL     OW21513   0.889   0.461   4.077 -0.0680 -0.1518 -0.4721
 5437SOL    HW221514   0.916   0.551   4.058 -0.6013 -0.0792 -0.9298
 5437SOL    HW321515   0.867   0.461   4.170  0.6407  0.0053 -0.3008
 5437SOL    MW421516   0.889   0.473   4.086 -0.0449 -0.1215 -0.5099
 5438SOL     OW21517   0.278   0.268   2.966 -0.0366  0.2533  0.1128
 5438SOL    HW221518   0.329   0.350   2.966 -0.4329  0.5150  0.9492
 5438SOL    HW321519   0.335   0.205   2.922  0.8214  0.6569  0.6052
 5438SOL    MW421520   0.293   0.271   2.960  0.0243  0.3410  0.2881
 5439SOL     OW21521   1.730   4.990   0.875 -0.6820 -0.8734  0.0795
 5439SOL    HW221522   1.778   4.912   0.904  2.2431  0.0903 -1.7204
 5439SOL    HW321523   1.699   4.967   0.787  2.1202  0.5440 -1.4263
 5439SOL    MW421524   1.732   4.977   0.867  0.0737 -0.5592 -0.3566
 5440SOL     OW21525   2.167   3.870   6.312  0.2724  0.1251 -0.5822
 5440SOL    HW221526   2.088   3.921   6.330  0.6867  0.3756  0.6129
 5440SOL    HW321527   2.233   3.936   6.286  1.2137  0.4490  2.3193
 5440SOL    MW421528   2.165   3.886   6.311  0.4513  0.2009 -0.0417
 5441SOL     OW21529   5.543   5.388   3.255  0.3728  0.5598 -0.3971
 5441SOL    HW221530   5.569   5.330   3.183 -1.1905  0.4517 -0.9068
 5441SOL    HW321531   5.471   5.342   3.298  0.2776  1.3320  0.2824
 5441SOL    MW421532   5.537   5.374   3.251  0.1540  0.6475 -0.3747
 5442SOL     OW21533   0.716   4.099   0.237 -0.4059 -0.3567 -0.0315
 5442SOL    HW221534   0.775   4.130   0.305  0.0639  1.4339 -1.1934
 5442SOL    HW321535   0.676   4.020   0.274  0.4298  0.0986  1.9674
 5442SOL    MW421536   0.718   4.092   0.251 -0.2336 -0.0604  0.0789
 5443SOL     OW21537   1.503   1.900   0.906 -0.1147  0.2808 -0.2416
 5443SOL    HW221538   1.568   1.831   0.897  0.3813  0.7486 -0.3200
 5443SOL    HW321539   1.472   1.893   0.996  0.6214  0.5479  0.0377
 5443SOL    MW421540   1.508   1.890   0.917  0.0479  0.3778 -0.2151
 5444SOL     OW21541   2.632   1.786   5.445 -0.1630 -0.7740 -0.1220
 5444SOL    HW221542   2.660   1.705   5.485 -0.7175 -0.9402 -0.0549
 5444SOL    HW321543   2.592   1.759   5.362 -0.2762 -0.5674 -0.1363
 5444SOL    MW421544   2.630   1.772   5.439 -0.2511 -0.7686 -0.1151
 5445SOL     OW21545   2.034   0.992   1.301 -0.1821  0.3437 -0.1818
 5445SOL    HW221546   2.117   0.949   1.279 -0.2459 -0.4325  0.9787
 5445SOL    HW321547   2.058   1.057   1.367 -0.5157 -0.1414  0.4422
 5445SOL    MW421548   2.048   0.995   1.307 -0.2345  0.1773  0.0536
 5446SOL     OW21549   4.859   0.264   0.899 -0.0364 -0.3623  0.7215
 5446SOL    HW221550   4.876   0.189   0.843 -0.6281 -0.3184  0.4804
 5446SOL    HW321551   4.881   0.341   0.845 -1.4075 -0.2851  0.2416
 5446SOL    MW421552   4.864   0.265   0.885 -0.2954 -0.3463  0.6264
 5447SOL     OW21553   2.421   4.806   4.171  0.4678 -0.0534  0.7188
 5447SOL    HW221554   2.389   4.774   4.086 -3.1455 -0.5439  2.0855
 5447SOL    HW321555   2.491   4.745   4.194 -0.4694 -1.7324 -0.6107
 5447SOL    MW421556   2.426   4.794   4.163 -0.1326 -0.3396  0.7237
 5448SOL     OW21557   2.804   4.646   1.895  0.9377  0.1979 -0.0356
 5448SOL    HW221558   2.876   4.585   1.914  1.0171  0.0045 -0.9417
 5448SOL    HW321559   2.728   4.589   1.884  1.0791  0.2220 -1.2270
 5448SOL    MW421560   2.804   4.630   1.896  0.9669  0.1755 -0.3124
 5449SOL     OW21561   0.264   2.196   5.858  0.0643  0.1673 -0.5124
 5449SOL    HW221562   0.175   2.232   5.855 -0.2377 -0.5669 -0.3812
 5449SOL    HW321563   0.294   2.213   5.948 -0.2867 -0.4101 -0.2867
 5449SOL    MW421564   0.256   2.203   5.870 -0.0219 -0.0057 -0.4653
 5450SOL     OW21565   1.156   1.480   4.815 -0.1062 -0.0055 -0.4343
 5450SOL    HW221566   1.136   1.408   4.755  0.1642  0.4330 -1.0559
 5450SOL    HW321567   1.075   1.532   4.817 -0.9500 -1.2522  1.3923
 5450SOL    MW421568   1.143   1.477   4.808 -0.1818 -0.1121 -0.2753
 5451SOL     OW21569   4.189   5.715   4.012  0.2794  0.3970  0.1149
 5451SOL    HW221570   4.114   5.712   4.071  0.2440  3.6878  0.4361
 5451SOL    HW321571   4.154   5.753   3.931  0.9799 -1.1009 -0.9442
 5451SOL    MW421572   4.175   5.720   4.009  0.3672  0.6335  0.0176
 5452SOL     OW21573   0.945   2.349   0.357  0.5612 -0.5178  0.2705
 5452SOL    HW221574   0.985   2.266   0.383 -0.8052 -1.3645 -0.2321
 5452SOL    HW321575   0.883   2.369   0.428  1.3607  0.4453  0.7263
 5452SOL    MW421576   0.942   2.341   0.370  0.4864 -0.5025  0.2643
 5453SOL     OW21577   5.682   1.956   0.712  0.3580 -0.3599  0.0657
 5453SOL    HW221578   5.644   2.026   0.658  0.8602  1.8267  2.3517
 5453SOL    HW321579   5.746   1.913   0.654  0.6082  1.5972 -1.2031
 5453SOL    MW421580   5.686   1.960   0.697  0.4573  0.1868  0.1999
 5454SOL     OW21581   1.251   4.407   2.820  0.2008  0.0354 -0.0320
 5454SOL    HW221582   1.215   4.492   2.796  0.9303  0.4884  0.4183
 5454SOL    HW321583   1.175   4.350   2.830 -0.2691  0.5125 -0.7908
 5454SOL    MW421584   1.236   4.410   2.818  0.2350  0.1581 -0.0727
 5455SOL     OW21585   6.011   3.566   0.047 -0.0872 -0.4929 -0.3406
 5455SOL    HW221586   5.918   3.548   0.036 -0.0446 -1.1015  0.2073
 5455SOL    HW321587   6.014   3.653   0.087 -0.3734 -0.0174 -1.3352
 5455SOL    MW421588   5.999   3.575   0.051 -0.1194 -0.5104 -0.3995
 5456SOL     OW21589   2.375   2.569   5.282  0.0326 -0.7164 -0.3452
 5456SOL    HW221590   2.418   2.563   5.197  0.6938 -1.5364  0.0338
 5456SOL    HW321591   2.354   2.479   5.305  0.3122 -0.5542  0.5853
 5456SOL    MW421592   2.378   2.556   5.274  0.1567 -0.8032 -0.1724
 5457SOL     OW21593   0.617   0.877   4.172  0.0022 -0.1130 -0.4674
 5457SOL    HW221594   0.692   0.870   4.230 -0.7882  0.4093  0.6534
 5457SOL    HW321595   0.592   0.969   4.176  0.7017  0.2449 -2.6678
 5457SOL    MW421596   0.623   0.888   4.180 -0.0098  0.0031 -0.6099
 5458SOL     OW21597   0.051   3.110   5.171 -0.1928 -0.2574 -0.1753
 5458SOL    HW221598   0.076   3.033   5.119 -0.2857 -0.0257 -0.5664
 5458SOL    HW321599  -0.036   3.089   5.204 -0.7244  0.1550 -1.2514
 5458SOL    MW421600   0.043   3.097   5.168 -0.2752 -0.1724 -0.3689
 5459SOL     OW21601   3.618   5.570   3.745  0.1192  0.1347 -0.0659
 5459SOL    HW221602   3.559   5.503   3.779  0.1134  0.2159  0.0820
 5459SOL    HW321603   3.628   5.633   3.816 -0.4962  0.7052 -0.4823
 5459SOL    MW421604   3.612   5.569   3.759  0.0372  0.2207 -0.1013
 5460SOL     OW21605   1.177   5.399   2.792  0.4513  0.0538 -0.1954
 5460SOL    HW221606   1.088   5.364   2.788  0.3443 -0.1422  2.3029
 5460SOL    HW321607   1.210   5.391   2.702 -1.1206 -2.3096 -0.6528
 5460SOL    MW421608   1.170   5.393   2.779  0.2298 -0.2839  0.0739
 5461SOL     OW21609   3.401   6.369   1.470 -0.2155 -0.1752  0.0769
 5461SOL    HW221610   3.486   6.327   1.459 -0.4998 -0.5575 -0.7163
 5461SOL    HW321611   3.398   6.394   1.562 -0.3805 -2.6628  0.7928
 5461SOL    MW421612   3.412   6.367   1.481 -0.2748 -0.5539  0.0667
 5462SOL     OW21613   0.499   2.323   0.373  0.3071  0.2211  0.3869
 5462SOL    HW221614   0.565   2.357   0.313  0.5402 -1.8359 -0.5939
 5462SOL    HW321615   0.546   2.307   0.455  0.8792 -0.5390 -0.0787
 5462SOL    MW421616   0.514   2.325   0.376  0.4133 -0.1506  0.1961
 5463SOL     OW21617   4.413   6.144   0.397  0.0445 -0.3291  0.0206
 5463SOL    HW221618   4.332   6.111   0.435 -0.4713 -1.3852 -1.8629
 5463SOL    HW321619   4.475   6.148   0.470 -0.9846 -1.8793  1.0239
 5463SOL    MW421620   4.410   6.140   0.412 -0.1593 -0.6730 -0.0956
 5464SOL     OW21621   4.487   2.825   1.954  0.0886  0.4782  0.0393
 5464SOL    HW221622   4.435   2.745   1.943 -1.6545  1.6257 -0.5103
 5464SOL    HW321623   4.434   2.880   2.012  1.2764  1.2437  0.4438
 5464SOL    MW421624   4.473   2.822   1.960  0.0153  0.7306  0.0202
 5465SOL     OW21625   1.169   4.758   4.593  0.2560  0.3411 -0.2319
 5465SOL    HW221626   1.214   4.698   4.533 -0.9487  0.0381 -0.8718
 5465SOL    HW321627   1.136   4.828   4.537  1.1480  1.3242  0.4321
 5465SOL    MW421628   1.171   4.759   4.577  0.2148  0.4308 -0.2287
 5466SOL     OW21629   6.326   4.869   0.578 -0.1175  0.2929  0.5418
 5466SOL    HW221630   6.276   4.925   0.638 -0.4013  0.3170  0.2893
 5466SOL    HW321631   6.359   4.798   0.633  3.5935  2.6904  1.7263
 5466SOL    MW421632   6.323   4.867   0.593  0.3346  0.6124  0.6647
 5467SOL     OW21633   3.460   5.002   5.712 -0.7396  0.7370  0.1726
 5467SOL    HW221634   3.474   5.091   5.680  0.5402  0.3244 -0.4512
 5467SOL    HW321635   3.510   4.997   5.793  1.5007 -0.1980 -1.1671
 5467SOL    MW421636   3.468   5.013   5.718 -0.2751  0.5592 -0.0864
 5468SOL     OW21637   0.583   5.758   1.915  0.7425  0.6112  0.0984
 5468SOL    HW221638   0.509   5.705   1.942  1.2569 -0.6235 -0.8118
 5468SOL    HW321639   0.650   5.695   1.889  1.5520  1.6997 -0.5684
 5468SOL    MW421640   0.582   5.743   1.915  0.9172  0.5919 -0.1096
 5469SOL     OW21641   2.769   2.897   1.081 -0.2162  1.2889 -0.3881
 5469SOL    HW221642   2.746   2.990   1.085  1.7821  1.8054  0.4366
 5469SOL    HW321643   2.865   2.896   1.091  0.2536 -0.6386 -3.7293
 5469SOL    MW421644   2.779   2.910   1.083  0.1095  1.1027 -0.7201
 5470SOL     OW21645   1.075   6.382   1.243 -0.1044  0.5930 -0.5540
 5470SOL    HW221646   1.168   6.390   1.221 -0.6097 -0.4069 -3.6658
 5470SOL    HW321647   1.059   6.287   1.243 -1.0300  0.7245  0.6041
 5470SOL    MW421648   1.085   6.370   1.240 -0.2932  0.4784 -0.8118
 5471SOL     OW21649   6.065   4.479   0.282 -0.2070  0.3546 -0.1333
 5471SOL    HW221650   6.150   4.503   0.318 -0.0366 -0.4981  0.0493
 5471SOL    HW321651   6.004   4.542   0.322  0.0506 -0.2427  1.2584
 5471SOL    MW421652   6.068   4.491   0.292 -0.1505  0.1633  0.0744
 5472SOL     OW21653   3.096   3.919   3.803 -0.0375 -0.1029  0.1244
 5472SOL    HW221654   3.127   3.952   3.718 -0.4485 -0.1537 -0.0488
 5472SOL    HW321655   3.175   3.916   3.857  0.4104 -1.0017 -0.5492
 5472SOL    MW421656   3.111   3.923   3.799 -0.0326 -0.2281  0.0127
 5473SOL     OW21657   2.112   2.068   3.702  0.2527 -0.4051  0.3569
 5473SOL    HW221658   2.170   2.144   3.704 -0.1429 -0.0678 -0.6839
 5473SOL    HW321659   2.151   2.007   3.766  2.1817 -0.5014 -0.8188
 5473SOL    MW421660   2.125   2.070   3.711  0.4550 -0.3733  0.0645
 5474SOL     OW21661   0.756   5.172   5.243 -0.1207  0.3156 -0.1174
 5474SOL    HW221662   0.763   5.137   5.332 -2.6523 -2.2180 -0.7628
 5474SOL    HW321663   0.711   5.256   5.253 -0.6204 -0.0752  0.9893
 5474SOL    MW421664   0.751   5.178   5.256 -0.5206 -0.0702 -0.0566
 5475SOL     OW21665   0.696   4.254   5.010 -0.0732 -0.3167  0.5740
 5475SOL    HW221666   0.668   4.228   5.098 -0.7536 -0.5070  0.3088
 5475SOL    HW321667   0.785   4.220   5.002  0.1100 -0.0309  1.2992
 5475SOL    MW421668   0.704   4.246   5.020 -0.1388 -0.3041  0.6347
 5476SOL     OW21669   5.819   1.594   3.726 -0.0462 -0.0585 -0.2632
 5476SOL    HW221670   5.911   1.566   3.731  0.1274  0.6267  0.7579
 5476SOL    HW321671   5.822   1.687   3.747 -0.9497  0.0308 -0.5152
 5476SOL    MW421672   5.832   1.602   3.729 -0.1425  0.0436 -0.1617
 5477SOL     OW21673   5.729   1.182   4.007 -0.1616 -0.1395  0.1372
 5477SOL    HW221674   5.813   1.170   3.963 -0.7611 -0.2816 -1.0220
 5477SOL    HW321675   5.725   1.276   4.025  1.5852 -0.5025  3.0991
 5477SOL    MW421676   5.740   1.193   4.003 -0.0102 -0.2062  0.3751
 5478SOL     OW21677   5.885   4.797   0.580  0.7622 -0.0462  0.2312
 5478SOL    HW221678   5.816   4.731   0.578  1.8525 -1.2209 -0.2409
 5478SOL    HW321679   5.892   4.821   0.673 -0.4227  0.2848  0.2573
 5478SOL    MW421680   5.877   4.792   0.592  0.7497 -0.1575  0.1723
 5479SOL     OW21681   2.567   3.553   3.219  0.2246 -0.1218 -0.2174
 5479SOL    HW221682   2.489   3.571   3.167 -0.6373  1.6578  1.5554
 5479SOL    HW321683   2.616   3.636   3.218  2.1478 -1.2035 -1.2938
 5479SOL    MW421684   2.563   3.567   3.212  0.3646 -0.0297 -0.1255
 5480SOL     OW21685   3.979   4.619   5.466  0.4911  0.2697  0.4854
 5480SOL    HW221686   3.938   4.704   5.452  1.6475  0.7952  0.2135
 5480SOL    HW321687   3.933   4.583   5.542  0.0531  1.1738  0.6618
 5480SOL    MW421688   3.968   4.625   5.474  0.5859  0.4583  0.4728
 5481SOL     OW21689   4.010   1.103   2.335 -0.3109 -0.0685  0.4323
 5481SOL    HW221690   3.998   1.033   2.400 -2.1152  0.1646  0.3842
 5481SOL    HW321691   3.935   1.094   2.276 -0.4425  1.7650  0.2851
 5481SOL    MW421692   3.999   1.093   2.336 -0.5663  0.2042  0.4066
 5482SOL     OW21693   2.309   2.645   2.516 -0.2332  1.0091 -0.2356
 5482SOL    HW221694   2.381   2.680   2.569 -0.2203 -1.2118  1.3258
 5482SOL    HW321695   2.347   2.569   2.472 -1.6230 -0.3303  0.7802
 5482SOL    MW421696   2.324   2.640   2.517 -0.4148  0.5394  0.1044
 5483SOL     OW21697   4.957   3.427   0.013  0.1636 -0.1245  0.1355
 5483SOL    HW221698   4.886   3.491   0.019  0.5064  0.1270  2.0064
 5483SOL    HW321699   4.991   3.438  -0.076 -1.1847  0.7746 -0.3021
 5483SOL    MW421700   4.952   3.437   0.002  0.0309  0.0273  0.3246
 5484SOL     OW21701   5.071   4.793   6.035 -0.2989  0.0443 -0.2202
 5484SOL    HW221702   5.055   4.717   6.091  0.3506  1.8652  2.5822
 5484SOL    HW321703   4.984   4.832   6.023 -0.2030  0.7052  1.1441
 5484SOL    MW421704   5.057   4.788   6.041 -0.2006  0.3717  0.3296
 5485SOL     OW21705   4.832   4.969   2.687 -0.0754 -0.3449 -0.6051
 5485SOL    HW221706   4.873   5.014   2.614 -1.4897 -0.3199 -1.4287
 5485SOL    HW321707   4.820   5.036   2.753  2.2298 -0.5991  0.1560
 5485SOL    MW421708   4.836   4.984   2.686  0.0421 -0.3752 -0.6134
 5486SOL     OW21709   1.137   1.330   6.302  0.3324 -0.0077 -0.7164
 5486SOL    HW221710   1.155   1.237   6.317 -2.0341 -0.4746 -0.3352
 5486SOL    HW321711   1.118   1.364   6.390  1.7737  1.0337 -0.7651
 5486SOL    MW421712   1.137   1.322   6.316  0.2104  0.0681 -0.6725
 5487SOL     OW21713   1.804   0.422   4.134 -0.0724  0.0618 -0.2300
 5487SOL    HW221714   1.876   0.376   4.091 -2.2817 -3.7265 -0.3074
 5487SOL    HW321715   1.769   0.480   4.067  0.0518 -1.5240 -1.7260
 5487SOL    MW421716   1.809   0.423   4.120 -0.3475 -0.6473 -0.4376
 5488SOL     OW21717   1.588   0.808   2.709 -0.2875 -0.5195 -0.3226
 5488SOL    HW221718   1.523   0.830   2.776 -0.2072  0.6985 -0.6232
 5488SOL    HW321719   1.614   0.718   2.729 -2.0459 -1.0346 -0.1769
 5488SOL    MW421720   1.583   0.799   2.720 -0.5089 -0.4268 -0.3430
 5489SOL     OW21721   4.220   1.995   1.630  0.5059  0.7558 -0.5365
 5489SOL    HW221722   4.185   1.979   1.718  1.8295 -0.3466 -0.1758
 5489SOL    HW321723   4.293   2.054   1.644  0.2163  1.2278 -1.0066
 5489SOL    MW421724   4.225   2.000   1.644  0.6423  0.6726 -0.5510
 5490SOL     OW21725   3.504   4.818   0.960 -0.2938  0.7216 -0.1907
 5490SOL    HW221726   3.457   4.901   0.966 -0.8223  0.5013 -1.0176
 5490SOL    HW321727   3.595   4.844   0.945 -0.2071  1.1520  1.0085
 5490SOL    MW421728   3.510   4.833   0.959 -0.3520  0.7494 -0.1416
 5491SOL     OW21729   0.752   1.388   1.543 -0.3365 -0.1155 -0.0060
 5491SOL    HW221730   0.702   1.350   1.615  0.6604 -0.8600  0.3003
 5491SOL    HW321731   0.833   1.339   1.540  0.5822  1.3510 -0.2264
 5491SOL    MW421732   0.756   1.377   1.552 -0.0838 -0.0203  0.0053
 5492SOL     OW21733   0.364   5.637   2.053  0.7093  0.0892  0.2353
 5492SOL    HW221734   0.297   5.705   2.064 -0.2624 -1.0098  1.3879
 5492SOL    HW321735   0.345   5.573   2.121  1.5157 -1.4303 -0.9080
 5492SOL    MW421736   0.353   5.637   2.064  0.6875 -0.2563  0.2365
 5493SOL     OW21737   2.608   3.749   3.836 -0.4901 -0.1990  0.9289
 5493SOL    HW221738   2.687   3.783   3.878 -1.3911  2.1702  0.8724
 5493SOL    HW321739   2.615   3.777   3.745 -0.7604 -1.1675  0.6033
 5493SOL    MW421740   2.619   3.757   3.829 -0.6446 -0.0142  0.8785
 5494SOL     OW21741   2.186   1.182   2.761 -0.5877 -0.9629 -0.2151
 5494SOL    HW221742   2.112   1.196   2.702  0.3508  0.5801 -1.1082
 5494SOL    HW321743   2.171   1.244   2.833  0.8342  0.9263 -1.4510
 5494SOL    MW421744   2.175   1.192   2.763 -0.2763 -0.5101 -0.4960
 5495SOL     OW21745   2.345   1.941   6.346  0.4622 -0.2008  0.3372
 5495SOL    HW221746   2.277   1.964   6.409  0.5163  1.7689 -0.2610
 5495SOL    HW321747   2.424   1.982   6.381  0.5683  0.5826 -0.7670
 5495SOL    MW421748   2.346   1.950   6.359  0.4834  0.1625  0.1126
 5496SOL     OW21749   4.494   2.426   5.449  0.0805 -0.3618  0.0349
 5496SOL    HW221750   4.549   2.481   5.393 -0.4658  0.6294  0.4404
 5496SOL    HW321751   4.422   2.483   5.475 -1.4967 -1.8114 -0.9994
 5496SOL    MW421752   4.492   2.441   5.445 -0.1996 -0.4223 -0.0480
 5497SOL     OW21753   5.260   2.654   5.107  0.3140  0.1706  0.3605
 5497SOL    HW221754   5.336   2.597   5.104  0.5735  0.5037  0.5407
 5497SOL    HW321755   5.273   2.708   5.185  1.3843  2.2731 -1.1632
 5497SOL    MW421756   5.272   2.654   5.117  0.4895  0.4920  0.1832
 5498SOL     OW21757   6.412   3.193   5.514 -0.0442 -0.2912  0.1154
 5498SOL    HW221758   6.416   3.287   5.528 -0.6869 -0.6532  3.4548
 5498SOL    HW321759   6.501   3.169   5.489 -0.2068  1.3051 -2.3378
 5498SOL    MW421760   6.424   3.202   5.512 -0.1505 -0.1284  0.2323
 5499SOL     OW21761   0.177   5.809   1.724 -0.4815 -0.3135  0.2627
 5499SOL    HW221762   0.104   5.871   1.713 -1.4392 -1.2676  1.1194
 5499SOL    HW321763   0.138   5.723   1.714  0.8671 -0.8324 -1.0623
 5499SOL    MW421764   0.162   5.806   1.721 -0.4299 -0.5079  0.2009
 5500SOL     OW21765   6.392   5.483   3.929 -0.2886  0.2319  0.0549
 5500SOL    HW221766   6.477   5.505   3.966 -0.0993  0.6314 -0.6083
 5500SOL    HW321767   6.412   5.434   3.849 -0.6794  0.3584 -0.1224
 5500SOL    MW421768   6.405   5.479   3.923 -0.3152  0.3013 -0.0560
 5501SOL     OW21769   5.707   2.581   5.012  0.2249 -0.4778  0.3527
 5501SOL    HW221770   5.649   2.627   4.951  0.0058 -0.4710  0.5633
 5501SOL    HW321771   5.725   2.644   5.081  0.1257 -0.6247  0.5146
 5501SOL    MW421772   5.701   2.595   5.013  0.1829 -0.4963  0.4019
 5502SOL     OW21773   0.332   4.333   4.836  0.2153  0.1797 -0.1215
 5502SOL    HW221774   0.344   4.374   4.750 -0.3099 -1.1778 -0.8818
 5502SOL    HW321775   0.238   4.332   4.850  0.3255  0.9109  0.7579
 5502SOL    MW421776   0.321   4.338   4.826  0.1606  0.0971 -0.1058
 5503SOL     OW21777   6.270   1.341   6.191 -0.3954 -0.2497 -0.0269
 5503SOL    HW221778   6.351   1.379   6.225 -1.1861  2.3182 -0.8018
 5503SOL    HW321779   6.294   1.251   6.168  1.8850  0.0393  0.9347
 5503SOL    MW421780   6.284   1.334   6.192 -0.1989  0.1272 -0.0022
 5504SOL     OW21781   1.420   2.844   0.423 -0.2629  0.1462 -0.0006
 5504SOL    HW221782   1.439   2.919   0.479  0.8713 -0.4065  0.3840
 5504SOL    HW321783   1.334   2.812   0.453 -0.5735  1.0395  0.0833
 5504SOL    MW421784   1.411   2.850   0.434 -0.1543  0.1911  0.0612
 5505SOL     OW21785   0.658   1.057   1.979 -0.2619  0.5531 -0.5011
 5505SOL    HW221786   0.596   0.990   2.007 -0.4567  0.3547 -1.3555
 5505SOL    HW321787   0.686   1.027   1.892  1.9586 -0.0211  0.3435
 5505SOL    MW421788   0.654   1.044   1.971  0.0054  0.4511 -0.5024
 5506SOL     OW21789   0.987   0.471   2.286  0.0128 -0.1139  0.2332
 5506SOL    HW221790   0.941   0.521   2.354  0.4967  0.8970 -0.1661
 5506SOL    HW321791   1.044   0.535   2.243  0.2246 -0.8868 -0.6743
 5506SOL    MW421792   0.988   0.486   2.289  0.1046 -0.0825  0.0608
 5507SOL     OW21793   2.277   3.165   0.691 -0.5988 -0.1640  0.0124
 5507SOL    HW221794   2.352   3.132   0.741 -0.3744  1.0902  0.5470
 5507SOL    HW321795   2.227   3.216   0.754 -0.0329  1.8895 -1.1060
 5507SOL    MW421796   2.281   3.167   0.706 -0.4946  0.2724 -0.0646
 5508SOL     OW21797   3.464   4.613   1.486 -0.0895 -0.1265 -0.4662
 5508SOL    HW221798   3.540   4.601   1.543 -0.5336 -1.0192 -0.0362
 5508SOL    HW321799   3.393   4.636   1.546 -0.1723  0.6510 -0.8599
 5508SOL    MW421800   3.465   4.614   1.502 -0.1590 -0.1417 -0.4614
 5509SOL     OW21801   2.868   0.651   5.885 -0.3728  0.0457  0.1419
 5509SOL    HW221802   2.913   0.581   5.839 -0.7536 -0.2914  0.2714
 5509SOL    HW321803   2.923   0.728   5.872  1.4346 -0.7976  2.1380
 5509SOL    MW421804   2.881   0.652   5.877 -0.1846 -0.1100  0.4223
 5510SOL     OW21805   2.483   4.580   0.715  0.2552 -0.6296 -0.3901
 5510SOL    HW221806   2.395   4.563   0.681  0.1830  1.2194 -1.3053
 5510SOL    HW321807   2.505   4.667   0.680  1.6572 -0.1907  1.4281
 5510SOL    MW421808   2.475   4.589   0.706  0.4306 -0.3277 -0.2710
 5511SOL     OW21809   4.466   1.317   5.961 -0.6918 -0.1925 -0.0519
 5511SOL    HW221810   4.420   1.388   5.917  0.8544  0.6016 -0.4604
 5511SOL    HW321811   4.401   1.247   5.969 -1.4820  0.2491 -2.0966
 5511SOL    MW421812   4.451   1.317   5.957 -0.5921 -0.0294 -0.3756
 5512SOL     OW21813   4.625   4.756   0.544  0.2839 -0.3362 -0.5305
 5512SOL    HW221814   4.558   4.729   0.481  0.1076 -0.3129 -0.3539
 5512SOL    HW321815   4.609   4.849   0.558 -2.2658 -1.0431  2.5666
 5512SOL    MW421816   4.614   4.764   0.538 -0.0757 -0.4264 -0.0986
 5513SOL     OW21817   2.753   3.667   1.719 -0.4705 -0.5471 -0.5960
 5513SOL    HW221818   2.692   3.725   1.763 -0.1737 -0.0127 -0.8850
 5513SOL    HW321819   2.739   3.581   1.760  0.0120 -0.0050  0.7525
 5513SOL    MW421820   2.743   3.663   1.730 -0.3677 -0.4051 -0.4562
 5514SOL     OW21821   2.692   3.805   3.117 -0.4131 -0.3193 -0.0754
 5514SOL    HW221822   2.643   3.862   3.176 -0.1636  0.5202 -0.6754
 5514SOL    HW321823   2.784   3.824   3.135 -0.3348  0.2675 -1.0320
 5514SOL    MW421824   2.697   3.815   3.127 -0.3699 -0.1311 -0.2808
 5515SOL     OW21825   2.657   2.936   2.993  0.1230 -0.2131  0.3749
 5515SOL    HW221826   2.604   2.908   3.067 -0.8075 -1.2330 -0.6439
 5515SOL    HW321827   2.706   3.012   3.026 -0.4266 -0.5072  1.9483
 5515SOL    MW421828   2.657   2.943   3.007 -0.0722 -0.3865  0.4481
 5516SOL     OW21829   5.512   4.613   0.142  0.0945 -0.1986 -0.1504
 5516SOL    HW221830   5.604   4.592   0.162  0.8661  1.1369 -2.0105
 5516SOL    HW321831   5.498   4.579   0.054 -0.9426  0.3825 -0.2237
 5516SOL    MW421832   5.522   4.606   0.133  0.0595  0.0543 -0.4055
 5517SOL     OW21833   3.244   6.057   3.027 -0.1695  0.5360 -0.1872
 5517SOL    HW221834   3.193   6.081   3.105 -1.1057 -1.0987 -0.2433
 5517SOL    HW321835   3.332   6.041   3.059 -0.7520 -1.0225  0.7435
 5517SOL    MW421836   3.249   6.058   3.041 -0.3699  0.1147 -0.0718
 5518SOL     OW21837   4.199   3.049   6.348  0.2106 -0.1368 -0.0343
 5518SOL    HW221838   4.278   3.058   6.295  0.2246 -1.1250 -0.2105
 5518SOL    HW321839   4.139   3.115   6.312 -0.8654 -2.6182 -3.3637
 5518SOL    MW421840   4.201   3.059   6.336  0.0705 -0.5945 -0.4968
 5519SOL     OW21841   1.809   1.506   3.264  0.0873  0.0118 -1.4114
 5519SOL    HW221842   1.720   1.508   3.299  1.2527 -0.0082  1.9233
 5519SOL    HW321843   1.809   1.570   3.194 -1.9072  2.1168  0.3627
 5519SOL    MW421844   1.798   1.514   3.260 -0.0221  0.2869 -0.7373
 5520SOL     OW21845   0.990   1.745   0.037  0.5594 -0.6787 -0.5036
 5520SOL    HW221846   1.071   1.792   0.018  0.6243 -1.1797 -1.5020
 5520SOL    HW321847   0.954   1.790   0.113  1.5666 -0.1978 -0.2946
 5520SOL    MW421848   0.996   1.757   0.045  0.7009 -0.6814 -0.6077
 5521SOL     OW21849   1.605   4.496   4.462 -0.5768 -0.4084 -0.0723
 5521SOL    HW221850   1.658   4.426   4.501  0.2544 -0.7859 -1.8123
 5521SOL    HW321851   1.664   4.571   4.460 -1.0111 -0.0453  0.4766
 5521SOL    MW421852   1.620   4.497   4.467 -0.5245 -0.4103 -0.2294
 5522SOL     OW21853   2.917   5.193   6.381  0.0065 -0.2864 -0.1177
 5522SOL    HW221854   2.969   5.192   6.301  0.8384  2.1648  0.3050
 5522SOL    HW321855   2.829   5.219   6.352  0.0633 -0.3626 -0.3581
 5522SOL    MW421856   2.912   5.197   6.367  0.1238  0.0270 -0.0937
 5523SOL     OW21857   2.003   1.564   0.094 -0.0780  0.5290  0.2145
 5523SOL    HW221858   2.029   1.601   0.010  2.1088 -0.8768  0.1966
 5523SOL    HW321859   2.026   1.631   0.158  0.4764  0.6561 -0.1146
 5523SOL    MW421860   2.009   1.578   0.091  0.2837  0.3603  0.1687
 5524SOL     OW21861   6.049   4.192   0.429  0.1738  1.0947  0.5425
 5524SOL    HW221862   6.090   4.129   0.370 -0.8838  1.0072 -0.1246
 5524SOL    HW321863   6.039   4.146   0.512  0.3857  0.7442  0.3718
 5524SOL    MW421864   6.053   4.178   0.432  0.0622  1.0369  0.4320
 5525SOL     OW21865   4.660   2.088   1.316  0.2369 -0.0866  0.0194
 5525SOL    HW221866   4.711   2.094   1.397  1.6159 -0.7800 -0.7571
 5525SOL    HW321867   4.602   2.013   1.330  0.3923 -0.1337  0.4267
 5525SOL    MW421868   4.659   2.079   1.329  0.4394 -0.1843 -0.0293
 5526SOL     OW21869   4.292   4.295   0.137  0.3655 -0.4943  0.0707
 5526SOL    HW221870   4.229   4.307   0.066  0.0568  1.1610  0.5667
 5526SOL    HW321871   4.352   4.228   0.105  0.8441  0.9234 -2.2292
 5526SOL    MW421872   4.292   4.288   0.124  0.3879 -0.0889 -0.1673
 5527SOL     OW21873   5.897   4.220   5.034 -0.3371  0.5057 -0.3780
 5527SOL    HW221874   5.862   4.247   4.949 -4.2145 -2.1339  0.1348
 5527SOL    HW321875   5.836   4.256   5.098  0.3691 -0.6586  1.0128
 5527SOL    MW421876   5.884   4.228   5.031 -0.7555  0.0038 -0.1268
 5528SOL     OW21877   3.168   3.661   4.678 -0.3245  0.0635  0.0687
 5528SOL    HW221878   3.101   3.704   4.625  0.3860  1.0158 -0.0804
 5528SOL    HW321879   3.183   3.577   4.634  1.4709  1.4984 -2.3151
 5528SOL    MW421880   3.161   3.656   4.665  0.0061  0.3784 -0.2655
 5529SOL     OW21881   3.149   1.517   1.060 -0.1715 -0.1906  0.1134
 5529SOL    HW221882   3.062   1.478   1.062 -0.2987  0.0676 -0.4301
 5529SOL    HW321883   3.175   1.523   1.152 -1.6906  1.9342  0.4558
 5529SOL    MW421884   3.141   1.512   1.073 -0.3887  0.1238  0.0869
 5530SOL     OW21885   4.585   4.320   0.471 -0.0139 -0.3875 -0.5014
 5530SOL    HW221886   4.664   4.349   0.516  1.0649 -1.3454 -1.7194
 5530SOL    HW321887   4.550   4.251   0.526 -0.6374  0.7594  0.5959
 5530SOL    MW421888   4.591   4.315   0.484  0.0462 -0.3625 -0.5173
 5531SOL     OW21889   3.171   4.982   1.607  0.3105  0.1488  0.4777
 5531SOL    HW221890   3.228   4.997   1.683  1.8976  0.1908 -0.6679
 5531SOL    HW321891   3.216   5.026   1.535 -0.5980 -0.8280 -0.7154
 5531SOL    MW421892   3.185   4.990   1.608  0.4000  0.0255  0.1691
 5532SOL     OW21893   4.918   3.484   2.784 -0.0252  0.2955  0.6061
 5532SOL    HW221894   5.013   3.479   2.776 -0.2537 -0.7390 -2.3197
 5532SOL    HW321895   4.890   3.394   2.801 -0.5801  0.4107  0.3217
 5532SOL    MW421896   4.927   3.471   2.785 -0.1285  0.1742  0.1825
 5533SOL     OW21897   5.072   3.946   0.544 -0.4050 -0.1997 -0.6511
 5533SOL    HW221898   5.127   4.023   0.531 -1.0938  0.4300  0.1022
 5533SOL    HW321899   5.091   3.917   0.633 -1.3355  0.0657 -0.3549
 5533SOL    MW421900   5.082   3.952   0.554 -0.6186 -0.0816 -0.5127
 5534SOL     OW21901   5.773   0.703   2.531  0.3478  0.2821 -0.1318
 5534SOL    HW221902   5.760   0.736   2.442  1.8809  0.5208 -0.2909
 5534SOL    HW321903   5.784   0.609   2.521 -0.6616  0.1429 -0.0462
 5534SOL    MW421904   5.773   0.695   2.518  0.4169  0.2952 -0.1415
 5535SOL     OW21905   4.940   0.970   3.330 -0.2546 -0.1069  0.2873
 5535SOL    HW221906   4.894   0.890   3.355 -1.0565  0.2659  0.0331
 5535SOL    HW321907   4.962   0.958   3.238 -1.6453  0.5281 -0.1644
 5535SOL    MW421908   4.937   0.958   3.321 -0.5439  0.0261  0.1942
 5536SOL     OW21909   2.672   2.973   1.563  0.3259  0.5082  0.1018
 5536SOL    HW221910   2.657   2.916   1.487 -1.2439  1.1498 -0.0978
 5536SOL    HW321911   2.764   2.998   1.555  0.9495 -1.6216 -0.0420
 5536SOL    MW421912   2.683   2.969   1.552  0.2011  0.3118  0.0565
 5537SOL     OW21913   4.149   1.348   1.407 -0.8837  0.3076 -0.0557
 5537SOL    HW221914   4.100   1.337   1.488 -0.5980 -1.1259 -0.0558
 5537SOL    HW321915   4.082   1.355   1.339 -1.1305 -0.7924  0.0471
 5537SOL    MW421916   4.134   1.347   1.409 -0.8786 -0.0266 -0.0421
 5538SOL     OW21917   5.142   2.624   2.723  0.0881  0.1820  0.2394
 5538SOL    HW221918   5.096   2.598   2.643 -0.0733 -1.0971  0.7176
 5538SOL    HW321919   5.161   2.717   2.711 -1.9057  0.5760 -0.3223
 5538SOL    MW421920   5.138   2.633   2.711 -0.1962  0.0652  0.2284
 5539SOL     OW21921   1.945   4.653   0.532 -0.7971 -0.8211 -0.3849
 5539SOL    HW221922   1.854   4.674   0.512 -0.5538  1.2948  0.4441
 5539SOL    HW321923   1.946   4.637   0.627 -0.0441  1.0348 -0.0395
 5539SOL    MW421924   1.933   4.653   0.542 -0.6657 -0.2970 -0.2300
 5540SOL     OW21925   1.873   4.944   4.599  0.1362  0.7091  0.4916
 5540SOL    HW221926   1.890   4.907   4.685  0.4101 -0.0368  0.1249
 5540SOL    HW321927   1.952   4.924   4.548 -0.4314  0.2393 -0.2290
 5540SOL    MW421928   1.886   4.937   4.603  0.0974  0.5487  0.3481
 5541SOL     OW21929   5.370   1.428   6.322  0.1002  0.2785  0.2297
 5541SOL    HW221930   5.452   1.458   6.283 -0.1700 -0.6828 -1.1539
 5541SOL    HW321931   5.374   1.333   6.315 -0.3916  0.1168  1.7426
 5541SOL    MW421932   5.381   1.420   6.316 -0.0004  0.1303  0.2467
 5542SOL     OW21933   0.687   0.833   3.871  0.0446 -0.3735 -0.3566
 5542SOL    HW221934   0.694   0.737   3.873 -0.2675 -0.3844  0.8634
 5542SOL    HW321935   0.691   0.859   3.963 -1.1733  0.7010 -0.5899
 5542SOL    MW421936   0.689   0.824   3.884 -0.1573 -0.2331 -0.2264
 5543SOL     OW21937   1.707   3.095   2.461 -0.2956  1.2307  0.0764
 5543SOL    HW221938   1.648   3.070   2.531 -1.8557  1.4677 -1.0997
 5543SOL    HW321939   1.766   3.020   2.452 -2.3903 -0.4455 -0.7569
 5543SOL    MW421940   1.707   3.082   2.469 -0.7778  1.0408 -0.1887
 5544SOL     OW21941   5.685   2.328   1.004  0.2374  0.2096  0.0361
 5544SOL    HW221942   5.693   2.233   1.009  1.0085  0.2867  0.3874
 5544SOL    HW321943   5.667   2.355   1.095 -0.1637  0.3859 -0.0934
 5544SOL    MW421944   5.683   2.319   1.017  0.2862  0.2430  0.0653
 5545SOL     OW21945   3.044   4.204   4.751 -0.2389 -0.6980 -0.1931
 5545SOL    HW221946   3.105   4.274   4.730 -0.2082 -0.7470 -0.2673
 5545SOL    HW321947   2.958   4.239   4.728 -0.2183 -0.7032 -0.2782
 5545SOL    MW421948   3.041   4.218   4.745 -0.2321 -0.7052 -0.2142
 5546SOL     OW21949   2.421   5.752   4.502  0.1625 -0.3456 -0.2654
 5546SOL    HW221950   2.501   5.748   4.450  0.9375  0.7085  0.8000
 5546SOL    HW321951   2.354   5.785   4.442  0.5690 -0.9696 -1.0839
 5546SOL    MW421952   2.422   5.756   4.487  0.3184 -0.2889 -0.2328
 5547SOL     OW21953   4.028   4.777   4.896 -0.5344  0.5470 -0.1182
 5547SOL    HW221954   3.996   4.857   4.937  0.4727  0.3770  1.0394
 5547SOL    HW321955   4.123   4.782   4.903 -0.4328 -0.4648 -0.5720
 5547SOL    MW421956   4.036   4.788   4.902 -0.3881  0.3911 -0.0253
 5548SOL     OW21957   3.638   4.648   4.030  0.3616  0.1275 -0.7972
 5548SOL    HW221958   3.701   4.696   3.976  1.3941 -1.2709 -0.8659
 5548SOL    HW321959   3.649   4.686   4.118  0.0031  1.1093 -1.1566
 5548SOL    MW421960   3.648   4.660   4.035  0.4505  0.0725 -0.8536
 5549SOL     OW21961   3.774   2.391   0.750 -0.1289 -0.6396  0.3732
 5549SOL    HW221962   3.847   2.338   0.717 -0.5864 -0.6615 -0.6498
 5549SOL    HW321963   3.777   2.379   0.845  1.0377 -0.8389  0.3340
 5549SOL    MW421964   3.784   2.382   0.758 -0.0353 -0.6688  0.2330
 5550SOL     OW21965   3.717   5.174   3.847 -0.0358 -0.6169 -0.7719
 5550SOL    HW221966   3.644   5.234   3.862  0.8985  0.7359 -1.4741
 5550SOL    HW321967   3.706   5.145   3.756 -0.2864 -1.2686 -0.5433
 5550SOL    MW421968   3.706   5.178   3.837  0.0544 -0.5244 -0.8344
 5551SOL     OW21969   6.161   1.908   5.635  0.2494  0.2090  0.2903
 5551SOL    HW221970   6.215   1.885   5.559  0.5535 -0.2980  0.6518
 5551SOL    HW321971   6.169   1.832   5.693 -1.2318 -0.0941  0.1537
 5551SOL    MW421972   6.169   1.895   5.632  0.0941  0.1021  0.3200
 5552SOL     OW21973   5.271   1.068   2.011 -0.1724  0.5272  0.3894
 5552SOL    HW221974   5.261   1.135   2.078  0.2570  0.0420  0.9598
 5552SOL    HW321975   5.203   1.003   2.032  0.4756 -0.0203  0.8627
 5552SOL    MW421976   5.261   1.068   2.023 -0.0303  0.3910  0.5271
 5553SOL     OW21977   5.454   1.955   1.410  0.1704 -0.3373  0.0766
 5553SOL    HW221978   5.513   1.928   1.340  0.1850 -1.9346  0.6702
 5553SOL    HW321979   5.367   1.934   1.377  0.1567 -0.8233  0.4235
 5553SOL    MW421980   5.450   1.949   1.396  0.1705 -0.6122  0.2007
 5554SOL     OW21981   5.807   3.038   1.595 -0.8026  0.3741  0.0449
 5554SOL    HW221982   5.777   3.111   1.648  1.4758  0.8967  0.7248
 5554SOL    HW321983   5.802   2.962   1.653 -1.8351  0.2297 -0.2150
 5554SOL    MW421984   5.803   3.038   1.609 -0.6382  0.4240  0.1003
 5555SOL     OW21985   1.437   5.576   5.733  0.2586 -0.1400  0.6977
 5555SOL    HW221986   1.396   5.496   5.700  0.2872 -0.0790  0.5116
 5555SOL    HW321987   1.409   5.644   5.671  1.1641 -0.2148  0.1915
 5555SOL    MW421988   1.428   5.574   5.720  0.3819 -0.1418  0.6064
 5556SOL     OW21989   5.611   3.743   1.174  0.0257 -0.0168  0.2886
 5556SOL    HW221990   5.519   3.760   1.155 -0.1977 -1.3003  0.0811
 5556SOL    HW321991   5.658   3.817   1.136 -0.8628  0.2387 -0.3404
 5556SOL    MW421992   5.605   3.755   1.167 -0.1210 -0.1525  0.1782
 5557SOL     OW21993   4.494   2.722   1.199  0.4826 -0.0172  0.0343
 5557SOL    HW221994   4.408   2.712   1.241  0.4810 -1.1056 -0.1921
 5557SOL    HW321995   4.474   2.741   1.108  0.4829  2.6605  0.5082
 5557SOL    MW421996   4.480   2.723   1.193  0.4824  0.1925  0.0669
 5558SOL     OW21997   1.881   2.179   3.756 -0.3962  0.0679  0.2010
 5558SOL    HW221998   1.961   2.129   3.738  1.7410  2.3343  2.6326
 5558SOL    HW321999   1.828   2.121   3.810  1.2189 -0.3114  1.4551
 5558SOL    MW422000   1.884   2.165   3.761  0.0988  0.3168  0.6872
 5559SOL     OW22001   6.172   3.089   3.888  0.6004 -0.1659 -0.1577
 5559SOL    HW222002   6.203   3.136   3.965  2.5786  0.4511 -1.2611
 5559SOL    HW322003   6.219   3.006   3.890  2.6893  0.8444 -1.9347
 5559SOL    MW422004   6.183   3.084   3.898  1.1370  0.0488 -0.5377
 5560SOL     OW22005   3.656   4.835   0.036  0.1168  0.1890  0.6193
 5560SOL    HW222006   3.693   4.821   0.123  2.0355  0.2820 -0.1285
 5560SOL    HW322007   3.611   4.753   0.016 -0.2302  0.1186  1.6393
 5560SOL    MW422008   3.655   4.822   0.045  0.3242  0.1920  0.6552
 5561SOL     OW22009   5.643   6.145   1.946 -0.4838  0.3199 -0.4889
 5561SOL    HW222010   5.618   6.094   2.023 -0.2758 -0.3929 -0.8823
 5561SOL    HW322011   5.641   6.236   1.976 -2.0710  0.1952 -0.0919
 5561SOL    MW422012   5.639   6.150   1.960 -0.6657  0.2094 -0.4884
 5562SOL     OW22013   4.643   4.590   1.171  0.2496 -0.3330  0.3552
 5562SOL    HW222014   4.651   4.572   1.077  1.2752  0.9924  0.1546
 5562SOL    HW322015   4.550   4.610   1.184  0.2515  0.3900 -0.5835
 5562SOL    MW422016   4.632   4.591   1.160  0.3852 -0.0628  0.2049
 5563SOL     OW22017   2.770   5.628   4.118 -0.3402  0.2449  0.3694
 5563SOL    HW222018   2.779   5.537   4.147  0.8335  1.1256  3.1825
 5563SOL    HW322019   2.856   5.667   4.133 -0.2636  1.4433 -2.5572
 5563SOL    MW422020   2.783   5.621   4.124 -0.1752  0.5192  0.3544
 5564SOL     OW22021   1.747   2.147   0.265  0.7289 -0.3434  0.1487
 5564SOL    HW222022   1.762   2.142   0.170  0.6385  0.4511  0.0876
 5564SOL    HW322023   1.738   2.240   0.283 -3.1246 -0.5785  0.3262
 5564SOL    MW422024   1.748   2.159   0.254  0.2085 -0.2696  0.1641
 5565SOL     OW22025   3.166   0.239   2.945 -0.0889  0.3836 -0.2816
 5565SOL    HW222026   3.093   0.200   2.897 -1.3693  0.0829  1.7622
 5565SOL    HW322027   3.236   0.174   2.939 -0.8474 -0.4648 -0.2316
 5565SOL    MW422028   3.166   0.225   2.938 -0.3579  0.2320 -0.0053
 5566SOL     OW22029   0.507   1.359   1.413 -0.0840 -0.3054 -0.1534
 5566SOL    HW222030   0.599   1.370   1.435  0.1342  0.8039 -1.4669
 5566SOL    HW322031   0.506   1.340   1.319 -1.1787 -0.6097 -0.1013
 5566SOL    MW422032   0.519   1.358   1.403 -0.1997 -0.1992 -0.3198
 5567SOL     OW22033   4.372   5.069   5.822 -0.6995 -0.1007 -0.5459
 5567SOL    HW222034   4.352   5.056   5.915  0.3069 -0.4507 -0.3683
 5567SOL    HW322035   4.327   4.997   5.777 -2.5285  0.9705 -0.5283
 5567SOL    MW422036   4.363   5.058   5.829 -0.8080 -0.0055 -0.5202
 5568SOL     OW22037   6.393   2.974   3.276 -0.0835  0.2715 -0.3252
 5568SOL    HW222038   6.305   2.991   3.243  0.0913  0.8211 -0.5060
 5568SOL    HW322039   6.441   2.937   3.202 -0.4194 -0.9166  0.0249
 5568SOL    MW422040   6.388   2.971   3.262 -0.1048  0.1872 -0.3029
 5569SOL     OW22041   0.052   2.366   5.544  0.3674 -0.6742 -0.4094
 5569SOL    HW222042   0.031   2.303   5.613  2.2501 -0.5936  0.2939
 5569SOL    HW322043   0.116   2.321   5.489 -1.3822 -0.8854 -2.4046
 5569SOL    MW422044   0.058   2.352   5.546  0.3850 -0.6914 -0.5799
 5570SOL     OW22045   5.413   2.157   1.972 -0.0778 -0.4360 -0.5103
 5570SOL    HW222046   5.481   2.217   1.942  0.9580 -1.1420  0.3640
 5570SOL    HW322047   5.339   2.174   1.914  0.5026  1.0273 -0.8740
 5570SOL    MW422048   5.412   2.167   1.960  0.1354 -0.3361 -0.4430
 5571SOL     OW22049   1.071   5.874   2.923 -0.3787 -0.7625 -0.7261
 5571SOL    HW222050   1.157   5.878   2.882 -0.2718  0.8704 -0.3914
 5571SOL    HW322051   1.087   5.836   3.010  0.2788  0.9411 -0.0596
 5571SOL    MW422052   1.084   5.869   2.929 -0.2778 -0.3223 -0.5940
 5572SOL     OW22053   1.973   3.864   4.689  0.6103 -0.2498 -0.1492
 5572SOL    HW222054   2.001   3.781   4.729 -0.2204  0.3481  1.8252
 5572SOL    HW322055   1.888   3.844   4.649 -1.2588  0.2248  3.1566
 5572SOL    MW422056   1.965   3.851   4.689  0.2541 -0.1083  0.5474
 5573SOL     OW22057   3.575   0.225   1.428 -0.4244 -0.2500 -0.0378
 5573SOL    HW222058   3.489   0.252   1.396  0.1166  0.9185 -0.5739
 5573SOL    HW322059   3.611   0.304   1.470  0.7848 -0.4112 -0.7071
 5573SOL    MW422060   3.569   0.239   1.429 -0.1935 -0.1171 -0.1968
 5574SOL     OW22061   1.407   4.027   1.481  0.2430 -0.2906 -0.6579
 5574SOL    HW222062   1.398   4.037   1.386  0.6157  0.1736 -0.6491
 5574SOL    HW322063   1.430   4.114   1.512 -2.4573  0.2307  0.1841
 5574SOL    MW422064   1.409   4.040   1.473 -0.0641 -0.1606 -0.5456
 5575SOL     OW22065   1.077   2.505   4.996  0.1113  0.1144  0.5266
 5575SOL    HW222066   1.014   2.501   5.067 -0.2434  1.6268  0.3250
 5575SOL    HW322067   1.158   2.537   5.038  0.4232 -0.7011  0.5668
 5575SOL    MW422068   1.080   2.509   5.011  0.1056  0.2063  0.5053
 5576SOL     OW22069   1.161   2.130   3.602  0.5076 -0.1281  0.2845
 5576SOL    HW222070   1.190   2.048   3.643 -0.2918 -0.0727  0.9974
 5576SOL    HW322071   1.066   2.126   3.607  0.4250  0.2664 -0.8569
 5576SOL    MW422072   1.152   2.119   3.608  0.3912 -0.0687  0.2280
 5577SOL     OW22073   2.140   1.456   4.912  0.7022 -0.8328  0.2641
 5577SOL    HW222074   2.211   1.391   4.915  0.6713 -0.8560  2.0725
 5577SOL    HW322075   2.107   1.459   5.002 -0.7057  0.1695 -0.2494
 5577SOL    MW422076   2.145   1.448   4.925  0.5123 -0.7036  0.4350
 5578SOL     OW22077   1.766   5.191   4.696  0.3389  0.0631  0.2213
 5578SOL    HW222078   1.790   5.099   4.686 -0.6805 -0.2524  0.6219
 5578SOL    HW322079   1.746   5.201   4.789  1.1463  0.8719  0.3208
 5578SOL    MW422080   1.766   5.180   4.707  0.3109  0.1282  0.2873
 5579SOL     OW22081   5.723   5.384   3.456 -0.1454  0.4376 -0.4693
 5579SOL    HW222082   5.690   5.385   3.366 -0.6962  0.0179 -0.2736
 5579SOL    HW322083   5.727   5.477   3.481 -0.5269  0.5294 -0.7354
 5579SOL    MW422084   5.719   5.397   3.447 -0.2684  0.3944 -0.4786
 5580SOL     OW22085   1.830   5.681   0.059  0.1219  0.2632  0.3507
 5580SOL    HW222086   1.800   5.766   0.028 -1.6687 -0.0827  0.9962
 5580SOL    HW322087   1.925   5.691   0.068  0.1360  1.7310 -0.9095
 5580SOL    MW422088   1.839   5.694   0.056 -0.1125  0.4112  0.2696
 5581SOL     OW22089   2.628   0.692   2.736 -0.0562 -0.2688  0.4024
 5581SOL    HW222090   2.719   0.721   2.738 -0.3631  0.6680  1.3195
 5581SOL    HW322091   2.577   0.773   2.737 -0.9028 -0.7693 -0.7465
 5581SOL    MW422092   2.634   0.707   2.736 -0.2084 -0.2112  0.3718
 5582SOL     OW22093   5.213   2.934   0.503  0.4709 -0.3744 -0.1888
 5582SOL    HW222094   5.274   2.921   0.575  0.1854  2.2391  0.6576
 5582SOL    HW322095   5.137   2.882   0.526  1.2108 -1.2620  0.2960
 5582SOL    MW422096   5.211   2.926   0.516  0.5309 -0.1467 -0.0131
 5583SOL     OW22097   3.529   5.411   5.732 -0.0998 -0.2451  0.0228
 5583SOL    HW222098   3.442   5.396   5.770 -0.1472  1.8267  0.8835
 5583SOL    HW322099   3.589   5.366   5.792 -0.4238  0.3480  0.8214
 5583SOL    MW422100   3.525   5.403   5.745 -0.1488  0.1065  0.2417
 5584SOL     OW22101   0.645   5.408   5.327  0.4998 -0.7565 -0.1641
 5584SOL    HW222102   0.676   5.429   5.415  0.7499 -1.5478 -0.0542
 5584SOL    HW322103   0.695   5.466   5.269 -0.1591  0.2516  0.2577
 5584SOL    MW422104   0.656   5.419   5.331  0.4458 -0.7279 -0.0939
 5585SOL     OW22105   5.283   6.203   6.345  0.1073  0.0961  0.5019
 5585SOL    HW222106   5.334   6.136   6.301 -0.0834  0.3284 -0.0763
 5585SOL    HW322107   5.285   6.178   6.438  0.0198 -0.7104  0.2897
 5585SOL    MW422108   5.290   6.191   6.352  0.0706  0.0204  0.3976
 5586SOL     OW22109   3.860   6.161   2.891  0.3193  0.1110 -0.1555
 5586SOL    HW222110   3.870   6.194   2.802  1.4500 -2.3856 -1.0665
 5586SOL    HW322111   3.876   6.067   2.883  0.8961 -0.1363  2.7639
 5586SOL    MW422112   3.864   6.153   2.878  0.5446 -0.2511  0.1095
 5587SOL     OW22113   5.184   0.833   2.282  0.0810 -0.6102 -0.4375
 5587SOL    HW222114   5.131   0.856   2.206  0.0964  1.4366  0.1208
 5587SOL    HW322115   5.124   0.839   2.356  0.8197  0.8131  0.0868
 5587SOL    MW422116   5.169   0.837   2.281  0.1805 -0.1524 -0.2947
 5588SOL     OW22117   3.623   4.446   3.389  0.5836  0.3357  0.2507
 5588SOL    HW222118   3.557   4.382   3.365  0.0462  0.8819  0.2476
 5588SOL    HW322119   3.646   4.425   3.479  0.6318 -0.0471  0.1493
 5588SOL    MW422120   3.617   4.435   3.398  0.5190  0.3572  0.2369
 5589SOL     OW22121   5.882   5.406   5.782  0.1096 -0.4110 -0.0206
 5589SOL    HW222122   5.793   5.398   5.817  0.1834  1.0207  0.5734
 5589SOL    HW322123   5.915   5.316   5.779 -0.3157 -0.7320  2.5702
 5589SOL    MW422124   5.875   5.393   5.787  0.0632 -0.2644  0.3996
 5590SOL     OW22125   4.554   0.900   4.362 -0.5808  0.2537  0.0019
 5590SOL    HW222126   4.553   0.836   4.291 -0.9443  0.8128 -0.5076
 5590SOL    HW322127   4.596   0.977   4.325  2.6643 -0.6260  1.4912
 5590SOL    MW422128   4.559   0.902   4.348 -0.2006  0.2114  0.1311
 5591SOL     OW22129   4.144   1.034   4.981  0.0654  0.1761 -0.1813
 5591SOL    HW222130   4.174   0.989   4.902 -1.4518 -0.5493 -0.3664
 5591SOL    HW322131   4.086   0.972   5.024  1.2894  0.3284  1.8352
 5591SOL    MW422132   4.140   1.020   4.976  0.0267  0.1005  0.0603
 5592SOL     OW22133   2.128   2.550   3.601  0.4714 -0.4695  0.5552
 5592SOL    HW222134   2.192   2.614   3.571  0.6521 -0.4652  0.9414
 5592SOL    HW322135   2.161   2.466   3.570 -0.4619 -0.2544 -1.1300
 5592SOL    MW422136   2.140   2.548   3.593  0.3721 -0.4405  0.3838
 5593SOL     OW22137   1.461   2.425   2.407  0.3705 -0.0338 -0.3789
 5593SOL    HW222138   1.536   2.440   2.465 -0.3311  0.6436  0.3951
 5593SOL    HW322139   1.404   2.366   2.456 -0.5010  1.0020 -0.1165
 5593SOL    MW422140   1.463   2.419   2.421  0.1629  0.1922 -0.2422
 5594SOL     OW22141   3.169   1.574   4.005  0.0023 -0.3001 -0.0615
 5594SOL    HW222142   3.222   1.627   3.945 -0.9074  0.0998 -0.5288
 5594SOL    HW322143   3.148   1.495   3.956 -0.3679 -0.1740 -0.1051
 5594SOL    MW422144   3.173   1.571   3.991 -0.1665 -0.2307 -0.1289
 5595SOL     OW22145   4.031   6.143   2.416 -0.0783  0.1487  0.3700
 5595SOL    HW222146   4.010   6.235   2.402  0.4275  0.2057 -0.0147
 5595SOL    HW322147   3.981   6.119   2.494 -0.5967  0.6146  0.1875
 5595SOL    MW422148   4.022   6.152   2.424 -0.0800  0.2177  0.2952
 5596SOL     OW22149   6.255   1.753   1.612  0.2439 -0.1441  0.5271
 5596SOL    HW222150   6.277   1.731   1.703  0.4258  1.3623  0.8648
 5596SOL    HW322151   6.160   1.745   1.609  0.2741 -0.6786  0.7007
 5596SOL    MW422152   6.245   1.749   1.624  0.2719 -0.0159  0.5945
 5597SOL     OW22153   0.482   4.439   3.391  0.2958 -0.4828 -0.4205
 5597SOL    HW222154   0.548   4.414   3.327  1.3960 -0.3449  0.6394
 5597SOL    HW322155   0.410   4.378   3.376  0.9101 -1.0384 -1.1823
 5597SOL    MW422156   0.481   4.428   3.381  0.5220 -0.5379 -0.3812
 5598SOL     OW22157   4.256   3.822   5.481 -0.0249  0.1380  0.2778
 5598SOL    HW222158   4.234   3.898   5.427 -1.7917  0.2666  1.1056
 5598SOL    HW322159   4.223   3.747   5.432 -1.6316  0.2551  1.1016
 5598SOL    MW422160   4.249   3.822   5.468 -0.4700  0.1704  0.4957
 5599SOL     OW22161   4.364   5.869   4.484  0.2538 -0.0316 -0.0814
 5599SOL    HW222162   4.354   5.876   4.389  0.8444 -0.3534 -0.1736
 5599SOL    HW322163   4.382   5.958   4.513 -1.7107  0.4025 -0.0282
 5599SOL    MW422164   4.365   5.882   4.475  0.0726 -0.0168 -0.0865
 5600SOL     OW22165   2.171   4.476   3.940 -0.5143  0.2169 -0.1912
 5600SOL    HW222166   2.260   4.444   3.956  0.6607  3.5799  0.9075
 5600SOL    HW322167   2.126   4.464   4.024 -0.5191  0.1568 -0.2025
 5600SOL    MW422168   2.177   4.470   3.953 -0.3599  0.6527 -0.0477
 5601SOL     OW22169   0.962   5.271   0.552  0.4679 -0.0627  0.4205
 5601SOL    HW222170   0.982   5.189   0.596  0.6269 -0.4391 -0.3385
 5601SOL    HW322171   1.033   5.282   0.488 -0.5330 -0.2709 -0.7608
 5601SOL    MW422172   0.974   5.262   0.549  0.3568 -0.1399  0.1645
 5602SOL     OW22173   2.357   6.373   0.011  0.2484 -0.2768  0.4850
 5602SOL    HW222174   2.426   6.410   0.066  0.9418 -1.2486  0.2879
 5602SOL    HW322175   2.369   6.416  -0.074 -0.3275  0.6346  0.8416
 5602SOL    MW422176   2.368   6.384   0.007  0.2639 -0.2847  0.5060
 5603SOL     OW22177   0.733   0.275   3.650  0.0717  0.6676  0.1707
 5603SOL    HW222178   0.660   0.320   3.693 -1.2766 -0.8698 -0.3605
 5603SOL    HW322179   0.800   0.267   3.718  0.0876  2.7761  0.4595
 5603SOL    MW422180   0.732   0.280   3.664 -0.1041  0.7429  0.1387
 5604SOL     OW22181   0.560   4.427   3.884  0.1611 -0.0719  0.0930
 5604SOL    HW222182   0.465   4.416   3.891  0.0675  0.5967 -0.1368
 5604SOL    HW322183   0.573   4.477   3.804  0.7548 -0.7442 -0.2447
 5604SOL    MW422184   0.549   4.432   3.874  0.2271 -0.0724  0.0181
 5605SOL     OW22185   1.109   3.785   3.826  0.4937 -0.0911 -0.3418
 5605SOL    HW222186   1.150   3.854   3.877  1.2705 -0.4596 -0.4589
 5605SOL    HW322187   1.181   3.728   3.799  0.2876  0.6579 -2.7296
 5605SOL    MW422188   1.124   3.787   3.829  0.5690 -0.0409 -0.6723
 5606SOL     OW22189   5.115   2.637   2.255 -0.3040 -0.3198  0.1674
 5606SOL    HW222190   5.201   2.659   2.290 -1.0906  0.9333  1.4490
 5606SOL    HW322191   5.082   2.720   2.220 -0.8280 -0.8785 -0.7063
 5606SOL    MW422192   5.122   2.651   2.255 -0.4769 -0.2282  0.2212
 5607SOL     OW22193   2.734   4.280   2.586 -0.0655 -0.4901 -0.4587
 5607SOL    HW222194   2.721   4.229   2.666 -0.6933  0.0779 -0.1891
 5607SOL    HW322195   2.794   4.228   2.534 -0.7161 -1.5297 -0.1980
 5607SOL    MW422196   2.740   4.266   2.590 -0.2341 -0.5523 -0.3887
 5608SOL     OW22197   6.079   1.542   6.218  0.4897  0.0803 -0.1843
 5608SOL    HW222198   6.148   1.477   6.230  0.0338 -0.3405  0.2156
 5608SOL    HW322199   6.110   1.597   6.146  0.6643 -0.8801 -0.8589
 5608SOL    MW422200   6.092   1.540   6.210  0.4526 -0.1019 -0.2205
 5609SOL     OW22201   0.315   2.428   3.568 -0.2683  0.2876  0.1290
 5609SOL    HW222202   0.330   2.522   3.552 -1.7032  0.5803  0.3506
 5609SOL    HW322203   0.241   2.426   3.629  0.5786 -0.9810  1.1531
 5609SOL    MW422204   0.307   2.440   3.574 -0.3459  0.1588  0.2934
 5610SOL     OW22205   1.784   2.785   5.805 -0.3388  0.9603  0.1525
 5610SOL    HW222206   1.739   2.852   5.856 -0.4068  0.0690  1.3166
 5610SOL    HW322207   1.779   2.706   5.859 -0.8028 -0.1618 -1.4318
 5610SOL    MW422208   1.778   2.783   5.819 -0.4090  0.6946  0.0970
 5611SOL     OW22209   3.200   6.037   4.405 -0.6374  0.4654 -0.0136
 5611SOL    HW222210   3.270   6.096   4.435 -0.9701  1.1156 -0.5059
 5611SOL    HW322211   3.163   6.002   4.486 -0.3752  0.8549  0.2804
 5611SOL    MW422212   3.205   6.040   4.420 -0.6467  0.6026 -0.0398
 5612SOL     OW22213   3.797   4.466   6.291  0.0608  0.0829  0.1005
 5612SOL    HW222214   3.708   4.450   6.322  0.8154 -2.7210  1.0506
 5612SOL    HW322215   3.820   4.551   6.328 -0.8742 -0.8734  3.1586
 5612SOL    MW422216   3.788   4.475   6.300  0.0370 -0.4132  0.6294
 5613SOL     OW22217   0.192   5.496   6.181  0.3993 -0.1218 -0.2565
 5613SOL    HW222218   0.218   5.407   6.202  0.9231 -0.0650 -0.6371
 5613SOL    HW322219   0.114   5.512   6.234 -0.7207 -1.3991 -1.4367
 5613SOL    MW422220   0.185   5.487   6.191  0.3206 -0.2829 -0.4624
 5614SOL     OW22221   6.198   3.980   1.404 -0.0879  0.2378 -0.6609
 5614SOL    HW222222   6.280   4.004   1.361  0.8771 -0.4646  0.6925
 5614SOL    HW322223   6.209   3.887   1.424  0.2745  0.8832  2.6081
 5614SOL    MW422224   6.210   3.971   1.401  0.0872  0.2303 -0.0510
 5615SOL     OW22225   1.421   3.426   4.505  0.1369 -0.4288  0.1602
 5615SOL    HW222226   1.329   3.411   4.485  0.5246 -0.4190 -1.8019
 5615SOL    HW322227   1.438   3.515   4.474  1.3683 -1.2988 -1.8481
 5615SOL    MW422228   1.411   3.436   4.498  0.3506 -0.5423 -0.3637
 5616SOL     OW22229   6.198   5.587   1.396 -0.1992  0.3760 -0.1750
 5616SOL    HW222230   6.162   5.502   1.371  2.0714 -0.3514 -1.2119
 5616SOL    HW322231   6.245   5.617   1.318  3.0500  0.3074  1.5882
 5616SOL    MW422232   6.200   5.579   1.382  0.5290  0.2710 -0.0792
 5617SOL     OW22233   1.696   1.721   0.916  0.0786 -0.1787 -0.4040
 5617SOL    HW222234   1.722   1.640   0.871 -0.3427 -0.7984  0.4366
 5617SOL    HW322235   1.761   1.732   0.984 -0.5984 -0.5498  0.3248
 5617SOL    MW422236   1.708   1.711   0.919 -0.0663 -0.3094 -0.1969
 5618SOL     OW22237   0.865   1.545   1.043  0.0423  0.1777  0.1786
 5618SOL    HW222238   0.787   1.594   1.067  0.5223  1.5987 -0.9613
 5618SOL    HW322239   0.834   1.476   0.984 -0.4922 -0.0985  0.7798
 5618SOL    MW422240   0.851   1.542   1.038  0.0351  0.3287  0.1075
 5619SOL     OW22241   3.511   2.123   1.986  0.3130 -0.8185  0.1792
 5619SOL    HW222242   3.495   2.112   2.080 -0.3748  1.4251  0.3701
 5619SOL    HW322243   3.448   2.189   1.959 -0.5599 -2.5259 -2.2266
 5619SOL    MW422244   3.501   2.130   1.995  0.1071 -0.7478 -0.1130
 5620SOL     OW22245   2.986   2.867   4.722  0.1355  0.7839 -0.2721
 5620SOL    HW222246   3.021   2.840   4.807  0.8550  1.2073 -0.4260
 5620SOL    HW322247   3.063   2.875   4.666 -0.1164  2.3425 -0.4526
 5620SOL    MW422248   3.001   2.865   4.726  0.1972  1.0454 -0.3162
 5621SOL     OW22249   5.430   1.490   2.025 -0.6595  0.2529  0.4928
 5621SOL    HW222250   5.495   1.556   2.047 -1.5724  1.3606 -0.0219
 5621SOL    HW322251   5.438   1.478   1.930 -0.8690  0.0332  0.4993
 5621SOL    MW422252   5.439   1.497   2.016 -0.8076  0.3701  0.4258
 5622SOL     OW22253   4.152   2.544   1.440 -0.7856  0.7963 -0.4907
 5622SOL    HW222254   4.059   2.542   1.462 -0.5303  0.2380  0.6376
 5622SOL    HW322255   4.184   2.458   1.466  0.4739  1.7254  1.3058
 5622SOL    MW422256   4.144   2.532   1.447 -0.5858  0.8452 -0.1048
 5623SOL     OW22257   1.765   4.425   0.346  0.1357  0.3230 -0.9261
 5623SOL    HW222258   1.762   4.344   0.397 -0.7833  0.6518 -0.4297
 5623SOL    HW322259   1.857   4.434   0.321  0.7838  0.5141  1.2728
 5623SOL    MW422260   1.777   4.415   0.350  0.1000  0.3916 -0.5705
 5624SOL     OW22261   1.281   2.285   2.701 -0.6364 -0.3066 -0.2651
 5624SOL    HW222262   1.244   2.372   2.685  1.5814  0.6913 -0.3671
 5624SOL    HW322263   1.299   2.284   2.795  1.3307  0.2903 -0.5643
 5624SOL    MW422264   1.279   2.297   2.711 -0.0843 -0.0962 -0.3180
 5625SOL     OW22265   3.116   1.411   3.614 -0.2150  0.1554  0.5009
 5625SOL    HW222266   3.057   1.485   3.601 -0.5962  0.4246  3.0789
 5625SOL    HW322267   3.065   1.334   3.590 -1.5923  0.4108  2.3990
 5625SOL    MW422268   3.102   1.411   3.609 -0.4470  0.2246  1.0914
 5626SOL     OW22269   5.611   0.111   0.531 -0.0660 -0.2944  0.5815
 5626SOL    HW222270   5.541   0.140   0.590  0.8284  0.6965  1.1908
 5626SOL    HW322271   5.576   0.126   0.443  0.4034  3.0263  0.8370
 5626SOL    MW422272   5.597   0.117   0.527  0.1140  0.2745  0.6956
 5627SOL     OW22273   2.616   4.376   1.323  0.1408 -0.4398 -0.6631
 5627SOL    HW222274   2.609   4.288   1.358  2.1816 -0.6760 -0.7436
 5627SOL    HW322275   2.625   4.364   1.228 -1.6412  0.0113 -0.9426
 5627SOL    MW422276   2.616   4.363   1.315  0.1750 -0.4114 -0.7106
 5628SOL     OW22277   2.785   3.657   4.689 -0.6701  0.0518 -0.1523
 5628SOL    HW222278   2.705   3.649   4.637  0.1381 -0.3256 -1.3934
 5628SOL    HW322279   2.850   3.690   4.627  0.1371  0.3729  0.8406
 5628SOL    MW422280   2.783   3.661   4.674 -0.4569  0.0444 -0.1850
 5629SOL     OW22281   3.927   1.344   0.827  0.0695 -0.0593  0.0354
 5629SOL    HW222282   3.970   1.420   0.790 -0.2282  0.2369  0.2940
 5629SOL    HW322283   3.999   1.288   0.858  0.3729 -0.7649 -1.8307
 5629SOL    MW422284   3.942   1.346   0.826  0.0702 -0.1133 -0.1767
 5630SOL     OW22285   0.027   2.281   0.915 -0.2586 -0.3791  0.2582
 5630SOL    HW222286   0.067   2.331   0.844  0.4777 -0.4453  0.6109
 5630SOL    HW322287  -0.058   2.321   0.928 -0.0229  0.2298 -0.0415
 5630SOL    MW422288   0.021   2.293   0.907 -0.1304 -0.3075  0.2652
 5631SOL     OW22289   6.090   5.211   3.278 -0.1630 -0.3413  0.6534
 5631SOL    HW222290   6.179   5.234   3.305 -0.1986  0.1022  0.4044
 5631SOL    HW322291   6.074   5.265   3.201 -0.6507 -0.4111  0.7049
 5631SOL    MW422292   6.100   5.221   3.272 -0.2321 -0.2920  0.6274
 5632SOL     OW22293   2.916   4.716   5.556 -0.1668  0.8486  0.7394
 5632SOL    HW222294   2.909   4.643   5.495  1.4463  2.7092 -1.8780
 5632SOL    HW322295   3.009   4.721   5.577 -0.4057  1.5190  1.7239
 5632SOL    MW422296   2.927   4.707   5.551  0.0145  1.1825  0.5240
 5633SOL     OW22297   3.122   4.692   1.258  0.0602 -0.2037  0.1998
 5633SOL    HW222298   3.170   4.765   1.297  1.1416 -0.8710  0.1416
 5633SOL    HW322299   3.085   4.645   1.332 -0.3305  0.1868  0.2561
 5633SOL    MW422300   3.123   4.695   1.273  0.1514 -0.2403  0.1995
 5634SOL     OW22301   0.155   1.839   5.236 -0.0536  0.1630 -0.0009
 5634SOL    HW222302   0.186   1.751   5.260 -1.0749 -0.2037  0.0367
 5634SOL    HW322303   0.196   1.857   5.152 -1.1354 -1.0900 -0.8437
 5634SOL    MW422304   0.164   1.829   5.228 -0.3311 -0.0507 -0.1071
 5635SOL     OW22305   0.254   2.429   0.368  0.1835  0.1127 -0.4016
 5635SOL    HW222306   0.235   2.427   0.462  2.5776 -0.0031  0.1454
 5635SOL    HW322307   0.342   2.393   0.361  0.9019  2.0834 -2.4893
 5635SOL    MW422308   0.263   2.424   0.380  0.5941  0.3575 -0.6049
 5636SOL     OW22309   2.006   5.857   3.399  0.1868  0.0112  0.1041
 5636SOL    HW222310   1.942   5.822   3.461  0.6139 -1.1946 -0.1090
 5636SOL    HW322311   1.974   5.945   3.379 -0.2462  0.2235  1.6139
 5636SOL    MW422312   1.993   5.864   3.404  0.1860 -0.1199  0.2752
 5637SOL     OW22313   4.315   6.336   1.666 -0.0184 -0.1555 -0.1653
 5637SOL    HW222314   4.303   6.244   1.690 -2.3800  0.4368  1.2399
 5637SOL    HW322315   4.394   6.363   1.713 -0.3640 -0.9930  0.9531
 5637SOL    MW422316   4.324   6.327   1.675 -0.3756 -0.1879  0.1677
 5638SOL     OW22317   3.699   4.178   5.259 -0.7301  0.2262 -0.0794
 5638SOL    HW222318   3.701   4.083   5.264 -1.7069  0.2045  0.0928
 5638SOL    HW322319   3.661   4.197   5.173 -1.0987  0.4509  0.1307
 5638SOL    MW422320   3.695   4.168   5.248 -0.9076  0.2530 -0.0290
 5639SOL     OW22321   0.974   1.468   2.743  0.2409 -0.1818  0.6373
 5639SOL    HW222322   0.964   1.384   2.698  1.6626  0.0215 -0.0933
 5639SOL    HW322323   1.068   1.481   2.750  0.1627  2.3889 -1.2892
 5639SOL    MW422324   0.985   1.459   2.738  0.4182  0.1842  0.2867
 5640SOL     OW22325   3.272   0.859   0.519  0.0545  0.4091 -0.2156
 5640SOL    HW222326   3.358   0.833   0.484  0.2017  1.2111 -0.4745
 5640SOL    HW322327   3.220   0.779   0.516  0.3858  0.2148 -1.3341
 5640SOL    MW422328   3.277   0.845   0.514  0.1177  0.4893 -0.3974
 5641SOL     OW22329   5.868   5.062   4.765 -0.4818 -0.3366  0.0400
 5641SOL    HW222330   5.794   5.122   4.772 -1.7935 -1.6679 -1.5995
 5641SOL    HW322331   5.917   5.093   4.688  1.8302  1.6296  2.1122
 5641SOL    MW422332   5.865   5.074   4.756 -0.3498 -0.2528  0.0971
 5642SOL     OW22333   3.624   2.913   1.522 -0.1458  0.1128 -0.0459
 5642SOL    HW222334   3.623   2.920   1.427 -0.2013  0.9223  0.0150
 5642SOL    HW322335   3.715   2.930   1.546 -0.1244 -0.1256  0.0472
 5642SOL    MW422336   3.636   2.916   1.513 -0.1503  0.1882 -0.0256
 5643SOL     OW22337   4.211   6.136   4.960 -0.0929  0.3108 -0.1854
 5643SOL    HW222338   4.116   6.145   4.957 -0.4427 -2.4312 -2.7003
 5643SOL    HW322339   4.229   6.099   5.047 -1.5557 -0.7405 -0.2968
 5643SOL    MW422340   4.201   6.132   4.971 -0.3320 -0.1897 -0.5319
 5644SOL     OW22341   2.319   1.560   2.052 -0.3634 -0.2075  0.0692
 5644SOL    HW222342   2.310   1.648   2.015 -0.1587  0.7144  2.0833
 5644SOL    HW322343   2.230   1.523   2.047 -0.2679 -0.2836 -1.6314
 5644SOL    MW422344   2.306   1.567   2.047 -0.3238 -0.0959  0.1106
 5645SOL     OW22345   5.302   6.278   4.815  0.4115 -0.3050  0.7389
 5645SOL    HW222346   5.237   6.234   4.870 -0.1018 -2.4429 -1.4081
 5645SOL    HW322347   5.268   6.367   4.804 -2.6303 -1.5182 -0.8624
 5645SOL    MW422348   5.289   6.284   4.821 -0.0576 -0.7471  0.2444
 5646SOL     OW22349   5.553   1.396   4.591 -0.8042  0.0333  0.3541
 5646SOL    HW222350   5.627   1.454   4.609 -1.3071  0.9081 -0.3215
 5646SOL    HW322351   5.525   1.365   4.677  0.9837 -1.1365  0.5617
 5646SOL    MW422352   5.559   1.400   4.605 -0.6346 -0.0056  0.2923
 5647SOL     OW22353   4.780   2.362   2.280 -0.6826 -0.1205  0.5376
 5647SOL    HW222354   4.818   2.437   2.235 -0.8239  0.2614  1.0524
 5647SOL    HW322355   4.709   2.399   2.333 -1.2714 -0.7189  0.1870
 5647SOL    MW422356   4.776   2.377   2.281 -0.7789 -0.1490  0.5592
 5648SOL     OW22357   2.552   5.659   1.911 -0.2861 -0.6901 -0.3533
 5648SOL    HW222358   2.520   5.719   1.979  0.2287 -1.3477  0.4843
 5648SOL    HW322359   2.645   5.681   1.901 -0.4917 -0.1770 -1.3119
 5648SOL    MW422360   2.560   5.670   1.919 -0.2453 -0.7092 -0.3693
 5649SOL     OW22361   4.359   3.491   4.548 -0.0529 -0.3283 -0.2787
 5649SOL    HW222362   4.362   3.557   4.618  0.7342 -0.5055 -0.1340
 5649SOL    HW322363   4.371   3.408   4.594  1.3882 -0.3789 -0.7003
 5649SOL    MW422364   4.361   3.489   4.564  0.2411 -0.3583 -0.3152
 5650SOL     OW22365   4.383   3.054   0.128 -0.0476  0.4937  0.2639
 5650SOL    HW222366   4.298   3.047   0.084 -0.5374  0.3018  1.2272
 5650SOL    HW322367   4.446   3.025   0.061 -0.9032 -1.1618  0.1145
 5650SOL    MW422368   4.380   3.049   0.113 -0.2251  0.2500  0.3713
 5651SOL     OW22369   4.986   2.282   0.853 -0.1846  0.0705  0.0703
 5651SOL    HW222370   4.985   2.356   0.793  0.7312  0.5589  0.6198
 5651SOL    HW322371   5.053   2.223   0.817 -0.5011 -0.2119 -0.0529
 5651SOL    MW422372   4.995   2.284   0.841 -0.1055  0.0977  0.1266
 5652SOL     OW22373   4.713   1.757   0.516 -0.3422  0.2763 -0.1963
 5652SOL    HW222374   4.735   1.804   0.596 -2.0864  0.6245  0.1178
 5652SOL    HW322375   4.618   1.758   0.513 -0.3352 -0.5706 -1.7909
 5652SOL    MW422376   4.704   1.763   0.526 -0.5714  0.2105 -0.3652
 5653SOL     OW22377   3.827   1.118   2.080  0.4421  0.9625 -0.2721
 5653SOL    HW222378   3.736   1.110   2.052  0.5766  1.8790 -1.0419
 5653SOL    HW322379   3.875   1.135   1.999  1.6449 -1.6553 -0.2002
 5653SOL    MW422380   3.821   1.119   2.066  0.6185  0.7381 -0.3642
 5654SOL     OW22381   4.160   1.837   3.476  0.3090 -0.2928 -0.1994
 5654SOL    HW222382   4.242   1.794   3.450  0.1868 -0.0148 -1.0880
 5654SOL    HW322383   4.163   1.922   3.432 -0.4104 -0.2471 -0.1603
 5654SOL    MW422384   4.171   1.842   3.467  0.1980 -0.2501 -0.3115
 5655SOL     OW22385   5.364   3.248   3.710 -0.4246 -0.0568 -0.2505
 5655SOL    HW222386   5.335   3.286   3.793  0.1054  0.3805 -0.2632
 5655SOL    HW322387   5.409   3.167   3.735 -0.9709 -0.3450 -0.1768
 5655SOL    MW422388   5.366   3.242   3.724 -0.4267 -0.0371 -0.2425
 5656SOL     OW22389   1.259   5.405   0.669  0.8567 -0.6480  0.7297
 5656SOL    HW222390   1.216   5.395   0.754  0.7524 -3.0362  0.4524
 5656SOL    HW322391   1.350   5.381   0.685  1.3530  1.0252  0.5863
 5656SOL    MW422392   1.265   5.401   0.682  0.9084 -0.7423  0.6742
 5657SOL     OW22393   0.302   2.895   2.641 -0.6811  0.3512 -0.0775
 5657SOL    HW222394   0.325   2.986   2.662 -0.6510  0.4070 -0.3520
 5657SOL    HW322395   0.323   2.886   2.548  1.7608 -0.6502  0.4718
 5657SOL    MW422396   0.308   2.906   2.632 -0.3550  0.2264 -0.0412
 5658SOL     OW22397   1.177   1.458   3.448 -0.2823  0.1140 -0.4002
 5658SOL    HW222398   1.223   1.540   3.466 -1.0888  0.6868 -0.8765
 5658SOL    HW322399   1.105   1.456   3.511 -0.5084 -0.0141 -0.6565
 5658SOL    MW422400   1.174   1.469   3.459 -0.4185  0.1726 -0.4969
 5659SOL     OW22401   0.875   0.457   5.855 -0.7355 -0.0004 -0.1814
 5659SOL    HW222402   0.908   0.547   5.864  0.0834 -0.2908 -0.2215
 5659SOL    HW322403   0.809   0.450   5.924  0.9318 -0.1307  1.5017
 5659SOL    MW422404   0.871   0.468   5.865 -0.4074 -0.0559  0.0354
 5660SOL     OW22405   1.116   0.059   0.404 -0.2461  0.3821 -0.6557
 5660SOL    HW222406   1.068   0.045   0.322  0.0556 -3.0844 -0.3881
 5660SOL    HW322407   1.056   0.111   0.458 -3.0608 -2.1681 -1.0276
 5660SOL    MW422408   1.102   0.064   0.400 -0.5777 -0.4117 -0.6694
 5661SOL     OW22409   1.704   1.079   3.589 -0.3450 -0.4306  0.4214
 5661SOL    HW222410   1.649   1.012   3.549  0.3868 -1.2624  0.7864
 5661SOL    HW322411   1.676   1.082   3.681 -2.0696  1.5230 -0.0715
 5661SOL    MW422412   1.693   1.071   3.596 -0.4760 -0.2826  0.4045
 5662SOL     OW22413   2.775   3.340   3.243  0.5572 -0.3441 -0.1624
 5662SOL    HW222414   2.691   3.386   3.242  0.2156 -0.8975  0.9912
 5662SOL    HW322415   2.840   3.409   3.228 -0.0976  0.0565 -1.3174
 5662SOL    MW422416   2.773   3.355   3.241  0.4257 -0.3643 -0.1626
 5663SOL     OW22417   5.249   5.549   2.129  0.2674  0.1573  0.3382
 5663SOL    HW222418   5.242   5.599   2.047  0.1987 -0.8455 -0.2837
 5663SOL    HW322419   5.273   5.615   2.195 -1.0946  1.2321 -0.1940
 5663SOL    MW422420   5.251   5.564   2.127  0.0786  0.1668  0.1859
 5664SOL     OW22421   1.599   1.130   4.080 -0.1597 -0.4354  0.1631
 5664SOL    HW222422   1.517   1.154   4.122  0.1725 -0.0729  0.6227
 5664SOL    HW322423   1.652   1.210   4.086  0.9854 -1.2700  1.7177
 5664SOL    MW422424   1.595   1.144   4.086  0.0352 -0.4977  0.4289
 5665SOL     OW22425   1.196   3.151   4.189 -0.6668 -0.5615 -0.6074
 5665SOL    HW222426   1.176   3.121   4.100 -0.7833 -0.8783 -0.4768
 5665SOL    HW322427   1.227   3.241   4.177  1.3109 -1.2660 -1.1809
 5665SOL    MW422428   1.197   3.159   4.176 -0.4212 -0.6962 -0.6659
 5666SOL     OW22429   0.615   5.092   4.517 -0.1875 -0.0395  0.2010
 5666SOL    HW222430   0.619   5.121   4.608  0.3356  0.3100  0.0687
 5666SOL    HW322431   0.683   5.143   4.472  0.0799 -0.7679 -0.2329
 5666SOL    MW422432   0.624   5.103   4.523 -0.0832 -0.0895  0.1263
 5667SOL     OW22433   5.676   6.066   6.335  0.4168  0.1792  0.3253
 5667SOL    HW222434   5.666   5.982   6.380 -0.7290 -0.1700 -0.5248
 5667SOL    HW322435   5.677   6.131   6.406 -3.6899 -0.1275  0.9283
 5667SOL    MW422436   5.675   6.064   6.351 -0.2762  0.0926  0.2927
 5668SOL     OW22437   1.872   0.296   3.620  0.5375 -0.1034 -0.0211
 5668SOL    HW222438   1.864   0.208   3.655 -1.5722 -0.6977 -1.7643
 5668SOL    HW322439   1.809   0.299   3.548  0.1767  2.9805  0.2826
 5668SOL    MW422440   1.863   0.285   3.615  0.2116  0.2251 -0.2110
 5669SOL     OW22441   1.655   1.000   1.317 -0.4098  0.3930 -0.0155
 5669SOL    HW222442   1.718   1.006   1.245 -0.3789  0.2963  0.0032
 5669SOL    HW322443   1.655   1.088   1.356 -0.0363  0.3045  0.1928
 5669SOL    MW422444   1.663   1.013   1.313 -0.3564  0.3685  0.0145
 5670SOL     OW22445   0.764   4.444   3.564  0.1533 -0.2241 -0.0277
 5670SOL    HW222446   0.809   4.416   3.485 -0.9598  0.0947 -0.8006
 5670SOL    HW322447   0.674   4.459   3.536  0.3744  2.8750  0.5705
 5670SOL    MW422448   0.758   4.443   3.550  0.0356  0.2268 -0.0508
 5671SOL     OW22449   3.695   5.663   2.024 -0.0500  0.3484 -0.1797
 5671SOL    HW222450   3.735   5.751   2.026  1.8703 -0.4542 -0.9184
 5671SOL    HW322451   3.765   5.606   1.993 -1.7800 -1.1924 -1.4896
 5671SOL    MW422452   3.709   5.667   2.020 -0.0249  0.0392 -0.4500
 5672SOL     OW22453   3.803   2.448   1.969 -0.6049 -0.0192  0.0720
 5672SOL    HW222454   3.815   2.427   1.877 -0.2478 -1.2717  0.3906
 5672SOL    HW322455   3.708   2.447   1.983 -0.6544  0.1183 -0.2590
 5672SOL    MW422456   3.792   2.445   1.959 -0.5643 -0.1663  0.0704
 5673SOL     OW22457   1.632   2.238   4.567  0.8174 -0.1299  0.5593
 5673SOL    HW222458   1.713   2.285   4.586  1.3736 -0.9234  0.2164
 5673SOL    HW322459   1.593   2.286   4.494 -0.2179  1.6195  2.1382
 5673SOL    MW422460   1.638   2.251   4.560  0.7542 -0.0038  0.7224
 5674SOL     OW22461   5.222   2.509   2.018 -0.0061 -0.0577  0.0537
 5674SOL    HW222462   5.257   2.438   2.072 -1.7215  1.5319  3.5295
 5674SOL    HW322463   5.184   2.571   2.080  0.1982  3.3201 -2.8545
 5674SOL    MW422464   5.222   2.508   2.033 -0.2055  0.5977  0.1286
 5675SOL     OW22465   1.366   5.387   1.516  0.0644 -0.1636 -0.0876
 5675SOL    HW222466   1.456   5.410   1.540  0.2768  0.2473 -1.2370
 5675SOL    HW322467   1.343   5.448   1.447  0.0608 -2.2689 -2.0839
 5675SOL    MW422468   1.375   5.398   1.510  0.0919 -0.3872 -0.5027
 5676SOL     OW22469   2.654   5.850   0.995  0.4778 -0.1266 -1.0035
 5676SOL    HW222470   2.694   5.933   0.970 -0.0080 -0.4140 -2.9091
 5676SOL    HW322471   2.560   5.867   0.992  0.3892 -0.5125 -0.5092
 5676SOL    MW422472   2.647   5.863   0.991  0.4020 -0.2154 -1.1897
 5677SOL     OW22473   0.611   5.369   3.541 -0.0663 -0.0942  0.6549
 5677SOL    HW222474   0.602   5.290   3.594 -2.2820 -0.3921 -0.0727
 5677SOL    HW322475   0.543   5.362   3.474 -0.7782  2.6990  0.9263
 5677SOL    MW422476   0.601   5.358   3.540 -0.4526  0.2350  0.5947
 5678SOL     OW22477   2.184   0.235   1.710  0.3836 -0.3848 -0.0010
 5678SOL    HW222478   2.264   0.286   1.699  1.4166 -1.6708  1.2386
 5678SOL    HW322479   2.128   0.289   1.766 -0.3310  1.2272 -2.1526
 5678SOL    MW422480   2.187   0.249   1.716  0.4256 -0.3418 -0.1213
 5679SOL     OW22481   1.131   3.484   6.070  0.5707  0.5337  0.5330
 5679SOL    HW222482   1.085   3.566   6.054  1.2839  0.7041 -0.7401
 5679SOL    HW322483   1.062   3.418   6.076 -0.0645  1.2867  2.2540
 5679SOL    MW422484   1.116   3.486   6.069  0.5810  0.6555  0.5921
 5680SOL     OW22485   3.580   2.170   2.572 -0.4039 -0.0008  0.4685
 5680SOL    HW222486   3.497   2.218   2.565 -0.9502 -0.9604  0.1881
 5680SOL    HW322487   3.557   2.079   2.551  0.7598 -0.2423  0.1847
 5680SOL    MW422488   3.566   2.164   2.568 -0.3224 -0.1592  0.3940
 5681SOL     OW22489   5.021   5.069   2.061  0.1280  0.4089 -0.0932
 5681SOL    HW222490   4.951   5.031   2.008 -1.0489  1.5276  0.6038
 5681SOL    HW322491   5.036   5.156   2.022  1.0432  0.2427 -0.1440
 5681SOL    MW422492   5.014   5.076   2.048  0.0935  0.5346 -0.0079
 5682SOL     OW22493   1.280   3.118   3.540 -0.2898  0.3971 -0.3241
 5682SOL    HW222494   1.294   3.114   3.634  1.0003 -0.4390 -0.5390
 5682SOL    HW322495   1.364   3.096   3.501 -0.6819  1.1301 -1.6886
 5682SOL    MW422496   1.293   3.115   3.547 -0.1713  0.3835 -0.5325
 5683SOL     OW22497   3.894   5.933   1.782 -0.1403  0.7920 -0.7227
 5683SOL    HW222498   3.866   5.938   1.873  1.5417 -1.0134 -0.0325
 5683SOL    HW322499   3.824   5.885   1.737 -0.4012  0.6044 -0.1168
 5683SOL    MW422500   3.881   5.928   1.788  0.0472  0.5291 -0.5517
 5684SOL     OW22501   5.535   4.488   2.196 -0.4012  0.0890  0.1549
 5684SOL    HW222502   5.520   4.426   2.125 -1.9522 -0.6997  1.1300
 5684SOL    HW322503   5.549   4.433   2.273  0.2689  0.9442  0.6634
 5684SOL    MW422504   5.535   4.473   2.197 -0.5174  0.0978  0.3507
 5685SOL     OW22505   2.664   3.593   2.402  0.2716  0.6759 -0.6578
 5685SOL    HW222506   2.757   3.571   2.408  0.1391  0.4064  0.9870
 5685SOL    HW322507   2.623   3.543   2.473 -1.1410  0.7588 -1.3820
 5685SOL    MW422508   2.671   3.584   2.413  0.0677  0.6512 -0.5363
 5686SOL     OW22509   2.021   1.254   4.729 -0.4243  0.2869  0.3511
 5686SOL    HW222510   2.075   1.315   4.780 -0.3209 -0.9591  1.8138
 5686SOL    HW322511   2.084   1.204   4.677 -0.4097  0.6822 -0.0094
 5686SOL    MW422512   2.037   1.255   4.729 -0.4088  0.1746  0.4965
 5687SOL     OW22513   1.182   1.253   0.503  0.0572 -0.5834  0.5344
 5687SOL    HW222514   1.231   1.176   0.475 -0.1525 -0.7898  0.7237
 5687SOL    HW322515   1.248   1.315   0.533  0.2270 -0.6966  0.3899
 5687SOL    MW422516   1.197   1.251   0.504  0.0519 -0.6255  0.5403
 5688SOL     OW22517   4.166   5.678   3.414 -0.1015  0.3784 -0.2193
 5688SOL    HW222518   4.196   5.588   3.422  0.0997  0.4972  0.4744
 5688SOL    HW322519   4.235   5.730   3.455 -1.8564  0.5368  2.8666
 5688SOL    MW422520   4.179   5.673   3.421 -0.3065  0.4150  0.2794
 5689SOL     OW22521   2.965   3.737   5.701 -0.0181 -0.3786 -0.2629
 5689SOL    HW222522   2.937   3.778   5.783  0.2783  0.4210 -0.5504
 5689SOL    HW322523   2.887   3.693   5.669 -0.7471  1.1022 -0.6254
 5689SOL    MW422524   2.951   3.737   5.708 -0.0751 -0.0777 -0.3486
 5690SOL     OW22525   4.195   5.718   3.149 -0.3186  0.1305 -0.4321
 5690SOL    HW222526   4.122   5.769   3.114 -0.3057  0.5823  0.1709
 5690SOL    HW322527   4.189   5.730   3.244  1.4029  1.3916 -0.4323
 5690SOL    MW422528   4.185   5.726   3.157 -0.0898  0.3565 -0.3526
 5691SOL     OW22529   4.277   3.062   4.353 -0.8110 -0.4208 -0.2597
 5691SOL    HW222530   4.213   3.134   4.359 -1.3744 -1.0157  1.3311
 5691SOL    HW322531   4.264   3.026   4.266 -0.8455  1.0941 -0.9196
 5691SOL    MW422532   4.267   3.067   4.342 -0.8899 -0.2994 -0.1369
 5692SOL     OW22533   5.204   0.222   2.226 -0.3746  0.0913 -0.2710
 5692SOL    HW222534   5.194   0.136   2.186 -2.4727 -0.4107  1.1425
 5692SOL    HW322535   5.190   0.284   2.154  1.1695 -0.7005 -1.3008
 5692SOL    MW422536   5.201   0.219   2.211 -0.4477 -0.0794 -0.2204
 5693SOL     OW22537   2.942   4.972   0.115  0.0988  0.1732  0.1730
 5693SOL    HW222538   2.964   5.019   0.195  0.5985  1.3066 -0.6078
 5693SOL    HW322539   2.927   5.041   0.050 -0.0390 -0.7328 -0.7754
 5693SOL    MW422540   2.943   4.987   0.117  0.1466  0.2032 -0.0551
 5694SOL     OW22541   2.928   0.590   5.310 -0.6273 -0.4050 -0.0383
 5694SOL    HW222542   2.984   0.573   5.235 -0.9103  0.6475 -0.4922
 5694SOL    HW322543   2.876   0.666   5.286 -0.5389  0.1218  1.3218
 5694SOL    MW422544   2.928   0.598   5.297 -0.6530 -0.1966  0.0813
 5695SOL     OW22545   5.528   5.639   0.895 -0.5895 -0.1988 -0.3576
 5695SOL    HW222546   5.457   5.701   0.883  0.3285  1.3121  1.4230
 5695SOL    HW322547   5.487   5.563   0.936 -1.7647 -0.9398 -2.7510
 5695SOL    MW422548   5.513   5.637   0.899 -0.6235 -0.0972 -0.4384
 5696SOL     OW22549   6.316   4.882   2.166 -0.2678  0.1549  0.0302
 5696SOL    HW222550   6.372   4.804   2.160  0.2374  0.5622 -0.8501
 5696SOL    HW322551   6.373   4.954   2.137 -0.7889  0.8257  0.6249
 5696SOL    MW422552   6.331   4.882   2.162 -0.2699  0.2971 -0.0075
 5697SOL     OW22553   2.592   1.656   2.371 -0.1533 -0.4965 -0.1348
 5697SOL    HW222554   2.521   1.720   2.365 -0.5423 -0.9387 -0.3290
 5697SOL    HW322555   2.556   1.577   2.331 -0.4718 -1.5180  2.0317
 5697SOL    MW422556   2.578   1.654   2.365 -0.2466 -0.6896  0.1254
 5698SOL     OW22557   6.329   5.027   5.129 -0.0212 -0.1134 -0.7238
 5698SOL    HW222558   6.330   4.960   5.062 -0.2320  0.0646 -0.9086
 5698SOL    HW322559   6.328   5.110   5.080  3.2186  0.1486 -0.5488
 5698SOL    MW422560   6.329   5.029   5.114  0.3784 -0.0554 -0.7251
 5699SOL     OW22561   0.867   2.113   3.625  0.2447 -0.6350  0.5320
 5699SOL    HW222562   0.836   2.046   3.563  0.9820 -0.4407 -0.0616
 5699SOL    HW322563   0.832   2.085   3.710 -0.5590 -1.0541  0.0774
 5699SOL    MW422564   0.858   2.100   3.628  0.2360 -0.6646  0.3937
 5700SOL     OW22565   1.724   4.174   3.386 -0.1942 -0.1420  0.1193
 5700SOL    HW222566   1.770   4.142   3.463 -0.1360  1.1407  0.6475
 5700SOL    HW322567   1.644   4.121   3.382  0.5171 -1.2594  0.1487
 5700SOL    MW422568   1.720   4.163   3.395 -0.0927 -0.1202  0.1929
 5701SOL     OW22569   5.745   0.429   1.902  0.0970  0.2553 -0.3039
 5701SOL    HW222570   5.701   0.374   1.967 -1.3647 -0.1581 -1.5822
 5701SOL    HW322571   5.721   0.519   1.927 -0.1370  0.1279 -0.0606
 5701SOL    MW422572   5.736   0.434   1.914 -0.1267  0.1840 -0.4405
 5702SOL     OW22573   3.051   4.469   4.974  0.9728  0.0434  0.2823
 5702SOL    HW222574   2.960   4.493   4.958  0.4242 -1.7319  0.4719
 5702SOL    HW322575   3.046   4.394   5.034  2.6298  0.9517  1.6601
 5702SOL    MW422576   3.038   4.462   4.980  1.1190 -0.0710  0.4891
 5703SOL     OW22577   5.279   3.137   6.132 -0.4187  0.0432 -0.5056
 5703SOL    HW222578   5.290   3.231   6.122  0.2008  0.0308  0.0096
 5703SOL    HW322579   5.339   3.099   6.068 -0.2902 -0.0035 -0.3575
 5703SOL    MW422580   5.288   3.144   6.122 -0.3200  0.0354 -0.4181
 5704SOL     OW22581   4.690   1.621   0.212 -0.5459  0.3604  0.0514
 5704SOL    HW222582   4.651   1.580   0.288 -0.8151  0.6310  0.0641
 5704SOL    HW322583   4.713   1.549   0.154  0.2267  0.1186  0.6506
 5704SOL    MW422584   4.688   1.606   0.214 -0.4795  0.3642  0.1321
 5705SOL     OW22585   4.017   6.350   5.050  0.1006  0.2264 -0.4705
 5705SOL    HW222586   4.072   6.409   5.102 -0.3296 -0.2622  0.5689
 5705SOL    HW322587   3.964   6.303   5.115 -2.3434  1.4396 -1.4726
 5705SOL    MW422588   4.017   6.351   5.066 -0.2786  0.3220 -0.4656
 5706SOL     OW22589   5.352   0.695   0.262  0.3486 -0.1565 -0.2685
 5706SOL    HW222590   5.322   0.782   0.235  1.6406  0.1069 -0.9720
 5706SOL    HW322591   5.392   0.659   0.183  2.0164 -0.3868  0.6482
 5706SOL    MW422592   5.353   0.702   0.248  0.7391 -0.1521 -0.2404
 5707SOL     OW22593   4.682   2.898   1.753 -0.1937  1.1765 -0.4019
 5707SOL    HW222594   4.751   2.959   1.780  0.2726 -0.3872  2.3491
 5707SOL    HW322595   4.641   2.871   1.836 -1.1990 -1.2585 -1.5943
 5707SOL    MW422596   4.686   2.902   1.768 -0.2648  0.6489 -0.1963
 5708SOL     OW22597   2.945   3.676   2.839 -0.5009  0.2176  0.2905
 5708SOL    HW222598   2.859   3.639   2.855 -1.2407  0.8020 -1.9773
 5708SOL    HW322599   2.927   3.763   2.803  1.1011  1.1846  1.6977
 5708SOL    MW422600   2.931   3.683   2.836 -0.3871  0.4223  0.1770
 5709SOL     OW22601   1.750   0.967   0.197  0.2573  0.5767  0.2547
 5709SOL    HW222602   1.838   0.973   0.159 -0.0404  0.1135 -0.5195
 5709SOL    HW322603   1.700   1.035   0.152 -0.6018 -1.2051 -1.6209
 5709SOL    MW422604   1.755   0.977   0.186  0.1047  0.2805 -0.0949
 5710SOL     OW22605   0.890   4.687   5.938  1.0659  0.4790  0.0635
 5710SOL    HW222606   0.821   4.670   5.874 -0.2158  1.0012  1.2572
 5710SOL    HW322607   0.969   4.649   5.900  0.1623  0.0475 -1.4291
 5710SOL    MW422608   0.892   4.680   5.925  0.7776  0.4909  0.0240
 5711SOL     OW22609   4.171   1.374   2.378 -0.1220 -0.0226  0.0613
 5711SOL    HW222610   4.148   1.299   2.323 -0.2073  0.4339 -0.5331
 5711SOL    HW322611   4.263   1.360   2.402  0.6305  0.8711 -2.0357
 5711SOL    MW422612   4.180   1.362   2.374 -0.0340  0.1555 -0.2938
 5712SOL     OW22613   6.064   0.035   5.304 -0.0060 -0.0919 -0.8379
 5712SOL    HW222614   6.030   0.062   5.390 -0.9004 -0.4850 -1.0559
 5712SOL    HW322615   6.094  -0.055   5.317 -0.5714 -0.3129 -1.0468
 5712SOL    MW422616   6.063   0.027   5.317 -0.1986 -0.1729 -0.8942
 5713SOL     OW22617   3.343   0.717   5.794  0.3137 -0.5089  0.0841
 5713SOL    HW222618   3.252   0.746   5.788  0.7931  1.1404  0.1954
 5713SOL    HW322619   3.351   0.677   5.880 -0.3956 -1.0325 -0.0891
 5713SOL    MW422620   3.332   0.716   5.804  0.2834 -0.3604  0.0759
 5714SOL     OW22621   3.746   5.154   5.115  0.3629 -0.3143 -0.2890
 5714SOL    HW222622   3.688   5.121   5.184 -1.5299 -0.1374 -1.7055
 5714SOL    HW322623   3.750   5.248   5.130  0.9798 -0.4283  0.2978
 5714SOL    MW422624   3.739   5.162   5.126  0.1945 -0.3060 -0.3985
 5715SOL     OW22625   0.711   4.103   4.553  0.5705  0.6309 -0.3936
 5715SOL    HW222626   0.800   4.104   4.588  0.8298  0.6820 -1.0267
 5715SOL    HW322627   0.654   4.117   4.629  1.0521 -0.3929  0.1749
 5715SOL    MW422628   0.715   4.105   4.567  0.6682  0.5026 -0.4021
 5716SOL     OW22629   2.919   0.738   6.401 -0.2688 -0.2767  0.2965
 5716SOL    HW222630   2.882   0.702   6.320  0.5835 -1.9292  0.6033
 5716SOL    HW322631   3.014   0.727   6.391 -0.0051  1.3444  0.6990
 5716SOL    MW422632   2.927   0.732   6.389 -0.1216 -0.2809  0.3901
 5717SOL     OW22633   4.500   4.228   1.053  0.1565  0.0982  0.9532
 5717SOL    HW222634   4.438   4.161   1.083 -0.0163  0.2666  0.9786
 5717SOL    HW322635   4.560   4.240   1.127  1.2332 -1.2443  0.3381
 5717SOL    MW422636   4.500   4.221   1.067  0.2758 -0.0567  0.8754
 5718SOL     OW22637   2.424   2.024   5.919 -0.1884  0.1190 -0.0872
 5718SOL    HW222638   2.478   2.082   5.972 -1.0358 -0.2634  1.2234
 5718SOL    HW322639   2.462   1.938   5.931 -0.5533 -0.0137  0.1353
 5718SOL    MW422640   2.436   2.021   5.927 -0.3483  0.0510  0.1151
 5719SOL     OW22641   3.295   0.652   1.798 -0.2915 -0.5944 -0.3936
 5719SOL    HW222642   3.275   0.675   1.889 -1.2465 -0.5837 -0.5976
 5719SOL    HW322643   3.254   0.721   1.746 -0.1435 -0.8445 -0.8490
 5719SOL    MW422644   3.287   0.664   1.804 -0.3979 -0.6260 -0.4806
 5720SOL     OW22645   5.850   5.462   3.822 -0.5179  0.1798 -0.2704
 5720SOL    HW222646   5.843   5.470   3.918  2.3374  2.7808 -0.1505
 5720SOL    HW322647   5.918   5.397   3.809 -1.7541 -1.0933 -0.6464
 5720SOL    MW422648   5.858   5.454   3.833 -0.3043  0.3550 -0.3042
 5721SOL     OW22649   4.773   5.167   6.052 -0.4015  0.1384  0.0278
 5721SOL    HW222650   4.807   5.218   5.979 -1.4811 -0.8270 -1.1817
 5721SOL    HW322651   4.845   5.166   6.116  0.3421  1.4905 -0.7419
 5721SOL    MW422652   4.787   5.174   6.051 -0.4458  0.1894 -0.2334
 5722SOL     OW22653   0.741   5.133   1.330  0.0611  0.0655  0.1476
 5722SOL    HW222654   0.825   5.087   1.334 -0.1041 -0.4269 -1.5561
 5722SOL    HW322655   0.764   5.224   1.314  0.3448  0.4842  2.5337
 5722SOL    MW422656   0.755   5.139   1.329  0.0767  0.0558  0.2376
 5723SOL     OW22657   1.269   1.642   6.314 -0.0804  0.2164  0.0400
 5723SOL    HW222658   1.336   1.644   6.246  0.3613  1.2303  0.4785
 5723SOL    HW322659   1.201   1.701   6.282 -0.2925 -0.0079  0.0713
 5723SOL    MW422660   1.269   1.650   6.301 -0.0501  0.3206  0.1020
 5724SOL     OW22661   2.846   6.069   0.078  0.4892 -0.3335  0.1546
 5724SOL    HW222662   2.815   6.150   0.118 -0.1232 -1.0517  1.1893
 5724SOL    HW322663   2.776   6.043   0.018 -0.4752 -1.3626  1.6560
 5724SOL    MW422664   2.832   6.076   0.075  0.2811 -0.5640  0.4892
 5725SOL     OW22665   6.392   0.751   4.731  0.0604 -0.8158 -0.1008
 5725SOL    HW222666   6.393   0.679   4.667 -2.8590 -0.6789 -0.4680
 5725SOL    HW322667   6.361   0.710   4.812 -2.4087  0.0594 -0.5196
 5725SOL    MW422668   6.388   0.736   4.733 -0.6505 -0.6823 -0.2045
 5726SOL     OW22669   1.449   3.090   3.787 -0.4598  0.2281 -0.6433
 5726SOL    HW222670   1.467   3.102   3.880  1.3236 -0.9021 -0.7874
 5726SOL    HW322671   1.456   2.995   3.773 -0.9740  0.3514 -1.8683
 5726SOL    MW422672   1.452   3.079   3.798 -0.2924  0.0953 -0.8240
 5727SOL     OW22673   6.052   1.810   6.338 -0.3670 -0.1330  0.0322
 5727SOL    HW222674   6.062   1.726   6.293  1.1748 -1.5979  2.8762
 5727SOL    HW322675   6.111   1.869   6.290 -0.2831 -1.0571 -1.0654
 5727SOL    MW422676   6.061   1.807   6.325 -0.1525 -0.4482  0.2626
 5728SOL     OW22677   4.404   4.047   0.073 -0.1635 -0.0455  0.1382
 5728SOL    HW222678   4.324   4.016   0.032  0.6408 -1.2989 -0.5437
 5728SOL    HW322679   4.471   4.042   0.004  0.6389  0.3699  0.8579
 5728SOL    MW422680   4.403   4.042   0.059  0.0485 -0.1561  0.1432
 5729SOL     OW22681   1.116   6.300   4.341 -0.0182  0.4722  0.2840
 5729SOL    HW222682   1.022   6.303   4.359 -0.4436 -1.0966 -1.3273
 5729SOL    HW322683   1.153   6.255   4.416 -0.3056  2.2626  1.5746
 5729SOL    MW422684   1.108   6.295   4.353 -0.1122  0.5014  0.2417
 5730SOL     OW22685   5.323   0.285   3.590 -0.1849 -0.7509 -0.5518
 5730SOL    HW222686   5.305   0.253   3.502  1.3205 -1.6122 -0.5853
 5730SOL    HW322687   5.418   0.284   3.597 -0.2627 -0.2453  0.9178
 5730SOL    MW422688   5.333   0.280   3.579  0.0035 -0.7978 -0.3623
 5731SOL     OW22689   2.833   2.873   5.891 -0.5015  0.2048  0.0410
 5731SOL    HW222690   2.773   2.838   5.825  0.5044 -0.8368 -0.3383
 5731SOL    HW322691   2.906   2.812   5.893  0.3990  1.2591  0.7509
 5731SOL    MW422692   2.835   2.861   5.882 -0.2499  0.2065  0.0846
 5732SOL     OW22693   1.463   3.418   4.801  0.0044 -0.1423  0.7472
 5732SOL    HW222694   1.459   3.418   4.705  0.0380 -1.5873  0.7299
 5732SOL    HW322695   1.384   3.372   4.829 -0.7628  1.5477  1.4853
 5732SOL    MW422696   1.452   3.412   4.792 -0.0924 -0.1100  0.8423
 5733SOL     OW22697   0.407   2.577   4.920 -0.2110 -0.1695  0.7141
 5733SOL    HW222698   0.347   2.544   4.986 -2.2431 -0.3510 -1.1070
 5733SOL    HW322699   0.424   2.502   4.863 -0.1477  0.4674 -0.1241
 5733SOL    MW422700   0.402   2.563   4.921 -0.4708 -0.1094  0.3632
 5734SOL     OW22701   2.474   2.121   1.541 -0.0846 -0.5878  0.5103
 5734SOL    HW222702   2.437   2.186   1.483  1.7550  0.2410  0.2105
 5734SOL    HW322703   2.464   2.038   1.494 -0.6759 -0.2450  0.0265
 5734SOL    MW422704   2.468   2.118   1.527  0.0801 -0.4332  0.4069
 5735SOL     OW22705   3.767   2.899   0.335  0.0588  0.5768 -0.0791
 5735SOL    HW222706   3.775   2.806   0.353  1.0970  0.7767  0.5497
 5735SOL    HW322707   3.788   2.908   0.242  1.3759  0.3479  0.1843
 5735SOL    MW422708   3.771   2.888   0.325  0.3696  0.5729  0.0386
 5736SOL     OW22709   0.467   2.405   5.791 -0.0032 -0.0564  0.2952
 5736SOL    HW222710   0.463   2.477   5.854  0.5545 -2.1764  2.9488
 5736SOL    HW322711   0.390   2.352   5.809  0.2590 -0.8216 -0.7043
 5736SOL    MW422712   0.456   2.407   5.801  0.1050 -0.4370  0.5134
 5737SOL     OW22713   1.607   2.116   5.854 -0.2578  0.2460 -0.1432
 5737SOL    HW222714   1.588   2.046   5.792 -0.9419 -0.6690  1.0583
 5737SOL    HW322715   1.566   2.194   5.815 -0.1864 -0.1857 -1.0996
 5737SOL    MW422716   1.599   2.117   5.841 -0.3386  0.0683 -0.1109
 5738SOL     OW22717   2.845   3.557   4.919 -0.2840 -0.2488  0.0436
 5738SOL    HW222718   2.841   3.464   4.896 -2.4006  0.1654 -1.4876
 5738SOL    HW322719   2.839   3.603   4.836  0.4834  1.2991  0.7988
 5738SOL    MW422720   2.844   3.551   4.905 -0.4620  0.0101 -0.0588
 5739SOL     OW22721   1.938   2.087   6.112 -0.3446  0.0498 -0.0094
 5739SOL    HW222722   2.031   2.073   6.129 -0.8217 -4.1086  0.0913
 5739SOL    HW322723   1.934   2.116   6.021  1.0561  2.0686  0.5153
 5739SOL    MW422724   1.949   2.089   6.102 -0.2227 -0.2325  0.0731
 5740SOL     OW22725   3.422   1.500   1.523 -0.2877  0.0285 -0.2989
 5740SOL    HW222726   3.390   1.554   1.595 -1.1263 -1.9621  0.8745
 5740SOL    HW322727   3.477   1.434   1.565  3.0007  1.4514 -1.9535
 5740SOL    MW422728   3.425   1.499   1.538  0.0355 -0.0464 -0.3624
 5741SOL     OW22729   5.138   1.487   4.138 -0.1671 -0.2349  0.1228
 5741SOL    HW222730   5.221   1.506   4.095 -0.0088  0.7906  0.8189
 5741SOL    HW322731   5.146   1.397   4.168  1.2467  0.2386  1.3071
 5741SOL    MW422732   5.150   1.478   4.137  0.0404 -0.0372  0.3709
 5742SOL     OW22733   6.371   5.479   0.736 -0.6385  0.0053 -0.2266
 5742SOL    HW222734   6.319   5.547   0.692 -0.7970  1.2008  1.6853
 5742SOL    HW322735   6.307   5.416   0.767 -0.4086 -1.7843 -3.0584
 5742SOL    MW422736   6.356   5.480   0.734 -0.6291 -0.0731 -0.3480
 5743SOL     OW22737   1.836   1.771   1.287 -0.4308 -0.8053 -0.6481
 5743SOL    HW222738   1.915   1.823   1.283  0.0941 -1.4121  0.8899
 5743SOL    HW322739   1.864   1.682   1.264 -0.8529 -0.8377 -1.0470
 5743SOL    MW422740   1.850   1.766   1.284 -0.4173 -0.8897 -0.4978
 5744SOL     OW22741   3.474   5.265   0.474  0.0548  0.1348 -0.0908
 5744SOL    HW222742   3.431   5.203   0.533  0.0147 -0.5218 -0.7910
 5744SOL    HW322743   3.473   5.221   0.389  2.1187  0.1023 -0.1336
 5744SOL    MW422744   3.468   5.251   0.471  0.3218  0.0439 -0.1888
 5745SOL     OW22745   4.542   6.155   3.871 -0.0006 -0.1290 -0.2814
 5745SOL    HW222746   4.499   6.079   3.911  1.6489 -0.6793  0.5193
 5745SOL    HW322747   4.584   6.120   3.793 -1.2596  0.4839 -1.2695
 5745SOL    MW422748   4.542   6.141   3.866  0.0509 -0.1207 -0.3061
 5746SOL     OW22749   5.769   6.009   3.080 -0.2229 -0.0286 -0.2884
 5746SOL    HW222750   5.809   5.926   3.057 -1.4235 -0.5643 -0.5385
 5746SOL    HW322751   5.834   6.053   3.135  1.1486 -0.3451 -1.5996
 5746SOL    MW422752   5.783   6.004   3.084 -0.2003 -0.1410 -0.4944
 5747SOL     OW22753   4.413   1.400   0.908  0.1919 -0.2528  0.7484
 5747SOL    HW222754   4.329   1.355   0.897  0.3571 -0.6294  0.9911
 5747SOL    HW322755   4.468   1.336   0.953  0.9558 -0.4128 -0.3824
 5747SOL    MW422756   4.409   1.385   0.913  0.3144 -0.3236  0.6312
 5748SOL     OW22757   3.496   2.474   3.856 -0.2967  0.2054  0.4826
 5748SOL    HW222758   3.495   2.564   3.823 -1.6859 -0.6636 -2.2537
 5748SOL    HW322759   3.572   2.433   3.813 -0.6196 -0.3032  0.3768
 5748SOL    MW422760   3.506   2.480   3.846 -0.5226  0.0236  0.1076
 5749SOL     OW22761   3.007   2.261   4.352  0.2101  0.2990  0.0598
 5749SOL    HW222762   3.064   2.202   4.401  1.6853  0.0935 -1.8099
 5749SOL    HW322763   2.927   2.211   4.338 -1.0687  0.9910  3.7136
 5749SOL    MW422764   3.004   2.247   4.357  0.2360  0.3632  0.2952
 5750SOL     OW22765   5.745   3.387   1.108 -0.4490 -0.5439 -0.0747
 5750SOL    HW222766   5.690   3.400   1.031 -0.1909 -0.1719 -0.2010
 5750SOL    HW322767   5.829   3.426   1.084  1.0331 -3.9535 -1.1612
 5750SOL    MW422768   5.749   3.394   1.095 -0.2194 -0.9446 -0.2347
 5751SOL     OW22769   1.885   2.899   2.403  0.3200 -0.2720 -0.0454
 5751SOL    HW222770   1.890   2.950   2.322 -0.7557  1.0470  0.6815
 5751SOL    HW322771   1.969   2.915   2.447  0.4468 -0.0644 -0.3635
 5751SOL    MW422772   1.897   2.908   2.398  0.1948 -0.0706  0.0086
 5752SOL     OW22773   6.201   5.301   0.869 -1.4875  0.3334  0.7847
 5752SOL    HW222774   6.165   5.323   0.956  1.6508 -0.0898  2.3418
 5752SOL    HW322775   6.245   5.217   0.883 -0.5833  0.4543 -1.1490
 5752SOL    MW422776   6.202   5.293   0.883 -0.9541  0.2935  0.7350
 5753SOL     OW22777   2.421   2.300   4.035  0.2064  0.3503 -0.1462
 5753SOL    HW222778   2.478   2.259   3.970 -0.1511  2.3917 -1.8745
 5753SOL    HW322779   2.364   2.230   4.066  0.6930 -0.7870 -1.7134
 5753SOL    MW422780   2.421   2.286   4.031  0.2234  0.4696 -0.5810
 5754SOL     OW22781   5.224   5.869   5.520 -0.0061  0.4841 -0.0467
 5754SOL    HW222782   5.151   5.812   5.545  0.7240 -0.7275 -0.6349
 5754SOL    HW322783   5.187   5.957   5.523 -0.7455  0.1605  2.4251
 5754SOL    MW422784   5.209   5.873   5.524 -0.0073  0.2815  0.2018
 5755SOL     OW22785   3.065   2.473   2.910  0.2724 -0.4426  0.1943
 5755SOL    HW222786   3.134   2.424   2.955 -0.5210 -0.6462  1.2252
 5755SOL    HW322787   3.067   2.441   2.820  0.1379 -1.9767  0.7132
 5755SOL    MW422788   3.075   2.463   2.904  0.1500 -0.6719  0.3988
 5756SOL     OW22789   0.677   4.963   1.129 -0.3784  0.4755  0.0373
 5756SOL    HW222790   0.716   4.886   1.171 -0.0640 -0.1604 -1.3881
 5756SOL    HW322791   0.689   5.034   1.193  0.1173 -0.4506  0.9976
 5756SOL    MW422792   0.684   4.962   1.143 -0.2715  0.2694 -0.0241
 5757SOL     OW22793   5.429   4.112   1.370  0.5752 -0.0186  0.0621
 5757SOL    HW222794   5.395   4.023   1.369  1.6978 -0.4554 -0.7060
 5757SOL    HW322795   5.378   4.158   1.304  1.1556 -0.5506 -0.7723
 5757SOL    MW422796   5.418   4.106   1.361  0.7999 -0.1464 -0.1493
 5758SOL     OW22797   5.048   5.166   3.873  0.6256 -0.4004 -0.2918
 5758SOL    HW222798   4.995   5.226   3.820 -0.1012 -1.9151 -1.3327
 5758SOL    HW322799   5.055   5.210   3.958 -0.1272  1.0174 -0.9153
 5758SOL    MW422800   5.042   5.180   3.877  0.4304 -0.4132 -0.5114
 5759SOL     OW22801   4.248   4.358   3.901 -0.2239  0.5141 -0.1601
 5759SOL    HW222802   4.185   4.362   3.829 -0.2889 -1.1534 -0.2175
 5759SOL    HW322803   4.314   4.295   3.873 -1.5700 -2.1525  2.1789
 5759SOL    MW422804   4.248   4.350   3.888 -0.4101 -0.0577  0.1409
 5760SOL     OW22805   0.656   6.135   6.367  0.6024  0.3511  0.5273
 5760SOL    HW222806   0.587   6.069   6.367 -0.3127  1.2549  1.9649
 5760SOL    HW322807   0.640   6.187   6.289  1.4049 -1.1434 -0.6878
 5760SOL    MW422808   0.645   6.133   6.357  0.5875  0.2731  0.5567
 5761SOL     OW22809   2.816   2.798   2.050 -0.1432 -0.1551 -0.3543
 5761SOL    HW222810   2.855   2.714   2.024 -2.5485 -2.3948  2.4775
 5761SOL    HW322811   2.790   2.839   1.968  1.6359 -1.8649 -1.8848
 5761SOL    MW422812   2.818   2.792   2.036 -0.2259 -0.6761 -0.1826
 5762SOL     OW22813   5.451   2.455   0.866 -0.0032 -0.1796  0.1865
 5762SOL    HW222814   5.533   2.424   0.904  0.0490 -0.0781  0.1574
 5762SOL    HW322815   5.387   2.448   0.936  0.4487  1.5930  0.8287
 5762SOL    MW422816   5.454   2.450   0.880  0.0633  0.0676  0.2674
 5763SOL     OW22817   2.311   5.881   4.990 -0.2002  0.1007 -0.0018
 5763SOL    HW222818   2.238   5.868   5.050 -0.2267 -1.9215 -0.4152
 5763SOL    HW322819   2.359   5.798   4.992  0.6670  0.5269 -1.6151
 5763SOL    MW422820   2.308   5.869   4.999 -0.0893 -0.1099 -0.2692
 5764SOL     OW22821   1.945   0.698   2.293 -0.2749  0.0731  0.4364
 5764SOL    HW222822   1.957   0.762   2.362 -0.0104  0.8108 -0.2791
 5764SOL    HW322823   2.033   0.662   2.278  0.0898  1.4550 -0.9629
 5764SOL    MW422824   1.958   0.701   2.300 -0.1919  0.3528  0.1574
 5765SOL     OW22825   1.918   0.843   3.844 -0.0281 -0.2050  0.1443
 5765SOL    HW222826   1.874   0.848   3.928 -1.1343  0.0382 -0.4303
 5765SOL    HW322827   1.855   0.800   3.786  1.6622 -2.7492  0.0265
 5765SOL    MW422828   1.904   0.838   3.847  0.0490 -0.5086  0.0530
 5766SOL     OW22829   0.196   4.639   0.262 -0.1661 -0.1811 -0.2609
 5766SOL    HW222830   0.166   4.726   0.289  0.9576  0.2728 -0.4039
 5766SOL    HW322831   0.138   4.578   0.307 -1.0493  0.6439 -0.2508
 5766SOL    MW422832   0.184   4.643   0.271 -0.1344 -0.0124 -0.2784
 5767SOL     OW22833   0.029   3.405   1.631 -0.2434  0.0009 -0.7590
 5767SOL    HW222834  -0.029   3.332   1.612  1.0543 -1.1520 -0.4747
 5767SOL    HW322835   0.068   3.427   1.546 -0.1979 -0.0328 -0.7471
 5767SOL    MW422836   0.027   3.399   1.617 -0.0662 -0.1556 -0.7199
 5768SOL     OW22837   4.336   0.277   4.736  0.4344 -0.2701 -0.1554
 5768SOL    HW222838   4.420   0.263   4.693  0.2774 -1.6482 -0.0418
 5768SOL    HW322839   4.349   0.247   4.826  0.5187  1.8110  0.5921
 5768SOL    MW422840   4.349   0.271   4.742  0.4248 -0.1773 -0.0418
 5769SOL     OW22841   2.453   2.244   3.163  0.3556  0.1167 -0.7856
 5769SOL    HW222842   2.546   2.227   3.174  0.4570  0.8031 -0.4875
 5769SOL    HW322843   2.409   2.170   3.205  0.7667 -0.4850 -1.4164
 5769SOL    MW422844   2.459   2.232   3.170  0.4232  0.1278 -0.8295
 5770SOL     OW22845   0.493   6.211   4.951 -0.2020 -0.1558  0.4095
 5770SOL    HW222846   0.585   6.186   4.954 -0.5849 -1.6258  0.9700
 5770SOL    HW322847   0.492   6.304   4.974  1.1223 -0.1890  0.6433
 5770SOL    MW422848   0.505   6.220   4.955 -0.0778 -0.3542  0.5143
 5771SOL     OW22849   4.642   3.934   3.209 -0.0071 -0.5012 -0.2124
 5771SOL    HW222850   4.616   3.946   3.117  1.4324  0.7193 -0.4973
 5771SOL    HW322851   4.670   3.843   3.214 -1.2766 -0.9483 -0.6504
 5771SOL    MW422852   4.642   3.923   3.198  0.0154 -0.3992 -0.3078
 5772SOL     OW22853   5.714   6.256   1.209  0.2273  0.1858 -0.7255
 5772SOL    HW222854   5.684   6.176   1.251  0.8329  0.5605  0.4807
 5772SOL    HW322855   5.640   6.317   1.216 -0.5613 -0.5171 -2.4515
 5772SOL    MW422856   5.700   6.254   1.216  0.2031  0.1425 -0.7941
 5773SOL     OW22857   5.403   4.705   4.713  0.4430 -0.5381  0.3629
 5773SOL    HW222858   5.445   4.780   4.672 -0.1438 -0.8829 -0.9188
 5773SOL    HW322859   5.333   4.743   4.767 -0.4533 -0.1775 -0.9956
 5773SOL    MW422860   5.399   4.720   4.714  0.2473 -0.5360  0.0145
 5774SOL     OW22861   2.763   2.847   0.341 -0.1394 -0.2785  0.5556
 5774SOL    HW222862   2.759   2.910   0.413 -2.6719  1.1372 -0.7163
 5774SOL    HW322863   2.712   2.772   0.373  2.0796 -1.4226  1.6892
 5774SOL    MW422864   2.756   2.845   0.355 -0.1807 -0.2427  0.5373
 5775SOL     OW22865   3.975   3.169   1.753  0.2095 -0.6737  0.1736
 5775SOL    HW222866   4.067   3.163   1.780  0.6553 -1.6680 -1.4236
 5775SOL    HW322867   3.967   3.257   1.716  0.4611 -0.5069  0.5079
 5775SOL    MW422868   3.986   3.180   1.751  0.3015 -0.7829  0.0069
 5776SOL     OW22869   5.356   2.892   0.755  0.0932 -0.0941 -0.1801
 5776SOL    HW222870   5.296   2.841   0.810  0.6305 -0.1587  0.3473
 5776SOL    HW322871   5.435   2.839   0.750  0.6221  0.6273  0.2837
 5776SOL    MW422872   5.358   2.878   0.762  0.2338 -0.0075 -0.0493
 5777SOL     OW22873   5.013   0.292   4.696 -0.3576  0.1155 -0.0229
 5777SOL    HW222874   4.935   0.308   4.750  0.3043 -0.2724  1.0896
 5777SOL    HW322875   4.981   0.240   4.623 -1.4613  1.5051 -0.5690
 5777SOL    MW422876   4.999   0.287   4.694 -0.4159  0.2477  0.0518
 5778SOL     OW22877   4.545   3.922   1.291 -0.4241  0.6150  0.0749
 5778SOL    HW222878   4.615   3.987   1.295  0.0075  0.2266 -0.8634
 5778SOL    HW322879   4.506   3.923   1.378 -0.0396  1.7060  0.2457
 5778SOL    MW422880   4.549   3.931   1.303 -0.3164  0.7077 -0.0263
 5779SOL     OW22881   6.225   3.059   5.256  0.2319 -0.1195  0.4177
 5779SOL    HW222882   6.200   3.133   5.201  0.4160 -0.4410 -0.1097
 5779SOL    HW322883   6.243   3.097   5.342 -1.1984  0.2447  0.5763
 5779SOL    MW422884   6.224   3.074   5.260  0.0674 -0.1139  0.3690
 5780SOL     OW22885   0.353   4.280   0.169 -0.4336 -0.0743  0.3332
 5780SOL    HW222886   0.369   4.374   0.181  3.0291 -0.1817 -1.9901
 5780SOL    HW322887   0.385   4.239   0.249  0.1282  0.5755  0.4500
 5780SOL    MW422888   0.359   4.287   0.181  0.0974 -0.0027  0.0421
 5781SOL     OW22889   4.355   6.224   3.653 -0.0053  0.1115  0.5156
 5781SOL    HW222890   4.298   6.155   3.619 -0.8561  1.4367 -0.8754
 5781SOL    HW322891   4.373   6.197   3.744 -1.1883 -1.3672  0.3553
 5781SOL    MW422892   4.350   6.211   3.661 -0.2736  0.0913  0.3109
 5782SOL     OW22893   2.140   0.059   5.505  0.9538  0.1131 -0.1990
 5782SOL    HW222894   2.203   0.104   5.449 -0.1575  0.2221 -1.4052
 5782SOL    HW322895   2.170  -0.032   5.506  0.7409  0.0195 -1.3432
 5782SOL    MW422896   2.153   0.053   5.497  0.7791  0.1151 -0.5091
 5783SOL     OW22897   0.539   2.190   2.888  0.0524 -0.3767 -0.1438
 5783SOL    HW222898   0.605   2.260   2.886  1.3973 -1.5898 -0.7440
 5783SOL    HW322899   0.551   2.149   2.973 -0.7559  0.1171  0.2198
 5783SOL    MW422900   0.550   2.194   2.899  0.1232 -0.4716 -0.1750
 5784SOL     OW22901   1.569   5.827   5.565  0.1128 -0.0744 -0.1137
 5784SOL    HW222902   1.520   5.842   5.483  0.5188  1.2314 -0.1404
 5784SOL    HW322903   1.658   5.856   5.545 -0.1183  1.7237  1.2176
 5784SOL    MW422904   1.574   5.833   5.551  0.1358  0.3351  0.0584
 5785SOL     OW22905   5.075   5.969   0.322 -0.7341 -0.2532 -0.1411
 5785SOL    HW222906   5.136   6.002   0.256 -0.7237  1.8360  0.8245
 5785SOL    HW322907   4.993   6.015   0.304 -0.8140  0.1248  1.0747
 5785SOL    MW422908   5.072   5.980   0.311 -0.7433  0.0723  0.1467
 5786SOL     OW22909   0.199   4.737   0.883 -0.0229 -0.4414  0.1936
 5786SOL    HW222910   0.161   4.820   0.913  0.7946 -0.1571  0.4643
 5786SOL    HW322911   0.194   4.679   0.959 -1.5285 -0.9907 -0.2864
 5786SOL    MW422912   0.193   4.740   0.897 -0.1137 -0.4763  0.1660
 5787SOL     OW22913   4.544   2.565   4.179 -0.1521 -0.1551  0.4038
 5787SOL    HW222914   4.507   2.571   4.267  0.9322  1.5963  0.7906
 5787SOL    HW322915   4.617   2.504   4.187 -0.0222  0.0408  0.7558
 5787SOL    MW422916   4.549   2.558   4.192  0.0081  0.1018  0.5013
 5788SOL     OW22917   4.589   6.078   5.194  0.0679  0.0166 -0.2871
 5788SOL    HW222918   4.679   6.046   5.185  0.2158 -0.4034  2.1841
 5788SOL    HW322919   4.576   6.088   5.288 -2.1424  1.0929 -0.6473
 5788SOL    MW422920   4.599   6.075   5.205 -0.2042  0.1032 -0.0086
 5789SOL     OW22921   0.390   5.777   5.919 -0.3534 -0.3473 -0.3194
 5789SOL    HW222922   0.454   5.827   5.970  0.2408 -1.1673 -0.2420
 5789SOL    HW322923   0.424   5.687   5.920 -1.6699 -0.8591 -0.0144
 5789SOL    MW422924   0.403   5.771   5.926 -0.4487 -0.5230 -0.2689
 5790SOL     OW22925   0.897   6.068   0.657  0.6942  0.0331  0.0835
 5790SOL    HW222926   0.954   6.116   0.597  1.1435  0.0352  0.4971
 5790SOL    HW322927   0.872   5.989   0.608  0.0200  0.6362 -0.5646
 5790SOL    MW422928   0.901   6.064   0.643  0.6645  0.1130  0.0525
 5791SOL     OW22929   2.993   2.444   0.726 -0.4290  0.4304  0.2492
 5791SOL    HW222930   2.931   2.505   0.685 -0.7117 -1.2276 -1.9942
 5791SOL    HW322931   3.074   2.454   0.675 -0.4847 -1.0305 -0.1586
 5791SOL    MW422932   2.996   2.454   0.714 -0.4737  0.0189 -0.1006
 5792SOL     OW22933   5.156   0.323   3.804  0.1584  0.6656 -0.2437
 5792SOL    HW222934   5.218   0.297   3.736  1.0682  2.1191  0.0042
 5792SOL    HW322935   5.075   0.341   3.756  0.2448 -0.1148 -0.7035
 5792SOL    MW422936   5.153   0.322   3.789  0.2899  0.7544 -0.2716
 5793SOL     OW22937   1.692   2.226   1.822 -0.4206  0.3091 -0.2234
 5793SOL    HW222938   1.657   2.241   1.734 -0.2604 -1.5552 -0.6444
 5793SOL    HW322939   1.620   2.187   1.870 -0.4747  1.2341  0.4523
 5793SOL    MW422940   1.678   2.223   1.816 -0.4066  0.1851 -0.1898
 5794SOL     OW22941   3.326   1.379   4.417  0.7088  0.2426  0.4126
 5794SOL    HW222942   3.408   1.330   4.410  1.5725  1.7976 -1.3001
 5794SOL    HW322943   3.349   1.460   4.461 -0.3000 -0.0260  1.4807
 5794SOL    MW422944   3.340   1.383   4.422  0.6897  0.4124  0.3276
 5795SOL     OW22945   0.041   1.363   4.838 -0.2896 -0.1417  0.1660
 5795SOL    HW222946   0.019   1.302   4.908  2.3325 -0.1279  1.1063
 5795SOL    HW322947   0.025   1.450   4.876 -0.3730 -0.1669  0.1876
 5795SOL    MW422948   0.036   1.367   4.852  0.0454 -0.1432  0.2929
 5796SOL     OW22949   5.635   6.401   3.975  0.2268  0.0567  0.3250
 5796SOL    HW222950   5.604   6.313   3.953 -0.1755  0.3822 -0.4481
 5796SOL    HW322951   5.558   6.445   4.010  0.3646  0.1761  0.4749
 5796SOL    MW422952   5.620   6.395   3.977  0.1919  0.1154  0.2427
 5797SOL     OW22953   3.687   5.062   3.592 -0.1454  0.1127 -0.0234
 5797SOL    HW222954   3.623   5.120   3.552  0.6287  1.3690  0.5006
 5797SOL    HW322955   3.635   4.991   3.630 -1.1361  0.6343 -0.3763
 5797SOL    MW422956   3.672   5.060   3.592 -0.1740  0.3473 -0.0008
 5798SOL     OW22957   3.316   1.369   0.893  0.6700 -0.2829 -0.1616
 5798SOL    HW222958   3.358   1.431   0.832 -0.4958  0.8439  0.1355
 5798SOL    HW322959   3.292   1.423   0.969 -2.3853 -0.5626 -0.8021
 5798SOL    MW422960   3.319   1.384   0.895  0.1131 -0.1712 -0.2069
 5799SOL     OW22961   6.036   1.789   2.175 -0.0829  0.0519  0.2258
 5799SOL    HW222962   6.131   1.796   2.169 -0.0549 -0.5818 -0.0843
 5799SOL    HW322963   6.020   1.699   2.204 -0.6311 -0.2584 -0.9886
 5799SOL    MW422964   6.046   1.778   2.178 -0.1515 -0.0726  0.0247
 5800SOL     OW22965   5.109   0.040   0.661 -0.4489  0.2710 -0.3592
 5800SOL    HW222966   5.126   0.074   0.750 -1.7262  1.4245 -0.5227
 5800SOL    HW322967   5.016   0.057   0.646 -0.1180  0.6808 -2.1658
 5800SOL    MW422968   5.099   0.047   0.671 -0.5738  0.4773 -0.6191
 5801SOL     OW22969   1.864   2.333   2.793 -0.2871 -0.0116  0.3695
 5801SOL    HW222970   1.813   2.307   2.869 -0.0355  1.0516  0.9107
 5801SOL    HW322971   1.822   2.413   2.761 -0.5035 -0.5388 -0.7294
 5801SOL    MW422972   1.852   2.340   2.799 -0.2824  0.0591  0.2959
 5802SOL     OW22973   1.540   5.351   0.696 -0.1088  0.0030  0.4343
 5802SOL    HW222974   1.548   5.435   0.741  0.4479 -0.5333  1.3636
 5802SOL    HW322975   1.514   5.289   0.764 -1.4783 -0.4106 -0.4185
 5802SOL    MW422976   1.538   5.354   0.711 -0.2160 -0.1224  0.4444
 5803SOL     OW22977   2.172   6.113   5.811  0.1366 -0.0948  0.0246
 5803SOL    HW222978   2.109   6.066   5.867 -0.4551 -0.0083 -0.5591
 5803SOL    HW322979   2.257   6.083   5.842 -0.2189 -1.3507 -0.1433
 5803SOL    MW422980   2.175   6.103   5.823  0.0116 -0.2490 -0.0745
 5804SOL     OW22981   6.340   0.559   3.401 -0.3586  0.1071 -0.4586
 5804SOL    HW222982   6.279   0.486   3.391  1.3139 -1.8195  2.2372
 5804SOL    HW322983   6.387   0.562   3.318 -0.4609 -1.9037 -0.6452
 5804SOL    MW422984   6.338   0.550   3.388 -0.1514 -0.4124 -0.1275
 5805SOL     OW22985   5.191   0.833   5.736  0.1926  0.7288  0.0819
 5805SOL    HW222986   5.173   0.885   5.815 -1.4476  0.7006 -0.2471
 5805SOL    HW322987   5.121   0.767   5.734  0.8976 -0.0219 -0.7738
 5805SOL    MW422988   5.179   0.831   5.746  0.0692  0.6260 -0.0744
 5806SOL     OW22989   3.759   4.311   4.536 -0.0180  0.5178 -0.2218
 5806SOL    HW222990   3.773   4.325   4.442  1.4085  1.5697  0.1144
 5806SOL    HW322991   3.829   4.250   4.562  0.5222  1.3861  0.4183
 5806SOL    MW422992   3.770   4.304   4.527  0.2415  0.7712 -0.0930
 5807SOL     OW22993   3.111   2.159   1.054 -0.4049 -0.0713  0.3355
 5807SOL    HW222994   3.118   2.129   0.963 -0.4626  0.1684  0.2489
 5807SOL    HW322995   3.201   2.162   1.085 -0.2795  0.8628 -0.0602
 5807SOL    MW422996   3.124   2.156   1.046 -0.3960  0.0835  0.2719
 5808SOL     OW22997   1.052   5.865   2.338 -0.2385  0.0657 -0.2495
 5808SOL    HW222998   1.131   5.824   2.301 -1.3326 -1.6688 -0.7555
 5808SOL    HW322999   1.031   5.811   2.414  0.8779  2.4656  1.8775
 5808SOL    MW423000   1.060   5.852   2.343 -0.2356  0.1535 -0.0356
 5809SOL     OW23001   0.410   5.036   0.786 -0.1182 -0.0645  0.6545
 5809SOL    HW223002   0.430   5.023   0.879  1.4284 -2.1145  0.1248
 5809SOL    HW323003   0.441   4.955   0.744 -3.2297 -0.3929 -1.3167
 5809SOL    MW423004   0.417   5.023   0.793 -0.3247 -0.3783  0.3245
 5810SOL     OW23005   2.126   5.578   2.921  0.0719  0.3562  0.2410
 5810SOL    HW223006   2.100   5.588   3.013 -2.3243 -1.3619 -0.1578
 5810SOL    HW323007   2.166   5.491   2.917 -1.6167 -0.4317 -0.6311
 5810SOL    MW423008   2.128   5.568   2.933 -0.4670  0.0256  0.0733
 5811SOL     OW23009   4.789   5.247   3.122 -0.3609 -0.6472 -0.1411
 5811SOL    HW223010   4.835   5.210   3.047 -0.9716  0.3708 -1.0323
 5811SOL    HW323011   4.857   5.254   3.190  0.2402 -1.3829 -0.6433
 5811SOL    MW423012   4.804   5.243   3.121 -0.3622 -0.6099 -0.3250
 5812SOL     OW23013   3.383   3.577   1.135  0.8619  0.4035  0.0827
 5812SOL    HW223014   3.400   3.669   1.112  0.2364  0.7060  0.8008
 5812SOL    HW323015   3.432   3.564   1.216  0.3340  0.3217  0.3883
 5812SOL    MW423016   3.392   3.588   1.142  0.7097  0.4326  0.2177
 5813SOL     OW23017   4.460   4.213   6.143 -0.6701 -0.4664  0.4414
 5813SOL    HW223018   4.461   4.301   6.180  2.7887 -1.2579  2.7298
 5813SOL    HW323019   4.499   4.158   6.211 -1.0530 -3.4696 -1.5787
 5813SOL    MW423020   4.466   4.217   6.156 -0.2643 -0.9671  0.4768
 5814SOL     OW23021   6.192   3.315   5.709 -0.6382  0.2539 -0.6303
 5814SOL    HW223022   6.265   3.262   5.740 -0.0385  0.4122 -1.7166
 5814SOL    HW323023   6.207   3.323   5.614 -2.9928 -1.2136 -1.2263
 5814SOL    MW423024   6.203   3.309   5.700 -0.8697  0.0812 -0.8523
 5815SOL     OW23025   2.150   3.152   5.157  0.0526  0.3202  0.3066
 5815SOL    HW223026   2.101   3.093   5.100  0.7064  0.5677 -0.5244
 5815SOL    HW323027   2.100   3.153   5.239 -0.8853 -0.0581 -0.2475
 5815SOL    MW423028   2.137   3.145   5.161  0.0151  0.3030  0.1238
 5816SOL     OW23029   0.767   1.435   4.034 -0.4038 -0.6529 -0.5670
 5816SOL    HW223030   0.730   1.492   4.102 -1.2129  0.5418 -1.9633
 5816SOL    HW323031   0.749   1.480   3.952  0.7854 -1.9347 -1.5877
 5816SOL    MW423032   0.760   1.449   4.032 -0.3536 -0.6644 -0.8859
 5817SOL     OW23033   4.964   4.951   4.761  0.5588 -0.1405  0.1158
 5817SOL    HW223034   4.950   5.025   4.821 -1.4915  0.3768 -0.8981
 5817SOL    HW323035   4.892   4.891   4.780 -0.4580  0.2637 -2.0487
 5817SOL    MW423036   4.952   4.953   4.772  0.1541 -0.0189 -0.3036
 5818SOL     OW23037   0.133   3.701   1.283  0.1141  0.1725 -0.0060
 5818SOL    HW223038   0.077   3.704   1.205 -0.5209  1.5979  0.4649
 5818SOL    HW323039   0.210   3.753   1.259  0.3663 -0.2013 -0.0106
 5818SOL    MW423040   0.136   3.708   1.270  0.0636  0.3113  0.0555
 5819SOL     OW23041   0.531   5.072   4.177 -0.1006 -0.0544 -0.3339
 5819SOL    HW223042   0.528   5.089   4.271  0.7914  0.7477 -0.4328
 5819SOL    HW323043   0.625   5.062   4.157 -0.3606 -1.6856 -0.9001
 5819SOL    MW423044   0.543   5.073   4.187 -0.0172 -0.1638 -0.4217
 5820SOL     OW23045   1.908   0.776   5.229  0.0692 -0.6412 -0.2306
 5820SOL    HW223046   1.891   0.841   5.297  0.9357 -0.4805 -0.1575
 5820SOL    HW323047   1.822   0.758   5.191 -0.2104  0.4206 -0.1378
 5820SOL    MW423048   1.894   0.782   5.233  0.1467 -0.4799 -0.2087
 5821SOL     OW23049   3.478   3.592   5.827 -0.0718  0.0584 -0.1491
 5821SOL    HW223050   3.385   3.596   5.803  0.0273 -1.9916 -1.1668
 5821SOL    HW323051   3.478   3.568   5.920 -0.6226 -1.3380 -0.4825
 5821SOL    MW423052   3.466   3.589   5.836 -0.1314 -0.3963 -0.3274
 5822SOL     OW23053   2.676   3.142   1.098  0.2479 -0.7852  0.0540
 5822SOL    HW223054   2.686   3.152   1.003 -0.1305  1.0965  0.1791
 5822SOL    HW323055   2.721   3.218   1.135 -2.3127  0.2909  1.2184
 5822SOL    MW423056   2.683   3.153   1.090 -0.1398 -0.3949  0.2241
 5823SOL     OW23057   1.417   1.624   4.389 -0.2616  0.0562  0.5933
 5823SOL    HW223058   1.463   1.575   4.457 -0.4411  0.1380  0.7730
 5823SOL    HW323059   1.326   1.625   4.418 -0.2569  0.5098  0.5956
 5823SOL    MW423060   1.411   1.617   4.402 -0.2847  0.1269  0.6173
 5824SOL     OW23061   4.633   0.687   5.270 -0.1301 -0.0941 -0.1784
 5824SOL    HW223062   4.720   0.660   5.297  0.3409  0.3707 -1.1769
 5824SOL    HW323063   4.646   0.729   5.185 -1.1250  1.3126  0.3209
 5824SOL    MW423064   4.646   0.689   5.262 -0.1992  0.1528 -0.2442
 5825SOL     OW23065   1.687   2.126   1.257 -0.3319  0.4623  0.2621
 5825SOL    HW223066   1.654   2.038   1.240 -2.2731  0.8776  1.5775
 5825SOL    HW323067   1.754   2.114   1.325 -0.1656 -0.0587  0.0099
 5825SOL    MW423068   1.692   2.113   1.264 -0.5660  0.4483  0.4024
 5826SOL     OW23069   0.399   3.277   2.885  0.1509 -0.6596 -0.0474
 5826SOL    HW223070   0.307   3.258   2.904 -0.0699  0.2235 -0.1737
 5826SOL    HW323071   0.412   3.366   2.919  0.1254  0.4387 -2.7086
 5826SOL    MW423072   0.388   3.286   2.892  0.1184 -0.3982 -0.4152
 5827SOL     OW23073   1.849   2.997   0.687 -0.2083  0.4788  0.8502
 5827SOL    HW223074   1.787   2.926   0.671 -0.6194  1.1683 -0.9586
 5827SOL    HW323075   1.801   3.076   0.663  1.0695  1.1179  0.2968
 5827SOL    MW423076   1.834   2.998   0.682 -0.0940  0.6541  0.5385
 5828SOL     OW23077   5.843   2.877   4.024  0.1680  0.7007 -0.3555
 5828SOL    HW223078   5.790   2.956   4.017  1.1068  1.2367 -1.7506
 5828SOL    HW323079   5.793   2.819   4.082 -0.2802  2.5061  1.1384
 5828SOL    MW423080   5.829   2.879   4.031  0.2327  1.0096 -0.3425
 5829SOL     OW23081   1.519   3.065   1.835 -0.8625  0.1018 -0.1706
 5829SOL    HW223082   1.564   3.059   1.751 -0.4791 -3.0260  0.1379
 5829SOL    HW323083   1.570   3.009   1.893 -1.4351  1.7245  2.0573
 5829SOL    MW423084   1.532   3.057   1.832 -0.8875 -0.0968  0.1640
 5830SOL     OW23085   5.114   6.149   5.519  0.2994 -0.6997 -0.1571
 5830SOL    HW223086   5.184   6.212   5.504 -0.3072 -0.1121 -0.5736
 5830SOL    HW323087   5.081   6.170   5.607  1.0623 -1.4054  0.3178
 5830SOL    MW423088   5.119   6.160   5.529  0.3200 -0.7153 -0.1494
 5831SOL     OW23089   1.616   5.907   1.622 -0.0061 -0.4353  0.7630
 5831SOL    HW223090   1.583   5.943   1.704 -0.6055  1.5418 -0.2776
 5831SOL    HW323091   1.707   5.937   1.617  0.3166 -1.3260  1.1093
 5831SOL    MW423092   1.624   5.916   1.632 -0.0426 -0.2919  0.6714
 5832SOL     OW23093   0.487   0.645   4.110 -0.0979  0.3623  0.1502
 5832SOL    HW223094   0.554   0.632   4.043  0.5205  0.9416  0.6522
 5832SOL    HW323095   0.507   0.730   4.149  0.7827 -0.8397  2.4796
 5832SOL    MW423096   0.498   0.655   4.106  0.0999  0.2802  0.5238
 5833SOL     OW23097   3.401   1.469   2.465 -0.1189 -0.4105 -0.5295
 5833SOL    HW223098   3.479   1.522   2.484 -0.5727 -1.0645  4.4903
 5833SOL    HW323099   3.339   1.530   2.426  1.0526  1.5546  0.5339
 5833SOL    MW423100   3.403   1.484   2.463 -0.0242 -0.2375  0.2731
 5834SOL     OW23101   3.929   2.134   6.153 -0.0314 -0.1542 -0.3884
 5834SOL    HW223102   3.841   2.127   6.189  0.4690 -2.2587  0.5960
 5834SOL    HW323103   3.932   2.066   6.085  0.3695  0.9207 -1.4711
 5834SOL    MW423104   3.918   2.124   6.148  0.0875 -0.2901 -0.4014
 5835SOL     OW23105   5.422   4.348   4.217 -0.0986 -0.5217 -0.4213
 5835SOL    HW223106   5.474   4.385   4.146 -0.1835 -0.8674 -0.6647
 5835SOL    HW323107   5.363   4.419   4.243  0.4020 -0.1709 -0.2270
 5835SOL    MW423108   5.421   4.363   4.211 -0.0437 -0.5210 -0.4277
 5836SOL     OW23109   5.779   2.155   2.221 -0.3137  0.0204 -0.3524
 5836SOL    HW223110   5.825   2.188   2.144  0.7037  0.3916  0.3816
 5836SOL    HW323111   5.791   2.060   2.217  0.0132  0.0645 -0.4958
 5836SOL    MW423112   5.787   2.147   2.210 -0.1363  0.0752 -0.2744
 5837SOL     OW23113   5.074   6.186   3.024 -0.0619  0.7116  0.1138
 5837SOL    HW223114   4.987   6.225   3.014  0.6098  1.8634 -1.9797
 5837SOL    HW323115   5.116   6.237   3.093 -0.7905  0.6549  0.5997
 5837SOL    MW423116   5.068   6.198   3.031 -0.0694  0.8561 -0.0983
 5838SOL     OW23117   5.020   1.141   4.540 -0.3034  0.4572 -0.3564
 5838SOL    HW223118   4.933   1.179   4.528 -0.1496  1.1496  0.5969
 5838SOL    HW323119   5.003   1.050   4.566 -0.7725  0.7477  0.4066
 5838SOL    MW423120   5.006   1.134   4.542 -0.3450  0.5869 -0.1300
 5839SOL     OW23121   2.932   4.589   0.581  0.2599  0.2289  0.2502
 5839SOL    HW223122   2.895   4.642   0.653  2.4622 -0.3119  1.8713
 5839SOL    HW323123   2.983   4.651   0.530 -0.0296  0.3188  0.0675
 5839SOL    MW423124   2.934   4.604   0.584  0.5123  0.1694  0.4400
 5840SOL     OW23125   6.143   4.380   1.561  0.6887 -0.3422  0.7308
 5840SOL    HW223126   6.226   4.380   1.515 -0.3178  0.6114 -1.1755
 5840SOL    HW323127   6.143   4.297   1.610  0.7378 -2.8522 -3.0866
 5840SOL    MW423128   6.154   4.369   1.562  0.5624 -0.5476 -0.0244
 5841SOL     OW23129   0.830   2.384   5.409  0.4336  0.3404 -0.0876
 5841SOL    HW223130   0.909   2.336   5.384 -0.0840 -0.2907 -0.5295
 5841SOL    HW323131   0.826   2.376   5.504 -0.4884 -1.8677 -0.2617
 5841SOL    MW423132   0.840   2.377   5.418  0.2437 -0.0342 -0.1689
 5842SOL     OW23133   3.483   5.746   1.160  0.0113 -0.3042 -0.3830
 5842SOL    HW223134   3.390   5.737   1.177 -0.2028  0.8174 -0.8285
 5842SOL    HW323135   3.517   5.657   1.157 -0.5880 -0.6851  2.1567
 5842SOL    MW423136   3.475   5.733   1.162 -0.0960 -0.2065 -0.1067
 5843SOL     OW23137   4.136   5.755   5.951 -0.1433  0.1861  0.2023
 5843SOL    HW223138   4.118   5.837   5.905 -0.5552 -0.8098 -1.4823
 5843SOL    HW323139   4.078   5.691   5.910 -1.5350 -0.5298  3.0336
 5843SOL    MW423140   4.126   5.758   5.940 -0.3813 -0.0398  0.3536
 5844SOL     OW23141   1.601   4.425   3.375  0.1827  0.8166 -0.2640
 5844SOL    HW223142   1.606   4.479   3.455 -0.4129 -0.6795  0.8205
 5844SOL    HW323143   1.656   4.350   3.394 -0.2868  0.2489 -1.1169
 5844SOL    MW423144   1.609   4.422   3.388  0.0422  0.5443 -0.2335
 5845SOL     OW23145   1.736   1.733   2.215 -0.1973 -0.6167 -0.2746
 5845SOL    HW223146   1.646   1.699   2.223  0.0751 -1.0156  1.3379
 5845SOL    HW323147   1.766   1.743   2.305  0.7123  1.3692 -0.7451
 5845SOL    MW423148   1.728   1.730   2.228 -0.0413 -0.4073 -0.1239
 5846SOL     OW23149   0.296   0.371   5.896 -0.2723 -0.1529 -0.0750
 5846SOL    HW223150   0.292   0.286   5.940  0.8596  0.3488  1.0730
 5846SOL    HW323151   0.246   0.429   5.953  2.8452  0.9556  1.8222
 5846SOL    MW423152   0.289   0.367   5.910  0.2884  0.0596  0.3268
 5847SOL     OW23153   5.166   4.290   0.847  0.4464  0.4178  0.1742
 5847SOL    HW223154   5.073   4.310   0.836  0.4573 -0.4113 -1.8275
 5847SOL    HW323155   5.212   4.363   0.805  0.6537  0.0150 -0.3103
 5847SOL    MW423156   5.160   4.302   0.840  0.4752  0.2553 -0.1538
 5848SOL     OW23157   5.057   2.442   5.064 -0.0130 -0.4796 -0.1610
 5848SOL    HW223158   5.118   2.396   5.121  0.1952  0.3534  0.2973
 5848SOL    HW323159   5.067   2.534   5.086  1.1714  0.0474 -2.5642
 5848SOL    MW423160   5.066   2.448   5.074  0.1707 -0.3001 -0.4176
 5849SOL     OW23161   0.304   6.049   5.890  0.5021  0.4739  0.2743
 5849SOL    HW223162   0.277   6.088   5.973  0.7886  1.0414  0.1060
 5849SOL    HW323163   0.312   5.956   5.908  0.0867  0.5312  0.7585
 5849SOL    MW423164   0.301   6.042   5.903  0.4851  0.5563  0.3160
 5850SOL     OW23165   2.531   3.151   3.634  0.3170 -0.1375 -0.1582
 5850SOL    HW223166   2.488   3.068   3.655  1.8581 -1.1272 -0.7776
 5850SOL    HW323167   2.550   3.190   3.719  0.4230 -0.8741  0.1637
 5850SOL    MW423168   2.527   3.145   3.648  0.5343 -0.3653 -0.1975
 5851SOL     OW23169   2.335   0.640   4.700  0.2907 -0.3914 -0.0485
 5851SOL    HW223170   2.290   0.600   4.626 -1.7368  2.5287 -0.5584
 5851SOL    HW323171   2.413   0.680   4.661  1.9978 -3.0447  0.3679
 5851SOL    MW423172   2.340   0.640   4.685  0.2485 -0.3562 -0.0608
 5852SOL     OW23173   3.212   4.520   6.375 -0.0146 -0.5599 -0.4076
 5852SOL    HW223174   3.186   4.504   6.284  0.7447 -1.8563 -0.4266
 5852SOL    HW323175   3.178   4.607   6.395 -0.2387 -0.2738 -1.9147
 5852SOL    MW423176   3.204   4.529   6.365  0.0560 -0.6932 -0.6089
 5853SOL     OW23177   1.938   0.569   0.753  0.4400 -0.6473 -0.3178
 5853SOL    HW223178   1.943   0.488   0.804 -0.1968 -0.1059  0.6265
 5853SOL    HW323179   1.895   0.631   0.811  0.3371  0.1905 -1.2716
 5853SOL    MW423180   1.933   0.566   0.767  0.3424 -0.4653 -0.3190
 5854SOL     OW23181   0.594   2.846   4.315 -0.2900 -0.1319  0.2593
 5854SOL    HW223182   0.625   2.769   4.269 -0.7080 -0.6531  0.8397
 5854SOL    HW323183   0.654   2.856   4.389 -1.5589 -1.2560  1.4968
 5854SOL    MW423184   0.606   2.837   4.319 -0.5126 -0.3490  0.4992
 5855SOL     OW23185   1.325   2.388   2.968 -0.0894 -0.2922 -0.3320
 5855SOL    HW223186   1.234   2.370   2.989 -0.2036  0.9251  0.2697
 5855SOL    HW323187   1.329   2.482   2.954  1.5834  0.1754  2.5009
 5855SOL    MW423188   1.314   2.398   2.969  0.1162 -0.0699  0.1212
 5856SOL     OW23189   2.492   3.296   0.014  0.0727  0.0435  0.4310
 5856SOL    HW223190   2.469   3.336   0.098  1.2133  0.2247  0.6735
 5856SOL    HW323191   2.408   3.267  -0.022 -0.8575  2.6521  0.2284
 5856SOL    MW423192   2.478   3.298   0.021  0.1004  0.4116  0.4362
 5857SOL     OW23193   5.553   3.581   1.780  0.0069  0.1691  0.1740
 5857SOL    HW223194   5.527   3.548   1.693 -2.2680  0.7169  0.5754
 5857SOL    HW323195   5.537   3.675   1.775 -2.9611 -0.1072  1.9721
 5857SOL    MW423196   5.547   3.589   1.768 -0.6848  0.2049  0.4642
 5858SOL     OW23197   2.815   0.057   6.289 -0.3240  0.0851 -0.1311
 5858SOL    HW223198   2.825   0.147   6.320  0.0260 -0.1354  0.4113
 5858SOL    HW323199   2.905   0.028   6.271 -0.3386 -0.4647  0.6094
 5858SOL    MW423200   2.829   0.065   6.291 -0.2797 -0.0165  0.0382
 5859SOL     OW23201   2.619   2.450   6.077 -0.0479 -0.4048  0.1348
 5859SOL    HW223202   2.592   2.428   6.166  0.1338 -2.8472 -0.3351
 5859SOL    HW323203   2.544   2.496   6.039 -0.6836 -0.6264  1.1009
 5859SOL    MW423204   2.605   2.453   6.084 -0.1078 -0.7563  0.2003
 5860SOL     OW23205   6.407   6.316   6.277  0.2042 -0.5075 -0.2639
 5860SOL    HW223206   6.480   6.262   6.308 -1.3943 -3.1465 -0.8039
 5860SOL    HW323207   6.329   6.275   6.315 -1.0729  2.3295  0.4514
 5860SOL    MW423208   6.407   6.303   6.286 -0.1752 -0.4814 -0.2408
 5861SOL     OW23209   2.046   4.713   2.176  0.3803 -0.8943 -0.2398
 5861SOL    HW223210   2.133   4.690   2.209  0.7672 -1.0679 -1.3378
 5861SOL    HW323211   2.000   4.630   2.167  1.1822 -1.1762 -2.5523
 5861SOL    MW423212   2.051   4.699   2.179  0.5371 -0.9544 -0.6897
 5862SOL     OW23213   4.718   1.661   1.697  0.1269 -0.4224 -0.3540
 5862SOL    HW223214   4.759   1.575   1.711 -0.4192 -0.2073  3.7563
 5862SOL    HW323215   4.726   1.676   1.603  2.6424 -3.7519 -0.8662
 5862SOL    MW423216   4.725   1.651   1.686  0.3868 -0.8333  0.1207
 5863SOL     OW23217   3.140   5.571   0.398  0.5837  0.2903 -0.0055
 5863SOL    HW223218   3.193   5.539   0.471 -1.2737 -0.0550  1.2662
 5863SOL    HW323219   3.075   5.629   0.439 -1.1077 -0.6556 -1.2137
 5863SOL    MW423220   3.138   5.575   0.413  0.1155  0.1199  0.0029
 5864SOL     OW23221   2.420   4.028   5.276  0.0554  0.9751 -0.3880
 5864SOL    HW223222   2.505   4.013   5.318  0.0824  1.1582 -0.3782
 5864SOL    HW323223   2.364   4.060   5.346 -0.0657  0.7029 -0.3599
 5864SOL    MW423224   2.424   4.030   5.291  0.0430  0.9634 -0.3830
 5865SOL     OW23225   1.743   1.893   1.638 -0.2567 -0.0446 -0.4210
 5865SOL    HW223226   1.662   1.914   1.591 -0.8953 -2.0610 -0.3180
 5865SOL    HW323227   1.714   1.869   1.726  0.8191  2.4756  0.7082
 5865SOL    MW423228   1.728   1.893   1.644 -0.1990  0.0219 -0.2584
 5866SOL     OW23229   1.627   5.430   3.512  0.2004 -0.1729 -0.2195
 5866SOL    HW223230   1.704   5.485   3.528 -0.3700  0.7222 -0.4970
 5866SOL    HW323231   1.574   5.439   3.591  0.6678 -1.3227  0.2566
 5866SOL    MW423232   1.630   5.439   3.525  0.1868 -0.2065 -0.1933
 5867SOL     OW23233   0.758   4.267   3.772 -0.7634 -0.0864 -0.4350
 5867SOL    HW223234   0.751   4.304   3.684  0.4386  0.7536 -0.1951
 5867SOL    HW323235   0.699   4.320   3.825  2.0142  2.6158  0.2171
 5867SOL    MW423236   0.749   4.278   3.768 -0.2384  0.3810 -0.3173
 5868SOL     OW23237   1.401   2.140   4.975  0.4001 -0.1738 -0.0969
 5868SOL    HW223238   1.407   2.169   4.885  0.6592 -0.0194 -0.0297
 5868SOL    HW323239   1.459   2.198   5.024 -0.5296  0.4134  0.3349
 5868SOL    MW423240   1.410   2.151   4.970  0.3116 -0.0760 -0.0310
 5869SOL     OW23241   4.391   2.674   1.578  0.1745 -0.5024  0.1280
 5869SOL    HW223242   4.327   2.618   1.533  0.0139 -0.6056  0.4829
 5869SOL    HW323243   4.346   2.758   1.589  0.4116 -0.3028 -0.3933
 5869SOL    MW423244   4.376   2.678   1.573  0.1846 -0.4897  0.1061
 5870SOL     OW23245   3.240   2.248   3.908 -0.0202 -0.2420 -0.0792
 5870SOL    HW223246   3.320   2.250   3.855 -0.6676 -0.5591 -1.0876
 5870SOL    HW323247   3.169   2.249   3.845 -0.8295 -0.0126  0.8077
 5870SOL    MW423248   3.241   2.248   3.893 -0.2123 -0.2536 -0.0952
 5871SOL     OW23249   3.351   3.667   3.153  0.3100 -0.0686  0.1928
 5871SOL    HW223250   3.416   3.732   3.130  0.1806 -0.1787 -0.5057
 5871SOL    HW323251   3.318   3.635   3.069 -0.8422  0.1851  0.5320
 5871SOL    MW423252   3.355   3.671   3.139  0.1410 -0.0497  0.1454
 5872SOL     OW23253   5.427   6.359   5.296 -0.0672 -0.4915  0.2215
 5872SOL    HW223254   5.458   6.276   5.261  1.9809  0.1264  0.4682
 5872SOL    HW323255   5.499   6.420   5.280 -1.2324  1.0672  0.7144
 5872SOL    MW423256   5.441   6.356   5.289  0.0493 -0.2043  0.3191
 5873SOL     OW23257   4.811   2.357   5.162 -0.3015 -0.3576 -0.0733
 5873SOL    HW223258   4.749   2.424   5.133 -0.4797 -0.0247  1.0240
 5873SOL    HW323259   4.896   2.388   5.132 -0.4058  0.2765  0.2829
 5873SOL    MW423260   4.814   2.370   5.154 -0.3388 -0.2301  0.1184
 5874SOL     OW23261   4.966   2.168   4.149  0.2060 -0.2049 -0.4663
 5874SOL    HW223262   4.946   2.102   4.216  1.6901 -0.4124 -0.2140
 5874SOL    HW323263   4.945   2.124   4.066 -3.3548  0.6289 -0.1881
 5874SOL    MW423264   4.960   2.153   4.147 -0.0680 -0.1223 -0.3963
 5875SOL     OW23265   2.739   4.062   6.327 -0.0392 -0.2395 -0.1651
 5875SOL    HW223266   2.805   4.121   6.362 -0.5649  1.7004 -2.2628
 5875SOL    HW323267   2.769   4.039   6.239 -1.6426 -0.0941 -0.7951
 5875SOL    MW423268   2.751   4.067   6.320 -0.3201  0.0356 -0.5250
 5876SOL     OW23269   4.639   0.427   5.852 -0.6336 -0.5065 -0.4373
 5876SOL    HW223270   4.570   0.490   5.870  0.6488  0.5570  1.0576
 5876SOL    HW323271   4.676   0.455   5.768 -0.9823 -0.1033 -0.4580
 5876SOL    MW423272   4.635   0.439   5.843 -0.5104 -0.3130 -0.2428
 5877SOL     OW23273   1.815   1.670   3.045  0.3567  0.0153 -0.4049
 5877SOL    HW223274   1.746   1.687   2.980  0.6587 -0.1713 -0.7749
 5877SOL    HW323275   1.896   1.693   3.000  0.5155  0.5194  0.1309
 5877SOL    MW423276   1.816   1.675   3.031  0.4175  0.0572 -0.3830
 5878SOL     OW23277   4.108   0.897   1.511  0.0574  0.2551 -0.3125
 5878SOL    HW223278   4.053   0.874   1.437  0.6270 -1.0759 -0.3427
 5878SOL    HW323279   4.047   0.927   1.579 -0.5708  0.1715 -0.8377
 5878SOL    MW423280   4.093   0.898   1.510  0.0497  0.0685 -0.3857
 5879SOL     OW23281   3.498   0.946   5.066 -0.2572 -0.6799  0.0284
 5879SOL    HW223282   3.451   0.973   5.144 -0.6713 -0.7333 -0.2026
 5879SOL    HW323283   3.491   1.021   5.007 -0.1018 -0.7094 -0.0286
 5879SOL    MW423284   3.491   0.960   5.068 -0.2913 -0.6908 -0.0096
 5880SOL     OW23285   0.111   2.591   1.047  0.2182  0.3421 -0.1861
 5880SOL    HW223286   0.180   2.525   1.044  0.5540  0.6468  0.6101
 5880SOL    HW323287   0.156   2.674   1.036  0.1458  0.6305  1.4473
 5880SOL    MW423288   0.126   2.593   1.045  0.2530  0.4204  0.1344
 5881SOL     OW23289   2.002   4.430   2.018  0.4672  0.4737  0.0892
 5881SOL    HW223290   2.025   4.397   1.932  0.0345 -1.9493  0.8299
 5881SOL    HW323291   2.079   4.411   2.072  1.2909  3.1931  0.0328
 5881SOL    MW423292   2.016   4.423   2.014  0.5188  0.5128  0.1794
 5882SOL     OW23293   6.201   3.919   2.731  0.1976  0.1198  0.2143
 5882SOL    HW223294   6.267   3.906   2.799  0.9446 -0.2350 -0.5537
 5882SOL    HW323295   6.252   3.929   2.650 -0.6758  0.3454 -0.3204
 5882SOL    MW423296   6.216   3.919   2.729  0.1809  0.1028  0.0424
 5883SOL     OW23297   0.253   5.926   1.138 -0.3656 -0.4002  0.1049
 5883SOL    HW223298   0.307   5.849   1.118 -0.8793 -0.9379  0.7285
 5883SOL    HW323299   0.292   5.997   1.087 -0.0993 -1.1524 -0.7636
 5883SOL    MW423300   0.266   5.925   1.129 -0.3983 -0.5704  0.0726
 5884SOL     OW23301   1.608   3.413   3.581 -0.7588  0.4908  0.6085
 5884SOL    HW223302   1.612   3.500   3.620  1.7891  0.4107  0.7337
 5884SOL    HW323303   1.648   3.424   3.494  1.3353 -0.8278  1.3305
 5884SOL    MW423304   1.614   3.426   3.575 -0.1463  0.3063  0.7203
 5885SOL     OW23305   0.620   1.754   5.404 -0.1914  0.0289 -0.1556
 5885SOL    HW223306   0.712   1.781   5.412  0.0361  0.0702 -2.2298
 5885SOL    HW323307   0.578   1.788   5.482  1.8946 -1.5931  1.8158
 5885SOL    MW423308   0.627   1.762   5.415  0.1139 -0.1797 -0.1692
 5886SOL     OW23309   3.659   2.805   2.510 -0.0969 -0.5327 -0.5574
 5886SOL    HW223310   3.651   2.716   2.546  0.6738 -0.4393 -0.1356
 5886SOL    HW323311   3.753   2.819   2.503 -0.1406 -1.0550 -3.8971
 5886SOL    MW423312   3.670   2.795   2.513 -0.0010 -0.5893 -0.9424
 5887SOL     OW23313   1.612   3.445   5.886 -0.7516 -0.2313 -0.3373
 5887SOL    HW223314   1.645   3.461   5.797 -2.0361 -0.9044 -0.9641
 5887SOL    HW323315   1.680   3.479   5.943  1.1441 -1.7657 -1.5515
 5887SOL    MW423316   1.625   3.451   5.881 -0.6710 -0.5226 -0.5802
 5888SOL     OW23317   4.552   0.514   3.580 -0.7685  0.3396 -0.1778
 5888SOL    HW223318   4.459   0.503   3.564 -0.2795 -1.8725 -2.2413
 5888SOL    HW323319   4.563   0.499   3.674 -2.2782 -1.7431 -0.2657
 5888SOL    MW423320   4.541   0.511   3.590 -0.9031 -0.2270 -0.4617
 5889SOL     OW23321   5.919   2.470   0.843  0.6955  0.2909  0.0142
 5889SOL    HW223322   5.921   2.563   0.867  0.0491  0.3100 -0.0067
 5889SOL    HW323323   5.851   2.432   0.898  1.1167 -0.2270  0.1909
 5889SOL    MW423324   5.910   2.478   0.854  0.6658  0.2251  0.0348
 5890SOL     OW23325   5.120   4.702   0.214  0.9581 -0.0356  0.2234
 5890SOL    HW223326   5.203   4.745   0.195  2.0212 -2.5249 -1.2639
 5890SOL    HW323327   5.138   4.649   0.293 -0.9451  3.5704  3.4146
 5890SOL    MW423328   5.133   4.700   0.222  0.8473  0.1117  0.4482
 5891SOL     OW23329   3.636   3.610   3.900  0.7201 -0.0179  0.3513
 5891SOL    HW223330   3.660   3.629   3.809  1.0256 -0.2085  0.3902
 5891SOL    HW323331   3.686   3.531   3.921 -0.8043 -1.0933  0.0726
 5891SOL    MW423332   3.646   3.602   3.890  0.5593 -0.1850  0.3197
 5892SOL     OW23333   3.992   2.662   3.325 -0.2643 -0.3258 -0.2937
 5892SOL    HW223334   4.052   2.735   3.339 -0.5709  0.2027 -1.6067
 5892SOL    HW323335   4.044   2.596   3.280 -0.5157 -0.0544 -1.0072
 5892SOL    MW423336   4.007   2.663   3.321 -0.3379 -0.2202 -0.5611
 5893SOL     OW23337   0.124   4.952   6.048 -0.0412 -0.2931  0.4172
 5893SOL    HW223338   0.125   5.042   6.082 -0.5753 -0.7762  1.7668
 5893SOL    HW323339   0.153   4.961   5.957  0.8989  1.1211  0.8171
 5893SOL    MW423340   0.128   4.965   6.041  0.0123 -0.1703  0.6480
 5894SOL     OW23341   1.962   5.964   4.083 -0.0633  0.5120 -0.2585
 5894SOL    HW223342   2.010   5.993   4.160 -0.9012 -3.4597  2.0539
 5894SOL    HW323343   2.026   5.916   4.030 -0.4282 -0.9142  0.5338
 5894SOL    MW423344   1.976   5.961   4.086 -0.2220 -0.2002  0.1511
 5895SOL     OW23345   3.600   5.871   4.321  0.4426  0.4587 -0.1076
 5895SOL    HW223346   3.656   5.919   4.381  0.5065 -0.1292  0.3166
 5895SOL    HW323347   3.527   5.839   4.375  1.6043 -1.9340  0.1928
 5895SOL    MW423348   3.597   5.873   4.336  0.6043  0.0655 -0.0120
 5896SOL     OW23349   1.352   5.660   3.585 -0.1477  0.3257 -0.1004
 5896SOL    HW223350   1.285   5.728   3.595 -1.8673 -0.9122 -2.2831
 5896SOL    HW323351   1.431   5.708   3.561 -0.6325  1.6999  0.8587
 5896SOL    MW423352   1.353   5.676   3.583 -0.4385  0.3437 -0.2618
 5897SOL     OW23353   0.649   1.974   6.048  0.8415  0.4426 -0.1412
 5897SOL    HW223354   0.598   1.982   6.128 -0.9041  0.1462 -1.1744
 5897SOL    HW323355   0.591   2.007   5.979  0.8764 -2.5744 -1.7899
 5897SOL    MW423356   0.635   1.979   6.049  0.6158  0.0054 -0.4950
 5898SOL     OW23357   3.714   3.215   4.449  0.0570 -0.2412 -0.0661
 5898SOL    HW223358   3.627   3.194   4.414  0.1509  0.0927 -0.5024
 5898SOL    HW323359   3.703   3.208   4.544 -0.7189  0.8188 -0.0581
 5898SOL    MW423360   3.701   3.211   4.457 -0.0330 -0.0573 -0.1226
 5899SOL     OW23361   0.224   0.172   0.810  0.3971  0.1268  0.0212
 5899SOL    HW223362   0.281   0.235   0.765  2.2774  0.3974  2.5792
 5899SOL    HW323363   0.144   0.222   0.829  1.0719  1.1517  0.2629
 5899SOL    MW423364   0.221   0.187   0.806  0.7342  0.2977  0.3906
 5900SOL     OW23365   2.808   3.061   5.014  0.0306  0.0596  0.3940
 5900SOL    HW223366   2.715   3.045   5.001  0.1340 -1.6680  1.3955
 5900SOL    HW323367   2.819   3.063   5.109  1.1219 -0.6207  0.3051
 5900SOL    MW423368   2.798   3.059   5.025  0.1882 -0.2581  0.5144
 5901SOL     OW23369   3.636   0.238   1.162  0.2559  0.7628 -0.1156
 5901SOL    HW223370   3.609   0.244   1.254  0.5366  0.1897  0.0053
 5901SOL    HW323371   3.554   0.247   1.113 -0.1518 -0.7989  0.2479
 5901SOL    MW423372   3.621   0.240   1.168  0.2391  0.4811 -0.0516
 5902SOL     OW23373   1.112   4.212   3.536  0.4330 -0.7090 -0.2124
 5902SOL    HW223374   1.207   4.218   3.527  0.3476 -1.7729 -2.8341
 5902SOL    HW323375   1.094   4.118   3.541 -0.5547 -0.7040 -2.2905
 5902SOL    MW423376   1.122   4.201   3.535  0.2915 -0.8487 -0.8325
 5903SOL     OW23377   3.907   5.081   3.057  0.2671 -0.0654 -0.3939
 5903SOL    HW223378   3.867   5.013   3.111 -0.0441  0.4457  0.0357
 5903SOL    HW323379   3.833   5.133   3.025  0.1176 -2.1805 -3.9575
 5903SOL    MW423380   3.892   5.079   3.060  0.2063 -0.2771 -0.8074
 5904SOL     OW23381   0.211   1.108   0.870  0.5608 -0.4804 -0.7327
 5904SOL    HW223382   0.265   1.179   0.834  0.2515  0.8154  1.2088
 5904SOL    HW323383   0.122   1.142   0.867  0.2707 -1.2441 -0.8008
 5904SOL    MW423384   0.207   1.122   0.865  0.4817 -0.4102 -0.4855
 5905SOL     OW23385   5.673   5.690   5.033  0.0715  0.2546 -0.4204
 5905SOL    HW223386   5.757   5.695   5.079 -0.3754 -3.8992  1.3658
 5905SOL    HW323387   5.678   5.607   4.985 -2.8117  0.1556 -0.6948
 5905SOL    MW423388   5.685   5.679   5.033 -0.3679 -0.3065 -0.2209
 5906SOL     OW23389   5.848   5.849   1.720 -0.0567 -0.4590 -0.2738
 5906SOL    HW223390   5.920   5.912   1.718  2.1869 -2.8080  0.9606
 5906SOL    HW323391   5.883   5.772   1.676 -2.4068 -1.2001 -0.9806
 5906SOL    MW423392   5.862   5.847   1.714 -0.0707 -0.8667 -0.2042
 5907SOL     OW23393   5.342   1.291   3.192  0.4329  0.3187  0.0093
 5907SOL    HW223394   5.335   1.386   3.204  2.7058  0.5337  0.1575
 5907SOL    HW323395   5.295   1.254   3.267  1.0829  1.3800  0.9895
 5907SOL    MW423396   5.335   1.299   3.204  0.8185  0.4871  0.1582
 5908SOL     OW23397   2.287   1.615   6.082  0.1872  0.0638  0.1882
 5908SOL    HW223398   2.368   1.664   6.068  0.0399  0.1725 -0.3344
 5908SOL    HW323399   2.297   1.536   6.029  1.1256 -1.3290  2.3385
 5908SOL    MW423400   2.299   1.611   6.073  0.2915 -0.1056  0.4029
 5909SOL     OW23401   0.870   4.886   0.476  0.0250  0.3154 -0.3342
 5909SOL    HW223402   0.818   4.948   0.425  1.1249  0.1126 -1.7838
 5909SOL    HW323403   0.809   4.818   0.503 -1.0498  1.6114  0.6328
 5909SOL    MW423404   0.855   4.885   0.473  0.0283  0.4596 -0.3978
 5910SOL     OW23405   5.699   0.435   5.439  0.3020 -0.0035  0.1046
 5910SOL    HW223406   5.706   0.385   5.358  0.4717 -0.3788  0.3439
 5910SOL    HW323407   5.733   0.521   5.417 -2.7093  1.0077 -1.1194
 5910SOL    MW423408   5.705   0.439   5.426 -0.0729  0.0804 -0.0253
 5911SOL     OW23409   1.896   3.809   1.471 -0.0204  0.4353  0.3883
 5911SOL    HW223410   1.882   3.720   1.503 -0.6042  0.4722  0.2530
 5911SOL    HW323411   1.809   3.837   1.442  0.0620  1.2372  0.9035
 5911SOL    MW423412   1.882   3.801   1.471 -0.0866  0.5460  0.4384
 5912SOL     OW23413   1.114   0.272   2.426 -0.1689  0.1853  0.1547
 5912SOL    HW223414   1.076   0.352   2.388  0.6444  1.6978  2.3298
 5912SOL    HW323415   1.200   0.299   2.457  0.7021 -1.9230 -0.2448
 5912SOL    MW423416   1.120   0.286   2.425  0.0533  0.1067  0.3889
 5913SOL     OW23417   2.026   1.142   2.181  0.4878 -0.1754 -0.2872
 5913SOL    HW223418   2.078   1.142   2.262 -0.6888 -0.3499  0.4976
 5913SOL    HW323419   1.968   1.067   2.190  0.9188 -0.7160 -1.7146
 5913SOL    MW423420   2.026   1.132   2.193  0.3894 -0.2698 -0.3720
 5914SOL     OW23421   5.513   1.142   3.039 -0.2696  0.0344  0.0499
 5914SOL    HW223422   5.462   1.196   3.100  1.2391  0.9338  0.5570
 5914SOL    HW323423   5.535   1.202   2.968  1.0838  0.0143  0.4262
 5914SOL    MW423424   5.509   1.157   3.038  0.1080  0.1504  0.1664
 5915SOL     OW23425   2.166   5.339   1.048 -0.7886 -0.0173  0.2509
 5915SOL    HW223426   2.156   5.393   0.970  0.7564  1.0093  0.7178
 5915SOL    HW323427   2.103   5.375   1.110 -1.3197 -0.1992 -0.1720
 5915SOL    MW423428   2.156   5.350   1.046 -0.6548  0.0942  0.2567
 5916SOL     OW23429   2.477   2.647   4.991  0.0824 -0.3104 -0.0187
 5916SOL    HW223430   2.553   2.598   4.960  0.8812  1.0079 -0.2092
 5916SOL    HW323431   2.414   2.642   4.919  0.3580 -0.6285 -0.2369
 5916SOL    MW423432   2.479   2.640   4.978  0.2242 -0.1784 -0.0726
 5917SOL     OW23433   4.696   5.842   0.515  0.2209 -0.5965  0.2197
 5917SOL    HW223434   4.664   5.930   0.534  1.8159 -0.2995  1.7416
 5917SOL    HW323435   4.754   5.821   0.587 -0.5253 -3.1471  0.1754
 5917SOL    MW423436   4.699   5.850   0.527  0.3329 -0.8938  0.4146
 5918SOL     OW23437   1.416   5.869   1.151  0.1190  0.2381  0.2608
 5918SOL    HW223438   1.426   5.916   1.233 -1.9160 -0.2757  0.8628
 5918SOL    HW323439   1.450   5.781   1.168  0.8436  0.4865  0.1446
 5918SOL    MW423440   1.422   5.864   1.164 -0.0539  0.2031  0.3249
 5919SOL     OW23441   2.799   3.493   3.600  0.7336 -0.0078  0.0442
 5919SOL    HW223442   2.750   3.444   3.534  2.2575 -2.1813  0.4167
 5919SOL    HW323443   2.760   3.467   3.683 -0.4439  1.8634  0.1411
 5919SOL    MW423444   2.787   3.483   3.602  0.7793 -0.0477  0.1061
 5920SOL     OW23445   0.970   5.842   1.859  0.2050 -0.3560  0.9106
 5920SOL    HW223446   0.950   5.861   1.950  1.4214 -1.6797  1.4851
 5920SOL    HW323447   0.926   5.758   1.841  1.0719 -0.7772  0.7023
 5920SOL    MW423448   0.961   5.833   1.868  0.4799 -0.5863  0.9589
 5921SOL     OW23449   1.729   2.099   4.945  0.5626 -0.7707  0.0030
 5921SOL    HW223450   1.815   2.116   4.907 -0.1376  0.2542 -1.2051
 5921SOL    HW323451   1.681   2.052   4.877 -0.4595  0.4234 -0.1450
 5921SOL    MW423452   1.734   2.095   4.931  0.3354 -0.4779 -0.1759
 5922SOL     OW23453   0.091   6.393   0.596  0.1412 -0.2986  0.0195
 5922SOL    HW223454   0.150   6.453   0.641  0.1101 -0.1518 -0.1340
 5922SOL    HW323455   0.093   6.313   0.649 -0.2532  0.0298  0.5427
 5922SOL    MW423456   0.099   6.390   0.609  0.0851 -0.2359  0.0682
 5923SOL     OW23457   2.611   2.195   5.727 -0.0728  0.5421 -0.2202
 5923SOL    HW223458   2.682   2.255   5.705  0.1426  0.2245 -0.4066
 5923SOL    HW323459   2.620   2.181   5.821 -0.5352  1.3188 -0.0540
 5923SOL    MW423460   2.622   2.201   5.736 -0.1054  0.6026 -0.2229
 5924SOL     OW23461   4.328   0.998   3.217 -0.0730  0.3636 -0.5996
 5924SOL    HW223462   4.308   0.906   3.200  0.8638 -0.0040  0.1989
 5924SOL    HW323463   4.405   1.016   3.162  0.7829  0.1685  0.4863
 5924SOL    MW423464   4.336   0.988   3.207  0.1635  0.2894 -0.3510
 5925SOL     OW23465   4.887   5.018   2.309  0.0375  0.4265 -0.0716
 5925SOL    HW223466   4.939   5.079   2.258 -0.0095 -0.3951 -1.1543
 5925SOL    HW323467   4.798   5.029   2.275 -0.3341  1.1184  1.0762
 5925SOL    MW423468   4.882   5.027   2.298 -0.0177  0.4094 -0.0630
 5926SOL     OW23469   1.912   2.670   4.461  0.9076 -0.3958  0.2763
 5926SOL    HW223470   1.928   2.750   4.511  0.0505 -0.0427  0.0156
 5926SOL    HW323471   1.982   2.668   4.396  2.1592 -0.9769  1.6118
 5926SOL    MW423472   1.923   2.681   4.459  0.9597 -0.4259  0.4181
 5927SOL     OW23473   1.948   3.707   0.310  0.1479 -0.3767  0.6823
 5927SOL    HW223474   1.853   3.717   0.323 -0.0337 -1.1696  0.0646
 5927SOL    HW323475   1.981   3.796   0.311 -0.7635 -0.0037 -0.1249
 5927SOL    MW423476   1.940   3.720   0.312  0.0037 -0.4321  0.4943
 5928SOL     OW23477   4.134   5.523   0.880  0.0473 -0.1273  0.4331
 5928SOL    HW223478   4.217   5.544   0.837 -1.0322  2.4646 -0.5796
 5928SOL    HW323479   4.091   5.462   0.820  0.9814 -1.0961  0.7240
 5928SOL    MW423480   4.139   5.518   0.866  0.0281  0.0868  0.3378
 5929SOL     OW23481   3.793   5.136   6.099  0.0577  0.0396 -0.6474
 5929SOL    HW223482   3.879   5.094   6.104 -0.7939 -1.7554 -0.0754
 5929SOL    HW323483   3.733   5.065   6.077 -1.5488  0.8148  0.9514
 5929SOL    MW423484   3.797   5.121   6.097 -0.2666 -0.0949 -0.3610
 5930SOL     OW23485   3.371   3.084   4.792 -0.1403 -0.5068 -0.2257
 5930SOL    HW223486   3.281   3.113   4.778  0.1840  0.2256 -0.8624
 5930SOL    HW323487   3.379   3.075   4.887 -0.8946 -0.6266 -0.1691
 5930SOL    MW423488   3.360   3.087   4.803 -0.1970 -0.4260 -0.3022
 5931SOL     OW23489   3.859   4.137   2.812  0.0256 -0.3486 -0.3331
 5931SOL    HW223490   3.831   4.218   2.855  0.8707 -0.7856  1.0879
 5931SOL    HW323491   3.923   4.165   2.747  3.1795 -0.0640  2.6218
 5931SOL    MW423492   3.864   4.151   2.809  0.5532 -0.3687  0.2442
 5932SOL     OW23493   2.209   2.360   6.415 -0.1853 -0.2111  0.0603
 5932SOL    HW223494   2.255   2.432   6.458  0.5557  0.1036 -1.1812
 5932SOL    HW323495   2.162   2.315   6.485 -1.6870  2.2027  0.6855
 5932SOL    MW423496   2.209   2.363   6.430 -0.2857  0.1489 -0.0211
 5933SOL     OW23497   2.160   0.613   2.915  0.2593  0.4762  0.3468
 5933SOL    HW223498   2.201   0.674   2.854 -0.4981  1.4634  0.8186
 5933SOL    HW323499   2.067   0.632   2.911 -0.1678 -1.4634 -0.3949
 5933SOL    MW423500   2.153   0.623   2.906  0.1030  0.3506  0.3112
 5934SOL     OW23501   5.254   4.441   6.162  0.2498 -0.2667 -0.3457
 5934SOL    HW223502   5.286   4.370   6.218 -0.5551 -0.1486  0.2730
 5934SOL    HW323503   5.195   4.491   6.218 -0.3903 -0.0125 -1.2348
 5934SOL    MW423504   5.251   4.438   6.177  0.0592 -0.2176 -0.3814
 5935SOL     OW23505   3.954   5.509   1.999 -0.6016 -0.1129  0.3834
 5935SOL    HW223506   3.962   5.441   1.932  0.2843  0.5092 -0.1565
 5935SOL    HW323507   3.977   5.590   1.954  0.8071  0.2159  1.6167
 5935SOL    MW423508   3.958   5.510   1.984 -0.2989  0.0126  0.4749
 5936SOL     OW23509   5.224   0.517   5.031 -0.0839  0.0797 -0.3367
 5936SOL    HW223510   5.292   0.451   5.050 -1.3327 -1.1594  0.0280
 5936SOL    HW323511   5.258   0.598   5.069 -0.5703 -1.3561  3.7220
 5936SOL    MW423512   5.238   0.519   5.039 -0.3129 -0.2732  0.2469
 5937SOL     OW23513   5.858   6.234   0.520  0.1458  0.6032 -0.2172
 5937SOL    HW223514   5.869   6.155   0.468  0.3984  0.7633 -0.4126
 5937SOL    HW323515   5.867   6.306   0.457 -2.1101  0.7757 -0.4376
 5937SOL    MW423516   5.860   6.233   0.505 -0.1185  0.6471 -0.2720
 5938SOL     OW23517   4.059   0.243   2.427  0.1525 -0.2086  0.2509
 5938SOL    HW223518   4.081   0.315   2.369  0.1178 -0.3671  0.0426
 5938SOL    HW323519   3.980   0.273   2.473  0.0682 -0.1633  0.0778
 5938SOL    MW423520   4.051   0.256   2.426  0.1368 -0.2235  0.2006
 5939SOL     OW23521   2.216   1.624   4.556 -0.1177 -0.2176 -0.1372
 5939SOL    HW223522   2.224   1.556   4.489 -0.8108  0.3686 -0.8258
 5939SOL    HW323523   2.301   1.625   4.599 -0.0308 -1.3954 -0.2383
 5939SOL    MW423524   2.228   1.615   4.553 -0.1977 -0.2956 -0.2414
 5940SOL     OW23525   6.258   2.368   0.424  0.4344  0.0896  0.0300
 5940SOL    HW223526   6.275   2.379   0.517  0.3086  1.2422 -0.0751
 5940SOL    HW323527   6.164   2.354   0.417  0.5062 -0.4756  0.1037
 5940SOL    MW423528   6.248   2.368   0.435  0.4273  0.1671  0.0258
 5941SOL     OW23529   2.625   0.945   5.818 -0.1413  0.4460  0.2509
 5941SOL    HW223530   2.589   1.022   5.774 -2.5734 -1.2037 -0.8307
 5941SOL    HW323531   2.696   0.916   5.761  0.5258  1.5973  0.4588
 5941SOL    MW423532   2.630   0.951   5.805 -0.3741  0.3802  0.1356
 5942SOL     OW23533   3.116   5.414   5.593  0.4259  0.5559 -0.3255
 5942SOL    HW223534   3.020   5.417   5.602  0.3758  1.2143 -0.9681
 5942SOL    HW323535   3.131   5.350   5.523  0.4090  1.0050 -0.7449
 5942SOL    MW423536   3.105   5.406   5.585  0.4171  0.7021 -0.4656
 5943SOL     OW23537   5.953   2.723   0.349  0.1325 -0.3455 -0.4056
 5943SOL    HW223538   6.039   2.686   0.369  1.4953  2.6615 -0.1769
 5943SOL    HW323539   5.927   2.680   0.268  1.7058 -1.5427 -0.3224
 5943SOL    MW423540   5.961   2.712   0.341  0.5199 -0.1067 -0.3644
 5944SOL     OW23541   5.306   5.093   2.998  0.4008  0.5114 -0.6320
 5944SOL    HW223542   5.373   5.063   3.060  1.1040 -1.9862 -2.4335
 5944SOL    HW323543   5.350   5.092   2.913 -1.2452  1.3056 -1.5380
 5944SOL    MW423544   5.321   5.089   2.995  0.2764  0.2866 -0.9892
 5945SOL     OW23545   2.873   0.775   0.624  0.2013 -1.0898 -0.6485
 5945SOL    HW223546   2.954   0.727   0.612  1.1090 -0.2382  1.5448
 5945SOL    HW323547   2.885   0.823   0.706 -1.2991  1.5389 -1.8288
 5945SOL    MW423548   2.885   0.775   0.633  0.1231 -0.6306 -0.5149
 5946SOL     OW23549   4.143   3.360   3.419  0.0384 -0.3210 -0.0906
 5946SOL    HW223550   4.199   3.402   3.354 -0.3927 -0.4994 -0.5796
 5946SOL    HW323551   4.069   3.326   3.369 -0.7307  0.2923  0.6092
 5946SOL    MW423552   4.140   3.361   3.404 -0.1200 -0.2636 -0.0628
 5947SOL     OW23553   0.623   0.721   5.219  0.2574 -0.0583 -0.7387
 5947SOL    HW223554   0.593   0.770   5.142 -0.0297  0.7600 -0.1233
 5947SOL    HW323555   0.613   0.629   5.195 -1.1591  0.1890 -1.1704
 5947SOL    MW423556   0.618   0.716   5.205  0.0326  0.0823 -0.7145
 5948SOL     OW23557   2.082   5.700   3.177 -0.1417 -0.2731  0.2789
 5948SOL    HW223558   2.013   5.644   3.211 -0.8871  0.1851 -0.4193
 5948SOL    HW323559   2.077   5.779   3.231  0.1075 -0.3975  0.4861
 5948SOL    MW423560   2.072   5.703   3.189 -0.2072 -0.2291  0.2141
 5949SOL     OW23561   6.251   2.669   4.099 -0.3324 -0.3745  0.1385
 5949SOL    HW223562   6.221   2.754   4.133  1.2157  1.3410 -2.4463
 5949SOL    HW323563   6.347   2.676   4.099 -0.1981 -0.7951 -3.0140
 5949SOL    MW423564   6.260   2.681   4.104 -0.1104 -0.2036 -0.6184
 5950SOL     OW23565   5.483   0.257   6.380 -0.0051 -0.3782  0.4897
 5950SOL    HW223566   5.397   0.227   6.348  0.1835 -1.7124  1.1816
 5950SOL    HW323567   5.503   0.199   6.453  0.4461  1.4108  1.8527
 5950SOL    MW423568   5.474   0.246   6.385  0.0793 -0.3182  0.7608
 5951SOL     OW23569   5.306   6.407   3.646 -0.1371 -0.2876 -0.0571
 5951SOL    HW223570   5.321   6.496   3.678  0.3975 -0.0406 -0.9502
 5951SOL    HW323571   5.376   6.393   3.583 -0.0700 -1.4482  0.2671
 5951SOL    MW423572   5.317   6.417   3.642 -0.0577 -0.4081 -0.1322
 5952SOL     OW23573   1.284   0.153   3.090 -0.3209  0.3993  0.1768
 5952SOL    HW223574   1.201   0.148   3.043  0.4026 -0.1542 -1.0654
 5952SOL    HW323575   1.307   0.062   3.108 -0.0010  0.5523  0.5610
 5952SOL    MW423576   1.276   0.140   3.086 -0.1832  0.3464  0.0636
 5953SOL     OW23577   4.190   1.041   4.195 -0.4735 -0.1439  0.8523
 5953SOL    HW223578   4.227   1.006   4.114 -2.3251 -0.9557  0.2972
 5953SOL    HW323579   4.236   0.994   4.265  1.6671  1.0905  0.3611
 5953SOL    MW423580   4.201   1.030   4.194 -0.4353 -0.0881  0.7143
 5954SOL     OW23581   1.355   4.039   0.012 -0.8775 -0.9634 -0.2317
 5954SOL    HW223582   1.332   4.005  -0.074 -0.4590  0.3378 -0.8838
 5954SOL    HW323583   1.437   3.994   0.035 -0.8093 -1.0641 -0.6643
 5954SOL    MW423584   1.363   4.029   0.004 -0.8133 -0.8050 -0.3748
 5955SOL     OW23585   6.402   0.113   0.198 -0.3178  0.5238 -0.2443
 5955SOL    HW223586   6.447   0.197   0.199 -0.5459  0.6401  0.2686
 5955SOL    HW323587   6.362   0.105   0.284  0.0546 -0.3061 -0.1371
 5955SOL    MW423588   6.402   0.123   0.209 -0.2987  0.4296 -0.1625
 5956SOL     OW23589   2.621   4.989   3.265 -0.0012  0.5997 -0.7277
 5956SOL    HW223590   2.585   5.051   3.329  1.1314  0.3146  0.2264
 5956SOL    HW323591   2.662   4.921   3.319 -2.5665 -1.8599 -1.7111
 5956SOL    MW423592   2.622   4.988   3.281 -0.1902  0.2376 -0.7316
 5957SOL     OW23593   3.405   1.370   5.018  0.4201 -0.2932 -0.6636
 5957SOL    HW223594   3.408   1.466   5.014 -0.4014 -0.0121  2.5624
 5957SOL    HW323595   3.493   1.344   5.046 -0.1392 -0.1837  1.2967
 5957SOL    MW423596   3.417   1.379   5.021  0.2379 -0.2417  0.0207
 5958SOL     OW23597   0.032   1.513   5.501 -0.5146 -0.1918 -0.3613
 5958SOL    HW223598   0.063   1.429   5.534 -1.0440  0.4248  1.8554
 5958SOL    HW323599   0.109   1.569   5.502 -0.6381 -0.0347  0.3191
 5958SOL    MW423600   0.046   1.509   5.505 -0.6007 -0.0897  0.0209
 5959SOL     OW23601   3.209   5.472   3.075 -0.0016 -0.1671  0.0412
 5959SOL    HW223602   3.132   5.422   3.102  0.4116 -0.3190  0.9785
 5959SOL    HW323603   3.176   5.560   3.061 -0.4799 -0.3897 -0.2875
 5959SOL    MW423604   3.194   5.477   3.077 -0.0102 -0.2165  0.1215
 5960SOL     OW23605   0.854   3.503   1.177 -0.7496 -0.3248  0.3156
 5960SOL    HW223606   0.915   3.461   1.238 -0.8751  0.5161  1.0447
 5960SOL    HW323607   0.883   3.594   1.173 -0.7189 -0.3741 -0.9375
 5960SOL    MW423608   0.866   3.509   1.184 -0.7621 -0.2204  0.2465
 5961SOL     OW23609   6.010   0.407   1.836  0.3998  0.3354  0.7671
 5961SOL    HW223610   6.058   0.420   1.917  0.5065  0.6026  0.6626
 5961SOL    HW323611   5.919   0.427   1.858  0.2179 -0.8343  1.1358
 5961SOL    MW423612   6.004   0.411   1.849  0.3899  0.2163  0.8020
 5962SOL     OW23613   1.532   0.225   1.486  0.0697 -0.4471  0.0327
 5962SOL    HW223614   1.441   0.201   1.471  0.2965 -0.6173 -1.1269
 5962SOL    HW323615   1.532   0.269   1.571 -1.0468 -0.6649  0.1526
 5962SOL    MW423616   1.520   0.227   1.495 -0.0477 -0.4983 -0.1045
 5963SOL     OW23617   0.971   4.309   0.833 -0.7780 -0.3707  0.4711
 5963SOL    HW223618   0.948   4.284   0.923  1.0377  0.8107  1.3411
 5963SOL    HW323619   1.027   4.238   0.802  0.3180  0.1902  1.0963
 5963SOL    MW423620   0.975   4.297   0.841 -0.3938 -0.1408  0.6684
 5964SOL     OW23621   4.461   5.553   5.891  0.2282 -0.3079 -0.2436
 5964SOL    HW223622   4.422   5.618   5.833  0.2520 -0.8257 -0.8479
 5964SOL    HW323623   4.414   5.565   5.974  0.8570  1.0756 -0.0582
 5964SOL    MW423624   4.449   5.563   5.895  0.3143 -0.1937 -0.2988
 5965SOL     OW23625   4.119   1.773   5.401 -0.3806  0.4456  0.4756
 5965SOL    HW223626   4.088   1.843   5.458 -1.2234  1.8158 -1.5481
 5965SOL    HW323627   4.171   1.817   5.334  0.5664 -1.0913  0.1394
 5965SOL    MW423628   4.122   1.788   5.399 -0.3669  0.4236  0.1642
 5966SOL     OW23629   1.016   3.405   1.378  0.0536  0.0788 -0.3689
 5966SOL    HW223630   1.045   3.479   1.430 -0.8999  0.4580 -0.3450
 5966SOL    HW323631   0.946   3.365   1.431  1.0623 -1.2986 -0.0259
 5966SOL    MW423632   1.010   3.409   1.392  0.0609 -0.0529 -0.3205
 5967SOL     OW23633   4.887   4.338   0.797  0.2751 -0.1018  0.0883
 5967SOL    HW223634   4.867   4.382   0.714 -2.2265 -1.4822 -0.1476
 5967SOL    HW323635   4.811   4.358   0.853  1.4405 -0.0270  1.7173
 5967SOL    MW423636   4.874   4.347   0.793  0.0988 -0.2741  0.2721
 5968SOL     OW23637   5.125   2.220   1.592  0.1234 -0.4175 -0.0500
 5968SOL    HW223638   5.058   2.287   1.607  1.3524  0.8495 -0.0043
 5968SOL    HW323639   5.091   2.168   1.520 -1.9913 -1.3062  1.4780
 5968SOL    MW423640   5.112   2.222   1.585  0.0065 -0.3676  0.1577
 5969SOL     OW23641   1.435   5.713   4.433 -0.1346 -0.3453 -0.0783
 5969SOL    HW223642   1.350   5.753   4.415  0.4145 -0.2583 -2.8727
 5969SOL    HW323643   1.421   5.619   4.422  0.2306 -0.2862 -1.1670
 5969SOL    MW423644   1.422   5.706   4.429 -0.0140 -0.3260 -0.5907
 5970SOL     OW23645   5.370   1.352   1.239 -0.2992 -0.4066  0.0651
 5970SOL    HW223646   5.393   1.406   1.315  0.5529 -0.1493 -0.3702
 5970SOL    HW323647   5.444   1.292   1.228 -0.3601 -0.3655 -0.6334
 5970SOL    MW423648   5.383   1.351   1.248 -0.1948 -0.3672 -0.0845
 5971SOL     OW23649   5.113   0.191   3.061 -0.7844  0.7709 -0.2892
 5971SOL    HW223650   5.054   0.142   3.004 -2.2590  1.2809  0.7205
 5971SOL    HW323651   5.163   0.247   3.002 -1.1513  0.1654 -1.2001
 5971SOL    MW423652   5.112   0.192   3.046 -1.0274  0.7583 -0.2762
 5972SOL     OW23653   0.454   5.940   6.290  0.2363 -0.1239  0.0409
 5972SOL    HW223654   0.497   5.920   6.207 -0.2594 -0.1417 -0.2172
 5972SOL    HW323655   0.421   5.855   6.321  1.0547 -0.2404  0.6283
 5972SOL    MW423656   0.456   5.926   6.283  0.2789 -0.1416  0.0844
 5973SOL     OW23657   6.005   0.427   3.172  0.4042  0.0833  0.9410
 5973SOL    HW223658   5.930   0.412   3.115 -0.5652 -0.8888  2.4115
 5973SOL    HW323659   6.081   0.424   3.114 -0.5463 -0.9340 -0.2911
 5973SOL    MW423660   6.005   0.425   3.157  0.1509 -0.1792  0.9725
 5974SOL     OW23661   5.794   2.360   2.465  0.3687 -0.3670  0.7458
 5974SOL    HW223662   5.840   2.313   2.395  0.0334 -1.2088  1.0787
 5974SOL    HW323663   5.856   2.426   2.494  0.5773 -0.1072 -0.2357
 5974SOL    MW423664   5.808   2.363   2.459  0.3520 -0.4438  0.6602
 5975SOL     OW23665   4.220   2.108   6.011 -0.2256  0.1423 -0.1219
 5975SOL    HW223666   4.251   2.198   6.007  0.9323 -0.2732 -1.4975
 5975SOL    HW323667   4.186   2.090   5.923 -0.9850 -0.5837  0.3017
 5975SOL    MW423668   4.220   2.117   5.999 -0.1730 -0.0083 -0.2475
 5976SOL     OW23669   1.734   4.504   1.848  0.1581  0.6142 -0.8399
 5976SOL    HW223670   1.781   4.587   1.852  0.0184  0.6537  0.5924
 5976SOL    HW323671   1.647   4.527   1.817 -0.2958  1.2385  0.7729
 5976SOL    MW423672   1.729   4.518   1.844  0.0797  0.7018 -0.4382
 5977SOL     OW23673   4.095   1.141   3.150 -0.0784 -0.4492  0.1587
 5977SOL    HW223674   4.028   1.074   3.162 -1.2055  0.3590 -1.2545
 5977SOL    HW323675   4.178   1.093   3.157 -0.8329 -1.8877 -0.2420
 5977SOL    MW423676   4.097   1.126   3.153 -0.3267 -0.5323 -0.0806
 5978SOL     OW23677   4.643   6.032   3.629 -0.1294 -0.5094  0.1440
 5978SOL    HW223678   4.607   6.104   3.578  0.4351 -0.8929 -0.8053
 5978SOL    HW323679   4.717   6.000   3.578  1.8611  0.5073  2.2071
 5978SOL    MW423680   4.648   6.038   3.616  0.2077 -0.4258  0.2910
 5979SOL     OW23681   4.769   5.701   2.482  0.4120 -0.0232 -0.5373
 5979SOL    HW223682   4.830   5.739   2.419 -0.8865  0.6991 -1.4209
 5979SOL    HW323683   4.780   5.753   2.561  2.5103 -1.3347  0.1205
 5979SOL    MW423684   4.778   5.713   2.484  0.5175 -0.1009 -0.5671
 5980SOL     OW23685   1.912   5.616   6.132 -0.0472 -0.1014  0.8102
 5980SOL    HW223686   1.907   5.639   6.039 -0.4617 -2.9820  0.0156
 5980SOL    HW323687   2.004   5.597   6.147  0.2587  1.7160  1.4035
 5980SOL    MW423688   1.923   5.616   6.122 -0.0616 -0.2417  0.7837
 5981SOL     OW23689   1.909   1.483   6.097  0.2735 -0.6537 -0.0028
 5981SOL    HW223690   1.954   1.493   6.013 -0.1076  1.0975 -0.0217
 5981SOL    HW323691   1.816   1.492   6.075  0.2317  1.0974  0.7375
 5981SOL    MW423692   1.903   1.485   6.083  0.2177 -0.1916  0.0924
 5982SOL     OW23693   3.637   0.380   0.787 -0.0342 -0.1383 -0.3545
 5982SOL    HW223694   3.719   0.343   0.819 -0.0678 -0.4926 -0.6688
 5982SOL    HW323695   3.581   0.385   0.864 -0.5293 -2.0897 -0.5132
 5982SOL    MW423696   3.640   0.375   0.801 -0.1040 -0.4425 -0.4169
 5983SOL     OW23697   0.795   1.089   2.204  0.2675 -0.1097 -0.0322
 5983SOL    HW223698   0.857   1.153   2.167 -1.1632  2.1370  1.2593
 5983SOL    HW323699   0.744   1.060   2.128  1.3983 -0.3188 -0.7523
 5983SOL    MW423700   0.797   1.094   2.189  0.2279  0.1591  0.0432
 5984SOL     OW23701   4.946   6.350   2.472  0.7308  0.8830  0.5570
 5984SOL    HW223702   4.981   6.439   2.474 -0.5621  1.4086  2.6105
 5984SOL    HW323703   4.857   6.358   2.506  0.7338 -1.2448  1.2245
 5984SOL    MW423704   4.939   6.363   2.477  0.5606  0.6716  0.9160
 5985SOL     OW23705   4.565   0.241   5.168  0.4098  0.3187 -0.0472
 5985SOL    HW223706   4.520   0.323   5.185  0.7462  0.2097  1.5415
 5985SOL    HW323707   4.631   0.263   5.102  0.8345  1.4707  0.7196
 5985SOL    MW423708   4.568   0.255   5.162  0.5102  0.4563  0.2636
 5986SOL     OW23709   2.528   4.210   0.744  0.5780 -0.0034  0.1695
 5986SOL    HW223710   2.608   4.240   0.701 -0.2779  0.0055 -1.4642
 5986SOL    HW323711   2.548   4.122   0.775  1.0205 -0.2515 -0.8032
 5986SOL    MW423712   2.541   4.202   0.743  0.5235 -0.0349 -0.1744
 5987SOL     OW23713   6.378   3.140   5.826  0.3317  0.2711 -0.0804
 5987SOL    HW223714   6.435   3.140   5.749 -1.0844 -0.3514 -1.1826
 5987SOL    HW323715   6.421   3.200   5.887  2.0769 -0.0750 -0.8881
 5987SOL    MW423716   6.391   3.148   5.824  0.3751  0.1433 -0.3324
 5988SOL     OW23717   1.672   3.509   5.194 -0.1559 -0.0395 -0.1424
 5988SOL    HW223718   1.658   3.467   5.109 -0.2642 -0.4539  0.0745
 5988SOL    HW323719   1.612   3.463   5.253  0.4934 -0.3047  0.3238
 5988SOL    MW423720   1.663   3.497   5.190 -0.0845 -0.1291 -0.0523
 5989SOL     OW23721   5.364   1.170   5.745  0.0352 -0.1371  0.8976
 5989SOL    HW223722   5.441   1.121   5.720 -0.1651  0.0981 -0.2193
 5989SOL    HW323723   5.322   1.116   5.813  0.5738 -0.8020  0.7103
 5989SOL    MW423724   5.368   1.156   5.751  0.0799 -0.1938  0.7255
 5990SOL     OW23725   5.527   0.441   3.391 -0.6708  0.0929 -0.5100
 5990SOL    HW223726   5.616   0.465   3.415 -0.8011 -0.1209  0.2045
 5990SOL    HW323727   5.473   0.510   3.429 -0.7307  0.8352 -1.8978
 5990SOL    MW423728   5.532   0.453   3.399 -0.6959  0.1626 -0.5988
 5991SOL     OW23729   5.556   4.765   6.150  0.4902 -0.5683 -0.4131
 5991SOL    HW223730   5.617   4.820   6.100 -0.9980  1.1245 -0.4513
 5991SOL    HW323731   5.487   4.825   6.179  0.6187 -1.7324  2.6367
 5991SOL    MW423732   5.555   4.780   6.147  0.3108 -0.4985 -0.0157
 5992SOL     OW23733   3.487   3.320   3.756  0.1020  0.2357  0.0575
 5992SOL    HW223734   3.553   3.327   3.687  0.1326 -0.0040  0.0624
 5992SOL    HW323735   3.527   3.362   3.832 -0.3311  1.4468 -0.3542
 5992SOL    MW423736   3.501   3.326   3.757  0.0489  0.3639  0.0038
 5993SOL     OW23737   0.813   2.164   6.120 -0.3519  0.3096 -0.0975
 5993SOL    HW223738   0.767   2.082   6.099 -1.7817  1.1697 -0.4336
 5993SOL    HW323739   0.876   2.175   6.049 -1.3873  0.3981 -1.0305
 5993SOL    MW423740   0.815   2.154   6.108 -0.6771  0.4348 -0.2649
 5994SOL     OW23741   0.344   2.392   1.052  0.3618  0.2500 -0.4570
 5994SOL    HW223742   0.389   2.405   1.135  1.7977 -0.1969 -1.1201
 5994SOL    HW323743   0.322   2.299   1.051 -0.1573  0.3676 -0.3490
 5994SOL    MW423744   0.347   2.381   1.063  0.4828  0.2066 -0.5302
 5995SOL     OW23745   1.835   4.785   5.191 -0.0608 -0.1408  0.2349
 5995SOL    HW223746   1.852   4.870   5.151 -0.8417 -0.6503 -1.2502
 5995SOL    HW323747   1.812   4.728   5.118  0.6176 -1.6869  1.1801
 5995SOL    MW423748   1.834   4.789   5.176 -0.0743 -0.4120  0.1636
 5996SOL     OW23749   4.567   4.728   2.462 -0.5532 -0.1943 -0.1524
 5996SOL    HW223750   4.571   4.655   2.524 -1.4357  0.3059  0.5213
 5996SOL    HW323751   4.542   4.804   2.516 -1.7798  0.1656 -1.1714
 5996SOL    MW423752   4.564   4.729   2.478 -0.8315 -0.0808 -0.1979
 5997SOL     OW23753   1.238   1.504   1.020  1.0097 -0.1262  0.3206
 5997SOL    HW223754   1.194   1.428   1.057  0.1784  0.3460  0.3189
 5997SOL    HW323755   1.265   1.556   1.096 -2.4752  1.8760  0.4154
 5997SOL    MW423756   1.236   1.501   1.035  0.4403  0.2003  0.3329
 5998SOL     OW23757   1.396   2.630   6.186  0.0349 -0.1828 -0.2171
 5998SOL    HW223758   1.374   2.606   6.275  0.8211  3.4914  1.1348
 5998SOL    HW323759   1.315   2.665   6.149  0.2339  0.3842 -0.1287
 5998SOL    MW423760   1.383   2.632   6.193  0.1649  0.3768 -0.0270
 5999SOL     OW23761   5.918   4.329   5.551  0.2292 -1.0372 -0.0136
 5999SOL    HW223762   5.960   4.376   5.479  1.3826 -0.3888  1.0572
 5999SOL    HW323763   5.824   4.344   5.537  0.5088  0.4400 -0.4657
 5999SOL    MW423764   5.911   4.337   5.539  0.4182 -0.7567  0.0681
 6000SOL     OW23765   3.286   5.428   4.276  0.0047  0.2077  0.0564
 6000SOL    HW223766   3.336   5.355   4.314  1.9935  1.1453 -0.6667
 6000SOL    HW323767   3.257   5.395   4.191  0.9717  0.2950 -0.3062
 6000SOL    MW423768   3.288   5.414   4.270  0.3947  0.3429 -0.0868
 6001SOL     OW23769   3.560   0.048   3.766  0.0917  0.1391 -0.0573
 6001SOL    HW223770   3.484  -0.009   3.754 -0.0388  0.0354  1.0797
 6001SOL    HW323771   3.627   0.012   3.708  0.1676 -1.4862  0.9580
 6001SOL    MW423772   3.559   0.036   3.757  0.0845 -0.0890  0.2267
 6002SOL     OW23773   4.318   2.201   2.965  0.0851 -0.1276 -0.2472
 6002SOL    HW223774   4.304   2.109   2.989 -0.4632 -0.2558 -1.0045
 6002SOL    HW323775   4.236   2.227   2.923  1.8642 -0.8688 -4.8249
 6002SOL    MW423776   4.305   2.192   2.963  0.2475 -0.2423 -0.9510
 6003SOL     OW23777   2.107   6.103   4.270 -0.7308 -0.0603 -0.0900
 6003SOL    HW223778   2.094   6.196   4.291 -1.9570 -0.2995  0.3346
 6003SOL    HW323779   2.173   6.103   4.201 -0.2342  1.0872  0.3563
 6003SOL    MW423780   2.114   6.115   4.264 -0.8271  0.0596  0.0249
 6004SOL     OW23781   4.114   3.595   0.687 -0.1946 -0.6194  0.1213
 6004SOL    HW223782   4.036   3.650   0.684  0.8775  0.9378 -0.7099
 6004SOL    HW323783   4.095   3.530   0.755 -1.2011  1.2603  1.7432
 6004SOL    MW423784   4.101   3.594   0.695 -0.1859 -0.1659  0.2256
 6005SOL     OW23785   4.209   2.100   2.451 -0.1657  0.2348  0.3217
 6005SOL    HW223786   4.288   2.154   2.458  0.1470 -0.3439  1.4101
 6005SOL    HW323787   4.232   2.018   2.493 -0.5440 -0.9002 -1.5679
 6005SOL    MW423788   4.223   2.096   2.457 -0.1743  0.0087  0.2160
 6006SOL     OW23789   4.889   0.137   2.125 -0.9113  0.1886 -0.0040
 6006SOL    HW223790   4.919   0.194   2.195 -2.1541  0.8159  0.0545
 6006SOL    HW323791   4.832   0.192   2.072  0.0349 -0.2602 -1.5568
 6006SOL    MW423792   4.885   0.152   2.127 -0.9505  0.2121 -0.2012
 6007SOL     OW23793   3.312   0.019   1.201 -0.2213  0.6108 -0.4200
 6007SOL    HW223794   3.355   0.028   1.286  0.9609 -0.1571 -0.9264
 6007SOL    HW323795   3.266   0.102   1.189 -1.7448  0.1652  1.6711
 6007SOL    MW423796   3.312   0.031   1.210 -0.2664  0.4507 -0.2109
 6008SOL     OW23797   2.896   4.749   4.916 -0.6081  0.2239 -0.1012
 6008SOL    HW223798   2.937   4.783   4.836  1.4296 -0.7108  0.4805
 6008SOL    HW323799   2.819   4.702   4.885  0.6845 -0.9892 -1.6843
 6008SOL    MW423800   2.892   4.748   4.901 -0.1687 -0.0595 -0.2333
 6009SOL     OW23801   4.401   3.643   4.774  0.1646  0.5290 -0.6676
 6009SOL    HW223802   4.366   3.722   4.814  0.5376  0.3843 -0.0448
 6009SOL    HW323803   4.488   3.667   4.743  0.3770  0.3008 -0.2574
 6009SOL    MW423804   4.408   3.656   4.775  0.2419  0.4798 -0.5313
 6010SOL     OW23805   4.328   4.532   5.924  0.6570 -0.1258 -0.0104
 6010SOL    HW223806   4.276   4.464   5.882  0.2461  0.3342 -0.2559
 6010SOL    HW323807   4.419   4.505   5.910  0.6255  0.7630 -2.5551
 6010SOL    MW423808   4.333   4.520   5.917  0.5986  0.0522 -0.3785
 6011SOL     OW23809   4.439   3.386   2.527 -0.1918 -0.2662  0.5488
 6011SOL    HW223810   4.516   3.443   2.527  0.3219 -0.9399  0.8498
 6011SOL    HW323811   4.453   3.324   2.455  0.3046 -1.3518  1.5406
 6011SOL    MW423812   4.451   3.385   2.518 -0.0585 -0.4983  0.7193
 6012SOL     OW23813   4.759   5.197   0.084 -0.0752  0.0000 -0.4336
 6012SOL    HW223814   4.682   5.172   0.034 -0.3373  0.7695 -0.4279
 6012SOL    HW323815   4.742   5.287   0.111  1.0778  0.3822 -0.9213
 6012SOL    MW423816   4.747   5.205   0.081  0.0424  0.1520 -0.4972
 6013SOL     OW23817   5.931   1.057   5.345  0.1016 -0.7873 -0.0397
 6013SOL    HW223818   5.839   1.082   5.357  0.1228  0.3655 -1.8675
 6013SOL    HW323819   5.973   1.137   5.313  1.9997 -0.9872  1.7596
 6013SOL    MW423820   5.925   1.071   5.342  0.3548 -0.6616 -0.0435
 6014SOL     OW23821   1.147   5.031   3.858 -0.2567  0.5732  0.4084
 6014SOL    HW223822   1.088   5.082   3.804  0.1334 -0.2515 -0.8457
 6014SOL    HW323823   1.214   5.093   3.886 -1.6285  1.5082  1.8061
 6014SOL    MW423824   1.148   5.046   3.855 -0.3862  0.5877  0.4274
 6015SOL     OW23825   5.135   0.823   1.117  0.1598 -0.5580 -0.2094
 6015SOL    HW223826   5.137   0.919   1.125 -1.1227 -0.3140 -2.2301
 6015SOL    HW323827   5.048   0.798   1.149  0.6257 -1.1167  0.6664
 6015SOL    MW423828   5.124   0.833   1.122  0.0521 -0.5995 -0.3604
 6016SOL     OW23829   5.981   5.090   1.532 -0.6925  0.0195  0.2532
 6016SOL    HW223830   6.012   5.024   1.470 -0.9132  1.2403 -1.2020
 6016SOL    HW323831   5.941   5.039   1.603 -1.9272 -1.4011 -1.3736
 6016SOL    MW423832   5.980   5.074   1.533 -0.8846 -0.0069 -0.1534
 6017SOL     OW23833   4.291   0.964   3.732  0.1087 -0.0656 -0.0310
 6017SOL    HW223834   4.327   0.953   3.645 -0.6040  1.1874 -0.5166
 6017SOL    HW323835   4.204   1.002   3.717 -0.5213 -0.9663  1.1758
 6017SOL    MW423836   4.284   0.968   3.719 -0.0684 -0.0191  0.0642
 6018SOL     OW23837   0.684   4.161   2.016 -0.1095 -0.7622  0.3583
 6018SOL    HW223838   0.614   4.214   1.978  0.6000  1.2908  1.7733
 6018SOL    HW323839   0.647   4.073   2.020 -2.3360  0.1047  0.3874
 6018SOL    MW423840   0.670   4.156   2.011 -0.3096 -0.3769  0.5488
 6019SOL     OW23841   2.992   3.142   0.159  0.5157  0.0800 -0.5930
 6019SOL    HW223842   3.005   3.049   0.142  1.3122  0.2262 -0.8403
 6019SOL    HW323843   2.897   3.154   0.156  0.3071 -0.9638  0.8143
 6019SOL    MW423844   2.981   3.132   0.156  0.5933 -0.0385 -0.4399
 6020SOL     OW23845   0.990   1.407   5.830  0.0832  0.0850 -0.2332
 6020SOL    HW223846   0.971   1.313   5.827  1.8714 -0.3693  1.2209
 6020SOL    HW323847   0.990   1.429   5.923  0.5036  1.3620 -0.5104
 6020SOL    MW423848   0.987   1.397   5.842  0.3746  0.1936 -0.0780
 6021SOL     OW23849   4.765   2.119   0.898 -0.1084 -0.3952  0.8768
 6021SOL    HW223850   4.686   2.168   0.876  1.7167  2.0915 -0.6104
 6021SOL    HW323851   4.837   2.174   0.867  2.2126 -2.8743  1.4972
 6021SOL    MW423852   4.764   2.132   0.891  0.4386 -0.3942  0.7625
 6022SOL     OW23853   4.678   1.561   1.175  0.4608  0.4399 -0.4598
 6022SOL    HW223854   4.641   1.589   1.091 -1.5317 -0.0507  0.2198
 6022SOL    HW323855   4.701   1.469   1.162 -0.6501  0.1181 -0.2350
 6022SOL    MW423856   4.676   1.553   1.162  0.0513  0.3327 -0.3405
 6023SOL     OW23857   0.089   1.745   3.321 -0.4807 -0.4164  0.3936
 6023SOL    HW223858   0.051   1.658   3.333  1.0669 -0.9099  2.2321
 6023SOL    HW323859   0.167   1.731   3.267 -0.6071 -0.0673  0.1157
 6023SOL    MW423860   0.094   1.732   3.315 -0.2932 -0.4355  0.5995
 6024SOL     OW23861   2.421   4.112   2.856  0.1770  0.9488  0.1941
 6024SOL    HW223862   2.515   4.117   2.839 -0.1010  0.6350 -1.6690
 6024SOL    HW323863   2.380   4.153   2.779 -1.2264 -0.1659  0.3048
 6024SOL    MW423864   2.428   4.118   2.844 -0.0449  0.7603 -0.0371
 6025SOL     OW23865   0.036   3.811   1.544 -0.6241  0.5709  0.1989
 6025SOL    HW223866   0.081   3.775   1.468  0.5992  1.5345  0.4438
 6025SOL    HW323867  -0.052   3.773   1.540  0.0650 -1.0150 -0.5284
 6025SOL    MW423868   0.030   3.801   1.534 -0.3718  0.4888  0.1353
 6026SOL     OW23869   4.416   1.926   4.443  0.4886  0.7009  0.5411
 6026SOL    HW223870   4.333   1.951   4.484 -0.0185  1.0199 -0.6154
 6026SOL    HW323871   4.392   1.908   4.352  1.7519  1.1480  0.1065
 6026SOL    MW423872   4.402   1.927   4.436  0.5884  0.8020  0.3312
 6027SOL     OW23873   3.898   5.497   2.676  0.2685  0.2099  0.4938
 6027SOL    HW223874   3.943   5.414   2.658  0.6837  0.5739 -0.2095
 6027SOL    HW323875   3.889   5.499   2.771  6.0588  2.1841  1.4483
 6027SOL    MW423876   3.903   5.486   2.686  1.0872  0.5184  0.5270
 6028SOL     OW23877   3.716   0.948   1.494 -0.4481 -0.2280  0.3129
 6028SOL    HW223878   3.659   1.004   1.441 -1.8763 -0.5648  1.4364
 6028SOL    HW323879   3.773   0.905   1.431 -0.4482  1.2219 -0.7232
 6028SOL    MW423880   3.716   0.950   1.479 -0.6366 -0.0811  0.3244
 6029SOL     OW23881   2.918   5.654   5.336  0.1430 -0.1107 -0.3008
 6029SOL    HW223882   2.895   5.738   5.296 -0.1909  0.0316  0.1882
 6029SOL    HW323883   2.901   5.666   5.429  2.6105  0.1684  0.1923
 6029SOL    MW423884   2.913   5.667   5.343  0.4245 -0.0551 -0.1712
 6030SOL     OW23885   4.980   2.118   2.013  0.5614  0.4667 -0.0218
 6030SOL    HW223886   4.960   2.039   2.064 -2.1924  0.2024 -1.3189
 6030SOL    HW323887   5.046   2.089   1.950 -1.2518 -1.2229 -1.2565
 6030SOL    MW423888   4.986   2.104   2.012 -0.0411  0.2089 -0.3558
 6031SOL     OW23889   2.194   4.985   2.348 -0.2236 -0.0518 -0.5683
 6031SOL    HW223890   2.113   5.034   2.334 -0.1980  0.1587  0.0028
 6031SOL    HW323891   2.250   5.010   2.275 -0.2561  0.6766 -0.3510
 6031SOL    MW423892   2.191   4.995   2.336 -0.2245  0.0721 -0.4643
 6032SOL     OW23893   4.876   5.483   3.455  0.1388 -0.5663 -0.4771
 6032SOL    HW223894   4.935   5.551   3.488 -0.7933 -0.6316  1.5346
 6032SOL    HW323895   4.793   5.528   3.443 -0.2994 -1.1701  0.1827
 6032SOL    MW423896   4.873   5.498   3.458 -0.0420 -0.6545 -0.1246
 6033SOL     OW23897   1.093   3.059   1.280  0.0712  0.1916  0.8285
 6033SOL    HW223898   1.130   3.141   1.247 -1.9445  1.6526  1.9644
 6033SOL    HW323899   1.000   3.065   1.258 -0.1323 -1.7778  1.0217
 6033SOL    MW423900   1.085   3.071   1.273 -0.2216  0.1245  1.0039
 6034SOL     OW23901   5.797   2.115   4.068 -0.4341  0.1649 -0.0408
 6034SOL    HW223902   5.830   2.158   4.146 -1.6807  0.2785  0.4359
 6034SOL    HW323903   5.831   2.167   3.995 -0.4246  0.8809  0.4711
 6034SOL    MW423904   5.806   2.127   4.068 -0.5973  0.2744  0.0896
 6035SOL     OW23905   3.265   2.979   5.825  0.1923  0.0145  0.0235
 6035SOL    HW223906   3.287   3.061   5.869 -0.1607 -0.0744  0.3720
 6035SOL    HW323907   3.182   2.952   5.865  0.4310 -0.6370  0.0863
 6035SOL    MW423908   3.257   2.987   5.836  0.1772 -0.0832  0.0778
 6036SOL     OW23909   2.905   4.407   2.986  0.1652 -0.8696 -0.2265
 6036SOL    HW223910   2.993   4.438   2.965  0.9128 -2.1908  0.7561
 6036SOL    HW323911   2.856   4.416   2.905  0.7678  1.2422 -0.4271
 6036SOL    MW423912   2.910   4.412   2.973  0.3433 -0.7653 -0.1233
 6037SOL     OW23913   4.005   4.993   4.524  0.7653  0.2215 -0.0662
 6037SOL    HW223914   3.917   5.014   4.493 -0.2533  2.4460  3.6356
 6037SOL    HW323915   3.992   4.923   4.588  1.6424  0.4674  0.4034
 6037SOL    MW423916   3.992   4.987   4.529  0.7466  0.5474  0.4842
 6038SOL     OW23917   4.582   3.607   2.758 -0.2106 -0.2676  0.2272
 6038SOL    HW223918   4.592   3.643   2.670  0.4554 -0.1644  0.3384
 6038SOL    HW323919   4.657   3.643   2.807  1.4216 -3.0413 -0.0485
 6038SOL    MW423920   4.593   3.617   2.753  0.0926 -0.6199  0.2055
 6039SOL     OW23921   4.702   3.114   5.182 -0.0461 -0.0585  0.0460
 6039SOL    HW223922   4.727   3.193   5.134 -0.4018 -1.3151 -2.3398
 6039SOL    HW323923   4.777   3.055   5.171  0.0839 -0.2250  1.5450
 6039SOL    MW423924   4.715   3.117   5.174 -0.0759 -0.2462 -0.0710
 6040SOL     OW23925   5.283   4.414   2.968  0.3400  0.0587 -0.0493
 6040SOL    HW223926   5.301   4.505   2.949 -0.8513 -0.1592 -2.5932
 6040SOL    HW323927   5.362   4.367   2.943  1.3093  0.4070  2.1376
 6040SOL    MW423928   5.295   4.420   2.962  0.3107  0.0759 -0.0964
 6041SOL     OW23929   2.789   6.276   5.819  0.0445  0.0825 -0.0559
 6041SOL    HW223930   2.768   6.308   5.907 -0.4898  1.0858 -0.5399
 6041SOL    HW323931   2.816   6.354   5.771  1.0465 -0.5698 -0.5948
 6041SOL    MW423932   2.790   6.290   5.824  0.1062  0.1288 -0.1909
 6042SOL     OW23933   3.099   3.782   1.128 -0.5258 -0.2441  0.1683
 6042SOL    HW223934   3.097   3.691   1.156 -1.8566 -0.4496 -0.5580
 6042SOL    HW323935   3.051   3.829   1.196  0.7351  0.0560  0.9013
 6042SOL    MW423936   3.093   3.776   1.141 -0.5350 -0.2316  0.1692
 6043SOL     OW23937   2.339   5.342   0.636  0.1113  0.0583  0.5657
 6043SOL    HW223938   2.268   5.388   0.681 -0.4959 -0.1653 -0.1306
 6043SOL    HW323939   2.315   5.346   0.544  1.6797  1.1074  0.1652
 6043SOL    MW423940   2.326   5.349   0.630  0.2381  0.1672  0.4210
 6044SOL     OW23941   1.365   5.154   3.652 -0.5393 -0.0234 -0.4914
 6044SOL    HW223942   1.450   5.140   3.610 -0.2107 -0.5237  0.3149
 6044SOL    HW323943   1.351   5.248   3.647  0.0228  0.0531 -0.7062
 6044SOL    MW423944   1.375   5.165   3.646 -0.4218 -0.0793 -0.4133
 6045SOL     OW23945   4.437   5.870   6.400 -0.2086 -0.4991 -0.3282
 6045SOL    HW223946   4.500   5.925   6.445  1.0156 -2.1748  0.1227
 6045SOL    HW323947   4.355   5.919   6.402  0.3614  0.4582  1.7199
 6045SOL    MW423948   4.434   5.884   6.406  0.0281 -0.5939  0.0015
 6046SOL     OW23949   0.881   4.333   1.570 -0.6190 -0.0479  0.4522
 6046SOL    HW223950   0.969   4.364   1.548 -0.9941  1.2754  0.7127
 6046SOL    HW323951   0.890   4.296   1.658 -0.9007  3.1302  1.9766
 6046SOL    MW423952   0.893   4.332   1.579 -0.7056  0.5460  0.6877
 6047SOL     OW23953   6.139   5.343   3.981  0.0197 -0.8253 -0.2390
 6047SOL    HW223954   6.155   5.262   4.029 -0.0784 -0.4409  0.4449
 6047SOL    HW323955   6.224   5.386   3.976 -0.0675 -0.6186  0.0407
 6047SOL    MW423956   6.152   5.338   3.987 -0.0047 -0.7473 -0.1119
 6048SOL     OW23957   4.735   6.282   5.479 -0.4887  0.3669 -0.2693
 6048SOL    HW223958   4.668   6.317   5.420 -0.3138  0.8586 -0.1817
 6048SOL    HW323959   4.809   6.260   5.422 -0.1567  1.2449 -0.1909
 6048SOL    MW423960   4.736   6.283   5.464 -0.4218  0.5476 -0.2474
 6049SOL     OW23961   2.073   4.971   1.505 -0.4553 -0.2371 -0.4221
 6049SOL    HW223962   2.018   4.893   1.512  0.0622 -0.4689  1.5495
 6049SOL    HW323963   2.016   5.043   1.533  0.2852 -0.5289  2.0056
 6049SOL    MW423964   2.058   4.970   1.509 -0.2893 -0.3062  0.1584
 6050SOL     OW23965   6.407   4.759   4.225  0.0819 -0.2020 -0.1876
 6050SOL    HW223966   6.483   4.802   4.265 -0.6861  0.4869  0.5913
 6050SOL    HW323967   6.355   4.729   4.300 -0.1951 -1.0706 -0.7168
 6050SOL    MW423968   6.410   4.761   4.240 -0.0559 -0.2257 -0.1547
 6051SOL     OW23969   2.183   4.958   1.762  0.6876 -0.3683  0.0443
 6051SOL    HW223970   2.128   4.959   1.684 -0.0302 -1.4314  0.5311
 6051SOL    HW323971   2.192   4.866   1.785  0.8325 -0.0698  1.2647
 6051SOL    MW423972   2.177   4.946   1.755  0.6120 -0.4692  0.2695
 6052SOL     OW23973   2.925   0.600   1.627  0.0212 -0.1631  0.7211
 6052SOL    HW223974   3.002   0.544   1.615  0.7259  1.3039 -2.6954
 6052SOL    HW323975   2.863   0.570   1.560 -1.5436  0.1164  1.9839
 6052SOL    MW423976   2.927   0.589   1.617 -0.0923  0.0674  0.4370
 6053SOL     OW23977   4.443   0.107   5.976 -0.4860 -0.4786 -0.1003
 6053SOL    HW223978   4.361   0.061   5.994  0.8464 -1.8228  3.1703
 6053SOL    HW323979   4.456   0.166   6.050  0.5593  1.2779 -1.5652
 6053SOL    MW423980   4.434   0.109   5.988 -0.1723 -0.4242  0.1379
 6054SOL     OW23981   2.226   3.540   0.558  0.4326  0.1405 -0.4021
 6054SOL    HW223982   2.229   3.570   0.468 -1.2398  0.8379 -0.2678
 6054SOL    HW323983   2.133   3.537   0.580  0.7317 -1.2753  0.8992
 6054SOL    MW423984   2.214   3.543   0.549  0.2514  0.0457 -0.2127
 6055SOL     OW23985   5.448   4.807   2.377 -0.0436 -0.2075  0.4371
 6055SOL    HW223986   5.437   4.789   2.284 -0.6906 -0.5612  0.5731
 6055SOL    HW323987   5.476   4.898   2.381  2.3717 -0.8614 -0.2171
 6055SOL    MW423988   5.450   4.816   2.365  0.1897 -0.3405  0.3687
 6056SOL     OW23989   5.548   2.052   6.411 -0.5299  0.3716 -0.8164
 6056SOL    HW223990   5.620   1.990   6.398 -0.4053  0.3765 -0.1816
 6056SOL    HW323991   5.580   2.134   6.374  0.3777  0.7578  0.7077
 6056SOL    MW423992   5.562   2.055   6.405 -0.3937  0.4232 -0.5316
 6057SOL     OW23993   0.529   6.423   5.824 -0.0168  0.2518  0.3642
 6057SOL    HW223994   0.516   6.330   5.842 -0.3493  0.1968 -0.1421
 6057SOL    HW323995   0.563   6.426   5.735 -1.9453  0.7123 -0.4009
 6057SOL    MW423996   0.532   6.411   5.815 -0.3151  0.3053  0.1965
 6058SOL     OW23997   0.822   3.693   0.209 -0.4710 -0.1105 -0.0993
 6058SOL    HW223998   0.793   3.689   0.118 -2.1661 -0.9075  0.4215
 6058SOL    HW323999   0.913   3.720   0.204 -1.5413  3.8892 -1.8356
 6058SOL    MW424000   0.830   3.696   0.196 -0.8359  0.3120 -0.2596
 6059SOL     OW24001   1.076   4.164   2.864 -0.3174 -0.2931  0.0391
 6059SOL    HW224002   1.056   4.073   2.843 -0.4662 -0.2224 -0.1335
 6059SOL    HW324003   1.084   4.166   2.959  1.7793 -0.9063 -0.0688
 6059SOL    MW424004   1.074   4.153   2.874 -0.0604 -0.3647  0.0021
 6060SOL     OW24005   0.757   5.705   6.380  0.5242  0.2587  0.0677
 6060SOL    HW224006   0.762   5.685   6.286 -0.8271  1.6589 -0.3576
 6060SOL    HW324007   0.722   5.626   6.420  0.3471 -0.0795 -0.7413
 6060SOL    MW424008   0.753   5.692   6.373  0.3225  0.3988 -0.0952
 6061SOL     OW24009   1.634   4.631   1.455 -0.4337  0.1360  0.4065
 6061SOL    HW224010   1.594   4.701   1.506 -0.0372  2.0066 -1.6720
 6061SOL    HW324011   1.621   4.552   1.507 -3.3183  1.2895  1.6143
 6061SOL    MW424012   1.627   4.630   1.468 -0.7619  0.5350  0.2916
 6062SOL     OW24013   1.293   0.047   0.003 -0.2917 -0.0001  0.0136
 6062SOL    HW224014   1.363   0.097  -0.039  0.9170 -1.9162 -0.3714
 6062SOL    HW324015   1.338  -0.025   0.046 -1.9751 -0.8440  0.4383
 6062SOL    MW424016   1.309   0.044   0.003 -0.3543 -0.3642  0.0188
 6063SOL     OW24017   2.249   4.148   4.814 -0.3443 -0.2740  0.2812
 6063SOL    HW224018   2.232   4.201   4.737  0.6124 -1.1451 -0.5499
 6063SOL    HW324019   2.257   4.211   4.886  0.4284  0.6812 -0.6209
 6063SOL    MW424020   2.248   4.163   4.814 -0.1161 -0.2629  0.0525
 6064SOL     OW24021   5.478   1.832   3.955 -0.2613 -0.2668 -0.3137
 6064SOL    HW224022   5.428   1.892   4.011 -0.1140 -0.4930  0.0645
 6064SOL    HW324023   5.506   1.762   4.014 -1.1818 -1.1859 -0.9248
 6064SOL    MW424024   5.475   1.831   3.970 -0.3633 -0.4179 -0.3444
 6065SOL     OW24025   5.243   1.799   1.083 -0.1396  0.3395 -0.1565
 6065SOL    HW224026   5.262   1.870   1.022 -0.0910  0.0804 -0.4490
 6065SOL    HW324027   5.214   1.842   1.163 -0.3332  0.6800 -0.4111
 6065SOL    MW424028   5.242   1.814   1.085 -0.1587  0.3502 -0.2287
 6066SOL     OW24029   4.822   1.892   3.696  0.0619  0.2327  0.1606
 6066SOL    HW224030   4.798   1.965   3.638  0.4258 -1.5736 -2.3921
 6066SOL    HW324031   4.738   1.853   3.721 -0.1432  1.5025  1.6360
 6066SOL    MW424032   4.808   1.897   3.692  0.0828  0.1619  0.0185
 6067SOL     OW24033   5.569   0.748   4.319  0.3347 -0.6850  0.2991
 6067SOL    HW224034   5.595   0.821   4.263 -0.2642  1.4212  2.5524
 6067SOL    HW324035   5.492   0.711   4.277  0.3384  0.3403 -0.6648
 6067SOL    MW424036   5.562   0.753   4.306  0.2562 -0.2718  0.4692
 6068SOL     OW24037   4.351   2.701   2.403  0.1627 -0.4362 -0.1719
 6068SOL    HW224038   4.357   2.628   2.341  1.5165  0.3090 -0.9781
 6068SOL    HW324039   4.414   2.766   2.369  1.3751 -0.2217  2.2726
 6068SOL    MW424040   4.360   2.700   2.390  0.5013 -0.3096  0.0443
 6069SOL     OW24041   1.598   0.750   0.807 -0.1550 -0.1381 -0.3010
 6069SOL    HW224042   1.528   0.814   0.792  0.1330  0.1848 -0.2677
 6069SOL    HW324043   1.677   0.803   0.817 -0.0688 -0.4359  0.6892
 6069SOL    MW424044   1.599   0.766   0.806 -0.1056 -0.1348 -0.1659
 6070SOL     OW24045   5.486   3.170   0.776 -0.0862 -0.1513  0.1238
 6070SOL    HW224046   5.426   3.202   0.709 -0.5477  0.1614  0.6772
 6070SOL    HW324047   5.490   3.075   0.760  2.4086  0.2682 -2.4253
 6070SOL    MW424048   5.478   3.162   0.765  0.1821 -0.0547 -0.1395
 6071SOL     OW24049   5.139   3.961   5.098 -0.0543  0.2126 -0.2116
 6071SOL    HW224050   5.136   3.866   5.089  0.3814  0.0528  1.0850
 6071SOL    HW324051   5.048   3.989   5.084  0.0262 -0.2423 -1.8358
 6071SOL    MW424052   5.126   3.952   5.095  0.0138  0.1315 -0.2548
 6072SOL     OW24053   4.392   0.674   2.526  0.2484  0.0015  0.3889
 6072SOL    HW224054   4.446   0.749   2.502 -1.5851  1.1894 -0.1552
 6072SOL    HW324055   4.413   0.658   2.618  0.4101  1.3836  0.6025
 6072SOL    MW424056   4.402   0.682   2.535  0.0278  0.3406  0.3453
 6073SOL     OW24057   1.919   1.083   5.950  0.6135  0.2828  0.2691
 6073SOL    HW224058   1.824   1.077   5.962  0.7111 -0.0365  0.9278
 6073SOL    HW324059   1.932   1.169   5.909  0.0815  0.5709  0.6851
 6073SOL    MW424060   1.908   1.094   5.946  0.5562  0.2787  0.4109
 6074SOL     OW24061   1.326   4.876   2.742  0.5126 -0.3242 -0.3800
 6074SOL    HW224062   1.365   4.888   2.829 -1.3727  0.0784  0.4471
 6074SOL    HW324063   1.269   4.800   2.752  0.2994 -0.2942 -1.2874
 6074SOL    MW424064   1.324   4.867   2.755  0.2358 -0.2671 -0.3906
 6075SOL     OW24065   4.621   1.963   2.656  0.5688  0.5718  0.7046
 6075SOL    HW224066   4.688   1.897   2.672  0.0178  0.1857  1.4746
 6075SOL    HW324067   4.645   2.035   2.714  0.4525  0.5337  0.7992
 6075SOL    MW424068   4.633   1.964   2.666  0.4807  0.5158  0.8186
 6076SOL     OW24069   3.897   5.517   3.704  0.3909  0.1358  0.3224
 6076SOL    HW224070   3.929   5.491   3.790  0.9825  1.0471  0.3921
 6076SOL    HW324071   3.806   5.543   3.719 -0.6352 -2.8828  0.0437
 6076SOL    MW424072   3.889   5.517   3.717  0.3336 -0.1423  0.2948
 6077SOL     OW24073   2.854   3.949   3.518 -0.4568 -0.0170  0.2643
 6077SOL    HW224074   2.766   3.919   3.539  0.3568 -0.7069  3.1169
 6077SOL    HW324075   2.863   4.031   3.566  0.4288  0.1025 -0.0868
 6077SOL    MW424076   2.844   3.956   3.527 -0.2326 -0.0922  0.5943
 6078SOL     OW24077   1.588   2.411   0.715  0.1694 -0.3557 -0.2221
 6078SOL    HW224078   1.520   2.419   0.782 -1.8181 -0.0634 -2.1650
 6078SOL    HW324079   1.554   2.460   0.641  2.0749 -1.0591 -1.6352
 6078SOL    MW424080   1.575   2.418   0.714  0.1586 -0.4099 -0.6649
 6079SOL     OW24081   4.067   0.704   5.660  0.5318 -0.3861 -0.5244
 6079SOL    HW224082   4.069   0.739   5.571  1.9669 -1.3796 -0.9231
 6079SOL    HW324083   4.034   0.614   5.650 -1.4881  0.2099  0.2659
 6079SOL    MW424084   4.063   0.696   5.647  0.4546 -0.4385 -0.4727
 6080SOL     OW24085   2.371   5.902   5.979  0.7596 -0.0779 -0.0989
 6080SOL    HW224086   2.320   5.975   6.016 -1.2003 -0.7723 -1.3224
 6080SOL    HW324087   2.454   5.943   5.952 -0.3969  1.7801 -1.0298
 6080SOL    MW424088   2.376   5.917   5.980  0.3484  0.0756 -0.3832
 6081SOL     OW24089   6.275   3.370   2.393  0.2141  0.4977 -0.0697
 6081SOL    HW224090   6.343   3.410   2.446 -0.2246  2.5762 -0.9939
 6081SOL    HW324091   6.195   3.415   2.418 -0.5211 -0.6391 -0.3028
 6081SOL    MW424092   6.273   3.381   2.403  0.0593  0.6220 -0.2224
 6082SOL     OW24093   3.141   1.869   1.636 -0.9702  0.1862  0.7798
 6082SOL    HW224094   3.218   1.816   1.657 -0.5774  0.3951 -0.0775
 6082SOL    HW324095   3.144   1.941   1.698 -0.5467  0.1219  0.8378
 6082SOL    MW424096   3.152   1.871   1.647 -0.8625  0.2052  0.6743
 6083SOL     OW24097   4.052   5.746   1.886 -0.5181  0.1696 -0.2587
 6083SOL    HW224098   4.001   5.802   1.827  0.6803  0.2584 -1.2416
 6083SOL    HW324099   4.138   5.741   1.845  0.1202 -0.3748  1.1263
 6083SOL    MW424100   4.056   5.753   1.872 -0.2758  0.1095 -0.2056
 6084SOL     OW24101   4.838   2.124   6.223  0.5695 -0.0206 -0.0093
 6084SOL    HW224102   4.751   2.131   6.184 -0.5025 -2.8787  1.5112
 6084SOL    HW324103   4.834   2.182   6.299  1.9029  3.8001 -2.5398
 6084SOL    MW424104   4.826   2.132   6.228  0.6040  0.1064 -0.1426
 6085SOL     OW24105   5.545   3.791   3.926 -0.0820 -0.1527 -0.3370
 6085SOL    HW224106   5.479   3.723   3.940  1.2540 -1.8255 -1.7264
 6085SOL    HW324107   5.627   3.750   3.954  0.9169  0.4870 -2.1594
 6085SOL    MW424108   5.547   3.777   3.932  0.2261 -0.2890 -0.7608
 6086SOL     OW24109   2.964   3.804   2.454 -0.3009  0.9690 -0.5438
 6086SOL    HW224110   2.876   3.839   2.464 -0.6448 -0.2333  0.9534
 6086SOL    HW324111   2.952   3.709   2.445  0.6734  1.0004 -3.3875
 6086SOL    MW424112   2.951   3.796   2.454 -0.2177  0.8145 -0.7214
 6087SOL     OW24113   5.066   1.582   1.224  0.2387  0.7638 -0.2712
 6087SOL    HW224114   4.996   1.643   1.201 -0.4790 -0.6708 -2.1530
 6087SOL    HW324115   5.127   1.588   1.151  0.6052 -0.1053 -0.0460
 6087SOL    MW424116   5.065   1.591   1.211  0.1924  0.4598 -0.4897
 6088SOL     OW24117   5.614   3.216   3.149  0.0532  0.1778  0.0118
 6088SOL    HW224118   5.530   3.220   3.104  0.1285  0.0319 -0.1423
 6088SOL    HW324119   5.666   3.286   3.110  0.1566 -0.0201 -0.2076
 6088SOL    MW424120   5.610   3.226   3.138  0.0768  0.1324 -0.0375
 6089SOL     OW24121   2.016   0.323   0.927 -0.1710 -0.3460 -0.1971
 6089SOL    HW224122   2.112   0.325   0.933 -0.1787  0.4783 -0.2404
 6089SOL    HW324123   1.986   0.344   1.015 -0.3203 -0.8593 -0.1203
 6089SOL    MW424124   2.025   0.326   0.939 -0.1917 -0.3049 -0.1926
 6090SOL     OW24125   5.913   0.620   5.722 -0.0850 -0.1380  0.6915
 6090SOL    HW224126   5.958   0.638   5.805 -1.3144 -1.8304  1.7960
 6090SOL    HW324127   5.898   0.526   5.723 -0.7903 -0.0819 -1.1368
 6090SOL    MW424128   5.917   0.610   5.733 -0.3402 -0.3539  0.5960
 6091SOL     OW24129   2.752   0.991   6.181 -0.0812 -0.2662 -0.1345
 6091SOL    HW224130   2.740   1.085   6.197  1.1875  0.1454 -1.3318
 6091SOL    HW324131   2.669   0.961   6.144 -0.4888  0.3948  0.2346
 6091SOL    MW424132   2.740   1.000   6.178  0.0324 -0.1247 -0.2438
 6092SOL     OW24133   0.027   2.923   3.549 -0.5548  0.5462  0.5765
 6092SOL    HW224134   0.003   2.949   3.460  0.2428 -2.4369 -0.6148
 6092SOL    HW324135   0.111   2.967   3.565 -0.0179  0.0413 -0.7150
 6092SOL    MW424136   0.035   2.932   3.540 -0.3787  0.0860  0.2489
 6093SOL     OW24137   0.206   2.957   2.182 -0.5500  0.6179 -0.6483
 6093SOL    HW224138   0.154   2.884   2.147  0.6306 -0.3722 -0.4253
 6093SOL    HW324139   0.230   3.008   2.105  0.2242 -0.3356 -1.0619
 6093SOL    MW424140   0.202   2.954   2.167 -0.2921  0.3615 -0.6734
 6094SOL     OW24141   4.450   4.562   4.844  0.0725  0.1891 -0.9064
 6094SOL    HW224142   4.541   4.557   4.873  0.2301  2.6049 -0.7869
 6094SOL    HW324143   4.448   4.515   4.761  0.3943 -3.7472  1.1044
 6094SOL    MW424144   4.462   4.555   4.837  0.1358 -0.0115 -0.6253
 6095SOL     OW24145   0.657   5.994   0.350  0.3681 -0.6649  0.3581
 6095SOL    HW224146   0.715   5.937   0.402  1.0693  0.9790  1.4661
 6095SOL    HW324147   0.702   6.079   0.349 -1.5798  0.4087  0.4440
 6095SOL    MW424148   0.671   5.998   0.357  0.2036 -0.3063  0.5156
 6096SOL     OW24149   0.616   1.218   2.387 -0.1923  0.4745 -0.9371
 6096SOL    HW224150   0.674   1.244   2.459  0.6183 -0.4581 -1.2275
 6096SOL    HW324151   0.673   1.173   2.325 -1.0161  0.6073 -1.8257
 6096SOL    MW424152   0.631   1.216   2.388 -0.1940  0.3690 -1.0927
 6097SOL     OW24153   1.934   0.618   4.887  0.0770  0.0447  0.1822
 6097SOL    HW224154   1.940   0.558   4.813  3.4909 -1.9270  1.7676
 6097SOL    HW324155   2.001   0.684   4.869  1.5781 -0.9460  1.7142
 6097SOL    MW424156   1.944   0.618   4.875  0.7255 -0.3461  0.5935
 6098SOL     OW24157   2.744   5.067   1.318  0.0009 -0.0485  0.0006
 6098SOL    HW224158   2.725   5.154   1.282 -1.7336 -0.4040 -0.0176
 6098SOL    HW324159   2.743   5.079   1.413  3.3103  0.6248  0.0672
 6098SOL    MW424160   2.741   5.080   1.325  0.2087 -0.0066  0.0070
 6099SOL     OW24161   2.241   0.483   1.371  0.1271 -0.4806  0.8811
 6099SOL    HW224162   2.274   0.477   1.282 -0.3519 -0.2912  0.6846
 6099SOL    HW324163   2.237   0.393   1.402  0.9061 -0.4983  0.9425
 6099SOL    MW424164   2.245   0.470   1.364  0.1667 -0.4580  0.8633
 6100SOL     OW24165   0.537   1.077   4.507  0.5968 -0.5719 -0.3043
 6100SOL    HW224166   0.459   1.058   4.455  1.0434 -1.4696 -0.6703
 6100SOL    HW324167   0.520   1.163   4.545 -1.0632 -1.2383  0.5598
 6100SOL    MW424168   0.525   1.086   4.505  0.4367 -0.7782 -0.2386
 6101SOL     OW24169   0.802   3.929   6.034 -0.3007 -0.1343  0.1558
 6101SOL    HW224170   0.721   3.881   6.051 -0.0765 -0.7195 -0.3938
 6101SOL    HW324171   0.786   3.976   5.953 -0.8192  1.4264  1.1155
 6101SOL    MW424172   0.789   3.929   6.026 -0.3396 -0.0056  0.2099
 6102SOL     OW24173   0.366   3.664   5.218  0.1176 -0.2698 -0.0636
 6102SOL    HW224174   0.451   3.629   5.246 -0.2785 -0.7686  0.5326
 6102SOL    HW324175   0.347   3.619   5.136  0.5729  0.0707 -0.3598
 6102SOL    MW424176   0.375   3.654   5.211  0.1254 -0.2907 -0.0240
 6103SOL     OW24177   5.408   4.461   5.550 -0.0991  0.4532  0.2000
 6103SOL    HW224178   5.340   4.521   5.521 -0.5826 -0.3368 -0.3349
 6103SOL    HW324179   5.366   4.375   5.550  1.1944 -0.2213 -1.2186
 6103SOL    MW424180   5.393   4.458   5.546  0.0077  0.2600 -0.0578
 6104SOL     OW24181   5.610   4.159   1.689  0.1266  0.1987  0.0164
 6104SOL    HW224182   5.626   4.090   1.624  2.2251  1.6115 -1.0986
 6104SOL    HW324183   5.520   4.188   1.671  0.6917  0.6876 -2.4879
 6104SOL    MW424184   5.600   4.154   1.678  0.4780  0.4496 -0.4611
 6105SOL     OW24185   4.238   5.546   4.609  0.0329  0.5088 -0.3191
 6105SOL    HW224186   4.254   5.542   4.515 -0.9523  0.0674 -0.4807
 6105SOL    HW324187   4.312   5.597   4.644  0.6693  0.2518 -1.2559
 6105SOL    MW424188   4.250   5.552   4.601 -0.0131  0.4166 -0.4640
 6106SOL     OW24189   5.815   4.359   5.852  0.1551 -0.0255 -0.6170
 6106SOL    HW224190   5.873   4.409   5.909 -0.0103 -0.7835  0.2344
 6106SOL    HW324191   5.844   4.381   5.764  1.1752  0.2685 -0.2250
 6106SOL    MW424192   5.826   4.369   5.848  0.2679 -0.0867 -0.4529
 6107SOL     OW24193   6.252   6.196   4.133  0.1471 -0.2133  0.0995
 6107SOL    HW224194   6.310   6.243   4.193  0.1299 -1.0116  0.7665
 6107SOL    HW324195   6.167   6.239   4.142  0.3919  0.3123 -0.1100
 6107SOL    MW424196   6.248   6.208   4.142  0.1771 -0.2493  0.1599
 6108SOL     OW24197   5.884   5.705   5.273 -0.1567 -0.0718 -0.3370
 6108SOL    HW224198   5.945   5.770   5.307 -1.4987  2.1352 -1.8421
 6108SOL    HW324199   5.817   5.696   5.340 -0.0058  0.1605 -0.1574
 6108SOL    MW424200   5.883   5.712   5.286 -0.3139  0.2500 -0.5119
 6109SOL     OW24201   4.688   3.350   4.756  0.0934 -0.1727 -0.0020
 6109SOL    HW224202   4.711   3.420   4.816 -1.3802 -1.1823  1.8701
 6109SOL    HW324203   4.736   3.274   4.789  1.1750 -0.2297 -1.6136
 6109SOL    MW424204   4.697   3.349   4.768  0.0417 -0.3134  0.0324
 6110SOL     OW24205   0.405   3.577   2.862 -0.1025  0.4835 -0.7110
 6110SOL    HW224206   0.472   3.585   2.930  0.2520 -0.9785 -0.8585
 6110SOL    HW324207   0.388   3.667   2.835  0.2893  1.0499  0.7845
 6110SOL    MW424208   0.411   3.590   2.868 -0.0041  0.3654 -0.5332
 6111SOL     OW24209   1.486   0.570   4.457  0.1106  0.1769 -0.2115
 6111SOL    HW224210   1.576   0.538   4.460  0.7437  1.8862  0.3552
 6111SOL    HW324211   1.433   0.496   4.485  1.1733 -1.3524 -2.0518
 6111SOL    MW424212   1.491   0.556   4.461  0.3344  0.2007 -0.3796
 6112SOL     OW24213   3.538   1.073   1.326 -0.8432  0.1675  0.4041
 6112SOL    HW224214   3.457   1.027   1.348 -1.6229  1.5125  0.4310
 6112SOL    HW324215   3.510   1.156   1.289  0.5254  0.3354 -0.3376
 6112SOL    MW424216   3.524   1.078   1.324 -0.7655  0.3671  0.3098
 6113SOL     OW24217   4.212   0.998   1.034  0.3928  0.4965  0.2128
 6113SOL    HW224218   4.185   1.038   1.117  1.2152  0.9804  0.2549
 6113SOL    HW324219   4.306   0.985   1.043  0.2559 -0.8062 -0.0868
 6113SOL    MW424220   4.221   1.002   1.046  0.4833  0.3885  0.1788
 6114SOL     OW24221   3.375   2.880   2.588 -0.0079 -0.3741  0.1139
 6114SOL    HW224222   3.448   2.907   2.532 -0.3026  2.4736  0.9564
 6114SOL    HW324223   3.417   2.844   2.666  0.4056 -2.4270 -0.9831
 6114SOL    MW424224   3.390   2.879   2.591  0.0078 -0.2692  0.0804
 6115SOL     OW24225   4.231   0.660   4.442 -0.0108 -0.4695 -0.2415
 6115SOL    HW224226   4.284   0.603   4.386  0.0947 -0.0737 -0.5510
 6115SOL    HW324227   4.255   0.635   4.532  2.2306  1.0228 -0.3280
 6115SOL    MW424228   4.241   0.650   4.447  0.2989 -0.2204 -0.2938
 6116SOL     OW24229   2.192   1.403   5.257 -0.4602 -0.1381 -0.2235
 6116SOL    HW224230   2.190   1.307   5.259  1.1129 -0.2408 -1.3077
 6116SOL    HW324231   2.140   1.430   5.333  1.2441 -1.8942  1.7095
 6116SOL    MW424232   2.185   1.394   5.268 -0.0278 -0.3834 -0.1115
 6117SOL     OW24233   2.642   2.205   0.410  0.2594  0.0352 -0.1632
 6117SOL    HW224234   2.657   2.264   0.335 -1.0476 -1.3154 -1.5761
 6117SOL    HW324235   2.661   2.118   0.376 -1.4344 -0.7330  0.7261
 6117SOL    MW424236   2.646   2.201   0.395 -0.1365 -0.2443 -0.2323
 6118SOL     OW24237   5.278   2.272   2.183  0.1433  0.3891 -0.2059
 6118SOL    HW224238   5.309   2.228   2.103 -1.8375 -3.2648  0.8279
 6118SOL    HW324239   5.354   2.273   2.241 -0.1086 -4.0143  0.5233
 6118SOL    MW424240   5.292   2.266   2.180 -0.1513 -0.6740  0.0267
 6119SOL     OW24241   2.052   1.790   0.268 -0.2849  0.2104 -0.0272
 6119SOL    HW224242   2.046   1.852   0.195  0.1048 -0.1816 -0.4020
 6119SOL    HW324243   2.144   1.794   0.295  0.3405 -1.8162 -1.5382
 6119SOL    MW424244   2.063   1.798   0.262 -0.1510 -0.1087 -0.2760
 6120SOL     OW24245   4.194   3.174   1.919  0.5030 -0.1526  0.1230
 6120SOL    HW224246   4.262   3.224   1.874  0.7347  0.4366  1.1024
 6120SOL    HW324247   4.240   3.103   1.963  0.3419 -0.4265 -0.1495
 6120SOL    MW424248   4.209   3.172   1.919  0.5123 -0.1110  0.2163
 6121SOL     OW24249   6.079   1.972   3.696 -0.3360 -0.3028 -0.4416
 6121SOL    HW224250   6.147   1.907   3.680  0.3170  0.0251  0.9301
 6121SOL    HW324251   6.125   2.049   3.730 -1.3027  0.2235 -0.2680
 6121SOL    MW424252   6.094   1.974   3.698 -0.3774 -0.1901 -0.2377
 6122SOL     OW24253   3.769   3.385   4.006  0.3335  0.1364  0.0605
 6122SOL    HW224254   3.730   3.301   3.981 -2.6855  0.6656  2.4542
 6122SOL    HW324255   3.746   3.396   4.098  0.5661  3.6075 -0.1785
 6122SOL    MW424256   3.761   3.375   4.015 -0.0341  0.6642  0.3448
 6123SOL     OW24257   1.328   0.076   1.151  0.6801  0.4365 -0.2557
 6123SOL    HW224258   1.356  -0.005   1.108  0.6638  1.2846 -1.9056
 6123SOL    HW324259   1.384   0.144   1.114 -0.8094  1.5332 -0.5975
 6123SOL    MW424260   1.339   0.074   1.141  0.4814  0.6931 -0.5185
 6124SOL     OW24261   5.822   4.050   2.634 -0.0886 -0.7465  0.3711
 6124SOL    HW224262   5.771   4.061   2.554  1.0941 -0.2756 -0.3536
 6124SOL    HW324263   5.879   3.975   2.616  1.0892  0.1551  0.2648
 6124SOL    MW424264   5.823   4.041   2.621  0.2228 -0.5654  0.2615
 6125SOL     OW24265   0.082   5.803   3.712  0.0204  0.2840 -0.4675
 6125SOL    HW224266   0.060   5.875   3.771  1.1581 -0.0493  0.3858
 6125SOL    HW324267   0.013   5.738   3.729  1.6511 -0.8772  2.4072
 6125SOL    MW424268   0.070   5.804   3.722  0.3856  0.0868  0.0243
 6126SOL     OW24269   4.902   5.023   0.453 -0.0905  0.0340  0.1849
 6126SOL    HW224270   4.881   5.008   0.545  0.6530 -0.8555  0.2280
 6126SOL    HW324271   4.818   5.012   0.407 -0.5543  0.9533  0.7964
 6126SOL    MW424272   4.888   5.019   0.459 -0.0536  0.0380  0.2712
 6127SOL     OW24273   6.368   2.771   0.790  0.1713 -0.2446 -0.8399
 6127SOL    HW224274   6.458   2.784   0.820  0.2687 -0.7997 -0.8750
 6127SOL    HW324275   6.321   2.848   0.821  0.5964 -0.0860 -0.5752
 6127SOL    MW424276   6.374   2.783   0.798  0.2402 -0.2969 -0.8096
 6128SOL     OW24277   4.614   5.058   5.346  0.7273 -0.0336  0.6411
 6128SOL    HW224278   4.620   5.079   5.253 -1.6746 -0.2457  0.3793
 6128SOL    HW324279   4.612   5.143   5.391  1.1017  0.0783  0.4495
 6128SOL    MW424280   4.615   5.072   5.340  0.4598 -0.0468  0.5813
 6129SOL     OW24281   0.549   1.347   4.635 -0.5098  0.0131 -0.3761
 6129SOL    HW224282   0.501   1.340   4.717  1.8152 -1.5879  0.9647
 6129SOL    HW324283   0.586   1.435   4.636  0.1336 -0.2453  0.7252
 6129SOL    MW424284   0.548   1.357   4.646 -0.1182 -0.2322 -0.0539
 6130SOL     OW24285   4.526   0.918   1.038 -0.0308  0.3894 -0.1331
 6130SOL    HW224286   4.534   0.951   0.948  2.6113  0.4584  0.0584
 6130SOL    HW324287   4.544   0.995   1.092  2.0225 -0.3950  0.3670
 6130SOL    MW424288   4.529   0.933   1.033  0.5887  0.2950 -0.0418
 6131SOL     OW24289   1.297   5.484   6.095  0.4313 -0.3058 -0.2855
 6131SOL    HW224290   1.314   5.513   6.184  0.3399 -1.3821  0.1038
 6131SOL    HW324291   1.229   5.417   6.105 -0.5931  0.5587 -1.3110
 6131SOL    MW424292   1.290   5.479   6.108  0.2841 -0.3337 -0.3695
 6132SOL     OW24293   3.126   0.469   6.048  0.4466  0.4991 -0.1421
 6132SOL    HW224294   3.112   0.531   5.977  0.8693  0.1668 -0.5186
 6132SOL    HW324295   3.072   0.394   6.025  0.0392  0.6700  0.2464
 6132SOL    MW424296   3.117   0.468   6.036  0.4487  0.4778 -0.1405
 6133SOL     OW24297   3.742   5.801   3.897 -0.5609  0.4218 -0.2015
 6133SOL    HW224298   3.657   5.845   3.897 -0.7072  0.1443 -0.9709
 6133SOL    HW324299   3.759   5.783   3.990 -1.9647 -0.7278 -0.1194
 6133SOL    MW424300   3.733   5.804   3.909 -0.7654  0.2335 -0.2922
 6134SOL     OW24301   3.910   0.012   5.692  0.1187 -0.0162  0.7368
 6134SOL    HW224302   3.819   0.039   5.687  0.3938  1.5052  2.7880
 6134SOL    HW324303   3.914  -0.044   5.770  1.1353  0.8966  1.3599
 6134SOL    MW424304   3.899   0.008   5.702  0.2892  0.3050  1.0897
 6135SOL     OW24305   1.181   2.067   2.075 -0.1742  0.2457  0.2233
 6135SOL    HW224306   1.092   2.080   2.108  0.1143  1.4938  0.6001
 6135SOL    HW324307   1.207   2.153   2.042  0.5174 -0.3577 -0.8631
 6135SOL    MW424308   1.173   2.080   2.075 -0.0449  0.3307  0.1297
 6136SOL     OW24309   0.368   1.452   2.700  0.0954  0.7714 -0.5769
 6136SOL    HW224310   0.303   1.470   2.768 -0.9197  0.6401 -1.4851
 6136SOL    HW324311   0.342   1.510   2.628 -1.1261 -1.7087 -2.2520
 6136SOL    MW424312   0.356   1.462   2.700 -0.1997  0.4269 -0.9177
 6137SOL     OW24313   1.594   6.430   5.036  0.8845  0.2977  0.5097
 6137SOL    HW224314   1.574   6.468   5.121 -1.3585  0.3183  0.0412
 6137SOL    HW324315   1.630   6.343   5.056 -0.2198  0.0467  1.4777
 6137SOL    MW424316   1.596   6.423   5.050  0.4429  0.2673  0.5756
 6138SOL     OW24317   2.746   3.230   5.263  0.3147  0.0610 -0.0445
 6138SOL    HW224318   2.653   3.224   5.241  0.4633 -0.6176 -0.5219
 6138SOL    HW324319   2.748   3.271   5.350 -0.5287 -1.4741  0.7387
 6138SOL    MW424320   2.734   3.235   5.272  0.2230 -0.2311 -0.0042
 6139SOL     OW24321   6.121   2.441   1.699 -0.0064  0.8944  0.3330
 6139SOL    HW224322   6.151   2.352   1.683 -2.9750  0.1860 -2.0350
 6139SOL    HW324323   6.154   2.462   1.787  1.4709 -2.1682  0.6265
 6139SOL    MW424324   6.130   2.432   1.709 -0.2032  0.3969  0.0593
 6140SOL     OW24325   2.727   2.223   3.208 -0.0221 -0.0464 -0.9700
 6140SOL    HW224326   2.756   2.177   3.130  1.1460 -1.2383  0.1201
 6140SOL    HW324327   2.739   2.316   3.187 -0.4218 -0.2991 -2.4391
 6140SOL    MW424328   2.733   2.230   3.195  0.0793 -0.2370 -1.0200
 6141SOL     OW24329   5.956   3.831   0.961 -0.2409  0.1412 -0.3507
 6141SOL    HW224330   5.911   3.901   1.008  0.4158  0.1115  0.3423
 6141SOL    HW324331   5.896   3.807   0.890 -1.2722  0.1328  0.5088
 6141SOL    MW424332   5.942   3.837   0.958 -0.2904  0.1362 -0.1459
 6142SOL     OW24333   5.622   3.605   3.366  0.7143 -0.5466  0.1757
 6142SOL    HW224334   5.635   3.628   3.458 -1.9157 -0.1116  0.5107
 6142SOL    HW324335   5.638   3.510   3.362  0.0174 -0.7321  1.2937
 6142SOL    MW424336   5.626   3.595   3.377  0.2754 -0.5137  0.3674
 6143SOL     OW24337   5.541   5.645   2.026 -0.2510  0.2419  0.1042
 6143SOL    HW224338   5.591   5.590   2.086  2.0247  1.8409 -0.1992
 6143SOL    HW324339   5.486   5.583   1.977  0.8512 -1.5305  1.0073
 6143SOL    MW424340   5.540   5.630   2.027  0.1947  0.2190  0.1833
 6144SOL     OW24341   5.238   4.053   5.345  0.7845 -0.0735 -1.1268
 6144SOL    HW224342   5.156   4.088   5.380  1.2394 -0.8927  0.8701
 6144SOL    HW324343   5.214   4.018   5.259 -0.7933  0.3824 -0.8971
 6144SOL    MW424344   5.224   4.053   5.338  0.6363 -0.1215 -0.8330
 6145SOL     OW24345   4.270   6.291   6.330  0.1254  0.0669  0.2479
 6145SOL    HW224346   4.259   6.292   6.425 -1.5271  0.7197  0.0915
 6145SOL    HW324347   4.360   6.262   6.316  0.4255  0.0483  2.0063
 6145SOL    MW424348   4.280   6.287   6.341 -0.0530  0.1506  0.4592
 6146SOL     OW24349   1.589   5.796   3.513  0.1027  0.2415  0.5864
 6146SOL    HW224350   1.658   5.731   3.509 -0.1614 -0.0475  0.7061
 6146SOL    HW324351   1.592   5.828   3.603 -0.6084 -0.5302  0.8951
 6146SOL    MW424352   1.599   5.792   3.524 -0.0260  0.1015  0.6429
 6147SOL     OW24353   2.805   4.689   3.004 -0.2180 -0.1995 -0.4259
 6147SOL    HW224354   2.850   4.606   2.988  0.4816 -0.2986  1.7889
 6147SOL    HW324355   2.876   4.751   3.021 -0.8318  0.1604  0.8872
 6147SOL    MW424356   2.820   4.686   3.004 -0.2067 -0.1651  0.0396
 6148SOL     OW24357   5.148   3.643   3.353  0.1668 -0.5537  0.1987
 6148SOL    HW224358   5.126   3.587   3.427  1.4146  0.4594  1.3851
 6148SOL    HW324359   5.239   3.621   3.333  0.7560  1.1621  0.8319
 6148SOL    MW424360   5.157   3.633   3.360  0.4092 -0.1936  0.4388
 6149SOL     OW24361   0.117   5.599   1.413  0.2631 -0.3335  0.0939
 6149SOL    HW224362   0.140   5.585   1.321  1.0001 -2.6730  0.5770
 6149SOL    HW324363   0.186   5.554   1.463 -1.2710 -0.9802  1.7409
 6149SOL    MW424364   0.129   5.591   1.408  0.1579 -0.7275  0.3749
 6150SOL     OW24365   3.504   4.720   3.087  0.1766  0.4890 -0.0686
 6150SOL    HW224366   3.521   4.636   3.044  0.5109  0.9513 -0.8641
 6150SOL    HW324367   3.475   4.697   3.175 -0.1157 -0.4740 -0.4083
 6150SOL    MW424368   3.502   4.706   3.093  0.1821  0.4230 -0.2183
 6151SOL     OW24369   0.017   2.397   1.255  0.2794 -0.2644 -0.3264
 6151SOL    HW224370  -0.072   2.364   1.242  0.3966 -0.4471 -0.6509
 6151SOL    HW324371   0.031   2.458   1.183  0.1172  0.3967  0.1891
 6151SOL    MW424372   0.007   2.401   1.244  0.2735 -0.2013 -0.3012
 6152SOL     OW24373   4.321   3.864   0.918 -0.4086 -0.0911 -0.1050
 6152SOL    HW224374   4.377   3.803   0.870  1.8884  3.2831 -2.1565
 6152SOL    HW324375   4.248   3.882   0.859 -0.2071  0.3387 -0.2289
 6152SOL    MW424376   4.319   3.859   0.904 -0.0790  0.4108 -0.3920
 6153SOL     OW24377   0.842   3.771   2.385  0.0088 -0.0628 -0.1403
 6153SOL    HW224378   0.924   3.727   2.363  0.9430  0.1020  2.6477
 6153SOL    HW324379   0.849   3.857   2.344  1.7414  0.3344  0.8671
 6153SOL    MW424380   0.854   3.776   2.377  0.3607  0.0113  0.3604
 6154SOL     OW24381   1.202   1.856   2.756 -0.2768 -0.0591  0.3681
 6154SOL    HW224382   1.253   1.861   2.837 -0.1564  2.9467  0.2330
 6154SOL    HW324383   1.112   1.873   2.783 -0.2849  0.6419 -0.0826
 6154SOL    MW424384   1.197   1.859   2.770 -0.2620  0.4299  0.2908
 6155SOL     OW24385   2.965   3.110   5.933 -0.6030  0.2270 -0.9602
 6155SOL    HW224386   2.933   3.176   5.871  0.0746  0.0631 -1.4876
 6155SOL    HW324387   2.923   3.029   5.905 -0.5253  0.2076 -1.0181
 6155SOL    MW424388   2.955   3.108   5.921 -0.5033  0.2028 -1.0374
 6156SOL     OW24389   2.894   1.858   3.266  0.0707  0.6776 -0.7193
 6156SOL    HW224390   2.844   1.845   3.185 -1.0802  0.9536 -0.0738
 6156SOL    HW324391   2.837   1.825   3.335  0.8234  0.9289  0.0348
 6156SOL    MW424392   2.880   1.852   3.264  0.0182  0.7472 -0.5347
 6157SOL     OW24393   1.251   0.304   5.229 -0.0255 -0.0013 -0.6107
 6157SOL    HW224394   1.282   0.387   5.194  1.6134 -0.2219  0.2528
 6157SOL    HW324395   1.198   0.328   5.305  0.4583  0.2485 -0.3530
 6157SOL    MW424396   1.248   0.318   5.234  0.2546  0.0026 -0.4628
 6158SOL     OW24397   6.217   3.787   5.636 -0.3920 -0.2554 -0.0999
 6158SOL    HW224398   6.153   3.844   5.680 -0.3010 -0.4159  0.2409
 6158SOL    HW324399   6.220   3.708   5.690 -1.6011 -1.2188 -1.3479
 6158SOL    MW424400   6.209   3.784   5.649 -0.5395 -0.4037 -0.2196
 6159SOL     OW24401   3.448   2.154   4.362 -0.5209 -0.5586 -0.0612
 6159SOL    HW224402   3.529   2.198   4.335 -0.9941 -0.0096 -0.5838
 6159SOL    HW324403   3.378   2.206   4.323 -1.0885 -1.8058 -0.7733
 6159SOL    MW424404   3.450   2.166   4.353 -0.6582 -0.6507 -0.2241
 6160SOL     OW24405   6.021   2.173   2.534  0.0872  0.6817 -0.2365
 6160SOL    HW224406   6.002   2.091   2.489 -0.2587  1.2723 -1.1783
 6160SOL    HW324407   6.117   2.178   2.535  0.3164 -1.3501  2.8184
 6160SOL    MW424408   6.031   2.163   2.528  0.0718  0.4915  0.0423
 6161SOL     OW24409   3.834   5.801   0.288  0.6883 -0.6107  0.2602
 6161SOL    HW224410   3.888   5.880   0.286 -0.4008  0.2032 -3.2037
 6161SOL    HW324411   3.866   5.747   0.216 -1.5077 -1.1854 -0.3654
 6161SOL    MW424412   3.845   5.804   0.278  0.2549 -0.5792 -0.2794
 6162SOL     OW24413   0.972   3.377   1.774 -0.0603 -0.3189 -0.6188
 6162SOL    HW224414   0.993   3.294   1.816 -0.8611  0.0355  0.5436
 6162SOL    HW324415   0.932   3.352   1.690  2.6554 -1.0220 -1.8382
 6162SOL    MW424416   0.970   3.363   1.768  0.1923 -0.3649 -0.6263
 6163SOL     OW24417   1.927   0.455   3.153  0.2759  0.1091  0.3343
 6163SOL    HW224418   1.930   0.500   3.069  0.1589 -0.5658 -0.0368
 6163SOL    HW324419   1.872   0.378   3.138  1.6253 -0.9443  0.5710
 6163SOL    MW424420   1.920   0.451   3.140  0.4385 -0.1189  0.3166
 6164SOL     OW24421   6.189   0.297   5.304  0.0181  0.2510  0.7066
 6164SOL    HW224422   6.239   0.261   5.231  0.8696  0.8900  0.9598
 6164SOL    HW324423   6.143   0.222   5.342 -1.7923  0.1432 -1.4870
 6164SOL    MW424424   6.189   0.282   5.299 -0.1084  0.3211  0.4506
 6165SOL     OW24425   0.941   5.694   2.524 -0.0896 -0.4012 -0.0914
 6165SOL    HW224426   0.975   5.615   2.481 -1.1691 -1.2631  0.5752
 6165SOL    HW324427   0.950   5.675   2.618 -2.1726 -0.6078  0.1139
 6165SOL    MW424428   0.946   5.681   2.531 -0.5069 -0.5422  0.0236
 6166SOL     OW24429   3.416   3.588   1.682  0.3252  0.2111  0.4420
 6166SOL    HW224430   3.369   3.620   1.759 -0.5544 -1.4716  0.6732
 6166SOL    HW324431   3.376   3.634   1.609  0.8538  1.4931  0.9383
 6166SOL    MW424432   3.404   3.598   1.683  0.2789  0.1582  0.5380
 6167SOL     OW24433   5.359   4.777   2.108  0.2592 -0.4035  0.4202
 6167SOL    HW224434   5.335   4.869   2.101 -0.0018 -0.5951 -2.9599
 6167SOL    HW324435   5.453   4.775   2.091 -0.1110 -0.8712 -1.8533
 6167SOL    MW424436   5.368   4.788   2.105  0.1759 -0.4905 -0.3257
 6168SOL     OW24437   1.826   6.053   4.484 -0.2255  0.5673  0.0135
 6168SOL    HW224438   1.781   6.029   4.565 -0.5945  1.2812  0.0322
 6168SOL    HW324439   1.883   6.126   4.509 -1.0448  1.4360 -0.5346
 6168SOL    MW424440   1.827   6.060   4.498 -0.3823  0.7761 -0.0564
 6169SOL     OW24441   6.286   3.226   4.115  0.1487 -0.1817  0.0624
 6169SOL    HW224442   6.236   3.275   4.181  1.1817  0.3185  0.4864
 6169SOL    HW324443   6.358   3.284   4.090 -0.0746 -0.4669 -1.3388
 6169SOL    MW424444   6.289   3.240   4.120  0.2556 -0.1533 -0.0665
 6170SOL     OW24445   6.290   2.839   4.680  0.3651  0.2631  0.1745
 6170SOL    HW224446   6.356   2.908   4.671  2.0263 -1.0923  1.4040
 6170SOL    HW324447   6.273   2.834   4.774  1.5367 -2.0762  0.3219
 6170SOL    MW424448   6.297   2.848   4.691  0.7388 -0.2244  0.3562
 6171SOL     OW24449   5.620   5.866   0.601  0.1463 -0.8694 -0.0212
 6171SOL    HW224450   5.591   5.912   0.680  1.6565 -0.7568  0.5009
 6171SOL    HW324451   5.695   5.814   0.630 -1.4603 -3.7221 -0.5874
 6171SOL    MW424452   5.626   5.865   0.615  0.1336 -1.2309 -0.0270
 6172SOL     OW24453   0.426   3.896   4.674  0.5426 -0.2521 -0.0142
 6172SOL    HW224454   0.491   3.961   4.698 -0.2634  0.9812 -1.0235
 6172SOL    HW324455   0.371   3.940   4.609 -1.5993 -1.0565  1.1568
 6172SOL    MW424456   0.427   3.910   4.668  0.1537 -0.1955  0.0071
 6173SOL     OW24457   5.910   2.092   6.123  0.0784  0.0429 -0.2266
 6173SOL    HW224458   5.869   2.042   6.193 -0.4424 -0.0231 -0.5718
 6173SOL    HW324459   5.927   2.027   6.055  1.5488 -0.0982  0.2415
 6173SOL    MW424460   5.907   2.077   6.123  0.2037  0.0156 -0.2104
 6174SOL     OW24461   6.387   2.455   5.121 -0.0035  0.7066  0.1128
 6174SOL    HW224462   6.455   2.401   5.161 -0.0613  2.0281  2.1513
 6174SOL    HW324463   6.424   2.483   5.038  0.9563 -0.5407  0.0934
 6174SOL    MW424464   6.401   2.451   5.115  0.1155  0.7164  0.3792
 6175SOL     OW24465   0.322   6.052   3.268  0.1078 -0.4760 -0.9060
 6175SOL    HW224466   0.355   5.968   3.235 -1.7861 -0.8829 -1.9206
 6175SOL    HW324467   0.277   6.029   3.349  2.4531  0.1305  0.6762
 6175SOL    MW424468   0.321   6.038   3.274  0.1673 -0.4496 -0.8311
 6176SOL     OW24469   4.770   1.730   2.653 -0.0261  0.0651 -0.3659
 6176SOL    HW224470   4.836   1.725   2.722  0.0417  0.6545 -0.3841
 6176SOL    HW324471   4.702   1.669   2.681  0.1095  0.1276  0.1057
 6176SOL    MW424472   4.770   1.722   2.666  0.0008  0.1511 -0.3061
 6177SOL     OW24473   4.126   5.998   1.490  0.0486  0.3373 -0.1042
 6177SOL    HW224474   4.153   6.023   1.402 -1.0665 -0.7835 -0.8026
 6177SOL    HW324475   4.039   6.036   1.500  1.0509  2.4110  1.4372
 6177SOL    MW424476   4.118   6.006   1.480  0.0337  0.4630  0.0070
 6178SOL     OW24477   6.085   4.969   4.900 -0.2363 -0.1084  0.0311
 6178SOL    HW224478   6.007   5.016   4.868 -0.8341 -0.5104  0.8753
 6178SOL    HW324479   6.082   4.885   4.855 -0.0963  0.0026 -0.1899
 6178SOL    MW424480   6.074   4.964   4.890 -0.2967 -0.1468  0.1133
 6179SOL     OW24481   6.191   5.671   3.095  0.1007 -0.4598  0.0213
 6179SOL    HW224482   6.157   5.583   3.076  1.9914 -1.0543 -0.7816
 6179SOL    HW324483   6.141   5.699   3.172 -0.6052 -2.1842  0.2479
 6179SOL    MW424484   6.180   5.663   3.103  0.2570 -0.7657 -0.0547
 6180SOL     OW24485   3.013   5.309   4.791  0.4423  0.5481  0.1118
 6180SOL    HW224486   2.923   5.328   4.766  0.6632  2.3599  0.5802
 6180SOL    HW324487   3.063   5.385   4.762  1.4756  0.5215  1.6927
 6180SOL    MW424488   3.008   5.322   4.784  0.6078  0.7836  0.3822
 6181SOL     OW24489   5.591   3.607   2.303 -0.3116 -0.2699  0.3404
 6181SOL    HW224490   5.502   3.612   2.266 -0.4579 -0.8193  0.6029
 6181SOL    HW324491   5.576   3.593   2.397  0.0335 -1.8853  0.1825
 6181SOL    MW424492   5.577   3.606   2.310 -0.2854 -0.5555  0.3542
 6182SOL     OW24493   1.024   2.697   4.275 -0.0003  0.5412  0.2550
 6182SOL    HW224494   1.023   2.760   4.203  0.4596  1.7005  1.2199
 6182SOL    HW324495   0.933   2.667   4.281  0.1983 -0.5480 -1.5948
 6182SOL    MW424496   1.012   2.702   4.266  0.0865  0.5505  0.1382
 6183SOL     OW24497   5.006   0.183   2.453 -0.8536  0.1808  0.4965
 6183SOL    HW224498   5.067   0.230   2.397 -0.4352 -0.2321  0.6044
 6183SOL    HW324499   5.038   0.198   2.542 -1.8870  1.3799  0.6903
 6183SOL    MW424500   5.018   0.191   2.457 -0.9347  0.2846  0.5363
 6184SOL     OW24501   2.850   0.902   0.874 -0.2158 -1.0491 -0.2603
 6184SOL    HW224502   2.759   0.911   0.904 -0.4731 -0.1907 -1.2386
 6184SOL    HW324503   2.891   0.986   0.895  0.5647 -1.6717  0.7959
 6184SOL    MW424504   2.843   0.914   0.881 -0.1467 -1.0180 -0.2500
 6185SOL     OW24505   3.233   5.525   1.852 -0.3611 -0.1566 -0.3829
 6185SOL    HW224506   3.240   5.430   1.861  1.7452  0.0710  1.2380
 6185SOL    HW324507   3.178   5.553   1.925  0.0754 -0.0288 -0.1000
 6185SOL    MW424508   3.227   5.516   1.863 -0.0256 -0.1097 -0.1317
 6186SOL     OW24509   6.094   2.362   3.317  0.6182 -0.2152  0.2564
 6186SOL    HW224510   6.163   2.308   3.280  1.2939  0.8685 -0.1051
 6186SOL    HW324511   6.033   2.300   3.357  0.9445 -1.2862 -0.8579
 6186SOL    MW424512   6.095   2.347   3.318  0.7504 -0.2135  0.0617
 6187SOL     OW24513   2.861   0.087   5.646 -0.5588 -0.1161  0.5028
 6187SOL    HW224514   2.952   0.060   5.634 -1.1771 -2.7255  0.8993
 6187SOL    HW324515   2.830   0.106   5.558 -0.2923 -1.7812  0.0122
 6187SOL    MW424516   2.869   0.086   5.633 -0.6052 -0.6801  0.4904
 6188SOL     OW24517   1.509   1.018   1.742  0.1725  0.0996 -0.1977
 6188SOL    HW224518   1.537   1.036   1.832  1.3460  0.7201 -0.6696
 6188SOL    HW324519   1.462   0.935   1.747 -0.3695  0.4613  1.0988
 6188SOL    MW424520   1.506   1.010   1.755  0.2558  0.2292 -0.0889
 6189SOL     OW24521   5.580   2.373   1.256 -0.0203 -0.0254  0.1875
 6189SOL    HW224522   5.573   2.327   1.340  1.2624  2.2932  1.6512
 6189SOL    HW324523   5.652   2.435   1.268  1.2887 -0.6547 -3.1836
 6189SOL    MW424524   5.589   2.375   1.268  0.3216  0.1975 -0.0641
 6190SOL     OW24525   3.056   4.047   6.212 -0.0759  0.0914  0.3873
 6190SOL    HW224526   3.033   3.964   6.254 -1.8016  0.6939  0.7061
 6190SOL    HW324527   3.035   4.113   6.278 -0.9165  0.9306 -0.6851
 6190SOL    MW424528   3.050   4.045   6.227 -0.4145  0.2816  0.2879
 6191SOL     OW24529   0.101   0.518   2.385 -0.2124  0.1861  0.3914
 6191SOL    HW224530   0.120   0.437   2.432  2.9134 -0.5095 -1.7465
 6191SOL    HW324531   0.177   0.573   2.400 -1.3264  1.8883  0.0366
 6191SOL    MW424532   0.113   0.514   2.393  0.0530  0.3189  0.0625
 6192SOL     OW24533   0.453   2.501   1.284  0.3184  0.2516 -0.2077
 6192SOL    HW224534   0.483   2.592   1.289 -0.6884  0.6806 -1.4080
 6192SOL    HW324535   0.397   2.490   1.360  1.5315  0.1976  0.6974
 6192SOL    MW424536   0.449   2.512   1.294  0.3456  0.3011 -0.2466
 6193SOL     OW24537   4.763   0.674   2.429 -0.4237  0.2936  0.1271
 6193SOL    HW224538   4.695   0.742   2.434 -0.3581  0.3544  0.1841
 6193SOL    HW324539   4.845   0.721   2.443 -0.4040  0.1509  0.5046
 6193SOL    MW424540   4.764   0.689   2.431 -0.4124  0.2828  0.1844
 6194SOL     OW24541   4.618   5.570   3.786 -0.1555 -0.0465 -0.0365
 6194SOL    HW224542   4.690   5.520   3.824  1.1823  0.2384 -1.9898
 6194SOL    HW324543   4.644   5.662   3.797 -1.8361  0.2371  2.1300
 6194SOL    MW424544   4.631   5.576   3.792 -0.2007  0.0285 -0.0084
 6195SOL     OW24545   5.699   6.265   0.906 -0.6233 -0.0326  0.4137
 6195SOL    HW224546   5.782   6.287   0.865 -0.7865 -0.1883 -0.0077
 6195SOL    HW324547   5.714   6.278   1.000 -0.0956 -0.1526  0.3500
 6195SOL    MW424548   5.712   6.270   0.913 -0.5752 -0.0690  0.3497
 6196SOL     OW24549   2.340   2.003   2.780 -0.5674  0.0944  0.6235
 6196SOL    HW224550   2.351   2.091   2.746 -0.6883  0.1366  0.6919
 6196SOL    HW324551   2.393   1.948   2.723 -0.3120  0.2416  0.7210
 6196SOL    MW424552   2.348   2.007   2.768 -0.5497  0.1194  0.6454
 6197SOL     OW24553   1.009   1.579   3.718 -0.1484 -0.5607 -1.0889
 6197SOL    HW224554   0.931   1.626   3.750  0.9086 -0.3509  1.4345
 6197SOL    HW324555   0.980   1.488   3.710 -0.9161 -0.3169 -1.1856
 6197SOL    MW424556   0.995   1.573   3.721 -0.1103 -0.5008 -0.7687
 6198SOL     OW24557   5.803   2.576   1.289 -0.3314 -0.5178  0.3904
 6198SOL    HW224558   5.769   2.662   1.315  1.5706  0.5508 -0.4197
 6198SOL    HW324559   5.882   2.596   1.238  0.5962 -2.7757  0.8267
 6198SOL    MW424560   5.809   2.590   1.286  0.0419 -0.6747  0.3411
 6199SOL     OW24561   5.186   2.731   3.949 -0.6969  0.2380  0.2743
 6199SOL    HW224562   5.247   2.684   3.891  0.9026  1.8037  0.5919
 6199SOL    HW324563   5.197   2.823   3.925 -1.2920  0.7552  1.8977
 6199SOL    MW424564   5.196   2.737   3.938 -0.5644  0.5128  0.5304
 6200SOL     OW24565   3.985   0.181   1.153 -0.2514  0.0573  0.0365
 6200SOL    HW224566   3.946   0.094   1.158  0.3986 -0.2448 -0.0419
 6200SOL    HW324567   3.969   0.219   1.239  2.0897 -1.3103  1.1866
 6200SOL    MW424568   3.978   0.174   1.165  0.1432 -0.1630  0.1779
 6201SOL     OW24569   0.180   2.100   3.853  0.0263  0.0660  0.1203
 6201SOL    HW224570   0.216   2.013   3.871 -0.1587 -0.2986 -1.1892
 6201SOL    HW324571   0.129   2.121   3.931  1.3479 -0.2988  1.1226
 6201SOL    MW424572   0.178   2.091   3.866  0.1762 -0.0303  0.0797
 6202SOL     OW24573   5.029   4.682   5.694  0.1335 -0.0504 -0.1942
 6202SOL    HW224574   5.028   4.613   5.761  0.6926  1.8729  1.9301
 6202SOL    HW324575   4.950   4.733   5.711  2.0086  2.5483  1.4577
 6202SOL    MW424576   5.018   4.680   5.705  0.4546  0.5463  0.3041
 6203SOL     OW24577   4.053   0.068   0.243  0.1971 -0.5209 -0.2164
 6203SOL    HW224578   4.124   0.008   0.219 -0.8452 -1.5948 -0.7245
 6203SOL    HW324579   4.054   0.070   0.338 -0.2641 -2.0185 -0.1595
 6203SOL    MW424580   4.063   0.061   0.252 -0.0013 -0.8602 -0.2759
 6204SOL     OW24581   3.298   1.746   1.280 -0.0265 -0.1212  0.2284
 6204SOL    HW224582   3.333   1.810   1.342 -0.6078 -0.8504  1.3195
 6204SOL    HW324583   3.216   1.785   1.249 -0.3555 -0.3041  0.8552
 6204SOL    MW424584   3.292   1.760   1.284 -0.1466 -0.2415  0.4551
 6205SOL     OW24585   3.502   6.127   4.263 -0.2667  0.0035  0.5229
 6205SOL    HW224586   3.547   6.049   4.294 -2.5391 -1.9617 -0.7842
 6205SOL    HW324587   3.543   6.146   4.179 -1.8419 -1.8537 -0.7277
 6205SOL    MW424588   3.514   6.119   4.256 -0.7744 -0.5008  0.1855
 6206SOL     OW24589   0.450   2.037   0.267 -0.1380  0.0419 -0.5743
 6206SOL    HW224590   0.447   2.127   0.300 -0.9959 -0.9165  2.1973
 6206SOL    HW324591   0.370   2.027   0.216 -1.6424  0.0239  1.6521
 6206SOL    MW424592   0.439   2.047   0.265 -0.4497 -0.0870  0.0852
 6207SOL     OW24593   4.534   5.349   3.049  0.0062  0.3313  0.5086
 6207SOL    HW224594   4.550   5.396   2.967  1.0505 -0.6813  0.0999
 6207SOL    HW324595   4.620   5.314   3.074 -0.5607 -0.5721  1.2810
 6207SOL    MW424596   4.548   5.351   3.042  0.0692  0.0785  0.5566
 6208SOL     OW24597   0.205   6.177   6.352  0.2361  0.4310 -0.2775
 6208SOL    HW224598   0.208   6.096   6.301 -0.9985 -0.1970  0.5805
 6208SOL    HW324599   0.234   6.152   6.439 -0.4221  0.8323  0.0708
 6208SOL    MW424600   0.209   6.163   6.356 -0.0136  0.4011 -0.1183
 6209SOL     OW24601   5.527   0.015   2.323  0.0163  0.2504 -0.0674
 6209SOL    HW224602   5.525   0.107   2.296 -0.0553  0.3221  0.1806
 6209SOL    HW324603   5.440  -0.018   2.300  0.3831 -0.0346 -1.1119
 6209SOL    MW424604   5.515   0.023   2.316  0.0553  0.2223 -0.1725
 6210SOL     OW24605   0.217   4.486   1.922  0.0711  0.1276 -0.1254
 6210SOL    HW224606   0.232   4.471   1.829 -0.5135 -0.1671 -0.1740
 6210SOL    HW324607   0.159   4.415   1.949  0.8455 -0.2403  0.6347
 6210SOL    MW424608   0.211   4.474   1.914  0.0961  0.0402 -0.0315
 6211SOL     OW24609   0.059   5.816   5.301 -0.7971  0.7751  0.1453
 6211SOL    HW224610   0.084   5.820   5.394  0.3807 -3.0416  0.1595
 6211SOL    HW324611  -0.028   5.776   5.301 -1.0004  1.2057 -0.3954
 6211SOL    MW424612   0.051   5.811   5.313 -0.6686  0.3283  0.0759
 6212SOL     OW24613   4.817   6.148   4.451  0.3727  0.0261 -0.3289
 6212SOL    HW224614   4.898   6.108   4.420  0.7521  0.5180 -0.0000
 6212SOL    HW324615   4.753   6.130   4.383  0.3250 -1.8015  0.1525
 6212SOL    MW424616   4.819   6.140   4.438  0.4165 -0.1501 -0.2220
 6213SOL     OW24617   3.423   5.201   5.184  0.3609 -0.8014  0.1860
 6213SOL    HW224618   3.424   5.119   5.135  0.7234 -0.3694 -0.5459
 6213SOL    HW324619   3.426   5.270   5.117  0.5645 -0.1932  0.8014
 6213SOL    MW424620   3.423   5.200   5.169  0.4356 -0.6642  0.1707
 6214SOL     OW24621   4.139   0.206   4.570  0.2986 -0.1817  0.4864
 6214SOL    HW224622   4.213   0.244   4.618  0.1877  1.0141 -0.2384
 6214SOL    HW324623   4.065   0.215   4.630  0.1428  1.3818  0.1192
 6214SOL    MW424624   4.139   0.212   4.585  0.2634  0.1823  0.3423
 6215SOL     OW24625   1.721   2.985   2.940  0.2480  0.1350 -0.4700
 6215SOL    HW224626   1.767   2.990   3.024 -0.6122  1.5651 -0.0516
 6215SOL    HW324627   1.708   3.077   2.914 -1.2953 -0.2448 -1.1722
 6215SOL    MW424628   1.726   2.998   2.947 -0.0691  0.2736 -0.5074
 6216SOL     OW24629   2.886   0.675   5.009  0.5481  0.4613  0.3995
 6216SOL    HW224630   2.833   0.659   4.931 -0.3130 -0.8664  1.2162
 6216SOL    HW324631   2.976   0.659   4.980  0.2129 -0.3343 -0.2633
 6216SOL    MW424632   2.891   0.671   4.995  0.3903  0.1812  0.4198
 6217SOL     OW24633   2.638   3.989   4.608 -0.3875  0.4619  0.4306
 6217SOL    HW224634   2.547   3.970   4.631 -0.3611  0.2609  0.3714
 6217SOL    HW324635   2.688   3.966   4.687 -0.2231 -0.8533 -0.0266
 6217SOL    MW424636   2.633   3.983   4.622 -0.3623  0.2619  0.3624
 6218SOL     OW24637   4.476   2.858   3.343  0.1372  0.0095  0.2335
 6218SOL    HW224638   4.422   2.843   3.421 -2.3036  1.9257 -0.9336
 6218SOL    HW324639   4.421   2.828   3.270  1.1928  0.8037 -0.9377
 6218SOL    MW424640   4.462   2.852   3.344 -0.0456  0.3671 -0.0750
 6219SOL     OW24641   0.914   2.095   5.028 -0.0085  0.0111  0.1288
 6219SOL    HW224642   1.001   2.135   5.020  0.7059 -0.8605  2.5714
 6219SOL    HW324643   0.921   2.012   4.980  0.0750  0.5204 -0.7618
 6219SOL    MW424644   0.927   2.089   5.021  0.0968 -0.0367  0.3336
 6220SOL     OW24645   1.413   3.328   1.813 -0.3092  0.4143 -0.4580
 6220SOL    HW224646   1.457   3.243   1.814  0.3288  0.7145 -1.6217
 6220SOL    HW324647   1.332   3.314   1.764 -0.4865  0.3485 -0.1483
 6220SOL    MW424648   1.408   3.315   1.807 -0.2484  0.4453 -0.5707
 6221SOL     OW24649   4.743   2.393   4.251  0.1228  0.3761  0.5013
 6221SOL    HW224650   4.799   2.457   4.296  1.3037 -1.3071  1.5356
 6221SOL    HW324651   4.792   2.367   4.174 -0.6023  1.0611 -0.2228
 6221SOL    MW424652   4.757   2.398   4.247  0.1829  0.2444  0.5422
 6222SOL     OW24653   4.287   0.614   3.456  0.4453 -0.1729  0.5384
 6222SOL    HW224654   4.208   0.600   3.508  0.4349  0.0716  0.5904
 6222SOL    HW324655   4.293   0.536   3.400 -1.6386  1.2018 -1.8097
 6222SOL    MW424656   4.277   0.602   3.455  0.1690  0.0407  0.2354
 6223SOL     OW24657   3.131   3.953   1.985 -0.3776  0.3982  0.0409
 6223SOL    HW224658   3.163   3.972   2.073 -1.7625  2.6503  0.1626
 6223SOL    HW324659   3.197   3.990   1.927 -0.1860  0.2642  0.1744
 6223SOL    MW424660   3.144   3.961   1.989 -0.5351  0.6777  0.0746
 6224SOL     OW24661   4.689   4.276   4.943  0.5684 -0.4707  0.0464
 6224SOL    HW224662   4.770   4.241   4.981  0.7304  2.0396  2.2916
 6224SOL    HW324663   4.622   4.261   5.011 -0.3005 -0.3092 -0.7478
 6224SOL    MW424664   4.691   4.269   4.957  0.4752 -0.1182  0.2379
 6225SOL     OW24665   5.797   2.913   5.559 -0.5508  0.0551 -0.5072
 6225SOL    HW224666   5.881   2.946   5.526 -0.4836 -0.6158 -1.0269
 6225SOL    HW324667   5.822   2.845   5.622 -0.6600 -2.1052 -2.6458
 6225SOL    MW424668   5.811   2.908   5.563 -0.5564 -0.3184 -0.8579
 6226SOL     OW24669   3.737   1.142   5.762 -0.5221  0.1811  0.5774
 6226SOL    HW224670   3.668   1.098   5.811 -1.0398  0.6653  0.2981
 6226SOL    HW324671   3.780   1.199   5.826 -1.1935  0.8104  0.4799
 6226SOL    MW424672   3.734   1.144   5.777 -0.6790  0.3280  0.5277
 6227SOL     OW24673   5.460   2.091   3.791 -0.3605 -0.0088  0.3360
 6227SOL    HW224674   5.520   2.153   3.832  1.0327 -0.8623 -0.3363
 6227SOL    HW324675   5.503   2.006   3.802 -1.1370 -0.5606 -0.7380
 6227SOL    MW424676   5.473   2.088   3.798 -0.2791 -0.1942  0.1056
 6228SOL     OW24677   5.819   3.706   2.694 -0.0378 -0.1483 -0.3315
 6228SOL    HW224678   5.873   3.640   2.736  0.0237  0.1197  0.0111
 6228SOL    HW324679   5.877   3.748   2.630 -0.5566 -1.6142 -1.8219
 6228SOL    MW424680   5.834   3.703   2.691 -0.0982 -0.3064 -0.4829
 6229SOL     OW24681   3.601   4.005   1.805  0.1307  0.6098  0.0901
 6229SOL    HW224682   3.609   4.058   1.884  0.5080  0.2971  0.2651
 6229SOL    HW324683   3.599   4.069   1.734  1.9165  0.8325  0.1970
 6229SOL    MW424684   3.602   4.020   1.806  0.4161  0.5979  0.1273
 6230SOL     OW24685   6.046   0.982   4.550  0.2536  0.5047 -0.2642
 6230SOL    HW224686   6.126   1.031   4.533  0.6534 -0.7574 -2.4041
 6230SOL    HW324687   6.053   0.955   4.642  1.0578  2.4764  0.3105
 6230SOL    MW424688   6.058   0.985   4.560  0.4125  0.5983 -0.4707
 6231SOL     OW24689   5.116   5.920   6.335  0.1368 -0.2102  0.8186
 6231SOL    HW224690   5.053   5.849   6.318  1.6675 -1.0416 -2.1169
 6231SOL    HW324691   5.193   5.875   6.369  0.8504  0.0831 -0.3552
 6231SOL    MW424692   5.118   5.905   6.337  0.4329 -0.2812  0.2764
 6232SOL     OW24693   3.245   3.020   3.139 -0.3128 -0.4419 -0.1077
 6232SOL    HW224694   3.310   3.040   3.072  1.0004 -0.4620  1.1245
 6232SOL    HW324695   3.282   3.055   3.220 -1.6162 -0.8932  0.7124
 6232SOL    MW424696   3.258   3.027   3.141 -0.3115 -0.5041  0.1630
 6233SOL     OW24697   6.305   4.836   4.550  0.1418  0.5203 -0.0843
 6233SOL    HW224698   6.238   4.799   4.608 -2.0076  2.8673 -0.8839
 6233SOL    HW324699   6.332   4.917   4.594 -0.7720  1.8082 -1.7771
 6233SOL    MW424700   6.300   4.842   4.564 -0.2623  0.9999 -0.4131
 6234SOL     OW24701   0.239   5.313   4.902  0.0626 -0.3259 -0.6282
 6234SOL    HW224702   0.233   5.218   4.913 -1.0141 -0.1925  0.1862
 6234SOL    HW324703   0.305   5.341   4.965  0.5933 -0.5626 -1.0780
 6234SOL    MW424704   0.247   5.305   4.912 -0.0095 -0.3395 -0.5801
 6235SOL     OW24705   2.263   2.919   1.278  0.0612 -0.1308 -0.4758
 6235SOL    HW224706   2.219   2.913   1.193  0.1790 -0.0491 -0.5429
 6235SOL    HW324707   2.192   2.934   1.341 -0.0649 -0.5934 -0.5100
 6235SOL    MW424708   2.247   2.920   1.275  0.0601 -0.1811 -0.4892
 6236SOL     OW24709   1.902   3.158   1.554 -1.0240  0.5814 -0.4304
 6236SOL    HW224710   1.945   3.164   1.640 -0.1037  1.6000 -0.9321
 6236SOL    HW324711   1.809   3.162   1.574 -0.9561 -1.5906  0.6880
 6236SOL    MW424712   1.896   3.159   1.568 -0.8936  0.4292 -0.3490
 6237SOL     OW24713   0.124   3.681   5.405 -0.5141  0.2825 -0.4178
 6237SOL    HW224714   0.078   3.604   5.438  0.0473 -0.3516 -1.0704
 6237SOL    HW324715   0.197   3.645   5.355  0.6659  1.2520  0.5451
 6237SOL    MW424716   0.128   3.666   5.403 -0.2844  0.3268 -0.3769
 6238SOL     OW24717   1.199   1.354   0.165 -0.9368  0.4604 -0.1824
 6238SOL    HW224718   1.162   1.266   0.176 -1.1014  0.7033  1.3337
 6238SOL    HW324719   1.267   1.342   0.099 -2.9052 -0.2236 -2.2620
 6238SOL    MW424720   1.203   1.341   0.157 -1.2182  0.4022 -0.2567
 6239SOL     OW24721   0.922   4.949   6.252 -0.1212  0.1634 -0.9409
 6239SOL    HW224722   0.878   4.876   6.297 -0.7828 -0.6283 -2.7562
 6239SOL    HW324723   0.882   5.027   6.290 -0.9953 -0.4778 -0.4882
 6239SOL    MW424724   0.911   4.950   6.263 -0.3238 -0.0256 -1.1206
 6240SOL     OW24725   0.951   1.326   0.385  0.0460 -0.1609  0.1293
 6240SOL    HW224726   1.033   1.316   0.433  0.3010 -0.0175 -0.2698
 6240SOL    HW324727   0.959   1.412   0.342 -0.6766  0.2386  0.7810
 6240SOL    MW424728   0.963   1.336   0.386 -0.0157 -0.0893  0.1626
 6241SOL     OW24729   0.135   1.096   2.075 -0.0023  0.0553 -0.1762
 6241SOL    HW224730   0.202   1.142   2.126  0.9432 -0.1073 -1.2155
 6241SOL    HW324731   0.111   1.158   2.006 -1.9738  0.6468  0.9736
 6241SOL    MW424732   0.141   1.110   2.072 -0.1377  0.1119 -0.1616
 6242SOL     OW24733   5.143   4.173   0.261  0.2501  0.0124  0.2460
 6242SOL    HW224734   5.222   4.211   0.297  0.9752  1.1354 -2.2762
 6242SOL    HW324735   5.174   4.101   0.206 -0.2741  1.2471 -1.7700
 6242SOL    MW424736   5.157   4.169   0.258  0.2766  0.3235 -0.3528
 6243SOL     OW24737   1.025   3.116   3.727  0.3137  0.1643  0.3956
 6243SOL    HW224738   0.953   3.053   3.727  0.4139  0.0461  0.6850
 6243SOL    HW324739   1.090   3.077   3.787  1.2890 -0.5099 -1.0310
 6243SOL    MW424740   1.024   3.102   3.735  0.4556  0.0597  0.2455
 6244SOL     OW24741   0.275   0.129   1.515  0.1433  0.1585 -0.6000
 6244SOL    HW224742   0.236   0.217   1.512 -1.8363 -0.6631 -0.6719
 6244SOL    HW324743   0.228   0.081   1.447 -2.1853 -2.2019  2.3874
 6244SOL    MW424744   0.264   0.134   1.505 -0.4251 -0.2613 -0.2154
 6245SOL     OW24745   5.192   4.783   2.484 -0.3743 -0.3470  0.1753
 6245SOL    HW224746   5.274   4.795   2.437 -0.9244  0.3287 -0.6320
 6245SOL    HW324747   5.150   4.708   2.441 -0.6001 -0.1144 -0.0091
 6245SOL    MW424748   5.197   4.774   2.473 -0.4767 -0.2271  0.0445
 6246SOL     OW24749   3.061   5.787   0.576 -0.3397  0.2509  0.1920
 6246SOL    HW224750   3.000   5.785   0.650 -0.6436 -0.6566 -0.0743
 6246SOL    HW324751   3.020   5.849   0.514  0.3707  1.7225  1.1374
 6246SOL    MW424752   3.047   5.795   0.577 -0.2861  0.3253  0.2816
 6247SOL     OW24753   0.445   2.726   3.275 -0.3799 -0.0106 -0.4652
 6247SOL    HW224754   0.489   2.649   3.240  0.1149 -0.0103  0.1604
 6247SOL    HW324755   0.353   2.700   3.282 -0.0646 -0.8614  0.6253
 6247SOL    MW424756   0.438   2.713   3.271 -0.2730 -0.1228 -0.2387
 6248SOL     OW24757   3.092   0.686   5.532  0.2984  0.3680 -0.4046
 6248SOL    HW224758   3.051   0.637   5.461  2.1840 -0.3943 -1.0098
 6248SOL    HW324759   3.184   0.692   5.508  1.1268 -0.4149  2.2200
 6248SOL    MW424760   3.099   0.680   5.520  0.6565  0.1642 -0.1382
 6249SOL     OW24761   3.761   5.247   2.331  0.7563  0.6235 -0.4880
 6249SOL    HW224762   3.747   5.252   2.236  0.0702 -0.3468 -0.4564
 6249SOL    HW324763   3.849   5.283   2.344 -0.2392  3.5852 -1.1191
 6249SOL    MW424764   3.771   5.252   2.320  0.5345  0.8862 -0.5671
 6250SOL     OW24765   0.849   4.207   1.069  0.3545 -0.5644  0.0724
 6250SOL    HW224766   0.805   4.282   1.109 -0.7617 -0.2895 -1.6062
 6250SOL    HW324767   0.784   4.169   1.011  1.6715 -1.4277 -0.8819
 6250SOL    MW424768   0.835   4.212   1.067  0.3810 -0.6420 -0.2750
 6251SOL     OW24769   0.794   5.578   4.427 -0.3474  0.2386 -0.1576
 6251SOL    HW224770   0.851   5.552   4.355  0.9375  0.6341  0.6693
 6251SOL    HW324771   0.854   5.589   4.501 -1.0963  3.1597  0.1405
 6251SOL    MW424772   0.809   5.576   4.427 -0.2767  0.6762 -0.0092
 6252SOL     OW24773   2.048   3.642   3.403  0.1089 -0.3119 -0.3168
 6252SOL    HW224774   2.074   3.573   3.342  2.1923  1.6343 -1.7775
 6252SOL    HW324775   1.959   3.666   3.376  1.0588  0.6853 -2.9020
 6252SOL    MW424776   2.040   3.636   3.391  0.5091  0.0765 -0.8506
 6253SOL     OW24777   2.676   4.547   6.355 -0.6710  0.2184 -0.0520
 6253SOL    HW224778   2.631   4.491   6.419 -1.2200 -0.1309 -0.7289
 6253SOL    HW324779   2.689   4.630   6.400  2.3587 -1.1572  1.8686
 6253SOL    MW424780   2.671   4.550   6.369 -0.3437 -0.0091  0.1121
 6254SOL     OW24781   4.825   5.655   0.068 -0.7191 -0.0336  0.2297
 6254SOL    HW224782   4.752   5.594   0.076 -1.2271  0.5915  0.4779
 6254SOL    HW324783   4.847   5.678   0.158  0.0420 -0.5156  0.1692
 6254SOL    MW424784   4.818   5.650   0.081 -0.6857 -0.0147  0.2545
 6255SOL     OW24785   4.994   1.601   3.439  0.0487  0.0972  0.1475
 6255SOL    HW224786   4.919   1.576   3.493  1.1385 -0.2652  1.5589
 6255SOL    HW324787   5.015   1.522   3.389  0.2571 -0.1923  0.6861
 6255SOL    MW424788   4.987   1.587   3.439  0.2200  0.0112  0.4048
 6256SOL     OW24789   5.832   0.726   0.723  0.1763 -0.6355 -0.2298
 6256SOL    HW224790   5.759   0.685   0.675  0.6339  0.7875 -2.2752
 6256SOL    HW324791   5.889   0.653   0.747 -1.0373 -1.5923 -0.1464
 6256SOL    MW424792   5.830   0.711   0.720  0.0766 -0.5740 -0.4887
 6257SOL     OW24793   5.966   4.782   3.764 -0.1369  0.3127  0.0431
 6257SOL    HW224794   5.984   4.875   3.755 -0.8074  0.3051 -1.6636
 6257SOL    HW324795   5.988   4.744   3.679 -0.3772 -1.0026  0.5400
 6257SOL    MW424796   5.971   4.789   3.752 -0.2571  0.1382 -0.1166
 6258SOL     OW24797   0.465   0.345   5.002  0.8340 -0.2771  0.4885
 6258SOL    HW224798   0.505   0.384   4.924 -1.0751 -0.1517 -0.4815
 6258SOL    HW324799   0.479   0.251   4.991 -1.0600 -0.4523 -1.0631
 6258SOL    MW424800   0.472   0.338   4.990  0.3323 -0.2836  0.1558
 6259SOL     OW24801   2.920   1.493   6.366  0.0173 -0.2721  0.1263
 6259SOL    HW224802   2.890   1.495   6.457  1.0119  4.2998  0.6250
 6259SOL    HW324803   2.871   1.563   6.323  2.6169  0.6321 -1.6317
 6259SOL    MW424804   2.910   1.502   6.372  0.4915  0.4504 -0.0398
 6260SOL     OW24805   1.092   5.270   6.403 -0.2152  0.1551  0.5226
 6260SOL    HW224806   1.112   5.288   6.311  1.6136 -2.6499  0.2303
 6260SOL    HW324807   1.157   5.322   6.452 -0.1613  0.4372  0.1597
 6260SOL    MW424808   1.103   5.279   6.397  0.0332 -0.1778  0.4362
 6261SOL     OW24809   3.487   4.478   1.834 -0.0812 -0.2302  0.2728
 6261SOL    HW224810   3.538   4.479   1.915 -0.3377 -1.1093  0.4560
 6261SOL    HW324811   3.409   4.530   1.855  0.4153  0.5485  0.2043
 6261SOL    MW424812   3.483   4.485   1.848 -0.0495 -0.2435  0.2879
 6262SOL     OW24813   0.715   5.302   3.893 -0.7104 -0.2072  0.0003
 6262SOL    HW224814   0.736   5.393   3.914 -0.5332  0.1158 -1.4463
 6262SOL    HW324815   0.737   5.253   3.972  1.5997  0.6828 -0.0202
 6262SOL    MW424816   0.721   5.307   3.906 -0.3823 -0.0472 -0.1933
 6263SOL     OW24817   3.197   5.051   5.501  0.3216 -0.0978 -0.2972
 6263SOL    HW224818   3.287   5.033   5.528  0.3186 -0.6750 -0.6585
 6263SOL    HW324819   3.180   4.989   5.431 -0.4945 -0.2725  0.0427
 6263SOL    MW424820   3.206   5.040   5.495  0.2135 -0.1970 -0.3000
 6264SOL     OW24821   3.319   0.340   3.473 -0.3929  0.6685  0.7644
 6264SOL    HW224822   3.281   0.417   3.430  0.0936  1.4979  1.7895
 6264SOL    HW324823   3.297   0.350   3.565  0.5308  0.0919  1.0664
 6264SOL    MW424824   3.311   0.351   3.479 -0.2069  0.7019  0.9395
 6265SOL     OW24825   2.662   3.033   4.238  0.1979 -0.2234  0.5489
 6265SOL    HW224826   2.747   2.992   4.254  0.2929  0.5859  2.3648
 6265SOL    HW324827   2.681   3.105   4.178  0.1331 -2.2815 -2.1239
 6265SOL    MW424828   2.676   3.037   4.233  0.2019 -0.3882  0.4359
 6266SOL     OW24829   3.704   0.023   0.839  0.5087  0.2811 -0.2237
 6266SOL    HW224830   3.754   0.103   0.857  1.9094 -0.7861  0.9537
 6266SOL    HW324831   3.652   0.009   0.918  1.0869 -0.5088  0.0344
 6266SOL    MW424832   3.704   0.032   0.852  0.7698  0.0360 -0.0343
 6267SOL     OW24833   1.893   5.159   1.614  0.4543  0.5123 -0.3088
 6267SOL    HW224834   1.871   5.131   1.703  0.5905  0.9419 -0.1370
 6267SOL    HW324835   1.910   5.253   1.622  2.5586  0.1829 -0.3941
 6267SOL    MW424836   1.892   5.168   1.626  0.7499  0.5255 -0.2974
 6268SOL     OW24837   4.037   6.005   5.608 -0.7574  0.2707 -0.3257
 6268SOL    HW224838   4.116   6.055   5.589 -1.3826  0.9110 -1.3477
 6268SOL    HW324839   3.968   6.049   5.558 -1.5740 -0.8476 -0.2321
 6268SOL    MW424840   4.038   6.017   5.599 -0.9477  0.2076 -0.4482
 6269SOL     OW24841   3.009   0.970   3.265  0.1845 -0.1042 -0.4822
 6269SOL    HW224842   3.062   1.046   3.286 -1.1193  0.6457  0.2027
 6269SOL    HW324843   2.932   0.978   3.321  0.2473 -2.2027 -0.0160
 6269SOL    MW424844   3.006   0.981   3.275  0.0208 -0.2821 -0.3303
 6270SOL     OW24845   4.334   3.565   5.902 -0.4958 -0.3360  0.2043
 6270SOL    HW224846   4.342   3.480   5.860  0.1861 -0.1800  0.0048
 6270SOL    HW324847   4.274   3.615   5.846  0.0149 -0.2967 -0.3154
 6270SOL    MW424848   4.327   3.560   5.889 -0.3385 -0.3102  0.1094
 6271SOL     OW24849   5.474   6.429   1.679 -0.2133 -0.1278 -0.5746
 6271SOL    HW224850   5.386   6.456   1.652 -0.2275 -0.6650 -1.0888
 6271SOL    HW324851   5.524   6.511   1.684 -0.1875  0.0008 -2.3582
 6271SOL    MW424852   5.469   6.444   1.676 -0.2117 -0.1817 -0.8778
 6272SOL     OW24853   5.760   4.563   0.237 -0.3615  0.0388 -0.1366
 6272SOL    HW224854   5.790   4.474   0.253 -0.2100  0.3971  1.8432
 6272SOL    HW324855   5.841   4.613   0.223 -0.2948  0.2174  0.8238
 6272SOL    MW424856   5.775   4.558   0.237 -0.3327  0.1096  0.2513
 6273SOL     OW24857   2.365   4.053   1.590  0.1054 -0.0514  0.5063
 6273SOL    HW224858   2.271   4.050   1.573  0.1423  0.3560  0.2385
 6273SOL    HW324859   2.375   4.120   1.658  0.3125  0.6398 -0.1972
 6273SOL    MW424860   2.354   4.062   1.597  0.1376  0.0936  0.3782
 6274SOL     OW24861   4.158   2.833   2.903 -0.0707  0.6961  0.4800
 6274SOL    HW224862   4.170   2.927   2.890  2.8638  0.0798 -3.0992
 6274SOL    HW324863   4.160   2.796   2.814  1.6472 -2.9355  1.8053
 6274SOL    MW424864   4.160   2.840   2.889  0.5431  0.1356  0.1826
 6275SOL     OW24865   5.690   3.106   4.015 -0.0206  0.9097  0.3133
 6275SOL    HW224866   5.679   3.084   4.108  0.1979 -0.8197 -0.0404
 6275SOL    HW324867   5.607   3.080   3.974  0.4644  0.1783 -0.2238
 6275SOL    MW424868   5.678   3.100   4.022  0.0722  0.5850  0.1957
 6276SOL     OW24869   0.335   4.861   6.403  0.0875 -0.4539 -0.0777
 6276SOL    HW224870   0.259   4.920   6.405 -0.1757 -0.5138 -3.3595
 6276SOL    HW324871   0.409   4.918   6.386  0.5718 -0.6094  1.3699
 6276SOL    MW424872   0.334   4.877   6.401  0.1166 -0.4824 -0.3197
 6277SOL     OW24873   0.991   0.832   1.514 -0.2271  0.4101 -0.5115
 6277SOL    HW224874   0.915   0.884   1.486 -0.9121 -0.9529 -1.3096
 6277SOL    HW324875   0.955   0.746   1.533  0.8770  0.2077  0.8409
 6277SOL    MW424876   0.976   0.828   1.513 -0.1718  0.2036 -0.4384
 6278SOL     OW24877   2.044   4.563   2.748 -0.1317 -0.1855  0.1838
 6278SOL    HW224878   1.991   4.596   2.821 -0.6591  0.0713 -0.3050
 6278SOL    HW324879   2.059   4.471   2.768 -4.5711 -1.5933 -1.7663
 6278SOL    MW424880   2.039   4.555   2.760 -0.7870 -0.3374 -0.1380
 6279SOL     OW24881   1.385   2.444   4.831  0.0256 -0.3303  0.4503
 6279SOL    HW224882   1.478   2.468   4.822 -0.2463  1.2268  1.4570
 6279SOL    HW324883   1.358   2.485   4.913 -1.4937 -0.9904  0.2957
 6279SOL    MW424884   1.394   2.453   4.841 -0.2107 -0.2119  0.5627
 6280SOL     OW24885   3.668   3.428   4.265 -0.0647  0.6143  0.6931
 6280SOL    HW224886   3.720   3.505   4.287  0.3771  0.3242  0.6832
 6280SOL    HW324887   3.708   3.357   4.314 -0.1872  0.3021  0.3479
 6280SOL    MW424888   3.680   3.429   4.274 -0.0226  0.5348  0.6463
 6281SOL     OW24889   4.856   3.957   1.609 -0.8005 -0.2641 -0.2352
 6281SOL    HW224890   4.870   4.050   1.629  0.0504 -0.3709 -0.2651
 6281SOL    HW324891   4.942   3.927   1.577 -0.3315 -1.6527  2.1152
 6281SOL    MW424892   4.869   3.966   1.607 -0.6264 -0.4614  0.0710
 6282SOL     OW24893   0.001   1.548   1.208 -0.0778 -0.0745 -0.3830
 6282SOL    HW224894  -0.049   1.482   1.256 -0.9506  0.4480 -0.5714
 6282SOL    HW324895   0.048   1.498   1.141  0.2400 -0.6564  0.2539
 6282SOL    MW424896   0.001   1.532   1.205 -0.1511 -0.0823 -0.3238
 6283SOL     OW24897   5.007   3.215   4.454 -0.1675 -0.2387 -0.3437
 6283SOL    HW224898   4.921   3.255   4.467 -0.2142  0.7993 -3.2576
 6283SOL    HW324899   5.002   3.133   4.503 -2.0552  0.7270  1.2436
 6283SOL    MW424900   4.995   3.209   4.463 -0.4227  0.0256 -0.5187
 6284SOL     OW24901   4.209   1.995   1.158  0.6482 -0.3408  0.1103
 6284SOL    HW224902   4.286   2.030   1.202  0.5115 -0.9602  0.8650
 6284SOL    HW324903   4.156   2.072   1.137  1.1401  0.0292  0.2217
 6284SOL    MW424904   4.212   2.009   1.161  0.6951 -0.3737  0.2246
 6285SOL     OW24905   3.169   4.743   4.708 -0.5831  0.3322  0.0643
 6285SOL    HW224906   3.228   4.774   4.777 -0.5924  0.4806  0.0048
 6285SOL    HW324907   3.216   4.669   4.668 -0.6424  0.1492  0.3281
 6285SOL    MW424908   3.183   4.737   4.712 -0.5921  0.3277  0.0913
 6286SOL     OW24909   2.121   3.012   1.826 -0.4033  0.0553  1.1347
 6286SOL    HW224910   2.063   3.085   1.847  1.0138  1.0173  1.9081
 6286SOL    HW324911   2.086   2.938   1.875 -1.4543  0.3783  0.8951
 6286SOL    MW424912   2.109   3.012   1.835 -0.3550  0.2248  1.2052
 6287SOL     OW24913   0.792   2.149   1.607 -0.2402 -0.0510  0.3648
 6287SOL    HW224914   0.822   2.132   1.517 -0.8763  0.0439  0.1330
 6287SOL    HW324915   0.871   2.179   1.652  0.0017  0.3228 -0.2799
 6287SOL    MW424916   0.807   2.151   1.601 -0.2922  0.0109  0.2491
 6288SOL     OW24917   3.820   2.370   4.518 -0.4623 -0.2021 -0.1819
 6288SOL    HW224918   3.872   2.290   4.521  0.5699  0.4806  1.8262
 6288SOL    HW324919   3.865   2.425   4.454 -0.9798 -1.0573 -1.3163
 6288SOL    MW424920   3.833   2.366   4.510 -0.3944 -0.2248 -0.0666
 6289SOL     OW24921   2.363   2.571   1.551 -0.4916  0.8828  0.3291
 6289SOL    HW224922   2.447   2.567   1.596 -0.6477  0.4033  0.5810
 6289SOL    HW324923   2.379   2.628   1.476  0.8826 -1.4456 -1.3038
 6289SOL    MW424924   2.376   2.578   1.547 -0.3309  0.5123  0.1469
 6290SOL     OW24925   6.175   0.123   1.080  0.3447  0.1135 -0.3985
 6290SOL    HW224926   6.271   0.124   1.087  0.4522 -1.5845 -1.0389
 6290SOL    HW324927   6.144   0.162   1.162  1.5812  0.3672 -0.0290
 6290SOL    MW424928   6.184   0.128   1.092  0.5220 -0.0771 -0.4342
 6291SOL     OW24929   5.953   5.271   0.153  0.1980 -0.2790  0.6264
 6291SOL    HW224930   6.035   5.273   0.203 -0.5705  0.8215  1.8837
 6291SOL    HW324931   5.968   5.331   0.080  0.2596  0.5286  1.2893
 6291SOL    MW424932   5.966   5.279   0.150  0.1048 -0.0272  0.8798
 6292SOL     OW24933   0.996   4.522   4.286  0.1305 -0.2027 -0.6685
 6292SOL    HW224934   0.940   4.477   4.222  1.2411  0.4791 -2.1764
 6292SOL    HW324935   0.940   4.591   4.321 -1.4514 -2.3570  1.3539
 6292SOL    MW424936   0.981   4.525   4.282  0.0683 -0.3970 -0.6006
 6293SOL     OW24937   2.861   5.829   4.579  0.0558 -0.0036 -0.7566
 6293SOL    HW224938   2.850   5.753   4.637 -0.2207  0.2796 -0.4324
 6293SOL    HW324939   2.941   5.872   4.610  0.0886 -0.0351 -0.7967
 6293SOL    MW424940   2.870   5.824   4.591  0.0237  0.0296 -0.7191
 6294SOL     OW24941   2.389   0.094   1.321  0.0129 -0.4730  0.2678
 6294SOL    HW224942   2.405   0.003   1.346 -2.3650 -0.7225  1.1007
 6294SOL    HW324943   2.303   0.114   1.358  0.1372  1.8748 -0.5862
 6294SOL    MW424944   2.380   0.084   1.329 -0.2844 -0.1962  0.2650
 6295SOL     OW24945   6.174   6.360   4.548 -0.1254 -0.3977  0.0538
 6295SOL    HW224946   6.172   6.440   4.600 -2.6017 -0.4054  0.1129
 6295SOL    HW324947   6.188   6.290   4.611 -2.4413 -0.3503  0.6967
 6295SOL    MW424948   6.176   6.361   4.563 -0.7577 -0.3925  0.1464
 6296SOL     OW24949   3.864   0.727   1.846  0.3587  0.1810 -0.0814
 6296SOL    HW224950   3.770   0.708   1.850  0.2249  0.8643  0.1031
 6296SOL    HW324951   3.888   0.751   1.935  0.2599  1.9865 -0.4888
 6296SOL    MW424952   3.855   0.728   1.858  0.3280  0.5093 -0.1108
 6297SOL     OW24953   3.548   4.251   2.834  0.4458 -0.2098 -0.1494
 6297SOL    HW224954   3.591   4.251   2.919  1.6259  4.0327 -0.5317
 6297SOL    HW324955   3.464   4.207   2.849  0.3802  0.8451  3.3569
 6297SOL    MW424956   3.543   4.245   2.847  0.5928  0.4891  0.2628
 6298SOL     OW24957   2.797   4.551   1.098  0.2819  0.0763  0.2285
 6298SOL    HW224958   2.835   4.510   1.176  1.1772  1.0011  0.2920
 6298SOL    HW324959   2.848   4.516   1.025  1.4345  1.4686  0.3312
 6298SOL    MW424960   2.808   4.541   1.099  0.5521  0.3820  0.2504
 6299SOL     OW24961   5.570   5.730   3.013  0.3139 -0.4966 -0.1919
 6299SOL    HW224962   5.564   5.785   2.935 -2.2071 -2.2522 -1.3616
 6299SOL    HW324963   5.608   5.648   2.982 -1.5581 -1.5408  0.1491
 6299SOL    MW424964   5.574   5.726   2.999 -0.2657 -0.8660 -0.3012
 6300SOL     OW24965   1.522   4.794   3.478 -0.0085  0.0348  0.5697
 6300SOL    HW224966   1.460   4.860   3.445  1.0551  0.2850 -1.0473
 6300SOL    HW324967   1.467   4.719   3.502 -1.1271  1.0715  1.3657
 6300SOL    MW424968   1.506   4.793   3.477 -0.0157  0.2046  0.4614
 6301SOL     OW24969   0.917   2.715   6.110  0.6586 -0.3905  0.0840
 6301SOL    HW224970   0.891   2.658   6.182 -0.1091  0.7853  0.7865
 6301SOL    HW324971   0.868   2.684   6.035 -1.8048  0.8874  1.0577
 6301SOL    MW424972   0.907   2.703   6.110  0.2323 -0.0668  0.3052
 6302SOL     OW24973   4.501   3.175   5.357  0.1208  0.8827 -0.4257
 6302SOL    HW224974   4.581   3.140   5.320  0.0162 -0.2818  0.4153
 6302SOL    HW324975   4.523   3.197   5.447 -0.8007 -0.6085  0.1976
 6302SOL    MW424976   4.514   3.174   5.364 -0.0146  0.5323 -0.2325
 6303SOL     OW24977   2.711   5.420   2.977  0.1509  0.2953 -0.4638
 6303SOL    HW224978   2.717   5.336   2.932 -0.0284  0.1848 -0.2856
 6303SOL    HW324979   2.737   5.484   2.911 -0.8805  0.2122 -0.9713
 6303SOL    MW424980   2.715   5.417   2.962 -0.0088  0.2697 -0.5072
 6304SOL     OW24981   2.799   0.687   6.163 -0.5027  0.1680  0.5037
 6304SOL    HW224982   2.803   0.680   6.068 -0.0112 -1.1262  0.5971
 6304SOL    HW324983   2.768   0.776   6.179  1.7364  1.2918 -0.8261
 6304SOL    MW424984   2.796   0.698   6.153 -0.1424  0.1456  0.3406
 6305SOL     OW24985   0.562   3.738   0.007 -0.2188  0.2768 -0.0355
 6305SOL    HW224986   0.534   3.666  -0.050 -0.9698  0.5829 -0.0589
 6305SOL    HW324987   0.553   3.816  -0.047  0.9696  0.3558 -0.1367
 6305SOL    MW424988   0.557   3.738  -0.008 -0.1611  0.3276 -0.0520
 6306SOL     OW24989   5.776   4.525   5.110 -0.2919 -0.1903  0.0114
 6306SOL    HW224990   5.817   4.519   5.024 -0.0582  0.0015  0.1067
 6306SOL    HW324991   5.762   4.619   5.124 -1.5437 -0.3048 -0.3796
 6306SOL    MW424992   5.780   4.536   5.101 -0.4262 -0.1801 -0.0276
 6307SOL     OW24993   0.544   1.449   0.795 -0.3829  0.1116 -0.2646
 6307SOL    HW224994   0.555   1.444   0.700  0.8355 -0.0756 -0.1234
 6307SOL    HW324995   0.622   1.409   0.830 -0.3067  1.1637  0.8323
 6307SOL    MW424996   0.555   1.443   0.787 -0.2121  0.2257 -0.1013
 6308SOL     OW24997   5.621   4.955   1.526 -0.1625 -0.1936 -0.3551
 6308SOL    HW224998   5.709   4.923   1.542  0.2669  1.7627  1.7061
 6308SOL    HW324999   5.564   4.887   1.562  0.4011 -1.6864 -2.1043
 6308SOL    MW425000   5.625   4.942   1.532 -0.0315 -0.1324 -0.3139
 6309SOL     OW25001   5.757   3.738   4.328 -0.6846  0.1886 -0.2948
 6309SOL    HW225002   5.717   3.651   4.326 -0.5836  0.1508 -0.6770
 6309SOL    HW325003   5.722   3.783   4.251 -0.3692  0.3227 -0.3621
 6309SOL    MW425004   5.747   3.732   4.317 -0.6297  0.2013 -0.3541
 6310SOL     OW25005   3.100   3.507   2.133 -0.4283  0.5075  0.0632
 6310SOL    HW225006   3.082   3.426   2.183 -0.2382  0.6579  0.3812
 6310SOL    HW325007   3.129   3.476   2.048  1.0740  0.1990  0.6553
 6310SOL    MW425008   3.101   3.492   2.129 -0.2050  0.4866  0.1833
 6311SOL     OW25009   3.738   5.850   5.904  0.2399 -0.5650  0.0616
 6311SOL    HW225010   3.695   5.932   5.881  0.0993 -0.7076 -0.1897
 6311SOL    HW325011   3.827   5.859   5.871  0.4732 -0.1804  0.7808
 6311SOL    MW425012   3.744   5.862   5.896  0.2521 -0.5330  0.1233
 6312SOL     OW25013   3.270   0.806   3.983 -0.4205  0.0260  0.3350
 6312SOL    HW225014   3.324   0.863   4.038 -1.9826  2.1065 -0.1703
 6312SOL    HW325015   3.322   0.794   3.903  0.5621 -0.5526  1.0322
 6312SOL    MW425016   3.284   0.812   3.979 -0.4969  0.2241  0.3603
 6313SOL     OW25017   5.430   5.719   6.234 -0.0025  0.4301  0.2095
 6313SOL    HW225018   5.464   5.791   6.181 -1.0971  0.7788 -0.0479
 6313SOL    HW325019   5.493   5.648   6.221 -0.2487  0.4998 -1.6008
 6313SOL    MW425020   5.443   5.719   6.225 -0.1794  0.4853 -0.0633
 6314SOL     OW25021   4.665   0.098   2.787 -0.6034  0.3299  0.1992
 6314SOL    HW225022   4.694   0.114   2.697 -2.7691  0.9343 -0.4481
 6314SOL    HW325023   4.653   0.004   2.792 -1.0850  0.3609 -0.3450
 6314SOL    MW425024   4.668   0.088   2.776 -0.9527  0.4137  0.0420
 6315SOL     OW25025   4.906   3.665   1.851  0.2821 -0.6931  0.4880
 6315SOL    HW225026   4.997   3.642   1.830  0.5405 -2.4350  3.0168
 6315SOL    HW325027   4.914   3.741   1.909 -0.0527  0.2803 -0.6857
 6315SOL    MW425028   4.919   3.672   1.856  0.2720 -0.7945  0.6668
 6316SOL     OW25029   2.550   1.148   5.634 -0.2481 -0.0972 -0.8374
 6316SOL    HW225030   2.565   1.104   5.550 -0.8399 -0.9782 -0.4953
 6316SOL    HW325031   2.637   1.165   5.668  0.0002  0.1395 -1.5610
 6316SOL    MW425032   2.563   1.144   5.627 -0.2934 -0.1822 -0.8877
 6317SOL     OW25033   1.801   0.944   2.264  0.2320 -0.6927 -0.0138
 6317SOL    HW225034   1.849   0.861   2.262  0.5684 -0.5669  1.5591
 6317SOL    HW325035   1.770   0.951   2.354 -1.9216 -0.2975 -0.7264
 6317SOL    MW425036   1.803   0.934   2.276 -0.0077 -0.6240  0.0997
 6318SOL     OW25037   4.655   2.747   0.205  0.0511  0.5843  0.2724
 6318SOL    HW225038   4.631   2.723   0.116 -2.4540 -0.8362  1.2605
 6318SOL    HW325039   4.670   2.842   0.200 -1.6084  0.8254 -1.3500
 6318SOL    MW425040   4.654   2.757   0.193 -0.4984  0.4287  0.1887
 6319SOL     OW25041   3.161   2.825   2.396 -0.1307  0.0760  0.2007
 6319SOL    HW225042   3.246   2.860   2.420  1.2735 -1.1311 -2.5727
 6319SOL    HW325043   3.118   2.895   2.348  0.1070  0.0802 -0.0096
 6319SOL    MW425044   3.167   2.839   2.393  0.0859 -0.0827 -0.1930
 6320SOL     OW25045   4.529   1.461   5.328 -0.0722 -0.3026  0.5578
 6320SOL    HW225046   4.622   1.470   5.306 -0.2300  0.4442  0.1634
 6320SOL    HW325047   4.528   1.446   5.423  0.4857 -1.1255  0.4473
 6320SOL    MW425048   4.541   1.460   5.338 -0.0194 -0.3127  0.4912
 6321SOL     OW25049   2.875   0.812   3.827  0.0592 -0.1538 -0.3142
 6321SOL    HW225050   2.916   0.727   3.843  1.1437  0.7348  2.1728
 6321SOL    HW325051   2.940   0.876   3.854 -1.3246  1.4406 -0.5659
 6321SOL    MW425052   2.889   0.809   3.833  0.0197  0.1738 -0.0193
 6322SOL     OW25053   2.781   3.154   2.518  0.2094  0.7426 -0.3245
 6322SOL    HW225054   2.771   3.219   2.587  0.4111  1.3985 -0.9061
 6322SOL    HW325055   2.835   3.085   2.558  3.6318  2.8626 -0.9084
 6322SOL    MW425056   2.787   3.153   2.533  0.6876  1.1088 -0.4782
 6323SOL     OW25057   5.010   2.771   0.614  0.0113 -0.2441  0.0785
 6323SOL    HW225058   5.049   2.782   0.701  1.0232  0.7580 -0.4811
 6323SOL    HW325059   4.926   2.815   0.619  0.1057 -0.1125  0.5242
 6323SOL    MW425060   5.004   2.778   0.626  0.1573 -0.0945  0.0635
 6324SOL     OW25061   3.048   6.377   1.941 -0.1110  0.2355 -0.3936
 6324SOL    HW225062   3.104   6.317   1.991 -1.3211  0.3414  1.1732
 6324SOL    HW325063   3.062   6.352   1.850  2.2796  0.1054 -0.0597
 6324SOL    MW425064   3.057   6.365   1.936  0.0447  0.2323 -0.1428
 6325SOL     OW25065   2.385   4.616   0.369  0.0367 -0.3284 -0.2814
 6325SOL    HW225066   2.340   4.628   0.286 -0.0194 -1.6051 -0.4515
 6325SOL    HW325067   2.321   4.641   0.436 -1.7747 -4.0247 -0.4002
 6325SOL    MW425068   2.371   4.621   0.367 -0.2097 -0.9846 -0.3195
 6326SOL     OW25069   2.531   1.937   1.017  0.0868 -0.4193  0.1066
 6326SOL    HW225070   2.460   1.878   1.044  0.0807 -0.6003 -0.2985
 6326SOL    HW325071   2.524   1.940   0.922  0.0843  0.2423  0.1216
 6326SOL    MW425072   2.520   1.930   1.008  0.0856 -0.3559  0.0551
 6327SOL     OW25073   3.075   0.896   3.016  0.0181  0.3419  0.3268
 6327SOL    HW225074   3.052   0.919   3.106  3.6101 -0.9493  1.7546
 6327SOL    HW325075   3.057   0.802   3.011 -0.3002  0.4349 -0.4039
 6327SOL    MW425076   3.070   0.886   3.027  0.4500  0.1838  0.4188
 6328SOL     OW25077   4.769   0.244   1.152 -0.1819 -0.4952  0.1406
 6328SOL    HW225078   4.801   0.262   1.064  0.1918  1.0983  0.5822
 6328SOL    HW325079   4.808   0.159   1.174 -1.3960 -1.6213 -1.7190
 6328SOL    MW425080   4.779   0.235   1.143 -0.2927 -0.4335 -0.0465
 6329SOL     OW25081   5.075   6.239   0.509 -0.4159  0.0281  0.0871
 6329SOL    HW225082   5.136   6.210   0.441 -2.4205 -1.2142 -1.2823
 6329SOL    HW325083   5.110   6.323   0.538  2.4654 -1.0707  0.1123
 6329SOL    MW425084   5.087   6.246   0.504 -0.3002 -0.2808 -0.0903
 6330SOL     OW25085   4.840   4.746   0.188 -0.3062 -0.1802 -0.0653
 6330SOL    HW225086   4.805   4.808   0.252 -0.3375 -0.0752 -0.1853
 6330SOL    HW325087   4.935   4.753   0.199 -0.3246 -1.3422  1.1081
 6330SOL    MW425088   4.848   4.755   0.198 -0.3128 -0.3197  0.0737
 6331SOL     OW25089   4.751   0.256   0.463 -0.3017  0.3784  0.6242
 6331SOL    HW225090   4.702   0.226   0.387  0.4263 -1.2564  0.7723
 6331SOL    HW325091   4.821   0.311   0.426  0.2174 -0.6277  0.0741
 6331SOL    MW425092   4.754   0.260   0.448 -0.1371  0.0299  0.5712
 6332SOL     OW25093   1.603   1.192   2.768 -0.2502 -0.1253 -0.8072
 6332SOL    HW225094   1.660   1.123   2.802  1.0373 -0.4351 -3.3644
 6332SOL    HW325095   1.642   1.274   2.798  0.4082 -0.4079 -0.8780
 6332SOL    MW425096   1.615   1.194   2.777  0.0065 -0.2035 -1.1540
 6333SOL     OW25097   2.464   5.689   6.357  0.1840  0.1726  0.6121
 6333SOL    HW225098   2.380   5.735   6.358  0.5840  0.9276  0.4224
 6333SOL    HW325099   2.477   5.665   6.265  0.1186 -0.0614  0.6627
 6333SOL    MW425100   2.455   5.692   6.345  0.2282  0.2413  0.5938
 6334SOL     OW25101   0.087   6.099   4.729  0.1717 -0.6239 -0.0403
 6334SOL    HW225102   0.104   6.133   4.817  1.5196 -0.5436 -0.3083
 6334SOL    HW325103  -0.007   6.110   4.716 -0.1278 -1.0622  1.5618
 6334SOL    MW425104   0.077   6.105   4.739  0.3100 -0.6711  0.1357
 6335SOL     OW25105   3.915   0.140   6.073 -0.0001  0.2740 -0.0108
 6335SOL    HW225106   3.965   0.161   5.994  0.4353 -0.5146  0.0502
 6335SOL    HW325107   3.947   0.202   6.139  1.9556 -1.1160  0.4346
 6335SOL    MW425108   3.926   0.151   6.071  0.3153 -0.0134  0.0560
 6336SOL     OW25109   0.580   5.174   0.124 -0.1267  0.7482  1.0329
 6336SOL    HW225110   0.491   5.202   0.103  0.1096  1.1480  0.5469
 6336SOL    HW325111   0.581   5.169   0.219 -0.5648  1.0974  1.0625
 6336SOL    MW425112   0.568   5.177   0.134 -0.1533  0.8470  0.9727
 6337SOL     OW25113   0.627   0.565   6.367 -0.0548 -0.1174 -0.0493
 6337SOL    HW225114   0.620   0.557   6.271 -0.9322  0.4513 -0.0373
 6337SOL    HW325115   0.536   0.561   6.398  0.1919  0.2120  0.7253
 6337SOL    MW425116   0.614   0.563   6.358 -0.1380  0.0011  0.0545
 6338SOL     OW25117   3.568   1.317   0.372  0.0653  0.0107 -0.2209
 6338SOL    HW225118   3.637   1.254   0.353 -1.2540 -0.9009 -2.4878
 6338SOL    HW325119   3.530   1.287   0.455  0.7200 -1.0363 -0.2775
 6338SOL    MW425120   3.572   1.304   0.380 -0.0224 -0.2477 -0.5275
 6339SOL     OW25121   0.181   3.804   3.344  0.4569 -0.2910 -0.2611
 6339SOL    HW225122   0.143   3.734   3.397  0.0971 -1.2522 -1.7424
 6339SOL    HW325123   0.151   3.787   3.255 -0.1363  2.0864 -0.6062
 6339SOL    MW425124   0.172   3.793   3.340  0.3312 -0.1041 -0.5021
 6340SOL     OW25125   5.798   5.029   0.230 -0.4471  0.0920  0.5447
 6340SOL    HW225126   5.749   5.046   0.310 -0.2109  1.2687  0.4576
 6340SOL    HW325127   5.855   5.106   0.219 -0.6330  0.0651 -0.8642
 6340SOL    MW425128   5.799   5.041   0.239 -0.4404  0.2437  0.3473
 6341SOL     OW25129   1.000   3.107   0.710  0.2084 -0.2704  0.0328
 6341SOL    HW225130   1.072   3.119   0.649 -0.9202  0.1579 -1.2580
 6341SOL    HW325131   0.921   3.109   0.655 -0.7331 -2.0485  1.2049
 6341SOL    MW425132   0.999   3.109   0.695 -0.0647 -0.4485  0.0171
 6342SOL     OW25133   5.206   5.335   3.115 -0.3587  0.4576  0.3567
 6342SOL    HW225134   5.196   5.394   3.040 -1.1159  0.8461  0.7591
 6342SOL    HW325135   5.210   5.248   3.076 -0.0355  0.7056 -0.1868
 6342SOL    MW425136   5.205   5.332   3.100 -0.4159  0.5416  0.3381
 6343SOL     OW25137   0.059   2.854   5.067 -0.2630  0.3458  0.4366
 6343SOL    HW225138   0.136   2.832   5.014  0.0722 -1.3700  1.5512
 6343SOL    HW325139  -0.013   2.860   5.004  0.2275 -1.0760 -0.3176
 6343SOL    MW425140   0.060   2.852   5.052 -0.1541 -0.0682  0.4842
 6344SOL     OW25141   2.588   0.224   1.135 -0.2477  0.0679  0.2239
 6344SOL    HW225142   2.530   0.171   1.190 -0.0413  0.3729  0.7358
 6344SOL    HW325143   2.652   0.261   1.196  0.9308 -0.8301 -0.4071
 6344SOL    MW425144   2.589   0.222   1.150 -0.0650 -0.0103  0.2082
 6345SOL     OW25145   2.050   4.153   5.861  0.5129 -0.4245 -0.7589
 6345SOL    HW225146   2.139   4.170   5.828  0.1865 -0.0146 -1.4306
 6345SOL    HW325147   2.003   4.235   5.848  0.7009  0.1889  1.8684
 6345SOL    MW425148   2.056   4.166   5.855  0.4946 -0.2895 -0.5009
 6346SOL     OW25149   0.764   3.781   3.317  0.1395 -0.1348 -0.4713
 6346SOL    HW225150   0.680   3.816   3.346  0.7584  0.4174  0.7597
 6346SOL    HW325151   0.770   3.806   3.225 -1.3469 -0.8188 -0.7793
 6346SOL    MW425152   0.754   3.789   3.309  0.0250 -0.1522 -0.3495
 6347SOL     OW25153   1.440   6.422   2.044 -0.0840 -0.0587 -0.2808
 6347SOL    HW225154   1.427   6.444   1.952  0.0536 -0.6213 -0.4392
 6347SOL    HW325155   1.399   6.336   2.055 -1.8138  0.8253  0.6466
 6347SOL    MW425156   1.433   6.413   2.033 -0.2940 -0.0163 -0.1793
 6348SOL     OW25157   3.689   5.714   2.663  0.7393  0.0047 -0.0881
 6348SOL    HW225158   3.754   5.764   2.615  2.1056 -1.9246 -0.3589
 6348SOL    HW325159   3.739   5.643   2.705 -0.8563 -0.1974  1.6134
 6348SOL    MW425160   3.704   5.711   2.662  0.7090 -0.2765  0.1007
 6349SOL     OW25161   5.685   5.216   2.633  0.6077  0.1520 -0.0490
 6349SOL    HW225162   5.776   5.193   2.652  0.4844 -0.4638 -0.1845
 6349SOL    HW325163   5.641   5.213   2.719  1.1231  2.5215  0.3931
 6349SOL    MW425164   5.691   5.213   2.647  0.6594  0.3833 -0.0085
 6350SOL     OW25165   1.661   4.491   3.638 -0.2374  0.2893  0.2500
 6350SOL    HW225166   1.691   4.559   3.699 -0.3498  0.0130  0.6161
 6350SOL    HW325167   1.668   4.410   3.688 -0.1836  0.0424 -0.1590
 6350SOL    MW425168   1.666   4.489   3.653 -0.2451  0.2203  0.2443
 6351SOL     OW25169   0.362   5.478   2.282 -0.0927  0.5277 -0.4378
 6351SOL    HW225170   0.270   5.453   2.294 -0.2037  0.9672 -0.3551
 6351SOL    HW325171   0.407   5.438   2.356 -0.5000  1.7510  0.5088
 6351SOL    MW425172   0.356   5.469   2.293 -0.1611  0.7471 -0.3020
 6352SOL     OW25173   1.022   5.302   5.250 -0.0411  0.3218  0.2008
 6352SOL    HW225174   0.935   5.261   5.251  0.0506  0.1135 -0.2095
 6352SOL    HW325175   1.081   5.229   5.269 -0.0445  0.7012  1.7966
 6352SOL    MW425176   1.018   5.287   5.253 -0.0294  0.3443  0.3572
 6353SOL     OW25177   3.232   0.039   0.790 -0.8418  0.0328 -0.0097
 6353SOL    HW225178   3.213  -0.014   0.712  0.1966 -2.0868  1.0949
 6353SOL    HW325179   3.221  -0.021   0.863 -2.7650  2.2055  1.6417
 6353SOL    MW425180   3.228   0.024   0.789 -0.9585  0.0398  0.3539
 6354SOL     OW25181   5.164   0.361   1.693 -0.4550  0.4192 -0.3152
 6354SOL    HW225182   5.250   0.362   1.736 -1.4070 -1.5196  1.8761
 6354SOL    HW325183   5.131   0.450   1.705 -0.2905  0.2249  2.3543
 6354SOL    MW425184   5.171   0.373   1.701 -0.5589  0.1378  0.3261
 6355SOL     OW25185   4.953   6.126   6.416  0.0120  0.2340  0.0143
 6355SOL    HW225186   4.996   6.207   6.388  2.5460 -0.7496  0.6990
 6355SOL    HW325187   5.015   6.057   6.392 -0.9509 -1.2774  1.6074
 6355SOL    MW425188   4.967   6.128   6.409  0.2193 -0.0952  0.3148
 6356SOL     OW25189   3.558   5.796   0.380 -0.5692  0.2802  0.4300
 6356SOL    HW225190   3.648   5.780   0.352 -0.5871 -0.3209  0.6941
 6356SOL    HW325191   3.562   5.790   0.476 -0.5903  1.8607  0.5523
 6356SOL    MW425192   3.570   5.793   0.389 -0.5743  0.4095  0.4810
 6357SOL     OW25193   4.626   1.108   5.320  0.1884 -0.7131 -0.1203
 6357SOL    HW225194   4.648   1.179   5.380  1.5190 -2.3394  1.4013
 6357SOL    HW325195   4.612   1.032   5.376 -1.9873 -1.5214 -1.6402
 6357SOL    MW425196   4.627   1.108   5.335  0.0769 -1.0343 -0.1201
 6358SOL     OW25197   1.226   4.525   3.826  0.1896 -0.1230 -0.0717
 6358SOL    HW225198   1.162   4.461   3.794 -1.4623  0.7067  1.3837
 6358SOL    HW325199   1.190   4.610   3.800  2.7968  0.2941 -2.7750
 6358SOL    MW425200   1.213   4.528   3.819  0.3156  0.0415 -0.2363
 6359SOL     OW25201   5.024   1.956   0.496  0.6116  0.6672  0.4151
 6359SOL    HW225202   4.955   1.946   0.561 -1.0766 -2.4328 -1.5916
 6359SOL    HW325203   5.033   1.869   0.456  2.3899  2.0534 -2.6271
 6359SOL    MW425204   5.016   1.943   0.499  0.6235  0.4411 -0.2510
 6360SOL     OW25205   0.837   2.511   1.486  0.1801 -0.2145  0.0200
 6360SOL    HW225206   0.782   2.486   1.560 -0.2649  0.4065 -0.0835
 6360SOL    HW325207   0.816   2.447   1.418  0.7878 -0.9425  0.5140
 6360SOL    MW425208   0.827   2.499   1.487  0.2015 -0.2286  0.0716
 6361SOL     OW25209   4.025   3.417   4.120  0.1757  0.0756  0.6665
 6361SOL    HW225210   3.950   3.384   4.070  0.2704  0.2540  0.4047
 6361SOL    HW325211   4.095   3.427   4.056 -0.1036  1.6033  0.5450
 6361SOL    MW425212   4.024   3.414   4.105  0.1513  0.3007  0.6159
 6362SOL     OW25213   4.997   4.631   0.917  0.3009 -0.0722  0.6370
 6362SOL    HW225214   5.013   4.536   0.917 -0.2704 -0.1711  1.1691
 6362SOL    HW325215   5.084   4.669   0.929  0.8596 -0.4549 -1.7460
 6362SOL    MW425216   5.011   4.623   0.919  0.2992 -0.1357  0.3928
 6363SOL     OW25217   6.311   5.524   5.705 -0.0616 -0.2825 -0.1617
 6363SOL    HW225218   6.273   5.520   5.617 -0.8037 -1.0557  0.1867
 6363SOL    HW325219   6.341   5.435   5.723 -2.5748 -0.8940  1.4925
 6363SOL    MW425220   6.310   5.512   5.696 -0.4911 -0.4652  0.1026
 6364SOL     OW25221   0.968   5.600   4.676 -0.2887 -0.3456 -0.5641
 6364SOL    HW225222   1.054   5.558   4.680  0.3325  0.9899  1.3004
 6364SOL    HW325223   0.909   5.537   4.717  0.3328 -0.1259  0.7108
 6364SOL    MW425224   0.971   5.586   4.682 -0.1247 -0.1404 -0.1499
 6365SOL     OW25225   6.351   6.178   1.139  0.5060  0.2552 -0.1857
 6365SOL    HW225226   6.422   6.203   1.080 -0.4082  2.2967 -0.5207
 6365SOL    HW325227   6.271   6.201   1.092 -0.3506 -0.8298  0.6803
 6365SOL    MW425228   6.350   6.185   1.125  0.2724  0.3814 -0.1156
 6366SOL     OW25229   4.204   4.763   3.696 -0.5525 -0.7738  0.5039
 6366SOL    HW225230   4.292   4.798   3.709 -0.9780  0.0823  1.1670
 6366SOL    HW325231   4.190   4.768   3.602  0.2895 -1.3828  0.3312
 6366SOL    MW425232   4.214   4.768   3.685 -0.4976 -0.7412  0.5686
 6367SOL     OW25233   3.197   4.323   3.521 -0.5984 -0.3656 -0.2894
 6367SOL    HW225234   3.175   4.334   3.428  3.1109 -3.4153 -1.7628
 6367SOL    HW325235   3.172   4.233   3.542  0.0607 -0.2370  1.2176
 6367SOL    MW425236   3.190   4.313   3.512 -0.0220 -0.7510 -0.2850
 6368SOL     OW25237   0.996   1.383   4.215 -0.0482  0.0389  0.2270
 6368SOL    HW225238   0.967   1.403   4.305  1.1240  0.0461  0.6228
 6368SOL    HW325239   0.920   1.405   4.161 -1.2638 -1.2345  1.3206
 6368SOL    MW425240   0.982   1.389   4.220 -0.0540 -0.1282  0.4235
 6369SOL     OW25241   3.984   0.929   0.854 -0.2933 -0.3432 -0.3478
 6369SOL    HW225242   4.044   0.943   0.928 -0.0975 -1.5333 -0.2589
 6369SOL    HW325243   3.901   0.907   0.896 -1.0038  1.8459 -0.4565
 6369SOL    MW425244   3.981   0.928   0.870 -0.3612 -0.2114 -0.3504
 6370SOL     OW25245   1.659   1.184   5.355 -0.1286 -0.0173 -0.4072
 6370SOL    HW225246   1.727   1.192   5.288  1.0583 -0.9649  0.6400
 6370SOL    HW325247   1.638   1.275   5.378  2.0000  0.3145  0.4291
 6370SOL    MW425248   1.665   1.197   5.349  0.3089 -0.0986 -0.1587
 6371SOL     OW25249   6.130   1.669   5.324  0.4038 -0.3683 -0.0833
 6371SOL    HW225250   6.139   1.597   5.386 -3.3186  0.6246  1.9783
 6371SOL    HW325251   6.035   1.681   5.316  0.8161  2.0615 -3.0961
 6371SOL    MW425252   6.119   1.661   5.331 -0.0329  0.0832 -0.2088
 6372SOL     OW25253   3.039   3.140   3.979  0.4080  0.6668  0.6393
 6372SOL    HW225254   3.000   3.172   3.898 -0.9713  1.1838  1.4774
 6372SOL    HW325255   2.990   3.184   4.049 -1.8500 -3.2702  1.9127
 6372SOL    MW425256   3.027   3.150   3.978 -0.0719  0.2156  0.9179
 6373SOL     OW25257   2.473   5.554   1.603  0.0839  0.0484  0.3668
 6373SOL    HW225258   2.534   5.617   1.641 -0.5890  0.3042  1.0613
 6373SOL    HW325259   2.419   5.526   1.677 -1.1074  0.3732 -0.3634
 6373SOL    MW425260   2.474   5.558   1.618 -0.1621  0.1250  0.3621
 6374SOL     OW25261   0.833   1.643   3.447 -0.7776  0.5058 -0.0855
 6374SOL    HW225262   0.824   1.570   3.508  0.9629  0.7249  0.4683
 6374SOL    HW325263   0.801   1.609   3.363 -0.4485 -0.7228  0.2780
 6374SOL    MW425264   0.827   1.629   3.444 -0.5046  0.3726  0.0356
 6375SOL     OW25265   3.008   1.073   6.051 -0.0487  0.5779 -0.4725
 6375SOL    HW225266   2.919   1.049   6.078  0.3597  0.6164  0.9655
 6375SOL    HW325267   3.053   1.095   6.132  1.1515  1.0185 -1.2290
 6375SOL    MW425268   3.002   1.073   6.065  0.1636  0.6411 -0.3826
 6376SOL     OW25269   4.118   5.652   2.817 -0.3629  0.3308  0.9367
 6376SOL    HW225270   4.051   5.626   2.753  1.6065 -0.1062 -1.0651
 6376SOL    HW325271   4.069   5.701   2.883 -2.7678 -0.5903 -0.0201
 6376SOL    MW425272   4.102   5.655   2.817 -0.4204  0.1516  0.5464
 6377SOL     OW25273   1.439   1.338   0.632 -0.1352  0.3898  0.2470
 6377SOL    HW225274   1.464   1.355   0.722  0.5539  0.3965  0.0620
 6377SOL    HW325275   1.500   1.270   0.602 -0.5296  0.1911 -0.1295
 6377SOL    MW425276   1.450   1.331   0.640 -0.0964  0.3644  0.1729
 6378SOL     OW25277   3.734   1.831  -0.000 -0.1792  0.0487 -0.0027
 6378SOL    HW225278   3.697   1.911  -0.037 -0.1334  0.1616  0.1906
 6378SOL    HW325279   3.716   1.838   0.094  0.3648  0.1245  0.0998
 6378SOL    MW425280   3.727   1.842   0.008 -0.1014  0.0736  0.0363
 6379SOL     OW25281   0.461   5.842   1.488  0.3741  0.2110 -0.0897
 6379SOL    HW225282   0.390   5.905   1.501 -0.7276 -0.0835 -3.4556
 6379SOL    HW325283   0.422   5.758   1.513 -0.5699  0.0515 -1.9088
 6379SOL    MW425284   0.446   5.839   1.493  0.1042  0.1511 -0.7738
 6380SOL     OW25285   1.296   3.418   6.275 -0.1194  0.0420  0.0396
 6380SOL    HW225286   1.228   3.429   6.210 -0.2374  2.1781  0.4664
 6380SOL    HW325287   1.263   3.350   6.333 -2.0375  1.1902  0.3801
 6380SOL    MW425288   1.283   3.410   6.274 -0.3880  0.4753  0.1409
 6381SOL     OW25289   5.412   0.245   0.876 -0.1563  0.5646  0.7350
 6381SOL    HW225290   5.478   0.223   0.941 -1.6912  0.0623  2.2209
 6381SOL    HW325291   5.412   0.340   0.872  1.6364  0.5664 -0.4244
 6381SOL    MW425292   5.420   0.254   0.884 -0.1223  0.4985  0.7781
 6382SOL     OW25293   0.310   4.078   6.404 -0.0634 -0.4681 -0.4231
 6382SOL    HW225294   0.324   4.131   6.482  0.8690 -0.3017 -0.6850
 6382SOL    HW325295   0.258   4.003   6.434 -2.3175  1.0581 -0.2393
 6382SOL    MW425296   0.305   4.075   6.418 -0.2378 -0.2448 -0.4334
 6383SOL     OW25297   1.787   6.351   1.776  0.4715  0.0876 -0.2460
 6383SOL    HW225298   1.826   6.432   1.809  1.6518 -0.7995  0.6486
 6383SOL    HW325299   1.736   6.317   1.849 -0.2890  0.1629 -0.7261
 6383SOL    MW425300   1.786   6.357   1.790  0.5269 -0.0195 -0.1913
 6384SOL     OW25301   1.497   2.893   1.434 -0.2372 -0.1235 -0.2114
 6384SOL    HW225302   1.549   2.815   1.417 -1.4573 -1.0480  0.1681
 6384SOL    HW325303   1.507   2.947   1.356  3.2428  0.9065  0.7871
 6384SOL    MW425304   1.505   2.890   1.422  0.0610 -0.1096 -0.0296
 6385SOL     OW25305   3.005   1.043   4.220 -0.1118  0.2244  0.4024
 6385SOL    HW225306   3.001   1.031   4.125  0.5166  1.1814  0.2442
 6385SOL    HW325307   3.031   0.957   4.254 -1.0370 -0.3164 -0.2216
 6385SOL    MW425308   3.008   1.030   4.212 -0.1509  0.2793  0.2992
 6386SOL     OW25309   0.021   2.893   0.052  0.8384  0.1817 -0.0920
 6386SOL    HW225310   0.025   2.944   0.132 -2.5409  1.5984 -0.6556
 6386SOL    HW325311  -0.038   2.820   0.072 -0.5828  0.9247 -1.4080
 6386SOL    MW425312   0.014   2.890   0.065  0.2050  0.4666 -0.3400
 6387SOL     OW25313   3.366   4.009   5.372  0.1494 -0.3524  0.6802
 6387SOL    HW225314   3.370   3.926   5.326 -1.2340 -0.6903  1.1309
 6387SOL    HW325315   3.450   4.016   5.416  0.9691 -0.6650 -0.7568
 6387SOL    MW425316   3.378   3.999   5.372  0.0751 -0.4383  0.5501
 6388SOL     OW25317   2.047   4.347   3.659  0.5401 -0.3460  0.2771
 6388SOL    HW225318   2.087   4.355   3.572 -0.3352 -1.1099 -0.2298
 6388SOL    HW325319   2.095   4.408   3.714  0.4800  0.8830 -0.9807
 6388SOL    MW425320   2.058   4.356   3.655  0.4167 -0.2847  0.0443
 6389SOL     OW25321   2.275   0.336   3.210  0.4162 -0.2557 -0.2828
 6389SOL    HW225322   2.252   0.291   3.129  1.3047 -0.5016 -0.4045
 6389SOL    HW325323   2.202   0.316   3.269  0.6561 -1.6578 -0.4110
 6389SOL    MW425324   2.262   0.327   3.207  0.5650 -0.4731 -0.3157
 6390SOL     OW25325   3.357   4.715   2.423  0.0514  1.0949 -0.4560
 6390SOL    HW225326   3.412   4.660   2.478  0.6451  0.9281 -1.1976
 6390SOL    HW325327   3.268   4.684   2.439  0.4861 -1.4036 -2.2467
 6390SOL    MW425328   3.353   4.704   2.432  0.1871  0.7432 -0.7901
 6391SOL     OW25329   0.040   0.792   1.004  0.4856  0.2508 -0.3275
 6391SOL    HW225330  -0.051   0.822   1.008  0.7749  1.1739 -0.5713
 6391SOL    HW325331   0.036   0.713   0.950  0.0364  1.1397 -1.6356
 6391SOL    MW425332   0.027   0.785   0.997  0.4645  0.4899 -0.5323
 6392SOL     OW25333   4.297   2.209   0.468 -0.5118 -0.0093  0.6994
 6392SOL    HW225334   4.292   2.119   0.437  0.6496 -0.0611  0.6208
 6392SOL    HW325335   4.259   2.206   0.556  0.7308 -0.8640  1.2416
 6392SOL    MW425336   4.291   2.197   0.475 -0.1946 -0.1289  0.7606
 6393SOL     OW25337   0.620   0.260   3.359 -0.6972  0.0365 -1.3061
 6393SOL    HW225338   0.536   0.285   3.397 -1.1835  0.0423 -2.3472
 6393SOL    HW325339   0.681   0.258   3.433 -1.2659  1.5301 -0.7687
 6393SOL    MW425340   0.617   0.263   3.374 -0.8364  0.2344 -1.3726
 6394SOL     OW25341   4.103   5.660   4.300  0.1141  0.0723 -0.1452
 6394SOL    HW225342   4.107   5.727   4.369 -1.2648 -1.5753  1.6405
 6394SOL    HW325343   4.033   5.601   4.328  0.9446 -1.8601 -1.8900
 6394SOL    MW425344   4.095   5.661   4.313  0.0417 -0.4000 -0.1398
 6395SOL     OW25345   3.983   6.046   0.331  0.6850  0.1200  0.7369
 6395SOL    HW225346   4.038   6.049   0.408 -0.1585 -0.6566  1.3916
 6395SOL    HW325347   3.922   6.120   0.341 -0.4415 -0.8971  1.6261
 6395SOL    MW425348   3.982   6.056   0.342  0.4251 -0.1167  0.9406
 6396SOL     OW25349   4.155   2.491   2.926  0.4062 -0.5889  0.6615
 6396SOL    HW225350   4.144   2.483   3.021  0.4464 -0.0903  0.7103
 6396SOL    HW325351   4.102   2.421   2.890 -0.8901  0.1910  0.9969
 6396SOL    MW425352   4.147   2.481   2.934  0.2405 -0.4202  0.7122
 6397SOL     OW25353   3.570   2.828   2.229 -0.0771  0.2010 -0.3937
 6397SOL    HW225354   3.581   2.830   2.324 -0.7908 -1.0759 -0.2653
 6397SOL    HW325355   3.644   2.879   2.196  3.1056 -3.3005  0.6461
 6397SOL    MW425356   3.582   2.835   2.237  0.2487 -0.4295 -0.2395
 6398SOL     OW25357   2.604   1.017   5.335 -0.4678 -0.3488 -0.3383
 6398SOL    HW225358   2.557   1.062   5.265 -0.1728 -0.3126 -0.5138
 6398SOL    HW325359   2.677   0.973   5.291  0.1055  0.2158  0.0288
 6398SOL    MW425360   2.608   1.017   5.320 -0.3533 -0.2695 -0.3131
 6399SOL     OW25361   5.722   2.687   5.929 -0.2021  0.0289 -0.4119
 6399SOL    HW225362   5.632   2.683   5.897 -0.1127 -0.0568 -0.6549
 6399SOL    HW325363   5.727   2.769   5.978 -0.0372  0.7253 -1.5537
 6399SOL    MW425364   5.711   2.698   5.932 -0.1686  0.1095 -0.5946
 6400SOL     OW25365   4.284   2.998   2.613 -0.1924  0.2996 -0.1404
 6400SOL    HW225366   4.270   3.021   2.521 -1.1290  1.1657  0.2043
 6400SOL    HW325367   4.354   2.932   2.611 -0.5710 -0.0866 -1.5111
 6400SOL    MW425368   4.291   2.992   2.601 -0.3659  0.3629 -0.2758
 6401SOL     OW25369   0.096   3.600   0.673  0.1909  0.1405 -0.3554
 6401SOL    HW225370   0.087   3.687   0.634 -3.7004  0.4241  0.7403
 6401SOL    HW325371   0.151   3.614   0.750 -1.4888  2.0324  0.6052
 6401SOL    MW425372   0.102   3.613   0.678 -0.5441  0.4276 -0.0841
 6402SOL     OW25373   2.949   3.467   1.519 -0.0730  0.5469  0.5667
 6402SOL    HW225374   3.005   3.404   1.565 -1.7206 -0.0301  1.9011
 6402SOL    HW325375   2.954   3.547   1.572 -0.6336  0.4328  0.8021
 6402SOL    MW425376   2.957   3.469   1.532 -0.3644  0.4557  0.7738
 6403SOL     OW25377   4.468   5.999   2.353  0.0413 -0.5546  0.5958
 6403SOL    HW225378   4.432   6.056   2.421  0.1252 -0.3745  0.4891
 6403SOL    HW325379   4.560   6.022   2.348 -0.2684  0.5367 -0.6561
 6403SOL    MW425380   4.475   6.009   2.362  0.0115 -0.3869  0.4166
 6404SOL     OW25381   3.906   3.796   0.718 -0.7570  0.5704 -0.0510
 6404SOL    HW225382   3.835   3.841   0.764  0.0134  0.9825  0.7791
 6404SOL    HW325383   3.985   3.846   0.742 -0.1719  0.0723 -0.8764
 6404SOL    MW425384   3.907   3.809   0.727 -0.5782  0.5591 -0.0504
 6405SOL     OW25385   1.546   0.354   4.163  0.7921 -0.0473 -0.0208
 6405SOL    HW225386   1.636   0.335   4.189  0.9905 -0.3557 -0.8885
 6405SOL    HW325387   1.550   0.440   4.122  0.2430  1.0491  2.1078
 6405SOL    MW425388   1.558   0.363   4.161  0.7458  0.0567  0.1456
 6406SOL     OW25389   4.483   4.672   1.617  0.2008 -0.2554  0.6793
 6406SOL    HW225390   4.516   4.677   1.706  2.0224 -0.4694  0.0551
 6406SOL    HW325391   4.528   4.742   1.570  1.5881 -1.9895 -0.7293
 6406SOL    MW425392   4.493   4.682   1.622  0.6242 -0.5125  0.4111
 6407SOL     OW25393   6.099   3.833   0.535  0.0224 -0.2506 -0.1244
 6407SOL    HW225394   6.189   3.865   0.542  0.7390 -2.1764  0.1127
 6407SOL    HW325395   6.056   3.866   0.613  0.4590  0.8240 -0.3150
 6407SOL    MW425396   6.106   3.841   0.546  0.1745 -0.3629 -0.1183
 6408SOL     OW25397   6.242   1.174   1.752 -0.0003  0.6390 -0.3004
 6408SOL    HW225398   6.308   1.241   1.770 -0.1425  0.6484  0.2187
 6408SOL    HW325399   6.203   1.155   1.838 -0.0283 -0.0422 -0.4569
 6408SOL    MW425400   6.245   1.180   1.766 -0.0228  0.5504 -0.2525
 6409SOL     OW25401   3.440   1.542   6.220 -0.1956 -0.1997 -0.2238
 6409SOL    HW225402   3.354   1.535   6.260  0.4638 -0.6667  1.1702
 6409SOL    HW325403   3.471   1.452   6.213  1.4292  0.0770  2.1866
 6409SOL    MW425404   3.433   1.529   6.224  0.1058 -0.2248  0.2782
 6410SOL     OW25405   5.409   3.491   1.987  0.1535 -0.7743 -0.3687
 6410SOL    HW225406   5.455   3.532   1.914 -1.8821 -0.3195 -1.4838
 6410SOL    HW325407   5.340   3.439   1.945  0.4599 -2.5169  1.1635
 6410SOL    MW425408   5.406   3.489   1.972 -0.0746 -0.9442 -0.3136
 6411SOL     OW25409   3.187   4.904   3.283  0.1993 -0.3731 -0.8522
 6411SOL    HW225410   3.114   4.910   3.221  0.2253  0.5165 -0.8075
 6411SOL    HW325411   3.152   4.940   3.364  1.2007  1.7498 -1.3078
 6411SOL    MW425412   3.173   4.909   3.285  0.3348  0.0244 -0.9064
 6412SOL     OW25413   6.068   1.533   0.494 -0.3446 -0.5134 -0.0552
 6412SOL    HW225414   6.011   1.529   0.571 -0.1720  0.9303  0.1752
 6412SOL    HW325415   6.115   1.450   0.495  1.0221  0.1889  2.4935
 6412SOL    MW425416   6.067   1.522   0.504 -0.1415 -0.2303  0.3115
 6413SOL     OW25417   3.807   5.596   0.962 -0.6429 -0.2326 -0.0646
 6413SOL    HW225418   3.888   5.647   0.951 -0.4864 -0.7016 -1.2365
 6413SOL    HW325419   3.738   5.654   0.932 -0.6568 -0.1273  0.1653
 6413SOL    MW425420   3.809   5.610   0.957 -0.6241 -0.2806 -0.1889
 6414SOL     OW25421   1.865   2.654   2.047 -0.5588 -0.0857  0.1017
 6414SOL    HW225422   1.843   2.620   2.133  1.1383  0.0470  0.6218
 6414SOL    HW325423   1.868   2.577   1.991 -1.0628 -0.2477  0.2980
 6414SOL    MW425424   1.863   2.640   2.051 -0.4014 -0.0896  0.1962
 6415SOL     OW25425   3.036   4.500   1.959  0.1014 -0.0226  0.0512
 6415SOL    HW225426   3.041   4.405   1.970 -1.2269 -0.2601 -1.1088
 6415SOL    HW325427   3.127   4.529   1.959  0.6009 -1.4829 -1.0090
 6415SOL    MW425428   3.049   4.491   1.961 -0.0080 -0.2466 -0.2418
 6416SOL     OW25429   4.057   3.933   3.391  0.2067 -0.3306 -0.1644
 6416SOL    HW225430   4.043   3.891   3.476 -3.1037 -2.6341 -1.6192
 6416SOL    HW325431   4.127   3.883   3.350 -0.7384 -1.7096 -0.1700
 6416SOL    MW425432   4.064   3.921   3.397 -0.3547 -0.8165 -0.3571
 6417SOL     OW25433   3.469   3.877   5.712  0.1163  0.3902  0.5374
 6417SOL    HW225434   3.451   3.807   5.775  0.0405  0.7883  0.9561
 6417SOL    HW325435   3.511   3.832   5.638 -1.0141 -0.2767  0.2776
 6417SOL    MW425436   3.472   3.862   5.710 -0.0428  0.3547  0.5584
 6418SOL     OW25437   0.358   4.379   5.228  0.3506  0.2804 -0.2162
 6418SOL    HW225438   0.400   4.293   5.230  2.0505  1.0739 -0.5218
 6418SOL    HW325439   0.268   4.360   5.201  1.2426 -1.2040 -2.4680
 6418SOL    MW425440   0.352   4.365   5.225  0.6926  0.1892 -0.5536
 6419SOL     OW25441   4.951   1.003   6.242 -0.4358 -0.1787 -0.2553
 6419SOL    HW225442   4.962   1.097   6.256 -0.1530 -0.3705  0.9531
 6419SOL    HW325443   4.986   0.963   6.321  0.8820 -1.3969 -1.3953
 6419SOL    MW425444   4.957   1.010   6.254 -0.2246 -0.3647 -0.2463
 6420SOL     OW25445   6.154   1.732   6.021  0.0882  0.3310 -0.1388
 6420SOL    HW225446   6.178   1.685   5.941 -0.8796  1.6030 -1.2262
 6420SOL    HW325447   6.212   1.808   6.021 -0.5342  0.8138 -0.1423
 6420SOL    MW425448   6.165   1.736   6.010 -0.1216  0.5625 -0.2828
 6421SOL     OW25449   1.026   5.005   4.555 -0.3650 -0.3919 -0.4754
 6421SOL    HW225450   0.950   4.979   4.504 -0.9541  2.2957 -1.1145
 6421SOL    HW325451   0.991   5.062   4.623  0.9413 -0.0020 -0.0958
 6421SOL    MW425452   1.011   5.009   4.557 -0.2704  0.0141 -0.5097
 6422SOL     OW25453   6.260   1.614   0.196  0.8420  0.2883 -0.7761
 6422SOL    HW225454   6.206   1.693   0.200  1.7036  0.8927 -0.9626
 6422SOL    HW325455   6.205   1.550   0.152 -0.1672  0.5308  0.0854
 6422SOL    MW425456   6.245   1.616   0.191  0.8225  0.4000 -0.6871
 6423SOL     OW25457   0.085   4.767   2.740 -0.2722 -0.6334 -0.0350
 6423SOL    HW225458   0.093   4.838   2.804 -0.9690  0.6614 -1.3273
 6423SOL    HW325459   0.026   4.704   2.782 -0.5199  0.0732  0.7099
 6423SOL    MW425460   0.078   4.768   2.754 -0.3968 -0.3694 -0.1072
 6424SOL     OW25461   0.664   3.506   2.663 -0.0363  0.0720 -0.0689
 6424SOL    HW225462   0.703   3.487   2.577 -0.6159  0.3618 -0.3982
 6424SOL    HW325463   0.587   3.450   2.667 -0.0306  0.0888  0.2476
 6424SOL    MW425464   0.659   3.496   2.652 -0.1120  0.1125 -0.0706
 6425SOL     OW25465   4.133   2.353   5.478  0.6859  0.1049  0.2106
 6425SOL    HW225466   4.141   2.435   5.526 -0.4949 -0.2869  1.1079
 6425SOL    HW325467   4.041   2.329   5.484  0.1207  0.7012 -3.4350
 6425SOL    MW425468   4.122   2.361   5.485  0.4555  0.1319 -0.1520
 6426SOL     OW25469   3.414   6.356   2.338  0.2347  0.1333 -0.4281
 6426SOL    HW225470   3.323   6.383   2.333 -0.1990 -1.3929 -1.4720
 6426SOL    HW325471   3.434   6.319   2.252  1.4034 -0.8566  0.2242
 6426SOL    MW425472   3.405   6.355   2.326  0.3317 -0.1987 -0.4798
 6427SOL     OW25473   5.796   0.422   2.570 -0.3168  0.2731 -0.2273
 6427SOL    HW225474   5.754   0.339   2.551 -3.5614  1.5754  0.5221
 6427SOL    HW325475   5.833   0.411   2.658  0.4057 -0.7447 -0.6545
 6427SOL    MW425476   5.795   0.410   2.579 -0.6496  0.3106 -0.1848
 6428SOL     OW25477   0.295   1.940   4.279 -0.1165  0.5040 -0.2814
 6428SOL    HW225478   0.360   2.009   4.287 -1.0017  1.1902  1.4254
 6428SOL    HW325479   0.337   1.874   4.223  1.5657  1.4483 -0.1971
 6428SOL    MW425480   0.309   1.940   4.273 -0.0114  0.7192 -0.0451
 6429SOL     OW25481   0.165   4.165   3.819  0.7734  0.4291  0.0740
 6429SOL    HW225482   0.150   4.217   3.740 -0.3464  0.5174  0.3283
 6429SOL    HW325483   0.206   4.226   3.881  0.9250  0.5766 -0.1728
 6429SOL    MW425484   0.169   4.180   3.817  0.6457  0.4602  0.0750
 6430SOL     OW25485   1.377   0.607   6.150  0.9981  0.0506 -0.4044
 6430SOL    HW225486   1.345   0.570   6.068 -0.4345  0.1166  0.0868
 6430SOL    HW325487   1.469   0.583   6.153  1.0819  0.0683 -2.0352
 6430SOL    MW425488   1.385   0.599   6.140  0.8202  0.0617 -0.5548
 6431SOL     OW25489   3.319   2.159   4.887  0.5393 -0.5135 -0.1239
 6431SOL    HW225490   3.238   2.117   4.919  0.5829  0.0928  0.8241
 6431SOL    HW325491   3.364   2.186   4.967  1.0609  0.3120 -0.6933
 6431SOL    MW425492   3.314   2.157   4.902  0.6139 -0.3246 -0.0739
 6432SOL     OW25493   2.700   5.171   2.859  0.6989 -0.1067  0.5880
 6432SOL    HW225494   2.606   5.155   2.859  0.8177 -1.1461  2.4823
 6432SOL    HW325495   2.729   5.151   2.770 -0.4742 -2.4725  0.6646
 6432SOL    MW425496   2.691   5.166   2.847  0.5598 -0.5560  0.8480
 6433SOL     OW25497   3.876   0.517   0.248 -0.1194 -0.2939  0.2240
 6433SOL    HW225498   3.900   0.540   0.337  1.6360 -1.9606  0.2382
 6433SOL    HW325499   3.828   0.435   0.256  0.6610 -0.8292 -0.3904
 6433SOL    MW425500   3.873   0.509   0.261  0.2152 -0.5844  0.1448
 6434SOL     OW25501   6.061   0.389   0.560  0.0386 -0.4741 -0.0065
 6434SOL    HW225502   5.977   0.344   0.565 -0.0753 -0.1563  1.6520
 6434SOL    HW325503   6.095   0.368   0.473 -0.6023 -2.6651  0.2097
 6434SOL    MW425504   6.054   0.381   0.549 -0.0610 -0.7212  0.2409
 6435SOL     OW25505   4.815   0.596   6.009  1.0838 -0.3232  0.0017
 6435SOL    HW225506   4.745   0.538   5.978  1.7448 -0.8317 -0.5582
 6435SOL    HW325507   4.801   0.677   5.960  1.3051 -0.6633 -0.6350
 6435SOL    MW425508   4.804   0.599   5.999  1.2002 -0.4352 -0.1561
 6436SOL     OW25509   0.751   4.014   3.567 -0.7502  0.4740 -0.6376
 6436SOL    HW225510   0.697   4.073   3.619  0.5590 -0.0540  1.4420
 6436SOL    HW325511   0.716   3.927   3.586 -0.6486  0.3253 -1.1325
 6436SOL    MW425512   0.740   4.010   3.577 -0.5640  0.3847 -0.4285
 6437SOL     OW25513   1.341   2.265   5.559 -0.6190 -0.0495  0.1926
 6437SOL    HW225514   1.350   2.170   5.545  0.1023 -0.2491  1.7377
 6437SOL    HW325515   1.248   2.279   5.574 -0.5732 -0.7366  1.2178
 6437SOL    MW425516   1.330   2.254   5.560 -0.5178 -0.1665  0.5317
 6438SOL     OW25517   4.579   3.030   6.310 -0.1334  0.1179 -0.8538
 6438SOL    HW225518   4.652   3.062   6.362 -0.7238 -1.1311  0.8292
 6438SOL    HW325519   4.537   3.109   6.276  0.6794  0.9407 -0.0113
 6438SOL    MW425520   4.583   3.044   6.312 -0.1040  0.0617 -0.5206
 6439SOL     OW25521   2.778   2.598   1.448 -0.0060  0.2335  0.5361
 6439SOL    HW225522   2.737   2.521   1.409  0.2140 -0.7387  2.1626
 6439SOL    HW325523   2.721   2.671   1.423 -1.2862 -0.7247  0.5921
 6439SOL    MW425524   2.765   2.597   1.440 -0.1459 -0.0212  0.7581
 6440SOL     OW25525   3.692   1.499   4.001 -0.0982 -0.0200  0.2757
 6440SOL    HW225526   3.759   1.566   4.004 -0.1548  0.0684 -0.3888
 6440SOL    HW325527   3.625   1.530   4.062  0.6775 -0.3540  1.3149
 6440SOL    MW425528   3.692   1.512   4.010 -0.0033 -0.0524  0.3251
 6441SOL     OW25529   0.250   3.528   5.001  0.1252 -0.0170 -0.4098
 6441SOL    HW225530   0.200   3.606   4.979  0.5938  0.7354  1.0699
 6441SOL    HW325531   0.199   3.484   5.069  1.5697  0.9674  1.4035
 6441SOL    MW425532   0.237   3.532   5.007  0.3776  0.2122  0.0247
 6442SOL     OW25533   2.406   2.680   1.270 -0.1381 -0.0693 -1.0514
 6442SOL    HW225534   2.357   2.618   1.216 -0.4947 -0.4431 -0.3113
 6442SOL    HW325535   2.353   2.760   1.269  0.3422  0.2471 -2.0374
 6442SOL    MW425536   2.392   2.683   1.263 -0.1217 -0.0769 -1.0839
 6443SOL     OW25537   4.007   0.265   6.307 -0.0179  0.2558 -0.2567
 6443SOL    HW225538   4.035   0.355   6.291  0.6508  0.1260  0.1161
 6443SOL    HW325539   4.089   0.217   6.323 -0.2736 -0.6128 -1.3546
 6443SOL    MW425540   4.022   0.270   6.307  0.0366  0.1241 -0.3523
 6444SOL     OW25541   6.207   1.484   5.099 -0.1135  0.1106 -0.3534
 6444SOL    HW225542   6.149   1.522   5.165  0.2891 -1.5989  1.0831
 6444SOL    HW325543   6.287   1.460   5.148  0.4983 -0.5348 -1.6073
 6444SOL    MW425544   6.210   1.486   5.114  0.0203 -0.2001 -0.3293
 6445SOL     OW25545   3.955   3.610   1.233  0.1447  0.1207  0.2315
 6445SOL    HW225546   3.889   3.648   1.291  0.5384  0.0601  0.7277
 6445SOL    HW325547   4.009   3.684   1.206 -0.1904  0.1855 -0.2556
 6445SOL    MW425548   3.953   3.624   1.237  0.1524  0.1213  0.2327
 6446SOL     OW25549   4.640   2.208   2.086  0.5370 -0.4036  0.0419
 6446SOL    HW225550   4.674   2.119   2.072 -0.1861 -0.7971  0.7291
 6446SOL    HW325551   4.700   2.246   2.150  2.5213  0.6234 -2.2622
 6446SOL    MW425552   4.653   2.201   2.093  0.7034 -0.3200 -0.1714
 6447SOL     OW25553   2.414   5.409   2.014  0.2981  0.2779 -0.3325
 6447SOL    HW225554   2.320   5.426   2.006  0.4585  1.7245  0.5754
 6447SOL    HW325555   2.456   5.483   1.970  1.0172  0.7098  1.0422
 6447SOL    MW425556   2.407   5.421   2.007  0.4141  0.5257 -0.0314
 6448SOL     OW25557   2.185   2.978   4.239 -0.3556  0.3881  0.0492
 6448SOL    HW225558   2.277   2.954   4.233 -0.0143  1.8686 -1.1129
 6448SOL    HW325559   2.183   3.052   4.299 -0.4892  1.5840 -1.3613
 6448SOL    MW425560   2.197   2.985   4.246 -0.3282  0.7412 -0.2902
 6449SOL     OW25561   0.449   4.766   0.220 -0.0407 -0.4468  0.5048
 6449SOL    HW225562   0.433   4.812   0.137  0.0939 -2.4341 -0.6979
 6449SOL    HW325563   0.383   4.696   0.222  1.1478 -1.6120  1.1040
 6449SOL    MW425564   0.439   4.762   0.209  0.1338 -0.8627  0.4252
 6450SOL     OW25565   0.003   2.345   6.327 -0.1396  0.9468  0.0796
 6450SOL    HW225566  -0.043   2.341   6.411  1.7265  0.2732  1.1463
 6450SOL    HW325567  -0.065   2.335   6.261 -1.3642 -1.8473  1.5798
 6450SOL    MW425568  -0.012   2.343   6.329 -0.0550  0.4893  0.4183
 6451SOL     OW25569   3.461   0.789   3.753  0.1882 -0.3845  0.6272
 6451SOL    HW225570   3.480   0.711   3.700  1.7519  0.0744  0.4799
 6451SOL    HW325571   3.521   0.783   3.827  0.7945  1.0131  0.2692
 6451SOL    MW425572   3.471   0.778   3.756  0.4745 -0.1395  0.5605
 6452SOL     OW25573   0.605   5.881   6.055 -0.0969  0.0328 -0.4505
 6452SOL    HW225574   0.663   5.958   6.057 -1.1628  0.8585  2.0378
 6452SOL    HW325575   0.663   5.807   6.074  0.5689  0.5110 -0.5817
 6452SOL    MW425576   0.621   5.882   6.058 -0.1497  0.2048 -0.1395
 6453SOL     OW25577   0.881   5.284   0.219  0.1218  0.3157  0.4442
 6453SOL    HW225578   0.964   5.241   0.239  0.7049 -0.5920 -3.2593
 6453SOL    HW325579   0.816   5.235   0.269  1.5348 -0.3824  1.6785
 6453SOL    MW425580   0.884   5.272   0.229  0.3852  0.1038  0.1184
 6454SOL     OW25581   5.330   6.323   5.540 -0.0072 -0.0492  0.1905
 6454SOL    HW225582   5.379   6.335   5.459  1.0474 -2.9779  0.2775
 6454SOL    HW325583   5.389   6.352   5.609  0.4418 -0.7525  0.1061
 6454SOL    MW425584   5.344   6.329   5.539  0.1912 -0.5284  0.1909
 6455SOL     OW25585   2.239   1.358   5.990 -0.2059 -0.1025 -0.4519
 6455SOL    HW225586   2.182   1.281   5.985  0.6436 -0.9078  1.1944
 6455SOL    HW325587   2.289   1.345   6.071  2.0346  0.7675 -1.6176
 6455SOL    MW425588   2.238   1.346   6.000  0.2018 -0.0940 -0.3885
 6456SOL     OW25589   4.967   0.862   4.513  0.9977 -0.0865  1.0424
 6456SOL    HW225590   4.911   0.878   4.437  0.6234 -0.0141  1.3310
 6456SOL    HW325591   5.020   0.786   4.488  1.7773  0.6994  0.2147
 6456SOL    MW425592   4.966   0.854   4.500  1.0512  0.0267  0.9713
 6457SOL     OW25593   1.463   2.444   3.279 -0.5782 -0.3939  0.1814
 6457SOL    HW225594   1.536   2.383   3.287  0.1319  0.5236  0.9989
 6457SOL    HW325595   1.386   2.395   3.309 -0.0775 -0.9911  0.4954
 6457SOL    MW425596   1.462   2.430   3.284 -0.4184 -0.3516  0.3307
 6458SOL     OW25597   0.960   0.047   1.756  0.0965 -0.1309 -0.1073
 6458SOL    HW225598   1.007  -0.017   1.810 -1.0003 -0.5100  0.4298
 6458SOL    HW325599   0.900  -0.006   1.704 -0.6460  0.4427  0.1585
 6458SOL    MW425600   0.958   0.032   1.757 -0.1462 -0.1052 -0.0014
 6459SOL     OW25601   0.129   3.402   5.219 -0.1603  0.1984  0.1657
 6459SOL    HW225602   0.045   3.437   5.250 -1.1475 -0.0721 -2.0404
 6459SOL    HW325603   0.105   3.323   5.170  1.3483  0.3486 -0.8602
 6459SOL    MW425604   0.115   3.396   5.217 -0.0915  0.1825 -0.2607
 6460SOL     OW25605   5.805   1.113   3.039  0.4389 -0.1269 -0.2066
 6460SOL    HW225606   5.715   1.133   3.064 -0.0555 -2.4825  0.1707
 6460SOL    HW325607   5.857   1.138   3.115 -0.0376  0.2314  0.0083
 6460SOL    MW425608   5.800   1.119   3.052  0.3108 -0.3904 -0.1285
 6461SOL     OW25609   5.353   2.811   4.311 -0.4878 -0.1407  0.0929
 6461SOL    HW225610   5.271   2.856   4.333 -1.0278 -0.8741 -0.3687
 6461SOL    HW325611   5.326   2.738   4.254  0.4903 -0.3680 -0.0999
 6461SOL    MW425612   5.338   2.807   4.306 -0.4300 -0.2675  0.0066
 6462SOL     OW25613   1.332   2.015   5.233 -0.2098 -0.1076  0.1234
 6462SOL    HW225614   1.273   1.942   5.211 -0.9301  0.3541  0.4672
 6462SOL    HW325615   1.350   2.058   5.149 -2.7763  1.5272  0.2953
 6462SOL    MW425616   1.326   2.011   5.219 -0.6434  0.1690  0.1915
 6463SOL     OW25617   1.044   0.294   3.637 -0.2860  0.0681  0.6306
 6463SOL    HW225618   1.058   0.233   3.709  1.3308  0.0199  0.3349
 6463SOL    HW325619   1.088   0.253   3.562  0.2610  1.2553  0.2604
 6463SOL    MW425620   1.052   0.281   3.636 -0.0005  0.2184  0.5427
 6464SOL     OW25621   0.013   2.619   6.226 -0.0446 -0.0929  0.4216
 6464SOL    HW225622   0.002   2.536   6.271 -0.1344  0.6924  1.9122
 6464SOL    HW325623   0.079   2.666   6.276  0.8206  0.3294 -1.0346
 6464SOL    MW425624   0.020   2.614   6.238  0.0577  0.0664  0.4261
 6465SOL     OW25625   3.210   2.400   5.679 -0.2388  0.6661  0.4079
 6465SOL    HW225626   3.208   2.475   5.620 -0.6550  1.1508  1.0242
 6465SOL    HW325627   3.243   2.435   5.762 -0.7648  0.2486  0.8046
 6465SOL    MW425628   3.214   2.414   5.682 -0.3631  0.6750  0.5415
 6466SOL     OW25629   6.072   4.754   2.813 -0.4986 -0.5410  0.7154
 6466SOL    HW225630   6.061   4.806   2.733 -1.6593  0.5293  1.5251
 6466SOL    HW325631   6.021   4.674   2.797  1.0162 -1.3478 -0.4033
 6466SOL    MW425632   6.064   4.750   2.800 -0.4519 -0.5062  0.6747
 6467SOL     OW25633   3.900   4.427   6.043 -0.0524  0.4849  0.3180
 6467SOL    HW225634   3.866   4.449   6.130 -2.5965  1.4164 -0.8239
 6467SOL    HW325635   3.924   4.334   6.050 -3.1081 -0.3724  1.2816
 6467SOL    MW425636   3.899   4.417   6.056 -0.7912  0.4947  0.2945
 6468SOL     OW25637   6.420   3.807   3.581  0.1062 -0.1613 -0.2395
 6468SOL    HW225638   6.432   3.769   3.668  0.0672  0.5809  0.0985
 6468SOL    HW325639   6.497   3.862   3.568 -0.3762  0.5251 -0.2468
 6468SOL    MW425640   6.432   3.809   3.591  0.0374  0.0272 -0.1958
 6469SOL     OW25641   0.112   4.884   0.423  0.2695  0.1656 -0.1212
 6469SOL    HW225642   0.053   4.895   0.498 -0.7737 -1.1596 -0.7169
 6469SOL    HW325643   0.194   4.853   0.462 -0.2800 -0.5790  0.4802
 6469SOL    MW425644   0.116   4.881   0.438  0.0594 -0.1075 -0.1205
 6470SOL     OW25645   0.545   6.148   3.414 -0.5457 -0.1494 -0.5134
 6470SOL    HW225646   0.533   6.236   3.378 -1.7797 -0.0221  0.1469
 6470SOL    HW325647   0.466   6.101   3.385 -1.5216 -0.0853  1.8584
 6470SOL    MW425648   0.533   6.153   3.405 -0.8373 -0.1241 -0.1133
 6471SOL     OW25649   2.599   3.995   1.126 -0.0014 -0.4153 -0.9131
 6471SOL    HW225650   2.614   3.903   1.104 -1.1930 -0.4733 -1.5594
 6471SOL    HW325651   2.527   4.022   1.070  0.8544  1.1616 -1.3187
 6471SOL    MW425652   2.592   3.986   1.116 -0.0457 -0.2149 -1.0519
 6472SOL     OW25653   4.955   1.679   6.315  0.5070  0.0797 -0.4383
 6472SOL    HW225654   4.901   1.755   6.337  0.2311  0.2772 -1.7334
 6472SOL    HW325655   5.021   1.713   6.254  0.3812 -0.7071 -1.0295
 6472SOL    MW425656   4.957   1.694   6.310  0.4540  0.0019 -0.6872
 6473SOL     OW25657   2.670   1.814   2.039  0.4510 -0.2374 -0.1687
 6473SOL    HW225658   2.732   1.843   2.106  0.0802  0.4763 -0.1354
 6473SOL    HW325659   2.649   1.892   1.989 -1.1319 -0.2580  0.3874
 6473SOL    MW425660   2.675   1.828   2.041  0.1933 -0.1459 -0.0909
 6474SOL     OW25661   1.919   5.508   2.737 -0.4883  0.5459 -0.2782
 6474SOL    HW225662   1.950   5.417   2.732 -1.4999  0.1773 -0.0748
 6474SOL    HW325663   1.974   5.548   2.805  0.4871  0.3196 -0.9022
 6474SOL    MW425664   1.931   5.501   2.746 -0.4931  0.4674 -0.3337
 6475SOL     OW25665   3.252   2.893   3.902 -0.4463 -0.1429 -0.5817
 6475SOL    HW225666   3.261   2.973   3.850  0.0079 -0.0716 -0.3977
 6475SOL    HW325667   3.158   2.877   3.905 -0.6954  1.3572  0.8554
 6475SOL    MW425668   3.241   2.901   3.895 -0.4193  0.0644 -0.3678
 6476SOL     OW25669   2.757   2.612   5.291 -0.5161 -0.5774  0.3556
 6476SOL    HW225670   2.710   2.531   5.270 -1.5248  0.3301 -1.0129
 6476SOL    HW325671   2.829   2.615   5.228 -0.4644 -0.4092  0.4211
 6476SOL    MW425672   2.761   2.601   5.280 -0.6424 -0.4354  0.1837
 6477SOL     OW25673   0.636   1.479   5.413  0.5743 -0.2991  0.1975
 6477SOL    HW225674   0.727   1.450   5.414  0.4471 -0.7157 -0.0218
 6477SOL    HW325675   0.641   1.575   5.411  0.9944 -0.2514  1.9198
 6477SOL    MW425676   0.648   1.488   5.413  0.6129 -0.3478  0.3958
 6478SOL     OW25677   3.106   3.167   4.793  0.0225 -0.3174 -0.4044
 6478SOL    HW225678   3.029   3.111   4.778 -0.8401  0.9592 -0.9996
 6478SOL    HW325679   3.097   3.236   4.727  1.7573 -0.1952 -0.5440
 6478SOL    MW425680   3.094   3.169   4.782  0.1376 -0.1328 -0.5014
 6479SOL     OW25681   0.476   3.524   0.517  0.0153  0.5422 -0.8378
 6479SOL    HW225682   0.464   3.523   0.612  2.4122  0.1228 -0.4873
 6479SOL    HW325683   0.510   3.437   0.496  0.0021  0.8061 -2.0066
 6479SOL    MW425684   0.479   3.512   0.527  0.3298  0.5217 -0.9457
 6480SOL     OW25685   5.998   1.361   5.991 -0.0540 -0.2352  0.1997
 6480SOL    HW225686   5.949   1.442   5.973 -1.8110 -1.0523  1.0188
 6480SOL    HW325687   6.029   1.372   6.081  0.4016 -0.1507  0.0343
 6480SOL    MW425688   5.996   1.373   6.000 -0.2257 -0.3318  0.2860
 6481SOL     OW25689   1.771   4.056   5.048 -0.3583 -0.1248  0.5479
 6481SOL    HW225690   1.864   4.034   5.058 -0.6733 -1.1554  1.3918
 6481SOL    HW325691   1.734   3.981   5.001 -0.9247 -0.1027  0.9516
 6481SOL    MW425692   1.779   4.043   5.043 -0.4746 -0.2579  0.7125
 6482SOL     OW25693   3.824   6.213   5.219  0.0206 -0.4901 -0.0391
 6482SOL    HW225694   3.853   6.138   5.165  2.8110 -0.2166  0.8906
 6482SOL    HW325695   3.824   6.179   5.308  0.0287  0.2594  0.2516
 6482SOL    MW425696   3.828   6.198   5.224  0.3898 -0.3552  0.1219
 6483SOL     OW25697   4.683   2.624   3.484  0.0538 -0.8259  0.5825
 6483SOL    HW225698   4.725   2.549   3.525  2.9300  0.9266  1.0937
 6483SOL    HW325699   4.701   2.614   3.390 -1.2021 -1.6900  0.4160
 6483SOL    MW425700   4.691   2.613   3.477  0.2676 -0.7087  0.6280
 6484SOL     OW25701   4.117   4.220   0.352  0.1019  0.3238 -0.5020
 6484SOL    HW225702   4.107   4.127   0.370 -1.4742  0.5505 -0.1136
 6484SOL    HW325703   4.182   4.224   0.282 -1.4682 -1.2184 -2.1355
 6484SOL    MW425704   4.125   4.208   0.345 -0.3132  0.1502 -0.6662
 6485SOL     OW25705   3.321   0.885   6.209  0.3135  0.3092 -0.2212
 6485SOL    HW225706   3.366   0.827   6.148  0.8206 -1.7554  1.9787
 6485SOL    HW325707   3.384   0.900   6.279 -0.9567  0.8251  0.8506
 6485SOL    MW425708   3.335   0.879   6.210  0.2128  0.1049  0.2105
 6486SOL     OW25709   0.654   2.835   5.581 -0.2179  0.3228  0.0632
 6486SOL    HW225710   0.609   2.800   5.505  2.4730 -4.5925  0.3289
 6486SOL    HW325711   0.597   2.812   5.655  0.7373 -2.3562  0.0686
 6486SOL    MW425712   0.640   2.827   5.581  0.2632 -0.6792  0.0990
 6487SOL     OW25713   2.521   4.111   5.986 -0.3280 -0.1649 -0.1152
 6487SOL    HW225714   2.589   4.176   5.966  0.2269 -1.0233 -1.1058
 6487SOL    HW325715   2.555   4.029   5.951 -0.2950 -1.3704  2.5449
 6487SOL    MW425716   2.534   4.109   5.978 -0.2505 -0.4372  0.1050
 6488SOL     OW25717   3.507   2.452   4.133 -0.0545  0.3323  0.0564
 6488SOL    HW225718   3.428   2.400   4.145  0.3372 -0.3458 -0.2750
 6488SOL    HW325719   3.514   2.464   4.038  0.6302 -0.2397  0.0225
 6488SOL    MW425720   3.497   2.447   4.122  0.0875  0.1674  0.0082
 6489SOL     OW25721   4.562   1.212   1.059  0.7611 -0.4202 -0.2711
 6489SOL    HW225722   4.523   1.224   1.146 -0.7482 -0.4795 -0.9232
 6489SOL    HW325723   4.657   1.220   1.075  0.4470  1.5470  1.0804
 6489SOL    MW425724   4.570   1.215   1.073  0.5205 -0.1685 -0.1788
 6490SOL     OW25725   2.450   3.029   5.377 -0.4923 -0.0645 -0.1171
 6490SOL    HW225726   2.421   3.102   5.323 -0.6350  0.0768  0.1502
 6490SOL    HW325727   2.471   2.960   5.314 -1.0631 -0.0469 -0.3323
 6490SOL    MW425728   2.449   3.029   5.361 -0.5864 -0.0436 -0.1102
 6491SOL     OW25729   3.609   0.841   5.486  0.2211 -0.0778  0.0670
 6491SOL    HW225730   3.645   0.928   5.467  0.3816 -0.1755 -0.0827
 6491SOL    HW325731   3.684   0.791   5.519  0.4063 -0.5026 -0.9356
 6491SOL    MW425732   3.624   0.846   5.488  0.2667 -0.1467 -0.0850
 6492SOL     OW25733   0.091   2.484   2.720 -0.3313 -0.1093 -0.2601
 6492SOL    HW225734   0.118   2.523   2.637  0.7320  1.2633  0.6885
 6492SOL    HW325735   0.144   2.529   2.786 -2.5059  0.2218  1.3687
 6492SOL    MW425736   0.102   2.495   2.718 -0.4779  0.1155  0.0799
 6493SOL     OW25737   3.683   5.859   5.359 -0.0719  0.1631 -0.2622
 6493SOL    HW225738   3.622   5.862   5.433 -1.1022 -0.0306 -1.0768
 6493SOL    HW325739   3.687   5.766   5.336  0.0640  0.2484 -0.5852
 6493SOL    MW425740   3.675   5.847   5.366 -0.1899  0.1488 -0.4123
 6494SOL     OW25741   0.435   0.861   2.311 -0.6832 -0.0528  0.0920
 6494SOL    HW225742   0.440   0.901   2.224 -2.0554  2.0058  0.8756
 6494SOL    HW325743   0.523   0.870   2.346 -0.3331 -0.1076 -0.7389
 6494SOL    MW425744   0.447   0.868   2.304 -0.8181  0.2116  0.0858
 6495SOL     OW25745   0.367   5.320   5.940  0.1418 -0.4577 -0.0381
 6495SOL    HW225746   0.427   5.395   5.936  0.4456 -0.7353 -0.9172
 6495SOL    HW325747   0.417   5.247   5.903 -0.5319 -0.8370 -0.2262
 6495SOL    MW425748   0.382   5.320   5.934  0.0930 -0.5444 -0.1789
 6496SOL     OW25749   2.609   3.398   2.189 -0.1416 -0.2805  0.1570
 6496SOL    HW225750   2.638   3.475   2.237 -1.5515 -0.5541  1.4965
 6496SOL    HW325751   2.550   3.432   2.121  0.4218 -0.0642 -0.2342
 6496SOL    MW425752   2.605   3.412   2.186 -0.2533 -0.2881  0.2821
 6497SOL     OW25753   5.075   5.522   2.329 -0.0461  0.1451 -0.0956
 6497SOL    HW225754   5.125   5.541   2.409 -0.1321 -0.8060  0.1939
 6497SOL    HW325755   5.140   5.523   2.259  0.0746  0.7264  0.0227
 6497SOL    MW425756   5.090   5.525   2.331 -0.0415  0.0963 -0.0418
 6498SOL     OW25757   3.172   0.651   6.280  0.0370  0.2489 -0.1179
 6498SOL    HW225758   3.217   0.733   6.264 -0.0116  0.0193 -1.5810
 6498SOL    HW325759   3.145   0.620   6.193 -2.0640 -0.1191  0.5828
 6498SOL    MW425760   3.174   0.657   6.266 -0.2466  0.1700 -0.2185
 6499SOL     OW25761   5.827   6.080   6.090  0.3222 -0.4528  0.7403
 6499SOL    HW225762   5.837   5.997   6.136 -1.5509 -0.9859  0.2835
 6499SOL    HW325763   5.769   6.132   6.147  1.1042  0.3787  0.8034
 6499SOL    MW425764   5.820   6.076   6.104  0.1782 -0.4135  0.6884
 6500SOL     OW25765   0.799   0.029   2.934  0.0694  0.7077  0.0029
 6500SOL    HW225766   0.747   0.094   2.982 -1.1355  0.1316 -0.4928
 6500SOL    HW325767   0.763   0.030   2.845  0.9993  0.3848 -0.3889
 6500SOL    MW425768   0.788   0.038   2.929  0.0331  0.5891 -0.1142
 6501SOL     OW25769   2.336   5.948   4.696  0.0405  0.3559 -0.0938
 6501SOL    HW225770   2.376   5.885   4.636  0.0335  0.6237 -0.3841
 6501SOL    HW325771   2.353   5.913   4.783  1.0572  0.5387 -0.2020
 6501SOL    MW425772   2.344   5.935   4.700  0.1737  0.4153 -0.1464
 6502SOL     OW25773   1.092   4.074   4.165  0.9099  0.1575  0.0651
 6502SOL    HW225774   1.101   4.014   4.091 -0.4098 -0.0655  0.0593
 6502SOL    HW325775   1.070   4.017   4.239  1.9555  0.4059  0.5870
 6502SOL    MW425776   1.090   4.058   4.165  0.8737  0.1608  0.1332
 6503SOL     OW25777   6.059   5.004   0.512  0.3534  0.2153 -0.0132
 6503SOL    HW225778   5.995   4.933   0.519  0.0173  0.3937 -1.1083
 6503SOL    HW325779   6.130   4.968   0.460 -0.2107  0.9350 -1.3152
 6503SOL    MW425780   6.060   4.990   0.506  0.2346  0.3338 -0.3295
 6504SOL     OW25781   3.096   0.637   0.535  0.9155 -0.2838  0.0644
 6504SOL    HW225782   3.077   0.630   0.442  0.7894  1.0494 -0.0257
 6504SOL    HW325783   3.182   0.597   0.546  0.3946 -1.5911 -0.3947
 6504SOL    MW425784   3.105   0.630   0.524  0.8301 -0.2804 -0.0081
 6505SOL     OW25785   4.555   2.463   1.715 -0.4077  0.1720  0.1512
 6505SOL    HW225786   4.510   2.535   1.671  3.3831  1.0496 -2.9179
 6505SOL    HW325787   4.640   2.499   1.740  0.9819 -2.7460  0.0754
 6505SOL    MW425788   4.560   2.477   1.712  0.2758 -0.0972 -0.2637
 6506SOL     OW25789   2.822   0.706   3.487  0.6192 -0.1456 -0.4260
 6506SOL    HW225790   2.906   0.735   3.523  0.7129 -0.3889 -0.4470
 6506SOL    HW325791   2.782   0.656   3.558  0.6733 -0.3753 -0.5559
 6506SOL    MW425792   2.828   0.703   3.501  0.6387 -0.2080 -0.4459
 6507SOL     OW25793   4.139   1.718   4.002  0.4672  0.3688  0.3155
 6507SOL    HW225794   4.162   1.626   4.017 -1.0130 -0.0007  0.4868
 6507SOL    HW325795   4.137   1.727   3.907  1.3205  0.4247  0.2953
 6507SOL    MW425796   4.141   1.707   3.992  0.3845  0.3274  0.3354
 6508SOL     OW25797   6.039   1.771   4.216  0.0337 -0.5537  0.1549
 6508SOL    HW225798   6.095   1.827   4.162  0.4688  1.9140  2.8913
 6508SOL    HW325799   6.095   1.743   4.289 -1.9211  1.6329  2.7502
 6508SOL    MW425800   6.053   1.775   4.219 -0.1668  0.0604  0.8584
 6509SOL     OW25801   4.845   2.436   2.944 -0.0080  0.3762  0.3812
 6509SOL    HW225802   4.817   2.442   3.035  0.2359 -0.6551  0.5338
 6509SOL    HW325803   4.934   2.402   2.949 -0.2446 -0.3596 -0.2713
 6509SOL    MW425804   4.853   2.432   2.957 -0.0071  0.1430  0.3153
 6510SOL     OW25805   3.377   2.497   0.884 -0.2392 -0.3213 -0.0808
 6510SOL    HW225806   3.344   2.583   0.860  0.2964  0.0626  0.5368
 6510SOL    HW325807   3.457   2.486   0.832 -0.4265 -0.5452 -0.3261
 6510SOL    MW425808   3.383   2.507   0.874 -0.1933 -0.3002 -0.0317
 6511SOL     OW25809   4.629   2.370   2.576 -0.1681 -0.5885 -0.7406
 6511SOL    HW225810   4.678   2.431   2.632 -1.9063  0.8166 -0.6457
 6511SOL    HW325811   4.590   2.307   2.637 -1.6302  0.6300 -0.3546
 6511SOL    MW425812   4.630   2.370   2.592 -0.5903 -0.2424 -0.6771
 6512SOL     OW25813   4.175   4.285   4.366  0.1755  0.7482  0.3785
 6512SOL    HW225814   4.122   4.223   4.318  1.3869  0.6465 -0.9110
 6512SOL    HW325815   4.121   4.364   4.372  0.3891  1.1984 -2.2966
 6512SOL    MW425816   4.161   4.287   4.360  0.3635  0.7942 -0.1445
 6513SOL     OW25817   4.680   1.945   0.308 -0.4497  0.1384 -0.5157
 6513SOL    HW225818   4.682   1.887   0.383 -0.9571 -0.1279 -0.7076
 6513SOL    HW325819   4.701   2.032   0.343  0.3929 -0.1684 -0.2433
 6513SOL    MW425820   4.683   1.949   0.322 -0.4055  0.0628 -0.5051
 6514SOL     OW25821   5.943   2.914   6.217 -0.7551  0.2943  0.2793
 6514SOL    HW225822   5.953   2.926   6.123 -0.8164  2.0777  0.4619
 6514SOL    HW325823   5.971   2.997   6.255 -1.0350 -0.2759  1.8255
 6514SOL    MW425824   5.948   2.926   6.210 -0.8001  0.4543  0.5074
 6515SOL     OW25825   1.380   2.740   2.513 -0.2407  0.1717 -0.0976
 6515SOL    HW225826   1.392   2.676   2.442  1.2678  2.3910 -1.9934
 6515SOL    HW325827   1.450   2.804   2.500 -2.8653  3.4226  0.3273
 6515SOL    MW425828   1.391   2.740   2.502 -0.3880  0.8935 -0.2916
 6516SOL     OW25829   5.899   5.444   5.511  0.5860 -0.4334  0.2804
 6516SOL    HW225830   5.888   5.441   5.606 -1.5854 -3.2845  0.0588
 6516SOL    HW325831   5.972   5.504   5.497 -0.6020  2.0102  3.5565
 6516SOL    MW425832   5.908   5.451   5.521  0.1427 -0.4872  0.6834
 6517SOL     OW25833   5.443   0.992   3.595 -0.0342 -0.2675  0.2380
 6517SOL    HW225834   5.466   1.068   3.648  2.8212 -0.2851 -0.7873
 6517SOL    HW325835   5.393   1.028   3.522  2.1356  0.8941 -0.7802
 6517SOL    MW425836   5.440   1.006   3.592  0.6288 -0.1165 -0.0316
 6518SOL     OW25837   5.766   5.700   3.374  0.0935  0.2233 -0.4304
 6518SOL    HW225838   5.802   5.625   3.328 -1.0261 -0.5700 -0.0676
 6518SOL    HW325839   5.679   5.712   3.336  0.0430  0.9899 -0.0947
 6518SOL    MW425840   5.759   5.692   3.363 -0.0609  0.2198 -0.3382
 6519SOL     OW25841   1.830   0.656   3.361  0.1950 -0.1468 -0.1830
 6519SOL    HW225842   1.919   0.688   3.378  0.3564 -1.0777  0.8649
 6519SOL    HW325843   1.843   0.582   3.301 -0.0431  0.7922 -1.4204
 6519SOL    MW425844   1.844   0.650   3.355  0.1849 -0.1458 -0.2080
 6520SOL     OW25845   1.491   2.077   0.395 -0.0859  0.5206  0.0684
 6520SOL    HW225846   1.519   2.087   0.486  1.0265  1.1061 -0.3153
 6520SOL    HW325847   1.571   2.088   0.343 -0.6689  0.0480 -0.9812
 6520SOL    MW425848   1.505   2.080   0.400 -0.0161  0.5355 -0.1207
 6521SOL     OW25849   5.093   1.670   2.333  0.0792  0.2550 -0.1294
 6521SOL    HW225850   5.165   1.725   2.302  1.5995 -0.8248  1.2709
 6521SOL    HW325851   5.076   1.609   2.262  0.9800  0.1596 -0.2795
 6521SOL    MW425852   5.100   1.669   2.320  0.3987  0.0999  0.0355
 6522SOL     OW25853   6.313   0.327   2.266 -0.0685 -0.2163 -0.2068
 6522SOL    HW225854   6.362   0.259   2.221  1.4179 -0.4343  1.5995
 6522SOL    HW325855   6.379   0.395   2.286 -1.0876  0.7920 -0.1664
 6522SOL    MW425856   6.329   0.327   2.263 -0.0068 -0.1121  0.0369
 6523SOL     OW25857   1.245   1.116   4.956 -0.1400  0.0345  0.2245
 6523SOL    HW225858   1.327   1.068   4.971  0.3209  1.2796  1.9426
 6523SOL    HW325859   1.272   1.195   4.910 -0.4220  0.2574  0.4406
 6523SOL    MW425860   1.260   1.120   4.952 -0.1164  0.2282  0.4797
 6524SOL     OW25861   2.487   5.837   5.600  0.2924 -0.3314  0.1953
 6524SOL    HW225862   2.540   5.899   5.649  0.3127  0.8930 -1.2943
 6524SOL    HW325863   2.402   5.837   5.643  0.1101  1.2026 -0.1169
 6524SOL    MW425864   2.483   5.845   5.612  0.2710  0.0325 -0.0425
 6525SOL     OW25865   5.320   3.610   2.214  0.9668  0.1087 -0.0828
 6525SOL    HW225866   5.344   3.556   2.138 -0.6906 -0.8889  0.0474
 6525SOL    HW325867   5.283   3.690   2.177  0.7894 -0.0848 -0.3242
 6525SOL    MW425868   5.318   3.613   2.199  0.7247 -0.0485 -0.0975
 6526SOL     OW25869   6.067   3.031   5.514 -0.4224  0.3738  0.1255
 6526SOL    HW225870   6.073   2.953   5.460 -2.3336 -0.8836  1.6142
 6526SOL    HW325871   6.093   3.002   5.602 -1.0118  1.4445  0.6827
 6526SOL    MW425872   6.072   3.017   5.519 -0.7523  0.3491  0.3954
 6527SOL     OW25873   4.796   6.362   0.416  0.6638 -0.4288 -0.9411
 6527SOL    HW225874   4.875   6.402   0.380  1.6890  0.7195  2.2522
 6527SOL    HW325875   4.727   6.425   0.398  1.6048  1.2527  1.0245
 6527SOL    MW425876   4.798   6.376   0.409  0.9232 -0.0555 -0.2605
 6528SOL     OW25877   5.995   0.688   5.065  0.3884  0.0573  0.5530
 6528SOL    HW225878   6.088   0.689   5.044  0.2870 -1.4305 -0.1017
 6528SOL    HW325879   5.959   0.619   5.010 -1.3010  1.2731  0.0316
 6528SOL    MW425880   6.002   0.679   5.055  0.1522  0.0214  0.3979
 6529SOL     OW25881   6.046   4.795   5.729  0.0218  0.0416  0.7281
 6529SOL    HW225882   5.951   4.800   5.713  0.1031 -1.1632 -0.3409
 6529SOL    HW325883   6.086   4.825   5.648  0.5100 -1.7641  0.2528
 6529SOL    MW425884   6.039   4.800   5.716  0.0969 -0.3556  0.5243
 6530SOL     OW25885   5.345   1.505   5.110 -0.2703 -0.8034  0.3239
 6530SOL    HW225886   5.338   1.424   5.160 -1.1309 -1.8998 -1.4636
 6530SOL    HW325887   5.425   1.493   5.058  0.4750  0.2077  1.2027
 6530SOL    MW425888   5.355   1.492   5.110 -0.2855 -0.8146  0.2040
 6531SOL     OW25889   0.291   1.341   3.773  0.8959  0.2552 -0.1655
 6531SOL    HW225890   0.282   1.363   3.866 -0.2787 -1.0304  0.0646
 6531SOL    HW325891   0.294   1.425   3.728  1.8791  0.8995  1.0658
 6531SOL    MW425892   0.290   1.355   3.779  0.8707  0.1706  0.0273
 6532SOL     OW25893   4.757   1.711   3.217 -0.1663  0.1396 -0.2340
 6532SOL    HW225894   4.818   1.649   3.178 -1.4423 -0.3956 -1.4607
 6532SOL    HW325895   4.690   1.725   3.150 -1.4089  0.6694  1.0541
 6532SOL    MW425896   4.756   1.705   3.203 -0.4986  0.1389 -0.2259
 6533SOL     OW25897   3.472   1.577   4.173 -0.4865 -0.6228  0.2506
 6533SOL    HW225898   3.511   1.565   4.259 -2.1194  0.0035  1.1328
 6533SOL    HW325899   3.491   1.668   4.150 -1.1919 -0.3895  0.5711
 6533SOL    MW425900   3.480   1.588   4.181 -0.7950 -0.5094  0.4093
 6534SOL     OW25901   6.094   2.646   2.382 -0.1129 -0.6690 -0.1203
 6534SOL    HW225902   6.167   2.598   2.342 -0.2539 -0.7548 -0.2763
 6534SOL    HW325903   6.074   2.596   2.462  0.1632 -0.5021  0.0561
 6534SOL    MW425904   6.101   2.633   2.387 -0.0951 -0.6583 -0.1176
 6535SOL     OW25905   0.366   1.920   2.239  0.5806 -0.0517  0.3545
 6535SOL    HW225906   0.335   1.958   2.321 -1.4002 -2.3700  0.8089
 6535SOL    HW325907   0.440   1.864   2.265  0.1520 -0.5444  0.5236
 6535SOL    MW425908   0.372   1.918   2.253  0.2627 -0.4226  0.4367
 6536SOL     OW25909   2.292   6.072   1.899  0.1123  0.1315 -0.2009
 6536SOL    HW225910   2.289   5.982   1.867  0.6482  0.0368 -0.0095
 6536SOL    HW325911   2.213   6.113   1.864  0.3013 -0.1712 -1.0123
 6536SOL    MW425912   2.282   6.066   1.890  0.2080  0.0790 -0.2827
 6537SOL     OW25913   0.689   2.248   2.271 -0.1795 -0.0243  0.4019
 6537SOL    HW225914   0.672   2.230   2.364 -1.2427 -0.2681  0.1763
 6537SOL    HW325915   0.727   2.166   2.238  2.5284  0.8449  1.1322
 6537SOL    MW425916   0.692   2.235   2.279  0.0375  0.0582  0.4685
 6538SOL     OW25917   3.569   4.551   2.508  0.8934 -0.4222  0.4745
 6538SOL    HW225918   3.591   4.458   2.512  0.5387 -0.6922 -2.1999
 6538SOL    HW325919   3.637   4.589   2.453 -0.3434  0.3998 -0.5398
 6538SOL    MW425920   3.581   4.544   2.501  0.6834 -0.3493 -0.0122
 6539SOL     OW25921   3.923   0.208   4.727 -0.0355  0.7458  0.2496
 6539SOL    HW225922   3.856   0.230   4.662  0.5389  1.1378 -0.2249
 6539SOL    HW325923   3.914   0.114   4.741 -1.0478  0.8855  0.6110
 6539SOL    MW425924   3.913   0.199   4.720 -0.0933  0.8160  0.2347
 6540SOL     OW25925   0.317   1.604   5.116 -0.6382 -0.0815 -0.7777
 6540SOL    HW225926   0.234   1.604   5.067  0.3448 -0.4566 -2.5081
 6540SOL    HW325927   0.331   1.513   5.140 -0.8139  0.0128 -0.3032
 6540SOL    MW425928   0.308   1.592   5.113 -0.5317 -0.1186 -0.9434
 6541SOL     OW25929   2.510   0.845   3.479 -0.6874  0.2978  0.3362
 6541SOL    HW225930   2.521   0.801   3.394 -2.4652  1.5662 -0.6300
 6541SOL    HW325931   2.487   0.775   3.540  2.2693 -0.9046  0.2433
 6541SOL    MW425932   2.509   0.830   3.476 -0.5319  0.3065  0.1965
 6542SOL     OW25933   5.420   3.980   4.107 -0.5694  0.3368 -0.0359
 6542SOL    HW225934   5.325   3.972   4.108 -0.5094 -0.3452  0.2339
 6542SOL    HW325935   5.445   3.952   4.019 -0.7123  1.7206 -0.5421
 6542SOL    MW425936   5.411   3.975   4.095 -0.5804  0.4294 -0.0671
 6543SOL     OW25937   1.101   2.775   1.501 -0.7932 -0.2401  1.0013
 6543SOL    HW225938   1.106   2.683   1.527 -0.0048  0.0745  2.0339
 6543SOL    HW325939   1.109   2.774   1.406  0.8912 -1.1496  1.1218
 6543SOL    MW425940   1.102   2.763   1.492 -0.4669 -0.3186  1.1535
 6544SOL     OW25941   1.509   4.842   2.954 -0.1751  0.3089  0.0195
 6544SOL    HW225942   1.513   4.808   3.043 -0.6696 -2.4177 -0.8985
 6544SOL    HW325943   1.601   4.857   2.930  0.0223  0.2083  0.6981
 6544SOL    MW425944   1.522   4.840   2.962 -0.2143 -0.0641 -0.0121
 6545SOL     OW25945   6.092   2.502   4.490 -0.0794  0.2003  0.1704
 6545SOL    HW225946   6.081   2.407   4.490 -1.9090  0.3813  0.3293
 6545SOL    HW325947   6.003   2.536   4.497  0.6044  1.9288  0.7836
 6545SOL    MW425948   6.079   2.494   4.491 -0.2305  0.4523  0.2723
 6546SOL     OW25949   4.606   3.914   3.788  0.1070 -0.0015 -0.3319
 6546SOL    HW225950   4.685   3.968   3.791  0.0568  0.0650 -0.1654
 6546SOL    HW325951   4.637   3.826   3.768  0.2146  0.0431 -0.3612
 6546SOL    MW425952   4.621   3.910   3.786  0.1146  0.0131 -0.3138
 6547SOL     OW25953   0.775   0.961   1.413 -0.7182  0.2980 -0.8674
 6547SOL    HW225954   0.801   0.890   1.354 -0.7690  0.0515 -0.5950
 6547SOL    HW325955   0.787   1.041   1.361 -0.6301  0.0937 -1.1646
 6547SOL    MW425956   0.780   0.962   1.398 -0.7133  0.2385 -0.8706
 6548SOL     OW25957   1.703   1.487   0.756  0.2926 -0.2741 -0.4077
 6548SOL    HW225958   1.750   1.424   0.702  0.8433 -0.6573  0.4913
 6548SOL    HW325959   1.656   1.433   0.819  0.1048  0.1835 -0.1546
 6548SOL    MW425960   1.703   1.472   0.757  0.3405 -0.2642 -0.2557
 6549SOL     OW25961   4.551   1.687   6.321  0.0009 -0.1199 -0.0924
 6549SOL    HW225962   4.608   1.631   6.267 -0.1378 -0.4988  0.1448
 6549SOL    HW325963   4.506   1.625   6.379  0.3205  0.3008  0.6112
 6549SOL    MW425964   4.553   1.671   6.322  0.0247 -0.1144  0.0317
 6550SOL     OW25965   2.111   0.862   4.181 -0.7700 -0.2265 -0.2002
 6550SOL    HW225966   2.161   0.940   4.156 -1.1841  0.0236 -0.2642
 6550SOL    HW325967   2.100   0.813   4.099  0.2166 -0.7862 -0.0124
 6550SOL    MW425968   2.116   0.866   4.167 -0.6945 -0.2674 -0.1839
 6551SOL     OW25969   2.810   5.839   6.212  0.5480 -0.2404  0.0440
 6551SOL    HW225970   2.905   5.837   6.197  0.5477 -2.5325 -0.0770
 6551SOL    HW325971   2.801   5.821   6.305  0.2212 -0.6252 -0.0624
 6551SOL    MW425972   2.822   5.836   6.222  0.5048 -0.5936  0.0140
 6552SOL     OW25973   0.650   3.342   5.503 -0.2485 -0.0586  0.1290
 6552SOL    HW225974   0.586   3.375   5.566  0.0710 -0.8407  0.8855
 6552SOL    HW325975   0.631   3.389   5.422 -0.0258  1.7093  1.0528
 6552SOL    MW425976   0.639   3.352   5.500 -0.1770  0.0714  0.3507
 6553SOL     OW25977   5.703   2.305   4.433  0.4244 -0.0241 -0.3424
 6553SOL    HW225978   5.720   2.397   4.454  0.5725  0.1340 -1.1228
 6553SOL    HW325979   5.624   2.283   4.483  0.5337  0.4567  0.0443
 6553SOL    MW425980   5.694   2.314   4.442  0.4584  0.0602 -0.3943
 6554SOL     OW25981   6.086   0.622   1.678  0.5209 -0.2699 -0.4398
 6554SOL    HW225982   6.069   0.557   1.747  2.1269 -0.4848 -0.2176
 6554SOL    HW325983   6.079   0.707   1.723  1.1739 -0.3950 -0.0938
 6554SOL    MW425984   6.083   0.625   1.693  0.8189 -0.3147 -0.3648
 6555SOL     OW25985   3.549   4.134   4.020 -0.1505 -0.0863 -0.1383
 6555SOL    HW225986   3.598   4.210   3.989  1.5548 -0.6613  1.0418
 6555SOL    HW325987   3.602   4.059   3.993 -1.2453 -0.8224 -0.3002
 6555SOL    MW425988   3.562   4.134   4.012 -0.0700 -0.2593 -0.0040
 6556SOL     OW25989   3.386   2.564   0.226  0.6674 -0.1814  0.7483
 6556SOL    HW225990   3.303   2.546   0.270  0.7542 -0.1115  0.9370
 6556SOL    HW325991   3.443   2.600   0.293 -0.3458  3.5116 -0.1323
 6556SOL    MW425992   3.382   2.566   0.240  0.5452  0.3151  0.6570
 6557SOL     OW25993   3.282   3.712   1.434 -0.1046  0.0096  0.4044
 6557SOL    HW225994   3.260   3.619   1.429 -0.6563  0.0109  2.2013
 6557SOL    HW325995   3.249   3.749   1.352 -0.2002 -1.2985 -0.1691
 6557SOL    MW425996   3.275   3.704   1.422 -0.1900 -0.1628  0.5658
 6558SOL     OW25997   1.150   5.094   4.962 -0.6311 -0.6198 -0.6604
 6558SOL    HW225998   1.097   5.044   5.025 -0.1018 -0.9774 -0.4945
 6558SOL    HW325999   1.118   5.066   4.876 -0.4865 -1.0808 -0.5652
 6558SOL    MW426000   1.139   5.083   4.959 -0.5422 -0.7278 -0.6259
 6559SOL     OW26001   0.903   5.969   4.466  0.5085  1.0154 -0.5709
 6559SOL    HW226002   0.871   6.008   4.547 -0.1331 -0.0716 -0.2775
 6559SOL    HW326003   0.833   5.910   4.438  2.7307 -2.7657  0.9704
 6559SOL    MW426004   0.890   5.966   4.473  0.7170  0.3731 -0.3288
 6560SOL     OW26005   4.206   4.413   2.534 -0.1008 -0.2104  0.0642
 6560SOL    HW226006   4.130   4.370   2.496  1.2460 -2.4606 -0.2458
 6560SOL    HW326007   4.203   4.389   2.627  1.4358 -2.3312 -0.3719
 6560SOL    MW426008   4.195   4.404   2.541  0.2797 -0.7871 -0.0342
 6561SOL     OW26009   0.820   4.100   5.563  0.2548  0.6237  0.0845
 6561SOL    HW226010   0.788   4.113   5.474 -1.0413  0.5397  0.5110
 6561SOL    HW326011   0.900   4.048   5.553  1.1194  2.1055 -1.1196
 6561SOL    MW426012   0.826   4.095   5.550  0.1979  0.8081 -0.0181
 6562SOL     OW26013   3.461   4.128   1.199 -0.1706 -0.4714  0.4588
 6562SOL    HW226014   3.430   4.054   1.147 -0.8248 -0.1358  0.3570
 6562SOL    HW326015   3.382   4.178   1.218  0.2786  0.2654  0.4201
 6562SOL    MW426016   3.446   4.125   1.194 -0.1976 -0.3299  0.4402
 6563SOL     OW26017   2.372   4.343   4.326 -0.2376  0.2010 -0.1095
 6563SOL    HW226018   2.373   4.265   4.271  0.7701 -0.1829  0.4331
 6563SOL    HW326019   2.464   4.361   4.343 -0.4277  1.7686 -0.5773
 6563SOL    MW426020   2.384   4.335   4.321 -0.1298  0.3572 -0.0997
 6564SOL     OW26021   0.393   2.464   2.310 -1.0230  0.0687  0.0387
 6564SOL    HW226022   0.308   2.500   2.335 -0.5492  1.7370 -0.6518
 6564SOL    HW326023   0.453   2.492   2.379 -0.3127  2.1573 -1.3431
 6564SOL    MW426024   0.390   2.472   2.323 -0.8668  0.5644 -0.2348
 6565SOL     OW26025   4.587   5.740   5.641  0.9027 -0.1575  0.1995
 6565SOL    HW226026   4.549   5.668   5.591 -0.0859  0.8548 -0.5667
 6565SOL    HW326027   4.526   5.755   5.713  0.9586  0.0845  0.1991
 6565SOL    MW426028   4.574   5.732   5.644  0.7796  0.0080  0.0983
 6566SOL     OW26029   0.583   2.355   3.259 -0.0868 -1.3573 -0.0387
 6566SOL    HW226030   0.547   2.321   3.341 -0.7449  2.9695  1.7153
 6566SOL    HW326031   0.507   2.363   3.201 -1.2418  2.5493  1.7248
 6566SOL    MW426032   0.568   2.351   3.263 -0.3260 -0.2710  0.4254
 6567SOL     OW26033   2.663   4.876   2.384 -0.1263 -0.2700  0.3192
 6567SOL    HW226034   2.637   4.968   2.381 -0.0787 -0.2503  0.5396
 6567SOL    HW326035   2.616   4.839   2.459 -1.1549 -0.7388 -0.5291
 6567SOL    MW426036   2.654   4.883   2.393 -0.2557 -0.3292  0.2363
 6568SOL     OW26037   3.884   3.608   2.553 -0.8483  0.1199 -0.0426
 6568SOL    HW226038   3.930   3.643   2.629  1.5047  3.1645 -2.5310
 6568SOL    HW326039   3.921   3.521   2.540 -0.9862 -0.2718  2.0016
 6568SOL    MW426040   3.895   3.601   2.561 -0.5560  0.4699 -0.1012
 6569SOL     OW26041   0.024   2.324   2.365 -0.2221 -0.5715 -0.2323
 6569SOL    HW226042   0.114   2.299   2.346 -0.1929  0.1139 -1.0135
 6569SOL    HW326043  -0.006   2.257   2.427  0.9391 -0.5739  0.3618
 6569SOL    MW426044   0.032   2.311   2.371 -0.0651 -0.4814 -0.2570
 6570SOL     OW26045   1.140   3.840   1.391  0.0753  0.3401 -0.4622
 6570SOL    HW226046   1.208   3.868   1.331 -1.1353  2.0934 -1.0763
 6570SOL    HW326047   1.088   3.918   1.407 -2.9637 -1.2942 -1.5671
 6570SOL    MW426048   1.142   3.854   1.385 -0.4854  0.3558 -0.6890
 6571SOL     OW26049   3.906   1.512   0.119 -0.1437  0.5392  0.0080
 6571SOL    HW226050   3.922   1.547   0.207 -1.2997  0.5559  0.2323
 6571SOL    HW326051   3.966   1.559   0.062  0.8959  0.2550  0.8453
 6571SOL    MW426052   3.916   1.523   0.123 -0.1591  0.5039  0.1480
 6572SOL     OW26053   2.535   3.365   4.732 -0.7721 -0.1257 -0.7880
 6572SOL    HW226054   2.534   3.402   4.644  0.2107  0.8064 -0.4305
 6572SOL    HW326055   2.495   3.432   4.787 -1.3163 -0.6707 -0.5132
 6572SOL    MW426056   2.530   3.378   4.727 -0.7142 -0.0746 -0.7046
 6573SOL     OW26057   3.366   6.124   5.451 -0.0280  0.1903 -0.3067
 6573SOL    HW226058   3.288   6.141   5.503  0.7701 -0.2242  1.0569
 6573SOL    HW326059   3.366   6.194   5.385 -0.7840  1.0157  0.5389
 6573SOL    MW426060   3.356   6.135   5.449 -0.0225  0.2445 -0.0152
 6574SOL     OW26061   4.975   3.937   1.195  0.0174  0.0156 -0.0790
 6574SOL    HW226062   4.996   3.993   1.121 -0.1386  1.5425  0.9730
 6574SOL    HW326063   4.893   3.973   1.230  0.5996  0.0026  1.4058
 6574SOL    MW426064   4.967   3.950   1.190  0.0736  0.2153  0.2557
 6575SOL     OW26065   0.906   1.389   2.028 -0.3584  0.0689  0.4781
 6575SOL    HW226066   0.892   1.408   2.121  1.2094 -0.8903  0.9456
 6575SOL    HW326067   0.998   1.364   2.022 -0.8215 -1.4739 -1.0629
 6575SOL    MW426068   0.916   1.388   2.040 -0.2126 -0.2612  0.3365
 6576SOL     OW26069   2.463   1.987   2.340 -0.2133 -0.1079  0.3237
 6576SOL    HW226070   2.430   1.969   2.252  0.0129 -2.1075  0.5850
 6576SOL    HW326071   2.531   2.053   2.328 -0.1525 -0.3852 -1.0027
 6576SOL    MW426072   2.467   1.993   2.327 -0.1754 -0.4083  0.1832
 6577SOL     OW26073   6.155   3.644   6.251  0.5032 -0.3903 -0.5303
 6577SOL    HW226074   6.102   3.615   6.326  1.9074  0.4620  0.8597
 6577SOL    HW326075   6.101   3.711   6.209  0.1631 -0.0138  0.4581
 6577SOL    MW426076   6.141   3.649   6.256  0.6436 -0.2282 -0.2165
 6578SOL     OW26077   1.066   1.002   4.746  0.1738 -0.6045  0.3380
 6578SOL    HW226078   1.112   1.039   4.821  0.5698 -1.4513  0.5209
 6578SOL    HW326079   1.136   0.970   4.689 -0.1052  0.2891 -0.5437
 6578SOL    MW426080   1.082   1.003   4.748  0.1892 -0.5983  0.2458
 6579SOL     OW26081   2.577   2.760   2.208 -0.0143  0.1171 -0.3798
 6579SOL    HW226082   2.604   2.834   2.262  0.2108  1.1602 -1.8700
 6579SOL    HW326083   2.651   2.745   2.150  0.0667 -1.5072  0.0859
 6579SOL    MW426084   2.590   2.768   2.208  0.0261  0.0404 -0.5150
 6580SOL     OW26085   4.872   1.401   5.936  0.2700 -0.1325  0.0353
 6580SOL    HW226086   4.957   1.358   5.939  0.7905  0.9242  0.9079
 6580SOL    HW326087   4.812   1.333   5.903  1.2450 -1.2017  0.4078
 6580SOL    MW426088   4.875   1.387   5.932  0.4673 -0.1341  0.1996
 6581SOL     OW26089   0.636   3.886   1.740 -0.1034  0.4259  0.2876
 6581SOL    HW226090   0.609   3.807   1.786  0.9416 -0.9129 -1.3217
 6581SOL    HW326091   0.723   3.905   1.774  0.8397 -0.7948 -1.3337
 6581SOL    MW426092   0.644   3.878   1.751  0.1589  0.0882 -0.1387
 6582SOL     OW26093   3.802   5.551   0.604 -0.3793  0.9041  0.1537
 6582SOL    HW226094   3.830   5.642   0.610 -0.9396  0.9688  2.5538
 6582SOL    HW326095   3.709   5.552   0.624 -0.4001 -0.1819  0.1821
 6582SOL    MW426096   3.794   5.563   0.607 -0.4560  0.7694  0.4741
 6583SOL     OW26097   4.319   0.896   6.257 -0.3297 -0.5350  0.4576
 6583SOL    HW226098   4.336   0.976   6.306 -0.0865  0.3819 -1.0804
 6583SOL    HW326099   4.399   0.845   6.265  0.6883  0.7393 -1.0622
 6583SOL    MW426100   4.331   0.900   6.265 -0.1633 -0.2459  0.0542
 6584SOL     OW26101   3.317   3.892   3.348 -0.5707  0.3176  0.1814
 6584SOL    HW226102   3.365   3.846   3.417  1.0504 -0.1722 -1.2182
 6584SOL    HW326103   3.284   3.822   3.291 -0.3501  0.7707 -0.5185
 6584SOL    MW426104   3.319   3.877   3.349 -0.3277  0.3127 -0.0956
 6585SOL     OW26105   5.503   5.017   0.970  0.4290 -0.0699  0.3002
 6585SOL    HW226106   5.584   5.052   1.007  0.9371  0.0742 -0.8737
 6585SOL    HW326107   5.472   5.086   0.911  0.6770 -0.9783 -0.9538
 6585SOL    MW426108   5.510   5.031   0.967  0.5288 -0.1707 -0.0201
 6586SOL     OW26109   2.414   2.388   2.408  0.4936 -0.1853  0.0542
 6586SOL    HW226110   2.493   2.404   2.356 -0.6517  0.2699 -1.6028
 6586SOL    HW326111   2.361   2.330   2.354 -0.9797  0.7393  0.4511
 6586SOL    MW426112   2.417   2.382   2.394  0.1481 -0.0033 -0.1120
 6587SOL     OW26113   0.254   1.531   4.657 -0.0424  0.1184  0.6193
 6587SOL    HW226114   0.274   1.466   4.725  1.0290 -0.0003  0.2054
 6587SOL    HW326115   0.218   1.480   4.585 -0.1023  0.1061  0.6576
 6587SOL    MW426116   0.252   1.516   4.657  0.0911  0.1011  0.5698
 6588SOL     OW26117   6.065   1.125   5.680  0.1975  0.5125  0.3214
 6588SOL    HW226118   6.129   1.167   5.737  0.7925 -2.1200  1.7342
 6588SOL    HW326119   5.980   1.156   5.711  0.6156  0.8417  1.1482
 6588SOL    MW426120   6.062   1.135   5.691  0.3312  0.2086  0.6169
 6589SOL     OW26121   5.571   4.468   2.836 -0.1585  0.7211 -0.1435
 6589SOL    HW226122   5.627   4.523   2.890 -0.3181  0.2336  0.5276
 6589SOL    HW326123   5.600   4.486   2.746 -0.1152  1.7823  0.0738
 6589SOL    MW426124   5.583   4.477   2.831 -0.1738  0.7968 -0.0263
 6590SOL     OW26125   6.056   3.513   4.876 -0.1987 -1.3103 -0.2432
 6590SOL    HW226126   6.109   3.586   4.844  0.4296 -2.0032 -0.8197
 6590SOL    HW326127   6.044   3.457   4.799  1.1480 -2.8946  0.6514
 6590SOL    MW426128   6.062   3.515   4.862  0.0619 -1.6108 -0.2012
 6591SOL     OW26129   1.623   3.679   3.750 -0.4216 -0.3778  0.2848
 6591SOL    HW226130   1.675   3.753   3.783  0.5989 -0.8738 -0.1683
 6591SOL    HW326131   1.589   3.709   3.666 -1.0125 -0.0011  0.6453
 6591SOL    MW426132   1.625   3.693   3.743 -0.3649 -0.3936  0.2726
 6592SOL     OW26133   2.953   5.311   3.112  0.7506 -0.1722  0.3092
 6592SOL    HW226134   2.937   5.217   3.114  0.4617 -0.1753 -1.2941
 6592SOL    HW326135   2.883   5.346   3.057  2.8926  0.5033 -2.1551
 6592SOL    MW426136   2.942   5.303   3.105  0.9951 -0.0835 -0.2275
 6593SOL     OW26137   6.387   6.075   2.560 -0.0324 -0.3008 -0.2304
 6593SOL    HW226138   6.348   6.151   2.603 -0.6927 -1.5896  1.5432
 6593SOL    HW326139   6.464   6.110   2.515 -1.4563  1.7704 -1.2432
 6593SOL    MW426140   6.392   6.089   2.560 -0.3073 -0.1975 -0.1300
 6594SOL     OW26141   6.161   2.934   0.905 -0.8650 -0.0341 -0.7666
 6594SOL    HW226142   6.128   3.016   0.868 -0.7310  0.1977 -0.3794
 6594SOL    HW326143   6.084   2.877   0.908 -1.6831  1.0840  1.7555
 6594SOL    MW426144   6.146   2.937   0.900 -0.9553  0.1440 -0.3827
 6595SOL     OW26145   2.992   0.295   3.164 -0.1348 -0.0629  0.1690
 6595SOL    HW226146   3.036   0.283   3.080 -0.3850  0.3422 -0.0248
 6595SOL    HW326147   2.972   0.389   3.168  1.1919  0.2184  1.3423
 6595SOL    MW426148   2.995   0.306   3.154  0.0072  0.0277  0.2982
 6596SOL     OW26149   3.945   2.909   2.573  0.0313 -0.3183  0.1104
 6596SOL    HW226150   4.003   2.837   2.600  1.5308  0.8527  0.1334
 6596SOL    HW326151   3.968   2.981   2.632 -0.8958  0.4275 -0.4280
 6596SOL    MW426152   3.955   2.909   2.585  0.1069 -0.0654  0.0424
 6597SOL     OW26153   5.971   3.851   2.111  0.3491 -0.0700 -0.4142
 6597SOL    HW226154   5.949   3.775   2.164  1.6201 -1.1433 -1.3778
 6597SOL    HW326155   5.908   3.848   2.038  0.4193 -0.2221 -0.4692
 6597SOL    MW426156   5.960   3.841   2.108  0.5260 -0.2317 -0.5486
 6598SOL     OW26157   3.533   4.871   3.710 -0.2910  0.6193  0.1707
 6598SOL    HW226158   3.481   4.796   3.681 -2.2022  0.5283  3.4158
 6598SOL    HW326159   3.468   4.935   3.738  1.3543  2.4520 -0.0259
 6598SOL    MW426160   3.518   4.869   3.710 -0.3261  0.8491  0.5729
 6599SOL     OW26161   5.015   0.800   3.762  0.4464  0.5145  0.4918
 6599SOL    HW226162   4.974   0.872   3.714  2.2002  0.7312 -0.7684
 6599SOL    HW326163   4.970   0.721   3.732 -0.0983  0.8866  0.3264
 6599SOL    MW426164   5.004   0.799   3.752  0.6059  0.5922  0.3037
 6600SOL     OW26165   2.532   4.888   0.249  0.5907  0.2615  0.3075
 6600SOL    HW226166   2.504   4.903   0.339  1.8703  2.6595  0.3893
 6600SOL    HW326167   2.451   4.877   0.200 -0.1344 -1.1756  1.7110
 6600SOL    MW426168   2.518   4.888   0.255  0.6639  0.3883  0.5035
 6601SOL     OW26169   1.884   1.619   2.009 -0.4258 -0.5506 -0.2794
 6601SOL    HW226170   1.940   1.544   2.024 -0.7658 -0.5568  1.1097
 6601SOL    HW326171   1.858   1.648   2.096 -1.2614  0.4510 -0.8264
 6601SOL    MW426172   1.888   1.613   2.022 -0.5809 -0.4193 -0.1683
 6602SOL     OW26173   1.900   0.111   0.591 -0.2181  1.0861  0.5760
 6602SOL    HW226174   1.988   0.091   0.622 -0.4473 -1.1907 -0.0361
 6602SOL    HW326175   1.865   0.172   0.656  2.0450  2.6518  0.4103
 6602SOL    MW426176   1.907   0.116   0.604  0.0503  0.9923  0.4734
 6603SOL     OW26177   4.025   1.577   6.052  0.1456 -0.1583  0.0356
 6603SOL    HW226178   4.033   1.601   6.144  0.4960  3.2006 -0.7642
 6603SOL    HW326179   3.931   1.587   6.033 -0.4097 -3.2840  0.4901
 6603SOL    MW426180   4.014   1.581   6.062  0.1186 -0.1275 -0.0100
 6604SOL     OW26181   4.830   1.026   3.709 -0.2063  0.0800  0.2626
 6604SOL    HW226182   4.748   0.983   3.685 -1.2989  1.1935  1.7442
 6604SOL    HW326183   4.831   1.107   3.657  0.7856 -0.6705 -0.9396
 6604SOL    MW426184   4.820   1.031   3.699 -0.2196  0.1279  0.2995
 6605SOL     OW26185   1.313   5.410   2.534  0.0841 -0.0512  0.4390
 6605SOL    HW226186   1.374   5.454   2.593  0.9441 -1.6269  0.7935
 6605SOL    HW326187   1.359   5.331   2.507 -1.0401 -0.2996 -0.8758
 6605SOL    MW426188   1.327   5.406   2.538  0.0493 -0.2919  0.3123
 6606SOL     OW26189   2.449   5.095   1.395 -0.3087  0.0148 -0.4924
 6606SOL    HW226190   2.497   5.065   1.472  0.4854 -3.0517 -2.0282
 6606SOL    HW326191   2.516   5.105   1.327 -1.1188  1.6289 -1.1047
 6606SOL    MW426192   2.464   5.092   1.396 -0.3108 -0.1768 -0.7758
 6607SOL     OW26193   1.459   1.561   3.878  0.0204  0.2566  0.3396
 6607SOL    HW226194   1.431   1.492   3.818 -0.9620  1.1947 -0.3210
 6607SOL    HW326195   1.555   1.552   3.882  0.1298  0.2051 -1.4480
 6607SOL    MW426196   1.468   1.551   3.870 -0.0948  0.3736  0.0166
 6608SOL     OW26197   5.237   1.982   2.712  0.1177  0.1605 -0.4169
 6608SOL    HW226198   5.297   2.015   2.779  1.3989 -3.5650  0.4681
 6608SOL    HW326199   5.254   2.038   2.636  4.0298 -0.0022  0.1256
 6608SOL    MW426200   5.247   1.994   2.711  0.8029 -0.3525 -0.2285
 6609SOL     OW26201   4.816   3.799   2.823 -0.2465 -0.2205  0.0616
 6609SOL    HW226202   4.888   3.863   2.821 -0.0343 -0.4817 -1.1732
 6609SOL    HW326203   4.744   3.846   2.866  0.7034 -0.0288  1.5287
 6609SOL    MW426204   4.816   3.814   2.829 -0.0932 -0.2296  0.0922
 6610SOL     OW26205   0.015   1.552   3.576  0.5277  0.0463 -0.3303
 6610SOL    HW226206  -0.010   1.483   3.638  0.3673  1.2732  1.0043
 6610SOL    HW326207   0.102   1.580   3.604 -0.3395  1.9560  0.5988
 6610SOL    MW426208   0.023   1.546   3.588  0.3921  0.4602 -0.0317
 6611SOL     OW26209   3.684   5.392   3.491 -0.0141  0.1583 -0.7365
 6611SOL    HW226210   3.617   5.323   3.489  0.4765 -0.3023 -2.3963
 6611SOL    HW326211   3.660   5.446   3.566 -1.6686 -0.5659 -0.7035
 6611SOL    MW426212   3.672   5.390   3.501 -0.1677  0.0020 -0.9512
 6612SOL     OW26213   2.273   4.073   6.128 -0.4117 -0.2951  0.4441
 6612SOL    HW226214   2.209   4.123   6.079  0.0012  0.4728  0.6827
 6612SOL    HW326215   2.356   4.091   6.085 -0.1211 -0.0252  1.1106
 6612SOL    MW426216   2.275   4.082   6.115 -0.3189 -0.1582  0.5635
 6613SOL     OW26217   3.171   5.673   5.562  0.4593  0.4043 -0.2972
 6613SOL    HW226218   3.163   5.578   5.569  0.8169  0.2152 -2.0257
 6613SOL    HW326219   3.162   5.692   5.469 -1.5100  2.2785  0.1855
 6613SOL    MW426220   3.169   5.663   5.551  0.2466  0.6266 -0.4616
 6614SOL     OW26221   4.348   2.292   2.674 -0.3218  0.0399 -0.3133
 6614SOL    HW226222   4.348   2.242   2.755 -2.7215 -0.3098 -0.4847
 6614SOL    HW326223   4.385   2.377   2.699 -0.1221 -0.3861  0.9047
 6614SOL    MW426224   4.353   2.297   2.688 -0.6120 -0.0624 -0.1752
 6615SOL     OW26225   0.942   3.134   2.424 -0.0644 -0.0531 -0.0833
 6615SOL    HW226226   0.980   3.222   2.415  1.7197 -0.4162  2.6785
 6615SOL    HW326227   0.918   3.128   2.516  0.7782 -2.7945  0.0468
 6615SOL    MW426228   0.944   3.145   2.435  0.2822 -0.4627  0.2982
 6616SOL     OW26229   4.367   4.561   0.141 -0.1215  0.0748  0.0772
 6616SOL    HW226230   4.330   4.473   0.146 -2.2982  0.7971 -1.4883
 6616SOL    HW326231   4.420   4.559   0.061 -1.3320  0.5221 -0.7671
 6616SOL    MW426232   4.369   4.549   0.131 -0.5684  0.2291 -0.2408
 6617SOL     OW26233   5.489   2.550   0.330 -0.3866  0.6413 -0.2239
 6617SOL    HW226234   5.499   2.507   0.415  1.0945  0.0024 -0.6872
 6617SOL    HW326235   5.426   2.495   0.283  0.2578 -0.1175 -0.2193
 6617SOL    MW426236   5.482   2.537   0.335 -0.1062  0.4569 -0.2844
 6618SOL     OW26237   5.490   6.112   3.105 -0.4907  0.2638  0.0746
 6618SOL    HW226238   5.574   6.067   3.093 -0.5479  0.4504 -1.1391
 6618SOL    HW326239   5.514   6.197   3.143 -0.0307  0.6565 -1.0426
 6618SOL    MW426240   5.504   6.117   3.108 -0.4376  0.3402 -0.2329
 6619SOL     OW26241   6.028   2.655   6.261 -0.0731  0.2334  0.3260
 6619SOL    HW226242   6.023   2.750   6.264  0.9294  0.3147  3.2747
 6619SOL    HW326243   5.948   2.628   6.217 -0.7942  2.4228  0.1754
 6619SOL    MW426244   6.017   2.664   6.256 -0.0360  0.5330  0.6951
 6620SOL     OW26245   0.909   0.362   5.129 -0.2693 -0.1395 -0.0852
 6620SOL    HW226246   0.924   0.290   5.190  0.5751  1.1805  1.3387
 6620SOL    HW326247   0.832   0.407   5.163  0.4918  0.8909  0.3165
 6620SOL    MW426248   0.901   0.358   5.141 -0.0575  0.1706  0.1556
 6621SOL     OW26249   3.418   4.835   4.051 -0.1333 -0.0408 -0.0019
 6621SOL    HW226250   3.482   4.767   4.029 -0.3360 -1.1255  2.4533
 6621SOL    HW326251   3.471   4.913   4.067  0.3724 -0.3664 -0.0768
 6621SOL    MW426252   3.434   4.837   4.050 -0.0933 -0.2269  0.3121
 6622SOL     OW26253   4.308   6.405   4.572 -0.4589  0.0702 -0.7428
 6622SOL    HW226254   4.238   6.471   4.572  1.0354  1.7601 -0.5673
 6622SOL    HW326255   4.326   6.390   4.665 -0.5816 -0.3653 -0.7871
 6622SOL    MW426256   4.302   6.412   4.585 -0.2779  0.2357 -0.7255
 6623SOL     OW26257   4.444   5.717   4.705  0.7763  1.0743  0.1787
 6623SOL    HW226258   4.431   5.769   4.626  0.4041 -0.4673 -0.8309
 6623SOL    HW326259   4.382   5.754   4.768 -1.0758  0.5235 -1.2079
 6623SOL    MW426260   4.434   5.729   4.703  0.4828  0.7982 -0.1375
 6624SOL     OW26261   2.671   3.348   1.482  1.3146  0.1176  0.8101
 6624SOL    HW226262   2.762   3.377   1.477  1.2347  0.1403 -2.5449
 6624SOL    HW326263   2.619   3.427   1.468  0.8331 -0.2208  0.6659
 6624SOL    MW426264   2.676   3.362   1.480  1.2405  0.0759  0.3484
 6625SOL     OW26265   3.958   0.855   2.461  0.2115 -0.0537  0.4322
 6625SOL    HW226266   3.871   0.815   2.461 -0.8050  2.0057  1.4946
 6625SOL    HW326267   4.019   0.781   2.462 -1.5323 -1.5482  1.1832
 6625SOL    MW426268   3.955   0.840   2.461 -0.1527  0.0209  0.6715
 6626SOL     OW26269   0.721   4.768   5.392  0.2954  0.4170 -0.3834
 6626SOL    HW226270   0.627   4.765   5.409 -0.0262 -2.0544 -2.0304
 6626SOL    HW326271   0.728   4.755   5.297  2.3235  0.2567 -0.2460
 6626SOL    MW426272   0.710   4.766   5.382  0.5206  0.0698 -0.5826
 6627SOL     OW26273   5.325   0.777   5.092 -0.4207  0.0447  0.1627
 6627SOL    HW226274   5.312   0.853   5.147  0.5080  0.8000 -0.6399
 6627SOL    HW326275   5.315   0.810   5.002  0.3321 -0.6983 -0.2094
 6627SOL    MW426276   5.322   0.791   5.087 -0.1988  0.0463  0.0077
 6628SOL     OW26277   4.123   5.192   4.695  0.3571  0.1647  0.0687
 6628SOL    HW226278   4.090   5.133   4.626 -0.6555 -1.0282  1.5062
 6628SOL    HW326279   4.060   5.264   4.696 -0.8762 -0.8730  1.1224
 6628SOL    MW426280   4.110   5.193   4.686  0.0608 -0.1296  0.3974
 6629SOL     OW26281   5.839   4.147   4.577  0.4160  0.3250  0.2314
 6629SOL    HW226282   5.801   4.059   4.578 -0.1311  0.5225 -1.5261
 6629SOL    HW326283   5.928   4.135   4.611  0.1266 -0.7922  0.6253
 6629SOL    MW426284   5.846   4.134   4.582  0.3056  0.2036  0.0515
 6630SOL     OW26285   2.316   2.315   6.153 -0.3684 -0.2926 -0.0925
 6630SOL    HW226286   2.284   2.225   6.146 -0.7185 -0.1923  0.2089
 6630SOL    HW326287   2.274   2.349   6.231 -0.4287  0.2143 -0.3442
 6630SOL    MW426288   2.306   2.307   6.162 -0.4225 -0.2125 -0.0860
 6631SOL     OW26289   2.741   2.129   3.474  0.2518 -0.1470 -0.0934
 6631SOL    HW226290   2.744   2.146   3.380  0.0116 -0.7554 -0.2204
 6631SOL    HW326291   2.713   2.212   3.513 -2.3123 -0.5614 -0.8033
 6631SOL    MW426292   2.737   2.142   3.467 -0.1182 -0.2820 -0.2038
 6632SOL     OW26293   3.126   1.002   5.612 -0.0575 -0.0234 -0.4426
 6632SOL    HW226294   3.086   1.005   5.525  0.0256 -0.1635 -0.4868
 6632SOL    HW326295   3.094   1.081   5.656 -1.9484 -1.0974  0.2244
 6632SOL    MW426296   3.117   1.013   5.606 -0.2960 -0.1836 -0.3604
 6633SOL     OW26297   1.084   6.172   4.697  0.1715  0.3331 -0.0152
 6633SOL    HW226298   1.109   6.122   4.774  1.5301 -0.4932 -0.9469
 6633SOL    HW326299   0.997   6.141   4.675  0.4478 -0.6366  0.2271
 6633SOL    MW426300   1.076   6.162   4.704  0.3872  0.0962 -0.1062
 6634SOL     OW26301   2.078   2.176   1.124 -0.1772 -0.0588 -0.0181
 6634SOL    HW226302   2.019   2.200   1.052  0.3049 -0.9501 -0.7365
 6634SOL    HW326303   2.165   2.195   1.091  0.0586 -0.6176  0.2715
 6634SOL    MW426304   2.082   2.182   1.110 -0.0825 -0.2501 -0.0747
 6635SOL     OW26305   3.757   5.460   5.117  0.5554  0.5602  0.0779
 6635SOL    HW226306   3.694   5.499   5.178  0.2357  0.1841 -0.0035
 6635SOL    HW326307   3.717   5.474   5.030 -0.4264 -1.4514  0.1565
 6635SOL    MW426308   3.743   5.467   5.113  0.3837  0.2452  0.0775
 6636SOL     OW26309   3.937   2.195   0.610  0.3641 -1.0063  0.4598
 6636SOL    HW226310   3.879   2.182   0.535 -1.6517 -0.1405  1.7866
 6636SOL    HW326311   3.978   2.280   0.593 -0.8255 -0.3471  0.7616
 6636SOL    MW426312   3.934   2.204   0.598 -0.0588 -0.8051  0.6746
 6637SOL     OW26313   4.466   2.768   2.639 -0.0067  0.4096  0.1053
 6637SOL    HW226314   4.430   2.739   2.555  0.8991 -0.5556  0.0394
 6637SOL    HW326315   4.429   2.708   2.704 -0.2548  0.8067  0.3453
 6637SOL    MW426316   4.456   2.757   2.637  0.0801  0.3347  0.1282
 6638SOL     OW26317   0.958   3.716   4.062 -0.1482 -0.1140 -0.2798
 6638SOL    HW226318   1.024   3.696   3.995  0.2295  0.2324 -0.0189
 6638SOL    HW326319   0.941   3.810   4.052  0.0504 -0.0172  0.2235
 6638SOL    MW426320   0.964   3.726   4.052 -0.0722 -0.0555 -0.1790
 6639SOL     OW26321   0.439   5.715   3.448  0.0678 -0.2379 -0.5334
 6639SOL    HW226322   0.529   5.687   3.431 -0.7544 -2.8684 -1.0808
 6639SOL    HW326323   0.405   5.740   3.363  0.3423  1.0486 -0.2793
 6639SOL    MW426324   0.446   5.714   3.435 -0.0045 -0.4152 -0.5721
 6640SOL     OW26325   2.570   4.888   3.889  0.1900  0.7118 -0.2021
 6640SOL    HW226326   2.496   4.893   3.949  0.0749 -2.1431  0.0176
 6640SOL    HW326327   2.646   4.911   3.943 -0.2641  1.2688  0.2069
 6640SOL    MW426328   2.571   4.892   3.904  0.1149  0.4086 -0.1192
 6641SOL     OW26329   0.620   6.347   0.107 -0.0618  0.7928  0.5408
 6641SOL    HW226330   0.614   6.276   0.043  0.2578  0.5238  0.8061
 6641SOL    HW326331   0.529   6.371   0.123 -0.1467  0.9039 -0.0561
 6641SOL    MW426332   0.607   6.340   0.100 -0.0308  0.7720  0.4971
 6642SOL     OW26333   2.830   0.875   5.608  0.8652 -0.4654 -0.2073
 6642SOL    HW226334   2.779   0.822   5.547  1.0434  0.9713 -1.6712
 6642SOL    HW326335   2.918   0.838   5.602  0.6910 -0.8972 -0.1484
 6642SOL    MW426336   2.835   0.863   5.599  0.8657 -0.3328 -0.3927
 6643SOL     OW26337   0.784   6.313   1.630  0.3878  0.1315  0.0037
 6643SOL    HW226338   0.707   6.315   1.573 -0.9473  0.4883  1.7312
 6643SOL    HW326339   0.791   6.222   1.659  0.8904  0.0123 -0.4654
 6643SOL    MW426340   0.775   6.301   1.626  0.2780  0.1629  0.1697
 6644SOL     OW26341   0.813   4.026   2.271 -0.4627 -0.2838  0.1890
 6644SOL    HW226342   0.882   4.013   2.205  0.5187  2.8001  0.4411
 6644SOL    HW326343   0.732   4.001   2.226  0.5567 -2.1643 -0.7507
 6644SOL    MW426344   0.811   4.021   2.256 -0.1987 -0.1250  0.0983
 6645SOL     OW26345   0.904   2.913   0.908  0.1546  0.0623 -1.1873
 6645SOL    HW226346   0.905   2.824   0.873  1.6155 -0.1734 -0.6090
 6645SOL    HW326347   0.954   2.964   0.845  0.0181  0.3090 -1.0985
 6645SOL    MW426348   0.911   2.908   0.895  0.3293  0.0638 -1.0993
 6646SOL     OW26349   4.995   2.529   2.503  0.6502  0.2255  0.6944
 6646SOL    HW226350   5.014   2.580   2.424  0.7416  0.0134  0.5795
 6646SOL    HW326351   4.920   2.474   2.479  0.5611  0.2954  0.8128
 6646SOL    MW426352   4.987   2.528   2.490  0.6505  0.2068  0.6949
 6647SOL     OW26353   1.432   3.743   6.140 -0.5755 -0.0661  0.3714
 6647SOL    HW226354   1.396   3.826   6.173 -0.6108 -0.5644  1.6294
 6647SOL    HW326355   1.389   3.731   6.056  0.5663  1.9536 -0.5774
 6647SOL    MW426356   1.421   3.753   6.134 -0.4295  0.1346  0.4122
 6648SOL     OW26357   6.134   5.930   4.235 -0.5168 -0.7017 -0.4008
 6648SOL    HW226358   6.167   5.996   4.174  1.3344 -0.3856  0.8740
 6648SOL    HW326359   6.197   5.858   4.229 -1.5595 -1.6473 -0.4767
 6648SOL    MW426360   6.147   5.929   4.226 -0.4101 -0.7848 -0.2426
 6649SOL     OW26361   1.736   4.745   4.464  0.4686  0.3008 -0.4412
 6649SOL    HW226362   1.777   4.816   4.511  0.6675  0.0403 -0.2178
 6649SOL    HW326363   1.657   4.783   4.425 -0.1223  0.3328  0.7522
 6649SOL    MW426364   1.731   4.759   4.465  0.4169  0.2707 -0.2543
 6650SOL     OW26365   0.561   5.648   4.731  0.4810  0.2906 -0.0426
 6650SOL    HW226366   0.533   5.680   4.646 -2.6848 -2.8539 -0.4412
 6650SOL    HW326367   0.498   5.684   4.793  1.2927  0.6232  0.6085
 6650SOL    MW426368   0.549   5.657   4.728  0.1704 -0.0804 -0.0093
 6651SOL     OW26369   1.019   5.023   0.698 -0.3118 -0.2331 -0.5232
 6651SOL    HW226370   0.953   4.999   0.763  1.7092 -2.5549  0.8527
 6651SOL    HW326371   0.992   4.979   0.618 -1.4779  0.5686 -0.5953
 6651SOL    MW426372   1.007   5.014   0.696 -0.1990 -0.4337 -0.3512
 6652SOL     OW26373   0.324   3.528   5.654 -0.7063 -0.2370 -0.6647
 6652SOL    HW226374   0.328   3.497   5.564 -0.0451  0.5647 -0.9185
 6652SOL    HW326375   0.334   3.449   5.707  0.6657 -0.5202 -1.3002
 6652SOL    MW426376   0.326   3.513   5.649 -0.4381 -0.1686 -0.7820
 6653SOL     OW26377   4.438   5.796   3.478  0.0983 -0.2107  0.3334
 6653SOL    HW226378   4.488   5.858   3.424  2.0546 -1.1350  0.9769
 6653SOL    HW326379   4.495   5.719   3.484  0.1870 -0.0370  3.9619
 6653SOL    MW426380   4.452   5.794   3.472  0.3681 -0.3097  0.8970
 6654SOL     OW26381   4.642   4.931   1.107  0.0092  0.1642 -0.6889
 6654SOL    HW226382   4.705   4.860   1.118 -0.4107  0.0075  1.0385
 6654SOL    HW326383   4.584   4.901   1.037  1.6993  0.2549 -2.2234
 6654SOL    MW426384   4.643   4.918   1.099  0.1768  0.1555 -0.6634
 6655SOL     OW26385   5.300   6.346   2.151  0.3471 -0.2695  0.1821
 6655SOL    HW226386   5.226   6.304   2.194 -0.6284  0.3075 -0.8879
 6655SOL    HW326387   5.281   6.337   2.057 -0.2847  3.1907 -0.1195
 6655SOL    MW426388   5.288   6.339   2.144  0.1350  0.2632  0.0012
 6656SOL     OW26389   5.123   4.076   6.197  0.3066 -0.4029 -0.1742
 6656SOL    HW226390   5.198   4.089   6.140  0.2885 -0.4702 -0.2137
 6656SOL    HW326391   5.050   4.119   6.152  0.7639  1.6209  0.8994
 6656SOL    MW426392   5.123   4.084   6.184  0.3646 -0.1447 -0.0377
 6657SOL     OW26393   5.659   5.018   6.357 -0.4365  0.3137 -0.4048
 6657SOL    HW226394   5.731   4.976   6.311 -1.5203  0.6484 -2.5638
 6657SOL    HW326395   5.647   4.966   6.437  1.0588 -0.7778 -0.8496
 6657SOL    MW426396   5.667   5.006   6.362 -0.3822  0.2139 -0.7483
 6658SOL     OW26397   0.419   2.838   0.813 -0.0839  0.0854  0.1007
 6658SOL    HW226398   0.440   2.748   0.838 -1.2211 -0.4710 -0.8607
 6658SOL    HW326399   0.499   2.887   0.830  0.9734 -1.3509 -0.5878
 6658SOL    MW426400   0.432   2.833   0.819 -0.0945 -0.1775 -0.1170
 6659SOL     OW26401   2.392   0.721   3.946 -0.2727  0.3204  0.0308
 6659SOL    HW226402   2.456   0.698   4.014 -0.7481 -1.8269 -0.1753
 6659SOL    HW326403   2.311   0.678   3.974 -0.6318 -0.0916 -1.5653
 6659SOL    MW426404   2.390   0.712   3.959 -0.3828 -0.0172 -0.2070
 6660SOL     OW26405   4.942   3.311   1.897 -0.2162  0.5482  0.3604
 6660SOL    HW226406   4.950   3.216   1.909  1.0632  0.6432  0.3946
 6660SOL    HW326407   4.851   3.324   1.869 -1.3221 -0.3724  3.1777
 6660SOL    MW426408   4.931   3.300   1.895 -0.1934  0.4393  0.7366
 6661SOL     OW26409   5.379   1.523   3.350 -0.2218  0.3457 -0.3619
 6661SOL    HW226410   5.349   1.579   3.422  0.6851 -0.8532  1.0184
 6661SOL    HW326411   5.474   1.522   3.358 -0.1615 -0.5677 -0.9797
 6661SOL    MW426412   5.388   1.530   3.361 -0.0942  0.0670 -0.2613
 6662SOL     OW26413   2.862   4.649   6.045 -0.2959  0.2844  0.0892
 6662SOL    HW226414   2.868   4.572   6.101  1.7348  0.5253  0.2462
 6662SOL    HW326415   2.769   4.674   6.050 -0.9082 -1.8343  0.4076
 6662SOL    MW426416   2.850   4.643   6.053 -0.1088  0.0367  0.1519
 6663SOL     OW26417   3.470   5.448   1.136 -0.6844  0.0588  0.1864
 6663SOL    HW226418   3.518   5.366   1.127 -1.8417 -0.5547 -0.9172
 6663SOL    HW326419   3.390   5.434   1.084 -0.8527  1.9267 -0.1315
 6663SOL    MW426420   3.465   5.435   1.128 -0.8593  0.2243 -0.0012
 6664SOL     OW26421   6.102   2.468   5.329  0.3764  0.0481  0.2266
 6664SOL    HW226422   6.130   2.391   5.280 -1.3478 -0.6126  0.2157
 6664SOL    HW326423   6.136   2.454   5.418  0.7104 -0.3443  0.0396
 6664SOL    MW426424   6.110   2.456   5.335  0.1930 -0.0909  0.2005
 6665SOL     OW26425   4.542   0.537   3.882 -0.1224 -0.5661 -0.1936
 6665SOL    HW226426   4.463   0.511   3.930 -0.0205 -0.2531  0.1489
 6665SOL    HW326427   4.606   0.469   3.904 -0.5359 -1.2922 -1.1485
 6665SOL    MW426428   4.540   0.525   3.891 -0.1635 -0.6206 -0.2744
 6666SOL     OW26429   1.145   6.214   2.950 -0.0916 -0.0712  0.0256
 6666SOL    HW226430   1.187   6.210   3.036  0.7744 -1.6499 -0.4441
 6666SOL    HW326431   1.052   6.203   2.969  0.2267 -1.9401  0.6791
 6666SOL    MW426432   1.138   6.212   2.964  0.0647 -0.5261  0.0498
 6667SOL     OW26433   2.054   5.483   4.102 -0.3662  0.2898  0.2742
 6667SOL    HW226434   1.994   5.552   4.131 -1.4847 -0.3133 -0.5624
 6667SOL    HW326435   2.103   5.461   4.181 -1.6330  0.4121  1.1287
 6667SOL    MW426436   2.052   5.489   4.117 -0.6809  0.2263  0.2766
 6668SOL     OW26437   5.010   5.859   3.955  0.2698  0.0425  0.0924
 6668SOL    HW226438   5.019   5.838   4.048  1.4847 -0.6059 -0.1486
 6668SOL    HW326439   5.099   5.850   3.920  0.4477  3.2342 -0.5603
 6668SOL    MW426440   5.023   5.855   3.963  0.4536  0.3781 -0.0255
 6669SOL     OW26441   5.182   5.682   4.430 -0.5532  0.3008  0.0764
 6669SOL    HW226442   5.202   5.751   4.493 -0.7403  0.6512 -0.2445
 6669SOL    HW326443   5.262   5.673   4.378 -0.7970  0.8507 -0.4114
 6669SOL    MW426444   5.196   5.690   4.431 -0.6101  0.4196 -0.0303
 6670SOL     OW26445   4.471   0.284   6.186  0.0799 -0.7612 -0.6119
 6670SOL    HW226446   4.554   0.284   6.235  1.3348 -1.5570 -2.5938
 6670SOL    HW326447   4.446   0.376   6.181  1.3336 -0.4012 -0.6850
 6670SOL    MW426448   4.479   0.296   6.191  0.4109 -0.8187 -0.8830
 6671SOL     OW26449   1.170   4.778   0.894 -0.5735 -0.2858  0.3000
 6671SOL    HW226450   1.155   4.834   0.970  0.2829  1.3474 -0.6679
 6671SOL    HW326451   1.213   4.836   0.830 -1.0955 -1.6401 -1.3520
 6671SOL    MW426452   1.173   4.793   0.895 -0.5294 -0.2490 -0.0457
 6672SOL     OW26453   1.753   1.652   3.566 -0.1197 -0.5678 -0.2614
 6672SOL    HW226454   1.823   1.696   3.518  0.3388  1.1626  1.8139
 6672SOL    HW326455   1.796   1.582   3.614 -0.1280 -0.6797 -0.4186
 6672SOL    MW426456   1.768   1.649   3.566 -0.0603 -0.3543 -0.0083
 6673SOL     OW26457   5.132   1.109   3.846  0.7045 -0.3012 -0.4523
 6673SOL    HW226458   5.199   1.047   3.875  0.1733 -0.3752  0.6647
 6673SOL    HW326459   5.049   1.067   3.868  0.2042 -0.6299 -2.6533
 6673SOL    MW426460   5.130   1.096   3.852  0.5684 -0.3543 -0.5953
 6674SOL     OW26461   0.145   1.804   1.892 -0.0826  0.6583  0.2591
 6674SOL    HW226462   0.158   1.766   1.979  1.0350 -1.2523 -0.6989
 6674SOL    HW326463   0.233   1.816   1.857 -0.4950  2.0500 -0.3888
 6674SOL    MW426464   0.158   1.801   1.899  0.0105  0.5898  0.0472
 6675SOL     OW26465   4.212   2.456   0.309 -0.0930 -0.2367 -0.0627
 6675SOL    HW226466   4.284   2.519   0.305  0.6934 -1.2010 -3.2294
 6675SOL    HW326467   4.245   2.387   0.366  0.4413  0.5205  0.5791
 6675SOL    MW426468   4.226   2.456   0.316  0.0813 -0.2640 -0.3959
 6676SOL     OW26469   5.063   3.899   3.320 -0.9699 -0.0294  0.0527
 6676SOL    HW226470   5.118   3.821   3.307 -0.1582  0.5085  0.1723
 6676SOL    HW326471   5.124   3.972   3.314 -1.7455  0.6073 -0.1568
 6676SOL    MW426472   5.078   3.898   3.318 -0.9651  0.1256  0.0408
 6677SOL     OW26473   0.116   4.009   5.112 -0.1584  0.3056 -0.4933
 6677SOL    HW226474   0.043   4.057   5.072 -0.9140  0.5711  1.1476
 6677SOL    HW326475   0.115   4.035   5.204  1.3642 -0.5040 -0.2134
 6677SOL    MW426476   0.106   4.018   5.119 -0.0572  0.2338 -0.2399
 6678SOL     OW26477   5.960   2.270   2.013 -0.2396 -0.2071  0.0639
 6678SOL    HW226478   5.947   2.349   1.960 -1.8789 -1.1053 -0.9779
 6678SOL    HW326479   6.044   2.235   1.983  0.4623  1.0599  0.4706
 6678SOL    MW426480   5.969   2.276   2.002 -0.3633 -0.1584 -0.0199
 6679SOL     OW26481   1.499   5.224   4.343  0.0479  0.0685  0.1894
 6679SOL    HW226482   1.513   5.197   4.434  0.5533  0.2470  0.1664
 6679SOL    HW326483   1.583   5.209   4.301 -0.9764 -3.0151 -1.0371
 6679SOL    MW426484   1.512   5.218   4.350 -0.0206 -0.3148  0.0245
 6680SOL     OW26485   2.636   3.763   3.559  0.3216  0.0329 -0.1144
 6680SOL    HW226486   2.679   3.678   3.565 -1.6437 -1.0702 -0.9544
 6680SOL    HW326487   2.543   3.743   3.550 -0.7671  2.3286  3.6839
 6680SOL    MW426488   2.630   3.749   3.559 -0.0813  0.1902  0.2759
 6681SOL     OW26489   2.910   1.150   0.995  0.5963 -0.5535  0.3105
 6681SOL    HW226490   2.957   1.157   1.077 -0.3943  0.7403  0.8032
 6681SOL    HW326491   2.818   1.163   1.018  0.4790  2.0284 -1.2230
 6681SOL    MW426492   2.904   1.153   1.009  0.4502 -0.0422  0.1732
 6682SOL     OW26493   5.280   2.313   0.534 -0.2044 -0.0066  0.0105
 6682SOL    HW226494   5.264   2.289   0.442 -1.2400 -1.3312  0.4983
 6682SOL    HW326495   5.263   2.407   0.537  0.1056  0.1154 -1.2009
 6682SOL    MW426496   5.275   2.322   0.522 -0.3002 -0.1653 -0.0850
 6683SOL     OW26497   2.933   6.009   5.593  0.7474 -0.4823 -0.3150
 6683SOL    HW226498   2.935   5.919   5.562 -0.1666 -0.7066  0.2155
 6683SOL    HW326499   2.869   6.053   5.537 -0.1650 -0.6386  0.5755
 6683SOL    MW426500   2.925   6.003   5.582  0.5064 -0.5325 -0.1275
 6684SOL     OW26501   1.985   1.942   4.198 -0.6738 -0.1438 -0.1756
 6684SOL    HW226502   1.998   2.029   4.158 -1.5909  0.0063 -0.1656
 6684SOL    HW326503   1.890   1.933   4.205 -0.6539 -1.6954 -1.3765
 6684SOL    MW426504   1.975   1.953   4.193 -0.7922 -0.3287 -0.3327
 6685SOL     OW26505   2.939   5.919   3.536  0.5517  0.1938  0.5429
 6685SOL    HW226506   2.846   5.905   3.520 -0.0955  4.8469 -1.2344
 6685SOL    HW326507   2.983   5.876   3.463 -0.6018  1.1589 -0.7770
 6685SOL    MW426508   2.933   5.912   3.524  0.3141  0.9350  0.1343
 6686SOL     OW26509   5.508   4.029   5.417 -0.2707 -0.5446 -0.0740
 6686SOL    HW226510   5.421   4.004   5.386 -0.2400 -1.3377  0.4494
 6686SOL    HW326511   5.537   3.954   5.470  0.5445 -0.1033  0.1187
 6686SOL    MW426512   5.500   4.016   5.420 -0.1591 -0.5910  0.0204
 6687SOL     OW26513   5.036   4.401   0.080  0.1971  0.0926 -0.5883
 6687SOL    HW226514   5.127   4.375   0.065  0.4365 -0.2096  1.1501
 6687SOL    HW326515   5.031   4.415   0.175 -1.3466  0.9892 -0.7810
 6687SOL    MW426516   5.048   4.399   0.091  0.0250  0.1710 -0.3844
 6688SOL     OW26517   3.316   5.001   2.300  0.2912 -0.1198 -0.0161
 6688SOL    HW226518   3.327   4.923   2.354  1.5424 -0.0775 -0.1909
 6688SOL    HW326519   3.402   5.016   2.260 -0.2004  0.7453 -0.8015
 6688SOL    MW426520   3.329   4.993   2.302  0.3914 -0.0001 -0.1428
 6689SOL     OW26521   5.608   3.733   6.273 -0.2760 -0.2313 -0.8493
 6689SOL    HW226522   5.571   3.790   6.341 -1.0103 -0.7171 -0.8397
 6689SOL    HW326523   5.550   3.744   6.198 -0.1409 -0.5968 -1.0098
 6689SOL    MW426524   5.596   3.742   6.272 -0.3550 -0.3436 -0.8692
 6690SOL     OW26525   0.202   1.905   4.562  0.5383 -0.1599 -0.7898
 6690SOL    HW226526   0.210   1.929   4.469 -0.8472  2.5207 -0.2956
 6690SOL    HW326527   0.289   1.872   4.585  0.5186 -2.3360 -3.3612
 6690SOL    MW426528   0.215   1.904   4.553  0.3529 -0.0933 -1.0638
 6691SOL     OW26529   0.297   1.089   6.234  0.3525 -0.2003 -0.2474
 6691SOL    HW226530   0.313   1.022   6.301  0.2205  2.0254  2.1995
 6691SOL    HW326531   0.382   1.129   6.218  0.2611 -0.2580 -0.9134
 6691SOL    MW426532   0.310   1.085   6.241  0.3230  0.0858 -0.0125
 6692SOL     OW26533   2.029   0.349   2.458 -0.2657 -0.3247  0.6740
 6692SOL    HW226534   2.089   0.314   2.523  1.0430 -0.1228 -0.3954
 6692SOL    HW326535   2.007   0.274   2.403  0.9891  0.0953 -0.4331
 6692SOL    MW426536   2.034   0.334   2.459  0.0725 -0.2427  0.3868
 6693SOL     OW26537   3.168   2.166   0.003 -0.2932 -0.3943  0.4516
 6693SOL    HW226538   3.221   2.246   0.006  1.0746 -1.2139 -0.4300
 6693SOL    HW326539   3.081   2.194   0.030  0.2256  1.3255  0.4950
 6693SOL    MW426540   3.164   2.181   0.007 -0.0443 -0.2755  0.3410
 6694SOL     OW26541   2.202   5.885   3.914  0.2102 -0.6554  0.7331
 6694SOL    HW226542   2.237   5.968   3.948 -3.4773  2.0630 -1.3491
 6694SOL    HW326543   2.218   5.888   3.820 -0.0506 -2.3312  0.6004
 6694SOL    MW426544   2.208   5.897   3.906 -0.3107 -0.5178  0.4408
 6695SOL     OW26545   0.552   6.246   1.150  0.1857 -0.1412  0.1690
 6695SOL    HW226546   0.496   6.209   1.218  0.4446  0.3135  0.6347
 6695SOL    HW326547   0.617   6.298   1.198  0.0636  0.5987 -0.4545
 6695SOL    MW426548   0.553   6.248   1.165  0.2038  0.0164  0.1482
 6696SOL     OW26549   2.243   3.771   4.473 -0.5867 -0.6057  0.4416
 6696SOL    HW226550   2.156   3.758   4.435  0.0084 -0.2615 -1.1082
 6696SOL    HW326551   2.226   3.815   4.557 -1.9503 -1.4851  0.6613
 6696SOL    MW426552   2.229   3.775   4.479 -0.6881 -0.6763  0.2661
 6697SOL     OW26553   0.987   4.287   2.286 -0.2601  0.9065  0.6024
 6697SOL    HW226554   0.912   4.234   2.312  0.1221  0.2272  0.3406
 6697SOL    HW326555   1.022   4.323   2.368  1.4142 -1.8428  1.2159
 6697SOL    MW426556   0.982   4.285   2.300  0.0113  0.4542  0.6488
 6698SOL     OW26557   2.570   5.650   4.983  0.2291 -0.2730  0.4513
 6698SOL    HW226558   2.610   5.736   4.971 -0.1882 -0.2480 -0.9109
 6698SOL    HW326559   2.519   5.636   4.903 -2.0413 -0.5378  1.8734
 6698SOL    MW426560   2.569   5.660   4.971 -0.1255 -0.3046  0.4592
 6699SOL     OW26561   1.867   1.828   0.503 -0.1823 -0.0305  0.0518
 6699SOL    HW226562   1.920   1.804   0.428  0.1453  2.6251 -0.6841
 6699SOL    HW326563   1.777   1.825   0.470 -0.1118  0.1522 -0.1640
 6699SOL    MW426564   1.862   1.825   0.489 -0.1298  0.3440 -0.0738
 6700SOL     OW26565   0.367   3.127   0.624 -0.0242  0.2816 -0.0606
 6700SOL    HW226566   0.357   3.150   0.716 -1.0126  1.8116 -0.5112
 6700SOL    HW326567   0.291   3.167   0.581  0.6565 -0.0125 -1.6095
 6700SOL    MW426568   0.356   3.135   0.630 -0.0648  0.4447 -0.3244
 6701SOL     OW26569   3.164   6.144   2.092 -0.6443 -0.4891  0.4325
 6701SOL    HW226570   3.165   6.197   2.171 -1.2815 -0.5660  0.4939
 6701SOL    HW326571   3.231   6.077   2.106  0.0233  0.1650  0.4402
 6701SOL    MW426572   3.173   6.142   2.104 -0.6403 -0.4130  0.4416
 6702SOL     OW26573   1.897   0.451   2.106 -0.1689 -0.2014 -0.0580
 6702SOL    HW226574   1.950   0.471   2.029  0.5091  0.6117  0.6066
 6702SOL    HW326575   1.917   0.521   2.168 -1.3391 -0.3874  0.5498
 6702SOL    MW426576   1.907   0.463   2.104 -0.2338 -0.1186  0.1099
 6703SOL     OW26577   0.536   4.768   4.688  0.2000  0.3096 -0.0056
 6703SOL    HW226578   0.479   4.831   4.642 -1.4995 -0.5357  0.8265
 6703SOL    HW326579   0.475   4.714   4.737  1.7719 -0.7616  0.8217
 6703SOL    MW426580   0.520   4.769   4.688  0.1831  0.0567  0.2133
 6704SOL     OW26581   1.528   2.607   0.482  0.7423 -0.2330 -0.3517
 6704SOL    HW226582   1.513   2.562   0.399  0.7065  1.2034 -1.1684
 6704SOL    HW326583   1.471   2.684   0.478 -0.3993 -0.8947  1.6857
 6704SOL    MW426584   1.518   2.611   0.470  0.5870 -0.1308 -0.1907
 6705SOL     OW26585   1.185   3.154   0.522 -0.3256  0.3017  0.3017
 6705SOL    HW226586   1.273   3.147   0.558  0.2095  0.2976 -0.9512
 6705SOL    HW326587   1.177   3.080   0.462 -1.3338  0.0650  0.7084
 6705SOL    MW426588   1.195   3.144   0.518 -0.3880  0.2699  0.1901
 6706SOL     OW26589   4.565   0.962   3.052  0.4514  0.2550  0.2053
 6706SOL    HW226590   4.567   1.025   2.980  0.6395  1.1123  0.9387
 6706SOL    HW326591   4.611   0.885   3.018  0.4449  0.6052 -0.6200
 6706SOL    MW426592   4.571   0.960   3.038  0.4754  0.4143  0.1931
 6707SOL     OW26593   3.169   1.548   6.311  0.0646 -0.5632 -0.1755
 6707SOL    HW226594   3.202   1.605   6.381  0.9361  0.0425 -1.0378
 6707SOL    HW326595   3.082   1.522   6.340 -0.2307  0.9439  0.4271
 6707SOL    MW426596   3.162   1.552   6.324  0.1407 -0.2845 -0.2097
 6708SOL     OW26597   0.543   2.590   4.523  0.2349  0.4695  0.2572
 6708SOL    HW226598   0.580   2.541   4.450 -0.5833 -1.7858  1.2724
 6708SOL    HW326599   0.489   2.657   4.482 -1.2159 -1.5219 -1.2797
 6708SOL    MW426600   0.541   2.592   4.508 -0.0644 -0.0908  0.1884
 6709SOL     OW26601   3.062   3.900   5.243 -0.2983  0.0501 -0.4851
 6709SOL    HW226602   3.127   3.834   5.219 -0.7400 -0.6269  0.1448
 6709SOL    HW326603   3.008   3.858   5.309 -0.1915  1.2647  0.4216
 6709SOL    MW426604   3.064   3.886   5.248 -0.3425  0.1211 -0.2824
 6710SOL     OW26605   1.065   1.281   0.753  0.0576  0.5601  0.6853
 6710SOL    HW226606   1.111   1.364   0.736  1.5217 -0.3562 -0.0728
 6710SOL    HW326607   1.074   1.232   0.672 -1.8940  0.1284  0.7015
 6710SOL    MW426608   1.072   1.285   0.740 -0.0068  0.3823  0.5874
 6711SOL     OW26609   4.988   2.150   2.689  0.1809  0.3541 -0.2724
 6711SOL    HW226610   5.061   2.088   2.687  1.0748  1.3489  0.4547
 6711SOL    HW326611   4.961   2.158   2.598 -0.4249 -1.6100 -0.3129
 6711SOL    MW426612   4.994   2.143   2.677  0.2189  0.2262 -0.1818
 6712SOL     OW26613   0.815   4.503   4.937  0.2212 -0.0172  0.1424
 6712SOL    HW226614   0.775   4.430   4.984  0.3169 -1.5156 -1.9992
 6712SOL    HW326615   0.904   4.507   4.970 -0.3757  0.5547  1.7987
 6712SOL    MW426616   0.821   4.494   4.948  0.1551 -0.1394  0.0784
 6713SOL     OW26617   0.711   3.448   4.803 -0.1840  0.0783  0.2323
 6713SOL    HW226618   0.795   3.494   4.798 -0.4978  0.7184  0.6186
 6713SOL    HW326619   0.680   3.445   4.713 -0.2103  0.7311  0.2164
 6713SOL    MW426620   0.718   3.454   4.791 -0.2289  0.2489  0.2812
 6714SOL     OW26621   5.251   5.058   5.059  0.2436  0.0284  0.0953
 6714SOL    HW226622   5.303   5.139   5.056 -1.3902  1.1011 -0.5463
 6714SOL    HW326623   5.199   5.065   5.139  2.2622 -1.8765  1.7091
 6714SOL    MW426624   5.251   5.069   5.069  0.2943 -0.0814  0.2235
 6715SOL     OW26625   1.103   1.247   1.096  0.1228 -0.0913 -0.0253
 6715SOL    HW226626   1.178   1.208   1.141 -1.1866 -1.1737  1.2992
 6715SOL    HW326627   1.092   1.193   1.018  1.5288  0.9416 -1.0195
 6715SOL    MW426628   1.112   1.235   1.091  0.1355 -0.0979  0.0183
 6716SOL     OW26629   1.108   5.813   4.789  0.4098 -0.0626  0.3248
 6716SOL    HW226630   1.176   5.848   4.731  1.2416 -0.5275  1.0046
 6716SOL    HW326631   1.071   5.740   4.740 -0.2335  0.7335 -0.4223
 6716SOL    MW426632   1.112   5.808   4.775  0.4346 -0.0189  0.3160
 6717SOL     OW26633   6.153   1.278   0.507 -0.0251 -0.0126 -0.1513
 6717SOL    HW226634   6.246   1.272   0.528 -0.3159 -2.6871  0.7353
 6717SOL    HW326635   6.109   1.251   0.587 -1.5662  0.4419 -0.8098
 6717SOL    MW426636   6.160   1.274   0.520 -0.2668 -0.3055 -0.1212
 6718SOL     OW26637   3.299   4.913   1.293  0.7128  0.4715 -0.1099
 6718SOL    HW226638   3.368   4.851   1.268  0.0181 -0.5233  0.3668
 6718SOL    HW326639   3.346   4.984   1.337  1.5140  0.2216 -0.5356
 6718SOL    MW426640   3.314   4.914   1.296  0.7269  0.3073 -0.1032
 6719SOL     OW26641   5.925   3.446   0.415 -0.1481 -0.3814  0.2148
 6719SOL    HW226642   5.913   3.379   0.347  1.3962  0.9722 -1.5081
 6719SOL    HW326643   5.862   3.514   0.393  0.2569 -0.0032  0.2061
 6719SOL    MW426644   5.915   3.446   0.403  0.1091 -0.1529 -0.0136
 6720SOL     OW26645   3.237   2.943   5.549  0.2737  0.0885 -0.2789
 6720SOL    HW226646   3.329   2.923   5.532  0.0809 -2.9489  1.5720
 6720SOL    HW326647   3.233   2.961   5.643 -1.4054 -3.3637  0.4687
 6720SOL    MW426648   3.248   2.943   5.559  0.0267 -0.7677  0.0640
 6721SOL     OW26649   3.265   5.927   0.744  0.3657  0.1930  0.1592
 6721SOL    HW226650   3.271   5.835   0.771  1.1028  0.5603  1.3393
 6721SOL    HW326651   3.172   5.944   0.738  0.2188 -0.6004  0.0391
 6721SOL    MW426652   3.254   5.917   0.747  0.4435  0.1368  0.2991
 6722SOL     OW26653   0.338   1.804   2.857  0.4410 -0.4406  0.1434
 6722SOL    HW226654   0.418   1.784   2.807  0.5879 -0.1021  0.2384
 6722SOL    HW326655   0.316   1.893   2.831 -0.2198 -0.7193 -0.2970
 6722SOL    MW426656   0.346   1.813   2.847  0.3732 -0.4327  0.0978
 6723SOL     OW26657   4.027   5.898   6.185 -0.7428 -0.1657 -0.3972
 6723SOL    HW226658   4.039   5.887   6.091 -0.1210  1.2998 -0.5083
 6723SOL    HW326659   3.956   5.962   6.193 -0.6097 -0.0803  0.1367
 6723SOL    MW426660   4.019   5.905   6.174 -0.6432  0.0389 -0.3414
 6724SOL     OW26661   5.852   1.779   0.552  0.0505 -0.0808  0.3504
 6724SOL    HW226662   5.883   1.863   0.518  0.2354 -0.2336  0.1327
 6724SOL    HW326663   5.772   1.761   0.502 -0.9827  0.7997  1.6183
 6724SOL    MW426664   5.846   1.787   0.541 -0.0614  0.0152  0.4889
 6725SOL     OW26665   1.744   6.428   2.572  0.0690 -0.0788 -0.2757
 6725SOL    HW226666   1.716   6.510   2.532 -0.9962  0.8558  2.1634
 6725SOL    HW326667   1.836   6.443   2.593 -0.3779  1.0142  1.1409
 6725SOL    MW426668   1.752   6.441   2.569 -0.1305  0.1887  0.2330
 6726SOL     OW26669   1.207   3.870   4.647 -0.1034  0.2950  0.1251
 6726SOL    HW226670   1.268   3.942   4.658 -0.9027  1.3675 -1.9479
 6726SOL    HW326671   1.240   3.821   4.571 -0.7350 -0.2702  0.1970
 6726SOL    MW426672   1.219   3.873   4.638 -0.2922  0.3620 -0.1389
 6727SOL     OW26673   3.685   2.723   4.590  0.1305 -0.3140  0.1807
 6727SOL    HW226674   3.648   2.656   4.532  0.3985 -0.0418 -0.3163
 6727SOL    HW326675   3.633   2.801   4.572  0.3378 -0.1785  0.1667
 6727SOL    MW426676   3.673   2.724   4.580  0.1932 -0.2602  0.1133
 6728SOL     OW26677   5.226   5.686   2.823  0.5059 -0.0371  0.0545
 6728SOL    HW226678   5.310   5.730   2.832  0.0312  0.8930  0.0672
 6728SOL    HW326679   5.229   5.645   2.737  0.3326  1.4388 -0.6916
 6728SOL    MW426680   5.238   5.686   2.813  0.4204  0.2804 -0.0423
 6729SOL     OW26681   0.121   2.988   3.894  0.1188  0.1676  0.5509
 6729SOL    HW226682   0.078   3.006   3.978  0.3822 -0.1660  0.7577
 6729SOL    HW326683   0.210   2.963   3.917  0.4071  0.7812  0.1217
 6729SOL    MW426684   0.127   2.987   3.908  0.1916  0.2046  0.5216
 6730SOL     OW26685   3.223   3.710   6.038 -0.1035  0.0067  0.7659
 6730SOL    HW226686   3.137   3.680   6.010  0.7902  0.3992 -3.0434
 6730SOL    HW326687   3.220   3.805   6.029  0.1995  0.2013  2.4618
 6730SOL    MW426688   3.212   3.718   6.033  0.0544  0.0842  0.4871
 6731SOL     OW26689   1.664   4.438   2.106  0.2132  0.6842  0.1283
 6731SOL    HW226690   1.668   4.467   2.014 -1.5182 -0.4826 -0.3627
 6731SOL    HW326691   1.693   4.514   2.156  0.6963  1.5241 -1.3621
 6731SOL    MW426692   1.668   4.452   2.100  0.0485  0.6411 -0.1331
 6732SOL     OW26693   4.253   1.536   1.093 -0.0487 -0.0118  0.1356
 6732SOL    HW226694   4.182   1.473   1.103 -0.3094  0.2305 -0.1596
 6732SOL    HW326695   4.301   1.506   1.016  0.9077 -0.8742  1.0454
 6732SOL    MW426696   4.250   1.524   1.084  0.0431 -0.0937  0.2167
 6733SOL     OW26697   5.285   1.835   2.233 -0.6204 -0.2825 -0.1425
 6733SOL    HW226698   5.240   1.916   2.256  0.0852 -0.0733  0.5532
 6733SOL    HW326699   5.372   1.844   2.272 -0.7965 -1.7186  0.6607
 6733SOL    MW426700   5.290   1.847   2.241 -0.5506 -0.4444  0.0553
 6734SOL     OW26701   3.627   5.199   0.808 -0.3211  0.3358 -1.0284
 6734SOL    HW226702   3.608   5.196   0.715  0.8222 -2.0149 -1.2604
 6734SOL    HW326703   3.721   5.183   0.814 -0.6497 -1.3634  0.5802
 6734SOL    MW426704   3.637   5.196   0.797 -0.2136 -0.1986 -0.8467
 6735SOL     OW26705   1.862   3.888   2.801  0.3022  0.2716  0.4276
 6735SOL    HW226706   1.777   3.926   2.779  0.5655  0.4195 -0.3938
 6735SOL    HW326707   1.918   3.964   2.821  0.5791  0.2693 -0.3033
 6735SOL    MW426708   1.858   3.903   2.800  0.3735  0.2908  0.2228
 6736SOL     OW26709   0.366   5.374   3.778 -0.2508  0.1680 -0.3120
 6736SOL    HW226710   0.334   5.463   3.763 -0.6948  0.1046  0.2432
 6736SOL    HW326711   0.378   5.368   3.872  0.0669 -0.2682 -0.3764
 6736SOL    MW426712   0.363   5.385   3.788 -0.2674  0.1021 -0.2472
 6737SOL     OW26713   0.897   3.920   1.869  0.1874  0.4158  0.5458
 6737SOL    HW226714   0.932   4.003   1.836 -0.3567  0.8475  1.0338
 6737SOL    HW326715   0.949   3.853   1.824 -0.0774  0.9931 -0.6638
 6737SOL    MW426716   0.909   3.923   1.858  0.0807  0.5489  0.4506
 6738SOL     OW26717   2.476   5.523   3.071 -0.0231 -0.2683  0.4658
 6738SOL    HW226718   2.550   5.461   3.068  0.1932  0.0033  0.1031
 6738SOL    HW326719   2.421   5.497   2.998 -0.2137 -0.3759  0.6469
 6738SOL    MW426720   2.479   5.511   3.061 -0.0197 -0.2466  0.4418
 6739SOL     OW26721   6.145   4.416   2.566  0.2645 -0.2137  0.1149
 6739SOL    HW226722   6.152   4.510   2.549  0.6141 -0.5198 -1.5552
 6739SOL    HW326723   6.059   4.392   2.534  0.5506 -0.6296 -0.3630
 6739SOL    MW426724   6.135   4.425   2.560  0.3484 -0.3090 -0.1685
 6740SOL     OW26725   3.059   1.287   1.746 -0.6243 -0.3658 -0.0139
 6740SOL    HW226726   3.030   1.248   1.828 -2.8328  0.8058 -0.1514
 6740SOL    HW326727   3.127   1.349   1.771 -0.1434 -1.1537  0.6973
 6740SOL    MW426728   3.064   1.290   1.760 -0.8522 -0.3152  0.0618
 6741SOL     OW26729   1.836   4.010   5.643  0.3093 -0.6428 -0.0312
 6741SOL    HW226730   1.790   4.094   5.646  2.4254  0.5915 -0.2596
 6741SOL    HW326731   1.864   3.995   5.733  3.1151  0.8607 -0.5297
 6741SOL    MW426732   1.834   4.019   5.655  0.9587 -0.2816 -0.1271
 6742SOL     OW26733   5.361   6.071   2.407  0.3163  0.0215 -0.1476
 6742SOL    HW226734   5.294   6.121   2.361 -0.4637  0.4833  1.4399
 6742SOL    HW326735   5.421   6.137   2.441  1.4347 -0.3697 -1.2630
 6742SOL    MW426736   5.360   6.086   2.405  0.3610  0.0308 -0.0853
 6743SOL     OW26737   2.996   1.963   6.068  0.0885 -0.4879  1.1013
 6743SOL    HW226738   2.956   1.964   5.981  0.4481 -0.2545  0.9341
 6743SOL    HW326739   3.027   1.873   6.078 -0.2174 -0.5943  1.1137
 6743SOL    MW426740   2.995   1.951   6.058  0.0955 -0.4711  1.0809
 6744SOL     OW26741   4.348   4.223   5.637  0.2889  0.0684  0.3998
 6744SOL    HW226742   4.362   4.162   5.565  0.1428 -0.0506  0.4716
 6744SOL    HW326743   4.412   4.198   5.703  1.4571  1.1425 -0.2976
 6744SOL    MW426744   4.358   4.212   5.636  0.4238  0.1944  0.3173
 6745SOL     OW26745   4.587   1.548   2.276  0.2619 -0.0224  0.3447
 6745SOL    HW226746   4.519   1.582   2.335 -0.7743 -1.5346  0.0733
 6745SOL    HW326747   4.669   1.578   2.316 -0.3392 -1.6562  3.0940
 6745SOL    MW426748   4.589   1.557   2.289  0.0459 -0.4375  0.6716
 6746SOL     OW26749   1.779   3.481   4.381  0.4639 -0.5234  0.1541
 6746SOL    HW226750   1.864   3.470   4.338 -0.0072 -0.0125 -0.9637
 6746SOL    HW326751   1.762   3.575   4.374  0.3121 -0.4496  1.3787
 6746SOL    MW426752   1.788   3.492   4.374  0.3817 -0.4462  0.1682
 6747SOL     OW26753   0.032   3.307   6.020 -0.2611  0.6335 -0.2375
 6747SOL    HW226754   0.027   3.264   6.105 -0.4622  3.9187  1.5890
 6747SOL    HW326755   0.104   3.369   6.029 -1.0214  1.8660 -2.0583
 6747SOL    MW426756   0.040   3.309   6.032 -0.3879  1.2295 -0.2367
 6748SOL     OW26757   3.776   1.330   1.454 -0.1886  0.2016  0.0201
 6748SOL    HW226758   3.781   1.402   1.391 -1.5004  0.9644  0.7424
 6748SOL    HW326759   3.852   1.343   1.511 -0.0720  0.6540 -0.2338
 6748SOL    MW426760   3.787   1.341   1.453 -0.3463  0.3619  0.0819
 6749SOL     OW26761   4.998   2.089   0.088  0.7252  0.5268  0.0028
 6749SOL    HW226762   5.005   2.136   0.171 -1.2645  0.6683  0.1406
 6749SOL    HW326763   4.994   2.158   0.021 -1.7333  0.6604  0.1705
 6749SOL    MW426764   4.998   2.104   0.090  0.1383  0.5631  0.0431
 6750SOL     OW26765   5.477   0.348   4.383  0.1055  0.4441 -0.2439
 6750SOL    HW226766   5.448   0.392   4.303  2.3225  2.4010 -0.1025
 6750SOL    HW326767   5.512   0.264   4.353 -1.0176  0.2330 -1.0144
 6750SOL    MW426768   5.478   0.343   4.368  0.2498  0.6744 -0.3269
 6751SOL     OW26769   4.053   5.956   2.681  0.4038 -0.0007  0.0498
 6751SOL    HW226770   4.121   5.908   2.634  0.5190  1.3116 -1.2246
 6751SOL    HW326771   4.101   6.006   2.747  0.5892  0.2689 -0.2829
 6751SOL    MW426772   4.069   5.956   2.683  0.4435  0.2080 -0.1622
 6752SOL     OW26773   1.279   3.597   3.696  0.6508  0.0094 -0.1323
 6752SOL    HW226774   1.281   3.527   3.630 -0.2310 -0.0992 -0.0653
 6752SOL    HW326775   1.325   3.561   3.772  0.9746 -0.1632 -0.4099
 6752SOL    MW426776   1.285   3.583   3.697  0.5772 -0.0277 -0.1601
 6753SOL     OW26777   1.864   2.117   1.480  0.3079 -0.2841  0.5385
 6753SOL    HW226778   1.942   2.169   1.461 -0.3945  1.2622  1.6688
 6753SOL    HW326779   1.884   2.073   1.563  0.4430 -0.8858  0.1920
 6753SOL    MW426780   1.877   2.118   1.489  0.2330 -0.1595  0.6419
 6754SOL     OW26781   2.983   1.853   4.890  0.2471  0.0749  0.2425
 6754SOL    HW226782   2.968   1.840   4.796  2.0403  0.3412 -0.1197
 6754SOL    HW326783   3.019   1.770   4.920 -1.0890 -0.2869  0.9007
 6754SOL    MW426784   2.986   1.841   4.881  0.3074  0.0623  0.2815
 6755SOL     OW26785   4.063   2.770   4.005 -0.2169  0.4311  0.2419
 6755SOL    HW226786   4.135   2.719   4.043 -1.3677 -0.2983  1.5025
 6755SOL    HW326787   4.087   2.862   4.022  1.0500  0.2797 -0.5647
 6755SOL    MW426788   4.076   2.776   4.012 -0.2015  0.3149  0.3018
 6756SOL     OW26789   4.711   6.314   2.232 -0.3539 -0.4544  0.4132
 6756SOL    HW226790   4.641   6.360   2.278  0.0973  2.0454 -1.2016
 6756SOL    HW326791   4.781   6.379   2.224  1.5763 -2.3754  0.5702
 6756SOL    MW426792   4.711   6.329   2.237 -0.0397 -0.3780  0.2208
 6757SOL     OW26793   4.894   6.137   5.754 -0.1546  0.3218  1.0707
 6757SOL    HW226794   4.910   6.082   5.831 -1.3147 -1.1656  0.3000
 6757SOL    HW326795   4.828   6.200   5.783  0.5214  0.7597  1.7009
 6757SOL    MW426796   4.888   6.138   5.768 -0.2184  0.1833  1.0522
 6758SOL     OW26797   0.681   2.902   5.939  0.0150 -0.2248  0.0427
 6758SOL    HW226798   0.610   2.934   5.884  0.8421  0.6232 -0.5723
 6758SOL    HW326799   0.749   2.969   5.931  0.3048 -0.2790  1.8018
 6758SOL    MW426800   0.681   2.915   5.931  0.1624 -0.1201  0.1936
 6759SOL     OW26801   1.205   1.754   5.128 -0.9480 -0.2470  0.1877
 6759SOL    HW226802   1.252   1.777   5.048 -2.3614  1.3248 -0.2422
 6759SOL    HW326803   1.178   1.664   5.115  1.0515 -0.8831  0.0436
 6759SOL    MW426804   1.208   1.745   5.116 -0.8706 -0.1236  0.1119
 6760SOL     OW26805   5.803   0.012   0.174 -0.3283  0.0149 -0.4733
 6760SOL    HW226806   5.835   0.048   0.092 -1.5432 -0.9881 -1.4232
 6760SOL    HW326807   5.874   0.029   0.237  1.3966 -0.7470 -2.1099
 6760SOL    MW426808   5.817   0.019   0.172 -0.2610 -0.2180 -0.8146
 6761SOL     OW26809   3.019   4.000   0.515 -0.3149 -0.5229 -0.2311
 6761SOL    HW226810   2.980   4.047   0.441 -1.6778  2.1267  1.9766
 6761SOL    HW326811   3.113   4.000   0.497 -0.2849  2.6193 -0.7525
 6761SOL    MW426812   3.026   4.007   0.503 -0.4907  0.2412 -0.0086
 6762SOL     OW26813   5.989   0.607   0.317 -0.0514  0.3858 -0.2579
 6762SOL    HW226814   6.002   0.536   0.379 -1.3637 -0.2693 -0.6947
 6762SOL    HW326815   6.014   0.686   0.365  0.0472 -0.2204  0.7152
 6762SOL    MW426816   5.994   0.608   0.331 -0.2115  0.2194 -0.1871
 6763SOL     OW26817   2.201   1.119   0.544 -0.2946 -0.4238  0.0553
 6763SOL    HW226818   2.255   1.153   0.615 -1.2450 -1.3739  1.2864
 6763SOL    HW326819   2.151   1.195   0.514 -1.0599 -0.3213  1.5193
 6763SOL    MW426820   2.201   1.134   0.550 -0.5210 -0.5357  0.4109
 6764SOL     OW26821   4.837   3.815   5.770  0.2542  0.4796 -0.5356
 6764SOL    HW226822   4.910   3.871   5.741  0.9294  0.1738  0.5210
 6764SOL    HW326823   4.862   3.727   5.742  0.7846  0.2217  0.6772
 6764SOL    MW426824   4.850   3.811   5.762  0.4133  0.4052 -0.2362
 6765SOL     OW26825   1.355   6.027   0.688 -0.1694 -0.5576  0.0908
 6765SOL    HW226826   1.433   6.056   0.735 -0.5362  0.3987  0.1321
 6765SOL    HW326827   1.386   5.956   0.631  0.1020 -2.4741  2.4531
 6765SOL    MW426828   1.369   6.021   0.687 -0.1820 -0.6843  0.4079
 6766SOL     OW26829   2.378   6.072   0.001  0.3601 -0.2859  0.1527
 6766SOL    HW226830   2.338   6.045   0.084 -0.9027 -0.8847 -0.6232
 6766SOL    HW326831   2.357   6.165  -0.006 -1.4470 -0.7102 -0.5071
 6766SOL    MW426832   2.370   6.081   0.011 -0.0449 -0.4209 -0.0367
 6767SOL     OW26833   2.537   4.420   0.118  0.0903  0.4592  0.4241
 6767SOL    HW226834   2.443   4.413   0.133  0.0386 -2.2149 -0.5892
 6767SOL    HW326835   2.575   4.438   0.204 -1.2209  0.0153  1.1063
 6767SOL    MW426836   2.530   4.422   0.131 -0.0895  0.0478  0.3804
 6768SOL     OW26837   2.822   1.650   3.999  0.5330  0.6859  0.0746
 6768SOL    HW226838   2.910   1.682   3.979  0.9730  0.5840  1.7189
 6768SOL    HW326839   2.765   1.696   3.937  1.8109  0.0847 -1.6203
 6768SOL    MW426840   2.826   1.660   3.988  0.7597  0.5932  0.0679
 6769SOL     OW26841   4.089   3.683   6.055  0.4251 -0.1090  0.0259
 6769SOL    HW226842   4.086   3.722   6.142  0.9005 -0.5336  0.2423
 6769SOL    HW326843   4.017   3.723   6.007 -0.8245 -1.0197  1.0883
 6769SOL    MW426844   4.079   3.693   6.060  0.3229 -0.2852  0.1946
 6770SOL     OW26845   5.281   6.076   1.210  0.1646 -0.1003 -0.2463
 6770SOL    HW226846   5.365   6.069   1.256  0.2052  2.7561  0.2951
 6770SOL    HW326847   5.220   6.111   1.275 -1.3071 -1.4530 -0.8322
 6770SOL    MW426848   5.284   6.080   1.224 -0.0242  0.0981 -0.2522
 6771SOL     OW26849   2.234   3.824   3.099 -0.4910 -0.1127 -0.0095
 6771SOL    HW226850   2.159   3.828   3.159 -0.1878 -0.0926  0.3762
 6771SOL    HW326851   2.270   3.736   3.113 -0.9753 -0.4541 -0.8532
 6771SOL    MW426852   2.229   3.813   3.109 -0.5149 -0.1551 -0.0699
 6772SOL     OW26853   4.897   0.520   0.801 -0.1047 -0.1294  0.2588
 6772SOL    HW226854   4.815   0.555   0.836 -0.3679  0.1542 -0.6110
 6772SOL    HW326855   4.903   0.558   0.713 -0.4573 -2.3760 -0.7901
 6772SOL    MW426856   4.887   0.530   0.794 -0.1860 -0.3884  0.0057
 6773SOL     OW26857   3.021   1.233   5.799  0.0432 -0.3031  0.0520
 6773SOL    HW226858   2.999   1.195   5.884 -1.1670 -0.5164 -0.3335
 6773SOL    HW326859   3.010   1.327   5.811 -0.0354 -0.3260  0.1665
 6773SOL    MW426860   3.016   1.240   5.812 -0.1268 -0.3343  0.0162
 6774SOL     OW26861   3.151   6.325   0.560  0.1735  0.5305  0.3252
 6774SOL    HW226862   3.213   6.255   0.540 -0.1630  0.3436 -0.0671
 6774SOL    HW326863   3.159   6.387   0.487 -0.6737  0.1083 -0.1343
 6774SOL    MW426864   3.160   6.324   0.548  0.0174  0.4501  0.2128
 6775SOL     OW26865   5.689   5.931   4.888 -0.6664 -0.4315 -0.0089
 6775SOL    HW226866   5.717   5.852   4.933  0.0221 -0.3403 -0.2629
 6775SOL    HW326867   5.721   6.003   4.943  1.6022 -0.2778 -1.3755
 6775SOL    MW426868   5.697   5.930   4.901 -0.2762 -0.3992 -0.2227
 6776SOL     OW26869   3.297   5.945   5.235  0.8219  0.3993 -0.4085
 6776SOL    HW226870   3.310   5.993   5.317  2.1228 -1.0165  0.2548
 6776SOL    HW326871   3.381   5.949   5.190  0.2278  0.8419 -1.5172
 6776SOL    MW426872   3.309   5.952   5.240  0.9152  0.2709 -0.4673
 6777SOL     OW26873   3.873   6.355   1.154 -0.9637 -0.4069  0.4296
 6777SOL    HW226874   3.778   6.370   1.152 -1.0786 -0.5270  2.7523
 6777SOL    HW326875   3.883   6.261   1.139 -1.1121 -0.2585 -0.7367
 6777SOL    MW426876   3.862   6.345   1.152 -0.9984 -0.4031  0.5822
 6778SOL     OW26877   4.866   2.494   3.229  0.9870 -0.8632 -0.9433
 6778SOL    HW226878   4.893   2.579   3.263  0.2754 -1.0209  0.0678
 6778SOL    HW326879   4.947   2.456   3.193  1.2142  0.4197 -1.8732
 6778SOL    MW426880   4.881   2.500   3.229  0.9231 -0.7148 -0.9326
 6779SOL     OW26881   2.232   3.484   4.444 -0.0152  0.1158 -0.1101
 6779SOL    HW226882   2.235   3.579   4.452  0.2325  0.1256 -0.2997
 6779SOL    HW326883   2.240   3.452   4.534 -0.4948  0.2797 -0.0071
 6779SOL    MW426884   2.234   3.492   4.457 -0.0458  0.1387 -0.1215
 6780SOL     OW26885   2.556   0.465   2.884 -0.0083  0.3356  0.1283
 6780SOL    HW226886   2.549   0.561   2.882  0.7986  0.3939 -0.4956
 6780SOL    HW326887   2.583   0.444   2.973 -2.8446  0.4623  1.1121
 6780SOL    MW426888   2.559   0.475   2.895 -0.2760  0.3600  0.1758
 6781SOL     OW26889   0.409   4.734   5.822  0.3508  0.4172 -0.3045
 6781SOL    HW226890   0.337   4.700   5.769 -0.4232  1.5969 -0.0532
 6781SOL    HW326891   0.379   4.723   5.912  0.8713  0.0933 -0.1713
 6781SOL    MW426892   0.396   4.728   5.827  0.3173  0.5301 -0.2537
 6782SOL     OW26893   5.371   3.777   1.047  0.9231 -0.7745 -0.0281
 6782SOL    HW226894   5.293   3.754   1.098  2.1586 -1.8356  1.4861
 6782SOL    HW326895   5.368   3.717   0.973 -0.1021 -0.2540 -0.4349
 6782SOL    MW426896   5.360   3.766   1.044  0.9508 -0.8458  0.1180
 6783SOL     OW26897   5.170   0.285   5.277  0.1373  0.3141  0.6898
 6783SOL    HW226898   5.247   0.342   5.278  1.7221 -1.6820  0.3799
 6783SOL    HW326899   5.169   0.245   5.364  0.8777 -1.3859 -0.0344
 6783SOL    MW426900   5.180   0.287   5.289  0.4441 -0.1735  0.5534
 6784SOL     OW26901   6.318   5.071   3.442  0.1488 -0.1348  0.2769
 6784SOL    HW226902   6.391   5.065   3.381  0.9596  0.8243  1.1160
 6784SOL    HW326903   6.294   4.980   3.461  1.1365 -0.4578  0.0008
 6784SOL    MW426904   6.324   5.058   3.436  0.3861 -0.0509  0.3512
 6785SOL     OW26905   6.169   2.611   5.077  0.4061 -0.0998  0.3792
 6785SOL    HW226906   6.225   2.536   5.055 -0.4822 -0.4112 -0.9819
 6785SOL    HW326907   6.132   2.589   5.163 -0.0636 -1.3983 -0.1258
 6785SOL    MW426908   6.171   2.598   5.086  0.2270 -0.3122  0.1330
 6786SOL     OW26909   1.152   1.688   6.008 -0.7154  0.2118  0.0925
 6786SOL    HW226910   1.242   1.673   5.977 -0.7645  0.3323 -0.1109
 6786SOL    HW326911   1.143   1.783   6.009 -0.5838  0.2186  0.8640
 6786SOL    MW426912   1.163   1.699   6.004 -0.7045  0.2286  0.1675
 6787SOL     OW26913   1.075   0.712   3.041 -0.8257  0.2438  0.0318
 6787SOL    HW226914   1.059   0.761   3.121  1.0979  1.2160 -0.1106
 6787SOL    HW326915   1.163   0.739   3.014  0.8891 -4.0874  0.5563
 6787SOL    MW426916   1.085   0.722   3.048 -0.3457 -0.1994  0.0822
 6788SOL     OW26917   2.542   5.328   3.459 -0.7418  0.2765 -0.0863
 6788SOL    HW226918   2.446   5.329   3.457 -0.7532  1.0518 -2.6471
 6788SOL    HW326919   2.567   5.421   3.455  0.0601  0.0173 -2.0463
 6788SOL    MW426920   2.532   5.340   3.458 -0.6375  0.3446 -0.6828
 6789SOL     OW26921   6.337   0.052   3.058  0.1334 -0.0861 -0.9027
 6789SOL    HW226922   6.288  -0.023   3.091 -0.1244 -0.0242 -1.1403
 6789SOL    HW326923   6.340   0.114   3.131 -0.1102 -0.1057 -0.8773
 6789SOL    MW426924   6.331   0.050   3.072  0.0673 -0.0806 -0.9307
 6790SOL     OW26925   3.984   1.240   4.843 -0.7809 -0.0305  0.0763
 6790SOL    HW226926   4.035   1.176   4.892 -1.3227  0.1749  0.9253
 6790SOL    HW326927   4.033   1.252   4.761  3.0715  3.3372  2.4701
 6790SOL    MW426928   3.997   1.233   4.838 -0.3441  0.4410  0.5042
 6791SOL     OW26929   2.143   0.096   2.382 -0.3274  0.7358  0.1091
 6791SOL    HW226930   2.189   0.161   2.329  1.3008  0.4707  1.1378
 6791SOL    HW326931   2.157   0.014   2.336  2.4864  0.2241  1.6564
 6791SOL    MW426932   2.151   0.094   2.369  0.2586  0.6333  0.4490
 6792SOL     OW26933   0.460   1.311   2.010 -0.1732  0.1079  0.7991
 6792SOL    HW226934   0.483   1.218   2.020 -2.1628 -0.3734  1.2891
 6792SOL    HW326935   0.373   1.310   1.970 -0.8103  1.7134  2.0314
 6792SOL    MW426936   0.452   1.298   2.006 -0.5197  0.2563  1.0263
 6793SOL     OW26937   1.597   4.212   2.250 -1.0676  0.0415  0.1996
 6793SOL    HW226938   1.588   4.282   2.185 -1.8847  0.9439  1.2552
 6793SOL    HW326939   1.511   4.206   2.292  0.1050  1.3390  3.0405
 6793SOL    MW426940   1.585   4.220   2.247 -1.0207  0.3317  0.7137
 6794SOL     OW26941   4.654   1.480   4.641 -0.4165 -0.6051 -0.0061
 6794SOL    HW226942   4.698   1.551   4.595 -1.2107  0.9812  1.5780
 6794SOL    HW326943   4.698   1.401   4.610  0.4224  0.5318 -1.9155
 6794SOL    MW426944   4.666   1.479   4.631 -0.4106 -0.2458 -0.0490
 6795SOL     OW26945   3.774   1.226   3.464  0.2814  0.4128  0.1387
 6795SOL    HW226946   3.806   1.136   3.454  1.7281  0.9124 -0.0001
 6795SOL    HW326947   3.704   1.219   3.529 -2.4673 -1.4124 -2.6888
 6795SOL    MW426948   3.769   1.213   3.471  0.1096  0.2379 -0.2527
 6796SOL     OW26949   4.807   5.596   4.369 -0.7481 -0.5725  0.3683
 6796SOL    HW226950   4.803   5.626   4.460 -2.9131 -1.8417  0.7721
 6796SOL    HW326951   4.863   5.519   4.372  1.3697  0.8728  0.0809
 6796SOL    MW426952   4.814   5.590   4.381 -0.7544 -0.5493  0.3837
 6797SOL     OW26953   1.506   3.026   3.427  0.8816  0.1215 -0.3318
 6797SOL    HW226954   1.476   2.958   3.367  3.0076  0.7678 -2.2604
 6797SOL    HW326955   1.583   2.988   3.470 -0.7257 -0.4277  2.3403
 6797SOL    MW426956   1.512   3.012   3.425  0.9501  0.1343 -0.2337
 6798SOL     OW26957   6.321   0.929   5.814  0.3358  0.2509 -0.4891
 6798SOL    HW226958   6.384   1.000   5.826 -0.2004  0.3642  2.1325
 6798SOL    HW326959   6.375   0.851   5.802  1.0084  0.4240  1.1912
 6798SOL    MW426960   6.337   0.928   5.814  0.3538  0.2887  0.0785
 6799SOL     OW26961   1.406   5.235   0.233  0.4230  0.3777  0.5642
 6799SOL    HW226962   1.373   5.325   0.236 -0.6785 -0.0101  0.6236
 6799SOL    HW326963   1.486   5.240   0.180 -1.3782  0.8708 -2.3300
 6799SOL    MW426964   1.412   5.248   0.227  0.0400  0.3916  0.1902
 6800SOL     OW26965   4.827   0.051   0.039  0.6541  0.2488 -0.3416
 6800SOL    HW226966   4.881  -0.012  -0.008  2.5167  1.2680  0.3234
 6800SOL    HW326967   4.880   0.077   0.115 -0.4290  1.9224 -0.0937
 6800SOL    MW426968   4.841   0.046   0.043  0.7569  0.6041 -0.2211
 6801SOL     OW26969   2.287   1.104   1.649  0.3994 -0.2218  0.1667
 6801SOL    HW226970   2.275   1.171   1.717 -0.2744 -1.2302  1.0711
 6801SOL    HW326971   2.241   1.027   1.682  1.7538 -1.3801 -0.5243
 6801SOL    MW426972   2.279   1.103   1.662  0.4892 -0.5077  0.1949
 6802SOL     OW26973   0.712   4.657   0.506  0.1663  0.2964 -0.4069
 6802SOL    HW226974   0.673   4.646   0.419  1.3148  0.1771 -0.9238
 6802SOL    HW326975   0.780   4.590   0.510  0.0624  0.2384  0.6298
 6802SOL    MW426976   0.716   4.647   0.495  0.3041  0.2730 -0.3383
 6803SOL     OW26977   1.222   1.928   4.896  0.3401  0.1375 -0.1266
 6803SOL    HW226978   1.281   1.998   4.922 -0.3284  0.7308 -0.1740
 6803SOL    HW326979   1.226   1.926   4.801  1.3802 -0.8013 -0.0826
 6803SOL    MW426980   1.230   1.937   4.887  0.3891  0.0919 -0.1271
 6804SOL     OW26981   6.067   5.691   0.762  0.0104 -0.1695  0.0009
 6804SOL    HW226982   6.109   5.677   0.677  0.2994 -0.9618  0.2643
 6804SOL    HW326983   6.061   5.786   0.770 -1.4522 -0.0637 -1.6027
 6804SOL    MW426984   6.072   5.702   0.752 -0.1444 -0.2601 -0.1759
 6805SOL     OW26985   2.112   4.558   5.022 -0.2992  0.1880  0.5730
 6805SOL    HW226986   2.017   4.558   5.014 -0.6292 -0.1214  3.4097
 6805SOL    HW326987   2.130   4.613   5.099  1.8243  0.3287  0.0315
 6805SOL    MW426988   2.102   4.565   5.031 -0.0626  0.1657  0.8758
 6806SOL     OW26989   0.820   2.866   4.489 -0.3139  0.1977  0.5089
 6806SOL    HW226990   0.888   2.910   4.438  0.6643 -2.4348 -0.6847
 6806SOL    HW326991   0.868   2.826   4.562 -0.7711 -0.5114  0.4357
 6806SOL    MW426992   0.835   2.866   4.492 -0.2451 -0.2432  0.3418
 6807SOL     OW26993   0.679   0.287   4.610  0.0886 -0.4787  0.7591
 6807SOL    HW226994   0.615   0.220   4.633 -0.7666 -0.3154 -1.0059
 6807SOL    HW326995   0.718   0.258   4.528 -1.7427  2.0312 -1.1764
 6807SOL    MW426996   0.676   0.275   4.602 -0.2658 -0.1260  0.2709
 6808SOL     OW26997   5.205   2.136   0.760  0.1275  0.3139 -0.5067
 6808SOL    HW226998   5.238   2.187   0.686 -1.8835 -0.0969 -1.7581
 6808SOL    HW326999   5.199   2.047   0.726  2.0812 -0.5433  1.1612
 6808SOL    MW427000   5.209   2.131   0.746  0.1200  0.1466 -0.4518
 6809SOL     OW27001   3.523   6.250   2.108  0.8699  0.8222 -0.8709
 6809SOL    HW227002   3.562   6.168   2.141 -0.2009  0.7500  0.2767
 6809SOL    HW327003   3.580   6.275   2.035  0.8523 -1.2977 -1.6991
 6809SOL    MW427004   3.536   6.242   2.102  0.7263  0.5330 -0.8288
 6810SOL     OW27005   5.495   4.862   1.214  0.2780 -0.2966 -0.1605
 6810SOL    HW227006   5.540   4.915   1.280 -1.7880  0.3578  0.7908
 6810SOL    HW327007   5.509   4.910   1.132 -0.4978  1.1033  0.4855
 6810SOL    MW427008   5.503   4.876   1.212 -0.0970 -0.0256  0.0502
 6811SOL     OW27009   2.586   6.289   4.257  0.0340  0.0960  0.2437
 6811SOL    HW227010   2.522   6.223   4.284  1.3552 -0.3639  2.4974
 6811SOL    HW327011   2.669   6.242   4.254  0.9030  1.4938  1.2917
 6811SOL    MW427012   2.589   6.274   4.260  0.3230  0.2197  0.6793
 6812SOL     OW27013   2.634   0.434   3.588  0.0818 -0.4987  0.4801
 6812SOL    HW227014   2.719   0.390   3.586 -0.9758 -2.6640  0.1693
 6812SOL    HW327015   2.586   0.395   3.515 -0.7924  1.5773 -0.1178
 6812SOL    MW427016   2.639   0.423   3.578 -0.1731 -0.5105  0.3602
 6813SOL     OW27017   5.767   3.969   1.117 -0.1311 -0.5454  0.1139
 6813SOL    HW227018   5.818   3.966   1.198  0.7054  0.9949 -0.3032
 6813SOL    HW327019   5.722   4.053   1.120  1.6440  0.5800 -1.9532
 6813SOL    MW427020   5.768   3.980   1.128  0.2135 -0.1937 -0.2139
 6814SOL     OW27021   3.692   6.091   0.955  0.5446  0.3062 -0.0099
 6814SOL    HW227022   3.601   6.121   0.956  0.0143 -1.2109 -0.3520
 6814SOL    HW327023   3.710   6.071   0.864  0.5766 -1.2116  0.3082
 6814SOL    MW427024   3.682   6.092   0.943  0.4789 -0.0942 -0.0131
 6815SOL     OW27025   5.005   2.816   0.275  0.2993 -0.5162  0.0011
 6815SOL    HW227026   4.923   2.861   0.294  0.1263 -0.9110  0.2128
 6815SOL    HW327027   5.061   2.882   0.235  0.0162 -0.1442  0.2213
 6815SOL    MW427028   5.002   2.830   0.273  0.2391 -0.5192  0.0581
 6816SOL     OW27029   1.050   0.271   6.023  0.3744  0.0025  0.6338
 6816SOL    HW227030   1.046   0.318   6.106 -1.8413  0.8831  0.0935
 6816SOL    HW327031   1.003   0.327   5.961 -0.7461 -2.0550 -0.4877
 6816SOL    MW427032   1.043   0.285   6.026 -0.0658 -0.1528  0.4145
 6817SOL     OW27033   1.992   1.058   6.219 -0.3105  0.4268 -0.0037
 6817SOL    HW227034   1.900   1.040   6.241 -0.4359 -0.4035 -1.1234
 6817SOL    HW327035   1.991   1.074   6.125  0.7989 -0.4576 -0.1876
 6817SOL    MW427036   1.979   1.057   6.209 -0.1807  0.2005 -0.1757
 6818SOL     OW27037   1.867   3.073   3.887 -0.4941 -0.4110  0.3961
 6818SOL    HW227038   1.815   3.126   3.827 -0.4364 -0.7521  0.0406
 6818SOL    HW327039   1.843   2.982   3.865 -1.8281 -0.5238  2.0840
 6818SOL    MW427040   1.857   3.068   3.876 -0.6625 -0.4709  0.5719
 6819SOL     OW27041   1.373   0.716   4.859 -0.1604  0.2574  0.3824
 6819SOL    HW227042   1.407   0.803   4.838  1.3055 -0.5421 -0.7351
 6819SOL    HW327043   1.307   0.699   4.793  1.0639 -0.3075 -0.7430
 6819SOL    MW427044   1.369   0.725   4.848  0.1945  0.0774  0.0865
 6820SOL     OW27045   2.256   1.999   4.655 -0.1528 -0.0039 -0.0562
 6820SOL    HW227046   2.306   2.045   4.586 -0.2561 -0.2216 -0.2756
 6820SOL    HW327047   2.176   1.971   4.611 -0.5581  0.5047  0.3447
 6820SOL    MW427048   2.252   2.002   4.640 -0.2199  0.0345 -0.0322
 6821SOL     OW27049   0.569   4.703   2.397 -0.1136 -0.4900 -0.0148
 6821SOL    HW227050   0.527   4.628   2.440 -1.7115 -0.0031 -0.6422
 6821SOL    HW327051   0.581   4.675   2.306  0.8264 -0.5667  0.1226
 6821SOL    MW427052   0.565   4.689   2.391 -0.2004 -0.4359 -0.0795
 6822SOL     OW27053   2.708   1.228   1.290 -0.3010  0.4098  0.0675
 6822SOL    HW227054   2.679   1.190   1.207 -0.4195  2.3263 -0.8244
 6822SOL    HW327055   2.792   1.186   1.307  0.6611  1.3729 -2.0555
 6822SOL    MW427056   2.715   1.217   1.281 -0.1897  0.7897 -0.3303
 6823SOL     OW27057   5.048   2.605   5.706 -0.6291  0.1935  0.2949
 6823SOL    HW227058   4.956   2.621   5.685 -1.1404 -1.8378  0.7515
 6823SOL    HW327059   5.072   2.528   5.654  0.9742  0.9597 -0.1749
 6823SOL    MW427060   5.039   2.597   5.696 -0.4850  0.0266  0.2932
 6824SOL     OW27061   5.997   5.978   0.807  0.3678 -0.8400  0.7437
 6824SOL    HW227062   6.056   6.011   0.739  0.1106 -0.2559  0.7930
 6824SOL    HW327063   5.941   6.053   0.828 -1.3438 -1.7558 -0.3088
 6824SOL    MW427064   5.997   5.992   0.801  0.1081 -0.8838  0.6114
 6825SOL     OW27065   5.714   3.697   4.777 -0.7929  0.6429  0.1253
 6825SOL    HW227066   5.699   3.682   4.870  0.6436  0.2119  0.3257
 6825SOL    HW327067   5.695   3.613   4.735 -0.6102  0.5825  0.1591
 6825SOL    MW427068   5.710   3.684   4.784 -0.5792  0.5780  0.1562
 6826SOL     OW27069   2.461   5.820   5.334 -0.4297  0.8560 -0.2400
 6826SOL    HW227070   2.466   5.820   5.429  0.1190 -0.8893 -0.2236
 6826SOL    HW327071   2.427   5.906   5.311 -0.7478  1.2365  1.5378
 6826SOL    MW427072   2.457   5.831   5.343 -0.3993  0.6760 -0.0033
 6827SOL     OW27073   2.021   2.385   5.333  0.0677  0.3259 -0.3104
 6827SOL    HW227074   1.968   2.307   5.314 -0.4018  0.6149 -0.2246
 6827SOL    HW327075   2.065   2.365   5.415 -1.3702  0.7824  0.6275
 6827SOL    MW427076   2.020   2.372   5.341 -0.1839  0.4243 -0.1753
 6828SOL     OW27077   2.547   1.386   4.707 -0.3780  0.6101 -0.2775
 6828SOL    HW227078   2.580   1.338   4.631  1.5653  2.1837 -0.5100
 6828SOL    HW327079   2.626   1.420   4.750 -1.6140  3.2393  0.0789
 6828SOL    MW427080   2.562   1.384   4.703 -0.2847  1.1646 -0.2612
 6829SOL     OW27081   2.696   4.634   3.248  0.1385 -0.3874  0.3401
 6829SOL    HW227082   2.715   4.674   3.163 -1.1934 -0.7763 -0.1573
 6829SOL    HW327083   2.683   4.541   3.229 -0.5655 -0.4148  0.8976
 6829SOL    MW427084   2.697   4.627   3.234 -0.1301 -0.4424  0.3480
 6830SOL     OW27085   1.494   1.880   5.716 -0.1483  0.1667  0.4259
 6830SOL    HW227086   1.434   1.889   5.641  0.9204 -0.6807 -0.5585
 6830SOL    HW327087   1.474   1.794   5.752 -0.8474  0.6821  1.3152
 6830SOL    MW427088   1.483   1.870   5.710 -0.0996  0.1229  0.4134
 6831SOL     OW27089   4.014   5.795   0.923  0.4949  0.0968  0.2812
 6831SOL    HW227090   4.061   5.714   0.945  0.6858 -0.4023 -1.8014
 6831SOL    HW327091   4.022   5.849   1.002  1.5350 -1.3690  1.2301
 6831SOL    MW427092   4.022   5.791   0.936  0.6573 -0.1625  0.1316
 6832SOL     OW27093   0.488   6.117   4.271 -0.4115  0.0298 -0.0890
 6832SOL    HW227094   0.415   6.179   4.268  0.1332  0.6537 -0.5844
 6832SOL    HW327095   0.563   6.165   4.235  0.0178 -0.9166 -0.5008
 6832SOL    MW427096   0.488   6.131   4.266 -0.2830 -0.0127 -0.2087
 6833SOL     OW27097   4.242   4.650   3.956  0.0337 -0.2107  0.1784
 6833SOL    HW227098   4.209   4.564   3.932 -2.1724  0.7543 -0.5370
 6833SOL    HW327099   4.230   4.704   3.878 -0.7593  1.2773  1.2512
 6833SOL    MW427100   4.236   4.646   3.943 -0.3620  0.1129  0.2255
 6834SOL     OW27101   0.250   0.651   4.407  0.1161 -0.4507 -0.0610
 6834SOL    HW227102   0.168   0.636   4.455 -0.2110  1.3443 -0.0007
 6834SOL    HW327103   0.297   0.568   4.414 -0.8967 -0.9396  1.4481
 6834SOL    MW427104   0.245   0.638   4.414 -0.0607 -0.2784  0.1460
 6835SOL     OW27105   2.193   0.676   6.366 -0.3545 -0.0275  0.1508
 6835SOL    HW227106   2.127   0.693   6.298  0.4527 -3.0976 -1.5675
 6835SOL    HW327107   2.213   0.583   6.358  2.9085  0.3792  1.7970
 6835SOL    MW427108   2.187   0.666   6.356  0.1825 -0.3789  0.1413
 6836SOL     OW27109   5.610   5.163   4.758 -0.5092 -0.0095 -0.1607
 6836SOL    HW227110   5.651   5.214   4.688  1.7359 -0.7842  0.5073
 6836SOL    HW327111   5.597   5.076   4.721 -2.3353  0.4216 -0.6090
 6836SOL    MW427112   5.614   5.158   4.744 -0.4539 -0.0549 -0.1317
 6837SOL     OW27113   4.370   3.833   1.856  0.5367  0.1876  0.4717
 6837SOL    HW227114   4.347   3.864   1.943 -1.0815 -0.2185  0.2408
 6837SOL    HW327115   4.317   3.887   1.797  1.2539  0.1421 -0.2223
 6837SOL    MW427116   4.360   3.844   1.859  0.4178  0.1281  0.3497
 6838SOL     OW27117   3.297   4.279   0.050 -0.4231 -0.4049 -0.6640
 6838SOL    HW227118   3.318   4.209  -0.012 -0.6439 -1.1657  0.1050
 6838SOL    HW327119   3.287   4.357  -0.005  2.1273 -0.4543 -1.3069
 6838SOL    MW427120   3.299   4.280   0.034 -0.1157 -0.5118 -0.6474
 6839SOL     OW27121   4.648   3.585   1.849  0.1668 -0.3538 -0.2986
 6839SOL    HW227122   4.742   3.603   1.856  0.5434 -1.3296 -2.2265
 6839SOL    HW327123   4.614   3.656   1.794  0.0741 -0.8101 -0.8432
 6839SOL    MW427124   4.656   3.597   1.842  0.2043 -0.5427 -0.6248
 6840SOL     OW27125   2.792   5.029   4.291  0.4805  0.0938 -0.6689
 6840SOL    HW227126   2.742   5.104   4.259  1.4175  0.5709 -1.0405
 6840SOL    HW327127   2.746   5.003   4.371  0.0273  0.9422 -0.6343
 6840SOL    MW427128   2.779   5.036   4.297  0.5444  0.2687 -0.7134
 6841SOL     OW27129   2.474   1.089   0.815  0.3054 -0.3247  0.1023
 6841SOL    HW227130   2.434   1.007   0.842  1.5893 -1.3117 -0.8593
 6841SOL    HW327131   2.518   1.068   0.732  0.9427  1.2435  0.0065
 6841SOL    MW427132   2.474   1.076   0.807  0.5589 -0.2481 -0.0372
 6842SOL     OW27133   3.655   1.986   3.779  0.0404 -0.2659  0.1633
 6842SOL    HW227134   3.648   1.941   3.694 -1.0747  1.9467 -1.0135
 6842SOL    HW327135   3.637   2.077   3.758  1.5875  0.6599  2.5302
 6842SOL    MW427136   3.652   1.992   3.765  0.0974  0.1482  0.3203
 6843SOL     OW27137   1.976   5.081   0.541 -0.4551  0.0662 -0.6054
 6843SOL    HW227138   2.023   5.077   0.624 -0.6577 -0.5915 -0.5111
 6843SOL    HW327139   2.040   5.054   0.476  0.0528  1.7486 -0.8334
 6843SOL    MW427140   1.990   5.077   0.544 -0.4148  0.2014 -0.6230
 6844SOL     OW27141   4.915   0.369   5.188 -0.2046 -0.3231 -0.0955
 6844SOL    HW227142   5.007   0.347   5.201  0.1924  1.2800  0.0740
 6844SOL    HW327143   4.916   0.462   5.164 -1.7572 -0.3697 -0.4490
 6844SOL    MW427144   4.927   0.379   5.187 -0.3570 -0.1178 -0.1198
 6845SOL     OW27145   5.754   2.551   2.069 -0.2400 -0.0938 -0.0376
 6845SOL    HW227146   5.728   2.616   2.004  1.3640  0.8424  0.2172
 6845SOL    HW327147   5.685   2.557   2.136 -1.4035 -0.4096 -1.1674
 6845SOL    MW427148   5.741   2.561   2.069 -0.1819 -0.0120 -0.1531
 6846SOL     OW27149   2.047   0.168   1.980  0.6310 -0.0776 -0.6098
 6846SOL    HW227150   2.014   0.087   2.019 -0.1441  1.1516  1.4297
 6846SOL    HW327151   2.129   0.142   1.937  1.3362 -1.6361  1.5126
 6846SOL    MW427152   2.053   0.154   1.979  0.6218 -0.1211 -0.0607
 6847SOL     OW27153   3.436   1.971   6.162  0.1004  1.0358  0.4357
 6847SOL    HW227154   3.413   2.060   6.137 -0.4043  0.4460 -1.3284
 6847SOL    HW327155   3.411   1.917   6.087  1.4533 -0.4573  0.9910
 6847SOL    MW427156   3.430   1.976   6.149  0.2123  0.7610  0.2762
 6848SOL     OW27157   3.217   2.339   2.190  0.4470  0.1515 -0.2867
 6848SOL    HW227158   3.151   2.398   2.225  0.7284  1.0680 -1.2457
 6848SOL    HW327159   3.204   2.257   2.238 -1.1613  0.4040 -0.2393
 6848SOL    MW427160   3.207   2.336   2.201  0.2719  0.3058 -0.4070
 6849SOL     OW27161   0.780   3.519   0.551  0.2653 -0.0793  0.0631
 6849SOL    HW227162   0.789   3.480   0.463  1.0728  1.5421 -0.6153
 6849SOL    HW327163   0.702   3.574   0.545  0.6135  0.4378  0.1872
 6849SOL    MW427164   0.771   3.521   0.538  0.4177  0.2028 -0.0100
 6850SOL     OW27165   0.748   3.536   3.950 -0.4547  0.1126 -0.4496
 6850SOL    HW227166   0.830   3.581   3.966 -0.4311 -0.2831  0.6186
 6850SOL    HW327167   0.752   3.510   3.858  1.2844 -1.1955 -0.0554
 6850SOL    MW427168   0.759   3.538   3.940 -0.2222 -0.1122 -0.2566
 6851SOL     OW27169   3.273   5.395   5.826 -0.3077 -0.0806 -0.0902
 6851SOL    HW227170   3.248   5.310   5.861 -1.4961 -0.4779 -1.8086
 6851SOL    HW327171   3.224   5.403   5.744  0.0831  2.0869 -0.1672
 6851SOL    MW427172   3.263   5.385   5.820 -0.4129  0.1529 -0.3271
 6852SOL     OW27173   4.499   4.197   5.174 -0.2762  0.3872 -0.0655
 6852SOL    HW227174   4.571   4.217   5.233  0.5786 -2.6769  0.1254
 6852SOL    HW327175   4.457   4.281   5.157  1.1079  1.7643  2.7068
 6852SOL    MW427176   4.503   4.210   5.180  0.0192  0.1647  0.3255
 6853SOL     OW27177   3.997   2.966   2.318  0.1859 -0.3440 -0.1538
 6853SOL    HW227178   3.977   2.939   2.408  0.8840 -1.0438 -0.2010
 6853SOL    HW327179   3.912   2.964   2.273  0.0210 -1.1791  0.1787
 6853SOL    MW427180   3.983   2.963   2.324  0.2562 -0.5465 -0.1162
 6854SOL     OW27181   3.508   4.204   0.415  0.0692  0.0310 -0.2719
 6854SOL    HW227182   3.436   4.143   0.432 -1.4125  1.6203 -0.6217
 6854SOL    HW327183   3.547   4.218   0.501 -0.4739 -0.3351  0.0432
 6854SOL    MW427184   3.504   4.198   0.429 -0.1979  0.1924 -0.2765
 6855SOL     OW27185   5.374   2.004   5.298 -0.5610  0.1329  0.2628
 6855SOL    HW227186   5.462   2.026   5.328 -0.8525  0.6985  0.7480
 6855SOL    HW327187   5.377   1.911   5.280  0.3169  0.2770 -0.3757
 6855SOL    MW427188   5.386   1.995   5.300 -0.4836  0.2266  0.2426
 6856SOL     OW27189   2.956   1.213   3.492  0.0005 -0.0323 -0.2476
 6856SOL    HW227190   2.951   1.273   3.418  0.2172  0.4294  0.1065
 6856SOL    HW327191   2.865   1.192   3.512 -0.0897  0.3776 -0.2147
 6856SOL    MW427192   2.943   1.218   3.485  0.0172  0.0827 -0.1966
 6857SOL     OW27193   4.930   0.310   3.628  0.2670 -0.2048 -0.5639
 6857SOL    HW227194   4.893   0.241   3.684  0.2937 -0.8187 -1.2981
 6857SOL    HW327195   4.944   0.268   3.544  2.7990 -0.0372 -0.2936
 6857SOL    MW427196   4.927   0.296   3.625  0.6046 -0.2637 -0.6251
 6858SOL     OW27197   5.881   2.237   5.041  0.4423  0.2552  0.3689
 6858SOL    HW227198   5.958   2.219   5.095  1.4542  2.1299 -0.3481
 6858SOL    HW327199   5.808   2.242   5.103  0.7250 -2.1418  0.9947
 6858SOL    MW427200   5.881   2.235   5.056  0.6131  0.1863  0.3568
 6859SOL     OW27201   4.872   0.433  -0.003  0.0351 -0.4813  0.3562
 6859SOL    HW227202   4.836   0.515  -0.035  1.6649 -0.4809 -1.6415
 6859SOL    HW327203   4.807   0.367  -0.029 -0.3143 -0.0763  0.1900
 6859SOL    MW427204   4.858   0.435  -0.011  0.2040 -0.4278  0.0707
 6860SOL     OW27205   4.651   3.549   2.138 -0.1516 -0.2501  0.3232
 6860SOL    HW227206   4.664   3.558   2.044  0.5751  0.6925  0.5014
 6860SOL    HW327207   4.563   3.581   2.154  0.4856  1.6679  0.2298
 6860SOL    MW427208   4.641   3.554   2.128  0.0284  0.1273  0.3344
 6861SOL     OW27209   3.334   2.304   2.625 -0.2179 -0.1670 -0.7067
 6861SOL    HW227210   3.330   2.378   2.564  0.4880  0.9764  0.5880
 6861SOL    HW327211   3.332   2.345   2.712  0.8877 -1.6280  0.0400
 6861SOL    MW427212   3.333   2.320   2.628  0.0211 -0.2089 -0.4374
 6862SOL     OW27213   1.500   3.966   3.353 -0.3972  0.5154  0.9406
 6862SOL    HW227214   1.405   3.980   3.351 -0.0732  3.1068  0.3780
 6862SOL    HW327215   1.514   3.905   3.426 -2.4810 -0.1557  0.8419
 6862SOL    MW427216   1.489   3.959   3.362 -0.6293  0.7688  0.8534
 6863SOL     OW27217   1.673   5.848   3.786 -0.2979  0.2532 -0.0501
 6863SOL    HW227218   1.615   5.874   3.858  1.1547  0.1600  1.1823
 6863SOL    HW327219   1.726   5.777   3.822  0.8899  0.6242 -1.0147
 6863SOL    MW427220   1.672   5.842   3.800  0.0505  0.2899 -0.0148
 6864SOL     OW27221   0.485   2.405   4.698  0.0600 -0.1508  0.5398
 6864SOL    HW227222   0.503   2.468   4.629 -1.0370  0.1958  0.5544
 6864SOL    HW327223   0.413   2.351   4.664  0.8606 -1.2826  0.5956
 6864SOL    MW427224   0.478   2.406   4.685  0.0209 -0.2544  0.5491
 6865SOL     OW27225   0.094   3.391   4.130 -0.7519 -0.3442  0.1598
 6865SOL    HW227226   0.133   3.392   4.217 -0.0770  2.0863 -0.0977
 6865SOL    HW327227   0.169   3.392   4.070 -1.1139  1.7558 -0.3597
 6865SOL    MW427228   0.109   3.392   4.133 -0.7106  0.2535  0.0573
 6866SOL     OW27229   2.802   1.339   2.158  0.1249 -0.1086 -0.0042
 6866SOL    HW227230   2.774   1.369   2.071 -1.0897  0.1265  0.4499
 6866SOL    HW327231   2.892   1.370   2.166 -0.1656  0.9819 -0.6831
 6866SOL    MW427232   2.810   1.347   2.147 -0.0736  0.0663 -0.0339
 6867SOL     OW27233   2.137   2.910   3.386 -0.4434 -0.4242  0.3097
 6867SOL    HW227234   2.166   3.001   3.384 -1.0869 -0.2210 -0.0473
 6867SOL    HW327235   2.215   2.860   3.411 -0.4479  0.3667  2.0362
 6867SOL    MW427236   2.152   2.915   3.389 -0.5289 -0.2930  0.4904
 6868SOL     OW27237   1.703   2.547   5.149 -0.3653  0.8523 -0.4011
 6868SOL    HW227238   1.788   2.555   5.193 -0.0814  2.0584 -1.1218
 6868SOL    HW327239   1.640   2.582   5.212 -0.7430 -2.2609  1.1460
 6868SOL    MW427240   1.706   2.552   5.163 -0.3777  0.6007 -0.2921
 6869SOL     OW27241   0.688   0.544   3.897  0.6919  0.2447  0.1093
 6869SOL    HW227242   0.623   0.485   3.860 -0.8712  0.9335  1.6383
 6869SOL    HW327243   0.752   0.487   3.939  1.1409 -0.4394 -1.4448
 6869SOL    MW427244   0.688   0.529   3.898  0.5449  0.2453  0.1060
 6870SOL     OW27245   4.021   0.080   2.746  0.4791 -0.0619 -0.3304
 6870SOL    HW227246   4.056   0.168   2.730  0.5840 -0.4082 -2.3633
 6870SOL    HW327247   4.047   0.059   2.835 -0.3907  2.3425  0.5559
 6870SOL    MW427248   4.029   0.089   2.755  0.3782  0.2096 -0.4817
 6871SOL     OW27249   3.705   3.082   5.398  0.1248  0.1180  0.4823
 6871SOL    HW227250   3.642   3.020   5.434 -1.1744  1.7065  1.0512
 6871SOL    HW327251   3.658   3.123   5.325  1.9731 -1.5487 -1.7727
 6871SOL    MW427252   3.690   3.079   5.393  0.1972  0.1077  0.2599
 6872SOL     OW27253   3.525   5.295   2.791  0.5091  0.3474 -0.0144
 6872SOL    HW227254   3.436   5.272   2.819  0.4201  0.1735 -0.4358
 6872SOL    HW327255   3.543   5.237   2.717  0.6848  0.8944 -0.4097
 6872SOL    MW427256   3.515   5.284   2.785  0.5205  0.3966 -0.1222
 6873SOL     OW27257   2.522   4.162   0.342  0.1926 -0.1731 -0.1514
 6873SOL    HW227258   2.519   4.094   0.409  1.0442 -1.1221 -1.0345
 6873SOL    HW327259   2.502   4.243   0.389 -1.7561 -1.1187  0.7712
 6873SOL    MW427260   2.519   4.164   0.357  0.0478 -0.4231 -0.1462
 6874SOL     OW27261   4.422   2.239   3.854 -0.2421  0.2284 -0.4324
 6874SOL    HW227262   4.346   2.279   3.895 -0.8142 -0.0798 -1.1808
 6874SOL    HW327263   4.400   2.233   3.761 -0.0890 -1.5901 -0.3981
 6874SOL    MW427264   4.409   2.243   3.847 -0.2974 -0.0522 -0.5266
 6875SOL     OW27265   3.424   4.122   6.028  0.3194 -0.2387  0.5218
 6875SOL    HW227266   3.421   4.200   6.083 -1.5445  0.5257 -0.5646
 6875SOL    HW327267   3.517   4.110   6.010  0.7438  1.0657  1.6347
 6875SOL    MW427268   3.436   4.131   6.033  0.1295  0.0343  0.5253
 6876SOL     OW27269   6.400   4.359   1.435  0.1577  0.3154 -0.6223
 6876SOL    HW227270   6.426   4.428   1.375 -0.6187 -1.6400 -3.4097
 6876SOL    HW327271   6.411   4.278   1.386 -1.8748 -1.3342  1.3846
 6876SOL    MW427272   6.405   4.357   1.421 -0.2129 -0.1602 -0.7253
 6877SOL     OW27273   4.770   4.894   3.596 -0.0156 -0.0413 -0.2488
 6877SOL    HW227274   4.712   4.970   3.587  1.2089  1.0623  0.6992
 6877SOL    HW327275   4.804   4.879   3.508 -1.8254 -0.8234 -0.8636
 6877SOL    MW427276   4.767   4.902   3.583 -0.0928  0.0011 -0.2048
 6878SOL     OW27277   1.964   0.033   1.049  0.4561 -0.3448  0.3769
 6878SOL    HW227278   1.898   0.100   1.068 -0.4877 -0.3639 -2.4058
 6878SOL    HW327279   1.915  -0.049   1.048  1.1394 -0.7849  1.2721
 6878SOL    MW427280   1.949   0.031   1.051  0.4217 -0.4054  0.1279
 6879SOL     OW27281   6.158   1.393   0.050  0.1154  0.1706  0.4505
 6879SOL    HW227282   6.245   1.358   0.028 -0.5915 -1.0153 -0.5798
 6879SOL    HW327283   6.125   1.334   0.118 -0.9268 -0.9870 -1.0177
 6879SOL    MW427284   6.165   1.381   0.056 -0.1154 -0.1386  0.1209
 6880SOL     OW27285   3.128   4.329   5.487  0.0955  0.4551  0.1840
 6880SOL    HW227286   3.190   4.358   5.553  1.8262  0.9957 -1.6013
 6880SOL    HW327287   3.130   4.233   5.491  2.4728  0.3953 -1.0332
 6880SOL    MW427288   3.136   4.320   5.496  0.6375  0.5185 -0.2122
 6881SOL     OW27289   6.167   5.299   5.316  0.7229 -0.2477 -0.3767
 6881SOL    HW227290   6.169   5.215   5.362  1.0906  0.2233  0.4952
 6881SOL    HW327291   6.078   5.305   5.280  0.3615 -0.5450  0.4420
 6881SOL    MW427292   6.155   5.289   5.317  0.7238 -0.2248 -0.1536
 6882SOL     OW27293   3.728   2.260   4.764  0.0492  0.2737  0.1810
 6882SOL    HW227294   3.762   2.308   4.689  1.7950 -0.4831  0.4123
 6882SOL    HW327295   3.673   2.191   4.726  2.5408 -1.4154 -0.6702
 6882SOL    MW427296   3.726   2.257   4.749  0.6083 -0.0490  0.0993
 6883SOL     OW27297   4.376   3.352   1.781 -0.1481  0.3146 -0.3024
 6883SOL    HW227298   4.342   3.420   1.838  0.3219 -1.4624  2.2527
 6883SOL    HW327299   4.466   3.338   1.811 -0.4073 -1.7726 -0.3585
 6883SOL    MW427300   4.384   3.359   1.792 -0.1203 -0.1953  0.0273
 6884SOL     OW27301   2.419   5.136   4.747  0.6144  0.0355  0.2808
 6884SOL    HW227302   2.348   5.197   4.767 -1.0675 -1.6382 -0.2725
 6884SOL    HW327303   2.498   5.180   4.778 -0.5584  2.2623  0.3389
 6884SOL    MW427304   2.420   5.150   4.753  0.2377  0.1085  0.2154
 6885SOL     OW27305   2.522   6.354   0.234 -0.0391 -0.1294 -0.3109
 6885SOL    HW227306   2.533   6.388   0.323  0.3406  1.4787 -0.9326
 6885SOL    HW327307   2.529   6.259   0.243  1.9066  0.0987  1.1045
 6885SOL    MW427308   2.524   6.346   0.247  0.2677  0.1128 -0.2062
 6886SOL     OW27309   5.008   1.721   4.777  0.6326  0.0794 -0.3341
 6886SOL    HW227310   5.100   1.743   4.787  0.4011  1.9121 -1.6098
 6886SOL    HW327311   5.001   1.686   4.688  0.0147  0.5955 -0.4995
 6886SOL    MW427312   5.019   1.719   4.766  0.5205  0.3893 -0.5243
 6887SOL     OW27313   4.082   4.807   4.156 -0.1925 -0.1473 -0.6469
 6887SOL    HW227314   4.139   4.752   4.102  0.7464  0.7478 -0.6102
 6887SOL    HW327315   4.138   4.831   4.231 -0.6935  0.5810 -0.5018
 6887SOL    MW427316   4.097   4.803   4.159 -0.1347  0.0669 -0.6229
 6888SOL     OW27317   5.928   5.769   3.001 -0.1518  0.0855 -0.4754
 6888SOL    HW227318   5.964   5.731   3.081  0.7160 -1.9232 -1.7523
 6888SOL    HW327319   6.003   5.812   2.959 -0.0231 -0.9361 -1.3407
 6888SOL    MW427320   5.942   5.770   3.006 -0.0203 -0.3143 -0.7580
 6889SOL     OW27321   1.810   2.803   3.821 -0.1534  0.7699  0.8227
 6889SOL    HW227322   1.888   2.748   3.834 -0.3930 -0.3322 -1.7253
 6889SOL    HW327323   1.745   2.767   3.881  0.8466  0.7698  1.9427
 6889SOL    MW427324   1.812   2.791   3.830 -0.0531  0.6245  0.6343
 6890SOL     OW27325   1.772   2.824   1.058 -0.1636 -0.5253 -0.0204
 6890SOL    HW227326   1.843   2.868   1.011  1.1985 -1.9030  0.6636
 6890SOL    HW327327   1.809   2.803   1.143 -1.4569 -1.1752  0.4102
 6890SOL    MW427328   1.786   2.827   1.063 -0.1545 -0.7928  0.1266
 6891SOL     OW27329   3.681   0.601   0.583 -0.9119 -0.4967  0.1447
 6891SOL    HW227330   3.611   0.646   0.535 -1.3670 -1.1429  0.1890
 6891SOL    HW327331   3.636   0.532   0.632 -0.5688  0.6424  2.1486
 6891SOL    MW427332   3.665   0.598   0.583 -0.9267 -0.4316  0.4150
 6892SOL     OW27333   1.825   1.038   1.662 -0.0567 -0.3808  0.2833
 6892SOL    HW227334   1.744   1.019   1.709 -0.3640 -0.4581 -0.2765
 6892SOL    HW327335   1.883   1.075   1.729 -0.4949 -0.4706  0.7188
 6892SOL    MW427336   1.822   1.040   1.677 -0.1550 -0.4029  0.2669
 6893SOL     OW27337   3.692   0.877   6.132  0.4255  0.5757  0.0302
 6893SOL    HW227338   3.760   0.819   6.166 -1.4328 -2.0267 -0.3606
 6893SOL    HW327339   3.646   0.909   6.209  1.5730  1.7110  0.2586
 6893SOL    MW427340   3.695   0.873   6.146  0.3317  0.3821  0.0088
 6894SOL     OW27341   3.095   0.808   4.359  0.2911 -0.2399 -0.5046
 6894SOL    HW227342   3.113   0.745   4.290  0.3029 -0.4320 -0.3295
 6894SOL    HW327343   3.027   0.766   4.412 -1.4312  0.9057 -1.7298
 6894SOL    MW427344   3.089   0.794   4.357  0.0654 -0.1141 -0.6432
 6895SOL     OW27345   5.076   0.141   1.922 -0.7472 -0.5021 -0.2161
 6895SOL    HW227346   5.087   0.051   1.892 -1.3842 -1.0117  1.0477
 6895SOL    HW327347   5.003   0.138   1.983 -1.4803  1.0732 -0.9598
 6895SOL    MW427348   5.068   0.129   1.926 -0.9280 -0.3615 -0.1475
 6896SOL     OW27349   4.876   3.718   3.206  0.1207  0.1527  0.1620
 6896SOL    HW227350   4.942   3.787   3.211 -0.2637  0.6919 -1.5981
 6896SOL    HW327351   4.858   3.696   3.298  0.4302  2.1990  0.7667
 6896SOL    MW427352   4.883   3.724   3.219  0.1109  0.4938  0.0096
 6897SOL     OW27353   5.642   3.252   6.104 -0.2859 -0.4166 -0.6264
 6897SOL    HW227354   5.625   3.171   6.055  0.6869 -0.7034 -0.5163
 6897SOL    HW327355   5.607   3.234   6.191 -0.2990 -0.6332 -0.6739
 6897SOL    MW427356   5.635   3.239   6.109 -0.1593 -0.4830 -0.6181
 6898SOL     OW27357   2.412   4.558   1.438 -0.4289 -0.3165 -0.2855
 6898SOL    HW227358   2.468   4.622   1.394 -0.7142 -1.3050 -2.2064
 6898SOL    HW327359   2.429   4.476   1.391  1.8826 -2.4079  3.6379
 6898SOL    MW427360   2.422   4.555   1.426 -0.1615 -0.7228 -0.0213
 6899SOL     OW27361   4.521   0.025   2.353 -0.4304  0.1023 -0.1619
 6899SOL    HW227362   4.474   0.047   2.433 -0.9644  0.4303 -0.5576
 6899SOL    HW327363   4.515   0.104   2.299  0.6977  0.2045 -0.1722
 6899SOL    MW427364   4.514   0.038   2.357 -0.3520  0.1590 -0.2155
 6900SOL     OW27365   1.021   2.722   2.275  0.0336 -0.4758 -0.6341
 6900SOL    HW227366   1.002   2.650   2.215  0.9811  0.1464 -1.7403
 6900SOL    HW327367   1.094   2.768   2.233 -1.3395  1.8553 -0.6184
 6900SOL    MW427368   1.028   2.719   2.261 -0.0225 -0.0861 -0.7780
 6901SOL     OW27369   4.291   6.025   3.943  0.1224  0.2990  0.7332
 6901SOL    HW227370   4.315   5.998   4.031 -0.1399 -1.7027  0.2513
 6901SOL    HW327371   4.320   5.953   3.887 -2.5012  0.0241 -0.4337
 6901SOL    MW427372   4.298   6.012   3.947 -0.2584 -0.0014  0.5156
 6902SOL     OW27373   0.012   1.460   5.221 -0.1178  0.4656 -0.3576
 6902SOL    HW227374   0.034   1.475   5.313  0.2057 -0.6024 -0.2461
 6902SOL    HW327375   0.027   1.366   5.208 -1.6928  0.2771 -1.0755
 6902SOL    MW427376   0.017   1.449   5.231 -0.2829  0.2998 -0.4376
 6903SOL     OW27377   1.288   4.265   1.081  0.0879  0.1034 -0.4055
 6903SOL    HW227378   1.208   4.276   1.133  0.1743 -1.2763  0.0589
 6903SOL    HW327379   1.306   4.352   1.047 -2.2765  0.2369 -1.5117
 6903SOL    MW427380   1.280   4.278   1.084 -0.2127 -0.0610 -0.4902
 6904SOL     OW27381   5.419   5.937   4.831 -0.2124  0.8137 -0.4704
 6904SOL    HW227382   5.425   5.987   4.750  1.6525 -1.1183 -1.6214
 6904SOL    HW327383   5.509   5.919   4.855 -0.7796 -0.0296  1.1667
 6904SOL    MW427384   5.431   5.941   4.823 -0.0412  0.4475 -0.4062
 6905SOL     OW27385   1.225   0.089   2.248  0.0461 -0.1529 -0.2686
 6905SOL    HW227386   1.180   0.151   2.305  0.4243 -1.9075  2.1134
 6905SOL    HW327387   1.314   0.124   2.240 -0.0071  0.1102  0.2521
 6905SOL    MW427388   1.231   0.102   2.255  0.0890 -0.3497  0.1144
 6906SOL     OW27389   1.552   3.723   3.153 -0.0810 -0.2242 -0.1190
 6906SOL    HW227390   1.561   3.809   3.195  1.9090 -0.3729 -0.1462
 6906SOL    HW327391   1.515   3.667   3.221  0.3356  0.2409  0.5099
 6906SOL    MW427392   1.549   3.727   3.168  0.2366 -0.1825 -0.0396
 6907SOL     OW27393   5.417   2.363   5.556  0.6909  0.5477 -0.7745
 6907SOL    HW227394   5.488   2.398   5.501  1.4836  1.7366  0.9344
 6907SOL    HW327395   5.426   2.409   5.639 -1.0927 -0.4927  0.0449
 6907SOL    MW427396   5.428   2.374   5.559  0.5602  0.5673 -0.4409
 6908SOL     OW27397   3.772   4.556   5.639 -0.1910 -0.0508 -0.0153
 6908SOL    HW227398   3.808   4.468   5.638  0.5724  0.2195 -2.5071
 6908SOL    HW327399   3.821   4.601   5.708 -0.5609 -1.4899  1.2614
 6908SOL    MW427400   3.783   4.550   5.648 -0.1391 -0.2050 -0.1756
 6909SOL     OW27401   0.122   2.679   4.145  0.3145  0.0293 -0.2490
 6909SOL    HW227402   0.125   2.679   4.049  0.5937  0.9689 -0.2540
 6909SOL    HW327403   0.136   2.587   4.169  2.2235  0.0416 -1.0584
 6909SOL    MW427404   0.125   2.667   4.135  0.6032  0.1549 -0.3565
 6910SOL     OW27405   2.441   3.788   0.154  0.4216 -0.4015 -0.1408
 6910SOL    HW227406   2.534   3.808   0.166  0.3093  1.0021 -1.3301
 6910SOL    HW327407   2.400   3.873   0.136 -1.0597 -1.0287  0.1030
 6910SOL    MW427408   2.448   3.802   0.153  0.2114 -0.2991 -0.2656
 6911SOL     OW27409   2.389   2.241   2.641 -0.0014 -0.0284 -0.3637
 6911SOL    HW227410   2.417   2.278   2.557  2.8900  1.3759  1.0552
 6911SOL    HW327411   2.369   2.318   2.695 -0.3796 -0.8198  0.6491
 6911SOL    MW427412   2.390   2.256   2.637  0.3302  0.0525 -0.0429
 6912SOL     OW27413   5.176   0.193   5.834  0.0174 -0.3092  0.1128
 6912SOL    HW227414   5.231   0.130   5.881  0.2960 -1.0506 -1.1318
 6912SOL    HW327415   5.190   0.172   5.742  0.2159  1.6860 -0.3584
 6912SOL    MW427416   5.185   0.182   5.828  0.0804 -0.1438 -0.1136
 6913SOL     OW27417   4.462   1.117   2.559 -0.1872 -0.1073 -0.1790
 6913SOL    HW227418   4.489   1.178   2.490 -0.3191 -0.0745 -0.2038
 6913SOL    HW327419   4.384   1.074   2.523  0.8946 -1.5629 -0.8733
 6913SOL    MW427420   4.455   1.120   2.545 -0.0619 -0.2950 -0.2738
 6914SOL     OW27421   2.387   2.187   1.021  0.2575 -0.0307 -0.1904
 6914SOL    HW227422   2.417   2.099   1.041 -0.6664 -0.5534 -0.9907
 6914SOL    HW327423   2.394   2.194   0.925 -2.0700 -0.2040 -0.4384
 6914SOL    MW427424   2.392   2.177   1.011 -0.1714 -0.1225 -0.3287
 6915SOL     OW27425   5.634   3.701   5.775 -0.3615 -0.1721 -0.0276
 6915SOL    HW227426   5.630   3.778   5.832 -1.3367  0.0930 -0.4376
 6915SOL    HW327427   5.612   3.627   5.832  0.2559 -0.1176  0.2915
 6915SOL    MW427428   5.631   3.701   5.790 -0.4087 -0.1299 -0.0396
 6916SOL     OW27429   2.311   1.089   6.355  0.2710  0.3558  0.3767
 6916SOL    HW227430   2.286   1.129   6.438  0.4187  2.7322 -0.6593
 6916SOL    HW327431   2.374   1.021   6.380 -1.0227 -0.2131  2.3213
 6916SOL    MW427432   2.316   1.085   6.369  0.1198  0.5943  0.4966
 6917SOL     OW27433   3.190   4.402   0.591  0.1424  0.3332  0.3091
 6917SOL    HW227434   3.209   4.461   0.664 -0.8610  0.3389  0.5767
 6917SOL    HW327435   3.101   4.424   0.564 -0.0535 -0.6931  0.0622
 6917SOL    MW427436   3.181   4.412   0.597 -0.0158  0.1985  0.3118
 6918SOL     OW27437   1.087   2.525   1.630 -0.6164 -0.0765  0.3250
 6918SOL    HW227438   1.064   2.515   1.722  0.9040 -0.6253  0.6809
 6918SOL    HW327439   1.016   2.483   1.582 -1.2419 -0.1080  1.2567
 6918SOL    MW427440   1.075   2.518   1.636 -0.4984 -0.1531  0.4949
 6919SOL     OW27441   3.644   1.311   5.196 -0.1592 -0.1369  0.1351
 6919SOL    HW227442   3.665   1.400   5.226  0.0497 -0.2681  0.3803
 6919SOL    HW327443   3.555   1.295   5.227 -0.8538  0.6164 -1.3414
 6919SOL    MW427444   3.635   1.321   5.204 -0.2232 -0.0548 -0.0274
 6920SOL     OW27445   1.317   2.060   1.106 -0.0878  0.1591  0.4695
 6920SOL    HW227446   1.384   2.085   1.169 -0.2789 -0.0031  0.7374
 6920SOL    HW327447   1.344   2.101   1.024  0.2049  0.2995  0.6380
 6920SOL    MW427448   1.329   2.069   1.103 -0.0744  0.1562  0.5271
 6921SOL     OW27449   3.322   4.455   5.665 -0.2021  0.2252 -0.4989
 6921SOL    HW227450   3.283   4.400   5.734  0.1953  3.2353  2.3573
 6921SOL    HW327451   3.416   4.446   5.678 -0.1349  1.5901  0.0637
 6921SOL    MW427452   3.329   4.447   5.676 -0.1408  0.8024 -0.0478
 6922SOL     OW27453   3.008   0.506   0.774  0.0193  0.2062  0.2521
 6922SOL    HW227454   3.004   0.530   0.681 -1.7175  0.3666  0.3436
 6922SOL    HW327455   3.057   0.577   0.815  0.5184  0.3000 -0.4868
 6922SOL    MW427456   3.014   0.518   0.767 -0.1440  0.2397  0.1667
 6923SOL     OW27457   3.009   5.072   6.125 -0.2148 -0.2204  0.6299
 6923SOL    HW227458   3.046   4.984   6.110  0.8398  0.5506 -1.8409
 6923SOL    HW327459   3.069   5.131   6.079 -1.7526  1.6638  0.9235
 6923SOL    MW427460   3.022   5.068   6.117 -0.2786  0.1299  0.3426
 6924SOL     OW27461   3.171   4.871   4.269  0.3576  0.0029  0.0791
 6924SOL    HW227462   3.219   4.905   4.344  0.3118  1.3913 -0.4917
 6924SOL    HW327463   3.226   4.799   4.236  0.8385  0.0050  0.8656
 6924SOL    MW427464   3.185   4.866   4.274  0.4150  0.1864  0.1076
 6925SOL     OW27465   2.539   0.850   6.069 -0.2122  0.0892  0.0055
 6925SOL    HW227466   2.548   0.858   5.974  0.3742 -1.1217 -0.0643
 6925SOL    HW327467   2.524   0.757   6.084  0.9027  0.0709  1.1738
 6925SOL    MW427468   2.538   0.839   6.059  0.0122 -0.0730  0.1504
 6926SOL     OW27469   2.736   2.100   2.327  0.7326 -0.8102  0.6069
 6926SOL    HW227470   2.752   2.013   2.291  2.7986 -0.0525 -0.4780
 6926SOL    HW327471   2.781   2.101   2.411 -0.3854 -1.1764  1.2253
 6926SOL    MW427472   2.744   2.089   2.333  0.8577 -0.7585  0.5453
 6927SOL     OW27473   0.691   2.675   4.127 -0.6356  0.2928  0.0642
 6927SOL    HW227474   0.691   2.585   4.160  2.0715  0.0357 -0.3475
 6927SOL    HW327475   0.620   2.678   4.063  0.2003 -2.0816 -1.1020
 6927SOL    MW427476   0.682   2.664   4.123 -0.1681 -0.0544 -0.1440
 6928SOL     OW27477   5.464   4.155   3.151 -0.3003  0.1268  0.3241
 6928SOL    HW227478   5.509   4.087   3.202  0.7510 -0.5770 -1.4585
 6928SOL    HW327479   5.483   4.236   3.198  2.2047 -0.2523  0.1038
 6928SOL    MW427480   5.473   4.157   3.164  0.1689 -0.0161  0.0598
 6929SOL     OW27481   0.494   2.233   3.484 -0.6374 -0.0022 -0.1240
 6929SOL    HW227482   0.574   2.258   3.531 -1.3098 -0.5960  1.3999
 6929SOL    HW327483   0.426   2.288   3.522 -1.5143 -1.6818  0.8820
 6929SOL    MW427484   0.495   2.243   3.495 -0.8418 -0.3022  0.2098
 6930SOL     OW27485   5.680   0.887   0.883 -0.5584  0.5590 -0.3863
 6930SOL    HW227486   5.741   0.824   0.846 -1.0583  0.6783 -1.4602
 6930SOL    HW327487   5.597   0.868   0.841 -0.8895  1.4448 -0.1668
 6930SOL    MW427488   5.677   0.876   0.873 -0.6681  0.6916 -0.4991
 6931SOL     OW27489   4.322   0.014   0.438 -0.9993  0.2539 -0.2770
 6931SOL    HW227490   4.337  -0.052   0.370 -0.9643 -0.4205  0.3702
 6931SOL    HW327491   4.376   0.089   0.411  0.6161 -0.7341  0.0354
 6931SOL    MW427492   4.331   0.015   0.425 -0.7815  0.0346 -0.1504
 6932SOL     OW27493   0.931   0.172   1.297  0.2929  0.4985  0.1025
 6932SOL    HW227494   0.940   0.192   1.390  0.0306  0.1805  0.1964
 6932SOL    HW327495   0.970   0.086   1.287 -3.1504 -1.3250  0.6732
 6932SOL    MW427496   0.937   0.163   1.308 -0.1960  0.2159  0.1902
 6933SOL     OW27497   1.599   5.142   3.504  0.9030 -0.6265  0.2445
 6933SOL    HW227498   1.616   5.236   3.507 -1.8625 -0.0569  2.0142
 6933SOL    HW327499   1.589   5.122   3.411 -0.3385  1.2791 -0.0788
 6933SOL    MW427500   1.600   5.152   3.492  0.3743 -0.2999  0.4353
 6934SOL     OW27501   4.055   2.887   5.851 -0.3048 -0.0691  0.5103
 6934SOL    HW227502   3.974   2.844   5.821  0.4843 -1.5162  0.3489
 6934SOL    HW327503   4.047   2.977   5.821 -2.0769 -0.0482  0.9174
 6934SOL    MW427504   4.043   2.893   5.843 -0.4345 -0.2573  0.5427
 6935SOL     OW27505   6.176   3.694   3.479 -0.0061  0.3035 -0.1780
 6935SOL    HW227506   6.264   3.724   3.502  0.0923 -0.0326 -0.1214
 6935SOL    HW327507   6.143   3.651   3.558 -0.0727  0.0879 -0.3226
 6935SOL    MW427508   6.183   3.693   3.492 -0.0019  0.2307 -0.1896
 6936SOL     OW27509   3.934   4.254   3.871  0.4433  0.0924  0.2840
 6936SOL    HW227510   3.838   4.253   3.875  0.4109  0.4029 -0.2834
 6936SOL    HW327511   3.958   4.347   3.882  0.6779  0.0158  0.4295
 6936SOL    MW427512   3.925   4.266   3.873  0.4700  0.1232  0.2283
 6937SOL     OW27513   5.859   3.839   6.336 -0.0441 -0.7631 -0.5569
 6937SOL    HW227514   5.891   3.870   6.252 -1.2569  3.1140  0.2365
 6937SOL    HW327515   5.766   3.820   6.321 -0.4436  0.6519  0.0256
 6937SOL    MW427516   5.851   3.840   6.323 -0.2568 -0.0649 -0.3754
 6938SOL     OW27517   1.484   2.092   0.033 -0.0295  0.2650  0.2309
 6938SOL    HW227518   1.432   2.055   0.104 -2.1049 -0.0605 -1.3395
 6938SOL    HW327519   1.539   2.020   0.003 -1.1326 -0.4280 -0.2113
 6938SOL    MW427520   1.484   2.078   0.038 -0.4488  0.1306 -0.0346
 6939SOL     OW27521   3.753   4.064   3.465  0.3615 -0.0240 -0.3641
 6939SOL    HW227522   3.788   4.152   3.454  0.0711  0.3698  1.4151
 6939SOL    HW327523   3.789   4.013   3.393 -0.0939  1.7303 -1.8791
 6939SOL    MW427524   3.762   4.068   3.454  0.2631  0.2594 -0.3292
 6940SOL     OW27525   3.896   1.816   2.432  0.4620  0.3276 -0.1054
 6940SOL    HW227526   3.855   1.800   2.516  1.1805 -0.6954  0.0646
 6940SOL    HW327527   3.970   1.756   2.429  0.0649 -0.1329 -1.7494
 6940SOL    MW427528   3.901   1.806   2.443  0.5044  0.1319 -0.2999
 6941SOL     OW27529   1.560   0.608   3.375  0.3003 -0.1267 -0.4882
 6941SOL    HW227530   1.655   0.617   3.376  0.3350 -0.5009 -0.3417
 6941SOL    HW327531   1.538   0.593   3.283  0.4557 -0.7865 -0.4225
 6941SOL    MW427532   1.569   0.608   3.363  0.3254 -0.2631 -0.4602
 6942SOL     OW27533   1.878   0.645   2.941  0.1929  0.0083  0.3817
 6942SOL    HW227534   1.820   0.612   2.873 -0.3610  0.2870  0.7071
 6942SOL    HW327535   1.822   0.700   2.995  0.6838  0.0034  0.9075
 6942SOL    MW427536   1.863   0.648   2.939  0.1846  0.0444  0.4940
 6943SOL     OW27537   0.896   6.076   3.590 -0.4155 -0.4988 -0.1953
 6943SOL    HW227538   0.806   6.105   3.575 -0.0407  0.2214 -1.1893
 6943SOL    HW327539   0.931   6.140   3.653 -0.6865 -0.9804  0.4594
 6943SOL    MW427540   0.889   6.088   3.596 -0.4018 -0.4673 -0.2401
 6944SOL     OW27541   3.080   2.863   0.064 -0.0941  0.4860  0.6132
 6944SOL    HW227542   3.073   2.810   0.144  0.6504  0.4373  0.6561
 6944SOL    HW327543   3.165   2.839   0.027 -0.8369 -0.1944 -0.7155
 6944SOL    MW427544   3.090   2.853   0.070 -0.0939  0.3898  0.4435
 6945SOL     OW27545   4.868   1.847   1.845  0.2808  0.8038  0.0630
 6945SOL    HW227546   4.822   1.782   1.792  0.7135  1.6303 -1.3993
 6945SOL    HW327547   4.960   1.839   1.820  0.5869  0.8374  1.1277
 6945SOL    MW427548   4.874   1.838   1.835  0.3783  0.9173  0.0105
 6946SOL     OW27549   5.927   1.993   0.375 -0.4046 -0.3183  0.7231
 6946SOL    HW227550   5.980   2.048   0.432 -0.6879  1.1158 -0.3583
 6946SOL    HW327551   5.991   1.942   0.325 -0.1508 -1.5248  2.1781
 6946SOL    MW427552   5.942   1.993   0.376 -0.4085 -0.2883  0.7724
 6947SOL     OW27553   4.754   1.548   6.143 -0.6425 -0.1409 -0.1280
 6947SOL    HW227554   4.813   1.555   6.218 -1.3661  0.7887  0.3677
 6947SOL    HW327555   4.779   1.465   6.102  1.1454  0.3204 -0.0607
 6947SOL    MW427556   4.765   1.538   6.148 -0.5020  0.0426 -0.0537
 6948SOL     OW27557   6.353   0.525   1.629 -0.0535  0.3325  0.1937
 6948SOL    HW227558   6.325   0.434   1.619  0.9578  0.1693 -1.8980
 6948SOL    HW327559   6.278   0.569   1.668 -0.1886 -1.5670  2.2668
 6948SOL    MW427560   6.339   0.519   1.633  0.0621  0.0603  0.1912
 6949SOL     OW27561   0.273   1.648   5.504 -0.5864  0.0430  0.1426
 6949SOL    HW227562   0.325   1.567   5.503 -1.1488 -0.3816  1.5305
 6949SOL    HW327563   0.309   1.697   5.578 -1.2955  0.3343  0.2969
 6949SOL    MW427564   0.285   1.644   5.514 -0.7541  0.0254  0.3461
 6950SOL     OW27565   5.888   5.810   1.107  0.5590  0.2344 -0.3303
 6950SOL    HW227566   5.796   5.829   1.127  0.9245  1.9760 -0.1570
 6950SOL    HW327567   5.908   5.867   1.033  1.5661  0.0586 -0.1968
 6950SOL    MW427568   5.878   5.820   1.100  0.7401  0.4410 -0.2898
 6951SOL     OW27569   6.315   2.852   3.834  0.3033  0.1947  0.2430
 6951SOL    HW227570   6.303   2.758   3.822  0.7954  0.4175 -2.7285
 6951SOL    HW327571   6.410   2.863   3.844  0.2483  0.3635  0.5713
 6951SOL    MW427572   6.326   2.841   3.833  0.3610  0.2464 -0.1057
 6952SOL     OW27573   1.234   4.674   0.503  0.3148 -0.4071 -0.3962
 6952SOL    HW227574   1.207   4.766   0.505  1.8197  0.0346  0.8575
 6952SOL    HW327575   1.253   4.657   0.411 -0.4674  0.3756 -0.7173
 6952SOL    MW427576   1.233   4.684   0.491  0.4101 -0.2455 -0.2731
 6953SOL     OW27577   3.396   4.572   2.201  0.0396  0.3307  0.5854
 6953SOL    HW227578   3.371   4.624   2.277 -0.9297  0.3059  0.3022
 6953SOL    HW327579   3.431   4.635   2.139  0.1790  0.4512  0.7867
 6953SOL    MW427580   3.397   4.587   2.203 -0.0699  0.3433  0.5746
 6954SOL     OW27581   5.339   4.195   5.590  0.1432  0.8399 -0.1054
 6954SOL    HW227582   5.378   4.168   5.507  0.5596 -0.3225  0.4437
 6954SOL    HW327583   5.246   4.206   5.571  0.3755  1.4793 -0.9261
 6954SOL    MW427584   5.332   4.193   5.577  0.2288  0.7709 -0.1413
 6955SOL     OW27585   3.606   4.418   3.104  0.4299  0.6167  0.1382
 6955SOL    HW227586   3.633   4.453   3.189  1.5147  0.5059 -0.1378
 6955SOL    HW327587   3.524   4.372   3.121  1.8643 -1.5825  1.6857
 6955SOL    MW427588   3.599   4.417   3.117  0.7622  0.3119  0.3060
 6956SOL     OW27589   6.289   1.808   3.619  0.2692 -0.0130  0.4199
 6956SOL    HW227590   6.346   1.735   3.593  1.1467  0.6570  0.4024
 6956SOL    HW327591   6.346   1.885   3.615 -1.0086  0.9111 -0.9690
 6956SOL    MW427592   6.304   1.809   3.615  0.2164  0.1973  0.2343
 6957SOL     OW27593   4.707   3.558   5.686 -0.0986  0.5793  0.1048
 6957SOL    HW227594   4.645   3.574   5.614 -0.8288 -2.2417 -0.0257
 6957SOL    HW327595   4.662   3.587   5.764 -1.0653 -0.1530 -0.1583
 6957SOL    MW427596   4.693   3.564   5.687 -0.3225  0.1105  0.0529
 6958SOL     OW27597   5.246   2.179   4.152 -0.0794  0.2105 -0.0009
 6958SOL    HW227598   5.256   2.256   4.096  1.2899  1.9616  2.4535
 6958SOL    HW327599   5.152   2.164   4.156 -0.3489  1.5231 -0.8714
 6958SOL    MW427600   5.235   2.187   4.145  0.0657  0.6147  0.2081
 6959SOL     OW27601   4.490   4.006   3.425  0.1251  0.1692  0.1203
 6959SOL    HW227602   4.520   4.072   3.487 -0.4600  0.9054 -0.3625
 6959SOL    HW327603   4.543   4.021   3.346 -0.4433  0.4672 -0.2055
 6959SOL    MW427604   4.501   4.016   3.423 -0.0271  0.3056  0.0136
 6960SOL     OW27605   4.042   3.795   6.310  0.7516  0.4755  0.2474
 6960SOL    HW227606   3.965   3.853   6.307  2.0993  2.3228 -0.9183
 6960SOL    HW327607   4.076   3.805   6.399 -0.5664 -0.7502  0.9444
 6960SOL    MW427608   4.036   3.804   6.321  0.7555  0.5575  0.1855
 6961SOL     OW27609   1.927   1.968   2.936 -0.7622 -0.1174 -0.0725
 6961SOL    HW227610   1.938   2.031   3.007  0.6696 -0.0759 -0.2922
 6961SOL    HW327611   1.989   1.897   2.957 -0.5554 -0.2591 -1.0988
 6961SOL    MW427612   1.937   1.967   2.948 -0.5460 -0.1306 -0.2369
 6962SOL     OW27613   1.567   3.205   0.940 -0.2921  0.9685  0.0298
 6962SOL    HW227614   1.573   3.126   0.994  0.8918  0.9526 -0.1130
 6962SOL    HW327615   1.475   3.231   0.947 -0.8559 -0.7674 -0.4175
 6962SOL    MW427616   1.555   3.198   0.948 -0.2103  0.7374 -0.0481
 6963SOL     OW27617   0.328   5.573   0.586 -0.0674 -0.1992 -0.3314
 6963SOL    HW227618   0.250   5.628   0.585  0.3709  0.4840  1.0711
 6963SOL    HW327619   0.399   5.630   0.557 -0.0424 -0.7716 -1.4451
 6963SOL    MW427620   0.327   5.588   0.582 -0.0063 -0.1846 -0.2933
 6964SOL     OW27621   4.278   5.672   1.712  0.2011 -0.6315 -0.0379
 6964SOL    HW227622   4.236   5.658   1.627  0.8884 -0.6047 -0.3896
 6964SOL    HW327623   4.303   5.585   1.742  1.1737 -0.5311 -0.5080
 6964SOL    MW427624   4.276   5.659   1.705  0.4201 -0.6147 -0.1463
 6965SOL     OW27625   2.703   3.190   0.834 -0.3387  0.9673 -0.1308
 6965SOL    HW227626   2.690   3.285   0.829  2.0509  1.3155 -2.4888
 6965SOL    HW327627   2.795   3.178   0.808 -0.4887 -1.9780  0.4411
 6965SOL    MW427628   2.714   3.201   0.830 -0.0432  0.6247 -0.3665
 6966SOL     OW27629   4.348   0.146   5.007 -0.6158  0.4832  0.1577
 6966SOL    HW227630   4.432   0.174   5.044 -0.3135  0.3216 -0.4024
 6966SOL    HW327631   4.283   0.180   5.069 -0.1905  1.3637  0.1414
 6966SOL    MW427632   4.351   0.155   5.020 -0.5198  0.5780  0.0816
 6967SOL     OW27633   4.522   3.563   3.812  0.1844 -0.1447  0.2409
 6967SOL    HW227634   4.557   3.500   3.875 -2.2606  1.2895  3.2654
 6967SOL    HW327635   4.480   3.630   3.865  1.7972  3.6885 -2.8078
 6967SOL    MW427636   4.521   3.563   3.827  0.0746  0.5503  0.2377
 6968SOL     OW27637   0.823   6.074   1.732  0.4195  0.4091  0.2226
 6968SOL    HW227638   0.898   6.029   1.770  0.3600  0.6582  0.6393
 6968SOL    HW327639   0.758   6.077   1.803  0.5140  1.3632  0.2828
 6968SOL    MW427640   0.824   6.068   1.746  0.4241  0.5679  0.2855
 6969SOL     OW27641   2.884   5.266   1.020  0.0578 -0.2687  0.1369
 6969SOL    HW227642   2.791   5.245   1.024  0.3863 -1.8368  0.1844
 6969SOL    HW327643   2.909   5.285   1.110 -0.0641 -0.5068  0.2190
 6969SOL    MW427644   2.875   5.266   1.032  0.0850 -0.5070  0.1540
 6970SOL     OW27645   5.040   3.431   2.120 -0.5202 -0.1178 -0.2279
 6970SOL    HW227646   5.135   3.425   2.117 -0.4255  0.2670  1.1326
 6970SOL    HW327647   5.010   3.390   2.039  0.7532 -1.1777 -0.1869
 6970SOL    MW427648   5.048   3.425   2.109 -0.3397 -0.2069 -0.0430
 6971SOL     OW27649   0.103   0.338   0.081 -0.1763  0.5053  0.7395
 6971SOL    HW227650   0.036   0.390   0.126 -0.4428  0.5806  0.2691
 6971SOL    HW327651   0.059   0.307   0.002  0.3726  0.6278  0.3788
 6971SOL    MW427652   0.088   0.341   0.077 -0.1391  0.5314  0.6299
 6972SOL     OW27653   3.072   2.865   3.547 -0.5163  0.4658  0.4661
 6972SOL    HW227654   3.061   2.929   3.477 -0.1637  1.5987  1.4076
 6972SOL    HW327655   3.154   2.820   3.526 -0.7815  0.2990 -0.2202
 6972SOL    MW427656   3.081   2.868   3.535 -0.5048  0.5933  0.4998
 6973SOL     OW27657   5.236   0.942   0.235  0.2266 -0.1530 -0.6891
 6973SOL    HW227658   5.203   0.926   0.324  0.2899  0.9038 -0.4616
 6973SOL    HW327659   5.273   1.030   0.239 -3.3464  1.6837 -2.7599
 6973SOL    MW427660   5.236   0.951   0.247 -0.2365  0.2287 -0.9323
 6974SOL     OW27661   4.421   4.041   4.658  0.1948 -0.3127  0.2209
 6974SOL    HW227662   4.428   3.983   4.582  2.5590 -1.1726  0.9910
 6974SOL    HW327663   4.377   3.988   4.724 -0.8010  0.0202 -0.1688
 6974SOL    MW427664   4.416   4.026   4.656  0.3753 -0.3822  0.2711
 6975SOL     OW27665   4.113   5.082   1.099  0.0901  0.2981  0.0642
 6975SOL    HW227666   4.141   5.031   1.023  0.1130 -1.4746  1.1916
 6975SOL    HW327667   4.017   5.079   1.096  0.0905 -0.1889  0.3409
 6975SOL    MW427668   4.104   5.075   1.089  0.0932 -0.0000  0.2494
 6976SOL     OW27669   0.869   3.627   5.815 -0.1576  0.1939 -0.1330
 6976SOL    HW227670   0.906   3.649   5.900 -0.7502  1.4950 -0.1810
 6976SOL    HW327671   0.775   3.622   5.830 -0.1771 -0.7597 -0.4832
 6976SOL    MW427672   0.862   3.629   5.828 -0.2384  0.2397 -0.1856
 6977SOL     OW27673   5.315   4.870   3.916 -0.5666  0.0597  0.8664
 6977SOL    HW227674   5.332   4.951   3.869  0.3780  0.4209  1.7986
 6977SOL    HW327675   5.382   4.809   3.885 -2.2746 -0.9543 -1.0896
 6977SOL    MW427676   5.326   4.872   3.906 -0.6673 -0.0265  0.7313
 6978SOL     OW27677   2.445   4.472   4.886  0.4610 -0.6855  0.6839
 6978SOL    HW227678   2.474   4.383   4.866  0.4789 -0.5965  0.3020
 6978SOL    HW327679   2.436   4.473   4.982 -1.9172 -1.8090  0.5272
 6978SOL    MW427680   2.448   4.460   4.896  0.1496 -0.8220  0.6128
 6979SOL     OW27681   4.192   2.527   1.092 -0.1396 -0.4605  0.6025
 6979SOL    HW227682   4.197   2.553   1.184  0.2626 -1.6643  0.9360
 6979SOL    HW327683   4.212   2.607   1.044 -0.6934  0.2665  1.5450
 6979SOL    MW427684   4.196   2.541   1.098 -0.1596 -0.5234  0.7708
 6980SOL     OW27685   5.193   5.363   0.575 -0.1632  0.3078 -0.3861
 6980SOL    HW227686   5.106   5.343   0.539 -0.9116  1.3778  0.7470
 6980SOL    HW327687   5.179   5.441   0.629  1.0246 -0.8905  1.7638
 6980SOL    MW427688   5.179   5.371   0.577 -0.1052  0.2909  0.0470
 6981SOL     OW27689   6.219   5.869   0.338 -0.3806 -0.6525 -0.4895
 6981SOL    HW227690   6.236   5.796   0.279 -0.7746 -0.1745 -1.2092
 6981SOL    HW327691   6.286   5.933   0.316 -0.7833 -0.3030 -0.7186
 6981SOL    MW427692   6.230   5.868   0.327 -0.4857 -0.5433 -0.6147
 6982SOL     OW27693   4.553   5.984   3.262  0.5246  0.0399 -0.4592
 6982SOL    HW227694   4.575   5.913   3.202 -0.1178 -0.4828 -0.0930
 6982SOL    HW327695   4.464   6.010   3.237  0.1267 -0.4070  0.4751
 6982SOL    MW427696   4.544   5.978   3.251  0.3874 -0.0880 -0.2876
 6983SOL     OW27697   4.718   0.102   3.064  0.4109 -0.0352  0.4923
 6983SOL    HW227698   4.675   0.093   2.979  1.3333  1.2162 -0.1552
 6983SOL    HW327699   4.746   0.194   3.067  1.6013 -0.4005  1.5523
 6983SOL    MW427700   4.716   0.113   3.053  0.6897  0.0817  0.5467
 6984SOL     OW27701   5.332   1.699   4.771  0.4215 -0.2413  0.5602
 6984SOL    HW227702   5.364   1.708   4.681  0.5478  0.3162  0.6522
 6984SOL    HW327703   5.292   1.612   4.774  1.3190 -0.6829  0.2475
 6984SOL    MW427704   5.331   1.689   4.759  0.5566 -0.2260  0.5311
 6985SOL     OW27705   1.552   4.332   3.913 -0.0809  0.5665 -0.1849
 6985SOL    HW227706   1.643   4.327   3.883 -0.0481 -0.2980  0.0261
 6985SOL    HW327707   1.556   4.385   3.992  0.4703 -0.6337  0.6247
 6985SOL    MW427708   1.564   4.338   3.919 -0.0038  0.2941 -0.0502
 6986SOL     OW27709   5.197   1.806   3.899 -0.3979 -0.7887 -0.0443
 6986SOL    HW227710   5.284   1.773   3.923  0.5313  0.8916 -0.8818
 6986SOL    HW327711   5.156   1.829   3.982  1.7450  2.5122  0.3289
 6986SOL    MW427712   5.203   1.805   3.913  0.0074 -0.1315 -0.1055
 6987SOL     OW27713   2.538   2.466   4.203  0.0025  0.0141  0.0020
 6987SOL    HW227714   2.611   2.412   4.234  1.2060  0.1375 -2.3828
 6987SOL    HW327715   2.493   2.412   4.139 -1.0310  0.5364  0.2607
 6987SOL    MW427716   2.542   2.452   4.199  0.0249  0.0993 -0.2785
 6988SOL     OW27717   2.962   0.098   5.340 -0.2356  0.3941 -0.1045
 6988SOL    HW227718   3.031   0.155   5.309 -0.4462  1.4726  1.3232
 6988SOL    HW327719   2.887   0.156   5.355 -0.5176 -0.2572  1.1701
 6988SOL    MW427720   2.961   0.113   5.338 -0.3006  0.4505  0.2520
 6989SOL     OW27721   3.031   6.337   1.670  0.1362  0.2232 -0.1695
 6989SOL    HW227722   3.059   6.356   1.581 -1.3852 -0.1182 -0.7652
 6989SOL    HW327723   2.936   6.352   1.668 -0.0075 -0.3609  1.2382
 6989SOL    MW427724   3.022   6.342   1.658 -0.0835  0.1011 -0.0624
 6990SOL     OW27725   2.961   2.968   2.237  0.4928  0.1868 -0.3407
 6990SOL    HW227726   2.887   2.915   2.208 -0.5005 -1.2476  3.9884
 6990SOL    HW327727   2.922   3.050   2.267  0.6470 -0.2986  1.2991
 6990SOL    MW427728   2.946   2.972   2.237  0.3821 -0.0665  0.4468
 6991SOL     OW27729   5.556   2.183   6.087  0.3908  0.0966 -0.0331
 6991SOL    HW227730   5.468   2.222   6.089 -0.3912 -1.5027 -0.6832
 6991SOL    HW327731   5.539   2.088   6.088  2.0083 -0.2797 -2.1900
 6991SOL    MW427732   5.542   2.176   6.087  0.5010 -0.1641 -0.4035
 6992SOL     OW27733   1.679   3.671   5.557  0.2873 -0.3072 -0.1268
 6992SOL    HW227734   1.619   3.739   5.527  0.5977  1.4492  2.8278
 6992SOL    HW327735   1.625   3.592   5.561 -0.9658  0.4938 -0.5879
 6992SOL    MW427736   1.664   3.670   5.554  0.1629  0.0303  0.2022
 6993SOL     OW27737   5.883   4.243   2.087  0.1590 -0.5654  0.7974
 6993SOL    HW227738   5.827   4.183   2.037  0.3239  0.0723 -0.1788
 6993SOL    HW327739   5.972   4.220   2.062  0.2240  0.0974  0.3816
 6993SOL    MW427740   5.887   4.232   2.077  0.1894 -0.3938  0.6137
 6994SOL     OW27741   3.449   3.303   1.719  0.2422  0.1922 -0.2945
 6994SOL    HW227742   3.454   3.269   1.630 -0.1971  0.2407 -0.3401
 6994SOL    HW327743   3.419   3.393   1.709  2.0986  0.8675 -0.2228
 6994SOL    MW427744   3.446   3.311   1.706  0.4292  0.2877 -0.2911
 6995SOL     OW27745   0.817   2.751   1.317  0.0317  0.2554  0.9137
 6995SOL    HW227746   0.835   2.681   1.381  1.8515 -1.6431 -1.4530
 6995SOL    HW327747   0.722   2.758   1.315 -0.1529 -1.2256  2.2127
 6995SOL    MW427748   0.807   2.743   1.325  0.2475 -0.1905  0.7729
 6996SOL     OW27749   2.203   2.057   5.503 -0.2942  0.2918 -0.0373
 6996SOL    HW227750   2.160   2.004   5.436 -0.6133  0.4073  0.0722
 6996SOL    HW327751   2.295   2.058   5.478 -0.1590 -0.8992  0.3422
 6996SOL    MW427752   2.210   2.050   5.491 -0.3184  0.1499  0.0272
 6997SOL     OW27753   2.634   4.521   3.544  0.3189  0.0738  0.1484
 6997SOL    HW227754   2.633   4.607   3.501 -1.0872 -0.1798 -0.3818
 6997SOL    HW327755   2.556   4.521   3.598  0.5977 -0.6797  0.5598
 6997SOL    MW427756   2.624   4.532   3.545  0.1701 -0.0591  0.1327
 6998SOL     OW27757   1.696   6.264   4.366  0.2548 -0.4985  0.3348
 6998SOL    HW227758   1.714   6.178   4.405 -0.4597 -0.7712  0.0863
 6998SOL    HW327759   1.657   6.243   4.281 -0.3912  0.0692  0.4877
 6998SOL    MW427760   1.693   6.250   4.360  0.0753 -0.4596  0.3222
 6999SOL     OW27761   1.769   4.905   4.060  0.3148  0.1440  0.2379
 6999SOL    HW227762   1.782   4.811   4.073 -1.8531 -0.4485 -1.4181
 6999SOL    HW327763   1.771   4.916   3.965 -2.5017  1.2400  0.2361
 6999SOL    MW427764   1.771   4.894   4.049 -0.3428  0.2104  0.0192
 7000SOL     OW27765   2.457   3.600   5.297 -0.8503  0.2736  0.1285
 7000SOL    HW227766   2.530   3.599   5.236 -0.7000 -0.9392  0.2968
 7000SOL    HW327767   2.397   3.666   5.262 -0.0611  0.6820 -0.4691
 7000SOL    MW427768   2.459   3.609   5.285 -0.7263  0.1674  0.0719
 7001SOL     OW27769   3.208   5.580   6.045  0.0866 -0.2985  0.1669
 7001SOL    HW227770   3.241   5.528   5.971 -1.6912 -0.4658 -0.5650
 7001SOL    HW327771   3.273   5.648   6.058  0.7348 -0.6262 -1.1840
 7001SOL    MW427772   3.221   5.582   6.037 -0.0625 -0.3638 -0.1079
 7002SOL     OW27773   5.895   1.948   4.680  0.2119 -0.5537  0.0905
 7002SOL    HW227774   5.892   2.044   4.679  3.6552 -0.2574  2.0713
 7002SOL    HW327775   5.976   1.927   4.633  1.3726 -2.1901  2.6025
 7002SOL    MW427776   5.906   1.958   4.673  0.8194 -0.7305  0.6832
 7003SOL     OW27777   3.598   0.115   1.781  0.1517 -0.0492  0.2323
 7003SOL    HW227778   3.502   0.118   1.779  0.1666  2.2522  0.8881
 7003SOL    HW327779   3.623   0.091   1.692 -1.0074  1.5065 -0.5505
 7003SOL    MW427780   3.588   0.112   1.769  0.0007  0.4597  0.2155
 7004SOL     OW27781   1.812   5.982   4.911  0.1435 -0.3255 -0.4644
 7004SOL    HW227782   1.903   5.982   4.884  0.1020 -0.9946 -0.6298
 7004SOL    HW327783   1.802   5.900   4.961 -0.4297 -0.3985 -0.6942
 7004SOL    MW427784   1.822   5.971   4.914  0.0624 -0.4234 -0.5165
 7005SOL     OW27785   6.040   3.395   2.015 -0.0659 -0.0746  0.2063
 7005SOL    HW227786   5.987   3.467   1.980 -0.5145  0.2173  1.4252
 7005SOL    HW327787   6.124   3.436   2.038 -0.1951  0.0022  0.5623
 7005SOL    MW427788   6.044   3.410   2.014 -0.1421 -0.0259  0.4141
 7006SOL     OW27789   4.868   0.614   1.579 -0.0998 -0.0717  0.4901
 7006SOL    HW227790   4.810   0.592   1.506 -1.3708  2.0746  0.7768
 7006SOL    HW327791   4.833   0.566   1.653 -0.8772  0.3639  0.4169
 7006SOL    MW427792   4.856   0.605   1.579 -0.3700  0.2690  0.5183
 7007SOL     OW27793   4.523   4.412   3.295 -0.4346  0.0016  0.2751
 7007SOL    HW227794   4.603   4.413   3.347  0.1640 -0.9679 -0.5883
 7007SOL    HW327795   4.485   4.499   3.307  0.8259  0.5268  0.5620
 7007SOL    MW427796   4.528   4.423   3.303 -0.1894 -0.0570  0.1990
 7008SOL     OW27797   6.129   5.837   2.178  0.1557 -0.4454 -0.2947
 7008SOL    HW227798   6.037   5.820   2.198  0.6385 -1.0737  1.5683
 7008SOL    HW327799   6.143   5.928   2.205  0.0780 -0.3150 -0.6781
 7008SOL    MW427800   6.118   5.847   2.184  0.2091 -0.5111 -0.0995
 7009SOL     OW27801   2.839   5.813   3.171 -0.1173  0.0730 -0.0496
 7009SOL    HW227802   2.860   5.771   3.087  1.3530 -0.0455  0.3496
 7009SOL    HW327803   2.868   5.904   3.161  2.9361 -0.6237  1.2704
 7009SOL    MW427804   2.845   5.819   3.158  0.4795 -0.0346  0.1772
 7010SOL     OW27805   5.905   5.401   4.506  0.2834 -0.2863 -0.1753
 7010SOL    HW227806   5.827   5.350   4.483 -0.4422 -0.2462  1.9665
 7010SOL    HW327807   5.877   5.492   4.497  0.1225 -0.2731  0.4180
 7010SOL    MW427808   5.891   5.407   4.502  0.1664 -0.2793  0.1855
 7011SOL     OW27809   6.329   1.540   2.734  0.6747  0.0348  0.3540
 7011SOL    HW227810   6.351   1.558   2.643  1.8164 -0.1171  0.5787
 7011SOL    HW327811   6.267   1.609   2.758  2.0837  1.4598  0.0982
 7011SOL    MW427812   6.324   1.551   2.725  1.0112  0.2028  0.3499
 7012SOL     OW27813   3.029   1.342   4.197  0.2589 -0.1730  0.1407
 7012SOL    HW227814   2.999   1.338   4.106 -0.3661  0.1890  0.3253
 7012SOL    HW327815   3.020   1.253   4.230  0.7125 -0.3579 -0.2163
 7012SOL    MW427816   3.024   1.330   4.189  0.2363 -0.1496  0.1179
 7013SOL     OW27817   3.712   3.508   4.937  0.0076 -0.1951  0.0878
 7013SOL    HW227818   3.676   3.504   5.025 -0.4604 -1.5581 -0.1503
 7013SOL    HW327819   3.651   3.457   4.883  1.3010 -1.0159 -0.6673
 7013SOL    MW427820   3.699   3.501   4.941  0.1165 -0.4832 -0.0432
 7014SOL     OW27821   1.155   4.572   1.260  0.1859 -0.8391  0.2216
 7014SOL    HW227822   1.226   4.560   1.323  0.6785  0.3101 -0.0844
 7014SOL    HW327823   1.115   4.655   1.286  0.5460 -0.2289 -1.1100
 7014SOL    MW427824   1.159   4.582   1.272  0.2984 -0.6070  0.0056
 7015SOL     OW27825   6.271   5.935   3.380 -0.2305 -0.5277  1.3068
 7015SOL    HW227826   6.264   6.008   3.442 -1.1758 -0.5107  1.1851
 7015SOL    HW327827   6.181   5.915   3.355  0.1401 -0.2951 -0.3438
 7015SOL    MW427828   6.258   5.942   3.385 -0.3063 -0.4948  1.0729
 7016SOL     OW27829   2.029   1.365   0.733 -0.1279  0.2105  0.2319
 7016SOL    HW227830   2.118   1.332   0.740  0.1051  1.0099  1.3157
 7016SOL    HW327831   2.025   1.408   0.648  0.4175 -0.1094  0.0444
 7016SOL    MW427832   2.040   1.366   0.723 -0.0252  0.2738  0.3502
 7017SOL     OW27833   1.371   0.433   2.528 -0.7558 -0.0690  0.4160
 7017SOL    HW227834   1.407   0.515   2.496 -1.7703  0.6852  1.1429
 7017SOL    HW327835   1.401   0.427   2.619  0.9868 -1.5262 -0.1875
 7017SOL    MW427836   1.379   0.443   2.536 -0.6598 -0.1618  0.4323
 7018SOL     OW27837   4.152   3.797   1.222  0.2148 -0.1207 -0.1685
 7018SOL    HW227838   4.178   3.885   1.194  1.7150 -0.5644 -0.2491
 7018SOL    HW327839   4.158   3.800   1.318  1.2174 -0.3914 -0.2098
 7018SOL    MW427840   4.157   3.809   1.231  0.5450 -0.2149 -0.1846
 7019SOL     OW27841   2.951   4.621   5.232  0.1897  0.5679  0.1468
 7019SOL    HW227842   2.913   4.707   5.214 -1.8574 -0.3889 -0.4089
 7019SOL    HW327843   2.966   4.583   5.145 -0.7870 -0.3882  0.3804
 7019SOL    MW427844   2.948   4.627   5.218 -0.2093  0.3156  0.1043
 7020SOL     OW27845   5.990   0.129   3.159 -0.3072 -0.8594 -0.3291
 7020SOL    HW227846   6.049   0.073   3.209 -1.1237 -1.0358  0.4756
 7020SOL    HW327847   6.023   0.218   3.174 -0.6792 -0.8834  0.7713
 7020SOL    MW427848   6.002   0.133   3.168 -0.4640 -0.8859 -0.0778
 7021SOL     OW27849   3.217   0.950   4.653  0.3116 -1.0742  0.7117
 7021SOL    HW227850   3.139   0.978   4.700  0.4950 -1.1348  1.0528
 7021SOL    HW327851   3.183   0.906   4.575  0.0156  1.0627 -0.4494
 7021SOL    MW427852   3.203   0.948   4.649  0.2967 -0.8003  0.6035
 7022SOL     OW27853   6.022   2.707   3.158 -0.6773  0.3652 -0.3449
 7022SOL    HW227854   6.109   2.669   3.151 -0.4963  0.9519 -1.7839
 7022SOL    HW327855   6.008   2.751   3.074 -2.0434  0.9600  0.1485
 7022SOL    MW427856   6.032   2.708   3.146 -0.8337  0.5211 -0.4697
 7023SOL     OW27857   6.306   3.942   4.737  0.1961  0.3947 -0.1250
 7023SOL    HW227858   6.370   3.918   4.670 -1.2802 -1.7325 -0.9116
 7023SOL    HW327859   6.298   3.863   4.791 -1.4675  0.7335  0.1721
 7023SOL    MW427860   6.313   3.928   4.735 -0.2182  0.1587 -0.1896
 7024SOL     OW27861   3.496   1.771   0.620 -0.0001  0.5247  0.1024
 7024SOL    HW227862   3.552   1.742   0.693 -0.4924  0.0983  0.3179
 7024SOL    HW327863   3.523   1.862   0.604  0.3213  0.5260  0.6184
 7024SOL    MW427864   3.507   1.779   0.628 -0.0227  0.4686  0.1989
 7025SOL     OW27865   4.649   6.340   6.021  0.1726  0.1209  0.3909
 7025SOL    HW227866   4.615   6.302   5.940 -1.7126 -0.0509  1.2213
 7025SOL    HW327867   4.613   6.429   6.023  1.6528  0.7626  0.2120
 7025SOL    MW427868   4.640   6.347   6.010  0.1192  0.1829  0.4768
 7026SOL     OW27869   0.010   0.329   3.770  0.7808  0.0783 -0.4574
 7026SOL    HW227870  -0.083   0.347   3.758  0.7363  0.1005 -0.1143
 7026SOL    HW327871   0.022   0.239   3.742  0.3525 -0.4430  0.9207
 7026SOL    MW427872  -0.001   0.320   3.765  0.7184  0.0125 -0.2303
 7027SOL     OW27873   2.064   6.272   5.136 -0.4920  0.6340 -0.1554
 7027SOL    HW227874   2.109   6.201   5.181 -3.0153 -1.2825 -0.5017
 7027SOL    HW327875   2.131   6.340   5.127  1.7660 -1.2969  0.9991
 7027SOL    MW427876   2.079   6.272   5.141 -0.5270  0.1264 -0.0487
 7028SOL     OW27877   4.483   4.591   0.744  0.1533  0.0972 -0.4844
 7028SOL    HW227878   4.505   4.613   0.654  2.4504 -1.4060 -0.3646
 7028SOL    HW327879   4.401   4.541   0.738  0.1186  0.2920 -1.6864
 7028SOL    MW427880   4.475   4.587   0.732  0.4518 -0.0754 -0.6272
 7029SOL     OW27881   0.854   3.402   0.328 -0.7042  0.8583  0.0332
 7029SOL    HW227882   0.830   3.462   0.258 -0.5994  2.6171  1.4187
 7029SOL    HW327883   0.946   3.422   0.345  0.0963 -1.4698 -1.0857
 7029SOL    MW427884   0.863   3.412   0.321 -0.5847  0.7832  0.0684
 7030SOL     OW27885   5.815   4.285   0.300  0.6490 -0.3267  0.1106
 7030SOL    HW227886   5.794   4.217   0.236  0.0319 -1.8307  1.8421
 7030SOL    HW327887   5.897   4.256   0.341  0.1962 -0.2381  1.1123
 7030SOL    MW427888   5.823   4.273   0.297  0.5079 -0.5135  0.4712
 7031SOL     OW27889   0.345   1.265   0.686 -0.1097  0.7660  0.2994
 7031SOL    HW227890   0.342   1.301   0.597  3.0747 -1.9315 -1.1369
 7031SOL    HW327891   0.399   1.326   0.735  1.4882  0.3460 -0.8450
 7031SOL    MW427892   0.352   1.277   0.681  0.5212  0.3547 -0.0411
 7032SOL     OW27893   3.906   2.111   1.778 -0.1219  0.5677  0.3024
 7032SOL    HW227894   3.878   2.135   1.866  0.6329 -2.3391  1.4744
 7032SOL    HW327895   3.825   2.106   1.727 -0.8339  0.2555  1.4235
 7032SOL    MW427896   3.892   2.113   1.783 -0.1163  0.1430  0.6049
 7033SOL     OW27897   0.021   2.839   4.364  1.0024  0.5844  0.6920
 7033SOL    HW227898   0.084   2.787   4.315  0.7083  2.1644 -1.4892
 7033SOL    HW327899  -0.038   2.775   4.403 -1.2280 -0.8576 -4.3482
 7033SOL    MW427900   0.022   2.824   4.363  0.6694  0.6026 -0.2607
 7034SOL     OW27901   2.045   1.544   5.850  0.4309  0.3460  0.2396
 7034SOL    HW227902   2.003   1.629   5.863 -1.0778 -0.5517  1.6246
 7034SOL    HW327903   2.138   1.560   5.866 -0.1431  1.2343  3.2803
 7034SOL    MW427904   2.052   1.557   5.854  0.1561  0.3448  0.8235
 7035SOL     OW27905   0.368   4.627   4.856  0.0403 -0.0718  0.2120
 7035SOL    HW227906   0.274   4.633   4.838  0.0716  0.3918  0.2021
 7035SOL    HW327907   0.378   4.543   4.902 -0.3678 -0.1523  0.1600
 7035SOL    MW427908   0.357   4.617   4.860 -0.0094 -0.0212  0.2039
 7036SOL     OW27909   4.710   2.874   2.697  0.0734  0.6204 -0.4692
 7036SOL    HW227910   4.626   2.839   2.669  0.2303 -0.3995  0.3046
 7036SOL    HW327911   4.688   2.947   2.755 -0.3268 -0.6803  1.0705
 7036SOL    MW427912   4.696   2.879   2.701  0.0413  0.3142 -0.1640
 7037SOL     OW27913   0.223   2.883   6.283 -0.0934  0.1947 -0.0812
 7037SOL    HW227914   0.177   2.894   6.200  1.0422 -1.5995 -1.0194
 7037SOL    HW327915   0.156   2.893   6.350 -1.1657  1.0172 -1.2385
 7037SOL    MW427916   0.208   2.886   6.281 -0.0851  0.0665 -0.3577
 7038SOL     OW27917   2.803   3.326   5.774 -0.3864 -0.1698 -0.1533
 7038SOL    HW227918   2.793   3.421   5.766 -0.6133 -0.3206 -2.2340
 7038SOL    HW327919   2.726   3.298   5.823  0.4925  0.8527  1.9276
 7038SOL    MW427920   2.792   3.335   5.779 -0.3004 -0.0548 -0.1533
 7039SOL     OW27921   2.052   2.301   0.658 -1.0500  0.5999 -0.2845
 7039SOL    HW227922   1.990   2.372   0.641 -0.9245  0.6392 -0.5728
 7039SOL    HW327923   2.017   2.226   0.610  0.3385  1.2257 -2.3520
 7039SOL    MW427924   2.039   2.301   0.650 -0.8502  0.6877 -0.5953
 7040SOL     OW27925   4.530   5.959   6.121 -0.3139 -0.3799  0.4703
 7040SOL    HW227926   4.595   5.967   6.192 -0.1392  1.0776  0.1867
 7040SOL    HW327927   4.446   5.967   6.165 -0.2163  0.1397  0.5765
 7040SOL    MW427928   4.528   5.961   6.136 -0.2780 -0.1190  0.4469
 7041SOL     OW27929   6.132   2.517   1.968  0.7082 -0.3248 -0.4058
 7041SOL    HW227930   6.079   2.588   2.003 -0.9879 -0.4723 -2.4180
 7041SOL    HW327931   6.204   2.507   2.029 -0.9654  0.6962  1.8677
 7041SOL    MW427932   6.134   2.525   1.981  0.2636 -0.2096 -0.3713
 7042SOL     OW27933   5.621   3.538   2.585 -0.5313  0.3745  0.2740
 7042SOL    HW227934   5.659   3.458   2.548  0.4853  1.0501 -0.1803
 7042SOL    HW327935   5.694   3.583   2.626 -0.9190  1.4924 -0.2207
 7042SOL    MW427936   5.635   3.533   2.586 -0.4483  0.6111  0.1488
 7043SOL     OW27937   0.796   5.268   4.427 -0.0693 -0.1338 -0.1834
 7043SOL    HW227938   0.769   5.359   4.417 -1.0532 -0.2218  1.2841
 7043SOL    HW327939   0.890   5.272   4.444 -0.2291  0.6766  0.5820
 7043SOL    MW427940   0.805   5.280   4.428 -0.2202 -0.0385  0.1112
 7044SOL     OW27941   6.343   0.198   0.453 -0.0840 -0.2366 -0.6247
 7044SOL    HW227942   6.418   0.256   0.455 -0.6545  0.5071 -0.3642
 7044SOL    HW327943   6.271   0.252   0.420 -1.1324 -0.1364  1.6259
 7044SOL    MW427944   6.343   0.213   0.449 -0.2976 -0.1253 -0.2934
 7045SOL     OW27945   2.634   2.187   6.025  0.2819 -0.2444 -0.8591
 7045SOL    HW227946   2.631   2.281   6.041  1.7292 -0.1456 -1.0184
 7045SOL    HW327947   2.666   2.149   6.107 -1.6110 -0.7804 -0.3102
 7045SOL    MW427948   2.638   2.194   6.038  0.2231 -0.3020 -0.8077
 7046SOL     OW27949   5.001   0.101   0.246 -0.1383 -0.3016 -0.6239
 7046SOL    HW227950   4.994   0.196   0.240  0.8219 -0.2738 -1.7493
 7046SOL    HW327951   5.095   0.084   0.249 -0.3020 -1.2061  0.0171
 7046SOL    MW427952   5.013   0.111   0.246 -0.0332 -0.4172 -0.6878
 7047SOL     OW27953   4.468   6.246   1.169 -0.4838 -0.5570  0.0528
 7047SOL    HW227954   4.399   6.289   1.117  1.2630 -0.2363 -2.1313
 7047SOL    HW327955   4.544   6.246   1.112  0.9173 -2.3407  1.8091
 7047SOL    MW427956   4.469   6.252   1.154 -0.0685 -0.7500 -0.0036
 7048SOL     OW27957   2.537   1.390   1.436  0.3784 -0.3228  0.3264
 7048SOL    HW227958   2.599   1.356   1.372 -0.5808 -0.6104 -0.4776
 7048SOL    HW327959   2.453   1.353   1.410 -0.2883  0.7543  0.8616
 7048SOL    MW427960   2.534   1.381   1.424  0.1639 -0.2186  0.2910
 7049SOL     OW27961   5.905   0.449   4.898 -0.1205  0.0330 -0.2506
 7049SOL    HW227962   5.872   0.403   4.821 -1.3409  0.3943  0.0368
 7049SOL    HW327963   5.827   0.483   4.941  0.6156  0.6757  0.6184
 7049SOL    MW427964   5.891   0.448   4.893 -0.1844  0.1654 -0.0980
 7050SOL     OW27965   1.533   0.116   5.680 -0.0713 -0.0334 -0.0586
 7050SOL    HW227966   1.606   0.149   5.734 -0.2197 -0.7213  0.5766
 7050SOL    HW327967   1.498   0.194   5.638  0.0701  0.5201  0.8217
 7050SOL    MW427968   1.538   0.131   5.681 -0.0722 -0.0511  0.1413
 7051SOL     OW27969   0.767   1.825   1.769 -0.7519 -0.1025 -0.3870
 7051SOL    HW227970   0.777   1.758   1.701 -0.7821  1.7093 -2.2825
 7051SOL    HW327971   0.852   1.869   1.772 -1.2965  0.9963 -0.5747
 7051SOL    MW427972   0.780   1.822   1.760 -0.8277  0.2815 -0.6619
 7052SOL     OW27973   5.044   3.716   4.536  0.1611 -0.5322 -0.4608
 7052SOL    HW227974   5.031   3.687   4.626 -1.1773 -0.0549 -0.4778
 7052SOL    HW327975   4.956   3.732   4.503  0.7176  1.3893 -1.1524
 7052SOL    MW427976   5.031   3.714   4.544  0.0580 -0.2157 -0.5543
 7053SOL     OW27977   1.060   5.735   0.157 -0.4778  0.0827 -0.5525
 7053SOL    HW227978   1.073   5.822   0.197 -0.4934  0.3941 -1.2092
 7053SOL    HW327979   1.011   5.753   0.076 -2.6635 -0.7721  0.4932
 7053SOL    MW427980   1.055   5.749   0.152 -0.7683  0.0110 -0.5012
 7054SOL     OW27981   1.834   5.789   1.103  0.0094 -0.1811 -0.1087
 7054SOL    HW227982   1.856   5.734   1.028  1.3618 -0.0186  0.1454
 7054SOL    HW327983   1.831   5.729   1.177  3.9513  0.2990  0.6298
 7054SOL    MW427984   1.836   5.774   1.103  0.7079 -0.0963  0.0223
 7055SOL     OW27985   3.782   2.386   1.015  0.7651  0.2156 -0.1141
 7055SOL    HW227986   3.720   2.331   1.062  1.9722 -0.3912  0.8208
 7055SOL    HW327987   3.783   2.468   1.063  0.2729  0.4259 -0.4621
 7055SOL    MW427988   3.774   2.389   1.027  0.8594  0.1633 -0.0367
 7056SOL     OW27989   1.356   5.451   4.149 -0.4374  0.1346 -0.5114
 7056SOL    HW227990   1.335   5.512   4.078  0.7956  2.1066  0.7026
 7056SOL    HW327991   1.451   5.458   4.160 -0.2420 -2.1086 -0.3428
 7056SOL    MW427992   1.366   5.460   4.141 -0.2490  0.0988 -0.3289
 7057SOL     OW27993   0.544   5.171   3.146  0.0093  0.6242 -0.2903
 7057SOL    HW227994   0.632   5.167   3.183  0.0339  0.6251 -0.3495
 7057SOL    HW327995   0.496   5.228   3.206  0.1167  0.8279 -0.4004
 7057SOL    MW427996   0.549   5.178   3.159  0.0267  0.6512 -0.3126
 7058SOL     OW27997   5.446   2.772   3.727 -0.2071  0.1726 -0.3307
 7058SOL    HW227998   5.444   2.688   3.773 -0.6713  0.3894  0.0565
 7058SOL    HW327999   5.437   2.748   3.635 -2.1717 -0.1266 -0.1085
 7058SOL    MW428000   5.445   2.758   3.721 -0.5275  0.1618 -0.2503
 7059SOL     OW28001   1.487   3.202   5.995  0.2883 -0.1740 -0.5629
 7059SOL    HW228002   1.393   3.189   5.981  0.6425 -1.3539 -2.1189
 7059SOL    HW328003   1.506   3.285   5.951 -0.0311  0.1568 -0.0956
 7059SOL    MW428004   1.477   3.211   5.987  0.2929 -0.2860 -0.7066
 7060SOL     OW28005   0.318   3.412   5.403 -0.4786 -0.2814  0.2018
 7060SOL    HW228006   0.252   3.403   5.335 -0.0943 -1.9091 -0.0117
 7060SOL    HW328007   0.371   3.332   5.396  1.2038  0.7398  0.6947
 7060SOL    MW428008   0.316   3.400   5.393 -0.2059 -0.3614  0.2386
 7061SOL     OW28009   1.472   2.610   5.788 -0.3951 -0.8979 -0.2630
 7061SOL    HW228010   1.497   2.592   5.879  2.3794 -0.9167 -0.9311
 7061SOL    HW328011   1.479   2.705   5.780 -0.2594 -0.9318 -0.5508
 7061SOL    MW428012   1.476   2.620   5.799 -0.0112 -0.9048 -0.3891
 7062SOL     OW28013   4.278   4.033   3.680  0.5221 -0.0324  0.3473
 7062SOL    HW228014   4.272   4.072   3.593 -0.6819 -0.6452  0.1275
 7062SOL    HW328015   4.330   3.954   3.668 -0.5374 -0.6829 -0.0429
 7062SOL    MW428016   4.284   4.028   3.667  0.2234 -0.1991  0.2668
 7063SOL     OW28017   6.039   5.280   3.742 -0.1080 -0.3697  0.4606
 7063SOL    HW228018   6.110   5.288   3.679 -0.0352  4.9999  0.7188
 7063SOL    HW328019   6.080   5.298   3.827 -1.0801 -2.1360  1.3653
 7063SOL    MW428020   6.054   5.284   3.745 -0.2266  0.1057  0.6141
 7064SOL     OW28021   1.458   4.312   4.857  0.3777 -0.6362  0.0642
 7064SOL    HW228022   1.496   4.378   4.799  2.3391 -1.7999 -0.0641
 7064SOL    HW328023   1.407   4.255   4.800  0.3852 -0.4269 -0.1501
 7064SOL    MW428024   1.456   4.313   4.842  0.6375 -0.7621  0.0190
 7065SOL     OW28025   4.583   4.788   1.895 -0.8365  0.0350  0.0443
 7065SOL    HW228026   4.562   4.750   1.980 -0.2342  1.6714  0.9887
 7065SOL    HW328027   4.501   4.828   1.866 -1.6066 -2.3178 -1.1961
 7065SOL    MW428028   4.569   4.788   1.903 -0.8587 -0.0595  0.0053
 7066SOL     OW28029   4.298   3.859   5.995 -0.1153 -0.3689  0.0843
 7066SOL    HW228030   4.220   3.807   6.015  0.7208 -2.2293 -1.1701
 7066SOL    HW328031   4.315   3.841   5.903  0.7006  1.5688 -0.1878
 7066SOL    MW428032   4.290   3.850   5.986  0.1026 -0.3587 -0.1171
 7067SOL     OW28033   3.131   1.718   3.248 -0.5390  0.2083  0.7530
 7067SOL    HW228034   3.198   1.785   3.264  0.0144 -0.2262  0.2724
 7067SOL    HW328035   3.048   1.765   3.257 -0.1915  0.6157  1.9683
 7067SOL    MW428036   3.128   1.733   3.251 -0.4202  0.2047  0.8500
 7068SOL     OW28037   1.981   5.171   2.142 -0.8934 -0.1585 -0.0803
 7068SOL    HW228038   2.038   5.153   2.068 -0.1923  0.1000  0.3840
 7068SOL    HW328039   1.935   5.089   2.158  0.9726 -1.0518  0.9184
 7068SOL    MW428040   1.982   5.158   2.134 -0.5547 -0.2423  0.1127
 7069SOL     OW28041   3.781   1.569   4.669 -0.0344  0.0809  0.4323
 7069SOL    HW228042   3.791   1.664   4.657  1.3638  0.0569  1.2879
 7069SOL    HW328043   3.815   1.552   4.756  0.8998 -1.3952 -0.1908
 7069SOL    MW428044   3.787   1.579   4.679  0.2734 -0.1170  0.4630
 7070SOL     OW28045   3.516   1.279   1.146  0.2311 -0.4165 -0.0700
 7070SOL    HW228046   3.447   1.223   1.109 -1.8517  0.7252  1.8344
 7070SOL    HW328047   3.597   1.246   1.106 -1.0762 -3.4605 -0.5473
 7070SOL    MW428048   3.518   1.267   1.135 -0.2162 -0.6675  0.1183
 7071SOL     OW28049   5.254   3.985   2.344  0.5431 -0.6873  0.4637
 7071SOL    HW228050   5.317   4.005   2.275 -0.3025  1.5032  0.2280
 7071SOL    HW328051   5.305   3.940   2.411  1.7941 -1.1778 -0.7585
 7071SOL    MW428052   5.269   3.982   2.343  0.5966 -0.4630  0.2714
 7072SOL     OW28053   0.791   3.872   1.496 -0.3650 -0.3957  0.3242
 7072SOL    HW228054   0.864   3.931   1.516 -0.4117  0.0171 -0.6924
 7072SOL    HW328055   0.728   3.888   1.566 -0.5097  0.9993 -0.1051
 7072SOL    MW428056   0.792   3.882   1.508 -0.3903 -0.1572  0.1334
 7073SOL     OW28057   0.218   5.045   1.810 -0.3902  0.5046 -0.5351
 7073SOL    HW228058   0.217   4.977   1.743 -1.8519 -0.3626  0.2850
 7073SOL    HW328059   0.223   4.996   1.893  1.7843  1.5565  0.0269
 7073SOL    MW428060   0.218   5.029   1.812 -0.2961  0.5290 -0.3528
 7074SOL     OW28061   4.191   5.712   5.577 -0.4649 -0.2063  0.0605
 7074SOL    HW228062   4.256   5.728   5.646  0.5986  0.0611 -0.9651
 7074SOL    HW328063   4.132   5.787   5.582  0.3524  0.4654 -0.1331
 7074SOL    MW428064   4.192   5.724   5.587 -0.2167 -0.0824 -0.1004
 7075SOL     OW28065   6.384   2.811   2.385 -0.2351 -0.4886  0.3522
 7075SOL    HW228066   6.430   2.891   2.409  0.9575 -0.4614 -1.7339
 7075SOL    HW328067   6.386   2.811   2.289 -2.9986 -1.4468  0.2132
 7075SOL    MW428068   6.390   2.822   2.375 -0.4423 -0.6114  0.0586
 7076SOL     OW28069   0.122   5.909   5.569  0.0657 -0.4049 -0.1145
 7076SOL    HW228070   0.209   5.950   5.563  0.0759 -0.1262  1.5663
 7076SOL    HW328071   0.106   5.901   5.662 -2.5813  1.3486 -0.3241
 7076SOL    MW428072   0.132   5.914   5.580 -0.2822 -0.1368  0.0796
 7077SOL     OW28073   1.279   0.019   5.764 -0.0420 -0.3668  0.1565
 7077SOL    HW228074   1.362   0.066   5.753 -0.2282  0.1138  0.8086
 7077SOL    HW328075   1.281  -0.011   5.855 -1.0889  0.6298  0.5265
 7077SOL    MW428076   1.290   0.021   5.775 -0.2047 -0.1719  0.2913
 7078SOL     OW28077   2.966   3.959   1.313 -0.4065  0.4139  0.1718
 7078SOL    HW228078   2.984   4.009   1.392  1.4740  0.6754 -0.3767
 7078SOL    HW328079   2.906   3.890   1.341  0.0252  0.6506  1.7622
 7078SOL    MW428080   2.960   3.956   1.327 -0.1014  0.4796  0.3093
 7079SOL     OW28081   3.683   4.995   2.434  0.0049  0.2939 -0.6138
 7079SOL    HW228082   3.724   5.080   2.418 -1.0031  0.6663 -1.3086
 7079SOL    HW328083   3.656   4.965   2.347 -1.9298  0.4609 -0.1169
 7079SOL    MW428084   3.685   5.002   2.420 -0.3834  0.3650 -0.6399
 7080SOL     OW28085   0.531   5.393   2.489  0.4704  1.0470 -0.1148
 7080SOL    HW228086   0.548   5.334   2.563  1.2499 -1.8391 -2.4168
 7080SOL    HW328087   0.617   5.410   2.451  0.0409  2.0422 -0.6884
 7080SOL    MW428088   0.545   5.387   2.494  0.5166  0.7975 -0.4942
 7081SOL     OW28089   5.735   4.500   2.610 -0.2146 -0.3828  0.2692
 7081SOL    HW228090   5.729   4.578   2.554  1.1590 -1.3193 -1.2694
 7081SOL    HW328091   5.780   4.530   2.688 -0.7901  0.6281  0.2281
 7081SOL    MW428092   5.740   4.514   2.613 -0.1093 -0.3730  0.0608
 7082SOL     OW28093   2.656   2.170   2.754  0.4055  0.1479 -0.5107
 7082SOL    HW228094   2.668   2.084   2.714 -1.1546 -0.4538  0.2234
 7082SOL    HW328095   2.567   2.195   2.730  0.6126  1.2642 -0.1637
 7082SOL    MW428096   2.646   2.162   2.746  0.2270  0.2158 -0.3681
 7083SOL     OW28097   3.082   1.348   4.868  0.1614 -0.2470 -0.2383
 7083SOL    HW228098   3.047   1.274   4.818  1.1480 -0.8170 -0.1226
 7083SOL    HW328099   3.071   1.322   4.960 -0.2492  0.1247 -0.1774
 7083SOL    MW428100   3.076   1.335   4.874  0.2374 -0.2732 -0.2150
 7084SOL     OW28101   1.328   0.823   1.497 -0.3065 -0.5360 -0.3430
 7084SOL    HW228102   1.294   0.912   1.488  1.9476  0.4045 -0.1351
 7084SOL    HW328103   1.338   0.811   1.591  0.7307 -0.4606 -0.4376
 7084SOL    MW428104   1.325   0.833   1.508  0.1278 -0.4020 -0.3281
 7085SOL     OW28105   2.467   6.019   4.237 -0.2585  0.2598  0.0560
 7085SOL    HW228106   2.430   6.023   4.325  0.8554  0.9029  0.5187
 7085SOL    HW328107   2.499   5.930   4.227 -1.4039 -0.1477 -0.1494
 7085SOL    MW428108   2.466   6.008   4.247 -0.2627  0.2909  0.0900
 7086SOL     OW28109   2.056   1.935   1.266  0.1471  0.0699 -0.4003
 7086SOL    HW228110   2.137   1.888   1.244  0.2311  0.0791 -0.1113
 7086SOL    HW328111   2.049   2.003   1.198  0.6898  0.4388 -0.0986
 7086SOL    MW428112   2.066   1.938   1.254  0.2298  0.1198 -0.3224
 7087SOL     OW28113   2.476   3.129   1.343  0.1402 -0.2617 -0.6004
 7087SOL    HW228114   2.423   3.053   1.319  1.7019 -0.7480 -2.7805
 7087SOL    HW328115   2.536   3.141   1.270  2.1658  1.0548  1.1362
 7087SOL    MW428116   2.477   3.120   1.330  0.6135 -0.1522 -0.6590
 7088SOL     OW28117   5.941   4.688   2.025  0.4969  0.1719 -0.2688
 7088SOL    HW228118   6.018   4.740   2.001  0.4731  1.1726  1.6844
 7088SOL    HW328119   5.942   4.615   1.963  1.9673  1.1369 -1.4544
 7088SOL    MW428120   5.951   4.685   2.013  0.6878  0.4313 -0.1675
 7089SOL     OW28121   5.399   4.103   2.116 -0.2446  0.9697 -0.1452
 7089SOL    HW228122   5.477   4.158   2.114  1.1994 -0.9451  0.4065
 7089SOL    HW328123   5.333   4.153   2.070  1.1625  2.8802 -0.1966
 7089SOL    MW428124   5.401   4.117   2.110  0.1316  0.9691 -0.0792
 7090SOL     OW28125   0.210   5.333   5.729  0.3193 -0.3312 -0.8080
 7090SOL    HW228126   0.263   5.346   5.808  0.9956 -2.5882 -0.8460
 7090SOL    HW328127   0.120   5.348   5.759  0.6297 -0.3929  0.1941
 7090SOL    MW428128   0.205   5.337   5.743  0.4495 -0.6371 -0.6808
 7091SOL     OW28129   1.844   5.025   1.866  0.1430 -0.5877 -0.6383
 7091SOL    HW228130   1.865   4.932   1.870  0.7389 -0.4266  0.6650
 7091SOL    HW328131   1.765   5.035   1.918  0.9768 -0.1594  0.5917
 7091SOL    MW428132   1.836   5.014   1.873  0.3316 -0.5100 -0.3041
 7092SOL     OW28133   2.700   1.638   2.874  0.6933  0.1861 -0.4052
 7092SOL    HW228134   2.772   1.631   2.938 -0.2552  3.0067  1.1712
 7092SOL    HW328135   2.642   1.566   2.896  1.4090 -0.1367  0.5630
 7092SOL    MW428136   2.702   1.628   2.886  0.6625  0.5157 -0.0695
 7093SOL     OW28137   1.088   6.094   2.527 -0.6335 -0.0160  0.1104
 7093SOL    HW228138   1.035   6.154   2.475  1.4677  0.5013 -1.5741
 7093SOL    HW328139   1.078   6.009   2.483  0.6452  0.2875 -0.8072
 7093SOL    MW428140   1.080   6.091   2.514 -0.1875  0.0923 -0.2329
 7094SOL     OW28141   3.715   4.763   2.709  0.3070  0.1050 -0.1084
 7094SOL    HW228142   3.643   4.790   2.766  0.0052  1.5375 -1.1082
 7094SOL    HW328143   3.675   4.756   2.622  0.9652 -1.0806 -0.3389
 7094SOL    MW428144   3.700   4.766   2.705  0.3540  0.1376 -0.2707
 7095SOL     OW28145   4.417   1.727   3.424  0.2472  0.3241  0.2493
 7095SOL    HW228146   4.401   1.653   3.365  0.3548  0.1626  0.4225
 7095SOL    HW328147   4.456   1.687   3.502  1.3773  0.6918 -0.1112
 7095SOL    MW428148   4.420   1.712   3.426  0.4105  0.3513  0.2246
 7096SOL     OW28149   5.365   3.469   3.342 -0.1577 -0.4359  0.5312
 7096SOL    HW228150   5.447   3.518   3.341 -0.0961 -0.5467  0.1830
 7096SOL    HW328151   5.384   3.391   3.394 -0.4496  0.2434  1.6831
 7096SOL    MW428152   5.378   3.465   3.349 -0.1881 -0.3609  0.6372
 7097SOL     OW28153   0.787   1.245   6.110 -0.0804  0.1219 -0.5202
 7097SOL    HW228154   0.829   1.330   6.121  3.3237 -1.3588 -0.6599
 7097SOL    HW328155   0.824   1.191   6.180 -2.7025 -1.0932  0.0288
 7097SOL    MW428156   0.798   1.249   6.120  0.0228 -0.2338 -0.4662
 7098SOL     OW28157   5.126   0.420   6.310  0.3023 -0.2508 -0.0937
 7098SOL    HW228158   5.101   0.454   6.225 -0.4489 -1.5031 -0.4044
 7098SOL    HW328159   5.043   0.410   6.358  0.6968  0.2882  0.7292
 7098SOL    MW428160   5.112   0.423   6.305  0.2552 -0.3449 -0.0262
 7099SOL     OW28161   0.221   4.769   2.496 -0.0521 -0.0832 -0.2005
 7099SOL    HW228162   0.314   4.783   2.511 -0.0920  1.2473 -1.1026
 7099SOL    HW328163   0.182   4.771   2.584  0.7953 -1.0138  0.2091
 7099SOL    MW428164   0.228   4.771   2.510  0.0545 -0.0304 -0.2655
 7100SOL     OW28165   3.322   5.878   1.616 -0.1888 -0.0178  0.4037
 7100SOL    HW228166   3.377   5.820   1.563  0.0511  1.3097 -0.8935
 7100SOL    HW328167   3.303   5.952   1.558 -2.1830  0.2390  1.3018
 7100SOL    MW428168   3.327   5.880   1.601 -0.4203  0.1912  0.3510
 7101SOL     OW28169   3.711   0.999   4.105 -1.2531 -0.1967  0.4761
 7101SOL    HW228170   3.790   0.964   4.146 -0.0858  0.1628 -1.3384
 7101SOL    HW328171   3.701   1.086   4.142  0.5510  0.6468 -0.8840
 7101SOL    MW428172   3.720   1.006   4.115 -0.8611 -0.0380  0.0572
 7102SOL     OW28173   4.455   0.889   4.770 -0.3591 -0.4596 -0.4357
 7102SOL    HW228174   4.416   0.976   4.768  3.5045  1.4767 -1.2606
 7102SOL    HW328175   4.411   0.841   4.700 -3.0307  0.4678  0.4515
 7102SOL    MW428176   4.444   0.894   4.761 -0.2018 -0.0818 -0.4275
 7103SOL     OW28177   0.614   1.287   1.770  0.1615  0.0260 -0.0714
 7103SOL    HW228178   0.535   1.303   1.821  0.3362 -1.2600  0.6419
 7103SOL    HW328179   0.666   1.227   1.824  1.8862  1.2775 -0.2686
 7103SOL    MW428180   0.611   1.281   1.783  0.4121  0.0215 -0.0033
 7104SOL     OW28181   0.313   2.007   3.249  0.0464 -0.0990  0.5612
 7104SOL    HW228182   0.294   1.931   3.194  2.5617 -1.2213  1.0675
 7104SOL    HW328183   0.285   1.982   3.337 -0.2041  0.0223  0.5146
 7104SOL    MW428184   0.307   1.994   3.253  0.3452 -0.2311  0.6219
 7105SOL     OW28185   0.419   0.183   4.679  0.8990 -0.4069 -0.0797
 7105SOL    HW228186   0.424   0.132   4.599  0.4534 -0.7328  0.0941
 7105SOL    HW328187   0.390   0.270   4.651  0.0127 -0.7331 -0.1900
 7105SOL    MW428188   0.416   0.188   4.665  0.7233 -0.4930 -0.0713
 7106SOL     OW28189   4.452   2.448   6.150 -0.2953  0.2283  0.2832
 7106SOL    HW228190   4.425   2.462   6.241  0.0525  1.4942  0.2031
 7106SOL    HW328191   4.371   2.435   6.102 -0.4341 -2.9051  1.1029
 7106SOL    MW428192   4.438   2.448   6.156 -0.2677 -0.0181  0.3808
 7107SOL     OW28193   0.175   3.786   4.107 -0.1247  0.2411  0.6527
 7107SOL    HW228194   0.254   3.836   4.089  1.5620 -2.2950  0.4833
 7107SOL    HW328195   0.146   3.755   4.022  0.6934 -1.5622  0.9761
 7107SOL    MW428196   0.182   3.788   4.094  0.2058 -0.3314  0.6730
 7108SOL     OW28197   4.968   1.718   2.867 -0.0895 -0.5005 -0.0588
 7108SOL    HW228198   5.054   1.703   2.828 -0.7181 -1.1842 -1.2167
 7108SOL    HW328199   4.969   1.810   2.894  1.4280 -0.8040  1.0673
 7108SOL    MW428200   4.979   1.728   2.866  0.0278 -0.6308 -0.0630
 7109SOL     OW28201   0.190   2.560   0.147 -0.5421 -1.0573 -0.4605
 7109SOL    HW228202   0.099   2.531   0.136 -1.2845  0.6058  0.7900
 7109SOL    HW328203   0.216   2.524   0.231 -1.1991  1.0320  0.7201
 7109SOL    MW428204   0.181   2.552   0.157 -0.7267 -0.5622 -0.1398
 7110SOL     OW28205   0.306   5.457   1.812 -0.5537  0.4454 -0.2139
 7110SOL    HW228206   0.215   5.472   1.788 -1.0106  0.0485  1.1731
 7110SOL    HW328207   0.321   5.511   1.889 -0.1319 -0.7329  0.5752
 7110SOL    MW428208   0.296   5.466   1.819 -0.5584  0.2376  0.0732
 7111SOL     OW28209   4.770   5.356   1.639 -0.0340  0.1738  0.5848
 7111SOL    HW228210   4.857   5.331   1.609 -0.9239 -0.5962 -1.5598
 7111SOL    HW328211   4.715   5.351   1.561 -1.5392  3.0484  1.3153
 7111SOL    MW428212   4.774   5.352   1.625 -0.3500  0.4515  0.3982
 7112SOL     OW28213   1.704   6.143   3.209  0.7272  0.9789  0.0061
 7112SOL    HW228214   1.642   6.070   3.212  0.8330  0.9273  1.6990
 7112SOL    HW328215   1.677   6.193   3.132 -1.3062  0.8358  0.5574
 7112SOL    MW428216   1.692   6.140   3.199  0.4728  0.9532  0.3022
 7113SOL     OW28217   4.124   2.484   3.524 -0.0191  0.1454  0.8541
 7113SOL    HW228218   4.068   2.557   3.500  0.5831  0.7706  1.3093
 7113SOL    HW328219   4.212   2.513   3.500  0.3969  0.1160  2.2413
 7113SOL    MW428220   4.128   2.497   3.517  0.1152  0.2240  1.0972
 7114SOL     OW28221   4.607   6.116   0.603  0.2706 -0.1134 -0.9068
 7114SOL    HW228222   4.684   6.165   0.630 -0.3726  0.0812  0.6938
 7114SOL    HW328223   4.588   6.058   0.677 -1.0039 -0.2836 -1.3378
 7114SOL    MW428224   4.615   6.115   0.616  0.0176 -0.1102 -0.7525
 7115SOL     OW28225   5.518   4.815   4.280 -0.4369 -0.1217 -0.1594
 7115SOL    HW228226   5.581   4.790   4.213 -0.0609  0.3867 -0.0037
 7115SOL    HW328227   5.471   4.890   4.241  0.8877  1.2412  0.7509
 7115SOL    MW428228   5.520   4.822   4.266 -0.2125  0.1252 -0.0187
 7116SOL     OW28229   5.199   0.127   1.220  0.3068 -0.0773 -0.2781
 7116SOL    HW228230   5.205   0.222   1.221 -0.6136 -0.0085  0.2435
 7116SOL    HW328231   5.197   0.104   1.127  3.0375  0.1891 -0.4818
 7116SOL    MW428232   5.200   0.136   1.207  0.5456 -0.0331 -0.2362
 7117SOL     OW28233   6.149   1.028   3.096 -0.3016  0.0179 -0.9362
 7117SOL    HW228234   6.147   1.049   3.003 -1.5114  2.1796 -0.4764
 7117SOL    HW328235   6.086   0.956   3.106 -1.0593  0.5778 -1.6179
 7117SOL    MW428236   6.140   1.021   3.085 -0.5612  0.3769 -0.9655
 7118SOL     OW28237   2.161   0.207   1.423 -0.0657 -0.4443 -0.1871
 7118SOL    HW228238   2.155   0.195   1.518 -0.7705  1.2337  0.0220
 7118SOL    HW328239   2.095   0.148   1.387  0.7906 -1.7360  0.2803
 7118SOL    MW428240   2.152   0.198   1.431 -0.0457 -0.3933 -0.0978
 7119SOL     OW28241   1.355   5.089   5.673 -0.2030  0.1287 -0.5144
 7119SOL    HW228242   1.439   5.102   5.718 -0.5521 -1.0242  0.5079
 7119SOL    HW328243   1.379   5.073   5.582  0.5735  1.5585 -0.5952
 7119SOL    MW428244   1.369   5.089   5.667 -0.1466  0.1652 -0.3902
 7120SOL     OW28245   5.747   1.478   3.991 -0.0993 -0.1656  0.9318
 7120SOL    HW228246   5.834   1.474   4.029  0.3405  0.6598  0.0393
 7120SOL    HW328247   5.760   1.512   3.902 -1.2422 -0.7586  0.5140
 7120SOL    MW428248   5.760   1.482   3.984 -0.1921 -0.1349  0.7589
 7121SOL     OW28249   2.455   1.659   4.653  0.0706  0.8608 -0.3840
 7121SOL    HW228250   2.470   1.566   4.670  0.3743  0.6642 -1.6126
 7121SOL    HW328251   2.520   1.703   4.707  1.2506  0.2480 -1.2333
 7121SOL    MW428252   2.466   1.652   4.662  0.2663  0.7540 -0.6582
 7122SOL     OW28253   5.259   2.846   5.336 -0.1967 -0.6466  0.1765
 7122SOL    HW228254   5.233   2.934   5.309 -0.2098 -0.9402 -0.7745
 7122SOL    HW328255   5.270   2.853   5.431 -0.0794  0.4085  0.0960
 7122SOL    MW428256   5.257   2.858   5.345 -0.1830 -0.5461  0.0404
 7123SOL     OW28257   5.025   0.934   3.085 -0.1224 -0.3047 -0.1138
 7123SOL    HW228258   5.094   0.868   3.076 -1.8014 -2.0312 -1.1251
 7123SOL    HW328259   5.058   1.011   3.038 -0.1782 -2.2162 -3.6049
 7123SOL    MW428260   5.038   0.935   3.078 -0.3513 -0.7847 -0.7079
 7124SOL     OW28261   3.727   2.288   1.374  0.1092  0.4623  0.2180
 7124SOL    HW228262   3.693   2.259   1.289  1.4799 -0.3363 -0.0840
 7124SOL    HW328263   3.798   2.227   1.394 -0.2888  0.5436  2.0312
 7124SOL    MW428264   3.732   2.276   1.365  0.2375  0.3677  0.4174
 7125SOL     OW28265   3.984   5.894   4.829 -0.7578  0.0615 -0.2241
 7125SOL    HW228266   4.077   5.886   4.850 -0.9132 -1.2416  0.0120
 7125SOL    HW328267   3.982   5.907   4.734 -0.2907  1.4771 -0.0741
 7125SOL    MW428268   3.996   5.895   4.819 -0.7167  0.0763 -0.1732
 7126SOL     OW28269   1.993   0.553   1.488 -0.3692  0.0497  0.2843
 7126SOL    HW228270   2.070   0.537   1.434 -0.0165 -0.2018  0.8560
 7126SOL    HW328271   1.988   0.648   1.496 -1.2748  0.1875 -1.4015
 7126SOL    MW428272   2.002   0.563   1.482 -0.4422  0.0347  0.1373
 7127SOL     OW28273   4.879   3.143   4.832 -0.5534  0.5255 -0.4130
 7127SOL    HW228274   4.899   3.176   4.920 -0.7901  0.8572 -0.4816
 7127SOL    HW328275   4.839   3.057   4.847  0.2946  0.1539 -0.2434
 7127SOL    MW428276   4.876   3.136   4.846 -0.4727  0.5202 -0.3996
 7128SOL     OW28277   4.341   5.073   6.107 -0.1763  0.5775 -0.0773
 7128SOL    HW228278   4.258   5.118   6.095 -0.2590  0.0171 -2.0752
 7128SOL    HW328279   4.405   5.143   6.118 -0.6001  1.1348 -0.9741
 7128SOL    MW428280   4.339   5.088   6.107 -0.2431  0.5771 -0.4592
 7129SOL     OW28281   4.892   5.973   3.488 -0.0108  0.0337 -1.1715
 7129SOL    HW228282   4.947   5.897   3.505 -1.2899 -0.4978  0.9712
 7129SOL    HW328283   4.845   5.952   3.407  0.4593 -0.9568 -1.1999
 7129SOL    MW428284   4.893   5.960   3.479 -0.1175 -0.1671 -0.8925
 7130SOL     OW28285   1.662   0.985   2.525 -0.7000  0.6036  0.4189
 7130SOL    HW228286   1.622   0.913   2.573 -0.4253  0.7792  0.9219
 7130SOL    HW328287   1.653   1.060   2.584 -0.5744  0.8748  0.0920
 7130SOL    MW428288   1.656   0.986   2.539 -0.6472  0.6625  0.4421
 7131SOL     OW28289   3.944   1.534   2.203  0.0478 -0.0435  0.7358
 7131SOL    HW228290   3.938   1.608   2.143  2.6095 -0.0925  0.3105
 7131SOL    HW328291   3.854   1.520   2.233 -0.5034  3.2795  0.9500
 7131SOL    MW428292   3.931   1.542   2.199  0.3130  0.3885  0.7080
 7132SOL     OW28293   4.538   5.548   2.835  0.3253  0.1452 -0.0871
 7132SOL    HW228294   4.513   5.639   2.824  0.0250 -0.1223 -2.0094
 7132SOL    HW328295   4.631   5.546   2.815  0.4573  0.1139  0.5219
 7132SOL    MW428296   4.547   5.560   2.831  0.3031  0.1058 -0.2604
 7133SOL     OW28297   4.375   1.886   2.565  0.0363 -0.2087  0.6070
 7133SOL    HW228298   4.400   1.802   2.529 -0.6071  0.0485 -0.4803
 7133SOL    HW328299   4.457   1.933   2.579  0.2978 -0.3245 -0.5226
 7133SOL    MW428300   4.389   1.881   2.562 -0.0141 -0.1901  0.3145
 7134SOL     OW28301   0.459   0.988   1.631 -0.7662 -0.2929  0.0346
 7134SOL    HW228302   0.424   1.075   1.652 -1.5380 -0.5136 -0.3038
 7134SOL    HW328303   0.409   0.928   1.687  0.7017 -0.4099  1.2762
 7134SOL    MW428304   0.448   0.991   1.642 -0.6744 -0.3374  0.1538
 7135SOL     OW28305   5.178   1.922   1.307  0.3208  0.3146  0.0588
 7135SOL    HW228306   5.098   1.898   1.354 -0.4176 -2.2296 -2.2429
 7135SOL    HW328307   5.161   2.011   1.277 -2.2841 -0.5254 -1.3668
 7135SOL    MW428308   5.165   1.931   1.309 -0.1203 -0.1319 -0.4330
 7136SOL     OW28309   1.091   3.778   0.152 -0.2564 -0.2448 -0.3902
 7136SOL    HW228310   1.126   3.770   0.063  1.4686 -0.5749  0.2653
 7136SOL    HW328311   1.126   3.861   0.183 -1.0346 -0.0268 -0.0938
 7136SOL    MW428312   1.100   3.788   0.144 -0.1315 -0.2596 -0.2646
 7137SOL     OW28313   4.733   1.208   5.802  0.3771  0.1899  0.0989
 7137SOL    HW228314   4.660   1.148   5.820  0.2820  0.8134  1.9773
 7137SOL    HW328315   4.802   1.151   5.768 -1.1203 -0.3407 -2.3626
 7137SOL    MW428316   4.732   1.193   5.800  0.1670  0.2022  0.0220
 7138SOL     OW28317   5.299   0.078   5.075 -1.0478 -0.7637  0.3546
 7138SOL    HW228318   5.319   0.016   5.144  0.1436  0.1312  0.8406
 7138SOL    HW328319   5.281   0.024   4.998 -0.0769 -1.7130  0.7765
 7138SOL    MW428320   5.299   0.063   5.074 -0.7625 -0.7709  0.4744
 7139SOL     OW28321   2.072   5.886   1.431 -0.6589  0.4151 -0.1782
 7139SOL    HW228322   2.032   5.938   1.361 -1.1667 -0.0807 -0.2632
 7139SOL    HW328323   2.119   5.816   1.385  1.9164  2.0205 -0.1935
 7139SOL    MW428324   2.073   5.883   1.416 -0.3861  0.5615 -0.1915
 7140SOL     OW28325   3.880   3.503   6.062 -0.0326 -0.0110 -0.0337
 7140SOL    HW228326   3.867   3.490   6.156  0.8793 -0.7408  0.0067
 7140SOL    HW328327   3.957   3.560   6.056  0.4543 -0.6908 -0.3449
 7140SOL    MW428328   3.889   3.509   6.074  0.1520 -0.1970 -0.0694
 7141SOL     OW28329   0.513   3.480   0.795  0.0947 -0.0797 -0.4417
 7141SOL    HW228330   0.455   3.415   0.835  0.5672 -0.2806 -0.0717
 7141SOL    HW328331   0.600   3.440   0.799  0.0797 -0.3189 -2.1436
 7141SOL    MW428332   0.517   3.466   0.801  0.1550 -0.1378 -0.6174
 7142SOL     OW28333   5.313   1.075   6.005  0.1266 -0.2199  0.9061
 7142SOL    HW228334   5.400   1.096   6.038 -0.4759  1.1218  1.7147
 7142SOL    HW328335   5.291   0.991   6.046  1.2688 -0.8891  0.1959
 7142SOL    MW428336   5.321   1.067   6.015  0.1978 -0.1312  0.9191
 7143SOL     OW28337   0.217   0.468   4.954  0.3869  0.1276  0.1423
 7143SOL    HW228338   0.181   0.519   5.026 -0.3390  1.0816 -0.8632
 7143SOL    HW328339   0.289   0.419   4.993 -0.6689 -0.2019  1.7298
 7143SOL    MW428340   0.222   0.469   4.968  0.1518  0.2100  0.2191
 7144SOL     OW28341   3.585   2.366   2.295 -0.4443  0.1867 -0.0692
 7144SOL    HW228342   3.579   2.410   2.379  1.5670 -1.9486  1.3360
 7144SOL    HW328343   3.678   2.347   2.284 -0.6774  0.0837 -2.6435
 7144SOL    MW428344   3.597   2.369   2.304 -0.2097 -0.1086 -0.2234
 7145SOL     OW28345   4.038   1.553   0.697 -0.3317 -0.3421 -0.3011
 7145SOL    HW228346   4.011   1.644   0.705 -1.4452 -0.6961  0.1302
 7145SOL    HW328347   3.993   1.522   0.618 -0.5437 -0.7171 -0.0351
 7145SOL    MW428348   4.029   1.561   0.688 -0.5066 -0.4383 -0.2091
 7146SOL     OW28349   4.140   2.994   5.132 -0.4867 -0.3756  0.2160
 7146SOL    HW228350   4.074   2.930   5.161 -0.7726  0.2901  1.0840
 7146SOL    HW328351   4.133   2.995   5.037  0.5558 -2.7440  0.0496
 7146SOL    MW428352   4.130   2.985   5.123 -0.3869 -0.6002  0.3086
 7147SOL     OW28353   1.595   0.722   5.137  0.5798 -0.1758  0.2311
 7147SOL    HW228354   1.633   0.722   5.049 -0.7439 -0.6780 -0.3725
 7147SOL    HW328355   1.554   0.635   5.145 -0.7341  0.4610  0.6996
 7147SOL    MW428356   1.594   0.710   5.127  0.2318 -0.1580  0.2132
 7148SOL     OW28357   3.601   4.169   1.576 -0.2196 -0.0571 -0.2690
 7148SOL    HW228358   3.616   4.115   1.499 -0.4839 -0.2390 -0.1945
 7148SOL    HW328359   3.526   4.224   1.554 -0.9168 -0.8009  0.2143
 7148SOL    MW428360   3.593   4.169   1.563 -0.3464 -0.1793 -0.1954
 7149SOL     OW28361   0.445   0.284   2.538  0.1665  0.3046 -0.2433
 7149SOL    HW228362   0.354   0.297   2.563  0.7838 -0.1273  2.5744
 7149SOL    HW328363   0.479   0.371   2.519 -0.3097  0.7237  0.7934
 7149SOL    MW428364   0.438   0.297   2.538  0.1851  0.3029  0.2652
 7150SOL     OW28365   3.267   1.594   3.028 -0.0540 -0.1654 -0.4244
 7150SOL    HW228366   3.238   1.645   3.103  3.6935 -0.2321  1.2838
 7150SOL    HW328367   3.277   1.505   3.061  0.7174 -0.4077 -1.2586
 7150SOL    MW428368   3.265   1.589   3.042  0.5422 -0.2062 -0.3091
 7151SOL     OW28369   4.910   2.074   5.337 -0.2971 -0.7145 -0.2046
 7151SOL    HW228370   4.847   2.002   5.343 -0.5243 -0.6031 -1.1628
 7151SOL    HW328371   4.877   2.139   5.400 -0.6640 -1.0147 -0.0796
 7151SOL    MW428372   4.897   2.073   5.346 -0.3755 -0.7394 -0.3145
 7152SOL     OW28373   0.355   6.096   3.708  0.2007  0.2861 -0.1860
 7152SOL    HW228374   0.365   6.013   3.754 -0.5565  0.0777 -0.3784
 7152SOL    HW328375   0.444   6.120   3.682  0.2945 -1.2575 -1.4872
 7152SOL    MW428376   0.368   6.088   3.711  0.1132  0.0549 -0.3831
 7153SOL     OW28377   0.231   0.607   6.010 -0.0757 -1.0001 -0.0127
 7153SOL    HW228378   0.171   0.676   5.982 -1.1098 -2.1949 -0.8493
 7153SOL    HW328379   0.234   0.615   6.105  0.3162  0.5671 -0.1216
 7153SOL    MW428380   0.224   0.617   6.018 -0.1604 -0.9510 -0.1375
 7154SOL     OW28381   6.212   0.684   3.645 -0.1330 -0.2981 -0.1600
 7154SOL    HW228382   6.270   0.752   3.678  0.1892 -0.5752 -0.1518
 7154SOL    HW328383   6.258   0.649   3.568  0.4643 -1.6071  0.7740
 7154SOL    MW428384   6.226   0.689   3.639 -0.0117 -0.5074 -0.0357
 7155SOL     OW28385   3.640   0.677   5.169 -0.7869 -0.0935  0.0871
 7155SOL    HW228386   3.610   0.767   5.183  1.4258  0.6887  0.1415
 7155SOL    HW328387   3.655   0.642   5.257 -2.4198 -0.8445  0.1036
 7155SOL    MW428388   3.638   0.684   5.182 -0.7104 -0.0894  0.0965
 7156SOL     OW28389   5.191   4.263   4.050  0.5776 -0.5313 -0.1699
 7156SOL    HW228390   5.129   4.193   4.070  0.0274  0.2355  0.9441
 7156SOL    HW328391   5.262   4.251   4.113  0.6576 -0.3003 -0.2157
 7156SOL    MW428392   5.192   4.252   4.061  0.5156 -0.3996 -0.0289
 7157SOL     OW28393   2.082   3.932   3.500  0.0685  0.2081 -0.3121
 7157SOL    HW228394   2.136   3.985   3.558 -0.9606  0.2578  0.6138
 7157SOL    HW328395   2.112   3.842   3.515  0.4507  0.3158 -0.4181
 7157SOL    MW428396   2.093   3.927   3.509 -0.0168  0.2289 -0.2039
 7158SOL     OW28397   3.534   5.795   3.224  0.7746  0.0560  0.0363
 7158SOL    HW228398   3.526   5.876   3.173 -0.8373 -0.5329 -0.7357
 7158SOL    HW328399   3.625   5.768   3.213  0.7187  0.4761 -1.7184
 7158SOL    MW428400   3.545   5.802   3.216  0.5546  0.0338 -0.2971
 7159SOL     OW28401   3.943   3.805   3.626 -0.0055 -0.3126  0.0758
 7159SOL    HW228402   3.938   3.856   3.707 -1.3901 -2.6611  1.5836
 7159SOL    HW328403   3.979   3.721   3.652  0.7801 -0.6971 -2.0379
 7159SOL    MW428404   3.947   3.801   3.640 -0.0845 -0.6732 -0.0042
 7160SOL     OW28405   6.274   3.688   1.899 -0.4644 -0.0808 -0.2528
 7160SOL    HW228406   6.182   3.688   1.872 -0.0136 -0.9271 -1.9389
 7160SOL    HW328407   6.277   3.630   1.975 -1.2982 -0.2207 -0.3188
 7160SOL    MW428408   6.263   3.681   1.906 -0.5149 -0.2109 -0.4839
 7161SOL     OW28409   4.292   5.481   0.122  0.2630  0.2722 -0.1968
 7161SOL    HW228410   4.335   5.474   0.208  1.1156  0.7323 -0.5737
 7161SOL    HW328411   4.225   5.413   0.123  1.1126 -0.5866  0.3460
 7161SOL    MW428412   4.289   5.471   0.134  0.4876  0.2196 -0.1749
 7162SOL     OW28413   0.703   2.016   2.709  0.1205 -0.0469  0.0748
 7162SOL    HW228414   0.639   2.052   2.770 -0.5314 -0.3298 -0.4297
 7162SOL    HW328415   0.787   2.027   2.753 -0.2434  0.5779  0.6298
 7162SOL    MW428416   0.705   2.022   2.723 -0.0135 -0.0018  0.0815
 7163SOL     OW28417   0.310   2.700   4.347  0.2638 -0.2863  0.0354
 7163SOL    HW228418   0.328   2.793   4.358 -1.3524  0.0169  0.2214
 7163SOL    HW328419   0.274   2.693   4.258 -1.5363 -0.4104  0.7403
 7163SOL    MW428420   0.308   2.711   4.336 -0.1870 -0.2627  0.1530
 7164SOL     OW28421   3.467   0.493   5.657  0.3455 -0.1997  0.1849
 7164SOL    HW228422   3.417   0.562   5.701  0.5429 -0.2348  0.4703
 7164SOL    HW328423   3.488   0.431   5.727 -1.6396 -1.6544 -0.4128
 7164SOL    MW428424   3.463   0.494   5.672  0.1096 -0.3963  0.1437
 7165SOL     OW28425   1.410   5.051   0.491  0.4916  0.2918  0.7036
 7165SOL    HW228426   1.345   4.985   0.469  0.9375  0.2141 -0.4892
 7165SOL    HW328427   1.396   5.120   0.426  2.2360 -0.1821 -0.2261
 7165SOL    MW428428   1.400   5.052   0.479  0.7806  0.2190  0.4236
 7166SOL     OW28429   6.307   4.095   6.265 -0.8631  0.5778  0.4091
 7166SOL    HW228430   6.274   4.105   6.176 -0.5334 -2.3995 -0.1631
 7166SOL    HW328431   6.402   4.109   6.257 -0.6461 -0.9176 -0.0321
 7166SOL    MW428432   6.315   4.098   6.252 -0.7910 -0.0124  0.2754
 7167SOL     OW28433   4.206   4.179   3.435 -0.3221  0.3226  0.3439
 7167SOL    HW228434   4.260   4.191   3.357 -0.5612  2.3413  0.4528
 7167SOL    HW328435   4.144   4.110   3.411 -0.3107  0.8191 -1.2105
 7167SOL    MW428436   4.205   4.171   3.422 -0.3522  0.6545  0.1532
 7168SOL     OW28437   3.910   2.714   0.006  0.1315 -0.2723  0.3511
 7168SOL    HW228438   3.992   2.721   0.054  0.4086  0.7705 -0.2539
 7168SOL    HW328439   3.881   2.804  -0.007 -0.2596 -0.5459 -0.8698
 7168SOL    MW428440   3.917   2.727   0.010  0.1165 -0.1708  0.1102
 7169SOL     OW28441   3.470   3.246   2.729 -0.0604 -0.1940  0.3626
 7169SOL    HW228442   3.512   3.189   2.665 -1.3212 -1.3044  0.4768
 7169SOL    HW328443   3.454   3.190   2.805  0.3718  0.8089  1.2343
 7169SOL    MW428444   3.474   3.231   2.731 -0.1697 -0.2082  0.4927
 7170SOL     OW28445   6.169   6.207   5.296 -0.2159 -0.4444  0.6668
 7170SOL    HW228446   6.238   6.171   5.351  0.9603 -0.3048 -0.6636
 7170SOL    HW328447   6.176   6.159   5.214 -1.5562 -0.2558  0.4196
 7170SOL    MW428448   6.179   6.196   5.292 -0.2376 -0.4011  0.4587
 7171SOL     OW28449   3.332   2.795   4.946 -0.2389 -0.2634  0.6328
 7171SOL    HW228450   3.240   2.782   4.969 -0.4387 -1.0938 -0.5458
 7171SOL    HW328451   3.367   2.850   5.016 -2.2108  2.0492 -0.0520
 7171SOL    MW428452   3.325   2.801   4.958 -0.5254 -0.0679  0.3869
 7172SOL     OW28453   1.594   3.568   1.853  0.0672 -0.1380 -0.2253
 7172SOL    HW228454   1.592   3.474   1.835 -0.1052  0.0145 -1.0708
 7172SOL    HW328455   1.596   3.574   1.948 -1.4866 -0.9751 -0.1060
 7172SOL    MW428456   1.594   3.556   1.863 -0.1605 -0.2283 -0.3211
 7173SOL     OW28457   1.620   5.115   5.885 -0.0927 -0.0948 -0.2261
 7173SOL    HW228458   1.692   5.076   5.834 -0.7774  0.3710 -1.5908
 7173SOL    HW328459   1.591   5.044   5.942  0.7690 -0.6073 -0.3927
 7173SOL    MW428460   1.626   5.101   5.885 -0.0694 -0.1010 -0.4281
 7174SOL     OW28461   1.266   0.923   3.567  0.1384 -0.1259 -0.4653
 7174SOL    HW228462   1.208   0.873   3.508  1.7344 -0.0062 -2.2252
 7174SOL    HW328463   1.259   1.013   3.536 -1.1371  0.4663  1.3801
 7174SOL    MW428464   1.257   0.928   3.555  0.1807 -0.0320 -0.4540
 7175SOL     OW28465   4.036   4.301   3.199 -0.7283  0.2682  0.4170
 7175SOL    HW228466   3.970   4.299   3.268  0.4457  1.2362  1.6082
 7175SOL    HW328467   4.096   4.370   3.225  0.3229 -0.0493 -1.0533
 7175SOL    MW428468   4.035   4.310   3.212 -0.4347  0.3540  0.3802
 7176SOL     OW28469   1.042   1.715   3.102 -0.1674 -0.1201  0.0932
 7176SOL    HW228470   0.973   1.684   3.043 -1.3040 -0.3767  1.4790
 7176SOL    HW328471   0.995   1.763   3.171  0.8082 -1.7764  2.0312
 7176SOL    MW428472   1.027   1.717   3.104 -0.1886 -0.3725  0.5317
 7177SOL     OW28473   3.487   4.334   4.541  0.8542 -0.5440  0.4345
 7177SOL    HW228474   3.582   4.340   4.544  0.8963 -0.9883  0.1593
 7177SOL    HW328475   3.470   4.243   4.516  0.3463 -0.6216  1.0400
 7177SOL    MW428476   3.497   4.323   4.538  0.7928 -0.6129  0.4781
 7178SOL     OW28477   4.537   2.275   4.518 -0.4148 -0.8902 -0.8414
 7178SOL    HW228478   4.579   2.196   4.484  3.0976 -0.1527  1.3216
 7178SOL    HW328479   4.507   2.251   4.605  3.4951  0.7264  1.1631
 7178SOL    MW428480   4.538   2.261   4.525  0.5645 -0.5796 -0.2915
 7179SOL     OW28481   4.611   2.923   5.699  0.4162  0.2855  0.0271
 7179SOL    HW228482   4.694   2.878   5.687 -0.0365 -0.8998  1.1052
 7179SOL    HW328483   4.552   2.882   5.635  1.0877  2.4622 -2.1328
 7179SOL    MW428484   4.614   2.912   5.689  0.4450  0.4163 -0.1157
 7180SOL     OW28485   1.528   5.547   1.805  0.3001  0.2457  0.1574
 7180SOL    HW228486   1.582   5.469   1.789  1.7704  1.5211 -1.5915
 7180SOL    HW328487   1.564   5.585   1.885 -1.0507 -1.2988  1.5773
 7180SOL    MW428488   1.540   5.542   1.813  0.3159  0.2102  0.1140
 7181SOL     OW28489   5.727   6.323   4.711 -0.3496 -0.2705  0.3065
 7181SOL    HW228490   5.817   6.319   4.743 -0.4008 -0.5064  0.4170
 7181SOL    HW328491   5.674   6.337   4.789 -0.3239  0.9364  0.1370
 7181SOL    MW428492   5.732   6.325   4.725 -0.3530 -0.1424  0.2987
 7182SOL     OW28493   0.283   4.645   5.260  0.0707  0.0568  0.1120
 7182SOL    HW228494   0.323   4.558   5.259  2.0198  0.9068 -1.2332
 7182SOL    HW328495   0.205   4.635   5.315  0.9208 -2.2239  0.9987
 7182SOL    MW428496   0.278   4.632   5.267  0.4400 -0.1320  0.0515
 7183SOL     OW28497   6.358   3.689   1.068 -0.3502 -1.0874 -0.1792
 7183SOL    HW228498   6.342   3.665   0.977 -0.5082 -0.1930 -0.3981
 7183SOL    HW328499   6.307   3.769   1.081  0.2319 -0.8089  0.4776
 7183SOL    MW428500   6.349   3.697   1.058 -0.2943 -0.9327 -0.1215
 7184SOL     OW28501   0.036   5.919   5.032 -0.4449  0.1021  0.0610
 7184SOL    HW228502   0.008   5.849   4.973 -0.1354 -0.1631  0.2282
 7184SOL    HW328503   0.038   5.878   5.119 -0.1073  0.2724  0.1350
 7184SOL    MW428504   0.032   5.904   5.036 -0.3595  0.0896  0.0929
 7185SOL     OW28505   5.020   0.133   3.406 -0.3753 -0.0211 -0.0098
 7185SOL    HW228506   5.095   0.188   3.382  0.3482 -0.9429  0.1042
 7185SOL    HW328507   5.058   0.049   3.431 -1.5677 -1.2531 -2.0373
 7185SOL    MW428508   5.035   0.129   3.407 -0.4372 -0.3053 -0.2623
 7186SOL     OW28509   5.593   0.254   2.049 -0.3808 -0.4656  0.0640
 7186SOL    HW228510   5.592   0.272   2.143 -2.3250  0.4969 -0.0998
 7186SOL    HW328511   5.504   0.273   2.019  0.3974  0.0633 -2.1314
 7186SOL    MW428512   5.581   0.259   2.057 -0.5346 -0.2688 -0.2473
 7187SOL     OW28513   5.251   4.772   3.277  0.3042 -0.2586  0.3440
 7187SOL    HW228514   5.303   4.736   3.349  1.4768 -1.4230 -1.0173
 7187SOL    HW328515   5.233   4.697   3.221 -1.1390  0.5116 -0.2601
 7187SOL    MW428516   5.256   4.758   3.279  0.2685 -0.3106  0.0847
 7188SOL     OW28517   4.181   3.883   2.181 -0.0881  0.2160  0.1845
 7188SOL    HW228518   4.272   3.854   2.181 -0.2367 -0.2636  0.5919
 7188SOL    HW328519   4.137   3.825   2.244 -0.8777 -0.2051 -0.7217
 7188SOL    MW428520   4.187   3.872   2.190 -0.2119  0.0972  0.1187
 7189SOL     OW28521   6.273   2.587   3.773  0.0141 -0.8089 -0.2494
 7189SOL    HW228522   6.216   2.614   3.700 -0.1682  1.7010  0.7124
 7189SOL    HW328523   6.213   2.571   3.845  0.2878 -2.1077 -0.2860
 7189SOL    MW428524   6.257   2.589   3.773  0.0262 -0.6491 -0.1273
 7190SOL     OW28525   4.712   5.459   0.230 -0.6089 -0.0205 -0.3270
 7190SOL    HW228526   4.765   5.443   0.308 -1.2591 -0.6127 -0.0016
 7190SOL    HW328527   4.622   5.461   0.262 -0.7465  2.0011 -0.7040
 7190SOL    MW428528   4.707   5.457   0.245 -0.7128  0.1681 -0.3338
 7191SOL     OW28529   0.911   3.777   1.175 -0.1176 -0.4536 -0.4887
 7191SOL    HW228530   0.909   3.833   1.252 -1.3344  0.4380 -1.1295
 7191SOL    HW328531   0.961   3.827   1.111 -0.6054 -0.4041 -0.8360
 7191SOL    MW428532   0.917   3.791   1.177 -0.3425 -0.3294 -0.6190
 7192SOL     OW28533   5.276   2.406   2.499  0.0766 -0.9717  1.1337
 7192SOL    HW228534   5.280   2.316   2.467  1.8581  0.5988 -4.2566
 7192SOL    HW328535   5.191   2.438   2.471  0.6735 -0.2112  0.1150
 7192SOL    MW428536   5.265   2.398   2.491  0.3904 -0.6642  0.2881
 7193SOL     OW28537   5.845   4.550   6.332 -0.4057 -0.2415 -0.6044
 7193SOL    HW228538   5.787   4.561   6.407  0.9822 -1.6438  0.7391
 7193SOL    HW328539   5.787   4.519   6.262 -1.3071 -1.7673  0.7286
 7193SOL    MW428540   5.830   4.547   6.333 -0.3415 -0.6278 -0.2513
 7194SOL     OW28541   4.825   5.569   5.387 -1.0829  0.0558  0.3000
 7194SOL    HW228542   4.734   5.565   5.417 -1.2351 -0.9827 -0.2474
 7194SOL    HW328543   4.856   5.479   5.394 -0.1887  0.3475  0.1730
 7194SOL    MW428544   4.817   5.557   5.392 -0.9850 -0.0427  0.2110
 7195SOL     OW28545   4.077   4.994   6.391  0.1316  0.5306  0.4476
 7195SOL    HW228546   4.087   4.904   6.422 -0.2127  0.6581  0.9563
 7195SOL    HW328547   3.984   5.013   6.407  0.1138  0.8390 -0.0280
 7195SOL    MW428548   4.066   4.985   6.398  0.0838  0.5881  0.4519
 7196SOL     OW28549   1.350   6.018   1.688  0.5551 -0.0584 -0.1013
 7196SOL    HW228550   1.332   6.083   1.756 -0.5466 -0.2725 -0.1736
 7196SOL    HW328551   1.354   6.069   1.607 -1.5310 -0.1805 -0.3352
 7196SOL    MW428552   1.349   6.033   1.686  0.1345 -0.1028 -0.1417
 7197SOL     OW28553   0.619   3.854   4.246 -0.0315 -0.1004  0.8148
 7197SOL    HW228554   0.661   3.937   4.226  1.4173 -1.0784 -0.4052
 7197SOL    HW328555   0.659   3.825   4.328  0.9983 -0.5287  0.1900
 7197SOL    MW428556   0.630   3.861   4.254  0.2955 -0.2859  0.5714
 7198SOL     OW28557   2.986   1.428   0.645  0.2527  0.2961  0.1631
 7198SOL    HW228558   3.027   1.371   0.711 -0.0023 -0.3802 -0.2503
 7198SOL    HW328559   3.029   1.404   0.563 -0.8170 -0.2858 -0.2446
 7198SOL    MW428560   2.997   1.417   0.643  0.0779  0.1301  0.0548
 7199SOL     OW28561   6.098   0.926   5.975  0.0687 -0.1078 -0.2738
 7199SOL    HW228562   6.163   0.930   5.906 -2.6821 -0.2263 -3.0984
 7199SOL    HW328563   6.078   0.833   5.984 -0.7912  0.0313 -0.6043
 7199SOL    MW428564   6.104   0.914   5.967 -0.4077 -0.1051 -0.6901
 7200SOL     OW28565   3.055   0.980   3.943 -0.0399  0.3936 -0.3525
 7200SOL    HW228566   3.080   1.051   3.884  2.0314  1.8427  2.0502
 7200SOL    HW328567   3.133   0.926   3.950 -0.2535  0.2230  0.9582
 7200SOL    MW428568   3.069   0.982   3.936  0.2052  0.5623  0.1374
 7201SOL     OW28569   2.141   5.451   0.807  0.2919 -0.3926  0.0349
 7201SOL    HW228570   2.142   5.544   0.784 -0.0689 -0.1314  1.0247
 7201SOL    HW328571   2.058   5.419   0.772  0.8075 -0.5651 -1.0836
 7201SOL    MW428572   2.130   5.459   0.799  0.3123 -0.3809  0.0179
 7202SOL     OW28573   0.715   5.695   3.366 -0.6360  0.1854  0.0762
 7202SOL    HW228574   0.714   5.729   3.277  0.2314  0.1080  0.0215
 7202SOL    HW328575   0.738   5.602   3.356 -2.5822 -0.3443  0.2453
 7202SOL    MW428576   0.718   5.687   3.353 -0.7784  0.1053  0.0913
 7203SOL     OW28577   0.319   0.661   2.472  0.5333 -0.8186 -0.2886
 7203SOL    HW228578   0.404   0.618   2.462  1.1767  0.7057 -1.8795
 7203SOL    HW328579   0.324   0.737   2.414 -1.3641  0.1637  0.7610
 7203SOL    MW428580   0.331   0.665   2.463  0.3679 -0.4879 -0.3600
 7204SOL     OW28581   5.344   5.414   2.448  0.0024 -0.2368  0.5767
 7204SOL    HW228582   5.339   5.396   2.355  0.6200 -0.7469  0.6315
 7204SOL    HW328583   5.323   5.331   2.490 -0.4070  0.0252  0.8984
 7204SOL    MW428584   5.341   5.401   2.441  0.0299 -0.2695  0.6264
 7205SOL     OW28585   2.603   4.798   2.852 -0.6851 -0.0039 -0.1345
 7205SOL    HW228586   2.538   4.813   2.920 -0.1069  0.2965  0.3595
 7205SOL    HW328587   2.678   4.760   2.898 -0.0868  0.6958 -0.5103
 7205SOL    MW428588   2.604   4.795   2.867 -0.5299  0.1280 -0.1189
 7206SOL     OW28589   4.230   3.206   0.994  0.3302  0.3528  0.0958
 7206SOL    HW228590   4.176   3.285   0.996  0.9621  0.7988 -0.0727
 7206SOL    HW328591   4.281   3.210   1.076  0.4312  0.1656  0.0431
 7206SOL    MW428592   4.230   3.217   1.005  0.4269  0.3869  0.0666
 7207SOL     OW28593   2.595   2.711   1.670 -0.1062 -0.1621 -0.4004
 7207SOL    HW228594   2.664   2.776   1.658  1.1796 -1.1908  1.1176
 7207SOL    HW328595   2.542   2.745   1.742  0.0148 -0.3574 -0.2199
 7207SOL    MW428596   2.597   2.724   1.678  0.0794 -0.3236 -0.1763
 7208SOL     OW28597   4.121   3.642   1.707  0.0801  0.1784  0.3462
 7208SOL    HW228598   4.082   3.559   1.678  2.5174 -2.4127  3.7102
 7208SOL    HW328599   4.069   3.667   1.783  1.1808  0.0172  1.1734
 7208SOL    MW428600   4.109   3.635   1.713  0.5469 -0.1847  0.8992
 7209SOL     OW28601   3.243   4.323   1.201 -0.1176 -0.3852 -0.4017
 7209SOL    HW228602   3.265   4.392   1.139 -0.0736 -1.5105 -1.6853
 7209SOL    HW328603   3.158   4.349   1.237  0.9068  1.4499  0.8597
 7209SOL    MW428604   3.235   4.335   1.198  0.0234 -0.2916 -0.4046
 7210SOL     OW28605   0.552   3.370   4.189 -0.2911  0.1162 -0.1791
 7210SOL    HW228606   0.518   3.441   4.134 -2.7255 -0.3190  0.6505
 7210SOL    HW328607   0.639   3.400   4.216 -0.4983  1.9258 -1.3373
 7210SOL    MW428608   0.559   3.383   4.185 -0.6397  0.2976 -0.2225
 7211SOL     OW28609   3.991   4.588   0.655  0.3687  0.1887  0.5898
 7211SOL    HW228610   3.954   4.661   0.606  0.4902 -1.1597 -1.6201
 7211SOL    HW328611   4.065   4.558   0.603  0.1167 -1.7347  1.2354
 7211SOL    MW428612   3.996   4.593   0.642  0.3515 -0.2429  0.3834
 7212SOL     OW28613   2.004   0.035   2.621  0.3590  0.3246  0.0471
 7212SOL    HW228614   2.043   0.077   2.544  1.3521 -0.0064  0.3478
 7212SOL    HW328615   2.028  -0.057   2.613  0.7825  0.3451  0.9252
 7212SOL    MW428616   2.013   0.029   2.610  0.5459  0.2836  0.2026
 7213SOL     OW28617   3.914   0.959   1.696 -0.0490 -0.5365 -0.5239
 7213SOL    HW228618   3.896   0.887   1.758 -3.1726 -0.6245 -1.3748
 7213SOL    HW328619   3.837   0.963   1.640  1.1176  1.8996 -2.1552
 7213SOL    MW428620   3.902   0.950   1.697 -0.3072 -0.2267 -0.8514
 7214SOL     OW28621   4.309   6.059   1.722  0.3778  0.2521  0.2885
 7214SOL    HW228622   4.245   6.043   1.652  0.8043  0.3163 -0.1200
 7214SOL    HW328623   4.267   6.024   1.801 -0.0769  0.1102 -0.0103
 7214SOL    MW428624   4.295   6.053   1.723  0.3741  0.2418  0.1952
 7215SOL     OW28625   3.791   0.577   4.542 -0.0146 -0.4421  0.3418
 7215SOL    HW228626   3.778   0.660   4.497 -1.1199 -1.0126 -0.4530
 7215SOL    HW328627   3.844   0.525   4.481 -0.0001 -0.5953  0.4827
 7215SOL    MW428628   3.796   0.581   4.528 -0.1586 -0.5376  0.2556
 7216SOL     OW28629   5.672   5.446   2.175 -0.3929  0.0900 -0.4994
 7216SOL    HW228630   5.698   5.406   2.258  0.3745 -0.5353 -1.0216
 7216SOL    HW328631   5.730   5.406   2.110 -0.6394  0.9332 -1.2669
 7216SOL    MW428632   5.683   5.436   2.178 -0.3241  0.1187 -0.6696
 7217SOL     OW28633   4.233   0.245   4.303  0.0604  0.2534 -0.0117
 7217SOL    HW228634   4.164   0.234   4.369 -1.8451  3.2053 -1.3191
 7217SOL    HW328635   4.276   0.327   4.327  1.4425 -0.2460 -0.7022
 7217SOL    MW428636   4.229   0.254   4.315 -0.0086  0.5770 -0.2753
 7218SOL     OW28637   2.221   6.033   1.014  0.0004  0.5267  0.2977
 7218SOL    HW228638   2.295   6.029   1.074  0.5290  1.6739 -0.2451
 7218SOL    HW328639   2.253   6.085   0.940 -1.2547  0.7904 -0.0788
 7218SOL    MW428640   2.235   6.039   1.012 -0.0955  0.7128  0.1764
 7219SOL     OW28641   5.450   2.092   2.875  0.1743 -0.3300  0.1464
 7219SOL    HW228642   5.466   2.025   2.941 -3.1984 -2.5653 -1.0050
 7219SOL    HW328643   5.413   2.165   2.923  1.3347 -0.3392  1.1121
 7219SOL    MW428644   5.448   2.092   2.890 -0.1176 -0.6261  0.1219
 7220SOL     OW28645   1.883   6.417   3.385  0.0250 -0.0140  1.0427
 7220SOL    HW228646   1.915   6.341   3.337  0.8741  0.4774  0.8063
 7220SOL    HW328647   1.795   6.393   3.413  0.4322 -1.2396  1.3256
 7220SOL    MW428648   1.876   6.404   3.382  0.1907 -0.1109  1.0489
 7221SOL     OW28649   5.212   0.164   6.279  0.1099  0.7368 -0.1628
 7221SOL    HW228650   5.150   0.237   6.283 -0.6308  0.1597 -0.7917
 7221SOL    HW328651   5.158   0.086   6.286  0.8846  0.2289  0.4162
 7221SOL    MW428652   5.197   0.163   6.280  0.1144  0.5936 -0.1694
 7222SOL     OW28653   2.967   5.961   1.455 -0.4792  0.3108  0.3674
 7222SOL    HW228654   2.986   5.867   1.448 -0.6792  0.3376 -0.6169
 7222SOL    HW328655   3.000   5.985   1.542 -0.2971 -0.6382  0.5751
 7222SOL    MW428656   2.974   5.952   1.466 -0.4816  0.1891  0.2649
 7223SOL     OW28657   5.152   2.954   4.421  0.0017 -0.6998  0.8150
 7223SOL    HW228658   5.091   2.917   4.484 -1.2087  1.0266  0.7134
 7223SOL    HW328659   5.098   2.980   4.347  1.1398 -0.9248 -0.1321
 7223SOL    MW428660   5.137   2.952   4.419 -0.0079 -0.5017  0.6766
 7224SOL     OW28661   2.022   4.856   1.142  0.1055 -0.4938  0.2002
 7224SOL    HW228662   2.049   4.821   1.227 -0.2769  2.1292  1.5125
 7224SOL    HW328663   2.089   4.920   1.119 -0.5391 -0.1337 -0.7540
 7224SOL    MW428664   2.034   4.860   1.150 -0.0300 -0.1002  0.2474
 7225SOL     OW28665   6.314   0.254   3.272 -0.4204 -0.3089  0.4974
 7225SOL    HW228666   6.401   0.290   3.254 -0.4835 -0.3684  0.0494
 7225SOL    HW328667   6.316   0.230   3.364 -0.2467  0.4952  0.7176
 7225SOL    MW428668   6.325   0.256   3.282 -0.4058 -0.2107  0.4674
 7226SOL     OW28669   3.270   6.047   0.477  0.2593 -0.3190  0.3337
 7226SOL    HW228670   3.253   6.004   0.561  0.3815 -1.0231  0.0062
 7226SOL    HW328671   3.268   5.976   0.412  0.5237  0.1578 -0.2146
 7226SOL    MW428672   3.268   6.032   0.479  0.3103 -0.3490  0.2182
 7227SOL     OW28673   6.015   1.506   4.125 -0.1033 -0.1885 -0.0723
 7227SOL    HW228674   6.015   1.593   4.163  2.2088  0.2626 -0.9486
 7227SOL    HW328675   6.025   1.447   4.201  1.3915  0.5152  0.3197
 7227SOL    MW428676   6.016   1.509   4.140  0.3990 -0.0361 -0.1362
 7228SOL     OW28677   3.757   0.267   0.337 -0.5576 -0.2649 -0.0940
 7228SOL    HW228678   3.680   0.301   0.382 -0.4629 -1.5891  1.1376
 7228SOL    HW328679   3.722   0.212   0.267 -0.8092 -1.5723  0.9985
 7228SOL    MW428680   3.742   0.264   0.334 -0.5783 -0.6121  0.2127
 7229SOL     OW28681   4.950   4.659   3.354 -0.3467 -0.5625 -0.4556
 7229SOL    HW228682   4.960   4.600   3.279 -0.1187 -0.6364 -0.3666
 7229SOL    HW328683   4.880   4.719   3.328  0.8764  0.4910 -1.4181
 7229SOL    MW428684   4.942   4.659   3.341 -0.1552 -0.4333 -0.5708
 7230SOL     OW28685   0.345   5.897   4.187 -0.3182  0.3344 -0.1961
 7230SOL    HW228686   0.415   5.961   4.202 -2.3369  1.9440  3.7062
 7230SOL    HW328687   0.274   5.948   4.149 -0.0376 -1.0308 -2.8640
 7230SOL    MW428688   0.345   5.912   4.184 -0.5476  0.3667 -0.0333
 7231SOL     OW28689   6.040   3.435   3.907 -0.0352 -0.0970  0.1715
 7231SOL    HW228690   6.012   3.461   3.994 -0.0774 -2.2518  0.8528
 7231SOL    HW328691   5.978   3.368   3.880 -0.0070  0.5110 -1.5265
 7231SOL    MW428692   6.028   3.430   3.915 -0.0371 -0.3011  0.0374
 7232SOL     OW28693   0.212   2.887   5.594  0.1386 -0.0543 -0.4341
 7232SOL    HW228694   0.194   2.797   5.567 -0.4968  0.3926 -1.5232
 7232SOL    HW328695   0.227   2.935   5.513 -0.0337  0.9388  0.1023
 7232SOL    MW428696   0.212   2.882   5.580  0.0320  0.1357 -0.5070
 7233SOL     OW28697   1.009   3.740   6.049 -0.2849  0.2763 -0.0210
 7233SOL    HW228698   0.930   3.794   6.052  1.0268  2.3727 -1.0271
 7233SOL    HW328699   1.076   3.797   6.012  1.9922 -1.1000  1.6957
 7233SOL    MW428700   1.007   3.754   6.045  0.1886  0.3713  0.0728
 7234SOL     OW28701   4.127   1.623   4.632 -0.4047 -0.3163 -0.0966
 7234SOL    HW228702   4.220   1.622   4.608 -0.0615 -1.0967  1.1359
 7234SOL    HW328703   4.112   1.712   4.665 -0.2346 -0.0250 -0.7963
 7234SOL    MW428704   4.137   1.634   4.633 -0.3370 -0.3808 -0.0263
 7235SOL     OW28705   4.141   5.032   2.262  0.9776  0.1243 -0.4826
 7235SOL    HW228706   4.213   5.051   2.202  0.5279  0.0352 -1.0628
 7235SOL    HW328707   4.070   5.000   2.205  1.4508 -2.6418  0.3458
 7235SOL    MW428708   4.141   5.030   2.246  0.9807 -0.2524 -0.4499
 7236SOL     OW28709   2.198   5.014   0.365  0.0849  0.2270  0.1621
 7236SOL    HW228710   2.206   4.936   0.419 -1.6307  0.5362  0.9386
 7236SOL    HW328711   2.129   4.993   0.302  0.7321  0.5525 -0.6688
 7236SOL    MW428712   2.190   5.001   0.364 -0.0561  0.3107  0.1549
 7237SOL     OW28713   1.053   0.103   4.172 -0.3256 -0.3920  0.6365
 7237SOL    HW228714   0.996   0.169   4.212 -1.8261 -0.9015 -0.5621
 7237SOL    HW328715   1.085   0.051   4.245 -2.9221 -1.2669  1.2558
 7237SOL    MW428716   1.050   0.105   4.187 -0.8661 -0.5746  0.5601
 7238SOL     OW28717   1.005   6.249   5.306 -0.0040 -0.0003  0.5229
 7238SOL    HW228718   1.024   6.158   5.285  0.0379  0.3565 -1.0887
 7238SOL    HW328719   1.082   6.279   5.355  0.9802 -0.2424 -0.8196
 7238SOL    MW428720   1.018   6.241   5.310  0.1314  0.0149  0.1331
 7239SOL     OW28721   0.284   4.266   3.372 -0.7060 -0.4808  0.3508
 7239SOL    HW228722   0.223   4.241   3.303  0.1890  1.1166 -1.1440
 7239SOL    HW328723   0.230   4.282   3.449 -1.7793 -2.0174 -0.0472
 7239SOL    MW428724   0.269   4.265   3.373 -0.7295 -0.4728  0.1011
 7240SOL     OW28725   5.784   0.718   6.375  0.3167  0.6477 -0.2065
 7240SOL    HW228726   5.841   0.790   6.346  1.7757 -0.0981  0.7153
 7240SOL    HW328727   5.783   0.726   6.471  0.2286 -0.3543 -0.1212
 7240SOL    MW428728   5.792   0.729   6.384  0.4976  0.4171 -0.0736
 7241SOL     OW28729   5.464   2.649   5.544  0.7899  0.6893  0.7199
 7241SOL    HW228730   5.410   2.696   5.607  1.4625  0.6058  1.3846
 7241SOL    HW328731   5.524   2.597   5.599  0.5992 -0.3022  0.0058
 7241SOL    MW428732   5.465   2.648   5.560  0.8535  0.5474  0.7133
 7242SOL     OW28733   5.805   2.896   2.655  0.1448 -0.2810 -0.0072
 7242SOL    HW228734   5.738   2.943   2.705 -0.0131  0.5735 -0.9862
 7242SOL    HW328735   5.783   2.804   2.667 -1.0104 -0.0325 -0.0312
 7242SOL    MW428736   5.793   2.890   2.663 -0.0285 -0.1355 -0.1396
 7243SOL     OW28737   5.746   0.435   1.532 -0.0634  0.5128  0.0292
 7243SOL    HW228738   5.825   0.384   1.549 -0.1197  0.6852  0.8622
 7243SOL    HW328739   5.754   0.512   1.589 -0.3904  1.0005 -0.5661
 7243SOL    MW428740   5.757   0.439   1.542 -0.1140  0.5999  0.0605
 7244SOL     OW28741   6.259   2.664   0.095  0.2122  0.0418  0.0539
 7244SOL    HW228742   6.198   2.682   0.166 -0.2386  0.7060 -0.4884
 7244SOL    HW328743   6.207   2.673   0.016  0.9396  0.3065 -0.4040
 7244SOL    MW428744   6.244   2.667   0.094  0.2487  0.1644 -0.0780
 7245SOL     OW28745   1.676   0.505   0.304 -0.1665 -0.0297  0.3849
 7245SOL    HW228746   1.602   0.450   0.279 -0.2015 -0.0467  0.5235
 7245SOL    HW328747   1.672   0.509   0.400 -0.2938  0.3880  0.3632
 7245SOL    MW428748   1.666   0.499   0.314 -0.1879  0.0232  0.4003
 7246SOL     OW28749   0.688   2.432   4.307  0.2414  0.4448 -0.0455
 7246SOL    HW228750   0.751   2.361   4.304 -1.8356 -1.6063  1.7074
 7246SOL    HW328751   0.619   2.406   4.245 -0.0248  1.5197 -0.2300
 7246SOL    MW428752   0.687   2.420   4.298 -0.0678  0.3160  0.1614
 7247SOL     OW28753   2.116   2.964   0.600 -0.4158  0.9711 -0.0527
 7247SOL    HW228754   2.154   3.042   0.641  0.6754 -1.0920  3.3219
 7247SOL    HW328755   2.022   2.971   0.619 -0.1472  0.8994  1.4733
 7247SOL    MW428756   2.109   2.975   0.608 -0.2364  0.6894  0.5939
 7248SOL     OW28757   5.852   3.677   3.244  0.3162  0.0509 -0.0654
 7248SOL    HW228758   5.815   3.722   3.168 -0.1437  0.8929  0.6353
 7248SOL    HW328759   5.779   3.668   3.305  1.3442  2.4596  1.6848
 7248SOL    MW428760   5.838   3.682   3.242  0.3912  0.4798  0.2579
 7249SOL     OW28761   1.806   2.754   4.968  0.3110  0.3943 -0.6304
 7249SOL    HW228762   1.775   2.683   5.025  0.5537 -0.9277 -2.0750
 7249SOL    HW328763   1.870   2.801   5.021 -0.9881  0.5180  0.9019
 7249SOL    MW428764   1.811   2.751   4.983  0.1716  0.2362 -0.6189
 7250SOL     OW28765   0.817   5.614   1.820  0.8293  0.0219  0.4305
 7250SOL    HW228766   0.826   5.532   1.869  0.2438 -0.6363 -0.5264
 7250SOL    HW328767   0.786   5.587   1.734 -0.5937  1.3432  0.4818
 7250SOL    MW428768   0.814   5.600   1.816  0.5643  0.1094  0.3110
 7251SOL     OW28769   0.553   5.503   0.081  0.3107 -0.4442  0.3599
 7251SOL    HW228770   0.506   5.459   0.152 -0.4787 -0.1490  0.0276
 7251SOL    HW328771   0.485   5.552   0.034  0.8767 -0.3958 -0.4194
 7251SOL    MW428772   0.538   5.504   0.084  0.2812 -0.3989  0.2133
 7252SOL     OW28773   1.336   5.284   2.220 -0.8429  0.2828  0.5680
 7252SOL    HW228774   1.252   5.245   2.193 -0.0968 -1.0153  0.0266
 7252SOL    HW328775   1.367   5.330   2.142 -1.4779  1.5936  1.0545
 7252SOL    MW428776   1.329   5.285   2.206 -0.8282  0.2845  0.5608
 7253SOL     OW28777   0.840   1.112   4.434 -0.2599 -0.3179 -0.7478
 7253SOL    HW228778   0.755   1.089   4.471  0.1400  0.0669  0.4279
 7253SOL    HW328779   0.874   1.029   4.400  0.9693 -1.5619  3.0382
 7253SOL    MW428780   0.833   1.098   4.434 -0.0450 -0.4313 -0.0931
 7254SOL     OW28781   4.302   0.321   0.443  0.3290 -0.3739  0.3994
 7254SOL    HW228782   4.252   0.369   0.509 -0.0646 -0.9475  0.5231
 7254SOL    HW328783   4.250   0.328   0.363  0.3332 -0.4919  0.3865
 7254SOL    MW428784   4.288   0.328   0.441  0.2776 -0.4652  0.4140
 7255SOL     OW28785   6.113   3.723   3.182  0.3916 -0.5400 -0.4893
 7255SOL    HW228786   6.020   3.709   3.199  0.3988 -3.1357 -2.1042
 7255SOL    HW328787   6.155   3.700   3.265 -0.2229 -3.4771 -0.8477
 7255SOL    MW428788   6.106   3.718   3.196  0.3115 -1.2700 -0.7497
 7256SOL     OW28789   6.140   4.116   1.641  0.4247  0.0806 -0.3213
 7256SOL    HW228790   6.146   4.074   1.555  0.8412  0.6631 -0.5860
 7256SOL    HW328791   6.165   4.047   1.703  0.4273 -0.2572 -0.6917
 7256SOL    MW428792   6.144   4.101   1.638  0.4800  0.1129 -0.4051
 7257SOL     OW28793   0.526   2.113   5.195 -0.3684  0.2969  0.7723
 7257SOL    HW228794   0.520   2.019   5.174 -1.3556  0.3157  0.9346
 7257SOL    HW328795   0.501   2.157   5.113 -0.0364  0.4221  0.7364
 7257SOL    MW428796   0.522   2.106   5.181 -0.4549  0.3159  0.7890
 7258SOL     OW28797   0.024   6.057   3.159  0.0200 -0.0949 -0.1135
 7258SOL    HW228798  -0.001   6.046   3.251  0.1109  2.8221  0.3664
 7258SOL    HW328799   0.047   6.150   3.152  1.2836 -0.5205 -2.8030
 7258SOL    MW428800   0.024   6.068   3.171  0.1987  0.2338 -0.4050
 7259SOL     OW28801   3.323   4.039   1.820  0.2160  0.2823  0.2775
 7259SOL    HW228802   3.413   4.007   1.813 -0.2466 -0.7573 -1.6987
 7259SOL    HW328803   3.279   4.005   1.742 -2.2995 -0.4807  1.8966
 7259SOL    MW428804   3.329   4.030   1.809 -0.1769  0.0445  0.2304
 7260SOL     OW28805   2.309   2.299   3.591  0.1422 -0.1767 -0.0166
 7260SOL    HW228806   2.349   2.376   3.631 -2.1850  1.8319 -1.2932
 7260SOL    HW328807   2.382   2.237   3.581  2.0905  1.7529  1.2030
 7260SOL    MW428808   2.324   2.301   3.595  0.0922  0.3429 -0.0241
 7261SOL     OW28809   4.239   3.104   2.333  0.1217  0.0326 -0.1008
 7261SOL    HW228810   4.149   3.073   2.326  0.0882 -0.2477  1.2629
 7261SOL    HW328811   4.231   3.199   2.345 -0.0113 -0.0184  0.2264
 7261SOL    MW428812   4.226   3.113   2.333  0.0997 -0.0111  0.1223
 7262SOL     OW28813   3.986   0.654   4.728  0.0719 -0.4855  0.5091
 7262SOL    HW228814   3.988   0.571   4.776 -0.0023 -0.4600  0.5550
 7262SOL    HW328815   3.926   0.639   4.656  0.0320 -0.4600  0.5372
 7262SOL    MW428816   3.979   0.641   4.725  0.0569 -0.4788  0.5189
 7263SOL     OW28817   4.359   3.037   2.086 -0.3222 -0.1704 -0.1864
 7263SOL    HW228818   4.389   3.126   2.069 -2.0545  0.2461 -1.2679
 7263SOL    HW328819   4.314   3.042   2.170  1.4644 -0.5525  0.8602
 7263SOL    MW428820   4.357   3.049   2.094 -0.3150 -0.1659 -0.1910
 7264SOL     OW28821   2.898   0.563   3.242 -0.1116  0.1732 -0.1650
 7264SOL    HW228822   2.911   0.626   3.172  0.0842  0.0646 -0.2252
 7264SOL    HW328823   2.854   0.613   3.311 -0.9119  0.1189 -0.6197
 7264SOL    MW428824   2.894   0.578   3.242 -0.1914  0.1517 -0.2329
 7265SOL     OW28825   4.273   6.268   5.325 -0.2129  0.5186 -0.4586
 7265SOL    HW228826   4.278   6.183   5.282 -0.5593  0.1901  0.1274
 7265SOL    HW328827   4.360   6.306   5.314  1.2972 -1.6306  2.6903
 7265SOL    MW428828   4.285   6.262   5.318 -0.0594  0.1917  0.0342
 7266SOL     OW28829   6.405   5.426   3.322  0.7089  0.2873  0.6688
 7266SOL    HW228830   6.413   5.521   3.310  1.1863  0.3989  1.8019
 7266SOL    HW328831   6.374   5.415   3.411 -1.7783 -0.5704 -0.2158
 7266SOL    MW428832   6.402   5.437   3.332  0.4437  0.1888  0.7016
 7267SOL     OW28833   2.384   3.497   0.789 -0.3635 -0.5328 -0.7335
 7267SOL    HW228834   2.358   3.516   0.699  1.0931  1.4520 -0.8100
 7267SOL    HW328835   2.480   3.490   0.785 -0.2245  0.0907  0.7072
 7267SOL    MW428836   2.393   3.499   0.777 -0.1529 -0.1887 -0.5535
 7268SOL     OW28837   4.753   0.967   5.120  0.3331 -0.1318 -0.1239
 7268SOL    HW228838   4.734   1.024   5.194  0.1498  1.3114 -1.2350
 7268SOL    HW328839   4.848   0.954   5.124  0.1397 -1.4087  1.2594
 7268SOL    MW428840   4.763   0.973   5.130  0.2834 -0.1099 -0.0880
 7269SOL     OW28841   2.360   2.274   4.995  0.5576 -0.0259 -0.1741
 7269SOL    HW228842   2.367   2.286   5.090  0.6787 -0.4142 -0.1340
 7269SOL    HW328843   2.313   2.192   4.984 -0.9683  0.8572 -0.4582
 7269SOL    MW428844   2.355   2.265   5.006  0.3723  0.0394 -0.2063
 7270SOL     OW28845   1.489   6.306   4.532 -0.0537 -0.0074  0.2139
 7270SOL    HW228846   1.456   6.382   4.483 -0.9429 -0.5072  0.0237
 7270SOL    HW328847   1.564   6.276   4.481  0.0566  0.5028  0.0697
 7270SOL    MW428848   1.495   6.312   4.518 -0.1565 -0.0061  0.1698
 7271SOL     OW28849   4.018   4.127   2.582  0.5924 -0.2497  0.4735
 7271SOL    HW228850   4.003   4.172   2.499 -0.7543 -1.5993 -0.0585
 7271SOL    HW328851   4.092   4.068   2.565  1.2462  0.4901  0.6772
 7271SOL    MW428852   4.026   4.125   2.569  0.5010 -0.3302  0.4301
 7272SOL     OW28853   1.735   5.280   1.244 -0.1071  0.8666  0.1363
 7272SOL    HW228854   1.728   5.185   1.248  0.0965  0.8551  0.2109
 7272SOL    HW328855   1.651   5.309   1.209 -0.8622  0.7843  1.8020
 7272SOL    MW428856   1.723   5.271   1.240 -0.1799  0.8542  0.3659
 7273SOL     OW28857   6.415   6.277   1.657 -0.0941 -0.2939 -0.0567
 7273SOL    HW228858   6.401   6.286   1.562 -1.9780  0.2637  0.2267
 7273SOL    HW328859   6.497   6.322   1.673  0.0130  0.0246 -1.3673
 7273SOL    MW428860   6.424   6.284   1.646 -0.3286 -0.1783 -0.1922
 7274SOL     OW28861   5.835   1.118   0.925  0.3851 -0.5583 -0.1758
 7274SOL    HW228862   5.902   1.125   0.857 -0.3698  1.7769 -0.7742
 7274SOL    HW328863   5.782   1.042   0.899  0.0279  0.3426 -2.3543
 7274SOL    MW428864   5.837   1.109   0.913  0.2384 -0.1313 -0.5422
 7275SOL     OW28865   6.265   2.937   1.190  0.7161  0.1988 -0.0457
 7275SOL    HW228866   6.248   2.925   1.097 -0.1759  1.2715 -0.0342
 7275SOL    HW328867   6.327   3.010   1.195  3.6958 -2.1412  0.0510
 7275SOL    MW428868   6.271   2.945   1.178  0.9916  0.0316 -0.0314
 7276SOL     OW28869   3.032   0.874   5.865 -0.9806 -0.3586 -0.2908
 7276SOL    HW228870   3.078   0.915   5.792  0.4734 -2.7139 -0.8082
 7276SOL    HW328871   3.027   0.943   5.932  0.4486  0.9189 -1.4265
 7276SOL    MW428872   3.037   0.889   5.865 -0.6002 -0.5008 -0.5089
 7277SOL     OW28873   5.103   3.741   2.856 -0.4428 -0.0955  0.1176
 7277SOL    HW228874   5.160   3.817   2.866 -0.7705  0.3800 -1.4063
 7277SOL    HW328875   5.121   3.710   2.767 -1.2215 -1.0519  0.2808
 7277SOL    MW428876   5.113   3.747   2.846 -0.5888 -0.1589 -0.0619
 7278SOL     OW28877   5.455   6.260   0.801  0.3032  0.3379 -0.2094
 7278SOL    HW228878   5.543   6.271   0.835  1.1146  1.6204 -2.4999
 7278SOL    HW328879   5.467   6.249   0.706 -2.0267  1.3610 -0.6920
 7278SOL    MW428880   5.468   6.260   0.793  0.1029  0.6421 -0.5753
 7279SOL     OW28881   1.246   1.107   1.503 -0.1629 -0.4229  0.3336
 7279SOL    HW228882   1.298   1.164   1.559 -0.3849 -0.2250  0.3383
 7279SOL    HW328883   1.274   1.127   1.414  0.2593 -0.8054  0.3737
 7279SOL    MW428884   1.256   1.117   1.499 -0.1365 -0.4473  0.3395
 7280SOL     OW28885   4.482   4.173   1.674  0.2887 -0.2843  0.2264
 7280SOL    HW228886   4.549   4.118   1.714  2.1260  2.0977  0.6680
 7280SOL    HW328887   4.455   4.233   1.744 -1.8384 -0.6966 -0.1548
 7280SOL    MW428888   4.487   4.174   1.688  0.2505 -0.0244  0.2343
 7281SOL     OW28889   3.165   5.346   0.213 -0.4656  0.4154 -0.3216
 7281SOL    HW228890   3.173   5.260   0.255  0.9991  0.3253 -0.7377
 7281SOL    HW328891   3.123   5.401   0.279  0.0736 -0.2124  0.5662
 7281SOL    MW428892   3.161   5.342   0.227 -0.2012  0.3207 -0.2594
 7282SOL     OW28893   0.574   1.868   3.860 -0.2534  0.2638 -0.0484
 7282SOL    HW228894   0.663   1.902   3.869 -0.0293  0.0822 -1.3709
 7282SOL    HW328895   0.541   1.910   3.781 -0.7141 -1.0079 -0.5518
 7282SOL    MW428896   0.582   1.878   3.851 -0.2846  0.0721 -0.2893
 7283SOL     OW28897   0.223   3.506   6.030  0.2264 -0.3638 -0.0704
 7283SOL    HW228898   0.241   3.567   6.102 -1.3101  0.4114 -0.2883
 7283SOL    HW328899   0.197   3.563   5.957 -0.9849 -1.2601 -0.3655
 7283SOL    MW428900   0.222   3.522   6.030 -0.1361 -0.3798 -0.1381
 7284SOL     OW28901   1.367   5.426   4.490 -0.1343  0.2520  0.5020
 7284SOL    HW228902   1.382   5.370   4.413  1.2419  2.5565 -1.0464
 7284SOL    HW328903   1.453   5.434   4.530 -0.0902  1.8719  0.1716
 7284SOL    MW428904   1.381   5.420   4.485  0.0531  0.7698  0.2541
 7285SOL     OW28905   3.720   2.633   6.063 -0.3631  0.1059  0.6101
 7285SOL    HW228906   3.642   2.677   6.098 -0.4044 -0.3701  1.1261
 7285SOL    HW328907   3.690   2.546   6.038 -0.1988  0.2415 -0.0654
 7285SOL    MW428908   3.706   2.627   6.064 -0.3469  0.0610  0.5891
 7286SOL     OW28909   2.221   4.526   0.634 -0.5898  0.6760  0.1295
 7286SOL    HW228910   2.198   4.607   0.588 -0.9830  1.5507  1.8099
 7286SOL    HW328911   2.142   4.502   0.682 -1.5142 -2.3485 -2.4801
 7286SOL    MW428912   2.207   4.533   0.634 -0.7636  0.3923  0.0069
 7287SOL     OW28913   2.127   2.650   1.699  0.5156 -0.6113  0.4773
 7287SOL    HW228914   2.198   2.633   1.638  0.1096 -0.9727  0.1044
 7287SOL    HW328915   2.170   2.689   1.775  0.7179  2.6398 -1.1437
 7287SOL    MW428916   2.142   2.653   1.701  0.4887 -0.2300  0.2142
 7288SOL     OW28917   1.758   5.056   0.354 -0.3024  0.1195  0.8115
 7288SOL    HW228918   1.707   5.135   0.368 -1.1356 -0.4250  0.9457
 7288SOL    HW328919   1.804   5.043   0.437 -0.9732 -0.0981  1.1570
 7288SOL    MW428920   1.758   5.064   0.367 -0.5008  0.0190  0.8748
 7289SOL     OW28921   2.515   2.827   5.203 -0.4601 -0.1539  0.3537
 7289SOL    HW228922   2.452   2.789   5.143 -0.7036  0.4627  0.2125
 7289SOL    HW328923   2.565   2.752   5.236  1.2806 -0.3643 -2.3998
 7289SOL    MW428924   2.514   2.812   5.199 -0.2626 -0.1003 -0.0282
 7290SOL     OW28925   5.553   1.260   4.862  0.0124  0.2784 -0.3104
 7290SOL    HW228926   5.543   1.354   4.879  0.2671 -0.0487  2.1447
 7290SOL    HW328927   5.463   1.227   4.853 -0.0690  0.7673 -1.3854
 7290SOL    MW428928   5.540   1.268   4.863  0.0353  0.2997 -0.1283
 7291SOL     OW28929   3.164   0.187   1.958 -0.1531 -0.1359 -0.0899
 7291SOL    HW228930   3.082   0.237   1.957  0.1999  0.4473  0.1220
 7291SOL    HW328931   3.135   0.096   1.967 -0.7643  0.1076  0.5781
 7291SOL    MW428932   3.149   0.181   1.959 -0.1872 -0.0268  0.0262
 7292SOL     OW28933   5.139   4.372   3.428 -0.3057  0.4800 -0.6493
 7292SOL    HW228934   5.218   4.406   3.469 -0.4039 -1.2599  1.1936
 7292SOL    HW328935   5.070   4.388   3.493 -1.3231  1.2212 -1.8698
 7292SOL    MW428936   5.140   4.378   3.442 -0.4529  0.3483 -0.5672
 7293SOL     OW28937   0.507   5.428   4.380  0.3141 -0.5805  0.0026
 7293SOL    HW228938   0.532   5.386   4.463  2.3464 -0.1805 -0.3609
 7293SOL    HW328939   0.494   5.520   4.404 -2.3783 -0.9890  0.4507
 7293SOL    MW428940   0.508   5.435   4.394  0.2270 -0.5817  0.0137
 7294SOL     OW28941   3.973   1.381   2.593  0.1667 -0.0803 -0.5657
 7294SOL    HW228942   4.029   1.375   2.515 -0.4614 -2.4460 -0.9032
 7294SOL    HW328943   3.890   1.342   2.566 -0.4274  0.0523  0.9830
 7294SOL    MW428944   3.970   1.375   2.579  0.0055 -0.3749 -0.4059
 7295SOL     OW28945   5.117   4.190   3.019  0.6501 -0.0040  0.1955
 7295SOL    HW228946   5.177   4.115   3.024  1.7400  0.9158  3.0537
 7295SOL    HW328947   5.169   4.259   2.977  1.1105  0.3375  1.2946
 7295SOL    MW428948   5.132   4.190   3.014  0.8547  0.1624  0.7176
 7296SOL     OW28949   2.721   0.766   3.013 -0.1244 -0.0513  0.0595
 7296SOL    HW228950   2.755   0.791   2.927 -1.6116  1.1409 -0.2294
 7296SOL    HW328951   2.719   0.848   3.062 -1.5374 -0.2577  0.3936
 7296SOL    MW428952   2.725   0.780   3.008 -0.5070  0.0788  0.0655
 7297SOL     OW28953   2.197   6.145   5.348 -0.0270 -0.3455  0.1356
 7297SOL    HW228954   2.157   6.170   5.431 -0.1570 -1.1058  0.3106
 7297SOL    HW328955   2.291   6.153   5.362  0.0760 -2.5134  1.0734
 7297SOL    MW428956   2.204   6.149   5.361 -0.0306 -0.7318  0.2824
 7298SOL     OW28957   0.833   1.558   5.663  0.1895  0.3653 -0.3801
 7298SOL    HW228958   0.875   1.528   5.582  2.6645  0.9800  0.5641
 7298SOL    HW328959   0.877   1.509   5.732 -1.1990  0.5515  0.6840
 7298SOL    MW428960   0.845   1.548   5.661  0.3328  0.4710 -0.1151
 7299SOL     OW28961   3.764   4.833   3.872  0.3525  0.5392  0.1311
 7299SOL    HW228962   3.792   4.892   3.942 -0.4107  2.4999 -1.1267
 7299SOL    HW328963   3.681   4.869   3.842  0.2669 -0.7064 -1.2475
 7299SOL    MW428964   3.757   4.846   3.877  0.2405  0.6335 -0.2168
 7300SOL     OW28965   4.961   3.729   3.881  0.6347 -0.3778 -0.0665
 7300SOL    HW228966   4.910   3.766   3.809  1.0210 -1.9326 -1.1822
 7300SOL    HW328967   5.016   3.802   3.910  1.2468  0.0334 -2.0726
 7300SOL    MW428968   4.962   3.744   3.875  0.7664 -0.5287 -0.4784
 7301SOL     OW28969   4.266   0.432   4.053 -0.3974 -0.4758  0.1465
 7301SOL    HW228970   4.212   0.356   4.033  1.8453 -2.0596 -0.3652
 7301SOL    HW328971   4.318   0.405   4.129  1.6510 -0.1550 -1.0764
 7301SOL    MW428972   4.266   0.418   4.060  0.1687 -0.6424 -0.0824
 7302SOL     OW28973   0.201   4.610   5.680  0.2451 -0.4601  0.4689
 7302SOL    HW228974   0.181   4.533   5.733 -0.5135 -1.8643 -1.7235
 7302SOL    HW328975   0.245   4.575   5.602 -1.8837  1.0156 -1.5436
 7302SOL    MW428976   0.204   4.595   5.676 -0.1358 -0.4506 -0.0859
 7303SOL     OW28977   3.554   0.357   5.893 -0.0767 -0.4385 -0.3648
 7303SOL    HW228978   3.504   0.369   5.973 -1.9824  0.6265 -1.6394
 7303SOL    HW328979   3.627   0.419   5.899 -0.2178 -0.3542  0.5110
 7303SOL    MW428980   3.557   0.366   5.904 -0.3468 -0.2868 -0.4174
 7304SOL     OW28981   3.677   6.239   3.280 -0.6167 -0.2072  0.0311
 7304SOL    HW228982   3.750   6.178   3.293 -0.0849  0.3894 -0.0866
 7304SOL    HW328983   3.687   6.269   3.189 -0.7690  0.1843  0.1427
 7304SOL    MW428984   3.688   6.235   3.269 -0.5666 -0.0768  0.0303
 7305SOL     OW28985   3.410   0.978   0.730  0.6777  0.2532  0.0477
 7305SOL    HW228986   3.348   0.962   0.659  0.9675  1.2431 -0.4574
 7305SOL    HW328987   3.356   1.009   0.802  0.5129  0.5044 -0.1804
 7305SOL    MW428988   3.395   0.980   0.730  0.6942  0.4170 -0.0490
 7306SOL     OW28989   0.172   0.038   1.749 -0.4838 -0.3774 -0.1273
 7306SOL    HW228990   0.220   0.055   1.667  0.2251 -0.2856  0.3000
 7306SOL    HW328991   0.240   0.008   1.810 -1.1269 -1.1812  0.2114
 7306SOL    MW428992   0.188   0.036   1.746 -0.4752 -0.4713 -0.0262
 7307SOL     OW28993   4.813   3.992   2.444 -0.3550  0.0145 -0.5859
 7307SOL    HW228994   4.902   3.957   2.449  0.2151  1.2756 -1.3901
 7307SOL    HW328995   4.825   4.087   2.435 -1.8435  0.4793  1.5624
 7307SOL    MW428996   4.827   4.000   2.444 -0.4762  0.2422 -0.4086
 7308SOL     OW28997   2.215   6.240   0.474  0.4403 -0.2607 -0.1799
 7308SOL    HW228998   2.258   6.321   0.445  0.6995 -0.0357  0.7796
 7308SOL    HW328999   2.123   6.263   0.482  0.4416 -0.1927 -0.3619
 7308SOL    MW429000   2.209   6.254   0.471  0.4747 -0.2221 -0.0773
 7309SOL     OW29001   5.802   5.406   4.077 -0.1015  0.3874  0.3079
 7309SOL    HW229002   5.882   5.430   4.123  1.8383  1.1055 -3.1557
 7309SOL    HW329003   5.808   5.311   4.067  0.0771  0.3883  0.4040
 7309SOL    MW429004   5.813   5.396   4.082  0.1780  0.4822 -0.1364
 7310SOL     OW29005   4.521   4.551   3.960  0.0471  0.1529  0.1289
 7310SOL    HW229006   4.570   4.633   3.965  0.1660  0.0760  0.2141
 7310SOL    HW329007   4.430   4.577   3.973  0.2195  0.1013  1.6400
 7310SOL    MW429008   4.515   4.565   3.962  0.0855  0.1359  0.3395
 7311SOL     OW29009   1.375   0.079   4.804 -0.1668  0.5250 -0.3118
 7311SOL    HW229010   1.459   0.060   4.765 -0.8081 -1.8037 -0.6738
 7311SOL    HW329011   1.375   0.031   4.887 -2.0564 -1.7556 -1.5057
 7311SOL    MW429012   1.386   0.071   4.810 -0.5007 -0.0831 -0.5170
 7312SOL     OW29013   1.570   0.009   0.361  0.9110 -0.3571  0.1931
 7312SOL    HW229014   1.497  -0.051   0.376  0.3853 -0.5414 -2.5716
 7312SOL    HW329015   1.574   0.062   0.441 -1.1810 -1.4209  1.0903
 7312SOL    MW429016   1.561   0.008   0.374  0.5656 -0.5218 -0.0533
 7313SOL     OW29017   5.586   3.389   5.147 -0.4949 -0.1372  0.4385
 7313SOL    HW229018   5.649   3.325   5.114  0.5425  1.7715 -1.5628
 7313SOL    HW329019   5.628   3.426   5.225  0.0294 -0.1464  0.1618
 7313SOL    MW429020   5.600   3.386   5.153 -0.2889  0.1134  0.1379
 7314SOL     OW29021   0.973   2.792   1.927 -0.4241  0.6884  0.2653
 7314SOL    HW229022   0.931   2.826   1.848 -0.2601  0.9792  0.3044
 7314SOL    HW329023   0.911   2.810   1.997 -0.6155  0.3393  0.1915
 7314SOL    MW429024   0.959   2.799   1.926 -0.4277  0.6807  0.2607
 7315SOL     OW29025   4.773   2.130   4.754  0.3883 -0.6003 -0.3780
 7315SOL    HW229026   4.845   2.078   4.787 -0.0036 -0.0908  1.3544
 7315SOL    HW329027   4.711   2.066   4.720  0.7664 -1.1471 -0.0589
 7315SOL    MW429028   4.774   2.115   4.754  0.3865 -0.6053 -0.1073
 7316SOL     OW29029   1.737   0.466   3.816  0.3395 -0.0495 -0.2216
 7316SOL    HW229030   1.789   0.405   3.762  1.3392  1.0101 -0.5147
 7316SOL    HW329031   1.710   0.534   3.754  1.4304  1.1430  0.5656
 7316SOL    MW429032   1.741   0.467   3.800  0.6153  0.2476 -0.1564
 7317SOL     OW29033   1.301   5.449   1.949 -0.5109  0.5911 -0.0495
 7317SOL    HW229034   1.383   5.496   1.960 -0.7872  1.0466  0.0930
 7317SOL    HW329035   1.262   5.488   1.871  0.2237 -0.8315 -1.1987
 7317SOL    MW429036   1.307   5.460   1.940 -0.4504  0.4635 -0.1823
 7318SOL     OW29037   2.193   2.994   0.047 -0.8826 -0.0436 -0.2165
 7318SOL    HW229038   2.098   2.986   0.047 -0.9783  0.9497  0.9229
 7318SOL    HW329039   2.221   2.946  -0.031 -2.3077 -0.3500 -0.5575
 7318SOL    MW429040   2.184   2.986   0.037 -1.0832  0.0470 -0.1112
 7319SOL     OW29041   5.232   6.373   3.194  0.1886 -0.1515  0.0043
 7319SOL    HW229042   5.199   6.366   3.283 -0.4865 -0.2706 -0.2517
 7319SOL    HW329043   5.194   6.454   3.159  1.2493  0.4239  0.1494
 7319SOL    MW429044   5.223   6.383   3.201  0.2395 -0.0913 -0.0103
 7320SOL     OW29045   3.290   2.680   1.501  0.3098 -0.0957  0.3520
 7320SOL    HW229046   3.199   2.665   1.478 -0.0317  1.1514  0.7779
 7320SOL    HW329047   3.291   2.675   1.597  0.6298  0.1641  0.3641
 7320SOL    MW429048   3.278   2.677   1.511  0.3070  0.1031  0.4098
 7321SOL     OW29049   1.132   5.363   4.985  0.6558  0.2054  0.1792
 7321SOL    HW229050   1.111   5.372   5.078 -1.4107 -0.2182 -0.1792
 7321SOL    HW329051   1.144   5.269   4.972 -2.5038 -0.2283 -0.5192
 7321SOL    MW429052   1.131   5.352   4.995 -0.0338  0.0923  0.0398
 7322SOL     OW29053   1.685   3.247   1.965  0.0852 -0.2372 -0.4396
 7322SOL    HW229054   1.633   3.191   1.908  0.4730 -0.5930 -0.4462
 7322SOL    HW329055   1.658   3.223   2.054  0.1812 -0.3663 -0.4453
 7322SOL    MW429056   1.674   3.236   1.970  0.1490 -0.3012 -0.4412
 7323SOL     OW29057   4.121   1.183   5.231 -0.2875 -0.1478 -0.1720
 7323SOL    HW229058   4.197   1.199   5.287 -0.0656 -0.5239 -0.3676
 7323SOL    HW329059   4.155   1.137   5.155 -0.8705 -1.3104  0.2482
 7323SOL    MW429060   4.135   1.179   5.229 -0.3351 -0.3508 -0.1424
 7324SOL     OW29061   3.371   1.048   1.621  0.3473  0.2651 -0.1727
 7324SOL    HW229062   3.299   1.057   1.558 -0.5610  1.1740  0.9629
 7324SOL    HW329063   3.403   0.959   1.608 -0.9203 -0.1230 -0.7505
 7324SOL    MW429064   3.366   1.038   1.611  0.0602  0.3338 -0.0991
 7325SOL     OW29065   1.096   3.349   2.385 -0.0479 -0.3132  0.9949
 7325SOL    HW229066   1.137   3.361   2.472  1.3550 -2.0722  0.6369
 7325SOL    HW329067   1.153   3.286   2.341 -1.1199  0.0393 -0.9802
 7325SOL    MW429068   1.109   3.342   2.391 -0.0043 -0.4987  0.6871
 7326SOL     OW29069   3.640   1.574   5.357 -0.3966 -0.0735  0.6435
 7326SOL    HW229070   3.641   1.572   5.452 -0.9318  0.0988  0.6560
 7326SOL    HW329071   3.705   1.639   5.334 -1.4167  1.0859  0.9458
 7326SOL    MW429072   3.648   1.582   5.366 -0.6018  0.1022  0.6850
 7327SOL     OW29073   1.465   0.645   2.354 -0.6997  0.3990  0.4617
 7327SOL    HW229074   1.555   0.642   2.385  0.2078 -0.0525 -1.9883
 7327SOL    HW329075   1.468   0.702   2.278 -2.5351  0.4721  0.4002
 7327SOL    MW429076   1.477   0.652   2.348 -0.8221  0.3491  0.1303
 7328SOL     OW29077   0.550   3.063   2.993  0.2858  0.5946 -0.2089
 7328SOL    HW229078   0.493   3.133   2.961 -0.0262  1.2138  1.5926
 7328SOL    HW329079   0.491   3.002   3.037  0.8549  0.5925  0.5750
 7328SOL    MW429080   0.535   3.064   2.994  0.3197  0.6760  0.1322
 7329SOL     OW29081   0.583   1.438   0.534  0.1482 -0.3066 -0.1361
 7329SOL    HW229082   0.664   1.488   0.540 -0.5085  0.9208 -1.0736
 7329SOL    HW329083   0.567   1.428   0.440 -0.8703 -0.3635  0.0246
 7329SOL    MW429084   0.591   1.444   0.523 -0.0728 -0.1521 -0.2386
 7330SOL     OW29085   2.304   0.081   1.915  0.4051  0.5976 -0.6494
 7330SOL    HW229086   2.279   0.101   1.824 -0.5615  2.3687 -0.0402
 7330SOL    HW329087   2.377   0.141   1.932 -0.8945  1.9465  0.4253
 7330SOL    MW429088   2.311   0.092   1.905  0.1061  1.0093 -0.4272
 7331SOL     OW29089   0.941   6.191   3.877 -0.0238  0.2355  0.7000
 7331SOL    HW229090   0.872   6.141   3.919  0.1024 -0.6070 -0.0544
 7331SOL    HW329091   1.022   6.147   3.903  0.0318 -0.5550 -0.7047
 7331SOL    MW429092   0.943   6.179   3.886  0.0002  0.0200  0.4151
 7332SOL     OW29093   4.388   3.404   3.628 -0.3373 -0.1545 -0.8308
 7332SOL    HW229094   4.429   3.466   3.688 -1.9866  0.1979  0.0008
 7332SOL    HW329095   4.323   3.456   3.580  1.0156 -0.3912 -3.0854
 7332SOL    MW429096   4.384   3.419   3.629 -0.3764 -0.1392 -1.0186
 7333SOL     OW29097   0.729   4.103   4.236 -0.3634  0.4395  0.7832
 7333SOL    HW229098   0.716   4.111   4.331 -1.1961 -0.2168  0.7376
 7333SOL    HW329099   0.661   4.158   4.198  0.3513  1.1886  0.5579
 7333SOL    MW429100   0.718   4.111   4.244 -0.3790  0.4518  0.7475
 7334SOL     OW29101   5.607   2.451   1.588 -0.5335  0.4010 -0.1214
 7334SOL    HW229102   5.586   2.542   1.566  0.2048  0.5695 -0.1765
 7334SOL    HW329103   5.527   2.402   1.570 -0.7469  0.9455 -0.6912
 7334SOL    MW429104   5.594   2.456   1.583 -0.4642  0.4950 -0.2039
 7335SOL     OW29105   3.160   6.228   4.709  0.6238 -0.2144  0.0198
 7335SOL    HW229106   3.139   6.321   4.716  0.9528 -0.2602  2.1526
 7335SOL    HW329107   3.252   6.225   4.684  0.3294 -0.0143 -1.1890
 7335SOL    MW429108   3.169   6.240   4.706  0.6283 -0.1941  0.1417
 7336SOL     OW29109   1.130   2.053   4.392 -0.0428  0.2481  0.3199
 7336SOL    HW229110   1.170   2.006   4.465  0.9270  0.7100  0.1074
 7336SOL    HW329111   1.205   2.086   4.342 -0.7011  0.7966 -0.3132
 7336SOL    MW429112   1.145   2.051   4.395 -0.0017  0.3814  0.2083
 7337SOL     OW29113   6.183   5.934   1.074  0.6055  0.3869 -0.2133
 7337SOL    HW229114   6.140   5.994   1.013  1.3916  0.7133 -0.4599
 7337SOL    HW329115   6.246   5.989   1.121  0.2440  0.0674  0.6514
 7337SOL    MW429116   6.186   5.949   1.072  0.6615  0.3878 -0.1318
 7338SOL     OW29117   4.533   5.265   6.169 -0.6005 -0.3376 -0.1326
 7338SOL    HW229118   4.562   5.357   6.172 -0.1608 -0.4911  0.5674
 7338SOL    HW329119   4.610   5.217   6.141 -0.6285 -0.5714  0.1897
 7338SOL    MW429120   4.547   5.271   6.166 -0.5462 -0.3887  0.0023
 7339SOL     OW29121   5.414   4.384   3.559  0.1415 -0.7591  0.1665
 7339SOL    HW229122   5.360   4.363   3.635 -0.4075  2.5532  0.8641
 7339SOL    HW329123   5.499   4.345   3.578 -0.4295 -1.3269  1.7387
 7339SOL    MW429124   5.418   4.376   3.571 -0.0063 -0.3970  0.4660
 7340SOL     OW29125   5.914   0.428   2.826  0.3128  0.2156  0.0403
 7340SOL    HW229126   5.858   0.398   2.898 -1.0003  1.2683 -0.4864
 7340SOL    HW329127   5.973   0.491   2.867 -0.4120  0.7900  0.2349
 7340SOL    MW429128   5.914   0.433   2.841  0.0439  0.4303 -0.0035
 7341SOL     OW29129   1.707   6.272   1.339 -0.0922 -0.3881 -0.4311
 7341SOL    HW229130   1.800   6.258   1.357 -0.2323 -2.3665 -0.9859
 7341SOL    HW329131   1.675   6.322   1.414  1.5606  1.0239 -0.6162
 7341SOL    MW429132   1.715   6.276   1.351  0.1074 -0.4628 -0.5287
 7342SOL     OW29133   4.393   4.774   5.795  0.1151  0.0359  0.3178
 7342SOL    HW229134   4.355   4.689   5.818 -1.7332  0.9133  0.6579
 7342SOL    HW329135   4.425   4.762   5.706 -1.4501 -0.6245 -0.1869
 7342SOL    MW429136   4.392   4.761   5.786 -0.3353  0.0646  0.2961
 7343SOL     OW29137   3.789   0.808   5.747  0.7745 -0.2190  0.2254
 7343SOL    HW229138   3.723   0.876   5.754  1.6781  0.9004 -1.5107
 7343SOL    HW329139   3.754   0.735   5.799 -1.7518  0.3575 -0.5289
 7343SOL    MW429140   3.776   0.807   5.755  0.5604  0.0047 -0.1032
 7344SOL     OW29141   0.310   3.975   0.599  0.0032  0.3797 -0.1600
 7344SOL    HW229142   0.320   3.895   0.547  2.0012  1.1846 -1.1102
 7344SOL    HW329143   0.254   4.031   0.544 -0.5797  0.0295  0.0623
 7344SOL    MW429144   0.304   3.972   0.585  0.1899  0.4397 -0.2561
 7345SOL     OW29145   5.412   5.320   2.163  0.5840 -0.1387 -0.2754
 7345SOL    HW229146   5.367   5.399   2.136 -0.1216  0.0569  1.3278
 7345SOL    HW329147   5.504   5.346   2.172  0.2884  0.6325  0.6546
 7345SOL    MW429148   5.418   5.334   2.161  0.4519 -0.0111  0.0588
 7346SOL     OW29149   1.161   4.917   0.410  0.4205  0.3195 -0.3694
 7346SOL    HW229150   1.181   4.872   0.328  1.0865  1.0773 -0.6315
 7346SOL    HW329151   1.070   4.894   0.428 -0.2671  1.4496 -2.1625
 7346SOL    MW429152   1.151   4.908   0.402  0.4177  0.5686 -0.6406
 7347SOL     OW29153   5.963   1.612   4.462  0.1815 -0.0942 -0.4680
 7347SOL    HW229154   5.981   1.519   4.450  1.2902  0.0578 -0.0527
 7347SOL    HW329155   5.887   1.614   4.520 -1.3982 -0.7507 -2.3737
 7347SOL    MW429156   5.955   1.600   4.468  0.1194 -0.1608 -0.6646
 7348SOL     OW29157   5.258   5.534   4.050 -0.1266 -0.0309  0.7343
 7348SOL    HW229158   5.300   5.559   4.132 -0.6306 -0.8610  1.2666
 7348SOL    HW329159   5.313   5.464   4.016 -0.5375 -0.4749  0.9596
 7348SOL    MW429160   5.271   5.528   4.057 -0.2473 -0.1990  0.8342
 7349SOL     OW29161   0.605   1.316   1.151  0.0637 -0.1086  0.3347
 7349SOL    HW229162   0.542   1.388   1.158  0.3159  0.0024  1.7822
 7349SOL    HW329163   0.554   1.243   1.115 -1.1389 -0.2484  2.1504
 7349SOL    MW429164   0.590   1.316   1.147 -0.0617 -0.1124  0.7653
 7350SOL     OW29165   5.112   2.760   4.899  0.2498  0.2489 -0.2763
 7350SOL    HW229166   5.185   2.782   4.841  0.7019 -0.3411  0.0515
 7350SOL    HW329167   5.154   2.726   4.978 -0.3880 -0.8220 -0.3749
 7350SOL    MW429168   5.127   2.758   4.902  0.2253  0.0298 -0.2460
 7351SOL     OW29169   5.967   1.109   3.830 -0.0561 -0.4188 -0.3999
 7351SOL    HW229170   5.941   1.078   3.744 -0.4483 -0.7621 -0.1603
 7351SOL    HW329171   5.946   1.037   3.889  2.4239 -1.1778 -0.3197
 7351SOL    MW429172   5.961   1.095   3.827  0.2193 -0.5642 -0.3577
 7352SOL     OW29173   2.598   4.070   5.062  0.2862  0.5205  0.3887
 7352SOL    HW229174   2.638   3.998   5.014 -0.1150  1.2974 -1.1923
 7352SOL    HW329175   2.529   4.029   5.114  0.6463 -0.3396  0.2066
 7352SOL    MW429176   2.594   4.055   5.063  0.2807  0.5095  0.1561
 7353SOL     OW29177   5.561   0.827   3.867  0.4675 -0.4331  0.0257
 7353SOL    HW229178   5.524   0.867   3.787  0.8815  0.1338  0.1102
 7353SOL    HW329179   5.591   0.741   3.839 -0.0467 -0.5204 -0.2666
 7353SOL    MW429180   5.560   0.821   3.852  0.4543 -0.3699 -0.0017
 7354SOL     OW29181   5.778   4.817   4.871  0.1494 -0.6153  0.2900
 7354SOL    HW229182   5.779   4.742   4.811 -1.2296 -0.2050 -0.2945
 7354SOL    HW329183   5.810   4.890   4.818  0.7055 -0.6200  0.6163
 7354SOL    MW429184   5.783   4.817   4.856  0.0409 -0.5618  0.2560
 7355SOL     OW29185   2.587   4.197   3.345  0.2397  0.1859  0.4505
 7355SOL    HW229186   2.568   4.115   3.299  0.9131  0.5625 -0.5374
 7355SOL    HW329187   2.560   4.266   3.284  2.6306  0.7145 -0.1105
 7355SOL    MW429188   2.581   4.195   3.331  0.6440  0.3053  0.2462
 7356SOL     OW29189   1.491   6.049   5.067  0.5327  0.1881 -0.1906
 7356SOL    HW229190   1.454   5.973   5.020  0.1152  0.0498  0.3527
 7356SOL    HW329191   1.416   6.107   5.081  0.3048 -0.5030  1.7212
 7356SOL    MW429192   1.476   6.046   5.063  0.4475  0.0787  0.1333
 7357SOL     OW29193   0.404   5.325   4.057 -0.2417  0.6068 -0.3638
 7357SOL    HW229194   0.446   5.240   4.068 -0.5211  0.6169  0.9007
 7357SOL    HW329195   0.459   5.386   4.105 -1.0292  0.8175  0.3026
 7357SOL    MW429196   0.417   5.322   4.065 -0.3824  0.6359 -0.1090
 7358SOL     OW29197   5.794   6.009   4.110 -0.3715  0.9467  0.1037
 7358SOL    HW229198   5.702   6.033   4.113 -0.7339  0.0403 -2.0503
 7358SOL    HW329199   5.806   5.969   4.024  2.0053  0.8898  0.3914
 7358SOL    MW429200   5.784   6.007   4.099 -0.1057  0.8196 -0.1425
 7359SOL     OW29201   5.150   2.390   5.889 -0.2529  0.0526 -0.0882
 7359SOL    HW229202   5.119   2.470   5.846 -1.2249  1.0926  2.3741
 7359SOL    HW329203   5.076   2.361   5.942 -0.5895 -3.6025 -2.2592
 7359SOL    MW429204   5.136   2.397   5.890 -0.4255 -0.2924 -0.0497
 7360SOL     OW29205   1.405   0.154   3.353 -0.0919 -0.1109  0.0011
 7360SOL    HW229206   1.489   0.191   3.382 -1.2114  0.6727  2.5366
 7360SOL    HW329207   1.429   0.074   3.307  2.0245 -0.3957  1.4676
 7360SOL    MW429208   1.419   0.149   3.351  0.0396 -0.0451  0.5291
 7361SOL     OW29209   3.114   5.569   2.106  0.6006  0.2005  0.4271
 7361SOL    HW229210   3.188   5.599   2.159  1.8006 -0.3615 -0.8669
 7361SOL    HW329211   3.088   5.486   2.144  1.0357  0.1118  0.5258
 7361SOL    MW429212   3.120   5.562   2.118  0.8164  0.1147  0.2694
 7362SOL     OW29213   6.300   1.819   5.147  0.1284 -0.2842  0.2697
 7362SOL    HW229214   6.388   1.821   5.184  0.0351 -0.1776  0.4881
 7362SOL    HW329215   6.255   1.751   5.196 -0.2815  0.4976  1.0092
 7362SOL    MW429216   6.306   1.811   5.158  0.0620 -0.1670  0.3961
 7363SOL     OW29217   4.171   0.327   3.018 -0.2127  0.1112 -0.2955
 7363SOL    HW229218   4.233   0.358   3.084 -0.9428  1.7402 -0.3355
 7363SOL    HW329219   4.086   0.330   3.061 -0.5566  0.1472 -0.9670
 7363SOL    MW429220   4.168   0.331   3.032 -0.3544  0.3309 -0.3894
 7364SOL     OW29221   0.062   1.548   6.248 -0.1756 -0.0389 -0.7576
 7364SOL    HW229222   0.106   1.480   6.300 -3.4779 -1.5136  0.3533
 7364SOL    HW329223   0.133   1.587   6.196  2.5968 -1.4413  1.6307
 7364SOL    MW429224   0.077   1.544   6.248 -0.2455 -0.4185 -0.2960
 7365SOL     OW29225   1.704   3.216   3.735  0.2842  0.2381  0.5132
 7365SOL    HW229226   1.620   3.181   3.761  0.4754 -0.3059  0.3999
 7365SOL    HW329227   1.684   3.273   3.660  0.1699 -0.9006 -0.3561
 7365SOL    MW429228   1.691   3.219   3.728  0.2943  0.0161  0.3836
 7366SOL     OW29229   2.572   3.591   1.358  0.1445  0.0998  0.4097
 7366SOL    HW229230   2.508   3.523   1.337  1.1555 -0.9967  0.7460
 7366SOL    HW329231   2.522   3.659   1.402 -1.1722  0.3084 -1.3319
 7366SOL    MW429232   2.557   3.591   1.361  0.1042 -0.0174  0.2243
 7367SOL     OW29233   3.221   0.167   3.834 -0.5200 -0.7751  0.9186
 7367SOL    HW229234   3.248   0.233   3.770  1.4754 -0.5947  1.8826
 7367SOL    HW329235   3.255   0.084   3.799  0.0084 -0.7680  1.3979
 7367SOL    MW429236   3.229   0.165   3.821 -0.1870 -0.7504  1.1090
 7368SOL     OW29237   2.549   2.135   3.832  0.1995  0.3014  0.0538
 7368SOL    HW229238   2.521   2.121   3.741  0.9611  0.5182 -0.2234
 7368SOL    HW329239   2.569   2.047   3.864 -1.0875  0.0971  0.3733
 7368SOL    MW429240   2.548   2.121   3.824  0.1302  0.3031  0.0594
 7369SOL     OW29241   3.119   2.738   5.250 -0.1175  0.0623  0.9555
 7369SOL    HW229242   3.139   2.787   5.169  1.5801 -0.7853  0.8082
 7369SOL    HW329243   3.070   2.800   5.304  0.2195  1.2443 -0.0353
 7369SOL    MW429244   3.115   2.753   5.246  0.1510  0.1064  0.8054
 7370SOL     OW29245   0.749   6.248   0.350 -0.5931  0.0487  0.5135
 7370SOL    HW229246   0.693   6.277   0.422 -1.6458 -1.3452  0.3037
 7370SOL    HW329247   0.719   6.298   0.274 -0.6701  0.2453  0.6723
 7370SOL    MW429248   0.737   6.258   0.349 -0.7421 -0.1093  0.5068
 7371SOL     OW29249   5.647   4.020   3.563  0.5211 -0.0130  0.2649
 7371SOL    HW229250   5.673   3.934   3.596 -0.6712 -0.0715  1.1504
 7371SOL    HW329251   5.554   4.028   3.588  0.7251  1.7159  0.6333
 7371SOL    MW429252   5.638   4.010   3.571  0.3907  0.2074  0.4303
 7372SOL     OW29253   2.653   3.520   5.129  0.3508 -0.2885  0.3712
 7372SOL    HW229254   2.727   3.559   5.083  1.1070  1.0489  2.5934
 7372SOL    HW329255   2.683   3.433   5.153  0.7913 -0.1595  0.3057
 7372SOL    MW429256   2.667   3.514   5.126  0.5087 -0.0950  0.6557
 7373SOL     OW29257   6.325   0.161   4.034  0.2116 -0.1734  0.2640
 7373SOL    HW229258   6.364   0.080   4.000  1.6151  0.0440  1.2295
 7373SOL    HW329259   6.360   0.168   4.123  1.8003  2.5234 -0.4681
 7373SOL    MW429260   6.335   0.151   4.042  0.6064  0.2111  0.2948
 7374SOL     OW29261   1.613   1.810   0.393  0.1097 -0.3130 -0.0740
 7374SOL    HW229262   1.594   1.751   0.466  2.5397 -1.4415 -0.2529
 7374SOL    HW329263   1.536   1.866   0.386 -1.0431 -1.5368  2.0134
 7374SOL    MW429264   1.601   1.810   0.401  0.2782 -0.6233  0.1778
 7375SOL     OW29265   2.833   5.544   1.021  0.3942 -0.5982  0.6574
 7375SOL    HW229266   2.812   5.558   1.113  1.9526  0.9638  0.8220
 7375SOL    HW329267   2.840   5.449   1.012 -3.0644 -1.0508  1.3264
 7375SOL    MW429268   2.831   5.533   1.032  0.1435 -0.4518  0.7674
 7376SOL     OW29269   5.025   1.483   2.129 -0.1422  0.0830  0.5392
 7376SOL    HW229270   5.081   1.407   2.140  0.2095 -0.1129 -1.9929
 7376SOL    HW329271   5.081   1.549   2.087 -0.8036  1.2608  1.4534
 7376SOL    MW429272   5.040   1.481   2.125 -0.1831  0.2125  0.3257
 7377SOL     OW29273   1.310   2.904   0.836  0.8341  0.8934 -1.1309
 7377SOL    HW229274   1.276   2.915   0.924  2.1873  1.5286 -0.6523
 7377SOL    HW329275   1.261   2.831   0.799  0.3157  0.5672  0.1716
 7377SOL    MW429276   1.299   2.896   0.843  0.9443  0.9342 -0.8959
 7378SOL     OW29277   1.996   1.806   1.608 -0.5929  0.0994  0.6169
 7378SOL    HW229278   1.983   1.802   1.514  0.5445 -0.7456  0.4731
 7378SOL    HW329279   1.912   1.836   1.643 -1.6405 -1.4233 -0.4921
 7378SOL    MW429280   1.983   1.810   1.600 -0.5811 -0.2130  0.4516
 7379SOL     OW29281   0.944   5.495   6.248 -0.4091 -0.2642  0.5011
 7379SOL    HW229282   1.004   5.431   6.209 -1.0302  0.4116 -1.7027
 7379SOL    HW329283   0.948   5.477   6.342  0.7967 -2.3371  0.1222
 7379SOL    MW429284   0.953   5.484   6.255 -0.3319 -0.4485  0.1604
 7380SOL     OW29285   3.719   3.352   1.840  0.3047  0.3730  0.4784
 7380SOL    HW229286   3.737   3.440   1.806  1.9831 -0.4250 -0.8441
 7380SOL    HW329287   3.639   3.324   1.794  1.0793  0.3336 -0.8970
 7380SOL    MW429288   3.711   3.360   1.829  0.6283  0.2625  0.1225
 7381SOL     OW29289   4.781   4.090   1.322  0.2591 -0.6347 -0.1514
 7381SOL    HW229290   4.713   4.156   1.308 -0.4260 -1.4056 -0.6088
 7381SOL    HW329291   4.794   4.088   1.417 -1.5561 -1.5903  0.1291
 7381SOL    MW429292   4.773   4.099   1.333 -0.0708 -0.8625 -0.1747
 7382SOL     OW29293   5.901   6.212   3.881  0.2753  0.4871  0.2436
 7382SOL    HW229294   5.810   6.196   3.856  0.7506  0.0919 -1.4164
 7382SOL    HW329295   5.898   6.239   3.973 -1.2917 -1.8271  0.9345
 7382SOL    MW429296   5.889   6.214   3.890  0.1313  0.1296  0.1157
 7383SOL     OW29297   3.835   1.192   0.416 -0.3227 -0.3784 -0.6010
 7383SOL    HW229298   3.918   1.172   0.372  0.2234  1.1580 -0.3545
 7383SOL    HW329299   3.854   1.178   0.509 -0.1932  0.3917 -0.5055
 7383SOL    MW429300   3.849   1.188   0.423 -0.2336 -0.0740 -0.5558
 7384SOL     OW29301   5.702   3.344   3.394 -0.6832 -0.5302  0.3926
 7384SOL    HW229302   5.769   3.297   3.444 -1.7128 -0.6434  1.7256
 7384SOL    HW329303   5.697   3.298   3.311  0.2991 -1.0411  0.6100
 7384SOL    MW429304   5.710   3.332   3.390 -0.6895 -0.6126  0.5972
 7385SOL     OW29305   6.130   6.339   5.736 -0.2313 -0.1059 -0.0863
 7385SOL    HW229306   6.064   6.296   5.682 -0.0685 -0.3267 -0.1144
 7385SOL    HW329307   6.147   6.277   5.807 -1.1126  0.5729  0.7420
 7385SOL    MW429308   6.124   6.325   5.739 -0.3261 -0.0455  0.0193
 7386SOL     OW29309   3.559   1.215   0.634 -0.0155  0.1420 -0.4160
 7386SOL    HW229310   3.645   1.183   0.663 -0.1664 -0.8193 -0.9784
 7386SOL    HW329311   3.504   1.137   0.634 -0.5306  0.4921 -1.3715
 7386SOL    MW429312   3.563   1.200   0.638 -0.1034  0.0614 -0.6163
 7387SOL     OW29313   0.542   3.307   4.600 -0.0142 -0.0805 -0.0286
 7387SOL    HW229314   0.478   3.267   4.659 -1.3703 -0.7794 -1.8619
 7387SOL    HW329315   0.621   3.254   4.612 -0.4042 -0.4895  0.8287
 7387SOL    MW429316   0.544   3.295   4.609 -0.2446 -0.2267 -0.1574
 7388SOL     OW29317   5.447   0.450   4.658  0.1717  0.5822  0.4304
 7388SOL    HW229318   5.364   0.498   4.658  0.4176  1.0754 -0.9106
 7388SOL    HW329319   5.458   0.421   4.567  1.0246 -0.2814  0.7814
 7388SOL    MW429320   5.438   0.452   4.646  0.3167  0.5333  0.2998
 7389SOL     OW29321   1.300   2.275   0.282  0.0811  0.1053  0.1952
 7389SOL    HW229322   1.344   2.192   0.298 -0.8696 -0.1767  1.6247
 7389SOL    HW329323   1.275   2.306   0.370  0.7778  2.1212 -0.2552
 7389SOL    MW429324   1.302   2.268   0.296  0.0476  0.3340  0.3244
 7390SOL     OW29325   2.066   4.099   2.652  0.5861 -0.1426  0.0384
 7390SOL    HW229326   1.976   4.086   2.624  0.5175 -0.5064  0.4175
 7390SOL    HW329327   2.089   4.018   2.697  1.1031 -0.0537 -0.0595
 7390SOL    MW429328   2.057   4.087   2.654  0.6453 -0.1789  0.0755
 7391SOL     OW29329   1.514   4.948   2.567  0.1952 -0.2922  0.2286
 7391SOL    HW229330   1.497   5.041   2.549 -0.6576 -0.4395  0.2662
 7391SOL    HW329331   1.453   4.926   2.637  1.3206 -0.5393  1.1798
 7391SOL    MW429332   1.504   4.957   2.574  0.2311 -0.3442  0.3590
 7392SOL     OW29333   1.404   4.413   6.129 -0.4605  0.0580  0.3313
 7392SOL    HW229334   1.409   4.388   6.222  1.7326  0.7809  0.4534
 7392SOL    HW329335   1.366   4.500   6.130 -1.2962 -0.2998  0.4664
 7392SOL    MW429336   1.400   4.421   6.142 -0.2814  0.1061  0.3652
 7393SOL     OW29337   3.976   5.344   5.718 -0.3293 -0.0669 -0.0263
 7393SOL    HW229338   4.059   5.339   5.671 -0.1505 -0.4756  0.3301
 7393SOL    HW329339   3.990   5.411   5.785 -0.1181 -0.4995  0.3647
 7393SOL    MW429340   3.988   5.352   5.720 -0.2779 -0.1779  0.0723
 7394SOL     OW29341   4.516   0.038   3.528  0.2732  0.3083  0.0062
 7394SOL    HW229342   4.601   0.065   3.493  0.7177  1.2206  1.6600
 7394SOL    HW329343   4.519  -0.058   3.527 -0.4518  0.1795 -3.9519
 7394SOL    MW429344   4.528   0.029   3.523  0.2362  0.4116 -0.2978
 7395SOL     OW29345   3.390   0.416   6.109 -0.5220  0.7207 -0.4743
 7395SOL    HW229346   3.298   0.441   6.109 -0.4806  0.9031  0.5493
 7395SOL    HW329347   3.403   0.371   6.192  0.4646  1.2661 -0.3155
 7395SOL    MW429348   3.380   0.414   6.120 -0.3864  0.8168 -0.3183
 7396SOL     OW29349   1.764   1.437   0.159  0.1040 -0.2968 -0.0583
 7396SOL    HW229350   1.757   1.416   0.066 -0.1401 -1.1042  0.1273
 7396SOL    HW329351   1.852   1.475   0.169  0.0635 -0.0409 -0.6419
 7396SOL    MW429352   1.775   1.439   0.148  0.0664 -0.3695 -0.1108
 7397SOL     OW29353   3.685   3.889   0.864 -0.2061 -0.4581  0.5754
 7397SOL    HW229354   3.673   3.794   0.864  1.1579 -0.6512  1.1080
 7397SOL    HW329355   3.603   3.923   0.830 -0.7591 -1.8240  0.4686
 7397SOL    MW429356   3.673   3.881   0.859 -0.0991 -0.6637  0.6315
 7398SOL     OW29357   3.340   5.823   4.774  0.2092  0.6399 -0.1647
 7398SOL    HW229358   3.402   5.775   4.828  0.2303  0.9236  0.0717
 7398SOL    HW329359   3.364   5.803   4.684 -0.0036 -0.0651 -0.0653
 7398SOL    MW429360   3.351   5.814   4.769  0.1839  0.5843 -0.1204
 7399SOL     OW29361   0.315   0.631   2.757  0.0289  0.1901  0.4428
 7399SOL    HW229362   0.327   0.636   2.662  1.0782 -2.1727  0.3848
 7399SOL    HW329363   0.267   0.711   2.779 -0.9603  0.4206 -2.1667
 7399SOL    MW429364   0.311   0.642   2.747  0.0368 -0.0912  0.0909
 7400SOL     OW29365   0.001   1.891   4.829 -0.6904 -0.0444 -0.4552
 7400SOL    HW229366   0.017   1.873   4.736  0.9050  1.6492 -0.5668
 7400SOL    HW329367  -0.094   1.900   4.836 -0.8606 -0.5189 -1.8560
 7400SOL    MW429368  -0.009   1.890   4.818 -0.5024  0.1164 -0.6547
 7401SOL     OW29369   4.573   5.023   2.617  0.3683 -0.2284  0.4368
 7401SOL    HW229370   4.656   4.976   2.624  0.9520  0.8544  0.9854
 7401SOL    HW329371   4.552   5.049   2.706 -1.0607 -1.2776  0.4442
 7401SOL    MW429372   4.582   5.020   2.629  0.2568 -0.2240  0.5102
 7402SOL     OW29373   4.082   3.599   4.547 -0.0017  0.3866 -0.8380
 7402SOL    HW229374   4.019   3.606   4.476 -0.5800 -0.4113 -0.4072
 7402SOL    HW329375   4.148   3.538   4.515 -0.8364 -0.8457 -0.2971
 7402SOL    MW429376   4.083   3.592   4.534 -0.1881  0.1187 -0.7098
 7403SOL     OW29377   0.218   0.272   2.065 -0.4484  0.3143 -0.4399
 7403SOL    HW229378   0.203   0.295   1.973 -0.1212 -0.9261 -0.8309
 7403SOL    HW329379   0.140   0.223   2.091 -0.2757  0.1343 -0.2539
 7403SOL    MW429380   0.206   0.268   2.056 -0.3825  0.1269 -0.4669
 7404SOL     OW29381   4.867   0.532   2.831 -0.2376  0.3741 -1.2255
 7404SOL    HW229382   4.824   0.491   2.756  0.3308  0.7710 -1.7676
 7404SOL    HW329383   4.876   0.461   2.895  0.9637 -0.4331 -2.2437
 7404SOL    MW429384   4.862   0.518   2.830 -0.0041  0.3200 -1.4313
 7405SOL     OW29385   3.164   3.907   1.628 -0.5445 -0.0172 -0.0873
 7405SOL    HW229386   3.110   3.846   1.678  1.2767 -0.5793  1.2957
 7405SOL    HW329387   3.195   3.856   1.553  1.0878 -0.9210  1.1363
 7405SOL    MW429388   3.161   3.892   1.625 -0.0888 -0.2106  0.2566
 7406SOL     OW29389   3.749   1.423   1.825  0.0004 -0.2042  0.5684
 7406SOL    HW229390   3.702   1.380   1.753 -1.2027  0.9841  0.6086
 7406SOL    HW329391   3.816   1.359   1.851 -1.2561 -1.7595  0.1567
 7406SOL    MW429392   3.752   1.409   1.819 -0.3241 -0.2527  0.5194
 7407SOL     OW29393   2.590   5.337   4.924 -0.1188  0.5521 -0.3152
 7407SOL    HW229394   2.651   5.343   4.851  1.5164 -1.0560  0.8232
 7407SOL    HW329395   2.592   5.424   4.965  2.1363  0.3215  0.1919
 7407SOL    MW429396   2.599   5.349   4.920  0.3945  0.3095 -0.0981
 7408SOL     OW29397   3.492   1.246   6.246 -0.4750 -0.3425  0.2076
 7408SOL    HW229398   3.426   1.285   6.304  0.8987 -0.2097  1.7665
 7408SOL    HW329399   3.444   1.219   6.169 -2.0167  1.6071  0.4172
 7408SOL    MW429400   3.477   1.248   6.244 -0.4972 -0.0678  0.4409
 7409SOL     OW29401   6.125   1.824   2.844  0.7444 -0.1929 -0.1934
 7409SOL    HW229402   6.132   1.779   2.929  3.0677 -0.3703 -0.4369
 7409SOL    HW329403   6.092   1.911   2.866 -0.8831 -0.9539  0.6088
 7409SOL    MW429404   6.121   1.829   2.858  0.8362 -0.3167 -0.1197
 7410SOL     OW29405   4.644   3.962   1.788  0.4078 -0.4524 -0.7205
 7410SOL    HW229406   4.685   3.906   1.721 -1.5083  0.7094 -3.0213
 7410SOL    HW329407   4.574   3.907   1.825  1.1051 -0.8995 -0.0240
 7410SOL    MW429408   4.640   3.947   1.784  0.2470 -0.3581 -0.9321
 7411SOL     OW29409   0.035   3.821   0.502  0.0138  0.1688 -0.0871
 7411SOL    HW229410   0.060   3.852   0.415  0.5015  0.0561  0.0077
 7411SOL    HW329411  -0.009   3.895   0.543 -1.3742 -0.1767 -0.8888
 7411SOL    MW429412   0.033   3.835   0.496 -0.1050  0.1083 -0.1804
 7412SOL     OW29413   1.005   2.183   5.905 -0.0997 -0.1939 -0.0457
 7412SOL    HW229414   1.066   2.137   5.963  0.4836  1.0713  0.3821
 7412SOL    HW329415   0.954   2.114   5.864  1.2269 -1.2619  0.0407
 7412SOL    MW429416   1.006   2.168   5.907  0.1523 -0.1679  0.0221
 7413SOL     OW29417   4.549   5.332   2.075 -0.4290  0.4774  0.2932
 7413SOL    HW229418   4.633   5.347   2.118 -0.7877 -0.1863  1.2707
 7413SOL    HW329419   4.532   5.411   2.024  0.9462  0.4753 -0.1914
 7413SOL    MW429420   4.557   5.344   2.074 -0.2949  0.3896  0.3582
 7414SOL     OW29421   0.731   2.351   3.588 -0.2700  0.5007 -0.1400
 7414SOL    HW229422   0.790   2.275   3.590  2.0282  2.1913  1.5948
 7414SOL    HW329423   0.680   2.343   3.668  0.4774  1.0980  0.4145
 7414SOL    MW429424   0.732   2.340   3.599  0.1318  0.8026  0.1620
 7415SOL     OW29425   5.390   3.920   0.740  0.0267 -0.2357 -0.5650
 7415SOL    HW229426   5.368   3.953   0.827 -1.2095 -0.0627 -0.9153
 7415SOL    HW329427   5.439   3.839   0.756 -0.5915 -0.4503  0.2945
 7415SOL    MW429428   5.393   3.914   0.753 -0.2180 -0.2411 -0.4978
 7416SOL     OW29429   1.985   2.612   0.906  0.1999 -0.3050  0.4916
 7416SOL    HW229430   1.967   2.559   0.829  1.5520  0.3205 -0.2909
 7416SOL    HW329431   1.900   2.620   0.950 -0.7824  0.0301 -1.3718
 7416SOL    MW429432   1.971   2.606   0.902  0.2487 -0.1783  0.1425
 7417SOL     OW29433   4.955   1.301   4.834  0.9231 -0.6491 -0.0026
 7417SOL    HW229434   4.871   1.344   4.853 -0.0940 -2.5580  0.0551
 7417SOL    HW329435   5.016   1.373   4.822 -0.3581  0.7978  1.5834
 7417SOL    MW429436   4.952   1.316   4.835  0.6199 -0.7101  0.2143
 7418SOL     OW29437   0.956   6.162   0.069  0.5830  0.0162 -0.4870
 7418SOL    HW229438   0.904   6.221   0.013  0.6960  1.9701  1.3275
 7418SOL    HW329439   0.893   6.099   0.103 -0.0918  0.6954 -0.4459
 7418SOL    MW429440   0.941   6.162   0.066  0.5088  0.3636 -0.2422
 7419SOL     OW29441   1.255   1.711   0.515 -0.6091 -0.1467 -0.0046
 7419SOL    HW229442   1.170   1.677   0.485 -1.5360 -0.0508  2.2869
 7419SOL    HW329443   1.319   1.655   0.471 -1.9230 -1.4802 -0.3441
 7419SOL    MW429444   1.252   1.699   0.505 -0.9047 -0.3100  0.2530
 7420SOL     OW29445   0.884   1.164   3.079 -0.4114 -0.3117  0.0736
 7420SOL    HW229446   0.893   1.143   2.987  0.5142 -0.6394  0.2298
 7420SOL    HW329447   0.885   1.260   3.082  2.0489 -0.2718 -0.0658
 7420SOL    MW429448   0.885   1.174   3.068  0.0353 -0.3497  0.0759
 7421SOL     OW29449   6.226   6.180   4.747 -0.1401 -0.6227 -0.1484
 7421SOL    HW229450   6.278   6.246   4.794 -0.9784  0.2941 -0.4701
 7421SOL    HW329451   6.142   6.179   4.792 -0.2750 -1.1782 -0.4091
 7421SOL    MW429452   6.222   6.189   4.759 -0.2685 -0.5750 -0.2252
 7422SOL     OW29453   0.170   1.074   5.360  0.4486 -0.1615  0.3114
 7422SOL    HW229454   0.137   1.145   5.415  1.1305  0.1562  0.3184
 7422SOL    HW329455   0.264   1.072   5.376  0.5156 -0.7206 -0.0927
 7422SOL    MW429456   0.178   1.083   5.369  0.5474 -0.1934  0.2590
 7423SOL     OW29457   3.708   0.030   4.260 -0.1993  0.1307  0.2766
 7423SOL    HW229458   3.711   0.110   4.313 -0.1773  0.5287 -0.3158
 7423SOL    HW329459   3.679   0.059   4.174  2.5048 -0.0379 -0.7851
 7423SOL    MW429460   3.705   0.044   4.256  0.1604  0.1610  0.0584
 7424SOL     OW29461   3.547   3.730   4.840 -0.1587  0.1366 -0.4881
 7424SOL    HW229462   3.453   3.712   4.845 -0.2550  0.9194  1.3833
 7424SOL    HW329463   3.587   3.661   4.893  0.2785  0.1383 -0.8100
 7424SOL    MW429464   3.540   3.718   4.848 -0.1137  0.2401 -0.2836
 7425SOL     OW29465   3.856   5.450   1.230  0.0847 -0.3672 -0.3195
 7425SOL    HW229466   3.938   5.413   1.197 -0.6819 -1.5884 -0.9536
 7425SOL    HW329467   3.818   5.495   1.154  0.0158 -0.0756 -0.1134
 7425SOL    MW429468   3.862   5.451   1.215 -0.0255 -0.4899 -0.3760
 7426SOL     OW29469   2.823   2.160   1.516  0.2715  0.2767 -0.0622
 7426SOL    HW229470   2.747   2.200   1.475  0.0764 -0.6025 -0.5973
 7426SOL    HW329471   2.842   2.215   1.592 -0.9682  0.4446  0.1428
 7426SOL    MW429472   2.815   2.172   1.521  0.0822  0.1828 -0.1058
 7427SOL     OW29473   3.288   4.591   1.073 -0.4916 -0.7705  0.2433
 7427SOL    HW229474   3.373   4.634   1.083 -0.3484 -1.2986  1.3946
 7427SOL    HW329475   3.230   4.638   1.134 -1.8061  1.4574 -2.4867
 7427SOL    MW429476   3.291   4.603   1.083 -0.6461 -0.5462  0.0350
 7428SOL     OW29477   1.275   5.267   3.029 -0.7118  0.0666  0.2625
 7428SOL    HW229478   1.237   5.316   2.956  0.0459  1.3669  0.7098
 7428SOL    HW329479   1.242   5.178   3.018 -0.1346  0.0681 -2.0342
 7428SOL    MW429480   1.266   5.262   3.018 -0.5357  0.2384  0.0185
 7429SOL     OW29481   6.310   1.139   0.234  0.5148  0.3099 -0.2202
 7429SOL    HW229482   6.356   1.222   0.244  1.3187 -0.0054 -1.1058
 7429SOL    HW329483   6.218   1.160   0.248  0.6858  1.3843 -0.6414
 7429SOL    MW429484   6.304   1.152   0.237  0.6434  0.4100 -0.3926
 7430SOL     OW29485   0.269   4.551   1.072  0.9762  0.2393  0.0093
 7430SOL    HW229486   0.293   4.465   1.105  0.3247  0.0846  0.0914
 7430SOL    HW329487   0.352   4.589   1.041  1.0680 -0.9922 -1.3992
 7430SOL    MW429488   0.283   4.545   1.072  0.9023  0.0564 -0.1657
 7431SOL     OW29489   4.363   2.985   5.801  0.4015  0.0334  0.0839
 7431SOL    HW229490   4.329   3.053   5.742 -0.6177 -0.5621 -0.0414
 7431SOL    HW329491   4.454   2.973   5.774 -0.1170 -0.4386 -1.5992
 7431SOL    MW429492   4.371   2.992   5.790  0.1986 -0.1075 -0.1547
 7432SOL     OW29493   4.296   4.808   5.235 -0.9961 -0.0218  0.0691
 7432SOL    HW229494   4.233   4.875   5.207 -0.5778  0.4637  0.2840
 7432SOL    HW329495   4.378   4.832   5.192 -1.3360 -1.6324 -1.6359
 7432SOL    MW429496   4.298   4.820   5.226 -0.9858 -0.1703 -0.1275
 7433SOL     OW29497   1.155   6.386   6.215 -0.0255 -0.0641  0.2470
 7433SOL    HW229498   1.064   6.356   6.223  0.0509 -0.7159 -1.1373
 7433SOL    HW329499   1.167   6.443   6.291 -1.1726 -1.0211  1.1925
 7433SOL    MW429500   1.144   6.390   6.226 -0.1667 -0.2764  0.1891
 7434SOL     OW29501   6.082   1.514   3.683  0.3166 -0.1071 -0.2407
 7434SOL    HW229502   6.063   1.439   3.627  1.4621  0.6267 -1.6669
 7434SOL    HW329503   6.162   1.490   3.730  0.4982  0.0738 -0.4520
 7434SOL    MW429504   6.090   1.501   3.682  0.4917  0.0136 -0.4568
 7435SOL     OW29505   4.079   4.539   4.497 -0.4731  0.3926 -0.4005
 7435SOL    HW229506   4.149   4.591   4.458  0.6580 -0.4283  0.4877
 7435SOL    HW329507   4.000   4.568   4.451  0.4337  1.3142 -1.4469
 7435SOL    MW429508   4.078   4.550   4.486 -0.2042  0.4059 -0.4213
 7436SOL     OW29509   1.572   3.942   4.052  0.0623 -0.1637  0.0966
 7436SOL    HW229510   1.620   3.989   4.121 -0.7002 -2.2170  2.1572
 7436SOL    HW329511   1.484   3.978   4.056  0.3581  0.7136 -0.8461
 7436SOL    MW429512   1.567   3.953   4.062  0.0007 -0.3189  0.2441
 7437SOL     OW29513   5.321   3.650   4.049 -0.4154 -0.4741 -0.4489
 7437SOL    HW229514   5.245   3.708   4.046  0.1460  0.2365 -1.7594
 7437SOL    HW329515   5.358   3.664   4.136  0.2763  1.9562 -1.0480
 7437SOL    MW429516   5.316   3.659   4.060 -0.2501 -0.0597 -0.7009
 7438SOL     OW29517   6.062   1.045   1.981 -0.3259 -0.2288 -0.1776
 7438SOL    HW229518   6.042   1.005   2.066  2.6404 -1.1062  0.2278
 7438SOL    HW329519   6.065   1.139   1.998 -0.5294 -0.3443  0.5207
 7438SOL    MW429520   6.060   1.052   1.995  0.0386 -0.3598 -0.0320
 7439SOL     OW29521   4.420   1.690   1.682 -0.1025  0.6571 -0.3007
 7439SOL    HW229522   4.498   1.635   1.692  0.9333  2.2549  0.8530
 7439SOL    HW329523   4.347   1.629   1.696  0.9680 -0.6263 -0.0591
 7439SOL    MW429524   4.420   1.675   1.685  0.1754  0.6986 -0.1166
 7440SOL     OW29525   2.596   3.965   0.812  0.2922  0.4475 -0.8518
 7440SOL    HW229526   2.571   3.901   0.879  0.0042  1.3414 -0.0767
 7440SOL    HW329527   2.692   3.963   0.811  0.2919  0.2604 -0.5746
 7440SOL    MW429528   2.605   3.956   0.821  0.2542  0.5407 -0.7130
 7441SOL     OW29529   1.525   5.966   5.840 -0.5645 -0.0445  0.7076
 7441SOL    HW229530   1.525   6.046   5.786  1.8884  0.3933  1.2633
 7441SOL    HW329531   1.567   5.900   5.785  0.1617 -0.1280  1.3586
 7441SOL    MW429532   1.530   5.968   5.826 -0.1451  0.0022  0.8668
 7442SOL     OW29533   1.695   0.998   6.273 -0.5046 -0.0303  0.5149
 7442SOL    HW229534   1.609   0.961   6.293 -0.6824 -0.5159 -0.9791
 7442SOL    HW329535   1.684   1.092   6.287 -1.6211  0.0498 -0.6487
 7442SOL    MW429536   1.682   1.005   6.277 -0.6754 -0.0838  0.1642
 7443SOL     OW29537   5.585   0.814   5.432  0.0046 -0.5379  0.7222
 7443SOL    HW229538   5.673   0.784   5.458  0.1803 -1.5468 -0.8798
 7443SOL    HW329539   5.525   0.764   5.487  0.3900 -1.8629 -0.0155
 7443SOL    MW429540   5.589   0.803   5.443  0.0786 -0.8459  0.4135
 7444SOL     OW29541   3.814   2.712   5.814  0.0559 -0.0428  0.1895
 7444SOL    HW229542   3.760   2.714   5.894  0.0575 -0.5502  0.2025
 7444SOL    HW329543   3.840   2.621   5.805  0.0040  0.0013 -0.4280
 7444SOL    MW429544   3.810   2.700   5.824  0.0493 -0.1039  0.1098
 7445SOL     OW29545   5.917   2.216   4.602 -0.3044 -0.3529 -0.2798
 7445SOL    HW229546   5.925   2.292   4.660 -0.1843  0.3973 -1.2588
 7445SOL    HW329547   5.843   2.238   4.545  1.0887  0.0058 -1.9988
 7445SOL    MW429548   5.908   2.229   4.602 -0.1047 -0.2066 -0.6358
 7446SOL     OW29549   0.516   2.766   1.295 -0.1932  0.0370 -0.0573
 7446SOL    HW229550   0.460   2.832   1.254  1.2383  1.8305  0.7118
 7446SOL    HW329551   0.489   2.766   1.387 -0.1176 -0.3765 -0.0346
 7446SOL    MW429552   0.505   2.775   1.302  0.0057  0.2191  0.0471
 7447SOL     OW29553   3.865   0.845   4.869 -0.4298  0.2289  0.2118
 7447SOL    HW229554   3.855   0.910   4.799 -0.0103  0.4788  0.3806
 7447SOL    HW329555   3.898   0.767   4.824 -2.3791 -0.3938 -0.2480
 7447SOL    MW429556   3.868   0.843   4.854 -0.6316  0.1797  0.1734
 7448SOL     OW29557   2.524   3.080   2.652  0.2661 -0.0326  0.0573
 7448SOL    HW229558   2.516   2.986   2.636  0.9409  0.1133 -1.1821
 7448SOL    HW329559   2.610   3.104   2.619 -0.7004  1.4048 -1.6293
 7448SOL    MW429560   2.534   3.071   2.646  0.2276  0.1763 -0.3287
 7449SOL     OW29561   3.119   1.371   2.688  0.6695  0.0397  0.0865
 7449SOL    HW229562   3.125   1.304   2.755  1.1482 -1.3730 -1.3118
 7449SOL    HW329563   3.075   1.328   2.614  2.5500  0.6842 -1.4979
 7449SOL    MW429564   3.114   1.357   2.687  0.9807 -0.0616 -0.3070
 7450SOL     OW29565   1.143   3.857   0.934  0.1050  0.0051 -0.1051
 7450SOL    HW229566   1.186   3.932   0.894 -0.7713  0.2246 -0.6588
 7450SOL    HW329567   1.190   3.781   0.901  0.3285  0.2627 -0.3803
 7450SOL    MW429568   1.155   3.856   0.925  0.0188  0.0680 -0.2145
 7451SOL     OW29569   2.214   5.745   5.728 -0.1444  0.2618  0.0002
 7451SOL    HW229570   2.151   5.778   5.793  0.3110 -1.1246  1.2189
 7451SOL    HW329571   2.166   5.744   5.646 -0.8417  1.7973  0.3490
 7451SOL    MW429572   2.199   5.749   5.726 -0.1763  0.2815  0.2070
 7452SOL     OW29573   1.071   3.421   3.264  0.2093 -0.4695  0.3556
 7452SOL    HW229574   1.077   3.512   3.295  1.5734 -0.3809 -0.1239
 7452SOL    HW329575   1.060   3.369   3.344  2.5531 -0.1442  0.9568
 7452SOL    MW429576   1.070   3.426   3.279  0.6985 -0.4149  0.3716
 7453SOL     OW29577   2.643   2.313   1.070  0.4930 -0.3452 -0.2124
 7453SOL    HW229578   2.695   2.276   1.000 -1.4647 -0.1768 -1.8620
 7453SOL    HW329579   2.562   2.262   1.069 -0.1065  0.5241  1.0548
 7453SOL    MW429580   2.639   2.301   1.061  0.1556 -0.2083 -0.2628
 7454SOL     OW29581   5.481   2.760   2.617 -0.4455 -0.6236  0.0450
 7454SOL    HW229582   5.481   2.717   2.703 -2.1230 -1.4482 -0.3244
 7454SOL    HW329583   5.400   2.810   2.615 -2.1216 -3.1802 -2.2092
 7454SOL    MW429584   5.471   2.761   2.628 -0.8880 -1.0697 -0.3012
 7455SOL     OW29585   0.144   1.542   1.771  0.1350 -0.5617  0.1492
 7455SOL    HW229586   0.113   1.550   1.681  1.1250 -0.7339 -0.2189
 7455SOL    HW329587   0.136   1.631   1.806  4.0220  0.6688 -1.5743
 7455SOL    MW429588   0.139   1.555   1.764  0.7785 -0.4221 -0.1267
 7456SOL     OW29589   1.036   3.043   1.583 -0.6369 -0.1047  0.3121
 7456SOL    HW229590   1.027   2.948   1.593  0.4226 -0.4321 -1.3523
 7456SOL    HW329591   1.061   3.055   1.491 -1.3013  1.8374  0.3236
 7456SOL    MW429592   1.038   3.032   1.572 -0.5848  0.1083  0.0941
 7457SOL     OW29593   2.105   3.408   6.184 -0.6472 -0.3959  0.2218
 7457SOL    HW229594   2.171   3.477   6.178  0.6223 -1.5678  0.1155
 7457SOL    HW329595   2.140   3.348   6.251 -0.4742 -2.1936 -1.3989
 7457SOL    MW429596   2.118   3.409   6.192 -0.4569 -0.7877 -0.0060
 7458SOL     OW29597   5.746   2.310   6.263  0.1683 -0.8591  0.1489
 7458SOL    HW229598   5.771   2.381   6.204 -2.2683  1.2643  1.5014
 7458SOL    HW329599   5.694   2.251   6.208  0.3539 -0.4588 -0.4757
 7458SOL    MW429600   5.743   2.311   6.248 -0.1287 -0.5261  0.2450
 7459SOL     OW29601   3.226   3.283   1.187 -0.5812 -0.0190  0.4601
 7459SOL    HW229602   3.173   3.204   1.198 -0.0482 -0.2807  1.2074
 7459SOL    HW329603   3.314   3.250   1.168 -0.2124  0.3809  1.4495
 7459SOL    MW429604   3.231   3.268   1.186 -0.4622 -0.0007  0.6892
 7460SOL     OW29605   3.581   3.521   1.356 -0.2257 -0.1631  0.0075
 7460SOL    HW229606   3.611   3.493   1.269 -0.0100 -0.4851  0.1827
 7460SOL    HW329607   3.623   3.606   1.370 -1.7264  0.7923 -0.9829
 7460SOL    MW429608   3.591   3.528   1.346 -0.3953 -0.0795 -0.1001
 7461SOL     OW29609   0.345   2.037   2.497  0.5566  0.0770  0.7554
 7461SOL    HW229610   0.319   2.123   2.465  1.3357  0.1425  0.2845
 7461SOL    HW329611   0.340   2.044   2.592 -0.1934  0.3757  0.7027
 7461SOL    MW429612   0.341   2.049   2.505  0.5604  0.1251  0.6863
 7462SOL     OW29613   3.729   3.285   1.452  0.7273  0.3001 -0.0465
 7462SOL    HW229614   3.656   3.227   1.473 -0.1634  0.2297 -2.8864
 7462SOL    HW329615   3.689   3.371   1.438  1.5213  0.7924  0.6061
 7462SOL    MW429616   3.714   3.289   1.453  0.7146  0.3558 -0.3351
 7463SOL     OW29617   3.471   5.548   0.019 -0.1064  0.5254  0.1699
 7463SOL    HW229618   3.503   5.624   0.067  2.3920 -0.3267  0.0029
 7463SOL    HW329619   3.536   5.534  -0.050 -2.4252  0.4110 -2.1929
 7463SOL    MW429620   3.484   5.556   0.016 -0.0827  0.3979 -0.1639
 7464SOL     OW29621   4.067   2.733   3.733  0.3241 -0.2558 -0.4401
 7464SOL    HW229622   4.063   2.760   3.825  0.9103  0.7464 -0.6925
 7464SOL    HW329623   3.976   2.718   3.709  0.1318 -0.1752  0.2039
 7464SOL    MW429624   4.055   2.734   3.742  0.3760 -0.1130 -0.3884
 7465SOL     OW29625   3.130   5.472   5.033  0.3752  0.6694  0.3113
 7465SOL    HW229626   3.153   5.562   5.011 -0.1399  0.8432  0.4700
 7465SOL    HW329627   3.045   5.458   4.991  1.8280 -0.7829 -2.3918
 7465SOL    MW429628   3.122   5.482   5.025  0.4989  0.5007 -0.0244
 7466SOL     OW29629   0.657   6.189   3.663  0.3414  0.0553  0.4675
 7466SOL    HW229630   0.706   6.269   3.644  3.1624 -2.0210 -2.0284
 7466SOL    HW329631   0.612   6.168   3.581 -0.8259 -0.6494  1.2534
 7466SOL    MW429632   0.657   6.196   3.650  0.5596 -0.3116  0.2419
 7467SOL     OW29633   1.093   5.036   1.920  0.5630  0.2808  0.2206
 7467SOL    HW229634   1.065   5.099   1.987  2.0128  1.2176  0.0050
 7467SOL    HW329635   1.029   4.966   1.925 -0.5535  1.3077  1.1625
 7467SOL    MW429636   1.081   5.035   1.929  0.6070  0.5399  0.3164
 7468SOL     OW29637   5.859   3.448   2.827 -0.1587 -0.2536  0.1129
 7468SOL    HW229638   5.869   3.441   2.922  1.7260 -0.2929 -0.0487
 7468SOL    HW329639   5.938   3.408   2.792  0.3172  1.8159 -1.3938
 7468SOL    MW429640   5.871   3.442   2.835  0.1528  0.0143 -0.1072
 7469SOL     OW29641   4.836   1.586   4.201  0.0467  0.0639 -0.1460
 7469SOL    HW229642   4.869   1.502   4.233  0.0318 -1.2180 -3.1754
 7469SOL    HW329643   4.750   1.595   4.242  0.4627 -0.8936  1.0006
 7469SOL    MW429644   4.829   1.576   4.211  0.0996 -0.2316 -0.3945
 7470SOL     OW29645   5.879   2.257   3.832 -0.1890  1.1698 -0.1248
 7470SOL    HW229646   5.841   2.249   3.745 -0.4836  2.0995 -0.0886
 7470SOL    HW329647   5.894   2.351   3.844  2.3869  0.8458 -0.2384
 7470SOL    MW429648   5.876   2.268   3.822  0.1120  1.2497 -0.1350
 7471SOL     OW29649   4.381   0.920   5.136 -0.0079 -0.4543 -0.0601
 7471SOL    HW229650   4.455   0.863   5.113  0.9043  0.7699 -0.2682
 7471SOL    HW329651   4.326   0.921   5.058 -0.2530 -1.3523  0.0870
 7471SOL    MW429652   4.384   0.913   5.123  0.0801 -0.4112 -0.0681
 7472SOL     OW29653   0.898   0.814   2.036  0.2235 -0.2484  0.5119
 7472SOL    HW229654   0.927   0.906   2.031 -1.2385  0.2033 -0.3225
 7472SOL    HW329655   0.977   0.765   2.056  1.2477  1.0888 -0.1072
 7472SOL    MW429656   0.912   0.820   2.038  0.1657 -0.0124  0.3201
 7473SOL     OW29657   3.905   6.039   3.237  0.2355 -0.0171 -0.4028
 7473SOL    HW229658   3.901   5.984   3.315 -0.6866 -1.0016 -1.1184
 7473SOL    HW329659   3.922   5.978   3.165 -0.3836  0.6767 -1.1574
 7473SOL    MW429660   3.907   6.024   3.238  0.0321 -0.0555 -0.5967
 7474SOL     OW29661   2.906   2.668   3.480  0.4169  0.3638 -0.2280
 7474SOL    HW229662   2.968   2.738   3.500  0.7379 -0.1629  0.7152
 7474SOL    HW329663   2.942   2.626   3.402  0.5132  0.9045 -0.4795
 7474SOL    MW429664   2.919   2.671   3.472  0.4720  0.3656 -0.1368
 7475SOL     OW29665   5.729   1.330   1.535  0.2839  0.1843 -0.1795
 7475SOL    HW229666   5.690   1.300   1.453 -0.2758 -0.6138  0.3665
 7475SOL    HW329667   5.796   1.265   1.555  0.5339  0.4684 -0.0834
 7475SOL    MW429668   5.732   1.317   1.526  0.2431  0.1165 -0.0948
 7476SOL     OW29669   4.322   1.519   5.844  0.1701  0.2674 -0.2668
 7476SOL    HW229670   4.388   1.496   5.779 -1.2421  1.8483 -2.4189
 7476SOL    HW329671   4.241   1.478   5.812 -0.6700  1.5144  0.1847
 7476SOL    MW429672   4.320   1.511   5.831 -0.1271  0.6405 -0.4912
 7477SOL     OW29673   2.089   5.616   3.859  0.2532  0.2296  0.0639
 7477SOL    HW229674   2.097   5.559   3.936 -1.3126 -1.2266 -0.7937
 7477SOL    HW329675   2.126   5.700   3.888 -0.2295 -0.2883  2.3817
 7477SOL    MW429676   2.095   5.619   3.873 -0.0171 -0.0308  0.2566
 7478SOL     OW29677   5.567   2.520   4.641  0.0149  0.3514 -0.0474
 7478SOL    HW229678   5.535   2.434   4.668 -0.5152  1.0457  1.6804
 7478SOL    HW329679   5.495   2.557   4.589 -0.3330  0.2832  0.3769
 7478SOL    MW429680   5.553   2.514   4.638 -0.1010  0.4340  0.2365
 7479SOL     OW29681   3.103   2.609   4.092  0.5090  0.7761  0.2427
 7479SOL    HW229682   3.188   2.643   4.119  0.5058  1.4580 -0.5803
 7479SOL    HW329683   3.053   2.687   4.067 -0.3109  0.3691  0.5875
 7479SOL    MW429684   3.108   2.624   4.092  0.4004  0.8124  0.1796
 7480SOL     OW29685   5.139   4.071   1.751  0.3242  0.3536 -0.3044
 7480SOL    HW229686   5.211   4.101   1.695  0.4164 -0.2826 -0.5368
 7480SOL    HW329687   5.134   4.136   1.821 -0.0906  1.4297 -1.2847
 7480SOL    MW429688   5.148   4.084   1.753  0.2817  0.4117 -0.4644
 7481SOL     OW29689   2.823   0.874   4.692  0.3225  0.2396  0.2563
 7481SOL    HW229690   2.831   0.780   4.707 -0.0849  0.2504  0.5462
 7481SOL    HW329691   2.820   0.883   4.596 -0.5274 -0.1172  0.2425
 7481SOL    MW429692   2.824   0.862   4.681  0.1566  0.1940  0.2927
 7482SOL     OW29693   0.556   5.557   0.927  0.0368  0.1063 -0.4480
 7482SOL    HW229694   0.594   5.561   0.840  2.2777 -2.4839  0.2803
 7482SOL    HW329695   0.631   5.559   0.987 -0.8650 -3.9377  1.1335
 7482SOL    MW429696   0.571   5.558   0.924  0.2135 -0.7690 -0.1432
 7483SOL     OW29697   2.993   2.187   3.752  0.1890  0.4211 -0.5317
 7483SOL    HW229698   2.937   2.251   3.797  0.6556  1.9817 -2.0384
 7483SOL    HW329699   2.984   2.209   3.659  1.2992 -0.9632 -0.9961
 7483SOL    MW429700   2.984   2.199   3.746  0.3970  0.4444 -0.7918
 7484SOL     OW29701   1.287   1.859   1.898 -0.4121 -0.2951 -0.2263
 7484SOL    HW229702   1.302   1.923   1.968 -0.6921 -2.0667  1.5434
 7484SOL    HW329703   1.217   1.897   1.846  0.2189  1.3628  0.0685
 7484SOL    MW429704   1.280   1.872   1.901 -0.3658 -0.3101  0.0461
 7485SOL     OW29705   5.419   2.456   5.814 -0.1289 -0.0397  0.0982
 7485SOL    HW229706   5.483   2.390   5.839  0.2129  1.0703  2.3880
 7485SOL    HW329707   5.335   2.420   5.845 -0.7963 -1.5645 -3.0299
 7485SOL    MW429708   5.416   2.442   5.822 -0.1718 -0.0944 -0.0124
 7486SOL     OW29709   1.987   0.822   5.832  0.2008 -0.8601 -0.1343
 7486SOL    HW229710   2.051   0.786   5.895 -0.6248  0.2344  1.4003
 7486SOL    HW329711   1.944   0.892   5.880 -1.1389 -0.6067 -1.6467
 7486SOL    MW429712   1.990   0.826   5.847 -0.0849 -0.6823 -0.1313
 7487SOL     OW29713   2.603   1.047   4.720 -0.3857  0.2763  0.0064
 7487SOL    HW229714   2.679   0.991   4.703 -0.9904 -0.3664 -0.6743
 7487SOL    HW329715   2.565   1.011   4.800  0.7618  1.4373  1.1266
 7487SOL    MW429716   2.608   1.035   4.728 -0.3141  0.3447  0.0644
 7488SOL     OW29717   1.887   3.185   3.484  0.0498 -0.5000  0.5833
 7488SOL    HW229718   1.852   3.211   3.398  1.7972 -0.3158 -0.1191
 7488SOL    HW329719   1.982   3.184   3.471  0.3084 -1.1385  2.3482
 7488SOL    MW429720   1.895   3.189   3.471  0.3145 -0.5599  0.7235
 7489SOL     OW29721   2.776   2.132   5.337  0.2915 -0.2035  0.1542
 7489SOL    HW229722   2.700   2.138   5.396 -0.3218  0.4035 -0.6776
 7489SOL    HW329723   2.850   2.115   5.396 -0.6705 -2.3739  0.8537
 7489SOL    MW429724   2.776   2.130   5.353  0.0836 -0.4098  0.1367
 7490SOL     OW29725   0.315   0.876   6.408 -0.1923 -0.2897  0.7173
 7490SOL    HW229726   0.389   0.853   6.464  0.0917 -0.1753  0.3913
 7490SOL    HW329727   0.275   0.791   6.387  0.3892 -0.4339  0.1554
 7490SOL    MW429728   0.320   0.862   6.412 -0.0781 -0.2936  0.6001
 7491SOL     OW29729   0.023   0.927   2.264  0.0472  0.2734  0.2217
 7491SOL    HW229730   0.028   0.843   2.219  1.8733  0.4051  0.0877
 7491SOL    HW329731   0.071   0.987   2.206 -1.4828  1.4873  0.1683
 7491SOL    MW429732   0.030   0.924   2.250  0.0863  0.4509  0.1970
 7492SOL     OW29733   3.250   5.629   2.696 -0.3655  0.2494 -0.2176
 7492SOL    HW229734   3.209   5.711   2.725 -1.2693  0.3218 -1.6242
 7492SOL    HW329735   3.288   5.592   2.776 -2.4412  0.6060  1.0174
 7492SOL    MW429736   3.250   5.635   2.711 -0.7586  0.3060 -0.2403
 7493SOL     OW29737   5.006   1.842   4.148 -0.0765 -0.4041  0.3912
 7493SOL    HW229738   5.051   1.784   4.210  0.6285 -1.5532 -1.1544
 7493SOL    HW329739   4.915   1.844   4.179  0.3434 -0.6026  1.7032
 7493SOL    MW429740   5.000   1.835   4.161  0.0719 -0.5819  0.3604
 7494SOL     OW29741   2.787   4.501   1.487 -0.3349  0.0146 -0.4977
 7494SOL    HW229742   2.735   4.430   1.449 -0.3592 -0.7697  0.9468
 7494SOL    HW329743   2.745   4.581   1.455 -0.3023 -0.5935 -2.1555
 7494SOL    MW429744   2.775   4.502   1.478 -0.3338 -0.1691 -0.5259
 7495SOL     OW29745   4.434   4.145   0.640  0.0493  0.0489 -0.6257
 7495SOL    HW229746   4.491   4.101   0.702  0.2601  0.6081 -0.4181
 7495SOL    HW329747   4.396   4.074   0.588  0.5066 -0.3638 -0.4059
 7495SOL    MW429748   4.436   4.130   0.641  0.1374  0.0682 -0.5693
 7496SOL     OW29749   5.319   5.454   4.869  0.1424  0.0941 -0.1393
 7496SOL    HW229750   5.297   5.545   4.847  0.9123  0.1771 -0.6092
 7496SOL    HW329751   5.263   5.434   4.944 -0.6497  0.6729 -0.5501
 7496SOL    MW429752   5.309   5.463   4.876  0.1395  0.1814 -0.2555
 7497SOL     OW29753   1.742   0.212   1.123 -0.4049  0.2573  0.5731
 7497SOL    HW229754   1.745   0.192   1.216 -1.4793  0.4106  0.6537
 7497SOL    HW329755   1.717   0.304   1.118  2.2959  1.0526  0.1573
 7497SOL    MW429756   1.739   0.221   1.134 -0.1903  0.3825  0.5289
 7498SOL     OW29757   1.531   1.496   3.310  0.1173  0.2508 -0.6805
 7498SOL    HW229758   1.546   1.412   3.354 -2.0029  0.7394  1.1391
 7498SOL    HW329759   1.505   1.472   3.221 -2.0766 -1.1772  0.2655
 7498SOL    MW429760   1.530   1.482   3.304 -0.4519  0.1269 -0.3156
 7499SOL     OW29761   3.769   0.034   6.281 -0.0686 -0.2972 -0.0384
 7499SOL    HW229762   3.848   0.057   6.231  0.3769 -0.7559  0.4502
 7499SOL    HW329763   3.750  -0.056   6.255 -1.9675  0.6112 -2.1518
 7499SOL    MW429764   3.777   0.025   6.271 -0.2604 -0.2379 -0.2527
 7500SOL     OW29765   0.985   5.661   0.816  0.5134  0.5833  1.0035
 7500SOL    HW229766   1.044   5.732   0.790  0.1812  0.6637  0.4455
 7500SOL    HW329767   1.015   5.635   0.903  2.9221 -1.0009 -0.1794
 7500SOL    MW429768   0.997   5.667   0.824  0.7874  0.3849  0.7738
 7501SOL     OW29769   4.446   4.224   2.488 -0.0342  0.1977 -0.1776
 7501SOL    HW229770   4.503   4.266   2.423 -1.1090  1.8966 -0.0880
 7501SOL    HW329771   4.381   4.291   2.510 -1.1048 -1.1360  0.9214
 7501SOL    MW429772   4.445   4.238   2.483 -0.3173  0.2458 -0.0208
 7502SOL     OW29773   4.186   3.157   1.463  0.0408 -0.9268 -0.5623
 7502SOL    HW229774   4.237   3.147   1.382  1.4755 -0.2817  0.2192
 7502SOL    HW329775   4.149   3.245   1.457  0.8977 -0.5214 -0.1406
 7502SOL    MW429776   4.188   3.167   1.451  0.3432 -0.7882 -0.4035
 7503SOL     OW29777   4.790   2.307   0.005  0.9681  0.3926 -0.0452
 7503SOL    HW229778   4.707   2.336   0.044  0.2447 -1.3826 -0.1488
 7503SOL    HW329779   4.839   2.271   0.079  0.7347 -0.4987 -0.3134
 7503SOL    MW429780   4.785   2.306   0.020  0.8419  0.0408 -0.0943
 7504SOL     OW29781   4.922   0.053   5.832 -0.3717  0.0233 -0.1177
 7504SOL    HW229782   5.001   0.083   5.878  1.6529 -1.5859 -2.2652
 7504SOL    HW329783   4.945  -0.035   5.800 -3.0899 -0.5392 -0.7822
 7504SOL    MW429784   4.936   0.045   5.834 -0.4632 -0.2633 -0.4887
 7505SOL     OW29785   0.605   3.153   1.088  0.0551 -0.2104  0.1307
 7505SOL    HW229786   0.689   3.113   1.110  0.8783  0.5837 -1.3842
 7505SOL    HW329787   0.540   3.091   1.121  1.1903 -0.4734  2.0448
 7505SOL    MW429788   0.608   3.139   1.095  0.3135 -0.1403  0.1834
 7506SOL     OW29789   2.086   1.698   4.776  0.1392 -0.2541 -0.5546
 7506SOL    HW229790   2.121   1.636   4.839  1.8121 -0.0816 -1.2571
 7506SOL    HW329791   2.135   1.681   4.696  2.3238  3.3887 -0.2034
 7506SOL    MW429792   2.097   1.688   4.774  0.6481  0.2493 -0.6010
 7507SOL     OW29793   0.385   1.853   1.753  0.5073  0.0465 -0.5620
 7507SOL    HW229794   0.452   1.921   1.747  0.0694  0.4563 -0.9401
 7507SOL    HW329795   0.433   1.771   1.740  1.1586  0.2156  0.6709
 7507SOL    MW429796   0.400   1.852   1.750  0.5355  0.1229 -0.4492
 7508SOL     OW29797   0.839   2.681   0.172  0.2264 -0.9605  0.0264
 7508SOL    HW229798   0.783   2.759   0.167 -0.5155 -1.3706  1.5533
 7508SOL    HW329799   0.921   2.709   0.130 -0.2698  0.4203 -0.0941
 7508SOL    MW429800   0.843   2.695   0.166  0.0631 -0.8324  0.2119
 7509SOL     OW29801   4.277   1.998   0.900 -0.4183 -0.1341 -0.6440
 7509SOL    HW229802   4.196   1.992   0.850 -0.5988  1.6350 -0.6330
 7509SOL    HW329803   4.251   1.986   0.991 -0.6044  0.0400 -0.6743
 7509SOL    MW429804   4.263   1.996   0.905 -0.4667  0.1223 -0.6466
 7510SOL     OW29805   2.536   2.835   6.257 -0.1845 -0.7569 -0.4086
 7510SOL    HW229806   2.543   2.876   6.343  0.3527 -1.2417 -0.2149
 7510SOL    HW329807   2.563   2.903   6.196 -2.1722  0.1582 -0.3608
 7510SOL    MW429808   2.540   2.849   6.261 -0.3759 -0.7001 -0.3767
 7511SOL     OW29809   1.056   5.387   1.317 -0.2148  0.1901  0.1342
 7511SOL    HW229810   1.030   5.354   1.403  0.8864 -0.5668  0.1961
 7511SOL    HW329811   1.132   5.444   1.335 -1.1622  1.5882 -0.1399
 7511SOL    MW429812   1.063   5.390   1.331 -0.1945  0.2747  0.1062
 7512SOL     OW29813   3.648   1.388   0.843 -0.5506  0.1617 -0.1306
 7512SOL    HW229814   3.740   1.369   0.824 -0.7687  0.4387 -1.5507
 7512SOL    HW329815   3.599   1.336   0.780 -1.3638  0.4329  0.2627
 7512SOL    MW429816   3.654   1.378   0.832 -0.6867  0.2340 -0.2661
 7513SOL     OW29817   6.059   4.143   2.695  0.4970  0.3163  0.8167
 7513SOL    HW229818   6.104   4.059   2.708  1.3742  0.0906 -2.6248
 7513SOL    HW329819   5.971   4.120   2.668  0.5072  0.5109  0.6090
 7513SOL    MW429820   6.054   4.129   2.693  0.6141  0.3122  0.3352
 7514SOL     OW29821   5.688   1.913   2.599 -0.3030  0.4185  0.4457
 7514SOL    HW229822   5.672   2.007   2.602  0.3332  0.5097  1.4494
 7514SOL    HW329823   5.616   1.878   2.546  0.8624  1.7509 -2.2183
 7514SOL    MW429824   5.677   1.921   2.592 -0.0653  0.6063  0.2266
 7515SOL     OW29825   6.390   5.353   1.411 -0.3825  0.1239 -0.1995
 7515SOL    HW229826   6.348   5.331   1.494 -2.5025 -0.7464 -1.4207
 7515SOL    HW329827   6.418   5.444   1.421 -0.5689  0.0125  1.4678
 7515SOL    MW429828   6.388   5.362   1.423 -0.6868 -0.0056 -0.1406
 7516SOL     OW29829   3.812   4.989   5.706 -0.0817 -0.3674 -0.6305
 7516SOL    HW229830   3.736   5.037   5.740 -0.1169 -1.3481  0.7484
 7516SOL    HW329831   3.887   5.029   5.751  0.0267 -0.6580 -0.5533
 7516SOL    MW429832   3.812   5.001   5.717 -0.0720 -0.5351 -0.4384
 7517SOL     OW29833   0.558   3.305   1.706  0.2338 -0.0905  0.1683
 7517SOL    HW229834   0.568   3.306   1.802  0.2950 -1.0894  0.1850
 7517SOL    HW329835   0.499   3.231   1.690 -0.6163  0.7117 -0.4961
 7517SOL    MW429836   0.551   3.295   1.717  0.1297 -0.1165  0.0829
 7518SOL     OW29837   1.548   5.724   4.716  0.2745 -0.1015  0.0940
 7518SOL    HW229838   1.586   5.636   4.713  0.4134 -0.0303 -0.5064
 7518SOL    HW329839   1.497   5.730   4.635 -0.2194  0.1603  0.4176
 7518SOL    MW429840   1.546   5.713   4.705  0.2277 -0.0575  0.0575
 7519SOL     OW29841   5.144   6.155   5.008  0.6336 -0.5015  0.3249
 7519SOL    HW229842   5.072   6.179   5.067 -0.6075 -0.4869 -1.1245
 7519SOL    HW329843   5.168   6.066   5.034  1.6061  0.2764  2.2319
 7519SOL    MW429844   5.138   6.147   5.019  0.5982 -0.3969  0.3853
 7520SOL     OW29845   4.373   4.681   1.181  0.7333  0.5773 -0.0035
 7520SOL    HW229846   4.290   4.658   1.138  1.1902  1.0059 -1.1523
 7520SOL    HW329847   4.367   4.776   1.194  0.7906  0.5167  0.4863
 7520SOL    MW429848   4.361   4.690   1.177  0.8011  0.6259 -0.0905
 7521SOL     OW29849   2.193   1.571   1.694 -0.3817 -0.1302 -0.0939
 7521SOL    HW229850   2.284   1.582   1.667 -0.5096  0.8625 -0.1633
 7521SOL    HW329851   2.159   1.660   1.699 -1.8693 -0.5506 -1.8136
 7521SOL    MW429852   2.200   1.584   1.691 -0.5949 -0.0547 -0.3300
 7522SOL     OW29853   4.177   4.828   1.599 -0.9334 -0.0057 -0.1067
 7522SOL    HW229854   4.159   4.739   1.568 -1.9831  0.5059 -1.0172
 7522SOL    HW329855   4.155   4.885   1.525 -0.9847  1.0670  0.7107
 7522SOL    MW429856   4.172   4.824   1.585 -1.0786  0.2033 -0.1190
 7523SOL     OW29857   1.500   5.565   2.357  0.3400 -0.2320  0.6406
 7523SOL    HW229858   1.430   5.513   2.397  0.5771 -2.5013 -1.6188
 7523SOL    HW329859   1.462   5.652   2.347 -1.6594 -1.0278  0.8282
 7523SOL    MW429860   1.485   5.570   2.361  0.1075 -0.6364  0.3673
 7524SOL     OW29861   5.092   4.995   5.299  0.1273  0.5676  0.2046
 7524SOL    HW229862   5.084   4.904   5.268 -3.0528  1.1927 -1.3385
 7524SOL    HW329863   5.018   5.006   5.359  1.1208  1.8555  1.2311
 7524SOL    MW429864   5.081   4.985   5.303 -0.1612  0.8200  0.1364
 7525SOL     OW29865   3.989   1.379   1.185  0.1431 -0.4511 -0.1213
 7525SOL    HW229866   3.923   1.310   1.189  0.8128 -1.0615  1.2833
 7525SOL    HW329867   3.940   1.460   1.190 -0.5988 -0.8581 -0.7118
 7525SOL    MW429868   3.974   1.380   1.186  0.1336 -0.5853 -0.0139
 7526SOL     OW29869   6.052   5.940   5.338  0.3533 -0.1511 -0.2329
 7526SOL    HW229870   6.007   6.024   5.326  1.8593  0.6421 -0.6979
 7526SOL    HW329871   6.063   5.933   5.433  0.2861  0.2270 -0.1925
 7526SOL    MW429872   6.048   5.950   5.349  0.5431  0.0034 -0.2889
 7527SOL     OW29873   4.682   2.832   6.137  0.1332  0.1913  0.4343
 7527SOL    HW229874   4.633   2.912   6.156 -0.4896  0.4067 -1.8690
 7527SOL    HW329875   4.622   2.779   6.086  1.8042 -0.1479 -1.2637
 7527SOL    MW429876   4.667   2.835   6.133  0.2715  0.1750 -0.0936
 7528SOL     OW29877   4.918   4.934   4.264 -0.1981  0.3223  0.2960
 7528SOL    HW229878   4.887   4.884   4.339  1.0121  1.5068  1.6294
 7528SOL    HW329879   4.954   4.867   4.205  1.1452 -0.4614  1.9166
 7528SOL    MW429880   4.919   4.918   4.266  0.1388  0.3752  0.6857
 7529SOL     OW29881   2.498   4.696   4.565  0.4424 -0.3103  0.3235
 7529SOL    HW229882   2.416   4.717   4.519  0.7677  1.2568  0.4084
 7529SOL    HW329883   2.537   4.626   4.512  0.1143  0.4656 -1.0021
 7529SOL    MW429884   2.492   4.689   4.552  0.4421 -0.0011  0.1598
 7530SOL     OW29885   1.319   2.828   0.159  0.3594 -0.1601  0.6697
 7530SOL    HW229886   1.387   2.847   0.094 -0.0786  2.6873  0.9386
 7530SOL    HW329887   1.367   2.820   0.241  0.6677 -1.5414  0.3880
 7530SOL    MW429888   1.335   2.829   0.161  0.3423  0.0334  0.6680
 7531SOL     OW29889   5.538   6.240   4.977 -0.1625  0.6174  0.5144
 7531SOL    HW229890   5.577   6.327   4.984  2.1229 -0.2692 -0.5241
 7531SOL    HW329891   5.460   6.253   4.924  0.2334  2.0045  0.2393
 7531SOL    MW429892   5.533   6.253   4.971  0.1913  0.6834  0.3411
 7532SOL     OW29893   4.501   6.405   5.296 -0.1943  0.1842  0.0157
 7532SOL    HW229894   4.478   6.495   5.321  2.1256  1.5851 -2.3258
 7532SOL    HW329895   4.537   6.413   5.208  0.0206 -3.1142 -0.3222
 7532SOL    MW429896   4.503   6.418   5.288  0.1401 -0.0661 -0.3378
 7533SOL     OW29897   4.624   3.364   3.990 -0.4165 -0.6710 -0.1926
 7533SOL    HW229898   4.599   3.272   3.989 -0.2532 -0.7308  0.6462
 7533SOL    HW329899   4.584   3.399   4.069  0.1785 -0.2141 -0.0868
 7533SOL    MW429900   4.616   3.356   4.000 -0.3164 -0.6186 -0.0680
 7534SOL     OW29901   5.717   5.020   5.762  0.2852 -0.3337  0.0346
 7534SOL    HW229902   5.656   5.067   5.705 -0.8249 -1.6759  0.0710
 7534SOL    HW329903   5.796   5.074   5.762 -0.3354  0.6275 -1.2907
 7534SOL    MW429904   5.720   5.034   5.755  0.0569 -0.3840 -0.1355
 7535SOL     OW29905   2.398   4.100   4.153  0.0196 -0.2458  0.4627
 7535SOL    HW229906   2.396   4.009   4.180  0.0799 -0.8293 -1.3697
 7535SOL    HW329907   2.324   4.109   4.093  0.3683  0.7673  0.1624
 7535SOL    MW429908   2.388   4.089   4.149  0.0735 -0.1891  0.1813
 7536SOL     OW29909   0.621   0.225   3.068  0.1301 -0.3759  0.4265
 7536SOL    HW229910   0.637   0.214   3.161  2.5240 -1.0496  0.0250
 7536SOL    HW329911   0.663   0.308   3.046 -1.2995  0.2873  0.0951
 7536SOL    MW429912   0.629   0.234   3.077  0.2573 -0.3773  0.3298
 7537SOL     OW29913   2.908   4.610   4.585  0.2413  0.4950  0.7219
 7537SOL    HW229914   2.823   4.580   4.619 -0.1887 -0.7812 -1.3296
 7537SOL    HW329915   2.918   4.698   4.621 -1.2564  0.1282  2.1783
 7537SOL    MW429916   2.898   4.618   4.595 -0.0130  0.2782  0.6433
 7538SOL     OW29917   2.803   1.833   2.297 -0.1080  0.5591 -0.2716
 7538SOL    HW229918   2.742   1.763   2.321  0.0683  0.6121  0.3748
 7538SOL    HW329919   2.838   1.863   2.381  0.9968  0.3613 -0.6494
 7538SOL    MW429920   2.799   1.828   2.312  0.0610  0.5400 -0.2361
 7539SOL     OW29921   0.380   5.681   4.016 -0.6705 -0.3826 -0.1799
 7539SOL    HW229922   0.451   5.627   4.049 -1.4295 -1.9737 -1.0613
 7539SOL    HW329923   0.375   5.754   4.079  0.9201 -0.8618  0.5629
 7539SOL    MW429924   0.389   5.684   4.029 -0.5608 -0.6557 -0.1982
 7540SOL     OW29925   5.712   3.888   4.585  0.2882 -0.5214 -0.2948
 7540SOL    HW229926   5.707   3.829   4.510 -1.0161 -0.0318 -0.6325
 7540SOL    HW329927   5.712   3.831   4.661 -1.1277 -0.9719 -0.6077
 7540SOL    MW429928   5.711   3.873   4.585 -0.0707 -0.5162 -0.3807
 7541SOL     OW29929   0.191   6.152   4.980  0.2805  0.1066  0.5044
 7541SOL    HW229930   0.287   6.153   4.977  0.2992 -1.2723  0.2702
 7541SOL    HW329931   0.168   6.059   4.982 -1.0880  0.3911 -0.6827
 7541SOL    MW429932   0.201   6.140   4.980  0.1024 -0.0378  0.3168
 7542SOL     OW29933   0.688   3.735   5.490  0.1750  0.1163  0.0306
 7542SOL    HW229934   0.775   3.756   5.456  0.0946 -0.6236 -0.6615
 7542SOL    HW329935   0.629   3.796   5.446  0.3319  0.5553  0.4289
 7542SOL    MW429936   0.691   3.745   5.480  0.1851  0.0766 -0.0082
 7543SOL     OW29937   2.490   4.270   6.294 -0.2236 -0.2611  0.5738
 7543SOL    HW229938   2.553   4.201   6.276  2.7648  2.0951  1.1700
 7543SOL    HW329939   2.524   4.314   6.372 -1.1237  2.6989 -0.5418
 7543SOL    MW429940   2.503   4.267   6.302  0.0519  0.4403  0.5053
 7544SOL     OW29941   0.038   2.453   1.529  0.1059  0.0415 -0.2600
 7544SOL    HW229942   0.031   2.447   1.434 -0.0997  1.6399 -0.3668
 7544SOL    HW329943  -0.028   2.391   1.561 -1.2968  0.9777 -1.1956
 7544SOL    MW429944   0.028   2.444   1.521 -0.1063  0.3759 -0.3975
 7545SOL     OW29945   5.695   6.368   2.517  0.2330  0.9667  0.5893
 7545SOL    HW229946   5.771   6.353   2.461  0.8290  2.3245  0.9991
 7545SOL    HW329947   5.627   6.399   2.457  0.1433  0.2376  0.2992
 7545SOL    MW429948   5.696   6.370   2.501  0.2998  1.0497  0.6051
 7546SOL     OW29949   1.808   1.780   2.498 -0.2084 -0.4695 -0.2656
 7546SOL    HW229950   1.718   1.794   2.529 -0.9822  0.7568 -2.7571
 7546SOL    HW329951   1.839   1.704   2.547 -2.4817 -0.7280  0.9111
 7546SOL    MW429952   1.800   1.772   2.508 -0.6104 -0.3418 -0.4390
 7547SOL     OW29953   4.896   0.083   5.536  0.0099 -0.3537  0.4468
 7547SOL    HW229954   4.878   0.086   5.631 -1.9710 -1.3724  0.1702
 7547SOL    HW329955   4.841   0.011   5.504  1.8832 -1.1015 -1.2548
 7547SOL    MW429956   4.886   0.074   5.545 -0.0043 -0.5867  0.1858
 7548SOL     OW29957   5.101   0.597   6.073  0.4794 -0.0817  0.1127
 7548SOL    HW229958   5.008   0.573   6.064  0.6950 -0.4541 -1.3488
 7548SOL    HW329959   5.143   0.558   5.997  1.6534  1.0465  0.1527
 7548SOL    MW429960   5.094   0.589   6.062  0.6627  0.0180 -0.0749
 7549SOL     OW29961   0.691   1.590   4.652 -0.0789 -0.5966  0.0713
 7549SOL    HW229962   0.626   1.638   4.704  0.0741 -0.4646  0.1454
 7549SOL    HW329963   0.711   1.649   4.579 -1.3591 -1.3863 -0.9514
 7549SOL    MW429964   0.685   1.604   4.649 -0.2277 -0.6833 -0.0539
 7550SOL     OW29965   5.605   5.240   3.023 -0.5927 -0.3953 -0.6061
 7550SOL    HW229966   5.607   5.329   2.988  0.7301  0.0795  0.5983
 7550SOL    HW329967   5.538   5.195   2.971 -1.0224  1.1911 -1.4723
 7550SOL    MW429968   5.597   5.246   3.012 -0.4749 -0.1234 -0.5615
 7551SOL     OW29969   0.609   3.876   3.867 -0.0860  0.1223  0.8254
 7551SOL    HW229970   0.627   3.806   3.804  0.0202 -0.1584  1.1628
 7551SOL    HW329971   0.690   3.884   3.917 -0.4723 -0.2647  1.5148
 7551SOL    MW429972   0.622   3.868   3.865 -0.1230  0.0342  0.9609
 7552SOL     OW29973   6.148   3.872   5.096 -0.0081  0.1982 -0.3090
 7552SOL    HW229974   6.055   3.876   5.073  0.4515  0.8299 -2.2313
 7552SOL    HW329975   6.149   3.872   5.192 -2.1036 -3.1861 -0.1300
 7552SOL    MW429976   6.136   3.872   5.106 -0.2240 -0.1650 -0.5390
 7553SOL     OW29977   0.366   1.887   1.390  0.5362 -0.3352 -0.0857
 7553SOL    HW229978   0.305   1.820   1.360  0.3515  0.6052 -1.9886
 7553SOL    HW329979   0.327   1.923   1.469  1.2714 -3.2904  1.7512
 7553SOL    MW429980   0.353   1.883   1.396  0.6088 -0.6010 -0.0944
 7554SOL     OW29981   2.350   4.344   1.018  0.5774  0.0805  0.1047
 7554SOL    HW229982   2.340   4.288   0.941  1.3579  1.1071 -0.7718
 7554SOL    HW329983   2.442   4.369   1.018 -0.1020  2.9390 -0.7030
 7554SOL    MW429984   2.360   4.340   1.008  0.5907  0.5930 -0.1175
 7555SOL     OW29985   6.154   4.378   5.664  0.0088  0.1482 -0.3275
 7555SOL    HW229986   6.069   4.337   5.649 -0.0259 -0.7189  1.8679
 7555SOL    HW329987   6.147   4.417   5.751  2.2954 -1.2397  0.5737
 7555SOL    MW429988   6.142   4.377   5.673  0.3059 -0.1493  0.0810
 7556SOL     OW29989   5.348   3.559   3.041  0.1744 -0.4878  0.2507
 7556SOL    HW229990   5.355   3.482   3.098  1.1182  0.4522  1.4458
 7556SOL    HW329991   5.367   3.526   2.953 -0.3459 -1.7797  0.6000
 7556SOL    MW429992   5.351   3.545   3.037  0.2303 -0.5342  0.4545
 7557SOL     OW29993   6.216   1.132   2.267 -0.5141 -0.3220  0.5644
 7557SOL    HW229994   6.284   1.067   2.252 -0.5593 -0.5139  1.1693
 7557SOL    HW329995   6.248   1.211   2.222 -0.7389 -0.9190 -0.6791
 7557SOL    MW429996   6.229   1.134   2.259 -0.5497 -0.4261  0.4801
 7558SOL     OW29997   2.983   3.564   5.948  0.1349  0.3099 -0.2015
 7558SOL    HW229998   2.901   3.520   5.974 -1.0143  1.5702 -1.5417
 7558SOL    HW329999   2.955   3.646   5.908  2.1525  1.4443  0.5740
 7558SOL    MW430000   2.968   3.569   5.946  0.2495  0.6258 -0.2760
 7559SOL     OW30001   1.314   3.631   0.886 -0.4771 -0.3517  0.0041
 7559SOL    HW230002   1.339   3.553   0.936 -1.5833 -0.1217  0.9481
 7559SOL    HW330003   1.375   3.631   0.811  1.8106 -0.2264  1.7379
 7559SOL    MW430004   1.326   3.620   0.883 -0.3212 -0.3048  0.3574
 7560SOL     OW30005   4.907   3.696   2.178  0.1667  0.0228  0.5786
 7560SOL    HW230006   4.965   3.620   2.178  0.1913  0.0380 -0.0079
 7560SOL    HW330007   4.824   3.662   2.144  0.5809  0.5473 -1.0452
 7560SOL    MW430008   4.904   3.682   2.173  0.2246  0.0940  0.2869
 7561SOL     OW30009   1.787   4.841   3.491 -0.5771  0.2819 -0.0487
 7561SOL    HW230010   1.698   4.810   3.508 -0.6335  0.5612  0.1782
 7561SOL    HW330011   1.803   4.907   3.559  0.2005 -0.5309  0.5894
 7561SOL    MW430012   1.777   4.846   3.502 -0.4819  0.2115  0.0654
 7562SOL     OW30013   5.505   2.424   6.405 -0.2250  0.1384 -0.3094
 7562SOL    HW230014   5.583   2.388   6.361  2.6879  1.2146  3.4142
 7562SOL    HW330015   5.474   2.493   6.345  2.2729  0.2835 -1.5930
 7562SOL    MW430016   5.511   2.429   6.391  0.4889  0.2995  0.0125
 7563SOL     OW30017   4.735   6.060   2.324  0.4371 -0.9578  0.7557
 7563SOL    HW230018   4.744   6.149   2.292  0.6085 -1.0263  0.6165
 7563SOL    HW330019   4.816   6.043   2.373  1.3621 -1.7707 -0.9750
 7563SOL    MW430020   4.747   6.070   2.326  0.5817 -1.0741  0.5090
 7564SOL     OW30021   0.461   1.418   5.767  0.6558 -0.0834 -0.3835
 7564SOL    HW230022   0.515   1.495   5.785  1.1619 -0.3634 -0.7067
 7564SOL    HW330023   0.490   1.353   5.831  0.0872  0.0478  0.0259
 7564SOL    MW430024   0.472   1.420   5.778  0.6476 -0.1030 -0.3721
 7565SOL     OW30025   5.397   3.664   4.331  0.2172  0.2690  0.1759
 7565SOL    HW230026   5.406   3.740   4.389  2.3006 -0.7885  1.3567
 7565SOL    HW330027   5.329   3.611   4.372  1.3073 -0.2119  1.4406
 7565SOL    MW430028   5.389   3.667   4.344  0.6359  0.0660  0.4986
 7566SOL     OW30029   2.807   0.118   4.918  0.0428 -0.1760 -0.1556
 7566SOL    HW230030   2.832   0.039   4.869  3.2673 -0.9151  2.3416
 7566SOL    HW330031   2.733   0.091   4.972 -0.5575 -0.6762 -1.1921
 7566SOL    MW430032   2.801   0.104   4.918  0.3890 -0.3395  0.0371
 7567SOL     OW30033   5.826   2.808   1.742  0.1494 -0.1364  0.0795
 7567SOL    HW230034   5.915   2.785   1.716  0.6159  0.9979  0.5734
 7567SOL    HW330035   5.836   2.845   1.830 -0.5206  1.7834 -0.5993
 7567SOL    MW430036   5.839   2.810   1.750  0.1226  0.2665  0.0551
 7568SOL     OW30037   3.823   0.578   3.933 -0.3506 -0.0345 -0.1953
 7568SOL    HW230038   3.866   0.543   4.012  0.1432 -2.5593 -1.4623
 7568SOL    HW330039   3.877   0.653   3.908  0.4579 -0.1939  0.9377
 7568SOL    MW430040   3.836   0.583   3.940 -0.1788 -0.3886 -0.2130
 7569SOL     OW30041   2.966   1.718   0.600 -0.2058  0.2302 -0.2644
 7569SOL    HW230042   3.008   1.746   0.682 -0.3298  1.0838 -0.4780
 7569SOL    HW330043   2.976   1.623   0.599  1.2416  0.3701 -0.0525
 7569SOL    MW430044   2.973   1.709   0.611 -0.0312  0.3612 -0.2646
 7570SOL     OW30045   0.937   0.127   5.298  0.3382  0.2856 -0.0637
 7570SOL    HW230046   0.960   0.034   5.305  0.8267  0.3878 -0.2377
 7570SOL    HW330047   0.865   0.139   5.359  1.1557  0.0861  0.9592
 7570SOL    MW430048   0.930   0.116   5.307  0.5105  0.2728  0.0483
 7571SOL     OW30049   4.256   2.942   1.623  0.3186 -0.3406 -0.2206
 7571SOL    HW230050   4.192   2.900   1.681  0.7131  0.5078  0.8655
 7571SOL    HW330051   4.209   3.016   1.584  0.6142  0.2717  0.5631
 7571SOL    MW430052   4.241   2.946   1.626  0.4096 -0.1479  0.0261
 7572SOL     OW30053   0.471   2.572   0.678 -0.8220  0.3409  0.5509
 7572SOL    HW230054   0.531   2.520   0.731 -1.1376 -1.4213 -0.7439
 7572SOL    HW330055   0.525   2.604   0.605 -1.0145  0.3947  0.4299
 7572SOL    MW430056   0.486   2.570   0.675 -0.8890  0.1155  0.3641
 7573SOL     OW30057   2.303   4.788   1.037  0.1225  0.2703 -0.4078
 7573SOL    HW230058   2.324   4.814   1.126 -0.1498 -1.6662  0.2668
 7573SOL    HW330059   2.376   4.732   1.010 -1.4455 -2.1410  0.0120
 7573SOL    MW430060   2.315   4.784   1.045 -0.1203 -0.3033 -0.2634
 7574SOL     OW30061   5.259   1.694   2.758 -0.1075  0.2084  0.1553
 7574SOL    HW230062   5.348   1.665   2.740  0.3392  1.6085 -0.0496
 7574SOL    HW330063   5.259   1.787   2.735 -1.8535  0.0482 -0.6220
 7574SOL    MW430064   5.271   1.703   2.753 -0.2789  0.3720  0.0257
 7575SOL     OW30065   5.137   3.495   0.617 -0.2208  0.0784 -0.2882
 7575SOL    HW230066   5.192   3.418   0.631 -1.6999 -0.9187  0.2210
 7575SOL    HW330067   5.128   3.501   0.522  1.0289  0.4747 -0.4037
 7575SOL    MW430068   5.143   3.486   0.606 -0.2511 -0.0009 -0.2363
 7576SOL     OW30069   0.242   3.456   4.636  0.2009 -0.0439 -0.1848
 7576SOL    HW230070   0.275   3.396   4.703  0.1317 -0.8652 -0.8684
 7576SOL    HW330071   0.248   3.543   4.676  0.1716 -0.5184  0.8717
 7576SOL    MW430072   0.247   3.460   4.650  0.1879 -0.2148 -0.1356
 7577SOL     OW30073   5.519   3.967   4.809 -0.0490 -0.0899 -0.1001
 7577SOL    HW230074   5.574   3.956   4.732 -0.6038  1.6101 -0.7763
 7577SOL    HW330075   5.445   3.908   4.794 -0.0552  0.0848 -0.7938
 7577SOL    MW430076   5.516   3.958   4.797 -0.1230  0.1574 -0.2808
 7578SOL     OW30077   3.752   5.289   0.489  0.2936 -0.1822 -0.0666
 7578SOL    HW230078   3.781   5.378   0.474  1.8948 -0.7274 -0.3834
 7578SOL    HW330079   3.657   5.292   0.479 -0.0476  2.0250  2.6086
 7578SOL    MW430080   3.744   5.301   0.486  0.4598  0.0371  0.2446
 7579SOL     OW30081   3.684   4.563   4.640  0.2137  0.2567  0.2688
 7579SOL    HW230082   3.724   4.485   4.600 -0.5425 -1.1407  2.1008
 7579SOL    HW330083   3.700   4.553   4.733 -3.8032 -0.1310  1.0951
 7579SOL    MW430084   3.691   4.551   4.647 -0.4161  0.0212  0.6195
 7580SOL     OW30085   2.626   2.808   1.329 -0.2755 -0.4123 -0.5248
 7580SOL    HW230086   2.550   2.754   1.307 -0.3923 -0.5167  0.0940
 7580SOL    HW330087   2.669   2.826   1.246  0.7115 -2.8368 -0.5982
 7580SOL    MW430088   2.621   2.803   1.315 -0.1607 -0.7460 -0.4528
 7581SOL     OW30089   0.617   3.835   5.010  0.2649  0.3310 -0.0100
 7581SOL    HW230090   0.586   3.745   5.015  0.7042  0.1955  0.3503
 7581SOL    HW330091   0.537   3.888   5.011  0.0437 -0.0049  0.9894
 7581SOL    MW430092   0.602   3.830   5.011  0.2937  0.2688  0.1694
 7582SOL     OW30093   2.643   0.599   5.239 -0.5039 -0.1445 -0.2829
 7582SOL    HW230094   2.628   0.648   5.158  2.6377  2.0780  0.3003
 7582SOL    HW330095   2.709   0.534   5.216  0.0840  0.2110  0.3469
 7582SOL    MW430096   2.650   0.597   5.225 -0.0118  0.1956 -0.1228
 7583SOL     OW30097   5.564   0.657   4.797  0.7111 -0.0525 -0.0026
 7583SOL    HW230098   5.505   0.732   4.803 -0.7744 -1.2832  1.3801
 7583SOL    HW330099   5.520   0.596   4.738  1.2524 -0.4354 -0.0167
 7583SOL    MW430100   5.551   0.659   4.790  0.5866 -0.2654  0.1779
 7584SOL     OW30101   6.179   4.999   2.956  0.0326 -0.2482  0.2859
 7584SOL    HW230102   6.124   4.945   2.900  1.1865 -0.3825 -0.7588
 7584SOL    HW330103   6.181   4.953   3.040  0.3533 -1.4064 -0.3389
 7584SOL    MW430104   6.172   4.986   2.959  0.2271 -0.4187  0.0656
 7585SOL     OW30105   3.550   0.975   5.899  0.1701 -0.1367 -0.3319
 7585SOL    HW230106   3.613   0.940   5.963  1.6284 -0.9291 -2.0967
 7585SOL    HW330107   3.491   0.902   5.881 -0.9572  0.4323  0.8939
 7585SOL    MW430108   3.551   0.961   5.906  0.2138 -0.1662 -0.4030
 7586SOL     OW30109   4.456   2.878   4.492  0.4912  0.2918  0.1538
 7586SOL    HW230110   4.450   2.784   4.509  1.5571 -0.1251 -1.5043
 7586SOL    HW330111   4.383   2.896   4.433  0.0963  0.5932  0.7217
 7586SOL    MW430112   4.446   2.868   4.486  0.5797  0.2765  0.0100
 7587SOL     OW30113   4.966   3.132   2.252 -0.2129 -0.0240 -0.3948
 7587SOL    HW230114   4.888   3.185   2.268 -0.7203 -0.3605 -1.7060
 7587SOL    HW330115   5.032   3.195   2.222 -0.2394  0.1341 -0.1236
 7587SOL    MW430116   4.964   3.148   2.250 -0.2833 -0.0475 -0.5320
 7588SOL     OW30117   1.053   4.426   6.219 -0.1519  0.1156  0.0685
 7588SOL    HW230118   1.024   4.403   6.131  1.3672 -0.1916 -0.3699
 7588SOL    HW330119   1.015   4.359   6.275  2.0783 -2.0789 -0.8743
 7588SOL    MW430120   1.044   4.414   6.215  0.3428 -0.2145 -0.1137
 7589SOL     OW30121   1.612   5.964   0.338 -0.1560 -0.0220  0.2242
 7589SOL    HW230122   1.533   6.012   0.363 -1.4337 -2.4131  1.1611
 7589SOL    HW330123   1.580   5.893   0.283  1.4619 -0.6027 -0.0278
 7589SOL    MW430124   1.597   5.961   0.334 -0.1111 -0.4141  0.3145
 7590SOL     OW30125   0.068   3.100   2.420  0.2558  0.2742  0.3982
 7590SOL    HW230126   0.129   3.076   2.349  0.8500 -1.3945  1.4213
 7590SOL    HW330127   0.123   3.145   2.484  0.5813 -1.5432  1.4870
 7590SOL    MW430128   0.083   3.102   2.419  0.3771 -0.1857  0.6768
 7591SOL     OW30129   1.105   2.001   1.546 -0.2916  0.4966  0.2846
 7591SOL    HW230130   1.050   2.031   1.474  0.2333  0.0749 -0.3047
 7591SOL    HW330131   1.188   2.046   1.533  0.2925 -0.6775 -0.2347
 7591SOL    MW430132   1.109   2.011   1.535 -0.1453  0.2861  0.1383
 7592SOL     OW30133   3.487   0.354   4.998  0.1529  0.4055  0.4158
 7592SOL    HW230134   3.410   0.393   4.957 -0.5640  0.6834  1.9643
 7592SOL    HW330135   3.460   0.338   5.088  1.3704 -1.0544  0.5529
 7592SOL    MW430136   3.473   0.357   5.004  0.2189  0.2495  0.6382
 7593SOL     OW30137   3.104   5.888   3.321 -0.2411 -0.5497 -0.6336
 7593SOL    HW230138   3.197   5.895   3.344 -0.4121 -0.9544  0.2640
 7593SOL    HW330139   3.085   5.968   3.273  0.3964 -0.0941 -0.1549
 7593SOL    MW430140   3.114   5.899   3.318 -0.1795 -0.5430 -0.4520
 7594SOL     OW30141   2.992   6.126   1.033 -0.5231 -0.2303 -0.4407
 7594SOL    HW230142   3.040   6.062   1.086 -0.8275  0.2695  0.4549
 7594SOL    HW330143   2.915   6.148   1.086 -0.6588  0.5273 -0.9422
 7594SOL    MW430144   2.988   6.120   1.047 -0.5812 -0.0644 -0.3887
 7595SOL     OW30145   5.357   4.330   0.377 -0.2032  0.0212  0.2103
 7595SOL    HW230146   5.345   4.317   0.471 -2.9029  0.4696 -0.0013
 7595SOL    HW330147   5.370   4.424   0.366  1.1747 -0.1486  0.1814
 7595SOL    MW430148   5.357   4.341   0.388 -0.3776  0.0580  0.1786
 7596SOL     OW30149   1.704   1.370   4.073 -0.1489 -0.1039  0.0165
 7596SOL    HW230150   1.736   1.447   4.024  0.0886  0.1491  0.5648
 7596SOL    HW330151   1.722   1.391   4.164 -0.0020 -0.8551  0.1646
 7596SOL    MW430152   1.711   1.383   4.078 -0.0982 -0.1696  0.1084
 7597SOL     OW30153   3.291   1.750   3.568  0.2664 -0.2053 -0.2893
 7597SOL    HW230154   3.296   1.843   3.543 -0.3801  0.7093  2.5661
 7597SOL    HW330155   3.198   1.731   3.570  0.1709  0.1780  2.3834
 7597SOL    MW430156   3.280   1.760   3.565  0.1685 -0.0341  0.4401
 7598SOL     OW30157   2.208   3.244   2.133 -0.6217  0.3706  0.7124
 7598SOL    HW230158   2.256   3.276   2.210 -0.9628  0.5966  0.8296
 7598SOL    HW330159   2.116   3.257   2.155 -0.7013  3.0954 -0.8485
 7598SOL    MW430160   2.203   3.250   2.146 -0.6772  0.7599  0.5219
 7599SOL     OW30161   5.937   3.889   1.344  0.3877  0.2454  0.1602
 7599SOL    HW230162   6.017   3.938   1.367  0.4243  0.6425 -0.7619
 7599SOL    HW330163   5.966   3.798   1.335  0.6166  0.2908  0.4318
 7599SOL    MW430164   5.952   3.884   1.346  0.4227  0.3038  0.0744
 7600SOL     OW30165   4.889   4.772   1.142 -0.3526 -0.0762  0.0456
 7600SOL    HW230166   4.900   4.707   1.072  1.5905  0.0208  0.1927
 7600SOL    HW330167   4.944   4.845   1.115 -0.9570  0.6896  0.8455
 7600SOL    MW430168   4.898   4.773   1.129 -0.1760  0.0376  0.1705
 7601SOL     OW30169   6.351   5.321   5.091 -0.2777  0.2448 -0.2538
 7601SOL    HW230170   6.294   5.331   5.167 -0.1172 -1.5603  0.1513
 7601SOL    HW330171   6.440   5.334   5.126 -0.2505  0.2055 -0.3077
 7601SOL    MW430172   6.355   5.324   5.106 -0.2529  0.0015 -0.2075
 7602SOL     OW30173   1.495   4.069   2.991  0.2512  0.1708 -0.1965
 7602SOL    HW230174   1.573   4.031   3.031  0.4779  1.6450  0.8382
 7602SOL    HW330175   1.528   4.129   2.925 -0.0250  0.2302 -0.2837
 7602SOL    MW430176   1.510   4.072   2.988  0.2447  0.3731 -0.0715
 7603SOL     OW30177   6.227   4.622   5.536  0.2153  0.3634 -0.3924
 7603SOL    HW230178   6.150   4.650   5.488 -1.8396 -0.9136  1.9508
 7603SOL    HW330179   6.208   4.532   5.563  1.2816  0.8955  2.5546
 7603SOL    MW430180   6.215   4.614   5.533  0.0849  0.2651  0.3055
 7604SOL     OW30181   4.825   4.835   1.670 -1.0010  0.4348 -0.0018
 7604SOL    HW230182   4.754   4.812   1.610 -1.1716  0.6680  0.1116
 7604SOL    HW330183   4.782   4.867   1.749 -0.8341 -2.3790  1.3170
 7604SOL    MW430184   4.810   4.836   1.672 -1.0015  0.0943  0.1871
 7605SOL     OW30185   4.710   3.213   3.103  0.0640 -0.3016 -0.4657
 7605SOL    HW230186   4.660   3.222   3.021 -1.9857  0.9097  0.8288
 7605SOL    HW330187   4.647   3.176   3.165  1.8383 -2.0336  0.3943
 7605SOL    MW430188   4.695   3.209   3.100  0.0276 -0.3703 -0.1814
 7606SOL     OW30189   1.990   3.891   0.753  0.6861 -0.0703 -0.1134
 7606SOL    HW230190   1.952   3.819   0.804  0.1779 -0.6507 -1.2952
 7606SOL    HW330191   1.934   3.900   0.677  1.4270  0.8095 -0.5776
 7606SOL    MW430192   1.978   3.883   0.750  0.7168 -0.0308 -0.3306
 7607SOL     OW30193   3.916   2.659   2.126 -0.2133  0.2072  0.0076
 7607SOL    HW230194   3.908   2.595   2.056  0.8441  1.2230 -1.0846
 7607SOL    HW330195   4.007   2.689   2.122 -0.9042  2.5167 -0.2399
 7607SOL    MW430196   3.927   2.655   2.116 -0.1650  0.6459 -0.1692
 7608SOL     OW30197   5.761   0.297   0.787  0.4261  0.1051  0.1307
 7608SOL    HW230198   5.852   0.272   0.800  0.1152 -0.5374  1.3688
 7608SOL    HW330199   5.715   0.257   0.862 -0.6561  1.5409  0.2756
 7608SOL    MW430200   5.767   0.288   0.799  0.2423  0.2098  0.3132
 7609SOL     OW30201   1.674   0.156   4.496 -0.1296  0.2984  0.2161
 7609SOL    HW230202   1.604   0.110   4.450  2.1039 -1.8581 -1.2905
 7609SOL    HW330203   1.672   0.121   4.585 -0.0591 -0.8785 -0.2255
 7609SOL    MW430204   1.664   0.145   4.501  0.1744 -0.1414 -0.0409
 7610SOL     OW30205   1.879   3.132   4.397 -0.0804 -0.6509 -0.3721
 7610SOL    HW230206   1.942   3.203   4.407  1.5084 -1.8330 -1.5733
 7610SOL    HW330207   1.900   3.092   4.313 -0.7687 -2.6926  0.3666
 7610SOL    MW430208   1.890   3.136   4.388  0.0384 -1.0763 -0.4332
 7611SOL     OW30209   4.828   1.355   2.637 -0.2094  0.1544 -0.2268
 7611SOL    HW230210   4.900   1.413   2.610 -1.3846  0.9574 -1.7957
 7611SOL    HW330211   4.771   1.410   2.691 -0.3872 -0.0732 -0.1787
 7611SOL    MW430212   4.830   1.370   2.641 -0.3879  0.2303 -0.4274
 7612SOL     OW30213   0.666   5.887   0.960 -0.3673 -0.5599  0.1464
 7612SOL    HW230214   0.581   5.903   0.918 -0.5448  0.9565  1.0218
 7612SOL    HW330215   0.646   5.883   1.054  0.3135 -1.8525  0.2584
 7612SOL    MW430216   0.652   5.889   0.967 -0.3009 -0.5303  0.2767
 7613SOL     OW30217   3.605   5.816   0.915  0.4651  0.3581  0.2378
 7613SOL    HW230218   3.553   5.800   0.994  0.5986  1.5586  0.5894
 7613SOL    HW330219   3.647   5.901   0.931  0.2741  0.7590 -1.2273
 7613SOL    MW430220   3.604   5.825   0.928  0.4575  0.5694  0.0909
 7614SOL     OW30221   5.490   3.251   4.850 -0.4357  0.7570 -0.2517
 7614SOL    HW230222   5.475   3.158   4.868  0.9740  0.4113 -0.6945
 7614SOL    HW330223   5.417   3.277   4.793 -0.5179 -0.2533 -0.6304
 7614SOL    MW430224   5.479   3.242   4.845 -0.2605  0.5781 -0.3601
 7615SOL     OW30225   4.921   1.155   2.818  0.1100 -0.5449  0.2511
 7615SOL    HW230226   4.907   1.238   2.772  1.7896 -1.1472 -1.4748
 7615SOL    HW330227   4.992   1.175   2.880  1.0376 -0.8345 -0.6893
 7615SOL    MW430228   4.929   1.169   2.820  0.4540 -0.6626 -0.1007
 7616SOL     OW30229   2.799   0.257   1.772 -0.9117 -0.0060  0.5681
 7616SOL    HW230230   2.804   0.164   1.750 -1.1636  0.3808 -1.2461
 7616SOL    HW330231   2.835   0.262   1.861  1.8082 -1.4633 -0.3328
 7616SOL    MW430232   2.804   0.245   1.781 -0.5861 -0.1472  0.2099
 7617SOL     OW30233   4.060   5.723   0.125 -0.3691  0.1031 -0.6212
 7617SOL    HW230234   3.999   5.652   0.103  0.7699 -0.3946 -2.3573
 7617SOL    HW330235   4.101   5.746   0.042  0.2997  1.8725  0.1537
 7617SOL    MW430236   4.058   5.717   0.111 -0.1306  0.2709 -0.7480
 7618SOL     OW30237   6.327   3.247   2.131  0.1751  0.1629  0.3346
 7618SOL    HW230238   6.329   3.260   2.226 -1.4475  1.7864  0.2035
 7618SOL    HW330239   6.418   3.256   2.104  1.2859 -3.6531  2.0265
 7618SOL    MW430240   6.339   3.250   2.140  0.1076 -0.1264  0.5405
 7619SOL     OW30241   2.267   4.519   5.493 -0.2442 -0.0908 -0.2078
 7619SOL    HW230242   2.271   4.597   5.548 -0.3442 -0.9263  1.0292
 7619SOL    HW330243   2.350   4.474   5.511  0.5292  0.4767 -2.1059
 7619SOL    MW430244   2.279   4.523   5.503 -0.1553 -0.1261 -0.2950
 7620SOL     OW30245   3.527   2.933   0.002 -0.2999  0.0878  0.3010
 7620SOL    HW230246   3.510   2.902  -0.086 -2.0889 -0.1998  0.7054
 7620SOL    HW330247   3.445   2.919   0.049 -0.2483  2.6173  1.3135
 7620SOL    MW430248   3.514   2.927  -0.003 -0.5291  0.3836  0.4880
 7621SOL     OW30249   3.160   4.350   1.656  0.1991 -0.2780  0.1988
 7621SOL    HW230250   3.236   4.332   1.600  0.6832  0.9629  0.4296
 7621SOL    HW330251   3.195   4.347   1.745 -0.3685 -1.2697  0.4045
 7621SOL    MW430252   3.175   4.347   1.660  0.1881 -0.2451  0.2564
 7622SOL     OW30253   3.382   0.670   2.819  0.1177  0.7521 -0.1189
 7622SOL    HW230254   3.385   0.755   2.862 -0.4763  0.2753  0.8844
 7622SOL    HW330255   3.326   0.616   2.875  0.9038 -0.4592 -0.4558
 7622SOL    MW430256   3.375   0.674   2.832  0.1431  0.5293 -0.0310
 7623SOL     OW30257   0.991   3.749   5.344  0.3613  0.2399  0.5138
 7623SOL    HW230258   0.999   3.844   5.338  0.2985  0.1944 -0.3871
 7623SOL    HW330259   0.957   3.722   5.258 -1.9433 -0.3593  1.5346
 7623SOL    MW430260   0.987   3.758   5.332  0.0489  0.1548  0.5296
 7624SOL     OW30261   1.186   4.994   3.022  0.3964 -0.0843  0.0680
 7624SOL    HW230262   1.129   4.987   2.945  0.1108 -0.2337  0.2903
 7624SOL    HW330263   1.126   4.998   3.096  0.6516  0.7183  0.2439
 7624SOL    MW430264   1.171   4.993   3.022  0.3924  0.0019  0.1206
 7625SOL     OW30265   5.999   3.921   3.776  0.3438  0.1120  0.3211
 7625SOL    HW230266   5.943   3.949   3.849 -0.3963  0.4506 -0.3654
 7625SOL    HW330267   6.070   3.872   3.818  0.1311  0.6139  1.3016
 7625SOL    MW430268   6.001   3.918   3.791  0.2181  0.2229  0.3599
 7626SOL     OW30269   5.848   2.375   1.467  0.5255 -0.2488  0.8587
 7626SOL    HW230270   5.846   2.451   1.408  0.1670 -1.6575 -1.0308
 7626SOL    HW330271   5.760   2.370   1.503  0.6306  0.3847  1.2237
 7626SOL    MW430272   5.836   2.384   1.464  0.4920 -0.3511  0.6576
 7627SOL     OW30273   4.050   5.855   2.256  0.0801  0.4109  0.0711
 7627SOL    HW230274   4.128   5.803   2.277 -1.1550 -0.2997  3.5154
 7627SOL    HW330275   4.077   5.946   2.272  0.3958  0.2413  0.5119
 7627SOL    MW430276   4.064   5.860   2.261 -0.0412  0.2948  0.5837
 7628SOL     OW30277   2.105   0.676   1.066  0.0093 -0.1210  0.2269
 7628SOL    HW230278   2.013   0.679   1.042  0.0061 -0.2954  0.2170
 7628SOL    HW330279   2.112   0.605   1.130  0.7259 -2.6741 -2.4584
 7628SOL    MW430280   2.094   0.667   1.071  0.1034 -0.4808 -0.1287
 7629SOL     OW30281   3.075   0.425   5.116 -0.0381 -0.0642  0.2226
 7629SOL    HW230282   3.117   0.343   5.140  0.0525 -0.7163 -1.9198
 7629SOL    HW330283   3.143   0.476   5.072 -0.4273  0.6221  0.3877
 7629SOL    MW430284   3.089   0.421   5.113 -0.0775 -0.0597 -0.0383
 7630SOL     OW30285   0.663   1.410   5.053 -0.0003 -0.6484  0.4457
 7630SOL    HW230286   0.695   1.323   5.030  3.3433  0.4851  0.3267
 7630SOL    HW330287   0.592   1.394   5.116 -0.3824 -3.4399 -0.5861
 7630SOL    MW430288   0.657   1.396   5.059  0.3904 -0.8671  0.2939
 7631SOL     OW30289   5.374   2.977   2.052 -0.0831 -0.1961 -0.2465
 7631SOL    HW230290   5.456   2.959   2.098  0.7414  0.3746 -1.4260
 7631SOL    HW330291   5.380   2.925   1.972 -0.1971  0.9850 -1.0450
 7631SOL    MW430292   5.386   2.968   2.047  0.0106  0.0350 -0.5075
 7632SOL     OW30293   5.326   3.476   5.005 -0.0527 -0.4627 -0.8004
 7632SOL    HW230294   5.385   3.401   5.006 -0.1390 -0.5354  0.2266
 7632SOL    HW330295   5.369   3.541   5.060  0.3332  0.5075 -2.2211
 7632SOL    MW430296   5.339   3.475   5.013 -0.0131 -0.3443 -0.8524
 7633SOL     OW30297   5.195   4.361   3.760  0.2535 -0.1196  0.4206
 7633SOL    HW230298   5.158   4.448   3.775 -0.1496 -0.1069 -0.5559
 7633SOL    HW330299   5.226   4.333   3.846  1.4360  1.4534  0.5477
 7633SOL    MW430300   5.194   4.369   3.774  0.3563  0.0896  0.3085
 7634SOL     OW30301   3.722   4.062   0.288 -0.1223 -0.5868  0.1629
 7634SOL    HW230302   3.683   4.009   0.218  0.1301  0.9778 -1.2262
 7634SOL    HW330303   3.648   4.106   0.330 -0.4266 -2.5739  1.8836
 7634SOL    MW430304   3.707   4.061   0.284 -0.1292 -0.6426  0.2067
 7635SOL     OW30305   5.802   3.714   0.753 -0.5018  0.1308  0.2060
 7635SOL    HW230306   5.745   3.673   0.819  0.4140 -0.3649  0.7098
 7635SOL    HW330307   5.743   3.767   0.700 -1.4022 -0.2055  0.8462
 7635SOL    MW430308   5.787   3.715   0.755 -0.4998  0.0210  0.3569
 7636SOL     OW30309   5.315   2.425   1.516  0.3024  0.2596 -0.4006
 7636SOL    HW230310   5.266   2.463   1.442 -0.3504  0.5693  0.1765
 7636SOL    HW330311   5.264   2.348   1.541  1.3539 -0.7459 -1.2440
 7636SOL    MW430312   5.301   2.420   1.509  0.3550  0.1678 -0.4358
 7637SOL     OW30313   5.391   2.327   3.008  0.9051 -0.2758  0.5938
 7637SOL    HW230314   5.319   2.390   3.013  1.4690  0.6543 -1.7822
 7637SOL    HW330315   5.443   2.343   3.087  0.3694  1.4090  0.6340
 7637SOL    MW430316   5.389   2.338   3.019  0.9088  0.0692  0.2856
 7638SOL     OW30317   1.630   1.346   5.744 -0.2851 -0.0076  0.0983
 7638SOL    HW230318   1.568   1.283   5.782 -2.1885  1.3336 -0.6445
 7638SOL    HW330319   1.609   1.346   5.650  0.7936  0.5494 -0.1587
 7638SOL    MW430320   1.619   1.337   5.737 -0.3939  0.2429 -0.0336
 7639SOL     OW30321   5.553   2.120   5.647  0.7549  1.1260 -0.3481
 7639SOL    HW230322   5.489   2.185   5.617 -0.6650 -0.8811 -1.8951
 7639SOL    HW330323   5.617   2.115   5.575  0.5351  0.4340 -0.5050
 7639SOL    MW430324   5.553   2.128   5.633  0.5386  0.7699 -0.5729
 7640SOL     OW30325   2.100   4.327   1.790 -0.5049  0.1349  0.2298
 7640SOL    HW230326   2.139   4.254   1.838  2.6055  1.7532  0.4186
 7640SOL    HW330327   2.137   4.321   1.702 -0.3907  1.3262  0.1799
 7640SOL    MW430328   2.110   4.316   1.785 -0.0794  0.5056  0.2481
 7641SOL     OW30329   5.355   0.389   1.440 -0.9523  0.0990 -0.3638
 7641SOL    HW230330   5.307   0.448   1.382 -2.0253 -2.4036 -2.1986
 7641SOL    HW330331   5.288   0.351   1.497 -0.4289 -0.0043  0.1930
 7641SOL    MW430332   5.340   0.391   1.440 -1.0248 -0.2448 -0.5324
 7642SOL     OW30333   1.321   1.887   2.223  0.1359 -0.4836  0.3926
 7642SOL    HW230334   1.392   1.945   2.250 -1.9752  1.6859  1.7098
 7642SOL    HW330335   1.252   1.946   2.193 -1.9124 -2.3278  1.1846
 7642SOL    MW430336   1.321   1.902   2.223 -0.4129 -0.4407  0.6709
 7643SOL     OW30337   0.597   4.934   6.154 -0.1335 -0.0934 -0.2943
 7643SOL    HW230338   0.649   4.945   6.074 -0.3032 -1.2373 -0.5704
 7643SOL    HW330339   0.519   4.888   6.125 -1.0825  1.1240  0.2125
 7643SOL    MW430340   0.593   4.930   6.139 -0.2811 -0.0837 -0.2638
 7644SOL     OW30341   3.233   2.072   5.947  0.0478  0.1133  0.2356
 7644SOL    HW230342   3.238   2.050   5.854 -0.7529 -0.0444  0.2254
 7644SOL    HW330343   3.151   2.035   5.976 -0.5590  1.6510  0.6034
 7644SOL    MW430344   3.223   2.065   5.938 -0.1379  0.2954  0.2828
 7645SOL     OW30345   2.649   3.036   6.083 -0.0998 -0.1954  0.0653
 7645SOL    HW230346   2.714   2.984   6.036 -0.1931 -2.3600  2.1140
 7645SOL    HW330347   2.701   3.091   6.142 -0.0236 -0.9937  0.7808
 7645SOL    MW430348   2.664   3.036   6.085 -0.1021 -0.5864  0.4300
 7646SOL     OW30349   1.607   0.169   2.202  0.2261 -0.4517  0.2213
 7646SOL    HW230350   1.584   0.111   2.130 -0.1686  0.4877 -0.4398
 7646SOL    HW330351   1.702   0.159   2.212  0.1001 -1.5335  0.4270
 7646SOL    MW430352   1.616   0.160   2.194  0.1574 -0.4705  0.1612
 7647SOL     OW30353   1.444   2.341   3.664 -0.0374 -0.0128 -0.1704
 7647SOL    HW230354   1.468   2.280   3.733 -0.3660  0.4643  0.3819
 7647SOL    HW330355   1.519   2.400   3.655  0.3816 -0.6411 -0.8796
 7647SOL    MW430356   1.457   2.341   3.672 -0.0255 -0.0327 -0.1911
 7648SOL     OW30357   3.386   4.697   0.744 -0.6577  0.1514  0.3654
 7648SOL    HW230358   3.294   4.714   0.767 -0.2969  1.4406  0.9526
 7648SOL    HW330359   3.436   4.742   0.812  0.4204  0.7696 -0.7946
 7648SOL    MW430360   3.380   4.705   0.756 -0.4679  0.4031  0.2898
 7649SOL     OW30361   3.837   2.607   4.080  0.2105  0.0808 -0.1348
 7649SOL    HW230362   3.762   2.651   4.120 -0.6702 -2.1000  0.8235
 7649SOL    HW330363   3.906   2.673   4.077 -1.7140  2.1934 -1.0957
 7649SOL    MW430364   3.836   2.621   4.085 -0.1596  0.0718 -0.1352
 7650SOL     OW30365   6.245   1.893   0.974 -0.1979  0.1662  0.7565
 7650SOL    HW230366   6.219   1.946   0.899 -1.0878 -1.5150 -0.1770
 7650SOL    HW330367   6.337   1.916   0.989 -0.0217  0.5927 -0.8025
 7650SOL    MW430368   6.254   1.903   0.966 -0.2920  0.0007  0.4277
 7651SOL     OW30369   4.959   3.716   6.045  0.5329  0.3619  0.4252
 7651SOL    HW230370   5.039   3.708   5.994  0.4154 -0.0587  0.3027
 7651SOL    HW330371   4.919   3.629   6.042 -0.5132  0.8420 -0.4784
 7651SOL    MW430372   4.964   3.703   6.038  0.3794  0.3698  0.2898
 7652SOL     OW30373   5.252   3.656   0.796 -0.2765 -0.1948 -0.2064
 7652SOL    HW230374   5.211   3.606   0.726 -0.9174 -0.8309  0.6083
 7652SOL    HW330375   5.210   3.742   0.793 -0.8990 -0.4924 -0.0682
 7652SOL    MW430376   5.241   3.661   0.786 -0.4432 -0.3180 -0.0807
 7653SOL     OW30377   6.187   4.222   1.150  0.1595  0.0000  0.1011
 7653SOL    HW230378   6.102   4.242   1.111  0.6521  0.5285 -0.7227
 7653SOL    HW330379   6.251   4.258   1.088  1.0759 -2.9140 -0.7912
 7653SOL    MW430380   6.185   4.230   1.137  0.3454 -0.3147 -0.1253
 7654SOL     OW30381   2.186   1.864   4.389  0.4478 -0.0081  0.0226
 7654SOL    HW230382   2.161   1.794   4.449 -0.4098 -0.2293 -0.5783
 7654SOL    HW330383   2.104   1.892   4.350  0.8764  0.8392 -0.2875
 7654SOL    MW430384   2.172   1.859   4.392  0.3912  0.0745 -0.0976
 7655SOL     OW30385   0.569   6.286   2.348  0.1062  0.8424 -0.3773
 7655SOL    HW230386   0.523   6.209   2.313 -0.4529  0.1624  1.6978
 7655SOL    HW330387   0.662   6.264   2.339 -0.0093 -0.9887  1.8305
 7655SOL    MW430388   0.575   6.273   2.342  0.0172  0.5111  0.1878
 7656SOL     OW30389   5.456   5.620   1.744  0.1832  0.2178  0.4372
 7656SOL    HW230390   5.443   5.677   1.669 -0.2851 -0.1346  0.2491
 7656SOL    HW330391   5.549   5.630   1.766  0.6145 -0.5358 -0.8985
 7656SOL    MW430392   5.466   5.629   1.737  0.1783  0.0719  0.2362
 7657SOL     OW30393   3.426   5.385   1.413 -0.0683 -0.2602  0.0682
 7657SOL    HW230394   3.422   5.405   1.319 -1.0964 -3.3313 -0.6367
 7657SOL    HW330395   3.335   5.373   1.439  0.3200 -1.3075  0.9987
 7657SOL    MW430396   3.414   5.386   1.404 -0.1527 -0.8036  0.0980
 7658SOL     OW30397   1.058   3.885   2.086 -0.6568  0.1931  0.3348
 7658SOL    HW230398   0.997   3.905   2.014  0.5612 -0.0043 -0.7823
 7658SOL    HW330399   1.023   3.805   2.125 -1.0025 -0.0339 -0.4220
 7658SOL    MW430400   1.045   3.877   2.081 -0.5417  0.1371  0.0875
 7659SOL     OW30401   5.709   5.411   4.926  0.1774  0.1093 -0.3276
 7659SOL    HW230402   5.676   5.435   4.840  1.0091  0.9526 -0.4390
 7659SOL    HW330403   5.644   5.351   4.962 -2.4663  2.9852  0.1933
 7659SOL    MW430404   5.696   5.406   4.920 -0.0617  0.6000 -0.2736
 7660SOL     OW30405   3.978   2.182   3.143 -0.3390 -0.3618  0.3317
 7660SOL    HW230406   3.999   2.176   3.236 -1.2948 -0.3345  0.5594
 7660SOL    HW330407   3.883   2.194   3.140 -0.3441 -0.5188 -0.6537
 7660SOL    MW430408   3.968   2.183   3.155 -0.4658 -0.3789  0.2317
 7661SOL     OW30409   0.797   4.108   2.578  0.2758  0.3032 -0.0511
 7661SOL    HW230410   0.891   4.098   2.594  0.2090  0.5424  0.5154
 7661SOL    HW330411   0.781   4.056   2.499  1.0275  0.9159 -0.6266
 7661SOL    MW430412   0.808   4.099   2.569  0.3662  0.4156 -0.0523
 7662SOL     OW30413   2.629   0.160   5.883  0.1217  0.1468 -0.4517
 7662SOL    HW230414   2.650   0.123   5.969 -0.2098  0.0669 -0.4037
 7662SOL    HW330415   2.714   0.174   5.842  0.3377  1.3748  0.3751
 7662SOL    MW430416   2.643   0.157   5.889  0.1065  0.2983 -0.3363
 7663SOL     OW30417   1.609   1.140   4.714  0.3639 -0.9681 -0.2643
 7663SOL    HW230418   1.550   1.214   4.724  0.1916 -1.2842  1.3051
 7663SOL    HW330419   1.603   1.117   4.621  0.2013  0.7722 -0.7206
 7663SOL    MW430420   1.601   1.147   4.703  0.3197 -0.7802 -0.1175
 7664SOL     OW30421   3.757   4.724   0.290  0.4617 -0.2861 -0.1528
 7664SOL    HW230422   3.829   4.744   0.350 -0.0759 -1.0657  0.7692
 7664SOL    HW330423   3.760   4.629   0.279 -1.3846 -0.5686  1.1943
 7664SOL    MW430424   3.767   4.714   0.296  0.1471 -0.4262  0.1466
 7665SOL     OW30425   0.832   2.091   0.603 -0.2561  0.0620  0.0644
 7665SOL    HW230426   0.911   2.064   0.649  0.5659  1.1405 -0.6485
 7665SOL    HW330427   0.798   2.010   0.564  0.7409 -0.3540  0.0193
 7665SOL    MW430428   0.838   2.077   0.604 -0.0161  0.1494 -0.0356
 7666SOL     OW30429   0.072   0.811   4.121 -0.3080 -0.5422  0.9110
 7666SOL    HW230430   0.126   0.732   4.121  0.5414  0.0268  0.9671
 7666SOL    HW330431  -0.004   0.788   4.067  0.5908 -0.9576 -0.2265
 7666SOL    MW430432   0.069   0.797   4.114 -0.0774 -0.5219  0.7683
 7667SOL     OW30433   5.032   4.936   1.363 -0.3454 -0.5326 -0.2615
 7667SOL    HW230434   5.063   4.901   1.446 -1.3766  0.5937  0.6294
 7667SOL    HW330435   5.111   4.949   1.311  0.4359 -0.2067  0.9720
 7667SOL    MW430436   5.046   4.933   1.367 -0.3784 -0.3410  0.0188
 7668SOL     OW30437   0.747   3.561   1.420 -0.3072  0.1887  0.1927
 7668SOL    HW230438   0.802   3.637   1.440 -0.2027  0.8748 -2.3464
 7668SOL    HW330439   0.771   3.538   1.330  0.1669 -3.3136  1.0780
 7668SOL    MW430440   0.758   3.568   1.411 -0.2309 -0.1829 -0.0255
 7669SOL     OW30441   6.405   1.033   4.804 -0.7300 -0.1547  0.3221
 7669SOL    HW230442   6.319   1.072   4.823 -0.5842  0.5050 -0.3265
 7669SOL    HW330443   6.385   0.945   4.773 -1.2234  0.2332 -0.4908
 7669SOL    MW430444   6.391   1.027   4.803 -0.7759 -0.0165  0.1293
 7670SOL     OW30445   3.345   2.372   1.950 -0.1445  0.1796 -0.0556
 7670SOL    HW230446   3.290   2.349   2.025 -0.6429 -1.5408 -0.8953
 7670SOL    HW330447   3.409   2.434   1.985 -1.3578  0.6603  1.4054
 7670SOL    MW430448   3.346   2.377   1.964 -0.3703  0.0161  0.0264
 7671SOL     OW30449   4.984   3.470   3.834  0.0036  0.4732 -0.5719
 7671SOL    HW230450   4.923   3.455   3.762  0.4786 -0.5263 -0.7779
 7671SOL    HW330451   4.974   3.563   3.855 -2.4166  0.1395  0.1310
 7671SOL    MW430452   4.974   3.480   3.827 -0.2530  0.2973 -0.5063
 7672SOL     OW30453   3.273   1.503   4.692  0.0455  0.2912  0.2493
 7672SOL    HW230454   3.359   1.460   4.697 -0.0740 -0.7618 -3.5614
 7672SOL    HW330455   3.216   1.447   4.744  1.1559 -0.3899  0.7918
 7672SOL    MW430456   3.277   1.490   4.700  0.1762  0.0624 -0.1819
 7673SOL     OW30457   2.729   6.024   5.001 -0.4591  0.0522 -0.1130
 7673SOL    HW230458   2.724   5.971   5.081 -0.2622  0.4143  0.1395
 7673SOL    HW330459   2.803   6.083   5.015 -0.2132 -0.1060 -0.7028
 7673SOL    MW430460   2.738   6.025   5.013 -0.4007  0.0791 -0.1575
 7674SOL     OW30461   2.882   4.168   3.661  0.2260 -0.1602  0.3593
 7674SOL    HW230462   2.806   4.179   3.719  0.9848  2.1114  1.0331
 7674SOL    HW330463   2.870   4.233   3.592  0.7638 -0.8998 -0.4580
 7674SOL    MW430464   2.871   4.178   3.660  0.3971  0.0419  0.3404
 7675SOL     OW30465   3.823   5.052   1.156  0.0489  0.3282  0.3911
 7675SOL    HW230466   3.801   4.997   1.081 -0.1011  0.2043  0.5268
 7675SOL    HW330467   3.805   4.998   1.232  1.3205  0.0330  0.5069
 7675SOL    MW430468   3.817   5.038   1.156  0.1969  0.2729  0.4243
 7676SOL     OW30469   5.609   2.638   1.835 -0.3923 -0.0493  0.3767
 7676SOL    HW230470   5.628   2.546   1.815  0.7307 -0.4796  2.9699
 7676SOL    HW330471   5.672   2.688   1.784  0.0761 -0.8240  0.1900
 7676SOL    MW430472   5.620   2.632   1.826 -0.1823 -0.2083  0.6942
 7677SOL     OW30473   2.760   1.390   1.885  0.4579 -0.1143 -0.1828
 7677SOL    HW230474   2.734   1.310   1.840  0.2904 -1.3929  2.0213
 7677SOL    HW330475   2.680   1.444   1.885  0.5864  0.1182 -1.7194
 7677SOL    MW430476   2.746   1.387   1.879  0.4528 -0.2523 -0.0947
 7678SOL     OW30477   2.693   1.687   0.644 -0.0257 -0.4911 -0.0381
 7678SOL    HW230478   2.787   1.702   0.632 -0.0668 -1.0161 -1.1313
 7678SOL    HW330479   2.687   1.595   0.671 -0.2344 -0.4703 -0.0136
 7678SOL    MW430480   2.705   1.677   0.646 -0.0586 -0.5576 -0.1791
 7679SOL     OW30481   0.810   3.355   4.364 -0.0719 -0.0909  0.2482
 7679SOL    HW230482   0.849   3.428   4.412  0.8500 -0.3732 -0.0552
 7679SOL    HW330483   0.786   3.292   4.432 -0.8855  0.4817  0.5151
 7679SOL    MW430484   0.812   3.356   4.379 -0.0576 -0.0526  0.2434
 7680SOL     OW30485   5.379   4.713   3.510  0.0946 -0.0865  0.1279
 7680SOL    HW230486   5.451   4.775   3.525  0.0137  0.6077 -1.9478
 7680SOL    HW330487   5.308   4.746   3.565 -0.0344  1.8952 -1.1059
 7680SOL    MW430488   5.379   4.726   3.519  0.0669  0.2665 -0.3088
 7681SOL     OW30489   1.961   5.337   3.724 -0.1843  0.5721  0.2669
 7681SOL    HW230490   2.019   5.278   3.773 -1.1817 -0.6363  0.0671
 7681SOL    HW330491   2.020   5.389   3.669  0.8967  1.3122  2.0400
 7681SOL    MW430492   1.977   5.336   3.723 -0.1733  0.5103  0.4745
 7682SOL     OW30493   5.294   3.958   5.803  0.6111  0.5723 -0.0417
 7682SOL    HW230494   5.284   3.866   5.778 -1.9364  0.8294 -0.2603
 7682SOL    HW330495   5.331   4.000   5.725 -1.4090  0.2699 -1.2288
 7682SOL    MW430496   5.298   3.951   5.789  0.0084  0.5663 -0.2272
 7683SOL     OW30497   1.494   6.030   1.386 -0.0365 -0.5348 -0.4513
 7683SOL    HW230498   1.528   6.120   1.380 -0.1165 -0.1535  2.9799
 7683SOL    HW330499   1.547   5.989   1.455 -0.5761 -2.8844 -1.3441
 7683SOL    MW430500   1.506   6.037   1.394 -0.1182 -0.7945 -0.1164
 7684SOL     OW30501   3.513   0.948   2.558  0.4364  0.2826 -1.4925
 7684SOL    HW230502   3.465   0.865   2.549  1.0396 -0.2004 -0.3876
 7684SOL    HW330503   3.541   0.969   2.468  1.2224 -1.2845 -1.6518
 7684SOL    MW430504   3.510   0.940   2.545  0.6197  0.0121 -1.3677
 7685SOL     OW30505   2.634   4.951   4.516  0.0581  0.9401  0.6620
 7685SOL    HW230506   2.665   4.978   4.603 -1.6866  1.7382  1.0806
 7685SOL    HW330507   2.622   4.856   4.524  4.2328  0.1479 -0.1850
 7685SOL    MW430508   2.636   4.942   4.529  0.3787  0.9408  0.6055
 7686SOL     OW30509   1.714   6.182   5.106 -0.1360  0.1264  0.4975
 7686SOL    HW230510   1.778   6.180   5.035 -0.2721 -1.8200  0.3987
 7686SOL    HW330511   1.642   6.128   5.076  0.0540 -1.2469  2.3174
 7686SOL    MW430512   1.713   6.175   5.093 -0.1289 -0.3116  0.7245
 7687SOL     OW30513   1.325   4.548   2.540 -0.0998  0.6273 -0.2610
 7687SOL    HW230514   1.323   4.619   2.476 -0.9687 -0.5376 -1.5806
 7687SOL    HW330515   1.386   4.578   2.607 -0.0173  2.3697 -1.0567
 7687SOL    MW430516   1.333   4.561   2.541 -0.2036  0.7035 -0.5401
 7688SOL     OW30517   3.221   0.251   2.229  0.4860 -0.1472  0.0226
 7688SOL    HW230518   3.209   0.228   2.137  0.6697  1.2008 -0.3730
 7688SOL    HW330519   3.180   0.180   2.277 -0.7255 -0.2894 -1.1336
 7688SOL    MW430520   3.214   0.239   2.223  0.3504  0.0119 -0.1821
 7689SOL     OW30521   5.840   2.908   1.985  0.0542 -0.6122  0.3633
 7689SOL    HW230522   5.889   2.991   1.981  0.1105 -0.6301  0.6978
 7689SOL    HW330523   5.899   2.847   2.029  0.2301 -0.9831 -0.3766
 7689SOL    MW430524   5.854   2.911   1.990  0.0848 -0.6635  0.3098
 7690SOL     OW30525   0.897   3.047   1.825 -0.0118 -0.5292  0.5649
 7690SOL    HW230526   0.925   3.035   1.735  1.0245  1.8810  0.4942
 7690SOL    HW330527   0.977   3.039   1.877  0.2996  2.4984  0.7473
 7690SOL    MW430528   0.911   3.044   1.820  0.1660  0.1882  0.5797
 7691SOL     OW30529   6.240   0.128   5.895 -0.6573  0.5503 -0.1213
 7691SOL    HW230530   6.268   0.194   5.831  0.3866  0.6914  0.4655
 7691SOL    HW330531   6.202   0.058   5.842 -0.2877  0.8962 -0.8582
 7691SOL    MW430532   6.238   0.128   5.880 -0.4708  0.6145 -0.1411
 7692SOL     OW30533   2.905   1.866   6.344  0.3565  0.5027 -0.3051
 7692SOL    HW230534   2.991   1.894   6.312  1.3716  0.8322  2.4773
 7692SOL    HW330535   2.920   1.840   6.435 -2.3789 -0.1047  0.0573
 7692SOL    MW430536   2.918   1.866   6.352  0.1295  0.4660  0.1098
 7693SOL     OW30537   3.870   5.372   5.449 -0.6016  0.0300 -0.4567
 7693SOL    HW230538   3.875   5.369   5.544  1.5091  0.1464 -0.5232
 7693SOL    HW330539   3.926   5.301   5.419  0.7290  1.4950 -1.6034
 7693SOL    MW430540   3.878   5.362   5.458 -0.1476  0.2387 -0.6168
 7694SOL     OW30541   4.599   2.631   5.294  0.1407 -0.5824 -0.4709
 7694SOL    HW230542   4.678   2.651   5.345 -0.6825  0.1868  0.5449
 7694SOL    HW330543   4.537   2.699   5.319 -0.5278 -0.5928 -2.0084
 7694SOL    MW430544   4.602   2.642   5.304 -0.0561 -0.4823 -0.5397
 7695SOL     OW30545   4.896   0.649   5.305 -0.0880  0.4504 -0.2126
 7695SOL    HW230546   4.910   0.667   5.212 -0.6782  1.6547 -0.0873
 7695SOL    HW330547   4.894   0.735   5.347  0.4804 -0.0857  0.9725
 7695SOL    MW430548   4.898   0.662   5.298 -0.0909  0.5386 -0.0397
 7696SOL     OW30549   2.213   3.377   4.686 -0.2615  0.3575  0.0994
 7696SOL    HW230550   2.167   3.432   4.749  2.5914  1.3777  1.4461
 7696SOL    HW330551   2.258   3.311   4.739 -0.4865 -0.8835 -1.1818
 7696SOL    MW430552   2.213   3.376   4.701  0.0852  0.3284  0.1081
 7697SOL     OW30553  -0.001   5.975   2.825  0.4583 -0.1751  0.6132
 7697SOL    HW230554  -0.001   6.017   2.739  0.0479 -1.4864 -0.0533
 7697SOL    HW330555  -0.076   5.916   2.822  1.2156 -1.2087  1.3797
 7697SOL    MW430556  -0.011   5.973   2.813  0.5041 -0.4844  0.6264
 7698SOL     OW30557   2.681   1.361   0.963  0.6872 -0.0926 -0.0622
 7698SOL    HW230558   2.744   1.420   1.003 -1.1097  3.9339 -2.5737
 7698SOL    HW330559   2.595   1.398   0.984 -0.6006 -1.9987 -1.5231
 7698SOL    MW430560   2.678   1.374   0.971  0.2802  0.1871 -0.5863
 7699SOL     OW30561   0.223   1.804   3.895  0.4745 -0.0749  0.2147
 7699SOL    HW230562   0.267   1.744   3.956  0.9639  0.9842  0.9277
 7699SOL    HW330563   0.133   1.809   3.928  0.1293 -1.2461 -0.4925
 7699SOL    MW430564   0.217   1.797   3.908  0.4935 -0.0897  0.2155
 7700SOL     OW30565   6.222   5.539   1.662 -0.0869 -0.0109 -0.4161
 7700SOL    HW230566   6.220   5.443   1.653  0.7223 -0.0578 -0.2093
 7700SOL    HW330567   6.219   5.571   1.572 -0.8036 -0.2140 -0.4705
 7700SOL    MW430568   6.221   5.530   1.649 -0.0747 -0.0439 -0.3960
 7701SOL     OW30569   1.777   2.561   4.250 -0.4888 -0.0623 -0.2648
 7701SOL    HW230570   1.806   2.606   4.329  1.8102  0.2700 -1.2143
 7701SOL    HW330571   1.763   2.631   4.186  1.6900 -0.4984 -1.3176
 7701SOL    MW430572   1.778   2.576   4.252  0.1020 -0.0760 -0.5290
 7702SOL     OW30573   4.200   3.011   4.074 -0.0846 -0.4731  0.2787
 7702SOL    HW230574   4.283   3.030   4.030  0.2519  1.0004  1.4596
 7702SOL    HW330575   4.157   3.096   4.080 -0.2125 -0.6549  2.5637
 7702SOL    MW430576   4.205   3.025   4.069 -0.0571 -0.3027  0.7360
 7703SOL     OW30577   5.242   3.359   1.789 -0.2635 -0.4970 -0.1148
 7703SOL    HW230578   5.172   3.304   1.755  1.1099 -1.4879 -1.5202
 7703SOL    HW330579   5.307   3.362   1.718  1.8799 -1.0068  1.6955
 7703SOL    MW430580   5.241   3.353   1.775  0.2005 -0.6950 -0.0613
 7704SOL     OW30581   0.993   1.818   4.299  0.2261 -0.3864 -0.5239
 7704SOL    HW230582   1.037   1.739   4.329 -1.4414 -0.6360  1.6117
 7704SOL    HW330583   1.046   1.890   4.334  0.1899 -0.6403  0.0708
 7704SOL    MW430584   1.006   1.817   4.308  0.0013 -0.4528 -0.1636
 7705SOL     OW30585   3.037   2.400   2.627  0.0380  0.3280 -0.0921
 7705SOL    HW230586   3.112   2.436   2.580 -0.5085 -0.2136 -1.4244
 7705SOL    HW330587   3.018   2.317   2.583  0.4001 -0.9424  2.0133
 7705SOL    MW430588   3.044   2.394   2.615  0.0137  0.0889  0.0099
 7706SOL     OW30589   4.253   0.974   2.442 -0.3225  0.2454  0.0463
 7706SOL    HW230590   4.181   1.025   2.405 -0.8535 -0.1179  0.5623
 7706SOL    HW330591   4.212   0.920   2.509  0.4638  0.1812  0.4891
 7706SOL    MW430592   4.238   0.974   2.446 -0.2888  0.1890  0.1728
 7707SOL     OW30593   2.061   4.055   3.255 -0.1385  0.3346 -0.0760
 7707SOL    HW230594   2.153   4.079   3.253  0.2342 -0.9364  0.7959
 7707SOL    HW330595   2.050   4.006   3.336 -1.5427  0.2973 -0.2572
 7707SOL    MW430596   2.071   4.052   3.265 -0.2746  0.1619  0.0151
 7708SOL     OW30597   3.202   6.297   2.889  0.3258  0.1229  0.4452
 7708SOL    HW230598   3.215   6.212   2.931  2.7724 -0.5539 -1.4291
 7708SOL    HW330599   3.137   6.280   2.821  1.8877 -0.7304 -0.9207
 7708SOL    MW430600   3.195   6.283   2.886  0.8547 -0.0790  0.0177
 7709SOL     OW30601   6.365   4.307   5.504 -0.1019 -0.0434 -0.5173
 7709SOL    HW230602   6.288   4.322   5.559 -0.7917 -1.2523 -1.1172
 7709SOL    HW330603   6.433   4.281   5.566 -0.1208  1.1892  0.0379
 7709SOL    MW430604   6.364   4.305   5.519 -0.1954 -0.0403 -0.5232
 7710SOL     OW30605   0.362   1.117   5.031 -0.1841  0.6942  0.8799
 7710SOL    HW230606   0.436   1.056   5.023  0.0259  0.9144  1.1206
 7710SOL    HW330607   0.285   1.060   5.035  0.1016  0.3503  2.4167
 7710SOL    MW430608   0.362   1.101   5.031 -0.1187  0.6779  1.1144
 7711SOL     OW30609   3.693   6.114   6.218 -0.0021  0.0455 -0.3429
 7711SOL    HW230610   3.684   6.019   6.203  1.0815 -0.2628  0.8159
 7711SOL    HW330611   3.641   6.131   6.296 -1.5676  0.7457 -1.4852
 7711SOL    MW430612   3.685   6.103   6.226 -0.0657  0.0972 -0.3408
 7712SOL     OW30613   4.552   3.570   6.313  0.2329 -0.4584 -0.2093
 7712SOL    HW230614   4.646   3.562   6.329  0.3894  1.9409  0.5218
 7712SOL    HW330615   4.518   3.607   6.394 -0.9807  0.6971 -1.2110
 7712SOL    MW430616   4.560   3.574   6.326  0.0935  0.0106 -0.2450
 7713SOL     OW30617   5.599   0.185   1.050  0.2256 -0.5366 -0.3197
 7713SOL    HW230618   5.591   0.257   1.113  1.5161  0.0617 -0.7945
 7713SOL    HW330619   5.571   0.108   1.099 -0.8668  0.2311  0.3040
 7713SOL    MW430620   5.594   0.185   1.065  0.2517 -0.3564 -0.3001
 7714SOL     OW30621   3.445   5.338   0.172 -0.2669  0.6568 -0.3266
 7714SOL    HW230622   3.444   5.407   0.106 -0.4650 -1.2680 -2.4175
 7714SOL    HW330623   3.353   5.321   0.191 -0.2384  0.4117 -0.4063
 7714SOL    MW430624   3.433   5.345   0.166 -0.2893  0.3705 -0.6130
 7715SOL     OW30625   1.312   0.438   3.993  0.0396  0.4847  0.4585
 7715SOL    HW230626   1.406   0.432   3.980 -0.0524 -1.2659  0.3620
 7715SOL    HW330627   1.302   0.447   4.088  0.3092 -0.0348  0.5450
 7715SOL    MW430628   1.323   0.438   4.004  0.0630  0.1852  0.4572
 7716SOL     OW30629   5.767   4.550   1.394  0.9755 -0.7813 -0.1266
 7716SOL    HW230630   5.803   4.612   1.456 -0.0313 -1.1936  0.8995
 7716SOL    HW330631   5.673   4.547   1.414  0.4875 -0.3909 -2.1290
 7716SOL    MW430632   5.759   4.557   1.405  0.7783 -0.7842 -0.2554
 7717SOL     OW30633   0.878   3.104   2.699  0.0094  0.0237  0.1605
 7717SOL    HW230634   0.908   3.023   2.739 -1.1829  0.0526  1.2058
 7717SOL    HW330635   0.930   3.172   2.742 -1.0500  0.0275  1.5240
 7717SOL    MW430636   0.889   3.103   2.710 -0.2877  0.0280  0.4784
 7718SOL     OW30637   3.640   3.225   5.869  0.1696 -0.3057  0.3137
 7718SOL    HW230638   3.721   3.253   5.912  1.2000 -2.3592 -0.1932
 7718SOL    HW330639   3.635   3.278   5.789  1.1962 -0.4088  0.1779
 7718SOL    MW430640   3.650   3.236   5.864  0.4410 -0.5902  0.2289
 7719SOL     OW30641   3.111   0.042   0.307 -0.1828  0.3428 -0.6478
 7719SOL    HW230642   3.026   0.078   0.331 -0.1201 -0.9000  1.7573
 7719SOL    HW330643   3.094  -0.011   0.230 -1.0937  1.9800 -1.6115
 7719SOL    MW430644   3.098   0.039   0.300 -0.2947  0.3948 -0.4576
 7720SOL     OW30645   6.272   0.262   1.625  0.3355  0.1905 -0.3551
 7720SOL    HW230646   6.300   0.229   1.711 -1.5903 -1.0534 -0.1478
 7720SOL    HW330647   6.252   0.183   1.575  0.3477  0.9419 -1.5785
 7720SOL    MW430648   6.273   0.247   1.630  0.0831  0.1255 -0.4891
 7721SOL     OW30649   3.794   3.732   4.689 -0.1049 -0.2208  0.2380
 7721SOL    HW230650   3.715   3.758   4.736 -0.3339  0.0879 -0.3066
 7721SOL    HW330651   3.797   3.636   4.698 -0.9001 -0.3038 -0.2879
 7721SOL    MW430652   3.784   3.723   4.696 -0.2400 -0.1911  0.0968
 7722SOL     OW30653   0.939   2.099   1.353 -0.5508  0.3036 -0.3275
 7722SOL    HW230654   0.984   2.164   1.300 -1.1526 -0.5980 -2.0366
 7722SOL    HW330655   0.910   2.032   1.290 -0.6270 -1.2281  1.2410
 7722SOL    MW430656   0.941   2.098   1.337 -0.6402 -0.0175 -0.3461
 7723SOL     OW30657   0.885   4.752   0.036  0.6267 -0.1504 -0.3402
 7723SOL    HW230658   0.829   4.826   0.058  0.9785 -0.2992  1.2036
 7723SOL    HW330659   0.864   4.731  -0.055  0.0917  1.4474 -0.6096
 7723SOL    MW430660   0.875   4.759   0.027  0.6025  0.0408 -0.1720
 7724SOL     OW30661   0.248   1.201   2.690  0.0807  0.2132  0.1479
 7724SOL    HW230662   0.299   1.135   2.645  1.6790  0.6863  1.1915
 7724SOL    HW330663   0.291   1.284   2.668 -2.4057  1.1221 -1.8854
 7724SOL    MW430664   0.260   1.204   2.681 -0.0365  0.3956  0.0174
 7725SOL     OW30665   1.356   0.552   5.130  0.3369 -0.3829  0.1574
 7725SOL    HW230666   1.307   0.634   5.121  0.7540 -0.1602 -0.1255
 7725SOL    HW330667   1.379   0.528   5.040  0.2827 -0.7739  0.2475
 7725SOL    MW430668   1.352   0.560   5.117  0.3848 -0.4051  0.1319
 7726SOL     OW30669   3.269   0.800   3.296  0.3968 -0.2277  0.2775
 7726SOL    HW230670   3.233   0.713   3.312 -0.0449 -0.5196 -2.0274
 7726SOL    HW330671   3.195   0.860   3.305  0.3727 -0.2665  0.3336
 7726SOL    MW430672   3.255   0.797   3.299  0.3353 -0.2713 -0.0192
 7727SOL     OW30673   3.374   3.199   5.957 -0.0119 -0.0206  0.3429
 7727SOL    HW230674   3.442   3.200   5.890 -0.5433 -0.6840 -0.2302
 7727SOL    HW330675   3.416   3.232   6.036  0.8759 -0.1048 -0.0908
 7727SOL    MW430676   3.388   3.203   5.959  0.0352 -0.1192  0.2100
 7728SOL     OW30677   0.022   3.929   5.736 -0.4440  0.1395 -0.0320
 7728SOL    HW230678  -0.031   3.904   5.660  2.4841 -2.2203 -1.5082
 7728SOL    HW330679   0.067   4.010   5.709 -0.1775 -0.1391 -0.4281
 7728SOL    MW430680   0.021   3.937   5.722 -0.0225 -0.2086 -0.2791
 7729SOL     OW30681   5.820   2.492   5.311  0.0798 -0.0146  0.1979
 7729SOL    HW230682   5.911   2.463   5.319 -0.3194 -0.9089  1.8580
 7729SOL    HW330683   5.827   2.582   5.278  1.5215 -0.2807 -0.3267
 7729SOL    MW430684   5.833   2.500   5.307  0.2173 -0.1677  0.3477
 7730SOL     OW30685   0.931   4.954   5.068 -0.3315 -0.0130 -0.0097
 7730SOL    HW230686   0.885   4.896   5.007  1.3278 -0.6015 -0.7968
 7730SOL    HW330687   0.862   5.000   5.115 -1.6942 -0.5469 -1.3832
 7730SOL    MW430688   0.916   4.952   5.066 -0.2924 -0.1611 -0.2948
 7731SOL     OW30689   4.420   5.617   1.043 -0.1910 -0.3572  0.1073
 7731SOL    HW230690   4.466   5.582   1.119  0.0290 -0.1390  0.0732
 7731SOL    HW330691   4.338   5.652   1.079 -0.7346 -1.5037  0.0564
 7731SOL    MW430692   4.415   5.617   1.058 -0.2337 -0.4796  0.0961
 7732SOL     OW30693   5.561   1.845   5.679 -0.4014 -0.2581  0.3267
 7732SOL    HW230694   5.549   1.940   5.678  0.9416 -0.0675  0.2003
 7732SOL    HW330695   5.484   1.810   5.634 -1.5630  0.6697  1.5242
 7732SOL    MW430696   5.549   1.853   5.673 -0.3774 -0.1106  0.4680
 7733SOL     OW30697   0.814   3.000   3.379  0.0383 -0.1256  0.7958
 7733SOL    HW230698   0.907   2.996   3.401  0.0846  1.8989  1.1019
 7733SOL    HW330699   0.783   2.910   3.393  1.9533 -0.8724  0.5606
 7733SOL    MW430700   0.822   2.987   3.384  0.2970  0.0430  0.8052
 7734SOL     OW30701   0.265   3.065   1.934 -0.0059 -0.4252 -0.1424
 7734SOL    HW230702   0.254   3.153   1.897 -0.8795 -0.4763 -0.0184
 7734SOL    HW330703   0.179   3.024   1.924 -0.2189 -0.5043  1.7799
 7734SOL    MW430704   0.253   3.071   1.927 -0.1493 -0.4423  0.1276
 7735SOL     OW30705   3.528   0.269   2.688  0.8383 -0.3265  0.0499
 7735SOL    HW230706   3.569   0.352   2.713  0.5957 -0.0871 -0.3337
 7735SOL    HW330707   3.590   0.202   2.717 -0.2777 -0.2200  3.1462
 7735SOL    MW430708   3.542   0.271   2.695  0.6591 -0.2809  0.4078
 7736SOL     OW30709   3.370   1.139   4.907  0.2838 -0.4197 -0.0338
 7736SOL    HW230710   3.366   1.231   4.935 -1.3286 -0.4540 -0.0176
 7736SOL    HW330711   3.386   1.143   4.813 -1.4715 -0.0137 -0.3620
 7736SOL    MW430712   3.371   1.152   4.898 -0.1605 -0.3706 -0.0750
 7737SOL     OW30713   0.315   3.220   6.245 -0.1561 -0.1771 -0.0030
 7737SOL    HW230714   0.343   3.301   6.203  0.3331 -1.0151 -1.3623
 7737SOL    HW330715   0.375   3.210   6.319 -0.2762  0.7359  0.2286
 7737SOL    MW430716   0.327   3.229   6.249 -0.1074 -0.1672 -0.1518
 7738SOL     OW30717   4.246   0.839   2.158 -0.3811  0.3188 -0.1575
 7738SOL    HW230718   4.255   0.886   2.241 -1.0243  1.5925 -0.7854
 7738SOL    HW330719   4.157   0.805   2.159  0.4944 -2.1433  0.8932
 7738SOL    MW430720   4.235   0.841   2.169 -0.3504  0.1620 -0.1017
 7739SOL     OW30721   4.256   3.213   3.881  0.9368  0.1701 -0.4239
 7739SOL    HW230722   4.306   3.168   3.813  0.5784  0.2213 -0.7302
 7739SOL    HW330723   4.165   3.203   3.853  0.8752  1.4590 -0.7263
 7739SOL    MW430724   4.250   3.205   3.868  0.8814  0.3469 -0.5042
 7740SOL     OW30725   5.655   2.845   1.322  0.2393 -0.4224  0.2119
 7740SOL    HW230726   5.617   2.816   1.405  0.3695 -1.6086 -0.1340
 7740SOL    HW330727   5.716   2.915   1.347  0.1839 -0.6804  1.1003
 7740SOL    MW430728   5.658   2.850   1.336  0.2492 -0.6129  0.2835
 7741SOL     OW30729   6.118   2.224   5.207  0.2593 -0.0048  0.4767
 7741SOL    HW230730   6.207   2.202   5.178 -0.5775 -0.5228 -1.9909
 7741SOL    HW330731   6.086   2.144   5.248  0.4536 -0.3054  0.0588
 7741SOL    MW430732   6.126   2.211   5.208  0.1745 -0.1128  0.0960
 7742SOL     OW30733   0.749   0.242   5.443  0.4641 -0.3999  0.4470
 7742SOL    HW230734   0.790   0.304   5.503 -1.0746 -0.8415  2.0545
 7742SOL    HW330735   0.670   0.287   5.412  0.3234 -0.8442  0.1431
 7742SOL    MW430736   0.744   0.256   5.447  0.2425 -0.5168  0.6190
 7743SOL     OW30737   0.704   0.882   6.223 -0.5458  0.4388  0.4121
 7743SOL    HW230738   0.773   0.949   6.224  0.1268 -0.2371 -0.1155
 7743SOL    HW330739   0.695   0.858   6.131  0.0628 -1.0375  0.7032
 7743SOL    MW430740   0.712   0.888   6.211 -0.3768  0.1549  0.3809
 7744SOL     OW30741   6.288   1.364   4.323  0.1168 -0.1717  0.4979
 7744SOL    HW230742   6.297   1.318   4.407 -0.4343  0.5490  0.9657
 7744SOL    HW330743   6.295   1.457   4.346 -0.6319  0.0593 -0.1640
 7744SOL    MW430744   6.290   1.370   4.337 -0.0547 -0.0462  0.4723
 7745SOL     OW30745   5.527   0.268   2.552  0.5954 -0.1811 -0.3504
 7745SOL    HW230746   5.511   0.290   2.460  0.1791 -1.1856 -0.5263
 7745SOL    HW330747   5.502   0.347   2.600 -1.0471 -0.3090 -0.9459
 7745SOL    MW430748   5.522   0.282   2.546  0.3238 -0.3305 -0.4522
 7746SOL     OW30749   1.978   2.649   0.136  0.4807  0.0090  0.2271
 7746SOL    HW230750   2.033   2.590   0.187  0.9059  1.5138  1.6238
 7746SOL    HW330751   1.959   2.602   0.055  0.4741 -2.1467  1.4262
 7746SOL    MW430752   1.983   2.635   0.132  0.5359 -0.0769  0.5696
 7747SOL     OW30753   2.309   2.808   0.469 -0.5084  0.3533  0.4312
 7747SOL    HW230754   2.298   2.773   0.381 -0.3548 -1.0413  0.9360
 7747SOL    HW330755   2.222   2.839   0.494 -0.4438  1.2256 -0.3840
 7747SOL    MW430756   2.296   2.807   0.461 -0.4796  0.2844  0.3902
 7748SOL     OW30757   5.467   5.240   5.006  0.4452  0.0456  0.4525
 7748SOL    HW230758   5.439   5.320   4.962  0.7415 -0.2357 -0.2597
 7748SOL    HW330759   5.515   5.191   4.939 -1.3974 -1.6536  0.2965
 7748SOL    MW430760   5.470   5.244   4.992  0.2412 -0.2157  0.3380
 7749SOL     OW30761   0.729   2.548   1.764 -0.0681  0.0121  0.3465
 7749SOL    HW230762   0.634   2.544   1.773 -0.1616  2.0197  0.9233
 7749SOL    HW330763   0.762   2.534   1.853  0.2152 -1.1105  0.0737
 7749SOL    MW430764   0.721   2.546   1.777 -0.0431  0.1289  0.3866
 7750SOL     OW30765   0.670   1.410   3.622  0.3223 -0.3001 -0.3422
 7750SOL    HW230766   0.761   1.404   3.652  0.4780  1.8696 -0.2127
 7750SOL    HW330767   0.629   1.329   3.653  2.1977 -1.3199 -0.4078
 7750SOL    MW430768   0.677   1.399   3.630  0.5903 -0.1483 -0.3337
 7751SOL     OW30769   4.958   3.052   2.514 -0.4080  0.0629 -0.1594
 7751SOL    HW230770   4.913   2.970   2.496 -1.4799  0.1698  1.8078
 7751SOL    HW330771   4.975   3.090   2.427 -1.2763 -1.4846 -1.0358
 7751SOL    MW430772   4.955   3.046   2.500 -0.6640 -0.1271 -0.0155
 7752SOL     OW30773   4.820   3.188   6.392 -0.2241  0.6266  0.3666
 7752SOL    HW230774   4.876   3.117   6.363  0.1835  1.7735 -1.8905
 7752SOL    HW330775   4.881   3.258   6.417 -0.5954  1.4081 -0.8283
 7752SOL    MW430776   4.836   3.188   6.392 -0.2193  0.8810 -0.0889
 7753SOL     OW30777   6.227   3.964   2.192 -0.6575  0.3232  0.1902
 7753SOL    HW230778   6.162   3.899   2.164 -0.7366  0.1682  0.7176
 7753SOL    HW330779   6.201   3.987   2.281  0.6147 -0.5303  0.8184
 7753SOL    MW430780   6.215   3.958   2.200 -0.5000  0.1901  0.3427
 7754SOL     OW30781   2.058   1.376   0.458  0.2285  0.9465  0.0126
 7754SOL    HW230782   2.138   1.366   0.406  0.7401 -1.1923  1.0635
 7754SOL    HW330783   1.989   1.338   0.403  0.7352 -1.1358  0.7124
 7754SOL    MW430784   2.059   1.369   0.444  0.3628  0.3896  0.2436
 7755SOL     OW30785   6.251   2.322   6.055  0.4743  0.1042 -0.0329
 7755SOL    HW230786   6.246   2.415   6.033  1.1187 -0.1525 -1.3268
 7755SOL    HW330787   6.176   2.308   6.113 -0.1683  1.2301 -0.5472
 7755SOL    MW430788   6.240   2.333   6.060  0.4745  0.2189 -0.2715
 7756SOL     OW30789   1.997   6.248   4.587  0.2044  0.0229 -0.0381
 7756SOL    HW230790   2.045   6.254   4.504 -1.8754  0.2195 -1.2838
 7756SOL    HW330791   2.013   6.333   4.629  1.7673 -0.3000  0.1054
 7756SOL    MW430792   2.006   6.260   4.581  0.1362  0.0062 -0.1835
 7757SOL     OW30793   0.758   1.323   2.610  0.6651  0.0896  0.0607
 7757SOL    HW230794   0.738   1.410   2.645 -1.9633  0.0535 -1.1429
 7757SOL    HW330795   0.779   1.270   2.687 -3.2940  0.4122  1.5615
 7757SOL    MW430796   0.758   1.328   2.624 -0.2040  0.1274  0.0999
 7758SOL     OW30797   1.652   0.624   0.001  0.0753  0.3401  0.0105
 7758SOL    HW230798   1.711   0.643  -0.071  0.1955 -2.9007 -0.8999
 7758SOL    HW330799   1.710   0.596   0.073 -0.1965  0.5202  0.3040
 7758SOL    MW430800   1.667   0.623   0.001  0.0553 -0.0637 -0.0709
 7759SOL     OW30801   1.009   4.111   6.123  0.3613  0.3439 -0.4022
 7759SOL    HW230802   0.948   4.039   6.105  1.4200 -0.2605 -1.7988
 7759SOL    HW330803   0.981   4.145   6.207  0.8673 -2.8219  1.2058
 7759SOL    MW430804   0.997   4.106   6.132  0.5678 -0.1535 -0.3743
 7760SOL     OW30805   2.597   0.472   0.314  0.1078 -0.6008 -0.0824
 7760SOL    HW230806   2.620   0.380   0.329  0.1841 -0.9394 -2.0618
 7760SOL    HW330807   2.613   0.486   0.221 -1.3509  1.0156 -0.1339
 7760SOL    MW430808   2.602   0.462   0.304 -0.0746 -0.4322 -0.3504
 7761SOL     OW30809   2.613   4.478   4.387  0.4800 -0.5019 -0.3006
 7761SOL    HW230810   2.621   4.545   4.319 -0.5626  0.4276  0.4347
 7761SOL    HW330811   2.692   4.426   4.379  1.1260  0.5545 -1.1906
 7761SOL    MW430812   2.624   4.480   4.377  0.4277 -0.2399 -0.3210
 7762SOL     OW30813   5.578   4.199   5.763 -0.1968  0.2643 -0.3308
 7762SOL    HW230814   5.493   4.228   5.730 -0.3027 -0.6734 -0.9179
 7762SOL    HW330815   5.606   4.270   5.821 -2.0707 -0.0894  1.1103
 7762SOL    MW430816   5.571   4.213   5.766 -0.4580  0.0939 -0.2181
 7763SOL     OW30817   5.575   1.121   6.081 -0.0103 -0.0124  0.0179
 7763SOL    HW230818   5.640   1.058   6.050 -1.7008 -1.3826 -0.9725
 7763SOL    HW330819   5.600   1.204   6.041  2.3201  0.0225  1.4161
 7763SOL    MW430820   5.587   1.123   6.071  0.0742 -0.1886  0.0717
 7764SOL     OW30821   2.201   2.402   0.873 -0.5509  0.4583  0.4890
 7764SOL    HW230822   2.141   2.476   0.867  0.5644  1.2940 -1.3148
 7764SOL    HW330823   2.181   2.350   0.795 -0.1198 -0.1811  0.7988
 7764SOL    MW430824   2.190   2.405   0.862 -0.3468  0.4842  0.2919
 7765SOL     OW30825   4.294   1.806   6.353 -0.4089 -0.6983 -0.1435
 7765SOL    HW230826   4.232   1.820   6.281 -0.3235 -2.2174 -0.5397
 7765SOL    HW330827   4.373   1.772   6.310  0.0742 -0.4578  0.5484
 7765SOL    MW430828   4.296   1.803   6.338 -0.3339 -0.8670 -0.1045
 7766SOL     OW30829   2.872   6.281   0.492 -0.4703 -0.2513  0.1563
 7766SOL    HW230830   2.963   6.303   0.514 -0.3319 -0.5963 -0.0572
 7766SOL    HW330831   2.875   6.187   0.472 -0.7272 -0.1085 -0.5947
 7766SOL    MW430832   2.885   6.272   0.492 -0.4859 -0.2780  0.0291
 7767SOL     OW30833   1.933   2.951   6.162  0.1741  0.1124 -0.1791
 7767SOL    HW230834   1.927   2.935   6.256  1.7154  0.1672 -0.0360
 7767SOL    HW330835   1.971   2.870   6.127 -0.6726 -0.0215 -0.8031
 7767SOL    MW430836   1.938   2.938   6.170  0.2658  0.1019 -0.2425
 7768SOL     OW30837   5.131   1.924   5.460 -0.1451 -0.2366  0.3226
 7768SOL    HW230838   5.057   1.979   5.434 -0.2078 -0.6104 -0.3046
 7768SOL    HW330839   5.201   1.949   5.400  0.0824 -0.2624  0.5728
 7768SOL    MW430840   5.130   1.935   5.449 -0.1234 -0.2893  0.2728
 7769SOL     OW30841   0.530   4.641   3.683 -0.0152  0.2034  0.0682
 7769SOL    HW230842   0.601   4.695   3.716  0.0644  0.2901 -0.2395
 7769SOL    HW330843   0.521   4.666   3.591 -0.4180  0.1660  0.0941
 7769SOL    MW430844   0.538   4.651   3.675 -0.0578  0.2099  0.0310
 7770SOL     OW30845   1.779   2.435   5.548 -0.7640 -0.3280 -0.3385
 7770SOL    HW230846   1.806   2.527   5.550 -1.4243 -0.0790 -1.7871
 7770SOL    HW330847   1.733   2.422   5.631  0.9414  0.1087  0.7257
 7770SOL    MW430848   1.777   2.445   5.559 -0.6261 -0.2375 -0.3892
 7771SOL     OW30849   6.119   2.115   5.824 -0.1672 -0.4170  0.4035
 7771SOL    HW230850   6.146   2.094   5.735 -0.8634 -2.2880  0.6019
 7771SOL    HW330851   6.062   2.043   5.850 -0.2737  0.2761  2.2356
 7771SOL    MW430852   6.115   2.103   5.816 -0.2731 -0.5724  0.6714
 7772SOL     OW30853   0.077   5.486   2.267 -0.2274 -0.0389 -0.0963
 7772SOL    HW230854   0.008   5.548   2.292 -1.1050 -0.6704 -0.8901
 7772SOL    HW330855   0.051   5.404   2.309  0.6846  0.0065  0.5717
 7772SOL    MW430856   0.064   5.483   2.276 -0.2229 -0.1162 -0.1129
 7773SOL     OW30857   2.481   0.027   5.402 -0.3848 -0.5061  0.9595
 7773SOL    HW230858   2.470   0.030   5.497 -1.6375 -1.7051  0.8887
 7773SOL    HW330859   2.432   0.103   5.370 -1.7060 -1.2278  1.1790
 7773SOL    MW430860   2.473   0.037   5.411 -0.7244 -0.7595  0.9792
 7774SOL     OW30861   6.122   2.990   0.156 -0.3562  0.1951 -0.4108
 7774SOL    HW230862   6.103   3.083   0.147  0.3447  0.4364  0.4821
 7774SOL    HW330863   6.188   2.985   0.225  0.1945 -0.9065 -0.9921
 7774SOL    MW430864   6.128   3.001   0.164 -0.1911  0.0816 -0.3697
 7775SOL     OW30865   0.736   4.243   2.940 -0.0078 -0.2375 -0.3189
 7775SOL    HW230866   0.816   4.258   2.990 -2.1493  2.0079  2.7737
 7775SOL    HW330867   0.727   4.321   2.884 -0.8368  0.3859  0.6420
 7775SOL    MW430868   0.745   4.256   2.939 -0.3997  0.1410  0.2159
 7776SOL     OW30869   5.472   3.380   0.939 -0.6352 -0.3948 -0.0873
 7776SOL    HW230870   5.379   3.404   0.948 -0.1067  1.4276  1.2945
 7776SOL    HW330871   5.471   3.296   0.894 -2.8736  0.4419 -1.8122
 7776SOL    MW430872   5.459   3.372   0.934 -0.8608 -0.0440 -0.1325
 7777SOL     OW30873   3.807   6.346   3.641 -0.2650  0.5098 -0.1502
 7777SOL    HW230874   3.855   6.340   3.724  0.7748  0.1041 -0.7661
 7777SOL    HW330875   3.875   6.352   3.574 -1.0719  0.0839 -1.0373
 7777SOL    MW430876   3.822   6.346   3.643 -0.2343  0.4001 -0.3485
 7778SOL     OW30877   6.014   3.004   0.460 -0.4877 -0.5023  0.1329
 7778SOL    HW230878   5.957   2.944   0.412  0.1791 -1.1712  0.1459
 7778SOL    HW330879   6.101   2.964   0.454 -0.3321 -0.4683  1.6595
 7778SOL    MW430880   6.018   2.991   0.453 -0.3792 -0.5860  0.3360
 7779SOL     OW30881   2.732   4.092   5.699 -0.5083  0.1164  0.5298
 7779SOL    HW230882   2.825   4.105   5.717  0.4015 -0.5957 -2.9385
 7779SOL    HW330883   2.698   4.180   5.684  0.5319  0.2005 -1.6964
 7779SOL    MW430884   2.740   4.105   5.699 -0.2510  0.0335 -0.2215
 7780SOL     OW30885   2.525   0.712   3.240  0.2519  0.1062  0.0207
 7780SOL    HW230886   2.438   0.692   3.205 -0.3901  0.6549  1.2392
 7780SOL    HW330887   2.565   0.768   3.174 -0.1474 -0.4790 -0.7385
 7780SOL    MW430888   2.519   0.717   3.227  0.1145  0.1014  0.0813
 7781SOL     OW30889   5.849   2.882   0.082  0.2836  0.1829  0.7417
 7781SOL    HW230890   5.865   2.791   0.057 -0.4651  0.9921 -3.4406
 7781SOL    HW330891   5.936   2.916   0.105  2.0206 -0.0455 -4.2477
 7781SOL    MW430892   5.863   2.875   0.081  0.4140  0.2595 -0.4684
 7782SOL     OW30893   3.656   4.726   3.410 -0.2751  0.0298  0.3004
 7782SOL    HW230894   3.656   4.631   3.398  0.0565  0.0856 -0.1170
 7782SOL    HW330895   3.565   4.752   3.393 -0.6657 -0.3640  1.6376
 7782SOL    MW430896   3.644   4.717   3.406 -0.2829 -0.0148  0.4218
 7783SOL     OW30897   0.954   1.308   3.663 -0.5253 -0.2920 -0.4156
 7783SOL    HW230898   1.007   1.277   3.736  0.8739  1.7864 -0.4463
 7783SOL    HW330899   0.926   1.229   3.618  0.9135 -1.5364  0.7582
 7783SOL    MW430900   0.957   1.294   3.667 -0.1508 -0.1820 -0.2648
 7784SOL     OW30901   5.670   4.298   3.631 -0.2245  0.4822 -0.1910
 7784SOL    HW230902   5.676   4.207   3.603 -2.6446  0.3350 -0.3895
 7784SOL    HW330903   5.703   4.297   3.721 -0.4077 -0.6323 -0.1196
 7784SOL    MW430904   5.676   4.286   3.639 -0.5679  0.3158 -0.2078
 7785SOL     OW30905   1.873   4.960   3.264 -0.5172  0.4457 -0.2968
 7785SOL    HW230906   1.865   4.911   3.346  1.0097 -0.5252 -0.6790
 7785SOL    HW330907   1.784   4.992   3.246 -0.9685  0.3217  1.4916
 7785SOL    MW430908   1.860   4.958   3.272 -0.3753  0.3012 -0.1113
 7786SOL     OW30909   2.439   4.882   5.231  0.5138 -0.1116  0.0613
 7786SOL    HW230910   2.508   4.927   5.281  1.1286  0.3817 -1.1868
 7786SOL    HW330911   2.436   4.794   5.268  0.2518  0.5100  1.6311
 7786SOL    MW430912   2.447   4.877   5.243  0.5604  0.0355  0.1038
 7787SOL     OW30913   5.594   5.838   1.101 -0.8022  0.5667 -0.1948
 7787SOL    HW230914   5.579   5.765   1.041 -2.6207  0.4276  0.3955
 7787SOL    HW330915   5.541   5.819   1.178 -0.7064  2.1320  0.2995
 7787SOL    MW430916   5.585   5.826   1.103 -1.0295  0.7549 -0.0517
 7788SOL     OW30917   0.382   1.360   5.205  0.5520 -0.1435  0.3874
 7788SOL    HW230918   0.388   1.361   5.301  1.5016  0.4424  0.3301
 7788SOL    HW330919   0.342   1.275   5.184 -0.7984  0.2149  1.3551
 7788SOL    MW430920   0.377   1.349   5.215  0.4992 -0.0189  0.5075
 7789SOL     OW30921   2.776   0.426   3.975 -0.4666 -0.4067 -0.6704
 7789SOL    HW230922   2.700   0.378   3.943 -1.7194  0.4534  0.8809
 7789SOL    HW330923   2.747   0.466   4.057  2.2830 -1.8132  1.1428
 7789SOL    MW430924   2.762   0.425   3.982 -0.2691 -0.4788 -0.2265
 7790SOL     OW30925   3.149   0.385   6.350  0.2766  0.2716 -0.2702
 7790SOL    HW230926   3.177   0.475   6.333  0.4064  0.2098 -0.3859
 7790SOL    HW330927   3.076   0.370   6.289 -0.4093  0.6297  0.4399
 7790SOL    MW430928   3.143   0.395   6.340  0.2032  0.3107 -0.1918
 7791SOL     OW30929   5.896   3.328   3.595 -0.3590  0.4260 -0.1798
 7791SOL    HW230930   5.854   3.407   3.630 -3.8628 -0.5629 -1.6511
 7791SOL    HW330931   5.871   3.258   3.655  2.1114  0.2156  0.7135
 7791SOL    MW430932   5.887   3.329   3.607 -0.4954  0.2678 -0.2561
 7792SOL     OW30933   2.674   4.879   1.127  0.0751  0.2020 -0.5395
 7792SOL    HW230934   2.734   4.822   1.078  0.1837 -0.5322  0.4331
 7792SOL    HW330935   2.731   4.928   1.186 -0.4291 -2.7783  2.7323
 7792SOL    MW430936   2.690   4.878   1.128  0.0229 -0.2881  0.0205
 7793SOL     OW30937   5.446   6.384   0.057 -1.0131 -0.0077  0.4016
 7793SOL    HW230938   5.380   6.347  -0.002 -1.2909  0.0893  0.6481
 7793SOL    HW330939   5.494   6.308   0.089 -0.0978  0.0249 -0.8440
 7793SOL    MW430940   5.443   6.369   0.053 -0.9290  0.0094  0.2698
 7794SOL     OW30941   4.456   3.647   0.852 -0.2441 -0.2828  0.2860
 7794SOL    HW230942   4.544   3.637   0.889  0.2469  0.4574 -0.6379
 7794SOL    HW330943   4.467   3.627   0.759 -0.4015  2.7066 -0.4574
 7794SOL    MW430944   4.469   3.643   0.845 -0.2001  0.2093  0.0660
 7795SOL     OW30945   4.842   4.009  -0.000  0.3776 -0.6565 -0.8996
 7795SOL    HW230946   4.859   4.095  -0.038  0.7613 -0.6760 -0.7753
 7795SOL    HW330947   4.887   3.948  -0.058  0.7959 -0.7030 -0.5369
 7795SOL    MW430948   4.851   4.012  -0.013  0.4834 -0.6652 -0.8354
 7796SOL     OW30949   2.800   0.614   1.872  0.4396 -0.2639 -0.1705
 7796SOL    HW230950   2.825   0.609   1.780  2.2654  1.4321  0.1744
 7796SOL    HW330951   2.866   0.562   1.918  0.3592  0.0598  0.3197
 7796SOL    MW430952   2.812   0.606   1.866  0.6699  0.0026 -0.0604
 7797SOL     OW30953   2.857   5.657   0.154  0.2782  0.3568  0.2224
 7797SOL    HW230954   2.927   5.607   0.110 -0.2168  1.8061 -2.4417
 7797SOL    HW330955   2.776   5.613   0.126  0.0184 -0.2784  1.8982
 7797SOL    MW430956   2.856   5.644   0.144  0.1786  0.4642  0.0920
 7798SOL     OW30957   1.748   1.821   5.637  0.2372 -0.3127  0.0412
 7798SOL    HW230958   1.669   1.867   5.666  0.0753 -1.1280  0.9334
 7798SOL    HW330959   1.808   1.892   5.613 -0.5280  0.3350 -0.0221
 7798SOL    MW430960   1.746   1.837   5.638  0.1149 -0.3348  0.1505
 7799SOL     OW30961   5.115   1.120   5.615 -0.1877  0.5277  0.2500
 7799SOL    HW230962   5.151   1.046   5.567 -1.3587 -1.0643  1.6975
 7799SOL    HW330963   5.191   1.167   5.649  0.5720 -0.7123  0.3215
 7799SOL    MW430964   5.129   1.117   5.613 -0.2420  0.1541  0.4504
 7800SOL     OW30965   2.479   4.351   5.576  0.4002  0.4233  0.3077
 7800SOL    HW230966   2.555   4.333   5.522 -0.3749 -0.5146 -0.4987
 7800SOL    HW330967   2.432   4.267   5.582 -0.5812  0.9775  0.7696
 7800SOL    MW430968   2.483   4.338   5.570  0.1684  0.3727  0.2622
 7801SOL     OW30969   2.646   4.112   3.797 -0.0174 -0.0017 -0.4933
 7801SOL    HW230970   2.623   4.144   3.884 -0.9553 -0.2960 -0.6306
 7801SOL    HW330971   2.566   4.121   3.745  0.4424 -0.1181 -1.2468
 7801SOL    MW430972   2.633   4.117   3.801 -0.0805 -0.0559 -0.6109
 7802SOL     OW30973   4.510   0.196   1.085  0.7233 -0.2592 -0.3915
 7802SOL    HW230974   4.585   0.223   1.138  0.0151  0.4668  0.2700
 7802SOL    HW330975   4.436   0.196   1.146 -0.3895  1.9665 -1.6201
 7802SOL    MW430976   4.510   0.199   1.100  0.4830  0.1303 -0.4663
 7803SOL     OW30977   1.266   1.133   4.410  0.2782 -0.2216 -0.2198
 7803SOL    HW230978   1.321   1.190   4.357  0.5160 -0.7995 -0.6113
 7803SOL    HW330979   1.196   1.104   4.351 -1.0398  1.2624  0.5220
 7803SOL    MW430980   1.264   1.136   4.396  0.1357 -0.1020 -0.1736
 7804SOL     OW30981   5.880   0.355   5.721  0.1316 -0.4573  0.0973
 7804SOL    HW230982   5.794   0.340   5.683 -0.1276 -0.5056  0.6969
 7804SOL    HW330983   5.872   0.327   5.812  0.8423 -0.6609  0.1030
 7804SOL    MW430984   5.868   0.350   5.728  0.1911 -0.4906  0.1772
 7805SOL     OW30985   5.883   5.789   5.776 -0.4237  0.0694  0.1779
 7805SOL    HW230986   5.952   5.829   5.722 -1.5387  1.0569 -0.5831
 7805SOL    HW330987   5.925   5.715   5.819  1.3291  1.1657  0.4217
 7805SOL    MW430988   5.897   5.785   5.774 -0.3396  0.3443  0.1097
 7806SOL     OW30989   2.638   0.371   5.585 -0.2394  0.2279 -0.4904
 7806SOL    HW230990   2.543   0.362   5.590 -0.1792 -0.0238  0.2724
 7806SOL    HW330991   2.657   0.457   5.621 -0.1779  0.3026 -0.6970
 7806SOL    MW430992   2.628   0.381   5.590 -0.2233  0.2046 -0.4170
 7807SOL     OW30993   2.210   5.866   4.320 -0.4293 -0.4026 -0.3740
 7807SOL    HW230994   2.171   5.952   4.309 -0.1217 -0.1396  0.5744
 7807SOL    HW330995   2.242   5.843   4.233 -0.8560  0.2643 -0.7123
 7807SOL    MW430996   2.209   5.874   4.307 -0.4450 -0.2799 -0.2935
 7808SOL     OW30997   3.531   3.350   3.048  0.1161  0.4693  0.2597
 7808SOL    HW230998   3.554   3.415   2.981  1.3710  1.7119  1.8332
 7808SOL    HW330999   3.435   3.355   3.054  0.1850  2.1696  0.3243
 7808SOL    MW431000   3.521   3.359   3.040  0.2908  0.8576  0.4758
 7809SOL     OW31001   6.308   2.863   1.540  0.2151 -0.2080 -0.2517
 7809SOL    HW231002   6.243   2.810   1.586 -0.9606  0.4789 -1.0838
 7809SOL    HW331003   6.336   2.808   1.467  1.8768 -1.1860  1.0380
 7809SOL    MW431004   6.303   2.848   1.537  0.2792 -0.2464 -0.1913
 7810SOL     OW31005   1.643   0.397   5.072  0.3325 -0.1133  0.1388
 7810SOL    HW231006   1.611   0.325   5.127 -0.2652  1.1284  1.5014
 7810SOL    HW331007   1.738   0.393   5.081  0.3876 -1.4447 -0.7732
 7810SOL    MW431008   1.651   0.387   5.081  0.2609 -0.1252  0.1983
 7811SOL     OW31009   4.894   0.853   5.501 -0.0438 -0.0479  0.4572
 7811SOL    HW231010   4.921   0.859   5.593  1.4772  1.0179 -0.0120
 7811SOL    HW331011   4.799   0.860   5.504  0.0983  2.9850  1.7855
 7811SOL    MW431012   4.885   0.855   5.514  0.1756  0.4929  0.5706
 7812SOL     OW31013   1.444   1.711   4.695 -0.1472  0.1576  0.0057
 7812SOL    HW231014   1.458   1.704   4.789  0.7143  2.0103  0.0581
 7812SOL    HW331015   1.511   1.655   4.656  0.5516  0.6623  0.4697
 7812SOL    MW431016   1.454   1.703   4.702  0.0587  0.4687  0.0738
 7813SOL     OW31017   1.619   5.512   6.374  0.1179 -0.2519  0.8245
 7813SOL    HW231018   1.624   5.464   6.457 -0.6599 -0.2137  0.9024
 7813SOL    HW331019   1.688   5.578   6.380  1.1456 -1.2953  0.7542
 7813SOL    MW431020   1.628   5.515   6.386  0.1509 -0.3845  0.8255
 7814SOL     OW31021   2.679   5.133   0.644 -0.6637 -0.6482  0.2235
 7814SOL    HW231022   2.664   5.115   0.737  0.2958 -0.1661  0.4859
 7814SOL    HW331023   2.646   5.222   0.632 -0.8432 -0.7332  0.0845
 7814SOL    MW431024   2.673   5.143   0.655 -0.5608 -0.5958  0.2397
 7815SOL     OW31025   0.887   4.055   3.282 -0.9763  0.1704 -0.0250
 7815SOL    HW231026   0.850   4.025   3.365 -2.9188  1.2146 -0.4745
 7815SOL    HW331027   0.834   4.012   3.215  2.4646 -3.1924 -0.9652
 7815SOL    MW431028   0.875   4.045   3.284 -0.7786 -0.1355 -0.2083
 7816SOL     OW31029   2.127   0.833   0.835 -0.1791  0.3845 -0.4325
 7816SOL    HW231030   2.182   0.792   0.768  1.0432 -0.1308  0.8486
 7816SOL    HW331031   2.131   0.773   0.910 -2.5250  0.3070 -0.2801
 7816SOL    MW431032   2.135   0.820   0.836 -0.3273  0.3063 -0.2434
 7817SOL     OW31033   5.776   0.606   4.476 -0.5731  0.0392 -0.3274
 7817SOL    HW231034   5.722   0.627   4.400 -0.1991  0.0603 -0.5872
 7817SOL    HW331035   5.865   0.625   4.449 -0.6168  2.6020  0.9617
 7817SOL    MW431036   5.780   0.611   4.463 -0.5295  0.3801 -0.1916
 7818SOL     OW31037   0.603   1.990   4.532 -0.3983 -0.1849 -0.4511
 7818SOL    HW231038   0.538   1.925   4.558 -0.4556 -0.1523 -0.5136
 7818SOL    HW331039   0.655   2.004   4.612  0.2765 -1.0724 -0.7207
 7818SOL    MW431040   0.601   1.983   4.546 -0.3169 -0.2977 -0.4949
 7819SOL     OW31041   0.004   4.659   0.721 -0.2462  0.1196 -0.8682
 7819SOL    HW231042   0.027   4.570   0.696  0.0905 -0.0876  0.1266
 7819SOL    HW331043   0.074   4.687   0.779 -1.3260  0.3087  0.4066
 7819SOL    MW431044   0.016   4.651   0.726 -0.3442  0.1172 -0.5688
 7820SOL     OW31045   0.458   4.717   3.415  0.0811  0.0048 -0.0816
 7820SOL    HW231046   0.461   4.622   3.415  0.4867 -0.1208  3.3789
 7820SOL    HW331047   0.369   4.738   3.386 -0.5501 -1.5318  0.6165
 7820SOL    MW431048   0.447   4.707   3.411  0.0513 -0.2145  0.4671
 7821SOL     OW31049   2.152   0.284   0.029 -0.2606 -0.5982  0.3328
 7821SOL    HW231050   2.098   0.215  -0.009  0.0967 -0.0103 -1.3358
 7821SOL    HW331051   2.091   0.353   0.053 -0.6235 -1.4774  2.0444
 7821SOL    MW431052   2.137   0.284   0.027 -0.2613 -0.6366  0.3385
 7822SOL     OW31053   3.049   3.090   4.429  0.1999 -0.0202  0.7143
 7822SOL    HW231054   2.990   3.044   4.369 -0.8648 -0.7041  2.2465
 7822SOL    HW331055   3.112   3.024   4.456  1.7588  0.7101 -0.9264
 7822SOL    MW431056   3.049   3.075   4.424  0.2651 -0.0141  0.7000
 7823SOL     OW31057   0.639   4.305   3.204  0.8750  0.0311  0.5971
 7823SOL    HW231058   0.655   4.286   3.111 -1.6584  2.6027 -0.5390
 7823SOL    HW331059   0.603   4.224   3.239  0.2396 -0.5120 -1.1690
 7823SOL    MW431060   0.637   4.292   3.196  0.4569  0.2987  0.2142
 7824SOL     OW31061   1.797   5.070   3.696  0.4244  0.0304 -0.1398
 7824SOL    HW231062   1.730   5.082   3.629  0.5773  1.5682 -0.0577
 7824SOL    HW331063   1.849   5.150   3.691  3.0536 -1.5897 -1.0760
 7824SOL    MW431064   1.795   5.082   3.686  0.7915  0.0195 -0.2524
 7825SOL     OW31065   3.907   4.654   4.305  0.1186  0.6640 -0.2462
 7825SOL    HW231066   3.885   4.574   4.257 -1.7895  0.8855  0.1901
 7825SOL    HW331067   3.975   4.695   4.251  1.1322 -1.1902 -0.5056
 7825SOL    MW431068   3.913   4.649   4.291  0.0006  0.4486 -0.2229
 7826SOL     OW31069   1.191   2.515   4.136 -0.9153  0.4785 -0.0651
 7826SOL    HW231070   1.153   2.588   4.185 -0.7992 -0.2519  1.1681
 7826SOL    HW331071   1.275   2.549   4.104 -0.5054  0.6806  1.1520
 7826SOL    MW431072   1.197   2.529   4.138 -0.8459  0.4088  0.2582
 7827SOL     OW31073   1.623   1.725   2.828 -0.3904 -0.0166  0.0790
 7827SOL    HW231074   1.536   1.736   2.866 -0.0765  0.0625  0.7918
 7827SOL    HW331075   1.658   1.813   2.820 -1.0359  0.1038 -1.8432
 7827SOL    MW431076   1.616   1.738   2.832 -0.4342  0.0097 -0.0805
 7828SOL     OW31077   5.622   5.280   0.713 -0.4363 -0.5552  0.3401
 7828SOL    HW231078   5.611   5.353   0.653  0.5402  0.0865  0.9085
 7828SOL    HW331079   5.662   5.319   0.791  0.3126 -1.7223  0.5726
 7828SOL    MW431080   5.626   5.295   0.716 -0.2086 -0.6245  0.4458
 7829SOL     OW31081   2.251   3.233   6.335  0.3188 -0.3802  0.8308
 7829SOL    HW231082   2.223   3.149   6.373 -0.1624 -0.1997  0.8767
 7829SOL    HW331083   2.279   3.211   6.246  2.2392 -0.9532  1.5096
 7829SOL    MW431084   2.251   3.219   6.328  0.5087 -0.4320  0.9264
 7830SOL     OW31085   5.507   4.474   5.088  0.0897 -0.4220  0.9169
 7830SOL    HW231086   5.483   4.472   4.996 -0.6887  1.5779  1.0241
 7830SOL    HW331087   5.602   4.481   5.089 -0.0325  2.6878  0.1106
 7830SOL    MW431088   5.516   4.475   5.076 -0.0291  0.2521  0.8247
 7831SOL     OW31089   2.440   3.171   5.121 -0.1056  0.0904 -0.5306
 7831SOL    HW231090   2.485   3.105   5.068 -0.0867 -0.4548  0.1614
 7831SOL    HW331091   2.349   3.142   5.124  0.2343 -0.9084  1.2734
 7831SOL    MW431092   2.434   3.159   5.114 -0.0583 -0.1133 -0.2013
 7832SOL     OW31093   5.714   3.320   5.584 -0.0743  0.2105  0.1137
 7832SOL    HW231094   5.703   3.399   5.531  3.9362  0.0082 -1.3896
 7832SOL    HW331095   5.755   3.350   5.665 -1.5483 -0.0500  0.9914
 7832SOL    MW431096   5.718   3.334   5.588  0.2604  0.1495  0.0311
 7833SOL     OW31097   2.346   1.605   2.578  0.1991  0.2505  0.5483
 7833SOL    HW231098   2.306   1.596   2.492  1.2443 -0.5277  0.1236
 7833SOL    HW331099   2.363   1.515   2.606 -0.9403  0.4475  1.9811
 7833SOL    MW431100   2.343   1.592   2.570  0.1867  0.1739  0.6813
 7834SOL     OW31101   4.124   2.097   3.364  0.3632 -0.4265 -0.1243
 7834SOL    HW231102   4.099   2.122   3.453  0.0724 -0.2404 -0.2538
 7834SOL    HW331103   4.206   2.144   3.348  1.0692 -1.4301  0.4833
 7834SOL    MW431104   4.131   2.107   3.374  0.4180 -0.5343 -0.0612
 7835SOL     OW31105   6.269   5.318   4.801 -0.2359 -0.1631 -0.0138
 7835SOL    HW231106   6.300   5.343   4.888  1.2647  1.3041 -0.8901
 7835SOL    HW331107   6.326   5.367   4.741 -1.2353 -1.1096 -1.8217
 7835SOL    MW431108   6.281   5.328   4.804 -0.1698 -0.0944 -0.3680
 7836SOL     OW31109   4.914   0.187   4.462  0.1646  0.5039 -0.6583
 7836SOL    HW231110   4.880   0.105   4.498  0.7843  0.2018 -0.7317
 7836SOL    HW331111   4.871   0.197   4.377 -0.1778  0.4392 -0.4921
 7836SOL    MW431112   4.904   0.178   4.456  0.2012  0.4555 -0.6460
 7837SOL     OW31113   0.035   2.438   3.643  0.4506  0.1852 -0.4068
 7837SOL    HW231114   0.072   2.525   3.630  1.7843 -0.0685  1.2605
 7837SOL    HW331115  -0.035   2.451   3.707  0.7931  0.0361  0.0096
 7837SOL    MW431116   0.031   2.451   3.650  0.6718  0.1320 -0.1319
 7838SOL     OW31117   2.366   2.327   1.375  0.3649 -0.0084  0.2183
 7838SOL    HW231118   2.390   2.403   1.428  1.0995 -0.4608  0.5497
 7838SOL    HW331119   2.351   2.363   1.287  0.7173  0.5162  0.3662
 7838SOL    MW431120   2.367   2.342   1.370  0.5083  0.0011  0.2815
 7839SOL     OW31121   3.342   6.336   5.255 -0.1400 -0.6827 -0.1653
 7839SOL    HW231122   3.429   6.341   5.214 -0.9114  2.9653 -1.7600
 7839SOL    HW331123   3.333   6.419   5.302 -3.3839 -0.1237 -1.5235
 7839SOL    MW431124   3.353   6.348   5.256 -0.6698 -0.1276 -0.5549
 7840SOL     OW31125   2.265   2.646   4.800 -0.1705 -0.1251  0.0251
 7840SOL    HW231126   2.266   2.716   4.735  1.8828 -0.8992 -0.8795
 7840SOL    HW331127   2.173   2.628   4.815 -0.7172  0.4872 -2.2489
 7840SOL    MW431128   2.253   2.653   4.793  0.0283 -0.1465 -0.3943
 7841SOL     OW31129   3.358   1.733   5.988  0.2068 -0.0995  0.2813
 7841SOL    HW231130   3.389   1.663   6.045  0.0141 -0.6662 -0.2970
 7841SOL    HW331131   3.429   1.746   5.925 -0.1935 -0.5397 -0.2787
 7841SOL    MW431132   3.371   1.726   5.987  0.1285 -0.2323  0.1311
 7842SOL     OW31133   5.037   2.236   0.312  0.6127 -0.3438  0.7168
 7842SOL    HW231134   5.041   2.332   0.312  0.9802 -0.3498 -0.1637
 7842SOL    HW331135   5.009   2.213   0.400  0.7754  0.5682  1.0145
 7842SOL    MW431136   5.034   2.246   0.323  0.6827 -0.2243  0.6399
 7843SOL     OW31137   4.041   3.274   4.627 -0.1879 -0.1601  0.0923
 7843SOL    HW231138   4.135   3.288   4.638 -0.2915 -0.8482  2.3935
 7843SOL    HW331139   4.031   3.249   4.535  1.8059  0.3760 -0.3154
 7843SOL    MW431140   4.052   3.272   4.617  0.0615 -0.1801  0.3421
 7844SOL     OW31141   1.282   0.355   4.799  0.4515  0.2595  0.1607
 7844SOL    HW231142   1.304   0.263   4.813  0.6512 -0.0296 -1.7495
 7844SOL    HW331143   1.366   0.401   4.796  0.3404  0.5852  1.4328
 7844SOL    MW431144   1.296   0.349   4.801  0.4632  0.2644  0.0765
 7845SOL     OW31145   1.850   2.626   2.422  0.3358 -0.1473  0.0158
 7845SOL    HW231146   1.861   2.721   2.429 -2.1886  0.1776  0.3988
 7845SOL    HW331147   1.900   2.590   2.496  0.0141  0.9904  0.8003
 7845SOL    MW431148   1.858   2.634   2.432 -0.0397  0.0457  0.1698
 7846SOL     OW31149   6.271   2.095   0.776 -0.3959  0.1344  0.6507
 7846SOL    HW231150   6.338   2.160   0.798  0.4319 -0.4866  0.0615
 7846SOL    HW331151   6.315   2.037   0.713 -0.9430 -1.3063  1.5619
 7846SOL    MW431152   6.286   2.096   0.770 -0.3589 -0.1377  0.6932
 7847SOL     OW31153   0.124   6.321   3.127  0.4378  0.0247 -0.4632
 7847SOL    HW231154   0.142   6.343   3.218 -0.5919 -1.4946  0.1580
 7847SOL    HW331155   0.056   6.382   3.100  0.7814  0.5145 -0.2281
 7847SOL    MW431156   0.118   6.332   3.135  0.3473 -0.1111 -0.3502
 7848SOL     OW31157   2.962   3.132   0.792 -0.1883 -0.1685 -0.4538
 7848SOL    HW231158   3.024   3.152   0.722 -0.9606 -0.4874 -1.2649
 7848SOL    HW331159   3.011   3.076   0.852  0.7185  0.7305 -0.3337
 7848SOL    MW431160   2.976   3.127   0.791 -0.1706 -0.0919 -0.5449
 7849SOL     OW31161   1.958   1.962   4.624 -0.8051 -0.0193 -0.4910
 7849SOL    HW231162   1.947   1.870   4.650 -0.1618 -0.3716 -1.3938
 7849SOL    HW331163   1.893   1.975   4.556 -1.7980  0.6019  0.5472
 7849SOL    MW431164   1.948   1.951   4.618 -0.8512  0.0162 -0.4731
 7850SOL     OW31165   1.304   0.089   1.808  0.0679  0.3690  0.2276
 7850SOL    HW231166   1.393   0.121   1.791  1.0036 -1.3933  1.4983
 7850SOL    HW331167   1.259   0.163   1.849  1.6618  0.6309  1.6054
 7850SOL    MW431168   1.310   0.103   1.811  0.4017  0.1710  0.5770
 7851SOL     OW31169   0.390   2.212   6.131 -0.0178 -0.2857  0.1019
 7851SOL    HW231170   0.458   2.279   6.131 -0.3415  0.0574 -0.8602
 7851SOL    HW331171   0.332   2.236   6.203 -0.5287  0.9063 -0.6712
 7851SOL    MW431172   0.391   2.224   6.141 -0.1279 -0.0831 -0.1270
 7852SOL     OW31173   4.326   2.223   3.604 -0.6874 -0.5168  0.2204
 7852SOL    HW231174   4.317   2.313   3.574  0.7877 -0.4077  0.0532
 7852SOL    HW331175   4.236   2.196   3.626 -1.2265  0.7688 -0.3213
 7852SOL    MW431176   4.313   2.231   3.603 -0.5639 -0.3328  0.1268
 7853SOL     OW31177   3.077   1.097   0.320 -0.3154  0.3257  0.0163
 7853SOL    HW231178   3.172   1.086   0.318 -0.0496  2.3027 -0.7473
 7853SOL    HW331179   3.051   1.099   0.228 -1.3135 -1.3608  0.2055
 7853SOL    MW431180   3.086   1.096   0.308 -0.4120  0.3640 -0.0595
 7854SOL     OW31181   3.601   0.746   3.978  0.1183  0.4074 -0.1641
 7854SOL    HW231182   3.665   0.815   3.996  2.3729 -1.1113 -1.7454
 7854SOL    HW331183   3.650   0.665   3.991 -1.7494 -0.8520 -0.6901
 7854SOL    MW431184   3.616   0.745   3.982  0.1694  0.0409 -0.4421
 7855SOL     OW31185   1.947   2.108   1.781  0.6347  0.2044 -0.3861
 7855SOL    HW231186   1.859   2.145   1.790  1.4929  2.1837  0.3304
 7855SOL    HW331187   1.944   2.026   1.830 -0.4143  0.9527  0.8498
 7855SOL    MW431188   1.935   2.102   1.788  0.6095  0.5643 -0.1285
 7856SOL     OW31189   4.375   0.159   5.716  0.1293 -0.5296 -0.4094
 7856SOL    HW231190   4.368   0.253   5.700 -0.1793 -0.6510 -1.0148
 7856SOL    HW331191   4.398   0.152   5.808 -1.2846  0.0926  0.0108
 7856SOL    MW431192   4.377   0.171   5.726 -0.0980 -0.4635 -0.4339
 7857SOL     OW31193   0.349   0.488   0.078 -0.2647 -0.2850  0.0387
 7857SOL    HW231194   0.328   0.510   0.169 -1.7475  1.1273 -0.5998
 7857SOL    HW331195   0.293   0.413   0.058 -0.8931  0.2077 -0.0784
 7857SOL    MW431196   0.339   0.481   0.087 -0.5433 -0.0336 -0.0610
 7858SOL     OW31197   5.555   4.319   2.408 -0.3272 -0.0178  0.3696
 7858SOL    HW231198   5.629   4.375   2.430 -0.3912  0.6074 -0.8664
 7858SOL    HW331199   5.486   4.346   2.469 -0.8699  2.4502 -1.1813
 7858SOL    MW431200   5.555   4.330   2.419 -0.4072  0.3903  0.0019
 7859SOL     OW31201   2.253   5.578   0.418  0.0381 -0.3410  0.3302
 7859SOL    HW231202   2.172   5.627   0.424  0.4745  0.6316 -1.1461
 7859SOL    HW331203   2.229   5.497   0.372  0.0593  0.4518 -1.1568
 7859SOL    MW431204   2.239   5.574   0.412  0.0985 -0.1081 -0.0608
 7860SOL     OW31205   3.028   4.947   2.835 -0.3623 -0.1025 -0.3965
 7860SOL    HW231206   2.980   5.024   2.804 -0.2746 -0.7106 -2.1973
 7860SOL    HW331207   3.120   4.973   2.829 -0.3614  0.4938  1.4765
 7860SOL    MW431208   3.034   4.961   2.830 -0.3506 -0.1041 -0.3870
 7861SOL     OW31209   4.001   4.565   5.833 -0.0650  0.4887  0.2197
 7861SOL    HW231210   3.989   4.504   5.906  0.3053  1.0277  0.7401
 7861SOL    HW331211   4.028   4.646   5.875  1.0681  0.5449 -0.5906
 7861SOL    MW431212   4.003   4.567   5.848  0.1334  0.5672  0.1814
 7862SOL     OW31213   0.983   3.511   4.750  0.0869  0.1340 -0.3502
 7862SOL    HW231214   1.047   3.439   4.757  0.0977  0.2094  0.3273
 7862SOL    HW331215   1.027   3.586   4.790  0.5655  0.8675 -2.1260
 7862SOL    MW431216   0.998   3.511   4.756  0.1515  0.2407 -0.4951
 7863SOL     OW31217   1.402   1.254   1.679 -0.3629  0.4082  0.3098
 7863SOL    HW231218   1.451   1.172   1.689 -0.8351  0.3012  2.1878
 7863SOL    HW331219   1.464   1.314   1.638  0.0872 -0.7737 -0.8237
 7863SOL    MW431220   1.417   1.251   1.675 -0.3658  0.2381  0.4080
 7864SOL     OW31221   1.814   4.273   3.797  0.1039 -0.0911  0.1489
 7864SOL    HW231222   1.861   4.260   3.879 -0.9715  2.0520  1.1809
 7864SOL    HW331223   1.870   4.331   3.747 -1.1289  2.1536  1.2238
 7864SOL    MW431224   1.828   4.279   3.801 -0.2007  0.4879  0.4269
 7865SOL     OW31225   4.593   3.169   0.804  0.1856  0.0595 -0.0037
 7865SOL    HW231226   4.603   3.256   0.842 -2.0467 -0.2696  1.5337
 7865SOL    HW331227   4.564   3.114   0.876 -2.1010 -1.1062 -1.6617
 7865SOL    MW431228   4.591   3.174   0.818 -0.4106 -0.1377 -0.0196
 7866SOL     OW31229   3.541   1.590   4.483  0.0734 -0.3460 -0.2750
 7866SOL    HW231230   3.527   1.677   4.520  1.2974  0.7018 -2.0915
 7866SOL    HW331231   3.581   1.540   4.555 -3.5807 -0.5456  1.8691
 7866SOL    MW431232   3.545   1.595   4.497 -0.2472 -0.2341 -0.2318
 7867SOL     OW31233   3.613   2.215   5.596  0.0731 -0.6442  0.4864
 7867SOL    HW231234   3.704   2.224   5.567 -0.2123 -0.6840 -0.4711
 7867SOL    HW331235   3.597   2.291   5.651 -0.2955  1.1843 -2.0114
 7867SOL    MW431236   3.623   2.226   5.599 -0.0132 -0.4082  0.0305
 7868SOL     OW31237   2.311   2.984   2.369  0.3080  0.3770  0.0623
 7868SOL    HW231238   2.309   2.910   2.308 -0.7730  0.9277 -0.6001
 7868SOL    HW331239   2.254   2.957   2.441 -1.1631  1.0601 -0.8080
 7868SOL    MW431240   2.303   2.971   2.370 -0.0287  0.5398 -0.1399
 7869SOL     OW31241   3.689   3.439   5.393 -0.1728  0.6179  0.0406
 7869SOL    HW231242   3.778   3.463   5.416 -0.4234  1.3201  0.2932
 7869SOL    HW331243   3.647   3.418   5.477 -0.5583  1.3743  0.0430
 7869SOL    MW431244   3.695   3.439   5.407 -0.2567  0.8103  0.0743
 7870SOL     OW31245   6.218   4.565   1.913  0.4526  0.4830  0.6018
 7870SOL    HW231246   6.250   4.639   1.862 -0.6969  0.8265  0.3545
 7870SOL    HW331247   6.267   4.490   1.880  1.0503  0.9925  0.2976
 7870SOL    MW431248   6.229   4.565   1.902  0.3798  0.5955  0.5290
 7871SOL     OW31249   0.541   0.207   4.056 -0.0509  0.3082 -0.3198
 7871SOL    HW231250   0.465   0.150   4.047  1.0529 -1.0823 -1.4792
 7871SOL    HW331251   0.593   0.166   4.125  0.3982  0.3272 -0.6431
 7871SOL    MW431252   0.538   0.194   4.064  0.1540  0.1272 -0.5154
 7872SOL     OW31253   3.075   0.080   4.714  0.8153  0.3294 -0.1737
 7872SOL    HW231254   3.100   0.114   4.800 -0.0604  2.7735 -0.8316
 7872SOL    HW331255   2.987   0.113   4.699  0.2628 -1.5021 -1.3262
 7872SOL    MW431256   3.067   0.089   4.724  0.6269  0.4102 -0.4126
 7873SOL     OW31257   1.546   3.905   5.437  0.5259  0.2434 -0.2612
 7873SOL    HW231258   1.604   3.982   5.443  0.7911  0.0633 -0.5103
 7873SOL    HW331259   1.525   3.898   5.344 -0.5545  0.7863 -0.0715
 7873SOL    MW431260   1.551   3.915   5.426  0.4183  0.2913 -0.2691
 7874SOL     OW31261   5.614   2.806   4.437  0.0668  0.2798  0.0819
 7874SOL    HW231262   5.532   2.812   4.388 -0.2948 -0.2742  0.6005
 7874SOL    HW331263   5.600   2.859   4.515  0.0582 -0.1117  0.3546
 7874SOL    MW431264   5.602   2.813   4.441  0.0180  0.1551  0.1863
 7875SOL     OW31265   0.409   6.113   0.412  0.2062 -0.4794  0.2044
 7875SOL    HW231266   0.486   6.059   0.391 -0.7978 -1.2560 -1.8049
 7875SOL    HW331267   0.341   6.050   0.435 -0.7014 -0.0554 -1.1856
 7875SOL    MW431268   0.410   6.097   0.412 -0.0460 -0.5260 -0.2441
 7876SOL     OW31269   3.133   2.843   6.045  0.2537  0.1865 -0.1116
 7876SOL    HW231270   3.206   2.884   6.090  0.2883 -0.2398  0.2279
 7876SOL    HW331271   3.056   2.863   6.099  0.3137 -0.4278  0.2194
 7876SOL    MW431272   3.133   2.851   6.058  0.2662  0.0492 -0.0232
 7877SOL     OW31273   3.548   5.096   6.385  0.1227 -0.2763  0.8605
 7877SOL    HW231274   3.492   5.126   6.457 -2.1666 -0.0692 -0.8896
 7877SOL    HW331275   3.564   5.004   6.404 -2.7456 -0.9748  0.3501
 7877SOL    MW431276   3.542   5.088   6.397 -0.5578 -0.3411  0.5622
 7878SOL     OW31277   2.988   0.111   0.909  0.2534 -0.4361  0.0400
 7878SOL    HW231278   3.070   0.117   0.860 -0.0278  2.0773 -0.2598
 7878SOL    HW331279   2.956   0.022   0.892  0.7854 -0.1111 -3.3432
 7878SOL    MW431280   2.994   0.100   0.900  0.2865 -0.0616 -0.4459
 7879SOL     OW31281   5.267   2.707   1.610 -0.3512 -0.1451  0.0663
 7879SOL    HW231282   5.252   2.613   1.610  1.5782 -0.5065 -0.8008
 7879SOL    HW331283   5.297   2.727   1.699  0.6568 -0.6421 -0.1458
 7879SOL    MW431284   5.269   2.697   1.622  0.0364 -0.2583 -0.0761
 7880SOL     OW31285   1.214   5.646   5.893 -0.2190  0.5590  0.4181
 7880SOL    HW231286   1.278   5.634   5.823 -1.8729 -2.4568 -0.7729
 7880SOL    HW331287   1.245   5.591   5.965  1.0309  2.9930  1.8486
 7880SOL    MW431288   1.226   5.637   5.893 -0.2723  0.4822  0.4497
 7881SOL     OW31289   5.301   6.078   0.157  0.9384  0.1741  0.3088
 7881SOL    HW231290   5.321   5.987   0.137  0.5536 -0.1643  1.3686
 7881SOL    HW331291   5.361   6.101   0.228 -0.0809  0.2081  1.1840
 7881SOL    MW431292   5.311   6.069   0.164  0.7531  0.1339  0.5641
 7882SOL     OW31293   3.995   0.450   4.359 -0.1766  0.4535 -1.0999
 7882SOL    HW231294   3.979   0.379   4.297  1.4853 -1.0151  0.0348
 7882SOL    HW331295   4.063   0.416   4.417  0.7847  3.0321 -0.5541
 7882SOL    MW431296   4.002   0.436   4.358  0.1695  0.6000 -0.8782
 7883SOL     OW31297   0.827   0.543   4.351  0.3136 -0.7663  0.6149
 7883SOL    HW231298   0.904   0.505   4.393 -0.1515  0.5642  2.8684
 7883SOL    HW331299   0.842   0.638   4.354 -0.2705 -0.5636 -1.3278
 7883SOL    MW431300   0.839   0.551   4.357  0.1751 -0.5640  0.6559
 7884SOL     OW31301   1.204   5.789   1.758 -0.2603  0.7328 -0.5221
 7884SOL    HW231302   1.122   5.821   1.795 -0.0085 -0.3700  1.0619
 7884SOL    HW331303   1.245   5.867   1.720 -2.6114  1.0917 -2.6025
 7884SOL    MW431304   1.199   5.803   1.758 -0.5373  0.6347 -0.5876
 7885SOL     OW31305   5.333   1.716   5.561 -0.0821 -0.4567 -0.0887
 7885SOL    HW231306   5.312   1.625   5.538  0.7964 -0.5223 -0.6623
 7885SOL    HW331307   5.259   1.767   5.528  0.8335 -0.6129 -2.5721
 7885SOL    MW431308   5.320   1.711   5.554  0.1546 -0.4859 -0.4920
 7886SOL     OW31309   3.277   5.449   0.605  0.1261  0.5644  0.4829
 7886SOL    HW231310   3.219   5.393   0.657 -1.4902  1.1677 -0.5766
 7886SOL    HW331311   3.327   5.387   0.551 -2.2334  0.0421 -1.2922
 7886SOL    MW431312   3.276   5.433   0.604 -0.3985  0.5751  0.1089
 7887SOL     OW31313   1.455   1.635   1.810  0.1472  0.8243  0.4057
 7887SOL    HW231314   1.536   1.678   1.837  1.9876 -2.0655 -0.0767
 7887SOL    HW331315   1.386   1.699   1.828  2.4630  3.2239  1.2854
 7887SOL    MW431316   1.456   1.649   1.816  0.6955  0.7596  0.4581
 7888SOL     OW31317   3.332   0.069   2.598 -0.3340 -0.6576 -0.4780
 7888SOL    HW231318   3.385   0.145   2.577 -1.4280  0.3382  0.2400
 7888SOL    HW331319   3.266   0.066   2.528 -0.9841 -0.2539  0.1035
 7888SOL    MW431320   3.330   0.079   2.586 -0.5641 -0.4729 -0.3065
 7889SOL     OW31321   4.537   6.260   6.290  0.4310 -0.0817  0.2831
 7889SOL    HW231322   4.544   6.293   6.201 -0.1321  1.4313  0.7644
 7889SOL    HW331323   4.601   6.189   6.295  0.3075 -0.3461 -1.3745
 7889SOL    MW431324   4.546   6.255   6.279  0.3404  0.0830  0.1279
 7890SOL     OW31325   2.576   0.486   0.686 -0.2474 -0.2486 -0.0571
 7890SOL    HW231326   2.659   0.438   0.681 -0.3042 -0.3993  0.3785
 7890SOL    HW331327   2.602   0.577   0.702 -0.1447 -0.1641 -0.6980
 7890SOL    MW431328   2.591   0.492   0.688 -0.2413 -0.2573 -0.0842
 7891SOL     OW31329   4.588   4.910   3.043  0.0399 -0.3245  0.2193
 7891SOL    HW231330   4.537   4.957   3.109 -1.3737  0.7442 -1.5526
 7891SOL    HW331331   4.522   4.860   2.994  1.1254 -1.4987 -0.0946
 7891SOL    MW431332   4.572   4.909   3.045 -0.0034 -0.3384 -0.0559
 7892SOL     OW31333   5.274   1.849   5.005  0.1294 -0.2026 -0.1587
 7892SOL    HW231334   5.273   1.805   4.920 -0.6043  0.8964 -0.7463
 7892SOL    HW331335   5.213   1.799   5.059  0.5905 -0.9005 -0.2699
 7892SOL    MW431336   5.266   1.837   5.001  0.0934 -0.1497 -0.2509
 7893SOL     OW31337   5.105   1.617   0.586  0.3343 -0.3258  0.3689
 7893SOL    HW231338   5.045   1.569   0.642 -0.2084 -0.6439 -0.4634
 7893SOL    HW331339   5.050   1.651   0.515  1.2697 -1.4912 -0.9766
 7893SOL    MW431340   5.090   1.615   0.584  0.3861 -0.5215  0.0816
 7894SOL     OW31341   1.152   2.529   5.325  0.6086 -0.2953 -0.0868
 7894SOL    HW231342   1.095   2.605   5.334 -0.4016 -1.0582  0.1626
 7894SOL    HW331343   1.215   2.537   5.397 -0.4995 -0.5187  0.9501
 7894SOL    MW431344   1.153   2.540   5.336  0.3291 -0.4255  0.0829
 7895SOL     OW31345   0.161   2.883   0.963  0.1299  0.0549  0.0454
 7895SOL    HW231346   0.225   2.886   0.892 -0.9106 -1.9732 -1.0834
 7895SOL    HW331347   0.135   2.974   0.976  2.5845  0.8334 -0.0305
 7895SOL    MW431348   0.166   2.895   0.955  0.3164 -0.1100 -0.1136
 7896SOL     OW31349   5.147   5.531   5.369 -0.3052  0.5834  0.1515
 7896SOL    HW231350   5.118   5.597   5.305 -0.3010  0.2111 -0.2319
 7896SOL    HW331351   5.214   5.480   5.324 -1.5706 -0.8463 -0.1851
 7896SOL    MW431352   5.152   5.533   5.355 -0.4716  0.3456  0.0565
 7897SOL     OW31353   2.088   1.180   3.266 -0.1218 -0.2971  0.8400
 7897SOL    HW231354   2.155   1.129   3.311 -0.4292 -1.2804  0.2438
 7897SOL    HW331355   2.050   1.118   3.203 -1.2257  0.3839  0.8050
 7897SOL    MW431356   2.092   1.165   3.263 -0.3080 -0.3370  0.7567
 7898SOL     OW31357   2.787   2.075   2.984 -0.1847  0.1749  0.0749
 7898SOL    HW231358   2.872   2.055   2.945  0.7761  3.9083 -0.0325
 7898SOL    HW331359   2.728   2.089   2.910 -0.1747  0.4304  0.1173
 7898SOL    MW431360   2.790   2.074   2.969 -0.0566  0.7012  0.0663
 7899SOL     OW31361   0.515   1.914   4.880 -0.4597 -0.4684  0.2488
 7899SOL    HW231362   0.422   1.906   4.901 -0.5188 -2.2969 -0.5051
 7899SOL    HW331363   0.558   1.855   4.942  0.1801  0.1649  0.4162
 7899SOL    MW431364   0.508   1.905   4.891 -0.3831 -0.6261  0.1714
 7900SOL     OW31365   0.583   3.592   3.083  0.0269 -0.0737 -0.0612
 7900SOL    HW231366   0.608   3.684   3.076 -1.2796  0.3096  0.1917
 7900SOL    HW331367   0.664   3.544   3.063  0.5262  1.1107 -0.9953
 7900SOL    MW431368   0.597   3.598   3.079 -0.0796  0.1331 -0.1511
 7901SOL     OW31369   4.783   4.020   4.016 -0.8488  0.2040  0.0131
 7901SOL    HW231370   4.824   4.050   4.097  0.6074  2.5794 -1.4963
 7901SOL    HW331371   4.702   3.977   4.045  0.0412  0.1663  2.7398
 7901SOL    MW431372   4.777   4.018   4.030 -0.5392  0.5124  0.1737
 7902SOL     OW31373   1.700   3.937   2.062 -0.3119  0.0636 -0.5775
 7902SOL    HW231374   1.696   3.952   1.967  1.4075  1.9888 -0.4132
 7902SOL    HW331375   1.787   3.901   2.076  0.1811  1.5478  0.4312
 7902SOL    MW431376   1.711   3.934   2.051 -0.0200  0.5134 -0.4227
 7903SOL     OW31377   3.961   5.083   4.942  0.1488  0.3510  0.5714
 7903SOL    HW231378   3.896   5.130   4.994 -1.4247  0.1205 -1.0990
 7903SOL    HW331379   3.969   5.134   4.862  2.0913  0.3741  0.7282
 7903SOL    MW431380   3.954   5.096   4.939  0.1975  0.3236  0.3717
 7904SOL     OW31381   4.532   0.949   0.127  0.0724 -0.1818  0.3780
 7904SOL    HW231382   4.490   1.031   0.103  1.2847 -0.6025 -3.8735
 7904SOL    HW331383   4.461   0.884   0.126 -0.0400 -0.1037 -2.1785
 7904SOL    MW431384   4.517   0.951   0.124  0.2176 -0.2270 -0.5202
 7905SOL     OW31385   4.583   3.320   1.510 -0.2357  0.5543 -0.0794
 7905SOL    HW231386   4.538   3.356   1.433 -0.5299 -0.5504 -0.4332
 7905SOL    HW331387   4.553   3.230   1.516  0.1664  0.4783  1.0550
 7905SOL    MW431388   4.573   3.313   1.501 -0.2215  0.3985  0.0236
 7906SOL     OW31389   1.763   2.906   3.535 -0.5131 -0.5419 -0.5262
 7906SOL    HW231390   1.801   2.994   3.541 -0.9236 -0.2165 -2.1747
 7906SOL    HW331391   1.736   2.885   3.625 -3.0127  2.2200 -0.4505
 7906SOL    MW431392   1.764   2.915   3.548 -0.8970 -0.1345 -0.7337
 7907SOL     OW31393   5.778   1.048   1.705  0.3426  0.6425 -0.5665
 7907SOL    HW231394   5.859   1.099   1.709  1.2666 -0.8519  1.1159
 7907SOL    HW331395   5.802   0.963   1.742 -2.2998  0.5835  1.2359
 7907SOL    MW431396   5.792   1.044   1.711  0.1159  0.4376 -0.1068
 7908SOL     OW31397   2.623   6.255   1.425  0.1816 -0.2086  0.1164
 7908SOL    HW231398   2.540   6.267   1.471  0.7799  1.2125  0.8780
 7908SOL    HW331399   2.649   6.165   1.447 -0.5555 -0.2573  0.8498
 7908SOL    MW431400   2.615   6.244   1.434  0.1633 -0.0275  0.3136
 7909SOL     OW31401   0.555   3.961   6.287  0.6059  0.0310 -0.2570
 7909SOL    HW231402   0.648   3.967   6.308  0.6383  0.6373 -0.5504
 7909SOL    HW331403   0.514   4.030   6.339  0.3610 -0.0333 -0.3623
 7909SOL    MW431404   0.562   3.971   6.297  0.5779  0.1025 -0.3096
 7910SOL     OW31405   1.209   0.066   5.082 -0.0859 -0.0882 -0.3845
 7910SOL    HW231406   1.200   0.155   5.115 -0.7703 -0.2108 -0.2301
 7910SOL    HW331407   1.126   0.048   5.037 -0.0041 -0.6906 -0.3009
 7910SOL    MW431408   1.197   0.075   5.080 -0.1654 -0.1839 -0.3531
 7911SOL     OW31409   4.396   4.433   5.120  0.2540  0.0673 -0.0675
 7911SOL    HW231410   4.408   4.468   5.032 -0.7100 -1.9736 -1.0792
 7911SOL    HW331411   4.313   4.470   5.149  0.6396  0.8542  0.0653
 7911SOL    MW431412   4.387   4.443   5.112  0.1777 -0.0981 -0.1834
 7912SOL     OW31413   5.264   0.627   3.935 -0.0955  0.3187 -0.0091
 7912SOL    HW231414   5.176   0.660   3.954 -0.4998 -0.4844 -0.4316
 7912SOL    HW331415   5.295   0.684   3.864 -0.3741  0.4511 -0.0273
 7912SOL    MW431416   5.256   0.639   3.928 -0.1856  0.2302 -0.0672
 7913SOL     OW31417   2.514   4.383   3.145 -0.1003 -0.0647 -0.1382
 7913SOL    HW231418   2.514   4.399   3.050 -0.8772  0.4731 -0.0521
 7913SOL    HW331419   2.431   4.419   3.175 -0.5245 -1.5799  0.5371
 7913SOL    MW431420   2.503   4.390   3.136 -0.2588 -0.1937 -0.0378
 7914SOL     OW31421   0.244   1.605   3.684  0.4266 -0.2492  1.0227
 7914SOL    HW231422   0.324   1.615   3.632  0.2322  0.0231  0.7718
 7914SOL    HW331423   0.244   1.682   3.742  0.4934 -0.4005  1.2257
 7914SOL    MW431424   0.255   1.617   3.685  0.4098 -0.2332  1.0164
 7915SOL     OW31425   3.284   1.296   2.048  0.4359  0.6697 -0.7006
 7915SOL    HW231426   3.373   1.328   2.038  1.2997 -1.3989 -0.1537
 7915SOL    HW331427   3.279   1.220   1.990 -0.8688  0.5429 -0.4549
 7915SOL    MW431428   3.295   1.290   2.039  0.3777  0.3801 -0.5960
 7916SOL     OW31429   0.732   4.893   2.926 -0.3729 -0.0589  0.2820
 7916SOL    HW231430   0.659   4.927   2.873  1.6775  1.0581 -1.9907
 7916SOL    HW331431   0.775   4.829   2.870  1.4434  0.6001  0.8597
 7916SOL    MW431432   0.728   4.889   2.912  0.1373  0.1754  0.0584
 7917SOL     OW31433   3.488   4.371   4.203 -0.2639 -0.7590 -0.7325
 7917SOL    HW231434   3.478   4.373   4.298  1.2460  1.6564 -0.5511
 7917SOL    HW331435   3.398   4.367   4.170 -0.8900 -0.2301  0.8160
 7917SOL    MW431436   3.475   4.371   4.211 -0.1473 -0.3705 -0.5043
 7918SOL     OW31437   4.891   3.172   2.756  0.3625 -0.6868  0.2457
 7918SOL    HW231438   4.915   3.124   2.677  1.8331  1.8585 -0.9699
 7918SOL    HW331439   4.797   3.156   2.766  0.5673 -2.8184 -0.7236
 7918SOL    MW431440   4.882   3.164   2.747  0.5835 -0.6322 -0.0425
 7919SOL     OW31441   5.925   4.359   3.537  0.5625 -0.2670 -0.2605
 7919SOL    HW231442   5.897   4.327   3.451  2.1621 -0.5064 -0.7324
 7919SOL    HW331443   5.844   4.371   3.586 -0.3400 -0.8236 -1.5590
 7919SOL    MW431444   5.911   4.357   3.532  0.6545 -0.3720 -0.4940
 7920SOL     OW31445   0.077   5.280   3.112  0.2055  0.3575 -0.2135
 7920SOL    HW231446   0.025   5.332   3.173  2.0045  1.1123  0.7801
 7920SOL    HW331447   0.105   5.204   3.163  1.3184  0.7398 -0.2337
 7920SOL    MW431448   0.074   5.277   3.127  0.5897  0.5075 -0.0851
 7921SOL     OW31449   0.577   1.754   2.330  0.0967 -0.1158  0.0936
 7921SOL    HW231450   0.581   1.771   2.424 -1.1734  0.6495  0.0274
 7921SOL    HW331451   0.597   1.661   2.322  1.9239  0.1700  0.9500
 7921SOL    MW431452   0.580   1.744   2.342  0.1702  0.0229  0.1979
 7922SOL     OW31453   1.788   0.704   6.181  0.5188 -0.2407 -0.3407
 7922SOL    HW231454   1.715   0.650   6.151  1.0548  0.5256 -3.4413
 7922SOL    HW331455   1.761   0.794   6.161  2.1332  0.0781 -1.2819
 7922SOL    MW431456   1.775   0.709   6.174  0.8025 -0.0975 -0.8740
 7923SOL     OW31457   6.209   3.038   3.599 -0.7555  0.2161 -0.1189
 7923SOL    HW231458   6.289   2.987   3.599 -1.3183 -0.6925 -1.1741
 7923SOL    HW331459   6.191   3.054   3.692 -0.7529 -1.8088  0.2690
 7923SOL    MW431460   6.217   3.034   3.611 -0.8294 -0.1710 -0.2069
 7924SOL     OW31461   4.607   5.545   4.165  0.5339  0.1266 -0.0423
 7924SOL    HW231462   4.679   5.549   4.228  0.8701 -0.9670 -0.3471
 7924SOL    HW331463   4.638   5.488   4.095 -0.5618 -0.2256 -0.2667
 7924SOL    MW431464   4.620   5.538   4.164  0.4337 -0.0642 -0.1122
 7925SOL     OW31465   6.247   1.171   3.852  0.0438 -0.8798  0.3296
 7925SOL    HW231466   6.155   1.174   3.825  0.5357  1.5925 -1.4238
 7925SOL    HW331467   6.244   1.169   3.948 -1.7805 -3.4365  0.3224
 7925SOL    MW431468   6.234   1.171   3.861 -0.1320 -0.8909  0.0973
 7926SOL     OW31469   5.001   5.733   1.404 -0.4352  0.1707 -0.4904
 7926SOL    HW231470   4.961   5.663   1.352  2.1028 -0.6066 -1.5340
 7926SOL    HW331471   4.972   5.813   1.362  0.0605 -0.4024 -1.9788
 7926SOL    MW431472   4.991   5.734   1.392 -0.0349 -0.0075 -0.8245
 7927SOL     OW31473   5.372   0.341   5.605  0.2428 -0.2345 -0.6435
 7927SOL    HW231474   5.410   0.376   5.525  0.0444  0.4749 -0.4344
 7927SOL    HW331475   5.300   0.285   5.575 -1.1215  1.5929 -0.9208
 7927SOL    MW431476   5.368   0.338   5.591  0.0366  0.1002 -0.6525
 7928SOL     OW31477   4.437   5.505   3.262  0.3960  0.1876  0.1865
 7928SOL    HW231478   4.491   5.462   3.195 -1.2217  0.1086 -1.1490
 7928SOL    HW331479   4.356   5.453   3.264 -0.0767  0.9391  1.3130
 7928SOL    MW431480   4.433   5.492   3.253  0.1202  0.2764  0.1589
 7929SOL     OW31481   2.552   0.610   1.119  0.4738  0.1310 -0.0848
 7929SOL    HW231482   2.622   0.577   1.063  1.5854  0.4762  1.0583
 7929SOL    HW331483   2.487   0.539   1.120  1.8840 -1.2161  0.7032
 7929SOL    MW431484   2.553   0.596   1.112  0.8065 -0.0012  0.1700
 7930SOL     OW31485   3.806   5.447   4.119  0.1125 -0.3911  0.8698
 7930SOL    HW231486   3.724   5.468   4.163  0.2222 -0.5843  1.1632
 7930SOL    HW331487   3.868   5.430   4.189 -0.4333 -3.6655  0.6990
 7930SOL    MW431488   3.803   5.448   4.134  0.0549 -0.8486  0.8860
 7931SOL     OW31489   5.115   3.425   5.237 -0.2502 -0.0070 -0.6764
 7931SOL    HW231490   5.188   3.381   5.193  0.1662 -0.2303  0.1936
 7931SOL    HW331491   5.108   3.509   5.193  1.9086  0.8818  0.4994
 7931SOL    MW431492   5.124   3.430   5.226  0.0895  0.0808 -0.4065
 7932SOL     OW31493   5.627   1.662   0.449  0.0184  0.3045  0.5625
 7932SOL    HW231494   5.673   1.595   0.397 -2.1383 -0.8726  0.0330
 7932SOL    HW331495   5.593   1.723   0.383  2.6719  2.5199  1.0866
 7932SOL    MW431496   5.628   1.661   0.433  0.0839  0.4415  0.5618
 7933SOL     OW31497   3.153   4.958   0.533 -0.0913  0.1981 -0.9690
 7933SOL    HW231498   3.131   4.885   0.474 -1.9475  0.7989 -1.0797
 7933SOL    HW331499   3.078   5.017   0.528 -0.7211 -0.0554  2.5442
 7933SOL    MW431500   3.140   4.956   0.525 -0.4193  0.2439 -0.5201
 7934SOL     OW31501   1.524   1.062   2.011 -0.1330 -0.3211  0.6725
 7934SOL    HW231502   1.541   1.009   2.089  1.0024 -1.2800 -0.1786
 7934SOL    HW331503   1.550   1.151   2.036  0.4002 -0.6521  1.3398
 7934SOL    MW431504   1.530   1.067   2.025  0.0871 -0.4913  0.6482
 7935SOL     OW31505   0.238   4.517   2.739  0.4694  0.4822  0.4174
 7935SOL    HW231506   0.307   4.516   2.673 -1.2504 -0.2064 -1.4828
 7935SOL    HW331507   0.193   4.600   2.726 -1.0606 -0.4545 -0.6698
 7935SOL    MW431508   0.241   4.528   2.728  0.0406  0.2678  0.0233
 7936SOL     OW31509   2.224   4.426   0.137 -0.1017 -0.4103  0.1823
 7936SOL    HW231510   2.196   4.420   0.229 -1.6262 -1.9031 -0.3341
 7936SOL    HW331511   2.216   4.337   0.104 -1.4587  0.4243 -1.9106
 7936SOL    MW431512   2.220   4.414   0.145 -0.4819 -0.4971 -0.1620
 7937SOL     OW31513   2.049   1.939   5.294  0.4555 -0.4598  0.2256
 7937SOL    HW231514   2.059   1.848   5.269 -0.3628 -1.2167  2.4593
 7937SOL    HW331515   1.965   1.943   5.340  0.1598  1.5600 -0.3525
 7937SOL    MW431516   2.039   1.928   5.296  0.3085 -0.2932  0.4441
 7938SOL     OW31517   1.313   2.665   2.915  0.1938  0.2607  0.5103
 7938SOL    HW231518   1.276   2.641   2.831  0.3138  1.0455  0.2237
 7938SOL    HW331519   1.361   2.746   2.898  0.9818 -0.0652  1.1405
 7938SOL    MW431520   1.314   2.672   2.902  0.3136  0.3212  0.5557
 7939SOL     OW31521   3.506   6.060   3.138  0.2396 -0.3146  0.4285
 7939SOL    HW231522   3.543   6.118   3.204 -1.6432  0.3343  0.9721
 7939SOL    HW331523   3.528   6.102   3.054  2.0547 -0.7946  0.6166
 7939SOL    MW431524   3.514   6.073   3.135  0.2307 -0.2923  0.5250
 7940SOL     OW31525   1.695   0.495   1.120 -0.5753  0.1318  0.0770
 7940SOL    HW231526   1.692   0.493   1.215 -1.2999 -1.2463  0.0436
 7940SOL    HW331527   1.604   0.487   1.092 -0.4927  1.6050 -0.7499
 7940SOL    MW431528   1.683   0.494   1.129 -0.6600  0.1443 -0.0365
 7941SOL     OW31529   4.373   4.528   1.406  0.1256 -0.1062  0.1839
 7941SOL    HW231530   4.371   4.597   1.340 -0.5763 -0.5024 -0.2202
 7941SOL    HW331531   4.391   4.574   1.488 -3.4799  1.0628  0.4816
 7941SOL    MW431532   4.375   4.543   1.409 -0.4427 -0.0042  0.1699
 7942SOL     OW31533   1.255   4.025   1.925 -0.4743 -0.1247 -0.0819
 7942SOL    HW231534   1.211   4.101   1.964  1.1328  0.0710  1.4763
 7942SOL    HW331535   1.223   3.950   1.976  0.1942 -0.1084  0.3703
 7942SOL    MW431536   1.245   4.025   1.937 -0.1741 -0.0967  0.1834
 7943SOL     OW31537   0.632   4.937   0.002  0.6695  0.3047 -0.3916
 7943SOL    HW231538   0.620   5.019   0.050 -0.4351  0.1203 -0.3253
 7943SOL    HW331539   0.622   4.961  -0.090 -0.4259  0.1482 -0.3367
 7943SOL    MW431540   0.629   4.951  -0.004  0.3792  0.2598 -0.3756
 7944SOL     OW31541   1.948   1.104   3.759 -0.1681 -0.6237  0.2400
 7944SOL    HW231542   1.888   1.114   3.685 -0.8633  0.4823  0.9252
 7944SOL    HW331543   1.937   1.012   3.786 -1.1820 -0.5737  0.0370
 7944SOL    MW431544   1.938   1.093   3.753 -0.3936 -0.4712  0.3036
 7945SOL     OW31545   2.935   5.959   2.067  0.6467 -0.3275 -0.1350
 7945SOL    HW231546   3.020   6.000   2.051 -0.8550  1.8817 -3.5960
 7945SOL    HW331547   2.899   6.007   2.142  1.7250 -0.0541  0.2203
 7945SOL    MW431548   2.941   5.971   2.075  0.5908  0.0001 -0.5448
 7946SOL     OW31549   2.693   4.120   2.821 -0.3345  0.2010  0.2585
 7946SOL    HW231550   2.695   4.025   2.832  0.2733  0.0066 -1.3444
 7946SOL    HW331551   2.758   4.152   2.884 -1.0726 -0.3503  1.3470
 7946SOL    MW431552   2.702   4.111   2.831 -0.3517  0.1026  0.1906
 7947SOL     OW31553   3.900   0.662   5.362  0.0153  0.1772  0.1275
 7947SOL    HW231554   3.838   0.611   5.413 -0.6788  1.6381  0.8118
 7947SOL    HW331555   3.912   0.743   5.413  1.5676  0.4305 -0.5826
 7947SOL    MW431556   3.893   0.666   5.376  0.1285  0.4034  0.1241
 7948SOL     OW31557   3.412   3.944   0.795 -0.1569  0.4123 -0.4604
 7948SOL    HW231558   3.393   4.037   0.784  0.2454  0.8342  1.7851
 7948SOL    HW331559   3.330   3.899   0.773 -1.1289  1.5172  0.7697
 7948SOL    MW431560   3.399   3.950   0.791 -0.2321  0.6137 -0.0018
 7949SOL     OW31561   2.604   1.002   3.178 -0.2732  0.1874 -0.0001
 7949SOL    HW231562   2.517   1.022   3.143 -0.1846  1.1526  0.3039
 7949SOL    HW331563   2.653   1.084   3.169  0.4950 -0.2395  0.1742
 7949SOL    MW431564   2.599   1.015   3.172 -0.1602  0.2584  0.0630
 7950SOL     OW31565   6.326   1.328   2.125 -0.1087 -0.2491 -0.2560
 7950SOL    HW231566   6.346   1.330   2.031 -1.5090  0.2388 -0.5688
 7950SOL    HW331567   6.274   1.407   2.140  0.5147 -0.0683  1.0403
 7950SOL    MW431568   6.322   1.339   2.114 -0.2112 -0.1609 -0.1262
 7951SOL     OW31569   1.009   2.261   2.299  0.0185 -1.2063 -0.2113
 7951SOL    HW231570   0.963   2.256   2.383 -1.9088 -1.2643 -1.2164
 7951SOL    HW331571   0.955   2.209   2.239 -0.1392  0.9900 -2.1103
 7951SOL    MW431572   0.996   2.254   2.303 -0.2566 -0.9242 -0.5945
 7952SOL     OW31573   0.556   1.120   0.115 -0.0909  0.0521  0.0070
 7952SOL    HW231574   0.528   1.030   0.132  0.3188 -0.2014 -0.6183
 7952SOL    HW331575   0.513   1.144   0.033 -0.6126  0.6173  0.4335
 7952SOL    MW431576   0.546   1.111   0.107 -0.1057  0.0932 -0.0192
 7953SOL     OW31577   4.102   4.119   2.992 -0.0433 -0.4162 -0.2235
 7953SOL    HW231578   4.017   4.078   2.977  0.1290 -0.2466 -1.9414
 7953SOL    HW331579   4.085   4.187   3.057 -1.6135  0.6937 -1.6878
 7953SOL    MW431580   4.088   4.123   2.998 -0.2277 -0.2473 -0.6434
 7954SOL     OW31581   0.333   5.754   0.898  0.6958  0.2528 -0.1542
 7954SOL    HW231582   0.361   5.817   0.831  1.3678 -0.9003 -1.0110
 7954SOL    HW331583   0.403   5.688   0.899 -0.9020 -1.5412 -0.7432
 7954SOL    MW431584   0.346   5.754   0.889  0.5737 -0.1361 -0.3450
 7955SOL     OW31585   5.280   4.625   4.337 -0.4521  0.1591 -0.1691
 7955SOL    HW231586   5.355   4.678   4.311  0.1570 -1.1210 -1.1761
 7955SOL    HW331587   5.243   4.669   4.413  0.2737  1.7576 -0.7132
 7955SOL    MW431588   5.285   4.638   4.343 -0.2760  0.2011 -0.3737
 7956SOL     OW31589   4.854   6.220   0.691  0.0074  0.4216  0.0342
 7956SOL    HW231590   4.915   6.240   0.762 -0.4124 -0.3451  0.6288
 7956SOL    HW331591   4.908   6.219   0.613  0.4569  1.4031  0.3134
 7956SOL    MW431592   4.869   6.223   0.690  0.0114  0.4499  0.1495
 7957SOL     OW31593   2.625   5.096   0.949  0.4217 -0.1719  0.8626
 7957SOL    HW231594   2.536   5.115   0.922  0.9403 -0.7125 -1.4864
 7957SOL    HW331595   2.621   5.007   0.986  0.1251 -0.5566 -0.0802
 7957SOL    MW431596   2.613   5.087   0.950  0.4510 -0.2940  0.4283
 7958SOL     OW31597   1.830   5.417   2.092 -0.2372 -0.0882 -0.4784
 7958SOL    HW231598   1.891   5.345   2.109 -0.5145  0.0990  1.6178
 7958SOL    HW331599   1.813   5.455   2.178 -3.3187 -0.1252 -0.9302
 7958SOL    MW431600   1.835   5.412   2.106 -0.6804 -0.0683 -0.2614
 7959SOL     OW31601   1.918   4.834   4.835  0.5085 -0.8900 -0.1468
 7959SOL    HW231602   1.858   4.869   4.901  2.2183  0.4855  0.7748
 7959SOL    HW331603   1.886   4.746   4.817 -0.4641 -1.0335  2.0026
 7959SOL    MW431604   1.906   4.827   4.842  0.6058 -0.7275  0.2584
 7960SOL     OW31605   4.202   3.696   0.442  0.4245  0.5859 -0.1474
 7960SOL    HW231606   4.187   3.644   0.522  0.3096 -0.1896 -0.6566
 7960SOL    HW331607   4.247   3.636   0.383  0.2141  1.0459 -0.7873
 7960SOL    MW431608   4.206   3.681   0.445  0.3816  0.5443 -0.2990
 7961SOL     OW31609   4.831   1.296   1.108  0.4365  0.3207  0.0945
 7961SOL    HW231610   4.894   1.297   1.180  0.5662 -0.0171 -0.0133
 7961SOL    HW331611   4.883   1.305   1.029  0.3618 -0.0528 -0.0007
 7961SOL    MW431612   4.846   1.297   1.107  0.4438  0.2269  0.0677
 7962SOL     OW31613   4.793   4.501   4.304 -0.5792 -0.1048  0.8183
 7962SOL    HW231614   4.862   4.528   4.243  0.0392 -1.0207  1.0940
 7962SOL    HW331615   4.719   4.559   4.283 -0.2349 -0.1003 -0.5026
 7962SOL    MW431616   4.792   4.512   4.293 -0.4522 -0.2251  0.6804
 7963SOL     OW31617   2.669   3.860   2.485 -0.0322 -0.0056 -0.3664
 7963SOL    HW231618   2.596   3.868   2.547 -0.4728  0.1245 -0.8914
 7963SOL    HW331619   2.652   3.777   2.439  0.4001 -0.2009 -0.1773
 7963SOL    MW431620   2.657   3.850   2.487 -0.0333 -0.0142 -0.4107
 7964SOL     OW31621   1.078   2.711   0.048 -0.0855  0.0778  0.2408
 7964SOL    HW231622   1.151   2.745   0.100  0.7179 -0.6064 -0.4136
 7964SOL    HW331623   1.101   2.620   0.032 -0.2899  0.2814 -1.3519
 7964SOL    MW431624   1.091   2.704   0.053 -0.0065  0.0144 -0.0557
 7965SOL     OW31625   3.030   5.548   3.496  0.4033 -0.1781  0.6292
 7965SOL    HW231626   2.996   5.480   3.554  0.4177 -0.4026  0.3760
 7965SOL    HW331627   2.953   5.580   3.449  0.2160  0.7326  1.5085
 7965SOL    MW431628   3.016   5.543   3.498  0.3805 -0.0876  0.7118
 7966SOL     OW31629   5.300   5.242   3.357  0.1948 -0.3596  0.4338
 7966SOL    HW231630   5.278   5.293   3.279 -1.0822 -2.1919 -0.4820
 7966SOL    HW331631   5.342   5.163   3.323 -0.3216 -1.1623  1.5904
 7966SOL    MW431632   5.303   5.238   3.342 -0.0418 -0.7072  0.4656
 7967SOL     OW31633   0.458   2.635   3.955 -0.1287 -0.0955  0.5116
 7967SOL    HW231634   0.447   2.724   3.988 -0.1604  0.0034  0.2332
 7967SOL    HW331635   0.530   2.641   3.892 -0.4098 -0.1857  0.1808
 7967SOL    MW431636   0.466   2.648   3.951 -0.1700 -0.0943  0.4312
 7968SOL     OW31637   1.219   5.519   0.409  0.0277 -0.3983  0.3991
 7968SOL    HW231638   1.130   5.551   0.391  0.7398  1.5356  0.1472
 7968SOL    HW331639   1.210   5.469   0.491 -1.1412  0.4757  0.8260
 7968SOL    MW431640   1.206   5.516   0.417 -0.0326 -0.0279  0.4222
 7969SOL     OW31641   4.809   2.638   2.262  0.2277  0.2921  0.5821
 7969SOL    HW231642   4.803   2.707   2.328  2.0633  1.8998 -0.8115
 7969SOL    HW331643   4.832   2.684   2.181  0.9636 -1.8922 -0.5278
 7969SOL    MW431644   4.811   2.653   2.260  0.5670  0.2160  0.2518
 7970SOL     OW31645   6.176   5.359   0.307 -0.2524 -0.3454  0.1214
 7970SOL    HW231646   6.271   5.355   0.319 -0.4162 -1.6598  1.1671
 7970SOL    HW331647   6.141   5.375   0.394 -1.0109 -0.2964 -0.1825
 7970SOL    MW431648   6.184   5.360   0.320 -0.3741 -0.5124  0.2193
 7971SOL     OW31649   2.462   4.621   5.337  0.0567 -0.3582  0.3594
 7971SOL    HW231650   2.389   4.588   5.389 -0.1561  0.0465  0.3192
 7971SOL    HW331651   2.521   4.660   5.401  0.0900 -0.4049  0.3579
 7971SOL    MW431652   2.460   4.622   5.352  0.0330 -0.3110  0.3539
 7972SOL     OW31653   1.788   5.724   2.993  0.1498  0.3700 -0.4936
 7972SOL    HW231654   1.833   5.809   2.995  0.7535  0.0351  0.4830
 7972SOL    HW331655   1.695   5.747   2.996  0.2745  1.0160 -1.0847
 7972SOL    MW431656   1.782   5.738   2.993  0.2459  0.4110 -0.4428
 7973SOL     OW31657   3.708   0.501   1.476  0.4667 -0.0991  0.5723
 7973SOL    HW231658   3.618   0.535   1.476  0.3549 -0.3701 -0.3214
 7973SOL    HW331659   3.720   0.466   1.564 -0.8087 -1.3529  0.2823
 7973SOL    MW431660   3.697   0.501   1.487  0.2836 -0.3003  0.4161
 7974SOL     OW31661   2.154   2.483   5.987 -0.0214 -0.2010  0.3180
 7974SOL    HW231662   2.192   2.415   6.042  0.8473  0.6857  0.8430
 7974SOL    HW331663   2.105   2.435   5.920 -1.3564 -1.3157  1.9953
 7974SOL    MW431664   2.152   2.468   5.985 -0.0829 -0.2311  0.6086
 7975SOL     OW31665   3.710   5.242   1.401 -0.3966 -0.3580  0.6511
 7975SOL    HW231666   3.751   5.296   1.332 -0.0550 -1.6700 -0.2075
 7975SOL    HW331667   3.685   5.305   1.469  0.2718  0.8438 -0.1781
 7975SOL    MW431668   3.712   5.258   1.401 -0.2633 -0.3725  0.4284
 7976SOL     OW31669   2.048   5.917   0.245  0.0537  0.4405  0.2754
 7976SOL    HW231670   2.104   5.847   0.210 -1.4762 -0.3487 -0.6912
 7976SOL    HW331671   2.024   5.970   0.170  0.0188  1.1636  0.7819
 7976SOL    MW431672   2.052   5.915   0.231 -0.1528  0.4318  0.2147
 7977SOL     OW31673   5.023   1.569   3.884 -0.2833 -0.0661 -0.0538
 7977SOL    HW231674   5.057   1.658   3.883  0.4378 -0.3391 -0.7846
 7977SOL    HW331675   5.038   1.538   3.973 -0.2812  0.4427  0.1244
 7977SOL    MW431676   5.029   1.576   3.895 -0.1879 -0.0350 -0.1267
 7978SOL     OW31677   5.849   4.048   2.297  0.2622  0.1821 -0.4068
 7978SOL    HW231678   5.822   4.124   2.245  2.3509  0.7121 -0.8138
 7978SOL    HW331679   5.897   3.992   2.235 -0.2847 -0.9288  0.1493
 7978SOL    MW431680   5.852   4.051   2.282  0.4656  0.1054 -0.3872
 7979SOL     OW31681   0.460   5.367   0.311 -0.6255 -0.0521  0.1070
 7979SOL    HW231682   0.489   5.390   0.399 -0.5180  0.0163  0.0545
 7979SOL    HW331683   0.387   5.307   0.324 -1.5136  1.0300  0.2629
 7979SOL    MW431684   0.454   5.362   0.324 -0.7285  0.0997  0.1206
 7980SOL     OW31685   3.990   0.268   1.408  0.3335  0.1290  0.2196
 7980SOL    HW231686   3.959   0.224   1.488 -3.2700  0.0670 -1.0397
 7980SOL    HW331687   4.073   0.308   1.434  0.1568 -1.2774  3.4982
 7980SOL    MW431688   3.996   0.268   1.422 -0.1652 -0.0648  0.4860
 7981SOL     OW31689   5.427   0.872   3.228 -0.1899 -0.2531 -0.3479
 7981SOL    HW231690   5.503   0.925   3.255  0.3919  0.1683 -2.6476
 7981SOL    HW331691   5.421   0.804   3.295  2.8467 -0.8924 -0.5854
 7981SOL    MW431692   5.436   0.870   3.241  0.2875 -0.2818 -0.6827
 7982SOL     OW31693   3.940   1.078   6.170  0.0847  0.0230 -0.0011
 7982SOL    HW231694   3.857   1.121   6.191 -0.9131 -0.6010 -2.3167
 7982SOL    HW331695   4.006   1.147   6.174 -0.9227  1.0163 -0.2867
 7982SOL    MW431696   3.938   1.093   6.174 -0.1799  0.0717 -0.3443
 7983SOL     OW31697   0.455   2.508   1.797  0.6038 -0.0341 -0.4721
 7983SOL    HW231698   0.414   2.560   1.866  2.9532  0.6790  0.4824
 7983SOL    HW331699   0.419   2.420   1.809 -0.5093  0.5127  0.3891
 7983SOL    MW431700   0.444   2.504   1.808  0.7669  0.1322 -0.2326
 7984SOL     OW31701   4.652   5.729   5.993 -0.1537 -0.2639 -0.5417
 7984SOL    HW231702   4.585   5.665   5.966  0.3093 -0.6809 -0.7097
 7984SOL    HW331703   4.601   5.802   6.028 -0.6727 -1.7464  2.0517
 7984SOL    MW431704   4.636   5.730   5.994 -0.1611 -0.5145 -0.2217
 7985SOL     OW31705   1.699   2.159   3.062  0.1794 -0.6569 -0.4373
 7985SOL    HW231706   1.695   2.074   3.106 -0.8529 -1.1169 -1.3957
 7985SOL    HW331707   1.716   2.221   3.133  1.2106 -1.6765  0.2425
 7985SOL    MW431708   1.701   2.156   3.077  0.1792 -0.8521 -0.4741
 7986SOL     OW31709   3.646   1.516   5.623 -0.2337 -0.0236  0.5456
 7986SOL    HW231710   3.596   1.435   5.609 -2.0629  0.9514  1.1192
 7986SOL    HW331711   3.736   1.486   5.636 -0.5707 -1.8452 -0.8351
 7986SOL    MW431712   3.651   1.501   5.623 -0.5195 -0.1353  0.4392
 7987SOL     OW31713   6.198   2.288   1.230 -0.1105  0.5172  0.0185
 7987SOL    HW231714   6.169   2.318   1.144  1.3540  1.3154 -0.2157
 7987SOL    HW331715   6.156   2.348   1.292  0.1605  0.9813 -0.2465
 7987SOL    MW431716   6.188   2.300   1.227  0.1185  0.6837 -0.0474
 7988SOL     OW31717   0.386   3.730   2.376 -0.3920 -0.2459 -0.1780
 7988SOL    HW231718   0.408   3.821   2.398  1.1400 -0.8724  1.0594
 7988SOL    HW331719   0.470   3.689   2.356 -1.0174 -1.5196 -0.2730
 7988SOL    MW431720   0.400   3.737   2.376 -0.2724 -0.4966 -0.0273
 7989SOL     OW31721   2.150   5.726   1.032 -0.3020 -0.0405  0.1328
 7989SOL    HW231722   2.135   5.819   1.050  0.8049 -0.0857  1.4437
 7989SOL    HW331723   2.073   5.698   0.982 -0.8872  1.4516  0.1572
 7989SOL    MW431724   2.138   5.734   1.028 -0.2332  0.1504  0.3089
 7990SOL     OW31725   4.408   6.421   3.993  0.1881  0.5543  0.4995
 7990SOL    HW231726   4.445   6.333   4.003 -1.6340 -0.3019  0.0531
 7990SOL    HW331727   4.313   6.408   3.996 -0.1863  2.2190 -1.8119
 7990SOL    MW431728   4.400   6.408   3.995 -0.1017  0.6609  0.1356
 7991SOL     OW31729   3.526   2.536   5.200 -0.3251 -0.4536  0.1684
 7991SOL    HW231730   3.474   2.488   5.265  0.2914  0.5174  1.4302
 7991SOL    HW331731   3.559   2.468   5.141  1.7419 -1.8860  2.7421
 7991SOL    MW431732   3.523   2.520   5.201  0.0290 -0.5145  0.6744
 7992SOL     OW31733   0.879   0.118   2.564 -0.2537 -0.0565 -0.2813
 7992SOL    HW231734   0.827   0.144   2.488  0.3624 -0.5575 -0.8956
 7992SOL    HW331735   0.819   0.123   2.638 -0.8236  0.6027 -0.7751
 7992SOL    MW431736   0.864   0.122   2.564 -0.2476 -0.0356 -0.4275
 7993SOL     OW31737   3.722   1.331   4.938 -0.1171 -0.3705 -0.3590
 7993SOL    HW231738   3.701   1.333   5.032 -1.8466 -0.8867 -0.6929
 7993SOL    HW331739   3.817   1.335   4.935 -0.0623  2.1426  1.3426
 7993SOL    MW431740   3.732   1.332   4.950 -0.3381 -0.1071 -0.1786
 7994SOL     OW31741   0.084   1.894   3.047  0.4492 -0.5611  0.4674
 7994SOL    HW231742   0.063   1.847   2.966  2.2204 -1.2130  0.3492
 7994SOL    HW331743   0.000   1.906   3.090 -1.3426  3.4250 -3.2981
 7994SOL    MW431744   0.070   1.890   3.042  0.4465 -0.1212 -0.0450
 7995SOL     OW31745   6.130   6.018   3.872  0.4056 -0.0096 -0.5749
 7995SOL    HW231746   6.121   5.980   3.784  0.0385  2.1096 -1.5386
 7995SOL    HW331747   6.057   6.079   3.878  0.1818 -0.4313  1.4146
 7995SOL    MW431748   6.119   6.021   3.861  0.3276  0.2143 -0.4396
 7996SOL     OW31749   0.118   1.218   4.001  0.5783 -0.2440  0.1434
 7996SOL    HW231750   0.111   1.201   3.907  0.8407 -0.7872  0.2192
 7996SOL    HW331751   0.170   1.145   4.035 -2.5071 -2.1294  1.2848
 7996SOL    MW431752   0.124   1.206   3.993  0.2058 -0.5644  0.3040
 7997SOL     OW31753   4.944   2.726   0.015 -0.2840 -0.3600 -0.6930
 7997SOL    HW231754   4.997   2.651  -0.015 -0.8761 -0.5322 -1.3407
 7997SOL    HW331755   4.963   2.732   0.108 -1.0061 -1.9675 -0.4045
 7997SOL    MW431756   4.954   2.717   0.023 -0.4574 -0.5948 -0.7404
 7998SOL     OW31757   4.121   3.912   4.493  0.0364  0.2768 -0.0737
 7998SOL    HW231758   4.095   3.837   4.546  1.0109  0.9694  1.4847
 7998SOL    HW331759   4.070   3.985   4.528  0.4180  0.6804 -0.3419
 7998SOL    MW431760   4.111   3.912   4.505  0.2154  0.4214  0.0965
 7999SOL     OW31761   2.036   5.461   1.463 -0.3748  0.3820  0.0172
 7999SOL    HW231762   2.075   5.541   1.427  1.0769 -0.2604  0.1080
 7999SOL    HW331763   2.106   5.396   1.457 -1.6459 -0.9908 -0.4042
 7999SOL    MW431764   2.050   5.463   1.457 -0.3510  0.1161 -0.0264
 8000SOL     OW31765   6.224   6.321   0.490 -0.4291 -0.0633  0.3767
 8000SOL    HW231766   6.211   6.251   0.554  0.4659 -0.6073 -0.0160
 8000SOL    HW331767   6.317   6.343   0.496 -0.1240 -0.7218 -1.3189
 8000SOL    MW431768   6.235   6.315   0.499 -0.2708 -0.2220  0.1012
 8001SOL     OW31769   4.767   2.587   0.408 -0.1272  0.0653 -0.5226
 8001SOL    HW231770   4.855   2.580   0.370  1.7787  1.9715  3.0240
 8001SOL    HW331771   4.720   2.647   0.350  1.3682  0.1220 -1.7234
 8001SOL    MW431772   4.772   2.594   0.395  0.3216  0.3243 -0.2131
 8002SOL     OW31773   3.063   2.044   1.428 -0.2557  0.1605  0.2603
 8002SOL    HW231774   3.112   2.007   1.501  1.1927  0.8941 -0.3080
 8002SOL    HW331775   2.981   2.076   1.468 -0.5561 -1.5563  1.1301
 8002SOL    MW431776   3.058   2.043   1.443 -0.1043  0.0308  0.3001
 8003SOL     OW31777   2.088   2.823   2.015  0.0186  0.1797 -0.5362
 8003SOL    HW231778   2.163   2.806   2.071  0.2612 -2.4172 -1.5151
 8003SOL    HW331779   2.026   2.753   2.036 -0.4294 -0.0752 -2.5297
 8003SOL    MW431780   2.089   2.812   2.025 -0.0085 -0.1965 -0.9284
 8004SOL     OW31781   3.050   2.604   1.361 -0.3115 -0.1636  0.4280
 8004SOL    HW231782   2.965   2.578   1.395 -1.6240  0.2753 -2.2388
 8004SOL    HW331783   3.092   2.522   1.337 -1.6947 -0.2868 -1.8562
 8004SOL    MW431784   3.044   2.590   1.362 -0.6672 -0.1220 -0.2252
 8005SOL     OW31785   6.342   2.704   1.328  0.4826  0.4797 -0.1227
 8005SOL    HW231786   6.312   2.749   1.249  0.7959 -2.0958 -1.8158
 8005SOL    HW331787   6.269   2.647   1.352  0.8659  0.3321  0.7068
 8005SOL    MW431788   6.328   2.703   1.321  0.5745  0.1204 -0.2367
 8006SOL     OW31789   2.189   0.244   0.651  0.0220  0.2706 -0.4358
 8006SOL    HW231790   2.158   0.317   0.598  0.7747 -0.1089 -1.4251
 8006SOL    HW331791   2.252   0.198   0.596 -1.5644 -2.0742 -0.4567
 8006SOL    MW431792   2.194   0.247   0.637 -0.0880 -0.0888 -0.5691
 8007SOL     OW31793   0.243   1.921   4.971 -0.4811  0.1350 -0.1795
 8007SOL    HW231794   0.164   1.888   4.929 -0.2078 -0.2893 -0.3705
 8007SOL    HW331795   0.230   2.015   4.976 -0.3128  0.2747 -1.6877
 8007SOL    MW431796   0.231   1.929   4.966 -0.4228  0.0974 -0.4037
 8008SOL     OW31797   0.222   3.214   2.605 -0.1220  0.0440 -0.1171
 8008SOL    HW231798   0.167   3.228   2.682  0.0967  0.0544  0.0380
 8008SOL    HW331799   0.305   3.257   2.626 -0.2429  0.5244 -0.5765
 8008SOL    MW431800   0.225   3.222   2.618 -0.1091  0.1088 -0.1572
 8009SOL     OW31801   3.500   5.650   5.891 -0.2936  0.2560  0.6873
 8009SOL    HW231802   3.516   5.584   5.823 -0.7956  0.3239  0.4993
 8009SOL    HW331803   3.579   5.704   5.891 -0.2046  0.1284  0.3013
 8009SOL    MW431804   3.512   5.649   5.882 -0.3481  0.2482  0.6116
 8010SOL     OW31805   0.896   5.462   2.058  0.0555  0.0459 -0.5860
 8010SOL    HW231806   0.967   5.520   2.087 -0.4774  0.1058  0.6832
 8010SOL    HW331807   0.827   5.475   2.123 -0.5218 -1.1489 -0.9354
 8010SOL    MW431808   0.896   5.471   2.070 -0.0910 -0.1038 -0.4646
 8011SOL     OW31809   5.009   3.413   2.392 -0.2425 -1.1808  0.2318
 8011SOL    HW231810   5.011   3.437   2.300  0.6914 -0.4547  0.4225
 8011SOL    HW331811   4.966   3.488   2.435  0.7288 -0.8050  0.5682
 8011SOL    MW431812   5.004   3.426   2.386  0.0089 -1.0354  0.3014
 8012SOL     OW31813   3.524   2.350   0.639  0.2905  0.2480 -0.5212
 8012SOL    HW231814   3.525   2.413   0.567 -1.2473  2.5812  1.3525
 8012SOL    HW331815   3.613   2.350   0.673  0.4408  1.0214 -0.8967
 8012SOL    MW431816   3.536   2.358   0.634  0.1074  0.6579 -0.3235
 8013SOL     OW31817   1.314   1.110   6.356 -0.6793  0.2757  0.3606
 8013SOL    HW231818   1.299   1.128   6.263 -1.3768  0.2278  0.4574
 8013SOL    HW331819   1.258   1.036   6.376  0.3540 -0.4752  0.5530
 8013SOL    MW431820   1.305   1.103   6.347 -0.6350  0.1703  0.3988
 8014SOL     OW31821   4.060   2.171   3.630  0.1999  0.3360  0.0024
 8014SOL    HW231822   4.054   2.244   3.692 -0.0634 -0.2215  0.6412
 8014SOL    HW331823   3.969   2.153   3.606  0.2757  0.3207 -0.2819
 8014SOL    MW431824   4.047   2.178   3.635  0.1752  0.2604  0.0491
 8015SOL     OW31825   4.939   0.616   5.034  0.2695  0.3271 -0.1798
 8015SOL    HW231826   4.911   0.663   4.955 -0.8566  1.5460  0.9075
 8015SOL    HW331827   5.029   0.590   5.016 -0.5873 -1.2882 -2.7136
 8015SOL    MW431828   4.947   0.618   5.021  0.0079  0.2748 -0.3707
 8016SOL     OW31829   4.840   5.948   1.317  0.3627  0.1679 -0.1814
 8016SOL    HW231830   4.767   5.984   1.366 -1.1179 -0.1548 -2.0365
 8016SOL    HW331831   4.874   6.022   1.267  0.4487  0.0378 -0.3167
 8016SOL    MW431832   4.835   5.963   1.317  0.1787  0.1081 -0.4440
 8017SOL     OW31833   4.603   4.942   1.453 -0.0479  0.6573  0.5221
 8017SOL    HW231834   4.537   4.946   1.384  0.9774  0.1692 -0.5287
 8017SOL    HW331835   4.677   4.992   1.419 -0.0516  1.6481  1.8995
 8017SOL    MW431836   4.604   4.949   1.439  0.0869  0.7236  0.5652
 8018SOL     OW31837   1.086   3.542   2.840 -0.0925  0.0232 -0.3382
 8018SOL    HW231838   1.008   3.488   2.855 -1.1146  1.4448 -0.3870
 8018SOL    HW331839   1.057   3.610   2.779  0.9329  1.1398  0.3854
 8018SOL    MW431840   1.072   3.544   2.834 -0.0921  0.3581 -0.2492
 8019SOL     OW31841   1.454   3.339   5.289  0.4029  0.4781 -0.3213
 8019SOL    HW231842   1.436   3.377   5.375 -1.0390 -0.9352  0.0332
 8019SOL    HW331843   1.431   3.408   5.227 -3.5345 -0.1279  0.2344
 8019SOL    MW431844   1.449   3.353   5.292 -0.3069  0.2117 -0.2012
 8020SOL     OW31845   1.123   1.957   6.068 -0.1791 -0.1521 -0.3320
 8020SOL    HW231846   1.142   1.948   6.161  1.7872 -1.3021 -0.7902
 8020SOL    HW331847   1.208   1.978   6.028 -0.8310 -0.4606 -1.9677
 8020SOL    MW431848   1.137   1.959   6.075 -0.0057 -0.3445 -0.6082
 8021SOL     OW31849   4.205   3.173   5.616 -0.7092  0.2248  0.0163
 8021SOL    HW231850   4.202   3.247   5.556 -0.0959 -1.4429 -2.1955
 8021SOL    HW331851   4.161   3.102   5.570  1.5340 -1.7034  0.6433
 8021SOL    MW431852   4.199   3.173   5.602 -0.3323 -0.2496 -0.1928
 8022SOL     OW31853   4.995   2.668   5.230 -0.4789 -0.2284 -0.3323
 8022SOL    HW231854   5.081   2.668   5.270 -0.1142  0.3129 -1.0838
 8022SOL    HW331855   4.934   2.654   5.303  0.1202  1.2838  0.4998
 8022SOL    MW431856   4.998   2.666   5.245 -0.3517  0.0425 -0.3217
 8023SOL     OW31857   6.088   3.155   6.300  0.6761  0.6646 -0.0813
 8023SOL    HW231858   6.114   3.206   6.377  2.2268  0.7992 -0.6483
 8023SOL    HW331859   6.032   3.214   6.250  0.5217  0.9531  0.4258
 8023SOL    MW431860   6.084   3.170   6.303  0.8603  0.7204 -0.0892
 8024SOL     OW31861   6.122   3.521   3.005 -0.0628 -0.2479  0.4325
 8024SOL    HW231862   6.118   3.593   3.068  0.8386 -0.8769  1.2433
 8024SOL    HW331863   6.117   3.442   3.059  1.8633 -0.8239 -0.1386
 8024SOL    MW431864   6.121   3.520   3.021  0.3103 -0.4069  0.4641
 8025SOL     OW31865   5.873   3.675   2.330 -0.0709  0.5281 -0.0706
 8025SOL    HW231866   5.934   3.611   2.366  0.7752  1.8494  0.9324
 8025SOL    HW331867   5.787   3.649   2.364  0.4850  0.7936  1.6083
 8025SOL    MW431868   5.870   3.663   2.339  0.1141  0.7375  0.2833
 8026SOL     OW31869   2.207   0.592   0.675  0.1873  0.4745 -0.2691
 8026SOL    HW231870   2.114   0.588   0.698  0.1956  0.8953 -0.1457
 8026SOL    HW331871   2.250   0.534   0.737  0.0528  0.5929 -0.0624
 8026SOL    MW431872   2.200   0.584   0.686  0.1707  0.5456 -0.2255
 8027SOL     OW31873   5.765   0.155   4.568  0.0258  0.6175 -0.4063
 8027SOL    HW231874   5.806   0.075   4.603 -0.3883  0.9598  0.9306
 8027SOL    HW331875   5.709   0.123   4.498  1.7276  0.0205 -1.5582
 8027SOL    MW431876   5.763   0.140   4.564  0.1957  0.5839 -0.3819
 8028SOL     OW31877   0.058   3.035   4.166 -0.4185 -0.1535  0.7085
 8028SOL    HW231878   0.034   2.970   4.232  0.5806  1.4024  2.7500
 8028SOL    HW331879  -0.013   3.099   4.167  0.1528  0.4980  1.2016
 8028SOL    MW431880   0.046   3.035   4.175 -0.2113  0.1377  1.0429
 8029SOL     OW31881   3.300   4.671   5.929  0.1319  0.3502  0.3709
 8029SOL    HW231882   3.269   4.583   5.952  1.7516 -0.2958  0.1759
 8029SOL    HW331883   3.351   4.659   5.850 -0.9356  1.7476 -0.5780
 8029SOL    MW431884   3.302   4.658   5.922  0.2048  0.4494  0.2200
 8030SOL     OW31885   2.423   2.697   4.118 -0.1861  0.2986  0.5277
 8030SOL    HW231886   2.445   2.614   4.161 -0.0676  0.7407  1.3312
 8030SOL    HW331887   2.468   2.764   4.170  0.0175  0.8379 -0.3336
 8030SOL    MW431888   2.432   2.695   4.131 -0.1436  0.4281  0.5201
 8031SOL     OW31889   5.951   5.418   6.341 -0.0327  0.7387  0.6823
 8031SOL    HW231890   5.988   5.394   6.256  0.0758  1.5587  0.4943
 8031SOL    HW331891   5.858   5.431   6.324  0.0484  1.2309  0.6240
 8031SOL    MW431892   5.944   5.416   6.328 -0.0077  0.9118  0.6498
 8032SOL     OW31893   1.322   2.313   1.997 -0.1331  0.4904 -0.2463
 8032SOL    HW231894   1.304   2.353   1.912 -0.8693  1.0680  0.1719
 8032SOL    HW331895   1.384   2.373   2.039  0.7837 -0.1530 -0.6363
 8032SOL    MW431896   1.328   2.326   1.991 -0.1092  0.4817 -0.2426
 8033SOL     OW31897   0.080   3.226   3.207  0.0496  0.6731  0.1078
 8033SOL    HW231898   0.080   3.220   3.111  0.1652  1.5094  0.0520
 8033SOL    HW331899   0.029   3.150   3.235 -1.4750  1.3476 -0.6876
 8033SOL    MW431900   0.073   3.215   3.198 -0.1363  0.8724 -0.0045
 8034SOL     OW31901   1.306   3.361   0.950  0.2416  0.4728  0.3996
 8034SOL    HW231902   1.287   3.341   1.042 -0.0532  0.8943  0.4344
 8034SOL    HW331903   1.220   3.374   0.910  0.3911  0.9626  0.2246
 8034SOL    MW431904   1.292   3.360   0.957  0.2225  0.5931  0.3811
 8035SOL     OW31905   4.484   0.298   2.919 -0.0809 -0.0597 -0.2084
 8035SOL    HW231906   4.567   0.268   2.882 -1.0310 -0.1538 -2.4318
 8035SOL    HW331907   4.427   0.221   2.919 -0.1449 -0.0483  1.4881
 8035SOL    MW431908   4.487   0.284   2.914 -0.2147 -0.0706 -0.2779
 8036SOL     OW31909   4.932   0.866   2.769 -0.2024 -0.7669  0.4837
 8036SOL    HW231910   5.025   0.843   2.762  0.1445  0.8569 -0.9951
 8036SOL    HW331911   4.932   0.962   2.777 -1.7539 -0.7218  0.2705
 8036SOL    MW431912   4.944   0.876   2.769 -0.3613 -0.5467  0.2605
 8037SOL     OW31913   1.521   0.204   2.465 -0.0132 -0.3010 -0.5862
 8037SOL    HW231914   1.476   0.289   2.462 -1.2950 -0.9683 -1.0958
 8037SOL    HW331915   1.549   0.189   2.375  0.5660 -0.2457 -0.4191
 8037SOL    MW431916   1.519   0.213   2.453 -0.1059 -0.3818 -0.6314
 8038SOL     OW31917   6.190   4.230   4.341  0.3771 -0.2849 -0.1254
 8038SOL    HW231918   6.099   4.229   4.309  0.2581  0.7881  0.1392
 8038SOL    HW331919   6.211   4.137   4.355  0.1369 -0.7416 -2.4168
 8038SOL    MW431920   6.180   4.217   4.339  0.3297 -0.2036 -0.3928
 8039SOL     OW31921   2.674   1.323   4.425 -0.1385  0.5416 -0.6897
 8039SOL    HW231922   2.730   1.401   4.422  0.7979 -0.0527  0.3652
 8039SOL    HW331923   2.735   1.251   4.441 -1.2442 -0.0243  1.3771
 8039SOL    MW431924   2.690   1.324   4.427 -0.1609  0.3885 -0.2778
 8040SOL     OW31925   5.873   1.638   2.610  0.5407 -0.0397  0.1851
 8040SOL    HW231926   5.823   1.690   2.673 -1.1843  0.1378 -1.2375
 8040SOL    HW331927   5.962   1.672   2.615  0.5375 -0.2693  2.7201
 8040SOL    MW431928   5.878   1.649   2.619  0.3127 -0.0466  0.3318
 8041SOL     OW31929   2.094   4.558   4.621 -0.1381  0.1163 -0.1449
 8041SOL    HW231930   2.034   4.545   4.694  1.5711 -0.5733  1.2339
 8041SOL    HW331931   2.162   4.616   4.656  1.6202 -1.5580 -0.5683
 8041SOL    MW431932   2.095   4.564   4.636  0.3194 -0.1956 -0.0189
 8042SOL     OW31933   2.196   4.917   2.849  0.2348  0.4092  0.1212
 8042SOL    HW231934   2.237   5.004   2.851  0.9004  0.1071  0.0007
 8042SOL    HW331935   2.174   4.903   2.756  1.9309 -0.3535 -0.2014
 8042SOL    MW431936   2.199   4.927   2.837  0.5464  0.2687  0.0627
 8043SOL     OW31937   1.425   0.922   6.103 -0.0854 -0.1462 -0.7151
 8043SOL    HW231938   1.442   0.840   6.057 -0.9699 -0.1963 -0.9763
 8043SOL    HW331939   1.422   0.897   6.196 -1.0483 -0.5463 -0.8435
 8043SOL    MW431940   1.427   0.908   6.109 -0.3291 -0.2056 -0.7665
 8044SOL     OW31941   2.326   2.499   4.415  0.5885  0.2424 -0.3230
 8044SOL    HW231942   2.355   2.447   4.340  2.2207  0.2970  0.2260
 8044SOL    HW331943   2.262   2.443   4.460  0.1278 -0.0745 -1.3369
 8044SOL    MW431944   2.321   2.485   4.411  0.7431  0.2078 -0.3844
 8045SOL     OW31945   1.704   5.964   1.947 -0.0737  0.0357 -0.5805
 8045SOL    HW231946   1.686   5.876   1.980  0.3561  0.3796  0.6450
 8045SOL    HW331947   1.799   5.966   1.935  0.1903  0.8749  1.2003
 8045SOL    MW431948   1.714   5.953   1.950  0.0178  0.1918 -0.1838
 8046SOL     OW31949   0.644   5.839   2.182 -0.0315 -0.2264 -0.0336
 8046SOL    HW231950   0.564   5.869   2.223  0.8135  0.9654  0.8134
 8046SOL    HW331951   0.616   5.798   2.100 -1.4916  0.0848  0.2915
 8046SOL    MW431952   0.630   5.837   2.176 -0.1127 -0.0281  0.1210
 8047SOL     OW31953   3.662   1.898   1.843  0.0996 -0.8149  0.3778
 8047SOL    HW231954   3.673   1.878   1.936  3.6732  0.2512  0.3466
 8047SOL    HW331955   3.708   1.827   1.798  0.2405 -0.2104 -0.4467
 8047SOL    MW431956   3.669   1.886   1.849  0.5897 -0.5944  0.2649
 8048SOL     OW31957   2.182   4.052   3.938 -0.0841  0.2460  0.0907
 8048SOL    HW231958   2.164   3.984   4.003  0.1407 -1.0801 -1.1939
 8048SOL    HW331959   2.118   4.120   3.956  0.7028  0.4603  2.4343
 8048SOL    MW431960   2.171   4.052   3.949  0.0494  0.0993  0.2304
 8049SOL     OW31961   3.952   5.809   3.017  0.5628 -0.3724  0.4995
 8049SOL    HW231962   3.892   5.853   2.957  1.7412  1.7389  0.7633
 8049SOL    HW331963   3.896   5.755   3.073 -0.7999 -0.3583 -0.7955
 8049SOL    MW431964   3.937   5.807   3.017  0.5385 -0.0920  0.3635
 8050SOL     OW31965   3.030   3.660   4.257 -0.7636  0.0136 -0.3188
 8050SOL    HW231966   2.988   3.580   4.290  1.6905 -1.4435 -0.4107
 8050SOL    HW331967   2.983   3.680   4.176 -1.2562 -1.5727 -0.4689
 8050SOL    MW431968   3.019   3.652   4.250 -0.5048 -0.3879 -0.3507
 8051SOL     OW31969   2.033   4.125   5.236  0.3026  0.1986 -0.0777
 8051SOL    HW231970   2.060   4.127   5.328  0.2952  1.4934 -0.0915
 8051SOL    HW331971   2.112   4.149   5.187  0.1000  0.3251 -0.3501
 8051SOL    MW431972   2.047   4.128   5.242  0.2749  0.3861 -0.1155
 8052SOL     OW31973   3.076   2.598   6.299 -0.8444 -0.6084 -0.3381
 8052SOL    HW231974   3.040   2.679   6.262  2.6323  1.9407  1.3027
 8052SOL    HW331975   3.011   2.571   6.364 -1.9235  1.1917 -0.5805
 8052SOL    MW431976   3.062   2.605   6.303 -0.5280 -0.0345 -0.1536
 8053SOL     OW31977   4.127   5.266   0.161  0.0476 -0.0891 -0.4050
 8053SOL    HW231978   4.135   5.215   0.241  0.2687 -0.0072 -0.3735
 8053SOL    HW331979   4.053   5.227   0.114 -0.4196  0.2033  0.0854
 8053SOL    MW431980   4.119   5.254   0.165  0.0151 -0.0397 -0.3362
 8054SOL     OW31981   6.212   4.989   0.813 -0.6029  0.4885  0.2230
 8054SOL    HW231982   6.296   5.011   0.854  0.0299  0.2015 -0.8632
 8054SOL    HW331983   6.173   4.924   0.872  0.9935 -1.0812 -0.3620
 8054SOL    MW431984   6.218   4.983   0.826 -0.3088  0.2435  0.0025
 8055SOL     OW31985   2.322   4.716   3.945  0.1670  0.7365  0.1142
 8055SOL    HW231986   2.258   4.784   3.926 -1.2009  0.0146  1.9235
 8055SOL    HW331987   2.275   4.634   3.933  0.8187  0.1748  1.1898
 8055SOL    MW431988   2.308   4.714   3.941  0.0725  0.5672  0.4949
 8056SOL     OW31989   2.479   1.688  -0.002  0.4534 -0.2986  0.1843
 8056SOL    HW231990   2.418   1.626  -0.042 -0.8224 -0.4106  2.1509
 8056SOL    HW331991   2.449   1.774  -0.030  0.4306 -0.4359 -0.2137
 8056SOL    MW431992   2.467   1.691  -0.011  0.2821 -0.3315  0.3913
 8057SOL     OW31993   6.281   3.731   4.914 -0.1857  0.4188 -0.0946
 8057SOL    HW231994   6.221   3.765   4.980 -0.3926  1.7639 -0.9416
 8057SOL    HW331995   6.366   3.730   4.956 -0.5804 -0.3278  0.7184
 8057SOL    MW431996   6.284   3.735   4.928 -0.2651  0.4978 -0.0991
 8058SOL     OW31997   5.285   4.732   5.862  0.0193  0.0037  0.1271
 8058SOL    HW231998   5.210   4.700   5.812 -0.8035  1.0142  0.6695
 8058SOL    HW331999   5.247   4.762   5.945  0.8548  1.4811  0.0204
 8058SOL    MW432000   5.270   4.732   5.866  0.0210  0.3319  0.1846
 8059SOL     OW32001   5.523   1.718   0.735 -0.3710 -0.1319  0.2393
 8059SOL    HW232002   5.540   1.702   0.642 -0.6354 -2.7733  0.5562
 8059SOL    HW332003   5.576   1.795   0.756  2.9902 -1.8032 -1.2003
 8059SOL    MW432004   5.532   1.726   0.725  0.0376 -0.7009  0.0912
 8060SOL     OW32005   3.644   1.670   0.828  0.2720  0.0353 -0.4352
 8060SOL    HW232006   3.652   1.575   0.840 -0.1117  0.0751  0.1733
 8060SOL    HW332007   3.629   1.704   0.916  0.1463  0.6337 -0.6854
 8060SOL    MW432008   3.643   1.662   0.841  0.2048  0.1195 -0.3880
 8061SOL     OW32009   3.110   4.999   3.534 -0.0617 -0.8130 -0.5497
 8061SOL    HW232010   3.046   5.070   3.541 -0.2578 -0.9540 -0.8606
 8061SOL    HW332011   3.076   4.930   3.592  0.2218 -0.5849 -0.1125
 8061SOL    MW432012   3.097   4.999   3.542 -0.0502 -0.8015 -0.5330
 8062SOL     OW32013   3.943   2.778   4.569  0.5091  0.3060  0.0663
 8062SOL    HW232014   3.851   2.758   4.586  0.6658 -0.1745  0.3520
 8062SOL    HW332015   3.980   2.796   4.655  1.3658 -2.3922  0.3586
 8062SOL    MW432016   3.936   2.778   4.582  0.6428 -0.1134  0.1426
 8063SOL     OW32017   0.262   5.240   4.542  0.0327 -0.2935  0.4674
 8063SOL    HW232018   0.320   5.314   4.562 -0.4236 -0.4466  2.5600
 8063SOL    HW332019   0.193   5.244   4.608 -2.0726 -0.4894 -1.5861
 8063SOL    MW432020   0.261   5.250   4.553 -0.3053 -0.3395  0.4725
 8064SOL     OW32021   1.968   4.077   2.988 -0.5712  0.1209  0.4492
 8064SOL    HW232022   2.031   4.080   3.060  0.4684 -1.4599 -0.3424
 8064SOL    HW332023   1.932   4.166   2.984  1.2383  0.9446  1.2557
 8064SOL    MW432024   1.972   4.089   2.997 -0.1953  0.0210  0.4512
 8065SOL     OW32025   0.573   4.930   2.075 -0.7092 -0.5198 -0.9078
 8065SOL    HW232026   0.627   4.985   2.017 -0.0797 -0.2587 -0.0942
 8065SOL    HW332027   0.621   4.848   2.081 -0.8067 -0.5700 -0.8180
 8065SOL    MW432028   0.586   4.927   2.068 -0.6390 -0.4920 -0.7886
 8066SOL     OW32029   3.098   3.558   6.266 -0.6138  0.9097 -0.6051
 8066SOL    HW232030   3.156   3.602   6.204  0.2508 -2.7361 -2.6515
 8066SOL    HW332031   3.041   3.505   6.211 -2.4106  0.3950  1.6259
 8066SOL    MW432032   3.098   3.557   6.250 -0.7368  0.3608 -0.5807
 8067SOL     OW32033   0.031   2.203   2.782  0.2821  0.1757 -0.0201
 8067SOL    HW232034   0.039   2.297   2.772  0.5268  0.3042  1.2597
 8067SOL    HW332035  -0.058   2.190   2.815 -0.0968 -0.1419 -1.1023
 8067SOL    MW432036   0.020   2.213   2.785  0.2644  0.1508  0.0060
 8068SOL     OW32037   1.022   4.282   4.440  0.4729 -0.6476  0.6417
 8068SOL    HW232038   1.013   4.359   4.385  0.8268 -0.9316  0.1755
 8068SOL    HW332039   0.950   4.288   4.502 -1.0359 -1.2561 -0.9808
 8068SOL    MW432040   1.011   4.293   4.441  0.3206 -0.7653  0.3661
 8069SOL     OW32041   0.077   4.361   4.419 -0.2326  0.6992  0.5864
 8069SOL    HW232042   0.038   4.279   4.388 -0.7209  0.8623  0.7579
 8069SOL    HW332043   0.006   4.425   4.411  0.2631  1.1955  0.0713
 8069SOL    MW432044   0.062   4.359   4.414 -0.2317  0.7862  0.5411
 8070SOL     OW32045   3.146   2.652   5.553 -0.2063  0.0668 -0.5215
 8070SOL    HW232046   3.134   2.657   5.648  1.0800 -2.4589 -0.1475
 8070SOL    HW332047   3.198   2.729   5.532 -0.0227  0.3699  0.9098
 8070SOL    MW432048   3.151   2.663   5.563 -0.0124 -0.2264 -0.2833
 8071SOL     OW32049   4.233   2.444   4.689  0.1355 -0.0832  0.1149
 8071SOL    HW232050   4.297   2.504   4.728  1.0141  0.2916 -1.7711
 8071SOL    HW332051   4.200   2.491   4.613  2.1244 -2.5276 -2.4774
 8071SOL    MW432052   4.237   2.458   4.684  0.5138 -0.3562 -0.4760
 8072SOL     OW32053   4.536   4.859   5.074 -0.1131  0.1257 -0.2967
 8072SOL    HW232054   4.475   4.809   5.019 -0.1267  1.5053 -1.6291
 8072SOL    HW332055   4.521   4.950   5.048  0.9976  0.6785  0.9201
 8072SOL    MW432056   4.526   4.865   5.063  0.0316  0.3806 -0.3120
 8073SOL     OW32057   0.211   6.188   2.500 -0.4043  0.7082  0.1852
 8073SOL    HW232058   0.285   6.198   2.560  0.5121  1.1929 -0.9805
 8073SOL    HW332059   0.148   6.255   2.527 -0.0660  0.8323  0.6778
 8073SOL    MW432060   0.213   6.198   2.511 -0.2388  0.7885  0.0964
 8074SOL     OW32061   4.215   0.673   1.086  0.0677 -0.2566 -0.5353
 8074SOL    HW232062   4.215   0.741   1.018  1.5985 -0.6422 -0.9440
 8074SOL    HW332063   4.249   0.717   1.164 -3.3289  0.6791  0.5862
 8074SOL    MW432064   4.219   0.688   1.087 -0.1785 -0.1841 -0.4412
 8075SOL     OW32065   3.410   5.810   2.900 -0.7336 -0.3422 -0.1307
 8075SOL    HW232066   3.412   5.857   2.816  2.1223 -0.4936 -0.2434
 8075SOL    HW332067   3.428   5.719   2.876 -1.0921 -0.5933  0.5544
 8075SOL    MW432068   3.413   5.804   2.885 -0.4041 -0.3953 -0.0551
 8076SOL     OW32069   0.032   3.199   6.290  0.1659  0.1323 -0.3451
 8076SOL    HW232070   0.127   3.190   6.282  0.3335  0.2241  1.2465
 8076SOL    HW332071  -0.001   3.109   6.288  0.2864  0.0996 -0.8704
 8076SOL    MW432072   0.040   3.186   6.289  0.2039  0.1401 -0.2044
 8077SOL     OW32073   2.785   3.022   1.863  0.1399  0.4743  0.0060
 8077SOL    HW232074   2.836   3.053   1.938 -0.1997 -0.8900  0.8417
 8077SOL    HW332075   2.847   2.974   1.809  0.1187  0.3546  0.0878
 8077SOL    MW432076   2.800   3.020   1.866  0.0923  0.2785  0.1270
 8078SOL     OW32077   3.055   2.784   1.146 -0.2736 -0.0519  0.3893
 8078SOL    HW232078   3.044   2.736   1.064 -1.3429 -0.4269  0.7348
 8078SOL    HW332079   3.048   2.717   1.215  3.2283 -0.2133  0.7872
 8078SOL    MW432080   3.053   2.769   1.145  0.0473 -0.1227  0.4874
 8079SOL     OW32081   4.633   3.689   4.643  0.2856 -0.3883  0.0288
 8079SOL    HW232082   4.604   3.692   4.552  0.5046 -1.5738 -0.0847
 8079SOL    HW332083   4.725   3.662   4.638  0.3838 -0.1710  0.5901
 8079SOL    MW432084   4.641   3.686   4.631  0.3275 -0.5160  0.0879
 8080SOL     OW32085   6.042   3.505   2.494  0.2803  0.4197  0.0680
 8080SOL    HW232086   6.074   3.553   2.571  1.6074 -0.2638 -0.0332
 8080SOL    HW332087   5.965   3.459   2.526  1.0085 -0.1297  1.1155
 8080SOL    MW432088   6.036   3.505   2.509  0.5515  0.2570  0.1929
 8081SOL     OW32089   5.576   3.921   3.308  0.3432  0.2062 -0.5746
 8081SOL    HW232090   5.662   3.940   3.270  1.4556 -1.8533  0.6492
 8081SOL    HW332091   5.590   3.930   3.402 -0.4859 -1.0681 -0.3034
 8081SOL    MW432092   5.589   3.924   3.315  0.3806 -0.2337 -0.3774
 8082SOL     OW32093   5.154   3.729   1.225 -0.2681  0.2891 -0.0951
 8082SOL    HW232094   5.108   3.648   1.206 -0.6366  0.0391  1.7072
 8082SOL    HW332095   5.086   3.797   1.220  0.1610  0.6406 -2.2566
 8082SOL    MW432096   5.139   3.727   1.222 -0.2601  0.3025 -0.1425
 8083SOL     OW32097   3.889   1.343   4.213 -0.1379 -0.0055 -0.5674
 8083SOL    HW232098   3.910   1.435   4.198  0.6959  0.1815  1.5022
 8083SOL    HW332099   3.961   1.310   4.265 -0.5398 -1.8006 -1.0741
 8083SOL    MW432100   3.901   1.351   4.218 -0.0809 -0.2176 -0.3612
 8084SOL     OW32101   1.188   2.307   0.757 -0.0410  0.1132  0.1735
 8084SOL    HW232102   1.110   2.349   0.795  0.6588  1.1857  0.4838
 8084SOL    HW332103   1.191   2.341   0.667  0.9540  1.4134  0.6541
 8084SOL    MW432104   1.178   2.317   0.750  0.1826  0.4263  0.2779
 8085SOL     OW32105   6.284   3.198   4.888 -0.1883 -0.1086  0.1041
 8085SOL    HW232106   6.356   3.135   4.899  0.4184  0.5449 -0.0623
 8085SOL    HW332107   6.327   3.278   4.858 -0.7366  0.8947  1.8718
 8085SOL    MW432108   6.299   3.200   4.885 -0.1806  0.1100  0.3153
 8086SOL     OW32109   3.132   4.156   1.003  0.1835  0.0670  0.0816
 8086SOL    HW232110   3.155   4.207   1.081 -0.5049 -0.1567  0.4405
 8086SOL    HW332111   3.038   4.143   1.009  0.3098 -1.1083 -0.0802
 8086SOL    MW432112   3.123   4.161   1.014  0.1093 -0.1176  0.1076
 8087SOL     OW32113   5.097   0.481   2.579 -0.0672 -0.1262 -0.2768
 8087SOL    HW232114   5.097   0.539   2.656 -0.4231 -0.5589  0.0552
 8087SOL    HW332115   5.096   0.393   2.616 -0.0812 -0.3392 -0.7835
 8087SOL    MW432116   5.097   0.477   2.594 -0.1160 -0.2114 -0.2998
 8088SOL     OW32117   1.282   4.159   4.406 -0.1700  0.1394 -0.4556
 8088SOL    HW232118   1.188   4.177   4.402 -0.1726 -0.0359 -1.3658
 8088SOL    HW332119   1.290   4.069   4.375  0.3662  0.3944 -1.0701
 8088SOL    MW432120   1.270   4.149   4.401 -0.0996  0.1499 -0.6567
 8089SOL     OW32121   1.716   2.379   3.943 -0.9716  0.1592  0.3316
 8089SOL    HW232122   1.784   2.346   3.884  0.0027  1.1540  0.8498
 8089SOL    HW332123   1.637   2.330   3.919 -0.8083  1.0345 -2.3035
 8089SOL    MW432124   1.715   2.368   3.932 -0.8215  0.4059  0.0523
 8090SOL     OW32125   4.178   5.388   4.915 -0.1299  0.0412  0.5220
 8090SOL    HW232126   4.165   5.323   4.847 -0.0219 -0.1653  0.6956
 8090SOL    HW332127   4.172   5.472   4.870  0.7571 -0.1016  0.1011
 8090SOL    MW432128   4.176   5.391   4.900  0.0014 -0.0049  0.4893
 8091SOL     OW32129   1.490   3.714   4.977  0.1108 -0.4407  0.1714
 8091SOL    HW232130   1.441   3.635   4.999  1.0851 -0.8133  1.1045
 8091SOL    HW332131   1.558   3.720   5.044 -0.9938  2.1456  1.1983
 8091SOL    MW432132   1.493   3.705   4.989  0.0936 -0.1486  0.4300
 8092SOL     OW32133   2.933   2.834   6.244  0.1718 -0.4121 -0.2716
 8092SOL    HW232134   2.852   2.793   6.273  1.1869 -1.2497  1.5510
 8092SOL    HW332135   2.978   2.859   6.325  0.7495  2.0735 -1.2644
 8092SOL    MW432136   2.928   2.832   6.258  0.3819 -0.1946 -0.1621
 8093SOL     OW32137   4.821   2.538   1.767 -0.2216 -0.3378  0.0872
 8093SOL    HW232138   4.874   2.611   1.734 -0.2526 -0.6504 -0.6667
 8093SOL    HW332139   4.883   2.485   1.817  0.4970 -1.3468 -1.7800
 8093SOL    MW432140   4.836   2.541   1.769 -0.1309 -0.5122 -0.2586
 8094SOL     OW32141   3.187   2.389   6.144  0.2074  0.6502 -0.1403
 8094SOL    HW232142   3.151   2.464   6.190 -0.7321  0.6580 -0.8449
 8094SOL    HW332143   3.254   2.354   6.202 -0.1644  1.3258  0.7091
 8094SOL    MW432144   3.191   2.394   6.157  0.0344  0.7404 -0.1212
 8095SOL     OW32145   1.750   1.994   4.445  0.0956  0.5567  0.1003
 8095SOL    HW232146   1.746   2.088   4.461 -1.7703  0.3992  0.8269
 8095SOL    HW332147   1.663   1.971   4.412 -0.3964 -1.2799  2.3840
 8095SOL    MW432148   1.738   2.003   4.443 -0.2155  0.2936  0.4975
 8096SOL     OW32149   5.783   1.257   5.743  0.4704 -0.6273 -0.1818
 8096SOL    HW232150   5.798   1.225   5.832 -0.4022  1.0534  0.6206
 8096SOL    HW332151   5.749   1.181   5.696 -0.2729 -1.2361  1.2767
 8096SOL    MW432152   5.780   1.243   5.748  0.2572 -0.4859  0.1165
 8097SOL     OW32153   5.121   1.587   1.520  0.1348 -0.0787 -0.3930
 8097SOL    HW232154   5.205   1.541   1.531 -1.1443 -2.4388  0.0280
 8097SOL    HW332155   5.089   1.558   1.435 -0.4077  0.6065 -0.4321
 8097SOL    MW432156   5.128   1.577   1.511 -0.1055 -0.2997 -0.3426
 8098SOL     OW32157   0.306   2.999   4.237  0.2082  0.8603  0.4801
 8098SOL    HW232158   0.338   3.074   4.287 -1.2893  0.3647  2.3129
 8098SOL    HW332159   0.214   3.017   4.222  0.0924 -0.0888 -0.0666
 8098SOL    MW432160   0.298   3.011   4.241 -0.0046  0.6697  0.6498
 8099SOL     OW32161   0.722   3.711   3.664  0.9816  0.2369 -0.1335
 8099SOL    HW232162   0.807   3.670   3.680  1.1364  0.2963 -0.7724
 8099SOL    HW332163   0.681   3.656   3.597  1.1727  1.0988 -0.9609
 8099SOL    MW432164   0.728   3.698   3.658  1.0272  0.3584 -0.3270
 8100SOL     OW32165   4.923   2.573   4.795  0.0016 -0.7508 -0.2649
 8100SOL    HW232166   4.969   2.649   4.831  0.5255 -0.8702 -0.6772
 8100SOL    HW332167   4.947   2.500   4.852  0.9749 -0.9771 -0.9386
 8100SOL    MW432168   4.932   2.574   4.807  0.1992 -0.7964 -0.4082
 8101SOL     OW32169   5.893   1.488   5.644  0.2540  0.0674  0.1006
 8101SOL    HW232170   5.868   1.401   5.675  0.5802 -0.2322 -0.4827
 8101SOL    HW332171   5.984   1.479   5.615 -0.0482  0.3453 -0.9612
 8101SOL    MW432172   5.902   1.475   5.645  0.2572  0.0645 -0.1164
 8102SOL     OW32173   5.973   5.151   5.754  0.3149  0.2895  0.4829
 8102SOL    HW232174   6.016   5.137   5.670  2.3132 -0.6270  1.5848
 8102SOL    HW332175   6.026   5.101   5.817 -0.6850  1.5022  2.3920
 8102SOL    MW432176   5.986   5.143   5.751  0.4466  0.3285  0.8802
 8103SOL     OW32177   3.306   5.824   5.763  0.8157 -0.2819  0.7029
 8103SOL    HW232178   3.256   5.773   5.699  2.3870 -0.6456 -0.2760
 8103SOL    HW332179   3.366   5.761   5.803  0.4911  0.1377  1.9049
 8103SOL    MW432180   3.307   5.809   5.760  0.9802 -0.2745  0.7323
 8104SOL     OW32181   0.460   3.838   3.423 -0.2509 -0.0144  0.0359
 8104SOL    HW232182   0.464   3.771   3.491  0.0444  1.5384  1.6223
 8104SOL    HW332183   0.369   3.839   3.395 -0.3206 -0.8630  0.2040
 8104SOL    MW432184   0.449   3.829   3.428 -0.2211  0.0785  0.2674
 8105SOL     OW32185   0.257   1.306   0.431 -0.0554  0.1776 -0.1582
 8105SOL    HW232186   0.340   1.319   0.386 -0.2709 -0.7162 -0.8425
 8105SOL    HW332187   0.190   1.329   0.366 -0.3485  0.1794  0.1386
 8105SOL    MW432188   0.259   1.311   0.417 -0.1225  0.0599 -0.2093
 8106SOL     OW32189   1.407   4.582   3.612  0.3322  0.2259 -0.1607
 8106SOL    HW232190   1.494   4.557   3.643  0.1967  2.0707  1.9588
 8106SOL    HW332191   1.348   4.563   3.686 -1.1395 -1.0644 -1.5716
 8106SOL    MW432192   1.410   4.576   3.626  0.1202  0.2990 -0.0672
 8107SOL     OW32193   3.427   2.178   3.277  0.4410  0.1543 -0.5753
 8107SOL    HW232194   3.376   2.256   3.256  1.3328  0.8976 -0.0502
 8107SOL    HW332195   3.502   2.181   3.217  2.2256  1.5122  1.5477
 8107SOL    MW432196   3.430   2.189   3.267  0.7941  0.4315 -0.2259
 8108SOL     OW32197   3.583   1.838   1.041 -0.0280  0.4333 -0.2082
 8108SOL    HW232198   3.501   1.845   0.992 -0.1600 -0.2086 -0.0858
 8108SOL    HW332199   3.564   1.777   1.112  0.2922  1.0018  0.3810
 8108SOL    MW432200   3.570   1.831   1.044 -0.0031  0.4236 -0.1143
 8109SOL     OW32201   6.054   0.314   1.322  0.3139  0.1244 -0.3135
 8109SOL    HW232202   6.136   0.355   1.293 -0.0165 -0.4821 -2.2835
 8109SOL    HW332203   5.989   0.347   1.260 -0.8496  0.1791  0.8994
 8109SOL    MW432204   6.056   0.324   1.310  0.1168  0.0516 -0.4134
 8110SOL     OW32205   1.148   0.620   3.407  0.4263  0.1115  0.3298
 8110SOL    HW232206   1.090   0.561   3.455  0.3861 -0.7446 -0.7391
 8110SOL    HW332207   1.199   0.562   3.350  2.2702  0.8311  1.1508
 8110SOL    MW432208   1.147   0.604   3.406  0.6643  0.0935  0.2971
 8111SOL     OW32209   5.511   4.595   5.785 -0.0432  0.2213 -0.2822
 8111SOL    HW232210   5.438   4.652   5.809 -1.5201 -2.3083  1.7326
 8111SOL    HW332211   5.480   4.546   5.709 -0.4011 -0.7311  0.4662
 8111SOL    MW432212   5.497   4.596   5.778 -0.2853 -0.2381  0.0824
 8112SOL     OW32213   3.739   4.131   5.946 -0.0360 -0.0352  0.4817
 8112SOL    HW232214   3.759   4.194   5.877 -0.0446 -1.0707 -0.4859
 8112SOL    HW332215   3.798   4.155   6.018 -1.0525  1.9794  0.7171
 8112SOL    MW432216   3.749   4.143   5.946 -0.1712  0.0940  0.3851
 8113SOL     OW32217   6.223   1.362   5.840  0.0498  1.0155 -0.1045
 8113SOL    HW232218   6.143   1.354   5.893 -0.2559 -0.4801 -0.7275
 8113SOL    HW332219   6.293   1.378   5.903 -0.4109 -0.0107  0.7103
 8113SOL    MW432220   6.221   1.363   5.855 -0.0513  0.6828 -0.0792
 8114SOL     OW32221   3.168   2.979   0.962 -0.3905  0.3761 -0.6501
 8114SOL    HW232222   3.237   3.038   0.931  1.0037 -1.3930 -1.1103
 8114SOL    HW332223   3.209   2.928   1.032 -1.1929 -0.7588 -0.9697
 8114SOL    MW432224   3.183   2.980   0.967 -0.3124 -0.0071 -0.7529
 8115SOL     OW32225   1.635   4.223   0.209  0.0821  0.1717 -0.2679
 8115SOL    HW232226   1.657   4.313   0.234  0.9052 -0.4277  1.2946
 8115SOL    HW332227   1.615   4.228   0.115  0.9120  1.8355 -0.3848
 8115SOL    MW432228   1.636   4.236   0.200  0.3002  0.3121 -0.0772
 8116SOL     OW32229   5.226   1.864   0.713  0.3678 -0.0585  0.2960
 8116SOL    HW232230   5.314   1.827   0.722  0.8783  1.4201  2.1060
 8116SOL    HW332231   5.172   1.790   0.684  1.8279 -1.5078  1.0796
 8116SOL    MW432232   5.230   1.849   0.711  0.6278 -0.0546  0.6382
 8117SOL     OW32233   0.658   5.565   2.243 -0.5747  0.3341  0.7839
 8117SOL    HW232234   0.571   5.530   2.221  0.3857 -0.5038 -2.0589
 8117SOL    HW332235   0.659   5.653   2.206  0.5091 -0.4894 -1.2751
 8117SOL    MW432236   0.647   5.572   2.235 -0.3050  0.1149  0.1372
 8118SOL     OW32237   1.036   0.973   0.606  0.0130  0.1349 -0.1877
 8118SOL    HW232238   1.091   0.901   0.574 -0.7828 -0.6443  0.1614
 8118SOL    HW332239   1.020   0.952   0.698 -0.0547  0.8766 -0.0193
 8118SOL    MW432240   1.041   0.961   0.614 -0.1009  0.1300 -0.1194
 8119SOL     OW32241   3.549   4.326   5.728  0.3990 -0.1727  0.0255
 8119SOL    HW232242   3.484   4.256   5.731 -0.4711  0.5826 -0.6193
 8119SOL    HW332243   3.572   4.334   5.636  1.6910 -0.6572  0.2837
 8119SOL    MW432244   3.543   4.318   5.717  0.4547 -0.1370 -0.0255
 8120SOL     OW32245   6.059   6.412   6.207  0.2037  0.0567  0.4059
 8120SOL    HW232246   6.101   6.356   6.273  0.6934  0.2310  0.2464
 8120SOL    HW332247   5.980   6.444   6.251 -0.0648 -0.7197  0.5131
 8120SOL    MW432248   6.054   6.409   6.222  0.2329 -0.0227  0.3990
 8121SOL     OW32249   2.626   3.890   5.864  0.2392  0.3422  0.3255
 8121SOL    HW232250   2.640   3.955   5.795  0.0714  0.9390  0.8472
 8121SOL    HW332251   2.534   3.863   5.853  0.6503 -0.7483 -0.6777
 8121SOL    MW432252   2.616   3.895   5.853  0.2713  0.2771  0.2620
 8122SOL     OW32253   0.738   2.593   5.937  0.5640 -0.1481 -0.2055
 8122SOL    HW232254   0.674   2.546   5.991  2.0048  0.2650  1.9795
 8122SOL    HW332255   0.707   2.683   5.933 -0.0895 -0.3958 -0.9978
 8122SOL    MW432256   0.726   2.598   5.943  0.6679 -0.1263 -0.0217
 8123SOL     OW32257   2.391   5.064   2.620 -0.1048  0.3041  0.2362
 8123SOL    HW232258   2.454   5.099   2.557  1.0897 -0.1931  1.1068
 8123SOL    HW332259   2.306   5.096   2.590  0.2357 -1.0083 -2.3842
 8123SOL    MW432260   2.388   5.073   2.608  0.0977  0.0653  0.0053
 8124SOL     OW32261   1.591   3.494   1.134 -0.0296  0.1404  0.3347
 8124SOL    HW232262   1.602   3.551   1.058  0.8885  0.2481  0.5358
 8124SOL    HW332263   1.581   3.406   1.097  2.9231 -0.1884  0.1041
 8124SOL    MW432264   1.591   3.490   1.119  0.4811  0.1112  0.3308
 8125SOL     OW32265   1.872   1.823   6.184  0.0568 -0.9432 -0.1113
 8125SOL    HW232266   1.898   1.913   6.163 -0.7006 -0.6186  0.3070
 8125SOL    HW332267   1.954   1.779   6.206  0.1244  0.6901  3.5830
 8125SOL    MW432268   1.886   1.829   6.184 -0.0342 -0.6849  0.4313
 8126SOL     OW32269   1.187   5.185   4.663  0.0591 -0.0305  0.0885
 8126SOL    HW232270   1.158   5.114   4.606  0.0308 -3.0048  3.4371
 8126SOL    HW332271   1.281   5.170   4.675  0.3878  1.4894 -0.3370
 8126SOL    MW432272   1.196   5.174   4.657  0.0987 -0.2224  0.4742
 8127SOL     OW32273   4.907   3.317   5.051  0.4712  0.1802 -0.8501
 8127SOL    HW232274   4.971   3.343   5.118 -0.6918  1.8073 -0.3142
 8127SOL    HW332275   4.909   3.387   4.987  0.1933 -0.4327 -1.5432
 8127SOL    MW432276   4.916   3.330   5.052  0.2811  0.3140 -0.8708
 8128SOL     OW32277   3.674   2.559   1.333 -0.0975 -0.0421  0.4118
 8128SOL    HW232278   3.588   2.570   1.371  0.2908 -2.1731  2.1005
 8128SOL    HW332279   3.691   2.465   1.339  1.4126 -0.0182 -2.0148
 8128SOL    MW432280   3.665   2.548   1.339  0.1530 -0.3201  0.3144
 8129SOL     OW32281   3.899   6.293   3.922  0.0680  0.1537 -0.2111
 8129SOL    HW232282   3.955   6.217   3.904  0.1889  0.1367  0.2161
 8129SOL    HW332283   3.922   6.318   4.011 -1.7668 -0.8446  0.5945
 8129SOL    MW432284   3.910   6.286   3.931 -0.1581  0.0198 -0.0485
 8130SOL     OW32285   0.442   5.378   5.122 -0.3861  0.4914 -0.4091
 8130SOL    HW232286   0.494   5.367   5.201  0.5414 -0.5745 -1.1417
 8130SOL    HW332287   0.358   5.412   5.153  0.1517  0.6294  0.9621
 8130SOL    MW432288   0.438   5.381   5.137 -0.1928  0.3690 -0.3249
 8131SOL     OW32289   4.231   0.555   0.692  0.6329 -0.2945  0.3995
 8131SOL    HW232290   4.281   0.483   0.731  2.0264  0.8768  0.8782
 8131SOL    HW332291   4.169   0.580   0.760 -1.4014 -2.4077 -0.5575
 8131SOL    MW432292   4.230   0.549   0.706  0.5484 -0.4188  0.3364
 8132SOL     OW32293   5.761   0.303   5.208 -0.0060 -0.5025  0.0621
 8132SOL    HW232294   5.851   0.333   5.220  0.7829 -2.8742  0.6474
 8132SOL    HW332295   5.724   0.363   5.144  1.9515  0.6075 -0.1029
 8132SOL    MW432296   5.768   0.315   5.201  0.3564 -0.6690  0.1175
 8133SOL     OW32297   4.441   1.355   1.763 -0.1063  0.6516  0.4814
 8133SOL    HW232298   4.424   1.411   1.838 -1.2821  0.0151  0.7249
 8133SOL    HW332299   4.388   1.277   1.779 -0.2632  0.4358 -0.9372
 8133SOL    MW432300   4.432   1.352   1.775 -0.2821  0.5392  0.3264
 8134SOL     OW32301   6.250   4.560   6.126 -0.1447  0.3432  0.2064
 8134SOL    HW232302   6.231   4.583   6.217  0.1839  0.5278  0.2282
 8134SOL    HW332303   6.273   4.643   6.084  2.7382 -0.1097  0.6909
 8134SOL    MW432304   6.250   4.574   6.132  0.2790  0.3078  0.2732
 8135SOL     OW32305   4.225   5.414   3.533 -0.3068 -0.0152  0.0065
 8135SOL    HW232306   4.234   5.452   3.620 -2.3538  0.0426  0.2502
 8135SOL    HW332307   4.173   5.334   3.546  1.4250 -1.3726 -0.8786
 8135SOL    MW432308   4.219   5.408   3.546 -0.3484 -0.1867 -0.0781
 8136SOL     OW32309   3.963   0.418   5.643  0.1282  0.2944 -0.1470
 8136SOL    HW232310   3.967   0.391   5.551  0.3309  0.5943 -0.2237
 8136SOL    HW332311   3.975   0.336   5.692 -2.3653 -0.2908 -0.3716
 8136SOL    MW432312   3.965   0.403   5.638 -0.1740  0.2567 -0.1868
 8137SOL     OW32313   3.855   3.520   2.952  0.5059 -0.0465 -0.2774
 8137SOL    HW232314   3.920   3.573   2.907 -1.0832  2.9703  0.7094
 8137SOL    HW332315   3.878   3.526   3.044 -0.9645  0.9221  0.0720
 8137SOL    MW432316   3.867   3.528   2.958  0.1023  0.4793 -0.1011
 8138SOL     OW32317   1.990   5.764   0.478  0.4950  0.4698  0.1903
 8138SOL    HW232318   1.910   5.801   0.515  0.9911  0.5681  1.1899
 8138SOL    HW332319   2.019   5.829   0.414  0.6876  1.2519  1.0490
 8138SOL    MW432320   1.984   5.777   0.474  0.5858  0.5859  0.4355
 8139SOL     OW32321   0.209   0.877   2.839  0.3118  0.1457 -0.2641
 8139SOL    HW232322   0.294   0.910   2.866  0.8088 -0.7980 -0.5989
 8139SOL    HW332323   0.157   0.872   2.920  0.4839  0.9770 -0.1028
 8139SOL    MW432324   0.213   0.880   2.853  0.4001  0.1309 -0.2870
 8140SOL     OW32325   0.464   1.594   3.536  0.6900 -0.0371  0.1133
 8140SOL    HW232326   0.529   1.528   3.562 -0.5274 -0.8865  1.1925
 8140SOL    HW332327   0.440   1.571   3.447  2.2248  0.6133 -0.4956
 8140SOL    MW432328   0.470   1.582   3.528  0.7319 -0.0634  0.1754
 8141SOL     OW32329   0.681   0.175   5.970 -0.0493 -0.5199  0.0197
 8141SOL    HW232330   0.650   0.156   6.058 -0.5193 -1.2201 -0.2837
 8141SOL    HW332331   0.624   0.123   5.913  0.6662 -0.5859 -0.6544
 8141SOL    MW432332   0.669   0.165   5.974 -0.0169 -0.6210 -0.1093
 8142SOL     OW32333   2.577   2.673   3.721 -0.0811  0.4644 -0.1649
 8142SOL    HW232334   2.633   2.675   3.799 -1.0009  0.0492  0.5274
 8142SOL    HW332335   2.502   2.619   3.747 -0.5717  0.6082 -1.2288
 8142SOL    MW432336   2.575   2.666   3.735 -0.2672  0.4286 -0.2139
 8143SOL     OW32337   3.808   2.335   5.279  0.3489  0.1295  0.1135
 8143SOL    HW232338   3.796   2.430   5.270 -2.1249 -0.2470 -1.7657
 8143SOL    HW332339   3.803   2.302   5.189 -1.4850 -1.9733  0.8835
 8143SOL    MW432340   3.806   2.343   5.266 -0.2194 -0.1976 -0.0329
 8144SOL     OW32341   2.101   5.390   2.294 -0.0420 -0.1479 -0.4795
 8144SOL    HW232342   2.183   5.354   2.327 -0.4901 -1.2834 -0.5577
 8144SOL    HW332343   2.052   5.313   2.264 -1.2552  0.4794 -0.1468
 8144SOL    MW432344   2.105   5.375   2.294 -0.2612 -0.2149 -0.4459
 8145SOL     OW32345   2.399   2.864   5.933 -0.4156 -0.3090  0.1991
 8145SOL    HW232346   2.318   2.914   5.944 -0.9003 -1.1681  0.6455
 8145SOL    HW332347   2.468   2.924   5.962 -0.7660  0.8116 -1.1986
 8145SOL    MW432348   2.397   2.879   5.939 -0.5258 -0.2745  0.0736
 8146SOL     OW32349   4.662   0.521   4.887 -0.3039 -0.2151 -0.0434
 8146SOL    HW232350   4.639   0.601   4.933  4.1201 -0.4778  3.2634
 8146SOL    HW332351   4.718   0.550   4.815 -1.1624 -0.2606 -0.7538
 8146SOL    MW432352   4.666   0.535   4.884  0.1665 -0.2558  0.2992
 8147SOL     OW32353   3.889   6.283   2.643 -0.5701 -0.4202 -0.1354
 8147SOL    HW232354   3.830   6.312   2.574 -1.3850 -0.5600  0.4966
 8147SOL    HW332355   3.937   6.362   2.669 -0.1057 -0.4071 -0.9898
 8147SOL    MW432356   3.888   6.297   2.637 -0.6163 -0.4369 -0.1647
 8148SOL     OW32357   2.090   0.646   3.950 -0.2535 -0.2464 -0.0331
 8148SOL    HW232358   2.024   0.698   3.905 -0.4934 -1.1587 -0.7824
 8148SOL    HW332359   2.130   0.594   3.880  0.4850 -0.5161  0.5835
 8148SOL    MW432360   2.087   0.646   3.935 -0.1877 -0.4023 -0.0506
 8149SOL     OW32361   4.251   3.502   3.219  0.2135 -0.1303 -0.4426
 8149SOL    HW232362   4.282   3.588   3.246  2.5670 -0.5883 -1.4493
 8149SOL    HW332363   4.313   3.474   3.152  0.5965 -3.3812  1.0793
 8149SOL    MW432364   4.263   3.510   3.213  0.5746 -0.6196 -0.3746
 8150SOL     OW32365   0.061   5.726   3.362  0.1170  0.0192 -0.2955
 8150SOL    HW232366   0.080   5.750   3.272 -1.3338 -1.7717 -1.1362
 8150SOL    HW332367  -0.018   5.776   3.384  1.9716  2.6535  1.0688
 8150SOL    MW432368   0.053   5.736   3.353  0.1703  0.1305 -0.2264
 8151SOL     OW32369   5.092   1.223   0.155 -0.3041  0.0708  0.4725
 8151SOL    HW232370   5.035   1.173   0.213  0.2882  0.0184  1.0108
 8151SOL    HW332371   5.172   1.237   0.205  0.0491  0.3995 -0.1696
 8151SOL    MW432372   5.095   1.219   0.169 -0.1793  0.1073  0.4588
 8152SOL     OW32373   4.580   6.304   5.031  0.3437  0.0434 -0.2339
 8152SOL    HW232374   4.497   6.299   4.984 -0.2614  0.3839  0.7746
 8152SOL    HW332375   4.583   6.225   5.084  0.1862  0.4935  0.4714
 8152SOL    MW432376   4.570   6.293   5.032  0.2431  0.1477 -0.0078
 8153SOL     OW32377   4.695   4.998   4.124 -0.3785  0.4705  0.4616
 8153SOL    HW232378   4.774   4.976   4.173 -0.2238  1.8207  0.8573
 8153SOL    HW332379   4.628   5.012   4.190  0.2183  3.8887  0.5227
 8153SOL    MW432380   4.696   4.997   4.139 -0.2793  1.0996  0.5219
 8154SOL     OW32381   3.959   2.383   6.039 -0.2439 -0.1930  0.1821
 8154SOL    HW232382   3.953   2.422   6.126  1.0815  0.8577 -0.1555
 8154SOL    HW332383   3.981   2.291   6.056 -0.9171 -0.2206  0.9591
 8154SOL    MW432384   3.961   2.376   6.053 -0.1579 -0.0580  0.2401
 8155SOL     OW32385   4.185   5.085   0.368  0.1347 -0.3764 -0.3309
 8155SOL    HW232386   4.189   4.989   0.361  0.5576 -0.3001 -1.1911
 8155SOL    HW332387   4.276   5.112   0.380 -0.0365 -0.1070  0.4382
 8155SOL    MW432388   4.197   5.076   0.369  0.1679 -0.3308 -0.3429
 8156SOL     OW32389   2.952   4.843   1.062  0.4099  1.0045 -0.2438
 8156SOL    HW232390   2.996   4.928   1.056 -0.9125  1.8891  1.6373
 8156SOL    HW332391   3.012   4.789   1.113  1.3088  0.7323 -1.5436
 8156SOL    MW432392   2.966   4.847   1.068  0.3540  1.0853 -0.1671
 8157SOL     OW32393   5.657   2.281   5.225 -0.2106  0.3127 -0.0265
 8157SOL    HW232394   5.707   2.360   5.244 -0.5423  0.5917 -0.3066
 8157SOL    HW332395   5.574   2.312   5.188  0.1903 -0.1877 -1.4071
 8157SOL    MW432396   5.652   2.295   5.223 -0.2015  0.2835 -0.2456
 8158SOL     OW32397   5.994   2.706   2.117 -0.6055  0.0136  0.1844
 8158SOL    HW232398   6.021   2.689   2.208 -1.3174  0.5023  0.4917
 8158SOL    HW332399   5.918   2.649   2.104 -0.7368  0.2239  0.0249
 8158SOL    MW432400   5.988   2.696   2.128 -0.7168  0.1058  0.2039
 8159SOL     OW32401   1.144   3.974   1.660  0.3962 -0.0349 -0.4089
 8159SOL    HW232402   1.204   3.922   1.607 -0.3792 -2.2078  0.7300
 8159SOL    HW332403   1.182   3.973   1.748 -0.4424 -0.0116 -0.0354
 8159SOL    MW432404   1.157   3.967   1.664  0.1833 -0.3185 -0.2093
 8160SOL     OW32405   1.650   6.234   2.386  0.0461 -0.3667 -0.9640
 8160SOL    HW232406   1.679   6.301   2.449  0.1010 -0.7502 -0.5786
 8160SOL    HW332407   1.556   6.224   2.405 -1.3149  3.3239 -4.4152
 8160SOL    MW432408   1.641   6.242   2.397 -0.1262  0.0696 -1.3685
 8161SOL     OW32409   4.369   4.945   4.708 -0.9120 -0.4406 -0.3688
 8161SOL    HW232410   4.394   5.034   4.682  0.7309 -0.5562  0.6688
 8161SOL    HW332411   4.435   4.889   4.666 -0.9861 -1.0193  0.2755
 8161SOL    MW432412   4.381   4.949   4.699 -0.7050 -0.5322 -0.1469
 8162SOL     OW32413   5.317   2.397   1.147  0.1158 -0.7112  0.0427
 8162SOL    HW232414   5.402   2.377   1.186 -0.6510  0.0468  2.2582
 8162SOL    HW332415   5.305   2.491   1.161 -1.7744 -1.0888  1.3348
 8162SOL    MW432416   5.327   2.406   1.154 -0.2348 -0.6610  0.5055
 8163SOL     OW32417   1.444   0.243   6.258 -0.0149  0.2622 -1.1895
 8163SOL    HW232418   1.459   0.254   6.164  2.2679  2.0162 -0.7168
 8163SOL    HW332419   1.532   0.231   6.294 -0.8165  0.0009  0.7625
 8163SOL    MW432420   1.457   0.243   6.250  0.1805  0.4591 -0.8696
 8164SOL     OW32421   5.112   6.032   2.097  0.5283  0.0946  0.5526
 8164SOL    HW232422   5.039   6.063   2.044  0.7256  1.1898  0.8893
 8164SOL    HW332423   5.092   5.940   2.114  0.2044 -0.1532 -0.9667
 8164SOL    MW432424   5.100   6.024   2.092  0.5116  0.2064  0.3965
 8165SOL     OW32425   5.081   2.273   4.709  0.2506  0.5763 -0.2510
 8165SOL    HW232426   5.151   2.293   4.771  0.6107 -0.4544 -0.3047
 8165SOL    HW332427   5.024   2.212   4.756  1.9987 -2.4734 -1.7606
 8165SOL    MW432428   5.082   2.267   4.723  0.5287  0.0379 -0.4573
 8166SOL     OW32429   1.832   0.993   1.110  0.0205 -0.5253 -0.2245
 8166SOL    HW232430   1.851   1.036   1.027 -1.0656  0.6410  0.1088
 8166SOL    HW332431   1.917   0.992   1.156  0.1959  0.7590 -0.4816
 8166SOL    MW432432   1.846   0.999   1.105 -0.0997 -0.2019 -0.2144
 8167SOL     OW32433   0.822   3.108   3.102  0.1284 -0.2237 -0.3472
 8167SOL    HW232434   0.834   3.092   3.195  0.2860  0.7382 -0.1849
 8167SOL    HW332435   0.729   3.090   3.086  0.3172 -1.3739 -0.2304
 8167SOL    MW432436   0.811   3.104   3.112  0.1741 -0.2486 -0.3104
 8168SOL     OW32437   2.748   3.308   2.755 -0.0702  0.2317  0.0733
 8168SOL    HW232438   2.838   3.340   2.759  0.6752 -1.6248 -0.7746
 8168SOL    HW332439   2.726   3.288   2.846  0.5897  0.1387  0.2200
 8168SOL    MW432440   2.757   3.310   2.767  0.1152 -0.0255 -0.0192
 8169SOL     OW32441   4.573   2.342   1.476 -0.1454 -0.2710  0.2922
 8169SOL    HW232442   4.576   2.391   1.559 -1.2862 -0.0412  0.2186
 8169SOL    HW332443   4.606   2.404   1.411  1.7232 -0.7924  0.7045
 8169SOL    MW432444   4.578   2.357   1.479 -0.0494 -0.3095  0.3369
 8170SOL     OW32445   5.313   4.941   6.101 -0.0246 -0.0856 -0.2896
 8170SOL    HW232446   5.299   5.035   6.107  1.3016  0.1201 -0.0821
 8170SOL    HW332447   5.226   4.904   6.093 -0.4993  1.2726 -2.0610
 8170SOL    MW432448   5.300   4.948   6.101  0.0877  0.1207 -0.4959
 8171SOL     OW32449   4.297   1.644   0.767 -0.3805 -0.1601 -0.1383
 8171SOL    HW232450   4.210   1.604   0.767  0.1099 -1.2613 -0.0942
 8171SOL    HW332451   4.314   1.663   0.860 -0.1247 -0.9648 -0.0169
 8171SOL    MW432452   4.288   1.641   0.779 -0.2820 -0.4115 -0.1165
 8172SOL     OW32453   2.666   5.024   5.317 -0.3010  0.0333  0.4094
 8172SOL    HW232454   2.743   5.052   5.367  2.4528 -1.3556 -2.6605
 8172SOL    HW332455   2.676   5.066   5.232 -2.0106 -1.5066 -0.6325
 8172SOL    MW432456   2.677   5.033   5.313 -0.1633 -0.3531 -0.1331
 8173SOL     OW32457   3.022   4.572   4.068 -0.3113  0.3393 -0.1942
 8173SOL    HW232458   2.990   4.608   4.150 -0.3133 -1.6083  0.7206
 8173SOL    HW332459   3.099   4.521   4.092 -1.2730 -1.6753 -1.0617
 8173SOL    MW432460   3.028   4.570   4.082 -0.4384 -0.1835 -0.1880
 8174SOL     OW32461   3.310   6.352   3.709  0.8017 -0.3747  0.4807
 8174SOL    HW232462   3.226   6.386   3.677  1.1387  1.5748  1.4934
 8174SOL    HW332463   3.340   6.294   3.639 -0.6192  0.1458 -0.6330
 8174SOL    MW432464   3.303   6.349   3.695  0.6587 -0.0488  0.4674
 8175SOL     OW32465   1.114   0.642   0.950 -0.0643 -0.2720 -0.5038
 8175SOL    HW232466   1.054   0.592   1.005  0.2659  0.1100  0.2275
 8175SOL    HW332467   1.074   0.729   0.944  0.0737 -0.2143 -0.5851
 8175SOL    MW432468   1.101   0.647   0.957 -0.0025 -0.2140 -0.4180
 8176SOL     OW32469   4.876   3.513   0.684 -0.3047 -0.2373  0.9579
 8176SOL    HW232470   4.839   3.586   0.634 -0.2862 -1.4557 -0.9483
 8176SOL    HW332471   4.967   3.509   0.655  0.1025 -0.1209  2.1732
 8176SOL    MW432472   4.883   3.522   0.674 -0.2486 -0.3827  0.8667
 8177SOL     OW32473   1.550   1.627   0.590 -0.2830 -0.6233 -0.3113
 8177SOL    HW232474   1.485   1.566   0.557 -1.2147 -0.2552  0.7820
 8177SOL    HW332475   1.597   1.578   0.657  1.0580 -1.1069 -1.5535
 8177SOL    MW432476   1.548   1.613   0.595 -0.2290 -0.6385 -0.3310
 8178SOL     OW32477   0.414   2.812   5.791  0.1873  0.0235 -0.3494
 8178SOL    HW232478   0.377   2.741   5.843  0.9821 -1.1638 -1.3193
 8178SOL    HW332479   0.354   2.822   5.718  0.5224 -0.2741 -0.6737
 8178SOL    MW432480   0.401   2.804   5.788  0.3364 -0.1724 -0.5202
 8179SOL     OW32481   2.434   4.394   3.959  0.1499  0.4968  0.5780
 8179SOL    HW232482   2.496   4.467   3.965  1.9879 -0.8137 -0.9568
 8179SOL    HW332483   2.484   4.318   3.987 -0.9573 -0.5297 -0.1237
 8179SOL    MW432484   2.449   4.393   3.963  0.2463  0.1885  0.2829
 8180SOL     OW32485   4.103   2.332   2.130  0.3933 -1.2134 -0.4630
 8180SOL    HW232486   4.022   2.304   2.174  0.1199 -1.9914 -1.4163
 8180SOL    HW332487   4.073   2.396   2.065  0.7710 -0.2046  0.3358
 8180SOL    MW432488   4.088   2.337   2.127  0.4071 -1.1830 -0.4834
 8181SOL     OW32489   1.216   3.164   5.954 -0.7797  0.0342 -0.2802
 8181SOL    HW232490   1.204   3.127   6.041 -0.2649 -1.3818 -0.7964
 8181SOL    HW332491   1.226   3.089   5.896  0.5339  0.9739 -1.3370
 8181SOL    MW432492   1.216   3.149   5.957 -0.5384 -0.0287 -0.4878
 8182SOL     OW32493   1.867   3.329   4.833 -0.7035  0.1005 -0.4647
 8182SOL    HW232494   1.792   3.328   4.892 -0.6117 -0.6052 -0.3600
 8182SOL    HW332495   1.829   3.345   4.747 -1.0938 -1.3514 -0.5761
 8182SOL    MW432496   1.852   3.331   4.830 -0.7429 -0.1842 -0.4656
 8183SOL     OW32497   5.945   5.789   0.495  0.4187  0.1601  0.4714
 8183SOL    HW232498   5.914   5.702   0.470 -1.2419  0.4565  1.3517
 8183SOL    HW332499   5.933   5.792   0.590 -0.1970  1.5663  0.3726
 8183SOL    MW432500   5.939   5.778   0.504  0.1184  0.3847  0.5745
 8184SOL     OW32501   1.625   3.919   0.059  0.0267  0.1197  0.1483
 8184SOL    HW232502   1.694   3.945   0.120  0.8266  0.2383 -0.7856
 8184SOL    HW332503   1.671   3.874  -0.012 -0.9795 -0.8370  0.0587
 8184SOL    MW432504   1.640   3.916   0.057 -0.0005  0.0091  0.0132
 8185SOL     OW32505   2.333   1.032   3.092  0.1634  0.1087 -0.2529
 8185SOL    HW232506   2.309   1.039   3.185 -1.4151  1.5577 -0.7264
 8185SOL    HW332507   2.358   1.120   3.067 -0.0496 -0.1352 -1.3664
 8185SOL    MW432508   2.333   1.044   3.101 -0.0730  0.2677 -0.4623
 8186SOL     OW32509   0.176   1.719   2.155 -0.1314  0.1560 -0.8022
 8186SOL    HW232510   0.205   1.644   2.206 -1.0133 -1.5083 -2.6302
 8186SOL    HW332511   0.230   1.792   2.186  1.2816 -1.3702  0.4933
 8186SOL    MW432512   0.187   1.719   2.166 -0.0613 -0.2649 -0.8725
 8187SOL     OW32513   5.058   4.968   2.997 -0.2615  0.1360  0.5324
 8187SOL    HW232514   5.148   4.997   2.980 -0.4241  0.9709  1.0308
 8187SOL    HW332515   5.045   4.985   3.090  0.0490 -2.7694  1.2120
 8187SOL    MW432516   5.068   4.974   3.007 -0.2420 -0.1372  0.6879
 8188SOL     OW32517   3.449   6.180   4.982  0.3427  0.2103  0.1484
 8188SOL    HW232518   3.362   6.183   5.022  0.1125 -0.2645 -0.3036
 8188SOL    HW332519   3.493   6.108   5.028  0.0506 -0.3876 -0.4963
 8188SOL    MW432520   3.443   6.171   4.994  0.2738  0.0688  0.0037
 8189SOL     OW32521   4.027   1.747   3.713  0.7804 -0.2767 -0.8883
 8189SOL    HW232522   4.081   1.768   3.636 -0.3239  0.1774 -1.5725
 8189SOL    HW332523   4.037   1.653   3.725  0.0335 -0.5858 -2.3686
 8189SOL    MW432524   4.035   1.738   3.704  0.5361 -0.2576 -1.1739
 8190SOL     OW32525   1.003   3.109   4.824  0.3447  0.3669 -0.1599
 8190SOL    HW232526   0.949   3.167   4.877 -0.3647  0.3488 -0.8357
 8190SOL    HW332527   0.983   3.021   4.856  0.5825  0.4192  0.1289
 8190SOL    MW432528   0.993   3.105   4.835  0.2825  0.3714 -0.2110
 8191SOL     OW32529   4.825   3.414   4.164 -0.0620 -0.5796  0.2120
 8191SOL    HW232530   4.816   3.508   4.182  2.2082 -0.2606  0.0107
 8191SOL    HW332531   4.786   3.402   4.078  0.7509  0.4690 -0.3333
 8191SOL    MW432532   4.819   3.425   4.155  0.3448 -0.3992  0.1135
 8192SOL     OW32533   2.476   5.972   0.544 -0.1573  0.2451  0.2532
 8192SOL    HW232534   2.467   5.877   0.540 -2.5265  0.4199  0.0535
 8192SOL    HW332535   2.396   6.002   0.587 -1.2942  2.3981 -3.0193
 8192SOL    MW432536   2.464   5.963   0.549 -0.6199  0.5522 -0.2049
 8193SOL     OW32537   2.293   3.889   1.854 -0.3803 -0.1072 -0.1908
 8193SOL    HW232538   2.386   3.900   1.832 -0.5511 -0.5365 -1.1431
 8193SOL    HW332539   2.265   3.977   1.881  1.0042 -0.4941  3.0220
 8193SOL    MW432540   2.302   3.902   1.855 -0.2202 -0.2149  0.1075
 8194SOL     OW32541   3.292   0.127   4.540 -0.3461  0.4752 -0.0729
 8194SOL    HW232542   3.329   0.039   4.539  0.1229  0.6254  1.3797
 8194SOL    HW332543   3.222   0.123   4.605 -0.8682  0.9796 -0.5873
 8194SOL    MW432544   3.287   0.115   4.548 -0.3531  0.5616  0.0509
 8195SOL     OW32545   2.333   4.576   2.539 -0.3653  0.2555 -0.4012
 8195SOL    HW232546   2.339   4.513   2.612 -0.7559 -0.5811 -1.0723
 8195SOL    HW332547   2.397   4.644   2.561 -1.2184  0.5811  1.2549
 8195SOL    MW432548   2.342   4.576   2.552 -0.5294  0.1881 -0.2713
 8196SOL     OW32549   0.157   0.698   3.830 -0.3099  0.0122 -0.6617
 8196SOL    HW232550   0.186   0.789   3.839  0.8036 -0.5339  2.5176
 8196SOL    HW332551   0.129   0.691   3.738 -1.2136  3.7286 -0.8401
 8196SOL    MW432552   0.157   0.709   3.819 -0.2822  0.4305 -0.2658
 8197SOL     OW32553   5.969   3.547   1.080  0.3203  0.0700  0.4075
 8197SOL    HW232554   6.045   3.498   1.050  0.4572 -0.1324  1.0898
 8197SOL    HW332555   5.966   3.624   1.022  0.3198 -0.5353 -0.4175
 8197SOL    MW432556   5.978   3.551   1.068  0.3383 -0.0366  0.3886
 8198SOL     OW32557   2.687   5.329   1.265  0.6204  0.0362  0.6750
 8198SOL    HW232558   2.607   5.348   1.215  0.1212 -1.5780  0.7981
 8198SOL    HW332559   2.662   5.342   1.356  0.3269 -0.9687  0.7481
 8198SOL    MW432560   2.673   5.333   1.270  0.5158 -0.3094  0.7009
 8199SOL     OW32561   1.709   3.263   1.231 -0.3366  0.2628 -0.2257
 8199SOL    HW232562   1.796   3.233   1.204  0.3331  2.2110 -0.3663
 8199SOL    HW332563   1.723   3.302   1.317 -0.6666  2.2511 -1.0276
 8199SOL    MW432564   1.722   3.264   1.239 -0.2918  0.7822 -0.3501
 8200SOL     OW32565   6.272   0.670   2.373  0.1794 -0.1349  0.1119
 8200SOL    HW232566   6.234   0.616   2.442  0.0770  0.0799  0.2249
 8200SOL    HW332567   6.362   0.638   2.364  0.0498 -0.4784  0.0150
 8200SOL    MW432568   6.279   0.659   2.381  0.1488 -0.1519  0.1140
 8201SOL     OW32569   0.216   1.076   0.117 -0.2272 -0.0770  0.0827
 8201SOL    HW232570   0.257   1.003   0.073  1.3077  1.1137 -0.5657
 8201SOL    HW332571   0.135   1.092   0.068  0.4822 -0.0099 -1.1066
 8201SOL    MW432572   0.210   1.069   0.105  0.0689  0.0889 -0.1598
 8202SOL     OW32573   0.343   4.514   2.168 -0.3273  0.1419 -0.3706
 8202SOL    HW232574   0.329   4.499   2.074  1.1854 -2.1376 -0.3201
 8202SOL    HW332575   0.255   4.520   2.205 -0.9481  0.7370 -1.8735
 8202SOL    MW432576   0.330   4.513   2.160 -0.2097 -0.0803 -0.5622
 8203SOL     OW32577   2.631   4.216   4.043 -0.1963  0.9926  0.2447
 8203SOL    HW232578   2.559   4.168   4.085  0.7978 -2.1085 -1.3024
 8203SOL    HW332579   2.708   4.193   4.095  0.2314  1.4406 -0.1806
 8203SOL    MW432580   2.631   4.207   4.056 -0.0087  0.6426 -0.0156
 8204SOL     OW32581   2.429   4.720   0.044  0.0274  0.1323 -0.3252
 8204SOL    HW232582   2.337   4.709   0.019  0.0653  1.1172 -0.9471
 8204SOL    HW332583   2.475   4.647   0.002 -0.2203  0.6085 -1.4395
 8204SOL    MW432584   2.423   4.709   0.035 -0.0003  0.3250 -0.5543
 8205SOL     OW32585   5.824   2.152   1.280  0.3692  0.0756  0.2045
 8205SOL    HW232586   5.854   2.229   1.328  0.9833 -0.6487  0.9924
 8205SOL    HW332587   5.872   2.079   1.318 -0.4961 -0.7600 -0.2623
 8205SOL    MW432588   5.834   2.153   1.291  0.3360 -0.1302  0.2469
 8206SOL     OW32589   2.755   0.376   1.327  0.0127  0.3053  0.2137
 8206SOL    HW232590   2.818   0.343   1.390  1.1570  2.3024  0.2050
 8206SOL    HW332591   2.682   0.408   1.380  0.4652  0.9367  0.4626
 8206SOL    MW432592   2.754   0.376   1.342  0.2233  0.6521  0.2454
 8207SOL     OW32593   4.116   2.379   2.502  0.6033  0.2998  0.7217
 8207SOL    HW232594   4.183   2.383   2.571  0.7550  0.2179  0.5787
 8207SOL    HW332595   4.117   2.288   2.474 -2.5169 -0.8558  3.6736
 8207SOL    MW432596   4.125   2.367   2.508  0.2117  0.1366  1.0923
 8208SOL     OW32597   2.878   1.463   1.138  0.1380  0.1907 -0.0087
 8208SOL    HW232598   2.836   1.404   1.201 -1.0095  0.5529 -0.3928
 8208SOL    HW332599   2.848   1.550   1.163  1.2523  0.5437  0.1260
 8208SOL    MW432600   2.868   1.467   1.149  0.1336  0.2850 -0.0416
 8209SOL     OW32601   0.657   1.847   1.465 -0.2083  0.1939  0.1000
 8209SOL    HW232602   0.564   1.848   1.442 -0.3811  0.0397  0.7620
 8209SOL    HW332603   0.663   1.904   1.542  0.2817  0.3682 -0.0643
 8209SOL    MW432604   0.645   1.855   1.473 -0.1665  0.1966  0.1657
 8210SOL     OW32605   2.660   2.690   2.832 -0.1870 -0.1808 -0.5194
 8210SOL    HW232606   2.708   2.612   2.805  0.6209 -1.0204  2.9198
 8210SOL    HW332607   2.724   2.743   2.879 -1.5459  0.8653  0.2392
 8210SOL    MW432608   2.674   2.687   2.834 -0.2597 -0.1536  0.0345
 8211SOL     OW32609   1.352   3.024   4.392  0.7573  0.1001  0.2017
 8211SOL    HW232610   1.352   2.936   4.355  1.1404  0.1592  0.0572
 8211SOL    HW332611   1.306   3.078   4.328 -0.4025 -0.1843  0.7652
 8211SOL    MW432612   1.346   3.020   4.379  0.6548  0.0704  0.2570
 8212SOL     OW32613   0.946   4.471   0.491  0.2736  0.1757 -0.2008
 8212SOL    HW232614   1.034   4.484   0.525  0.0958 -1.0163  0.7823
 8212SOL    HW332615   0.950   4.503   0.401  1.9178 -0.5920 -0.4300
 8212SOL    MW432616   0.958   4.477   0.484  0.4671 -0.0829 -0.1013
 8213SOL     OW32617   5.143   0.647   0.909  0.3018 -0.0219 -0.3419
 8213SOL    HW232618   5.137   0.720   0.970 -1.1330  1.3281 -2.0090
 8213SOL    HW332619   5.055   0.636   0.875  0.9628 -1.0156 -1.8608
 8213SOL    MW432620   5.131   0.655   0.912  0.1997  0.0251 -0.7622
 8214SOL     OW32621   3.211   4.333   2.598 -0.2612 -0.9428 -0.0239
 8214SOL    HW232622   3.258   4.321   2.515 -0.8651 -0.2681 -0.4739
 8214SOL    HW332623   3.182   4.424   2.596  2.3409  0.0898  2.3143
 8214SOL    MW432624   3.214   4.343   2.587  0.0024 -0.7175  0.2252
 8215SOL     OW32625   2.929   1.811   0.186  0.0805  0.3108  0.0715
 8215SOL    HW232626   2.999   1.831   0.248 -0.5157  0.4805  0.6988
 8215SOL    HW332627   2.915   1.717   0.194 -0.5493  0.4595  0.7954
 8215SOL    MW432628   2.936   1.801   0.195 -0.0813  0.3528  0.2497
 8216SOL     OW32629   2.968   5.147   1.955  0.0810 -0.1559  0.1236
 8216SOL    HW232630   2.956   5.057   1.986  0.7516 -0.6500 -1.0031
 8216SOL    HW332631   2.979   5.198   2.035  0.0327 -1.1181  0.7661
 8216SOL    MW432632   2.968   5.142   1.969  0.1631 -0.3480  0.0597
 8217SOL     OW32633   3.074   6.163   3.505  0.4404 -0.1532 -0.0661
 8217SOL    HW232634   3.086   6.166   3.410 -0.7028 -0.8055 -0.2538
 8217SOL    HW332635   3.035   6.077   3.521  0.9773 -0.2134  1.0490
 8217SOL    MW432636   3.071   6.152   3.495  0.3604 -0.2472  0.0563
 8218SOL     OW32637   0.650   4.772   5.117  0.1785  0.1677 -0.1954
 8218SOL    HW232638   0.676   4.771   5.025 -1.2415  0.2585 -0.6185
 8218SOL    HW332639   0.585   4.702   5.124  0.6171 -0.1582  0.8594
 8218SOL    MW432640   0.645   4.763   5.106  0.0490  0.1367 -0.1120
 8219SOL     OW32641   0.767   1.998   4.758 -0.8273  0.3882 -0.3097
 8219SOL    HW232642   0.692   1.986   4.817  0.0912 -1.1634  0.6019
 8219SOL    HW332643   0.836   1.946   4.797  0.4374  0.9649 -1.7035
 8219SOL    MW432644   0.766   1.990   4.771 -0.5393  0.2596 -0.3733
 8220SOL     OW32645   1.722   0.583   2.437  0.1042  0.0246 -0.5625
 8220SOL    HW232646   1.743   0.567   2.530 -0.2722  1.3572 -0.2338
 8220SOL    HW332647   1.807   0.599   2.396  0.1252  1.3058 -0.0560
 8220SOL    MW432648   1.736   0.583   2.444  0.0573  0.3694 -0.4523
 8221SOL     OW32649   6.007   0.133   2.025  0.2167 -0.3684  0.0776
 8221SOL    HW232650   6.005   0.225   1.998 -1.2717 -0.4714 -0.2114
 8221SOL    HW332651   5.972   0.085   1.950  0.9399 -1.1842  0.2423
 8221SOL    MW432652   6.002   0.139   2.011  0.1157 -0.4896  0.0612
 8222SOL     OW32653   6.382   3.949   0.080 -0.5214 -0.0831  0.5763
 8222SOL    HW232654   6.345   3.981  -0.002 -0.8612  1.4352  1.2846
 8222SOL    HW332655   6.352   3.858   0.086  0.3328 -0.5581 -1.4306
 8222SOL    MW432656   6.373   3.941   0.070 -0.4535  0.0546  0.4050
 8223SOL     OW32657   5.286   4.954   5.504  0.5043  0.3202 -0.6430
 8223SOL    HW232658   5.274   4.860   5.512 -0.5661  0.2569 -2.4421
 8223SOL    HW332659   5.229   4.980   5.431  1.7734  2.1355 -1.0732
 8223SOL    MW432660   5.277   4.945   5.495  0.5305  0.5513 -0.9371
 8224SOL     OW32661   3.977   6.395   0.802  0.2223  0.3409  0.5243
 8224SOL    HW232662   4.020   6.415   0.886 -0.9260  3.3858  0.5342
 8224SOL    HW332663   3.884   6.410   0.819 -0.1386  0.0644 -1.0618
 8224SOL    MW432664   3.971   6.400   0.816  0.0232  0.7061  0.3164
 8225SOL     OW32665   0.979   2.836   4.951  0.9569 -0.4015  0.1833
 8225SOL    HW232666   1.065   2.847   4.992  1.3442 -2.1930 -0.0677
 8225SOL    HW332667   0.917   2.840   5.023  1.4051 -0.7963  0.5944
 8225SOL    MW432668   0.982   2.838   4.966  1.0671 -0.6899  0.2044
 8226SOL     OW32669   0.913   4.524   0.219  0.3511  0.6428  0.7264
 8226SOL    HW232670   0.820   4.508   0.234  0.0173  0.0269 -1.6651
 8226SOL    HW332671   0.915   4.585   0.145  1.8296 -1.1006 -0.7692
 8226SOL    MW432672   0.901   4.530   0.211  0.5021  0.3315  0.2136
 8227SOL     OW32673   4.750   4.291   4.674  0.3080 -0.3466 -0.2641
 8227SOL    HW232674   4.838   4.329   4.670  0.1685  0.1120  0.7090
 8227SOL    HW332675   4.740   4.263   4.765 -0.0678 -1.6174 -0.6787
 8227SOL    MW432676   4.761   4.292   4.686  0.2400 -0.4538 -0.1904
 8228SOL     OW32677   4.387   1.381   2.657 -0.3317 -0.4977 -0.0438
 8228SOL    HW232678   4.411   1.289   2.645  0.0242 -0.5233  0.8140
 8228SOL    HW332679   4.299   1.378   2.694 -1.0574 -0.4352 -1.6510
 8228SOL    MW432680   4.378   1.369   2.660 -0.3805 -0.4928 -0.1427
 8229SOL     OW32681   1.191   2.265   6.398  0.2727  0.2302 -0.0271
 8229SOL    HW232682   1.108   2.299   6.433 -0.0308  0.7984 -1.2590
 8229SOL    HW332683   1.213   2.193   6.456 -0.4935  0.7946  1.0072
 8229SOL    MW432684   1.183   2.260   6.411  0.1316  0.3796 -0.0532
 8230SOL     OW32685   1.643   5.440   4.597  0.4628 -0.0776  0.8234
 8230SOL    HW232686   1.686   5.358   4.622 -0.2292 -0.5500  0.4949
 8230SOL    HW332687   1.696   5.474   4.525  1.6992  0.6144  2.0047
 8230SOL    MW432688   1.656   5.434   4.591  0.5346 -0.0486  0.9359
 8231SOL     OW32689   1.526   5.658   3.068  0.6582 -0.4282 -0.1139
 8231SOL    HW232690   1.441   5.637   3.029  1.2919 -1.3802 -1.0416
 8231SOL    HW332691   1.538   5.593   3.137  0.5148 -0.1256  0.1965
 8231SOL    MW432692   1.516   5.646   3.072  0.7229 -0.5139 -0.1953
 8232SOL     OW32693   3.104   4.346   5.832 -0.2236 -0.0368 -0.0325
 8232SOL    HW232694   3.087   4.253   5.822 -0.0260  0.0131 -0.9517
 8232SOL    HW332695   3.028   4.389   5.793 -0.2353  0.1864  0.2324
 8232SOL    MW432696   3.092   4.340   5.825 -0.1991 -0.0008 -0.1188
 8233SOL     OW32697   3.155   0.560   3.382 -0.1002  0.2482  0.1284
 8233SOL    HW232698   3.120   0.606   3.458 -0.3781 -1.7917  1.3210
 8233SOL    HW332699   3.079   0.546   3.325 -0.0237  1.1633 -0.2130
 8233SOL    MW432700   3.140   0.564   3.384 -0.1268  0.0998  0.2407
 8234SOL     OW32701   3.062   2.087   4.998  0.3295 -0.4828  0.1568
 8234SOL    HW232702   3.091   2.063   5.086  2.0356  0.7090 -0.0326
 8234SOL    HW332703   3.039   2.004   4.956 -0.0044 -1.1173  1.5235
 8234SOL    MW432704   3.063   2.073   5.004  0.5105 -0.4093  0.3122
 8235SOL     OW32705   2.853   1.330   1.551  0.6710 -0.5415 -0.6249
 8235SOL    HW232706   2.769   1.360   1.585  0.7020 -1.0447 -0.0811
 8235SOL    HW332707   2.898   1.293   1.628  1.5851  0.1478 -0.8117
 8235SOL    MW432708   2.848   1.329   1.566  0.7957 -0.5169 -0.5778
 8236SOL     OW32709   2.192   3.486   5.026 -0.0191  0.4206  0.6591
 8236SOL    HW232710   2.158   3.396   5.030  0.8781  0.0739  0.7780
 8236SOL    HW332711   2.121   3.537   4.987 -0.7114 -0.2547  1.0106
 8236SOL    MW432712   2.179   3.481   5.021  0.0079  0.2858  0.7211
 8237SOL     OW32713   5.907   3.854   0.324 -0.1712 -0.1429  0.4707
 8237SOL    HW232714   5.954   3.835   0.243 -0.2374  0.2055  0.3473
 8237SOL    HW332715   5.976   3.863   0.390 -0.0117  0.9193  0.1822
 8237SOL    MW432716   5.922   3.853   0.322 -0.1589  0.0432  0.4164
 8238SOL     OW32717   2.462   2.012   4.860 -0.1356 -0.4087 -0.1629
 8238SOL    HW232718   2.386   2.002   4.801  1.2666 -0.8019 -2.0023
 8238SOL    HW332719   2.514   1.934   4.844  2.0315  1.1359 -1.0534
 8238SOL    MW432720   2.459   2.000   4.850  0.3353 -0.2568 -0.5231
 8239SOL     OW32721   3.107   2.169   0.768 -0.6457 -0.3899  0.4503
 8239SOL    HW232722   3.094   2.138   0.678 -2.1020 -0.8785  0.8060
 8239SOL    HW332723   3.101   2.265   0.761  1.2683 -0.2845 -0.2501
 8239SOL    MW432724   3.104   2.178   0.755 -0.5853 -0.4405  0.4048
 8240SOL     OW32725   1.233   3.131   4.607  0.3360 -0.6127 -0.1063
 8240SOL    HW232726   1.277   3.107   4.525 -0.9757 -3.2446 -0.1592
 8240SOL    HW332727   1.152   3.080   4.605 -0.9905  1.2861  1.6534
 8240SOL    MW432728   1.228   3.121   4.596 -0.0121 -0.7094  0.1189
 8241SOL     OW32729   4.936   3.196   3.896  0.0465  0.0477  0.6668
 8241SOL    HW232730   4.959   3.288   3.890  0.9740 -0.1244  1.3127
 8241SOL    HW332731   5.017   3.153   3.925 -0.2684 -1.0144  0.0231
 8241SOL    MW432732   4.950   3.202   3.899  0.1273 -0.1151  0.6671
 8242SOL     OW32733   5.611   2.608   3.358 -0.4320 -0.4127  0.5675
 8242SOL    HW232734   5.681   2.621   3.422 -0.0203 -0.3876  0.1184
 8242SOL    HW332735   5.531   2.628   3.406 -0.0690  0.4650  0.8348
 8242SOL    MW432736   5.610   2.612   3.373 -0.3298 -0.2936  0.5435
 8243SOL     OW32737   6.221   3.965   3.123  0.5918 -0.5577  0.0529
 8243SOL    HW232738   6.151   4.025   3.098  1.4030  0.4819  0.2013
 8243SOL    HW332739   6.178   3.880   3.133 -0.4195 -0.2090 -1.0983
 8243SOL    MW432740   6.206   3.962   3.121  0.5654 -0.3745 -0.0794
 8244SOL     OW32741   4.082   1.375   3.292 -0.5310 -0.2910 -0.4164
 8244SOL    HW232742   4.098   1.297   3.238 -1.7977  0.2561 -1.6519
 8244SOL    HW332743   4.166   1.422   3.290  0.4621 -1.8774  0.8793
 8244SOL    MW432744   4.095   1.371   3.284 -0.5671 -0.4281 -0.4085
 8245SOL     OW32745   0.371   4.133   5.552 -0.0348  0.6084  0.3078
 8245SOL    HW232746   0.415   4.123   5.637 -1.8259  0.8265  1.3024
 8245SOL    HW332747   0.400   4.219   5.521  0.7217  0.4829  0.6356
 8245SOL    MW432748   0.381   4.143   5.560 -0.1713  0.6206  0.4823
 8246SOL     OW32749   3.801   2.691   3.683 -0.1220  0.0461  0.2033
 8246SOL    HW232750   3.806   2.605   3.724  0.9566  0.7572  1.6456
 8246SOL    HW332751   3.770   2.749   3.752  2.4313  1.4000  0.3176
 8246SOL    MW432752   3.798   2.687   3.697  0.3572  0.3185  0.4087
 8247SOL     OW32753   5.656   5.766   4.647 -0.4572 -0.3438 -0.0431
 8247SOL    HW232754   5.591   5.800   4.585 -0.7886  0.9031  0.9452
 8247SOL    HW332755   5.689   5.843   4.693  1.8059 -0.9248 -0.5548
 8247SOL    MW432756   5.652   5.781   4.645 -0.2023 -0.2559  0.0198
 8248SOL     OW32757   0.529   4.481   5.064 -0.1684 -0.8338  0.1037
 8248SOL    HW232758   0.455   4.455   5.119  0.0915 -0.9720  0.3943
 8248SOL    HW332759   0.527   4.421   4.990 -0.8659 -0.2793 -0.3418
 8248SOL    MW432760   0.519   4.470   5.061 -0.2262 -0.7789  0.0833
 8249SOL     OW32761   0.865   0.470   5.570 -0.2083  0.5210 -0.5209
 8249SOL    HW232762   0.875   0.472   5.665 -2.6469  1.6845 -0.2095
 8249SOL    HW332763   0.945   0.428   5.538  0.6024 -0.0463  2.0350
 8249SOL    MW432764   0.877   0.465   5.578 -0.4231  0.5997 -0.1426
 8250SOL     OW32765   5.184   1.715   4.316 -0.0037  0.5121 -0.4899
 8250SOL    HW232766   5.266   1.712   4.365 -0.5560  1.2995  0.5240
 8250SOL    HW332767   5.172   1.627   4.282 -0.0902 -0.3484  1.6475
 8250SOL    MW432768   5.193   1.703   4.318 -0.0880  0.5025 -0.0741
 8251SOL     OW32769   5.503   1.956   3.143 -0.5880 -0.6300 -0.3591
 8251SOL    HW232770   5.446   1.952   3.220 -1.5864 -0.2101 -1.0638
 8251SOL    HW332771   5.528   1.865   3.127 -1.3777 -0.8754 -0.2611
 8251SOL    MW432772   5.499   1.944   3.151 -0.8239 -0.6070 -0.4392
 8252SOL     OW32773   4.195   3.119   2.932 -0.4409 -0.0428 -0.3062
 8252SOL    HW232774   4.262   3.076   2.984 -0.5745 -1.1886 -1.0359
 8252SOL    HW332775   4.244   3.172   2.869 -0.2819  1.4818  1.0258
 8252SOL    MW432776   4.210   3.120   2.930 -0.4375  0.0072 -0.2268
 8253SOL     OW32777   4.891   4.478   0.316 -0.2380 -0.0308  0.5678
 8253SOL    HW232778   4.871   4.557   0.266 -0.0386 -0.2202  0.1908
 8253SOL    HW332779   4.838   4.409   0.275  0.3727 -0.3118  0.2366
 8253SOL    MW432780   4.881   4.479   0.304 -0.1311 -0.0928  0.4743
 8254SOL     OW32781   4.296   6.031   1.223  0.1950 -0.5693 -0.2831
 8254SOL    HW232782   4.358   6.103   1.210 -0.4226  0.3482  1.4829
 8254SOL    HW332783   4.225   6.049   1.161 -0.1888  0.6647  0.4776
 8254SOL    MW432784   4.295   6.043   1.214  0.0629 -0.2854  0.0503
 8255SOL     OW32785   0.175   1.001   0.400 -0.0465  0.0188  0.4726
 8255SOL    HW232786   0.103   1.053   0.434 -0.8149 -0.9185  0.3407
 8255SOL    HW332787   0.172   1.015   0.305  0.4991  0.6562  0.5456
 8255SOL    MW432788   0.165   1.009   0.392 -0.0759 -0.0208  0.4648
 8256SOL     OW32789   2.369   5.144   0.825 -0.0499  0.6968  0.2779
 8256SOL    HW232790   2.348   5.222   0.774 -0.2267  0.5726  0.1573
 8256SOL    HW332791   2.323   5.156   0.908 -0.0814  0.7198  0.2572
 8256SOL    MW432792   2.360   5.156   0.829 -0.0774  0.6835  0.2592
 8257SOL     OW32793   2.542   4.894   3.599 -0.0253  0.0039 -0.5684
 8257SOL    HW232794   2.451   4.873   3.582  0.0016 -0.9502  0.3642
 8257SOL    HW332795   2.555   4.870   3.691  0.8090  1.3765 -0.2933
 8257SOL    MW432796   2.532   4.888   3.609  0.0883  0.0591 -0.4090
 8258SOL     OW32797   1.147   1.482   5.096  0.4605 -0.4167  0.4254
 8258SOL    HW232798   1.057   1.484   5.129  0.7449  1.0381  1.2108
 8258SOL    HW332799   1.138   1.489   5.001 -0.2489  2.6054  0.6151
 8258SOL    MW432800   1.134   1.483   5.088  0.4044  0.1740  0.5540
 8259SOL     OW32801   0.028   0.636   0.598  0.4985  0.1211 -0.0277
 8259SOL    HW232802   0.078   0.718   0.599 -0.1162  0.5776  3.0402
 8259SOL    HW332803  -0.063   0.663   0.588  0.3429 -0.2185  0.4444
 8259SOL    MW432804   0.023   0.650   0.597  0.3969  0.1365  0.4393
 8260SOL     OW32805   2.106   2.870   5.827  0.0749  0.1303 -0.2575
 8260SOL    HW232806   2.103   2.866   5.923 -0.0534  1.2533 -0.2010
 8260SOL    HW332807   2.017   2.847   5.799 -0.1773  0.8313 -0.0531
 8260SOL    MW432808   2.094   2.866   5.836  0.0247  0.3710 -0.2230
 8261SOL     OW32809   0.736   5.604   0.692 -0.3203 -0.0862  0.6218
 8261SOL    HW232810   0.747   5.519   0.649 -1.4705 -0.7111  1.5075
 8261SOL    HW332811   0.822   5.622   0.730  0.1778 -0.4272 -0.3127
 8261SOL    MW432812   0.749   5.595   0.692 -0.4064 -0.2136  0.6153
 8262SOL     OW32813   5.166   3.375   2.738 -0.0277  0.4442  0.6136
 8262SOL    HW232814   5.136   3.337   2.655  0.4849  0.8953  0.2144
 8262SOL    HW332815   5.174   3.299   2.797 -0.2472  0.1004  0.2089
 8262SOL    MW432816   5.163   3.360   2.735  0.0110  0.4583  0.5075
 8263SOL     OW32817   0.448   4.192   4.402 -0.4434  0.0754 -0.4712
 8263SOL    HW232818   0.528   4.177   4.452  0.8448 -1.7543 -2.9103
 8263SOL    HW332819   0.401   4.109   4.406 -1.3448  0.5693 -0.5705
 8263SOL    MW432820   0.452   4.179   4.409 -0.3924 -0.1008 -0.8061
 8264SOL     OW32821   4.157   3.191   5.937  0.2747  0.2970 -0.3171
 8264SOL    HW232822   4.203   3.138   6.001 -0.4367  0.0351 -0.0111
 8264SOL    HW332823   4.225   3.223   5.878  1.0193  1.0135  0.8949
 8264SOL    MW432824   4.172   3.188   5.937  0.2790  0.3569 -0.1169
 8265SOL     OW32825   5.735   1.670   0.069 -0.1049 -0.0319  0.6336
 8265SOL    HW232826   5.776   1.757   0.065  1.2890 -0.6705  0.4795
 8265SOL    HW332827   5.755   1.639   0.157  0.0126 -0.4830  0.4486
 8265SOL    MW432828   5.743   1.678   0.080  0.0945 -0.1757  0.5888
 8266SOL     OW32829   3.998   0.278   3.676  0.7521 -0.1141 -0.1872
 8266SOL    HW232830   4.024   0.272   3.768 -0.9558  1.3389  0.4510
 8266SOL    HW332831   4.070   0.325   3.634  0.2246  1.9074  1.0641
 8266SOL    MW432832   4.011   0.283   3.682  0.4571  0.3444  0.0621
 8267SOL     OW32833   4.012   3.771   1.944  0.2880  0.3321 -0.1056
 8267SOL    HW232834   4.044   3.856   1.912 -0.1201  0.2103 -0.8761
 8267SOL    HW332835   3.918   3.785   1.958  0.1475 -0.0815 -0.5902
 8267SOL    MW432836   4.004   3.784   1.942  0.2156  0.2615 -0.2712
 8268SOL     OW32837   5.236   3.210   2.158 -0.6182  0.1961 -0.2376
 8268SOL    HW232838   5.281   3.139   2.111  1.1123  0.1790  1.3100
 8268SOL    HW332839   5.297   3.234   2.228 -3.3646 -0.3772  2.5871
 8268SOL    MW432840   5.250   3.204   2.161 -0.7522  0.1182  0.3393
 8269SOL     OW32841   5.686   4.453   1.055  0.2136 -0.2211  0.2154
 8269SOL    HW232842   5.678   4.364   1.090  1.7330 -0.1453  0.8022
 8269SOL    HW332843   5.707   4.441   0.962 -0.7907 -0.4407 -0.0009
 8269SOL    MW432844   5.687   4.440   1.047  0.2816 -0.2401  0.2643
 8270SOL     OW32845   5.460   5.322   4.001  0.5078  0.5005 -0.0958
 8270SOL    HW232846   5.519   5.258   4.043 -0.5461  0.3430  1.2009
 8270SOL    HW332847   5.403   5.268   3.946  0.1862  0.4127  0.3199
 8270SOL    MW432848   5.460   5.306   4.000  0.3263  0.4682  0.1302
 8271SOL     OW32849   5.347   2.731   1.878 -0.2350  0.2831 -0.5383
 8271SOL    HW232850   5.320   2.666   1.942  0.9661 -1.1048 -1.3886
 8271SOL    HW332851   5.432   2.701   1.847 -0.1879  1.6219 -1.8199
 8271SOL    MW432852   5.354   2.718   1.882 -0.0703  0.2766 -0.8196
 8272SOL     OW32853   0.035   5.878   1.350  0.1056 -0.1420  0.1296
 8272SOL    HW232854   0.076   5.797   1.378  1.6756 -0.0415 -1.6412
 8272SOL    HW332855   0.025   5.869   1.255  0.0949  1.6146 -0.0811
 8272SOL    MW432856   0.039   5.866   1.341  0.3113  0.1030 -0.1318
 8273SOL     OW32857   0.760   3.446   0.013 -0.1107  0.4945 -0.2363
 8273SOL    HW232858   0.764   3.535  -0.022 -0.6484  0.5992 -0.0438
 8273SOL    HW332859   0.710   3.397  -0.053 -1.1409  0.6949  0.3721
 8273SOL    MW432860   0.754   3.451  -0.001 -0.3175  0.5347 -0.1306
 8274SOL     OW32861   4.386   5.070   4.021 -0.5712 -0.1242  0.8438
 8274SOL    HW232862   4.376   5.155   4.065  0.7476  0.3394  0.3217
 8274SOL    HW332863   4.297   5.043   4.001 -1.0246  1.2237  0.8959
 8274SOL    MW432864   4.373   5.078   4.024 -0.4571  0.1148  0.7818
 8275SOL     OW32865   4.393   1.190   4.800 -0.1817  0.5105 -0.4574
 8275SOL    HW232866   4.399   1.216   4.893  0.1530 -0.1525 -0.2882
 8275SOL    HW332867   4.308   1.224   4.772 -2.6350 -3.3246  1.4150
 8275SOL    MW432868   4.383   1.198   4.809 -0.4612 -0.0830 -0.1880
 8276SOL     OW32869   4.917   5.814   5.306  0.3359 -0.5130 -0.1818
 8276SOL    HW232870   4.899   5.869   5.383 -1.4062 -1.4993  0.1818
 8276SOL    HW332871   4.880   5.729   5.330  2.8951 -1.8735 -0.7460
 8276SOL    MW432872   4.910   5.810   5.320  0.4437 -0.8226 -0.2082
 8277SOL     OW32873   6.287   5.320   3.563  0.3005  0.1989  0.1669
 8277SOL    HW232874   6.378   5.315   3.592  0.3567 -0.3090 -0.0713
 8277SOL    HW332875   6.267   5.231   3.533 -0.1406  0.4129 -0.1837
 8277SOL    MW432876   6.296   5.307   3.563  0.2497  0.1601  0.0892
 8278SOL     OW32877   1.986   4.191   1.296 -0.4865  0.1334  0.5832
 8278SOL    HW232878   1.978   4.138   1.216  1.1246 -0.2459  0.6392
 8278SOL    HW332879   1.988   4.281   1.265  1.3754 -0.0474  0.0188
 8278SOL    MW432880   1.985   4.196   1.281 -0.0283  0.0595  0.5161
 8279SOL     OW32881   0.183   0.654   1.224 -0.0244  0.3435 -0.0072
 8279SOL    HW232882   0.146   0.705   1.152 -0.4049 -0.6432 -0.5270
 8279SOL    HW332883   0.112   0.645   1.286  0.5016  1.7916  0.8510
 8279SOL    MW432884   0.169   0.660   1.222 -0.0052  0.4044  0.0375
 8280SOL     OW32885   1.977   4.506   2.389  0.1603 -0.3237  0.8380
 8280SOL    HW232886   1.957   4.572   2.456 -0.5839 -1.2041  1.4984
 8280SOL    HW332887   1.892   4.478   2.357  0.4914  0.5999 -1.0433
 8280SOL    MW432888   1.963   4.511   2.393  0.1058 -0.3180  0.6769
 8281SOL     OW32889   2.244   4.297   4.585 -0.2260 -0.4016 -0.2268
 8281SOL    HW232890   2.297   4.290   4.506  1.1528  1.3106  0.4839
 8281SOL    HW332891   2.177   4.362   4.564 -0.6091 -0.8360 -0.3649
 8281SOL    MW432892   2.242   4.305   4.572 -0.0946 -0.2330 -0.1513
 8282SOL     OW32893   0.724   0.711   3.550  0.0986  0.0702 -0.2128
 8282SOL    HW232894   0.786   0.781   3.571  1.8151 -1.9347  1.8883
 8282SOL    HW332895   0.780   0.638   3.521 -1.5076 -0.9411 -0.8862
 8282SOL    MW432896   0.740   0.711   3.549  0.1132 -0.3277 -0.0244
 8283SOL     OW32897   1.441   1.656   5.391 -0.3202  0.0106 -0.8245
 8283SOL    HW232898   1.428   1.617   5.304 -0.7569  0.6143 -1.0402
 8283SOL    HW332899   1.353   1.656   5.429 -0.7915  2.7640 -1.6952
 8283SOL    MW432900   1.427   1.651   5.384 -0.4400  0.4535 -0.9678
 8284SOL     OW32901   4.662   4.797   3.927  0.4407  0.1376  0.1151
 8284SOL    HW232902   4.669   4.866   3.994 -1.6722  1.9453 -1.3874
 8284SOL    HW332903   4.742   4.807   3.875  1.2528 -0.1249  1.2655
 8284SOL    MW432904   4.674   4.808   3.929  0.2691  0.3414  0.0687
 8285SOL     OW32905   5.732   4.045   0.168  0.2529  0.2804  0.0471
 8285SOL    HW232906   5.779   3.976   0.215  2.0232  0.5448 -1.2056
 8285SOL    HW332907   5.653   4.061   0.219  0.7819 -1.3020  1.4132
 8285SOL    MW432908   5.728   4.038   0.181  0.5563  0.1065  0.0620
 8286SOL     OW32909   0.121   3.756   3.826  0.4312  0.1200  0.2688
 8286SOL    HW232910   0.162   3.670   3.811  2.0354  0.0271  4.0195
 8286SOL    HW332911   0.166   3.815   3.766 -0.7297 -1.5196 -2.4367
 8286SOL    MW432912   0.132   3.752   3.816  0.4897 -0.1086  0.4067
 8287SOL     OW32913   4.078   5.642   0.422 -0.2268  0.0276  1.2405
 8287SOL    HW232914   3.999   5.694   0.440  0.4687  0.8356  2.0666
 8287SOL    HW332915   4.087   5.645   0.327 -0.5677  0.8872  1.2229
 8287SOL    MW432916   4.069   5.649   0.412 -0.1800  0.2476  1.3471
 8288SOL     OW32917   3.312   6.373   6.262  0.5656 -0.2274  0.0460
 8288SOL    HW232918   3.372   6.369   6.188  0.0019 -0.5978 -0.3971
 8288SOL    HW332919   3.231   6.410   6.225 -0.6007 -2.7559 -0.1424
 8288SOL    MW432920   3.309   6.378   6.247  0.3373 -0.6099 -0.0373
 8289SOL     OW32921   1.980   0.537   5.328 -0.1575 -0.0473 -0.7222
 8289SOL    HW232922   2.062   0.532   5.377 -0.6685 -2.5816 -0.0071
 8289SOL    HW332923   1.976   0.628   5.298  2.7529  0.2445 -0.5381
 8289SOL    MW432924   1.990   0.549   5.330  0.1591 -0.3432 -0.6036
 8290SOL     OW32925   4.389   1.953   3.961  0.2499  0.0036 -0.3723
 8290SOL    HW232926   4.448   2.029   3.957  1.7239 -1.1365 -1.6258
 8290SOL    HW332927   4.303   1.988   3.939  1.1060  1.1457 -2.1454
 8290SOL    MW432928   4.386   1.968   3.957  0.5574  0.0039 -0.7716
 8291SOL     OW32929   5.052   2.977   1.352 -0.4753  0.3638  0.6553
 8291SOL    HW232930   5.009   2.895   1.377 -0.1857  0.7403  2.5472
 8291SOL    HW332931   5.050   2.977   1.256 -1.1201 -1.5016  0.6296
 8291SOL    MW432932   5.046   2.966   1.342 -0.5221  0.1674  0.9015
 8292SOL     OW32933   5.732   4.743   2.468 -0.5528 -0.4784  0.2631
 8292SOL    HW232934   5.793   4.751   2.395 -1.2061 -1.6054 -0.4329
 8292SOL    HW332935   5.645   4.738   2.427 -1.0433  0.1540  1.1850
 8292SOL    MW432936   5.728   4.743   2.453 -0.7037 -0.5437  0.2929
 8293SOL     OW32937   1.354   0.092   4.394 -0.0856  0.3328 -0.6713
 8293SOL    HW232938   1.277   0.038   4.413  0.8531 -0.7639  0.1599
 8293SOL    HW332939   1.363   0.090   4.299 -0.7903  0.0624 -0.7374
 8293SOL    MW432940   1.345   0.085   4.384 -0.0547  0.1525 -0.5703
 8294SOL     OW32941   5.329   1.340   3.971 -0.2184  0.2643  0.3903
 8294SOL    HW232942   5.359   1.404   3.906 -0.2771 -0.5613 -0.4841
 8294SOL    HW332943   5.255   1.296   3.927 -0.1398 -0.4357  0.9518
 8294SOL    MW432944   5.323   1.343   3.956 -0.2158  0.0630  0.3490
 8295SOL     OW32945   1.583   3.201   2.235 -0.1232 -0.4800 -0.1594
 8295SOL    HW232946   1.495   3.165   2.247 -0.4909  0.9517  1.9647
 8295SOL    HW332947   1.636   3.159   2.303  0.2667  0.3820  0.0855
 8295SOL    MW432948   1.579   3.191   2.246 -0.1203 -0.1774  0.1531
 8296SOL     OW32949   5.265   3.417   3.907 -0.1154 -0.1069  0.3156
 8296SOL    HW232950   5.288   3.501   3.946 -2.4445  0.4914  0.5854
 8296SOL    HW332951   5.169   3.417   3.907 -0.1662 -2.2505 -0.8124
 8296SOL    MW432952   5.255   3.428   3.912 -0.4294 -0.3108  0.2024
 8297SOL     OW32953   3.537   5.528   4.165 -0.3418 -0.4519 -0.1615
 8297SOL    HW232954   3.507   5.588   4.097  0.6661  0.1028 -0.1366
 8297SOL    HW332955   3.485   5.550   4.242  0.7757  1.2017  0.1777
 8297SOL    MW432956   3.526   5.539   4.166 -0.0613 -0.1606 -0.1135
 8298SOL     OW32957   4.331   4.506   2.843 -0.3843  0.2750 -0.2016
 8298SOL    HW232958   4.393   4.478   2.911 -1.1438 -1.5328 -0.2105
 8298SOL    HW332959   4.262   4.441   2.844 -2.1856  2.0838 -0.4143
 8298SOL    MW432960   4.330   4.494   2.852 -0.7222  0.2751 -0.2309
 8299SOL     OW32961   3.500   2.892   6.157  0.3610 -0.0039  0.2184
 8299SOL    HW232962   3.472   2.801   6.155 -0.6361  0.2957 -1.0010
 8299SOL    HW332963   3.538   2.907   6.070 -0.0090  0.8913  0.2022
 8299SOL    MW432964   3.501   2.882   6.145  0.1806  0.1538  0.0554
 8300SOL     OW32965   1.765   3.685   2.314 -0.3750 -1.0035 -0.3568
 8300SOL    HW232966   1.767   3.655   2.404 -0.7842  0.4059  0.1470
 8300SOL    HW332967   1.798   3.611   2.263 -2.3441 -2.6766  0.6841
 8300SOL    MW432968   1.770   3.671   2.319 -0.6888 -1.0383 -0.1530
 8301SOL     OW32969   2.180   4.698   6.342 -0.0424  0.5765  0.7894
 8301SOL    HW232970   2.120   4.684   6.415 -1.9703  0.3000 -0.7696
 8301SOL    HW332971   2.178   4.616   6.293  0.6693  0.9883  0.0439
 8301SOL    MW432972   2.172   4.686   6.345 -0.2029  0.5943  0.4853
 8302SOL     OW32973   0.180   4.051   1.074 -0.3696 -0.3153  0.0656
 8302SOL    HW232974   0.221   3.972   1.109  1.6763  1.1851  1.2619
 8302SOL    HW332975   0.168   4.033   0.981  2.3866 -1.1761 -0.2154
 8302SOL    MW432976   0.184   4.038   1.066  0.2639 -0.2309  0.1863
 8303SOL     OW32977   2.434   2.915   4.334  0.3331  0.2096 -0.1661
 8303SOL    HW232978   2.507   2.977   4.337  0.4947 -0.0108  0.4493
 8303SOL    HW332979   2.458   2.846   4.396 -0.6955  0.4589  0.5297
 8303SOL    MW432980   2.447   2.914   4.342  0.2187  0.2134  0.0069
 8304SOL     OW32981   1.507   0.928   5.715  0.4336  0.1378 -0.3182
 8304SOL    HW232982   1.559   0.885   5.646 -0.8443 -2.5621  0.2513
 8304SOL    HW332983   1.476   1.009   5.675  1.1885 -0.4848 -2.2883
 8304SOL    MW432984   1.510   0.933   5.700  0.3646 -0.3006 -0.5030
 8305SOL     OW32985   2.525   1.717   0.433  0.4315 -0.2549 -0.0665
 8305SOL    HW232986   2.567   1.655   0.373  2.2127  1.2072 -0.4280
 8305SOL    HW332987   2.565   1.699   0.518 -0.2977 -0.6975  0.1928
 8305SOL    MW432988   2.536   1.706   0.436  0.5703 -0.1204 -0.0800
 8306SOL     OW32989   3.344   3.583   5.448  0.1244  0.4364  0.3718
 8306SOL    HW232990   3.275   3.526   5.414  1.0667 -0.3872 -0.2265
 8306SOL    HW332991   3.307   3.621   5.527 -1.2568  0.5496 -0.2916
 8306SOL    MW432992   3.330   3.581   5.454  0.0665  0.3427  0.2053
 8307SOL     OW32993   4.071   3.229   4.339 -0.2158 -0.0430 -0.1166
 8307SOL    HW232994   4.096   3.317   4.311 -0.9701  0.4226  0.6304
 8307SOL    HW332995   3.997   3.205   4.284 -0.1549 -0.1207 -0.1660
 8307SOL    MW432996   4.065   3.237   4.328 -0.3073  0.0082 -0.0245
 8308SOL     OW32997   4.987   5.908   4.737 -0.1517 -0.2820 -0.1392
 8308SOL    HW232998   4.917   5.856   4.696  0.3306 -0.0484 -1.3076
 8308SOL    HW332999   4.941   5.972   4.791 -0.8327 -0.4050 -0.5631
 8308SOL    MW433000   4.972   5.909   4.739 -0.1779 -0.2674 -0.3493
 8309SOL     OW33001   1.593   4.492   5.510 -0.4098  0.3529  0.3493
 8309SOL    HW233002   1.585   4.578   5.470  0.1698  0.2055 -0.0858
 8309SOL    HW333003   1.521   4.441   5.472  0.6872 -0.0656 -1.2317
 8309SOL    MW433004   1.582   4.497   5.500 -0.1886  0.2782  0.0833
 8310SOL     OW33005   5.878   1.107   4.270 -0.3468 -0.5382  0.5439
 8310SOL    HW233006   5.799   1.081   4.317  0.0105 -3.6239 -0.3319
 8310SOL    HW333007   5.848   1.125   4.181 -0.2564 -0.2140  0.5773
 8310SOL    MW433008   5.864   1.106   4.265 -0.2877 -0.9026  0.4328
 8311SOL     OW33009   2.248   5.746   1.850  0.5214 -0.3065 -0.4985
 8311SOL    HW233010   2.153   5.754   1.847  0.5571  0.2427 -0.2522
 8311SOL    HW333011   2.263   5.655   1.875  0.0575 -0.3612 -0.4020
 8311SOL    MW433012   2.237   5.735   1.853  0.4649 -0.2412 -0.4533
 8312SOL     OW33013   3.771   0.682   0.876  0.1610 -0.4067  0.2650
 8312SOL    HW233014   3.747   0.626   0.950  0.1235 -1.3912 -0.4689
 8312SOL    HW333015   3.696   0.676   0.816  0.1382  0.4735  0.1979
 8312SOL    MW433016   3.757   0.674   0.878  0.1531 -0.4205  0.1593
 8313SOL     OW33017   5.567   3.128   2.538 -0.1662  0.3437  0.0306
 8313SOL    HW233018   5.569   3.128   2.633  0.6911 -0.8941  0.0340
 8313SOL    HW333019   5.549   3.037   2.514  1.2684  0.2921 -0.9904
 8313SOL    MW433020   5.565   3.116   2.547  0.1362  0.1736 -0.1037
 8314SOL     OW33021   2.154   4.540   1.045 -0.1601 -0.1368  0.3609
 8314SOL    HW233022   2.225   4.475   1.038 -0.8487 -0.7421 -3.1313
 8314SOL    HW333023   2.199   4.624   1.052  0.8984 -0.6619  0.1438
 8314SOL    MW433024   2.170   4.542   1.045 -0.1113 -0.2860 -0.1285
 8315SOL     OW33025   0.437   0.152   0.478  0.0785  0.3013  0.3362
 8315SOL    HW233026   0.491   0.208   0.423  0.4720 -0.0096  0.3989
 8315SOL    HW333027   0.401   0.210   0.545  0.7902  0.4061  0.6286
 8315SOL    MW433028   0.439   0.167   0.479  0.2243  0.2741  0.3830
 8316SOL     OW33029   5.909   3.400   5.781 -0.1077  0.2133 -0.3326
 8316SOL    HW233030   5.977   3.378   5.717 -0.2995  0.2860 -0.5658
 8316SOL    HW333031   5.933   3.352   5.860 -0.4859 -0.7860 -0.8133
 8316SOL    MW433032   5.921   3.391   5.783 -0.1829  0.0910 -0.4268
 8317SOL     OW33033   1.121   2.253   1.215  0.5031  0.6247  0.4631
 8317SOL    HW233034   1.178   2.182   1.186 -0.4824 -0.0782  0.2140
 8317SOL    HW333035   1.156   2.331   1.172  2.6575  0.6380  2.0651
 8317SOL    MW433036   1.133   2.254   1.206  0.6573  0.5337  0.6416
 8318SOL     OW33037   1.892   6.322   4.923 -0.4916 -0.1703 -0.4841
 8318SOL    HW233038   1.898   6.417   4.928 -0.3062 -0.2382  1.9771
 8318SOL    HW333039   1.967   6.291   4.974 -1.4939 -1.5908  0.1851
 8318SOL    MW433040   1.903   6.330   4.931 -0.5994 -0.3667 -0.0711
 8319SOL     OW33041   5.213   5.871   5.077  0.1964 -0.2736 -0.3987
 8319SOL    HW233042   5.269   5.876   4.999  0.0662 -0.4158 -0.5015
 8319SOL    HW333043   5.273   5.886   5.150 -0.0258  2.1089 -0.6300
 8319SOL    MW433044   5.229   5.874   5.077  0.1499  0.0220 -0.4428
 8320SOL     OW33045   2.925   3.525   2.419  0.0421  0.0165 -0.5016
 8320SOL    HW233046   2.953   3.500   2.507 -0.6396 -0.5451 -0.4434
 8320SOL    HW333047   2.951   3.451   2.364  2.5635  1.2930 -1.2074
 8320SOL    MW433048   2.932   3.512   2.423  0.2848  0.1108 -0.5870
 8321SOL     OW33049   0.382   0.450   4.554 -0.3551  0.1365  0.2436
 8321SOL    HW233050   0.461   0.452   4.500  1.6320 -0.7377  2.8650
 8321SOL    HW333051   0.382   0.534   4.600 -1.9727  0.8400 -0.9520
 8321SOL    MW433052   0.393   0.461   4.553 -0.3063  0.1140  0.4317
 8322SOL     OW33053   2.754   1.688   5.814 -0.1161  0.3265 -0.1742
 8322SOL    HW233054   2.699   1.637   5.755  0.7445 -0.4354 -0.3275
 8322SOL    HW333055   2.843   1.671   5.785  0.2651  0.7595  0.7068
 8322SOL    MW433056   2.758   1.679   5.803  0.0477  0.2831 -0.0782
 8323SOL     OW33057   5.973   0.945   0.665 -0.2401  0.3686 -0.5092
 8323SOL    HW233058   5.906   1.011   0.681 -0.4059 -0.2443  1.5866
 8323SOL    HW333059   5.925   0.863   0.661  0.2147  0.1130 -0.7370
 8323SOL    MW433060   5.958   0.943   0.667 -0.2020  0.2540 -0.2628
 8324SOL     OW33061   1.019   3.368   0.824 -0.1829  0.0600  0.4558
 8324SOL    HW233062   1.033   3.424   0.748 -3.4586  0.8913  0.3246
 8324SOL    HW333063   1.034   3.279   0.791  1.0627  0.5486 -0.3973
 8324SOL    MW433064   1.023   3.364   0.810 -0.4508  0.2341  0.3259
 8325SOL     OW33065   1.098   0.839   1.773  0.8431 -0.5389  0.6415
 8325SOL    HW233066   1.075   0.750   1.799  1.0331 -0.3711  1.4089
 8325SOL    HW333067   1.068   0.846   1.682  0.2302 -1.1687  0.7840
 8325SOL    MW433068   1.091   0.828   1.764  0.7873 -0.5999  0.7616
 8326SOL     OW33069   2.247   4.887   3.493  0.2301 -0.2010  0.0428
 8326SOL    HW233070   2.191   4.820   3.531 -0.6166  0.3268 -0.2414
 8326SOL    HW333071   2.208   4.970   3.521 -0.4924  0.2177 -2.0147
 8326SOL    MW433072   2.234   4.889   3.501  0.0231 -0.0761 -0.2661
 8327SOL     OW33073   1.273   5.065   0.028  0.2248  0.3223 -0.0653
 8327SOL    HW233074   1.326   5.128   0.075  1.3929  0.3647 -1.3745
 8327SOL    HW333075   1.203   5.117  -0.012  1.3250  0.8777 -1.3440
 8327SOL    MW433076   1.271   5.080   0.029  0.5241  0.4012 -0.4067
 8328SOL     OW33077   0.108   0.136   5.254 -0.5172  0.1141 -0.6303
 8328SOL    HW233078   0.036   0.185   5.213 -2.1760 -0.5993  1.2722
 8328SOL    HW333079   0.093   0.045   5.228 -2.4071 -0.5783  2.4200
 8328SOL    MW433080   0.096   0.130   5.245 -0.9854 -0.0714  0.0231
 8329SOL     OW33081   3.731   6.285   4.509  0.1361  0.3883 -0.0510
 8329SOL    HW233082   3.707   6.360   4.564 -0.5219 -0.5992  1.0799
 8329SOL    HW333083   3.700   6.308   4.422  0.3010  1.5932  0.1861
 8329SOL    MW433084   3.723   6.298   4.505  0.0710  0.4170  0.1295
 8330SOL     OW33085   5.443   3.240   3.449 -0.1287  0.2797  0.2253
 8330SOL    HW233086   5.537   3.255   3.438  0.0163 -1.5012 -1.6704
 8330SOL    HW333087   5.429   3.237   3.543  1.8052  0.0696  0.5363
 8330SOL    MW433088   5.453   3.242   3.460  0.1456  0.0170  0.0162
 8331SOL     OW33089   4.014   5.630   4.756 -0.3962 -0.1255  0.4334
 8331SOL    HW233090   4.088   5.634   4.695 -0.7670  0.1996  0.0037
 8331SOL    HW333091   4.018   5.714   4.803 -1.8044  0.8626 -1.1373
 8331SOL    MW433092   4.024   5.642   4.754 -0.6309  0.0477  0.1695
 8332SOL     OW33093   2.698   3.969   5.442 -0.1396  1.1071  0.0229
 8332SOL    HW233094   2.779   3.919   5.432 -0.0426  1.6066 -2.0001
 8332SOL    HW333095   2.696   3.992   5.535  1.0255 -0.5784  0.5145
 8332SOL    MW433096   2.708   3.966   5.453  0.0269  0.9507 -0.1792
 8333SOL     OW33097   1.585   5.632   1.552  0.1473  0.0230  1.1050
 8333SOL    HW233098   1.582   5.587   1.636  0.4251  1.3248  1.8416
 8333SOL    HW333099   1.587   5.725   1.575  2.0721  0.3842 -0.2563
 8333SOL    MW433100   1.585   5.638   1.566  0.4379  0.2424  1.0226
 8334SOL     OW33101   2.649   4.495   0.376  0.2504  0.1342  0.6099
 8334SOL    HW233102   2.696   4.565   0.331  0.2127  1.4100  2.4366
 8334SOL    HW333103   2.565   4.533   0.399 -0.9510 -1.4841 -0.8493
 8334SOL    MW433104   2.644   4.509   0.373  0.0869  0.0890  0.6584
 8335SOL     OW33105   0.868   2.799   1.637 -0.3495  0.4101 -0.7274
 8335SOL    HW233106   0.834   2.713   1.661  2.5448 -0.1930  1.9903
 8335SOL    HW333107   0.938   2.781   1.575  1.4756  0.4746  1.1916
 8335SOL    MW433108   0.873   2.786   1.632  0.2731  0.3390 -0.1156
 8336SOL     OW33109   5.164   5.484   6.310 -0.0408 -0.2704  0.1690
 8336SOL    HW233110   5.123   5.449   6.390  0.7731 -1.3769  0.1087
 8336SOL    HW333111   5.090   5.498   6.251 -0.8901  2.1084  1.6271
 8336SOL    MW433112   5.149   5.481   6.313 -0.0455 -0.1025  0.3534
 8337SOL     OW33113   4.308   0.964   4.469  0.1140 -0.3167 -0.0763
 8337SOL    HW233114   4.272   0.915   4.543  1.6430  0.0886  0.9939
 8337SOL    HW333115   4.382   0.910   4.439  0.2036  0.0715 -0.5735
 8337SOL    MW433116   4.313   0.950   4.474  0.3275 -0.2120 -0.0007
 8338SOL     OW33117   1.633   1.313   2.068 -0.0810 -0.2871 -0.4584
 8338SOL    HW233118   1.629   1.331   2.162 -0.3809  1.1568 -0.7209
 8338SOL    HW333119   1.547   1.338   2.035 -0.1365 -1.2207 -1.0562
 8338SOL    MW433120   1.621   1.318   2.076 -0.1279 -0.2198 -0.5719
 8339SOL     OW33121   1.240   3.689   6.331  0.4062 -0.3531  0.1482
 8339SOL    HW233122   1.275   3.704   6.243 -1.4370  0.9360 -0.4344
 8339SOL    HW333123   1.254   3.596   6.347 -1.1571 -1.1639 -2.4777
 8339SOL    MW433124   1.246   3.679   6.322 -0.0432 -0.2900 -0.2751
 8340SOL     OW33125   3.676   3.311   3.546 -0.2771 -0.3962 -0.3148
 8340SOL    HW233126   3.757   3.357   3.568 -0.9830  0.8330 -0.2186
 8340SOL    HW333127   3.672   3.316   3.450  0.7710 -2.2578 -0.5014
 8340SOL    MW433128   3.687   3.318   3.536 -0.2319 -0.4796 -0.3267
 8341SOL     OW33129   3.533   5.832   0.648 -0.4472 -0.0181 -0.0205
 8341SOL    HW233130   3.445   5.869   0.642  0.3567  2.1950  0.9213
 8341SOL    HW333131   3.544   5.809   0.740 -0.4084 -1.3168 -0.3343
 8341SOL    MW433132   3.523   5.834   0.659 -0.3360  0.1025  0.0624
 8342SOL     OW33133   0.805   2.552   6.314  0.1980 -0.5780 -0.3361
 8342SOL    HW233134   0.826   2.491   6.384 -0.5359  0.1326  0.5419
 8342SOL    HW333135   0.735   2.606   6.351  0.0609  0.0543 -1.4912
 8342SOL    MW433136   0.798   2.551   6.328  0.0831 -0.4008 -0.3727
 8343SOL     OW33137   6.252   2.768   5.519 -0.4045  0.4506 -0.0578
 8343SOL    HW233138   6.310   2.754   5.445 -0.3755  0.3341 -0.0129
 8343SOL    HW333139   6.248   2.683   5.564 -1.8195  0.0223 -0.9238
 8343SOL    MW433140   6.259   2.755   5.515 -0.5874  0.3787 -0.1661
 8344SOL     OW33141   0.624   0.315   0.054  0.1711 -0.4138  0.1339
 8344SOL    HW233142   0.623   0.397   0.004  1.5269 -2.8322 -4.3869
 8344SOL    HW333143   0.537   0.278   0.041 -0.2997 -0.0243  1.8356
 8344SOL    MW433144   0.613   0.321   0.046  0.2879 -0.6815 -0.2381
 8345SOL     OW33145   1.369   1.332   3.720 -0.6782  0.1693  0.0648
 8345SOL    HW233146   1.419   1.251   3.720 -1.5895 -0.4362 -1.5848
 8345SOL    HW333147   1.280   1.306   3.741 -0.8634  0.8238  0.1179
 8345SOL    MW433148   1.364   1.318   3.723 -0.8229  0.1757 -0.1459
 8346SOL     OW33149   4.556   3.193   5.652 -0.1581  0.1329 -0.1399
 8346SOL    HW233150   4.631   3.247   5.675 -0.6746  0.5285  0.6679
 8346SOL    HW333151   4.572   3.110   5.696 -0.6411  0.5374  0.8169
 8346SOL    MW433152   4.568   3.189   5.661 -0.2900  0.2384  0.0929
 8347SOL     OW33153   1.045   4.875   5.400  0.2780 -0.1330  0.0312
 8347SOL    HW233154   1.099   4.944   5.363  0.7856 -0.5681 -0.0524
 8347SOL    HW333155   0.959   4.915   5.411  0.6288  0.5778  0.2124
 8347SOL    MW433156   1.041   4.889   5.396  0.3912 -0.0966  0.0441
 8348SOL     OW33157   2.008   5.949   2.698  0.3027  0.2370  0.3662
 8348SOL    HW233158   1.955   5.880   2.658  0.3332 -0.0019  0.7247
 8348SOL    HW333159   2.096   5.911   2.704  0.0834 -0.1306  1.5775
 8348SOL    MW433160   2.013   5.935   2.694  0.2778  0.1570  0.5733
 8349SOL     OW33161   3.067   1.891   1.180 -0.8452 -0.1815  0.6844
 8349SOL    HW233162   3.071   1.933   1.265  0.5106  0.6425  0.2425
 8349SOL    HW333163   3.071   1.963   1.117  1.3945 -0.9064 -0.0859
 8349SOL    MW433164   3.068   1.906   1.183 -0.3708 -0.1684  0.5245
 8350SOL     OW33165   1.032   5.241   1.074  0.8060 -0.5326 -0.3119
 8350SOL    HW233166   1.064   5.311   1.131  1.6179 -0.0396 -1.3466
 8350SOL    HW333167   1.005   5.286   0.994 -3.0012 -0.8136  0.5963
 8350SOL    MW433168   1.033   5.257   1.071  0.4108 -0.5046 -0.3286
 8351SOL     OW33169   4.429   0.434   0.981 -0.0474 -0.2373 -0.1940
 8351SOL    HW233170   4.470   0.355   1.015 -2.1568 -1.8166 -1.0494
 8351SOL    HW333171   4.351   0.402   0.935 -0.5166  2.2841 -1.3205
 8351SOL    MW433172   4.424   0.419   0.979 -0.3876 -0.1130 -0.4555
 8352SOL     OW33173   4.324   4.308   4.609  0.1287 -0.2086  0.0086
 8352SOL    HW233174   4.274   4.289   4.530 -1.7764 -1.5628  1.4423
 8352SOL    HW333175   4.338   4.222   4.649  0.4128  0.4983  1.4878
 8352SOL    MW433176   4.319   4.294   4.604 -0.0852 -0.2940  0.3929
 8353SOL     OW33177   1.196   4.002   2.309 -0.1918 -0.0781  0.1996
 8353SOL    HW233178   1.273   3.949   2.289 -1.4009 -1.6371 -0.5450
 8353SOL    HW333179   1.141   3.995   2.231 -0.0298  3.0758 -0.3429
 8353SOL    MW433180   1.199   3.994   2.296 -0.3300  0.1323  0.0298
 8354SOL     OW33181   3.531   4.096   4.346 -0.1600  0.7224  0.0649
 8354SOL    HW233182   3.593   4.024   4.335  0.2056  0.8719  1.1050
 8354SOL    HW333183   3.529   4.139   4.260 -0.0214 -0.2254 -0.4245
 8354SOL    MW433184   3.539   4.092   4.333 -0.0935  0.6171  0.1376
 8355SOL     OW33185   5.942   6.218   5.568  0.0943  0.1252  0.0966
 8355SOL    HW233186   5.904   6.201   5.482 -0.6279 -2.0336  0.7763
 8355SOL    HW333187   5.867   6.230   5.626  0.5679  2.7159  0.3043
 8355SOL    MW433188   5.927   6.217   5.564  0.0615  0.1822  0.2137
 8356SOL     OW33189   1.850   6.213   3.985 -0.2846  0.3673  0.0604
 8356SOL    HW233190   1.864   6.126   4.024 -0.2065  0.6031  0.5654
 8356SOL    HW333191   1.771   6.246   4.027  0.9627  1.4976  1.6010
 8356SOL    MW433192   1.842   6.206   3.996 -0.1097  0.5475  0.3303
 8357SOL     OW33193   3.443   4.827   5.433  0.4061  0.6985 -0.3568
 8357SOL    HW233194   3.389   4.825   5.354 -3.1053 -0.8771  1.8518
 8357SOL    HW333195   3.496   4.747   5.428 -0.7936 -0.1124 -0.5648
 8357SOL    MW433196   3.443   4.816   5.422 -0.2155  0.3836 -0.0928
 8358SOL     OW33197   3.245   3.326   3.035  0.2321  0.3547  0.6509
 8358SOL    HW233198   3.230   3.316   3.129 -3.8478  0.3250  0.1871
 8358SOL    HW333199   3.191   3.257   2.996  2.0290  0.2121 -1.7505
 8358SOL    MW433200   3.236   3.316   3.042 -0.0691  0.3320  0.2729
 8359SOL     OW33201   2.026   4.369   5.559 -0.1704 -0.4324  0.3611
 8359SOL    HW233202   2.010   4.378   5.653 -0.0129  0.1064  0.3401
 8359SOL    HW333203   2.098   4.429   5.542  0.5543 -1.3470  0.0972
 8359SOL    MW433204   2.033   4.378   5.569 -0.0540 -0.4820  0.3235
 8360SOL     OW33205   6.191   3.959   4.360  0.0938 -0.7319  0.1159
 8360SOL    HW233206   6.148   3.901   4.423 -1.0303 -0.1408 -0.0968
 8360SOL    HW333207   6.238   3.899   4.301  1.7283 -1.2842  1.8547
 8360SOL    MW433208   6.192   3.943   4.361  0.1611 -0.7268  0.3173
 8361SOL     OW33209   4.575   6.334   0.160 -0.3144  0.0804  0.2024
 8361SOL    HW233210   4.597   6.244   0.184  0.3843  0.7152  2.0712
 8361SOL    HW333211   4.610   6.343   0.071  1.7852 -0.7695  0.8735
 8361SOL    MW433212   4.582   6.323   0.151  0.0548  0.0520  0.5375
 8362SOL     OW33213   2.106   1.229   4.212 -0.5149  0.1043  0.1323
 8362SOL    HW233214   2.044   1.220   4.139 -1.1023 -0.2201  0.6540
 8362SOL    HW333215   2.186   1.188   4.181  0.3478  2.7938 -1.5517
 8362SOL    MW433216   2.108   1.223   4.198 -0.4786  0.4163 -0.0211
 8363SOL     OW33217   0.336   5.698   2.694  0.1229  0.1293 -0.8421
 8363SOL    HW233218   0.343   5.719   2.601 -0.4844  0.3927 -0.8333
 8363SOL    HW333219   0.389   5.764   2.738 -0.6848  0.8386 -0.9096
 8363SOL    MW433220   0.344   5.709   2.687 -0.0638  0.2577 -0.8499
 8364SOL     OW33221   1.589   2.921   5.958  0.3992 -0.2291  0.4618
 8364SOL    HW233222   1.569   2.902   6.049 -0.2461 -0.0066  0.3729
 8364SOL    HW333223   1.534   2.996   5.936  2.0282  0.9973  0.4626
 8364SOL    MW433224   1.579   2.928   5.967  0.5290 -0.0379  0.4502
 8365SOL     OW33225   0.718   5.352   5.995 -0.6046  0.3868  0.6469
 8365SOL    HW233226   0.691   5.351   6.087 -0.9481  0.2756  0.5449
 8365SOL    HW333227   0.804   5.309   5.995 -1.3064 -1.0658  0.6901
 8365SOL    MW433228   0.726   5.346   6.007 -0.7425  0.1805  0.6391
 8366SOL     OW33229   4.845   1.880   2.230 -0.1056  0.0816 -0.4037
 8366SOL    HW233230   4.820   1.857   2.319 -0.3152  0.6308 -0.3151
 8366SOL    HW333231   4.936   1.853   2.223 -0.1231 -0.0732 -0.0609
 8366SOL    MW433232   4.853   1.874   2.241 -0.1356  0.1336 -0.3468
 8367SOL     OW33233   5.892   1.154   1.196 -0.2133  0.1761  0.4169
 8367SOL    HW233234   5.871   1.109   1.113 -0.6397 -0.9263  1.0994
 8367SOL    HW333235   5.885   1.247   1.175  1.5159 -0.0197 -1.2697
 8367SOL    MW433236   5.888   1.160   1.182 -0.0414  0.0048  0.2844
 8368SOL     OW33237   0.754   5.867   1.544  0.2562 -0.3610  0.1211
 8368SOL    HW233238   0.659   5.874   1.549  0.2107 -0.5812 -0.4178
 8368SOL    HW333239   0.786   5.946   1.587 -0.1578 -0.6301  0.9431
 8368SOL    MW433240   0.746   5.878   1.551  0.1956 -0.4256  0.1585
 8369SOL     OW33241   1.641   5.259   1.504  0.3573 -0.5856 -0.5809
 8369SOL    HW233242   1.666   5.258   1.411 -1.3766 -1.6476 -1.0795
 8369SOL    HW333243   1.708   5.206   1.547  0.8842 -0.5272 -1.3108
 8369SOL    MW433244   1.653   5.252   1.497  0.1980 -0.7180 -0.7430
 8370SOL     OW33245   4.285   0.357   5.405  0.0511 -0.5648 -0.2431
 8370SOL    HW233246   4.367   0.309   5.420  0.1946 -0.3588 -0.3701
 8370SOL    HW333247   4.268   0.400   5.489  0.1306 -0.5186 -0.2505
 8370SOL    MW433248   4.294   0.356   5.418  0.0805 -0.5315 -0.2608
 8371SOL     OW33249   2.021   6.194   1.812 -0.0596 -0.4280 -0.3634
 8371SOL    HW233250   1.993   6.144   1.888  0.5187 -0.4367 -0.1545
 8371SOL    HW333251   1.954   6.262   1.803 -1.3762 -1.7582 -1.2052
 8371SOL    MW433252   2.008   6.197   1.821 -0.1570 -0.6047 -0.4469
 8372SOL     OW33253   4.915   2.765   2.859  0.1290 -0.1893  0.4117
 8372SOL    HW233254   4.962   2.692   2.818  0.0688  0.1299 -0.2357
 8372SOL    HW333255   4.847   2.789   2.795 -0.1785  0.1039  0.8397
 8372SOL    MW433256   4.912   2.758   2.845  0.0805 -0.1085  0.3828
 8373SOL     OW33257   6.043   3.777   1.767  0.1314 -0.2792 -0.1638
 8373SOL    HW233258   5.973   3.720   1.798 -0.3766 -0.1033 -0.9613
 8373SOL    HW333259   6.004   3.864   1.763  1.0611  0.2742  1.6118
 8373SOL    MW433260   6.029   3.781   1.770  0.1871 -0.1830 -0.0347
 8374SOL     OW33261   6.094   5.074   5.499  0.3242 -0.1371 -0.4962
 8374SOL    HW233262   6.064   4.989   5.469 -0.2669 -0.1322  0.0594
 8374SOL    HW333263   6.182   5.058   5.535 -0.4465 -0.8507  1.1483
 8374SOL    MW433264   6.102   5.061   5.500  0.1445 -0.2306 -0.2059
 8375SOL     OW33265   0.490   2.886   1.869 -0.3972  0.0537 -0.5740
 8375SOL    HW233266   0.418   2.942   1.901 -1.8244 -1.3403 -1.1965
 8375SOL    HW333267   0.470   2.799   1.905  1.2676 -0.2672 -0.3785
 8375SOL    MW433268   0.478   2.882   1.878 -0.3658 -0.1726 -0.6303
 8376SOL     OW33269   0.187   4.777   3.311 -0.0049  0.2092  0.5613
 8376SOL    HW233270   0.115   4.818   3.358 -1.2717 -0.2169 -0.9251
 8376SOL    HW333271   0.145   4.713   3.254  1.3189  1.4895 -2.0236
 8376SOL    MW433272   0.172   4.774   3.310  0.0026  0.3219  0.0242
 8377SOL     OW33273   2.530   4.732   2.212  0.4940 -0.0262  0.3310
 8377SOL    HW233274   2.578   4.795   2.267  1.1191 -2.6794  3.1324
 8377SOL    HW333275   2.595   4.665   2.191 -0.8913 -1.4257  0.3294
 8377SOL    MW433276   2.545   4.732   2.216  0.3937 -0.5609  0.7004
 8378SOL     OW33277   5.159   1.513   3.642 -0.2572  0.2003 -0.7923
 8378SOL    HW233278   5.101   1.522   3.717  2.6881  0.2459  1.6883
 8378SOL    HW333279   5.108   1.546   3.567 -2.9548  1.2159  1.3343
 8378SOL    MW433280   5.145   1.519   3.642 -0.2245  0.3403 -0.1845
 8379SOL     OW33281   6.338   0.536   2.914 -0.0057 -0.9898 -0.2531
 8379SOL    HW233282   6.370   0.456   2.873  1.3702 -0.5385 -0.1174
 8379SOL    HW333283   6.383   0.540   2.999 -0.5670 -0.4127  0.0310
 8379SOL    MW433284   6.348   0.526   2.920  0.1018 -0.8541 -0.1977
 8380SOL     OW33285   2.626   5.518   0.069 -0.6280  0.3495  0.1275
 8380SOL    HW233286   2.628   5.456  -0.004  1.3454  1.0971 -0.5410
 8380SOL    HW333287   2.570   5.589   0.038 -0.3422  0.3502 -0.3974
 8380SOL    MW433288   2.619   5.519   0.055 -0.3299  0.4483 -0.0300
 8381SOL     OW33289   2.312   5.695   3.474 -0.2837  0.1836  0.3948
 8381SOL    HW233290   2.377   5.660   3.536  0.5155  1.3257  0.2427
 8381SOL    HW333291   2.312   5.633   3.402  1.0744  0.4146  0.1529
 8381SOL    MW433292   2.321   5.683   3.473  0.0009  0.3647  0.3428
 8382SOL     OW33293   5.629   3.614   0.924 -0.7278  0.2362  0.2820
 8382SOL    HW233294   5.611   3.644   1.013  0.2652  1.3605  0.1167
 8382SOL    HW333295   5.566   3.543   0.910 -0.7078 -0.1662  1.9823
 8382SOL    MW433296   5.619   3.608   0.934 -0.5941  0.3315  0.4845
 8383SOL     OW33297   1.819   6.208   5.662  0.6663  0.2311 -0.3749
 8383SOL    HW233298   1.834   6.115   5.648  0.0040  0.0955 -0.2205
 8383SOL    HW333299   1.753   6.232   5.596  1.1012  0.6747 -0.6606
 8383SOL    MW433300   1.812   6.199   5.651  0.6363  0.2718 -0.3923
 8384SOL     OW33301   3.935   1.196   1.841 -0.2820 -0.4683  0.0910
 8384SOL    HW233302   4.023   1.192   1.879 -1.2497 -1.4700  2.4623
 8384SOL    HW333303   3.922   1.110   1.801 -0.3681 -0.5069  0.2016
 8384SOL    MW433304   3.945   1.184   1.841 -0.4210 -0.6055  0.4184
 8385SOL     OW33305   4.867   2.074   1.519 -0.6188  0.2134 -1.0006
 8385SOL    HW233306   4.903   1.985   1.511 -1.1946  0.0127 -1.3773
 8385SOL    HW333307   4.833   2.078   1.609 -1.4106 -0.2587 -1.2702
 8385SOL    MW433308   4.868   2.063   1.530 -0.7993  0.1246 -1.0859
 8386SOL     OW33309   3.358   3.013   2.263  0.2381 -0.2015  0.1571
 8386SOL    HW233310   3.429   2.951   2.247  1.1280  0.7126  0.4925
 8386SOL    HW333311   3.367   3.078   2.194 -1.3594 -0.9771 -0.8542
 8386SOL    MW433312   3.369   3.013   2.252  0.1447 -0.1832  0.0679
 8387SOL     OW33313   4.042   5.267   2.375  0.5024 -0.0734 -0.0119
 8387SOL    HW233314   4.092   5.336   2.332 -0.8823  0.1819 -1.2877
 8387SOL    HW333315   4.075   5.186   2.338  1.4515 -0.0537  0.7629
 8387SOL    MW433316   4.053   5.266   2.364  0.4450 -0.0371 -0.0780
 8388SOL     OW33317   3.484   5.230   5.516 -0.5075  0.3032  0.3674
 8388SOL    HW233318   3.414   5.267   5.462  1.0945  1.0792 -1.2911
 8388SOL    HW333319   3.510   5.302   5.573 -0.0967  0.4922 -0.0492
 8388SOL    MW433320   3.478   5.244   5.516 -0.2419  0.4305  0.0936
 8389SOL     OW33321   2.863   4.914   2.079  0.5630 -0.3753 -0.6613
 8389SOL    HW233322   2.915   4.876   2.150 -2.7103 -1.5005  1.3768
 8389SOL    HW333323   2.847   4.841   2.019  1.0756 -0.1023 -1.1375
 8389SOL    MW433324   2.868   4.899   2.080  0.1987 -0.4878 -0.4553
 8390SOL     OW33325   1.614   2.605   5.414  0.6165 -0.1818  0.1762
 8390SOL    HW233326   1.524   2.578   5.398  0.4701  0.3811  0.0146
 8390SOL    HW333327   1.653   2.531   5.460  0.0612 -0.4175  0.2846
 8390SOL    MW433328   1.607   2.592   5.418  0.5239 -0.1386  0.1692
 8391SOL     OW33329   5.638   5.487   2.879  0.8344 -0.2527 -0.2101
 8391SOL    HW233330   5.730   5.509   2.892  0.7271  0.9756 -1.3564
 8391SOL    HW333331   5.623   5.499   2.785 -0.3498 -0.9979 -0.1297
 8391SOL    MW433332   5.648   5.492   2.869  0.6640 -0.1889 -0.3508
 8392SOL     OW33333   5.358   0.866   1.547  0.2622  0.0212 -0.0974
 8392SOL    HW233334   5.416   0.791   1.531 -1.1191 -1.1854  0.2768
 8392SOL    HW333335   5.377   0.892   1.637  1.2076  0.5491 -0.4440
 8392SOL    MW433336   5.368   0.859   1.556  0.2047 -0.0684 -0.0937
 8393SOL     OW33337   6.367   1.938   0.538 -0.0796 -0.3660  0.0889
 8393SOL    HW233338   6.368   1.848   0.507 -0.0294 -0.6672  0.9284
 8393SOL    HW333339   6.347   1.991   0.461 -1.4177 -1.2002 -0.1659
 8393SOL    MW433340   6.365   1.933   0.524 -0.2495 -0.5158  0.1660
 8394SOL     OW33341   4.341   3.527   1.569 -0.1442  0.2973 -0.4618
 8394SOL    HW233342   4.276   3.569   1.625 -0.5998  1.1682 -1.5977
 8394SOL    HW333343   4.372   3.452   1.620 -0.3096  1.2165  1.0606
 8394SOL    MW433344   4.336   3.523   1.583 -0.2261  0.5335 -0.4108
 8395SOL     OW33345   3.541   5.509   0.761  0.3097 -0.6350 -0.1738
 8395SOL    HW233346   3.579   5.429   0.797 -1.9523 -1.5043  0.4456
 8395SOL    HW333347   3.473   5.478   0.701 -1.2343  0.7803  0.7707
 8395SOL    MW433348   3.537   5.494   0.758 -0.1925 -0.5630  0.0325
 8396SOL     OW33349   3.528   5.410   6.047 -0.2162 -0.6566 -0.2584
 8396SOL    HW233350   3.481   5.491   6.027  0.7980  0.3146  1.1138
 8396SOL    HW333351   3.621   5.435   6.044  0.1123 -0.7833  3.6010
 8396SOL    MW433352   3.534   5.424   6.044 -0.0390 -0.5451  0.4318
 8397SOL     OW33353   0.604   3.989   2.844  0.3401 -0.3693  0.3883
 8397SOL    HW233354   0.602   4.083   2.860 -1.0061 -0.1487 -0.9040
 8397SOL    HW333355   0.657   3.979   2.765  0.3167 -0.6910  0.4106
 8397SOL    MW433356   0.611   4.000   2.836  0.1594 -0.3827  0.2207
 8398SOL     OW33357   1.235   4.524   4.460  0.6990  0.0807 -0.0504
 8398SOL    HW233358   1.151   4.524   4.414  1.5739  2.1538 -1.8046
 8398SOL    HW333359   1.285   4.454   4.418  0.9713  1.0052 -1.3431
 8398SOL    MW433360   1.231   4.514   4.448  0.8504  0.4762 -0.4524
 8399SOL     OW33361   5.925   5.578   1.589 -0.0157 -0.1291 -0.0717
 8399SOL    HW233362   5.985   5.514   1.551  0.7145  0.4950 -0.0030
 8399SOL    HW333363   5.851   5.579   1.529  0.4579 -0.2399 -0.6740
 8399SOL    MW433364   5.923   5.570   1.576  0.1432 -0.0614 -0.1421
 8400SOL     OW33365   2.964   4.232   6.390  0.2307 -0.5227  0.4629
 8400SOL    HW233366   2.945   4.301   6.326 -0.6912 -1.4141 -0.2533
 8400SOL    HW333367   2.988   4.279   6.470 -1.2746  0.6421  0.2697
 8400SOL    MW433368   2.965   4.247   6.392 -0.0895 -0.4866  0.3429
 8401SOL     OW33369   1.897   5.972   1.626 -0.7534 -0.0927  0.5702
 8401SOL    HW233370   1.944   6.045   1.666 -0.8214  0.5270 -0.4501
 8401SOL    HW333371   1.953   5.942   1.555 -0.1942 -1.8071  1.6679
 8401SOL    MW433372   1.910   5.978   1.622 -0.6886 -0.2371  0.5804
 8402SOL     OW33373   4.144   1.875   6.132 -0.1715  0.7437  0.0821
 8402SOL    HW233374   4.200   1.808   6.093  0.6654  0.5658  1.5034
 8402SOL    HW333375   4.174   1.957   6.092  1.1665  0.6511  0.8141
 8402SOL    MW433376   4.156   1.877   6.122  0.1155  0.7080  0.3662
 8403SOL     OW33377   1.924   3.760   3.790 -0.4507  0.0040  0.3385
 8403SOL    HW233378   1.891   3.761   3.880  2.0193 -0.4801  1.3274
 8403SOL    HW333379   1.897   3.675   3.755  0.6551 -0.8417  1.4880
 8403SOL    MW433380   1.916   3.749   3.797  0.0211 -0.1715  0.6206
 8404SOL     OW33381   0.543   0.562   2.177 -0.5119 -0.2046 -0.1616
 8404SOL    HW233382   0.574   0.650   2.199 -1.8166  0.3001 -0.2855
 8404SOL    HW333383   0.597   0.536   2.103 -1.2201  1.1848 -1.2119
 8404SOL    MW433384   0.555   0.571   2.170 -0.7775  0.0453 -0.3165
 8405SOL     OW33385   1.153   1.492   2.425 -0.4420  0.9111 -0.5511
 8405SOL    HW233386   1.186   1.478   2.336  0.4689 -0.3038 -0.0528
 8405SOL    HW333387   1.162   1.586   2.440  0.3676  0.9714 -1.3710
 8405SOL    MW433388   1.158   1.503   2.415 -0.2150  0.7588 -0.5935
 8406SOL     OW33389   2.069   6.055   4.775 -0.6818  0.1693 -0.3585
 8406SOL    HW233390   2.147   6.002   4.760 -0.0238  0.8085  0.6494
 8406SOL    HW333391   2.081   6.131   4.718 -0.0278  0.7677  0.5306
 8406SOL    MW433392   2.081   6.058   4.766 -0.5087  0.3326 -0.1083
 8407SOL     OW33393   4.204   2.103   2.044  0.4410 -0.2206  0.7201
 8407SOL    HW233394   4.175   2.188   2.076  2.0267 -0.5528  3.3221
 8407SOL    HW333395   4.299   2.106   2.051  0.5411 -2.1642  0.7816
 8407SOL    MW433396   4.213   2.115   2.049  0.6634 -0.5208  1.0715
 8408SOL     OW33397   5.662   3.046   2.836 -0.1180 -0.0034 -0.6784
 8408SOL    HW233398   5.599   3.029   2.906 -1.6091 -0.1671 -2.0253
 8408SOL    HW333399   5.668   3.141   2.833  0.4197 -0.0012  0.0498
 8408SOL    MW433400   5.655   3.056   2.845 -0.2438 -0.0247 -0.7600
 8409SOL     OW33401   1.013   4.593   3.244  0.3652  0.4850 -0.0576
 8409SOL    HW233402   0.996   4.609   3.337 -0.4539  1.4982 -0.3605
 8409SOL    HW333403   1.099   4.634   3.228  0.8102 -0.2552  0.3777
 8409SOL    MW433404   1.022   4.601   3.254  0.3158  0.5210 -0.0401
 8410SOL     OW33405   2.574   0.167   0.049 -0.2906 -0.3949 -0.4749
 8410SOL    HW233406   2.512   0.238   0.059 -0.1999 -0.4147  0.3301
 8410SOL    HW333407   2.639   0.182   0.118 -0.2957 -1.2769 -0.2621
 8410SOL    MW433408   2.575   0.178   0.059 -0.2793 -0.5139 -0.3406
 8411SOL     OW33409   5.374   1.028   5.406  0.3024 -0.2938  0.2973
 8411SOL    HW233410   5.423   0.947   5.418 -0.3978 -0.8541 -0.4647
 8411SOL    HW333411   5.290   1.000   5.369 -1.2991  0.4565  3.1080
 8411SOL    MW433412   5.369   1.014   5.402 -0.0013 -0.2688  0.5676
 8412SOL     OW33413   3.949   4.616   2.802  0.3147  0.1010  0.1914
 8412SOL    HW233414   3.875   4.660   2.762  0.7818  1.4664  0.7761
 8412SOL    HW333415   3.915   4.531   2.829  0.2839 -1.5715 -4.2669
 8412SOL    MW433416   3.935   4.610   2.800  0.3722  0.0605 -0.3196
 8413SOL     OW33417   0.596   0.482   4.798  0.3853  0.3870  0.0045
 8413SOL    HW233418   0.620   0.417   4.732 -0.8000 -0.5896  0.4968
 8413SOL    HW333419   0.556   0.553   4.748 -1.2877 -0.7218 -0.3125
 8413SOL    MW433420   0.594   0.483   4.783  0.0082  0.1119  0.0276
 8414SOL     OW33421   6.202   6.363   1.837 -0.2834  0.3769 -0.9194
 8414SOL    HW233422   6.123   6.377   1.786  0.1166 -0.3524 -1.7559
 8414SOL    HW333423   6.264   6.322   1.776  0.1148 -0.7679  0.2062
 8414SOL    MW433424   6.200   6.359   1.822 -0.1781  0.1296 -0.8813
 8415SOL     OW33425   5.102   1.169   4.242 -0.3541 -0.7656 -0.3658
 8415SOL    HW233426   5.105   1.144   4.334  0.1823  2.0208  0.4442
 8415SOL    HW333427   5.159   1.106   4.198  0.7554 -1.1124  1.4718
 8415SOL    MW433428   5.110   1.157   4.248 -0.1369 -0.4437 -0.0165
 8416SOL     OW33429   2.221   3.393   5.667  0.1026  0.7612  0.1706
 8416SOL    HW233430   2.176   3.414   5.749 -0.4146 -0.4740  0.2291
 8416SOL    HW333431   2.204   3.300   5.654  3.2233  0.0210  0.5543
 8416SOL    MW433432   2.213   3.383   5.676  0.4461  0.5005  0.2290
 8417SOL     OW33433   4.020   0.562   0.881  0.1778 -0.3199 -0.3074
 8417SOL    HW233434   4.067   0.581   0.963 -0.0615 -1.0438  0.0067
 8417SOL    HW333435   3.935   0.604   0.892  0.2929 -0.0792 -0.3461
 8417SOL    MW433436   4.015   0.570   0.893  0.1614 -0.3836 -0.2711
 8418SOL     OW33437   4.304   6.332   2.222  0.0725  0.0994 -0.2137
 8418SOL    HW233438   4.341   6.253   2.181  0.6042  0.4798 -0.4851
 8418SOL    HW333439   4.364   6.353   2.293 -1.3599 -1.1091  1.4430
 8418SOL    MW433440   4.317   6.324   2.226 -0.0464 -0.0099 -0.0310
 8419SOL     OW33441   1.555   0.242   3.836  0.1449 -0.5420 -0.2418
 8419SOL    HW233442   1.618   0.311   3.815  0.4772 -0.7699  0.0018
 8419SOL    HW333443   1.595   0.194   3.908 -1.1558  0.4806  1.2567
 8419SOL    MW433444   1.569   0.245   3.843  0.0171 -0.4372 -0.0120
 8420SOL     OW33445   0.891   2.278   2.535 -0.2597  0.3607  0.0656
 8420SOL    HW233446   0.885   2.196   2.586 -0.8861  1.7963  2.4799
 8420SOL    HW333447   0.929   2.341   2.596 -1.7443  2.3915 -0.9887
 8420SOL    MW433448   0.895   2.275   2.550 -0.5382  0.8181  0.2451
 8421SOL     OW33449   3.228   6.257   0.984  0.0725 -0.0447  0.0805
 8421SOL    HW233450   3.255   6.310   1.059 -1.6693  0.4694  0.4060
 8421SOL    HW333451   3.149   6.212   1.015 -1.1282  0.7610 -1.6368
 8421SOL    MW433452   3.221   6.258   0.998 -0.3157  0.1295 -0.1031
 8422SOL     OW33453   1.201   2.530   5.795 -0.0043 -0.0839 -0.8286
 8422SOL    HW233454   1.296   2.532   5.785 -0.0116  0.7558 -0.8014
 8422SOL    HW333455   1.184   2.575   5.878 -0.3888 -0.7980 -0.5116
 8422SOL    MW433456   1.211   2.536   5.805 -0.0560 -0.0673 -0.7832
 8423SOL     OW33457   1.739   3.565   2.605 -0.6151  0.3201  0.3283
 8423SOL    HW233458   1.812   3.626   2.617 -1.2988  1.0234  1.0377
 8423SOL    HW333459   1.681   3.583   2.678 -0.6728 -1.4609  0.7656
 8423SOL    MW433460   1.741   3.576   2.616 -0.7129  0.1779  0.4796
 8424SOL     OW33461   4.778   4.019   0.488 -0.2780  0.8740  0.3892
 8424SOL    HW233462   4.801   4.050   0.400  0.4046 -1.5508 -0.3842
 8424SOL    HW333463   4.862   4.009   0.533 -0.1823 -1.9530 -0.2342
 8424SOL    MW433464   4.792   4.022   0.482 -0.1753  0.1811  0.2049
 8425SOL     OW33465   1.545   5.315   3.018 -0.0229 -0.4389  0.4264
 8425SOL    HW233466   1.457   5.284   2.999  0.5662 -2.0156  0.0923
 8425SOL    HW333467   1.534   5.376   3.091 -1.3591 -0.7216  0.4846
 8425SOL    MW433468   1.532   5.319   3.025 -0.1214 -0.6843  0.3900
 8426SOL     OW33469   0.423   6.022   2.330 -0.0659 -0.2735 -0.9380
 8426SOL    HW233470   0.368   6.069   2.392 -1.1111 -1.2352 -1.0895
 8426SOL    HW333471   0.408   5.929   2.350  0.8510 -0.5774 -1.5549
 8426SOL    MW433472   0.414   6.016   2.341 -0.0828 -0.4404 -1.0393
 8427SOL     OW33473   0.921   5.258   2.497  0.2669  0.0695 -0.2443
 8427SOL    HW233474   0.982   5.185   2.510  1.0186  0.5706 -0.8727
 8427SOL    HW333475   0.847   5.218   2.452 -0.2862 -0.7193  1.2977
 8427SOL    MW433476   0.920   5.243   2.492  0.2931  0.0315 -0.1238
 8428SOL     OW33477   1.086   0.453   1.352 -0.3285  0.0041 -0.7754
 8428SOL    HW233478   1.036   0.385   1.396 -0.4175 -0.3847 -1.4487
 8428SOL    HW333479   1.139   0.493   1.421 -1.9402  0.7959  0.0571
 8428SOL    MW433480   1.087   0.449   1.367 -0.5529  0.0573 -0.7544
 8429SOL     OW33481   2.427   2.809   2.716  0.1661  0.0624 -0.0766
 8429SOL    HW233482   2.366   2.835   2.786 -0.8366  1.4804 -1.3882
 8429SOL    HW333483   2.502   2.771   2.762 -0.7985  0.1994  1.7122
 8429SOL    MW433484   2.429   2.808   2.731 -0.0935  0.2676 -0.0137
 8430SOL     OW33485   2.505   1.683   3.748 -0.3869 -0.3150 -0.0138
 8430SOL    HW233486   2.454   1.715   3.674  0.0017 -1.0238 -0.5926
 8430SOL    HW333487   2.482   1.590   3.755  1.0451 -0.7312 -0.4872
 8430SOL    MW433488   2.495   1.675   3.740 -0.1467 -0.4635 -0.1526
 8431SOL     OW33489   4.734   4.554   4.975  0.2418  0.2410  0.8624
 8431SOL    HW233490   4.724   4.460   4.992  2.9674  0.0535  1.9390
 8431SOL    HW333491   4.733   4.595   5.062 -0.6952  1.1894  0.4214
 8431SOL    MW433492   4.733   4.547   4.989  0.4778  0.3414  0.9462
 8432SOL     OW33493   4.522   3.183   2.343 -0.3740  0.4754 -0.0717
 8432SOL    HW233494   4.612   3.213   2.353  0.1437 -0.6521 -1.1350
 8432SOL    HW333495   4.496   3.212   2.256  0.4484 -2.7322 -1.5328
 8432SOL    MW433496   4.530   3.191   2.333 -0.1972 -0.0966 -0.4048
 8433SOL     OW33497   5.870   1.086   5.984  0.1270 -0.2850  0.4480
 8433SOL    HW233498   5.906   1.167   6.018 -1.1045 -0.3182  1.9808
 8433SOL    HW333499   5.946   1.032   5.962  0.9609  0.5960  1.1334
 8433SOL    MW433500   5.885   1.089   5.986  0.0745 -0.1732  0.7406
 8434SOL     OW33501   0.343   2.829   2.377  0.3004  0.3578 -0.5528
 8434SOL    HW233502   0.423   2.797   2.335 -0.4078  0.7531 -2.2937
 8434SOL    HW333503   0.302   2.886   2.312 -2.7682 -1.8925 -0.8496
 8434SOL    MW433504   0.348   2.832   2.363 -0.1979  0.1131 -0.8216
 8435SOL     OW33505   0.948   2.508   3.601  0.3192 -0.6434 -0.4596
 8435SOL    HW233506   1.000   2.462   3.667 -1.2164 -0.5986  0.8381
 8435SOL    HW333507   0.861   2.469   3.606 -1.3712  2.8629  1.3986
 8435SOL    MW433508   0.944   2.497   3.610 -0.1065 -0.1749 -0.0432
 8436SOL     OW33509   2.551   1.401   2.240  0.6257 -0.0457  0.0632
 8436SOL    HW233510   2.525   1.320   2.285  0.7404 -0.0158  0.1816
 8436SOL    HW333511   2.645   1.392   2.228  0.8418  0.5939  1.1300
 8436SOL    MW433512   2.560   1.389   2.245  0.6694  0.0426  0.2196
 8437SOL     OW33513   5.278   2.130   2.470 -0.0938  0.4731  0.7944
 8437SOL    HW233514   5.218   2.083   2.412  0.7682 -0.6621  0.8078
 8437SOL    HW333515   5.364   2.116   2.433  0.4028  0.2866  1.9637
 8437SOL    MW433516   5.281   2.122   2.458  0.0855  0.2987  0.9505
 8438SOL     OW33517   0.089   1.106   5.788 -0.0774 -0.2839  0.5923
 8438SOL    HW233518   0.169   1.074   5.747 -0.8777  0.3333 -1.6147
 8438SOL    HW333519   0.110   1.110   5.881  1.8542 -1.8042  0.2913
 8438SOL    MW433520   0.102   1.103   5.795  0.0719 -0.4031  0.2614
 8439SOL     OW33521   2.760   2.165   4.676  0.5438  0.2992 -0.1584
 8439SOL    HW233522   2.841   2.214   4.688  0.7024 -0.5003  3.3661
 8439SOL    HW333523   2.707   2.189   4.753 -1.5596 -1.0085 -1.1163
 8439SOL    MW433524   2.764   2.175   4.688  0.2872  0.0211  0.1802
 8440SOL     OW33525   4.855   3.463   3.554 -0.2679  0.1767 -0.4405
 8440SOL    HW233526   4.795   3.390   3.535 -1.1874  0.5049  1.0899
 8440SOL    HW333527   4.942   3.428   3.532 -0.3955 -2.2166  2.2264
 8440SOL    MW433528   4.859   3.449   3.548 -0.4061 -0.0958  0.1133
 8441SOL     OW33529   5.351   3.130   6.402 -0.4946  0.0429  0.2373
 8441SOL    HW233530   5.385   3.042   6.421 -1.5880 -0.2517  0.9084
 8441SOL    HW333531   5.343   3.133   6.307 -2.2011 -1.2797  0.3008
 8441SOL    MW433532   5.354   3.119   6.392 -0.8640 -0.1705  0.3342
 8442SOL     OW33533   4.807   3.298   5.660  0.3225  0.3357 -0.2871
 8442SOL    HW233534   4.768   3.384   5.676  0.1203  0.1546  0.2221
 8442SOL    HW333535   4.793   3.250   5.742 -0.7466 -0.6304 -1.0131
 8442SOL    MW433536   4.800   3.303   5.673  0.1548  0.1843 -0.3157
 8443SOL     OW33537   4.665   0.526   1.424 -0.2870 -0.1958  0.5326
 8443SOL    HW233538   4.621   0.441   1.427  0.9525 -0.8924 -0.3384
 8443SOL    HW333539   4.638   0.564   1.340  1.0572 -0.8091 -0.2000
 8443SOL    MW433540   4.655   0.520   1.413  0.0539 -0.3687  0.3210
 8444SOL     OW33541   4.727   4.720   2.711  0.5257 -0.1382 -0.0312
 8444SOL    HW233542   4.771   4.805   2.716  0.4699 -0.0998 -0.1874
 8444SOL    HW333543   4.726   4.688   2.801 -2.2848  1.4440  0.6126
 8444SOL    MW433544   4.733   4.727   2.724  0.1476  0.0756  0.0332
 8445SOL     OW33545   0.318   0.988   5.679 -0.5830  0.0730  0.3668
 8445SOL    HW233546   0.363   0.952   5.754  0.4428  1.1110  0.2866
 8445SOL    HW333547   0.388   1.006   5.615 -0.9107  2.6298  0.6106
 8445SOL    MW433548   0.333   0.986   5.680 -0.4909  0.5473  0.3884
 8446SOL     OW33549   5.102   3.702   2.567  0.2505 -0.1929 -0.2065
 8446SOL    HW233550   5.124   3.796   2.567 -0.2586 -0.0688 -0.4549
 8446SOL    HW333551   5.181   3.659   2.536  0.1385  0.2526 -1.1725
 8446SOL    MW433552   5.115   3.709   2.563  0.1686 -0.1178 -0.3667
 8447SOL     OW33553   3.951   3.543   3.195  0.0482 -0.4484  0.2810
 8447SOL    HW233554   4.044   3.535   3.218  0.0501 -0.8881  0.1196
 8447SOL    HW333555   3.913   3.593   3.268  0.5453  0.3443  0.0078
 8447SOL    MW433556   3.959   3.549   3.208  0.1140 -0.4018  0.2237
 8448SOL     OW33557   3.427   2.455   1.406 -0.0399  0.3943  0.7713
 8448SOL    HW233558   3.396   2.483   1.319 -1.9940  0.7258  1.5178
 8448SOL    HW333559   3.384   2.516   1.466 -0.3653 -1.1165  2.1096
 8448SOL    MW433560   3.417   2.467   1.402 -0.3407  0.2387  1.0464
 8449SOL     OW33561   2.998   3.824   3.154  0.3778  0.9489 -0.4059
 8449SOL    HW233562   2.992   3.908   3.198  2.7761  1.0984 -0.2257
 8449SOL    HW333563   3.066   3.836   3.088  0.6294 -0.7769 -0.5192
 8449SOL    MW433564   3.007   3.837   3.151  0.7274  0.7410 -0.3971
 8450SOL     OW33565   4.627   5.276   1.406 -0.2759 -0.4044  0.0955
 8450SOL    HW233566   4.552   5.236   1.362 -0.7065  0.2602  0.2100
 8450SOL    HW333567   4.702   5.224   1.378 -0.5413 -0.0250 -1.4105
 8450SOL    MW433568   4.627   5.264   1.396 -0.3677 -0.2667 -0.0881
 8451SOL     OW33569   3.702   0.835   4.452  0.8309 -0.8041  0.3507
 8451SOL    HW233570   3.610   0.846   4.478  0.5558 -1.7648 -0.1989
 8451SOL    HW333571   3.749   0.896   4.509 -0.1950  0.1174  0.2644
 8451SOL    MW433572   3.696   0.845   4.463  0.6592 -0.8092  0.2668
 8452SOL     OW33573   0.582   1.781   2.624  0.5886 -0.4457  0.3316
 8452SOL    HW233574   0.638   1.704   2.624 -0.7251 -1.4339  0.6631
 8452SOL    HW333575   0.631   1.846   2.674  0.8638 -1.7422  1.8482
 8452SOL    MW433576   0.596   1.779   2.631  0.4516 -0.7471  0.5754
 8453SOL     OW33577   5.878   4.420   4.464 -0.3290 -0.2428  0.0374
 8453SOL    HW233578   5.863   4.411   4.369 -0.4145  2.6355 -0.3093
 8453SOL    HW333579   5.876   4.330   4.497  0.1695 -1.3872 -2.7487
 8453SOL    MW433580   5.876   4.407   4.456 -0.2745 -0.0140 -0.3759
 8454SOL     OW33581   3.664   6.002   4.563  0.6324 -0.3891 -0.0484
 8454SOL    HW233582   3.585   6.043   4.599  1.7475 -0.1826  2.3797
 8454SOL    HW333583   3.715   6.074   4.528  0.0209 -0.4588 -1.1214
 8454SOL    MW433584   3.660   6.017   4.563  0.6988 -0.3710  0.1304
 8455SOL     OW33585   3.726   5.237   5.821 -0.0223  0.2088  0.3231
 8455SOL    HW233586   3.742   5.234   5.915  1.3073  1.6897  0.1889
 8455SOL    HW333587   3.807   5.270   5.784 -0.9730  0.9438 -1.2047
 8455SOL    MW433588   3.739   5.241   5.828  0.0277  0.5011  0.1038
 8456SOL     OW33589   1.445   4.919   4.062  0.7180 -0.2758 -0.6215
 8456SOL    HW233590   1.411   5.006   4.044  0.5521  0.0424  1.0340
 8456SOL    HW333591   1.539   4.932   4.076  0.1910  0.4911  3.7576
 8456SOL    MW433592   1.453   4.932   4.061  0.6266 -0.1326  0.1747
 8457SOL     OW33593   0.197   2.332   3.329  0.3709 -0.0602  0.2731
 8457SOL    HW233594   0.242   2.255   3.295  1.0227 -0.4737  1.9763
 8457SOL    HW333595   0.256   2.367   3.395  0.6731  2.6928 -1.3180
 8457SOL    MW433596   0.211   2.326   3.333  0.4967  0.2485  0.2879
 8458SOL     OW33597   2.752   5.285   2.269 -0.0958  0.9306  0.6396
 8458SOL    HW233598   2.717   5.222   2.206 -2.2406 -0.2927  2.8915
 8458SOL    HW333599   2.689   5.358   2.267 -0.3692  0.7368  1.5195
 8458SOL    MW433600   2.739   5.286   2.260 -0.4149  0.7436  1.0528
 8459SOL     OW33601   1.786   4.232   0.565  0.1801  0.4035  0.1558
 8459SOL    HW233602   1.736   4.223   0.646  0.9271  0.6804  0.6546
 8459SOL    HW333603   1.812   4.143   0.543  0.8477  0.4324  0.7869
 8459SOL    MW433604   1.783   4.219   0.573  0.3667  0.4438  0.3049
 8460SOL     OW33605   5.277   2.095   0.137 -0.0129 -0.1914  0.0810
 8460SOL    HW233606   5.353   2.043   0.109 -0.5581 -1.6192  1.1442
 8460SOL    HW333607   5.207   2.069   0.077 -0.6512 -1.7726  1.4379
 8460SOL    MW433608   5.278   2.085   0.125 -0.1690 -0.5884  0.4003
 8461SOL     OW33609   2.097   6.188   2.567 -0.1705 -0.1355  0.0530
 8461SOL    HW233610   2.190   6.177   2.589  0.1958  0.1114 -1.2650
 8461SOL    HW333611   2.055   6.109   2.601  0.3806  0.0808  1.3127
 8461SOL    MW433612   2.104   6.176   2.574 -0.0494 -0.0744  0.0453
 8462SOL     OW33613   0.419   0.863   0.429 -0.3604  0.7973 -0.3312
 8462SOL    HW233614   0.464   0.912   0.498  0.6930 -0.4559 -0.0879
 8462SOL    HW333615   0.334   0.906   0.421 -0.0469  1.7158  0.9045
 8462SOL    MW433616   0.414   0.875   0.437 -0.1800  0.7531 -0.1360
 8463SOL     OW33617   2.104   3.526   5.909 -0.1439 -0.1897  0.1355
 8463SOL    HW233618   2.031   3.540   5.849 -1.1784 -1.8203  0.9317
 8463SOL    HW333619   2.074   3.456   5.967  1.1082  0.7607  2.0590
 8463SOL    MW433620   2.091   3.519   5.909 -0.1152 -0.2794  0.4944
 8464SOL     OW33621   5.659   3.029   0.485  0.3982  0.1787 -0.0722
 8464SOL    HW233622   5.569   3.031   0.451  0.1503 -1.2644  0.4373
 8464SOL    HW333623   5.675   2.937   0.503  1.8525  0.4789  0.2323
 8464SOL    MW433624   5.649   3.017   0.483  0.5573  0.0279  0.0352
 8465SOL     OW33625   1.820   5.589   3.251  0.0662 -0.4202 -0.3557
 8465SOL    HW233626   1.789   5.642   3.177  0.7764 -0.2909 -0.5641
 8465SOL    HW333627   1.805   5.499   3.223  1.5057 -0.4275 -1.2125
 8465SOL    MW433628   1.814   5.584   3.237  0.3498 -0.4041 -0.4962
 8466SOL     OW33629   2.865   4.432   6.200 -0.0660  0.3299  0.0601
 8466SOL    HW233630   2.827   4.356   6.156  0.2895 -0.1037  0.5005
 8466SOL    HW333631   2.798   4.461   6.261 -0.9709  1.5388 -1.4199
 8466SOL    MW433632   2.851   4.426   6.202 -0.1385  0.4322 -0.0771
 8467SOL     OW33633   4.898   5.737   0.325 -0.2496  0.2325  1.1391
 8467SOL    HW233634   4.961   5.810   0.322  1.3285 -1.0383  1.9068
 8467SOL    HW333635   4.829   5.768   0.385 -0.3679  1.6360  0.3267
 8467SOL    MW433636   4.897   5.751   0.333 -0.0570  0.2500  1.1332
 8468SOL     OW33637   3.970   2.167   1.108 -0.0494  0.4061 -0.6544
 8468SOL    HW233638   3.923   2.251   1.116 -0.3824  0.1151  0.9095
 8468SOL    HW333639   3.906   2.102   1.136  0.2749 -0.3636 -1.6821
 8468SOL    MW433640   3.955   2.170   1.113 -0.0505  0.2662 -0.5836
 8469SOL     OW33641   0.272   5.293   1.110  0.0531 -0.3340  0.7025
 8469SOL    HW233642   0.241   5.281   1.021  0.1295  3.4664 -0.0051
 8469SOL    HW333643   0.366   5.275   1.106  0.2349  0.7359 -0.2651
 8469SOL    MW433644   0.281   5.289   1.098  0.0872  0.3086  0.4815
 8470SOL     OW33645   0.536   4.285   1.282  0.1552  0.1673 -0.6693
 8470SOL    HW233646   0.584   4.220   1.334  1.1317  0.8704 -0.6721
 8470SOL    HW333647   0.533   4.363   1.338 -1.6874 -0.0767 -0.3427
 8470SOL    MW433648   0.542   4.287   1.296  0.0409  0.2279 -0.6265
 8471SOL     OW33649   3.488   0.652   0.168  0.6608 -0.3858  0.0157
 8471SOL    HW233650   3.571   0.676   0.125  1.3548  0.7217  1.8666
 8471SOL    HW333651   3.491   0.556   0.173  1.1889 -0.4453 -1.1347
 8471SOL    MW433652   3.500   0.642   0.163  0.8220 -0.2475  0.1082
 8472SOL     OW33653   0.903   2.830   4.016  0.4416  0.2022  0.3279
 8472SOL    HW233654   0.827   2.795   4.064  0.8149 -0.0297  0.7605
 8472SOL    HW333655   0.909   2.921   4.044  0.3618  0.2031  0.3425
 8472SOL    MW433656   0.893   2.837   4.026  0.4803  0.1717  0.3869
 8473SOL     OW33657   3.909   5.946   3.502 -0.0563  0.1854  0.5453
 8473SOL    HW233658   3.827   5.983   3.537 -1.6465 -0.7647 -1.9574
 8473SOL    HW333659   3.895   5.852   3.501  2.2936 -0.3236  2.7667
 8473SOL    MW433660   3.896   5.939   3.507  0.0439 -0.0071  0.5082
 8474SOL     OW33661   0.950   5.757   5.409 -0.5341 -0.5104 -0.1944
 8474SOL    HW233662   0.854   5.752   5.410 -0.5444 -0.5560  1.7136
 8474SOL    HW333663   0.979   5.668   5.424 -0.1970 -0.3967 -0.1592
 8474SOL    MW433664   0.941   5.745   5.411 -0.4910 -0.5014  0.0620
 8475SOL     OW33665   4.081   3.582   2.118  0.6294  0.2887  0.4344
 8475SOL    HW233666   4.060   3.644   2.048  1.3205  1.3028  1.1052
 8475SOL    HW333667   4.023   3.508   2.101 -1.0892  1.5790  0.2743
 8475SOL    MW433668   4.071   3.581   2.106  0.4939  0.5927  0.5018
 8476SOL     OW33669   2.776   1.480   4.827 -0.2839  0.4226 -0.1767
 8476SOL    HW233670   2.811   1.419   4.892 -1.7648 -1.0813 -0.7381
 8476SOL    HW333671   2.802   1.567   4.860 -0.2456 -0.3351  1.9438
 8476SOL    MW433672   2.784   1.484   4.840 -0.4742  0.1242  0.0290
 8477SOL     OW33673   2.463   5.679   0.601  0.4433 -0.1848  0.1794
 8477SOL    HW233674   2.385   5.629   0.575  0.4146  0.2550 -0.6170
 8477SOL    HW333675   2.447   5.701   0.693 -2.3075  3.2734 -0.8849
 8477SOL    MW433676   2.450   5.675   0.609  0.0766  0.3295 -0.0661
 8478SOL     OW33677   6.371   1.193   2.655 -0.3860 -0.5933 -0.7768
 8478SOL    HW233678   6.340   1.116   2.607 -1.1768  0.1219 -1.4493
 8478SOL    HW333679   6.466   1.192   2.643 -0.4707 -1.0311 -1.4591
 8478SOL    MW433680   6.379   1.183   2.647 -0.5015 -0.5567 -0.9556
 8479SOL     OW33681   4.568   4.761   6.056 -0.0674  0.7883  0.1192
 8479SOL    HW233682   4.517   4.810   5.991 -0.5290 -0.5712 -0.5785
 8479SOL    HW333683   4.656   4.799   6.050 -0.3188  1.2824 -0.6666
 8479SOL    MW433684   4.573   4.773   6.046 -0.1614  0.6742 -0.0765
 8480SOL     OW33685   5.337   6.250   0.392 -0.4098  0.0131  0.0903
 8480SOL    HW233686   5.333   6.327   0.336  0.4591 -0.0276 -0.0521
 8480SOL    HW333687   5.424   6.256   0.434 -0.1178 -1.1503 -0.3136
 8480SOL    MW433688   5.348   6.261   0.390 -0.2567 -0.1458  0.0182
 8481SOL     OW33689   1.458   0.554   0.656  0.5999 -0.3064 -0.8582
 8481SOL    HW233690   1.512   0.488   0.613  1.2768 -0.7708  0.6228
 8481SOL    HW333691   1.522   0.616   0.693  0.1075 -0.3562  0.1147
 8481SOL    MW433692   1.474   0.554   0.655  0.6242 -0.3742 -0.5344
 8482SOL     OW33693   5.818   0.970   0.208 -0.8895 -0.9741 -0.7444
 8482SOL    HW233694   5.770   1.051   0.226  0.4730 -0.2580 -0.2483
 8482SOL    HW333695   5.775   0.905   0.264 -1.0629 -0.2700 -0.0368
 8482SOL    MW433696   5.806   0.972   0.218 -0.7326 -0.7867 -0.5856
 8483SOL     OW33697   0.298   5.776   0.175 -0.1551  0.3051 -0.4051
 8483SOL    HW233698   0.392   5.787   0.157 -0.2641  1.0074 -0.5937
 8483SOL    HW333699   0.270   5.863   0.204 -0.3187 -0.3984  1.7064
 8483SOL    MW433700   0.307   5.789   0.176 -0.1911  0.3050 -0.1514
 8484SOL     OW33701   3.674   5.799   1.688  0.1475  0.0832  0.5645
 8484SOL    HW233702   3.648   5.772   1.600  0.5796  1.3237  0.0319
 8484SOL    HW333703   3.612   5.755   1.746  0.0362 -0.9827 -0.3329
 8484SOL    MW433704   3.662   5.790   1.684  0.1898  0.1063  0.3759
 8485SOL     OW33705   2.734   1.265   6.239  0.0088 -0.0085 -0.1720
 8485SOL    HW233706   2.714   1.332   6.174 -0.3601  1.6891  1.6024
 8485SOL    HW333707   2.818   1.291   6.276  0.4929 -1.2663 -0.3173
 8485SOL    MW433708   2.743   1.277   6.235  0.0240  0.0496  0.0430
 8486SOL     OW33709   2.694   0.463   4.530  0.3943  0.4148  0.3619
 8486SOL    HW233710   2.626   0.398   4.513 -0.7868  1.5470  0.6199
 8486SOL    HW333711   2.733   0.481   4.444  0.0045  0.1364  0.1256
 8486SOL    MW433712   2.690   0.457   4.517  0.1870  0.5274  0.3648
 8487SOL     OW33713   2.418   1.393   3.670  0.6534 -0.2657  0.4133
 8487SOL    HW233714   2.471   1.324   3.631 -0.8583 -0.3320 -1.6809
 8487SOL    HW333715   2.341   1.347   3.704  0.1527  0.2538 -0.0087
 8487SOL    MW433716   2.415   1.378   3.670  0.3879 -0.2059  0.0813
 8488SOL     OW33717   3.377   2.232   1.580 -0.1270 -0.1648 -0.1983
 8488SOL    HW233718   3.354   2.151   1.534 -2.4506  0.0861  0.4047
 8488SOL    HW333719   3.368   2.300   1.514  0.3294 -0.2192 -0.3203
 8488SOL    MW433720   3.373   2.230   1.565 -0.3733 -0.1389 -0.1348
 8489SOL     OW33721   4.444   5.800   5.316 -0.0696 -0.2344  0.0080
 8489SOL    HW233722   4.412   5.725   5.365  2.7999 -0.9855  0.9587
 8489SOL    HW333723   4.499   5.763   5.247  0.2687  0.9334 -0.3904
 8489SOL    MW433724   4.447   5.786   5.313  0.3537 -0.1794  0.0808
 8490SOL     OW33725   2.145   0.470   3.734 -0.1714 -0.9489  0.5050
 8490SOL    HW233726   2.063   0.475   3.683 -1.4467 -1.3694  2.3960
 8490SOL    HW333727   2.199   0.407   3.686 -0.9229 -0.6340 -0.8155
 8490SOL    MW433728   2.141   0.462   3.721 -0.4388 -0.9628  0.5803
 8491SOL     OW33729   2.446   5.890   1.689  0.2903  0.5279 -0.2366
 8491SOL    HW233730   2.516   5.920   1.747 -0.2148  3.1655 -0.8838
 8491SOL    HW333731   2.389   5.838   1.745  0.7076  1.5966  1.2263
 8491SOL    MW433732   2.448   5.887   1.704  0.2787  1.0169 -0.1290
 8492SOL     OW33733   4.230   2.225   0.730 -0.5117 -0.1820  0.3104
 8492SOL    HW233734   4.175   2.273   0.792 -1.1791  0.3139 -0.6332
 8492SOL    HW333735   4.258   2.147   0.778 -0.6742  0.3806  1.3623
 8492SOL    MW433736   4.226   2.221   0.745 -0.6212 -0.0424  0.3247
 8493SOL     OW33737   5.448   2.639   2.871  0.4369 -0.7403 -0.0422
 8493SOL    HW233738   5.435   2.556   2.824  0.4381 -0.5251 -0.4262
 8493SOL    HW333739   5.528   2.625   2.922  1.2354 -0.5129 -1.1771
 8493SOL    MW433740   5.457   2.626   2.871  0.5424 -0.6819 -0.2426
 8494SOL     OW33741   4.600   4.995   0.677 -0.7934 -0.4973 -0.3350
 8494SOL    HW233742   4.669   5.048   0.716 -0.2400 -1.8609  0.6262
 8494SOL    HW333743   4.525   5.053   0.672 -0.0275  0.5574  0.0631
 8494SOL    MW433744   4.599   5.010   0.682 -0.6193 -0.5381 -0.1557
 8495SOL     OW33745   2.717   1.836   4.414 -0.7081  0.0672 -0.7187
 8495SOL    HW233746   2.626   1.821   4.439 -0.2112 -0.5337  0.8722
 8495SOL    HW333747   2.747   1.752   4.378 -0.4478 -0.1272 -0.0722
 8495SOL    MW433748   2.709   1.823   4.413 -0.6082 -0.0377 -0.4235
 8496SOL     OW33749   2.282   4.753   5.746 -0.3803  0.0301  0.5404
 8496SOL    HW233750   2.373   4.783   5.753  0.2713 -1.2454 -1.5580
 8496SOL    HW333751   2.274   4.683   5.810  0.4009 -0.4180  0.1622
 8496SOL    MW433752   2.293   4.748   5.755 -0.1913 -0.1973  0.2136
 8497SOL     OW33753   1.875   4.582   3.482  0.5315 -0.1949 -1.1964
 8497SOL    HW233754   1.812   4.543   3.543  1.8449 -1.7942 -0.7853
 8497SOL    HW333755   1.834   4.664   3.456 -1.2099 -0.6314 -0.0903
 8497SOL    MW433756   1.861   4.587   3.487  0.4750 -0.4635 -0.9963
 8498SOL     OW33757   4.253   6.073   0.931 -0.3147  0.4734 -0.3862
 8498SOL    HW233758   4.190   6.081   0.859 -0.6451  0.0098 -0.1573
 8498SOL    HW333759   4.261   6.161   0.966  0.7426  0.9530 -1.7205
 8498SOL    MW433760   4.246   6.085   0.926 -0.2188  0.4755 -0.5321
 8499SOL     OW33761   3.183   3.823   6.399 -0.3910  0.5031  0.0626
 8499SOL    HW233762   3.244   3.753   6.418 -0.3920  0.1495 -1.1780
 8499SOL    HW333763   3.122   3.823   6.474 -0.3805 -0.7960  0.0892
 8499SOL    MW433764   3.183   3.814   6.412 -0.3897  0.2851 -0.0976
 8500SOL     OW33765   3.829   6.231   1.723 -0.2250  0.4055 -1.0234
 8500SOL    HW233766   3.779   6.282   1.787  0.0932  0.4351 -0.7957
 8500SOL    HW333767   3.801   6.141   1.738 -1.4400  0.5801 -2.0082
 8500SOL    MW433768   3.818   6.226   1.734 -0.3433  0.4324 -1.1233
 8501SOL     OW33769   0.674   0.662   2.775 -0.4973 -0.8173 -0.2623
 8501SOL    HW233770   0.694   0.572   2.801  0.4631 -0.4796  0.2318
 8501SOL    HW333771   0.750   0.712   2.805 -1.5059  0.3313  0.4401
 8501SOL    MW433772   0.687   0.656   2.782 -0.5037 -0.6212 -0.1044
 8502SOL     OW33773   2.485   3.326   4.393  0.4394  0.0347 -0.1334
 8502SOL    HW233774   2.393   3.352   4.396  0.3779 -0.2242  0.4776
 8502SOL    HW333775   2.487   3.242   4.440  0.5419 -1.3234 -2.3881
 8502SOL    MW433776   2.473   3.318   4.400  0.4448 -0.1787 -0.3503
 8503SOL     OW33777   3.151   1.711   0.828  0.0878 -0.7385 -0.1344
 8503SOL    HW233778   3.147   1.661   0.909  2.0791 -0.2031  0.3455
 8503SOL    HW333779   3.182   1.649   0.762  2.0671 -0.3202  0.3519
 8503SOL    MW433780   3.155   1.696   0.830  0.6116 -0.6127 -0.0070
 8504SOL     OW33781   4.248   4.728   2.120  0.6980  0.7220 -0.0907
 8504SOL    HW233782   4.306   4.804   2.126  1.0441  0.4753 -0.2172
 8504SOL    HW333783   4.260   4.683   2.204  2.2200 -0.3923 -0.8379
 8504SOL    MW433784   4.257   4.732   2.132  0.9445  0.5424 -0.2060
 8505SOL     OW33785   0.323   4.416   4.557  0.1799  0.3287 -0.6732
 8505SOL    HW233786   0.233   4.419   4.525  0.1586  1.3458 -0.5442
 8505SOL    HW333787   0.369   4.361   4.494 -0.4261  0.1947 -1.0041
 8505SOL    MW433788   0.317   4.409   4.545  0.0971  0.4452 -0.6998
 8506SOL     OW33789   2.201   1.728   5.581  0.7892 -0.7324  0.5569
 8506SOL    HW233790   2.177   1.784   5.655  0.4030 -0.1785  0.0194
 8506SOL    HW333791   2.268   1.778   5.534 -0.0418 -0.4069 -0.3042
 8506SOL    MW433792   2.207   1.742   5.585  0.6286 -0.6164  0.3724
 8507SOL     OW33793   1.345   0.660   4.232  0.1584  0.8788  0.3943
 8507SOL    HW233794   1.393   0.615   4.301  0.6557  0.4966 -0.1968
 8507SOL    HW333795   1.407   0.668   4.160 -0.6614  0.3504 -0.3964
 8507SOL    MW433796   1.360   0.655   4.232  0.1159  0.7587  0.2120
 8508SOL     OW33797   1.381   1.473   2.990  0.2473  0.6781  0.2261
 8508SOL    HW233798   1.354   1.524   2.914  1.0358 -0.2980 -0.7377
 8508SOL    HW333799   1.309   1.483   3.053 -1.6932 -0.6117 -1.6558
 8508SOL    MW433800   1.368   1.481   2.988  0.0953  0.3791 -0.1494
 8509SOL     OW33801   0.903   0.832   2.849 -0.1270 -0.3378 -0.4606
 8509SOL    HW233802   0.941   0.781   2.921 -0.3919 -0.2653 -0.2710
 8509SOL    HW333803   0.952   0.803   2.772 -0.6556 -1.2971 -0.4455
 8509SOL    MW433804   0.915   0.821   2.849 -0.2317 -0.4548 -0.4336
 8510SOL     OW33805   5.663   2.064   0.979 -0.4135 -0.4834  0.0716
 8510SOL    HW233806   5.690   2.051   0.889  1.0109 -1.4802  0.6157
 8510SOL    HW333807   5.567   2.057   0.976 -0.5172  0.9671 -1.5559
 8510SOL    MW433808   5.654   2.061   0.967 -0.2392 -0.4235 -0.0714
 8511SOL     OW33809   2.600   3.008   2.354  0.8453 -0.3468  0.6057
 8511SOL    HW233810   2.511   3.008   2.390  0.4311  1.0280 -0.3572
 8511SOL    HW333811   2.642   3.085   2.392  1.0532 -0.0243 -0.2463
 8511SOL    MW433812   2.594   3.018   2.364  0.8181 -0.1229  0.3662
 8512SOL     OW33813   2.887   2.439   5.919 -0.2074  0.5266 -0.1541
 8512SOL    HW233814   2.904   2.365   5.978  1.3529  2.2348  1.6959
 8512SOL    HW333815   2.803   2.474   5.948  0.4387  1.2104  0.9535
 8512SOL    MW433816   2.878   2.434   5.931  0.0837  0.8422  0.2361
 8513SOL     OW33817   2.728   3.521   0.197  0.5190 -0.1400 -0.5983
 8513SOL    HW233818   2.663   3.569   0.249 -0.8931 -0.4549 -1.9846
 8513SOL    HW333819   2.739   3.574   0.118  2.1871  0.0374 -0.2750
 8513SOL    MW433820   2.721   3.535   0.193  0.5528 -0.1582 -0.7386
 8514SOL     OW33821   6.089   3.319   3.183 -0.1050  0.1577 -0.0379
 8514SOL    HW233822   6.142   3.349   3.257  0.5948  3.1722 -1.6156
 8514SOL    HW333823   6.108   3.225   3.176  1.9156  0.3460  1.8973
 8514SOL    MW433824   6.098   3.310   3.192  0.2539  0.5803  0.0093
 8515SOL     OW33825   3.335   4.179   5.158 -0.0027  0.0761  0.3718
 8515SOL    HW233826   3.377   4.263   5.173  1.2880 -0.3590 -0.5797
 8515SOL    HW333827   3.362   4.125   5.232  0.8986 -0.0973 -0.0608
 8515SOL    MW433828   3.344   4.183   5.169  0.2865 -0.0042  0.1892
 8516SOL     OW33829   6.253   3.468   4.253  0.4625  0.0166  0.5126
 8516SOL    HW233830   6.332   3.467   4.199 -0.0149 -1.4421 -0.2138
 8516SOL    HW333831   6.285   3.464   4.343  1.2376  1.2616  0.3189
 8516SOL    MW433832   6.267   3.468   4.257  0.5018 -0.0116  0.3912
 8517SOL     OW33833   4.661   1.129   1.852  0.2992 -0.1590 -0.3849
 8517SOL    HW233834   4.670   1.215   1.813  1.1403  0.1311  0.3918
 8517SOL    HW333835   4.751   1.097   1.859  0.5532  0.8929  3.5827
 8517SOL    MW433836   4.674   1.136   1.848  0.4437  0.0181  0.2411
 8518SOL     OW33837   0.263   4.771   1.349 -0.2406 -0.1926 -0.1106
 8518SOL    HW233838   0.197   4.705   1.326 -1.4237 -0.4470  3.4779
 8518SOL    HW333839   0.234   4.849   1.302 -2.0086 -0.8212 -0.1671
 8518SOL    MW433840   0.250   4.772   1.339 -0.6300 -0.3091  0.3554
 8519SOL     OW33841   4.347   2.582   1.984 -0.0116  0.2625 -0.4692
 8519SOL    HW233842   4.350   2.590   2.079 -1.2972 -0.3231 -0.3638
 8519SOL    HW333843   4.386   2.496   1.966  0.1986  0.3577 -0.4686
 8519SOL    MW433844   4.353   2.571   1.994 -0.1534  0.1978 -0.4552
 8520SOL     OW33845   4.890   2.179   2.428  0.2272 -0.6964 -0.1103
 8520SOL    HW233846   4.819   2.116   2.421  1.2076 -1.6381 -2.4666
 8520SOL    HW333847   4.864   2.251   2.370  1.2846 -1.1574 -1.1746
 8520SOL    MW433848   4.877   2.180   2.420  0.4960 -0.8815 -0.5616
 8521SOL     OW33849   6.311   5.682   2.305  0.0555 -0.0966  0.3191
 8521SOL    HW233850   6.243   5.722   2.252  0.6194  0.9292  0.3441
 8521SOL    HW333851   6.296   5.716   2.393  0.2965 -0.2621  0.4259
 8521SOL    MW433852   6.300   5.692   2.310  0.1617  0.0169  0.3365
 8522SOL     OW33853   5.333   3.341   0.295 -0.1570 -0.5367 -0.3703
 8522SOL    HW233854   5.313   3.248   0.303  0.2772 -0.4800  2.2920
 8522SOL    HW333855   5.407   3.355   0.354  0.3664  1.3534 -1.3961
 8522SOL    MW433856   5.340   3.331   0.304 -0.0307 -0.2799 -0.1544
 8523SOL     OW33857   2.186   2.128   0.317 -0.3290 -0.6920  0.3812
 8523SOL    HW233858   2.242   2.160   0.387 -1.3531  0.3871  0.7376
 8523SOL    HW333859   2.104   2.103   0.361 -1.8118  2.0371 -0.6114
 8523SOL    MW433860   2.183   2.129   0.332 -0.6597 -0.1896  0.2973
 8524SOL     OW33861   3.239   5.320   4.028  0.2596  0.0830 -0.0029
 8524SOL    HW233862   3.169   5.344   3.967 -0.4419 -0.5118  0.5460
 8524SOL    HW333863   3.209   5.239   4.068  1.7203 -0.7047 -0.4456
 8524SOL    MW433864   3.226   5.313   4.025  0.3597 -0.0994  0.0111
 8525SOL     OW33865   1.018   6.215   0.444 -0.0635  0.5923 -0.8674
 8525SOL    HW233866   0.927   6.226   0.417 -0.4549  0.4457  0.3028
 8525SOL    HW333867   1.051   6.304   0.454 -0.1795  0.6500 -0.9963
 8525SOL    MW433868   1.010   6.228   0.442 -0.1304  0.5805 -0.7300
 8526SOL     OW33869   0.991   3.768   4.852 -0.2551  0.0508  0.0379
 8526SOL    HW233870   1.071   3.815   4.829 -1.4958  2.7776  0.8529
 8526SOL    HW333871   0.920   3.824   4.819 -1.8659 -1.2424  1.1458
 8526SOL    MW433872   0.992   3.781   4.844 -0.6314  0.2400  0.2916
 8527SOL     OW33873   4.858   5.300   5.783 -0.1082 -0.2090 -0.3818
 8527SOL    HW233874   4.915   5.259   5.718  1.4919 -1.0443  1.4447
 8527SOL    HW333875   4.845   5.389   5.751 -0.4076 -0.9388 -2.4410
 8527SOL    MW433876   4.864   5.307   5.770  0.0634 -0.4155 -0.4125
 8528SOL     OW33877   1.256   2.473   1.122  0.8703 -0.2009  0.0279
 8528SOL    HW233878   1.203   2.518   1.187 -1.2337 -0.7998 -1.1554
 8528SOL    HW333879   1.345   2.475   1.157  0.4188  2.4913  1.2474
 8528SOL    MW433880   1.260   2.479   1.135  0.5332  0.0753  0.0327
 8529SOL     OW33881   3.147   3.299   3.329 -0.0933 -0.3946  0.0719
 8529SOL    HW233882   3.225   3.341   3.367  1.6396 -1.0467 -2.5323
 8529SOL    HW333883   3.093   3.373   3.298  1.6736  0.0957 -2.0866
 8529SOL    MW433884   3.150   3.314   3.330  0.3685 -0.4159 -0.5565
 8530SOL     OW33885   0.818   6.042   4.714 -0.4708  0.0770  0.3710
 8530SOL    HW233886   0.818   5.950   4.739 -2.2667 -0.1057 -0.1707
 8530SOL    HW333887   0.731   6.057   4.677 -0.0661  1.8895  0.0555
 8530SOL    MW433888   0.807   6.032   4.712 -0.6543  0.2921  0.2579
 8531SOL     OW33889   4.151   6.090   2.912 -0.2363 -0.0696 -0.1516
 8531SOL    HW233890   4.065   6.121   2.939  0.1355 -0.5357  1.6742
 8531SOL    HW333891   4.195   6.168   2.876 -1.6150  0.0257 -1.7498
 8531SOL    MW433892   4.146   6.104   2.911 -0.3692 -0.1186 -0.1216
 8532SOL     OW33893   1.657   0.601   2.036  0.7654 -0.1210  0.1252
 8532SOL    HW233894   1.717   0.531   2.061  0.0155 -0.6347  0.5232
 8532SOL    HW333895   1.672   0.612   1.942  0.8997 -0.8071  0.0601
 8532SOL    MW433896   1.667   0.593   2.027  0.6841 -0.2793  0.1691
 8533SOL     OW33897   5.834   2.628   2.720 -0.2118  0.2989 -0.2066
 8533SOL    HW233898   5.899   2.594   2.658  0.2890  0.1337  0.4017
 8533SOL    HW333899   5.884   2.686   2.778 -0.7170  0.6262 -0.0897
 8533SOL    MW433900   5.849   2.632   2.720 -0.2124  0.3203 -0.1109
 8534SOL     OW33901   0.270   1.228   2.285  0.2205  0.9382 -0.2497
 8534SOL    HW233902   0.189   1.265   2.320 -0.1592  0.4511 -0.6018
 8534SOL    HW333903   0.297   1.163   2.351 -0.5836 -0.0981 -0.9077
 8534SOL    MW433904   0.263   1.224   2.298  0.0644  0.7372 -0.3830
 8535SOL     OW33905   5.792   4.689   5.447  0.0512  0.4316 -0.2896
 8535SOL    HW233906   5.722   4.752   5.429  0.3361  0.6380 -0.6751
 8535SOL    HW333907   5.799   4.688   5.543 -1.3107 -0.4975 -0.1663
 8535SOL    MW433908   5.783   4.697   5.457 -0.0909  0.3362 -0.3242
 8536SOL     OW33909   1.294   0.718   1.166  0.0282 -0.4109  0.0147
 8536SOL    HW233910   1.244   0.681   1.093 -1.3203  1.0064  0.1764
 8536SOL    HW333911   1.361   0.772   1.124  0.8233 -1.4983 -0.1802
 8536SOL    MW433912   1.296   0.720   1.151 -0.0448 -0.3674  0.0103
 8537SOL     OW33913   2.622   5.155   2.477 -0.3950 -0.2816 -0.0220
 8537SOL    HW233914   2.666   5.199   2.405 -0.5584 -1.2541 -0.7328
 8537SOL    HW333915   2.689   5.145   2.544  0.5231 -1.7556 -1.0986
 8537SOL    MW433916   2.636   5.160   2.477 -0.2954 -0.6044 -0.2578
 8538SOL     OW33917   5.317   5.782   0.051  0.3443  0.3185 -0.4632
 8538SOL    HW233918   5.354   5.759  -0.035 -0.8030 -1.2753 -0.5634
 8538SOL    HW333919   5.292   5.699   0.090 -1.5995  1.2007  0.2958
 8538SOL    MW433920   5.319   5.768   0.044 -0.0635  0.2246 -0.3763
 8539SOL     OW33921   6.279   0.927   2.834 -0.4050  0.1920 -0.7864
 8539SOL    HW233922   6.228   1.008   2.826 -0.4347  0.2306 -0.2126
 8539SOL    HW333923   6.333   0.926   2.755 -2.0622 -0.3949 -1.9662
 8539SOL    MW433924   6.280   0.938   2.822 -0.6276  0.1197 -0.8664
 8540SOL     OW33925   2.088   3.118   3.002  0.3430  0.2044  0.1734
 8540SOL    HW233926   2.033   3.076   3.068  1.6606  0.7993  1.7255
 8540SOL    HW333927   2.155   3.052   2.982  0.0658  0.1012 -0.4141
 8540SOL    MW433928   2.090   3.104   3.008  0.4802  0.2693  0.3007
 8541SOL     OW33929   3.938   3.260   3.266 -0.1252 -0.1720 -0.4799
 8541SOL    HW233930   3.847   3.253   3.294 -0.5460 -0.6404 -1.8959
 8541SOL    HW333931   3.937   3.327   3.198  0.6307 -0.0414 -0.3713
 8541SOL    MW433932   3.926   3.268   3.261 -0.0810 -0.2166 -0.6524
 8542SOL     OW33933   1.024   2.736   2.935  0.1093  0.4433 -0.1034
 8542SOL    HW233934   1.120   2.738   2.934  0.2134 -1.8293  0.4638
 8542SOL    HW333935   1.001   2.715   3.025 -1.0228  2.3152  0.0939
 8542SOL    MW433936   1.033   2.734   2.947 -0.0263  0.3905 -0.0026
 8543SOL     OW33937   5.267   5.255   5.756  0.0299 -0.1241  0.0374
 8543SOL    HW233938   5.179   5.229   5.728 -1.4235  0.2951  3.6344
 8543SOL    HW333939   5.309   5.173   5.781 -0.4708 -0.0837  1.0616
 8543SOL    MW433940   5.261   5.241   5.756 -0.2279 -0.0635  0.6471
 8544SOL     OW33941   0.523   3.633   4.067 -0.3395 -0.4463  0.6908
 8544SOL    HW233942   0.609   3.617   4.029  0.4917  0.2526  2.2146
 8544SOL    HW333943   0.528   3.721   4.103 -2.6122  0.7373 -1.5598
 8544SOL    MW433944   0.535   3.642   4.067 -0.5297 -0.1980  0.5949
 8545SOL     OW33945   1.127   3.425   0.418 -0.7320 -0.0629 -0.2888
 8545SOL    HW233946   1.103   3.488   0.486  4.1203  0.1421  1.6193
 8545SOL    HW333947   1.142   3.343   0.465  4.1896  0.4302 -0.4973
 8545SOL    MW433948   1.126   3.422   0.433  0.5575  0.0292 -0.0645
 8546SOL     OW33949   0.407   2.663   2.807 -0.9490  0.1677 -0.1068
 8546SOL    HW233950   0.405   2.595   2.739 -0.8948 -0.2454  0.3045
 8546SOL    HW333951   0.393   2.745   2.759 -0.6242 -0.0938 -0.6577
 8546SOL    MW433952   0.405   2.665   2.791 -0.8990  0.0787 -0.1252
 8547SOL     OW33953   3.354   3.605   2.196 -0.1344  0.0268  0.0092
 8547SOL    HW233954   3.421   3.543   2.223 -0.1588  0.1526  0.3649
 8547SOL    HW333955   3.271   3.564   2.220 -0.2484 -0.5473 -1.2743
 8547SOL    MW433956   3.352   3.592   2.203 -0.1527 -0.0324 -0.1132
 8548SOL     OW33957   0.651   2.177   5.419 -0.5489 -0.1449 -0.0814
 8548SOL    HW233958   0.612   2.141   5.339  0.8445 -0.2381 -0.7450
 8548SOL    HW333959   0.690   2.260   5.392  0.3846 -0.4213  0.3615
 8548SOL    MW433960   0.651   2.183   5.405 -0.2419 -0.1937 -0.1105
 8549SOL     OW33961   2.798   1.573   4.301  0.6359 -0.6276 -0.0222
 8549SOL    HW233962   2.870   1.532   4.348  0.5927 -1.3758 -0.5863
 8549SOL    HW333963   2.816   1.556   4.208 -0.3326 -0.9646 -0.1654
 8549SOL    MW433964   2.810   1.566   4.295  0.5024 -0.7708 -0.1155
 8550SOL     OW33965   1.670   0.543   2.751  0.1851 -0.1955 -0.4698
 8550SOL    HW233966   1.736   0.474   2.742 -0.5246 -0.7074 -2.2091
 8550SOL    HW333967   1.588   0.495   2.765 -0.1057  0.3617 -0.2435
 8550SOL    MW433968   1.668   0.527   2.752  0.0531 -0.1895 -0.6694
 8551SOL     OW33969   5.652   0.754   5.730  0.2332  0.7996  0.1860
 8551SOL    HW233970   5.682   0.787   5.814 -0.6098  1.7375  0.1390
 8551SOL    HW333971   5.721   0.693   5.702  0.9363  1.1347  1.1366
 8551SOL    MW433972   5.665   0.750   5.737  0.2147  0.9675  0.3053
 8552SOL     OW33973   6.301   0.503   5.934  0.4217  0.6179  0.5618
 8552SOL    HW233974   6.252   0.461   5.864 -0.4924 -0.3534  1.7473
 8552SOL    HW333975   6.353   0.571   5.889  0.0593 -0.1243 -1.0626
 8552SOL    MW433976   6.302   0.507   5.919  0.2533  0.3918  0.5039
 8553SOL     OW33977   5.739   2.712   4.202 -0.3894 -0.0465 -0.2931
 8553SOL    HW233978   5.818   2.658   4.197 -0.3089  0.0759 -0.3503
 8553SOL    HW333979   5.724   2.724   4.295  0.2127  0.7382 -0.2871
 8553SOL    MW433980   5.748   2.706   4.213 -0.2993  0.0732 -0.2999
 8554SOL     OW33981   5.308   1.154   4.750  0.2280 -0.2979  0.0096
 8554SOL    HW233982   5.231   1.102   4.772  0.5041 -1.1576 -0.9828
 8554SOL    HW333983   5.310   1.154   4.654  0.2008  1.6079 -0.0331
 8554SOL    MW433984   5.298   1.147   4.740  0.2608 -0.1598 -0.1270
 8555SOL     OW33985   2.290   5.388   1.744  0.2307 -0.1573  0.1835
 8555SOL    HW233986   2.357   5.333   1.784  0.9116 -0.7697 -1.6912
 8555SOL    HW333987   2.209   5.364   1.788  0.6688 -2.0124  0.0388
 8555SOL    MW433988   2.289   5.378   1.755  0.3783 -0.4829 -0.0829
 8556SOL     OW33989   5.709   4.416   1.775 -0.0975 -0.2140 -0.1698
 8556SOL    HW233990   5.805   4.425   1.770 -0.2062  1.3153 -0.0114
 8556SOL    HW333991   5.687   4.352   1.708  1.2285 -2.1401  1.1552
 8556SOL    MW433992   5.719   4.409   1.766  0.0631 -0.2664  0.0259
 8557SOL     OW33993   4.821   3.643   0.975  0.3265 -0.4301  0.2418
 8557SOL    HW233994   4.798   3.726   0.933 -1.5043 -1.8754 -1.7871
 8557SOL    HW333995   4.750   3.628   1.038  1.2825  0.0612  1.4837
 8557SOL    MW433996   4.809   3.652   0.978  0.2111 -0.5560  0.1379
 8558SOL     OW33997   6.422   5.251   2.397 -0.6749 -0.4052  0.2119
 8558SOL    HW233998   6.466   5.166   2.392  0.5233  0.2249 -0.4029
 8558SOL    HW333999   6.445   5.284   2.484  1.4398  0.6040 -0.6770
 8558SOL    MW434000   6.431   5.244   2.408 -0.2378 -0.1889  0.0135
 8559SOL     OW34001   5.790   3.797   3.646  0.2626  0.0697 -0.0547
 8559SOL    HW234002   5.867   3.831   3.692 -0.6497  0.2765  1.3736
 8559SOL    HW334003   5.776   3.711   3.685  0.6194 -0.5956 -1.3516
 8559SOL    MW434004   5.798   3.790   3.657  0.1893  0.0092 -0.0374
 8560SOL     OW34005   0.826   4.210   0.519 -0.4367 -0.0095  0.0107
 8560SOL    HW234006   0.901   4.153   0.503  0.2243  1.0591 -0.8215
 8560SOL    HW334007   0.864   4.297   0.526 -1.3546  0.2896  1.8926
 8560SOL    MW434008   0.841   4.214   0.518 -0.4706  0.1710  0.1492
 8561SOL     OW34009   0.144   4.508   2.370  0.1278  0.0660  0.0650
 8561SOL    HW234010   0.145   4.436   2.433 -1.3480  0.2255  0.3152
 8561SOL    HW334011   0.184   4.581   2.417  2.7890 -0.8491 -0.6068
 8561SOL    MW434012   0.150   4.508   2.385  0.2842 -0.0337  0.0094
 8562SOL     OW34013   4.472   1.215   2.043  0.4592  0.2165 -0.3033
 8562SOL    HW234014   4.385   1.220   2.002  0.6088 -1.5746 -0.9251
 8562SOL    HW334015   4.532   1.203   1.969  1.4667  2.9378 -0.0203
 8562SOL    MW434016   4.468   1.214   2.028  0.6119  0.3392 -0.3480
 8563SOL     OW34017   1.122   1.610   4.468  0.1015  0.2385  0.0837
 8563SOL    HW234018   1.061   1.539   4.449  0.1947  0.4698 -1.1550
 8563SOL    HW334019   1.083   1.656   4.543 -0.8147 -0.1244 -0.1597
 8563SOL    MW434020   1.109   1.607   4.475 -0.0071  0.2211 -0.1118
 8564SOL     OW34021   4.209   2.255   1.482 -0.0390  0.3460 -0.1511
 8564SOL    HW234022   4.208   2.255   1.577  0.1783 -0.7131 -0.1377
 8564SOL    HW334023   4.134   2.200   1.457 -0.0314  0.5288 -0.5959
 8564SOL    MW434024   4.199   2.248   1.491 -0.0093  0.2304 -0.2080
 8565SOL     OW34025   5.023   5.526   2.934  0.2285 -0.9539  0.3198
 8565SOL    HW234026   5.002   5.555   3.023 -1.9136 -0.2284 -0.3703
 8565SOL    HW334027   5.093   5.585   2.905  0.9770 -1.2241  1.5120
 8565SOL    MW434028   5.030   5.538   2.942  0.0446 -0.8938  0.3860
 8566SOL     OW34029   2.769   1.118   4.990 -0.2025 -0.4243  0.1971
 8566SOL    HW234030   2.693   1.061   4.976 -1.4095  1.4048 -1.0849
 8566SOL    HW334031   2.823   1.104   4.913 -2.1825  2.5450 -1.9513
 8566SOL    MW434032   2.766   1.109   4.978 -0.6230  0.2088 -0.2555
 8567SOL     OW34033   2.401   3.753   0.947 -0.3149 -0.2672  0.3276
 8567SOL    HW234034   2.355   3.720   1.025  1.5256 -2.3820  0.6311
 8567SOL    HW334035   2.403   3.678   0.888  0.7408  0.4739 -0.5922
 8567SOL    MW434036   2.395   3.739   0.950  0.0672 -0.4485  0.2463
 8568SOL     OW34037   4.826   2.637   5.454  0.2697  0.2681 -0.2754
 8568SOL    HW234038   4.833   2.707   5.518 -1.8050 -0.3027  0.6856
 8568SOL    HW334039   4.837   2.557   5.505 -0.1893 -0.1620 -0.8323
 8568SOL    MW434040   4.828   2.635   5.469 -0.0646  0.1360 -0.2221
 8569SOL     OW34041   3.444   5.714   3.950 -0.0184  0.6835 -0.2376
 8569SOL    HW234042   3.388   5.657   3.898 -0.3269 -1.7263  2.4519
 8569SOL    HW334043   3.384   5.769   4.000 -0.0922 -1.1613  1.8514
 8569SOL    MW434044   3.429   5.713   3.950 -0.0688  0.1222  0.3928
 8570SOL     OW34045   4.500   1.603   4.947 -0.6730 -0.5063 -0.1652
 8570SOL    HW234046   4.577   1.547   4.934 -0.1226  0.2280 -0.1411
 8570SOL    HW334047   4.460   1.571   5.028  0.0763 -0.3746  0.2659
 8570SOL    MW434048   4.505   1.592   4.956 -0.5016 -0.3920 -0.1051
 8571SOL     OW34049   1.832   2.392   4.696 -0.2570 -0.0402  0.0119
 8571SOL    HW234050   1.755   2.444   4.718 -1.0360 -0.6771 -1.1340
 8571SOL    HW334051   1.903   2.456   4.691 -0.5303  0.4638  1.7480
 8571SOL    MW434052   1.831   2.407   4.699 -0.3958 -0.0577  0.0897
 8572SOL     OW34053   3.316   3.532   0.016 -0.0893  0.2703 -0.7849
 8572SOL    HW234054   3.299   3.547   0.110  1.3079 -0.5629 -0.3722
 8572SOL    HW334055   3.229   3.529  -0.023 -0.6705  2.7662  0.1006
 8572SOL    MW434056   3.302   3.534   0.024  0.0184  0.4896 -0.6136
 8573SOL     OW34057   0.376   2.894   4.560 -0.3964  0.3539  0.8042
 8573SOL    HW234058   0.440   2.916   4.627  0.2352 -2.2667  1.2003
 8573SOL    HW334059   0.410   2.933   4.480  0.8179  0.4295  1.3350
 8573SOL    MW434060   0.389   2.902   4.558 -0.1528  0.0181  0.9265
 8574SOL     OW34061   3.633   4.286   0.653 -0.1417 -0.0580 -0.5057
 8574SOL    HW234062   3.587   4.325   0.727 -0.5843  0.6003 -1.1182
 8574SOL    HW334063   3.659   4.360   0.599  0.4911 -0.5116 -0.8319
 8574SOL    MW434064   3.630   4.301   0.655 -0.1166 -0.0310 -0.6296
 8575SOL     OW34065   2.861   1.996   5.820 -0.4334 -0.0222 -0.0074
 8575SOL    HW234066   2.837   2.051   5.746 -0.2149  0.5428  0.3382
 8575SOL    HW334067   2.813   1.915   5.806 -2.0413  0.8466  0.3306
 8575SOL    MW434068   2.852   1.992   5.809 -0.6167  0.1670  0.0828
 8576SOL     OW34069   0.598   0.930   5.010  0.1875 -0.4154 -0.5492
 8576SOL    HW234070   0.650   1.004   5.043  1.0433 -0.9533 -0.6576
 8576SOL    HW334071   0.609   0.934   4.915  0.3923 -0.7914 -0.5409
 8576SOL    MW434072   0.607   0.941   5.002  0.3274 -0.5360 -0.5624
 8577SOL     OW34073   5.048   6.312   1.805  0.7806 -0.3791 -0.4412
 8577SOL    HW234074   5.138   6.283   1.820  0.6483 -0.8349 -0.4904
 8577SOL    HW334075   4.994   6.245   1.848  0.4889  1.1268  1.7064
 8577SOL    MW434076   5.052   6.299   1.812  0.7246 -0.2405 -0.1643
 8578SOL     OW34077   4.107   3.849   1.496 -0.3811  0.1713 -0.6055
 8578SOL    HW234078   4.193   3.882   1.523 -1.0758  0.7306  1.0413
 8578SOL    HW334079   4.094   3.771   1.550 -1.1764  0.4627 -0.3677
 8578SOL    MW434080   4.117   3.843   1.507 -0.5777  0.2835 -0.3568
 8579SOL     OW34081   5.865   0.109   6.343  0.0158 -0.0368 -0.4595
 8579SOL    HW234082   5.781   0.119   6.299  0.0644  0.5585 -0.4362
 8579SOL    HW334083   5.891   0.199   6.365  1.1281 -0.1165 -1.3478
 8579SOL    MW434084   5.858   0.122   6.340  0.1689  0.0312 -0.5736
 8580SOL     OW34085   3.856   6.041   4.164  0.0972  0.2467  0.3005
 8580SOL    HW234086   3.782   6.060   4.106 -0.1071  0.0796  0.5003
 8580SOL    HW334087   3.869   5.946   4.157  1.1510  0.4473 -0.7396
 8580SOL    MW434088   3.848   6.031   4.155  0.2093  0.2511  0.1897
 8581SOL     OW34089   4.340   0.103   2.578  0.4424  0.7922  0.7019
 8581SOL    HW234090   4.379   0.186   2.602  2.0340 -0.4842  2.8918
 8581SOL    HW334091   4.248   0.111   2.605  0.3811  2.0633  0.1817
 8581SOL    MW434092   4.333   0.115   2.585  0.6443  0.7915  0.9222
 8582SOL     OW34093   3.030   3.505   1.240 -0.1378 -0.3436  0.0704
 8582SOL    HW234094   3.085   3.428   1.226 -0.4255 -0.7581  1.1543
 8582SOL    HW334095   3.011   3.505   1.334  0.5281  1.5101  0.2611
 8582SOL    MW434096   3.035   3.495   1.250 -0.0879 -0.1537  0.2386
 8583SOL     OW34097   3.763   3.607   2.230 -0.3199 -0.0097  0.1588
 8583SOL    HW234098   3.721   3.634   2.312 -0.7545 -0.2029  0.0027
 8583SOL    HW334099   3.700   3.548   2.190  0.6396 -1.3255  0.5308
 8583SOL    MW434100   3.750   3.603   2.236 -0.2506 -0.2088  0.1873
 8584SOL     OW34101   1.062   4.240   1.243 -0.6152  0.8777 -0.8082
 8584SOL    HW234102   1.057   4.334   1.261 -0.6694  1.4952 -3.5991
 8584SOL    HW334103   0.984   4.221   1.191 -1.3238 -1.0776  0.8126
 8584SOL    MW434104   1.051   4.250   1.238 -0.7159  0.7012 -0.9626
 8585SOL     OW34105   4.593   4.702   2.167 -0.6187  0.3942 -0.4355
 8585SOL    HW234106   4.560   4.615   2.189  0.2313  0.0576 -0.4487
 8585SOL    HW334107   4.660   4.719   2.234  1.4640 -0.3210 -2.2113
 8585SOL    MW434108   4.598   4.693   2.179 -0.2318  0.2555 -0.6715
 8586SOL     OW34109   2.646   5.714   2.289 -0.0782 -0.4606  0.4810
 8586SOL    HW234110   2.630   5.624   2.258 -0.1046 -0.2689 -0.0791
 8586SOL    HW334111   2.725   5.742   2.241 -1.1747  0.5017 -0.8540
 8586SOL    MW434112   2.655   5.706   2.279 -0.2263 -0.3084  0.2309
 8587SOL     OW34113   6.084   2.073   4.336  0.2320  0.3118  0.1516
 8587SOL    HW234114   6.069   1.992   4.385 -1.6480  0.8207  0.4754
 8587SOL    HW334115   6.140   2.046   4.262  3.8523 -0.3522  2.8367
 8587SOL    MW434116   6.090   2.058   4.333  0.4616  0.2913  0.5486
 8588SOL     OW34117   2.422   1.203   1.994 -0.1739 -0.0299 -0.2177
 8588SOL    HW234118   2.455   1.262   2.063 -1.0496 -1.4254  1.4638
 8588SOL    HW334119   2.500   1.181   1.943  0.6009  0.6102  0.6467
 8588SOL    MW434120   2.437   1.208   1.997 -0.1872 -0.1296  0.1182
 8589SOL     OW34121   4.575   2.165   4.146  0.2051  1.0278 -0.5672
 8589SOL    HW234122   4.596   2.257   4.161 -0.7058  1.3804 -1.3625
 8589SOL    HW334123   4.479   2.161   4.147  0.2223 -0.1633  0.8349
 8589SOL    MW434124   4.565   2.177   4.148  0.0872  0.9172 -0.4871
 8590SOL     OW34125   3.307   1.053   1.882  0.1674  0.1286  0.0624
 8590SOL    HW234126   3.245   0.981   1.898 -0.4855  0.5773 -0.3872
 8590SOL    HW334127   3.316   1.055   1.787 -0.8962  1.5189 -0.0289
 8590SOL    MW434128   3.300   1.043   1.872 -0.0591  0.3713 -0.0090
 8591SOL     OW34129   0.109   4.682   2.106 -0.5523 -0.5062  0.0517
 8591SOL    HW234130   0.136   4.647   2.021  0.5305 -1.1039  0.6183
 8591SOL    HW334131   0.177   4.745   2.130 -0.9838 -0.1460  0.3549
 8591SOL    MW434132   0.122   4.685   2.098 -0.4664 -0.5376  0.1664
 8592SOL     OW34133   6.363   0.310   5.080 -0.2683  0.6802  0.3681
 8592SOL    HW234134   6.318   0.268   5.006 -0.8819  0.3299  0.9280
 8592SOL    HW334135   6.422   0.373   5.039 -0.4578  0.3539 -0.4311
 8592SOL    MW434136   6.365   0.313   5.065 -0.3743  0.5909  0.3365
 8593SOL     OW34137   3.824   2.179   3.980 -0.0520  0.4384  0.1550
 8593SOL    HW234138   3.779   2.205   4.061  1.6332 -0.2648  1.3709
 8593SOL    HW334139   3.880   2.106   4.006 -2.3898 -2.5970 -2.4920
 8593SOL    MW434140   3.825   2.172   3.994 -0.1381 -0.0548 -0.0338
 8594SOL     OW34141   1.971   0.930   3.165  0.3486 -0.3112  0.4678
 8594SOL    HW234142   2.008   0.893   3.245  1.5345 -0.9509 -0.3549
 8594SOL    HW334143   2.036   0.911   3.097  0.3338  2.0326 -0.2736
 8594SOL    MW434144   1.984   0.922   3.167  0.5031 -0.0864  0.2614
 8595SOL     OW34145   1.176   4.392   1.565  0.0853 -0.1333 -0.3208
 8595SOL    HW234146   1.123   4.424   1.638 -0.2669  0.5839 -0.8808
 8595SOL    HW334147   1.228   4.467   1.537 -1.4009  0.2674 -2.2216
 8595SOL    MW434148   1.176   4.406   1.571 -0.1573  0.0142 -0.6454
 8596SOL     OW34149   3.363   6.215   1.829  0.1784 -0.5016  0.3753
 8596SOL    HW234150   3.405   6.238   1.912  1.7052 -1.5945 -0.0541
 8596SOL    HW334151   3.304   6.143   1.852 -0.9489  0.5311  0.8419
 8596SOL    MW434152   3.361   6.209   1.843  0.2311 -0.5095  0.3802
 8597SOL     OW34153   1.412   6.334   3.566  0.0017  0.7303  0.0189
 8597SOL    HW234154   1.363   6.299   3.492  2.2708  3.4646 -3.0375
 8597SOL    HW334155   1.414   6.262   3.629 -1.7656 -1.9160 -2.6554
 8597SOL    MW434156   1.405   6.320   3.565  0.0679  0.7419 -0.7372
 8598SOL     OW34157   6.177   2.333   0.929  0.3085 -0.6281  0.2282
 8598SOL    HW234158   6.121   2.257   0.943 -1.3580  0.8019  1.8317
 8598SOL    HW334159   6.117   2.403   0.904  1.2032  1.1549  2.6833
 8598SOL    MW434160   6.162   2.332   0.927  0.2067 -0.2042  0.7637
 8599SOL     OW34161   1.506   3.086   4.062  0.1579  0.0543 -0.1327
 8599SOL    HW234162   1.485   3.138   4.139 -0.6305  0.0422 -0.3309
 8599SOL    HW334163   1.588   3.042   4.084 -1.4331 -2.1687  1.8580
 8599SOL    MW434164   1.514   3.087   4.075 -0.1561 -0.2406  0.1038
 8600SOL     OW34165   6.128   1.891   0.208  0.3951  0.4594 -0.1760
 8600SOL    HW234166   6.114   1.910   0.116  1.6114 -0.4317 -0.5710
 8600SOL    HW334167   6.209   1.938   0.230  0.2654  0.4372  0.3545
 8600SOL    MW434168   6.137   1.900   0.199  0.5385  0.3389 -0.1581
 8601SOL     OW34169   2.647   3.315   5.493 -0.3992 -0.1024 -0.2962
 8601SOL    HW234170   2.663   3.345   5.582 -1.9800 -2.7762  1.0436
 8601SOL    HW334171   2.553   3.329   5.479 -0.5521 -1.4025 -0.7639
 8601SOL    MW434172   2.637   3.321   5.503 -0.6279 -0.6267 -0.1811
 8602SOL     OW34173   2.286   0.040   0.330 -0.2622 -0.5112  0.3894
 8602SOL    HW234174   2.364   0.020   0.279  0.5360  0.1941  1.2992
 8602SOL    HW334175   2.213   0.005   0.278  0.5739 -0.4166 -0.8804
 8602SOL    MW434176   2.286   0.033   0.317 -0.0466 -0.4057  0.3419
 8603SOL     OW34177   4.542   2.645   5.987 -0.2538 -0.0070  0.1274
 8603SOL    HW234178   4.463   2.664   5.936  0.1879  0.5744 -0.3492
 8603SOL    HW334179   4.514   2.577   6.049 -0.6579 -1.1156 -1.2287
 8603SOL    MW434180   4.528   2.639   5.989 -0.2488 -0.0766 -0.1144
 8604SOL     OW34181   6.035   5.470   2.650 -0.4385 -0.0659 -0.2681
 8604SOL    HW234182   6.115   5.498   2.694 -1.5476  2.9388  0.1305
 8604SOL    HW334183   6.048   5.492   2.558 -0.8376  0.6259 -0.1694
 8604SOL    MW434184   6.047   5.477   2.644 -0.6375  0.4218 -0.2025
 8605SOL     OW34185   5.248   0.019   1.490 -0.1616  0.4122 -0.0268
 8605SOL    HW234186   5.244  -0.076   1.482  1.6397  0.3657 -0.9819
 8605SOL    HW334187   5.223   0.052   1.404 -0.5269  0.7956  0.2212
 8605SOL    MW434188   5.244   0.011   1.478  0.0279  0.4567 -0.1201
 8606SOL     OW34189   5.074   4.353   4.943 -0.3302 -0.1070 -0.0334
 8606SOL    HW234190   5.148   4.297   4.921 -0.7032 -0.6020 -0.0463
 8606SOL    HW334191   5.112   4.425   4.994  0.2609  0.0371 -0.6698
 8606SOL    MW434192   5.089   4.355   4.947 -0.3014 -0.1533 -0.1191
 8607SOL     OW34193   1.795   6.178   5.969  0.1448 -1.1474 -0.1886
 8607SOL    HW234194   1.733   6.246   5.996  0.8640 -0.2732 -0.6639
 8607SOL    HW334195   1.777   6.165   5.876  0.9643 -0.5310 -0.4551
 8607SOL    MW434196   1.785   6.185   5.960  0.3478 -0.9507 -0.2864
 8608SOL     OW34197   3.319   0.510   3.947  0.1129  0.0120 -0.1269
 8608SOL    HW234198   3.343   0.602   3.941 -2.3739  0.6627 -1.1063
 8608SOL    HW334199   3.402   0.465   3.962  1.5791  2.2552 -1.0060
 8608SOL    MW434200   3.333   0.516   3.948 -0.0217  0.3938 -0.3721
 8609SOL     OW34201   1.686   6.351   3.568  0.1724 -0.2347  0.2140
 8609SOL    HW234202   1.591   6.360   3.559  0.0773  0.5668  1.8213
 8609SOL    HW334203   1.698   6.266   3.611  0.0914  0.3267  1.3628
 8609SOL    MW434204   1.675   6.341   3.572  0.1491 -0.0549  0.5777
 8610SOL     OW34205   1.248   1.565   2.743 -0.4712  0.0750  0.1537
 8610SOL    HW234206   1.218   1.655   2.733  2.0884  1.0094  0.1493
 8610SOL    HW334207   1.285   1.542   2.658 -0.3811 -0.7013  0.3912
 8610SOL    MW434208   1.249   1.574   2.730 -0.1216  0.0959  0.1845
 8611SOL     OW34209   5.131   0.378   1.085  0.4568  0.1153 -0.5853
 8611SOL    HW234210   5.120   0.459   1.035  1.5528  0.9546  0.4765
 8611SOL    HW334211   5.061   0.382   1.151  0.4368  0.1417 -0.6079
 8611SOL    MW434212   5.120   0.389   1.087  0.5988  0.2295 -0.4482
 8612SOL     OW34213   1.325   3.385   3.490 -0.2162 -0.0612  0.1702
 8612SOL    HW234214   1.309   3.291   3.500 -2.2265  0.3350  1.4061
 8612SOL    HW334215   1.413   3.399   3.526 -0.4707 -1.2831  1.3749
 8612SOL    MW434216   1.334   3.375   3.496 -0.5150 -0.1701  0.4922
 8613SOL     OW34217   3.077   6.227   4.251 -0.2671  0.0099  0.7689
 8613SOL    HW234218   3.095   6.314   4.285  0.2175 -0.7565  2.6321
 8613SOL    HW334219   3.129   6.168   4.307 -1.0069 -1.5190 -0.0711
 8613SOL    MW434220   3.086   6.230   4.263 -0.3008 -0.2929  0.9039
 8614SOL     OW34221   1.529   5.429   3.805 -0.2868 -0.1986 -0.3686
 8614SOL    HW234222   1.590   5.498   3.829 -0.5955  0.0037 -0.1672
 8614SOL    HW334223   1.576   5.348   3.827 -0.7164 -0.0277  1.3597
 8614SOL    MW434224   1.543   5.427   3.811 -0.3842 -0.1494 -0.1140
 8615SOL     OW34225   5.530   2.359   3.241  0.4237 -0.3060 -0.4978
 8615SOL    HW234226   5.591   2.285   3.253  0.6015 -0.5075 -2.3863
 8615SOL    HW334227   5.577   2.434   3.277  1.3756 -0.6507 -0.9797
 8615SOL    MW434228   5.544   2.359   3.248  0.5728 -0.3781 -0.8105
 8616SOL     OW34229   5.306   6.174   2.870  0.2502  0.1778 -0.1324
 8616SOL    HW234230   5.219   6.198   2.903 -0.2874 -0.9326 -0.6874
 8616SOL    HW334231   5.353   6.143   2.946 -0.3740 -0.6775 -0.0873
 8616SOL    MW434232   5.300   6.173   2.884  0.0969 -0.0815 -0.1997
 8617SOL     OW34233   3.058   1.031   5.264  1.1193 -0.2064  0.2857
 8617SOL    HW234234   3.042   1.123   5.241  1.4078 -0.7519 -2.5150
 8617SOL    HW334235   3.151   1.027   5.285  0.9660  0.2510  1.0671
 8617SOL    MW434236   3.068   1.043   5.263  1.1372 -0.2180  0.0193
 8618SOL     OW34237   4.677   6.268   2.554 -0.0644 -0.2782 -0.0606
 8618SOL    HW234238   4.631   6.232   2.629  1.2312  0.9746  1.4017
 8618SOL    HW334239   4.735   6.197   2.525 -2.2788 -1.6236 -1.4930
 8618SOL    MW434240   4.679   6.254   2.560 -0.1856 -0.2904 -0.0566
 8619SOL     OW34241   2.075   4.026   1.495 -0.3882 -0.2360  0.3812
 8619SOL    HW234242   2.045   4.088   1.428 -0.8072 -0.3080  0.4994
 8619SOL    HW334243   2.025   3.947   1.479 -0.4791 -0.2605  0.7691
 8619SOL    MW434244   2.065   4.024   1.484 -0.4555 -0.2487  0.4480
 8620SOL     OW34245   5.379   0.808   2.695  0.2053  0.0145  0.5198
 8620SOL    HW234246   5.467   0.785   2.727  0.0954 -2.8506 -0.8786
 8620SOL    HW334247   5.331   0.725   2.698 -1.6511  0.9518 -1.2090
 8620SOL    MW434248   5.385   0.794   2.700 -0.0541 -0.2399  0.1072
 8621SOL     OW34249   3.835   3.239   0.250 -0.0297  0.2728  0.1767
 8621SOL    HW234250   3.785   3.245   0.331  1.2420 -0.5269  1.0538
 8621SOL    HW334251   3.773   3.205   0.186 -0.6266 -0.6868  1.2295
 8621SOL    MW434252   3.820   3.236   0.252  0.0593  0.0407  0.4313
 8622SOL     OW34253   3.715   4.060   4.734 -0.0961  0.0885 -0.0525
 8622SOL    HW234254   3.737   4.036   4.823  1.6594  1.4769 -0.0630
 8622SOL    HW334255   3.677   4.148   4.741  1.1279  0.6937 -0.7583
 8622SOL    MW434256   3.713   4.068   4.746  0.2970  0.3515 -0.1470
 8623SOL     OW34257   4.808   6.147   0.246  0.1335 -0.1457  0.2222
 8623SOL    HW234258   4.799   6.226   0.300  0.4303 -0.2242  0.3892
 8623SOL    HW334259   4.862   6.176   0.172 -1.6482  0.4015 -0.9327
 8623SOL    MW434260   4.814   6.162   0.243 -0.0624 -0.0839  0.0919
 8624SOL     OW34261   4.259   0.928   2.876  0.6599 -0.4538  0.0440
 8624SOL    HW234262   4.330   0.990   2.893  0.3141 -0.5034  1.9225
 8624SOL    HW334263   4.240   0.890   2.962 -1.8644 -0.1806 -0.3001
 8624SOL    MW434264   4.266   0.932   2.890  0.2812 -0.4243  0.2464
 8625SOL     OW34265   2.122   4.702   1.882  0.3417 -0.2598  0.1007
 8625SOL    HW234266   2.176   4.625   1.867 -0.1163 -0.5200 -0.2411
 8625SOL    HW334267   2.108   4.703   1.977 -0.8321 -1.4319 -0.0271
 8625SOL    MW434268   2.127   4.692   1.893  0.1264 -0.4488  0.0387
 8626SOL     OW34269   1.962   5.771   1.801 -0.2146  0.0998 -0.4282
 8626SOL    HW234270   1.921   5.848   1.760  1.1640  0.0842 -1.9088
 8626SOL    HW334271   1.914   5.761   1.884  1.6473  4.5538  1.5249
 8626SOL    MW434272   1.950   5.780   1.807  0.2130  0.6854 -0.3659
 8627SOL     OW34273   4.799   5.533   2.786  0.8685 -0.4968 -0.0861
 8627SOL    HW234274   4.791   5.464   2.721  1.1460 -0.7883  0.1812
 8627SOL    HW334275   4.867   5.501   2.846  0.1520 -0.5473  0.7233
 8627SOL    MW434276   4.807   5.520   2.786  0.8105 -0.5419  0.0559
 8628SOL     OW34277   5.538   1.598   4.133 -0.3521  0.0098  0.1300
 8628SOL    HW234278   5.587   1.654   4.193 -0.6443  1.5666 -1.0025
 8628SOL    HW334279   5.605   1.563   4.074 -0.3172  0.3104 -0.0137
 8628SOL    MW434280   5.554   1.601   4.133 -0.3861  0.2549 -0.0384
 8629SOL     OW34281   2.611   5.964   6.394 -0.3121  0.1604 -0.3978
 8629SOL    HW234282   2.572   5.878   6.378 -0.4454  0.0640  0.4162
 8629SOL    HW334283   2.538   6.020   6.419 -0.3495  0.7334 -1.6929
 8629SOL    MW434284   2.596   5.960   6.395 -0.3346  0.2233 -0.4613
 8630SOL     OW34285   4.439   2.329   1.917 -0.0563 -0.4145 -0.3478
 8630SOL    HW234286   4.495   2.366   1.849 -0.4417 -0.6503 -0.7988
 8630SOL    HW334287   4.500   2.303   1.986  0.1968  1.3026  0.1054
 8630SOL    MW434288   4.455   2.330   1.917 -0.0737 -0.2190 -0.3475
 8631SOL     OW34289   1.528   2.457   2.136  0.4032 -0.2199 -0.1058
 8631SOL    HW234290   1.518   2.434   2.228  3.9574  0.3773  0.5688
 8631SOL    HW334291   1.616   2.427   2.113  0.2000  1.0000 -2.9055
 8631SOL    MW434292   1.538   2.450   2.145  0.8453  0.0199 -0.3862
 8632SOL     OW34293   4.722   3.678   4.178  0.0063  0.1959  0.0792
 8632SOL    HW234294   4.644   3.652   4.227 -2.0543  0.1712 -2.9701
 8632SOL    HW334295   4.691   3.745   4.117  2.5611  0.7346 -0.7562
 8632SOL    MW434296   4.708   3.684   4.177  0.0715  0.2637 -0.4333
 8633SOL     OW34297   4.370   4.644   0.401 -0.6716  0.0647 -0.4617
 8633SOL    HW234298   4.391   4.621   0.310  0.4501  0.5249 -0.3400
 8633SOL    HW334299   4.320   4.569   0.433  1.1647 -1.3334 -0.6741
 8633SOL    MW434300   4.366   4.631   0.393 -0.2813 -0.0591 -0.4737
 8634SOL     OW34301   6.395   6.330   5.994 -0.1702  0.2808  0.8417
 8634SOL    HW234302   6.409   6.309   6.086  0.5115 -0.1005  0.6617
 8634SOL    HW334303   6.337   6.406   5.995 -0.6572 -0.0899  1.5669
 8634SOL    MW434304   6.390   6.337   6.006 -0.1445  0.1816  0.9136
 8635SOL     OW34305   0.115   2.999   4.567  0.1304 -0.5234 -0.1573
 8635SOL    HW234306   0.210   2.989   4.580 -0.0195 -1.1196  0.5186
 8635SOL    HW334307   0.093   2.933   4.501  0.5924  1.3355 -2.3198
 8635SOL    MW434308   0.125   2.989   4.560  0.1716 -0.3568 -0.3534
 8636SOL     OW34309   4.499   6.043   5.463  0.2349 -0.8083  0.1805
 8636SOL    HW234310   4.466   5.966   5.417 -0.0730 -2.6763  3.2365
 8636SOL    HW334311   4.582   6.015   5.501 -1.2375 -0.8708  3.8584
 8636SOL    MW434312   4.506   6.029   5.462 -0.0000 -1.0630  1.0689
 8637SOL     OW34313   3.853   4.395   2.947 -0.7696 -0.0433  0.4483
 8637SOL    HW234314   3.775   4.411   3.000  0.0951  0.0925  1.7532
 8637SOL    HW334315   3.919   4.367   3.011  0.8043  1.7154 -0.3221
 8637SOL    MW434316   3.851   4.393   2.963 -0.4479  0.2067  0.5188
 8638SOL     OW34317   1.212   5.755   5.249 -0.4289 -0.0839 -0.1062
 8638SOL    HW234318   1.254   5.679   5.208  1.1059  0.5443  0.2289
 8638SOL    HW334319   1.284   5.816   5.264 -1.4052  0.8246  1.0051
 8638SOL    MW434320   1.227   5.753   5.246 -0.3552  0.1189  0.0846
 8639SOL     OW34321   5.664   5.675   6.014  0.3156  0.1980 -0.2043
 8639SOL    HW234322   5.660   5.583   5.988  0.5415 -0.0264  0.5262
 8639SOL    HW334323   5.607   5.720   5.953 -1.4322 -0.7157  0.6756
 8639SOL    MW434324   5.656   5.669   6.003  0.1148  0.0479  0.0082
 8640SOL     OW34325   2.550   2.377   6.343  0.6108  0.3688  1.1522
 8640SOL    HW234326   2.481   2.348   6.283  1.7361  0.3250 -0.1834
 8640SOL    HW334327   2.508   2.442   6.399 -0.9943 -1.0318  1.6609
 8640SOL    MW434328   2.536   2.381   6.343  0.5475  0.1782  1.0431
 8641SOL     OW34329   1.771   6.222   0.279  0.1447  0.1494  0.0513
 8641SOL    HW234330   1.724   6.299   0.313  0.0143  0.1895 -0.2149
 8641SOL    HW334331   1.723   6.147   0.314  0.0036  0.1911 -0.0498
 8641SOL    MW434332   1.758   6.222   0.288  0.1089  0.1602  0.0029
 8642SOL     OW34333   5.024   4.503   4.133 -0.2291  0.1324  0.2618
 8642SOL    HW234334   5.082   4.448   4.080 -3.7151 -0.7327 -3.1300
 8642SOL    HW334335   5.065   4.589   4.131  0.4033 -0.0651 -3.3157
 8642SOL    MW434336   5.037   4.507   4.125 -0.6056 -0.0078 -0.6577
 8643SOL     OW34337   1.451   4.536   0.614  0.0759 -0.1599  0.4088
 8643SOL    HW234338   1.421   4.447   0.633  0.2269 -0.5965 -1.2170
 8643SOL    HW334339   1.379   4.577   0.566  0.6080  0.0555 -0.2246
 8643SOL    MW434340   1.438   4.530   0.610  0.1661 -0.1891  0.1107
 8644SOL     OW34341   5.553   6.064   1.385  0.0988  0.8084  1.2673
 8644SOL    HW234342   5.613   5.990   1.377 -1.4434 -0.3645 -0.0044
 8644SOL    HW334343   5.574   6.101   1.471  1.9207 -0.1605  1.3101
 8644SOL    MW434344   5.564   6.059   1.395  0.1357  0.5258  1.1051
 8645SOL     OW34345   1.459   2.487   0.223 -0.0371 -0.1814 -0.1350
 8645SOL    HW234346   1.550   2.458   0.227 -0.0982 -1.3989 -3.6655
 8645SOL    HW334347   1.408   2.411   0.252  0.0067  0.0611  0.6038
 8645SOL    MW434348   1.464   2.473   0.227 -0.0394 -0.3100 -0.5033
 8646SOL     OW34349   1.329   5.832   3.335 -0.0971 -0.3829  0.0704
 8646SOL    HW234350   1.374   5.749   3.348 -0.5531 -0.7545 -0.6616
 8646SOL    HW334351   1.294   5.855   3.421  0.2632 -0.8133  0.3307
 8646SOL    MW434352   1.330   5.824   3.348 -0.1097 -0.4887  0.0082
 8647SOL     OW34353   5.362   0.863   4.822  0.2656 -0.1145 -0.1587
 8647SOL    HW234354   5.364   0.839   4.730 -0.9621 -1.2320  0.0715
 8647SOL    HW334355   5.344   0.957   4.823 -1.1547 -0.3560 -1.0523
 8647SOL    MW434356   5.360   0.872   4.810 -0.0838 -0.2938 -0.2463
 8648SOL     OW34357   2.851   2.319   1.747 -0.6876  0.3030 -0.4659
 8648SOL    HW234358   2.937   2.357   1.732 -0.3137 -1.1515 -2.4205
 8648SOL    HW334359   2.865   2.248   1.810 -0.7879  1.1192  0.5041
 8648SOL    MW434360   2.864   2.315   1.753 -0.6515  0.2188 -0.5958
 8649SOL     OW34361   3.121   4.458   4.669 -0.1071 -0.8488 -0.7619
 8649SOL    HW234362   3.038   4.504   4.654 -0.5754 -1.1154  0.7868
 8649SOL    HW334363   3.138   4.469   4.762  1.7065 -0.6790 -1.0827
 8649SOL    MW434364   3.112   4.465   4.679  0.0704 -0.8616 -0.5999
 8650SOL     OW34365   3.907   2.466   6.300 -0.6303  0.0335  0.0073
 8650SOL    HW234366   3.978   2.446   6.361  1.4663  1.9693 -1.6510
 8650SOL    HW334367   3.874   2.551   6.328 -0.6331  0.2771 -0.7392
 8650SOL    MW434368   3.912   2.474   6.312 -0.3541  0.3211 -0.3100
 8651SOL     OW34369   2.485   5.678   2.647 -0.1214  0.3329  0.1619
 8651SOL    HW234370   2.551   5.616   2.677 -0.9586 -0.2713  0.8064
 8651SOL    HW334371   2.531   5.763   2.645  0.7621 -0.1334  0.2466
 8651SOL    MW434372   2.500   5.681   2.651 -0.1153  0.1916  0.2581
 8652SOL     OW34373   1.447   4.544   1.789 -0.3281 -0.0636 -0.4459
 8652SOL    HW234374   1.392   4.496   1.851  0.0455  0.6003  0.4232
 8652SOL    HW334375   1.385   4.581   1.726 -0.7720 -0.3027 -0.1552
 8652SOL    MW434376   1.431   4.543   1.789 -0.3374 -0.0075 -0.2929
 8653SOL     OW34377   3.568   1.182   2.953 -0.2043 -0.6800  0.0401
 8653SOL    HW234378   3.599   1.126   2.881  0.9193  2.6205 -2.3142
 8653SOL    HW334379   3.611   1.147   3.031  4.0270 -0.5973 -1.9790
 8653SOL    MW434380   3.578   1.170   2.953  0.5022 -0.2337 -0.5369
 8654SOL     OW34381   2.849   2.009   0.729 -0.3891 -0.8099  0.4060
 8654SOL    HW234382   2.853   1.940   0.794 -1.2356 -1.1855  0.0807
 8654SOL    HW334383   2.791   1.975   0.661  0.5770 -0.4856 -0.6159
 8654SOL    MW434384   2.842   1.996   0.728 -0.3733 -0.8167  0.2282
 8655SOL     OW34385   3.643   2.678   1.710 -0.4613  0.0849 -0.0376
 8655SOL    HW234386   3.620   2.743   1.644  1.0172 -0.4685 -1.1390
 8655SOL    HW334387   3.710   2.721   1.763  1.4455 -0.8898 -1.5350
 8655SOL    MW434388   3.649   2.693   1.708 -0.0146 -0.1168 -0.3804
 8656SOL     OW34389   0.544   5.244   5.581  0.2256 -0.0670  0.2087
 8656SOL    HW234390   0.486   5.318   5.563  1.1874  0.2889 -1.7001
 8656SOL    HW334391   0.613   5.280   5.636  0.8228  0.5716 -0.9113
 8656SOL    MW434392   0.546   5.259   5.586  0.4313  0.0642 -0.1909
 8657SOL     OW34393   4.534   1.809   1.193  0.0822 -0.1998  0.0483
 8657SOL    HW234394   4.511   1.847   1.278  1.9656 -1.2551  1.1248
 8657SOL    HW334395   4.548   1.716   1.212  1.2932 -0.3182 -1.2477
 8657SOL    MW434396   4.533   1.802   1.207  0.4905 -0.3547  0.0194
 8658SOL     OW34397   3.438   6.137   0.864  0.1386 -0.1736  0.4206
 8658SOL    HW234398   3.403   6.056   0.828  1.2474 -0.3333 -0.3462
 8658SOL    HW334399   3.363   6.179   0.906 -0.7207 -0.9980 -0.2484
 8658SOL    MW434400   3.423   6.132   0.865  0.1715 -0.3035  0.2312
 8659SOL     OW34401   0.230   4.766   1.639  0.2178 -0.3336  0.2489
 8659SOL    HW234402   0.219   4.761   1.544  0.0805 -0.1896  0.2571
 8659SOL    HW334403   0.324   4.782   1.651  0.3499 -1.0248  0.1639
 8659SOL    MW434404   0.241   4.768   1.628  0.2171 -0.4058  0.2388
 8660SOL     OW34405   1.463   0.364   0.185  0.3192 -0.4083 -0.1699
 8660SOL    HW234406   1.416   0.381   0.104  0.1091  0.1605  0.0696
 8660SOL    HW334407   1.513   0.284   0.167 -1.1698 -1.3555 -0.2411
 8660SOL    MW434408   1.463   0.356   0.172  0.0950 -0.4582 -0.1477
 8661SOL     OW34409   4.153   4.558   5.238 -0.6944  0.3785 -0.1964
 8661SOL    HW234410   4.210   4.634   5.224  2.4410 -1.5547  0.8677
 8661SOL    HW334411   4.094   4.586   5.308  0.2644  1.9147  0.0691
 8661SOL    MW434412   4.153   4.572   5.246 -0.1542  0.3261 -0.0210
 8662SOL     OW34413   2.231   5.667   5.310 -0.4521  0.4823  0.5289
 8662SOL    HW234414   2.181   5.749   5.301  1.1288  1.5752  1.1592
 8662SOL    HW334415   2.322   5.694   5.306  0.1349 -1.1358  1.6839
 8662SOL    MW434416   2.236   5.682   5.309 -0.1661  0.4130  0.7644
 8663SOL     OW34417   0.367   4.426   5.511  0.5372 -0.1843 -0.1354
 8663SOL    HW234418   0.362   4.407   5.417  0.8516 -0.7112 -0.0473
 8663SOL    HW334419   0.455   4.461   5.524  1.3424 -2.2367  0.3262
 8663SOL    MW434420   0.378   4.428   5.500  0.6849 -0.5246 -0.0629
 8664SOL     OW34421   3.271   2.073   0.241  0.4107 -0.9690  0.1428
 8664SOL    HW234422   3.365   2.090   0.245  0.0185  2.4179 -1.3555
 8664SOL    HW334423   3.243   2.116   0.161 -2.5223 -1.4310  0.8177
 8664SOL    MW434424   3.280   2.081   0.231 -0.0280 -0.5831  0.0342
 8665SOL     OW34425   1.865   5.150   0.094  0.0684  0.0588  0.3503
 8665SOL    HW234426   1.863   5.085   0.164  0.9879 -0.6590 -0.2497
 8665SOL    HW334427   1.944   5.202   0.111  0.4533 -0.3017 -0.2909
 8665SOL    MW434428   1.875   5.148   0.105  0.2405 -0.0835  0.1865
 8666SOL     OW34429   4.296   2.578   3.773 -0.2087  0.0904 -0.2528
 8666SOL    HW234430   4.213   2.625   3.767  1.3666  3.0156 -0.8147
 8666SOL    HW334431   4.324   2.590   3.864 -1.0520 -2.2598  0.3932
 8666SOL    MW434432   4.289   2.586   3.784 -0.1121  0.1663 -0.2417
 8667SOL     OW34433   4.927   3.058   3.198  1.0020 -0.2451  0.8408
 8667SOL    HW234434   4.892   3.115   3.130  1.6257 -1.7251 -0.8094
 8667SOL    HW334435   4.860   3.057   3.266  0.3933  1.3578  0.2941
 8667SOL    MW434436   4.914   3.065   3.198  1.0040 -0.2289  0.5509
 8668SOL     OW34437   4.101   2.137   6.370  0.3764  0.2958 -0.1372
 8668SOL    HW234438   4.046   2.125   6.293 -0.3720  1.5360  0.1747
 8668SOL    HW334439   4.191   2.136   6.335  0.0162  3.7378 -1.5483
 8668SOL    MW434440   4.106   2.135   6.355  0.2302  0.9135 -0.2823
 8669SOL     OW34441   1.935   6.262   0.521 -0.8542 -0.4040  0.3312
 8669SOL    HW234442   1.921   6.242   0.428 -1.1850 -1.1549  0.5314
 8669SOL    HW334443   1.904   6.351   0.532  0.2596  0.1067 -0.5265
 8669SOL    MW434444   1.929   6.271   0.510 -0.7509 -0.4357  0.2444
 8670SOL     OW34445   3.971   4.147   2.036 -0.3199  0.0358  0.4211
 8670SOL    HW234446   4.045   4.156   2.097  1.4265 -0.3121 -1.5560
 8670SOL    HW334447   3.911   4.087   2.081  2.8584 -3.6872  0.1532
 8670SOL    MW434448   3.973   4.141   2.050  0.3298 -0.5013  0.1249
 8671SOL     OW34449   0.031   1.589   1.529 -0.0201  0.3496 -0.6445
 8671SOL    HW234450   0.080   1.655   1.479  1.6177  2.8281  3.6551
 8671SOL    HW334451  -0.047   1.636   1.559 -0.3188 -0.6237  0.1159
 8671SOL    MW434452   0.027   1.604   1.526  0.1566  0.5482  0.0231
 8672SOL     OW34453   5.244   0.717   3.083  0.1725  0.6367  0.2836
 8672SOL    HW234454   5.276   0.629   3.099  0.6655  1.0267  1.5930
 8672SOL    HW334455   5.317   0.774   3.108 -0.6055  1.4515  0.7654
 8672SOL    MW434456   5.258   0.713   3.089  0.1349  0.7956  0.5199
 8673SOL     OW34457   2.230   5.830   6.386 -0.0142 -0.1882  0.1778
 8673SOL    HW234458   2.276   5.914   6.394  0.7159 -0.4115 -1.2292
 8673SOL    HW334459   2.150   5.851   6.339  0.1497 -0.2579 -0.1390
 8673SOL    MW434460   2.226   5.844   6.380  0.1037 -0.2269 -0.0497
 8674SOL     OW34461   2.822   6.171   4.376 -0.2383 -0.4710 -0.7899
 8674SOL    HW234462   2.900   6.209   4.334  1.0278 -1.2492  0.7722
 8674SOL    HW334463   2.836   6.077   4.371 -0.0709 -0.5962  1.2575
 8674SOL    MW434464   2.834   6.164   4.370 -0.0492 -0.5902 -0.3136
 8675SOL     OW34465   0.671   2.961   0.775  0.1412 -0.0782 -0.4995
 8675SOL    HW234466   0.667   3.054   0.750 -2.6347 -0.3291 -1.3575
 8675SOL    HW334467   0.745   2.956   0.836 -0.5353  3.0022  0.7978
 8675SOL    MW434468   0.680   2.973   0.780 -0.3143  0.2951 -0.4415
 8676SOL     OW34469   4.663   1.626   5.756  0.1486  0.8591 -0.0986
 8676SOL    HW234470   4.641   1.658   5.843 -0.6515  0.3392 -0.0982
 8676SOL    HW334471   4.704   1.541   5.771  0.1970  0.8592 -0.2246
 8676SOL    MW434472   4.665   1.619   5.769  0.0494  0.7906 -0.1152
 8677SOL     OW34473   1.160   1.476   3.147  0.7005  0.1886 -0.3209
 8677SOL    HW234474   1.130   1.565   3.131 -0.4099 -0.0182  0.5012
 8677SOL    HW334475   1.161   1.467   3.242  1.4990 -0.4466 -0.3780
 8677SOL    MW434476   1.156   1.486   3.157  0.6594  0.0775 -0.2200
 8678SOL     OW34477   6.347   4.813   4.952  0.3155 -0.3464 -0.7320
 8678SOL    HW234478   6.422   4.793   4.895 -2.1362 -0.9579 -4.0273
 8678SOL    HW334479   6.333   4.732   5.002  1.3645 -0.4690 -0.5978
 8678SOL    MW434480   6.355   4.799   4.951  0.1305 -0.4433 -1.1491
 8679SOL     OW34481   1.858   0.278   0.288  0.0177 -0.0315  0.1442
 8679SOL    HW234482   1.799   0.351   0.307 -0.2364 -0.2373  0.1447
 8679SOL    HW334483   1.853   0.221   0.364 -1.1011 -0.9198 -0.5608
 8679SOL    MW434484   1.850   0.280   0.300 -0.1634 -0.1759  0.0512
 8680SOL     OW34485   1.865   2.602   6.279 -0.4430 -0.0134  0.2853
 8680SOL    HW234486   1.920   2.630   6.206 -0.8815 -0.3163 -0.1715
 8680SOL    HW334487   1.860   2.507   6.270 -1.1429  0.0204  0.2443
 8680SOL    MW434488   1.872   2.593   6.268 -0.5932 -0.0489  0.2196
 8681SOL     OW34489   2.202   3.476   2.844 -0.3539 -0.2631 -0.3618
 8681SOL    HW234490   2.175   3.535   2.774 -1.9382 -1.2145 -0.6127
 8681SOL    HW334491   2.247   3.404   2.799 -2.0545 -1.2691 -0.5611
 8681SOL    MW434492   2.205   3.474   2.829 -0.7873 -0.5214 -0.4212
 8682SOL     OW34493   0.451   5.134   2.382  0.0989 -0.0763 -0.4185
 8682SOL    HW234494   0.512   5.199   2.416  0.6212  0.0210 -1.5087
 8682SOL    HW334495   0.502   5.054   2.374  0.9981  0.6571 -3.9827
 8682SOL    MW434496   0.465   5.132   2.385  0.2865  0.0333 -1.0326
 8683SOL     OW34497   3.109   2.006   4.458  0.5154  0.6083 -0.0432
 8683SOL    HW234498   3.067   1.960   4.530  2.5449 -0.9499  0.2553
 8683SOL    HW334499   3.067   1.972   4.379 -0.3365  0.8200  0.3133
 8683SOL    MW434500   3.098   1.995   4.457  0.6708  0.4306  0.0432
 8684SOL     OW34501   3.777   5.054   4.361  0.0449  0.0540  0.0739
 8684SOL    HW234502   3.826   5.078   4.282  0.3271 -2.5047 -0.6380
 8684SOL    HW334503   3.730   4.974   4.336 -1.9901  0.6682  1.7284
 8684SOL    MW434504   3.778   5.047   4.347 -0.1864 -0.2026  0.1982
 8685SOL     OW34505   1.924   2.247   0.925 -0.2082 -0.7858 -0.7176
 8685SOL    HW234506   1.861   2.177   0.909 -0.6654 -0.1408 -1.8924
 8685SOL    HW334507   1.966   2.261   0.840 -0.1165  0.3486 -0.5027
 8685SOL    MW434508   1.921   2.240   0.911 -0.2564 -0.5510 -0.8443
 8686SOL     OW34509   1.310   5.136   1.354  0.0193 -0.1878  0.3451
 8686SOL    HW234510   1.332   5.055   1.400 -1.1364  0.3000  1.8484
 8686SOL    HW334511   1.330   5.205   1.416  0.4195  0.6543 -0.6966
 8686SOL    MW434512   1.315   5.134   1.368 -0.0804 -0.0123  0.4060
 8687SOL     OW34513   3.907   4.843   6.072 -0.2090  0.6469  0.1642
 8687SOL    HW234514   3.997   4.827   6.045 -0.5833  0.9219 -1.3662
 8687SOL    HW334515   3.854   4.805   6.002 -1.2764  0.7967  0.8620
 8687SOL    MW434516   3.912   4.836   6.059 -0.3992  0.7029  0.0543
 8688SOL     OW34517   5.607   2.182   1.461  0.4938  0.0807 -0.3956
 8688SOL    HW234518   5.681   2.154   1.407  1.2390 -2.8488  1.8567
 8688SOL    HW334519   5.545   2.109   1.456 -0.0169  0.3295  1.5469
 8688SOL    MW434520   5.609   2.168   1.453  0.5247 -0.2730  0.1578
 8689SOL     OW34521   2.182   1.139   5.460  0.2434 -0.4526 -0.0405
 8689SOL    HW234522   2.242   1.171   5.528 -3.2061  1.5795  2.3962
 8689SOL    HW334523   2.115   1.089   5.509 -1.2936 -0.6786 -2.2237
 8689SOL    MW434524   2.181   1.136   5.475 -0.4145 -0.2143 -0.0070
 8690SOL     OW34525   1.130   1.235   2.636  0.0619  0.0827  0.1191
 8690SOL    HW234526   1.142   1.295   2.562  0.7347 -0.9994 -0.6736
 8690SOL    HW334527   1.213   1.238   2.683  1.0261 -1.9731 -1.2859
 8690SOL    MW434528   1.143   1.244   2.632  0.2779 -0.3313 -0.1708
 8691SOL     OW34529   4.832   1.917   0.718  0.2432 -0.0132  0.0343
 8691SOL    HW234530   4.790   1.973   0.783  0.6484  0.2428  0.0765
 8691SOL    HW334531   4.886   1.857   0.769  0.4056  0.0559 -0.0581
 8691SOL    MW434532   4.833   1.917   0.733  0.3181  0.0297  0.0277
 8692SOL     OW34533   4.783   2.218   0.501  0.2086 -0.4657  0.1187
 8692SOL    HW234534   4.734   2.280   0.446  0.8078  0.2557  0.3784
 8692SOL    HW334535   4.716   2.168   0.547 -0.3053 -0.8242 -0.9772
 8692SOL    MW434536   4.768   2.220   0.499  0.2198 -0.4178  0.0084
 8693SOL     OW34537   0.683   6.319   2.640  0.1360 -0.5563 -0.0390
 8693SOL    HW234538   0.604   6.354   2.597 -0.3127  0.8277  1.8192
 8693SOL    HW334539   0.665   6.226   2.649 -1.1718 -0.3134  0.0875
 8693SOL    MW434540   0.670   6.312   2.635 -0.0958 -0.3417  0.2229
 8694SOL     OW34541   2.888   1.750   1.661  0.2847  0.3504  0.3235
 8694SOL    HW234542   2.830   1.812   1.616  0.6700 -0.6831 -1.7137
 8694SOL    HW334543   2.977   1.782   1.641  0.4625  0.2617  0.9554
 8694SOL    MW434544   2.892   1.763   1.653  0.3590  0.2023  0.1381
 8695SOL     OW34545   0.021   2.761   2.121  0.4131 -0.5965 -0.0816
 8695SOL    HW234546   0.034   2.670   2.094  0.0191 -0.6094 -0.2330
 8695SOL    HW334547   0.000   2.807   2.039 -2.2398 -0.8936  0.3498
 8695SOL    MW434548   0.020   2.755   2.106  0.0111 -0.6374 -0.0447
 8696SOL     OW34549   6.124   0.915   3.499  0.3032  0.1528  0.3104
 8696SOL    HW234550   6.116   0.840   3.558  1.3094  0.2219  0.5436
 8696SOL    HW334551   6.128   0.876   3.411  2.3042 -0.1820  0.5183
 8696SOL    MW434552   6.123   0.900   3.495  0.6999  0.1178  0.3686
 8697SOL     OW34553   1.302   3.851   1.161  0.1201  0.2811 -0.0188
 8697SOL    HW234554   1.259   3.846   1.076 -3.1260 -0.8027  1.4915
 8697SOL    HW334555   1.339   3.764   1.174 -0.1358  0.1722 -0.0041
 8697SOL    MW434556   1.301   3.839   1.151 -0.3420  0.1237  0.1824
 8698SOL     OW34557   5.793   1.828   4.066  0.3862 -0.2941  0.8851
 8698SOL    HW234558   5.878   1.823   4.110  0.5786  1.7839  0.8652
 8698SOL    HW334559   5.773   1.921   4.065 -1.0780 -0.5857 -0.6873
 8698SOL    MW434560   5.802   1.840   4.072  0.2184 -0.0584  0.6750
 8699SOL     OW34561   1.334   3.786   2.477  0.0158  0.5206  0.3572
 8699SOL    HW234562   1.358   3.703   2.518  0.0319  0.9946  1.3322
 8699SOL    HW334563   1.406   3.806   2.418  0.1012 -0.0616  0.2613
 8699SOL    MW434564   1.346   3.778   2.475  0.0292  0.5063  0.4732
 8700SOL     OW34565   6.118   1.499   3.312  0.2998  0.1990  0.0465
 8700SOL    HW234566   6.103   1.573   3.371  0.4109 -1.4225  2.2447
 8700SOL    HW334567   6.091   1.423   3.363  0.7462 -1.3432 -1.9213
 8700SOL    MW434568   6.112   1.499   3.327  0.3734 -0.2184  0.0769
 8701SOL     OW34569   5.963   6.122   2.053 -0.5637 -0.1190  0.4967
 8701SOL    HW234570   5.869   6.130   2.037 -0.4646 -0.3902 -0.2312
 8701SOL    HW334571   5.991   6.047   2.001  0.0379 -0.1272  0.8163
 8701SOL    MW434572   5.955   6.113   2.044 -0.4713 -0.1559  0.4428
 8702SOL     OW34573   5.698   4.952   3.823 -0.1382 -0.6701 -0.2688
 8702SOL    HW234574   5.767   4.983   3.765  0.0331 -1.2207 -0.3578
 8702SOL    HW334575   5.726   4.865   3.851  0.0755 -0.1782  1.1321
 8702SOL    MW434576   5.711   4.945   3.819 -0.0874 -0.6778 -0.0957
 8703SOL     OW34577   5.011   5.176   4.894 -0.4991 -0.1154 -0.3942
 8703SOL    HW234578   5.065   5.177   4.815 -0.7836  1.3850 -0.6140
 8703SOL    HW334579   5.065   5.217   4.961 -1.4667  1.8593 -0.7432
 8703SOL    MW434580   5.025   5.182   4.892 -0.6643  0.3431 -0.4692
 8704SOL     OW34581   2.779   3.194   2.999  0.6559  0.0561  0.0635
 8704SOL    HW234582   2.757   3.239   3.081 -0.9376 -0.4930 -0.0329
 8704SOL    HW334583   2.874   3.200   2.994  0.8596 -0.3270  2.2116
 8704SOL    MW434584   2.789   3.201   3.010  0.4725 -0.0669  0.3342
 8705SOL     OW34585   0.950   0.732   5.922  0.0286  0.0736  0.0425
 8705SOL    HW234586   1.000   0.793   5.867 -1.1719 -0.3461 -1.5863
 8705SOL    HW334587   1.007   0.716   5.997  1.3983  1.3015 -0.6728
 8705SOL    MW434588   0.964   0.738   5.925  0.0509  0.1802 -0.2668
 8706SOL     OW34589   4.007   4.519   3.810 -0.7258  0.4270 -0.7398
 8706SOL    HW234590   4.050   4.515   3.725 -0.0851  0.5843 -0.4281
 8706SOL    HW334591   3.946   4.592   3.803 -0.7172  0.4035 -1.0778
 8706SOL    MW434592   4.004   4.528   3.798 -0.6401  0.4447 -0.7433
 8707SOL     OW34593   6.396   4.765   5.718 -1.0227  0.2832  0.1842
 8707SOL    HW234594   6.474   4.711   5.708 -0.8388  0.6958 -0.7881
 8707SOL    HW334595   6.329   4.719   5.667 -0.7520  1.1581 -1.0056
 8707SOL    MW434596   6.397   4.752   5.710 -0.9627  0.4531 -0.1011
 8708SOL     OW34597   0.506   0.335   3.807 -0.0575 -0.2461 -0.2185
 8708SOL    HW234598   0.522   0.287   3.888 -0.8975  2.1096  1.4383
 8708SOL    HW334599   0.421   0.303   3.776 -0.3059 -0.2926  0.4998
 8708SOL    MW434600   0.497   0.324   3.814 -0.2011  0.0586  0.0948
 8709SOL     OW34601   3.254   5.268   2.877  0.1339 -0.0998 -0.0340
 8709SOL    HW234602   3.219   5.261   2.966 -0.2520 -0.1007 -0.1836
 8709SOL    HW334603   3.178   5.292   2.824  0.4110  0.1312 -0.3269
 8709SOL    MW434604   3.239   5.270   2.882  0.1195 -0.0694 -0.0924
 8710SOL     OW34605   4.522   3.823   6.158 -0.3593 -0.5064 -0.8571
 8710SOL    HW234606   4.442   3.824   6.105 -2.5892 -0.2950  2.2423
 8710SOL    HW334607   4.527   3.733   6.191  0.9039 -0.5922 -1.2179
 8710SOL    MW434608   4.512   3.811   6.155 -0.4868 -0.4899 -0.4958
 8711SOL     OW34609   2.775   0.363   5.182 -0.1169  0.6509  0.2460
 8711SOL    HW234610   2.739   0.315   5.257  0.7662 -0.4550 -0.0082
 8711SOL    HW334611   2.866   0.378   5.204  0.4342 -0.6146 -1.0191
 8711SOL    MW434612   2.782   0.358   5.195  0.0723  0.3380  0.0455
 8712SOL     OW34613   0.176   4.531   4.192 -0.2587  0.6836  0.4934
 8712SOL    HW234614   0.160   4.474   4.267  1.0621 -0.1514  0.1753
 8712SOL    HW334615   0.128   4.611   4.211 -0.7311  0.1135  1.7659
 8712SOL    MW434616   0.167   4.534   4.204 -0.1468  0.4982  0.6193
 8713SOL     OW34617   1.751   0.857   4.061  0.1939  0.4051 -0.4436
 8713SOL    HW234618   1.781   0.848   4.152 -0.9066 -1.5577 -0.2357
 8713SOL    HW334619   1.691   0.932   4.063 -1.3055 -0.7666  0.8949
 8713SOL    MW434620   1.747   0.866   4.074 -0.1491 -0.0085 -0.2396
 8714SOL     OW34621   0.080   3.038   4.835 -0.6718 -0.1677  0.0041
 8714SOL    HW234622   0.091   3.061   4.743 -0.9042  1.4439  0.3426
 8714SOL    HW334623   0.137   2.962   4.848  1.8538  1.4652 -0.7525
 8714SOL    MW434624   0.089   3.031   4.825 -0.3692  0.2604 -0.0511
 8715SOL     OW34625   3.079   6.151   6.313 -0.1228 -0.6082  0.0757
 8715SOL    HW234626   3.019   6.145   6.239  0.4176  2.2074 -0.6971
 8715SOL    HW334627   3.022   6.158   6.390 -0.7614 -0.1114 -0.4304
 8715SOL    MW434628   3.064   6.151   6.314 -0.1358 -0.1711 -0.0930
 8716SOL     OW34629   4.040   1.426   5.107 -0.5380  0.1435 -0.5456
 8716SOL    HW234630   4.130   1.459   5.111 -0.8732  0.9728  0.6427
 8716SOL    HW334631   4.047   1.335   5.134  0.0222  0.0112 -1.1075
 8716SOL    MW434632   4.053   1.418   5.111 -0.5083  0.2355 -0.4629
 8717SOL     OW34633   5.385   5.018   4.132 -0.0420 -0.4358 -0.2369
 8717SOL    HW234634   5.368   4.960   4.058 -0.5641  0.3064 -0.7211
 8717SOL    HW334635   5.298   5.043   4.163  0.1771 -0.4457  0.3879
 8717SOL    MW434636   5.371   5.014   4.126 -0.0820 -0.3391 -0.2184
 8718SOL     OW34637   5.811   3.932   5.386 -0.9999  0.2341 -0.2417
 8718SOL    HW234638   5.777   3.958   5.471 -0.7200  0.0680 -0.0760
 8718SOL    HW334639   5.842   4.013   5.347  0.0666  0.1352  0.3629
 8718SOL    MW434640   5.811   3.946   5.392 -0.8223  0.1991 -0.1401
 8719SOL     OW34641   1.037   3.011   2.933 -0.0572  0.1737  0.0994
 8719SOL    HW234642   0.950   3.034   2.967 -0.3888 -0.3011 -0.4080
 8719SOL    HW334643   1.038   2.915   2.931  0.9997  0.1272  1.3884
 8719SOL    MW434644   1.026   3.001   2.937  0.0385  0.1049  0.2025
 8720SOL     OW34645   4.919   4.476   3.583  0.5508  0.5420 -0.0191
 8720SOL    HW234646   4.873   4.489   3.666 -0.8660  0.3305 -0.7396
 8720SOL    HW334647   4.925   4.564   3.545 -1.2798  0.3259 -0.9222
 8720SOL    MW434648   4.914   4.489   3.589  0.1223  0.4856 -0.2333
 8721SOL     OW34649   5.463   0.317   2.283  0.2710 -0.5150  0.2185
 8721SOL    HW234650   5.463   0.411   2.298 -0.2810 -0.2821 -1.1002
 8721SOL    HW334651   5.371   0.294   2.271  0.2301 -1.5168  2.0366
 8721SOL    MW434652   5.451   0.326   2.284  0.1928 -0.6164  0.2844
 8722SOL     OW34653   0.826   1.642   6.254 -0.5518 -0.5598  0.3863
 8722SOL    HW234654   0.868   1.563   6.221 -0.8430 -0.8262  0.6434
 8722SOL    HW334655   0.897   1.692   6.295 -0.5135 -1.0784  0.9540
 8722SOL    MW434656   0.841   1.638   6.255 -0.5852 -0.6634  0.4951
 8723SOL     OW34657   2.353   2.461   0.391  0.3290  0.0077 -0.4985
 8723SOL    HW234658   2.402   2.526   0.443 -0.0968 -0.7821  0.9370
 8723SOL    HW334659   2.362   2.380   0.440 -2.1461 -0.2426 -0.3534
 8723SOL    MW434660   2.361   2.459   0.404 -0.0537 -0.1295 -0.2900
 8724SOL     OW34661   4.529   2.087   0.625  0.5595 -0.1129  0.1658
 8724SOL    HW234662   4.534   1.992   0.612 -0.3535 -0.1251 -0.1801
 8724SOL    HW334663   4.456   2.115   0.570  1.0853  0.8592 -0.0627
 8724SOL    MW434664   4.520   2.078   0.616  0.5084  0.0137  0.0900
 8725SOL     OW34665   3.263   3.227   0.034 -0.0502 -0.2749  0.0110
 8725SOL    HW234666   3.268   3.321   0.017  0.1341 -0.3007 -0.0823
 8725SOL    HW334667   3.173   3.212   0.062 -0.2004 -0.1380 -0.3920
 8725SOL    MW434668   3.252   3.237   0.035 -0.0457 -0.2602 -0.0545
 8726SOL     OW34669   5.587   5.415   5.900  0.5333 -0.6602 -0.7054
 8726SOL    HW234670   5.622   5.364   5.974 -1.3463  1.7114  2.0602
 8726SOL    HW334671   5.492   5.404   5.908  0.0010  3.3534  0.2798
 8726SOL    MW434672   5.579   5.407   5.911  0.2151  0.1822 -0.2105
 8727SOL     OW34673   2.792   6.317   5.272  0.0443 -0.3954 -0.3516
 8727SOL    HW234674   2.834   6.402   5.287  1.1164 -1.1290  1.0308
 8727SOL    HW334675   2.840   6.280   5.198 -0.4325  0.1843 -0.9658
 8727SOL    MW434676   2.804   6.323   5.264  0.1229 -0.4157 -0.2503
 8728SOL     OW34677   1.729   5.292   2.501  0.6099  0.0388 -0.0274
 8728SOL    HW234678   1.740   5.330   2.588  1.6757 -0.0050 -0.1295
 8728SOL    HW334679   1.754   5.362   2.441 -0.1432  0.0764 -0.3002
 8728SOL    MW434680   1.734   5.306   2.504  0.6511  0.0380 -0.0769
 8729SOL     OW34681   5.730   4.186   5.301 -1.0469  0.0596 -0.2976
 8729SOL    HW234682   5.695   4.260   5.351 -2.6680 -0.9521  0.1560
 8729SOL    HW334683   5.679   4.111   5.332 -0.4303 -1.0039 -1.7713
 8729SOL    MW434684   5.719   4.186   5.312 -1.1794 -0.2142 -0.4322
 8730SOL     OW34685   0.361   1.740   0.588  0.1415  0.1246  0.6417
 8730SOL    HW234686   0.308   1.811   0.553 -0.9938 -1.2062 -0.4538
 8730SOL    HW334687   0.441   1.740   0.535 -0.0048  0.3501  0.4235
 8730SOL    MW434688   0.365   1.749   0.576 -0.0276 -0.0212  0.4684
 8731SOL     OW34689   6.023   0.577   1.412  0.0069  0.3532 -1.1728
 8731SOL    HW234690   6.072   0.582   1.494 -0.1760  1.7213 -1.1140
 8731SOL    HW334691   6.009   0.484   1.398  1.7930 -0.0209 -0.7037
 8731SOL    MW434692   6.027   0.566   1.421  0.2184  0.4844 -1.1032
 8732SOL     OW34693   3.098   2.397   5.006  0.2801  0.3211 -0.3794
 8732SOL    HW234694   3.187   2.412   4.976  0.6063 -0.1890  0.2993
 8732SOL    HW334695   3.083   2.304   4.993  0.6014 -0.0182  1.4028
 8732SOL    MW434696   3.108   2.387   5.000  0.3655  0.2090 -0.0547
 8733SOL     OW34697   4.743   4.666   6.366 -0.0293  0.1332  0.3433
 8733SOL    HW234698   4.649   4.681   6.357  0.1353  0.0808 -1.9637
 8733SOL    HW334699   4.763   4.691   6.456 -2.2297  0.1986  0.8521
 8733SOL    MW434700   4.733   4.671   6.377 -0.2979  0.1349  0.1060
 8734SOL     OW34701   0.647   2.655   2.968  0.5984  0.5944  0.8877
 8734SOL    HW234702   0.558   2.670   2.936  1.0449  0.5622 -0.4634
 8734SOL    HW334703   0.670   2.569   2.934  1.2230  0.7094  1.0035
 8734SOL    MW434704   0.638   2.646   2.959  0.7397  0.6053  0.7247
 8735SOL     OW34705   1.642   0.319   3.408 -0.0097  0.4173 -0.2177
 8735SOL    HW234706   1.679   0.290   3.324  1.7913 -1.8798  1.2497
 8735SOL    HW334707   1.596   0.400   3.387  1.9863  0.9649 -3.0949
 8735SOL    MW434708   1.641   0.326   3.394  0.4913  0.1865 -0.4037
 8736SOL     OW34709   6.155   5.886   2.884  0.1940  0.3325  0.4260
 8736SOL    HW234710   6.185   5.797   2.897  0.1378  0.2549  0.0556
 8736SOL    HW334711   6.104   5.882   2.802 -2.7386 -0.0338  2.1166
 8736SOL    MW434712   6.152   5.874   2.875 -0.2004  0.2739  0.6002
 8737SOL     OW34713   6.378   0.483   5.347  0.0318  0.3298 -0.6575
 8737SOL    HW234714   6.310   0.423   5.318  0.3439  0.1062 -0.9338
 8737SOL    HW334715   6.332   0.547   5.402 -0.6098  0.9213 -1.8549
 8737SOL    MW434716   6.363   0.484   5.351 -0.0117  0.3784 -0.8519
 8738SOL     OW34717   3.070   0.030   6.107  0.1900 -0.7563 -0.1707
 8738SOL    HW234718   3.050   0.098   6.043  0.5002 -0.5981 -0.1009
 8738SOL    HW334719   3.059  -0.052   6.059 -0.1849 -0.6619 -0.2552
 8738SOL    MW434720   3.066   0.028   6.092  0.1815 -0.7230 -0.1726
 8739SOL     OW34721   1.356   4.687   4.204  0.1774 -0.2146  0.3049
 8739SOL    HW234722   1.292   4.628   4.165  1.5513 -1.3699 -0.2947
 8739SOL    HW334723   1.351   4.767   4.151  1.0282 -1.2604 -1.4387
 8739SOL    MW434724   1.347   4.690   4.192  0.4709 -0.5050 -0.0043
 8740SOL     OW34725   2.182   2.675   5.638  0.4539 -0.0612 -0.0116
 8740SOL    HW234726   2.171   2.729   5.716 -2.0449  1.5969 -1.3641
 8740SOL    HW334727   2.225   2.732   5.575 -0.0620 -0.4249 -0.7102
 8740SOL    MW434728   2.186   2.689   5.640  0.0562  0.1096 -0.2822
 8741SOL     OW34729   4.877   1.657   5.008 -0.2812 -0.5566  0.6130
 8741SOL    HW234730   4.815   1.728   5.024  0.2136 -0.1310  0.6872
 8741SOL    HW334731   4.916   1.678   4.923  2.0143  0.9338  1.8938
 8741SOL    MW434732   4.874   1.669   4.999  0.0869 -0.3038  0.7918
 8742SOL     OW34733   0.328   1.183   2.998 -0.2465 -0.4451 -0.0484
 8742SOL    HW234734   0.289   1.251   3.054  3.0419  0.7412  1.0320
 8742SOL    HW334735   0.285   1.194   2.914 -1.3813  1.5137  0.7132
 8742SOL    MW434736   0.317   1.193   2.995  0.0376 -0.0302  0.1946
 8743SOL     OW34737   0.945   1.652   0.801  0.1892  0.4258  0.8188
 8743SOL    HW234738   1.033   1.621   0.780  0.2186  0.9458  0.1295
 8743SOL    HW334739   0.932   1.627   0.893  2.3093  3.0350  1.9917
 8743SOL    MW434740   0.955   1.645   0.811  0.4728  0.8387  0.8826
 8744SOL     OW34741   4.970   2.752   1.669 -0.4860 -0.0447 -0.5902
 8744SOL    HW234742   5.061   2.729   1.654 -1.0445 -2.6886 -0.4729
 8744SOL    HW334743   4.973   2.834   1.718  1.8968 -1.0867  1.2219
 8744SOL    MW434744   4.982   2.760   1.673 -0.2453 -0.5310 -0.3356
 8745SOL     OW34745   5.270   4.723   1.191 -0.1372 -0.3147 -0.8744
 8745SOL    HW234746   5.353   4.763   1.216  0.2822 -1.9506  0.5101
 8745SOL    HW334747   5.271   4.726   1.095  2.6839 -2.4300 -1.0480
 8745SOL    MW434748   5.281   4.729   1.182  0.2904 -0.8096 -0.7147
 8746SOL     OW34749   3.156   3.330   1.892  0.5077 -0.2279 -0.3793
 8746SOL    HW234750   3.240   3.319   1.935  0.8723  2.5919 -0.2364
 8746SOL    HW334751   3.100   3.263   1.932  2.0277 -0.5911  1.2470
 8746SOL    MW434752   3.159   3.319   1.903  0.7563  0.0962 -0.1459
 8747SOL     OW34753   3.696   2.239   4.222  0.4518  0.0779 -0.1750
 8747SOL    HW234754   3.758   2.286   4.278 -1.1125  0.4019  1.4065
 8747SOL    HW334755   3.635   2.307   4.192 -0.9341 -0.6295  0.8855
 8747SOL    MW434756   3.696   2.255   4.225  0.0626  0.0273  0.1736
 8748SOL     OW34757   5.929   1.923   2.456 -0.3719 -0.0427 -0.2526
 8748SOL    HW234758   5.848   1.912   2.507 -1.2422 -2.7479 -1.9914
 8748SOL    HW334759   5.908   1.886   2.371  2.8775 -1.3499 -0.6036
 8748SOL    MW434760   5.916   1.916   2.452 -0.0580 -0.5721 -0.5283
 8749SOL     OW34761   5.740   0.855   3.145 -0.0129  0.2144  0.4235
 8749SOL    HW234762   5.703   0.881   3.229 -1.1451  1.2483 -0.3626
 8749SOL    HW334763   5.759   0.937   3.100 -0.9713 -0.2839 -0.9810
 8749SOL    MW434764   5.737   0.869   3.150 -0.2888  0.2851  0.1345
 8750SOL     OW34765   1.342   2.098   1.661  0.2662  0.0128 -0.2257
 8750SOL    HW234766   1.393   2.058   1.731 -0.1310  2.5101  1.5984
 8750SOL    HW334767   1.346   2.192   1.678 -2.5196  0.5060 -1.6878
 8750SOL    MW434768   1.349   2.105   1.672 -0.1537  0.4073 -0.1779
 8751SOL     OW34769   1.469   5.755   0.175  0.0938  0.2894  0.3977
 8751SOL    HW234770   1.383   5.786   0.145 -0.7261 -0.9362  1.3529
 8751SOL    HW334771   1.528   5.773   0.102 -1.5414 -1.4637 -1.4700
 8751SOL    MW434772   1.465   5.762   0.162 -0.2301 -0.1036  0.2773
 8752SOL     OW34773   1.540   0.903   3.447 -0.1545  0.7291 -0.1051
 8752SOL    HW234774   1.527   0.809   3.429  0.2345  0.6296  0.1157
 8752SOL    HW334775   1.459   0.930   3.490  0.4437  0.0354  1.5774
 8752SOL    MW434776   1.528   0.894   3.451 -0.0242  0.6244  0.1460
 8753SOL     OW34777   6.003   3.271   5.986 -0.7123 -0.0144  0.4270
 8753SOL    HW234778   6.077   3.331   5.988 -0.9223  0.2666  2.6951
 8753SOL    HW334779   5.939   3.309   6.047 -1.5141 -1.6903  0.7106
 8753SOL    MW434780   6.004   3.284   5.995 -0.8458 -0.1984  0.7637
 8754SOL     OW34781   3.407   0.988   4.147  0.0986  0.5138  0.0341
 8754SOL    HW234782   3.366   1.070   4.174  0.2129  0.3936  0.5794
 8754SOL    HW334783   3.499   1.010   4.135  0.4171  0.1607  1.5952
 8754SOL    MW434784   3.413   1.002   4.149  0.1557  0.4514  0.3120
 8755SOL     OW34785   6.220   6.089   5.040 -0.2193  0.0594  0.5348
 8755SOL    HW234786   6.297   6.033   5.030  1.0916  1.8840  0.0380
 8755SOL    HW334787   6.160   6.059   4.972  1.7331  1.2382 -1.8394
 8755SOL    MW434788   6.222   6.077   5.030  0.2113  0.4557  0.1560
 8756SOL     OW34789   5.430   5.430   1.503 -0.2331  0.0377  0.2649
 8756SOL    HW234790   5.358   5.483   1.469  0.2534  0.2223 -0.5014
 8756SOL    HW334791   5.501   5.493   1.516 -0.2322 -0.1227  1.1168
 8756SOL    MW434792   5.430   5.446   1.501 -0.1688  0.0409  0.2762
 8757SOL     OW34793   0.731   2.192   5.682 -0.1530  0.2907  0.0706
 8757SOL    HW234794   0.699   2.184   5.592 -1.2377 -0.8390  0.5161
 8757SOL    HW334795   0.748   2.285   5.693  0.1701  0.4302 -1.3577
 8757SOL    MW434796   0.729   2.203   5.671 -0.2534  0.1601 -0.0591
 8758SOL     OW34797   2.775   2.438   2.761 -0.1429 -0.0708  0.6255
 8758SOL    HW234798   2.864   2.425   2.727 -0.4642  0.7264 -0.5791
 8758SOL    HW334799   2.747   2.351   2.787  0.7544 -0.4374  0.4134
 8758SOL    MW434800   2.783   2.425   2.759 -0.0669 -0.0140  0.4386
 8759SOL     OW34801   4.938   5.317   5.374 -0.1179 -0.1195  0.1122
 8759SOL    HW234802   5.005   5.380   5.348  1.3851 -2.0792 -1.0487
 8759SOL    HW334803   4.896   5.291   5.292 -1.7175  0.3806  0.7280
 8759SOL    MW434804   4.941   5.322   5.359 -0.1306 -0.3121  0.0403
 8760SOL     OW34805   2.599   6.426   0.504 -0.3449  0.2538 -0.2340
 8760SOL    HW234806   2.692   6.404   0.497 -0.1408  0.3134  1.7813
 8760SOL    HW334807   2.592   6.513   0.464  0.0213 -0.6270 -2.3529
 8760SOL    MW434808   2.610   6.435   0.498 -0.2697  0.1454 -0.2477
 8761SOL     OW34809   1.137   4.089   3.159 -0.0417 -0.6424  0.4342
 8761SOL    HW234810   1.048   4.079   3.195 -0.1979 -2.1327 -0.2817
 8761SOL    HW334811   1.163   4.177   3.185 -0.6605 -1.1155  3.0076
 8761SOL    MW434812   1.128   4.099   3.167 -0.1440 -0.9014  0.6793
 8762SOL     OW34813   2.908   3.461   4.383  0.1522  0.3474 -0.4313
 8762SOL    HW234814   2.943   3.411   4.456  0.4332 -0.2934 -0.9889
 8762SOL    HW334815   2.827   3.499   4.416 -0.1476 -0.6079 -0.0302
 8762SOL    MW434816   2.902   3.459   4.397  0.1497  0.1368 -0.4520
 8763SOL     OW34817   3.282   1.325   6.416 -0.6477  0.4038 -0.2468
 8763SOL    HW234818   3.227   1.249   6.396  0.6441 -0.0927 -2.1810
 8763SOL    HW334819   3.236   1.398   6.375 -1.3131  0.5036  0.6446
 8763SOL    MW434820   3.269   1.325   6.408 -0.5651  0.3514 -0.3844
 8764SOL     OW34821   5.801   0.404   2.263  0.2102  0.1831  0.4873
 8764SOL    HW234822   5.892   0.423   2.238  0.5292 -0.9182  0.7511
 8764SOL    HW334823   5.806   0.380   2.356 -0.0472 -1.7167  0.0497
 8764SOL    MW434824   5.814   0.403   2.272  0.2184 -0.2128  0.4644
 8765SOL     OW34825   5.750   0.702   0.215  0.5245  0.0446 -0.2109
 8765SOL    HW234826   5.836   0.687   0.254  1.1601  2.7600 -0.3423
 8765SOL    HW334827   5.690   0.701   0.289  1.1675  1.2888  0.3617
 8765SOL    MW434828   5.754   0.700   0.230  0.6932  0.5670 -0.1527
 8766SOL     OW34829   1.596   4.932   0.663  0.7275  0.4904 -0.0171
 8766SOL    HW234830   1.543   4.975   0.597 -2.9858 -1.3964  1.4034
 8766SOL    HW334831   1.627   4.852   0.620  2.0131  1.2994 -0.6630
 8766SOL    MW434832   1.593   4.927   0.649  0.4072  0.3482  0.0851
 8767SOL     OW34833   3.142   6.020   1.251 -0.2637  0.0007 -0.0207
 8767SOL    HW234834   3.066   6.004   1.307 -0.4255  0.0417 -0.2241
 8767SOL    HW334835   3.185   5.935   1.242 -0.5518 -0.1171 -0.2866
 8767SOL    MW434836   3.138   6.007   1.257 -0.3230 -0.0094 -0.0826
 8768SOL     OW34837   3.480   5.200   3.484  0.2851  0.4058  0.3280
 8768SOL    HW234838   3.407   5.222   3.541  0.9634  4.3884 -0.1037
 8768SOL    HW334839   3.447   5.214   3.396  0.7287 -0.7937 -0.0556
 8768SOL    MW434840   3.466   5.205   3.480  0.4331  0.7730  0.2205
 8769SOL     OW34841   2.244   0.846   2.309 -0.3392 -0.1738 -0.9133
 8769SOL    HW234842   2.238   0.894   2.227  0.9778 -0.0642 -0.9724
 8769SOL    HW334843   2.309   0.895   2.360  1.3661 -2.0669 -1.1337
 8769SOL    MW434844   2.252   0.859   2.305  0.0596 -0.4091 -0.9501
 8770SOL     OW34845   0.034   1.616   4.970  0.2898  0.6911 -0.1390
 8770SOL    HW234846  -0.007   1.702   4.957  1.4632  1.0450 -1.8330
 8770SOL    HW334847  -0.001   1.585   5.053 -1.3791  2.1083 -0.2663
 8770SOL    MW434848   0.024   1.623   4.980  0.2245  0.9248 -0.3793
 8771SOL     OW34849   3.117   3.315   5.029 -0.0403 -0.1106  0.0412
 8771SOL    HW234850   3.080   3.250   5.087 -1.2185 -0.7917 -1.4095
 8771SOL    HW334851   3.098   3.283   4.941 -0.3039  1.9781 -0.7297
 8771SOL    MW434852   3.110   3.302   5.025 -0.2305  0.0751 -0.2519
 8772SOL     OW34853   3.692   3.902   5.239 -0.5418  0.8668  0.4907
 8772SOL    HW234854   3.785   3.882   5.227 -0.7004 -0.3049  1.0650
 8772SOL    HW334855   3.661   3.921   5.151 -0.0753 -0.2378  0.0637
 8772SOL    MW434856   3.701   3.901   5.226 -0.5012  0.5665  0.5102
 8773SOL     OW34857   0.330   4.488   1.635 -0.0711  0.0532  0.3370
 8773SOL    HW234858   0.384   4.489   1.556 -2.0702 -1.4639 -1.1718
 8773SOL    HW334859   0.289   4.575   1.636  1.1926  0.6689  0.6624
 8773SOL    MW434860   0.331   4.500   1.624 -0.1681 -0.0658  0.1809
 8774SOL     OW34861   2.458   1.854   2.586 -0.0918  0.1111  0.0968
 8774SOL    HW234862   2.459   1.881   2.494  0.4474  0.0972  0.0940
 8774SOL    HW334863   2.409   1.772   2.586 -1.2105  0.7654  0.0186
 8774SOL    MW434864   2.452   1.847   2.573 -0.1683  0.1956  0.0861
 8775SOL     OW34865   1.666   1.629   5.833 -0.7039 -0.0286 -0.2401
 8775SOL    HW234866   1.708   1.693   5.776  2.6475 -0.8054  1.1321
 8775SOL    HW334867   1.674   1.546   5.787 -1.5783 -0.0730 -0.3306
 8775SOL    MW434868   1.673   1.627   5.820 -0.3771 -0.1369 -0.0710
 8776SOL     OW34869   2.355   4.576   3.657  0.4473 -0.0492  0.6573
 8776SOL    HW234870   2.266   4.607   3.643  0.8929  1.5114  1.1255
 8776SOL    HW334871   2.368   4.579   3.752  0.7682 -0.9961  0.6653
 8776SOL    MW434872   2.345   4.580   3.668  0.5484  0.0318  0.7201
 8777SOL     OW34873   4.458   3.808   2.153  0.3437 -0.5032  0.0926
 8777SOL    HW234874   4.539   3.844   2.116  0.8414 -1.8976 -0.2397
 8777SOL    HW334875   4.457   3.841   2.243  0.2606  1.1114 -0.4628
 8777SOL    MW434876   4.469   3.817   2.160  0.3984 -0.4742 -0.0245
 8778SOL     OW34877   0.992   2.915   5.676  0.0271 -0.3604  0.0623
 8778SOL    HW234878   0.944   2.834   5.659 -1.2598  0.2142  0.8048
 8778SOL    HW334879   1.000   2.956   5.590  0.2305 -1.0141 -0.2413
 8778SOL    MW434880   0.987   2.909   5.662 -0.1158 -0.3708  0.1202
 8779SOL     OW34881   6.278   1.362   1.314  0.1981  0.2324  0.3581
 8779SOL    HW234882   6.355   1.333   1.364  1.4177  0.6878 -1.1613
 8779SOL    HW334883   6.253   1.285   1.262 -0.6750 -0.0520  1.1813
 8779SOL    MW434884   6.285   1.348   1.314  0.2438  0.2549  0.2663
 8780SOL     OW34885   1.292   1.982   5.511 -0.2712  0.0618 -0.3323
 8780SOL    HW234886   1.320   2.005   5.423 -0.9080  0.5941 -0.4054
 8780SOL    HW334887   1.197   1.979   5.506 -0.4565  2.0750  0.7780
 8780SOL    MW434888   1.283   1.985   5.499 -0.3797  0.3977 -0.1954
 8781SOL     OW34889   0.225   1.962   0.505 -0.2499  0.0735  0.7075
 8781SOL    HW234890   0.234   2.015   0.425 -0.4071 -1.6626 -0.5201
 8781SOL    HW334891   0.133   1.936   0.506  0.2127 -1.6762  0.2542
 8781SOL    MW434892   0.214   1.966   0.494 -0.2096 -0.3864  0.4858
 8782SOL     OW34893   3.708   3.765   0.203  0.6422 -0.1322 -0.2341
 8782SOL    HW234894   3.689   3.673   0.184  2.8081 -0.5901 -0.4037
 8782SOL    HW334895   3.746   3.764   0.291  3.0395  0.2076 -1.1869
 8782SOL    MW434896   3.710   3.753   0.212  1.2442 -0.1477 -0.3822
 8783SOL     OW34897   4.743   3.504   3.034 -0.3359 -0.3135 -0.2422
 8783SOL    HW234898   4.711   3.547   3.113 -2.5078 -1.8098 -0.2312
 8783SOL    HW334899   4.801   3.435   3.066  0.8027  0.6515 -0.1329
 8783SOL    MW434900   4.747   3.500   3.048 -0.4722 -0.3836 -0.2263
 8784SOL     OW34901   1.090   2.014   0.706  0.1467 -0.0001  0.0872
 8784SOL    HW234902   1.131   2.098   0.727 -1.1710  0.8852 -0.7860
 8784SOL    HW334903   1.151   1.949   0.741  0.5371  1.3133  1.9965
 8784SOL    MW434904   1.104   2.017   0.714  0.0243  0.2900  0.2239
 8785SOL     OW34905   6.207   4.507   1.227 -0.1205  0.0406 -0.2726
 8785SOL    HW234906   6.214   4.412   1.239  0.8923  0.3383  1.9225
 8785SOL    HW334907   6.116   4.520   1.201 -0.9044 -1.4048  1.4660
 8785SOL    MW434908   6.196   4.496   1.226 -0.0903 -0.1108  0.2464
 8786SOL     OW34909   5.962   2.158   1.024  0.4127 -0.0431 -0.1112
 8786SOL    HW234910   5.894   2.176   1.089  0.2374  0.3996 -0.4152
 8786SOL    HW334911   5.922   2.098   0.962 -0.1723  1.2664 -1.0537
 8786SOL    MW434912   5.948   2.153   1.024  0.3124  0.1881 -0.2756
 8787SOL     OW34913   3.679   0.071   0.127 -1.1082 -0.5301  0.1545
 8787SOL    HW234914   3.694   0.062   0.033 -2.8644 -0.7044 -0.1462
 8787SOL    HW334915   3.723  -0.004   0.166  0.5590  0.1179 -0.3851
 8787SOL    MW434916   3.686   0.060   0.120 -1.1200 -0.4676  0.0436
 8788SOL     OW34917   6.319   4.595   0.351 -0.1784  0.3922  0.2032
 8788SOL    HW234918   6.338   4.502   0.357 -2.5338 -0.1900 -0.3947
 8788SOL    HW334919   6.259   4.612   0.424  0.7117  1.6168  0.6986
 8788SOL    MW434920   6.313   4.585   0.362 -0.3717  0.4769  0.1897
 8789SOL     OW34921   3.405   4.407   4.808 -0.0563 -0.0560 -0.1299
 8789SOL    HW234922   3.418   4.501   4.821  3.3175 -0.3543 -0.3510
 8789SOL    HW334923   3.449   4.388   4.725  1.6001 -2.1746  1.1218
 8789SOL    MW434924   3.413   4.417   4.799  0.6073 -0.3749  0.0060
 8790SOL     OW34925   4.801   3.111   5.876  0.1872  0.0654  0.1801
 8790SOL    HW234926   4.742   3.111   5.951 -1.0931 -2.8509 -0.6920
 8790SOL    HW334927   4.821   3.019   5.862 -1.2150  0.2114 -4.2065
 8790SOL    MW434928   4.796   3.099   5.884 -0.1667 -0.3001 -0.5138
 8791SOL     OW34929   2.555   0.711   4.551 -0.5243  0.5768  0.2645
 8791SOL    HW234930   2.625   0.769   4.521  0.1390 -0.4630 -0.2505
 8791SOL    HW334931   2.586   0.623   4.532 -1.6399  0.0469  0.7568
 8791SOL    MW434932   2.568   0.707   4.544 -0.5840  0.3697  0.2615
 8792SOL     OW34933   2.778   5.619   3.370 -0.5282 -0.0309 -0.2902
 8792SOL    HW234934   2.742   5.668   3.444  2.1988  1.7038  0.0171
 8792SOL    HW334935   2.764   5.676   3.294  0.5715  0.2168 -0.3276
 8792SOL    MW434936   2.771   5.633   3.370 -0.0233  0.2307 -0.2546
 8793SOL     OW34937   5.387   1.292   5.305 -0.0510 -0.3732 -0.4973
 8793SOL    HW234938   5.383   1.205   5.345  1.1396 -0.5398 -0.6909
 8793SOL    HW334939   5.475   1.324   5.327 -0.8655  1.2986  0.5941
 8793SOL    MW434940   5.398   1.285   5.313 -0.0014 -0.1746 -0.3788
 8794SOL     OW34941   4.397   2.189   4.763  0.0575 -0.5942  0.1658
 8794SOL    HW234942   4.352   2.121   4.712 -0.8681  0.3455 -0.3037
 8794SOL    HW334943   4.331   2.257   4.776  1.0896  0.4212  0.2335
 8794SOL    MW434944   4.382   2.189   4.758  0.0716 -0.3363  0.1128
 8795SOL     OW34945   3.491   4.199   3.296  0.3904 -0.4169 -0.6445
 8795SOL    HW234946   3.535   4.167   3.217 -0.1920 -0.6782 -0.8730
 8795SOL    HW334947   3.479   4.121   3.350 -0.9650 -0.6053 -1.1671
 8795SOL    MW434948   3.495   4.184   3.293  0.1347 -0.4762 -0.7436
 8796SOL     OW34949   4.492   3.389   0.619 -0.0774  0.6046 -0.0248
 8796SOL    HW234950   4.535   3.401   0.704 -0.7627  1.5534  0.2085
 8796SOL    HW334951   4.545   3.324   0.574  0.5652  0.4336  0.9512
 8796SOL    MW434952   4.505   3.382   0.624 -0.0831  0.7072  0.1347
 8797SOL     OW34953   3.673   1.097   5.368 -0.1031 -0.0616 -0.1307
 8797SOL    HW234954   3.613   1.141   5.428  1.0559 -0.4197  1.3410
 8797SOL    HW334955   3.683   1.159   5.295  0.2021  1.4046  1.1074
 8797SOL    MW434956   3.666   1.111   5.366  0.0901  0.0846  0.2268
 8798SOL     OW34957   3.694   3.590   1.692  0.8007 -0.4238  0.0709
 8798SOL    HW234958   3.735   3.675   1.706  1.2962 -0.3487 -1.6503
 8798SOL    HW334959   3.604   3.610   1.668  0.8167 -0.3940  0.0356
 8798SOL    MW434960   3.688   3.604   1.691  0.8682 -0.4099 -0.1609
 8799SOL     OW34961   3.975   2.151   4.595  0.2101 -0.3070  0.0976
 8799SOL    HW234962   3.966   2.175   4.687 -2.2591  2.0948 -0.6429
 8799SOL    HW334963   3.930   2.067   4.588 -1.9492  0.7063  0.7189
 8799SOL    MW434964   3.968   2.143   4.606 -0.4006  0.1436  0.0819
 8800SOL     OW34965   2.965   2.572   1.977  0.7734  1.1398 -0.5361
 8800SOL    HW234966   2.975   2.570   1.882  2.9694 -0.6117 -0.3616
 8800SOL    HW334967   3.054   2.587   2.009  0.7941 -1.9422  1.2430
 8800SOL    MW434968   2.978   2.574   1.969  1.0658  0.5020 -0.2783
 8801SOL     OW34969   1.336   6.178   2.134 -0.2871 -0.6840 -0.2763
 8801SOL    HW234970   1.242   6.171   2.119 -0.4632  1.4967 -0.5229
 8801SOL    HW334971   1.346   6.171   2.229 -0.5544 -1.9222 -0.3201
 8801SOL    MW434972   1.325   6.176   2.144 -0.3456 -0.5597 -0.3146
 8802SOL     OW34973   2.212   0.786   2.707 -0.2934  0.7059  0.0216
 8802SOL    HW234974   2.258   0.710   2.671  0.0145  0.5016  0.8231
 8802SOL    HW334975   2.281   0.852   2.717 -0.7617  1.5297 -1.7892
 8802SOL    MW434976   2.227   0.785   2.704 -0.3146  0.7877 -0.1116
 8803SOL     OW34977   2.526   0.926   4.987 -0.5161  0.1660 -0.4969
 8803SOL    HW234978   2.436   0.957   4.983 -0.3979  0.5224 -4.1959
 8803SOL    HW334979   2.519   0.831   4.985 -0.8890  0.1936 -2.4064
 8803SOL    MW434980   2.513   0.918   4.986 -0.5497  0.2166 -1.2369
 8804SOL     OW34981   4.302   4.663   4.400  0.0327 -0.4460  0.6248
 8804SOL    HW234982   4.333   4.636   4.487  1.7495  1.6365  0.7391
 8804SOL    HW334983   4.305   4.758   4.402  1.6239 -0.3280 -2.2109
 8804SOL    MW434984   4.306   4.672   4.412  0.4692 -0.1556  0.2658
 8805SOL     OW34985   1.080   5.020   2.535 -0.0263  0.1146  0.2944
 8805SOL    HW234986   1.173   5.009   2.517  0.2647  0.3912  1.5504
 8805SOL    HW334987   1.069   4.989   2.625 -1.4321 -1.3206 -0.3337
 8805SOL    MW434988   1.091   5.015   2.545 -0.1734 -0.0383  0.3773
 8806SOL     OW34989   5.479   1.921   6.061 -0.4916  0.6748 -0.1781
 8806SOL    HW234990   5.558   1.894   6.014 -0.8410 -0.7666  0.0230
 8806SOL    HW334991   5.420   1.952   5.992 -1.2399 -2.0159 -0.8429
 8806SOL    MW434992   5.482   1.922   6.045 -0.6365  0.1296 -0.2393
 8807SOL     OW34993   3.881   4.634   1.397 -0.2414  0.0244 -0.1962
 8807SOL    HW234994   3.862   4.563   1.336  1.2005 -0.3537 -0.2289
 8807SOL    HW334995   3.816   4.624   1.466 -1.8318  0.3854 -1.5527
 8807SOL    MW434996   3.870   4.624   1.398 -0.2610  0.0221 -0.3795
 8808SOL     OW34997   1.809   3.973   3.576 -0.3858 -0.6091  0.0239
 8808SOL    HW234998   1.793   3.957   3.669  1.4504  0.6514  0.6350
 8808SOL    HW334999   1.896   3.937   3.561 -0.1046  0.3940 -0.8475
 8808SOL    MW435000   1.818   3.966   3.587 -0.1064 -0.3104 -0.0104
 8809SOL     OW35001   3.689   0.449   4.242  0.9820 -0.4230  0.8173
 8809SOL    HW235002   3.629   0.513   4.280  0.5251 -1.4122  1.8090
 8809SOL    HW335003   3.648   0.424   4.159  1.2997  0.7433  0.2880
 8809SOL    MW435004   3.676   0.454   4.236  0.9637 -0.3996  0.8783
 8810SOL     OW35005   4.960   4.064   2.803 -0.2224 -0.2095  0.0044
 8810SOL    HW235006   5.025   4.087   2.870 -0.2818 -1.0871  0.3685
 8810SOL    HW335007   4.899   4.138   2.803 -0.8522 -0.6943  1.7016
 8810SOL    MW435008   4.961   4.077   2.812 -0.3133 -0.3893  0.2763
 8811SOL     OW35009   6.258   0.448   1.206  0.1099  0.1607 -0.2706
 8811SOL    HW235010   6.339   0.413   1.244  0.1353  0.9191  0.3840
 8811SOL    HW335011   6.245   0.532   1.248  0.2064  1.1144 -2.0504
 8811SOL    MW435012   6.267   0.454   1.216  0.1260  0.3866 -0.4191
 8812SOL     OW35013   6.055   0.703   4.502  0.5013  0.3140  0.3073
 8812SOL    HW235014   6.056   0.799   4.502  0.1622  0.3388  1.8745
 8812SOL    HW335015   6.140   0.678   4.464 -0.1673  1.1814 -1.9531
 8812SOL    MW435016   6.067   0.713   4.497  0.3684  0.4317  0.2158
 8813SOL     OW35017   4.516   3.643   4.381  0.6424  0.5331  0.4966
 8813SOL    HW235018   4.481   3.583   4.447 -0.6797  0.4693 -0.2177
 8813SOL    HW335019   4.459   3.720   4.388  0.3993  0.4703 -0.6369
 8813SOL    MW435020   4.504   3.645   4.391  0.4359  0.5164  0.2528
 8814SOL     OW35021   0.781   3.922   4.780  0.7114  0.3210  0.1356
 8814SOL    HW235022   0.821   3.992   4.833  0.2324  2.2562 -1.9072
 8814SOL    HW335023   0.716   3.883   4.838  1.6272  0.9499  1.6492
 8814SOL    MW435024   0.778   3.926   4.795  0.7690  0.6593  0.0658
 8815SOL     OW35025   4.383   3.888   4.418  0.0018  0.2620 -0.1074
 8815SOL    HW235026   4.293   3.896   4.449  0.8331  0.6612  2.4243
 8815SOL    HW335027   4.385   3.940   4.337 -2.0911 -0.0656 -0.4292
 8815SOL    MW435028   4.371   3.896   4.411 -0.1646  0.2714  0.1841
 8816SOL     OW35029   4.914   0.719   1.242 -0.4128  0.6337 -0.1634
 8816SOL    HW235030   4.883   0.760   1.323 -4.1335 -0.5085 -0.8243
 8816SOL    HW335031   4.927   0.627   1.265  1.0955  0.8049 -0.2834
 8816SOL    MW435032   4.911   0.712   1.256 -0.7047  0.5056 -0.2664
 8817SOL     OW35033   4.100   0.042   2.047 -0.2333  0.1753 -0.1813
 8817SOL    HW235034   4.087  -0.035   1.992 -2.0007 -0.0376  0.4816
 8817SOL    HW335035   4.155   0.011   2.119 -0.8389 -0.4484  0.0195
 8817SOL    MW435036   4.105   0.028   2.049 -0.5464  0.0649 -0.0674
 8818SOL     OW35037   2.455   3.599   6.373  0.3798 -0.0637  0.5208
 8818SOL    HW235038   2.448   3.512   6.411  1.5302  0.0532  1.0340
 8818SOL    HW335039   2.425   3.658   6.442 -0.3512 -0.0447  0.1918
 8818SOL    MW435040   2.450   3.596   6.387  0.4351 -0.0457  0.5451
 8819SOL     OW35041   6.347   4.605   2.864  0.2236 -0.1099 -0.1965
 8819SOL    HW235042   6.276   4.669   2.854  0.2056 -0.3245 -1.5910
 8819SOL    HW335043   6.375   4.615   2.955  0.3481  2.0271 -0.4120
 8819SOL    MW435044   6.342   4.615   2.874  0.2377  0.1438 -0.4089
 8820SOL     OW35045   2.317   3.187   4.840 -0.4623  0.0435  0.5919
 8820SOL    HW235046   2.284   3.101   4.866 -1.1118  0.4650  1.2015
 8820SOL    HW335047   2.395   3.200   4.895 -0.1461 -0.3062  0.2323
 8820SOL    MW435048   2.323   3.177   4.851 -0.5063  0.0530  0.6249
 8821SOL     OW35049   4.322   3.484   6.170 -0.3820  0.2060  0.5662
 8821SOL    HW235050   4.387   3.529   6.224 -1.3407  1.0377  1.0438
 8821SOL    HW335051   4.321   3.532   6.088  0.1274 -0.2552  0.2862
 8821SOL    MW435052   4.330   3.496   6.166 -0.4413  0.2549  0.5923
 8822SOL     OW35053   2.299   2.900   4.671 -0.4241  0.2197  0.5279
 8822SOL    HW235054   2.220   2.946   4.643  0.8062  2.2242  0.1227
 8822SOL    HW335055   2.368   2.967   4.667  1.3994 -1.5880  0.3585
 8822SOL    MW435056   2.298   2.915   4.667 -0.0212  0.2457  0.4521
 8823SOL     OW35057   1.661   0.680   1.757 -0.5301  0.2715  0.9008
 8823SOL    HW235058   1.656   0.724   1.672  0.0338 -0.6715  0.3644
 8823SOL    HW335059   1.717   0.737   1.809  0.3680  0.1015  0.1475
 8823SOL    MW435060   1.668   0.693   1.752 -0.3372  0.1246  0.7306
 8824SOL     OW35061   0.185   5.165   1.410 -0.0867 -0.0090  0.0989
 8824SOL    HW235062   0.270   5.208   1.408  0.4936 -1.0926  0.9640
 8824SOL    HW335063   0.122   5.237   1.403  0.8534  0.9877  1.4731
 8824SOL    MW435064   0.188   5.181   1.409  0.1139 -0.0205  0.3944
 8825SOL     OW35065   3.097   1.086   1.547 -0.0725  0.4763  0.3587
 8825SOL    HW235066   3.106   1.166   1.600 -0.8483 -0.0555  1.3311
 8825SOL    HW335067   3.092   1.016   1.612  0.2065 -0.3315 -0.4750
 8825SOL    MW435068   3.098   1.087   1.563 -0.1380  0.2996  0.3770
 8826SOL     OW35069   5.177   1.457   4.823  0.0236 -0.0534 -0.6374
 8826SOL    HW235070   5.187   1.397   4.749  0.0478 -0.2693 -0.4617
 8826SOL    HW335071   5.199   1.404   4.900 -3.5339 -0.9473 -0.0584
 8826SOL    MW435072   5.181   1.442   4.824 -0.4426 -0.1998 -0.5379
 8827SOL     OW35073   1.816   0.659   5.658 -0.2609  0.4930  0.2361
 8827SOL    HW235074   1.823   0.727   5.726  0.5669 -0.2545  0.9197
 8827SOL    HW335075   1.751   0.694   5.597 -2.7164  0.2508  2.5254
 8827SOL    MW435076   1.809   0.673   5.659 -0.4756  0.3625  0.6283
 8828SOL     OW35077   4.288   3.792   3.291 -0.1655 -0.3007 -0.0831
 8828SOL    HW235078   4.337   3.847   3.353 -0.0340 -0.9003  0.3546
 8828SOL    HW335079   4.308   3.829   3.205  1.9612 -1.1695 -0.0428
 8828SOL    MW435080   4.297   3.804   3.288  0.1325 -0.4944 -0.0200
 8829SOL     OW35081   5.675   0.446   6.003  0.9183  0.1495  0.1056
 8829SOL    HW235082   5.619   0.465   5.928 -0.1567  1.6818  1.2508
 8829SOL    HW335083   5.620   0.393   6.061  0.6690  1.4957  1.1455
 8829SOL    MW435084   5.661   0.441   6.001  0.7436  0.5293  0.3939
 8830SOL     OW35085   1.268   3.421   5.841 -0.9858  0.0847  0.0792
 8830SOL    HW235086   1.234   3.451   5.925 -1.4483  0.6953 -0.3142
 8830SOL    HW335087   1.266   3.325   5.847 -0.9974  0.1264  0.7674
 8830SOL    MW435088   1.263   3.412   5.853 -1.0483  0.1707  0.1181
 8831SOL     OW35089   1.808   4.295   2.942  0.8129  0.2402  0.0723
 8831SOL    HW235090   1.741   4.346   2.988 -0.3156 -1.9956  1.0624
 8831SOL    HW335091   1.772   4.284   2.853 -0.6558 -1.6363  0.8168
 8831SOL    MW435092   1.794   4.300   2.936  0.4702 -0.3024  0.3012
 8832SOL     OW35093   6.060   4.561   5.914 -0.2121 -0.3249 -0.2708
 8832SOL    HW235094   6.098   4.635   5.869  1.0294 -1.0633 -0.4755
 8832SOL    HW335095   6.114   4.550   5.992 -2.8248  1.4753  1.9870
 8832SOL    MW435096   6.072   4.569   5.919 -0.3930 -0.1848  0.0001
 8833SOL     OW35097   5.738   3.949   1.531  0.6278 -0.0557  0.1536
 8833SOL    HW235098   5.810   3.939   1.470  1.2831  0.0781  0.8873
 8833SOL    HW335099   5.704   3.861   1.545 -2.0092  0.1894 -3.2456
 8833SOL    MW435100   5.743   3.936   1.525  0.3663 -0.0057 -0.1981
 8834SOL     OW35101   1.718   3.288   4.580  0.0171 -0.0706  0.1175
 8834SOL    HW235102   1.734   3.362   4.522 -0.1469 -0.4650 -0.4433
 8834SOL    HW335103   1.763   3.214   4.537 -1.3771 -0.7073 -0.3207
 8834SOL    MW435104   1.726   3.288   4.566 -0.1885 -0.2067 -0.0143
 8835SOL     OW35105   1.290   6.243   4.100  0.2707  0.3627 -0.6010
 8835SOL    HW235106   1.242   6.237   4.182 -1.2973 -0.3485 -1.5301
 8835SOL    HW335107   1.249   6.316   4.053  0.7892  0.4169 -0.9820
 8835SOL    MW435108   1.278   6.252   4.104  0.1322  0.2760 -0.7739
 8836SOL     OW35109   1.942   4.851   3.801  0.0770  0.4003 -0.3319
 8836SOL    HW235110   1.915   4.929   3.753  1.2857  0.0590 -1.6455
 8836SOL    HW335111   2.020   4.878   3.850 -1.3322  0.8367  1.8106
 8836SOL    MW435112   1.949   4.865   3.801  0.0506  0.4128 -0.2225
 8837SOL     OW35113   5.644   3.062   4.308 -0.3311  0.3008  0.0823
 8837SOL    HW235114   5.652   2.978   4.353 -0.5695 -0.5198 -1.3302
 8837SOL    HW335115   5.573   3.107   4.353  0.0846 -0.0582  1.1299
 8837SOL    MW435116   5.636   3.057   4.320 -0.3077  0.1452  0.0342
 8838SOL     OW35117   5.000   4.663   2.075  0.2366  0.1207  1.0664
 8838SOL    HW235118   4.946   4.608   2.018  3.9390 -2.0122 -0.8021
 8838SOL    HW335119   4.938   4.704   2.136 -3.3873 -1.7221 -1.0570
 8838SOL    MW435120   4.985   4.661   2.076  0.2470 -0.4038  0.5397
 8839SOL     OW35121   4.643   5.160   3.629 -0.7819  0.1047 -0.2639
 8839SOL    HW235122   4.564   5.197   3.589  0.0774  3.5020  0.8471
 8839SOL    HW335123   4.626   5.161   3.723 -0.0531 -0.8187 -0.1035
 8839SOL    MW435124   4.631   5.165   3.636 -0.5723  0.4311 -0.0961
 8840SOL     OW35125   3.596   0.033   4.685 -0.2328  0.2296 -0.2939
 8840SOL    HW235126   3.564   0.027   4.775 -2.7955 -1.3222 -1.2079
 8840SOL    HW335127   3.569   0.120   4.656 -2.4705 -0.5011 -0.5639
 8840SOL    MW435128   3.588   0.044   4.693 -0.8662 -0.0716 -0.4501
 8841SOL     OW35129   4.136   4.312   0.967  0.5130  0.2479 -0.3706
 8841SOL    HW235130   4.054   4.311   0.919  0.5309  0.3422 -0.4030
 8841SOL    HW335131   4.129   4.389   1.024  0.7330  0.4718 -0.6421
 8841SOL    MW435132   4.125   4.322   0.968  0.5444  0.2899 -0.4107
 8842SOL     OW35133   4.320   2.984   6.092  0.2370 -0.1616 -0.2929
 8842SOL    HW235134   4.323   2.964   5.999  2.4591 -0.7036 -0.1433
 8842SOL    HW335135   4.332   2.899   6.135  0.8033  0.2936  0.4676
 8842SOL    MW435136   4.322   2.970   6.086  0.6049 -0.1731 -0.1728
 8843SOL     OW35137   3.321   6.104   1.436 -0.1713 -0.0655 -0.3804
 8843SOL    HW235138   3.329   6.197   1.459  1.6280  0.2248 -1.8796
 8843SOL    HW335139   3.241   6.099   1.385 -0.2034  0.7099 -0.4291
 8843SOL    MW435140   3.312   6.116   1.432  0.0619  0.0751 -0.5846
 8844SOL     OW35141   6.339   4.105   4.955 -0.7105 -0.0136  0.4600
 8844SOL    HW235142   6.272   4.068   5.012 -1.4405  0.6940  0.0976
 8844SOL    HW335143   6.327   4.060   4.871 -1.3265  0.7098  0.1414
 8844SOL    MW435144   6.328   4.094   4.951 -0.8881  0.1752  0.3701
 8845SOL     OW35145   5.226   5.674   1.170  0.3880  0.1461  0.3566
 8845SOL    HW235146   5.308   5.696   1.213  1.8094 -0.2265 -2.0206
 8845SOL    HW335147   5.191   5.758   1.140  1.0917  0.0970 -0.6278
 8845SOL    MW435148   5.232   5.688   1.172  0.6683  0.0905 -0.0870
 8846SOL     OW35149   0.642   2.397   6.131 -0.0929 -0.1818 -0.0244
 8846SOL    HW235150   0.687   2.313   6.132  0.4512  0.1025  0.7332
 8846SOL    HW335151   0.692   2.451   6.193 -0.2058  0.8125 -0.7754
 8846SOL    MW435152   0.655   2.393   6.139 -0.0360 -0.0131 -0.0235
 8847SOL     OW35153   4.779   1.377   2.034 -0.1065  0.0617  0.0385
 8847SOL    HW235154   4.708   1.441   2.032  0.3052  0.5203 -0.0077
 8847SOL    HW335155   4.852   1.423   2.075 -0.3445 -0.9230  1.6716
 8847SOL    MW435156   4.779   1.391   2.039 -0.0836 -0.0077  0.2478
 8848SOL     OW35157   4.253   5.360   5.589  0.1190 -0.1389  0.1992
 8848SOL    HW235158   4.261   5.401   5.503  1.0403 -0.7803 -0.0370
 8848SOL    HW335159   4.340   5.368   5.628 -0.3005  0.1953  1.1020
 8848SOL    MW435160   4.266   5.366   5.583  0.1852 -0.1794  0.2871
 8849SOL     OW35161   5.940   0.751   1.165  0.2559  0.2346 -0.0465
 8849SOL    HW235162   5.981   0.700   1.235 -2.4799 -1.2761  0.5975
 8849SOL    HW335163   5.848   0.756   1.190 -0.7531  0.0709 -3.3080
 8849SOL    MW435164   5.933   0.745   1.178 -0.2382  0.0137 -0.3918
 8850SOL     OW35165   0.748   3.240   3.797 -0.1564 -0.1021 -0.4361
 8850SOL    HW235166   0.721   3.210   3.710 -0.5265 -0.7336 -0.1051
 8850SOL    HW335167   0.827   3.189   3.816  0.9754  1.3024 -1.1422
 8850SOL    MW435168   0.755   3.230   3.788 -0.0559 -0.0001 -0.4856
 8851SOL     OW35169   6.285   3.516   5.147 -0.1813 -0.2869  0.1548
 8851SOL    HW235170   6.226   3.578   5.105  0.3605 -0.7978 -1.4496
 8851SOL    HW335171   6.229   3.444   5.176 -0.4754 -0.2857 -0.4075
 8851SOL    MW435172   6.270   3.515   5.146 -0.1486 -0.3541 -0.1311
 8852SOL     OW35173   4.497   1.376   5.637 -0.0148  0.2727  0.1360
 8852SOL    HW235174   4.434   1.311   5.670  0.1923  0.8003  1.6590
 8852SOL    HW335175   4.582   1.345   5.669  0.2005  0.7733  0.0511
 8852SOL    MW435176   4.500   1.363   5.646  0.0409  0.4084  0.3258
 8853SOL     OW35177   0.707   0.437   2.920  0.5322  0.7718  0.4763
 8853SOL    HW235178   0.700   0.373   2.849 -0.6236  1.0966  0.2825
 8853SOL    HW335179   0.801   0.452   2.929  0.7611 -0.1809 -0.1645
 8853SOL    MW435180   0.718   0.431   2.912  0.4099  0.6890  0.3662
 8854SOL     OW35181   3.625   4.057   3.109 -0.2409  0.0963  0.1498
 8854SOL    HW235182   3.699   4.011   3.148  0.0575 -0.1065 -0.6400
 8854SOL    HW335183   3.561   3.989   3.090  0.2850 -0.0519 -1.2112
 8854SOL    MW435184   3.626   4.042   3.111 -0.1321  0.0500 -0.1339
 8855SOL     OW35185   0.114   0.351   4.726 -0.3539  0.2452  0.1126
 8855SOL    HW235186   0.164   0.393   4.796 -0.7451  2.7620 -1.0203
 8855SOL    HW335187   0.130   0.257   4.738  2.6397  0.7883  1.2881
 8855SOL    MW435188   0.123   0.344   4.737 -0.0105  0.6489  0.1182
 8856SOL     OW35189   0.577   2.863   0.175 -0.2635 -0.6247  0.0680
 8856SOL    HW235190   0.586   2.958   0.178  0.8509 -0.6340 -1.4440
 8856SOL    HW335191   0.491   2.845   0.213 -0.7777  1.0309 -0.2345
 8856SOL    MW435192   0.567   2.873   0.180 -0.1843 -0.4075 -0.1714
 8857SOL     OW35193   0.679   4.513   2.865 -0.0342 -0.2095  0.1427
 8857SOL    HW235194   0.682   4.522   2.961 -0.2201 -1.3182  0.2698
 8857SOL    HW335195   0.588   4.535   2.842 -0.5347 -1.7717  0.4654
 8857SOL    MW435196   0.667   4.517   2.875 -0.1247 -0.5619  0.2020
 8858SOL     OW35197   0.346   2.945   3.139  0.0692 -0.4487  0.1843
 8858SOL    HW235198   0.372   3.017   3.195  0.6812  1.0700 -1.9273
 8858SOL    HW335199   0.391   2.869   3.176  2.9003  1.0357  0.0905
 8858SOL    MW435200   0.356   2.944   3.151  0.5235 -0.0525 -0.1067
 8859SOL     OW35201   1.237   4.734   3.112 -0.4988  0.3807  0.4350
 8859SOL    HW235202   1.315   4.697   3.071 -1.4050 -0.8978 -0.1898
 8859SOL    HW335203   1.227   4.820   3.070  1.1064  1.0055  1.2459
 8859SOL    MW435204   1.246   4.741   3.101 -0.4066  0.2944  0.4595
 8860SOL     OW35205   1.556   1.247   3.408  0.7414 -0.1913  0.0850
 8860SOL    HW235206   1.599   1.210   3.485  0.0887 -3.8592 -1.1030
 8860SOL    HW335207   1.463   1.232   3.422  0.5975 -0.7322 -1.2944
 8860SOL    MW435208   1.550   1.240   3.420  0.6363 -0.7466 -0.2538
 8861SOL     OW35209   4.277   3.799   2.782 -0.2659  0.0053 -0.3310
 8861SOL    HW235210   4.278   3.851   2.862  1.7362  0.3567 -0.5198
 8861SOL    HW335211   4.303   3.712   2.810  0.2627  0.0865 -0.5482
 8861SOL    MW435212   4.281   3.795   2.796  0.0680  0.0624 -0.3846
 8862SOL     OW35213   3.590   5.520   0.315 -0.0068  0.4379  0.1826
 8862SOL    HW235214   3.521   5.576   0.351 -1.4399 -1.1634  0.0378
 8862SOL    HW335215   3.543   5.450   0.270  1.7211 -0.8207  0.2429
 8862SOL    MW435216   3.575   5.518   0.314  0.0321  0.0605  0.1714
 8863SOL     OW35217   2.105   2.726   5.114  0.1942 -0.2257  0.0222
 8863SOL    HW235218   2.051   2.715   5.192  1.1805 -0.3999  0.7122
 8863SOL    HW335219   2.118   2.637   5.081 -2.7915  0.0206 -2.2340
 8863SOL    MW435220   2.100   2.712   5.120 -0.0696 -0.2162 -0.1845
 8864SOL     OW35221   0.645   0.995   3.132  1.1121  0.4595 -0.1715
 8864SOL    HW235222   0.720   1.051   3.113  0.2577  1.5980 -0.3272
 8864SOL    HW335223   0.594   0.995   3.051  1.0742 -0.5138 -0.1542
 8864SOL    MW435224   0.648   1.002   3.119  0.9944  0.4813 -0.1898
 8865SOL     OW35225   4.126   5.031   5.175 -0.0724 -0.6596  0.4911
 8865SOL    HW235226   4.065   5.032   5.101  0.3169 -1.3756  0.1427
 8865SOL    HW335227   4.078   5.073   5.247 -0.7155 -0.5923  0.0322
 8865SOL    MW435228   4.112   5.037   5.175 -0.1059 -0.7452  0.3846
 8866SOL     OW35229   3.867   4.297   0.246  0.1233 -0.8015  0.6037
 8866SOL    HW235230   3.815   4.219   0.266  0.6488 -1.0952  0.8151
 8866SOL    HW335231   3.956   4.275   0.272  0.6530 -0.8175 -1.0775
 8866SOL    MW435232   3.872   4.284   0.252  0.2625 -0.8423  0.4098
 8867SOL     OW35233   3.095   5.533   4.647  0.6813  0.0073 -1.0013
 8867SOL    HW235234   3.113   5.579   4.565 -0.1189  0.2948 -1.0247
 8867SOL    HW335235   3.001   5.544   4.660  1.0120  1.1649  0.6776
 8867SOL    MW435236   3.085   5.541   4.638  0.6193  0.1979 -0.7829
 8868SOL     OW35237   4.810   0.785   0.999 -0.1728  0.1531 -0.0830
 8868SOL    HW235238   4.731   0.838   1.003  0.4037  0.9773  0.8671
 8868SOL    HW335239   4.835   0.772   1.090  0.7466 -0.1528 -0.3655
 8868SOL    MW435240   4.803   0.790   1.011  0.0246  0.2215  0.0050
 8869SOL     OW35241   1.519   4.085   5.742 -0.3532  0.3778  0.0069
 8869SOL    HW235242   1.554   4.158   5.690  0.9409 -1.0223 -1.1832
 8869SOL    HW335243   1.451   4.046   5.687 -1.3303  0.8908  0.8110
 8869SOL    MW435244   1.515   4.090   5.728 -0.3113  0.2608 -0.0440
 8870SOL     OW35245   2.336   2.200   4.450 -0.0318 -0.2398 -0.4685
 8870SOL    HW235246   2.415   2.253   4.462 -0.2038 -0.2656  0.8388
 8870SOL    HW335247   2.268   2.245   4.501 -1.1167  0.2686 -2.2624
 8870SOL    MW435248   2.337   2.213   4.458 -0.1976 -0.1762 -0.5327
 8871SOL     OW35249   5.332   0.254   1.909 -0.1858 -0.2962 -0.4031
 8871SOL    HW235250   5.246   0.217   1.894 -0.1611 -0.5656  0.0831
 8871SOL    HW335251   5.315   0.338   1.951 -0.2053 -0.7847  0.6068
 8871SOL    MW435252   5.319   0.260   1.913 -0.1851 -0.3962 -0.2057
 8872SOL     OW35253   2.592   2.775   4.737  0.7200  0.5023 -0.1209
 8872SOL    HW235254   2.509   2.752   4.696  0.6950 -0.1699  0.2973
 8872SOL    HW335255   2.642   2.818   4.667 -0.6802  2.6775  0.1026
 8872SOL    MW435256   2.588   2.778   4.722  0.5320  0.7006 -0.0362
 8873SOL     OW35257   3.559   6.182   0.054  0.4332  0.4002 -0.6179
 8873SOL    HW235258   3.612   6.121   0.106  0.9078  0.2194 -1.2919
 8873SOL    HW335259   3.514   6.235   0.118 -0.9926 -1.4859  0.0410
 8873SOL    MW435260   3.560   6.181   0.069  0.3077  0.1275 -0.6199
 8874SOL     OW35261   4.403   2.329   1.078  0.3300  0.1647  0.3447
 8874SOL    HW235262   4.325   2.383   1.087 -0.8100 -1.3214 -0.1464
 8874SOL    HW335263   4.393   2.261   1.145  0.2510 -1.1126 -0.9031
 8874SOL    MW435264   4.392   2.327   1.088  0.1691 -0.1999  0.1153
 8875SOL     OW35265   1.654   2.484   2.666  0.6894  0.3025  0.6550
 8875SOL    HW235266   1.708   2.443   2.599 -1.0029 -0.5600 -0.2368
 8875SOL    HW335267   1.667   2.578   2.653  0.4808  0.1520 -0.8303
 8875SOL    MW435268   1.663   2.491   2.656  0.4386  0.1688  0.3413
 8876SOL     OW35269   4.048   2.228   2.857  0.4744 -0.3278 -0.1429
 8876SOL    HW235270   3.960   2.215   2.823  0.2722  1.4023 -0.3876
 8876SOL    HW335271   4.037   2.232   2.952 -0.1525  2.3160 -0.2481
 8876SOL    MW435272   4.035   2.227   2.865  0.3650  0.2493 -0.1891
 8877SOL     OW35273   1.489   4.919   3.784  0.1031  0.2701  0.2846
 8877SOL    HW235274   1.463   4.885   3.870 -1.7886 -0.8276 -0.6590
 8877SOL    HW335275   1.410   4.961   3.750  0.8898  0.8812 -0.8363
 8877SOL    MW435276   1.475   4.920   3.791 -0.0427  0.2059  0.0122
 8878SOL     OW35277   2.528   2.261   2.111  0.6293  0.1660  0.1604
 8878SOL    HW235278   2.624   2.266   2.103  0.6293 -0.7906 -0.4638
 8878SOL    HW335279   2.497   2.345   2.077  1.1591 -0.1582 -1.1659
 8878SOL    MW435280   2.537   2.273   2.106  0.6992 -0.0030 -0.0969
 8879SOL     OW35281   5.159   0.548   2.303  0.0471 -0.1217  0.4762
 8879SOL    HW235282   5.165   0.641   2.280  0.5329  0.0126  1.1406
 8879SOL    HW335283   5.126   0.547   2.392 -1.7963 -0.6517 -0.1674
 8879SOL    MW435284   5.155   0.560   2.311 -0.1320 -0.1739  0.4789
 8880SOL     OW35285   5.418   1.324   2.418  0.1510  0.5259 -0.2548
 8880SOL    HW235286   5.327   1.295   2.428 -0.3919  1.8536 -0.9974
 8880SOL    HW335287   5.470   1.244   2.424 -0.8201 -0.0020  2.9071
 8880SOL    MW435288   5.413   1.310   2.420 -0.0488  0.6314  0.0644
 8881SOL     OW35289   2.312   1.881   3.035  0.0376  0.4711  0.0983
 8881SOL    HW235290   2.306   1.933   3.115  1.9374  0.9598 -0.0152
 8881SOL    HW335291   2.323   1.945   2.966  1.3363 -0.0179 -0.1748
 8881SOL    MW435292   2.313   1.896   3.037  0.4596  0.4711  0.0473
 8882SOL     OW35293   3.384   5.958   3.402 -0.0489 -0.3798  0.3724
 8882SOL    HW235294   3.371   5.899   3.477  1.2277 -2.3328 -0.8706
 8882SOL    HW335295   3.439   5.908   3.342  1.2757  2.2070 -0.6711
 8882SOL    MW435296   3.389   5.943   3.404  0.2943 -0.2962  0.0707
 8883SOL     OW35297   5.864   3.336   0.834  0.1742 -0.0039  0.3928
 8883SOL    HW235298   5.805   3.302   0.767 -0.0435 -0.7205  0.9309
 8883SOL    HW335299   5.909   3.409   0.792  0.5920 -0.9005 -0.7649
 8883SOL    MW435300   5.862   3.341   0.820  0.2006 -0.2167  0.3111
 8884SOL     OW35301   2.443   5.328   1.113  0.4225  0.0369 -0.4603
 8884SOL    HW235302   2.348   5.340   1.103  0.4507  0.3328 -0.3909
 8884SOL    HW335303   2.480   5.363   1.032  0.2330 -3.9076 -2.4482
 8884SOL    MW435304   2.435   5.334   1.101  0.4012 -0.4445 -0.7135
 8885SOL     OW35305   0.563   5.859   0.117  0.0564  0.3861  0.1873
 8885SOL    HW235306   0.595   5.879   0.205  1.0638  1.9538 -0.4906
 8885SOL    HW335307   0.641   5.836   0.067 -0.5950 -1.2587 -0.1484
 8885SOL    MW435308   0.578   5.859   0.122  0.1034  0.3759  0.0536
 8886NA      NA35309   4.230   5.191   2.776 -0.4837 -0.5933 -0.0546
 8887NA      NA35310   3.240   1.473   4.207  0.3010  0.0757  0.3417
 8888NA      NA35311   1.719   5.263   6.057  0.2618 -0.1326 -0.0685
 8889NA      NA35312   4.617   1.851   0.101  0.3484  0.4815 -0.1735
 8890NA      NA35313   4.915   3.641   2.959  0.5476 -0.6369 -0.6938
 8891NA      NA35314   2.354   4.907   4.792 -0.5790  0.3179  0.3420
 8892NA      NA35315   2.540   3.171   1.566 -0.1214 -0.0384  0.1169
   6.42920   6.42920   6.42920
