A-SYNC WITH FASUDIL
35315
  121NASP     N    1   3.863   0.936   0.197 -0.2277 -0.3863 -0.4083
  121NASP    H1    2   3.791   0.879   0.238 -1.0577  0.1095 -1.1373
  121NASP    H2    3   3.914   0.886   0.126 -1.4371 -1.4836 -0.5530
  121NASP    H3    4   3.800   1.010   0.170 -1.7053 -0.0541  3.2795
  121NASP    CA    5   3.952   0.971   0.310 -0.2305 -0.0107  0.5489
  121NASP    HA    6   4.008   1.060   0.281  0.4850 -0.7991 -0.5631
  121NASP    CB    7   3.873   1.009   0.434 -0.2606 -0.3873  0.1364
  121NASP   HB1    8   3.860   1.113   0.406  1.4325 -0.2867 -0.3613
  121NASP   HB2    9   3.924   1.009   0.530  1.0154 -3.1343 -0.4417
  121NASP    CG   10   3.739   0.950   0.463 -0.1044  0.6525 -0.3359
  121NASP   OD1   11   3.682   0.991   0.570 -0.1180 -0.0989 -0.3657
  121NASP   OD2   12   3.684   0.862   0.387 -0.1549 -0.8370  0.0700
  121NASP     C   13   4.056   0.862   0.348 -0.3227 -0.0865 -0.1588
  121NASP     O   14   4.061   0.801   0.456  0.4349 -0.0956  0.6290
  122ASN      N   15   4.151   0.838   0.253 -0.3950 -0.3577  0.2419
  122ASN      H   16   4.133   0.872   0.160 -0.5549 -0.9738  0.0398
  122ASN     CA   17   4.265   0.747   0.269  0.0008  0.0834  0.3330
  122ASN     HA   18   4.279   0.740   0.377 -0.5703 -3.0523  0.3064
  122ASN     CB   19   4.226   0.607   0.217  0.0894 -0.5724 -0.3055
  122ASN    HB1   20   4.316   0.547   0.207  1.3235  1.1335  0.1563
  122ASN    HB2   21   4.176   0.615   0.120 -0.5800  0.4796  0.1074
  122ASN     CG   22   4.141   0.529   0.319  0.3301 -0.0371 -0.1089
  122ASN    OD1   23   4.020   0.514   0.296  0.4703  0.6968  0.2414
  122ASN    ND2   24   4.206   0.476   0.418  0.6682 -0.3008  0.6171
  122ASN   HD21   25   4.150   0.431   0.490 -2.0286  0.5262 -0.8248
  122ASN   HD22   26   4.307   0.483   0.425  0.5490  0.6561  1.8087
  122ASN      C   27   4.387   0.810   0.202 -0.9492 -0.2443  0.6328
  122ASN      O   28   4.477   0.742   0.153 -0.1480  0.0524  0.4182
  123GLU      N   29   4.385   0.943   0.184 -0.8666 -0.1983 -0.7504
  123GLU      H   30   4.297   0.984   0.211 -0.4397 -0.9584  2.2364
  123GLU     CA   31   4.494   1.015   0.109  0.8159 -0.0871 -0.2434
  123GLU     HA   32   4.551   0.942   0.051 -0.3933 -0.8207 -0.5410
  123GLU     CB   33   4.433   1.103  -0.004  0.6784  0.3412  0.3015
  123GLU    HB1   34   4.345   1.061  -0.052 -0.5735  1.4666  1.4866
  123GLU    HB2   35   4.508   1.106  -0.082 -0.1867 -2.8699 -0.7843
  123GLU     CG   36   4.388   1.243   0.037  0.2626 -1.4435  0.5072
  123GLU    HG1   37   4.478   1.303   0.051  0.2828 -0.9012 -1.6124
  123GLU    HG2   38   4.323   1.232   0.124 -3.2010  0.6838 -1.5787
  123GLU     CD   39   4.305   1.320  -0.065  0.1104  0.2087  0.1531
  123GLU    OE1   40   4.314   1.280  -0.179 -0.7619  0.1571  0.3343
  123GLU    OE2   41   4.236   1.418  -0.031  0.0036 -0.3262  0.0282
  123GLU      C   42   4.595   1.088   0.193 -0.1510 -0.2041 -0.3495
  123GLU      O   43   4.709   1.113   0.147 -0.2396  0.3432 -0.2473
  124ALA      N   44   4.549   1.129   0.317  0.0238 -0.0186  0.1366
  124ALA      H   45   4.453   1.106   0.342 -0.0280  0.3016  0.2372
  124ALA     CA   46   4.630   1.205   0.412  0.5924 -0.0788 -0.2316
  124ALA     HA   47   4.729   1.215   0.369 -0.1912  1.1374 -1.8890
  124ALA     CB   48   4.569   1.343   0.435  0.2294  0.3588  0.3794
  124ALA    HB1   49   4.553   1.373   0.332  1.4005 -1.3415 -0.3436
  124ALA    HB2   50   4.633   1.408   0.495 -1.6586  3.1274 -0.4061
  124ALA    HB3   51   4.472   1.332   0.484  0.5149  0.7103  1.0397
  124ALA      C   52   4.648   1.142   0.554 -0.0051  0.3559 -0.0430
  124ALA      O   53   4.551   1.119   0.627 -0.3925 -0.3109  0.1605
  125TYR      N   54   4.774   1.119   0.595  0.0324  0.7268  0.3044
  125TYR      H   55   4.851   1.125   0.530 -0.0788 -0.7703  0.0010
  125TYR     CA   56   4.793   1.090   0.739 -0.3065  0.4308 -0.4888
  125TYR     HA   57   4.719   1.015   0.769  0.0085  0.1894 -0.3048
  125TYR     CB   58   4.940   1.041   0.771  0.2997  0.7129  0.7798
  125TYR    HB1   59   5.015   1.112   0.737 -1.7653  2.2091 -0.9222
  125TYR    HB2   60   4.953   0.949   0.714  1.6506  1.3159  0.0582
  125TYR     CG   61   4.963   0.994   0.914 -1.4357  0.2205  0.1460
  125TYR    CD1   62   5.013   1.080   1.008  0.9491  0.3820  0.2048
  125TYR    HD1   63   5.019   1.183   0.976  3.5720  0.6627  1.3807
  125TYR    CE1   64   5.031   1.035   1.142  0.4742  0.0866 -0.5622
  125TYR    HE1   65   5.055   1.101   1.225 -2.9756  0.0494  0.6269
  125TYR     CZ   66   5.013   0.901   1.173 -0.6407  0.8155  0.2760
  125TYR     OH   67   5.023   0.851   1.301  0.3567 -0.3300 -0.8236
  125TYR     HH   68   5.050   0.923   1.357  0.8073  1.1624 -2.8337
  125TYR    CE2   69   4.974   0.810   1.065  0.5636 -0.1099  0.4610
  125TYR    HE2   70   4.963   0.704   1.079 -0.3185 -0.2472 -1.0940
  125TYR    CD2   71   4.948   0.858   0.940 -0.1082  0.1360  0.4043
  125TYR    HD2   72   4.908   0.792   0.865  0.1082 -0.5979  0.9268
  125TYR      C   73   4.766   1.214   0.827 -0.6793 -0.3875 -0.0542
  125TYR      O   74   4.812   1.329   0.805  0.8224 -0.1368  0.1039
  126GLU      N   75   4.685   1.188   0.925  0.3491 -0.4782 -0.0127
  126GLU      H   76   4.638   1.099   0.928  1.1759 -1.0025 -1.5098
  126GLU     CA   77   4.663   1.277   1.048  0.1494 -0.1991 -0.5537
  126GLU     HA   78   4.752   1.332   1.080 -0.7220  1.4279 -0.8485
  126GLU     CB   79   4.541   1.372   1.022  0.1998 -0.1736  0.7710
  126GLU    HB1   80   4.517   1.422   1.116 -1.0886  1.7333 -0.5036
  126GLU    HB2   81   4.453   1.311   1.002 -0.0509  0.0949  1.0544
  126GLU     CG   82   4.553   1.476   0.906  0.3155 -0.1130  0.2244
  126GLU    HG1   83   4.555   1.434   0.806 -0.9995  0.7530 -0.1915
  126GLU    HG2   84   4.653   1.521   0.905  1.5587 -2.7003 -0.5333
  126GLU     CD   85   4.441   1.581   0.923 -0.4520 -0.2235 -0.0674
  126GLU    OE1   86   4.355   1.565   1.013 -0.1580 -0.2010  0.0174
  126GLU    OE2   87   4.449   1.683   0.846  0.2429  0.3277  0.7130
  126GLU      C   88   4.641   1.183   1.166  0.8757 -0.3776 -0.3769
  126GLU      O   89   4.633   1.061   1.147 -0.1343 -0.0732 -0.4792
  127MET      N   90   4.628   1.238   1.290 -0.2389  0.0238  0.1171
  127MET      H   91   4.607   1.337   1.287 -0.0835  0.0533 -0.0789
  127MET     CA   92   4.615   1.166   1.413  0.5679  0.4068 -0.9529
  127MET     HA   93   4.591   1.063   1.386 -1.7940  0.4021  0.8324
  127MET     CB   94   4.747   1.181   1.487 -0.1281 -0.4731 -0.3658
  127MET    HB1   95   4.715   1.214   1.586 -0.3342 -0.5945 -0.3938
  127MET    HB2   96   4.810   1.260   1.444  0.5013 -0.6872  0.1464
  127MET     CG   97   4.830   1.059   1.494  0.8584  0.1926 -0.1318
  127MET    HG1   98   4.841   1.011   1.397 -0.4005 -0.1618 -0.1134
  127MET    HG2   99   4.782   0.985   1.558  3.3626 -0.2117  1.4317
  127MET     SD  100   5.002   1.083   1.562  0.2565 -0.4662  0.2759
  127MET     CE  101   4.975   1.183   1.709  0.3598 -0.4774 -0.3405
  127MET    HE1  102   4.878   1.154   1.749 -0.0711  1.0546 -0.2308
  127MET    HE2  103   4.983   1.289   1.686 -1.1883 -0.4272 -0.7382
  127MET    HE3  104   5.054   1.164   1.781  1.9772  0.0136 -1.9015
  127MET      C  105   4.491   1.213   1.497 -0.1022  0.4713  0.0014
  127MET      O  106   4.456   1.334   1.493  0.2958 -0.5646  0.0716
  128PRO      N  107   4.438   1.126   1.585 -0.1533  0.3395  0.0397
  128PRO     CD  108   4.477   0.989   1.616  0.7778  0.4443 -0.2185
  128PRO    HD1  109   4.560   0.991   1.687 -0.0547 -0.8369  0.8343
  128PRO    HD2  110   4.499   0.937   1.523  0.2702 -0.3194  0.0796
  128PRO     CG  111   4.353   0.918   1.680  0.7908  0.5474  0.1874
  128PRO    HG1  112   4.383   0.847   1.757  1.5457  2.0421  1.3259
  128PRO    HG2  113   4.276   0.883   1.612  0.0134  0.4539  1.0932
  128PRO     CB  114   4.290   1.042   1.749 -0.1524  0.7980 -0.1730
  128PRO    HB1  115   4.183   1.030   1.769  0.4982 -0.3887  3.4924
  128PRO    HB2  116   4.334   1.054   1.848  1.2028  1.2174 -0.8065
  128PRO     CA  117   4.327   1.164   1.668  0.4460 -0.3413  0.2648
  128PRO     HA  118   4.252   1.194   1.594  1.0115  0.9070  0.1790
  128PRO      C  119   4.357   1.293   1.750 -0.3073  0.4437  0.0707
  128PRO      O  120   4.475   1.317   1.785 -0.2501 -0.1604 -0.0675
  129SER      N  121   4.251   1.364   1.784 -0.4824  0.3718  0.0939
  129SER      H  122   4.160   1.322   1.772 -0.4313  0.9584 -3.6180
  129SER     CA  123   4.257   1.489   1.863  0.3970  0.5793  0.4080
  129SER     HA  124   4.308   1.563   1.801 -0.3383  1.8542  1.2849
  129SER     CB  125   4.111   1.534   1.887  0.6437 -0.2931  0.9017
  129SER    HB1  126   4.111   1.611   1.964 -2.4551  0.4492  0.2697
  129SER    HB2  127   4.046   1.453   1.919 -1.2111  0.2815 -1.1281
  129SER     OG  128   4.073   1.593   1.767  0.1254  0.3247 -0.0122
  129SER    HG1  129   4.009   1.658   1.797 -0.1649 -0.2410  0.6286
  129SER      C  130   4.334   1.481   2.000  0.4462 -0.1724  0.3276
  129SER      O  131   4.331   1.379   2.064  0.3005  0.1692 -0.0048
  130GLU      N  132   4.397   1.592   2.042 -0.0427 -0.0000  0.4697
  130GLU      H  133   4.390   1.668   1.976  1.6065 -2.2859 -2.5735
  130GLU     CA  134   4.465   1.607   2.162 -0.5502 -0.2283 -0.2028
  130GLU     HA  135   4.452   1.514   2.217  0.3267  0.2235  0.7996
  130GLU     CB  136   4.613   1.641   2.127 -0.7882  0.0245  0.7470
  130GLU    HB1  137   4.658   1.664   2.224 -0.4724 -0.0555  0.6200
  130GLU    HB2  138   4.626   1.724   2.057  2.0910 -1.1945 -0.3349
  130GLU     CG  139   4.679   1.522   2.058 -0.0639  0.3428 -0.3723
  130GLU    HG1  140   4.655   1.512   1.952  1.3187  2.3226 -0.9474
  130GLU    HG2  141   4.645   1.432   2.108  0.9434 -0.7158 -1.5154
  130GLU     CD  142   4.832   1.538   2.076  0.1314 -0.3603  0.5055
  130GLU    OE1  143   4.886   1.615   1.991  0.3530  0.1735  0.6363
  130GLU    OE2  144   4.883   1.487   2.175  0.4069  0.0465  0.2595
  130GLU      C  145   4.398   1.707   2.249  1.2081 -0.3974 -0.1272
  130GLU      O  146   4.327   1.793   2.202  0.4996 -0.6103  0.7902
  131GLU      N  147   4.430   1.706   2.382  0.7175  0.2822 -0.3454
  131GLU      H  148   4.502   1.640   2.409  0.4346  0.8413  1.9843
  131GLU     CA  149   4.361   1.796   2.479  0.4754  1.1024  0.0237
  131GLU     HA  150   4.256   1.766   2.472  0.4522  1.2782 -0.3644
  131GLU     CB  151   4.385   1.749   2.621 -0.5607 -0.5901  1.2959
  131GLU    HB1  152   4.343   1.650   2.636  0.5312 -1.0781  1.2298
  131GLU    HB2  153   4.327   1.811   2.690 -1.2354 -0.7255  0.8598
  131GLU     CG  154   4.538   1.756   2.655 -0.1916  0.5671 -0.1670
  131GLU    HG1  155   4.581   1.849   2.621 -0.5621  0.5115 -0.7890
  131GLU    HG2  156   4.591   1.676   2.603  1.5958  1.8006 -0.3046
  131GLU     CD  157   4.553   1.746   2.802  0.5822 -0.9266 -0.7935
  131GLU    OE1  158   4.596   1.847   2.861 -0.0921 -0.1209  0.6056
  131GLU    OE2  159   4.500   1.653   2.864 -0.3417 -0.6740  0.4506
  131GLU      C  160   4.375   1.951   2.467 -0.2980  0.1620  0.3347
  131GLU      O  161   4.293   2.024   2.519 -0.3478 -0.3944  0.1259
  132GLY      N  162   4.474   1.991   2.385 -0.0174  0.2476 -0.0497
  132GLY      H  163   4.541   1.924   2.350  0.5120  0.5085  0.4463
  132GLY     CA  164   4.495   2.125   2.335  0.1009  0.2724 -0.8368
  132GLY    HA1  165   4.599   2.137   2.308 -0.2065  1.6025 -1.4865
  132GLY    HA2  166   4.461   2.196   2.410  2.2865  0.7138 -0.2125
  132GLY      C  167   4.410   2.162   2.208 -0.3799 -0.0794 -0.5777
  132GLY      O  168   4.411   2.279   2.169  0.3237  0.0177 -0.3860
  133TYR      N  169   4.333   2.072   2.146 -0.1999 -0.3976 -0.2753
  133TYR      H  170   4.340   1.976   2.178 -1.5605 -0.3563  0.1962
  133TYR     CA  171   4.245   2.101   2.031  0.3888  0.5860 -0.2011
  133TYR     HA  172   4.295   2.137   1.941  0.7184  0.5499 -0.0351
  133TYR     CB  173   4.180   1.972   1.976 -0.0886 -0.0787 -0.0410
  133TYR    HB1  174   4.089   2.011   1.930  1.0555  1.7828 -0.8579
  133TYR    HB2  175   4.157   1.910   2.063  4.4665 -1.9228  0.1299
  133TYR     CG  176   4.262   1.895   1.871 -0.4979  0.4777  0.2345
  133TYR    CD1  177   4.205   1.851   1.750  0.1242 -0.6096 -0.4792
  133TYR    HD1  178   4.098   1.865   1.742  0.1002  0.2699  1.0113
  133TYR    CE1  179   4.292   1.822   1.641  0.5827  0.0510 -0.4015
  133TYR    HE1  180   4.244   1.806   1.546  0.6740 -0.8579 -0.3040
  133TYR     CZ  181   4.429   1.805   1.658 -0.0283  0.1707 -0.0730
  133TYR     OH  182   4.504   1.797   1.545  0.3392  0.0532 -0.5566
  133TYR     HH  183   4.590   1.764   1.571  0.0947 -0.3706 -0.2616
  133TYR    CE2  184   4.488   1.836   1.784 -0.0257 -0.0958  0.0294
  133TYR    HE2  185   4.593   1.855   1.796  0.4476  0.1025 -3.6152
  133TYR    CD2  186   4.405   1.888   1.884 -0.1485 -0.0356 -0.7830
  133TYR    HD2  187   4.447   1.922   1.978  0.6947  1.4521 -1.6624
  133TYR      C  188   4.130   2.206   2.068 -0.4379 -0.7790 -0.1913
  133TYR      O  189   4.065   2.186   2.166  0.9762  0.1066  0.0770
  134GLN      N  190   4.114   2.319   2.003 -0.1010 -0.2117 -0.3727
  134GLN      H  191   4.168   2.331   1.919 -0.1777 -3.2765 -0.9542
  134GLN     CA  192   4.024   2.428   2.043 -0.3634 -0.7458  0.0345
  134GLN     HA  193   4.055   2.449   2.145  0.1677  0.2396 -0.3100
  134GLN     CB  194   4.055   2.551   1.948 -0.2961  0.6281  0.6588
  134GLN    HB1  195   4.051   2.515   1.845  0.6465 -0.5207  0.9936
  134GLN    HB2  196   4.159   2.574   1.971  0.2432 -0.8377 -0.0962
  134GLN     CG  197   3.967   2.679   1.959 -0.1867  0.4195  0.2198
  134GLN    HG1  198   3.931   2.682   2.062  1.0741 -0.7827  0.7090
  134GLN    HG2  199   3.879   2.659   1.897 -0.6014 -0.0121  0.9390
  134GLN     CD  200   4.036   2.813   1.929  0.8756  0.6565 -0.4005
  134GLN    OE1  201   4.068   2.901   2.009  0.3442  0.2426  0.0426
  134GLN    NE2  202   4.053   2.851   1.808  0.2369 -0.0015  0.4668
  134GLN   HE21  203   4.090   2.942   1.785 -0.3290 -0.1606 -1.2200
  134GLN   HE22  204   4.022   2.788   1.735 -1.4912 -1.6359  2.4451
  134GLN      C  205   3.874   2.395   2.052 -0.0981  0.2968 -0.0320
  134GLN      O  206   3.822   2.314   1.969  0.2528  0.2844  0.2744
  135ASP      N  207   3.794   2.450   2.144  0.5628  0.7010 -0.5586
  135ASP      H  208   3.831   2.506   2.219  0.7881  0.1069 -0.2170
  135ASP     CA  209   3.642   2.445   2.125 -0.2416  0.0551 -0.2332
  135ASP     HA  210   3.610   2.341   2.132 -0.8068  0.2401 -0.0276
  135ASP     CB  211   3.554   2.516   2.234  0.0622  0.5531 -0.0386
  135ASP    HB1  212   3.452   2.480   2.225  1.2528 -3.1628 -0.1379
  135ASP    HB2  213   3.562   2.624   2.217 -0.8883  0.3982 -1.6583
  135ASP     CG  214   3.590   2.491   2.382  1.2160  0.1469 -0.1200
  135ASP    OD1  215   3.680   2.416   2.418 -0.1887 -0.1996  0.1425
  135ASP    OD2  216   3.508   2.542   2.465 -0.3873 -0.1972  0.0674
  135ASP      C  217   3.596   2.483   1.986  0.0382  0.0733  0.0977
  135ASP      O  218   3.645   2.579   1.927  0.1276 -0.0956  0.5754
  136TYR      N  219   3.499   2.410   1.936  0.9814  0.3571  0.2304
  136TYR      H  220   3.453   2.342   1.995 -0.3991 -1.2234 -2.4587
  136TYR     CA  221   3.436   2.430   1.809 -0.3545 -0.1242  0.2883
  136TYR     HA  222   3.519   2.446   1.741 -0.8287 -1.9704 -0.7832
  136TYR     CB  223   3.356   2.311   1.761  0.4861  0.8060  0.2428
  136TYR    HB1  224   3.311   2.344   1.667 -1.3986 -2.5417 -0.1963
  136TYR    HB2  225   3.277   2.291   1.833 -0.6634 -2.0246 -1.6493
  136TYR     CG  226   3.434   2.181   1.731  0.0056  0.3948  0.9646
  136TYR    CD1  227   3.521   2.177   1.615  0.5536 -0.1074 -0.1984
  136TYR    HD1  228   3.530   2.262   1.550  0.4396 -0.4836 -0.7134
  136TYR    CE1  229   3.583   2.063   1.579 -0.4411  0.6198  0.2929
  136TYR    HE1  230   3.642   2.063   1.489 -0.1366  0.0997  0.4896
  136TYR     CZ  231   3.562   1.939   1.645  0.3284 -0.6402  0.7603
  136TYR     OH  232   3.617   1.829   1.599 -0.3276  0.1741  0.0171
  136TYR     HH  233   3.664   1.849   1.518 -0.4891 -1.2108 -0.4506
  136TYR    CE2  234   3.492   1.940   1.768 -0.2715  0.2481  0.1271
  136TYR    HE2  235   3.471   1.849   1.824 -1.8643  0.9522  0.7302
  136TYR    CD2  236   3.427   2.059   1.806  0.0454  0.0597 -0.0621
  136TYR    HD2  237   3.373   2.056   1.900 -2.3849  0.5755 -1.3363
  136TYR      C  238   3.348   2.551   1.804  0.3248 -0.0911 -0.5134
  136TYR      O  239   3.275   2.577   1.900 -0.4729  0.5071  0.5648
  137GLU      N  240   3.344   2.628   1.694 -0.1961 -0.1265 -0.7942
  137GLU      H  241   3.416   2.605   1.627  0.0132 -1.1859 -0.2349
  137GLU     CA  242   3.256   2.744   1.679  0.0053 -0.5318 -0.5269
  137GLU     HA  243   3.286   2.793   1.771  0.9785 -3.2821  0.7212
  137GLU     CB  244   3.284   2.846   1.565 -0.0930  0.2741 -0.3039
  137GLU    HB1  245   3.391   2.861   1.554  0.4843 -2.0018  1.5035
  137GLU    HB2  246   3.232   2.939   1.588 -1.0449 -0.3911  0.3452
  137GLU     CG  247   3.236   2.791   1.433  0.3949  0.4173  0.2593
  137GLU    HG1  248   3.128   2.782   1.440  0.3800  0.9454  0.8208
  137GLU    HG2  249   3.281   2.692   1.423 -0.5358 -0.2604  2.2698
  137GLU     CD  250   3.280   2.870   1.305  0.4391  0.7619 -0.2230
  137GLU    OE1  251   3.382   2.948   1.297 -0.2703 -0.3682 -0.3081
  137GLU    OE2  252   3.211   2.847   1.201 -0.4305  0.0300 -0.2554
  137GLU      C  253   3.104   2.716   1.698  0.1252  0.4055 -0.7979
  137GLU      O  254   3.052   2.615   1.649 -0.2548  0.0425 -0.1414
  138PRO      N  255   3.024   2.805   1.770  0.0797 -0.3320 -0.1614
  138PRO     CD  256   3.066   2.922   1.846 -0.3104 -0.4750  0.4378
  138PRO    HD1  257   3.101   2.994   1.773 -0.8054  1.1282  1.7269
  138PRO    HD2  258   3.138   2.903   1.926 -1.4520  0.3439  1.6837
  138PRO     CG  259   2.937   2.973   1.907  0.6887  0.4664 -0.0278
  138PRO    HG1  260   2.900   3.057   1.850 -0.9620 -0.0626  0.2229
  138PRO    HG2  261   2.955   3.014   2.007  4.9153 -1.2999  0.1632
  138PRO     CB  262   2.837   2.858   1.908  0.5343  0.0053  0.1771
  138PRO    HB1  263   2.863   2.793   1.992  1.7600  0.7070  0.3603
  138PRO    HB2  264   2.734   2.891   1.897 -0.0591 -1.4806  0.9082
  138PRO     CA  265   2.880   2.785   1.780 -0.2676 -0.0164  0.2108
  138PRO     HA  266   2.863   2.678   1.795  0.8514 -0.3349 -0.6458
  138PRO      C  267   2.802   2.829   1.666 -0.4240 -1.0515  0.5872
  138PRO      O  268   2.847   2.914   1.584  0.0599  0.3700  0.1619
  139GLU      N  269   2.679   2.776   1.665 -0.6204  0.5239  0.3250
  139GLU      H  270   2.659   2.702   1.732  1.4733  1.4379  2.0828
  139GLU     CA  271   2.576   2.825   1.568 -1.1295 -0.3363 -0.7070
  139GLU     HA  272   2.635   2.867   1.487  1.2696  1.0119  1.5865
  139GLU     CB  273   2.485   2.712   1.517 -0.3359 -0.0550 -0.4602
  139GLU    HB1  274   2.528   2.648   1.439 -1.5155 -1.5398  0.0443
  139GLU    HB2  275   2.401   2.756   1.464 -0.3739  0.1859 -0.1966
  139GLU     CG  276   2.420   2.630   1.623 -0.1300  0.1826 -0.5157
  139GLU    HG1  277   2.356   2.700   1.677  0.6713  0.3888  0.1744
  139GLU    HG2  278   2.493   2.590   1.694 -0.5330  0.5578  0.1211
  139GLU     CD  279   2.333   2.513   1.571 -0.5129  0.7564 -0.6047
  139GLU    OE1  280   2.280   2.523   1.462 -0.4947  0.0962 -0.0735
  139GLU    OE2  281   2.304   2.424   1.652  0.2566  0.2351 -0.3377
  139GLU      C  282   2.507   2.947   1.626  0.3895  0.7983  0.4841
  139GLU      O  283   2.469   3.039   1.550  0.0416  0.0332 -0.6710
  140CALA     N  284   2.478   2.952   1.757  0.0277 -0.0892 -0.7217
  140CALA     H  285   2.524   2.879   1.810 -1.3176  0.9209  2.0302
  140CALA    CA  286   2.378   3.041   1.821  0.9552  0.2074  0.0267
  140CALA    HA  287   2.380   3.139   1.774 -2.8864 -0.0752 -1.0124
  140CALA    CB  288   2.247   2.971   1.814 -0.1653  0.0615 -0.3004
  140CALA   HB1  289   2.188   3.032   1.882 -0.8051 -0.1035 -0.6999
  140CALA   HB2  290   2.253   2.868   1.850 -0.7304 -0.4954 -1.7376
  140CALA   HB3  291   2.195   2.973   1.718 -3.0514 -0.9436  1.1489
  140CALA     C  292   2.427   3.065   1.961  0.0061  0.1824  0.3753
  140CALA   OC1  293   2.449   2.970   2.038 -0.0564  0.9199 -0.0536
  140CALA   OC2  294   2.467   3.183   1.985 -0.1118  0.1369  0.2299
  141FAS      C  295   1.032   4.780   2.307  0.7047  0.1862  0.2460
  141FAS     C1  296   0.960   4.843   2.427  0.2378  0.0114 -0.1873
  141FAS      N  297   0.839   4.929   2.396  0.1194 -0.6220 -0.0472
  141FAS     C2  298   0.861   5.037   2.277  0.5353  0.0861  0.5023
  141FAS     C3  299   1.003   5.089   2.260  0.3780 -0.4287 -0.4637
  141FAS     N1  300   1.095   4.996   2.184 -0.2006 -0.6781 -0.0080
  141FAS     C4  301   1.143   4.870   2.245  0.6225 -0.2482 -0.0952
  141FAS      S  302   1.224   5.088   2.117  0.0006 -0.2072 -0.0607
  141FAS      O  303   1.272   5.178   2.223 -0.0454 -0.0968 -0.1568
  141FAS     O1  304   1.323   4.995   2.064  0.5515 -0.5605 -0.9479
  141FAS     C5  305   1.174   5.172   1.972  0.3228  0.0936 -0.7492
  141FAS     C6  306   1.053   5.121   1.914  0.1227 -0.4534 -0.2049
  141FAS     C7  307   0.988   5.190   1.806 -0.1126 -0.1204  0.0710
  141FAS     C8  308   1.052   5.304   1.758  0.4366 -0.0512  0.4262
  141FAS     C9  309   1.178   5.335   1.806 -0.2454  0.0450  0.6326
  141FAS    C10  310   1.245   5.276   1.911 -0.0728  0.9346 -1.2197
  141FAS    C11  311   1.362   5.328   1.958 -0.2887 -0.1739 -0.1116
  141FAS    C12  312   1.419   5.436   1.891 -0.5448 -0.1373  0.3088
  141FAS     N2  313   1.356   5.503   1.791  0.3881  0.5696  0.2524
  141FAS    C13  314   1.237   5.456   1.756 -0.5003  0.1148  0.0635
  141FAS      H  315   0.958   4.752   2.231 -0.3959  2.5303  0.3646
  141FAS     H1  316   1.073   4.686   2.344 -0.0076  0.5647  2.0858
  141FAS     H2  317   1.026   4.910   2.481 -0.9149  0.3971  0.8045
  141FAS     H3  318   0.932   4.763   2.495  3.8861 -1.3221 -0.0636
  141FAS     H4  319   0.759   4.869   2.370  0.1919 -0.5805 -0.3713
  141FAS     H5  320   0.788   5.109   2.313 -2.7879 -2.4132 -0.7368
  141FAS     H6  321   0.818   4.997   2.185  1.3556  0.4419 -0.0550
  141FAS     H7  322   1.037   5.113   2.361 -1.4778 -1.9052  0.5828
  141FAS     H8  323   0.990   5.186   2.210  4.3185  0.5613  0.1199
  141FAS     H9  324   1.207   4.902   2.328 -2.2536  0.7553  1.8958
  141FAS    H10  325   1.198   4.802   2.178  1.6775 -2.9391  3.2330
  141FAS    H11  326   1.006   5.032   1.954  0.1130 -0.0501  0.6981
  141FAS    H12  327   0.895   5.148   1.771  1.0712 -3.5278  0.6472
  141FAS    H13  328   1.005   5.369   1.684  1.7123  0.6938  0.2356
  141FAS    H14  329   1.417   5.283   2.040  1.2214 -1.1849 -1.6139
  141FAS    H15  330   1.519   5.469   1.918 -0.0241  0.1359 -1.8216
  141FAS    H16  331   1.175   5.515   1.688  0.8213  0.8375 -0.5447
  141FAS    H17  332   0.820   4.987   2.479  1.6091  1.0886 -0.8424
  142SOL     OW  333   1.672   0.710   3.782 -0.1231  0.4992 -0.4703
  142SOL    HW2  334   1.688   0.752   3.866 -1.2383  0.4737 -0.2294
  142SOL    HW3  335   1.609   0.767   3.739  0.9721  0.8966 -1.6063
  142SOL    MW4  336   1.666   0.723   3.787 -0.1257  0.5483 -0.5884
  143SOL     OW  337   1.557   5.328   4.306 -0.1796  0.1844  0.5052
  143SOL    HW2  338   1.468   5.353   4.331  0.2486  0.1326  2.2337
  143SOL    HW3  339   1.563   5.236   4.330  0.4398  0.2816  0.7347
  143SOL    MW4  340   1.546   5.319   4.313 -0.0414  0.1904  0.7635
  144SOL     OW  341   0.739   4.280   1.178 -0.0766  0.3643  0.1236
  144SOL    HW2  342   0.726   4.228   1.258 -1.2247 -1.8636 -1.3998
  144SOL    HW3  343   0.665   4.340   1.176 -0.1910  0.2480  0.6159
  144SOL    MW4  344   0.728   4.281   1.189 -0.2432  0.0550 -0.0124
  145SOL     OW  345   6.245   4.614   1.042 -0.2683  0.0707 -0.6118
  145SOL    HW2  346   6.229   4.696   0.995  0.8853  0.8524  0.3029
  145SOL    HW3  347   6.243   4.546   0.974  1.9878  1.2184 -1.9481
  145SOL    MW4  348   6.243   4.616   1.027  0.1816  0.3252 -0.6674
  146SOL     OW  349   0.975   4.373   6.340  0.2938 -0.3234  0.2957
  146SOL    HW2  350   1.016   4.454   6.310 -0.8633  1.1685  2.4276
  146SOL    HW3  351   0.892   4.370   6.292  0.4134 -0.3423  0.0883
  146SOL    MW4  352   0.969   4.383   6.330  0.1569 -0.1291  0.5496
  147SOL     OW  353   3.607   0.034   3.949 -0.0961 -0.1511 -0.0153
  147SOL    HW2  354   3.615  -0.052   3.991 -1.2960 -0.5428 -0.5435
  147SOL    HW3  355   3.631   0.018   3.858 -0.4042  0.0525 -0.1344
  147SOL    MW4  356   3.611   0.021   3.943 -0.2951 -0.1759 -0.1007
  148SOL     OW  357   1.306   1.872   3.661  0.3617 -0.6050 -0.1937
  148SOL    HW2  358   1.233   1.933   3.654  0.9470  0.0204 -1.1175
  148SOL    HW3  359   1.382   1.928   3.679  0.8258 -1.1090 -0.5560
  148SOL    MW4  360   1.307   1.887   3.662  0.5001 -0.5890 -0.3634
  149SOL     OW  361   1.136   2.134   3.691  0.0026  0.2780 -0.0035
  149SOL    HW2  362   1.104   2.110   3.777  0.1937  2.0382  0.5926
  149SOL    HW3  363   1.073   2.096   3.630 -0.5618 -0.3243  0.9365
  149SOL    MW4  364   1.124   2.126   3.694 -0.0466  0.4307  0.1991
  150SOL     OW  365   5.147   2.553   5.997 -0.0527 -0.1271  0.6265
  150SOL    HW2  366   5.235   2.516   6.004  0.3078  0.7030  0.6454
  150SOL    HW3  367   5.146   2.623   6.062 -0.1058  1.0515 -0.6008
  150SOL    MW4  368   5.159   2.557   6.007 -0.0121  0.1380  0.4671
  151SOL     OW  369   4.407   0.591   4.262  0.0335 -0.0270 -0.0897
  151SOL    HW2  370   4.481   0.562   4.209 -0.7989 -0.0784 -1.2568
  151SOL    HW3  371   4.331   0.548   4.223 -0.6679  0.3442  0.8358
  151SOL    MW4  372   4.407   0.582   4.250 -0.1688  0.0152 -0.1216
  152SOL     OW  373   3.912   5.615   3.681  0.3919 -0.0990  0.5125
  152SOL    HW2  374   3.898   5.539   3.737  1.7750 -2.1755 -1.7680
  152SOL    HW3  375   3.851   5.604   3.609  2.1024 -0.3058 -0.9666
  152SOL    MW4  376   3.902   5.604   3.679  0.8001 -0.4003  0.0164
  153SOL     OW  377   6.393   6.184   1.307 -0.4341  0.5286 -0.0442
  153SOL    HW2  378   6.348   6.105   1.278 -1.5670  1.1305  0.0049
  153SOL    HW3  379   6.326   6.233   1.356  1.0921  0.0660  2.6663
  153SOL    MW4  380   6.378   6.180   1.310 -0.3822  0.5470  0.3199
  154SOL     OW  381   3.922   2.122   0.827  0.2404 -0.3613 -0.0918
  154SOL    HW2  382   3.934   2.037   0.785  1.6643 -0.5506  0.6306
  154SOL    HW3  383   3.885   2.178   0.758 -1.3506 -1.7094 -0.3773
  154SOL    MW4  384   3.919   2.119   0.812  0.2183 -0.5642 -0.0341
  155SOL     OW  385   5.443   0.973   1.153 -0.0307  0.0377  0.1377
  155SOL    HW2  386   5.380   0.974   1.082 -0.1852 -2.6207  0.1325
  155SOL    HW3  387   5.509   0.909   1.126  0.9317  0.3818  1.5488
  155SOL    MW4  388   5.444   0.965   1.140  0.0759 -0.2677  0.3232
  156SOL     OW  389   1.742   4.926   1.356 -0.3637 -0.4144 -0.1531
  156SOL    HW2  390   1.741   4.831   1.344 -0.8809 -0.7567  2.1492
  156SOL    HW3  391   1.653   4.954   1.334 -0.4184 -0.5698 -0.1298
  156SOL    MW4  392   1.730   4.918   1.351 -0.4391 -0.4801  0.1537
  157SOL     OW  393   4.460   5.739   4.346  0.6407  0.1182  0.3022
  157SOL    HW2  394   4.445   5.746   4.440  0.4718 -0.6597  0.3328
  157SOL    HW3  395   4.463   5.645   4.328  0.4486  0.2565 -0.5044
  157SOL    MW4  396   4.459   5.728   4.356  0.5931  0.0339  0.1998
  158SOL     OW  397   5.038   5.066   3.777  0.5256  0.6487  0.1696
  158SOL    HW2  398   5.101   5.003   3.812 -1.0123 -0.8243  0.4350
  158SOL    HW3  399   5.020   5.035   3.688 -2.3472 -1.1059  1.2154
  158SOL    MW4  400   5.044   5.053   3.770 -0.0564  0.2228  0.3426
  159SOL     OW  401   0.030   4.208   2.954  0.1346  0.1209 -0.6098
  159SOL    HW2  402   0.113   4.172   2.983 -0.0057  0.6541  0.4907
  159SOL    HW3  403   0.012   4.163   2.871  0.9903 -0.7737 -0.3284
  159SOL    MW4  404   0.038   4.197   2.946  0.2290  0.0732 -0.4275
  160SOL     OW  405   5.841   2.878   2.858  0.0354  0.3477 -0.9697
  160SOL    HW2  406   5.771   2.910   2.915 -0.4091 -2.6351  0.3653
  160SOL    HW3  407   5.916   2.867   2.916  0.7020  0.6581 -1.7565
  160SOL    MW4  408   5.842   2.881   2.874  0.0647 -0.0049 -0.8974
  161SOL     OW  409   2.233   4.614   3.659 -0.3736  0.3466 -0.8029
  161SOL    HW2  410   2.263   4.546   3.719 -0.1997 -0.3144 -1.6199
  161SOL    HW3  411   2.138   4.602   3.654 -0.2048 -0.7180 -1.9611
  161SOL    MW4  412   2.224   4.604   3.666 -0.3284  0.1189 -1.0635
  162SOL     OW  413   1.881   3.696   5.617 -0.5801 -0.6264  0.0851
  162SOL    HW2  414   1.840   3.614   5.644  1.3925 -1.4008  0.9168
  162SOL    HW3  415   1.845   3.762   5.676 -2.1813 -0.8517 -0.5918
  162SOL    MW4  416   1.871   3.694   5.628 -0.5311 -0.7583  0.1055
  163SOL     OW  417   4.598   4.060   4.347  0.1471 -0.2249  0.2450
  163SOL    HW2  418   4.609   3.984   4.290  1.5084  0.6168 -0.6942
  163SOL    HW3  419   4.572   4.131   4.288 -0.4917  0.1822  1.0013
  163SOL    MW4  420   4.596   4.060   4.332  0.2424 -0.0601  0.2209
  164SOL     OW  421   0.448   2.777   6.038 -0.0166 -0.7774  0.4433
  164SOL    HW2  422   0.369   2.829   6.049  0.3392 -0.0660 -0.2882
  164SOL    HW3  423   0.494   2.817   5.964  0.7271 -1.5552  0.4593
  164SOL    MW4  424   0.444   2.789   6.030  0.1285 -0.7862  0.3489
  165SOL     OW  425   2.874   1.510   5.860 -0.1420 -0.0510 -0.4561
  165SOL    HW2  426   2.947   1.570   5.851 -0.3958  0.7953  2.2835
  165SOL    HW3  427   2.801   1.565   5.889 -1.1637 -1.2603 -0.6404
  165SOL    MW4  428   2.874   1.525   5.863 -0.3103 -0.0989 -0.1190
  166SOL     OW  429   2.652   3.284   3.716  0.2800 -0.0373 -0.0636
  166SOL    HW2  430   2.665   3.199   3.673 -0.5469  0.6215 -1.6982
  166SOL    HW3  431   2.606   3.337   3.651  0.0011  1.3984  1.2480
  166SOL    MW4  432   2.648   3.280   3.701  0.1341  0.2391 -0.1062
  167SOL     OW  433   1.733   4.100   0.762 -0.0770 -0.2129  0.7059
  167SOL    HW2  434   1.810   4.088   0.706 -1.5449 -1.1950 -1.2162
  167SOL    HW3  435   1.736   4.192   0.788 -0.7443  1.1418 -3.3338
  167SOL    MW4  436   1.744   4.110   0.758 -0.3587 -0.1637 -0.0807
  168SOL     OW  437   4.121   6.065   5.197 -0.1665  0.5586 -0.2383
  168SOL    HW2  438   4.057   6.007   5.238 -0.1856  1.2275  0.7227
  168SOL    HW3  439   4.189   6.075   5.263 -0.0294  1.4004 -0.4975
  168SOL    MW4  440   4.121   6.058   5.211 -0.1509  0.7579 -0.1457
  169SOL     OW  441   0.134   3.182   0.128  0.1989 -0.0788 -0.4700
  169SOL    HW2  442   0.162   3.172   0.037 -0.4010 -2.2600 -0.4736
  169SOL    HW3  443   0.182   3.113   0.175  0.0248  0.6147  0.7545
  169SOL    MW4  444   0.144   3.171   0.122  0.0968 -0.2751 -0.3089
  170SOL     OW  445   6.266   4.060   4.977  0.0979  0.2316  0.4537
  170SOL    HW2  446   6.306   4.037   5.061  0.9711  0.0525  0.0033
  170SOL    HW3  447   6.315   4.137   4.948  0.2618 -0.1167 -0.2085
  170SOL    MW4  448   6.278   4.067   4.984  0.2348  0.1620  0.3069
  171SOL     OW  449   6.408   5.891   0.767  0.0033 -0.3931  0.0947
  171SOL    HW2  450   6.320   5.891   0.730  0.4758  0.0094 -1.0848
  171SOL    HW3  451   6.449   5.811   0.732  0.6958  0.3690 -0.8819
  171SOL    MW4  452   6.402   5.880   0.758  0.1570 -0.2395 -0.1897
  172SOL     OW  453   1.214   1.377   5.326 -0.2297  0.2224 -0.0730
  172SOL    HW2  454   1.286   1.343   5.271 -0.1353  1.2122 -0.5851
  172SOL    HW3  455   1.185   1.456   5.280 -2.4444 -0.7859 -0.4983
  172SOL    MW4  456   1.220   1.383   5.313 -0.5094  0.2200 -0.1967
  173SOL     OW  457   2.408   3.811   2.282 -0.2721  0.0997  0.0905
  173SOL    HW2  458   2.366   3.737   2.238 -0.9375  1.0226 -0.8794
  173SOL    HW3  459   2.400   3.791   2.375 -0.0690 -1.2384 -0.1530
  173SOL    MW4  460   2.402   3.798   2.288 -0.3331  0.0449 -0.0696
  174SOL     OW  461   4.134   4.971   0.095 -0.0640  0.2037 -0.1472
  174SOL    HW2  462   4.196   4.899   0.093 -1.3085 -1.0179  1.8144
  174SOL    HW3  463   4.048   4.929   0.091 -0.8199  1.5755  0.9223
  174SOL    MW4  464   4.131   4.956   0.094 -0.3279  0.2235  0.2527
  175SOL     OW  465   1.189   1.485   5.032  0.0994 -0.7006  0.1558
  175SOL    HW2  466   1.199   1.452   4.942  0.5236  0.1724 -0.1281
  175SOL    HW3  467   1.102   1.454   5.059 -1.8298  2.2336 -1.9842
  175SOL    MW4  468   1.179   1.476   5.023 -0.0992 -0.1983 -0.1640
  176SOL     OW  469   0.313   1.355   0.938  0.3061 -0.3514 -0.3725
  176SOL    HW2  470   0.300   1.281   0.997 -0.0610 -0.4063 -0.5246
  176SOL    HW3  471   0.286   1.323   0.853  1.2821 -0.4252 -0.6691
  176SOL    MW4  472   0.308   1.341   0.935  0.3864 -0.3684 -0.4317
  177SOL     OW  473   6.340   3.001   0.095  0.0200 -0.5617 -0.0133
  177SOL    HW2  474   6.386   3.070   0.143  0.3698 -0.7555 -0.0703
  177SOL    HW3  475   6.353   3.023   0.003  1.9667 -1.8742 -0.0940
  177SOL    MW4  476   6.348   3.013   0.089  0.3230 -0.7604 -0.0315
  178SOL     OW  477   5.848   2.606   4.836 -0.3133 -0.3175  0.7229
  178SOL    HW2  478   5.895   2.654   4.905 -1.4095  1.6774  0.1475
  178SOL    HW3  479   5.803   2.536   4.882  1.2980 -0.8343  1.6026
  178SOL    MW4  480   5.848   2.603   4.851 -0.2454 -0.1225  0.7630
  179SOL     OW  481   1.067   6.033   0.778 -0.2231 -0.4605 -0.0129
  179SOL    HW2  482   0.995   6.096   0.782 -0.7840 -1.1368  1.7191
  179SOL    HW3  483   1.142   6.079   0.816 -0.6527 -0.8124  1.3270
  179SOL    MW4  484   1.067   6.047   0.783 -0.3538 -0.5962  0.3924
  180SOL     OW  485   5.585   4.696   2.453  0.5038  0.3204 -0.6198
  180SOL    HW2  486   5.662   4.640   2.441  0.1000 -0.3976  0.0137
  180SOL    HW3  487   5.595   4.733   2.541 -0.0313 -0.0666 -0.3829
  180SOL    MW4  488   5.596   4.693   2.463  0.3799  0.1746 -0.5049
  181SOL     OW  489   4.278   4.361   6.021 -0.1112  0.3235  0.0989
  181SOL    HW2  490   4.277   4.283   5.966 -0.0011  0.1493  0.3402
  181SOL    HW3  491   4.215   4.420   5.981 -1.6656 -0.6605  1.0156
  181SOL    MW4  492   4.270   4.359   6.008 -0.3018  0.1707  0.2517
  182SOL     OW  493   4.775   1.772   5.307 -0.0735 -0.2359  0.6314
  182SOL    HW2  494   4.691   1.750   5.268 -0.1956  0.7269  0.3167
  182SOL    HW3  495   4.762   1.860   5.344  0.9711  0.1913  0.0267
  182SOL    MW4  496   4.763   1.781   5.307  0.0482 -0.0525  0.5101
  183SOL     OW  497   2.726   5.161   1.801 -0.4888 -0.2153  0.3673
  183SOL    HW2  498   2.663   5.122   1.861  0.1197 -0.9624  0.5372
  183SOL    HW3  499   2.748   5.091   1.740  1.2117 -0.3978  1.1402
  183SOL    MW4  500   2.720   5.147   1.801 -0.1841 -0.3379  0.4917
  184SOL     OW  501   2.346   5.037   1.774 -0.1567  0.0739 -0.1641
  184SOL    HW2  502   2.328   5.109   1.713  3.2283  1.6846  0.5212
  184SOL    HW3  503   2.356   4.960   1.719 -1.2276  0.6362 -1.1937
  184SOL    MW4  504   2.345   5.036   1.759  0.1486  0.3606 -0.2095
  185SOL     OW  505   1.563   3.377   2.608  0.6490  0.3431  0.5220
  185SOL    HW2  506   1.507   3.310   2.568  0.3261  0.6500  0.4604
  185SOL    HW3  507   1.538   3.376   2.701  1.7244 -0.7004  0.8390
  185SOL    MW4  508   1.552   3.368   2.615  0.7483  0.2459  0.5557
  186SOL     OW  509   2.905   4.730   5.265 -0.4794 -0.2111  0.1818
  186SOL    HW2  510   2.997   4.719   5.241  0.2313  1.3153  1.9660
  186SOL    HW3  511   2.897   4.823   5.286 -2.8393  0.0248 -1.4096
  186SOL    MW4  512   2.916   4.741   5.264 -0.6970  0.0214  0.2072
  187SOL     OW  513   5.007   1.847   1.378  0.2022 -0.0054 -0.4896
  187SOL    HW2  514   5.060   1.826   1.456 -0.3543  0.6214  0.0632
  187SOL    HW3  515   4.925   1.800   1.391  0.2483 -0.2002 -0.8832
  187SOL    MW4  516   5.004   1.838   1.390  0.1349  0.0516 -0.4686
  188SOL     OW  517   0.905   1.062   5.110  0.4505 -0.0049  0.0048
  188SOL    HW2  518   0.810   1.059   5.102  0.3658  0.7879  0.6443
  188SOL    HW3  519   0.933   0.972   5.092 -0.5365 -0.6247  1.3717
  188SOL    MW4  520   0.896   1.049   5.107  0.3091  0.0179  0.2695
  189SOL     OW  521   1.337   5.894   4.309  0.9039  0.0609  0.1709
  189SOL    HW2  522   1.294   5.936   4.235 -0.6017 -2.2505 -0.3771
  189SOL    HW3  523   1.423   5.935   4.314  1.0371  0.3636 -2.8219
  189SOL    MW4  524   1.343   5.905   4.300  0.7228 -0.2041 -0.2963
  190SOL     OW  525   5.995   4.495   6.169  0.2698  0.0590  0.2807
  190SOL    HW2  526   6.044   4.520   6.247  1.4343  0.8943 -0.6775
  190SOL    HW3  527   5.904   4.516   6.190  0.8145  2.2535  0.6712
  190SOL    MW4  528   5.990   4.501   6.182  0.4953  0.4587  0.2058
  191SOL     OW  529   0.638   1.822   6.300 -0.0901 -0.3254  0.4801
  191SOL    HW2  530   0.624   1.753   6.365  1.4974 -0.5553  0.6206
  191SOL    HW3  531   0.578   1.892   6.325 -0.8523 -1.1652  1.0569
  191SOL    MW4  532   0.629   1.822   6.312  0.0188 -0.4665  0.5747
  192SOL     OW  533   0.555   0.730   2.343 -0.0830 -0.4128  0.2371
  192SOL    HW2  534   0.642   0.743   2.304  0.1958 -1.0736  0.6272
  192SOL    HW3  535   0.514   0.665   2.287 -0.8280  0.8225 -0.7045
  192SOL    MW4  536   0.561   0.723   2.330 -0.1445 -0.3370  0.1643
  193SOL     OW  537   3.655   2.433   3.493 -0.3108  0.5005  0.1118
  193SOL    HW2  538   3.567   2.464   3.517  0.6635  1.8994  2.1298
  193SOL    HW3  539   3.664   2.349   3.538 -0.1743  0.9559  0.9517
  193SOL    MW4  540   3.644   2.426   3.502 -0.1643  0.7452  0.4889
  194SOL     OW  541   4.978   4.193   6.015 -0.1652 -0.1455 -0.1347
  194SOL    HW2  542   5.060   4.154   6.043 -1.0089 -0.5561  1.9110
  194SOL    HW3  543   4.942   4.130   5.952 -1.3433 -2.7427  2.8382
  194SOL    MW4  544   4.984   4.179   6.010 -0.4319 -0.5423  0.5274
  195SOL     OW  545   3.094   1.017   0.260 -0.4240 -0.0446  0.0645
  195SOL    HW2  546   3.053   1.086   0.312 -0.5097  0.8311 -1.1200
  195SOL    HW3  547   3.051   1.023   0.174 -1.3574 -2.4265  0.2894
  195SOL    MW4  548   3.083   1.027   0.255 -0.5585 -0.2433 -0.0621
  196SOL     OW  549   4.341   3.733   5.181 -0.2707 -0.4172  0.6757
  196SOL    HW2  550   4.308   3.803   5.238 -0.7319  1.7016 -1.9923
  196SOL    HW3  551   4.432   3.721   5.210  0.6768  3.1634 -0.2970
  196SOL    MW4  552   4.349   3.741   5.193 -0.2066  0.3348  0.1953
  197SOL     OW  553   3.945   1.248   5.251 -0.2331  0.2181 -0.1698
  197SOL    HW2  554   3.971   1.325   5.200 -0.1385  0.8146  0.7553
  197SOL    HW3  555   3.873   1.279   5.306 -0.7216 -0.5709 -0.3511
  197SOL    MW4  556   3.939   1.262   5.252 -0.2850  0.1927 -0.0716
  198SOL     OW  557   4.669   3.193   3.774  0.1576  0.1864 -0.0234
  198SOL    HW2  558   4.582   3.228   3.794  0.2534  1.4872 -1.6398
  198SOL    HW3  559   4.727   3.232   3.840 -0.0144  1.8462 -0.8064
  198SOL    MW4  560   4.665   3.203   3.785  0.1476  0.5770 -0.3400
  199SOL     OW  561   5.134   3.019   3.294  0.6301  0.1549  0.0594
  199SOL    HW2  562   5.192   3.078   3.246  2.5130  0.5597  2.6336
  199SOL    HW3  563   5.084   3.077   3.352 -1.1080 -0.3820 -0.8214
  199SOL    MW4  564   5.135   3.034   3.295  0.6492  0.1375  0.2829
  200SOL     OW  565   3.854   3.167   3.638 -0.1392  0.4572 -0.1620
  200SOL    HW2  566   3.832   3.095   3.578  2.0344 -1.4631  1.2138
  200SOL    HW3  567   3.791   3.158   3.710  0.3034 -0.2980  0.1445
  200SOL    MW4  568   3.842   3.156   3.640  0.2060  0.1042  0.0600
  201SOL     OW  569   5.218   1.355   3.556  0.5134 -0.5851 -0.7042
  201SOL    HW2  570   5.229   1.450   3.553  1.0223 -0.6090  0.0446
  201SOL    HW3  571   5.271   1.323   3.483  1.6859 -0.3788  0.0210
  201SOL    MW4  572   5.227   1.363   3.546  0.7352 -0.5610 -0.5097
  202SOL     OW  573   4.409   5.058   0.736 -0.7305 -0.3978 -0.2167
  202SOL    HW2  574   4.455   5.024   0.812 -1.6486 -0.2993  0.3960
  202SOL    HW3  575   4.318   5.031   0.748 -1.3686  1.6265 -0.0466
  202SOL    MW4  576   4.403   5.050   0.747 -0.9358 -0.1177 -0.1134
  203SOL     OW  577   3.319   1.763   3.081 -0.4755  0.4298 -0.2005
  203SOL    HW2  578   3.360   1.848   3.099  2.1484 -0.6366 -0.7386
  203SOL    HW3  579   3.326   1.715   3.164  1.4832 -0.5205 -0.8466
  203SOL    MW4  580   3.325   1.768   3.094  0.1291  0.1637 -0.3567
  204SOL     OW  581   5.503   3.914   2.973  0.2405 -0.1780 -0.1186
  204SOL    HW2  582   5.586   3.945   3.009  1.3170 -1.1005 -1.6498
  204SOL    HW3  583   5.454   3.994   2.954  0.9220  0.4036  0.5166
  204SOL    MW4  584   5.508   3.929   2.975  0.4725 -0.2230 -0.2368
  205SOL     OW  585   3.568   0.689   3.017 -0.0128 -0.3926  0.1388
  205SOL    HW2  586   3.493   0.719   3.069 -1.1853 -1.1524 -1.0819
  205SOL    HW3  587   3.537   0.610   2.973 -0.0821  1.6308 -3.9231
  205SOL    MW4  588   3.554   0.683   3.018 -0.1766 -0.2259 -0.5582
  206SOL     OW  589   5.422   3.999   0.225  0.5132  0.2609 -0.0209
  206SOL    HW2  590   5.385   3.977   0.139 -0.4473  0.2770  0.3670
  206SOL    HW3  591   5.490   3.934   0.239 -2.7598 -3.2375  1.4548
  206SOL    MW4  592   5.426   3.988   0.216 -0.0453 -0.1985  0.2250
  207SOL     OW  593   2.817   0.293   1.950  0.1471 -0.3937  0.3420
  207SOL    HW2  594   2.825   0.290   2.045  2.3411 -1.8216  0.1748
  207SOL    HW3  595   2.782   0.380   1.932 -0.6188 -0.2002  2.4386
  207SOL    MW4  596   2.813   0.304   1.960  0.3355 -0.5565  0.5966
  208SOL     OW  597   4.022   5.233   2.023 -0.4149  0.4607  0.0458
  208SOL    HW2  598   4.048   5.273   1.940 -1.2167  2.8641  0.8456
  208SOL    HW3  599   4.012   5.307   2.083  0.6547 -1.2221  2.4782
  208SOL    MW4  600   4.024   5.248   2.020 -0.3795  0.5558  0.4723
  209SOL     OW  601   1.355   5.787   1.812  0.3998 -0.8899  0.3659
  209SOL    HW2  602   1.316   5.701   1.824  0.7976 -1.0001  0.8920
  209SOL    HW3  603   1.426   5.773   1.749 -0.6294 -0.6158 -0.9124
  209SOL    MW4  604   1.360   5.774   1.805  0.3165 -0.8683  0.2667
  210SOL     OW  605   3.860   5.224   0.464  0.3694  0.0931  0.2965
  210SOL    HW2  606   3.841   5.230   0.371 -1.5897 -1.5046  0.5222
  210SOL    HW3  607   3.949   5.188   0.469 -0.1784 -1.5836 -1.0203
  210SOL    MW4  608   3.870   5.220   0.453  0.0387 -0.3389  0.1525
  211SOL     OW  609   3.423   1.108   0.583  0.2894  0.1394 -0.7512
  211SOL    HW2  610   3.506   1.063   0.603  0.0027 -0.5491 -1.0938
  211SOL    HW3  611   3.356   1.054   0.625  0.1423  1.6733  1.0831
  211SOL    MW4  612   3.425   1.095   0.591  0.2322  0.2510 -0.5544
  212SOL     OW  613   3.875   1.631   1.372  0.0315  0.0265 -0.9658
  212SOL    HW2  614   3.942   1.592   1.428 -0.0334 -0.1523 -1.0121
  212SOL    HW3  615   3.897   1.600   1.284  0.3521  0.6037 -1.0938
  212SOL    MW4  616   3.887   1.622   1.368  0.0653  0.0790 -0.9888
  213SOL     OW  617   3.112   1.861   5.265 -0.0637  0.8800 -0.7949
  213SOL    HW2  618   3.130   1.955   5.276 -0.9692  0.8847  1.1325
  213SOL    HW3  619   3.016   1.855   5.266 -0.0578  0.0552 -2.4281
  213SOL    MW4  620   3.101   1.873   5.267 -0.1824  0.7718 -0.7561
  214SOL     OW  621   3.573   0.680   6.263  0.3395 -0.3541  0.6992
  214SOL    HW2  622   3.662   0.648   6.280 -0.0920 -1.1855  1.5305
  214SOL    HW3  623   3.571   0.696   6.169  1.0020 -1.5530  0.4528
  214SOL    MW4  624   3.584   0.678   6.253  0.3700 -0.6220  0.7764
  215SOL     OW  625   2.812   6.119   5.306  0.3398 -0.3826 -0.9300
  215SOL    HW2  626   2.836   6.143   5.216 -3.3984 -1.7655 -2.4929
  215SOL    HW3  627   2.789   6.027   5.301 -0.6405 -0.3280  1.3210
  215SOL    MW4  628   2.812   6.110   5.293 -0.2828 -0.5579 -0.8392
  216SOL     OW  629   5.038   1.745   2.907  0.2403  0.1531  0.4803
  216SOL    HW2  630   4.974   1.810   2.878  0.9890  1.4233  1.5329
  216SOL    HW3  631   5.120   1.795   2.915  1.4464 -1.4644 -1.0345
  216SOL    MW4  632   5.041   1.760   2.904  0.4982  0.1072  0.4193
  217SOL     OW  633   3.485   6.080   0.752 -0.2440  0.1996  0.0705
  217SOL    HW2  634   3.524   6.150   0.806  1.5346 -0.0938 -0.7569
  217SOL    HW3  635   3.440   6.024   0.815  0.3254  0.7948  1.0369
  217SOL    MW4  636   3.484   6.082   0.767  0.0658  0.2394  0.0889
  218SOL     OW  637   2.616   6.080   6.155  0.5182 -0.0553  0.2404
  218SOL    HW2  638   2.548   6.050   6.095  1.5247 -1.8285 -0.0773
  218SOL    HW3  639   2.698   6.071   6.107  1.0754  1.5531  0.7961
  218SOL    MW4  640   2.618   6.075   6.141  0.7245 -0.0770  0.2718
  219SOL     OW  641   1.308   3.235   3.098  0.2398  0.0999  0.7213
  219SOL    HW2  642   1.230   3.280   3.065  0.0687 -0.4346  0.3753
  219SOL    HW3  643   1.307   3.150   3.053  0.6355 -0.1896  1.2543
  219SOL    MW4  644   1.298   3.229   3.088  0.2695 -0.0088  0.7460
  220SOL     OW  645   6.027   3.131   4.757  1.0163 -0.1113  0.0955
  220SOL    HW2  646   5.963   3.201   4.750  0.9394 -0.2573 -0.7547
  220SOL    HW3  647   6.004   3.070   4.687  1.7365 -0.4475  0.1392
  220SOL    MW4  648   6.016   3.132   4.747  1.1012 -0.1750 -0.0109
  221SOL     OW  649   2.612   4.446   4.356 -0.0557 -0.2694 -0.4286
  221SOL    HW2  650   2.583   4.535   4.337 -1.2316 -0.5654 -0.1614
  221SOL    HW3  651   2.587   4.395   4.279  0.0200 -0.4822 -0.3161
  221SOL    MW4  652   2.605   4.451   4.344 -0.2009 -0.3365 -0.3785
  222SOL     OW  653   0.908   6.074   0.472  0.5536  0.4334  0.1598
  222SOL    HW2  654   1.003   6.078   0.464  0.4431 -0.1176 -1.7999
  222SOL    HW3  655   0.888   5.980   0.476 -0.0666  0.3777 -2.5277
  222SOL    MW4  656   0.918   6.062   0.472  0.4572  0.3533 -0.4534
  223SOL     OW  657   3.276   6.387   1.215 -0.0448  0.7943 -0.6961
  223SOL    HW2  658   3.338   6.409   1.285  0.2857 -0.9949 -0.3534
  223SOL    HW3  659   3.281   6.460   1.153  0.9225  1.6101  0.3140
  223SOL    MW4  660   3.285   6.399   1.216  0.1264  0.6659 -0.5176
  224SOL     OW  661   5.359   0.089   4.642 -0.3613  0.3716 -0.0219
  224SOL    HW2  662   5.343   0.131   4.727  2.2935 -0.3031  0.8816
  224SOL    HW3  663   5.393   0.003   4.663  1.6783  0.6888 -1.7255
  224SOL    MW4  664   5.361   0.084   4.656  0.2581  0.3244 -0.1275
  225SOL     OW  665   0.374   2.231   0.941 -0.4157 -0.0783  0.1753
  225SOL    HW2  666   0.419   2.153   0.973  0.1788 -0.4042 -1.3448
  225SOL    HW3  667   0.443   2.282   0.898 -1.3605 -0.3561 -1.7821
  225SOL    MW4  668   0.389   2.228   0.939 -0.4619 -0.1579 -0.2835
  226SOL     OW  669   0.507   3.898   0.511 -0.1389 -0.3875  0.6960
  226SOL    HW2  670   0.579   3.854   0.467 -0.4208 -0.2410  0.0799
  226SOL    HW3  671   0.528   3.892   0.604  0.3325 -0.9257  0.5568
  226SOL    MW4  672   0.519   3.891   0.518 -0.1139 -0.4391  0.5964
  227SOL     OW  673   3.695   2.011   5.016 -0.1572  0.5625 -0.4660
  227SOL    HW2  674   3.676   2.103   5.034 -1.7182  0.2249 -0.1685
  227SOL    HW3  675   3.612   1.966   5.033  0.7889 -1.0169  0.2166
  227SOL    MW4  676   3.681   2.017   5.021 -0.2383  0.3096 -0.3367
  228SOL     OW  677   2.698   3.439   4.097  0.2495 -0.2727  0.1027
  228SOL    HW2  678   2.657   3.360   4.062 -1.5378  0.8321 -0.4095
  228SOL    HW3  679   2.644   3.511   4.065  1.1375  1.1023  1.5255
  228SOL    MW4  680   2.686   3.438   4.088  0.1309  0.0545  0.2228
  229SOL     OW  681   0.020   1.593   3.755  0.3217 -0.3719  0.1446
  229SOL    HW2  682  -0.021   1.654   3.816 -0.4221  1.1399 -1.7438
  229SOL    HW3  683   0.053   1.648   3.684 -0.7848 -2.1520 -1.8972
  229SOL    MW4  684   0.019   1.608   3.753  0.0776 -0.4073 -0.3739
  230SOL     OW  685   0.157   0.456   3.181 -0.0716 -0.3548  0.0136
  230SOL    HW2  686   0.183   0.375   3.137  0.5716 -1.7044  2.7146
  230SOL    HW3  687   0.230   0.516   3.163  0.6439 -1.1890  0.0557
  230SOL    MW4  688   0.170   0.454   3.173  0.1077 -0.6429  0.3755
  231SOL     OW  689   0.208   5.155   3.749  0.1250 -0.0458  0.1502
  231SOL    HW2  690   0.262   5.136   3.826  0.1963  1.2105  0.4263
  231SOL    HW3  691   0.129   5.101   3.761  0.4631 -0.4260  0.7151
  231SOL    MW4  692   0.205   5.145   3.761  0.1790  0.0698  0.2612
  232SOL     OW  693   5.405   4.765   2.882  0.5925 -0.3557 -0.3348
  232SOL    HW2  694   5.470   4.835   2.879 -0.8085  0.9840 -0.6983
  232SOL    HW3  695   5.324   4.808   2.911 -0.7791 -1.3996 -2.3062
  232SOL    MW4  696   5.403   4.780   2.885  0.2267 -0.3167 -0.6429
  233SOL     OW  697   3.693   3.751   4.143  0.3691 -0.0921  0.0634
  233SOL    HW2  698   3.749   3.806   4.088 -0.2646  1.0065  0.4958
  233SOL    HW3  699   3.607   3.755   4.103  0.9507 -3.7924 -2.0804
  233SOL    MW4  700   3.689   3.758   4.130  0.3622 -0.4353 -0.1624
  234SOL     OW  701   2.449   5.050   2.910 -0.1581 -0.5345 -0.2006
  234SOL    HW2  702   2.378   5.013   2.858 -0.2775 -1.0848  0.3391
  234SOL    HW3  703   2.529   5.012   2.871 -0.2687 -1.2305  0.2320
  234SOL    MW4  704   2.450   5.040   2.898 -0.1884 -0.6989 -0.0723
  235SOL     OW  705   3.004   5.229   3.362  0.1901  0.0737  0.3451
  235SOL    HW2  706   2.948   5.195   3.432 -0.4968  1.2863  0.4267
  235SOL    HW3  707   2.953   5.215   3.282  0.6359 -0.6145  0.1846
  235SOL    MW4  708   2.990   5.223   3.360  0.1583  0.1429  0.3347
  236SOL     OW  709   0.227   2.834   5.762 -0.0229 -0.0152  0.4768
  236SOL    HW2  710   0.250   2.920   5.727 -1.6703  0.0184 -0.5850
  236SOL    HW3  711   0.168   2.852   5.835 -1.5830 -0.2426 -0.6813
  236SOL    MW4  712   0.223   2.848   5.767 -0.4461 -0.0408  0.1839
  237SOL     OW  713   1.596   1.308   1.835  0.2320  0.2210  0.2146
  237SOL    HW2  714   1.501   1.320   1.837 -0.0866 -1.2505 -2.1246
  237SOL    HW3  715   1.609   1.213   1.840  1.6096  0.4057  0.6523
  237SOL    MW4  716   1.586   1.297   1.836  0.3717  0.0513 -0.0362
  238SOL     OW  717   1.026   4.135   4.140 -0.2663 -0.6720  0.2884
  238SOL    HW2  718   0.935   4.109   4.124 -0.0736 -1.2507  0.1224
  238SOL    HW3  719   1.024   4.175   4.226 -0.9536  0.6848 -0.3190
  238SOL    MW4  720   1.013   4.137   4.149 -0.3315 -0.5693  0.1864
  239SOL     OW  721   5.605   0.223   5.517  0.3214 -0.2174 -0.1279
  239SOL    HW2  722   5.598   0.170   5.597  1.2343  0.6837  0.5796
  239SOL    HW3  723   5.517   0.259   5.504 -0.0699 -1.1263 -0.0758
  239SOL    MW4  724   5.592   0.221   5.526  0.3902 -0.2184 -0.0276
  240SOL     OW  725   0.685   3.169   2.546  0.1322  0.0633  0.5142
  240SOL    HW2  726   0.746   3.140   2.479  0.4731 -0.7152  1.1435
  240SOL    HW3  727   0.608   3.113   2.535  0.3181 -0.2935  0.9664
  240SOL    MW4  728   0.683   3.157   2.536  0.2017 -0.0865  0.6569
  241SOL     OW  729   5.035   2.852   5.418 -0.0825  0.3826  0.1424
  241SOL    HW2  730   5.125   2.884   5.412  0.3927 -0.7166  1.0624
  241SOL    HW3  731   4.990   2.918   5.471  0.3784  0.5479  0.3303
  241SOL    MW4  732   5.041   2.865   5.425  0.0410  0.2594  0.2886
  242SOL     OW  733   4.595   6.127   0.136  0.2638 -0.5417 -0.1767
  242SOL    HW2  734   4.533   6.106   0.206  0.5235 -0.8110 -0.0258
  242SOL    HW3  735   4.578   6.220   0.117 -1.3837 -1.0368 -1.3363
  242SOL    MW4  736   4.584   6.137   0.143  0.0807 -0.6426 -0.3098
  243SOL     OW  737   3.762   4.731   4.798 -1.2814 -0.1343 -0.2214
  243SOL    HW2  738   3.692   4.666   4.792 -3.9722  2.6351 -2.4560
  243SOL    HW3  739   3.729   4.796   4.859 -0.3258  0.8566 -0.7159
  243SOL    MW4  740   3.748   4.731   4.805 -1.5103  0.3619 -0.5815
  244SOL     OW  741   4.594   2.781   0.227 -0.5170  0.8415 -0.3081
  244SOL    HW2  742   4.516   2.776   0.283  0.7329 -1.0181  1.3900
  244SOL    HW3  743   4.584   2.708   0.166  0.3042  0.0369  0.5054
  244SOL    MW4  744   4.582   2.771   0.226 -0.2438  0.4900  0.0233
  245SOL     OW  745   2.152   5.481   5.814  0.5303  0.2485  0.0464
  245SOL    HW2  746   2.127   5.530   5.735  0.0103 -0.1305 -0.0330
  245SOL    HW3  747   2.171   5.393   5.782 -0.2248 -0.0570  0.4075
  245SOL    MW4  748   2.151   5.476   5.799  0.3620  0.1582  0.0836
  246SOL     OW  749   2.762   3.205   0.102  0.2295  0.3433  0.1954
  246SOL    HW2  750   2.750   3.189   0.008  1.2509  1.2397 -0.1167
  246SOL    HW3  751   2.843   3.157   0.124 -0.3448 -0.3886  0.7783
  246SOL    MW4  752   2.771   3.197   0.092  0.2885  0.3650  0.2311
  247SOL     OW  753   4.258   0.011   1.028  0.4388 -0.0169  0.4489
  247SOL    HW2  754   4.226  -0.005   1.117 -0.4734 -0.7959  0.0058
  247SOL    HW3  755   4.332   0.071   1.039  1.6989 -1.7241  1.9303
  247SOL    MW4  756   4.264   0.017   1.041  0.4847 -0.3449  0.5859
  248SOL     OW  757   1.023   0.552   2.908 -0.4648  0.1014  0.5845
  248SOL    HW2  758   1.080   0.535   2.983 -0.7398 -0.2133  0.7257
  248SOL    HW3  759   0.946   0.596   2.946  0.0927  1.3731  0.2665
  248SOL    MW4  760   1.020   0.555   2.923 -0.4275  0.2276  0.5612
  249SOL     OW  761   0.339   5.132   3.518 -0.3443  0.1894 -0.2505
  249SOL    HW2  762   0.307   5.142   3.608  1.4169 -0.7597  0.5448
  249SOL    HW3  763   0.418   5.079   3.527  1.9069  2.9681 -1.9483
  249SOL    MW4  764   0.345   5.127   3.531  0.1851  0.4308 -0.3696
  250SOL     OW  765   6.017   2.574   3.740  0.4843  0.2777  0.0286
  250SOL    HW2  766   5.948   2.610   3.797  1.9312  1.5798  1.0452
  250SOL    HW3  767   6.057   2.651   3.701  2.2398 -0.3437  0.5337
  250SOL    MW4  768   6.013   2.589   3.743  0.9068  0.3675  0.2294
  251SOL     OW  769   1.789   6.326   1.451 -0.7639  0.3976 -0.6631
  251SOL    HW2  770   1.844   6.273   1.395 -1.9275 -3.3143  1.3454
  251SOL    HW3  771   1.710   6.341   1.400 -0.7505 -0.5909 -0.9984
  251SOL    MW4  772   1.786   6.321   1.437 -0.9157 -0.2226 -0.4424
  252SOL     OW  773   3.855   5.436   6.000 -0.3656 -0.2291  0.4732
  252SOL    HW2  774   3.870   5.350   5.960  0.5587  0.4418 -0.7078
  252SOL    HW3  775   3.942   5.472   6.012 -0.7211  0.2911  1.5806
  252SOL    MW4  776   3.868   5.429   5.996 -0.2905 -0.0719  0.4635
  253SOL     OW  777   1.327   3.671   5.250 -0.6241 -0.6034 -0.3701
  253SOL    HW2  778   1.411   3.654   5.292 -0.2182  2.7616  0.4733
  253SOL    HW3  779   1.262   3.637   5.311  0.0548 -2.7961 -0.8023
  253SOL    MW4  780   1.330   3.664   5.264 -0.4810 -0.4487 -0.3158
  254SOL     OW  781   5.179   1.137   4.369  0.0805 -0.1955 -0.0973
  254SOL    HW2  782   5.227   1.183   4.301  2.1395 -0.4060  1.1110
  254SOL    HW3  783   5.247   1.098   4.424 -1.5245 -1.7712  0.9022
  254SOL    MW4  784   5.194   1.138   4.367  0.1404 -0.4312  0.1940
  255SOL     OW  785   3.659   0.518   5.461  0.2095  0.0557 -0.1230
  255SOL    HW2  786   3.641   0.605   5.495  1.6012 -0.2458  1.4993
  255SOL    HW3  787   3.751   0.501   5.484  0.0758 -1.7001 -0.7073
  255SOL    MW4  788   3.669   0.527   5.468  0.3755 -0.2158  0.0140
  256SOL     OW  789   6.204   3.589   3.864  0.4891 -0.0146 -0.2264
  256SOL    HW2  790   6.177   3.670   3.906 -0.3676 -0.1991 -0.4144
  256SOL    HW3  791   6.292   3.572   3.899  0.8079  1.1472 -0.4219
  256SOL    MW4  792   6.212   3.597   3.874  0.4181  0.1143 -0.2770
  257SOL     OW  793   5.647   1.150   3.055  0.0787 -0.1493  0.6126
  257SOL    HW2  794   5.649   1.201   3.136 -2.6555 -0.8239  1.1957
  257SOL    HW3  795   5.562   1.169   3.016  1.0319 -0.4293 -1.7740
  257SOL    MW4  796   5.636   1.159   3.061 -0.1563 -0.2753  0.3747
  258SOL     OW  797   4.417   0.474   5.748  0.3497  0.2043  0.1318
  258SOL    HW2  798   4.421   0.554   5.696  0.5123 -0.1165 -0.3510
  258SOL    HW3  799   4.430   0.503   5.838  2.1336  0.5387 -0.2047
  258SOL    MW4  800   4.419   0.488   5.753  0.6065  0.2061  0.0237
  259SOL     OW  801   5.537   0.731   2.050  0.1871  0.1281 -0.5898
  259SOL    HW2  802   5.608   0.681   2.090 -0.0469 -0.5462 -0.9943
  259SOL    HW3  803   5.562   0.823   2.060  0.1673 -0.0166  1.0354
  259SOL    MW4  804   5.549   0.737   2.056  0.1536  0.0201 -0.4287
  260SOL     OW  805   5.839   5.974   4.238  0.0118  0.4188  0.8304
  260SOL    HW2  806   5.823   5.912   4.167 -0.5331  0.4253  0.9486
  260SOL    HW3  807   5.753   6.013   4.256  0.1520  0.4357  1.4794
  260SOL    MW4  808   5.826   5.971   4.231 -0.0416  0.4219  0.9316
  261SOL     OW  809   4.414   6.104   1.432 -0.1650 -0.1676  0.0992
  261SOL    HW2  810   4.402   6.044   1.359 -1.6488  2.4295 -1.9725
  261SOL    HW3  811   4.331   6.104   1.478 -0.3570  0.6073 -0.2224
  261SOL    MW4  812   4.402   6.096   1.429 -0.3861  0.2773 -0.2166
  262SOL     OW  813   3.842   0.679   5.774  0.1460  0.3126 -0.0717
  262SOL    HW2  814   3.874   0.622   5.705  0.0185 -0.7420  0.7125
  262SOL    HW3  815   3.805   0.754   5.728  1.1231  0.2012 -1.0936
  262SOL    MW4  816   3.842   0.682   5.759  0.2581  0.1587 -0.1031
  263SOL     OW  817   5.470   3.041   0.443 -0.2866 -0.2242 -0.2100
  263SOL    HW2  818   5.492   2.990   0.364  0.0231  1.2184 -1.1060
  263SOL    HW3  819   5.395   2.996   0.481 -0.0039 -1.3579 -0.9408
  263SOL    MW4  820   5.463   3.029   0.437 -0.2084 -0.1834 -0.4246
  264SOL     OW  821   3.055   1.940   0.976 -0.2827 -0.4913  0.1191
  264SOL    HW2  822   3.064   1.958   1.070 -0.4609 -0.0910  0.0618
  264SOL    HW3  823   2.973   1.890   0.970  0.2602 -1.4318  0.2884
  264SOL    MW4  824   3.045   1.935   0.988 -0.2346 -0.5626  0.1339
  265SOL     OW  825   0.458   2.754   0.463 -0.3451 -0.2779  0.4629
  265SOL    HW2  826   0.466   2.694   0.389  1.6880  1.3780 -0.7601
  265SOL    HW3  827   0.491   2.704   0.538  0.8612 -0.8982 -0.4368
  265SOL    MW4  828   0.464   2.740   0.463  0.0823 -0.1412  0.1828
  266SOL     OW  829   0.078   0.407   0.951 -0.4557 -0.0322 -0.1828
  266SOL    HW2  830   0.055   0.344   0.881 -2.1214  0.0457  0.2424
  266SOL    HW3  831   0.030   0.375   1.028  0.4417  0.5357  0.6280
  266SOL    MW4  832   0.069   0.394   0.952 -0.5571  0.0530 -0.0198
  267SOL     OW  833   2.516   2.280   0.161  0.1694 -0.3028  0.1829
  267SOL    HW2  834   2.555   2.194   0.175  2.6629  0.6722 -0.1729
  267SOL    HW3  835   2.493   2.281   0.068 -0.6335 -0.8580  0.3711
  267SOL    MW4  836   2.518   2.269   0.150  0.3924 -0.2474  0.1608
  268SOL     OW  837   0.572   1.341   6.275  0.1431  0.2119  0.2215
  268SOL    HW2  838   0.625   1.402   6.326 -0.1940 -0.6580  1.6687
  268SOL    HW3  839   0.493   1.390   6.253  0.3734  0.6588  0.3770
  268SOL    MW4  840   0.569   1.355   6.278  0.1290  0.1561  0.4329
  269SOL     OW  841   5.293   3.806   4.173  0.2053  0.8322  0.1047
  269SOL    HW2  842   5.237   3.743   4.217  1.1024  0.7913  1.2647
  269SOL    HW3  843   5.273   3.890   4.216  0.9092  0.8384  0.4492
  269SOL    MW4  844   5.283   3.809   4.185  0.4165  0.8276  0.3032
  270SOL     OW  845   3.959   0.422   1.900  0.3547 -0.2889 -0.4770
  270SOL    HW2  846   4.006   0.357   1.953  1.4675  0.0347 -1.0420
  270SOL    HW3  847   4.028   0.471   1.856 -0.4532  1.4627  0.1260
  270SOL    MW4  848   3.974   0.420   1.901  0.3949 -0.0151 -0.4720
  271SOL     OW  849   5.635   4.020   5.184 -1.0620 -0.1440 -0.4410
  271SOL    HW2  850   5.623   3.965   5.106 -1.3074 -1.8079  0.7098
  271SOL    HW3  851   5.681   4.097   5.152  0.2491 -1.4828 -1.9747
  271SOL    MW4  852   5.639   4.023   5.170 -0.9214 -0.5402 -0.4915
  272SOL     OW  853   2.834   3.398   5.991 -0.2882 -0.2120  0.2285
  272SOL    HW2  854   2.751   3.374   5.950 -0.8321  0.0922  1.1109
  272SOL    HW3  855   2.898   3.337   5.954 -0.9582 -0.6406 -0.2472
  272SOL    MW4  856   2.832   3.387   5.981 -0.4484 -0.2284  0.2821
  273SOL     OW  857   1.937   2.311   0.909 -0.2823 -0.6409 -0.1635
  273SOL    HW2  858   1.918   2.317   0.815  1.2864 -0.4597 -0.4952
  273SOL    HW3  859   1.896   2.230   0.937 -2.6211  0.3399 -0.5135
  273SOL    MW4  860   1.929   2.301   0.900 -0.3839 -0.4876 -0.2535
  274SOL     OW  861   0.160   1.668   1.622 -0.6115 -0.3818  0.6018
  274SOL    HW2  862   0.233   1.623   1.664 -0.6503 -0.7099  0.3204
  274SOL    HW3  863   0.126   1.605   1.559 -1.2391 -0.2913  0.8432
  274SOL    MW4  864   0.165   1.654   1.619 -0.6994 -0.4132  0.5965
  275SOL     OW  865   2.415   5.088   5.565 -0.8544 -1.0643  0.0839
  275SOL    HW2  866   2.378   5.006   5.532 -0.7750 -1.2629  0.4801
  275SOL    HW3  867   2.430   5.072   5.658 -1.5577 -0.3314  0.3310
  275SOL    MW4  868   2.412   5.075   5.573 -0.9367 -0.9938  0.1688
  276SOL     OW  869   5.704   2.978   2.122  0.3825 -0.0575  0.2091
  276SOL    HW2  870   5.637   2.988   2.054  0.0899 -2.8631 -0.0599
  276SOL    HW3  871   5.716   3.066   2.157 -2.3773  0.8106 -0.7300
  276SOL    MW4  872   5.697   2.991   2.117 -0.0202 -0.3131  0.0497
  277SOL     OW  873   4.324   3.362   4.778  0.3429  0.8624  0.1689
  277SOL    HW2  874   4.376   3.365   4.858  3.2306 -1.6589 -1.3839
  277SOL    HW3  875   4.388   3.369   4.707 -1.6124 -0.6940 -1.9336
  277SOL    MW4  876   4.339   3.364   4.779  0.4659  0.3244 -0.3134
  278SOL     OW  877   0.016   3.324   2.088  0.6877  0.1136 -0.8872
  278SOL    HW2  878  -0.004   3.405   2.135  1.2303  0.0314 -0.5010
  278SOL    HW3  879   0.105   3.338   2.055  0.5334 -0.0635 -1.3919
  278SOL    MW4  880   0.025   3.337   2.090  0.7390  0.0794 -0.9028
  279SOL     OW  881   6.436   3.511   0.265 -0.7377  0.1367 -0.5439
  279SOL    HW2  882   6.382   3.444   0.223 -0.9616 -0.4790  0.7004
  279SOL    HW3  883   6.518   3.466   0.286 -1.5603 -0.2965  1.9585
  279SOL    MW4  884   6.440   3.496   0.262 -0.8758 -0.0017 -0.0495
  280SOL     OW  885   5.145   4.930   1.280  0.1733 -0.5050  0.1321
  280SOL    HW2  886   5.069   4.928   1.338  0.5181  0.7242  0.6539
  280SOL    HW3  887   5.118   4.984   1.206 -0.3859 -2.3476 -1.0879
  280SOL    MW4  888   5.132   4.937   1.278  0.1450 -0.5859  0.0400
  281SOL     OW  889   4.713   4.595   0.404 -0.1165  0.2733 -0.3919
  281SOL    HW2  890   4.655   4.522   0.428  1.3760 -0.7424  0.2745
  281SOL    HW3  891   4.677   4.629   0.322 -0.9998 -1.0410 -0.5774
  281SOL    MW4  892   4.700   4.590   0.397 -0.0361 -0.0341 -0.3284
  282SOL     OW  893   0.923   4.731   4.558 -0.0987  0.2131  0.1559
  282SOL    HW2  894   0.952   4.681   4.635 -0.4283 -1.7771 -0.9346
  282SOL    HW3  895   0.844   4.686   4.529 -1.7486  2.7616  0.3627
  282SOL    MW4  896   0.917   4.718   4.565 -0.3598  0.2867  0.0393
  283SOL     OW  897   5.047   0.314   1.859 -0.9018 -0.1949 -0.2306
  283SOL    HW2  898   5.128   0.272   1.829 -1.6098 -1.9777  0.2551
  283SOL    HW3  899   5.069   0.407   1.862  0.6231 -0.4487 -1.7075
  283SOL    MW4  900   5.061   0.321   1.855 -0.7940 -0.4636 -0.3614
  284SOL     OW  901   1.543   6.164   1.294  0.3275 -1.1859 -0.0122
  284SOL    HW2  902   1.584   6.096   1.347  1.9493  0.1410  0.5350
  284SOL    HW3  903   1.574   6.148   1.205  0.8565 -1.0662  0.1476
  284SOL    MW4  904   1.553   6.153   1.289  0.6113 -0.9950  0.0811
  285SOL     OW  905   4.146   3.410   4.281 -0.0934  0.8039 -0.3813
  285SOL    HW2  906   4.189   3.474   4.337  2.6876  0.5760 -2.0492
  285SOL    HW3  907   4.055   3.410   4.309  0.1485  4.2213  0.7958
  285SOL    MW4  908   4.140   3.418   4.292  0.3054  1.2247 -0.4461
  286SOL     OW  909   2.954   6.209   3.759 -0.4689 -0.2666  0.5314
  286SOL    HW2  910   3.001   6.229   3.840 -0.6725 -0.1829  0.6289
  286SOL    HW3  911   2.874   6.261   3.764  0.7984  2.0040 -1.0309
  286SOL    MW4  912   2.950   6.218   3.771 -0.3285  0.0440  0.3381
  287SOL     OW  913   2.260   4.955   0.223 -0.3692 -0.2090  0.4643
  287SOL    HW2  914   2.166   4.939   0.208 -0.7631  1.0743  1.3569
  287SOL    HW3  915   2.302   4.870   0.207 -1.6270 -0.7066 -0.3626
  287SOL    MW4  916   2.253   4.942   0.219 -0.5872 -0.1053  0.4730
  288SOL     OW  917   5.077   3.948   5.705  0.0131 -0.1568 -0.1566
  288SOL    HW2  918   5.137   3.913   5.639  0.6272 -1.6348  1.1099
  288SOL    HW3  919   5.122   4.026   5.738  1.0655 -0.9707  0.4285
  288SOL    MW4  920   5.091   3.954   5.701  0.2329 -0.4592  0.0877
  289SOL     OW  921   4.471   2.678   6.165 -0.8186 -0.2066  0.1191
  289SOL    HW2  922   4.430   2.687   6.079 -0.1155 -0.7076 -0.2746
  289SOL    HW3  923   4.491   2.585   6.173 -0.7485 -0.1411  0.7690
  289SOL    MW4  924   4.468   2.667   6.154 -0.7166 -0.2640  0.1529
  290SOL     OW  925   6.417   2.478   2.006  0.0964  0.2204 -0.0851
  290SOL    HW2  926   6.328   2.473   2.042 -0.3229  0.9169 -0.9678
  290SOL    HW3  927   6.407   2.450   1.915  0.6262  1.0902 -0.4184
  290SOL    MW4  928   6.404   2.474   1.999  0.1110  0.4271 -0.2455
  291SOL     OW  929   0.422   2.353   6.196 -0.5426  0.4955  0.4882
  291SOL    HW2  930   0.417   2.278   6.256 -0.8901  0.1473  0.0339
  291SOL    HW3  931   0.332   2.383   6.188 -0.8531 -0.7845 -1.4865
  291SOL    MW4  932   0.410   2.347   6.203 -0.6294  0.2807  0.1677
  292SOL     OW  933   0.361   5.099   1.266  0.0560  0.2799  0.1295
  292SOL    HW2  934   0.314   5.146   1.197  0.3440  1.3125  0.6215
  292SOL    HW3  935   0.389   5.017   1.224 -0.3274  0.6076 -0.7890
  292SOL    MW4  936   0.359   5.094   1.251  0.0434  0.4594  0.0732
  293SOL     OW  937   2.656   1.630   2.748  0.4175 -0.0184  0.6717
  293SOL    HW2  938   2.577   1.622   2.696  0.2116  1.3485  0.7312
  293SOL    HW3  939   2.727   1.637   2.684  0.0988  2.3412  0.4817
  293SOL    MW4  940   2.655   1.630   2.733  0.3483  0.4733  0.6545
  294SOL     OW  941   3.678   5.119   2.388 -0.1909 -0.4720 -0.4794
  294SOL    HW2  942   3.618   5.149   2.320 -1.6321 -0.2028  0.8731
  294SOL    HW3  943   3.717   5.039   2.352  0.3474  0.5388 -2.2813
  294SOL    MW4  944   3.675   5.112   2.374 -0.3100 -0.3031 -0.5387
  295SOL     OW  945   3.845   5.232   1.582  0.1356  0.0740  0.1393
  295SOL    HW2  946   3.771   5.292   1.576  2.1933  2.8184  0.3005
  295SOL    HW3  947   3.824   5.162   1.520 -1.7388  1.7118 -1.2003
  295SOL    MW4  948   3.833   5.231   1.573  0.1598  0.6522 -0.0162
  296SOL     OW  949   4.675   2.658   3.458 -0.3158 -0.4990 -0.3866
  296SOL    HW2  950   4.746   2.651   3.522  1.5676  2.6133 -1.8662
  296SOL    HW3  951   4.708   2.611   3.381  0.3551  1.1515 -1.1579
  296SOL    MW4  952   4.689   2.651   3.456  0.0212  0.1294 -0.6836
  297SOL     OW  953   0.713   0.769   6.099 -0.3093 -0.7381  0.3374
  297SOL    HW2  954   0.804   0.796   6.107  0.6606 -3.5495 -0.1711
  297SOL    HW3  955   0.678   0.776   6.188  0.6457 -0.3888  0.6932
  297SOL    MW4  956   0.720   0.773   6.112 -0.0553 -1.0629  0.3172
  298SOL     OW  957   5.857   5.614   1.733  0.0090  0.8659 -0.1243
  298SOL    HW2  958   5.887   5.523   1.737  1.4190  1.0267 -3.8122
  298SOL    HW3  959   5.763   5.609   1.752 -0.2275 -1.5645 -1.5033
  298SOL    MW4  960   5.849   5.601   1.736  0.1638  0.5664 -0.7928
  299SOL     OW  961   4.875   2.224   2.208  0.0762 -0.3260  0.0792
  299SOL    HW2  962   4.940   2.160   2.237  0.4364  1.2211  3.1146
  299SOL    HW3  963   4.927   2.299   2.179 -0.3725 -0.4419 -1.0969
  299SOL    MW4  964   4.890   2.225   2.208  0.0645 -0.1371  0.3245
  300SOL     OW  965   5.096   2.526   3.076  0.2398 -0.4733  0.0845
  300SOL    HW2  966   5.088   2.580   3.155 -0.3664 -1.1639  0.5060
  300SOL    HW3  967   5.184   2.489   3.082 -0.5726 -2.3440  1.6639
  300SOL    MW4  968   5.107   2.528   3.087  0.0526 -0.8113  0.3485
  301SOL     OW  969   4.691   5.338   1.375  0.0752  0.9160 -0.2744
  301SOL    HW2  970   4.616   5.370   1.425 -0.4958 -1.1941  0.3208
  301SOL    HW3  971   4.654   5.274   1.314  1.1914  1.0235 -1.0953
  301SOL    MW4  972   4.676   5.333   1.374  0.1471  0.6518 -0.3042
  302SOL     OW  973   2.535   5.259   0.262 -0.4061  0.1008  0.2954
  302SOL    HW2  974   2.573   5.319   0.327 -1.9098 -0.5184  1.8354
  302SOL    HW3  975   2.588   5.179   0.270 -0.9762 -0.1950  1.2518
  302SOL    MW4  976   2.547   5.256   0.272 -0.6797 -0.0199  0.6248
  303SOL     OW  977   0.559   3.299   2.963 -0.0422 -0.3531  0.2477
  303SOL    HW2  978   0.568   3.274   3.055 -0.0694  0.1933  0.4042
  303SOL    HW3  979   0.515   3.384   2.965  0.2135 -0.2008 -0.2562
  303SOL    MW4  980   0.554   3.307   2.975 -0.0121 -0.2609  0.2019
  304SOL     OW  981   5.135   4.162   0.080 -0.0586  0.6571 -0.0995
  304SOL    HW2  982   5.192   4.173   0.003  1.0788 -0.2962  0.5872
  304SOL    HW3  983   5.189   4.187   0.154 -0.7631  0.3977  0.5139
  304SOL    MW4  984   5.150   4.167   0.079 -0.0015  0.4971  0.0720
  305SOL     OW  985   1.065   0.259   4.625 -0.2386  0.5019 -0.4266
  305SOL    HW2  986   1.006   0.330   4.652  0.5196  1.4181 -1.1082
  305SOL    HW3  987   1.152   0.299   4.627 -0.0332  0.4097 -3.3400
  305SOL    MW4  988   1.069   0.274   4.629 -0.1115  0.6106 -0.9009
  306SOL     OW  989   2.545   4.727   3.382 -0.2529  0.9213 -0.1130
  306SOL    HW2  990   2.546   4.773   3.299 -1.1316 -1.5048 -1.5820
  306SOL    HW3  991   2.466   4.673   3.379 -0.9424  1.5375  2.8088
  306SOL    MW4  992   2.535   4.726   3.371 -0.4598  0.6825  0.0787
  307SOL     OW  993   3.633   3.755   6.122 -0.0244  0.2427  0.1673
  307SOL    HW2  994   3.634   3.796   6.209 -0.3253 -1.9685  1.2917
  307SOL    HW3  995   3.717   3.710   6.115 -0.4209 -0.4596 -0.2307
  307SOL    MW4  996   3.644   3.754   6.133 -0.1164 -0.1417  0.2631
  308SOL     OW  997   1.879   0.641   1.860 -0.6264  0.6181 -0.1434
  308SOL    HW2  998   1.884   0.546   1.852  2.1246  0.6563  0.0245
  308SOL    HW3  999   1.811   0.657   1.925 -0.3467 -1.2917  0.6606
  308SOL    MW4 1000   1.871   0.631   1.867 -0.2265  0.3712 -0.0152
  309SOL     OW 1001   4.686   2.051   5.352 -0.7132 -0.4791 -0.2193
  309SOL    HW2 1002   4.708   2.101   5.431 -1.0687  2.2554 -1.6983
  309SOL    HW3 1003   4.593   2.030   5.363 -1.0289  0.7605 -0.2768
  309SOL    MW4 1004   4.677   2.055   5.364 -0.8018  0.0452 -0.4220
  310SOL     OW 1005   1.211   1.365   4.768  0.4105 -0.3941 -0.0337
  310SOL    HW2 1006   1.247   1.289   4.814  0.6122  0.1219  0.6669
  310SOL    HW3 1007   1.287   1.413   4.737  0.2899 -0.2641 -0.1292
  310SOL    MW4 1008   1.226   1.361   4.770  0.4212 -0.3089  0.0461
  311SOL     OW 1009   5.149   6.375   0.295 -0.6690  0.1198 -0.4392
  311SOL    HW2 1010   5.186   6.463   0.289  0.6147 -0.5055 -3.4528
  311SOL    HW3 1011   5.225   6.318   0.306 -1.1096 -0.8329 -2.0289
  311SOL    MW4 1012   5.164   6.379   0.295 -0.5578 -0.0884 -1.0465
  312SOL     OW 1013   1.671   5.836   4.339  0.3434 -0.4057  0.0619
  312SOL    HW2 1014   1.720   5.756   4.358 -0.3688 -0.6855  0.8062
  312SOL    HW3 1015   1.738   5.903   4.324  0.9887 -1.4976 -2.3005
  312SOL    MW4 1016   1.686   5.834   4.340  0.3346 -0.5867 -0.1516
  313SOL     OW 1017   0.693   5.143   2.028 -0.0187  0.1608  0.4784
  313SOL    HW2 1018   0.653   5.211   2.083 -0.4578  1.4225 -1.3109
  313SOL    HW3 1019   0.646   5.063   2.052 -0.1536  0.6392  1.9571
  313SOL    MW4 1020   0.681   5.141   2.039 -0.0945  0.3904  0.4374
  314SOL     OW 1021   0.792   4.933   1.405  0.7114  0.4754 -0.1427
  314SOL    HW2 1022   0.764   4.895   1.322  0.1805 -0.4553  0.4501
  314SOL    HW3 1023   0.778   5.027   1.393 -2.4842  0.1356 -0.0239
  314SOL    MW4 1024   0.786   4.941   1.392  0.2198  0.3078 -0.0488
  315SOL     OW 1025   4.268   2.070   0.567  0.3733  0.3902 -0.0649
  315SOL    HW2 1026   4.195   2.019   0.532  1.2619  0.0577 -1.4860
  315SOL    HW3 1027   4.297   2.021   0.644  0.2859 -0.4806 -0.5784
  315SOL    MW4 1028   4.262   2.057   0.573  0.4790  0.2315 -0.3201
  316SOL     OW 1029   1.510   3.929   2.328 -0.2016 -0.1885  0.4077
  316SOL    HW2 1030   1.599   3.963   2.316 -0.4758  0.2656 -0.3564
  316SOL    HW3 1031   1.515   3.838   2.299 -0.2170  0.1235 -0.6038
  316SOL    MW4 1032   1.522   3.922   2.323 -0.2398 -0.0874  0.1734
  317SOL     OW 1033   1.350   1.123   6.093  0.0614  0.4884  0.0913
  317SOL    HW2 1034   1.283   1.191   6.104 -1.7383 -1.1261 -0.3841
  317SOL    HW3 1035   1.307   1.055   6.040  2.4537 -0.1353 -1.2057
  317SOL    MW4 1036   1.336   1.123   6.087  0.1396  0.1931 -0.1426
  318SOL     OW 1037   6.000   6.313   4.891  0.2070  0.2008 -0.1891
  318SOL    HW2 1038   5.973   6.247   4.826  2.8724 -1.1317 -0.0677
  318SOL    HW3 1039   5.943   6.297   4.966 -1.5409  0.4104 -1.4024
  318SOL    MW4 1040   5.989   6.302   4.892  0.3281  0.0526 -0.3332
  319SOL     OW 1041   2.257   4.425   3.876  0.1274  0.0994 -0.3839
  319SOL    HW2 1042   2.269   4.362   3.805  1.0235 -1.5085  1.1144
  319SOL    HW3 1043   2.185   4.390   3.927  2.0453 -1.0122  1.7186
  319SOL    MW4 1044   2.249   4.412   3.873  0.4987 -0.2594  0.0912
  320SOL     OW 1045   5.506   4.078   6.037 -0.7233 -0.3346  0.4958
  320SOL    HW2 1046   5.539   4.154   5.989 -0.9749 -1.0035 -0.7806
  320SOL    HW3 1047   5.457   4.028   5.972 -0.9737 -1.3495  1.4322
  320SOL    MW4 1048   5.504   4.081   6.022 -0.7895 -0.5567  0.4510
  321SOL     OW 1049   0.553   2.410   1.282 -0.0917 -0.3022  0.2643
  321SOL    HW2 1050   0.504   2.426   1.362 -0.6820  1.8865 -0.4721
  321SOL    HW3 1051   0.497   2.443   1.212  1.4067  0.0588 -0.8261
  321SOL    MW4 1052   0.539   2.416   1.283  0.0281  0.0342  0.0233
  322SOL     OW 1053   4.226   4.115   5.082 -0.2993 -0.2401  0.0008
  322SOL    HW2 1054   4.192   4.204   5.090 -1.3870 -0.5290 -1.0509
  322SOL    HW3 1055   4.162   4.070   5.026 -0.5056 -2.0743  1.6205
  322SOL    MW4 1056   4.213   4.121   5.075 -0.4700 -0.5202  0.0757
  323SOL     OW 1057   6.217   1.956   5.868  0.1478  0.1361 -0.1988
  323SOL    HW2 1058   6.250   2.012   5.938  0.2801  0.6193 -0.6399
  323SOL    HW3 1059   6.220   2.011   5.789 -1.4410  0.1151 -0.3123
  323SOL    MW4 1060   6.222   1.971   5.866 -0.0444  0.1971 -0.2720
  324SOL     OW 1061   5.748   6.056   3.864 -0.3220 -0.6915 -0.2948
  324SOL    HW2 1062   5.702   6.076   3.783  0.5491 -0.9335 -0.8622
  324SOL    HW3 1063   5.839   6.081   3.847 -0.3306  0.3474  1.0049
  324SOL    MW4 1064   5.754   6.062   3.851 -0.2082 -0.5863 -0.1982
  325SOL     OW 1065   0.447   3.608   5.357 -0.6770  0.3780 -0.1164
  325SOL    HW2 1066   0.500   3.528   5.357  0.0126  0.8111  0.5834
  325SOL    HW3 1067   0.488   3.664   5.291 -1.2472  0.1094 -0.7094
  325SOL    MW4 1068   0.460   3.605   5.348 -0.6612  0.3997 -0.1023
  326SOL     OW 1069   2.850   4.130   0.609 -0.4298 -0.2922 -0.3081
  326SOL    HW2 1070   2.808   4.212   0.634  1.1730  0.4078  0.1336
  326SOL    HW3 1071   2.780   4.080   0.567 -2.0385  0.3425  1.4614
  326SOL    MW4 1072   2.835   4.134   0.607 -0.4305 -0.1161 -0.0164
  327SOL     OW 1073   0.476   0.067   5.386 -0.0644  0.2152  0.3821
  327SOL    HW2 1074   0.529   0.019   5.322 -0.5793 -0.4057  0.4102
  327SOL    HW3 1075   0.490   0.159   5.364  1.6774  0.1162  0.9036
  327SOL    MW4 1076   0.485   0.073   5.375  0.0975  0.1202  0.4546
  328SOL     OW 1077   3.729   4.103   1.350 -0.2768 -0.3399 -0.2072
  328SOL    HW2 1078   3.786   4.170   1.310 -0.6020  0.4150  0.5578
  328SOL    HW3 1079   3.640   4.134   1.331 -0.4767  0.7121  2.0817
  328SOL    MW4 1080   3.725   4.116   1.342 -0.3461 -0.1015  0.1957
  329SOL     OW 1081   4.336   1.450   3.573 -0.6842  0.0189  0.0323
  329SOL    HW2 1082   4.402   1.436   3.505  0.5441 -1.5174  1.4633
  329SOL    HW3 1083   4.379   1.425   3.655 -1.7818  2.7255  1.5816
  329SOL    MW4 1084   4.350   1.445   3.575 -0.6670  0.1733  0.4255
  330SOL     OW 1085   4.949   3.952   0.516 -0.3348 -0.0671 -0.4445
  330SOL    HW2 1086   5.016   3.946   0.448 -0.8545 -0.4185 -0.9363
  330SOL    HW3 1087   4.880   4.005   0.477 -0.6003 -0.2009 -0.1631
  330SOL    MW4 1088   4.948   3.958   0.502 -0.4384 -0.1311 -0.4723
  331SOL     OW 1089   4.196   4.137   2.917 -0.2965  0.2705 -0.2305
  331SOL    HW2 1090   4.185   4.126   2.823 -0.0609  3.4663 -0.7187
  331SOL    HW3 1091   4.229   4.226   2.928  4.5696 -1.5077  2.5653
  331SOL    MW4 1092   4.199   4.147   2.906  0.3766  0.4576  0.0740
  332SOL     OW 1093   5.772   0.015   2.599 -0.3849  0.3982 -0.2897
  332SOL    HW2 1094   5.685   0.035   2.633 -0.1751 -0.2648  0.6782
  332SOL    HW3 1095   5.794  -0.070   2.637  1.6866  1.6125  1.5063
  332SOL    MW4 1096   5.764   0.007   2.609 -0.0839  0.4709  0.0750
  333SOL     OW 1097   4.377   2.686   4.198 -0.2965 -0.1551 -0.0025
  333SOL    HW2 1098   4.347   2.599   4.222 -1.0870 -0.2736 -1.3542
  333SOL    HW3 1099   4.343   2.743   4.267 -2.2569 -0.5232 -0.6040
  333SOL    MW4 1100   4.369   2.682   4.210 -0.6595 -0.2193 -0.2602
  334SOL     OW 1101   4.895   1.770   3.301 -0.0392 -0.4674 -0.2524
  334SOL    HW2 1102   4.811   1.763   3.347 -0.2958 -1.2873 -0.8091
  334SOL    HW3 1103   4.879   1.728   3.216  1.9809 -4.4379  1.0614
  334SOL    MW4 1104   4.882   1.763   3.296  0.1935 -1.0994 -0.1526
  335SOL     OW 1105   5.662   4.261   2.885 -0.0645  0.1182 -0.1920
  335SOL    HW2 1106   5.601   4.210   2.832  1.4382 -0.3681 -1.5582
  335SOL    HW3 1107   5.744   4.211   2.881  0.6251  1.0987  0.9883
  335SOL    MW4 1108   5.665   4.248   2.877  0.2248  0.1834 -0.2165
  336SOL     OW 1109   3.984   5.341   3.438 -0.1661  0.8451  0.5526
  336SOL    HW2 1110   4.065   5.390   3.449 -0.2288  1.2398 -0.5972
  336SOL    HW3 1111   3.972   5.337   3.343  0.2188 -2.0055  0.5412
  336SOL    MW4 1112   3.993   5.347   3.427 -0.1236  0.5211  0.3994
  337SOL     OW 1113   3.593   2.523   6.309 -0.0162 -0.9043 -0.1583
  337SOL    HW2 1114   3.585   2.448   6.367  0.3840 -0.1279  0.9315
  337SOL    HW3 1115   3.564   2.598   6.362  0.6975 -0.1248 -0.8361
  337SOL    MW4 1116   3.588   2.523   6.324  0.1308 -0.6990 -0.1039
  338SOL     OW 1117   4.091   2.685   2.860 -0.6671 -0.5158  0.3748
  338SOL    HW2 1118   4.148   2.659   2.933 -0.4965  2.5309  1.4763
  338SOL    HW3 1119   4.002   2.668   2.893 -0.5417 -1.8076  0.1113
  338SOL    MW4 1120   4.087   2.679   2.874 -0.6280 -0.2843  0.4854
  339SOL     OW 1121   5.463   4.039   1.428  0.1480  0.5688  0.0233
  339SOL    HW2 1122   5.466   4.117   1.483  2.5460 -0.1823  1.0721
  339SOL    HW3 1123   5.501   4.068   1.344 -0.5587  0.9257 -0.1821
  339SOL    MW4 1124   5.469   4.053   1.424  0.3711  0.5168  0.1346
  340SOL     OW 1125   1.197   5.824   2.668  0.0034  0.3173  0.4069
  340SOL    HW2 1126   1.169   5.897   2.613  0.9800  0.0162 -0.5259
  340SOL    HW3 1127   1.118   5.795   2.712 -1.3668 -0.9186 -2.5996
  340SOL    MW4 1128   1.183   5.830   2.667 -0.0485  0.1145 -0.1129
  341SOL     OW 1129   2.775   1.207   3.460 -0.3144  0.3005 -0.2587
  341SOL    HW2 1130   2.768   1.287   3.408 -1.6356 -0.5821 -1.4865
  341SOL    HW3 1131   2.764   1.237   3.551  1.4089  1.7665 -0.4707
  341SOL    MW4 1132   2.773   1.221   3.465 -0.2613  0.3774 -0.4486
  342SOL     OW 1133   0.949   1.653   0.728 -0.5199 -0.2975  0.2794
  342SOL    HW2 1134   0.958   1.746   0.750  0.3552  0.3367 -2.3640
  342SOL    HW3 1135   0.871   1.625   0.774  0.7808  0.9189  3.5404
  342SOL    MW4 1136   0.940   1.662   0.737 -0.2328 -0.0534  0.3609
  343SOL     OW 1137   3.218   0.633   2.662 -0.5779  0.1287  0.4497
  343SOL    HW2 1138   3.212   0.542   2.690  0.1604  0.2507  1.0576
  343SOL    HW3 1139   3.183   0.683   2.736  2.9090  0.5566  2.0311
  343SOL    MW4 1140   3.213   0.628   2.675 -0.0205  0.2013  0.7385
  344SOL     OW 1141   6.432   1.073   6.292 -0.4390  0.6224  0.1350
  344SOL    HW2 1142   6.499   1.100   6.228 -1.0445  0.8864 -0.4014
  344SOL    HW3 1143   6.427   0.978   6.283  0.5271  0.4865  0.8543
  344SOL    MW4 1144   6.440   1.064   6.282 -0.3915  0.6393  0.1591
  345SOL     OW 1145   3.119   3.472   2.654  0.1065 -0.3576  0.4334
  345SOL    HW2 1146   3.135   3.475   2.748 -1.4372  0.1344  0.7038
  345SOL    HW3 1147   3.186   3.412   2.620  1.3373  0.2677  1.6799
  345SOL    MW4 1148   3.130   3.464   2.662  0.0652 -0.2102  0.6335
  346SOL     OW 1149   0.578   1.379   5.997 -0.1812 -0.0319  0.1272
  346SOL    HW2 1150   0.526   1.304   5.966  1.4385 -1.1507 -0.0296
  346SOL    HW3 1151   0.602   1.356   6.087 -2.7340  2.0520  1.4707
  346SOL    MW4 1152   0.574   1.366   6.005 -0.3043  0.0954  0.2838
  347SOL     OW 1153   6.135   6.053   4.569  0.5261 -0.4006 -0.2362
  347SOL    HW2 1154   6.199   5.982   4.576 -0.0019 -1.0189 -1.3397
  347SOL    HW3 1155   6.176   6.116   4.509  1.2013  0.4890  1.1196
  347SOL    MW4 1156   6.149   6.052   4.562  0.5455 -0.3648 -0.2029
  348SOL     OW 1157   0.742   4.120   1.404  0.5914  0.1228  0.1019
  348SOL    HW2 1158   0.797   4.050   1.368 -1.3234 -0.9106 -0.9733
  348SOL    HW3 1159   0.677   4.074   1.458 -0.3898  1.1071 -0.1966
  348SOL    MW4 1160   0.741   4.104   1.406  0.2093  0.1163 -0.0793
  349SOL     OW 1161   4.424   5.789   3.737 -0.1525 -0.0964 -0.0668
  349SOL    HW2 1162   4.466   5.709   3.704 -0.3425 -0.5722  0.8293
  349SOL    HW3 1163   4.404   5.770   3.828 -0.0350  1.0564  0.2079
  349SOL    MW4 1164   4.427   5.776   3.744 -0.1620 -0.0071  0.0877
  350SOL     OW 1165   2.718   0.681   3.072  0.1146  0.6278 -0.6494
  350SOL    HW2 1166   2.775   0.680   3.149  0.2896 -2.2381 -0.7276
  350SOL    HW3 1167   2.633   0.654   3.105  0.4801 -1.8737 -1.5813
  350SOL    MW4 1168   2.715   0.678   3.087  0.1859 -0.0803 -0.7827
  351SOL     OW 1169   2.610   5.886   0.323 -0.0468  0.0522 -0.4853
  351SOL    HW2 1170   2.517   5.890   0.305  0.1036 -1.7613 -1.9294
  351SOL    HW3 1171   2.650   5.859   0.240  1.5474 -1.0059  0.5650
  351SOL    MW4 1172   2.603   5.883   0.310  0.1834 -0.3267 -0.5372
  352SOL     OW 1173   4.140   5.157   3.695  0.0330  0.2666  0.1539
  352SOL    HW2 1174   4.219   5.105   3.679  0.5180  1.7380 -3.0612
  352SOL    HW3 1175   4.092   5.108   3.761  2.9017 -1.4732  1.1507
  352SOL    MW4 1176   4.144   5.144   3.702  0.4755  0.2312 -0.1388
  353SOL     OW 1177   4.688   3.579   3.386 -0.1306 -0.1627 -0.5908
  353SOL    HW2 1178   4.705   3.534   3.468  0.4903  0.7327 -0.2110
  353SOL    HW3 1179   4.642   3.515   3.332 -1.0109 -0.6053  0.6360
  353SOL    MW4 1180   4.684   3.565   3.390 -0.1648 -0.1030 -0.3788
  354SOL     OW 1181   4.037   6.046   1.351  0.3987 -0.0702 -0.1735
  354SOL    HW2 1182   3.944   6.026   1.364  1.0078 -1.9166  2.0784
  354SOL    HW3 1183   4.050   6.039   1.256 -1.5415 -0.9008 -0.4314
  354SOL    MW4 1184   4.027   6.042   1.340  0.2230 -0.4234  0.0896
  355SOL     OW 1185   3.232   4.422   1.610  0.4152 -0.5858 -0.2279
  355SOL    HW2 1186   3.225   4.485   1.538  0.6051 -0.0558  0.2062
  355SOL    HW3 1187   3.163   4.358   1.594 -0.2093  0.1041 -0.3246
  355SOL    MW4 1188   3.222   4.422   1.598  0.3578 -0.4248 -0.1834
  356SOL     OW 1189   5.736   4.427   0.131 -0.3396 -0.1929  0.2585
  356SOL    HW2 1190   5.651   4.417   0.088 -1.2122  0.4811  1.7514
  356SOL    HW3 1191   5.747   4.521   0.142  0.3164 -0.3019  0.6438
  356SOL    MW4 1192   5.727   4.438   0.127 -0.3682 -0.1183  0.5063
  357SOL     OW 1193   0.419   1.379   5.403  0.7583 -0.4474 -0.1139
  357SOL    HW2 1194   0.415   1.468   5.368  0.7824 -0.3400  0.1511
  357SOL    HW3 1195   0.513   1.358   5.404  0.7294 -0.5897 -0.4599
  357SOL    MW4 1196   0.431   1.388   5.399  0.7576 -0.4520 -0.1246
  358SOL     OW 1197   2.889   4.816   0.780  0.4167  0.3179 -0.1032
  358SOL    HW2 1198   2.949   4.816   0.705  0.9259  2.2020  0.2656
  358SOL    HW3 1199   2.923   4.747   0.837  0.4815 -0.6193 -1.2255
  358SOL    MW4 1200   2.901   4.807   0.778  0.4924  0.4429 -0.2026
  359SOL     OW 1201   6.268   0.110   0.184 -0.3886 -0.2194 -0.3343
  359SOL    HW2 1202   6.307   0.037   0.136 -0.3239  0.7566 -1.8325
  359SOL    HW3 1203   6.174   0.102   0.166 -0.3498  0.2324 -0.7392
  359SOL    MW4 1204   6.260   0.099   0.175 -0.3750 -0.0310 -0.5854
  360SOL     OW 1205   6.057   6.051   1.443  0.3961  0.3360  0.1159
  360SOL    HW2 1206   6.023   6.045   1.354 -1.9011 -0.0461  0.9684
  360SOL    HW3 1207   6.087   6.142   1.451  0.2964  0.4754 -0.9051
  360SOL    MW4 1208   6.057   6.062   1.432  0.0798  0.3040  0.0936
  361SOL     OW 1209   0.320   3.295   5.271  0.0549  0.0999 -0.3013
  361SOL    HW2 1210   0.400   3.273   5.224  0.0419  0.0172 -0.2865
  361SOL    HW3 1211   0.348   3.356   5.339 -0.4422  3.0273 -2.5323
  361SOL    MW4 1212   0.334   3.300   5.274 -0.0124  0.4752 -0.5937
  362SOL     OW 1213   4.128   1.964   3.530 -0.4802 -0.6586 -0.4272
  362SOL    HW2 1214   4.186   1.892   3.554 -1.3973 -1.2880 -0.0240
  362SOL    HW3 1215   4.178   2.043   3.552 -0.1137 -1.1904  0.7654
  362SOL    MW4 1216   4.142   1.965   3.536 -0.5529 -0.8118 -0.2166
  363SOL     OW 1217   4.680   1.557   1.337 -0.3348 -0.6239 -0.2253
  363SOL    HW2 1218   4.742   1.540   1.265 -0.6992 -1.7219 -0.3071
  363SOL    HW3 1219   4.627   1.631   1.306  0.0381 -0.5661 -0.7452
  363SOL    MW4 1220   4.681   1.564   1.323 -0.3337 -0.7612 -0.3047
  364SOL     OW 1221   0.119   2.028   1.943  0.5603  0.4326 -0.1927
  364SOL    HW2 1222   0.214   2.029   1.933  0.7094  0.2365  1.0122
  364SOL    HW3 1223   0.102   1.956   2.003 -0.1989  1.4495  0.8585
  364SOL    MW4 1224   0.129   2.018   1.950  0.4798  0.5409  0.1049
  365SOL     OW 1225   2.864   0.757   2.005 -0.1396  0.2864 -0.6537
  365SOL    HW2 1226   2.824   0.818   1.943 -0.2667  0.0015 -0.8551
  365SOL    HW3 1227   2.832   0.786   2.091 -0.4630  0.3024 -0.7778
  365SOL    MW4 1228   2.854   0.769   2.008 -0.1990  0.2509 -0.6966
  366SOL     OW 1229   0.456   0.745   2.821  0.0720  0.7137 -0.2623
  366SOL    HW2 1230   0.361   0.760   2.821  0.0194  0.3921  0.0942
  366SOL    HW3 1231   0.470   0.686   2.747 -0.1578 -0.1086  0.3253
  366SOL    MW4 1232   0.445   0.739   2.811  0.0348  0.5628 -0.1377
  367SOL     OW 1233   5.766   6.370   2.930 -0.1055  0.2364 -0.2591
  367SOL    HW2 1234   5.756   6.464   2.940  0.3662  0.6202 -2.6561
  367SOL    HW3 1235   5.825   6.344   3.000  1.5927  2.1483 -0.8878
  367SOL    MW4 1236   5.772   6.379   2.940  0.1808  0.5393 -0.6583
  368SOL     OW 1237   3.671   5.734   5.338 -0.6107  0.0918  0.2799
  368SOL    HW2 1238   3.708   5.763   5.422 -0.0053 -1.4630  0.5782
  368SOL    HW3 1239   3.729   5.774   5.272  0.1078 -0.2773  0.6719
  368SOL    MW4 1240   3.684   5.743   5.340 -0.4361 -0.1621  0.3709
  369SOL     OW 1241   2.446   4.410   4.575  0.2035 -0.3871  0.4258
  369SOL    HW2 1242   2.485   4.360   4.647  1.5293 -1.9776 -1.2791
  369SOL    HW3 1243   2.513   4.407   4.506 -0.1496  2.8389 -0.1914
  369SOL    MW4 1244   2.460   4.403   4.575  0.3318 -0.1713  0.1194
  370SOL     OW 1245   1.325   5.371   0.767 -0.2791  0.6239 -0.2331
  370SOL    HW2 1246   1.274   5.289   0.765  0.7108 -0.0055 -0.3880
  370SOL    HW3 1247   1.407   5.349   0.723  1.5565  0.6286  2.9017
  370SOL    MW4 1248   1.329   5.357   0.761  0.0937  0.5415  0.1601
  371SOL     OW 1249   4.815   1.365   3.285 -0.2671  0.1554  0.0811
  371SOL    HW2 1250   4.786   1.298   3.223 -0.8532  0.3199  0.1781
  371SOL    HW3 1251   4.862   1.429   3.232 -0.6368  0.2187 -0.1736
  371SOL    MW4 1252   4.817   1.364   3.270 -0.3932  0.1854  0.0603
  372SOL     OW 1253   5.206   0.573   0.921 -0.3666  0.6865  0.3401
  372SOL    HW2 1254   5.194   0.631   0.996  2.1706  0.4853  1.0068
  372SOL    HW3 1255   5.295   0.540   0.931 -1.0440 -1.7972 -1.1020
  372SOL    MW4 1256   5.216   0.577   0.932 -0.1212  0.3323  0.2378
  373SOL     OW 1257   1.341   5.647   4.944 -0.1524 -0.7228 -0.3694
  373SOL    HW2 1258   1.436   5.652   4.938  0.1634 -0.0185  3.0999
  373SOL    HW3 1259   1.311   5.738   4.947 -1.0799 -0.9186 -2.0939
  373SOL    MW4 1260   1.349   5.659   4.944 -0.2331 -0.6557 -0.1392
  374SOL     OW 1261   4.064   4.816   1.846 -0.3622  0.1258  0.2850
  374SOL    HW2 1262   4.135   4.768   1.887  0.8214 -1.3134 -3.0822
  374SOL    HW3 1263   4.000   4.750   1.823 -2.1283  1.2062  1.8080
  374SOL    MW4 1264   4.065   4.801   1.848 -0.4391  0.0785  0.0417
  375SOL     OW 1265   2.786   3.934   1.777 -0.2126 -0.6611  0.0673
  375SOL    HW2 1266   2.870   3.949   1.822  1.2656  0.0092 -2.6751
  375SOL    HW3 1267   2.720   3.968   1.838  1.7184  1.2240  1.2634
  375SOL    MW4 1268   2.789   3.941   1.791  0.2372 -0.3239 -0.1367
  376SOL     OW 1269   4.442   4.258   6.342 -0.0481  0.2105 -0.6981
  376SOL    HW2 1270   4.350   4.234   6.330  0.3339 -1.7159 -0.1867
  376SOL    HW3 1271   4.487   4.219   6.267  0.9093 -2.8609  1.2809
  376SOL    MW4 1272   4.436   4.250   6.331  0.1286 -0.4489 -0.3695
  377SOL     OW 1273   0.523   3.974   3.767  0.1951 -0.7175  0.5786
  377SOL    HW2 1274   0.440   4.014   3.790 -0.0009 -1.2941  0.8939
  377SOL    HW3 1275   0.548   4.016   3.685  0.1163  0.2146  1.0221
  377SOL    MW4 1276   0.515   3.985   3.759  0.1589 -0.6706  0.6787
  378SOL     OW 1277   5.457   0.486   0.951 -0.8415  0.2479  0.1566
  378SOL    HW2 1278   5.472   0.439   0.869 -0.0035  1.6032 -0.4994
  378SOL    HW3 1279   5.491   0.426   1.019 -2.4130 -1.2943 -0.3475
  378SOL    MW4 1280   5.464   0.472   0.950 -0.9382  0.2233  0.0035
  379SOL     OW 1281   0.367   4.573   0.019 -0.1932 -0.2628  0.3096
  379SOL    HW2 1282   0.434   4.506   0.031  1.0407  0.6145 -1.3029
  379SOL    HW3 1283   0.323   4.579   0.104  0.5715 -2.1256  0.8717
  379SOL    MW4 1284   0.370   4.565   0.032  0.0705 -0.3928  0.1710
  380SOL     OW 1285   3.749   1.730   3.247 -0.1787  0.8575  0.6130
  380SOL    HW2 1286   3.716   1.642   3.265  0.4534  0.2058 -1.1511
  380SOL    HW3 1287   3.821   1.742   3.309 -0.3939  0.2004  0.9955
  380SOL    MW4 1288   3.754   1.720   3.257 -0.1237  0.6848  0.4307
  381SOL     OW 1289   4.361   6.392   2.927  0.5868  0.5260 -0.0546
  381SOL    HW2 1290   4.313   6.312   2.950  1.4628  0.3520  1.2534
  381SOL    HW3 1291   4.453   6.366   2.929  0.8537  1.4343 -0.1491
  381SOL    MW4 1292   4.367   6.378   2.930  0.7376  0.6229  0.1055
  382SOL     OW 1293   5.288   3.735   4.748 -0.3064 -0.8239  0.0131
  382SOL    HW2 1294   5.216   3.752   4.809  1.0265  1.9722  0.9552
  382SOL    HW3 1295   5.338   3.664   4.788 -0.3554 -0.1036  1.3998
  382SOL    MW4 1296   5.285   3.728   4.761 -0.1370 -0.3600  0.3204
  383SOL     OW 1297   1.405   1.034   1.142 -0.0933 -0.2859  0.6081
  383SOL    HW2 1298   1.480   1.035   1.082  0.4120  2.7620  1.1158
  383SOL    HW3 1299   1.331   1.012   1.086  0.7275 -0.1017 -0.6033
  383SOL    MW4 1300   1.405   1.032   1.127  0.0817  0.1405  0.5153
  384SOL     OW 1301   1.495   2.880   5.151  0.2508 -0.4958  0.1512
  384SOL    HW2 1302   1.557   2.903   5.221 -0.1159 -3.6809  1.7337
  384SOL    HW3 1303   1.544   2.820   5.095 -0.4521 -0.5004 -0.4637
  384SOL    MW4 1304   1.510   2.875   5.153  0.1097 -0.9167  0.2789
  385SOL     OW 1305   5.186   4.839   5.776 -0.3487 -0.2495 -0.2846
  385SOL    HW2 1306   5.275   4.874   5.776 -0.0544 -0.4500  4.1133
  385SOL    HW3 1307   5.130   4.915   5.794 -0.8366 -0.4792 -0.7861
  385SOL    MW4 1308   5.190   4.854   5.778 -0.3743 -0.3062  0.2295
  386SOL     OW 1309   4.937   2.929   4.143  0.4020  0.0219 -0.2009
  386SOL    HW2 1310   5.016   2.943   4.090  1.6097 -0.9754  1.2267
  386SOL    HW3 1311   4.867   2.916   4.080  1.5627 -0.0125 -1.5305
  386SOL    MW4 1312   4.938   2.929   4.128  0.7145 -0.1142 -0.1880
  387SOL     OW 1313   4.355   3.765   0.233  0.2216  0.1305 -0.5237
  387SOL    HW2 1314   4.419   3.817   0.282 -1.1640  0.4943  0.9981
  387SOL    HW3 1315   4.310   3.829   0.178 -2.9993  1.2034  2.9380
  387SOL    MW4 1316   4.358   3.780   0.232 -0.3861  0.3201  0.1338
  388SOL     OW 1317   2.044   2.087   5.394  0.7038  0.1022  0.0193
  388SOL    HW2 1318   2.099   2.163   5.415  1.5641 -0.6915  0.7060
  388SOL    HW3 1319   1.996   2.114   5.316  0.1721  1.7644  0.8727
  388SOL    MW4 1320   2.045   2.101   5.386  0.7472  0.2168  0.2225
  389SOL     OW 1321   1.857   4.672   4.002  0.0389 -0.1247 -0.1455
  389SOL    HW2 1322   1.854   4.636   4.091 -2.7702 -0.5758 -0.3220
  389SOL    HW3 1323   1.874   4.765   4.016  0.3389 -0.3083  0.8305
  389SOL    MW4 1324   1.859   4.680   4.016 -0.2921 -0.2084 -0.0400
  390SOL     OW 1325   5.186   5.318   1.182  0.5179  0.0391  0.4690
  390SOL    HW2 1326   5.188   5.323   1.278  2.1741 -1.5220  0.5728
  390SOL    HW3 1327   5.273   5.346   1.155  0.5319 -0.8750 -0.4794
  390SOL    MW4 1328   5.197   5.322   1.191  0.7383 -0.2875  0.3575
  391SOL     OW 1329   0.416   1.163   1.533  0.5542 -0.2928 -0.7196
  391SOL    HW2 1330   0.475   1.108   1.585 -0.2774 -1.2384 -0.7439
  391SOL    HW3 1331   0.334   1.165   1.583  0.6021  1.0310 -0.6655
  391SOL    MW4 1332   0.413   1.156   1.547  0.4508 -0.2429 -0.7157
  392SOL     OW 1333   0.864   3.200   1.609 -0.4568  0.0713 -0.0181
  392SOL    HW2 1334   0.772   3.200   1.583 -0.5082 -0.1259  0.1639
  392SOL    HW3 1335   0.867   3.144   1.687  0.3683 -2.8662 -2.0179
  392SOL    MW4 1336   0.852   3.193   1.616 -0.3547 -0.3423 -0.2579
  393SOL     OW 1337   5.916   4.875   4.368 -0.1204 -0.4833  0.1402
  393SOL    HW2 1338   5.984   4.812   4.345 -1.2950 -1.5001 -0.6890
  393SOL    HW3 1339   5.923   4.883   4.463  0.6589 -1.1555  0.1550
  393SOL    MW4 1340   5.926   4.867   4.378 -0.1726 -0.7061  0.0327
  394SOL     OW 1341   0.854   0.946   4.817 -0.4082 -0.1068  0.4728
  394SOL    HW2 1342   0.805   0.933   4.898 -0.2767 -1.4328  0.3553
  394SOL    HW3 1343   0.788   0.944   4.748 -0.5389  1.1657  0.5304
  394SOL    MW4 1344   0.839   0.944   4.818 -0.4081 -0.1139  0.4649
  395SOL     OW 1345   2.188   4.396   4.444 -0.2686 -0.2493  0.3189
  395SOL    HW2 1346   2.152   4.481   4.468 -0.1095 -0.3665  0.9757
  395SOL    HW3 1347   2.276   4.395   4.483 -0.2245 -0.6671  0.2153
  395SOL    MW4 1348   2.195   4.407   4.452 -0.2418 -0.3199  0.3919
  396SOL     OW 1349   3.501   0.459   3.455  0.0337 -0.5394 -0.3118
  396SOL    HW2 1350   3.588   0.437   3.488 -0.3622 -0.7369  0.6324
  396SOL    HW3 1351   3.441   0.410   3.511 -0.7396  0.5777 -0.1280
  396SOL    MW4 1352   3.504   0.450   3.466 -0.1206 -0.4181 -0.1630
  397SOL     OW 1353   4.616   0.114   0.671  0.4947 -0.1259 -0.5682
  397SOL    HW2 1354   4.632   0.059   0.748  0.8341  1.6272  0.6869
  397SOL    HW3 1355   4.550   0.176   0.700  0.8052  0.7135 -1.6180
  397SOL    MW4 1356   4.610   0.115   0.685  0.5804  0.2161 -0.5411
  398SOL     OW 1357   0.945   0.417   5.129 -0.1604 -1.0768  0.0451
  398SOL    HW2 1358   1.002   0.399   5.054  0.7286  0.8187  0.2117
  398SOL    HW3 1359   0.996   0.477   5.184 -2.0893  0.2270  0.4894
  398SOL    MW4 1360   0.959   0.423   5.126 -0.2976 -0.6547  0.1257
  399SOL     OW 1361   2.256   4.742   0.898  0.6025 -0.3242 -0.0701
  399SOL    HW2 1362   2.260   4.650   0.923 -0.4673 -2.0951 -5.1770
  399SOL    HW3 1363   2.163   4.762   0.892  0.8188  0.7892 -0.0432
  399SOL    MW4 1364   2.244   4.733   0.900  0.4899 -0.4110 -0.7404
  400SOL     OW 1365   4.692   1.638   5.587  0.1970  0.9529 -0.1341
  400SOL    HW2 1366   4.767   1.622   5.530  0.9738  2.2082  0.5128
  400SOL    HW3 1367   4.650   1.552   5.595  2.7597 -0.2830  1.2144
  400SOL    MW4 1368   4.696   1.624   5.581  0.6376  0.9555  0.1292
  401SOL     OW 1369   4.365   5.140   1.942 -0.2946 -0.2723 -0.5294
  401SOL    HW2 1370   4.320   5.101   1.867 -0.2382 -2.5238  0.5119
  401SOL    HW3 1371   4.457   5.143   1.915 -0.2930 -0.9316 -0.6048
  401SOL    MW4 1372   4.371   5.135   1.928 -0.2869 -0.6563 -0.4020
  402SOL     OW 1373   3.606   5.521   4.677 -0.0170  0.1416 -0.0629
  402SOL    HW2 1374   3.605   5.487   4.766 -0.2251  0.8255  0.1985
  402SOL    HW3 1375   3.621   5.444   4.622 -0.0655 -0.3075  0.5485
  402SOL    MW4 1376   3.608   5.506   4.681 -0.0508  0.1726  0.0522
  403SOL     OW 1377   5.837   0.691   2.837 -0.0849 -0.0322  0.6082
  403SOL    HW2 1378   5.906   0.679   2.902 -0.2304 -1.8205  0.4760
  403SOL    HW3 1379   5.769   0.740   2.883  0.7828  0.7559  1.0791
  403SOL    MW4 1380   5.837   0.696   2.851  0.0104 -0.1642  0.6529
  404SOL     OW 1381   5.834   0.043   0.704  0.1012  0.6562 -0.0215
  404SOL    HW2 1382   5.819  -0.051   0.713  2.5292  0.2660  0.6318
  404SOL    HW3 1383   5.751   0.083   0.730 -0.8467 -1.2766  0.1009
  404SOL    MW4 1384   5.821   0.036   0.709  0.2965  0.3497  0.0808
  405SOL     OW 1385   4.140   1.915   5.327 -0.6727 -0.3948 -0.0406
  405SOL    HW2 1386   4.147   1.832   5.374  0.5745 -0.3963 -0.1953
  405SOL    HW3 1387   4.149   1.891   5.235 -0.9635 -0.1498 -0.1351
  405SOL    MW4 1388   4.142   1.901   5.321 -0.5465 -0.3626 -0.0735
  406SOL     OW 1389   4.784   4.107   6.204 -0.4527  0.3816  0.3416
  406SOL    HW2 1390   4.697   4.121   6.169 -0.2128 -1.1861 -0.9829
  406SOL    HW3 1391   4.843   4.149   6.141 -0.1974  0.5932  0.7163
  406SOL    MW4 1392   4.781   4.114   6.191 -0.3874  0.2027  0.2163
  407SOL     OW 1393   5.372   0.149   0.603 -0.1183 -0.0601  0.1137
  407SOL    HW2 1394   5.413   0.210   0.542 -1.1340 -0.4903 -1.0406
  407SOL    HW3 1395   5.284   0.183   0.616  0.0564 -0.0118  1.3309
  407SOL    MW4 1396   5.366   0.161   0.597 -0.2293 -0.1105  0.1220
  408SOL     OW 1397   4.196   5.948   4.104  0.1013 -0.0702  0.9548
  408SOL    HW2 1398   4.281   5.925   4.143  0.6350  0.3176  0.0598
  408SOL    HW3 1399   4.219   6.003   4.029 -0.8448 -1.2846 -0.2659
  408SOL    MW4 1400   4.211   5.952   4.099  0.0469 -0.1792  0.6757
  409SOL     OW 1401   0.277   3.612   0.480  0.0612  0.6772  0.4800
  409SOL    HW2 1402   0.226   3.676   0.430 -1.8144 -1.1009 -0.0443
  409SOL    HW3 1403   0.297   3.543   0.417  0.0473 -0.3161  1.5289
  409SOL    MW4 1404   0.273   3.612   0.465 -0.1881  0.3115  0.5492
  410SOL     OW 1405   5.793   4.751   6.368  0.3337  0.2293  0.3228
  410SOL    HW2 1406   5.829   4.830   6.328  2.5008 -1.2804 -0.8510
  410SOL    HW3 1407   5.852   4.732   6.440 -2.1881  1.5606  2.9609
  410SOL    MW4 1408   5.805   4.759   6.372  0.2869  0.2058  0.5160
  411SOL     OW 1409   2.918   5.848   2.814  0.1629 -0.0497  0.2233
  411SOL    HW2 1410   2.862   5.895   2.875  0.6227  0.1504  0.5004
  411SOL    HW3 1411   2.997   5.902   2.808  1.0267 -1.1609  1.1542
  411SOL    MW4 1412   2.921   5.861   2.821  0.3376 -0.1699  0.3826
  412SOL     OW 1413   0.789   3.248   3.862  0.0855  0.1052  0.0562
  412SOL    HW2 1414   0.881   3.270   3.876  0.2199 -1.4333  1.9933
  412SOL    HW3 1415   0.744   3.285   3.938 -0.4581 -1.4704  0.5366
  412SOL    MW4 1416   0.796   3.256   3.874  0.0315 -0.3057  0.3751
  413SOL     OW 1417   1.104   2.264   0.197 -0.2810 -0.1358 -0.5656
  413SOL    HW2 1418   1.198   2.263   0.218  0.1714  1.2011 -2.3220
  413SOL    HW3 1419   1.079   2.172   0.198  0.8102 -0.4664  0.8422
  413SOL    MW4 1420   1.113   2.252   0.200 -0.0774 -0.0030 -0.6116
  414SOL     OW 1421   5.284   3.540   2.374 -0.1716  0.8645  0.4150
  414SOL    HW2 1422   5.336   3.481   2.427  2.3650  1.7541 -0.9218
  414SOL    HW3 1423   5.202   3.551   2.423  0.0820 -2.0801  1.6777
  414SOL    MW4 1424   5.280   3.534   2.387  0.1965  0.5934  0.4052
  415SOL     OW 1425   0.608   2.058   2.088 -0.1475 -0.3251  0.1114
  415SOL    HW2 1426   0.580   2.149   2.100 -0.7365 -0.4119 -0.5648
  415SOL    HW3 1427   0.628   2.027   2.177 -2.2737 -0.2809  0.6477
  415SOL    MW4 1428   0.607   2.066   2.102 -0.5057 -0.3307  0.0929
  416SOL     OW 1429   1.307   1.290   3.685 -0.4201 -0.1291  0.0081
  416SOL    HW2 1430   1.323   1.374   3.727  0.0677 -0.4827  0.5505
  416SOL    HW3 1431   1.370   1.230   3.726 -1.1891 -0.9038  0.0973
  416SOL    MW4 1432   1.317   1.293   3.696 -0.4572 -0.2780  0.0915
  417SOL     OW 1433   3.671   3.537   3.114  0.2754  0.0482 -0.2792
  417SOL    HW2 1434   3.607   3.514   3.046  1.0374 -1.4302 -0.5464
  417SOL    HW3 1435   3.756   3.536   3.068  0.6507  0.3953  0.3957
  417SOL    MW4 1436   3.674   3.534   3.099  0.4255 -0.1011 -0.2254
  418SOL     OW 1437   1.183   3.564   1.045  0.3116 -0.4091  0.4944
  418SOL    HW2 1438   1.240   3.490   1.064  1.2197  0.0382 -0.4402
  418SOL    HW3 1439   1.201   3.587   0.954 -1.5086 -0.3835  0.0996
  418SOL    MW4 1440   1.193   3.558   1.036  0.1913 -0.3467  0.3190
  419SOL     OW 1441   6.312   4.164   0.743 -0.3983 -0.2177 -0.3220
  419SOL    HW2 1442   6.363   4.189   0.667 -3.0179  0.2377 -2.0773
  419SOL    HW3 1443   6.335   4.073   0.760  1.9595  0.3747 -0.1002
  419SOL    MW4 1444   6.322   4.155   0.735 -0.4329 -0.0795 -0.5243
  420SOL     OW 1445   2.585   2.210   4.867  0.4169  0.1377 -0.1486
  420SOL    HW2 1446   2.626   2.241   4.786 -0.1816 -0.2972 -0.6289
  420SOL    HW3 1447   2.653   2.221   4.933  0.8298  0.7523 -0.6545
  420SOL    MW4 1448   2.600   2.216   4.865  0.3925  0.1614 -0.2787
  421SOL     OW 1449   1.451   1.235   4.900 -0.2401 -0.0178 -0.0513
  421SOL    HW2 1450   1.394   1.205   4.970 -0.7967 -2.0415 -1.2831
  421SOL    HW3 1451   1.524   1.277   4.944 -0.2530 -1.7752  1.7718
  421SOL    MW4 1452   1.453   1.237   4.915 -0.3152 -0.5167  0.0267
  422SOL     OW 1453   4.491   5.384   0.444  0.2771 -0.0692 -0.7664
  422SOL    HW2 1454   4.414   5.427   0.406 -0.6723 -0.9944  0.0410
  422SOL    HW3 1455   4.489   5.295   0.409  0.2715 -0.4614  0.1924
  422SOL    MW4 1456   4.481   5.378   0.434  0.1511 -0.2430 -0.5333
  423SOL     OW 1457   0.614   3.170   1.506  0.2613  0.1113  0.8164
  423SOL    HW2 1458   0.539   3.222   1.534  0.5067  0.6900  0.4104
  423SOL    HW3 1459   0.577   3.084   1.485 -0.2617  0.3418  0.7756
  423SOL    MW4 1460   0.599   3.165   1.507  0.2247  0.2180  0.7575
  424SOL     OW 1461   3.305   3.074   3.966  0.5219  0.2595  0.1073
  424SOL    HW2 1462   3.381   3.016   3.978  0.8539  0.5059 -0.7081
  424SOL    HW3 1463   3.341   3.162   3.977  0.2171  0.3508  0.3762
  424SOL    MW4 1464   3.320   3.078   3.969  0.5255  0.3041  0.0352
  425SOL     OW 1465   3.445   3.377   1.648  0.4876 -0.3852  0.0371
  425SOL    HW2 1466   3.482   3.290   1.659 -0.9807 -1.2032 -1.1564
  425SOL    HW3 1467   3.352   3.362   1.628  0.2858  1.4234 -0.6221
  425SOL    MW4 1468   3.437   3.364   1.647  0.2673 -0.2545 -0.2073
  426SOL     OW 1469   4.228   4.729   4.114 -0.1379 -0.4006 -0.6357
  426SOL    HW2 1470   4.216   4.750   4.207  2.0681 -1.0246 -0.1306
  426SOL    HW3 1471   4.147   4.757   4.072 -1.4471 -0.6432  1.5593
  426SOL    MW4 1472   4.216   4.736   4.121 -0.0196 -0.5149 -0.2795
  427SOL     OW 1473   6.255   2.406   6.182  0.3141 -0.2389 -0.2777
  427SOL    HW2 1474   6.273   2.382   6.091 -2.8832 -1.0794 -0.7835
  427SOL    HW3 1475   6.217   2.328   6.221  0.5847  0.4699  1.4980
  427SOL    MW4 1476   6.253   2.393   6.175 -0.0720 -0.2563 -0.1101
  428SOL     OW 1477   4.349   2.954   5.045 -0.7182  0.2534  0.1093
  428SOL    HW2 1478   4.444   2.943   5.036 -0.6792  0.3131  0.4579
  428SOL    HW3 1479   4.317   2.866   5.067 -0.8886 -0.0331 -1.1995
  428SOL    MW4 1480   4.357   2.941   5.046 -0.7355  0.2234 -0.0174
  429SOL     OW 1481   3.947   6.234   3.831  0.0090 -0.4912 -0.1803
  429SOL    HW2 1482   3.852   6.237   3.817  0.1962  1.9136 -1.4541
  429SOL    HW3 1483   3.975   6.325   3.821  2.4998 -1.1891 -0.0575
  429SOL    MW4 1484   3.938   6.247   3.828  0.3623 -0.2660 -0.3322
  430SOL     OW 1485   2.338   4.062   5.308 -0.3242  0.2376 -0.2322
  430SOL    HW2 1486   2.430   4.066   5.281  0.3657 -0.3430  1.8049
  430SOL    HW3 1487   2.311   4.153   5.316  0.0221  0.4142 -0.9730
  430SOL    MW4 1488   2.346   4.074   5.306 -0.1875  0.1843 -0.0612
  431SOL     OW 1489   6.302   0.153   5.855  0.0984  0.0287 -0.1889
  431SOL    HW2 1490   6.315   0.132   5.947  0.5744 -0.1497 -0.2946
  431SOL    HW3 1491   6.341   0.080   5.807 -1.2188 -0.4789 -0.5323
  431SOL    MW4 1492   6.309   0.141   5.861 -0.0126 -0.0618 -0.2482
  432SOL     OW 1493   1.631   1.500   1.368  0.2473 -0.2108  0.4538
  432SOL    HW2 1494   1.603   1.589   1.390 -2.0232 -0.8935  0.6268
  432SOL    HW3 1495   1.586   1.444   1.432  1.5624 -1.4932  0.3014
  432SOL    MW4 1496   1.621   1.504   1.380  0.1212 -0.4701  0.4565
  433SOL     OW 1497   1.354   1.855   2.653 -0.0886 -0.1616 -0.5267
  433SOL    HW2 1498   1.381   1.945   2.673  1.1674 -1.0279  2.1307
  433SOL    HW3 1499   1.297   1.864   2.577 -0.0412  2.8811 -0.3409
  433SOL    MW4 1500   1.350   1.868   2.646  0.0834  0.1255 -0.1516
  434SOL     OW 1501   0.530   3.961   0.184  0.1282  0.0977  0.0910
  434SOL    HW2 1502   0.532   3.867   0.166  1.3730 -0.1195  1.2086
  434SOL    HW3 1503   0.583   3.972   0.263  0.9172  1.8692 -0.6158
  434SOL    MW4 1504   0.537   3.950   0.192  0.3965  0.3028  0.1452
  435SOL     OW 1505   4.467   3.289   2.976  0.1120 -0.0681  0.0424
  435SOL    HW2 1506   4.476   3.203   2.935  4.4023 -0.1289  0.6373
  435SOL    HW3 1507   4.483   3.351   2.904 -0.5641  0.1304  0.0653
  435SOL    MW4 1508   4.471   3.286   2.961  0.5889 -0.0499  0.1239
  436SOL     OW 1509   6.368   1.305   2.698 -1.3658  0.3128  0.5839
  436SOL    HW2 1510   6.296   1.367   2.706 -1.4648  0.2884 -0.0709
  436SOL    HW3 1511   6.435   1.339   2.758 -1.0688  1.5691 -0.4042
  436SOL    MW4 1512   6.368   1.318   2.707 -1.3397  0.4753  0.3671
  437SOL     OW 1513   3.473   2.762   4.378  0.3957  0.0772  0.4784
  437SOL    HW2 1514   3.399   2.822   4.365 -0.0415 -0.5555  0.0007
  437SOL    HW3 1515   3.548   2.820   4.391 -0.1294  0.7307  0.6678
  437SOL    MW4 1516   3.473   2.778   4.378  0.2688  0.0800  0.4404
  438SOL     OW 1517   4.244   1.458   0.228  0.3047 -0.1274  0.0894
  438SOL    HW2 1518   4.248   1.418   0.141  0.5775 -0.6597  0.3405
  438SOL    HW3 1519   4.179   1.528   0.220 -1.8717 -2.0277  0.1860
  438SOL    MW4 1520   4.236   1.462   0.216  0.0535 -0.4483  0.1353
  439SOL     OW 1521   4.712   2.364   3.587 -0.0178  0.6924  0.4948
  439SOL    HW2 1522   4.797   2.384   3.627 -1.2380  1.5413  2.8705
  439SOL    HW3 1523   4.694   2.274   3.613  0.0865  0.5601  0.1118
  439SOL    MW4 1524   4.721   2.355   3.596 -0.1650  0.7869  0.7577
  440SOL     OW 1525   3.017   1.865   3.433  0.8174 -0.1627 -0.3292
  440SOL    HW2 1526   2.972   1.835   3.354  1.1487 -0.6305 -0.3427
  440SOL    HW3 1527   2.951   1.862   3.502  1.0701 -1.8527 -0.1195
  440SOL    MW4 1528   3.003   1.861   3.432  0.8944 -0.4474 -0.3033
  441SOL     OW 1529   1.090   4.541   4.214 -0.1751  0.1622  0.5095
  441SOL    HW2 1530   1.066   4.628   4.247 -0.5206 -0.7390  2.8762
  441SOL    HW3 1531   1.062   4.481   4.284  1.2898 -1.7298 -0.4465
  441SOL    MW4 1532   1.083   4.544   4.228 -0.0274 -0.2064  0.6956
  442SOL     OW 1533   2.644   3.407   1.141  0.0296 -0.3076  0.6581
  442SOL    HW2 1534   2.674   3.443   1.225  1.1417 -1.1941  0.6609
  442SOL    HW3 1535   2.571   3.463   1.116  0.7328  0.9977  1.4152
  442SOL    MW4 1536   2.638   3.419   1.149  0.2691 -0.2523  0.7584
  443SOL     OW 1537   0.806   1.914   0.778 -0.9373  0.2569 -0.1656
  443SOL    HW2 1538   0.796   2.008   0.794 -0.1483  0.8977 -3.0100
  443SOL    HW3 1539   0.717   1.881   0.772 -1.2768  1.3495 -1.6273
  443SOL    MW4 1540   0.793   1.922   0.780 -0.8780  0.4856 -0.7337
  444SOL     OW 1541   3.704   2.398   3.880 -0.0792 -0.2467  0.0814
  444SOL    HW2 1542   3.707   2.326   3.944  0.7435 -1.7619 -1.5661
  444SOL    HW3 1543   3.630   2.376   3.823  0.8266 -0.4169 -1.0755
  444SOL    MW4 1544   3.694   2.385   3.881  0.1488 -0.4690 -0.2886
  445SOL     OW 1545   2.891   0.123   2.444 -0.3038  0.0408  0.4709
  445SOL    HW2 1546   2.940   0.041   2.437  0.8757  0.6691  0.9781
  445SOL    HW3 1547   2.906   0.167   2.361 -0.5114 -0.0272  0.3964
  445SOL    MW4 1548   2.899   0.118   2.432 -0.1755  0.1147  0.5280
  446SOL     OW 1549   3.124   4.107   3.930 -0.1725  0.3781 -0.1637
  446SOL    HW2 1550   3.190   4.175   3.919 -1.0702  1.1114 -1.2634
  446SOL    HW3 1551   3.146   4.042   3.863  0.5236 -0.3113  0.7077
  446SOL    MW4 1552   3.136   4.107   3.920 -0.1991  0.3839 -0.1938
  447SOL     OW 1553   1.846   0.032   2.554 -0.1057 -0.4885 -0.2019
  447SOL    HW2 1554   1.788  -0.030   2.508  1.6525 -1.3085 -1.4083
  447SOL    HW3 1555   1.933   0.012   2.522  1.1628 -0.5371  2.9200
  447SOL    MW4 1556   1.850   0.021   2.544  0.2937 -0.6031  0.0508
  448SOL     OW 1557   4.919   5.985   5.161 -0.1155  0.1732 -0.1290
  448SOL    HW2 1558   4.905   6.005   5.069 -1.6129 -0.5042 -0.0833
  448SOL    HW3 1559   4.894   6.065   5.207 -0.4634  0.1326 -0.2471
  448SOL    MW4 1560   4.914   5.998   5.155 -0.3589  0.0784 -0.1385
  449SOL     OW 1561   3.746   1.423   5.827  0.1657  0.2665 -0.4473
  449SOL    HW2 1562   3.707   1.349   5.780  0.0659  0.2721 -0.3759
  449SOL    HW3 1563   3.794   1.382   5.899 -1.6431  0.3428  0.8795
  449SOL    MW4 1564   3.747   1.408   5.831 -0.0862  0.2773 -0.2628
  450SOL     OW 1565   4.971   4.494   0.365 -0.0816  0.3346 -0.3708
  450SOL    HW2 1566   4.882   4.527   0.367  0.3484  1.6245 -1.3482
  450SOL    HW3 1567   4.969   4.421   0.302 -0.3197  0.7465 -0.8424
  450SOL    MW4 1568   4.959   4.488   0.357 -0.0563  0.5591 -0.5620
  451SOL     OW 1569   2.325   3.351   5.137  0.6926 -0.2902  0.6958
  451SOL    HW2 1570   2.276   3.381   5.214 -0.0418 -0.3315  0.2530
  451SOL    HW3 1571   2.331   3.428   5.081  4.1674  0.7095  2.2080
  451SOL    MW4 1572   2.319   3.365   5.140  1.0541 -0.1638  0.8369
  452SOL     OW 1573   3.394   0.992   5.127  0.0892  0.4162 -0.2241
  452SOL    HW2 1574   3.411   1.064   5.187  1.5904  0.4289 -0.6261
  452SOL    HW3 1575   3.426   1.023   5.043  0.3434 -0.5472 -0.4958
  452SOL    MW4 1576   3.400   1.006   5.124  0.3208  0.2907 -0.3130
  453SOL     OW 1577   3.991   4.803   3.996  0.6114 -0.2013  0.3214
  453SOL    HW2 1578   3.952   4.795   4.083 -1.4235 -0.7177 -0.5693
  453SOL    HW3 1579   3.988   4.897   3.977  1.8211  0.0176  1.0905
  453SOL    MW4 1580   3.985   4.815   4.005  0.5025 -0.2405  0.3054
  454SOL     OW 1581   6.053   0.955   6.038  0.3929 -0.3245 -0.7012
  454SOL    HW2 1582   6.110   1.032   6.043 -2.5929  2.2381 -2.4741
  454SOL    HW3 1583   6.070   0.907   6.119  4.2917  0.6974 -0.7140
  454SOL    MW4 1584   6.063   0.958   6.049  0.5134  0.1485 -0.9368
  455SOL     OW 1585   5.451   5.335   4.171  0.1457  0.5219 -0.3529
  455SOL    HW2 1586   5.423   5.281   4.245  1.3047  1.0850  0.5207
  455SOL    HW3 1587   5.440   5.278   4.094 -1.0809 -0.0613  0.2369
  455SOL    MW4 1588   5.446   5.320   4.170  0.1368  0.5193 -0.1598
  456SOL     OW 1589   5.569   5.369   2.967 -0.3800  0.3760  0.2492
  456SOL    HW2 1590   5.560   5.312   3.044  1.2641  0.7188  0.7348
  456SOL    HW3 1591   5.662   5.367   2.947 -0.8303 -0.0512 -2.0408
  456SOL    MW4 1592   5.580   5.361   2.975 -0.2225  0.3648  0.0111
  457SOL     OW 1593   4.125   4.003   2.344  0.4538  0.4492  0.4942
  457SOL    HW2 1594   4.055   4.058   2.309  1.0928  1.5170  0.8512
  457SOL    HW3 1595   4.084   3.918   2.357 -0.1284  0.3033 -1.7384
  457SOL    MW4 1596   4.111   3.999   2.341  0.4613  0.5709  0.2468
  458SOL     OW 1597   3.916   3.854   0.767 -0.5018  0.0623 -0.0095
  458SOL    HW2 1598   3.934   3.760   0.764 -0.1013  0.1032  0.8944
  458SOL    HW3 1599   3.821   3.861   0.754 -0.2670 -0.3027 -2.3894
  458SOL    MW4 1600   3.906   3.843   0.765 -0.4180  0.0195 -0.2042
  459SOL     OW 1601   5.196   1.077   6.179 -0.6482  0.2392 -0.0841
  459SOL    HW2 1602   5.161   1.036   6.259 -0.0859  0.6378  0.3792
  459SOL    HW3 1603   5.119   1.109   6.132 -0.9091  1.4735  1.1094
  459SOL    MW4 1604   5.181   1.076   6.184 -0.6084  0.4546  0.1345
  460SOL     OW 1605   0.087   3.833   3.060  0.0727 -0.1754  0.2079
  460SOL    HW2 1606   0.006   3.865   3.019 -0.2963 -1.7722 -0.3795
  460SOL    HW3 1607   0.127   3.778   2.993  1.0284 -0.3815  0.9400
  460SOL    MW4 1608   0.082   3.830   3.046  0.1501 -0.4133  0.2270
  461SOL     OW 1609   5.302   4.781   2.336  0.0245  0.4599 -0.0493
  461SOL    HW2 1610   5.276   4.872   2.318  0.1592  0.3547 -0.7738
  461SOL    HW3 1611   5.390   4.788   2.372 -0.0147  0.6275  0.0156
  461SOL    MW4 1612   5.310   4.794   2.339  0.0371  0.4681 -0.1363
  462SOL     OW 1613   4.657   1.468   1.648 -0.0605  0.1645 -0.5180
  462SOL    HW2 1614   4.619   1.455   1.561 -1.0159 -0.3551 -0.0439
  462SOL    HW3 1615   4.608   1.408   1.704  0.5301  0.5113  0.3845
  462SOL    MW4 1616   4.645   1.459   1.644 -0.1086  0.1417 -0.3363
  463SOL     OW 1617   0.263   5.307   4.173 -0.1381  0.1639 -0.1691
  463SOL    HW2 1618   0.278   5.363   4.097 -1.9736  0.0067 -0.6847
  463SOL    HW3 1619   0.183   5.259   4.153 -1.6360  1.2822  2.4938
  463SOL    MW4 1620   0.254   5.308   4.161 -0.5779  0.2907  0.1142
  464SOL     OW 1621   5.223   2.016   4.699 -0.5128  0.0793  0.0938
  464SOL    HW2 1622   5.189   2.098   4.733  2.2000  1.3288  0.0825
  464SOL    HW3 1623   5.223   2.027   4.604 -1.4838 -0.5438  0.0104
  464SOL    MW4 1624   5.218   2.028   4.691 -0.2830  0.1620  0.0813
  465SOL     OW 1625   6.170   3.749   2.239  1.0967  0.1986 -0.2467
  465SOL    HW2 1626   6.233   3.681   2.264 -0.7350 -1.0738  1.2170
  465SOL    HW3 1627   6.157   3.800   2.318  0.6589  0.7620 -0.6714
  465SOL    MW4 1628   6.176   3.747   2.252  0.7972  0.1050 -0.1096
  466SOL     OW 1629   1.877   2.716   2.106 -0.6904  0.3731 -0.3356
  466SOL    HW2 1630   1.870   2.803   2.067 -2.4077  1.6711  2.5495
  466SOL    HW3 1631   1.919   2.730   2.191 -0.0870 -1.8071 -0.1981
  466SOL    MW4 1632   1.882   2.729   2.112 -0.8374  0.2567  0.0632
  467SOL     OW 1633   4.846   3.419   2.804  0.3793 -0.0449  0.0482
  467SOL    HW2 1634   4.845   3.441   2.711 -1.8946  2.3896  0.5268
  467SOL    HW3 1635   4.933   3.445   2.834  1.2345 -1.0916 -1.3766
  467SOL    MW4 1636   4.858   3.425   2.796  0.1921  0.1382 -0.0767
  468SOL     OW 1637   1.177   2.023   4.128 -0.4605  0.6852 -0.2281
  468SOL    HW2 1638   1.133   1.949   4.169 -0.9857  1.0567 -0.1162
  468SOL    HW3 1639   1.169   2.095   4.192 -2.3948  1.6414 -1.4484
  468SOL    MW4 1640   1.170   2.023   4.142 -0.7850  0.8604 -0.3743
  469SOL     OW 1641   2.947   5.560   3.288 -0.9553 -0.4596  0.4804
  469SOL    HW2 1642   2.854   5.560   3.308 -1.7811 -2.2048 -2.6617
  469SOL    HW3 1643   2.983   5.486   3.336 -1.1114  0.3033  1.8107
  469SOL    MW4 1644   2.940   5.550   3.297 -1.0848 -0.5892  0.2414
  470SOL     OW 1645   4.819   3.973   2.634 -0.1892  0.0382 -0.3952
  470SOL    HW2 1646   4.769   3.919   2.696  2.0330 -1.8613 -0.1299
  470SOL    HW3 1647   4.790   3.944   2.548  1.0604 -1.7561 -0.2573
  470SOL    MW4 1648   4.808   3.962   2.631  0.2689 -0.4491 -0.3420
  471SOL     OW 1649   5.794   6.305   1.061  0.6176  0.5201 -0.2424
  471SOL    HW2 1650   5.715   6.321   1.009  0.1002  1.2954  0.7439
  471SOL    HW3 1651   5.838   6.389   1.063  0.8978  0.3673  0.1288
  471SOL    MW4 1652   5.789   6.318   1.054  0.5863  0.6023 -0.0633
  472SOL     OW 1653   5.233   2.585   5.303  0.0832  0.2422  0.2406
  472SOL    HW2 1654   5.190   2.503   5.330 -1.8128  1.2957  0.6195
  472SOL    HW3 1655   5.311   2.590   5.359  0.4719 -1.4666 -0.0708
  472SOL    MW4 1656   5.238   2.575   5.314 -0.1157  0.1557  0.2495
  473SOL     OW 1657   3.330   1.496   1.745 -0.1521  0.3989 -0.2481
  473SOL    HW2 1658   3.304   1.579   1.705 -1.9543 -0.2207 -0.4232
  473SOL    HW3 1659   3.325   1.512   1.839 -0.2028  0.5734 -0.2799
  473SOL    MW4 1660   3.326   1.509   1.752 -0.3966  0.3401 -0.2754
  474SOL     OW 1661   5.393   1.055   4.541 -0.1099  0.1593 -0.0387
  474SOL    HW2 1662   5.443   0.981   4.507 -0.5881  0.2099 -0.8642
  474SOL    HW3 1663   5.343   1.018   4.614  0.0706 -0.1967 -0.0933
  474SOL    MW4 1664   5.393   1.040   4.546 -0.1492  0.1190 -0.1548
  475SOL     OW 1665   2.072   0.333   5.544  0.5217 -0.3438  0.2459
  475SOL    HW2 1666   2.114   0.302   5.464  0.1240  0.5899 -0.3390
  475SOL    HW3 1667   2.127   0.299   5.615  0.4345 -1.8608 -0.3773
  475SOL    MW4 1668   2.085   0.324   5.543  0.4577 -0.4207  0.0865
  476SOL     OW 1669   4.504   5.554   6.371  0.1891 -0.7106 -0.3919
  476SOL    HW2 1670   4.523   5.465   6.402 -2.0778 -1.5356 -1.1788
  476SOL    HW3 1671   4.568   5.568   6.301  0.8739 -1.5155  0.0387
  476SOL    MW4 1672   4.515   5.544   6.366 -0.0196 -0.9257 -0.4389
  477SOL     OW 1673   4.110   1.240   2.370  0.6776  0.1257 -0.3640
  477SOL    HW2 1674   4.074   1.322   2.337  0.8737  0.2036 -0.3881
  477SOL    HW3 1675   4.053   1.172   2.334  0.3564  0.2695 -0.1191
  477SOL    MW4 1676   4.098   1.242   2.361  0.6611  0.1549 -0.3349
  478SOL     OW 1677   1.228   4.134   3.950  0.0857  0.0249  0.0967
  478SOL    HW2 1678   1.224   4.059   3.891  0.4929 -0.2422  0.4006
  478SOL    HW3 1679   1.145   4.131   3.998  0.4137 -0.6860  0.6438
  478SOL    MW4 1680   1.216   4.124   3.949  0.1827 -0.1042  0.2089
  479SOL     OW 1681   6.370   3.381   4.135  0.6086 -0.3252 -0.0080
  479SOL    HW2 1682   6.392   3.472   4.118 -0.1071 -0.3236 -0.9746
  479SOL    HW3 1683   6.408   3.332   4.062 -2.1517 -0.3645 -1.5426
  479SOL    MW4 1684   6.378   3.386   4.123  0.1500 -0.3302 -0.3380
  480SOL     OW 1685   3.234   5.310   2.168 -0.4916 -0.0630  0.4752
  480SOL    HW2 1686   3.244   5.395   2.209 -1.4720  0.2822  0.0386
  480SOL    HW3 1687   3.202   5.329   2.080  2.0316 -0.7605 -0.6761
  480SOL    MW4 1688   3.231   5.324   2.162 -0.2880 -0.1095  0.2657
  481SOL     OW 1689   6.324   4.170   5.773  0.3415  0.0070 -0.0844
  481SOL    HW2 1690   6.252   4.108   5.761  0.0245  0.2428  0.5738
  481SOL    HW3 1691   6.288   4.238   5.829  0.0410  1.8696 -2.3553
  481SOL    MW4 1692   6.310   4.171   5.779  0.2600  0.2839 -0.2972
  482SOL     OW 1693   4.662   6.073   3.368  0.3652 -0.6332  0.2359
  482SOL    HW2 1694   4.676   6.112   3.454  1.7222  1.5681 -0.8959
  482SOL    HW3 1695   4.629   5.985   3.387 -2.1884  0.7571  2.9321
  482SOL    MW4 1696   4.660   6.066   3.381  0.2073 -0.1593  0.4423
  483SOL     OW 1697   5.561   4.625   5.990 -0.1000  0.0900  0.4368
  483SOL    HW2 1698   5.501   4.655   6.058  1.0414  1.0534  1.0693
  483SOL    HW3 1699   5.633   4.584   6.038  0.8422  1.0028 -0.1509
  483SOL    MW4 1700   5.563   4.624   6.005  0.1749  0.3376  0.4427
  484SOL     OW 1701   0.944   5.958   5.636  0.2535 -0.1973 -0.6128
  484SOL    HW2 1702   0.863   5.984   5.680 -0.7625 -1.1501 -1.8129
  484SOL    HW3 1703   1.000   6.035   5.641 -0.4471  0.2603  0.8599
  484SOL    MW4 1704   0.940   5.972   5.643  0.0270 -0.2626 -0.5768
  485SOL     OW 1705   5.733   3.348   0.734 -0.3630 -0.4906 -0.1594
  485SOL    HW2 1706   5.665   3.412   0.713 -0.7001 -0.7698  0.0713
  485SOL    HW3 1707   5.726   3.335   0.829 -0.7278 -1.3465 -0.2922
  485SOL    MW4 1708   5.723   3.355   0.744 -0.4556 -0.6404 -0.1465
  486SOL     OW 1709   4.835   3.134   1.481 -0.1802  0.4968 -0.0082
  486SOL    HW2 1710   4.917   3.167   1.445 -0.4518 -0.3694 -1.4937
  486SOL    HW3 1711   4.768   3.162   1.418 -0.8313 -0.1081  0.3925
  486SOL    MW4 1712   4.837   3.142   1.468 -0.3020  0.3027 -0.1513
  487SOL     OW 1713   5.037   5.102   2.181  0.2677 -0.3188 -0.0691
  487SOL    HW2 1714   4.984   5.155   2.240  0.9987  0.9506 -0.4935
  487SOL    HW3 1715   4.981   5.030   2.156 -1.0837  0.7086 -0.1117
  487SOL    MW4 1716   5.023   5.100   2.185  0.1859 -0.0158 -0.1307
  488SOL     OW 1717   3.581   2.632   5.374 -0.1489 -0.0898 -0.0867
  488SOL    HW2 1718   3.508   2.584   5.335 -1.1007  1.5959 -0.5110
  488SOL    HW3 1719   3.541   2.712   5.408  1.4016  0.5474  0.3346
  488SOL    MW4 1720   3.566   2.637   5.374 -0.0699  0.2167 -0.0871
  489SOL     OW 1721   2.643   2.629   3.796  0.0263 -0.8656 -0.0675
  489SOL    HW2 1722   2.648   2.658   3.706  1.1346  0.9598  0.5401
  489SOL    HW3 1723   2.659   2.534   3.792  0.6153 -0.7179 -1.7163
  489SOL    MW4 1724   2.646   2.620   3.784  0.2502 -0.6053 -0.2049
  490SOL     OW 1725   3.179   0.102   3.273 -0.6434  0.1981 -0.0971
  490SOL    HW2 1726   3.166   0.195   3.295 -1.0684  0.1065  0.0476
  490SOL    HW3 1727   3.095   0.074   3.237 -0.5197 -0.1364 -0.1259
  490SOL    MW4 1728   3.166   0.111   3.271 -0.6831  0.1419 -0.0818
  491SOL     OW 1729   4.527   5.238   2.646  0.5710  0.2958  0.1176
  491SOL    HW2 1730   4.487   5.183   2.578  0.9760 -0.3372  0.3858
  491SOL    HW3 1731   4.619   5.211   2.648  0.6802  0.6775  0.5649
  491SOL    MW4 1732   4.534   5.228   2.637  0.6388  0.2626  0.2120
  492SOL     OW 1733   1.128   5.395   5.545  0.5166 -0.3258 -0.0149
  492SOL    HW2 1734   1.086   5.345   5.615  0.1514 -2.0318 -1.4092
  492SOL    HW3 1735   1.056   5.432   5.495  0.5888 -2.5633 -1.9110
  492SOL    MW4 1736   1.113   5.394   5.548  0.4780 -0.8461 -0.4490
  493SOL     OW 1737   5.840   5.018   0.456 -0.1269 -0.4957  0.8196
  493SOL    HW2 1738   5.759   5.038   0.502  1.5028  1.0043  3.2225
  493SOL    HW3 1739   5.823   5.045   0.365 -1.9626  0.7361  1.4653
  493SOL    MW4 1740   5.827   5.024   0.450 -0.1541 -0.1353  1.2218
  494SOL     OW 1741   2.942   4.072   6.283  0.2257  0.1135 -0.1085
  494SOL    HW2 1742   2.865   4.075   6.340 -0.1857 -1.8664 -0.4922
  494SOL    HW3 1743   2.980   3.986   6.299  2.2534  0.9675 -0.1032
  494SOL    MW4 1744   2.937   4.061   6.293  0.4390 -0.0350 -0.1584
  495SOL     OW 1745   3.310   1.061   0.976 -0.0086 -0.5129  0.3231
  495SOL    HW2 1746   3.341   0.988   0.922  0.2267  0.5007 -0.9518
  495SOL    HW3 1747   3.320   1.030   1.066  0.8665 -1.7418 -0.1707
  495SOL    MW4 1748   3.315   1.047   0.981  0.1379 -0.5413  0.0898
  496SOL     OW 1749   1.965   4.017   3.076  0.3014 -0.0912  0.6761
  496SOL    HW2 1750   1.901   4.040   3.143  0.0230 -0.0649  0.4019
  496SOL    HW3 1751   2.016   4.097   3.062 -0.2925  0.2043  0.1370
  496SOL    MW4 1752   1.964   4.031   3.083  0.1863 -0.0487  0.5688
  497SOL     OW 1753   3.826   6.140   2.119  0.5633  0.0944  0.4326
  497SOL    HW2 1754   3.882   6.161   2.193 -0.9583  0.9585  1.3950
  497SOL    HW3 1755   3.862   6.059   2.083  1.0074 -0.6589  2.4789
  497SOL    MW4 1756   3.838   6.132   2.124  0.4211  0.1090  0.8296
  498SOL     OW 1757   4.558   4.435   3.906 -0.0995 -0.0104 -0.6695
  498SOL    HW2 1758   4.501   4.489   3.852  0.3776  0.7305 -0.4350
  498SOL    HW3 1759   4.645   4.445   3.867  0.1271 -0.0055 -0.1651
  498SOL    MW4 1760   4.562   4.443   3.894 -0.0067  0.0880 -0.5720
  499SOL     OW 1761   5.322   4.082   1.767  0.0317 -0.3606  0.1300
  499SOL    HW2 1762   5.403   4.118   1.802  0.0834 -1.2029  0.9088
  499SOL    HW3 1763   5.307   4.003   1.818 -1.7565  0.2478  0.5951
  499SOL    MW4 1764   5.331   4.076   1.778 -0.1974 -0.3915  0.2941
  500SOL     OW 1765   2.217   1.999   2.766  0.2366  0.1580  0.0866
  500SOL    HW2 1766   2.312   1.997   2.777  0.4278 -0.2483 -1.3982
  500SOL    HW3 1767   2.199   2.080   2.719  0.0767 -0.6103 -1.2374
  500SOL    MW4 1768   2.227   2.009   2.761  0.2407  0.0031 -0.2840
  501SOL     OW 1769   5.541   1.219   6.067 -0.0047  0.0615  0.1672
  501SOL    HW2 1770   5.575   1.129   6.072 -1.3838 -0.6059 -1.5806
  501SOL    HW3 1771   5.606   1.266   6.015  0.9305  0.2162  1.4320
  501SOL    MW4 1772   5.554   1.213   6.061 -0.0633 -0.0062  0.1035
  502SOL     OW 1773   0.079   2.178   5.904 -0.4071 -0.0428  0.2091
  502SOL    HW2 1774   0.154   2.234   5.884 -0.1970 -0.7014 -0.9239
  502SOL    HW3 1775   0.090   2.155   5.996 -0.2842  1.4418  0.5831
  502SOL    MW4 1776   0.090   2.182   5.913 -0.3632  0.0662  0.1089
  503SOL     OW 1777   3.183   2.101   3.085  0.3931 -0.3861  0.4697
  503SOL    HW2 1778   3.127   2.025   3.099  0.2352 -0.4152 -0.2688
  503SOL    HW3 1779   3.271   2.071   3.110  0.3797 -0.9019 -0.0656
  503SOL    MW4 1780   3.187   2.087   3.090  0.3705 -0.4580  0.3017
  504SOL     OW 1781   6.104   2.991   6.122  0.0424  0.4457 -0.3930
  504SOL    HW2 1782   6.193   3.007   6.151  0.2731 -1.8889  0.4235
  504SOL    HW3 1783   6.074   2.917   6.175 -1.2001 -0.9826 -2.8554
  504SOL    MW4 1784   6.112   2.983   6.133 -0.0911 -0.0508 -0.6101
  505SOL     OW 1785   0.829   0.033   1.768  0.1425  0.0061 -0.7797
  505SOL    HW2 1786   0.752   0.055   1.715  0.3719 -0.9467 -1.5284
  505SOL    HW3 1787   0.870   0.118   1.785 -0.9721  0.5162 -0.4966
  505SOL    MW4 1788   0.824   0.047   1.763  0.0257 -0.0523 -0.8411
  506SOL     OW 1789   2.583   4.770   1.423 -0.1052 -0.2580 -0.2201
  506SOL    HW2 1790   2.648   4.816   1.371 -0.5879  0.0846 -0.5310
  506SOL    HW3 1791   2.550   4.701   1.365  0.8104 -1.1876  0.3360
  506SOL    MW4 1792   2.587   4.767   1.408 -0.0481 -0.3354 -0.1877
  507SOL     OW 1793   2.164   2.989   5.634  0.3602  0.2412 -0.2359
  507SOL    HW2 1794   2.093   3.043   5.598  0.3725 -0.1650 -0.9004
  507SOL    HW3 1795   2.244   3.032   5.603  0.3624 -1.1705 -2.4002
  507SOL    MW4 1796   2.165   3.002   5.625  0.3621  0.0013 -0.6091
  508SOL     OW 1797   0.986   2.706   0.952  0.5089  0.3062 -0.1124
  508SOL    HW2 1798   1.067   2.735   0.993  1.0866 -1.8845  0.4105
  508SOL    HW3 1799   0.948   2.644   1.014 -1.4197  1.0109 -0.4965
  508SOL    MW4 1800   0.992   2.702   0.965  0.3306  0.1102 -0.0941
  509SOL     OW 1801   2.881   3.467   4.316  0.0709  0.5109 -0.5111
  509SOL    HW2 1802   2.809   3.469   4.253  0.9543  1.6400 -1.5220
  509SOL    HW3 1803   2.953   3.514   4.273  1.8671 -1.6499 -0.0683
  509SOL    MW4 1804   2.881   3.473   4.302  0.4245  0.3748 -0.5860
  510SOL     OW 1805   3.810   2.636   3.814 -0.2959  0.3349  0.7136
  510SOL    HW2 1806   3.846   2.614   3.728  1.5106  2.0460  0.9658
  510SOL    HW3 1807   3.788   2.551   3.853  3.7827 -0.9810  0.5865
  510SOL    MW4 1808   3.812   2.622   3.808  0.4805  0.3870  0.7301
  511SOL     OW 1809   1.451   3.872   1.038  0.0023 -0.7657 -0.4598
  511SOL    HW2 1810   1.377   3.854   1.096 -0.2825 -2.5806 -1.2996
  511SOL    HW3 1811   1.501   3.940   1.083 -1.8945  0.1665  0.3597
  511SOL    MW4 1812   1.448   3.878   1.051 -0.2855 -0.8822 -0.4625
  512SOL     OW 1813   2.821   0.040   5.160  0.6330  0.1372  0.2964
  512SOL    HW2 1814   2.852  -0.042   5.121  0.4704 -0.1595  0.7932
  512SOL    HW3 1815   2.898   0.079   5.200  1.1038  1.1039 -1.4476
  512SOL    MW4 1816   2.835   0.035   5.160  0.6736  0.2256  0.1318
  513SOL     OW 1817   3.993   1.956   4.779 -0.0158  0.3388 -0.2343
  513SOL    HW2 1818   4.044   1.965   4.859  0.5249 -0.6794 -0.4456
  513SOL    HW3 1819   3.943   2.038   4.773  0.5730  0.7847  0.6845
  513SOL    MW4 1820   3.994   1.968   4.789  0.1333  0.2633 -0.1410
  514SOL     OW 1821   0.184   0.766   2.565 -0.0708 -0.5812 -0.0011
  514SOL    HW2 1822   0.145   0.813   2.492 -0.5054 -0.9708 -0.0177
  514SOL    HW3 1823   0.197   0.677   2.533  0.6777 -0.4977  0.0590
  514SOL    MW4 1824   0.181   0.761   2.551 -0.0294 -0.6216  0.0047
  515SOL     OW 1825   2.237   4.347   4.178 -0.7314 -0.7392 -0.1479
  515SOL    HW2 1826   2.219   4.376   4.268  2.4559 -0.6573  0.5982
  515SOL    HW3 1827   2.273   4.425   4.135  0.9483 -1.6022 -0.3972
  515SOL    MW4 1828   2.239   4.361   4.184 -0.0893 -0.8422 -0.0823
  516SOL     OW 1829   4.404   3.004   4.312  0.3168 -0.8470 -0.4458
  516SOL    HW2 1830   4.334   3.013   4.377  0.7838 -0.0516 -0.0367
  516SOL    HW3 1831   4.475   3.059   4.346  1.4600 -2.2546 -0.4340
  516SOL    MW4 1832   4.404   3.012   4.325  0.5293 -0.9278 -0.3902
  517SOL     OW 1833   0.231   5.548   0.876  0.2877  0.5495 -0.1540
  517SOL    HW2 1834   0.187   5.612   0.932  1.5435  0.8761  0.5084
  517SOL    HW3 1835   0.324   5.561   0.893  0.5995 -1.1544 -0.3537
  517SOL    MW4 1836   0.238   5.558   0.885  0.4945  0.3678 -0.0930
  518SOL     OW 1837   0.398   0.027   6.217  0.2455  0.2767  0.2829
  518SOL    HW2 1838   0.370  -0.010   6.133 -1.1974  0.2723  0.7365
  518SOL    HW3 1839   0.415  -0.049   6.272  0.8417  0.2837  0.1185
  518SOL    MW4 1840   0.396   0.012   6.213  0.1338  0.2770  0.3211
  519SOL     OW 1841   5.098   6.030   2.491 -0.5219 -0.6142  0.4533
  519SOL    HW2 1842   5.014   6.038   2.537  0.9731  0.7322  3.1865
  519SOL    HW3 1843   5.164   6.044   2.559  2.0141 -3.1750 -1.2665
  519SOL    MW4 1844   5.095   6.033   2.506  0.0100 -0.7744  0.5870
  520SOL     OW 1845   2.563   1.368   0.279 -0.3012  0.3151 -0.0997
  520SOL    HW2 1846   2.586   1.374   0.372  0.9693 -2.2000 -0.1672
  520SOL    HW3 1847   2.590   1.280   0.253 -2.4172  0.2072 -2.3850
  520SOL    MW4 1848   2.569   1.357   0.288 -0.4128 -0.0310 -0.4101
  521SOL     OW 1849   3.067   1.214   3.465  0.0585  0.3322 -0.7181
  521SOL    HW2 1850   3.073   1.284   3.400  0.7392  1.0841  0.1289
  521SOL    HW3 1851   2.973   1.195   3.471 -0.0127  0.2626 -1.8864
  521SOL    MW4 1852   3.055   1.221   3.457  0.1389  0.4222 -0.7605
  522SOL     OW 1853   5.864   5.641   5.126  0.0791 -0.1959 -0.2119
  522SOL    HW2 1854   5.772   5.615   5.128  0.4650 -1.6573 -0.4105
  522SOL    HW3 1855   5.902   5.597   5.202  0.4317  1.2132  0.4576
  522SOL    MW4 1856   5.857   5.632   5.137  0.1765 -0.2028 -0.1497
  523SOL     OW 1857   0.841   3.692   5.082  0.1844 -0.6658 -0.9902
  523SOL    HW2 1858   0.891   3.611   5.079 -1.5579 -1.7775 -3.4968
  523SOL    HW3 1859   0.889   3.752   5.024  0.4486 -0.5245 -0.6320
  523SOL    MW4 1860   0.854   3.689   5.074 -0.0106 -0.7939 -1.2737
  524SOL     OW 1861   6.158   3.636   1.586 -0.2673 -0.1760  0.2345
  524SOL    HW2 1862   6.188   3.660   1.498  1.5169 -3.6131 -0.2478
  524SOL    HW3 1863   6.206   3.695   1.645  0.7744  0.2214 -0.9685
  524SOL    MW4 1864   6.168   3.647   1.582  0.1055 -0.5771  0.0122
  525SOL     OW 1865   4.577   6.236   6.039 -0.6180 -0.2756  0.3318
  525SOL    HW2 1866   4.550   6.202   6.124  0.9057 -1.5855  0.3343
  525SOL    HW3 1867   4.672   6.248   6.047 -0.5765  0.3977 -0.9136
  525SOL    MW4 1868   4.586   6.233   6.051 -0.4115 -0.3596  0.1678
  526SOL     OW 1869   5.872   5.707   0.144 -0.8393  0.1320  0.3834
  526SOL    HW2 1870   5.787   5.674   0.116 -1.5703  1.4964  0.9238
  526SOL    HW3 1871   5.854   5.756   0.224  0.8149 -1.5810  1.9426
  526SOL    MW4 1872   5.859   5.709   0.151 -0.7175  0.0860  0.6604
  527SOL     OW 1873   5.601   6.091   5.372  0.5791 -0.2918  0.3217
  527SOL    HW2 1874   5.606   6.091   5.276  0.4053 -1.3343  0.3005
  527SOL    HW3 1875   5.516   6.053   5.391  0.8376 -0.5836  0.9011
  527SOL    MW4 1876   5.591   6.086   5.362  0.5903 -0.4678  0.3954
  528SOL     OW 1877   2.972   0.868   5.889 -0.1313 -0.0149  0.0504
  528SOL    HW2 1878   2.886   0.899   5.914 -1.6572 -1.4622 -2.9208
  528SOL    HW3 1879   3.006   0.934   5.829 -0.2971 -0.6529 -0.7585
  528SOL    MW4 1880   2.965   0.881   5.885 -0.3545 -0.2900 -0.4483
  529SOL     OW 1881   5.966   2.414   0.327 -0.0230  0.5680 -0.4528
  529SOL    HW2 1882   5.893   2.475   0.342 -0.5984 -0.0571 -0.6356
  529SOL    HW3 1883   5.929   2.328   0.348  0.7140  0.2566 -0.4096
  529SOL    MW4 1884   5.951   2.410   0.332 -0.0017  0.4444 -0.4712
  530SOL     OW 1885   0.168   3.173   1.734 -0.6282 -0.2313  0.6294
  530SOL    HW2 1886   0.076   3.179   1.759 -1.1792  0.7109 -1.4188
  530SOL    HW3 1887   0.170   3.106   1.666  0.2981 -0.5816  0.9833
  530SOL    MW4 1888   0.156   3.165   1.728 -0.5787 -0.1532  0.4059
  531SOL     OW 1889   3.223   6.005   2.218 -0.3479  0.8360 -0.5145
  531SOL    HW2 1890   3.212   6.100   2.209 -2.5392  0.5506 -1.4985
  531SOL    HW3 1891   3.175   5.969   2.144  0.9229 -1.0597 -0.4804
  531SOL    MW4 1892   3.216   6.013   2.207 -0.4694  0.5482 -0.6399
  532SOL     OW 1893   5.083   4.474   3.434 -0.2991 -0.5814  0.6032
  532SOL    HW2 1894   5.070   4.440   3.346  1.4222  0.7215 -0.2234
  532SOL    HW3 1895   5.178   4.482   3.443 -0.5022  2.8031  1.1192
  532SOL    MW4 1896   5.094   4.471   3.423 -0.0988  0.0371  0.5622
  533SOL     OW 1897   4.281   3.593   0.474 -0.5118 -0.7395 -0.1578
  533SOL    HW2 1898   4.318   3.653   0.409  0.0749 -0.4762  0.4023
  533SOL    HW3 1899   4.343   3.598   0.548 -1.4959 -0.5428  0.6736
  533SOL    MW4 1900   4.294   3.602   0.475 -0.5642 -0.6788  0.0258
  534SOL     OW 1901   3.120   2.752   6.253  0.8755  0.7453  0.5047
  534SOL    HW2 1902   3.087   2.735   6.165  1.4724  0.1207  0.3896
  534SOL    HW3 1903   3.051   2.804   6.295 -1.0213 -1.7473  0.7838
  534SOL    MW4 1904   3.106   2.756   6.247  0.7040  0.3340  0.5264
  535SOL     OW 1905   3.839   3.608   0.231  0.1598 -0.1505  0.5379
  535SOL    HW2 1906   3.794   3.691   0.217 -0.9558 -0.5173  1.7699
  535SOL    HW3 1907   3.916   3.631   0.284  0.3843  0.2111  0.0651
  535SOL    MW4 1908   3.844   3.622   0.236  0.0423 -0.1512  0.6380
  536SOL     OW 1909   0.216   5.962   1.915  0.4024  0.2942 -0.3810
  536SOL    HW2 1910   0.299   5.971   1.963 -0.0732  1.0919  0.3348
  536SOL    HW3 1911   0.217   6.034   1.852  0.6276 -0.2163 -0.9718
  536SOL    MW4 1912   0.227   5.973   1.913  0.3694  0.3321 -0.3645
  537SOL     OW 1913   3.247   2.988   5.207  0.0969  0.3011  0.2536
  537SOL    HW2 1914   3.340   3.004   5.224  0.4811  0.3099 -1.6224
  537SOL    HW3 1915   3.202   3.018   5.286  1.6750  0.3640  1.1623
  537SOL    MW4 1916   3.253   2.994   5.219  0.3558  0.3105  0.1260
  538SOL     OW 1917   3.815   1.410   4.963 -0.2468  0.7902 -0.5000
  538SOL    HW2 1918   3.907   1.430   4.946  0.3899 -1.2843  0.2022
  538SOL    HW3 1919   3.797   1.333   4.909 -0.8382 -0.3100  1.1879
  538SOL    MW4 1920   3.824   1.403   4.953 -0.2408  0.3713 -0.1847
  539SOL     OW 1921   5.575   2.200   5.697  0.0388  0.0025  0.0880
  539SOL    HW2 1922   5.556   2.275   5.753 -1.8241  0.8779 -1.6165
  539SOL    HW3 1923   5.491   2.174   5.660  0.7822 -2.3259 -0.1744
  539SOL    MW4 1924   5.562   2.206   5.699 -0.1089 -0.1892 -0.1715
  540SOL     OW 1925   4.674   3.603   0.422  0.0825  0.2822  0.2075
  540SOL    HW2 1926   4.762   3.581   0.392 -0.2625 -0.9470  0.0363
  540SOL    HW3 1927   4.617   3.584   0.348 -0.4104  0.4167  0.5436
  540SOL    MW4 1928   4.678   3.598   0.408 -0.0280  0.1378  0.2293
  541SOL     OW 1929   2.017   6.387   2.320  0.2757  0.1181 -0.3754
  541SOL    HW2 1930   2.070   6.432   2.255 -0.4305 -2.8271 -3.2205
  541SOL    HW3 1931   1.930   6.383   2.281 -0.4819 -0.7575  1.3054
  541SOL    MW4 1932   2.012   6.392   2.306  0.0826 -0.3860 -0.5290
  542SOL     OW 1933   0.608   0.202   3.503  0.6123 -0.5760  0.4257
  542SOL    HW2 1934   0.539   0.260   3.537  0.5348 -0.4364  0.0390
  542SOL    HW3 1935   0.584   0.188   3.411 -0.1022 -2.3039  0.8323
  542SOL    MW4 1936   0.596   0.208   3.495  0.5078 -0.7855  0.4283
  543SOL     OW 1937   0.216   5.729   0.022  0.1876  0.5353 -0.3687
  543SOL    HW2 1938   0.202   5.811   0.069  0.5753  0.4566 -0.1093
  543SOL    HW3 1939   0.134   5.714  -0.025 -0.5840  0.1688  1.0004
  543SOL    MW4 1940   0.203   5.738   0.022  0.1370  0.4766 -0.1539
  544SOL     OW 1941   4.129   3.883   3.633 -0.3391 -0.0652 -0.1902
  544SOL    HW2 1942   4.220   3.880   3.603 -0.2143  0.3446  0.1411
  544SOL    HW3 1943   4.114   3.797   3.673 -0.6307 -0.7928 -1.7500
  544SOL    MW4 1944   4.139   3.871   3.634 -0.3611 -0.1071 -0.3523
  545SOL     OW 1945   1.920   1.881   2.963  0.0875 -0.7952  0.1114
  545SOL    HW2 1946   2.000   1.852   3.006  0.5906 -0.8835 -0.8630
  545SOL    HW3 1947   1.857   1.891   3.034  1.0049 -0.5655  0.9098
  545SOL    MW4 1948   1.922   1.879   2.978  0.2749 -0.7765  0.0882
  546SOL     OW 1949   4.888   3.646   0.746  0.1298  0.7602 -0.9424
  546SOL    HW2 1950   4.864   3.715   0.685 -0.7138 -0.6058 -2.2261
  546SOL    HW3 1951   4.858   3.565   0.704  1.1239 -0.4013  0.4694
  546SOL    MW4 1952   4.881   3.644   0.732  0.1497  0.4267 -0.9255
  547SOL     OW 1953   5.096   3.222   1.853 -0.5518 -0.3493  0.1599
  547SOL    HW2 1954   5.082   3.239   1.946  2.7451 -1.3661  0.9939
  547SOL    HW3 1955   5.034   3.279   1.809 -1.6141  0.8672  2.9572
  547SOL    MW4 1956   5.086   3.232   1.860 -0.2570 -0.3230  0.6390
  548SOL     OW 1957   4.302   4.299   1.575 -0.2562 -0.2107 -0.7070
  548SOL    HW2 1958   4.278   4.259   1.658  0.3006  2.1312  0.6577
  548SOL    HW3 1959   4.396   4.316   1.582 -0.6662  2.5065 -0.5896
  548SOL    MW4 1960   4.311   4.296   1.587 -0.2368  0.4568 -0.5114
  549SOL     OW 1961   2.710   5.451   5.658 -0.0405  0.3798  0.0628
  549SOL    HW2 1962   2.740   5.539   5.636  0.5190  0.1326 -0.1823
  549SOL    HW3 1963   2.671   5.459   5.745 -1.4217  1.1831 -0.5944
  549SOL    MW4 1964   2.709   5.464   5.667 -0.1489  0.4532 -0.0563
  550SOL     OW 1965   5.489   2.800   4.111  0.0021  0.1050  0.2207
  550SOL    HW2 1966   5.517   2.716   4.146 -0.7365 -0.1268  0.2614
  550SOL    HW3 1967   5.446   2.844   4.184  1.0721  0.8605  0.4313
  550SOL    MW4 1968   5.487   2.795   4.125  0.0459  0.1741  0.2539
  551SOL     OW 1969   1.253   4.925   1.101  0.7877 -0.6738 -0.0776
  551SOL    HW2 1970   1.163   4.942   1.130 -1.1502 -3.3821 -3.6197
  551SOL    HW3 1971   1.260   4.969   1.017  3.9039  1.7374  1.2453
  551SOL    MW4 1972   1.242   4.933   1.094  0.9432 -0.7130 -0.3704
  552SOL     OW 1973   5.278   4.719   1.162 -0.3296  0.3960  0.1015
  552SOL    HW2 1974   5.362   4.754   1.191 -0.8975  0.2521  2.0781
  552SOL    HW3 1975   5.214   4.762   1.218 -1.4010 -0.8835 -0.0991
  552SOL    MW4 1976   5.281   4.729   1.173 -0.5459  0.2082  0.3358
  553SOL     OW 1977   0.807   1.907   1.617 -0.0736 -0.0316 -0.9800
  553SOL    HW2 1978   0.837   1.911   1.526 -0.3954 -0.2414 -1.0944
  553SOL    HW3 1979   0.887   1.889   1.667  0.0815 -0.0559 -1.2339
  553SOL    MW4 1980   0.822   1.905   1.611 -0.0956 -0.0625 -1.0286
  554SOL     OW 1981   2.827   3.313   2.284  0.4767  0.4262  0.2997
  554SOL    HW2 1982   2.859   3.230   2.320  1.2247  1.3065  1.7760
  554SOL    HW3 1983   2.900   3.373   2.295 -0.2009  1.3940 -0.3572
  554SOL    MW4 1984   2.841   3.310   2.290  0.4860  0.6701  0.4078
  555SOL     OW 1985   5.543   2.135   2.486 -0.8071  0.2213  0.2081
  555SOL    HW2 1986   5.632   2.111   2.513 -0.5784  0.5611 -0.2258
  555SOL    HW3 1987   5.525   2.217   2.532 -0.8065  0.2754  0.1119
  555SOL    MW4 1988   5.552   2.143   2.496 -0.7769  0.2733  0.1381
  556SOL     OW 1989   1.406   2.888   5.949 -0.4771  0.4418 -0.1648
  556SOL    HW2 1990   1.471   2.818   5.946  0.1214  0.7389  2.7116
  556SOL    HW3 1991   1.336   2.858   5.892  0.1208 -2.1155  0.3020
  556SOL    MW4 1992   1.406   2.875   5.941 -0.3193  0.1436  0.2763
  557SOL     OW 1993   2.682   1.701   0.406 -0.3362  0.0175  0.3550
  557SOL    HW2 1994   2.626   1.685   0.482 -0.3313 -1.2917  0.1105
  557SOL    HW3 1995   2.622   1.696   0.331  0.0238 -1.0138  0.1190
  557SOL    MW4 1996   2.666   1.699   0.406 -0.2881 -0.2913  0.2916
  558SOL     OW 1997   5.689   3.297   1.266  0.2438 -0.6461  0.5200
  558SOL    HW2 1998   5.731   3.307   1.352 -0.6949 -0.4320  0.9708
  558SOL    HW3 1999   5.595   3.309   1.284  0.0936  0.1208 -0.6433
  558SOL    MW4 2000   5.682   3.300   1.280  0.1001 -0.5166  0.4260
  559SOL     OW 2001   4.767   0.668   1.390 -0.3973  0.2674  0.6612
  559SOL    HW2 2002   4.857   0.701   1.390 -1.0876  2.3151  0.2595
  559SOL    HW3 2003   4.774   0.580   1.354  1.4968  0.2059  1.0682
  559SOL    MW4 2004   4.780   0.661   1.386 -0.2385  0.5294  0.6619
  560SOL     OW 2005   0.472   3.336   6.349  0.3319  0.3639  0.3578
  560SOL    HW2 2006   0.439   3.424   6.369 -0.0415  0.0351  1.2473
  560SOL    HW3 2007   0.503   3.303   6.433  0.6980 -0.2625 -0.0228
  560SOL    MW4 2008   0.472   3.344   6.363  0.3310  0.2379  0.4249
  561SOL     OW 2009   3.581   5.972   4.099  0.2722  0.3414 -0.0679
  561SOL    HW2 2010   3.631   5.943   4.175 -1.7738  1.1562  1.7016
  561SOL    HW3 2011   3.494   5.992   4.134 -0.5450  1.4520 -2.5067
  561SOL    MW4 2012   3.576   5.971   4.114 -0.1056  0.5954 -0.1562
  562SOL     OW 2013   4.881   0.631   2.548  0.2919  0.3801  0.7227
  562SOL    HW2 2014   4.834   0.697   2.498 -0.0328  1.4399  2.3423
  562SOL    HW3 2015   4.910   0.567   2.483 -0.2723  1.5792 -0.7564
  562SOL    MW4 2016   4.879   0.631   2.533  0.1746  0.6781  0.7412
  563SOL     OW 2017   3.676   2.240   1.212  0.1317 -0.4565 -0.2144
  563SOL    HW2 2018   3.718   2.278   1.135 -1.0707  0.5586 -0.4084
  563SOL    HW3 2019   3.740   2.178   1.247  0.9446 -0.4755 -1.6682
  563SOL    MW4 2020   3.690   2.237   1.207  0.0803 -0.3251 -0.4318
  564SOL     OW 2021   4.008   1.511   5.211 -0.0177 -0.0720 -0.3476
  564SOL    HW2 2022   3.940   1.550   5.267  0.1864  1.6637 -1.2696
  564SOL    HW3 2023   3.988   1.543   5.123 -0.4499 -2.9112 -1.3824
  564SOL    MW4 2024   3.996   1.520   5.207 -0.0478 -0.2176 -0.6058
  565SOL     OW 2025   5.374   3.706   2.171 -0.2524  0.0128  0.1217
  565SOL    HW2 2026   5.463   3.710   2.205 -0.7346 -0.1686  1.4930
  565SOL    HW3 2027   5.323   3.670   2.244 -1.1158 -1.8086 -1.2962
  565SOL    MW4 2028   5.379   3.702   2.185 -0.4299 -0.2515  0.1156
  566SOL     OW 2029   2.180   3.161   5.002 -0.2764 -0.4515  0.2532
  566SOL    HW2 2030   2.224   3.226   5.056 -1.2677 -0.5440  1.2236
  566SOL    HW3 2031   2.129   3.213   4.940 -0.3643 -0.3114  0.4400
  566SOL    MW4 2032   2.179   3.177   5.001 -0.4188 -0.4452  0.4059
  567SOL     OW 2033   4.147   2.050   5.800 -0.0661  0.1162 -0.5434
  567SOL    HW2 2034   4.170   2.045   5.893 -0.4032 -0.8424 -0.4906
  567SOL    HW3 2035   4.185   2.132   5.770  0.8272  0.0142  0.2311
  567SOL    MW4 2036   4.155   2.060   5.809  0.0073 -0.0238 -0.4342
  568SOL     OW 2037   5.130   1.583   4.915  0.1631  0.5351  0.4792
  568SOL    HW2 2038   5.120   1.672   4.947  0.3799  0.3416  1.1071
  568SOL    HW3 2039   5.177   1.592   4.832  0.5329  0.9746  0.7327
  568SOL    MW4 2040   5.135   1.596   4.908  0.2405  0.5676  0.5955
  569SOL     OW 2041   3.577   5.172   6.313  0.0713 -0.4223 -0.1208
  569SOL    HW2 2042   3.601   5.261   6.337  0.8606 -1.1091  1.7553
  569SOL    HW3 2043   3.509   5.148   6.375  0.4993 -1.4466 -0.0365
  569SOL    MW4 2044   3.571   5.181   6.324  0.2319 -0.6481  0.1378
  570SOL     OW 2045   4.826   0.695   4.360 -0.5667 -0.2981  0.3587
  570SOL    HW2 2046   4.741   0.718   4.397 -0.3371  0.9002  0.1839
  570SOL    HW3 2047   4.876   0.661   4.434 -1.2595 -1.2218  0.4163
  570SOL    MW4 2048   4.821   0.694   4.375 -0.6278 -0.2619  0.3433
  571SOL     OW 2049   0.856   1.212   3.184  0.2382  0.5267  0.7974
  571SOL    HW2 2050   0.942   1.253   3.168  0.5460 -0.5845 -0.5764
  571SOL    HW3 2051   0.839   1.162   3.104 -1.9953  1.2138  0.7858
  571SOL    MW4 2052   0.865   1.211   3.171 -0.0159  0.4708  0.6146
  572SOL     OW 2053   0.606   5.730   6.109  0.4753  1.1295  0.0736
  572SOL    HW2 2054   0.611   5.668   6.181  3.1064  1.7595  0.5229
  572SOL    HW3 2055   0.533   5.788   6.131 -1.7022 -1.3917 -0.1069
  572SOL    MW4 2056   0.597   5.730   6.121  0.5351  0.8799  0.1091
  573SOL     OW 2057   2.702   2.136   4.282  0.3258 -0.2462  0.1255
  573SOL    HW2 2058   2.659   2.222   4.292  1.3059  0.1971  0.6901
  573SOL    HW3 2059   2.768   2.135   4.351  2.2714 -0.2597 -1.6580
  573SOL    MW4 2060   2.705   2.147   4.293  0.7118 -0.1895 -0.0353
  574SOL     OW 2061   5.516   0.813   4.436  0.0809 -0.8957  0.1960
  574SOL    HW2 2062   5.554   0.780   4.517  1.8725 -0.1699 -0.2907
  574SOL    HW3 2063   5.572   0.887   4.412 -0.5880 -0.9122 -1.5421
  574SOL    MW4 2064   5.529   0.819   4.443  0.2290 -0.8021 -0.0975
  575SOL     OW 2065   2.003   1.106   1.516 -0.1462  0.4357  0.8110
  575SOL    HW2 2066   2.008   1.014   1.491  0.2128  0.8107 -0.5411
  575SOL    HW3 2067   1.916   1.134   1.488 -0.9022  0.1229  2.6879
  575SOL    MW4 2068   1.992   1.098   1.509 -0.1986  0.4439  0.8802
  576SOL     OW 2069   2.589   1.220   6.288  0.2293  0.3298  0.5369
  576SOL    HW2 2070   2.544   1.190   6.208 -0.1202 -0.8287  1.1356
  576SOL    HW3 2071   2.665   1.162   6.295 -0.8628 -1.0076  2.1264
  576SOL    MW4 2072   2.593   1.208   6.278  0.0391  0.0005  0.8256
  577SOL     OW 2073   4.870   4.710   3.856 -0.0720 -0.0783  0.1650
  577SOL    HW2 2074   4.862   4.780   3.791  0.1558  1.3179  1.5611
  577SOL    HW3 2075   4.954   4.727   3.898  0.2060 -1.5025  0.2212
  577SOL    MW4 2076   4.880   4.722   3.853 -0.0052 -0.0820  0.3566
  578SOL     OW 2077   2.429   5.795   1.536 -0.4702 -0.1055 -0.2101
  578SOL    HW2 2078   2.364   5.835   1.593  0.5172 -2.3779  2.7235
  578SOL    HW3 2079   2.383   5.724   1.492 -0.4811 -0.3252  0.1599
  578SOL    MW4 2080   2.415   5.791   1.537 -0.3414 -0.4343  0.2258
  579SOL     OW 2081   4.485   4.841   1.732  0.0865 -0.4336  0.0168
  579SOL    HW2 2082   4.458   4.780   1.664 -0.7095  0.8095 -0.8320
  579SOL    HW3 2083   4.418   4.910   1.731  0.7664  0.2949  1.1591
  579SOL    MW4 2084   4.472   4.842   1.723  0.0712 -0.1735  0.0555
  580SOL     OW 2085   4.789   4.264   5.383 -0.4023  0.1331 -0.0418
  580SOL    HW2 2086   4.737   4.271   5.303 -0.7880 -1.5104  0.0296
  580SOL    HW3 2087   4.814   4.171   5.388  0.3657  0.3763  1.2803
  580SOL    MW4 2088   4.786   4.252   5.373 -0.3519 -0.0517  0.1421
  581SOL     OW 2089   5.162   2.909   2.085  0.5260 -0.2300  0.1082
  581SOL    HW2 2090   5.204   2.994   2.096  1.1355 -0.6610  1.3506
  581SOL    HW3 2091   5.233   2.846   2.101 -0.5024 -0.9804  2.0294
  581SOL    MW4 2092   5.177   2.912   2.089  0.4707 -0.3858  0.5256
  582SOL     OW 2093   5.385   5.060   3.574  0.3457  0.5378 -0.5126
  582SOL    HW2 2094   5.402   5.150   3.547  0.9885 -0.3773 -3.5869
  582SOL    HW3 2095   5.296   5.042   3.545  0.1648  0.1988  0.2194
  582SOL    MW4 2096   5.375   5.069   3.567  0.4066  0.3723 -0.8217
  583SOL     OW 2097   5.395   0.195   1.569 -0.4891 -0.0887  0.1825
  583SOL    HW2 2098   5.491   0.193   1.572 -0.3774  1.9510 -0.3692
  583SOL    HW3 2099   5.369   0.103   1.571  1.4491 -0.6698  1.0054
  583SOL    MW4 2100   5.404   0.183   1.570 -0.2187  0.1037  0.2183
  584SOL     OW 2101   0.957   0.022   0.150 -0.1622 -0.2479  0.1204
  584SOL    HW2 2102   1.016  -0.051   0.131 -2.0085 -2.0615  1.0617
  584SOL    HW3 2103   0.969   0.038   0.244  0.8942  1.3360 -0.2420
  584SOL    MW4 2104   0.967   0.014   0.160 -0.2664 -0.2782  0.1968
  585SOL     OW 2105   6.291   2.909   3.344  0.4380  0.2631  0.4070
  585SOL    HW2 2106   6.338   2.937   3.266  0.1844  0.6481  0.3926
  585SOL    HW3 2107   6.213   2.965   3.347 -0.0096 -0.3526  0.4406
  585SOL    MW4 2108   6.287   2.920   3.334  0.3455  0.2326  0.4095
  586SOL     OW 2109   6.065   0.377   2.890  0.1933 -0.4081 -0.3031
  586SOL    HW2 2110   6.019   0.411   2.966  1.4821 -1.2624  0.9166
  586SOL    HW3 2111   6.000   0.326   2.842 -0.6205  0.1040  0.2493
  586SOL    MW4 2112   6.050   0.375   2.894  0.2560 -0.4532 -0.0693
  587SOL     OW 2113   5.495   1.954   4.801 -0.3109  0.3003  0.3374
  587SOL    HW2 2114   5.419   1.992   4.757  1.1059  2.3617 -0.5220
  587SOL    HW3 2115   5.542   2.029   4.837  1.4251 -0.8613  0.6612
  587SOL    MW4 2116   5.491   1.969   4.800  0.1051  0.4190  0.2667
  588SOL     OW 2117   2.518   2.747   4.264  0.3132 -0.3667  0.2586
  588SOL    HW2 2118   2.511   2.723   4.356 -1.2498 -2.4547 -0.3304
  588SOL    HW3 2119   2.600   2.797   4.258 -0.6891  1.8465  3.1169
  588SOL    MW4 2120   2.528   2.750   4.275 -0.0253 -0.3502  0.5580
  589SOL     OW 2121   3.015   0.493   0.869  0.4443  0.0262 -0.1820
  589SOL    HW2 2122   3.106   0.521   0.875  0.1833  0.6698  3.9457
  589SOL    HW3 2123   2.968   0.554   0.925 -2.4916 -0.6479 -1.7139
  589SOL    MW4 2124   3.021   0.505   0.877  0.0225  0.0222  0.1605
  590SOL     OW 2125   0.900   2.305   1.347 -0.0500 -0.3607 -0.0960
  590SOL    HW2 2126   0.909   2.380   1.289  0.7862 -0.7596 -0.4949
  590SOL    HW3 2127   0.846   2.337   1.420  1.7617  1.1607  0.6429
  590SOL    MW4 2128   0.894   2.319   1.349  0.2994 -0.2126 -0.0511
  591SOL     OW 2129   3.190   0.202   0.449 -0.1424 -0.0634  0.0476
  591SOL    HW2 2130   3.201   0.253   0.369  0.5059  0.8413  0.6983
  591SOL    HW3 2131   3.243   0.123   0.435  0.2915  0.2777 -0.2644
  591SOL    MW4 2132   3.199   0.199   0.437  0.0004  0.1010  0.0923
  592SOL     OW 2133   1.209   0.105   3.208  0.0049  0.0624 -0.0776
  592SOL    HW2 2134   1.302   0.106   3.187  0.3626 -0.9877  1.2676
  592SOL    HW3 2135   1.172   0.036   3.153  0.5952 -1.4711  1.3665
  592SOL    MW4 2136   1.216   0.096   3.198  0.1300 -0.2785  0.2904
  593SOL     OW 2137   1.562   2.930   3.183  0.2744  0.3259  0.2668
  593SOL    HW2 2138   1.636   2.904   3.128  0.1991  0.3075  0.1735
  593SOL    HW3 2139   1.590   2.911   3.272  1.4112  2.6777  0.4848
  593SOL    MW4 2140   1.575   2.924   3.187  0.4144  0.6337  0.2832
  594SOL     OW 2141   2.364   5.579   2.661 -0.8558 -0.0491 -0.3704
  594SOL    HW2 2142   2.317   5.537   2.733  3.1488  0.4350  2.8611
  594SOL    HW3 2143   2.345   5.672   2.672  1.3230  0.2501  1.5313
  594SOL    MW4 2144   2.355   5.585   2.672 -0.0400  0.0542  0.3068
  595SOL     OW 2145   6.271   1.646   3.974 -0.1363  0.5576  0.6953
  595SOL    HW2 2146   6.180   1.675   3.976  0.2265  1.7645  2.9754
  595SOL    HW3 2147   6.302   1.658   4.064  1.5092 -2.4142  0.6552
  595SOL    MW4 2148   6.263   1.651   3.987  0.1287  0.3248  0.9909
  596SOL     OW 2149   0.032   6.016   5.114  0.2608 -0.3482 -0.1658
  596SOL    HW2 2150   0.072   6.089   5.065  1.0231 -0.9676 -0.4906
  596SOL    HW3 2151   0.001   5.956   5.046  1.2188 -1.1630  0.1026
  596SOL    MW4 2152   0.033   6.018   5.098  0.4878 -0.5374 -0.1733
  597SOL     OW 2153   6.111   0.022   6.329 -0.3011  0.5604  0.0110
  597SOL    HW2 2154   6.112  -0.066   6.366 -0.9985  1.0693  1.2763
  597SOL    HW3 2155   6.053   0.016   6.253 -1.0352  0.1172  0.5965
  597SOL    MW4 2156   6.104   0.010   6.324 -0.4900  0.5691  0.2552
  598SOL     OW 2157   4.544   0.978   2.899 -0.4176 -0.2278 -0.2896
  598SOL    HW2 2158   4.510   0.921   2.967  1.3889 -0.5333  0.4112
  598SOL    HW3 2159   4.494   1.059   2.908 -0.9012 -0.6254  0.7076
  598SOL    MW4 2160   4.533   0.981   2.909 -0.2431 -0.3206 -0.0656
  599SOL     OW 2161   2.459   1.156   2.573 -0.4422  0.0945 -0.5499
  599SOL    HW2 2162   2.527   1.090   2.560 -0.1514  0.2573  0.0943
  599SOL    HW3 2163   2.394   1.138   2.505 -1.6075 -2.4282  1.0880
  599SOL    MW4 2164   2.459   1.145   2.563 -0.5576 -0.2169 -0.2488
  600SOL     OW 2165   0.534   1.798   0.716  0.3043  0.0253  0.1976
  600SOL    HW2 2166   0.533   1.852   0.637 -0.9914 -2.0020 -1.2670
  600SOL    HW3 2167   0.459   1.827   0.766  0.5718  0.6827  0.2229
  600SOL    MW4 2168   0.524   1.809   0.712  0.1686 -0.1554  0.0077
  601SOL     OW 2169   1.917   0.425   0.284 -0.3497 -0.6065  0.0803
  601SOL    HW2 2170   1.974   0.473   0.344 -1.0902  0.0810  0.2510
  601SOL    HW3 2171   1.909   0.338   0.323 -0.1234 -0.4328  0.5153
  601SOL    MW4 2172   1.923   0.419   0.297 -0.4175 -0.4929  0.1602
  602SOL     OW 2173   1.524   2.798   1.371 -0.1345 -0.5747 -0.9463
  602SOL    HW2 2174   1.451   2.803   1.432 -0.6586  0.5686 -1.6355
  602SOL    HW3 2175   1.599   2.776   1.425 -0.6475  0.0819  0.0586
  602SOL    MW4 2176   1.524   2.795   1.386 -0.2713 -0.3372 -0.9046
  603SOL     OW 2177   5.851   3.053   1.629 -0.6733  0.6167  0.3817
  603SOL    HW2 2178   5.925   3.008   1.587 -0.5460  1.1153  0.0653
  603SOL    HW3 2179   5.866   3.041   1.722 -0.6164  0.0335  0.3009
  603SOL    MW4 2180   5.863   3.045   1.635 -0.6490  0.6055  0.3293
  604SOL     OW 2181   4.565   5.794   3.384  0.6436 -0.3439 -0.4896
  604SOL    HW2 2182   4.614   5.714   3.403 -0.2325 -0.6192  0.7571
  604SOL    HW3 2183   4.480   5.781   3.427  0.6499  1.4337  0.1441
  604SOL    MW4 2184   4.560   5.782   3.392  0.5289 -0.1457 -0.2415
  605SOL     OW 2185   5.437   0.717   3.294  0.3597  0.1732  0.0721
  605SOL    HW2 2186   5.390   0.684   3.370  1.2478 -0.0904  0.5271
  605SOL    HW3 2187   5.458   0.807   3.316  0.1976  0.2449 -0.0666
  605SOL    MW4 2188   5.434   0.724   3.307  0.4555  0.1479  0.1139
  606SOL     OW 2189   0.210   0.555   2.026 -0.0579 -0.3140 -0.0522
  606SOL    HW2 2190   0.181   0.465   2.011 -1.2152 -0.0246  0.3419
  606SOL    HW3 2191   0.180   0.575   2.115 -0.7139  0.7955 -0.5091
  606SOL    MW4 2192   0.203   0.546   2.036 -0.2971 -0.1294 -0.0605
  607SOL     OW 2193   2.285   6.016   0.574  0.0935 -0.3346  0.6169
  607SOL    HW2 2194   2.353   6.056   0.519 -0.6088 -0.2854 -0.2496
  607SOL    HW3 2195   2.207   6.068   0.556 -0.5558 -1.3576  0.3654
  607SOL    MW4 2196   2.284   6.028   0.564 -0.0849 -0.4631  0.4694
  608SOL     OW 2197   3.536   0.512   0.741 -0.3941  0.1998 -0.1324
  608SOL    HW2 2198   3.587   0.440   0.778  2.2439  1.8777 -0.2150
  608SOL    HW3 2199   3.539   0.497   0.646  0.6069  0.6508 -0.1851
  608SOL    MW4 2200   3.543   0.501   0.733  0.0861  0.4807 -0.1502
  609SOL     OW 2201   0.102   0.642   3.424 -0.0214  0.3403 -0.3063
  609SOL    HW2 2202   0.025   0.591   3.400  1.5146 -1.7394 -1.1382
  609SOL    HW3 2203   0.088   0.727   3.383 -0.5476 -0.9729 -3.0803
  609SOL    MW4 2204   0.090   0.647   3.416  0.1118 -0.1074 -0.7820
  610SOL     OW 2205   2.094   1.938   2.184  0.8705  0.1530  0.1031
  610SOL    HW2 2206   2.026   1.880   2.218  1.8621 -0.8496  0.4446
  610SOL    HW3 2207   2.112   1.998   2.256  0.3846  0.3961  0.0252
  610SOL    MW4 2208   2.088   1.938   2.198  0.9372  0.0528  0.1379
  611SOL     OW 2209   2.463   6.236   5.621  0.0594  0.6123 -0.0835
  611SOL    HW2 2210   2.414   6.170   5.571 -1.3834  0.8870  0.8781
  611SOL    HW3 2211   2.555   6.219   5.601 -0.3500 -0.8867 -0.8346
  611SOL    MW4 2212   2.468   6.225   5.612 -0.1849  0.4507 -0.0557
  612SOL     OW 2213   2.932   2.918   6.373 -0.5739 -0.4055  0.1420
  612SOL    HW2 2214   2.855   2.957   6.331  0.6436  3.6520  1.2040
  612SOL    HW3 2215   2.903   2.899   6.462 -0.8995 -1.0291 -0.0888
  612SOL    MW4 2216   2.918   2.920   6.379 -0.4562  0.0476  0.2517
  613SOL     OW 2217   3.563   3.007   1.463  0.1304  0.7024 -0.2456
  613SOL    HW2 2218   3.485   2.983   1.413  0.8421  1.2470 -1.6689
  613SOL    HW3 2219   3.633   2.954   1.425  0.4821  0.2806  0.9595
  613SOL    MW4 2220   3.562   2.997   1.451  0.2707  0.7186 -0.2744
  614SOL     OW 2221   3.796   3.296   0.614 -0.4275  0.1058 -0.0146
  614SOL    HW2 2222   3.703   3.298   0.637 -0.2339 -1.0455  0.9702
  614SOL    HW3 2223   3.798   3.267   0.523 -0.9866 -2.3740  0.6885
  614SOL    MW4 2224   3.784   3.293   0.605 -0.4757 -0.3732  0.2081
  615SOL     OW 2225   3.489   5.236   3.519  0.0953  0.6670 -0.0916
  615SOL    HW2 2226   3.514   5.312   3.571 -0.8056  0.1918  1.0737
  615SOL    HW3 2227   3.533   5.249   3.435  1.3904  1.5686  0.6926
  615SOL    MW4 2228   3.498   5.248   3.514  0.1473  0.7233  0.1657
  616SOL     OW 2229   0.594   1.343   1.218  0.6966  0.1522  0.2479
  616SOL    HW2 2230   0.659   1.347   1.148  0.5838  0.8657  0.1763
  616SOL    HW3 2231   0.645   1.339   1.299  0.8552 -2.1654  0.1008
  616SOL    MW4 2232   0.609   1.343   1.219  0.7026 -0.0594  0.2190
  617SOL     OW 2233   0.337   4.640   2.920  0.4643  0.4559 -0.4638
  617SOL    HW2 2234   0.255   4.664   2.962 -0.2686 -2.9003  0.3486
  617SOL    HW3 2235   0.312   4.572   2.857  2.4223  0.5659 -1.4360
  617SOL    MW4 2236   0.323   4.634   2.917  0.6259  0.0276 -0.4849
  618SOL     OW 2237   3.447   6.424   0.640  0.0391  0.0775 -0.0424
  618SOL    HW2 2238   3.470   6.375   0.719 -0.6868  0.1654  0.2268
  618SOL    HW3 2239   3.501   6.503   0.644  2.5339 -1.4300 -1.3508
  618SOL    MW4 2240   3.457   6.428   0.651  0.2725 -0.1098 -0.1795
  619SOL     OW 2241   5.529   4.046   0.772 -0.0478  0.1439  0.2416
  619SOL    HW2 2242   5.580   3.973   0.737  2.0026  0.4646  2.2870
  619SOL    HW3 2243   5.512   4.102   0.697  0.1880 -1.3783 -0.9925
  619SOL    MW4 2244   5.533   4.044   0.758  0.2538 -0.0146  0.3487
  620SOL     OW 2245   2.103   6.389   0.171  0.6038  0.0826  0.1508
  620SOL    HW2 2246   2.134   6.406   0.260  3.9579 -1.9246 -0.4583
  620SOL    HW3 2247   2.179   6.407   0.115 -1.6702  2.2914 -2.5275
  620SOL    MW4 2248   2.117   6.393   0.175  0.7463  0.1092 -0.2830
  621SOL     OW 2249   1.666   2.896   2.693  0.0243  0.3775  0.0597
  621SOL    HW2 2250   1.647   2.963   2.758  2.0528  0.5750  0.5095
  621SOL    HW3 2251   1.707   2.825   2.743  0.7196  0.1124 -0.8587
  621SOL    MW4 2252   1.669   2.895   2.708  0.3837  0.3686 -0.0021
  622SOL     OW 2253   5.825   0.893   4.811  0.5245 -0.6167 -0.2230
  622SOL    HW2 2254   5.912   0.928   4.791  0.5937 -1.8421 -2.4172
  622SOL    HW3 2255   5.842   0.823   4.875  0.9015  0.2789  0.6960
  622SOL    MW4 2256   5.839   0.888   4.817  0.5833 -0.6602 -0.3913
  623SOL     OW 2257   1.318   6.170   0.878  0.0918  0.1131 -0.1494
  623SOL    HW2 2258   1.381   6.103   0.904  0.6776  0.8756  0.4613
  623SOL    HW3 2259   1.330   6.239   0.943 -0.7308  0.6629 -0.5778
  623SOL    MW4 2260   1.328   6.170   0.890  0.0606  0.2862 -0.1253
  624SOL     OW 2261   2.343   1.679   5.367 -0.1578 -0.9506  0.1110
  624SOL    HW2 2262   2.312   1.605   5.315 -0.4517 -1.6637  1.2644
  624SOL    HW3 2263   2.271   1.742   5.363 -0.2590 -1.0810 -0.1765
  624SOL    MW4 2264   2.329   1.678   5.360 -0.2099 -1.0619  0.2252
  625SOL     OW 2265   6.111   3.842   6.195  0.0229 -0.0946  0.4095
  625SOL    HW2 2266   6.073   3.919   6.236  0.1992 -0.9318  2.2461
  625SOL    HW3 2267   6.180   3.814   6.255  1.2676 -0.5757 -1.1780
  625SOL    MW4 2268   6.115   3.848   6.208  0.2104 -0.2685  0.4424
  626SOL     OW 2269   1.045   0.299   0.904  0.4274  0.4514  0.2303
  626SOL    HW2 2270   1.003   0.314   0.819  1.1626  0.4470 -0.1401
  626SOL    HW3 2271   1.127   0.256   0.883  0.3296 -0.1306  0.9960
  626SOL    MW4 2272   1.050   0.295   0.890  0.5115  0.3740  0.2825
  627SOL     OW 2273   5.640   1.994   5.116 -0.2364  0.2139  0.2747
  627SOL    HW2 2274   5.650   2.050   5.039 -0.1159 -1.3983 -0.9443
  627SOL    HW3 2275   5.550   1.962   5.111 -0.3278  0.3556  0.9830
  627SOL    MW4 2276   5.630   1.997   5.105 -0.2326  0.0199  0.2073
  628SOL     OW 2277   2.591   2.326   0.753  0.5699  0.3838  0.4776
  628SOL    HW2 2278   2.672   2.308   0.801  0.2015  0.0219  0.9768
  628SOL    HW3 2279   2.558   2.240   0.728 -0.8535  0.3328  2.3013
  628SOL    MW4 2280   2.597   2.313   0.756  0.3335  0.3293  0.7841
  629SOL     OW 2281   6.201   0.587   0.245  0.1435 -0.4427  0.2666
  629SOL    HW2 2282   6.263   0.521   0.276 -1.6845 -2.4942 -0.1720
  629SOL    HW3 2283   6.225   0.601   0.153  0.8940 -0.0729  0.5185
  629SOL    MW4 2284   6.212   0.580   0.237  0.0013 -0.6646  0.2420
  630SOL     OW 2285   0.986   3.927   2.867 -0.1424  0.2169  0.2970
  630SOL    HW2 2286   1.007   3.963   2.953 -1.3303  0.4064  0.5321
  630SOL    HW3 2287   0.964   3.835   2.885  3.0724 -0.7945 -0.3240
  630SOL    MW4 2288   0.986   3.920   2.881  0.1251  0.1085  0.2461
  631SOL     OW 2289   6.198   2.126   2.192  0.4501 -0.1647 -0.2629
  631SOL    HW2 2290   6.287   2.150   2.167  0.5263 -0.1477  0.0182
  631SOL    HW3 2291   6.204   2.108   2.286  0.0143  0.5700 -0.0817
  631SOL    MW4 2292   6.210   2.127   2.201  0.4027 -0.0655 -0.2019
  632SOL     OW 2293   4.880   2.360   5.761  0.3042 -0.4039 -0.0405
  632SOL    HW2 2294   4.875   2.448   5.800  0.3794  0.1332 -1.1896
  632SOL    HW3 2295   4.822   2.365   5.685 -1.1260 -1.9216  0.8984
  632SOL    MW4 2296   4.872   2.373   5.756  0.1254 -0.5333 -0.0682
  633SOL     OW 2297   2.369   0.174   4.214 -0.3070  0.1448 -0.3783
  633SOL    HW2 2298   2.280   0.208   4.216  0.1463  1.3477  0.5656
  633SOL    HW3 2299   2.372   0.112   4.287 -0.4537 -0.1276 -0.6021
  633SOL    MW4 2300   2.358   0.170   4.224 -0.2665  0.2675 -0.2833
  634SOL     OW 2301   6.275   2.080   4.678  0.4036 -0.3349 -0.2715
  634SOL    HW2 2302   6.200   2.062   4.735 -0.7288  1.4294 -1.1227
  634SOL    HW3 2303   6.257   2.166   4.641  3.3011  0.5751  0.1649
  634SOL    MW4 2304   6.263   2.089   4.681  0.6365  0.0179 -0.3262
  635SOL     OW 2305   0.725   1.017   5.433 -0.6337 -0.0539 -0.0410
  635SOL    HW2 2306   0.726   0.961   5.356 -2.5241  1.0301 -0.9307
  635SOL    HW3 2307   0.701   1.104   5.400 -0.3110  0.7123  1.6137
  635SOL    MW4 2308   0.722   1.021   5.419 -0.8405  0.1902  0.0599
  636SOL     OW 2309   3.999   5.862   0.789  0.0455 -0.6426 -0.2348
  636SOL    HW2 2310   3.950   5.850   0.708 -0.3917  1.5558 -0.3512
  636SOL    HW3 2311   4.085   5.824   0.771  0.3680  0.8664 -2.1994
  636SOL    MW4 2312   4.004   5.855   0.776  0.0304 -0.1535 -0.5094
  637SOL     OW 2313   2.864   6.370   1.751  0.3045  0.0242  0.6957
  637SOL    HW2 2314   2.872   6.444   1.691 -1.0009 -0.1902  0.2109
  637SOL    HW3 2315   2.803   6.310   1.707 -1.5338  0.3363  2.6745
  637SOL    MW4 2316   2.857   6.372   1.737 -0.1103  0.0371  0.8928
  638SOL     OW 2317   0.354   1.587   2.172 -0.1475 -0.7022  0.0414
  638SOL    HW2 2318   0.298   1.560   2.245  1.7054 -3.0460  0.7139
  638SOL    HW3 2319   0.399   1.666   2.204 -1.0173 -0.3863  0.5283
  638SOL    MW4 2320   0.352   1.594   2.186 -0.0178 -0.9698  0.1944
  639SOL     OW 2321   4.147   5.623   4.002  0.1009 -0.4027 -0.1314
  639SOL    HW2 2322   4.157   5.569   3.924 -0.9127  0.0201 -0.5655
  639SOL    HW3 2323   4.091   5.695   3.975  2.6093  1.7439 -0.0012
  639SOL    MW4 2324   4.141   5.625   3.988  0.2981 -0.0637 -0.1715
  640SOL     OW 2325   0.583   4.761   4.233  0.4409 -0.9830  0.6707
  640SOL    HW2 2326   0.615   4.705   4.304  0.9960 -0.6349  0.7001
  640SOL    HW3 2327   0.600   4.850   4.263 -0.0114 -0.8079  0.4230
  640SOL    MW4 2328   0.590   4.766   4.246  0.4544 -0.9140  0.6419
  641SOL     OW 2329   1.604   2.791   0.860  0.0241  0.1448 -0.1613
  641SOL    HW2 2330   1.618   2.726   0.928 -1.9540 -0.1827 -0.0080
  641SOL    HW3 2331   1.591   2.873   0.907 -0.8770  0.0054 -0.1580
  641SOL    MW4 2332   1.604   2.793   0.875 -0.3558  0.0832 -0.1406
  642SOL     OW 2333   5.220   2.839   2.717 -0.0622 -0.0873  0.1307
  642SOL    HW2 2334   5.156   2.909   2.705  1.7078  1.5142 -0.4905
  642SOL    HW3 2335   5.304   2.884   2.723  1.1360 -2.1688 -0.0538
  642SOL    MW4 2336   5.223   2.854   2.716  0.3294 -0.1507  0.0244
  643SOL     OW 2337   0.753   3.449   5.479  0.3246 -0.2771  0.1263
  643SOL    HW2 2338   0.672   3.422   5.522 -0.0912  0.6299 -0.0659
  643SOL    HW3 2339   0.779   3.528   5.525  0.7476 -0.2002 -0.2429
  643SOL    MW4 2340   0.746   3.456   5.491  0.3255 -0.1473  0.0522
  644SOL     OW 2341   2.432   2.106   0.638  0.2587 -0.2728 -0.4327
  644SOL    HW2 2342   2.383   2.032   0.675  0.3921 -0.7585 -1.1825
  644SOL    HW3 2343   2.365   2.160   0.596  0.3342 -0.9633 -1.5010
  644SOL    MW4 2344   2.416   2.103   0.637  0.2863 -0.4280 -0.6725
  645SOL     OW 2345   1.840   1.113   0.342 -0.3468 -0.0703  0.1992
  645SOL    HW2 2346   1.822   1.023   0.367 -2.2937  0.4548  0.8829
  645SOL    HW3 2347   1.761   1.141   0.295 -0.5654  1.8288  1.5919
  645SOL    MW4 2348   1.827   1.105   0.339 -0.6325  0.2496  0.4731
  646SOL     OW 2349   4.012   0.362   2.516  0.0792  0.4317  0.1165
  646SOL    HW2 2350   4.027   0.426   2.446 -0.6627  1.4703  0.8669
  646SOL    HW3 2351   4.037   0.278   2.478  1.3512  1.1940 -0.8125
  646SOL    MW4 2352   4.017   0.360   2.502  0.1492  0.6693  0.0930
  647SOL     OW 2353   0.387   2.914   5.418 -0.5570 -0.0155 -0.4890
  647SOL    HW2 2354   0.398   2.957   5.334  0.3573 -0.6048 -0.6869
  647SOL    HW3 2355   0.378   2.821   5.397 -0.0734 -0.1979  0.0735
  647SOL    MW4 2356   0.387   2.907   5.404 -0.3726 -0.1173 -0.4409
  648SOL     OW 2357   6.113   3.341   2.982  0.4644 -0.7795 -0.8675
  648SOL    HW2 2358   6.067   3.273   2.933 -2.1188 -0.0153  0.2948
  648SOL    HW3 2359   6.044   3.404   3.006  2.5891  1.9426 -1.3177
  648SOL    MW4 2360   6.098   3.341   2.978  0.4039 -0.3196 -0.7735
  649SOL     OW 2361   4.276   2.314   2.614 -0.0567  0.1502  0.1209
  649SOL    HW2 2362   4.312   2.339   2.529  1.3314 -0.6322  0.4623
  649SOL    HW3 2363   4.260   2.220   2.607 -2.5283  0.5114 -0.1658
  649SOL    MW4 2364   4.279   2.305   2.602 -0.1996  0.0946  0.1281
  650SOL     OW 2365   1.447   0.705   2.099  0.1966  0.5355 -0.0430
  650SOL    HW2 2366   1.432   0.789   2.143 -0.4908  0.2313  0.3336
  650SOL    HW3 2367   1.541   0.700   2.087  0.2044  1.6539 -0.6567
  650SOL    MW4 2368   1.457   0.716   2.103  0.1069  0.6429 -0.0743
  651SOL     OW 2369   3.538   3.843   3.907  0.0415 -0.2970 -0.0874
  651SOL    HW2 2370   3.486   3.769   3.939  2.1135 -1.2264  1.3769
  651SOL    HW3 2371   3.612   3.803   3.861  2.2024  0.6705  2.2874
  651SOL    MW4 2372   3.541   3.828   3.905  0.6000 -0.2919  0.4191
  652SOL     OW 2373   4.216   4.784   3.420 -0.0229 -0.4414  0.0622
  652SOL    HW2 2374   4.202   4.779   3.515  0.2345 -2.3612  0.0338
  652SOL    HW3 2375   4.192   4.697   3.388 -1.7870  0.6711 -1.8845
  652SOL    MW4 2376   4.211   4.772   3.428 -0.2217 -0.5479 -0.1984
  653SOL     OW 2377   3.603   0.475   2.216 -0.1793  0.0496 -0.2290
  653SOL    HW2 2378   3.652   0.496   2.136 -2.1803  0.5531 -1.4081
  653SOL    HW3 2379   3.638   0.534   2.283  0.9638  0.2236 -0.9629
  653SOL    MW4 2380   3.614   0.486   2.214 -0.2924  0.1390 -0.4814
  654SOL     OW 2381   3.970   2.503   0.459 -0.1238  0.3960  0.2574
  654SOL    HW2 2382   3.931   2.416   0.448  0.9309 -0.1395  0.6542
  654SOL    HW3 2383   4.060   2.486   0.487  0.0289  1.6240  0.5688
  654SOL    MW4 2384   3.976   2.489   0.461  0.0355  0.4874  0.3509
  655SOL     OW 2385   6.058   0.240   4.510 -0.0586 -0.5215 -0.1631
  655SOL    HW2 2386   6.013   0.324   4.509  2.5267  1.1337  3.0377
  655SOL    HW3 2387   6.019   0.193   4.584  1.1873 -0.3989  0.6016
  655SOL    MW4 2388   6.047   0.245   4.520  0.4469 -0.2869  0.3601
  656SOL     OW 2389   3.882   0.784   4.788 -0.3335  0.2237  0.5007
  656SOL    HW2 2390   3.855   0.706   4.739  0.1101  0.5326 -0.2542
  656SOL    HW3 2391   3.914   0.750   4.872 -0.8654 -0.3355  0.4844
  656SOL    MW4 2392   3.883   0.769   4.793 -0.3451  0.1907  0.3990
  657SOL     OW 2393   6.137   0.166   3.177 -0.1269 -0.1704 -0.4609
  657SOL    HW2 2394   6.061   0.217   3.148  0.3064  1.5878  1.2674
  657SOL    HW3 2395   6.197   0.168   3.103 -0.8339  0.3723 -1.0322
  657SOL    MW4 2396   6.135   0.173   3.163 -0.1630  0.1332 -0.3083
  658SOL     OW 2397   6.222   0.656   2.011  0.0096 -0.0151 -0.2010
  658SOL    HW2 2398   6.171   0.677   2.089 -1.1672 -1.3386 -0.5576
  658SOL    HW3 2399   6.278   0.732   1.996 -1.1499  1.0645  0.8080
  658SOL    MW4 2400   6.223   0.668   2.019 -0.2987 -0.0473 -0.1149
  659SOL     OW 2401   1.239   3.214   5.334 -0.1678 -0.2602  0.4706
  659SOL    HW2 2402   1.245   3.269   5.257  1.2829 -1.0490 -0.0205
  659SOL    HW3 2403   1.316   3.236   5.386 -0.3904 -0.7162  1.0089
  659SOL    MW4 2404   1.250   3.224   5.331 -0.0058 -0.4244  0.4768
  660SOL     OW 2405   2.017   0.187   2.020 -0.3157 -0.1822 -0.0993
  660SOL    HW2 2406   2.102   0.177   1.979 -0.0363 -0.0639  0.4452
  660SOL    HW3 2407   1.965   0.113   1.988  0.1929 -0.6196  0.0809
  660SOL    MW4 2408   2.021   0.176   2.010 -0.2117 -0.2243 -0.0037
  661SOL     OW 2409   3.155   4.408   0.979 -0.2440  0.1937  0.3529
  661SOL    HW2 2410   3.091   4.477   0.962 -1.5094 -1.6215 -3.4614
  661SOL    HW3 2411   3.110   4.327   0.954  2.3550 -1.6166  1.0734
  661SOL    MW4 2412   3.140   4.406   0.973 -0.0681 -0.2846 -0.0553
  662SOL     OW 2413   3.218   5.718   6.162 -0.0601 -0.0888  0.3646
  662SOL    HW2 2414   3.235   5.624   6.151 -1.2529 -0.1697 -1.0172
  662SOL    HW3 2415   3.286   5.760   6.109  1.3003 -0.0777  2.0196
  662SOL    MW4 2416   3.230   5.711   6.154 -0.0380 -0.0980  0.4006
  663SOL     OW 2417   5.609   6.261   0.637 -0.0182  0.4901  0.6441
  663SOL    HW2 2418   5.597   6.320   0.711  0.5047  0.0234  1.1159
  663SOL    HW3 2419   5.532   6.203   0.640  1.3890 -1.4502  2.6697
  663SOL    MW4 2420   5.597   6.261   0.647  0.2365  0.1725  0.9736
  664SOL     OW 2421   4.141   3.084   0.734 -0.2598 -0.0323  0.4017
  664SOL    HW2 2422   4.078   3.012   0.724 -0.9560  0.6423 -0.1750
  664SOL    HW3 2423   4.202   3.053   0.801  0.6586 -1.9917 -1.2525
  664SOL    MW4 2424   4.140   3.070   0.742 -0.2305 -0.2018  0.1073
  665SOL     OW 2425   2.850   4.505   5.481  0.2498  0.4143 -0.6626
  665SOL    HW2 2426   2.862   4.579   5.422 -0.2034  0.7901 -0.2896
  665SOL    HW3 2427   2.930   4.454   5.472  1.0198  1.4939 -0.1529
  665SOL    MW4 2428   2.862   4.508   5.472  0.2916  0.6063 -0.5462
  666SOL     OW 2429   5.049   4.363   5.332 -0.0777  0.0438 -0.6073
  666SOL    HW2 2430   4.964   4.321   5.347  0.7915 -2.7781 -2.7015
  666SOL    HW3 2431   5.032   4.427   5.263 -0.8945  1.3207  0.7041
  666SOL    MW4 2432   5.035   4.366   5.325 -0.0708 -0.1601 -0.7106
  667SOL     OW 2433   6.399   0.300   1.399 -0.0046  0.0378  0.2034
  667SOL    HW2 2434   6.461   0.355   1.350 -0.6569 -2.0422 -3.2932
  667SOL    HW3 2435   6.447   0.218   1.414 -0.9591 -0.5927 -0.0861
  667SOL    MW4 2436   6.414   0.296   1.395 -0.2166 -0.3199 -0.2961
  668SOL     OW 2437   1.877   6.033   4.295 -0.2710 -0.5537  0.3112
  668SOL    HW2 2438   1.842   6.120   4.315 -2.0162 -1.3506  0.9458
  668SOL    HW3 2439   1.971   6.047   4.285 -0.4990  1.3987  0.3937
  668SOL    MW4 2440   1.885   6.047   4.296 -0.5313 -0.4012  0.4058
  669SOL     OW 2441   1.583   1.174   0.258  0.3530  0.3008  0.1304
  669SOL    HW2 2442   1.574   1.094   0.207 -3.8688  0.1400  0.7975
  669SOL    HW3 2443   1.523   1.236   0.216  0.3795  1.7225  2.0725
  669SOL    MW4 2444   1.574   1.172   0.245 -0.2005  0.4672  0.4746
  670SOL     OW 2445   4.646   2.534   0.057  0.2472 -0.2142 -0.1408
  670SOL    HW2 2446   4.705   2.512   0.129 -0.0688 -0.3477  0.0804
  670SOL    HW3 2447   4.582   2.463   0.057 -0.7808  0.6871  0.5619
  670SOL    MW4 2448   4.645   2.521   0.066  0.0699 -0.1129 -0.0189
  671SOL     OW 2449   5.599   4.537   1.255 -0.4955 -0.2565  0.0616
  671SOL    HW2 2450   5.525   4.491   1.295  0.6060 -0.6445  1.7476
  671SOL    HW3 2451   5.565   4.625   1.237 -0.9138  0.1660  2.4878
  671SOL    MW4 2452   5.584   4.543   1.258 -0.4053 -0.2519  0.6042
  672SOL     OW 2453   0.603   3.650   4.958 -0.1038  0.4434 -0.3159
  672SOL    HW2 2454   0.688   3.667   5.000 -0.3464 -0.0341  0.3947
  672SOL    HW3 2455   0.609   3.559   4.928 -0.0356  0.6972 -1.0736
  672SOL    MW4 2456   0.615   3.640   4.960 -0.1268  0.4139 -0.3221
  673SOL     OW 2457   2.973   2.203   1.377 -0.5761 -0.5000  0.2020
  673SOL    HW2 2458   2.947   2.262   1.307 -0.1626 -0.4697  0.0695
  673SOL    HW3 2459   2.997   2.122   1.333 -2.0904 -1.1115  0.4633
  673SOL    MW4 2460   2.973   2.200   1.362 -0.7213 -0.5767  0.2190
  674SOL     OW 2461   4.718   2.880   3.980  0.5762  0.1210  0.2227
  674SOL    HW2 2462   4.681   2.815   4.040  0.3642  1.0878  1.1890
  674SOL    HW3 2463   4.662   2.957   3.991  1.6327  0.9276  0.1606
  674SOL    MW4 2464   4.706   2.881   3.990  0.6876  0.3550  0.3420
  675SOL     OW 2465   3.015   4.490   4.647  0.5232 -0.3691  0.3563
  675SOL    HW2 2466   3.008   4.563   4.708 -0.4685 -1.8176  2.0738
  675SOL    HW3 2467   3.103   4.456   4.660  0.4808 -0.3736  0.6367
  675SOL    MW4 2468   3.026   4.495   4.657  0.3868 -0.5608  0.6199
  676SOL     OW 2469   0.810   2.391   1.615 -0.3476  0.2501 -0.2066
  676SOL    HW2 2470   0.719   2.365   1.630 -0.4286  0.9396  0.5611
  676SOL    HW3 2471   0.804   2.481   1.584  0.0451  0.0764 -0.8030
  676SOL    MW4 2472   0.797   2.399   1.613 -0.3065  0.3182 -0.1840
  677SOL     OW 2473   5.658   2.461   4.967 -0.0539  0.0429 -0.0708
  677SOL    HW2 2474   5.592   2.507   4.915 -1.0654 -2.4518 -1.1427
  677SOL    HW3 2475   5.661   2.508   5.050 -2.6589  0.6713 -0.2702
  677SOL    MW4 2476   5.650   2.473   4.971 -0.5310 -0.2033 -0.2385
  678SOL     OW 2477   1.463   0.023   4.291  0.2867 -0.2112  0.0438
  678SOL    HW2 2478   1.469  -0.072   4.280 -1.3532 -0.4927  1.2282
  678SOL    HW3 2479   1.458   0.036   4.385 -3.3818  0.6918 -0.1296
  678SOL    MW4 2480   1.463   0.013   4.302 -0.4136 -0.1292  0.1772
  679SOL     OW 2481   5.211   5.832   2.776  0.4290  0.2790 -0.3627
  679SOL    HW2 2482   5.131   5.883   2.786  1.4431  1.9665 -0.4535
  679SOL    HW3 2483   5.181   5.748   2.742 -1.3157  0.7859 -0.2011
  679SOL    MW4 2484   5.196   5.828   2.772  0.3326  0.5685 -0.3534
  680SOL     OW 2485   5.775   1.466   3.935 -0.8133  0.7314  0.3031
  680SOL    HW2 2486   5.807   1.448   4.023  0.2541 -0.9206 -0.3699
  680SOL    HW3 2487   5.805   1.554   3.915  0.1239  0.6082  1.1004
  680SOL    MW4 2488   5.783   1.475   3.944 -0.5488  0.4972  0.3195
  681SOL     OW 2489   3.650   1.359   0.016  0.2471  0.2434 -0.1438
  681SOL    HW2 2490   3.647   1.434   0.076  1.7928 -0.2775  0.6435
  681SOL    HW3 2491   3.723   1.379  -0.042  3.0511 -2.1209  2.2541
  681SOL    MW4 2492   3.659   1.372   0.017  0.8210 -0.1373  0.2764
  682SOL     OW 2493   0.845   1.375   2.909 -0.2588  0.0920  0.6839
  682SOL    HW2 2494   0.825   1.430   2.984 -1.0783 -0.8350  1.1713
  682SOL    HW3 2495   0.777   1.308   2.909 -0.0888 -0.1208 -0.7001
  682SOL    MW4 2496   0.834   1.373   2.919 -0.3445 -0.0584  0.5656
  683SOL     OW 2497   2.928   0.458   4.731 -0.2111 -0.3438 -0.7290
  683SOL    HW2 2498   3.000   0.521   4.724 -0.3190 -0.1765 -0.3318
  683SOL    HW3 2499   2.888   0.458   4.644 -0.8864  0.9527 -0.4435
  683SOL    MW4 2500   2.932   0.467   4.718 -0.3145 -0.1507 -0.6389
  684SOL     OW 2501   0.315   2.699   4.654 -0.1694 -0.6287 -0.2397
  684SOL    HW2 2502   0.247   2.743   4.704  1.3851  0.8595  0.6742
  684SOL    HW3 2503   0.382   2.677   4.718  0.6394 -1.2420 -1.2477
  684SOL    MW4 2504   0.315   2.702   4.669  0.1424 -0.5133 -0.2521
  685SOL     OW 2505   2.391   1.542   2.635  0.3037  0.1259 -0.0011
  685SOL    HW2 2506   2.347   1.625   2.654  1.3409  0.6227  0.3006
  685SOL    HW3 2507   2.410   1.545   2.541  1.0579  0.5956  0.1601
  685SOL    MW4 2508   2.388   1.553   2.625  0.5401  0.2534  0.0599
  686SOL     OW 2509   5.653   5.001   2.865 -0.4227  0.4866 -0.5072
  686SOL    HW2 2510   5.632   5.032   2.953 -0.7774  0.9938 -0.7594
  686SOL    HW3 2511   5.639   5.078   2.809 -0.6279  0.0585 -1.0588
  686SOL    MW4 2512   5.648   5.015   2.869 -0.4966  0.4970 -0.6132
  687SOL     OW 2513   1.976   3.930   4.110 -0.6563  0.3004  0.5042
  687SOL    HW2 2514   1.936   3.877   4.041 -1.6825  0.4594  0.9623
  687SOL    HW3 2515   2.000   3.867   4.178  2.8144 -0.2564 -1.0169
  687SOL    MW4 2516   1.974   3.915   4.110 -0.3338  0.2479  0.3639
  688SOL     OW 2517   2.586   3.652   0.451  0.4312 -0.0874 -0.2479
  688SOL    HW2 2518   2.492   3.638   0.441  0.2812  0.3819  0.3959
  688SOL    HW3 2519   2.626   3.597   0.384 -0.2977 -0.3521 -0.4783
  688SOL    MW4 2520   2.579   3.643   0.440  0.3152 -0.0604 -0.1933
  689SOL     OW 2521   3.072   1.732   5.567 -0.3964  0.2070  0.3683
  689SOL    HW2 2522   3.003   1.794   5.546  0.7188  1.4754  0.2857
  689SOL    HW3 2523   3.153   1.777   5.542  0.4859 -1.1128  0.7269
  689SOL    MW4 2524   3.074   1.746   5.561 -0.1329  0.2002  0.4047
  690SOL     OW 2525   1.677   0.786   4.072  0.1034 -0.2024  0.2058
  690SOL    HW2 2526   1.657   0.878   4.090  0.6033 -0.3609  1.7341
  690SOL    HW3 2527   1.771   0.779   4.088  0.7779 -0.3010 -3.1266
  690SOL    MW4 2528   1.687   0.797   4.077  0.2584 -0.2363 -0.0322
  691SOL     OW 2529   1.140   3.713   2.445 -0.0818 -0.0167 -0.2263
  691SOL    HW2 2530   1.188   3.703   2.527 -1.7303  2.4797  1.1418
  691SOL    HW3 2531   1.061   3.662   2.457 -0.2533  0.2268 -0.3123
  691SOL    MW4 2532   1.136   3.705   2.457 -0.3219  0.3448 -0.0571
  692SOL     OW 2533   0.755   5.526   2.267  0.5927  0.2401  0.3966
  692SOL    HW2 2534   0.750   5.583   2.344  2.6642  0.0666  0.7058
  692SOL    HW3 2535   0.728   5.583   2.194  0.5358  0.9834  0.9834
  692SOL    MW4 2536   0.751   5.541   2.267  0.8585  0.3153  0.5148
  693SOL     OW 2537   4.778   0.181   5.027 -0.9539  0.4373 -0.0823
  693SOL    HW2 2538   4.765   0.110   5.089 -0.9407 -0.4936 -1.1083
  693SOL    HW3 2539   4.693   0.189   4.983 -1.3007  1.8334  0.7908
  693SOL    MW4 2540   4.765   0.173   5.029 -0.9979  0.4987 -0.1025
  694SOL     OW 2541   5.647   2.414   1.579 -0.0432 -1.2309  0.0873
  694SOL    HW2 2542   5.665   2.473   1.653  0.0180  0.3223 -1.1121
  694SOL    HW3 2543   5.657   2.326   1.616  0.8907 -0.5041  1.7037
  694SOL    MW4 2544   5.651   2.410   1.594  0.0881 -0.9300  0.1423
  695SOL     OW 2545   4.769   5.079   5.621 -0.5662 -0.6756  0.2752
  695SOL    HW2 2546   4.743   5.055   5.532  0.0936  1.7028 -0.6389
  695SOL    HW3 2547   4.731   5.011   5.676 -3.2571 -0.8302 -1.5667
  695SOL    MW4 2548   4.761   5.067   5.616 -0.8342 -0.3822 -0.0884
  696SOL     OW 2549   5.515   0.263   2.034  0.1594  0.0568  0.9408
  696SOL    HW2 2550   5.595   0.287   2.080  0.6312 -1.7379  1.1501
  696SOL    HW3 2551   5.507   0.169   2.049 -1.6989  0.1013  0.4586
  696SOL    MW4 2552   5.524   0.254   2.042 -0.0236 -0.1741  0.9048
  697SOL     OW 2553   0.432   4.673   5.872  0.1834 -0.2731  0.3755
  697SOL    HW2 2554   0.467   4.587   5.851  1.5124  0.3015  0.1325
  697SOL    HW3 2555   0.435   4.721   5.789 -2.2019 -0.5072  0.0916
  697SOL    MW4 2556   0.437   4.668   5.858  0.0440 -0.2281  0.3060
  698SOL     OW 2557   5.938   5.076   3.983 -0.0553  0.1992  0.2887
  698SOL    HW2 2558   5.918   5.169   3.974 -0.3291 -0.0540 -3.2060
  698SOL    HW3 2559   5.853   5.034   3.994 -0.2052  0.2211 -0.6528
  698SOL    MW4 2560   5.924   5.083   3.983 -0.1112  0.1687 -0.2966
  699SOL     OW 2561   2.590   5.655   5.293 -0.1342  0.3494 -0.4226
  699SOL    HW2 2562   2.507   5.638   5.338 -0.2820 -0.0242 -0.8277
  699SOL    HW3 2563   2.653   5.668   5.364 -0.4188  0.0454 -0.1082
  699SOL    MW4 2564   2.587   5.654   5.308 -0.1912  0.2600 -0.4345
  700SOL     OW 2565   4.656   0.697   5.898  0.1767 -0.1293  0.0764
  700SOL    HW2 2566   4.712   0.633   5.855 -0.6515  0.1238 -1.4766
  700SOL    HW3 2567   4.636   0.761   5.829 -2.2327 -0.3673  0.4757
  700SOL    MW4 2568   4.661   0.697   5.883 -0.2505 -0.1273 -0.0758
  701SOL     OW 2569   0.675   5.007   4.986 -0.1241 -0.3280  0.2486
  701SOL    HW2 2570   0.581   5.023   4.998 -0.1390 -0.0007 -0.3064
  701SOL    HW3 2571   0.712   5.025   5.073 -0.6695 -1.2698  0.7001
  701SOL    MW4 2572   0.667   5.012   4.999 -0.1980 -0.4091  0.2349
  702SOL     OW 2573   6.050   5.398   1.514  0.2743  0.0772 -0.1584
  702SOL    HW2 2574   6.022   5.366   1.600  2.5097  0.9238  0.9663
  702SOL    HW3 2575   6.097   5.325   1.475 -0.2359 -0.1116 -0.4330
  702SOL    MW4 2576   6.053   5.384   1.520  0.5019  0.1640 -0.0462
  703SOL     OW 2577   3.031   3.204   5.942  0.5840 -0.4429 -0.8748
  703SOL    HW2 2578   3.054   3.201   5.849 -1.0024 -1.0954 -1.2828
  703SOL    HW3 2579   2.949   3.154   5.948  0.6355 -0.3809  0.8725
  703SOL    MW4 2580   3.023   3.197   5.931  0.3815 -0.5209 -0.6981
  704SOL     OW 2581   0.640   1.250   5.715 -0.6391 -0.2119  0.0536
  704SOL    HW2 2582   0.554   1.222   5.747 -0.5535 -0.6106 -0.0513
  704SOL    HW3 2583   0.690   1.169   5.708  0.8779  0.2905  3.3004
  704SOL    MW4 2584   0.635   1.236   5.718 -0.4276 -0.1982  0.4682
  705SOL     OW 2585   1.656   2.888   0.397  0.4309  0.1845 -0.1536
  705SOL    HW2 2586   1.599   2.821   0.359  0.7257 -0.6190  0.7773
  705SOL    HW3 2587   1.599   2.937   0.456  0.6751 -0.6541  0.8196
  705SOL    MW4 2588   1.641   2.885   0.400  0.5020 -0.0322  0.0976
  706SOL     OW 2589   3.083   4.441   5.987  0.4704 -0.3111 -0.1294
  706SOL    HW2 2590   3.121   4.520   6.027  1.2380 -0.4052 -0.6430
  706SOL    HW3 2591   3.109   4.371   6.047  0.5474 -0.2899 -0.1375
  706SOL    MW4 2592   3.092   4.442   6.000  0.5818 -0.3207 -0.1983
  707SOL     OW 2593   2.638   2.375   0.492  0.3955 -0.9631  0.3363
  707SOL    HW2 2594   2.624   2.287   0.457 -0.0788 -0.8184  0.1560
  707SOL    HW3 2595   2.610   2.368   0.584 -1.8132 -0.4648 -0.2282
  707SOL    MW4 2596   2.632   2.362   0.500  0.0415 -0.8783  0.2380
  708SOL     OW 2597   4.754   3.856   0.182  0.0294  0.1039  0.2568
  708SOL    HW2 2598   4.734   3.915   0.109 -2.3704  0.2242  0.9599
  708SOL    HW3 2599   4.784   3.775   0.139  1.0508  0.9927 -0.7679
  708SOL    MW4 2600   4.756   3.853   0.167 -0.1525  0.2370  0.2144
  709SOL     OW 2601   0.787   0.263   1.396  0.1280  0.0988 -0.1550
  709SOL    HW2 2602   0.770   0.187   1.452 -1.2887  1.0163  0.7153
  709SOL    HW3 2603   0.882   0.275   1.400  0.4636 -1.9317 -0.7558
  709SOL    MW4 2604   0.797   0.254   1.404 -0.0146 -0.0480 -0.1194
  710SOL     OW 2605   1.377   0.657   0.625  0.0321 -0.5654  0.2385
  710SOL    HW2 2606   1.284   0.678   0.624  0.1133 -0.0794 -1.8440
  710SOL    HW3 2607   1.379   0.561   0.632 -0.6680 -0.6583 -0.6271
  710SOL    MW4 2608   1.365   0.647   0.626 -0.0496 -0.5135 -0.1505
  711SOL     OW 2609   3.747   1.260   0.592  0.3949  0.0774 -0.4560
  711SOL    HW2 2610   3.836   1.244   0.621  0.0971  0.2981  0.6663
  711SOL    HW3 2611   3.705   1.174   0.593 -0.1773  0.3171  1.8877
  711SOL    MW4 2612   3.753   1.247   0.596  0.2801  0.1381  0.0013
  712SOL     OW 2613   1.219   0.650   4.732  0.0504 -0.2204 -0.3782
  712SOL    HW2 2614   1.289   0.707   4.763 -1.1743  0.5581  1.1140
  712SOL    HW3 2615   1.200   0.681   4.644  1.5960 -0.4968 -0.8335
  712SOL    MW4 2616   1.226   0.661   4.724  0.0927 -0.1542 -0.2414
  713SOL     OW 2617   6.304   6.283   1.048 -0.5449 -0.0942  0.2446
  713SOL    HW2 2618   6.326   6.376   1.062 -0.6731  0.0777 -0.6559
  713SOL    HW3 2619   6.317   6.243   1.134 -0.1923  0.7002  0.5775
  713SOL    MW4 2620   6.309   6.290   1.062 -0.5153  0.0333  0.1697
  714SOL     OW 2621   3.101   3.566   1.713  0.9310 -0.1424 -0.4018
  714SOL    HW2 2622   3.117   3.582   1.806 -1.1554 -1.4055  0.2331
  714SOL    HW3 2623   3.120   3.473   1.701 -0.4226 -0.3904 -0.8189
  714SOL    MW4 2624   3.106   3.556   1.723  0.4772 -0.3418 -0.3731
  715SOL     OW 2625   6.021   2.320   2.793  0.6275  0.0225  0.4190
  715SOL    HW2 2626   5.943   2.352   2.838 -0.0266 -1.4673  0.3805
  715SOL    HW3 2627   5.992   2.303   2.704  1.2115  0.2408  0.1829
  715SOL    MW4 2628   6.007   2.322   2.787  0.6183 -0.1453  0.3828
  716SOL     OW 2629   0.633   0.092   1.589 -0.0332 -0.2229 -0.2743
  716SOL    HW2 2630   0.579   0.170   1.576  0.5579  0.3845  0.7926
  716SOL    HW3 2631   0.587   0.024   1.540  0.5525  1.2241 -3.0415
  716SOL    MW4 2632   0.619   0.093   1.581  0.1221  0.0481 -0.4987
  717SOL     OW 2633   0.104   5.062   1.367 -0.0525 -0.0924 -0.1856
  717SOL    HW2 2634   0.197   5.074   1.345 -0.1010  0.3623 -0.1580
  717SOL    HW3 2635   0.105   5.043   1.461 -0.0470  0.8336  0.0102
  717SOL    MW4 2636   0.117   5.061   1.377 -0.0582  0.0897 -0.1561
  718SOL     OW 2637   0.992   5.186   5.707  0.1634  0.1987 -0.1482
  718SOL    HW2 2638   0.903   5.202   5.677 -0.2833  0.9758  1.5040
  718SOL    HW3 2639   0.983   5.140   5.790  1.2475  1.3221  0.6374
  718SOL    MW4 2640   0.979   5.182   5.714  0.2475  0.4495  0.1734
  719SOL     OW 2641   0.466   2.273   5.538  0.2990 -0.3769  0.4093
  719SOL    HW2 2642   0.533   2.210   5.565 -1.2230 -1.2334  2.4218
  719SOL    HW3 2643   0.444   2.248   5.448  3.9729  1.1553 -1.1087
  719SOL    MW4 2644   0.472   2.262   5.530  0.5829 -0.2877  0.4745
  720SOL     OW 2645   1.877   3.931   0.345 -0.3962  0.1833 -0.1167
  720SOL    HW2 2646   1.802   3.896   0.298 -0.1945 -1.3684  0.6448
  720SOL    HW3 2647   1.946   3.938   0.279 -0.0414 -2.2062 -0.0702
  720SOL    MW4 2648   1.876   3.927   0.330 -0.3228 -0.3367 -0.0101
  721SOL     OW 2649   4.049   0.265   5.247  0.1081  0.0785  0.0197
  721SOL    HW2 2650   4.028   0.358   5.249 -4.5460 -0.7707  1.7586
  721SOL    HW3 2651   4.015   0.233   5.164  2.2434 -0.1147 -0.8604
  721SOL    MW4 2652   4.042   0.273   5.237 -0.2242 -0.0591  0.1330
  722SOL     OW 2653   2.627   3.805   3.581 -0.2100 -0.1749  0.0152
  722SOL    HW2 2654   2.552   3.839   3.533 -1.4642 -0.8823  1.3790
  722SOL    HW3 2655   2.628   3.711   3.560  0.2803 -0.1676  0.0033
  722SOL    MW4 2656   2.617   3.797   3.572 -0.3108 -0.2673  0.1936
  723SOL     OW 2657   3.801   1.891   1.383  0.0574 -0.4619 -0.3575
  723SOL    HW2 2658   3.852   1.812   1.395 -0.3818 -0.7316 -0.2636
  723SOL    HW3 2659   3.764   1.883   1.295 -2.2865 -1.7106  0.6584
  723SOL    MW4 2660   3.803   1.880   1.373 -0.3098 -0.6622 -0.2110
  724SOL     OW 2661   3.696   5.928   3.291 -0.1368  0.2519  0.1403
  724SOL    HW2 2662   3.642   5.918   3.369  2.9227 -2.4305  2.1578
  724SOL    HW3 2663   3.728   6.018   3.296 -0.5671  0.3486  1.6093
  724SOL    MW4 2664   3.693   5.939   3.302  0.2101 -0.0892  0.6003
  725SOL     OW 2665   3.520   0.761   5.244 -0.6222  0.8553 -0.1573
  725SOL    HW2 2666   3.480   0.835   5.199 -0.0526 -0.0827 -2.3378
  725SOL    HW3 2667   3.614   0.769   5.225 -0.4009  0.2182  0.5874
  725SOL    MW4 2668   3.527   0.771   5.236 -0.5179  0.6475 -0.3467
  726SOL     OW 2669   4.945   5.406   6.405 -0.2081  0.7575  0.0077
  726SOL    HW2 2670   4.901   5.490   6.401  1.7991  1.8483 -0.4180
  726SOL    HW3 2671   4.970   5.388   6.314  0.1231  0.1178  0.2192
  726SOL    MW4 2672   4.943   5.414   6.392  0.1004  0.8170 -0.0206
  727SOL     OW 2673   3.402   3.885   3.656 -0.4178 -0.5865 -0.0886
  727SOL    HW2 2674   3.444   3.947   3.596 -0.2729  1.1840  1.7232
  727SOL    HW3 2675   3.448   3.898   3.739 -2.7752 -0.4660  1.2786
  727SOL    MW4 2676   3.414   3.895   3.659 -0.7097 -0.3370  0.3308
  728SOL     OW 2677   0.631   1.241   5.077 -0.0677 -0.0514  0.1692
  728SOL    HW2 2678   0.563   1.183   5.113  1.1127 -0.4767  1.8583
  728SOL    HW3 2679   0.635   1.219   4.984  1.0719 -3.5262  0.9028
  728SOL    MW4 2680   0.622   1.231   5.070  0.2384 -0.5660  0.4889
  729SOL     OW 2681   4.869   2.482   4.380 -0.0757  0.1096  0.4468
  729SOL    HW2 2682   4.774   2.477   4.393 -0.1141 -0.3613 -0.0163
  729SOL    HW3 2683   4.880   2.492   4.286  0.3430 -0.0397  0.4773
  729SOL    MW4 2684   4.857   2.483   4.369 -0.0255  0.0278  0.3897
  730SOL     OW 2685   6.170   5.429   0.689 -0.4296 -0.1944  0.4049
  730SOL    HW2 2686   6.217   5.415   0.771 -0.8379 -0.2843  0.6265
  730SOL    HW3 2687   6.105   5.358   0.686 -0.0415 -0.5390 -0.2727
  730SOL    MW4 2688   6.168   5.417   0.699 -0.4323 -0.2517  0.3447
  731SOL     OW 2689   5.514   0.769   0.456  0.1547  0.0271 -0.3949
  731SOL    HW2 2690   5.597   0.743   0.417 -0.3815  0.4118 -1.9133
  731SOL    HW3 2691   5.526   0.759   0.550  1.4584 -1.2085 -0.6619
  731SOL    MW4 2692   5.526   0.765   0.463  0.2559 -0.0851 -0.6305
  732SOL     OW 2693   3.107   5.268   5.549 -0.3688  0.1772 -0.0297
  732SOL    HW2 2694   3.177   5.333   5.556  0.4443 -0.8212  1.9325
  732SOL    HW3 2695   3.047   5.290   5.620 -0.9840 -0.2136 -0.4160
  732SOL    MW4 2696   3.108   5.280   5.559 -0.3427 -0.0061  0.1782
  733SOL     OW 2697   4.643   4.309   5.135 -0.1987 -0.0515 -0.2911
  733SOL    HW2 2698   4.564   4.332   5.183  1.9113  2.2916  2.3967
  733SOL    HW3 2699   4.680   4.393   5.108  1.4838 -1.0580 -1.3315
  733SOL    MW4 2700   4.638   4.323   5.138  0.3016  0.1248 -0.0737
  734SOL     OW 2701   0.889   2.938   2.871  0.0400 -0.3528 -0.2598
  734SOL    HW2 2702   0.863   3.029   2.854 -1.3768 -0.7538 -0.4404
  734SOL    HW3 2703   0.883   2.895   2.785  0.7126 -0.6119 -0.1800
  734SOL    MW4 2704   0.885   2.944   2.857 -0.0582 -0.4399 -0.2731
  735SOL     OW 2705   5.664   6.147   4.840  0.7267  0.3109  0.6747
  735SOL    HW2 2706   5.641   6.059   4.868 -1.0800  0.4049 -0.3389
  735SOL    HW3 2707   5.745   6.136   4.790  1.0890 -0.6025  1.4401
  735SOL    MW4 2708   5.671   6.134   4.837  0.5361  0.2028  0.6419
  736SOL     OW 2709   0.557   5.303   1.542 -0.0940  0.0450  0.2518
  736SOL    HW2 2710   0.506   5.225   1.561 -0.8235  0.1817 -1.0264
  736SOL    HW3 2711   0.617   5.312   1.616 -2.4637  0.3628  2.2301
  736SOL    MW4 2712   0.558   5.294   1.554 -0.5029  0.1050  0.3441
  737SOL     OW 2713   0.263   0.869   3.140  0.1452  0.1229 -0.0912
  737SOL    HW2 2714   0.175   0.838   3.163 -0.0725  0.7592 -0.0287
  737SOL    HW3 2715   0.310   0.791   3.111  0.4110 -0.7121  2.3778
  737SOL    MW4 2716   0.257   0.855   3.139  0.1516  0.0967  0.2428
  738SOL     OW 2717   4.342   0.537   0.691  0.1355 -0.1519  0.2283
  738SOL    HW2 2718   4.402   0.554   0.618 -0.1230 -1.0099 -0.2008
  738SOL    HW3 2719   4.391   0.479   0.749 -0.4951 -1.4193 -0.4645
  738SOL    MW4 2720   4.356   0.532   0.689  0.0182 -0.4323  0.0802
  739SOL     OW 2721   5.595   0.830   5.175  0.0655  0.1357 -0.2757
  739SOL    HW2 2722   5.579   0.754   5.120 -0.1569 -0.2599  0.3243
  739SOL    HW3 2723   5.513   0.843   5.223  0.9179 -0.8975  1.5999
  739SOL    MW4 2724   5.582   0.822   5.174  0.1487 -0.0528  0.0509
  740SOL     OW 2725   3.332   4.222   0.508  0.4945 -0.5117 -0.0684
  740SOL    HW2 2726   3.396   4.292   0.524 -0.6020  0.8528 -1.2897
  740SOL    HW3 2727   3.353   4.190   0.421  1.2139 -2.0108  0.6249
  740SOL    MW4 2728   3.343   4.227   0.499  0.4447 -0.5295 -0.1381
  741SOL     OW 2729   5.330   3.091   2.397 -0.5784  0.5500  0.8175
  741SOL    HW2 2730   5.400   3.028   2.380 -0.3823  0.9212  0.1826
  741SOL    HW3 2731   5.249   3.042   2.383 -0.4260  0.4686  0.1504
  741SOL    MW4 2732   5.329   3.077   2.393 -0.5324  0.5882  0.6457
  742SOL     OW 2733   4.770   1.200   5.431 -0.1357  0.6529 -0.0427
  742SOL    HW2 2734   4.812   1.248   5.503 -1.0269  2.3943 -0.6199
  742SOL    HW3 2735   4.832   1.131   5.409  1.1137  1.3788  1.0261
  742SOL    MW4 2736   4.784   1.198   5.437 -0.0884  0.9784  0.0222
  743SOL     OW 2737   2.369   6.247   4.105  0.3062 -0.0892 -0.0863
  743SOL    HW2 2738   2.312   6.280   4.036 -1.1400 -2.6700 -0.2517
  743SOL    HW3 2739   2.393   6.324   4.155 -0.3476  1.5750 -2.1958
  743SOL    MW4 2740   2.365   6.261   4.103  0.0291 -0.2102 -0.3864
  744SOL     OW 2741   1.769   3.907   6.328 -0.1474 -0.4363 -0.0032
  744SOL    HW2 2742   1.692   3.850   6.330 -0.6140  0.1907  0.3408
  744SOL    HW3 2743   1.836   3.856   6.284 -0.6617 -1.1241  0.0021
  744SOL    MW4 2744   1.767   3.893   6.323 -0.2768 -0.4443  0.0429
  745SOL     OW 2745   4.133   0.019   3.588 -0.6864 -0.0693  0.5070
  745SOL    HW2 2746   4.094   0.037   3.674  0.0511  0.5155  0.7267
  745SOL    HW3 2747   4.146  -0.076   3.588 -0.8862 -0.0995  0.9637
  745SOL    MW4 2748   4.130   0.009   3.600 -0.6155  0.0039  0.5962
  746SOL     OW 2749   4.178   4.853   1.360  0.1932  0.8640 -0.1892
  746SOL    HW2 2750   4.127   4.797   1.419  2.0746  0.5604  1.2512
  746SOL    HW3 2751   4.153   4.942   1.384  0.4928  0.7252  0.6878
  746SOL    MW4 2752   4.168   4.858   1.371  0.4810  0.8056  0.1166
  747SOL     OW 2753   2.868   0.275   2.221  0.3654  0.0191 -0.3697
  747SOL    HW2 2754   2.947   0.329   2.215  0.4457 -0.1974 -1.5262
  747SOL    HW3 2755   2.799   0.337   2.245  0.3446  0.7926 -2.2377
  747SOL    MW4 2756   2.869   0.290   2.223  0.3733  0.0926 -0.7687
  748SOL     OW 2757   2.558   5.386   1.741 -0.1364  0.4932 -0.0411
  748SOL    HW2 2758   2.500   5.365   1.668 -0.6124 -2.0338  0.9643
  748SOL    HW3 2759   2.605   5.305   1.759 -0.1843  0.9589  2.5641
  748SOL    MW4 2760   2.556   5.373   1.734 -0.2055  0.2212  0.4353
  749SOL     OW 2761   4.171   0.980   2.141 -0.1750  0.1138  0.1806
  749SOL    HW2 2762   4.151   0.923   2.215 -0.4739  0.0950  0.0870
  749SOL    HW3 2763   4.255   0.948   2.107 -0.8624 -0.9818 -0.5589
  749SOL    MW4 2764   4.179   0.969   2.146 -0.3051 -0.0332  0.0707
  750SOL     OW 2765   3.614   1.554   1.022 -0.0455  0.0386  0.1205
  750SOL    HW2 2766   3.522   1.539   0.998 -0.2978  0.4664  0.7786
  750SOL    HW3 2767   3.662   1.544   0.940 -0.4344 -2.0901  0.0952
  750SOL    MW4 2768   3.608   1.551   1.008 -0.1301 -0.1858  0.2040
  751SOL     OW 2769   0.917   4.551   0.933  0.1067 -0.2959  0.5344
  751SOL    HW2 2770   0.884   4.466   0.903 -0.8705  0.2088  0.1586
  751SOL    HW3 2771   1.011   4.548   0.915 -0.0237 -1.0551 -0.0600
  751SOL    MW4 2772   0.925   4.539   0.927 -0.0394 -0.3294  0.4064
  752SOL     OW 2773   0.811   5.410   3.371  0.1100  0.5097 -0.1731
  752SOL    HW2 2774   0.885   5.443   3.321  0.0462  0.8346 -0.0574
  752SOL    HW3 2775   0.786   5.483   3.427  0.0255  0.2337  0.1544
  752SOL    MW4 2776   0.818   5.424   3.372  0.0905  0.5162 -0.1146
  753SOL     OW 2777   0.038   3.749   5.020 -0.4641 -0.3938 -0.1361
  753SOL    HW2 2778  -0.010   3.669   5.042 -0.1028 -0.1099  1.9150
  753SOL    HW3 2779   0.130   3.727   5.033 -0.4433  0.9071  2.9310
  753SOL    MW4 2780   0.044   3.736   5.025 -0.4137 -0.1847  0.5392
  754SOL     OW 2781   2.072   4.266   3.100 -0.6567 -0.2858 -0.1609
  754SOL    HW2 2782   2.020   4.270   3.181  0.2363 -0.1959  0.4310
  754SOL    HW3 2783   2.156   4.305   3.125 -0.2951 -0.4691 -1.0789
  754SOL    MW4 2784   2.076   4.272   3.114 -0.4911 -0.2981 -0.2039
  755SOL     OW 2785   5.150   5.978   0.491 -0.2864 -0.1003  0.2304
  755SOL    HW2 2786   5.140   6.008   0.581  3.4777  0.9708  0.4795
  755SOL    HW3 2787   5.196   5.894   0.499  2.4673  1.1860 -0.5368
  755SOL    MW4 2788   5.155   5.970   0.504  0.5735  0.2107  0.1621
  756SOL     OW 2789   1.863   6.206   0.116  0.1018  0.4627 -0.2423
  756SOL    HW2 2790   1.931   6.270   0.138 -1.0961  1.2571  1.3344
  756SOL    HW3 2791   1.808   6.250   0.051  0.5947  0.1222 -0.9085
  756SOL    MW4 2792   1.865   6.220   0.110  0.0088  0.5226 -0.1222
  757SOL     OW 2793   1.099   1.292   5.592  0.7010  0.2621 -0.2872
  757SOL    HW2 2794   1.086   1.240   5.512 -0.6137 -0.6277  0.4710
  757SOL    HW3 2795   1.190   1.276   5.616  0.5154 -1.1972 -0.4455
  757SOL    MW4 2796   1.109   1.283   5.584  0.5031 -0.0478 -0.2080
  758SOL     OW 2797   4.746   4.582   4.519 -0.5355  0.2323  0.0499
  758SOL    HW2 2798   4.675   4.524   4.490 -0.2968 -0.4701  0.8253
  758SOL    HW3 2799   4.826   4.537   4.491 -0.3264 -0.1069  1.1542
  758SOL    MW4 2800   4.748   4.568   4.511 -0.4764  0.0949  0.2979
  759SOL     OW 2801   4.517   2.284   0.070  0.4049 -0.5735 -0.2873
  759SOL    HW2 2802   4.519   2.211   0.007 -2.0162 -2.1633  1.3277
  759SOL    HW3 2803   4.439   2.268   0.123  1.5989  1.4372  2.2773
  759SOL    MW4 2804   4.507   2.272   0.068  0.2430 -0.5180  0.2642
  760SOL     OW 2805   5.973   2.312   4.117  0.0573  0.3528 -0.3891
  760SOL    HW2 2806   5.953   2.239   4.058 -0.3393 -0.2310  0.4440
  760SOL    HW3 2807   6.051   2.353   4.079 -0.1914 -0.0024 -1.3113
  760SOL    MW4 2808   5.980   2.308   4.104 -0.0279  0.2289 -0.4008
  761SOL     OW 2809   2.624   2.854   5.020 -0.0190 -0.0444  0.2610
  761SOL    HW2 2810   2.547   2.905   5.045  0.1604  0.2280  0.2529
  761SOL    HW3 2811   2.589   2.784   4.964  0.0603  1.7706 -2.2010
  761SOL    MW4 2812   2.609   2.851   5.016  0.0152  0.2310 -0.0649
  762SOL     OW 2813   3.609   4.679   3.159 -0.1599 -0.8744  0.0740
  762SOL    HW2 2814   3.663   4.732   3.217 -1.1378  1.0648 -0.6865
  762SOL    HW3 2815   3.524   4.724   3.158 -1.6219 -3.4171  0.6877
  762SOL    MW4 2816   3.605   4.692   3.167 -0.4818 -0.9540  0.0546
  763SOL     OW 2817   0.236   4.105   5.088 -0.4638 -0.1530  0.3446
  763SOL    HW2 2818   0.195   4.036   5.140 -0.0123 -0.5073  0.2279
  763SOL    HW3 2819   0.162   4.158   5.057 -0.6809  0.8323  2.4023
  763SOL    MW4 2820   0.220   4.103   5.091 -0.4328 -0.0697  0.6007
  764SOL     OW 2821   2.329   2.624   1.208 -0.0342 -0.0297 -0.2409
  764SOL    HW2 2822   2.336   2.555   1.142  0.2377 -0.1147 -0.1261
  764SOL    HW3 2823   2.300   2.580   1.287 -0.2966  0.0615 -0.2871
  764SOL    MW4 2824   2.326   2.609   1.210 -0.0329 -0.0289 -0.2319
  765SOL     OW 2825   3.267   3.108   6.053 -0.4626 -0.0084 -0.0729
  765SOL    HW2 2826   3.275   3.199   6.081 -1.8439 -0.0565  0.5810
  765SOL    HW3 2827   3.183   3.104   6.007  0.0232 -0.7561 -0.9061
  765SOL    MW4 2828   3.257   3.119   6.051 -0.5807 -0.1134 -0.0966
  766SOL     OW 2829   0.081   0.663   1.761 -0.1744  0.1502 -0.2534
  766SOL    HW2 2830   0.037   0.646   1.844  0.1185  0.2366 -0.0775
  766SOL    HW3 2831   0.031   0.614   1.696  0.9538 -1.8689  0.3052
  766SOL    MW4 2832   0.069   0.654   1.763  0.0131 -0.1048 -0.1565
  767SOL     OW 2833   1.686   5.698   5.274 -0.0889  0.5712 -0.0642
  767SOL    HW2 2834   1.781   5.701   5.286 -0.2157  1.1741  0.8624
  767SOL    HW3 2835   1.668   5.758   5.203  0.1796  0.8185  0.0771
  767SOL    MW4 2836   1.696   5.706   5.267 -0.0702  0.6833  0.0767
  768SOL     OW 2837   1.781   4.444   2.427 -0.3082  0.3595  0.4848
  768SOL    HW2 2838   1.707   4.467   2.484 -0.1604 -0.1159  0.8769
  768SOL    HW3 2839   1.799   4.352   2.447 -0.5747  0.0251 -0.6917
  768SOL    MW4 2840   1.774   4.435   2.437 -0.3238  0.2527  0.3813
  769SOL     OW 2841   1.811   5.431   6.031  0.2443 -0.5123 -0.3233
  769SOL    HW2 2842   1.774   5.518   6.014 -0.7405 -1.0058 -0.7685
  769SOL    HW3 2843   1.779   5.408   6.118 -1.6701 -1.4853 -1.2108
  769SOL    MW4 2844   1.802   5.440   6.040 -0.1382 -0.7058 -0.4991
  770SOL     OW 2845   1.183   5.174   4.564 -0.1713 -0.1734 -0.0651
  770SOL    HW2 2846   1.101   5.141   4.602  0.3221  1.1131  2.3246
  770SOL    HW3 2847   1.241   5.186   4.639  2.2217 -0.9690 -1.6869
  770SOL    MW4 2848   1.180   5.171   4.579  0.2096 -0.1086  0.0362
  771SOL     OW 2849   2.013   3.114   0.370 -0.4287  0.1765 -0.4890
  771SOL    HW2 2850   1.971   3.058   0.305  0.5412 -0.9615 -0.1663
  771SOL    HW3 2851   2.101   3.127   0.337 -0.2706  0.4930  0.0508
  771SOL    MW4 2852   2.019   3.108   0.357 -0.2799  0.0681 -0.3752
  772SOL     OW 2853   4.730   2.066   0.190 -0.4083  0.5006  0.1353
  772SOL    HW2 2854   4.705   1.978   0.219  0.4223  0.2195  0.0519
  772SOL    HW3 2855   4.653   2.120   0.206 -0.6601 -0.0798  0.9383
  772SOL    MW4 2856   4.717   2.062   0.196 -0.3319  0.3869  0.2302
  773SOL     OW 2857   3.762   3.687   2.171  0.1085 -0.3970 -0.2018
  773SOL    HW2 2858   3.726   3.637   2.097 -1.1009  0.2076 -0.0587
  773SOL    HW3 2859   3.769   3.776   2.138  0.1765 -0.2514  0.2064
  773SOL    MW4 2860   3.758   3.692   2.156 -0.0421 -0.2980 -0.1291
  774SOL     OW 2861   1.157   0.963   1.035  0.1906 -0.1319 -0.3082
  774SOL    HW2 2862   1.098   1.013   0.978 -0.8071  1.8325  2.2479
  774SOL    HW3 2863   1.111   0.880   1.049 -0.3311  0.0245 -1.0241
  774SOL    MW4 2864   1.143   0.959   1.029 -0.0099  0.1479 -0.0654
  775SOL     OW 2865   1.382   5.065   0.488  0.2434 -0.3222  0.1062
  775SOL    HW2 2866   1.410   5.013   0.564  0.5696 -3.0801 -1.7561
  775SOL    HW3 2867   1.463   5.080   0.439  0.0974  1.7741  0.4472
  775SOL    MW4 2868   1.397   5.060   0.492  0.2671 -0.4095 -0.0945
  776SOL     OW 2869   4.235   2.050   2.902 -0.2270 -0.7713 -0.4440
  776SOL    HW2 2870   4.203   1.966   2.869 -0.0043 -0.6109 -1.0970
  776SOL    HW3 2871   4.269   2.030   2.989 -1.1029 -1.1511 -0.1782
  776SOL    MW4 2872   4.235   2.036   2.909 -0.3132 -0.8002 -0.4951
  777SOL     OW 2873   0.922   4.196   1.992 -0.1364 -0.4497  0.1182
  777SOL    HW2 2874   0.964   4.131   1.935  0.8473  0.1290  0.1515
  777SOL    HW3 2875   0.994   4.228   2.047 -0.8716 -0.2649  0.9881
  777SOL    MW4 2876   0.937   4.191   1.992 -0.1036 -0.3490  0.2373
  778SOL     OW 2877   4.508   0.167   4.946 -0.4206  0.3530 -0.0879
  778SOL    HW2 2878   4.471   0.092   4.993 -1.3708  1.0137  0.2555
  778SOL    HW3 2879   4.462   0.243   4.982 -0.1811  1.0074 -1.1145
  778SOL    MW4 2880   4.497   0.167   4.957 -0.5144  0.5265 -0.1781
  779SOL     OW 2881   4.305   3.177   5.698  0.4140  1.0153 -0.4857
  779SOL    HW2 2882   4.384   3.172   5.643  0.5060  0.0244 -0.2743
  779SOL    HW3 2883   4.305   3.096   5.748 -0.3101  1.3798  0.1242
  779SOL    MW4 2884   4.316   3.166   5.697  0.3306  0.9327 -0.3773
  780SOL     OW 2885   1.900   1.428   0.942 -0.5314 -0.0361  0.5732
  780SOL    HW2 2886   1.897   1.373   0.864 -0.9124 -1.2810  1.4394
  780SOL    HW3 2887   1.821   1.481   0.936 -0.7310 -0.3581  0.2766
  780SOL    MW4 2888   1.889   1.428   0.931 -0.6080 -0.2429  0.6484
  781SOL     OW 2889   6.183   5.447   2.560 -0.0708  1.2444 -0.1544
  781SOL    HW2 2890   6.115   5.469   2.624  0.2480  0.3002  0.5452
  781SOL    HW3 2891   6.216   5.362   2.590 -0.5688  0.3121 -2.1390
  781SOL    MW4 2892   6.179   5.439   2.573 -0.0945  0.9968 -0.3240
  782SOL     OW 2893   5.752   3.123   3.675  0.3144  0.2595 -0.1848
  782SOL    HW2 2894   5.826   3.177   3.646  0.8665 -1.2331 -1.7037
  782SOL    HW3 2895   5.724   3.076   3.597 -0.0215 -1.7759  1.0648
  782SOL    MW4 2896   5.758   3.124   3.661  0.3429 -0.2060 -0.2203
  783SOL     OW 2897   4.388   5.293   3.335  0.2882  0.2834  0.2766
  783SOL    HW2 2898   4.456   5.269   3.398  2.0317 -0.6578 -1.8441
  783SOL    HW3 2899   4.325   5.221   3.339  0.8455 -0.2138  0.3382
  783SOL    MW4 2900   4.389   5.280   3.344  0.5917  0.0936  0.0050
  784SOL     OW 2901   5.799   5.448   0.608  0.8002 -0.2781  0.5901
  784SOL    HW2 2902   5.811   5.507   0.534  0.4891  0.1795  0.9001
  784SOL    HW3 2903   5.708   5.459   0.634  0.8927 -0.4699  1.0116
  784SOL    MW4 2904   5.788   5.457   0.602  0.7714 -0.2430  0.6866
  785SOL     OW 2905   6.316   1.239   5.825 -0.3343  0.8908  0.4363
  785SOL    HW2 2906   6.261   1.310   5.859 -1.3120  0.3715 -0.0323
  785SOL    HW3 2907   6.259   1.191   5.765  0.2547 -0.4094  0.8845
  785SOL    MW4 2908   6.301   1.242   5.821 -0.3856  0.6507  0.4336
  786SOL     OW 2909   2.634   6.267   2.068  0.0839 -0.2049 -0.5851
  786SOL    HW2 2910   2.603   6.356   2.051 -1.1074 -0.7480 -1.3694
  786SOL    HW3 2911   2.601   6.247   2.156  0.9038  0.3478 -0.1422
  786SOL    MW4 2912   2.625   6.276   2.077  0.0349 -0.2037 -0.6302
  787SOL     OW 2913   3.801   0.815   5.164 -0.4583 -0.3616 -0.2818
  787SOL    HW2 2914   3.841   0.846   5.245 -0.1952  0.0054 -0.5483
  787SOL    HW3 2915   3.790   0.894   5.111 -0.6823 -0.5913 -0.5775
  787SOL    MW4 2916   3.805   0.829   5.168 -0.4531 -0.3435 -0.3560
  788SOL     OW 2917   3.766   5.039   1.391 -0.8261 -0.5946 -0.2273
  788SOL    HW2 2918   3.675   5.061   1.371 -0.3914  2.4280  0.5809
  788SOL    HW3 2919   3.817   5.096   1.333  0.5003 -0.4164  1.0596
  788SOL    MW4 2920   3.761   5.050   1.380 -0.5937 -0.1723  0.0492
  789SOL     OW 2921   2.668   4.598   5.976 -0.3213 -0.3931 -0.2855
  789SOL    HW2 2922   2.681   4.591   5.881 -0.7925 -2.8675 -0.2344
  789SOL    HW3 2923   2.732   4.537   6.014 -1.1966 -0.6174  0.8813
  789SOL    MW4 2924   2.678   4.589   5.968 -0.4989 -0.7491 -0.1248
  790SOL     OW 2925   2.289   2.008   5.562  0.1134 -0.0472  0.0794
  790SOL    HW2 2926   2.195   1.993   5.572 -0.1676  1.4517 -0.2062
  790SOL    HW3 2927   2.313   2.065   5.635  1.0227 -1.2311  0.7432
  790SOL    MW4 2928   2.280   2.013   5.573  0.1963 -0.0056  0.1293
  791SOL     OW 2929   2.279   0.148   1.912 -0.0480  0.0109  0.3054
  791SOL    HW2 2930   2.266   0.078   1.847 -1.9843 -0.9250  1.5922
  791SOL    HW3 2931   2.359   0.124   1.958 -0.2578 -0.9397  0.1947
  791SOL    MW4 2932   2.288   0.135   1.909 -0.3311 -0.2380  0.4606
  792SOL     OW 2933   4.238   1.895   4.344 -0.2760 -0.4561 -0.0156
  792SOL    HW2 2934   4.191   1.977   4.330 -0.1948 -0.6890 -1.9538
  792SOL    HW3 2935   4.186   1.829   4.297  0.5485 -1.2012  0.0856
  792SOL    MW4 2936   4.225   1.897   4.336 -0.1565 -0.5851 -0.2579
  793SOL     OW 2937   3.300   6.117   0.539  1.2208  0.1086  0.1571
  793SOL    HW2 2938   3.221   6.065   0.556  0.7686  0.7568  0.0919
  793SOL    HW3 2939   3.344   6.124   0.623 -0.7867  2.9582  1.1579
  793SOL    MW4 2940   3.295   6.111   0.552  0.8963  0.5701  0.2805
  794SOL     OW 2941   5.909   0.961   1.925 -0.0140  0.1553  0.6754
  794SOL    HW2 2942   5.918   0.867   1.911 -2.7301 -0.4016  2.0021
  794SOL    HW3 2943   5.821   0.982   1.894  0.9809  2.5700 -0.8063
  794SOL    MW4 2944   5.898   0.951   1.919 -0.2411  0.4004  0.6549
  795SOL     OW 2945   5.622   1.325   6.368  0.7424 -0.3539  0.1667
  795SOL    HW2 2946   5.542   1.310   6.318  1.5216  0.1000 -1.2528
  795SOL    HW3 2947   5.678   1.376   6.310  1.6984  0.1649  1.4995
  795SOL    MW4 2948   5.619   1.330   6.354  0.9713 -0.2255  0.1553
  796SOL     OW 2949   6.009   1.583   6.139  0.4410 -0.1135  0.6606
  796SOL    HW2 2950   6.064   1.526   6.084  2.0470  2.3548 -0.4673
  796SOL    HW3 2951   6.068   1.614   6.207 -0.4580  0.0727  1.3670
  796SOL    MW4 2952   6.024   1.580   6.141  0.5343  0.2367  0.6050
  797SOL     OW 2953   5.256   3.269   3.274  0.1257 -0.6334  0.8770
  797SOL    HW2 2954   5.169   3.310   3.269  0.5187  0.1617  0.2580
  797SOL    HW3 2955   5.311   3.325   3.220  1.1323 -0.8605  1.6415
  797SOL    MW4 2956   5.252   3.282   3.266  0.3104 -0.5585  0.8962
  798SOL     OW 2957   6.038   4.181   0.705  0.4501  0.1498 -0.4234
  798SOL    HW2 2958   6.133   4.192   0.713  0.4070 -0.5449  1.7900
  798SOL    HW3 2959   6.004   4.270   0.700  1.2328  0.3955 -1.6215
  798SOL    MW4 2960   6.046   4.194   0.706  0.5477  0.0906 -0.2895
  799SOL     OW 2961   2.958   2.344   1.151  0.1628 -0.2231 -0.0278
  799SOL    HW2 2962   2.874   2.386   1.133 -0.1655 -0.3142  1.2345
  799SOL    HW3 2963   3.022   2.416   1.149 -0.0943  0.0088  0.0699
  799SOL    MW4 2964   2.955   2.359   1.148  0.0856 -0.2046  0.1516
  800SOL     OW 2965   2.599   2.155   1.963 -0.1222  0.2944 -0.7263
  800SOL    HW2 2966   2.681   2.188   1.929  0.7062 -0.5845  0.3354
  800SOL    HW3 2967   2.572   2.219   2.029 -0.4209  0.6949 -1.2280
  800SOL    MW4 2968   2.606   2.168   1.967 -0.0523  0.2313 -0.6525
  801SOL     OW 2969   0.675   4.773   1.820  0.0367  0.3978  0.2335
  801SOL    HW2 2970   0.757   4.735   1.851 -0.5711 -0.6785  0.5825
  801SOL    HW3 2971   0.637   4.814   1.898 -0.1650  0.1335  0.2754
  801SOL    MW4 2972   0.681   4.773   1.834 -0.0701  0.2209  0.2851
  802SOL     OW 2973   0.790   2.788   5.414  1.0487  0.1037 -0.1335
  802SOL    HW2 2974   0.830   2.705   5.444  3.5548  2.1321  2.8083
  802SOL    HW3 2975   0.703   2.788   5.454  0.7128 -1.3890 -0.7879
  802SOL    MW4 2976   0.784   2.777   5.424  1.3350  0.1744  0.1683
  803SOL     OW 2977   5.840   1.700   3.784 -0.9220  0.0587 -0.2180
  803SOL    HW2 2978   5.802   1.788   3.788 -0.0482  0.4022  1.6985
  803SOL    HW3 2979   5.927   1.712   3.747 -0.7206  0.0543  0.2409
  803SOL    MW4 2980   5.846   1.713   3.780 -0.7801  0.1034  0.0954
  804SOL     OW 2981   6.339   1.294   0.039  0.5683 -0.6894  0.0751
  804SOL    HW2 2982   6.244   1.303   0.034  0.7491  1.1975 -0.7601
  804SOL    HW3 2983   6.356   1.205   0.009 -0.8128 -0.4545 -1.5217
  804SOL    MW4 2984   6.329   1.283   0.035  0.4099 -0.4094 -0.2458
  805SOL     OW 2985   3.825   3.555   5.595 -0.3866 -0.3374  0.1770
  805SOL    HW2 2986   3.732   3.575   5.588  0.1464  2.1247 -0.8364
  805SOL    HW3 2987   3.864   3.592   5.515  1.8164  1.1811  1.8347
  805SOL    MW4 2988   3.818   3.562   5.583 -0.0257  0.1878  0.2620
  806SOL     OW 2989   4.121   3.701   4.986 -0.7295  0.1030 -0.3601
  806SOL    HW2 2990   4.133   3.705   4.891 -1.5737  0.5910 -0.4643
  806SOL    HW3 2991   4.210   3.701   5.022 -0.4035  0.6999 -1.1310
  806SOL    MW4 2992   4.134   3.702   4.978 -0.7979  0.2461 -0.4755
  807SOL     OW 2993   5.803   0.510   3.983  0.1780  0.2303  0.2530
  807SOL    HW2 2994   5.896   0.511   4.006  0.7843  1.3049 -2.0124
  807SOL    HW3 2995   5.790   0.426   3.939  0.0248  0.0239  0.6832
  807SOL    MW4 2996   5.814   0.499   3.980  0.2378  0.3448  0.0109
  808SOL     OW 2997   6.153   2.910   4.915  0.1963  0.1510 -0.9434
  808SOL    HW2 2998   6.106   2.958   4.847 -2.6966 -0.0324  0.7711
  808SOL    HW3 2999   6.185   2.979   4.974  0.6085  0.2038 -1.2287
  808SOL    MW4 3000   6.151   2.926   4.914 -0.1310  0.1337 -0.7548
  809SOL     OW 3001   6.418   2.797   3.826 -0.2894  0.0943  0.2599
  809SOL    HW2 3002   6.389   2.856   3.757 -0.4145  0.0027  0.2331
  809SOL    HW3 3003   6.382   2.834   3.907 -1.8609 -0.8779  0.0586
  809SOL    MW4 3004   6.410   2.809   3.828 -0.5132 -0.0461  0.2298
  810SOL     OW 3005   1.187   0.385   3.456  0.6059  0.0429 -0.4158
  810SOL    HW2 3006   1.114   0.424   3.504  1.4549  1.1782 -0.0067
  810SOL    HW3 3007   1.246   0.458   3.437  1.7937 -0.8779 -0.4577
  810SOL    MW4 3008   1.185   0.400   3.460  0.8746  0.0712 -0.3674
  811SOL     OW 3009   2.550   4.909   0.523 -0.3950  0.0063 -0.2757
  811SOL    HW2 3010   2.465   4.949   0.504 -1.7305 -1.2310  2.6091
  811SOL    HW3 3011   2.541   4.819   0.494  0.5771  0.2498 -1.4397
  811SOL    MW4 3012   2.538   4.903   0.516 -0.4430 -0.1249 -0.0487
  812SOL     OW 3013   3.429   1.576   4.445  0.1863  1.0118 -0.0279
  812SOL    HW2 3014   3.393   1.617   4.367 -2.7771 -0.4452  0.4123
  812SOL    HW3 3015   3.478   1.645   4.489  0.8041  2.2121 -2.4625
  812SOL    MW4 3016   3.430   1.590   4.441 -0.1232  0.9779 -0.2911
  813SOL     OW 3017   6.400   5.248   6.357 -0.0069 -0.1943  0.0839
  813SOL    HW2 3018   6.455   5.294   6.420 -0.6415  0.6452  0.0289
  813SOL    HW3 3019   6.455   5.177   6.325  0.0893 -1.1218  2.1431
  813SOL    MW4 3020   6.414   5.244   6.361 -0.0779 -0.2059  0.3483
  814SOL     OW 3021   5.141   5.523   2.668  0.0114  0.3763 -0.1247
  814SOL    HW2 3022   5.192   5.474   2.732 -2.0842 -0.8987  0.6729
  814SOL    HW3 3023   5.205   5.553   2.604  1.8194 -0.5545  1.1605
  814SOL    MW4 3024   5.156   5.520   2.668 -0.0266  0.0853  0.1501
  815SOL     OW 3025   0.861   2.333   1.961 -0.0190  0.5876 -0.3306
  815SOL    HW2 3026   0.859   2.356   2.054  0.0784  0.4690 -0.2988
  815SOL    HW3 3027   0.922   2.260   1.956  0.8824  1.3520 -0.6617
  815SOL    MW4 3028   0.868   2.326   1.973  0.1128  0.6728 -0.3701
  816SOL     OW 3029   2.593   1.842   0.897 -0.2641 -0.1190  0.1832
  816SOL    HW2 3030   2.511   1.831   0.847  0.1733 -0.9459 -0.3865
  816SOL    HW3 3031   2.590   1.932   0.929 -0.2076  0.7513 -2.0277
  816SOL    MW4 3032   2.582   1.852   0.894 -0.1990 -0.1133 -0.1836
  817SOL     OW 3033   4.178   4.063   1.351 -0.1189 -0.1510  0.0462
  817SOL    HW2 3034   4.223   4.103   1.277 -0.4085  1.1903  0.5524
  817SOL    HW3 3035   4.211   4.111   1.427 -1.4193 -0.0183  0.5544
  817SOL    MW4 3036   4.188   4.075   1.352 -0.3287  0.0435  0.1800
  818SOL     OW 3037   2.952   3.977   0.172  0.4163  0.3691 -0.1338
  818SOL    HW2 3038   3.041   3.966   0.138  0.2049  0.0110 -0.5826
  818SOL    HW3 3039   2.901   3.909   0.129 -0.1656  0.8335 -0.1920
  818SOL    MW4 3040   2.957   3.967   0.162  0.3116  0.3831 -0.2007
  819SOL     OW 3041   0.412   0.305   4.012  0.1932 -0.2294 -0.2172
  819SOL    HW2 3042   0.491   0.269   3.973 -0.0812 -1.3518  0.2173
  819SOL    HW3 3043   0.380   0.368   3.948 -0.0052 -1.6917 -1.6389
  819SOL    MW4 3044   0.418   0.308   3.998  0.1308 -0.5704 -0.3474
  820SOL     OW 3045   2.368   3.156   4.415  0.0398  0.1820 -0.1959
  820SOL    HW2 3046   2.420   3.236   4.416  2.4941 -1.3095 -0.2506
  820SOL    HW3 3047   2.343   3.144   4.323 -1.4962  1.4867 -0.0079
  820SOL    MW4 3048   2.371   3.165   4.403  0.1610  0.1573 -0.1783
  821SOL     OW 3049   3.850   0.587   2.577 -0.0829 -0.3523  0.0775
  821SOL    HW2 3050   3.910   0.514   2.566 -0.3313 -0.6306  0.5630
  821SOL    HW3 3051   3.836   0.620   2.488  0.4162 -0.5802 -0.0894
  821SOL    MW4 3052   3.856   0.582   2.563 -0.0498 -0.4191  0.1195
  822SOL     OW 3053   3.313   2.366   2.556 -0.6676  0.3483 -0.0902
  822SOL    HW2 3054   3.388   2.411   2.517 -0.1457  0.3552  0.8944
  822SOL    HW3 3055   3.279   2.427   2.621 -2.9325  1.2911 -1.9934
  822SOL    MW4 3056   3.319   2.380   2.559 -0.8975  0.4736 -0.2114
  823SOL     OW 3057   3.418   2.090   1.263 -0.1114 -0.4743  0.4340
  823SOL    HW2 3058   3.399   2.102   1.170  0.6366  0.0809  0.3459
  823SOL    HW3 3059   3.486   2.154   1.282 -1.2202  0.3859  1.6856
  823SOL    MW4 3060   3.425   2.100   1.253 -0.1590 -0.2876  0.5875
  824SOL     OW 3061   6.137   4.845   6.233 -0.2759 -0.6923 -0.0757
  824SOL    HW2 3062   6.154   4.938   6.216  0.3912 -0.4280  1.8670
  824SOL    HW3 3063   6.113   4.810   6.147 -0.2683  1.2032 -0.9119
  824SOL    MW4 3064   6.136   4.853   6.219 -0.1868 -0.4074  0.0703
  825SOL     OW 3065   5.115   4.798   3.189  0.1456  0.1962 -0.2438
  825SOL    HW2 3066   5.185   4.732   3.190 -0.2165 -0.1907 -0.0511
  825SOL    HW3 3067   5.113   4.830   3.099 -0.5334 -0.9989 -0.6727
  825SOL    MW4 3068   5.124   4.793   3.177  0.0082 -0.0125 -0.2750
  826SOL     OW 3069   2.178   2.311   5.505  0.1691  0.7508 -0.2851
  826SOL    HW2 3070   2.252   2.368   5.484  1.1194  0.6179  2.3369
  826SOL    HW3 3071   2.191   2.288   5.597 -0.5686 -3.0993 -0.9702
  826SOL    MW4 3072   2.189   2.316   5.514  0.1971  0.2253 -0.0295
  827SOL     OW 3073   2.135   5.116   2.096 -0.4978  0.4097 -0.5110
  827SOL    HW2 3074   2.208   5.096   2.155 -0.5344  3.4261  0.7327
  827SOL    HW3 3075   2.081   5.036   2.097  1.0776 -0.7151  1.1345
  827SOL    MW4 3076   2.137   5.103   2.104 -0.2948  0.6593 -0.1298
  828SOL     OW 3077   0.696   5.406   0.188  0.0346 -0.2416  0.1335
  828SOL    HW2 3078   0.617   5.352   0.184 -0.4706  0.4734  0.2523
  828SOL    HW3 3079   0.756   5.365   0.125 -1.0107  0.1103 -1.1455
  828SOL    MW4 3080   0.693   5.393   0.179 -0.1699 -0.1009 -0.0196
  829SOL     OW 3081   0.548   0.232   4.464  0.1993  0.6772 -0.5284
  829SOL    HW2 3082   0.471   0.177   4.454 -0.8073  1.7285  1.0261
  829SOL    HW3 3083   0.527   0.312   4.415  0.1337  1.1142  0.2043
  829SOL    MW4 3084   0.535   0.235   4.456  0.0578  0.8736 -0.2267
  830SOL     OW 3085   0.410   1.574   5.647  0.2805  0.5204 -0.0036
  830SOL    HW2 3086   0.444   1.654   5.606 -1.5477  0.7126 -1.3061
  830SOL    HW3 3087   0.398   1.513   5.574 -1.9635  0.4443  0.3414
  830SOL    MW4 3088   0.413   1.577   5.632 -0.2568  0.5357 -0.1299
  831SOL     OW 3089   2.093   1.522   1.125 -0.2076  0.4728  0.2563
  831SOL    HW2 3090   2.033   1.499   1.054  0.0437  1.5246 -0.3305
  831SOL    HW3 3091   2.043   1.506   1.205 -0.0243 -2.0657 -0.0644
  831SOL    MW4 3092   2.078   1.517   1.126 -0.1502  0.2766  0.1365
  832SOL     OW 3093   0.138   5.757   5.368  0.1855 -0.4864 -0.5752
  832SOL    HW2 3094   0.177   5.843   5.383 -0.8656 -0.3093  1.5954
  832SOL    HW3 3095   0.044   5.772   5.372 -0.0478 -1.5085 -1.7410
  832SOL    MW4 3096   0.131   5.770   5.371  0.0161 -0.5979 -0.4426
  833SOL     OW 3097   3.149   5.394   1.939  0.0604 -0.7450  0.7198
  833SOL    HW2 3098   3.163   5.487   1.955  1.1048 -0.6257 -0.7339
  833SOL    HW3 3099   3.060   5.390   1.903  0.2749 -0.2114  0.1064
  833SOL    MW4 3100   3.139   5.406   1.937  0.2265 -0.6588  0.4470
  834SOL     OW 3101   5.521   5.504   4.773 -0.3777 -0.1274 -0.0601
  834SOL    HW2 3102   5.436   5.547   4.787  0.3969  1.7454 -0.8057
  834SOL    HW3 3103   5.517   5.472   4.683  0.0401  0.8095 -0.4211
  834SOL    MW4 3104   5.509   5.506   4.763 -0.2204  0.2433 -0.2061
  835SOL     OW 3105   4.915   4.952   1.425  0.2048 -0.1852  0.7028
  835SOL    HW2 3106   4.847   4.953   1.357  0.3258 -0.6661  0.5695
  835SOL    HW3 3107   4.880   4.893   1.492  0.5287 -0.5115  0.5895
  835SOL    MW4 3108   4.901   4.944   1.425  0.2635 -0.2917  0.6702
  836SOL     OW 3109   5.887   3.959   3.830 -0.6981  0.1309 -0.0025
  836SOL    HW2 3110   5.835   4.039   3.825 -1.1345  0.0295  1.9753
  836SOL    HW3 3111   5.842   3.898   3.772 -1.2439  0.8463 -0.3573
  836SOL    MW4 3112   5.874   3.962   3.822 -0.8277  0.2119  0.2116
  837SOL     OW 3113   2.849   2.434   4.731  0.5896  0.0529  0.4965
  837SOL    HW2 3114   2.914   2.504   4.725  1.1525 -0.5252 -0.2668
  837SOL    HW3 3115   2.876   2.382   4.806  1.6619 -0.8165 -0.4635
  837SOL    MW4 3116   2.861   2.436   4.740  0.8053 -0.1381  0.2692
  838SOL     OW 3117   1.256   4.945   5.761 -0.1999 -0.4344 -0.2503
  838SOL    HW2 3118   1.234   5.007   5.691 -0.0810  1.5859  1.3868
  838SOL    HW3 3119   1.203   4.867   5.743 -0.0309 -0.0508 -2.6438
  838SOL    MW4 3120   1.246   4.943   5.750 -0.1620 -0.1173 -0.3501
  839SOL     OW 3121   6.357   5.100   0.396 -0.0538  0.4392  0.3527
  839SOL    HW2 3122   6.435   5.045   0.396  0.6587  1.4338  1.0036
  839SOL    HW3 3123   6.323   5.092   0.307 -0.5393 -1.8184  0.6688
  839SOL    MW4 3124   6.363   5.091   0.384 -0.0238  0.2725  0.4803
  840SOL     OW 3125   2.754   4.778   4.281 -0.2331  1.1371 -0.5859
  840SOL    HW2 3126   2.664   4.746   4.288  0.0888  0.2010 -0.5535
  840SOL    HW3 3127   2.806   4.712   4.327  0.8426 -0.0251 -3.2370
  840SOL    MW4 3128   2.749   4.765   4.288 -0.0487  0.8602 -0.9314
  841SOL     OW 3129   5.879   3.644   1.769 -0.1936 -0.0166 -0.2776
  841SOL    HW2 3130   5.810   3.710   1.774  0.4758  0.9196 -2.3024
  841SOL    HW3 3131   5.889   3.628   1.675  2.8369  0.4235 -0.1162
  841SOL    MW4 3132   5.871   3.650   1.757  0.2946  0.1650 -0.5235
  842SOL     OW 3133   1.515   1.733   1.543  0.2765  0.2645 -0.1079
  842SOL    HW2 3134   1.420   1.725   1.529  0.4435 -1.4379 -0.4567
  842SOL    HW3 3135   1.527   1.718   1.637  0.1985  0.6202 -0.0388
  842SOL    MW4 3136   1.504   1.730   1.553  0.2882  0.0869 -0.1448
  843SOL     OW 3137   0.665   5.324   2.679 -0.7598 -0.0929 -0.2683
  843SOL    HW2 3138   0.729   5.377   2.632 -0.1497 -2.0778 -1.7957
  843SOL    HW3 3139   0.703   5.237   2.683 -2.8940 -1.0988 -0.2723
  843SOL    MW4 3140   0.678   5.320   2.673 -0.9609 -0.4875 -0.4704
  844SOL     OW 3141   2.775   5.892   4.891  0.0690 -0.2227 -0.4754
  844SOL    HW2 3142   2.786   5.946   4.813  0.0290  0.6513  0.1050
  844SOL    HW3 3143   2.714   5.824   4.865 -0.8447  0.7294 -0.8869
  844SOL    MW4 3144   2.769   5.890   4.878 -0.0568  0.0182 -0.4531
  845SOL     OW 3145   0.109   2.661   3.460 -0.1791 -0.2953 -0.0456
  845SOL    HW2 3146   0.060   2.628   3.535 -0.1853  0.5672  0.3400
  845SOL    HW3 3147   0.197   2.625   3.471 -0.2106 -0.2662  0.3137
  845SOL    MW4 3148   0.114   2.651   3.471 -0.1841 -0.1777  0.0527
  846SOL     OW 3149   5.523   4.250   0.564 -0.0782  0.0180  0.2005
  846SOL    HW2 3150   5.529   4.266   0.470 -1.0777  1.1096  0.2978
  846SOL    HW3 3151   5.598   4.297   0.601  0.1588 -0.1852 -0.0201
  846SOL    MW4 3152   5.534   4.259   0.556 -0.1788  0.1352  0.1843
  847SOL     OW 3153   5.063   4.514   2.557 -0.2022  0.2956 -0.0526
  847SOL    HW2 3154   5.105   4.600   2.569 -0.0842  0.1433  0.6722
  847SOL    HW3 3155   5.122   4.467   2.498  0.8894 -0.0519  1.2573
  847SOL    MW4 3156   5.077   4.519   2.551 -0.0426  0.2297  0.2159
  848SOL     OW 3157   1.536   0.691   0.398  0.4041  0.1012  0.0124
  848SOL    HW2 3158   1.469   0.688   0.467  0.7355  1.1525  0.4000
  848SOL    HW3 3159   1.489   0.718   0.320 -0.4361 -3.3126 -0.8134
  848SOL    MW4 3160   1.521   0.694   0.397  0.3370 -0.2105 -0.0454
  849SOL     OW 3161   1.583   4.878   5.333  0.1956 -0.1065  0.4102
  849SOL    HW2 3162   1.523   4.804   5.344  0.0675 -0.4018 -1.9025
  849SOL    HW3 3163   1.526   4.955   5.329  0.1112 -0.1864  0.0597
  849SOL    MW4 3164   1.568   4.878   5.334  0.1675 -0.1560  0.0588
  850SOL     OW 3165   1.700   2.709   1.667 -0.2058  0.2842 -0.1622
  850SOL    HW2 3166   1.712   2.622   1.629 -0.1521  0.3808 -0.3738
  850SOL    HW3 3167   1.671   2.693   1.756 -0.2111  0.0493 -0.2047
  850SOL    MW4 3168   1.698   2.696   1.673 -0.1994  0.2660 -0.1957
  851SOL     OW 3169   1.655   2.902   2.410 -0.9671  0.1803 -0.1305
  851SOL    HW2 3170   1.579   2.844   2.406 -0.1085 -0.9442 -0.2544
  851SOL    HW3 3171   1.692   2.888   2.497 -1.2523  1.2083  0.1767
  851SOL    MW4 3172   1.650   2.893   2.421 -0.8915  0.1675 -0.1063
  852SOL     OW 3173   0.182   3.050   2.718  0.5602  0.0719  0.1074
  852SOL    HW2 3174   0.196   2.955   2.711 -1.2360 -0.4199  2.0731
  852SOL    HW3 3175   0.238   3.077   2.791  0.7048  0.4418 -0.1372
  852SOL    MW4 3176   0.191   3.041   2.726  0.3423  0.0558  0.3345
  853SOL     OW 3177   2.662   2.068   0.485 -0.2579  0.3550  0.3205
  853SOL    HW2 3178   2.738   2.082   0.541  0.5501 -1.8318 -0.1176
  853SOL    HW3 3179   2.592   2.044   0.545  0.5409 -1.7393  0.5075
  853SOL    MW4 3180   2.663   2.066   0.500 -0.0459 -0.2099  0.2873
  854SOL     OW 3181   3.357   4.644   2.550 -0.1570  0.0187 -0.1490
  854SOL    HW2 3182   3.338   4.683   2.635 -0.8275 -0.0924 -0.2418
  854SOL    HW3 3183   3.442   4.601   2.561  0.0607  0.5534  0.2719
  854SOL    MW4 3184   3.366   4.643   2.563 -0.2167  0.0746 -0.1057
  855SOL     OW 3185   3.728   5.093   1.003 -0.3277  0.1981  0.3706
  855SOL    HW2 3186   3.650   5.068   0.953 -1.1473  1.9014  0.7204
  855SOL    HW3 3187   3.761   5.011   1.039 -1.5897 -0.6414 -0.3157
  855SOL    MW4 3188   3.722   5.079   1.001 -0.6023  0.3121  0.3262
  856SOL     OW 3189   5.438   4.472   0.077  0.0315  0.4408 -0.2961
  856SOL    HW2 3190   5.366   4.535   0.076 -1.0148 -0.6926  0.7171
  856SOL    HW3 3191   5.410   4.404   0.138  1.6454 -0.4152 -0.4556
  856SOL    MW4 3192   5.425   4.471   0.085  0.1064  0.1783 -0.1835
  857SOL     OW 3193   3.965   2.992   5.866 -0.4198  0.3996 -0.5656
  857SOL    HW2 3194   3.877   2.988   5.902 -0.1023 -0.5035  0.1599
  857SOL    HW3 3195   3.963   3.066   5.806 -0.8134  2.4182  1.7448
  857SOL    MW4 3196   3.953   3.001   5.863 -0.4299  0.5468 -0.1650
  858SOL     OW 3197   2.744   4.042   4.110  0.0295 -0.0209 -0.5214
  858SOL    HW2 3198   2.775   4.026   4.021  0.0163 -0.0592 -0.5195
  858SOL    HW3 3199   2.688   4.119   4.103 -2.4532 -1.7454 -1.1318
  858SOL    MW4 3200   2.741   4.050   4.098 -0.2998 -0.2535 -0.6017
  859SOL     OW 3201   1.847   3.883   1.225 -0.2660  0.2171  0.5782
  859SOL    HW2 3202   1.921   3.943   1.217 -0.1425  0.0568  0.5403
  859SOL    HW3 3203   1.848   3.832   1.144  0.1256 -0.4150  0.9802
  859SOL    MW4 3204   1.857   3.884   1.213 -0.1981  0.1125  0.6262
  860SOL     OW 3205   3.576   3.768   1.550 -0.3460  0.3300 -0.0836
  860SOL    HW2 3206   3.648   3.763   1.487 -1.0745 -0.8852 -0.8687
  860SOL    HW3 3207   3.498   3.744   1.499 -0.8200 -1.7227  1.4643
  860SOL    MW4 3208   3.575   3.764   1.535 -0.5046 -0.1012  0.0171
  861SOL     OW 3209   2.933   0.738   1.643 -0.8541 -0.1879 -0.4533
  861SOL    HW2 3210   2.991   0.811   1.617  1.3437 -1.9515 -0.8150
  861SOL    HW3 3211   2.993   0.669   1.671 -2.8355 -2.0824 -0.6554
  861SOL    MW4 3212   2.949   0.739   1.643 -0.8255 -0.6705 -0.5277
  862SOL     OW 3213   1.523   1.077   4.705  0.0179 -0.3347 -0.1377
  862SOL    HW2 3214   1.470   1.086   4.626  0.5788 -0.8407 -0.5852
  862SOL    HW3 3215   1.487   1.141   4.766 -1.5841 -1.1569 -0.1576
  862SOL    MW4 3216   1.511   1.087   4.703 -0.1195 -0.5100 -0.1994
  863SOL     OW 3217   1.914   2.530   3.010 -0.2825 -0.5393  0.2022
  863SOL    HW2 3218   1.978   2.520   2.939 -0.7889 -0.7442 -0.2350
  863SOL    HW3 3219   1.956   2.489   3.086  1.9228  3.0105  1.1150
  863SOL    MW4 3220   1.928   2.523   3.011 -0.0584 -0.0980  0.2649
  864SOL     OW 3221   0.090   4.677   5.761  0.0349 -0.2926 -0.0192
  864SOL    HW2 3222   0.124   4.761   5.791 -1.4110  0.6964 -1.0397
  864SOL    HW3 3223  -0.004   4.691   5.751  0.1482 -1.0816 -3.1354
  864SOL    MW4 3224   0.082   4.690   5.764 -0.1409 -0.2662 -0.5650
  865SOL     OW 3225   0.423   3.336   2.270 -0.4459 -0.5924  0.3654
  865SOL    HW2 3226   0.404   3.311   2.360  0.8394 -0.4352  0.6905
  865SOL    HW3 3227   0.514   3.311   2.256  0.9113  3.4974  0.6342
  865SOL    MW4 3228   0.432   3.329   2.280 -0.0973 -0.0320  0.4438
  866SOL     OW 3229   3.519   3.470   6.017 -0.3734  0.1912  0.1050
  866SOL    HW2 3230   3.546   3.560   6.033  2.3596 -0.6877  0.9862
  866SOL    HW3 3231   3.481   3.441   6.100 -1.2872  0.5138 -0.1901
  866SOL    MW4 3232   3.518   3.478   6.030 -0.1334  0.1178  0.1823
  867SOL     OW 3233   3.360   5.852   0.938  0.1085  0.8357 -0.4911
  867SOL    HW2 3234   3.335   5.770   0.895  0.5796  0.2767  0.2698
  867SOL    HW3 3235   3.382   5.826   1.027 -1.5858  2.0628  0.3436
  867SOL    MW4 3236   3.360   5.838   0.944 -0.0529  0.9238 -0.2806
  868SOL     OW 3237   0.617   2.390   4.698 -0.0544  0.0742 -0.6929
  868SOL    HW2 3238   0.645   2.299   4.710  0.9454  0.4735  0.2073
  868SOL    HW3 3239   0.699   2.439   4.699 -0.6133  1.0207 -0.8893
  868SOL    MW4 3240   0.632   2.384   4.700  0.0038  0.2517 -0.6001
  869SOL     OW 3241   4.181   4.622   5.872 -0.5775 -0.4324  0.1280
  869SOL    HW2 3242   4.196   4.609   5.778  0.1029  1.8830 -0.1443
  869SOL    HW3 3243   4.269   4.623   5.909 -0.7805 -0.1156  0.6026
  869SOL    MW4 3244   4.195   4.620   5.864 -0.5145 -0.0851  0.1547
  870SOL     OW 3245   6.155   1.809   2.869 -0.4795 -0.3408 -0.4987
  870SOL    HW2 3246   6.090   1.741   2.881 -0.6112 -0.0621  0.4770
  870SOL    HW3 3247   6.121   1.862   2.797 -0.8962 -0.7072 -0.5764
  870SOL    MW4 3248   6.142   1.807   2.861 -0.5518 -0.3524 -0.3802
  871SOL     OW 3249   1.839   1.868   5.005  0.2882  0.5310  0.0258
  871SOL    HW2 3250   1.824   1.862   4.911  1.4523  0.5522 -0.1673
  871SOL    HW3 3251   1.909   1.932   5.015 -0.1485  0.8842  0.9423
  871SOL    MW4 3252   1.846   1.875   4.994  0.3842  0.5804  0.1213
  872SOL     OW 3253   5.224   4.191   5.778 -0.5458 -0.0671  0.3223
  872SOL    HW2 3254   5.255   4.240   5.854 -2.4232  1.0386  0.4527
  872SOL    HW3 3255   5.203   4.258   5.713 -0.6167 -0.8861 -0.5165
  872SOL    MW4 3256   5.225   4.206   5.780 -0.8028 -0.0293  0.2288
  873SOL     OW 3257   1.303   0.364   4.725  0.3407 -0.7675  0.5801
  873SOL    HW2 3258   1.382   0.339   4.773  1.1715  1.4179  0.4748
  873SOL    HW3 3259   1.308   0.460   4.719 -0.3272 -0.8102 -2.7658
  873SOL    MW4 3260   1.314   0.374   4.731  0.3622 -0.4848  0.1247
  874SOL     OW 3261   0.381   0.572   4.606  0.0798  0.2712  0.0141
  874SOL    HW2 3262   0.329   0.505   4.560 -0.5574  0.3286  0.6365
  874SOL    HW3 3263   0.431   0.615   4.536 -0.8958  0.3825 -0.6386
  874SOL    MW4 3264   0.380   0.569   4.590 -0.1330  0.2935  0.0101
  875SOL     OW 3265   4.828   1.061   5.130 -0.3589 -0.0007 -0.1326
  875SOL    HW2 3266   4.826   1.083   5.037  1.6376 -1.8385 -0.6752
  875SOL    HW3 3267   4.746   1.013   5.144 -1.0095  0.8805 -0.7183
  875SOL    MW4 3268   4.817   1.058   5.120 -0.1813 -0.1269 -0.2814
  876SOL     OW 3269   1.674   6.076   2.982 -0.3646  0.6697 -0.2921
  876SOL    HW2 3270   1.696   5.983   2.974  0.9960  1.0424 -1.1952
  876SOL    HW3 3271   1.589   6.077   3.025 -0.8224 -1.0312 -1.0865
  876SOL    MW4 3272   1.666   6.064   2.987 -0.2455  0.4945 -0.5161
  877SOL     OW 3273   2.167   3.325   6.265 -0.3656 -0.1620 -0.1267
  877SOL    HW2 3274   2.109   3.292   6.333 -1.9092  0.5856 -1.0341
  877SOL    HW3 3275   2.140   3.416   6.252  0.7492  0.0896 -0.8468
  877SOL    MW4 3276   2.156   3.333   6.272 -0.4222 -0.0302 -0.3414
  878SOL     OW 3277   5.367   3.624   4.519  0.1134 -0.0936  0.2777
  878SOL    HW2 3278   5.324   3.652   4.600  0.3171  2.1423 -0.3160
  878SOL    HW3 3279   5.428   3.695   4.498  0.6519 -0.9948 -1.4162
  878SOL    MW4 3280   5.369   3.637   4.526  0.2113  0.0825 -0.0241
  879SOL     OW 3281   2.672   2.265   1.476 -0.7586 -0.6912 -0.2286
  879SOL    HW2 3282   2.747   2.214   1.444  0.4464  0.6856  0.2783
  879SOL    HW3 3283   2.709   2.352   1.496 -2.7744  0.4926 -1.3276
  879SOL    MW4 3284   2.687   2.270   1.474 -0.8656 -0.3534 -0.3067
  880SOL     OW 3285   5.676   3.874   0.616  0.0324  0.3700  0.6177
  880SOL    HW2 3286   5.721   3.956   0.595  0.0248  0.9033  2.5046
  880SOL    HW3 3287   5.747   3.811   0.628  0.0544 -1.2029 -4.9478
  880SOL    MW4 3288   5.692   3.877   0.615  0.0343  0.2329  0.1324
  881SOL     OW 3289   4.758   6.286   3.212  0.1399 -0.5341 -0.1214
  881SOL    HW2 3290   4.716   6.280   3.126 -0.8442  0.7171  0.2381
  881SOL    HW3 3291   4.729   6.207   3.258 -2.8628  0.7803  0.5033
  881SOL    MW4 3292   4.749   6.275   3.207 -0.3861 -0.1956  0.0084
  882SOL     OW 3293   6.231   4.913   4.838 -0.3806  0.3733 -0.3430
  882SOL    HW2 3294   6.143   4.898   4.872 -0.3203  1.0315  0.1217
  882SOL    HW3 3295   6.268   4.982   4.894 -0.1948  1.3407 -1.5848
  882SOL    MW4 3296   6.225   4.920   4.850 -0.3481  0.5878 -0.4455
  883SOL     OW 3297   3.211   4.724   5.079  0.2617  0.2359  0.3712
  883SOL    HW2 3298   3.299   4.708   5.047  0.5104 -0.3637  1.3215
  883SOL    HW3 3299   3.186   4.643   5.124  0.3846  1.3997  2.7125
  883SOL    MW4 3300   3.219   4.711   5.081  0.3108  0.3103  0.8055
  884SOL     OW 3301   5.742   0.873   5.787 -0.0359 -0.0869 -0.0320
  884SOL    HW2 3302   5.715   0.871   5.879  0.9019 -0.8951  0.2405
  884SOL    HW3 3303   5.795   0.953   5.779 -0.9616  0.5311 -0.1322
  884SOL    MW4 3304   5.745   0.883   5.798 -0.0343 -0.1120 -0.0093
  885SOL     OW 3305   5.826   4.452   4.439 -0.0586  0.3784  0.9110
  885SOL    HW2 3306   5.798   4.408   4.358 -0.0273 -0.6666  1.4587
  885SOL    HW3 3307   5.915   4.421   4.454 -1.0827 -1.8757  2.9675
  885SOL    MW4 3308   5.834   4.442   4.430 -0.1895 -0.0569  1.2546
  886SOL     OW 3309   0.100   4.997   1.643 -0.0284  0.1308 -0.0658
  886SOL    HW2 3310   0.142   5.081   1.664 -1.6837  0.3847  2.7859
  886SOL    HW3 3311   0.010   5.007   1.676 -0.4680 -2.5308 -0.2417
  886SOL    MW4 3312   0.094   5.010   1.650 -0.3048 -0.1869  0.2872
  887SOL     OW 3313   3.014   1.142   0.541  0.2830 -0.4577 -0.5913
  887SOL    HW2 3314   2.950   1.071   0.544  0.6849 -0.8194  2.2969
  887SOL    HW3 3315   3.090   1.108   0.588  0.6107  1.7440  0.6034
  887SOL    MW4 3316   3.016   1.128   0.548  0.3792 -0.2150 -0.0526
  888SOL     OW 3317   5.458   3.535   4.837 -0.1344  0.1652  0.3932
  888SOL    HW2 3318   5.425   3.445   4.848 -1.4443  0.5226 -0.3199
  888SOL    HW3 3319   5.551   3.529   4.856  0.0356 -1.5827 -0.7228
  888SOL    MW4 3320   5.466   3.522   4.841 -0.2848 -0.0182  0.1519
  889SOL     OW 3321   1.863   2.624   1.320 -0.4187  0.5145  0.2502
  889SOL    HW2 3322   1.843   2.717   1.307 -0.9167  0.4920  0.8008
  889SOL    HW3 3323   1.868   2.588   1.231 -1.4249  0.8245  0.0543
  889SOL    MW4 3324   1.861   2.631   1.306 -0.6172  0.5524  0.2970
  890SOL     OW 3325   5.541   2.017   1.503  0.7345 -0.4936 -0.3312
  890SOL    HW2 3326   5.499   1.956   1.564 -1.2411  1.6843  0.6442
  890SOL    HW3 3327   5.588   2.079   1.559  1.5728 -0.2927 -1.2286
  890SOL    MW4 3328   5.542   2.017   1.519  0.5844 -0.1797 -0.3209
  891SOL     OW 3329   3.421   5.380   2.604 -0.3142  0.4587  0.4400
  891SOL    HW2 3330   3.515   5.367   2.613 -0.1174  1.5592  0.1676
  891SOL    HW3 3331   3.411   5.419   2.517 -1.1502 -0.7584 -0.0337
  891SOL    MW4 3332   3.432   5.383   2.593 -0.3985  0.4433  0.3415
  892SOL     OW 3333   3.938   4.812   3.579  0.2508  0.0068 -0.1017
  892SOL    HW2 3334   3.936   4.897   3.535  0.5086 -0.9086 -1.9646
  892SOL    HW3 3335   4.011   4.819   3.640 -1.4717  2.0807  1.9565
  892SOL    MW4 3336   3.947   4.824   3.581  0.0575  0.1597 -0.0760
  893SOL     OW 3337   1.883   3.847   5.380  0.1684  0.0459  0.2299
  893SOL    HW2 3338   1.851   3.805   5.460 -1.1748  0.3890 -0.0945
  893SOL    HW3 3339   1.903   3.937   5.405 -0.5916  0.2547  0.1286
  893SOL    MW4 3340   1.881   3.853   5.394 -0.1091  0.1187  0.1737
  894SOL     OW 3341   1.512   4.593   2.247 -0.0987 -0.4270 -0.7460
  894SOL    HW2 3342   1.445   4.562   2.307  0.2875 -0.8486 -0.5227
  894SOL    HW3 3343   1.572   4.645   2.301 -0.7546  0.7443 -1.1247
  894SOL    MW4 3344   1.511   4.596   2.262 -0.1343 -0.3281 -0.7665
  895SOL     OW 3345   6.195   0.493   5.960  0.3402  0.1939 -0.0345
  895SOL    HW2 3346   6.207   0.462   5.870  0.4936 -1.0345  0.4004
  895SOL    HW3 3347   6.115   0.545   5.956  0.0763 -0.2502 -0.7901
  895SOL    MW4 3348   6.186   0.496   5.947  0.3256 -0.0267 -0.0768
  896SOL     OW 3349   3.115   6.399   5.646  0.2488  1.0067 -0.4590
  896SOL    HW2 3350   3.067   6.351   5.714 -1.0077  0.6678 -1.5588
  896SOL    HW3 3351   3.103   6.347   5.567  2.2387  1.0567 -0.8430
  896SOL    MW4 3352   3.107   6.386   5.645  0.3455  0.9686 -0.6548
  897SOL     OW 3353   2.389   2.501   5.528  0.1004 -0.3180 -0.4150
  897SOL    HW2 3354   2.339   2.554   5.590  1.4035  0.3455  0.1092
  897SOL    HW3 3355   2.371   2.541   5.442  0.9144  0.8794 -0.0491
  897SOL    MW4 3356   2.380   2.514   5.525  0.3797 -0.0725 -0.2975
  898SOL     OW 3357   5.198   5.298   3.629 -0.9424 -0.4479 -0.2200
  898SOL    HW2 3358   5.192   5.209   3.664  0.2434 -0.7931 -0.8324
  898SOL    HW3 3359   5.117   5.310   3.580 -0.0499 -2.1953 -2.3013
  898SOL    MW4 3360   5.187   5.288   3.627 -0.6682 -0.7240 -0.5754
  899SOL     OW 3361   1.870   6.397   1.888 -0.1443 -0.2364  0.1287
  899SOL    HW2 3362   1.872   6.305   1.913 -1.5586 -0.2383  0.2823
  899SOL    HW3 3363   1.905   6.398   1.799 -0.8151 -1.0337 -0.1556
  899SOL    MW4 3364   1.875   6.385   1.879 -0.4194 -0.3418  0.1114
  900SOL     OW 3365   5.067   3.936   4.626 -0.1612  0.5901 -0.3481
  900SOL    HW2 3366   4.993   3.987   4.594 -0.2415  0.4501 -0.3848
  900SOL    HW3 3367   5.031   3.849   4.644 -0.2816  0.8557  0.8103
  900SOL    MW4 3368   5.053   3.931   4.624 -0.1877  0.6067 -0.2001
  901SOL     OW 3369   2.497   1.292   2.180 -0.4535  0.6735 -0.2588
  901SOL    HW2 3370   2.532   1.331   2.101 -1.0164 -0.0587 -0.8855
  901SOL    HW3 3371   2.438   1.359   2.216 -1.6861  0.3252 -1.5142
  901SOL    MW4 3372   2.494   1.306   2.175 -0.6904  0.5309 -0.5071
  902SOL     OW 3373   1.130   1.305   4.516  0.2522 -0.1559 -0.1770
  902SOL    HW2 3374   1.154   1.331   4.605  1.0907  0.7383 -0.6405
  902SOL    HW3 3375   1.212   1.277   4.476  0.3713  1.6891 -1.3753
  902SOL    MW4 3376   1.144   1.305   4.522  0.3786  0.2055 -0.3962
  903SOL     OW 3377   0.545   2.678   4.047  0.0386  0.3579 -0.3003
  903SOL    HW2 3378   0.467   2.725   4.018  0.0844  0.4739 -0.2360
  903SOL    HW3 3379   0.540   2.593   4.001  0.0827  0.5186 -0.6070
  903SOL    MW4 3380   0.534   2.673   4.037  0.0505  0.3944 -0.3323
  904SOL     OW 3381   2.250   5.729   0.539  0.3682  0.2629  0.2839
  904SOL    HW2 3382   2.336   5.693   0.519  0.5657  0.4427  0.7825
  904SOL    HW3 3383   2.266   5.822   0.557 -0.1414  0.6438 -1.0574
  904SOL    MW4 3384   2.263   5.737   0.539  0.3270  0.3369  0.1727
  905SOL     OW 3385   3.964   5.528   4.868  0.1434  0.1129  0.4337
  905SOL    HW2 3386   3.992   5.560   4.782 -1.3223  2.7449  0.8482
  905SOL    HW3 3387   3.933   5.440   4.852 -3.1332  1.5817 -2.4803
  905SOL    MW4 3388   3.964   5.521   4.855 -0.4823  0.6540  0.1039
  906SOL     OW 3389   5.543   0.218   5.217 -0.2851  0.3593  0.3121
  906SOL    HW2 3390   5.561   0.200   5.309  0.9145 -0.8128 -0.1172
  906SOL    HW3 3391   5.547   0.133   5.174  0.1808  0.9925 -0.9720
  906SOL    MW4 3392   5.546   0.205   5.223 -0.0654  0.2882  0.0860
  907SOL     OW 3393   6.206   5.045   4.050  1.0103 -0.6646  0.3454
  907SOL    HW2 3394   6.224   5.135   4.076 -1.1128  0.0685 -0.5153
  907SOL    HW3 3395   6.112   5.042   4.035  1.3006 -2.4942 -1.6908
  907SOL    MW4 3396   6.196   5.056   4.052  0.7685 -0.8093 -0.0368
  908SOL     OW 3397   4.632   3.740   4.656 -0.3833 -0.0477  0.0993
  908SOL    HW2 3398   4.611   3.687   4.580  0.0164 -0.8213  0.5197
  908SOL    HW3 3399   4.708   3.792   4.629  1.8316 -2.5992  0.9199
  908SOL    MW4 3400   4.639   3.740   4.643 -0.0383 -0.4864  0.2631
  909SOL     OW 3401   6.074   4.625   1.561 -0.0763 -0.2909 -0.1340
  909SOL    HW2 3402   5.981   4.603   1.566 -0.1429 -0.6699 -2.0706
  909SOL    HW3 3403   6.089   4.644   1.468  1.3372  1.8349  0.4435
  909SOL    MW4 3404   6.064   4.625   1.549  0.1014 -0.0605 -0.3133
  910SOL     OW 3405   1.486   4.288   4.793 -0.1209 -0.2913  0.0046
  910SOL    HW2 3406   1.469   4.238   4.873 -0.7355  3.1501  2.2493
  910SOL    HW3 3407   1.409   4.343   4.782  0.8469  0.8171 -1.7759
  910SOL    MW4 3408   1.474   4.288   4.802 -0.0743  0.3090  0.0659
  911SOL     OW 3409   1.993   1.127   4.509 -0.0832  1.0028 -0.1502
  911SOL    HW2 3410   1.912   1.096   4.549  0.9112  0.4050  1.4797
  911SOL    HW3 3411   2.056   1.056   4.522  0.1837  0.4685 -3.4150
  911SOL    MW4 3412   1.990   1.114   4.516  0.0832  0.8535 -0.3659
  912SOL     OW 3413   2.259   1.436   0.728 -0.0071 -0.5038  0.2461
  912SOL    HW2 3414   2.243   1.423   0.634 -0.5209  1.2773  0.0492
  912SOL    HW3 3415   2.200   1.508   0.752  1.2308  0.1004  1.5830
  912SOL    MW4 3416   2.249   1.444   0.718  0.0884 -0.1891  0.3965
  913SOL     OW 3417   3.065   3.311   0.420 -0.0155 -0.3158  0.6634
  913SOL    HW2 3418   3.049   3.235   0.364  0.2190  0.4317 -0.4422
  913SOL    HW3 3419   3.154   3.338   0.400 -1.0155  2.0214 -1.2208
  913SOL    MW4 3420   3.074   3.305   0.410 -0.1165  0.0912  0.2690
  914SOL     OW 3421   1.096   6.011   6.384  0.5591 -0.1859  0.1898
  914SOL    HW2 3422   1.148   6.091   6.373  0.3686  0.1222  1.3738
  914SOL    HW3 3423   1.012   6.042   6.418 -0.9502 -0.5450 -2.9091
  914SOL    MW4 3424   1.091   6.026   6.387  0.3348 -0.1926 -0.0628
  915SOL     OW 3425   1.621   2.106   6.149 -0.1797 -0.1042  0.4297
  915SOL    HW2 3426   1.553   2.172   6.158 -1.4793 -1.6364  2.8308
  915SOL    HW3 3427   1.576   2.030   6.113  1.2400  0.1197 -2.0569
  915SOL    MW4 3428   1.606   2.105   6.145 -0.1638 -0.2768  0.4184
  916SOL     OW 3429   1.471   3.755   4.534  0.0637 -0.0507 -0.4939
  916SOL    HW2 3430   1.501   3.826   4.478 -0.1948 -0.4189 -1.1023
  916SOL    HW3 3431   1.539   3.689   4.528  0.6197  0.4074  0.5869
  916SOL    MW4 3432   1.484   3.756   4.526  0.1030 -0.0388 -0.4315
  917SOL     OW 3433   5.360   2.043   1.072 -0.0084 -0.7130 -0.4311
  917SOL    HW2 3434   5.373   2.104   1.145  0.0590 -0.7912 -0.3778
  917SOL    HW3 3435   5.298   2.088   1.015 -0.4310 -0.8559 -0.0932
  917SOL    MW4 3436   5.354   2.057   1.074 -0.0553 -0.7422 -0.3795
  918SOL     OW 3437   2.616   0.762   0.747  0.3091 -0.4481 -0.1798
  918SOL    HW2 3438   2.523   0.742   0.734  0.6767 -3.0821  0.6610
  918SOL    HW3 3439   2.654   0.757   0.659 -0.3196  0.6037 -0.5218
  918SOL    MW4 3440   2.609   0.759   0.734  0.2746 -0.6568 -0.1140
  919SOL     OW 3441   3.312   5.522   2.345 -0.1687 -0.0490 -0.6175
  919SOL    HW2 3442   3.342   5.598   2.295  0.8516  1.7012  2.3678
  919SOL    HW3 3443   3.223   5.545   2.372 -0.0156 -0.0668 -0.0729
  919SOL    MW4 3444   3.304   5.535   2.342 -0.0139  0.1796 -0.1518
  920SOL     OW 3445   0.784   3.719   0.887 -0.4210  0.0677  0.1758
  920SOL    HW2 3446   0.840   3.724   0.965 -1.7896  0.0061  1.1909
  920SOL    HW3 3447   0.788   3.627   0.860 -2.8102 -0.8306  2.4254
  920SOL    MW4 3448   0.792   3.708   0.893 -0.9168 -0.0589  0.6065
  921SOL     OW 3449   2.189   1.238   1.968 -0.1904  0.4232  0.6913
  921SOL    HW2 3450   2.276   1.222   1.931  0.2816 -0.0999  1.9621
  921SOL    HW3 3451   2.191   1.330   1.996 -0.6491  0.9080 -0.7706
  921SOL    MW4 3452   2.201   1.248   1.967 -0.1886  0.4182  0.6661
  922SOL     OW 3453   3.538   1.442   3.583  0.4489 -0.3826  0.4438
  922SOL    HW2 3454   3.597   1.463   3.510 -1.2263  0.2554 -0.7935
  922SOL    HW3 3455   3.569   1.358   3.615  1.6965 -0.3203 -0.5337
  922SOL    MW4 3456   3.550   1.434   3.578  0.3925 -0.2902  0.1516
  923SOL     OW 3457   4.116   1.858   0.925  0.1918  0.0104 -0.4049
  923SOL    HW2 3458   4.198   1.886   0.884 -0.1578  0.2452 -0.9583
  923SOL    HW3 3459   4.132   1.864   1.019  1.3735 -1.5680 -0.4693
  923SOL    MW4 3460   4.129   1.863   0.932  0.3016 -0.1669 -0.4864
  924SOL     OW 3461   1.148   0.569   1.616 -0.4194 -0.1130  0.4366
  924SOL    HW2 3462   1.167   0.476   1.628 -0.0109 -0.0841  0.0457
  924SOL    HW3 3463   1.172   0.610   1.700 -0.1327 -0.2878  0.4387
  924SOL    MW4 3464   1.154   0.563   1.629 -0.3277 -0.1322  0.3853
  925SOL     OW 3465   5.035   6.327   1.375  0.0991  0.3528 -0.3068
  925SOL    HW2 3466   5.123   6.296   1.353  0.5453  1.4638 -0.1503
  925SOL    HW3 3467   4.979   6.287   1.309  0.5972 -0.9871  0.0453
  925SOL    MW4 3468   5.039   6.317   1.363  0.2237  0.3226 -0.2397
  926SOL     OW 3469   4.994   1.357   5.029  0.0108  0.0753 -0.4286
  926SOL    HW2 3470   5.006   1.304   4.951  1.5507 -0.0825 -0.1131
  926SOL    HW3 3471   4.984   1.447   4.996 -1.8227 -0.2638 -0.9112
  926SOL    MW4 3472   4.994   1.362   5.014 -0.0279  0.0098 -0.4507
  927SOL     OW 3473   3.258   4.041   1.085 -0.2748  0.3675  0.1293
  927SOL    HW2 3474   3.214   4.017   1.003 -0.5322  0.4965  0.2306
  927SOL    HW3 3475   3.195   4.019   1.154  0.3441 -0.7437  0.3730
  927SOL    MW4 3476   3.244   4.035   1.083 -0.2271  0.2379  0.1748
  928SOL     OW 3477   3.559   5.861   4.896 -0.2190 -0.7102 -0.3125
  928SOL    HW2 3478   3.600   5.807   4.828  0.1943 -1.2043  0.3086
  928SOL    HW3 3479   3.534   5.942   4.851  0.9862 -0.5983 -0.8236
  928SOL    MW4 3480   3.561   5.864   4.881 -0.0055 -0.7606 -0.2980
  929SOL     OW 3481   4.310   4.795   6.147  0.1785  0.4437 -0.0564
  929SOL    HW2 3482   4.224   4.787   6.106  0.5779 -0.1255 -0.8090
  929SOL    HW3 3483   4.307   4.879   6.191 -0.1446  1.2914 -1.5995
  929SOL    MW4 3484   4.298   4.805   6.147  0.1885  0.4804 -0.3593
  930SOL     OW 3485   0.884   5.257   3.952  0.7620  0.0860  0.0956
  930SOL    HW2 3486   0.899   5.213   3.869  1.2109  0.4960 -0.0444
  930SOL    HW3 3487   0.935   5.207   4.016  1.7719  0.7504 -0.1685
  930SOL    MW4 3488   0.892   5.245   3.950  0.9545  0.2278  0.0423
  931SOL     OW 3489   1.335   6.088   2.794  0.4350  0.2531 -0.1965
  931SOL    HW2 3490   1.260   6.103   2.736 -0.3624 -1.6789  0.2547
  931SOL    HW3 3491   1.403   6.052   2.737  0.3816  0.2925 -0.2850
  931SOL    MW4 3492   1.334   6.085   2.779  0.3227  0.0034 -0.1487
  932SOL     OW 3493   1.821   1.893   6.182  0.4844  0.2964 -0.5921
  932SOL    HW2 3494   1.889   1.900   6.115  0.1265  2.7869 -0.7963
  932SOL    HW3 3495   1.756   1.960   6.158 -1.6535 -1.3988  0.0679
  932SOL    MW4 3496   1.821   1.903   6.170  0.1551  0.4013 -0.5320
  933SOL     OW 3497   1.626   1.420   5.005 -0.2140 -0.2193 -0.0801
  933SOL    HW2 3498   1.697   1.437   4.942 -0.3861 -2.2594 -0.8893
  933SOL    HW3 3499   1.582   1.505   5.014  1.0608  0.6088 -1.1385
  933SOL    MW4 3500   1.630   1.434   4.998 -0.0685 -0.3792 -0.3265
  934SOL     OW 3501   1.000   4.663   0.440  0.1142  0.0392  0.4501
  934SOL    HW2 3502   1.038   4.633   0.357  2.1115  1.1879  0.8958
  934SOL    HW3 3503   1.073   4.668   0.500 -0.9638  1.1206  1.7438
  934SOL    MW4 3504   1.014   4.660   0.437  0.2355  0.3334  0.6796
  935SOL     OW 3505   3.757   6.305   6.408 -0.0755  0.4731 -0.2196
  935SOL    HW2 3506   3.712   6.232   6.365  0.5734 -0.8185  1.2100
  935SOL    HW3 3507   3.784   6.362   6.336 -0.2226 -0.9041 -1.4183
  935SOL    MW4 3508   3.754   6.303   6.393 -0.0093  0.1210 -0.1891
  936SOL     OW 3509   5.381   5.187   4.443  0.8288 -0.6860  0.0250
  936SOL    HW2 3510   5.359   5.151   4.529  0.9914 -1.2295 -0.1609
  936SOL    HW3 3511   5.443   5.258   4.463  0.9600 -0.8872  0.3497
  936SOL    MW4 3512   5.386   5.192   4.457  0.8675 -0.7842  0.0433
  937SOL     OW 3513   0.392   6.411   4.573  0.3979 -0.3971  0.4359
  937SOL    HW2 3514   0.385   6.317   4.559  0.3223 -0.1909 -1.1362
  937SOL    HW3 3515   0.394   6.422   4.668  0.2838 -1.9657  0.6366
  937SOL    MW4 3516   0.392   6.400   4.583  0.3729 -0.5769  0.2550
  938SOL     OW 3517   5.477   6.060   0.205  0.1936  0.1949 -0.3046
  938SOL    HW2 3518   5.433   6.062   0.289 -0.3024 -0.9388 -0.5151
  938SOL    HW3 3519   5.493   6.152   0.183 -1.6653  0.6257 -0.0112
  938SOL    MW4 3520   5.474   6.072   0.213 -0.1171  0.1022 -0.2937
  939SOL     OW 3521   1.681   2.334   0.020  0.4963  0.4934  0.2899
  939SOL    HW2 3522   1.632   2.352  -0.060  0.8686  1.1393  0.1952
  939SOL    HW3 3523   1.764   2.298  -0.010 -0.6975 -2.7278  0.5127
  939SOL    MW4 3524   1.686   2.332   0.005  0.3879  0.1536  0.3068
  940SOL     OW 3525   2.274   0.415   1.567 -0.4780 -0.0852 -0.2399
  940SOL    HW2 3526   2.312   0.328   1.551  1.0624  0.3176  0.9493
  940SOL    HW3 3527   2.282   0.461   1.483 -0.6878 -0.8572 -0.6922
  940SOL    MW4 3528   2.280   0.409   1.554 -0.3024 -0.1339 -0.1427
  941SOL     OW 3529   6.244   2.094   2.796  0.2183  0.6842  0.2944
  941SOL    HW2 3530   6.158   2.136   2.796  0.4899  1.2525 -0.4344
  941SOL    HW3 3531   6.247   2.045   2.714  0.3651  0.1823  0.5925
  941SOL    MW4 3532   6.233   2.093   2.785  0.2735  0.6930  0.2376
  942SOL     OW 3533   5.350   5.099   1.382  0.3993  0.1863 -0.3399
  942SOL    HW2 3534   5.287   5.031   1.358  1.2401 -0.2178 -1.5193
  942SOL    HW3 3535   5.407   5.107   1.305  1.1143  1.3112  0.2748
  942SOL    MW4 3536   5.350   5.091   1.369  0.6045  0.2814 -0.4144
  943SOL     OW 3537   2.658   0.632   2.428 -0.0366  0.2421  0.3647
  943SOL    HW2 3538   2.748   0.608   2.447 -0.4189 -2.3243 -0.5519
  943SOL    HW3 3539   2.663   0.713   2.378  1.7391  0.3021  0.6044
  943SOL    MW4 3540   2.670   0.639   2.424  0.1472 -0.0886  0.2754
  944SOL     OW 3541   4.919   6.249   3.649 -1.1066  0.4923  0.2746
  944SOL    HW2 3542   4.947   6.249   3.558 -0.3114  1.7652  0.4879
  944SOL    HW3 3543   4.850   6.184   3.653  1.7246 -2.8148 -0.3187
  944SOL    MW4 3544   4.913   6.241   3.638 -0.6281  0.2239  0.2245
  945SOL     OW 3545   0.876   1.619   1.825 -0.1284  0.0626 -0.1936
  945SOL    HW2 3546   0.799   1.601   1.771 -0.5170 -3.2579  1.2458
  945SOL    HW3 3547   0.840   1.635   1.912  0.7555  0.1068  0.1685
  945SOL    MW4 3548   0.861   1.619   1.829 -0.0630 -0.3696  0.0441
  946SOL     OW 3549   1.132   2.044   0.427 -0.1558  0.4214 -0.1058
  946SOL    HW2 3550   1.176   2.079   0.505 -0.0037 -0.4026  0.1911
  946SOL    HW3 3551   1.043   2.024   0.458 -0.1252  0.1863 -0.1723
  946SOL    MW4 3552   1.126   2.046   0.442 -0.1317  0.2816 -0.0754
  947SOL     OW 3553   4.522   2.027   3.307  0.6399  0.5589 -0.0413
  947SOL    HW2 3554   4.534   2.116   3.274  0.4928  0.7050  0.3002
  947SOL    HW3 3555   4.554   1.971   3.236 -0.1383  0.8579 -0.6489
  947SOL    MW4 3556   4.528   2.031   3.293  0.5178  0.6176 -0.0764
  948SOL     OW 3557   1.504   2.658   3.624 -0.2051  0.1319  0.1587
  948SOL    HW2 3558   1.412   2.681   3.622 -0.8424 -2.0838  0.6476
  948SOL    HW3 3559   1.530   2.667   3.716 -1.1368 -3.0661  0.8844
  948SOL    MW4 3560   1.495   2.662   3.636 -0.4121 -0.5824  0.3189
  949SOL     OW 3561   6.245   4.073   3.097  0.2143 -0.2503  0.1779
  949SOL    HW2 3562   6.329   4.116   3.083 -0.7318  1.2991 -1.1600
  949SOL    HW3 3563   6.223   4.092   3.189  0.6737  0.5429  0.1316
  949SOL    MW4 3564   6.253   4.081   3.108  0.1501  0.0588 -0.0047
  950SOL     OW 3565   2.036   2.442   2.215  0.2997  0.3528 -0.3179
  950SOL    HW2 3566   1.941   2.428   2.212  0.2809  0.5591 -0.7461
  950SOL    HW3 3567   2.072   2.356   2.235  0.0442  0.1896 -0.5489
  950SOL    MW4 3568   2.028   2.429   2.217  0.2635  0.3585 -0.4049
  951SOL     OW 3569   6.409   5.982   5.952 -0.2259 -0.2487  0.1217
  951SOL    HW2 3570   6.369   5.907   5.996 -0.1823 -0.5552 -0.3529
  951SOL    HW3 3571   6.474   5.944   5.893 -0.1226  0.1700 -0.0398
  951SOL    MW4 3572   6.412   5.967   5.950 -0.2065 -0.2339  0.0378
  952SOL     OW 3573   3.924   4.632   5.007  0.3347  0.7321  0.1498
  952SOL    HW2 3574   3.909   4.698   5.075 -0.1993  0.6525  0.1144
  952SOL    HW3 3575   3.903   4.677   4.925 -0.3540  0.4252  0.1517
  952SOL    MW4 3576   3.919   4.647   5.005  0.1734  0.6811  0.1454
  953SOL     OW 3577   4.905   0.768   5.368 -0.5169 -0.2645 -0.1628
  953SOL    HW2 3578   4.947   0.767   5.454 -0.3141  1.8314 -0.1994
  953SOL    HW3 3579   4.811   0.776   5.386 -0.5686 -0.8851 -0.1365
  953SOL    MW4 3580   4.898   0.769   5.381 -0.4970 -0.0699 -0.1642
  954SOL     OW 3581   2.233   2.334   5.170 -0.7445 -0.2256  0.3606
  954SOL    HW2 3582   2.237   2.411   5.227  3.4945  0.0760  0.0211
  954SOL    HW3 3583   2.265   2.262   5.224 -2.0279 -1.2098 -0.1269
  954SOL    MW4 3584   2.238   2.335   5.184 -0.3546 -0.3156  0.2515
  955SOL     OW 3585   3.550   6.300   5.409  0.5499 -0.3631 -0.1938
  955SOL    HW2 3586   3.611   6.330   5.477  0.5808  0.6779 -0.6735
  955SOL    HW3 3587   3.592   6.325   5.327  0.1784 -0.9935 -0.5825
  955SOL    MW4 3588   3.564   6.307   5.407  0.5049 -0.3089 -0.3084
  956SOL     OW 3589   2.666   1.430   3.295  0.3080 -0.5714  0.2798
  956SOL    HW2 3590   2.574   1.416   3.316  0.1691  1.4131  1.2343
  956SOL    HW3 3591   2.670   1.426   3.200 -0.9032 -0.0084  0.1897
  956SOL    MW4 3592   2.655   1.428   3.285  0.1298 -0.2353  0.3938
  957SOL     OW 3593   0.821   3.530   4.659  0.2013 -0.4023 -0.2746
  957SOL    HW2 3594   0.885   3.465   4.631  0.7624 -0.2854  0.6756
  957SOL    HW3 3595   0.846   3.610   4.614 -0.2094 -0.7224 -1.0852
  957SOL    MW4 3596   0.832   3.532   4.650  0.2211 -0.4291 -0.2562
  958SOL     OW 3597   6.149   6.384   2.058 -0.1499 -0.3906  0.0388
  958SOL    HW2 3598   6.231   6.375   2.107  0.1743  0.6038 -0.2982
  958SOL    HW3 3599   6.081   6.382   2.125  0.2730  0.6665  0.5211
  958SOL    MW4 3600   6.151   6.383   2.073 -0.0513 -0.1199  0.0580
  959SOL     OW 3601   1.774   0.973   2.106  0.2856  0.1602  0.1234
  959SOL    HW2 3602   1.705   0.979   2.172  0.6976 -0.3755  0.6102
  959SOL    HW3 3603   1.854   0.994   2.154  0.5735 -0.1431 -0.2225
  959SOL    MW4 3604   1.775   0.976   2.121  0.3779  0.0495  0.1420
  960SOL     OW 3605   4.226   4.397   2.927  0.1571  0.3550 -0.0732
  960SOL    HW2 3606   4.151   4.455   2.942 -0.5064 -0.7950  1.3683
  960SOL    HW3 3607   4.292   4.427   2.989  0.4144  0.5658 -0.4468
  960SOL    MW4 3608   4.225   4.408   2.937  0.1035  0.2311  0.0677
  961SOL     OW 3609   1.960   6.177   2.658  0.3353 -0.8014 -0.5737
  961SOL    HW2 3610   1.868   6.176   2.684  0.1607  3.7225 -0.1437
  961SOL    HW3 3611   2.004   6.120   2.721 -1.6577  0.5572  2.2726
  961SOL    MW4 3612   1.954   6.169   2.670  0.0493 -0.0253 -0.1414
  962SOL     OW 3613   1.781   5.749   0.727  0.2231 -0.0549 -0.2339
  962SOL    HW2 3614   1.816   5.744   0.817  1.5600 -0.1402 -0.7342
  962SOL    HW3 3615   1.686   5.740   0.738  0.4317 -0.9766  1.0956
  962SOL    MW4 3616   1.773   5.747   0.741  0.4270 -0.1878 -0.1245
  963SOL     OW 3617   0.900   2.901   5.884 -0.5538  0.2829 -0.0185
  963SOL    HW2 3618   0.809   2.921   5.860 -0.7304  0.2387  0.5872
  963SOL    HW3 3619   0.893   2.825   5.941 -0.2377  0.9130  0.8841
  963SOL    MW4 3620   0.887   2.894   5.889 -0.5354  0.3602  0.1805
  964SOL     OW 3621   1.567   2.683   6.244 -0.0474  0.2325 -0.1502
  964SOL    HW2 3622   1.474   2.703   6.256  0.4161  2.5579  0.0369
  964SOL    HW3 3623   1.607   2.707   6.328  0.7581 -0.5196 -0.3105
  964SOL    MW4 3624   1.560   2.689   6.257  0.1200  0.4401 -0.1466
  965SOL     OW 3625   1.526   0.764   0.845 -1.1285 -0.5484  0.0912
  965SOL    HW2 3626   1.477   0.746   0.764  1.0612 -1.3563 -1.1148
  965SOL    HW3 3627   1.501   0.854   0.867 -2.5128 -0.6345 -0.9180
  965SOL    MW4 3628   1.516   0.774   0.837 -1.0223 -0.6664 -0.2010
  966SOL     OW 3629   4.697   5.506   0.264 -0.0814 -0.3676  0.0593
  966SOL    HW2 3630   4.636   5.492   0.337 -0.4795  0.0933 -0.1826
  966SOL    HW3 3631   4.680   5.434   0.204 -0.5765 -0.0839 -0.1376
  966SOL    MW4 3632   4.687   5.494   0.266 -0.1992 -0.2694  0.0014
  967SOL     OW 3633   6.235   2.788   4.075  0.0343  0.0991  0.3123
  967SOL    HW2 3634   6.203   2.802   4.164  1.5104  2.3031  0.5757
  967SOL    HW3 3635   6.173   2.835   4.019  0.5288  0.9360  0.4490
  967SOL    MW4 3636   6.223   2.796   4.079  0.2943  0.5003  0.3651
  968SOL     OW 3637   5.614   2.990   5.916 -0.3116 -0.0293 -0.0373
  968SOL    HW2 3638   5.606   3.065   5.974 -0.9319 -0.9294  1.0941
  968SOL    HW3 3639   5.706   2.988   5.890 -0.6897  2.3592 -1.8650
  968SOL    MW4 3640   5.625   3.000   5.920 -0.4433  0.1671 -0.1292
  969SOL     OW 3641   2.686   4.044   1.513  0.3810  0.1242 -0.0769
  969SOL    HW2 3642   2.725   3.972   1.463 -0.2271 -0.6943  0.5923
  969SOL    HW3 3643   2.732   4.042   1.598  0.1822  0.3567  0.0369
  969SOL    MW4 3644   2.697   4.034   1.518  0.2746  0.0469  0.0264
  970SOL     OW 3645   2.689   5.114   1.448  0.0625  0.0357 -0.1328
  970SOL    HW2 3646   2.630   5.074   1.384 -1.3019 -0.0533  1.1154
  970SOL    HW3 3647   2.703   5.044   1.513 -1.0401  1.0249  1.2259
  970SOL    MW4 3648   2.683   5.099   1.448 -0.2630  0.1545  0.2111
  971SOL     OW 3649   3.399   2.740   5.096 -0.3786 -0.0621  0.2001
  971SOL    HW2 3650   3.360   2.656   5.118 -1.4168  0.1832 -0.5585
  971SOL    HW3 3651   3.326   2.802   5.102 -0.4881  0.2204 -2.4820
  971SOL    MW4 3652   3.384   2.737   5.099 -0.5300  0.0076 -0.2538
  972SOL     OW 3653   2.096   0.789   5.349 -0.0855 -0.5510 -0.0832
  972SOL    HW2 3654   2.099   0.831   5.263  2.7572  1.4605  0.8599
  972SOL    HW3 3655   2.138   0.703   5.335  0.3936 -0.2211 -0.7198
  972SOL    MW4 3656   2.102   0.783   5.336  0.3527 -0.2421 -0.0428
  973SOL     OW 3657   1.539   0.167   2.912 -0.0242 -0.2506 -0.0095
  973SOL    HW2 3658   1.615   0.125   2.871 -0.3313 -1.6462  0.7960
  973SOL    HW3 3659   1.463   0.131   2.866 -0.2811 -0.1670  0.3415
  973SOL    MW4 3660   1.539   0.157   2.900 -0.0986 -0.4237  0.1431
  974SOL     OW 3661   3.346   2.801   2.077 -0.2465  0.5663  0.4420
  974SOL    HW2 3662   3.381   2.779   2.163 -0.1243  0.4789  0.3701
  974SOL    HW3 3663   3.353   2.720   2.026  0.4230  0.8276  0.1050
  974SOL    MW4 3664   3.351   2.787   2.081 -0.1420  0.5893  0.3881
  975SOL     OW 3665   0.882   4.876   0.313 -0.4053 -0.4505  0.5609
  975SOL    HW2 3666   0.909   4.793   0.353  1.1193 -0.5957 -0.6831
  975SOL    HW3 3667   0.792   4.888   0.343 -0.6068 -2.4422  0.9348
  975SOL    MW4 3668   0.874   4.867   0.323 -0.2307 -0.7325  0.4461
  976SOL     OW 3669   6.072   4.677   3.390 -0.1956  0.7608  0.3574
  976SOL    HW2 3670   6.091   4.654   3.299  0.2460 -1.0139  0.8570
  976SOL    HW3 3671   6.004   4.615   3.416  0.4208  0.5537  1.5402
  976SOL    MW4 3672   6.065   4.666   3.381 -0.0560  0.4993  0.5793
  977SOL     OW 3673   0.259   4.052   0.245 -0.2235  0.3748 -0.1288
  977SOL    HW2 3674   0.244   4.145   0.263 -0.8011  0.7260 -2.1708
  977SOL    HW3 3675   0.354   4.045   0.235 -0.1371  0.6438  0.4342
  977SOL    MW4 3676   0.269   4.063   0.246 -0.2883  0.4566 -0.3240
  978SOL     OW 3677   5.550   4.797   5.387 -0.6058 -0.3959 -0.0508
  978SOL    HW2 3678   5.618   4.762   5.330  1.1189  1.5272  0.6630
  978SOL    HW3 3679   5.503   4.720   5.419  1.9776 -1.9504  0.2913
  978SOL    MW4 3680   5.553   4.782   5.384 -0.0374 -0.3473  0.0885
  979SOL     OW 3681   3.332   0.905   1.217  0.0193 -0.5551 -0.0741
  979SOL    HW2 3682   3.307   0.814   1.205 -0.4001 -0.7017  1.7155
  979SOL    HW3 3683   3.340   0.916   1.311  0.7408  1.0888 -0.2936
  979SOL    MW4 3684   3.330   0.895   1.228  0.0592 -0.3576  0.1331
  980SOL     OW 3685   4.771   3.215   3.126  0.2937  0.0759  0.1857
  980SOL    HW2 3686   4.719   3.146   3.167  0.4353  0.2497  0.6617
  980SOL    HW3 3687   4.716   3.293   3.131 -0.4035 -0.2525 -1.4920
  980SOL    MW4 3688   4.757   3.216   3.132  0.2204  0.0555  0.0272
  981SOL     OW 3689   0.128   1.426   3.937 -0.3095 -0.0231  0.4050
  981SOL    HW2 3690   0.096   1.476   3.862 -0.0617 -0.2873  0.1195
  981SOL    HW3 3691   0.189   1.363   3.899 -1.8252 -1.6489  0.5319
  981SOL    MW4 3692   0.132   1.425   3.922 -0.4768 -0.2725  0.3841
  982SOL     OW 3693   2.426   3.360   0.377  0.0250 -0.0424  0.0046
  982SOL    HW2 3694   2.354   3.362   0.440  0.6951 -1.6895  0.8625
  982SOL    HW3 3695   2.505   3.366   0.430  0.6009 -1.5387 -0.6389
  982SOL    MW4 3696   2.427   3.361   0.392  0.1894 -0.4572  0.0329
  983SOL     OW 3697   2.589   4.716   0.943 -0.4089  0.5867 -0.0423
  983SOL    HW2 3698   2.514   4.734   0.999  0.7567  1.2814  1.3537
  983SOL    HW3 3699   2.605   4.799   0.897 -0.1661  0.6093  0.0807
  983SOL    MW4 3700   2.581   4.729   0.944 -0.2231  0.6813  0.1581
  984SOL     OW 3701   6.170   5.123   6.170 -0.0313  1.0164 -0.4734
  984SOL    HW2 3702   6.164   5.166   6.085  2.4734  0.5918 -0.9186
  984SOL    HW3 3703   6.233   5.175   6.219  0.3576 -0.1247  0.2670
  984SOL    MW4 3704   6.177   5.136   6.165  0.3505  0.8098 -0.4345
  985SOL     OW 3705   4.495   6.065   6.281 -0.2963 -0.4218  0.0247
  985SOL    HW2 3706   4.512   6.071   6.375 -0.1315 -0.2101 -0.0184
  985SOL    HW3 3707   4.404   6.094   6.272 -0.2141 -0.1399  0.0829
  985SOL    MW4 3708   4.485   6.070   6.292 -0.2637 -0.3566  0.0267
  986SOL     OW 3709   2.210   0.273   4.996  0.1770 -0.5153 -0.0701
  986SOL    HW2 3710   2.194   0.358   4.955 -0.8409 -0.5569  0.2049
  986SOL    HW3 3711   2.260   0.224   4.930 -1.5352 -0.6260 -1.3803
  986SOL    MW4 3712   2.215   0.278   4.982 -0.1832 -0.5354 -0.2067
  987SOL     OW 3713   1.379   0.196   3.459  0.4168 -0.1709  0.1402
  987SOL    HW2 3714   1.306   0.258   3.454  0.5901  0.1100  0.9251
  987SOL    HW3 3715   1.360   0.131   3.392 -1.4385 -1.0138  1.3852
  987SOL    MW4 3716   1.367   0.196   3.450  0.1949 -0.2450  0.4080
  988SOL     OW 3717   0.367   1.301   3.840 -0.6845 -0.6521 -0.3966
  988SOL    HW2 3718   0.452   1.301   3.794 -1.1153 -0.2476 -1.2220
  988SOL    HW3 3719   0.308   1.257   3.780 -1.0058 -1.1999  0.3086
  988SOL    MW4 3720   0.371   1.295   3.826 -0.7837 -0.6710 -0.4124
  989SOL     OW 3721   6.390   3.787   6.292 -0.6020  0.3881  0.3721
  989SOL    HW2 3722   6.428   3.842   6.224 -0.2114  0.3317  0.5396
  989SOL    HW3 3723   6.388   3.699   6.253  2.1654 -0.2106  1.3407
  989SOL    MW4 3724   6.395   3.782   6.278 -0.1854  0.3017  0.5220
  990SOL     OW 3725   4.612   1.840   5.940  0.4410 -0.1428 -0.0133
  990SOL    HW2 3726   4.663   1.778   5.991 -0.5776 -0.2270  0.9630
  990SOL    HW3 3727   4.525   1.800   5.932 -0.4639  1.4182  1.2660
  990SOL    MW4 3728   4.607   1.827   5.946  0.1872  0.0520  0.2843
  991SOL     OW 3729   0.986   0.057   2.113 -0.2174 -0.0920  0.1768
  991SOL    HW2 3730   1.039  -0.020   2.132 -0.4788  0.0181  1.4577
  991SOL    HW3 3731   0.908   0.022   2.069 -0.2425 -0.5462  0.5742
  991SOL    MW4 3732   0.982   0.043   2.110 -0.2552 -0.1374  0.3982
  992SOL     OW 3733   3.808   2.706   1.116 -0.6907  0.1431  0.5134
  992SOL    HW2 3734   3.880   2.653   1.150 -0.0877  0.9880  0.5848
  992SOL    HW3 3735   3.736   2.644   1.104  0.1965 -0.8131 -0.0316
  992SOL    MW4 3736   3.808   2.691   1.119 -0.4941  0.1284  0.4509
  993SOL     OW 3737   4.969   1.971   5.533  0.2199 -0.7007  0.4142
  993SOL    HW2 3738   5.026   1.930   5.598 -0.9814 -0.9475  1.3700
  993SOL    HW3 3739   4.881   1.961   5.570 -0.3425  0.5621 -0.5112
  993SOL    MW4 3740   4.965   1.964   5.547 -0.0128 -0.5667  0.4182
  994SOL     OW 3741   4.652   5.932   3.821  0.0312 -0.7049  0.7408
  994SOL    HW2 3742   4.572   5.897   3.782  0.1299 -0.7251  0.5602
  994SOL    HW3 3743   4.702   5.854   3.847 -0.9905 -0.7375  2.8842
  994SOL    MW4 3744   4.648   5.917   3.820 -0.0906 -0.7119  0.9998
  995SOL     OW 3745   4.737   0.717   3.449  0.5147 -0.2527 -0.0161
  995SOL    HW2 3746   4.667   0.684   3.393  2.1021  0.1121 -2.3457
  995SOL    HW3 3747   4.750   0.648   3.514 -0.9847 -0.9724 -0.4402
  995SOL    MW4 3748   4.729   0.703   3.451  0.5263 -0.2995 -0.3794
  996SOL     OW 3749   2.081   4.581   2.732 -0.0107 -0.2737 -0.4432
  996SOL    HW2 3750   2.060   4.582   2.639 -1.1620  1.5368 -0.2201
  996SOL    HW3 3751   2.008   4.535   2.772  1.2153 -2.3992 -0.5284
  996SOL    MW4 3752   2.069   4.575   2.725 -0.0008 -0.3153 -0.4250
  997SOL     OW 3753   6.016   0.874   4.122  0.5028 -0.2862 -0.5747
  997SOL    HW2 3754   6.093   0.905   4.073  1.1191  1.9929  1.6187
  997SOL    HW3 3755   5.943   0.886   4.061  1.6536 -1.0649 -2.1828
  997SOL    MW4 3756   6.017   0.880   4.107  0.7359 -0.0883 -0.4975
  998SOL     OW 3757   0.109   5.694   1.947 -0.0091  0.6022  0.3105
  998SOL    HW2 3758   0.076   5.651   1.867  2.1693 -2.0566  0.7224
  998SOL    HW3 3759   0.155   5.772   1.915 -1.6848  1.2387 -0.7040
  998SOL    MW4 3760   0.111   5.699   1.932  0.0573  0.3354  0.2310
  999SOL     OW 3761   2.577   4.960   5.298  0.0163 -0.3561  0.1399
  999SOL    HW2 3762   2.540   4.935   5.383 -1.5853  0.3207 -0.3178
  999SOL    HW3 3763   2.669   4.977   5.317 -0.6798  1.7941  2.2536
  999SOL    MW4 3764   2.584   4.959   5.312 -0.2868  0.0169  0.3584
 1000SOL     OW 3765   2.654   0.775   5.646  0.4020 -0.6932 -0.1331
 1000SOL    HW2 3766   2.721   0.709   5.664 -0.5489 -1.7183 -0.2609
 1000SOL    HW3 3767   2.591   0.765   5.717 -0.4526 -0.8557 -0.9077
 1000SOL    MW4 3768   2.655   0.765   5.658  0.1638 -0.8499 -0.2522
 1001SOL     OW 3769   3.299   6.113   3.495 -0.1659 -0.3116 -0.1917
 1001SOL    HW2 3770   3.240   6.189   3.493 -2.0673 -1.6524  1.2136
 1001SOL    HW3 3771   3.264   6.053   3.430 -1.5099 -1.8591  1.8574
 1001SOL    MW4 3772   3.287   6.115   3.486 -0.5941 -0.6927  0.2640
 1002SOL     OW 3773   2.305   4.601   3.377  0.4401  0.4208  0.5700
 1002SOL    HW2 3774   2.256   4.677   3.346 -0.8689 -0.5758  0.1443
 1002SOL    HW3 3775   2.265   4.580   3.461 -0.4351 -0.8917 -0.1515
 1002SOL    MW4 3776   2.293   4.609   3.384  0.1520  0.1161  0.4186
 1003SOL     OW 3777   0.274   2.084   0.511  0.3890 -0.3011  0.2431
 1003SOL    HW2 3778   0.220   2.050   0.582 -0.1913 -0.9506 -0.4873
 1003SOL    HW3 3779   0.293   2.175   0.536 -2.1029  0.3781 -0.0598
 1003SOL    MW4 3780   0.269   2.092   0.523 -0.0163 -0.2972  0.1067
 1004SOL     OW 3781   3.675   3.527   1.961  0.0719 -0.3080 -0.1711
 1004SOL    HW2 3782   3.580   3.521   1.947  0.3732  0.2103 -3.0326
 1004SOL    HW3 3783   3.709   3.560   1.878  2.6747  0.5584  1.1395
 1004SOL    MW4 3784   3.667   3.531   1.949  0.4550 -0.1253 -0.3757
 1005SOL     OW 3785   4.630   4.693   2.438 -0.3447 -0.1313  0.3596
 1005SOL    HW2 3786   4.716   4.713   2.400 -0.6794 -0.8170 -0.8277
 1005SOL    HW3 3787   4.605   4.774   2.483  0.8664  0.1171  0.6298
 1005SOL    MW4 3788   4.638   4.706   2.439 -0.2290 -0.1890  0.2386
 1006SOL     OW 3789   4.425   6.071   4.594 -0.2480 -0.2535 -0.1785
 1006SOL    HW2 3790   4.339   6.091   4.556 -0.6740 -1.8755 -0.1389
 1006SOL    HW3 3791   4.430   6.128   4.671 -1.3927 -0.2791 -0.0603
 1006SOL    MW4 3792   4.414   6.081   4.599 -0.4552 -0.4709 -0.1577
 1007SOL     OW 3793   2.257   3.700   4.671 -0.7078  0.0018 -0.3696
 1007SOL    HW2 3794   2.263   3.608   4.644  0.5613 -0.2890  0.7923
 1007SOL    HW3 3795   2.168   3.726   4.647 -0.7030 -1.1520 -1.8184
 1007SOL    MW4 3796   2.246   3.691   4.664 -0.5397 -0.1888 -0.4074
 1008SOL     OW 3797   1.270   2.005   5.656  0.0242 -0.1500 -0.5436
 1008SOL    HW2 3798   1.311   1.992   5.570  1.0824 -0.8098  0.0354
 1008SOL    HW3 3799   1.342   2.029   5.714 -0.8889  1.6988 -0.1074
 1008SOL    MW4 3800   1.285   2.006   5.652  0.0434  0.0069 -0.4096
 1009SOL     OW 3801   5.762   2.596   0.368 -0.2418  0.1756 -0.0152
 1009SOL    HW2 3802   5.775   2.627   0.458 -1.3739  0.0328  0.2193
 1009SOL    HW3 3803   5.760   2.676   0.315  0.1457  0.2782  0.1240
 1009SOL    MW4 3804   5.763   2.611   0.373 -0.3400  0.1703  0.0341
 1010SOL     OW 3805   2.516   0.418   0.719 -0.3782  0.6781 -0.6289
 1010SOL    HW2 3806   2.548   0.448   0.633 -0.9064 -1.6740 -1.7336
 1010SOL    HW3 3807   2.524   0.494   0.775  0.8829  2.0553 -2.5343
 1010SOL    MW4 3808   2.522   0.432   0.715 -0.2815  0.5495 -1.0261
 1011SOL     OW 3809   3.547   3.276   5.180  0.0869 -0.9150  0.1434
 1011SOL    HW2 3810   3.641   3.257   5.177  0.0992 -0.7825 -1.2784
 1011SOL    HW3 3811   3.539   3.350   5.241  0.6585 -2.0994  1.7100
 1011SOL    MW4 3812   3.559   3.283   5.188  0.1640 -1.0538  0.1625
 1012SOL     OW 3813   6.123   4.629   1.287 -0.0945  0.0492  0.1948
 1012SOL    HW2 3814   6.185   4.615   1.216 -0.9378  0.0785 -0.5727
 1012SOL    HW3 3815   6.046   4.577   1.262 -0.4787  0.2166  0.9937
 1012SOL    MW4 3816   6.121   4.620   1.275 -0.2565  0.0752  0.1990
 1013SOL     OW 3817   5.027   0.359   2.388 -0.2780  0.1365 -0.1938
 1013SOL    HW2 3818   5.058   0.301   2.457  0.5987 -0.0927 -0.7550
 1013SOL    HW3 3819   5.057   0.318   2.307 -0.0460  1.1264 -0.6283
 1013SOL    MW4 3820   5.035   0.346   2.386 -0.1317  0.2369 -0.3252
 1014SOL     OW 3821   0.672   6.417   3.122  0.5727  0.1528 -0.0617
 1014SOL    HW2 3822   0.663   6.388   3.213  0.5479 -1.3420 -0.5143
 1014SOL    HW3 3823   0.744   6.481   3.124  0.2411  0.5095  1.0726
 1014SOL    MW4 3824   0.680   6.422   3.134  0.5256  0.0026  0.0282
 1015SOL     OW 3825   4.304   5.717   0.510 -0.1061  0.2509  0.5586
 1015SOL    HW2 3826   4.263   5.643   0.554 -0.6424 -0.1088 -0.5176
 1015SOL    HW3 3827   4.309   5.691   0.418  1.9983  0.5248  0.5304
 1015SOL    MW4 3828   4.300   5.704   0.503  0.1008  0.2396  0.4129
 1016SOL     OW 3829   4.109   4.058   5.585  0.2309  0.1799  0.5777
 1016SOL    HW2 3830   4.170   3.999   5.541 -0.4951 -0.9707  1.0761
 1016SOL    HW3 3831   4.023   4.021   5.568 -0.2888  1.4012  0.4569
 1016SOL    MW4 3832   4.106   4.046   5.577  0.0665  0.1893  0.6275
 1017SOL     OW 3833   0.459   6.019   0.709  0.4558  0.1508 -0.3038
 1017SOL    HW2 3834   0.535   5.982   0.665  0.1339 -0.1811 -0.5940
 1017SOL    HW3 3835   0.462   5.983   0.797 -0.8354 -2.0706 -1.0898
 1017SOL    MW4 3836   0.469   6.009   0.715  0.2429 -0.1861 -0.4458
 1018SOL     OW 3837   0.613   0.977   5.947 -0.2951 -0.3190  0.4358
 1018SOL    HW2 3838   0.685   0.977   5.883 -0.2219 -0.8882  0.5124
 1018SOL    HW3 3839   0.627   0.897   5.998 -1.3753 -0.8026  0.0008
 1018SOL    MW4 3840   0.625   0.967   5.945 -0.4280 -0.4579  0.3885
 1019SOL     OW 3841   4.808   6.352   5.713  0.1686 -0.5486 -0.0039
 1019SOL    HW2 3842   4.855   6.367   5.631  1.7907 -0.0741  0.9623
 1019SOL    HW3 3843   4.799   6.257   5.718 -1.0500 -0.5368 -1.2846
 1019SOL    MW4 3844   4.813   6.342   5.703  0.2218 -0.4844 -0.0454
 1020SOL     OW 3845   1.644   2.853   3.439  0.1058 -0.0157 -0.4305
 1020SOL    HW2 3846   1.585   2.797   3.489 -0.0999 -0.9116 -1.6339
 1020SOL    HW3 3847   1.683   2.912   3.504  1.1746 -2.2476  1.0704
 1020SOL    MW4 3848   1.641   2.854   3.454  0.2196 -0.4284 -0.3913
 1021SOL     OW 3849   5.120   2.259   4.801  0.7479 -0.2702 -0.1554
 1021SOL    HW2 3850   5.140   2.348   4.830  0.3006  0.0450 -0.7968
 1021SOL    HW3 3851   5.065   2.271   4.724  1.8755 -1.0776 -1.1257
 1021SOL    MW4 3852   5.116   2.272   4.794  0.8376 -0.3352 -0.3681
 1022SOL     OW 3853   5.719   2.990   2.521  0.2591 -0.1924 -0.1017
 1022SOL    HW2 3854   5.784   2.949   2.578  0.6209  1.0602  0.4009
 1022SOL    HW3 3855   5.767   3.057   2.473 -0.5121  0.2637 -0.2589
 1022SOL    MW4 3856   5.733   2.993   2.522  0.2051  0.0330 -0.0561
 1023SOL     OW 3857   4.212   3.226   2.431 -0.2530 -0.4589 -0.3385
 1023SOL    HW2 3858   4.165   3.290   2.484  0.5805  0.0169 -0.1634
 1023SOL    HW3 3859   4.143   3.177   2.386 -0.9454 -0.4369  0.6812
 1023SOL    MW4 3860   4.197   3.228   2.432 -0.2344 -0.3932 -0.1809
 1024SOL     OW 3861   1.331   3.400   3.758  0.4085  0.0050 -0.2718
 1024SOL    HW2 3862   1.422   3.431   3.760  0.3216  0.2785 -0.5871
 1024SOL    HW3 3863   1.331   3.331   3.692  0.0871  0.9657 -1.3074
 1024SOL    MW4 3864   1.343   3.395   3.750  0.3546  0.1678 -0.4500
 1025SOL     OW 3865   1.960   1.569   1.643  0.5109  0.0291 -0.1206
 1025SOL    HW2 3866   1.936   1.478   1.664  1.6311 -0.0222  1.1222
 1025SOL    HW3 3867   2.035   1.586   1.699  0.0016  1.9159  0.0250
 1025SOL    MW4 3868   1.967   1.559   1.653  0.5915  0.2713  0.0626
 1026SOL     OW 3869   4.056   1.650   0.165  0.3208 -0.3915  0.1186
 1026SOL    HW2 3870   4.096   1.729   0.131  0.1130 -0.5591 -0.5468
 1026SOL    HW3 3871   3.977   1.680   0.210 -0.4618 -0.2972 -1.2384
 1026SOL    MW4 3872   4.051   1.664   0.166  0.1901 -0.4012 -0.1483
 1027SOL     OW 3873   3.949   0.853   3.809 -0.5691 -0.1873 -0.2226
 1027SOL    HW2 3874   3.871   0.811   3.847 -1.1613 -0.7812 -1.9716
 1027SOL    HW3 3875   3.935   0.946   3.822 -0.9057 -0.3533  0.6909
 1027SOL    MW4 3876   3.937   0.859   3.816 -0.6917 -0.2876 -0.3328
 1028SOL     OW 3877   0.939   1.358   5.080 -0.4428  0.4809  0.1564
 1028SOL    HW2 3878   0.880   1.401   5.018 -1.9167 -0.9688  0.4981
 1028SOL    HW3 3879   0.920   1.265   5.071  1.5118 -0.0154  0.6002
 1028SOL    MW4 3880   0.929   1.352   5.070 -0.3794  0.2242  0.2601
 1029SOL     OW 3881   2.990   0.165   4.583  0.4527 -0.2767  0.1551
 1029SOL    HW2 3882   2.947   0.246   4.611 -0.8108 -1.3028  1.3114
 1029SOL    HW3 3883   3.084   0.185   4.590  0.1675  1.1159  0.3089
 1029SOL    MW4 3884   2.997   0.178   4.588  0.2484 -0.2284  0.3280
 1030SOL     OW 3885   1.524   0.922   2.714 -0.0074  0.0384  0.0300
 1030SOL    HW2 3886   1.612   0.892   2.735 -0.3410 -0.2018  1.1517
 1030SOL    HW3 3887   1.480   0.929   2.798 -1.4349 -0.9714 -0.5854
 1030SOL    MW4 3888   1.530   0.919   2.728 -0.2398 -0.1265  0.0968
 1031SOL     OW 3889   2.876   1.455   0.122 -0.2680  0.1381 -0.2363
 1031SOL    HW2 3890   2.878   1.491   0.211  1.0822  0.1825 -0.2565
 1031SOL    HW3 3891   2.870   1.532   0.066 -1.0633  0.1132 -0.1948
 1031SOL    MW4 3892   2.876   1.470   0.126 -0.1948  0.1407 -0.2335
 1032SOL     OW 3893   0.298   2.976   0.588  0.0841  0.8901 -0.5054
 1032SOL    HW2 3894   0.356   3.047   0.615  1.8143 -0.7607  0.4117
 1032SOL    HW3 3895   0.343   2.935   0.513 -1.3462  1.2816 -1.6323
 1032SOL    MW4 3896   0.312   2.980   0.581  0.1237  0.7240 -0.5331
 1033SOL     OW 3897   5.868   1.255   2.923 -0.0409  0.0451  0.0598
 1033SOL    HW2 3898   5.834   1.319   2.860 -1.1561 -0.4989  0.0891
 1033SOL    HW3 3899   5.791   1.212   2.958  0.7002 -3.0695 -1.7446
 1033SOL    MW4 3900   5.854   1.258   2.919 -0.0903 -0.4376 -0.1744
 1034SOL     OW 3901   3.831   1.388   2.926  0.2010  0.1548  0.1666
 1034SOL    HW2 3902   3.741   1.390   2.958  0.2790 -1.5815  0.6027
 1034SOL    HW3 3903   3.881   1.355   3.001  1.4573  2.3789  0.4090
 1034SOL    MW4 3904   3.826   1.384   2.940  0.3770  0.2191  0.2561
 1035SOL     OW 3905   0.301   1.746   1.918 -0.2268  0.0916 -0.4957
 1035SOL    HW2 3906   0.308   1.705   2.004  2.3460  0.8249 -0.2889
 1035SOL    HW3 3907   0.308   1.673   1.856 -1.9320 -0.4192 -0.1543
 1035SOL    MW4 3908   0.303   1.731   1.921 -0.1123  0.1210 -0.4234
 1036SOL     OW 3909   1.656   2.014   1.724 -0.1728  0.4726  0.2177
 1036SOL    HW2 3910   1.751   1.998   1.726 -0.3272 -0.4334  1.6302
 1036SOL    HW3 3911   1.648   2.108   1.738  0.4919  0.3029  1.9986
 1036SOL    MW4 3912   1.668   2.024   1.726 -0.1054  0.3307  0.6390
 1037SOL     OW 3913   5.116   0.545   5.517 -0.6779  0.1667 -0.1234
 1037SOL    HW2 3914   5.195   0.500   5.547 -0.7367 -1.3162 -1.9559
 1037SOL    HW3 3915   5.136   0.638   5.527  1.3188 -0.1638 -0.5415
 1037SOL    MW4 3916   5.129   0.551   5.522 -0.4222 -0.0726 -0.4203
 1038SOL     OW 3917   4.460   4.335   2.766 -0.6944 -0.4098 -0.1620
 1038SOL    HW2 3918   4.514   4.413   2.782 -1.3110 -0.2011  0.9941
 1038SOL    HW3 3919   4.373   4.359   2.798 -1.0851 -1.3011 -0.5331
 1038SOL    MW4 3920   4.456   4.349   2.772 -0.8273 -0.4999 -0.0584
 1039SOL     OW 3921   5.377   1.253   2.023  0.3998 -0.3373  0.0876
 1039SOL    HW2 3922   5.361   1.256   2.117  3.0906  0.2904  0.5986
 1039SOL    HW3 3923   5.346   1.338   1.991  0.5788 -0.0672  0.6149
 1039SOL    MW4 3924   5.371   1.264   2.031  0.7784 -0.2188  0.2246
 1040SOL     OW 3925   3.012   0.691   0.202  0.8214  0.2946  0.1542
 1040SOL    HW2 3926   3.039   0.659   0.116 -0.3893 -0.2479 -0.0456
 1040SOL    HW3 3927   2.935   0.746   0.183  0.6073  0.2522  0.8847
 1040SOL    MW4 3928   3.006   0.694   0.188  0.6334  0.2174  0.2242
 1041SOL     OW 3929   1.607   2.270   1.841  0.3308  0.3498 -0.4419
 1041SOL    HW2 3930   1.692   2.308   1.818 -0.2543  1.3103 -1.0834
 1041SOL    HW3 3931   1.543   2.329   1.801 -0.6319 -0.7383 -0.5403
 1041SOL    MW4 3932   1.610   2.283   1.833  0.1266  0.3330 -0.5395
 1042SOL     OW 3933   6.110   3.135   0.683 -0.1102  0.3795  0.3448
 1042SOL    HW2 3934   6.109   3.221   0.725  1.5507  0.6603 -0.1117
 1042SOL    HW3 3935   6.128   3.074   0.755  2.7653  0.8636  0.1778
 1042SOL    MW4 3936   6.112   3.138   0.698  0.4883  0.4804  0.2625
 1043SOL     OW 3937   5.412   1.220   3.938 -0.2167  0.0585  0.5295
 1043SOL    HW2 3938   5.456   1.140   3.966 -0.6000 -0.0850  0.7253
 1043SOL    HW3 3939   5.364   1.250   4.015 -0.0003  0.5305  0.4858
 1043SOL    MW4 3940   5.411   1.214   3.952 -0.2387  0.1019  0.5496
 1044SOL     OW 3941   4.947   2.995   5.642 -0.2208 -0.4916 -0.6823
 1044SOL    HW2 3942   4.895   2.940   5.700 -0.5382 -0.1226 -0.6114
 1044SOL    HW3 3943   5.022   3.022   5.696 -0.2409 -0.5753 -0.6117
 1044SOL    MW4 3944   4.950   2.991   5.657 -0.2653 -0.4540 -0.6636
 1045SOL     OW 3945   5.998   2.560   3.386 -0.4675  0.0418  0.5783
 1045SOL    HW2 3946   6.014   2.587   3.295 -1.9034  0.1923  0.3408
 1045SOL    HW3 3947   5.979   2.467   3.381 -1.7594  0.2887  0.5370
 1045SOL    MW4 3948   5.998   2.552   3.373 -0.8274  0.0942  0.5415
 1046SOL     OW 3949   0.048   2.359   0.416  0.6075 -0.2906 -0.0653
 1046SOL    HW2 3950  -0.036   2.383   0.377  1.2063  3.1187  0.4335
 1046SOL    HW3 3951   0.102   2.332   0.341 -0.4039 -0.9553 -0.5804
 1046SOL    MW4 3952   0.044   2.359   0.401  0.5531  0.0715 -0.0674
 1047SOL     OW 3953   3.286   3.797   1.895  0.0490  0.3795 -0.2952
 1047SOL    HW2 3954   3.313   3.706   1.885 -1.2909 -0.0602 -0.1148
 1047SOL    HW3 3955   3.348   3.833   1.959  0.4261 -0.4842 -0.1541
 1047SOL    MW4 3956   3.298   3.790   1.902 -0.0781  0.2075 -0.2528
 1048SOL     OW 3957   4.169   5.151   1.475 -0.0632  0.3194 -0.0287
 1048SOL    HW2 3958   4.102   5.144   1.408  0.6676  0.0707 -0.7471
 1048SOL    HW3 3959   4.163   5.241   1.507 -2.1443 -0.2779  1.4278
 1048SOL    MW4 3960   4.160   5.162   1.471 -0.2413  0.2078  0.0687
 1049SOL     OW 3961   0.999   6.135   3.136  0.0525 -0.1158 -0.6642
 1049SOL    HW2 3962   0.946   6.065   3.096 -0.2486  0.1084 -0.6647
 1049SOL    HW3 3963   1.088   6.119   3.106 -0.1782  0.0717 -1.4589
 1049SOL    MW4 3964   1.004   6.124   3.127 -0.0177 -0.0615 -0.7691
 1050SOL     OW 3965   3.077   5.403   5.980  0.3340  0.0950  0.0190
 1050SOL    HW2 3966   3.095   5.471   5.915 -0.6374  1.0898  0.7516
 1050SOL    HW3 3967   3.151   5.408   6.041  0.3574  0.3644 -0.0298
 1050SOL    MW4 3968   3.089   5.412   5.979  0.2089  0.2618  0.1092
 1051SOL     OW 3969   6.242   6.123   6.286  0.2067 -0.0968  0.1183
 1051SOL    HW2 3970   6.192   6.146   6.208 -2.0912 -0.6109  1.3199
 1051SOL    HW3 3971   6.178   6.129   6.358  2.1120 -0.0144  1.9137
 1051SOL    MW4 3972   6.227   6.127   6.285  0.1549 -0.1538  0.5137
 1052SOL     OW 3973   1.693   6.186   1.012 -0.1443 -0.2302  0.5542
 1052SOL    HW2 3974   1.668   6.278   1.025 -0.1860 -0.0171 -0.8285
 1052SOL    HW3 3975   1.688   6.174   0.917 -2.1292 -2.2570  0.8595
 1052SOL    MW4 3976   1.689   6.197   1.001 -0.4117 -0.4695  0.4121
 1053SOL     OW 3977   3.089   5.711   0.601  0.1463 -0.2456 -0.0470
 1053SOL    HW2 3978   3.041   5.736   0.679  0.8957  1.6340 -0.1180
 1053SOL    HW3 3979   3.095   5.792   0.550  3.4407 -0.2981  0.0266
 1053SOL    MW4 3980   3.084   5.725   0.604  0.6798 -0.0046 -0.0466
 1054SOL     OW 3981   5.488   1.027   0.330 -0.1778 -0.0740  0.0869
 1054SOL    HW2 3982   5.576   1.056   0.306 -0.0592 -0.3770  0.1504
 1054SOL    HW3 3983   5.503   0.959   0.396 -0.4994  0.9921  1.2926
 1054SOL    MW4 3984   5.502   1.022   0.336 -0.2046  0.0267  0.2543
 1055SOL     OW 3985   2.386   3.927   1.816 -0.1806  0.0902  0.2073
 1055SOL    HW2 3986   2.460   3.950   1.873  0.8285 -1.6068 -0.3139
 1055SOL    HW3 3987   2.318   3.898   1.876  0.0546  0.4232  0.6453
 1055SOL    MW4 3988   2.387   3.926   1.831 -0.0165 -0.0898  0.1963
 1056SOL     OW 3989   1.334   0.271   4.183  0.0295 -0.4771  0.2289
 1056SOL    HW2 3990   1.349   0.193   4.237 -0.6853 -0.2593  0.7664
 1056SOL    HW3 3991   1.276   0.240   4.113 -0.6700 -0.3347  0.7286
 1056SOL    MW4 3992   1.328   0.256   4.181 -0.1571 -0.4295  0.3658
 1057SOL     OW 3993   2.392   0.495   4.296 -0.2638  0.2391 -0.2618
 1057SOL    HW2 3994   2.466   0.437   4.312 -1.5042 -0.9965  1.3805
 1057SOL    HW3 3995   2.418   0.548   4.220  2.2542 -0.1418  0.2596
 1057SOL    MW4 3996   2.405   0.495   4.288 -0.0952  0.0259  0.0237
 1058SOL     OW 3997   3.619   3.804   0.836  0.5637  0.2672 -0.0419
 1058SOL    HW2 3998   3.567   3.724   0.826 -1.6840  1.6614 -0.1138
 1058SOL    HW3 3999   3.672   3.789   0.914  0.1120 -1.2465 -0.0027
 1058SOL    MW4 4000   3.619   3.791   0.845  0.2076  0.2514 -0.0462
 1059SOL     OW 4001   0.178   1.782   3.613 -0.4856  0.4139 -0.3161
 1059SOL    HW2 4002   0.243   1.810   3.677 -2.6460 -0.5744  2.5634
 1059SOL    HW3 4003   0.145   1.863   3.574  0.4161  1.1124  0.3537
 1059SOL    MW4 4004   0.182   1.796   3.617 -0.6517  0.3757  0.1522
 1060SOL     OW 4005   1.127   0.849   5.598  0.0435  0.6475 -0.0988
 1060SOL    HW2 4006   1.187   0.791   5.646 -2.7345 -2.5023 -0.0501
 1060SOL    HW3 4007   1.157   0.937   5.619  3.0874 -0.6763  1.8815
 1060SOL    MW4 4008   1.139   0.853   5.607  0.0786  0.0573  0.1689
 1061SOL     OW 4009   2.766   2.930   4.259  0.3649 -0.0190 -0.0201
 1061SOL    HW2 4010   2.760   2.920   4.354  1.3627 -0.4464  0.0103
 1061SOL    HW3 4011   2.785   3.022   4.245  1.9157 -0.2622  0.3040
 1061SOL    MW4 4012   2.767   2.941   4.270  0.7011 -0.1075  0.0266
 1062SOL     OW 4013   1.682   0.410   1.063 -0.3923 -0.4901 -0.6791
 1062SOL    HW2 4014   1.750   0.345   1.046 -0.3442 -0.5232 -0.3551
 1062SOL    HW3 4015   1.699   0.480   0.999 -0.5684 -0.8854 -1.1682
 1062SOL    MW4 4016   1.693   0.411   1.052 -0.4092 -0.5466 -0.7009
 1063SOL     OW 4017   4.960   3.653   3.606  0.2924 -0.2476  0.1671
 1063SOL    HW2 4018   5.031   3.589   3.610  0.7429  0.0152 -2.1808
 1063SOL    HW3 4019   4.886   3.610   3.650  1.3762 -1.2421  1.0575
 1063SOL    MW4 4020   4.959   3.639   3.612  0.4948 -0.3441 -0.0252
 1064SOL     OW 4021   4.643   0.489   0.957  0.2930 -0.2861  0.4635
 1064SOL    HW2 4022   4.654   0.584   0.947  0.3948 -0.2780  0.6402
 1064SOL    HW3 4023   4.549   0.476   0.966  0.2637 -0.2200  0.2565
 1064SOL    MW4 4024   4.632   0.500   0.957  0.3026 -0.2763  0.4595
 1065SOL     OW 4025   5.617   3.836   5.612 -0.0280 -0.4377 -0.2547
 1065SOL    HW2 4026   5.694   3.874   5.655 -0.6559 -1.0519  1.4723
 1065SOL    HW3 4027   5.554   3.908   5.609  0.4819 -0.0027 -1.4569
 1065SOL    MW4 4028   5.619   3.851   5.617 -0.0436 -0.4614 -0.1855
 1066SOL     OW 4029   2.054   4.803   0.448  0.4316  0.1584 -0.6203
 1066SOL    HW2 4030   2.057   4.741   0.375 -0.1448 -0.2130 -0.3316
 1066SOL    HW3 4031   2.144   4.803   0.483  0.0503 -1.9235  0.5309
 1066SOL    MW4 4032   2.067   4.795   0.443  0.3053 -0.1653 -0.4303
 1067SOL     OW 4033   1.605   1.138   3.603 -0.1968 -0.0693  0.4608
 1067SOL    HW2 4034   1.560   1.059   3.634 -0.5563  0.1484  0.5026
 1067SOL    HW3 4035   1.654   1.169   3.680 -1.5425  0.7921  1.0124
 1067SOL    MW4 4036   1.605   1.132   3.617 -0.4218  0.0731  0.5391
 1068SOL     OW 4037   3.317   4.412   3.677  0.8380  0.3327  0.2578
 1068SOL    HW2 4038   3.272   4.346   3.624 -1.3004  2.0518 -0.1756
 1068SOL    HW3 4039   3.375   4.456   3.615  2.5791 -1.3040  0.6309
 1068SOL    MW4 4040   3.319   4.409   3.662  0.7856  0.3436  0.2498
 1069SOL     OW 4041   4.783   2.717   3.763  0.3404 -0.4193 -0.4722
 1069SOL    HW2 4042   4.772   2.785   3.829  0.7875 -0.7340 -0.0665
 1069SOL    HW3 4043   4.735   2.642   3.798  1.6022 -0.9908  0.1115
 1069SOL    MW4 4044   4.775   2.716   3.776  0.5659 -0.5362 -0.3416
 1070SOL     OW 4045   0.507   1.019   0.650  0.0002 -0.4673 -0.1945
 1070SOL    HW2 4046   0.464   0.947   0.696 -1.7235  1.2413  0.9944
 1070SOL    HW3 4047   0.514   0.988   0.560  0.7603 -2.7238  0.5645
 1070SOL    MW4 4048   0.502   1.005   0.644 -0.1269 -0.5396  0.0625
 1071SOL     OW 4049   5.807   5.265   5.184 -0.0975  0.7108  0.4678
 1071SOL    HW2 4050   5.743   5.286   5.253 -0.0093 -0.7694  1.0318
 1071SOL    HW3 4051   5.892   5.275   5.227 -0.0230  0.3838  0.3981
 1071SOL    MW4 4052   5.810   5.269   5.199 -0.0760  0.4724  0.5330
 1072SOL     OW 4053   3.335   0.491   2.375  0.5033  0.0740  0.6219
 1072SOL    HW2 4054   3.359   0.479   2.467  1.2630 -0.9989  0.3010
 1072SOL    HW3 4055   3.419   0.491   2.329  0.0663 -0.4874 -0.1853
 1072SOL    MW4 4056   3.350   0.489   2.381  0.5459 -0.1416  0.4731
 1073SOL     OW 4057   0.283   2.728   1.797 -0.0230 -0.0122  0.4183
 1073SOL    HW2 4058   0.251   2.693   1.880 -1.1350  0.7457  0.3248
 1073SOL    HW3 4059   0.317   2.815   1.819 -0.0521  0.0696  0.1430
 1073SOL    MW4 4060   0.283   2.735   1.811 -0.1736  0.0986  0.3697
 1074SOL     OW 4061   4.102   2.732   4.094  0.1495 -0.1254  0.1329
 1074SOL    HW2 4062   4.108   2.765   4.005  0.4756  0.9134  0.5197
 1074SOL    HW3 4063   4.189   2.749   4.132  0.0716 -0.7094  0.5978
 1074SOL    MW4 4064   4.114   2.738   4.087  0.1822 -0.0654  0.2452
 1075SOL     OW 4065   4.225   1.370   1.212 -0.3065  0.3292  0.3094
 1075SOL    HW2 4066   4.259   1.415   1.135  1.5082 -0.6695  0.4576
 1075SOL    HW3 4067   4.261   1.419   1.286  0.3051 -0.3516  0.4752
 1075SOL    MW4 4068   4.234   1.382   1.212  0.0136  0.1076  0.3508
 1076SOL     OW 4069   0.948   1.277   3.573  0.3079 -0.5647 -0.0534
 1076SOL    HW2 4070   0.915   1.192   3.545  1.4537 -0.9162 -0.3987
 1076SOL    HW3 4071   0.997   1.259   3.653  0.3175 -0.1774  0.0308
 1076SOL    MW4 4072   0.950   1.264   3.580  0.4603 -0.5600 -0.0878
 1077SOL     OW 4073   6.098   5.741   6.219  0.4770 -0.3072  0.0400
 1077SOL    HW2 4074   6.104   5.655   6.261 -1.0058 -0.2000  0.5332
 1077SOL    HW3 4075   6.059   5.797   6.286  1.1229  0.6713 -0.3943
 1077SOL    MW4 4076   6.094   5.737   6.234  0.3666 -0.1639  0.0477
 1078SOL     OW 4077   3.311   5.693   1.722 -0.3246 -0.5374 -0.1007
 1078SOL    HW2 4078   3.280   5.732   1.640 -1.4470 -0.8046  0.1748
 1078SOL    HW3 4079   3.345   5.608   1.696  0.2961 -0.1987 -0.4267
 1078SOL    MW4 4080   3.311   5.687   1.708 -0.3908 -0.5280 -0.1074
 1079SOL     OW 4081   5.528   2.807   5.345 -0.0983 -0.8000 -0.4833
 1079SOL    HW2 4082   5.587   2.854   5.405 -0.6744 -1.4657  0.6353
 1079SOL    HW3 4083   5.583   2.787   5.269  0.3238  1.1368 -0.7480
 1079SOL    MW4 4084   5.543   2.811   5.343 -0.1186 -0.6323 -0.3706
 1080SOL     OW 4085   0.794   0.253   5.676 -0.1335  0.1245 -0.2472
 1080SOL    HW2 4086   0.860   0.210   5.730 -1.3333 -0.1926  1.0412
 1080SOL    HW3 4087   0.803   0.213   5.590  2.9434  1.7928 -0.8467
 1080SOL    MW4 4088   0.804   0.242   5.672  0.1142  0.3028 -0.1563
 1081SOL     OW 4089   2.495   2.253   5.958  0.0390 -0.6282 -0.0874
 1081SOL    HW2 4090   2.460   2.192   6.023 -0.9072 -0.5917 -0.5432
 1081SOL    HW3 4091   2.585   2.224   5.945 -0.3214 -1.8096 -0.1363
 1081SOL    MW4 4092   2.502   2.241   5.965 -0.1334 -0.7793 -0.1540
 1082SOL     OW 4093   3.837   1.779   4.300  0.1149  0.3038 -0.8990
 1082SOL    HW2 4094   3.760   1.805   4.248 -0.9231  1.6116  1.1223
 1082SOL    HW3 4095   3.821   1.818   4.386  1.5677 -2.0368  0.5353
 1082SOL    MW4 4096   3.824   1.788   4.304  0.1697  0.1675 -0.4430
 1083SOL     OW 4097   4.715   3.915   5.507  0.1393 -0.7780 -0.0484
 1083SOL    HW2 4098   4.642   3.938   5.565  1.0157 -0.3239  0.9039
 1083SOL    HW3 4099   4.749   3.833   5.542  1.0205 -0.2220  0.4478
 1083SOL    MW4 4100   4.710   3.908   5.519  0.3712 -0.6447  0.1427
 1084SOL     OW 4101   4.514   4.536   6.229 -0.0226  0.2575 -0.2052
 1084SOL    HW2 4102   4.463   4.458   6.252 -0.5122  0.3878 -0.8199
 1084SOL    HW3 4103   4.462   4.580   6.162  0.6374  0.6853 -0.4495
 1084SOL    MW4 4104   4.501   4.531   6.223 -0.0001  0.3312 -0.3185
 1085SOL     OW 4105   1.816   5.126   2.085  0.2891 -0.4554  0.2377
 1085SOL    HW2 4106   1.760   5.183   2.138 -0.4628 -0.3809 -0.6154
 1085SOL    HW3 4107   1.784   5.137   1.996  3.0418  1.2431 -0.6561
 1085SOL    MW4 4108   1.804   5.135   2.080  0.5531 -0.2214  0.0072
 1086SOL     OW 4109   0.556   5.195   5.270  0.0754  0.7447 -0.7378
 1086SOL    HW2 4110   0.562   5.260   5.340  0.1949  1.3357 -1.2892
 1086SOL    HW3 4111   0.466   5.163   5.275  0.5412 -0.5064  0.7993
 1086SOL    MW4 4112   0.545   5.199   5.280  0.1526  0.6576 -0.6077
 1087SOL     OW 4113   0.749   5.663   3.074 -0.4357  0.4197  0.1820
 1087SOL    HW2 4114   0.772   5.729   3.009 -1.5183  1.2284  0.5815
 1087SOL    HW3 4115   0.804   5.683   3.150  2.2405 -1.7005 -1.0649
 1087SOL    MW4 4116   0.759   5.675   3.076 -0.2255  0.2467  0.0702
 1088SOL     OW 4117   4.960   2.868   5.156 -0.8159  0.5555 -0.1905
 1088SOL    HW2 4118   4.994   2.821   5.233  1.6429 -0.4523 -1.7863
 1088SOL    HW3 4119   4.968   2.961   5.179 -0.9834  0.2743  1.0795
 1088SOL    MW4 4120   4.965   2.874   5.169 -0.5136  0.3854 -0.2335
 1089SOL     OW 4121   6.380   1.825   4.722  0.5336  0.3883  0.1477
 1089SOL    HW2 4122   6.347   1.765   4.655  0.5148  0.3349  0.2047
 1089SOL    HW3 4123   6.317   1.896   4.725 -0.2830 -0.3493  1.1729
 1089SOL    MW4 4124   6.368   1.826   4.714  0.4234  0.2840  0.2905
 1090SOL     OW 4125   5.675   5.953   0.850 -0.0083  0.8120  0.0786
 1090SOL    HW2 4126   5.731   6.030   0.859 -0.9444  1.2677  2.6383
 1090SOL    HW3 4127   5.601   5.984   0.797  0.9087  0.8714 -1.2228
 1090SOL    MW4 4128   5.673   5.967   0.844 -0.0108  0.8799  0.2446
 1091SOL     OW 4129   4.009   6.310   2.264  0.2338  0.3598 -0.1378
 1091SOL    HW2 4130   3.938   6.350   2.315  1.1697  1.8217  0.0834
 1091SOL    HW3 4131   4.085   6.366   2.282  1.4394 -1.1562 -0.3755
 1091SOL    MW4 4132   4.010   6.323   2.273  0.5163  0.3527 -0.1400
 1092SOL     OW 4133   3.928   2.923   0.269 -0.3813 -0.1311 -0.1497
 1092SOL    HW2 4134   3.898   2.859   0.334 -1.1268  0.3901  0.0363
 1092SOL    HW3 4135   3.853   2.933   0.210 -0.4200  0.8737  0.0608
 1092SOL    MW4 4136   3.914   2.916   0.269 -0.4847  0.0703 -0.0974
 1093SOL     OW 4137   3.861   4.551   0.980 -0.0469 -0.1569 -0.5005
 1093SOL    HW2 4138   3.768   4.526   0.986 -0.7094  2.1566 -0.0703
 1093SOL    HW3 4139   3.860   4.631   0.927  1.3950  1.3384  1.6135
 1093SOL    MW4 4140   3.848   4.558   0.974  0.0559  0.3456 -0.1649
 1094SOL     OW 4141   2.811   4.716   1.798 -0.0532 -0.3216  0.3330
 1094SOL    HW2 4142   2.889   4.661   1.795 -0.6731 -1.2071  0.2056
 1094SOL    HW3 4143   2.803   4.742   1.890  1.0858  0.8080  0.1341
 1094SOL    MW4 4144   2.820   4.712   1.810  0.0153 -0.2894  0.2899
 1095SOL     OW 4145   5.286   4.936   5.488 -0.9271 -0.0443  0.1830
 1095SOL    HW2 4146   5.337   4.867   5.445 -0.4690  0.3032  0.1689
 1095SOL    HW3 4147   5.239   4.979   5.417 -1.2272 -0.3442  0.1929
 1095SOL    MW4 4148   5.286   4.932   5.473 -0.9063 -0.0381  0.1824
 1096SOL     OW 4149   3.123   4.132   5.839 -0.2062 -0.2754  0.4055
 1096SOL    HW2 4150   3.189   4.187   5.797 -0.0207 -1.0682 -0.3792
 1096SOL    HW3 4151   3.042   4.181   5.831 -0.0543 -0.1347 -0.3523
 1096SOL    MW4 4152   3.121   4.145   5.832 -0.1617 -0.3614  0.2020
 1097SOL     OW 4153   0.357   2.035   1.138 -0.3675  0.0988  0.0354
 1097SOL    HW2 4154   0.277   2.084   1.156  0.9818  2.1490  0.7786
 1097SOL    HW3 4155   0.419   2.065   1.205  1.4260 -0.4346 -1.3078
 1097SOL    MW4 4156   0.355   2.045   1.149  0.0471  0.2990 -0.0438
 1098SOL     OW 4157   3.548   3.209   1.095  0.2383  0.4440  0.8684
 1098SOL    HW2 4158   3.460   3.188   1.128 -0.5371 -0.5962 -1.6149
 1098SOL    HW3 4159   3.600   3.132   1.116 -0.2203 -0.1631 -0.1443
 1098SOL    MW4 4160   3.543   3.196   1.102  0.0755  0.2267  0.4072
 1099SOL     OW 4161   6.220   4.963   4.556 -0.2221 -0.2253  0.3860
 1099SOL    HW2 4162   6.148   5.026   4.546 -2.0756 -1.7864  2.8570
 1099SOL    HW3 4163   6.241   4.965   4.649  1.7446 -1.1496  0.0206
 1099SOL    MW4 4164   6.213   4.972   4.567 -0.2072 -0.5532  0.6638
 1100SOL     OW 4165   2.655   0.931   3.733  0.1010 -0.8763  0.4626
 1100SOL    HW2 4166   2.583   0.909   3.792 -1.2198 -0.5936 -0.9617
 1100SOL    HW3 4167   2.632   0.888   3.651 -0.1802  1.8313 -1.0053
 1100SOL    MW4 4168   2.642   0.923   3.730 -0.1104 -0.4818  0.0810
 1101SOL     OW 4169   5.668   1.368   1.228  0.4082  0.0194  0.1511
 1101SOL    HW2 4170   5.645   1.459   1.245 -2.8403 -0.6929  0.3312
 1101SOL    HW3 4171   5.678   1.329   1.315 -2.6148 -0.6507  0.3062
 1101SOL    MW4 4172   5.666   1.375   1.242 -0.4193 -0.1630  0.1953
 1102SOL     OW 4173   5.389   3.412   0.872  0.5458 -0.2238 -0.5124
 1102SOL    HW2 4174   5.443   3.484   0.841 -0.0384 -0.3781 -1.9431
 1102SOL    HW3 4175   5.302   3.429   0.836  0.1271 -1.0529  0.0615
 1102SOL    MW4 4176   5.385   3.424   0.863  0.4135 -0.3535 -0.6255
 1103SOL     OW 4177   4.532   3.406   4.200 -0.5925  0.2509  0.7158
 1103SOL    HW2 4178   4.605   3.391   4.141 -0.5293  0.1158  0.8263
 1103SOL    HW3 4179   4.455   3.413   4.143 -0.6880 -0.8958  0.6719
 1103SOL    MW4 4180   4.531   3.405   4.185 -0.5967  0.0818  0.7245
 1104SOL     OW 4181   4.976   2.909   1.384  0.2615 -0.2927 -0.6327
 1104SOL    HW2 4182   4.903   2.967   1.405 -0.3293 -1.4676  0.7150
 1104SOL    HW3 4183   4.953   2.826   1.424  1.7784 -1.0447 -1.2437
 1104SOL    MW4 4184   4.964   2.906   1.392  0.3837 -0.5469 -0.5355
 1105SOL     OW 4185   5.937   0.452   3.100 -0.3963 -0.1136 -0.5922
 1105SOL    HW2 4186   5.875   0.380   3.111 -0.6744  0.0260 -1.2116
 1105SOL    HW3 4187   5.887   0.531   3.122 -0.4891  0.0134 -1.2381
 1105SOL    MW4 4188   5.922   0.453   3.104 -0.4452 -0.0784 -0.7592
 1106SOL     OW 4189   2.600   0.589   2.696 -0.0732  0.0520 -0.3262
 1106SOL    HW2 4190   2.630   0.593   2.606  1.4943 -1.3594  0.0976
 1106SOL    HW3 4191   2.668   0.634   2.746 -0.6430  0.3099  0.2348
 1106SOL    MW4 4192   2.613   0.596   2.691  0.0584 -0.1002 -0.1963
 1107SOL     OW 4193   4.903   4.567   1.500 -0.0666  0.4856  0.6459
 1107SOL    HW2 4194   4.906   4.471   1.501  0.1410  0.4654  2.6214
 1107SOL    HW3 4195   4.885   4.590   1.409 -0.9023 -1.4516  0.2744
 1107SOL    MW4 4196   4.901   4.557   1.488 -0.1495  0.2274  0.8575
 1108SOL     OW 4197   2.517   6.147   1.844  0.1514 -0.1475 -0.2523
 1108SOL    HW2 4198   2.561   6.173   1.925 -2.1048  0.7000  0.7796
 1108SOL    HW3 4199   2.485   6.059   1.861  0.2813 -0.2453 -0.5049
 1108SOL    MW4 4200   2.519   6.139   1.857 -0.1292 -0.0486 -0.1495
 1109SOL     OW 4201   3.068   5.377   3.926 -0.1773 -0.2431 -0.1603
 1109SOL    HW2 4202   3.133   5.307   3.933 -0.4267 -0.6757 -1.8678
 1109SOL    HW3 4203   3.066   5.416   4.014  0.9811 -1.4561  0.4431
 1109SOL    MW4 4204   3.077   5.373   3.939 -0.0574 -0.4602 -0.3060
 1110SOL     OW 4205   4.189   6.061   1.575  0.0593  0.5491  0.1197
 1110SOL    HW2 4206   4.138   6.026   1.649  0.9706 -1.4748 -0.1193
 1110SOL    HW3 4207   4.131   6.050   1.499  0.7324 -1.7032 -0.1456
 1110SOL    MW4 4208   4.175   6.055   1.575  0.2683 -0.0151  0.0531
 1111SOL     OW 4209   4.409   1.428   3.849  0.0586 -0.0179  0.5019
 1111SOL    HW2 4210   4.445   1.344   3.876  1.7256  0.7007  0.5859
 1111SOL    HW3 4211   4.464   1.494   3.891  0.5145  1.1355 -1.7413
 1111SOL    MW4 4212   4.421   1.426   3.858  0.3387  0.2291  0.2170
 1112SOL     OW 4213   0.900   4.674   5.520  0.3873  0.1273 -0.4864
 1112SOL    HW2 4214   0.813   4.701   5.489  0.6573  1.3947 -0.1869
 1112SOL    HW3 4215   0.901   4.579   5.508 -0.7989  0.1722 -1.1011
 1112SOL    MW4 4216   0.888   4.665   5.514  0.2665  0.3004 -0.5280
 1113SOL     OW 4217   0.660   0.365   2.911  0.0761  0.0935 -0.2411
 1113SOL    HW2 4218   0.704   0.313   2.978  0.1637  1.7644  1.0423
 1113SOL    HW3 4219   0.571   0.329   2.908  0.8380 -1.8658 -1.3177
 1113SOL    MW4 4220   0.654   0.353   2.919  0.1882  0.0554 -0.2138
 1114SOL     OW 4221   5.560   0.352   2.867  0.1207  0.0879  0.5468
 1114SOL    HW2 4222   5.530   0.409   2.796 -2.4212 -2.1086 -0.3163
 1114SOL    HW3 4223   5.516   0.386   2.945 -1.7924 -0.8417 -0.0501
 1114SOL    MW4 4224   5.550   0.364   2.868 -0.4671 -0.3246  0.3541
 1115SOL     OW 4225   2.554   4.450   3.110  0.1615  0.5872 -0.3171
 1115SOL    HW2 4226   2.592   4.363   3.103  0.0036  0.5380 -0.5700
 1115SOL    HW3 4227   2.622   4.503   3.152  0.6484  0.5844 -1.0828
 1115SOL    MW4 4228   2.568   4.446   3.114  0.2049  0.5803 -0.4515
 1116SOL     OW 4229   2.055   0.364   3.634 -0.1003  0.8029  0.3189
 1116SOL    HW2 4230   2.034   0.453   3.606  0.0517  0.3341 -1.3948
 1116SOL    HW3 4231   1.986   0.310   3.596  2.0593 -0.2959 -2.3615
 1116SOL    MW4 4232   2.043   0.369   3.625  0.2047  0.5961 -0.2608
 1117SOL     OW 4233   1.607   3.050   0.168 -0.5272  0.6483  0.4446
 1117SOL    HW2 4234   1.547   3.124   0.176  0.5755  1.6174  0.1719
 1117SOL    HW3 4235   1.624   3.024   0.259 -1.8417 -0.0695  0.5027
 1117SOL    MW4 4236   1.602   3.056   0.181 -0.5551  0.6814  0.4163
 1118SOL     OW 4237   2.677   6.200   1.622 -0.4234  0.4685  0.2185
 1118SOL    HW2 4238   2.660   6.125   1.565  0.0501  1.0384 -0.6873
 1118SOL    HW3 4239   2.628   6.181   1.702  0.4398 -1.2623  0.3823
 1118SOL    MW4 4240   2.668   6.187   1.625 -0.2471  0.3153  0.1206
 1119SOL     OW 4241   3.550   2.806   0.396  0.2926  0.0534 -0.6172
 1119SOL    HW2 4242   3.502   2.745   0.452  0.9519 -1.2527 -1.4059
 1119SOL    HW3 4243   3.642   2.790   0.417  0.4615  2.4078  0.7567
 1119SOL    MW4 4244   3.555   2.796   0.406  0.4019  0.1917 -0.5400
 1120SOL     OW 4245   0.423   5.879   0.941  0.0859 -0.5580  0.1101
 1120SOL    HW2 4246   0.436   5.784   0.947  0.7578 -0.4303  0.8985
 1120SOL    HW3 4247   0.336   5.894   0.978  0.7036 -0.6901  1.6481
 1120SOL    MW4 4248   0.413   5.868   0.946  0.2560 -0.5586  0.4171
 1121SOL     OW 4249   3.075   6.348   1.387 -0.2402  0.6679 -0.0068
 1121SOL    HW2 4250   3.146   6.357   1.323 -1.8847  1.4578 -1.8390
 1121SOL    HW3 4251   3.018   6.423   1.369 -1.1473  0.4982  1.9486
 1121SOL    MW4 4252   3.077   6.359   1.376 -0.5769  0.7498  0.0095
 1122SOL     OW 4253   5.334   2.032   5.254  0.4096 -0.2376 -0.5897
 1122SOL    HW2 4254   5.395   2.106   5.253  0.1206  0.2080  2.8049
 1122SOL    HW3 4255   5.253   2.068   5.290  0.1483 -2.0781  0.8059
 1122SOL    MW4 4256   5.331   2.046   5.258  0.3370 -0.4216  0.0423
 1123SOL     OW 4257   3.921   3.918   2.678  0.0784  0.7162 -0.1769
 1123SOL    HW2 4258   3.988   3.857   2.710 -1.1390  0.0402  1.1624
 1123SOL    HW3 4259   3.892   3.879   2.595  0.0864  0.0524  0.1258
 1123SOL    MW4 4260   3.926   3.905   2.671 -0.0812  0.5394  0.0398
 1124SOL     OW 4261   4.242   6.106   4.964  0.6819 -0.3883 -0.1253
 1124SOL    HW2 4262   4.190   6.081   5.040 -1.1457 -1.3326 -1.6029
 1124SOL    HW3 4263   4.238   6.030   4.907 -0.2135  1.2020 -2.3026
 1124SOL    MW4 4264   4.234   6.093   4.967  0.3227 -0.3031 -0.6075
 1125SOL     OW 4265   5.894   0.945   2.218 -0.2267 -0.0927 -0.3893
 1125SOL    HW2 4266   5.867   0.966   2.129 -1.0152 -0.2712 -0.1998
 1125SOL    HW3 4267   5.815   0.912   2.260 -0.1882  1.1747  0.7539
 1125SOL    MW4 4268   5.880   0.943   2.212 -0.3257  0.0510 -0.2135
 1126SOL     OW 4269   4.237   4.742   5.267 -0.1700  0.9048 -0.1334
 1126SOL    HW2 4270   4.276   4.743   5.180 -0.5812 -2.5953 -0.4892
 1126SOL    HW3 4271   4.312   4.739   5.327  0.1210  0.3495 -0.5184
 1126SOL    MW4 4272   4.252   4.742   5.264 -0.1858  0.3698 -0.2311
 1127SOL     OW 4273   0.418   1.023   2.210  0.4382  0.2586 -0.3753
 1127SOL    HW2 4274   0.435   0.934   2.179  0.6722 -0.2293  1.0722
 1127SOL    HW3 4275   0.482   1.036   2.280 -0.5481  1.0078  0.4170
 1127SOL    MW4 4276   0.429   1.013   2.215  0.3390  0.2931 -0.0798
 1128SOL     OW 4277   2.852   2.595   5.338 -0.9725  0.0955  0.5591
 1128SOL    HW2 4278   2.862   2.544   5.418 -1.1417 -2.5754 -0.9970
 1128SOL    HW3 4279   2.764   2.574   5.306 -1.0280  1.3480 -0.2083
 1128SOL    MW4 4280   2.842   2.586   5.344 -1.0022 -0.0916  0.2526
 1129SOL     OW 4281   5.566   3.392   0.138  0.2990 -0.0714 -0.1002
 1129SOL    HW2 4282   5.661   3.403   0.136  0.2198  0.5539 -1.1342
 1129SOL    HW3 4283   5.542   3.411   0.229  1.2524 -1.2336  0.4238
 1129SOL    MW4 4284   5.575   3.396   0.150  0.4143 -0.1422 -0.1675
 1130SOL     OW 4285   3.560   0.521   0.439  0.0521  0.4136  0.6280
 1130SOL    HW2 4286   3.562   0.616   0.454 -0.2132  0.6327 -0.5970
 1130SOL    HW3 4287   3.472   0.495   0.465  0.7506  0.1247  2.8985
 1130SOL    MW4 4288   3.549   0.530   0.444  0.1093  0.4044  0.7660
 1131SOL     OW 4289   2.869   4.229   5.822  0.6147 -0.0240 -0.1843
 1131SOL    HW2 4290   2.839   4.220   5.913 -1.4243 -0.4582 -0.8480
 1131SOL    HW3 4291   2.824   4.158   5.775  1.8260  0.0457 -1.5004
 1131SOL    MW4 4292   2.859   4.218   5.828  0.5055 -0.0721 -0.4455
 1132SOL     OW 4293   1.448   4.006   1.412  0.2986 -0.2450  0.2555
 1132SOL    HW2 4294   1.502   3.998   1.333 -0.2832  1.2468 -0.3286
 1132SOL    HW3 4295   1.503   4.053   1.474 -0.5471  2.0303 -0.6293
 1132SOL    MW4 4296   1.463   4.011   1.410  0.1103  0.2520  0.0617
 1133SOL     OW 4297   1.950   2.999   0.133 -0.7751  0.6353  0.0349
 1133SOL    HW2 4298   1.894   2.958   0.067 -2.8360  0.7614  1.6009
 1133SOL    HW3 4299   2.035   2.956   0.122 -0.9150  0.8848 -2.8598
 1133SOL    MW4 4300   1.954   2.988   0.123 -1.0655  0.6849 -0.1404
 1134SOL     OW 4301   0.993   2.431   4.161 -0.0760  0.2640  0.2175
 1134SOL    HW2 4302   1.003   2.426   4.066  1.2931 -0.7044  0.3726
 1134SOL    HW3 4303   1.044   2.508   4.187  1.4116 -0.7347  0.3519
 1134SOL    MW4 4304   1.001   2.441   4.152  0.3009  0.0045  0.2557
 1135SOL     OW 4305   6.139   4.611   6.399 -0.3288 -0.8658 -0.3196
 1135SOL    HW2 4306   6.143   4.699   6.361  0.9239 -0.0654  1.5281
 1135SOL    HW3 4307   6.224   4.572   6.379 -0.3538 -1.1197  0.0525
 1135SOL    MW4 4308   6.151   4.618   6.392 -0.1669 -0.7937 -0.0268
 1136SOL     OW 4309   2.429   0.260   2.169  0.7840  0.0432 -0.1995
 1136SOL    HW2 4310   2.392   0.175   2.193  1.0642  0.5298  2.1730
 1136SOL    HW3 4311   2.359   0.323   2.188  1.6660  0.6397  1.1886
 1136SOL    MW4 4312   2.415   0.257   2.174  0.9373  0.1861  0.2967
 1137SOL     OW 4313   0.262   3.571   4.222  0.0925 -0.1821 -0.0481
 1137SOL    HW2 4314   0.320   3.545   4.150  0.7100  2.6352 -0.6972
 1137SOL    HW3 4315   0.295   3.657   4.249 -0.3948 -0.9082  3.3562
 1137SOL    MW4 4316   0.274   3.579   4.216  0.1097  0.0938  0.3154
 1138SOL     OW 4317   3.054   1.251   1.399 -0.0115  0.3960 -0.1434
 1138SOL    HW2 4318   3.047   1.169   1.447  1.9123 -0.8652 -1.8261
 1138SOL    HW3 4319   2.983   1.249   1.336  1.1712 -1.0045 -1.5049
 1138SOL    MW4 4320   3.044   1.240   1.397  0.3983  0.0448 -0.5451
 1139SOL     OW 4321   3.868   6.200   0.218 -0.2127 -0.6966 -0.1770
 1139SOL    HW2 4322   3.947   6.254   0.225 -1.2469  0.9810 -0.9985
 1139SOL    HW3 4323   3.822   6.234   0.141 -1.9373 -1.3572  0.5153
 1139SOL    MW4 4324   3.873   6.212   0.209 -0.5767 -0.5624 -0.1940
 1140SOL     OW 4325   4.058   5.037   2.452 -0.6101 -0.1666 -0.6172
 1140SOL    HW2 4326   4.000   4.988   2.510 -1.3237 -0.3624 -1.4659
 1140SOL    HW3 4327   4.025   5.018   2.364  0.1630  0.4805 -1.0603
 1140SOL    MW4 4328   4.046   5.028   2.448 -0.6022 -0.1070 -0.7876
 1141SOL     OW 4329   2.533   0.791   3.516 -0.2265 -0.4457 -0.5636
 1141SOL    HW2 4330   2.494   0.868   3.475 -1.0847  2.2901  4.6360
 1141SOL    HW3 4331   2.459   0.733   3.534 -0.1757 -0.6111 -0.8825
 1141SOL    MW4 4332   2.518   0.793   3.513 -0.3330 -0.1066  0.0803
 1142SOL     OW 4333   5.975   6.091   3.603 -0.1194 -0.1342 -0.1751
 1142SOL    HW2 4334   6.035   6.160   3.634  0.1230 -0.3002 -0.2715
 1142SOL    HW3 4335   6.017   6.009   3.628 -0.8339 -0.2419  0.7300
 1142SOL    MW4 4336   5.988   6.089   3.610 -0.1817 -0.1703 -0.0684
 1143SOL     OW 4337   3.925   3.915   4.697  0.1122 -0.1603 -0.3639
 1143SOL    HW2 4338   3.845   3.861   4.691  0.3625 -0.6846  0.7357
 1143SOL    HW3 4339   3.945   3.938   4.606 -2.7942  2.2439 -0.5428
 1143SOL    MW4 4340   3.917   3.911   4.684 -0.2383  0.0877 -0.2424
 1144SOL     OW 4341   1.874   0.425   4.696  0.0724 -0.6082 -0.3268
 1144SOL    HW2 4342   1.805   0.374   4.654 -1.1801 -0.3439  1.3078
 1144SOL    HW3 4343   1.943   0.362   4.715 -0.7042 -1.3517  0.0718
 1144SOL    MW4 4344   1.874   0.410   4.692 -0.1953 -0.6714 -0.0585
 1145SOL     OW 4345   2.350   5.116   0.433 -0.3861 -0.3137  0.1673
 1145SOL    HW2 4346   2.291   5.074   0.370  0.0528  0.2576 -0.6494
 1145SOL    HW3 4347   2.395   5.184   0.382  1.5089 -1.1900  0.5551
 1145SOL    MW4 4348   2.348   5.120   0.418 -0.0782 -0.3539  0.1107
 1146SOL     OW 4349   0.946   0.293   1.791 -0.4510  0.1025  0.2801
 1146SOL    HW2 4350   0.922   0.320   1.880 -1.8648  2.5419 -0.7129
 1146SOL    HW3 4351   1.023   0.346   1.770 -0.5054  0.0126 -0.1543
 1146SOL    MW4 4352   0.953   0.304   1.800 -0.6447  0.4125  0.0918
 1147SOL     OW 4353   4.092   3.957   0.420  0.3127  0.6928  0.4292
 1147SOL    HW2 4354   4.086   3.988   0.510 -0.2515 -0.6005  0.8458
 1147SOL    HW3 4355   4.177   3.988   0.390  1.0150  0.1442  1.7909
 1147SOL    MW4 4356   4.102   3.966   0.428  0.3310  0.4498  0.6639
 1148SOL     OW 4357   5.921   2.781   2.154 -0.3307 -0.3212 -0.3658
 1148SOL    HW2 4358   5.868   2.710   2.119 -0.9794 -0.5494  1.0353
 1148SOL    HW3 4359   5.861   2.855   2.160  0.1589  0.1540 -1.1213
 1148SOL    MW4 4360   5.906   2.781   2.150 -0.3517 -0.2886 -0.2806
 1149SOL     OW 4361   3.781   1.090   5.706 -0.5475  0.0392  0.1643
 1149SOL    HW2 4362   3.800   1.054   5.793  0.2232 -0.0526 -0.0342
 1149SOL    HW3 4363   3.862   1.079   5.657 -0.8844  0.3587 -0.4815
 1149SOL    MW4 4364   3.794   1.084   5.711 -0.4902  0.0692  0.0529
 1150SOL     OW 4365   3.665   5.280   0.650 -0.1858 -0.1581 -0.4050
 1150SOL    HW2 4366   3.612   5.303   0.573 -1.4732 -1.5700  0.0067
 1150SOL    HW3 4367   3.739   5.231   0.615 -1.0634 -1.2963 -0.7527
 1150SOL    MW4 4368   3.668   5.277   0.635 -0.4715 -0.4945 -0.3965
 1151SOL     OW 4369   1.174   4.658   1.063 -0.5627  0.5264 -0.2373
 1151SOL    HW2 4370   1.210   4.747   1.069 -0.7615  0.6837 -1.1546
 1151SOL    HW3 4371   1.205   4.625   0.978  0.3811 -0.6886  0.5484
 1151SOL    MW4 4372   1.183   4.666   1.052 -0.4644  0.3868 -0.2547
 1152SOL     OW 4373   2.369   3.270   3.571 -0.3466  0.4970 -0.3740
 1152SOL    HW2 4374   2.365   3.188   3.619  0.6086  0.6906  0.0673
 1152SOL    HW3 4375   2.281   3.282   3.535 -1.4098  0.8734  2.1649
 1152SOL    MW4 4376   2.357   3.261   3.572 -0.3609  0.5722  0.0192
 1153SOL     OW 4377   2.058   0.631   3.488 -0.4626 -0.1706  0.4081
 1153SOL    HW2 4378   2.026   0.678   3.565  0.4384 -0.9248  1.2645
 1153SOL    HW3 4379   1.978   0.605   3.441 -1.3444 -3.0478  3.0944
 1153SOL    MW4 4380   2.043   0.634   3.492 -0.4600 -0.6497  0.8755
 1154SOL     OW 4381   6.183   0.991   1.733 -0.4757 -0.8389 -0.1747
 1154SOL    HW2 4382   6.140   0.952   1.808  1.6954 -1.1564  0.9997
 1154SOL    HW3 4383   6.123   0.977   1.660 -1.4316 -3.0313  0.9411
 1154SOL    MW4 4384   6.170   0.984   1.733 -0.3154 -1.1701  0.1274
 1155SOL     OW 4385   2.680   1.822   5.315 -0.2019 -0.1290 -0.6124
 1155SOL    HW2 4386   2.729   1.813   5.233  1.2491 -0.6559  0.2669
 1155SOL    HW3 4387   2.588   1.824   5.288  0.2369 -0.2423 -2.2446
 1155SOL    MW4 4388   2.674   1.821   5.300  0.0474 -0.2135 -0.7117
 1156SOL     OW 4389   4.498   2.700   1.912 -0.0416  0.2973  0.3935
 1156SOL    HW2 4390   4.465   2.770   1.969  2.0118 -1.0321  3.4717
 1156SOL    HW3 4391   4.456   2.621   1.945  0.1597 -0.3604 -0.8908
 1156SOL    MW4 4392   4.488   2.699   1.924  0.2559  0.0351  0.6302
 1157SOL     OW 4393   0.277   3.433   3.792 -0.0843  0.0667 -0.2241
 1157SOL    HW2 4394   0.186   3.405   3.795  0.4397 -1.6280  1.1345
 1157SOL    HW3 4395   0.299   3.432   3.699 -1.0499 -0.8865 -0.4575
 1157SOL    MW4 4396   0.268   3.429   3.780 -0.1426 -0.2827 -0.0757
 1158SOL     OW 4397   5.999   0.808   6.253  0.1740  0.3833  0.2179
 1158SOL    HW2 4398   5.984   0.898   6.284 -0.5366  0.2700  0.2354
 1158SOL    HW3 4399   5.947   0.754   6.313  0.4658 -0.0220  0.1050
 1158SOL    MW4 4400   5.990   0.813   6.265  0.1187  0.3149  0.2053
 1159SOL     OW 4401   4.555   4.925   4.298 -0.0109  0.0889 -0.0873
 1159SOL    HW2 4402   4.625   4.946   4.359 -1.0134 -2.0534  1.9575
 1159SOL    HW3 4403   4.597   4.874   4.229  0.5412 -0.8361  0.9069
 1159SOL    MW4 4404   4.569   4.921   4.296 -0.0703 -0.3158  0.3137
 1160SOL     OW 4405   3.271   2.299   0.678 -0.0416  0.5450 -0.7463
 1160SOL    HW2 4406   3.266   2.332   0.768  0.6831 -0.6604 -0.2351
 1160SOL    HW3 4407   3.218   2.360   0.627 -2.1264  0.1479  0.8118
 1160SOL    MW4 4408   3.264   2.312   0.683 -0.2210  0.3336 -0.4733
 1161SOL     OW 4409   4.028   4.745   6.084 -0.0579 -0.4676  0.2140
 1161SOL    HW2 4410   4.057   4.683   6.018  2.5967  0.5830  0.2731
 1161SOL    HW3 4411   4.049   4.703   6.168 -0.5621 -0.4969  0.3328
 1161SOL    MW4 4412   4.034   4.731   6.086  0.2258 -0.3329  0.2375
 1162SOL     OW 4413   4.141   0.816   2.368  0.2521  0.2830 -0.7968
 1162SOL    HW2 4414   4.065   0.860   2.406  0.7747  1.4869 -1.1191
 1162SOL    HW3 4415   4.107   0.732   2.337 -0.7099  0.3426  0.0480
 1162SOL    MW4 4416   4.127   0.811   2.369  0.1941  0.4497 -0.7279
 1163SOL     OW 4417   6.050   0.536   2.510  0.8804  0.8906  0.5014
 1163SOL    HW2 4418   6.082   0.602   2.571  0.7501  1.1006  0.3415
 1163SOL    HW3 4419   5.958   0.524   2.534  1.2757 -0.3322  1.5267
 1163SOL    MW4 4420   6.042   0.543   2.521  0.9153  0.7570  0.6156
 1164SOL     OW 4421   5.441   5.537   6.049 -0.0628 -0.2852 -0.0672
 1164SOL    HW2 4422   5.369   5.485   6.086  0.1187 -0.7326 -0.3360
 1164SOL    HW3 4423   5.422   5.627   6.076 -0.0457 -0.5690  0.9347
 1164SOL    MW4 4424   5.429   5.542   6.057 -0.0366 -0.3817  0.0295
 1165SOL     OW 4425   1.660   5.092   1.829  0.4909  0.1788 -0.0909
 1165SOL    HW2 4426   1.578   5.113   1.784  1.1163 -0.4187 -1.5646
 1165SOL    HW3 4427   1.694   5.016   1.782  1.5309 -0.0383  0.9749
 1165SOL    MW4 4428   1.654   5.085   1.817  0.7107  0.0713 -0.1447
 1166SOL     OW 4429   4.192   6.148   4.498  0.0469  0.3666 -0.3309
 1166SOL    HW2 4430   4.154   6.224   4.541 -1.5646 -0.9789  0.7470
 1166SOL    HW3 4431   4.177   6.163   4.405 -2.4870  0.2847 -0.0046
 1166SOL    MW4 4432   4.185   6.160   4.491 -0.5000  0.1782 -0.1457
 1167SOL     OW 4433   5.555   3.065   0.986 -0.5390  0.1397  0.4930
 1167SOL    HW2 4434   5.480   3.114   1.018 -0.8763  0.4218 -0.6794
 1167SOL    HW3 4435   5.522   2.977   0.969 -0.3336 -0.0410  0.9904
 1167SOL    MW4 4436   5.541   3.060   0.988 -0.5564  0.1531  0.4040
 1168SOL     OW 4437   3.553   3.588   5.606 -0.1568  0.2982 -0.2689
 1168SOL    HW2 4438   3.501   3.532   5.663  0.7996 -0.2927  0.0602
 1168SOL    HW3 4439   3.530   3.677   5.631 -0.6846  0.0498  0.1511
 1168SOL    MW4 4440   3.543   3.592   5.617 -0.1002  0.1874 -0.1701
 1169SOL     OW 4441   1.374   5.939   0.566  0.1441 -0.0821 -0.5443
 1169SOL    HW2 4442   1.296   5.993   0.577 -0.1071 -0.0010 -2.3252
 1169SOL    HW3 4443   1.444   6.002   0.545  0.4638 -0.2339  0.0565
 1169SOL    MW4 4444   1.373   5.955   0.565  0.1531 -0.0915 -0.7000
 1170SOL     OW 4445   3.383   4.840   3.182 -0.5403 -0.3775 -0.9136
 1170SOL    HW2 4446   3.365   4.883   3.098  0.9803  1.1668 -0.5127
 1170SOL    HW3 4447   3.361   4.906   3.247 -2.2074 -1.7450 -0.0251
 1170SOL    MW4 4448   3.378   4.855   3.179 -0.5596 -0.3541 -0.7435
 1171SOL     OW 4449   0.182   5.013   6.323 -0.1678 -0.1861 -0.1609
 1171SOL    HW2 4450   0.254   5.076   6.320 -1.1876  1.0945  0.9790
 1171SOL    HW3 4451   0.140   5.021   6.238  0.1505  0.1213 -0.2923
 1171SOL    MW4 4452   0.186   5.022   6.311 -0.2603  0.0235 -0.0278
 1172SOL     OW 4453   2.023   3.526   3.350  0.0586  0.4257 -0.0221
 1172SOL    HW2 4454   2.008   3.574   3.431  0.9318 -2.4335  2.0092
 1172SOL    HW3 4455   2.117   3.534   3.333  0.0092  0.3899 -0.3305
 1172SOL    MW4 4456   2.033   3.533   3.358  0.1673  0.0438  0.2052
 1173SOL     OW 4457   3.860   1.970   5.832 -0.2156 -0.1389 -0.4930
 1173SOL    HW2 4458   3.821   1.914   5.766 -1.2960 -0.8395  0.6888
 1173SOL    HW3 4459   3.950   1.984   5.802 -0.5258 -0.8543 -1.8246
 1173SOL    MW4 4460   3.867   1.964   5.820 -0.3991 -0.3257 -0.5128
 1174SOL     OW 4461   2.108   2.561   4.052  0.1214  0.6940  0.3238
 1174SOL    HW2 4462   2.126   2.495   3.984 -0.2410  1.2461 -0.3198
 1174SOL    HW3 4463   2.013   2.561   4.060  0.0042  2.0682 -0.6542
 1174SOL    MW4 4464   2.098   2.552   4.044  0.0581  0.9481  0.1099
 1175SOL     OW 4465   4.555   5.798   0.568 -0.2279 -0.1321 -0.5082
 1175SOL    HW2 4466   4.613   5.831   0.499  1.5244 -2.2628 -0.1534
 1175SOL    HW3 4467   4.475   5.773   0.522  0.6991 -0.9928 -1.7188
 1175SOL    MW4 4468   4.552   5.799   0.552  0.1256 -0.5268 -0.6211
 1176SOL     OW 4469   1.717   0.702   2.060  0.5230  0.0662 -0.5368
 1176SOL    HW2 4470   1.781   0.675   2.126 -1.1312 -1.9203  0.3619
 1176SOL    HW3 4471   1.719   0.798   2.064  1.2754  0.0321  1.6617
 1176SOL    MW4 4472   1.726   0.711   2.070  0.4040 -0.2004 -0.1282
 1177SOL     OW 4473   5.504   6.096   5.756  0.0244  0.3149 -0.3887
 1177SOL    HW2 4474   5.564   6.036   5.712  0.3046  0.6837 -0.5113
 1177SOL    HW3 4475   5.417   6.067   5.728  0.0378 -1.1164  0.8925
 1177SOL    MW4 4476   5.500   6.084   5.747  0.0632  0.1747 -0.2358
 1178SOL     OW 4477   0.101   0.238   3.968 -0.1620 -0.1142 -0.2182
 1178SOL    HW2 4478   0.170   0.185   3.928 -0.2434 -0.3404 -0.0615
 1178SOL    HW3 4479   0.020   0.191   3.949 -0.1199 -0.7410  1.0193
 1178SOL    MW4 4480   0.099   0.225   3.960 -0.1672 -0.2267 -0.0343
 1179SOL     OW 4481   5.532   0.757   0.940  0.0597 -0.1700 -0.1688
 1179SOL    HW2 4482   5.450   0.801   0.920 -0.0678 -1.0350 -1.6536
 1179SOL    HW3 4483   5.508   0.665   0.953  0.4705 -0.0473  1.8243
 1179SOL    MW4 4484   5.518   0.751   0.939  0.0971 -0.2680 -0.1017
 1180SOL     OW 4485   4.161   2.487   3.684 -0.2070  0.1910  0.2166
 1180SOL    HW2 4486   4.218   2.563   3.699 -0.9878  0.8858 -0.2466
 1180SOL    HW3 4487   4.154   2.445   3.770  2.6186 -1.1166 -0.0719
 1180SOL    MW4 4488   4.168   2.491   3.697  0.0628  0.1101  0.1175
 1181SOL     OW 4489   0.378   3.764   1.018 -0.4064 -0.2676  0.2336
 1181SOL    HW2 4490   0.292   3.721   1.024 -0.2567 -0.4515  1.2393
 1181SOL    HW3 4491   0.437   3.706   1.065 -0.0272  0.6112  0.8654
 1181SOL    MW4 4492   0.374   3.751   1.025 -0.3366 -0.1759  0.4496
 1182SOL     OW 4493   4.296   5.211   4.089 -0.3033  0.1546  0.2228
 1182SOL    HW2 4494   4.340   5.139   4.043  3.3009  1.2393  1.5920
 1182SOL    HW3 4495   4.260   5.266   4.020 -3.4660 -2.9496 -0.8584
 1182SOL    MW4 4496   4.297   5.209   4.074 -0.2450 -0.1118  0.2608
 1183SOL     OW 4497   3.045   1.970   1.241  0.0380  0.8843 -0.5704
 1183SOL    HW2 4498   2.972   1.928   1.286 -0.4028  0.4437 -1.6716
 1183SOL    HW3 4499   3.122   1.945   1.292 -0.4378  0.3070 -0.1217
 1183SOL    MW4 4500   3.045   1.961   1.254 -0.0829  0.7500 -0.6565
 1184SOL     OW 4501   1.317   3.982   2.929  0.0144  0.0368  0.1223
 1184SOL    HW2 4502   1.281   3.981   3.018  1.6572 -0.5965  0.8113
 1184SOL    HW3 4503   1.410   3.965   2.940  0.2859  0.0964 -1.7240
 1184SOL    MW4 4504   1.325   3.980   2.942  0.2670 -0.0389 -0.0304
 1185SOL     OW 4505   2.897   3.766   0.734 -0.1177  0.1397 -0.2239
 1185SOL    HW2 4506   2.917   3.797   0.646 -0.5076 -1.3892 -0.8916
 1185SOL    HW3 4507   2.895   3.670   0.726 -0.8286 -0.0108  1.3013
 1185SOL    MW4 4508   2.899   3.757   0.722 -0.2630 -0.0819 -0.1108
 1186SOL     OW 4509   4.886   3.776   5.091 -0.4170 -0.3673 -0.3045
 1186SOL    HW2 4510   4.834   3.834   5.036 -0.1675  1.3758  1.2273
 1186SOL    HW3 4511   4.974   3.781   5.054 -0.5581 -0.4510 -0.6657
 1186SOL    MW4 4512   4.891   3.784   5.079 -0.4027 -0.1484 -0.1500
 1187SOL     OW 4513   4.032   3.061   2.301  0.3105 -0.2539  0.0305
 1187SOL    HW2 4514   3.955   3.005   2.285  0.7867 -0.5738 -1.2793
 1187SOL    HW3 4515   4.076   3.065   2.216  1.2685  0.6536  0.5547
 1187SOL    MW4 4516   4.027   3.054   2.287  0.4997 -0.1764 -0.0731
 1188SOL     OW 4517   4.565   6.035   2.826 -0.1787 -0.9657  0.7659
 1188SOL    HW2 4518   4.637   5.997   2.876 -0.0464 -1.9027 -0.0985
 1188SOL    HW3 4519   4.493   5.972   2.835  0.4258 -2.1550 -1.6708
 1188SOL    MW4 4520   4.565   6.021   2.834 -0.0815 -1.2462  0.3304
 1189SOL     OW 4521   0.063   4.619   4.081 -0.2873  0.3711  0.2622
 1189SOL    HW2 4522   0.002   4.683   4.117  0.3534  0.6860  0.8174
 1189SOL    HW3 4523   0.146   4.637   4.126  0.3603  0.3037 -0.8610
 1189SOL    MW4 4524   0.066   4.630   4.092 -0.1174  0.4037  0.1872
 1190SOL     OW 4525   2.741   6.076   1.157  0.0318  0.4815 -0.0365
 1190SOL    HW2 4526   2.785   6.115   1.232 -2.0668  2.2218  0.3909
 1190SOL    HW3 4527   2.649   6.072   1.182 -0.5964  0.2539 -2.1712
 1190SOL    MW4 4528   2.734   6.080   1.170 -0.3280  0.6811 -0.2618
 1191SOL     OW 4529   1.121   5.034   6.350  0.4104  0.2201 -0.1232
 1191SOL    HW2 4530   1.130   4.961   6.411 -2.3779  0.0114  0.1704
 1191SOL    HW3 4531   1.147   5.111   6.400  1.7805 -0.3669  0.0940
 1191SOL    MW4 4532   1.125   5.035   6.364  0.2233  0.1151 -0.0558
 1192SOL     OW 4533   1.964   3.575   1.975  0.3834 -0.5143  0.1700
 1192SOL    HW2 4534   2.011   3.620   2.045  1.7994 -1.6777  0.0357
 1192SOL    HW3 4535   2.021   3.501   1.953 -0.3015 -0.5006 -1.8143
 1192SOL    MW4 4536   1.978   3.571   1.981  0.4798 -0.6660 -0.1096
 1193SOL     OW 4537   1.315   1.344   1.408  0.2290  0.4156  0.0004
 1193SOL    HW2 4538   1.238   1.295   1.380  0.4029 -0.4326  0.9360
 1193SOL    HW3 4539   1.281   1.430   1.432 -0.3529  0.2018 -0.0383
 1193SOL    MW4 4540   1.301   1.349   1.407  0.1751  0.2755  0.1187
 1194SOL     OW 4541   5.479   2.809   3.088 -0.1460 -0.0790  0.1350
 1194SOL    HW2 4542   5.509   2.723   3.059  0.1134  0.0522  0.0084
 1194SOL    HW3 4543   5.393   2.820   3.048  0.4773  0.3760 -1.1488
 1194SOL    MW4 4544   5.471   2.799   3.079 -0.0295 -0.0017 -0.0511
 1195SOL     OW 4545   3.887   2.580   6.322 -0.0128 -0.1220  0.4354
 1195SOL    HW2 4546   3.896   2.669   6.287 -0.8194 -0.3104 -0.2680
 1195SOL    HW3 4547   3.800   2.551   6.295  0.5830 -1.4714 -0.1632
 1195SOL    MW4 4548   3.877   2.588   6.314 -0.0406 -0.3249  0.2636
 1196SOL     OW 4549   1.251   3.918   3.539  0.4636 -0.2522  0.3706
 1196SOL    HW2 4550   1.320   3.852   3.532  1.3303  0.4191  2.0082
 1196SOL    HW3 4551   1.297   3.997   3.568 -0.7549  0.6947 -0.2043
 1196SOL    MW4 4552   1.266   3.920   3.542  0.4172 -0.0387  0.5108
 1197SOL     OW 4553   4.846   2.056   6.237  0.2196 -0.8071 -0.0125
 1197SOL    HW2 4554   4.760   2.084   6.270 -0.6304 -2.0524 -1.1010
 1197SOL    HW3 4555   4.860   2.110   6.159  1.5739  1.1033  1.4483
 1197SOL    MW4 4556   4.837   2.067   6.231  0.2861 -0.7194  0.0366
 1198SOL     OW 4557   1.345   4.006   2.527 -0.3388 -0.0708  0.2300
 1198SOL    HW2 4558   1.405   3.974   2.459 -0.0181  1.6226 -0.3352
 1198SOL    HW3 4559   1.258   3.989   2.491 -0.2894 -2.7904  1.1681
 1198SOL    MW4 4560   1.342   3.999   2.513 -0.2899 -0.2062  0.2792
 1199SOL     OW 4561   3.955   1.214   0.762  0.2518 -0.8276  0.7716
 1199SOL    HW2 4562   3.927   1.236   0.851 -0.6580  0.1290  0.2767
 1199SOL    HW3 4563   3.978   1.122   0.766  2.2282 -0.3233  2.4674
 1199SOL    MW4 4564   3.954   1.205   0.774  0.3926 -0.6348  0.9300
 1200SOL     OW 4565   0.635   4.165   4.213  0.7356  0.3790  0.3248
 1200SOL    HW2 4566   0.546   4.144   4.242 -0.0514  1.0435 -1.5215
 1200SOL    HW3 4567   0.690   4.138   4.287 -0.9480 -0.3251  1.3925
 1200SOL    MW4 4568   0.630   4.159   4.227  0.4096  0.3738  0.2221
 1201SOL     OW 4569   2.716   1.369   4.771 -0.0878 -0.0018  0.2589
 1201SOL    HW2 4570   2.785   1.303   4.772  1.0024  1.1153  0.3796
 1201SOL    HW3 4571   2.709   1.398   4.862 -1.6159 -0.9862  0.4946
 1201SOL    MW4 4572   2.724   1.364   4.783 -0.1456  0.0157  0.3060
 1202SOL     OW 4573   0.343   2.340   0.590  0.0183  0.1376  0.3692
 1202SOL    HW2 4574   0.420   2.354   0.535 -0.0415  1.2717  0.5352
 1202SOL    HW3 4575   0.364   2.388   0.671 -0.3515 -0.5817  0.8989
 1202SOL    MW4 4576   0.356   2.348   0.594 -0.0384  0.1924  0.4610
 1203SOL     OW 4577   3.131   2.029   0.732 -0.3287 -0.3798 -0.4536
 1203SOL    HW2 4578   3.164   2.118   0.740 -1.7379  0.1876 -0.5519
 1203SOL    HW3 4579   3.099   2.007   0.820  0.2280 -0.8957 -0.3699
 1203SOL    MW4 4580   3.131   2.038   0.745 -0.4412 -0.3730 -0.4555
 1204SOL     OW 4581   5.577   4.368   3.152  0.3782 -0.1568  0.2613
 1204SOL    HW2 4582   5.598   4.322   3.071 -1.4188 -1.1131  0.2768
 1204SOL    HW3 4583   5.483   4.353   3.164  0.3305  1.1197  1.8064
 1204SOL    MW4 4584   5.567   4.360   3.143  0.1348 -0.1145  0.4672
 1205SOL     OW 4585   2.742   1.470   3.024 -0.6052  0.3218  0.1899
 1205SOL    HW2 4586   2.781   1.505   2.944 -0.7190 -0.8211 -0.3842
 1205SOL    HW3 4587   2.792   1.391   3.043  0.1713  1.1619  1.9125
 1205SOL    MW4 4588   2.753   1.464   3.016 -0.5177  0.2819  0.3415
 1206SOL     OW 4589   3.090   2.352   3.945  0.1143  0.1509  0.2502
 1206SOL    HW2 4590   3.166   2.294   3.939  0.0805  0.1844 -0.5873
 1206SOL    HW3 4591   3.023   2.300   3.990  0.2319 -0.2958 -0.0901
 1206SOL    MW4 4592   3.092   2.338   3.950  0.1254  0.0964  0.0948
 1207SOL     OW 4593   1.093   3.994   2.433  0.0714 -0.1448 -0.1561
 1207SOL    HW2 4594   1.090   3.899   2.436  1.2752 -0.1855  1.5272
 1207SOL    HW3 4595   1.127   4.014   2.346  1.7336 -1.3707  0.1546
 1207SOL    MW4 4596   1.097   3.984   2.422  0.4495 -0.3119  0.1070
 1208SOL     OW 4597   2.974   0.202   5.305  0.2719  0.2859 -0.3199
 1208SOL    HW2 4598   2.943   0.282   5.262  0.4124  0.6317  0.2170
 1208SOL    HW3 4599   2.968   0.220   5.398  0.2517 -0.3574 -0.1903
 1208SOL    MW4 4600   2.969   0.215   5.311  0.2878  0.2467 -0.2319
 1209SOL     OW 4601   3.721   0.343   3.598  0.0958  0.3915  0.3239
 1209SOL    HW2 4602   3.775   0.412   3.635  0.7691  2.0326 -3.3040
 1209SOL    HW3 4603   3.772   0.263   3.613 -0.4763  0.5789  4.1601
 1209SOL    MW4 4604   3.735   0.341   3.604  0.1092  0.6328  0.3514
 1210SOL     OW 4605   2.213   2.487   0.433  0.1820 -0.1264 -0.0187
 1210SOL    HW2 4606   2.163   2.495   0.352  0.5570 -2.2005 -0.5074
 1210SOL    HW3 4607   2.158   2.529   0.499  0.0736  2.0279 -1.3603
 1210SOL    MW4 4608   2.199   2.494   0.431  0.2171 -0.1158 -0.2602
 1211SOL     OW 4609   4.055   3.773   6.231 -0.4483 -0.2821  0.7895
 1211SOL    HW2 4610   4.021   3.857   6.262 -1.2063 -0.6145  0.8941
 1211SOL    HW3 4611   4.108   3.740   6.303  1.0490  0.7475  0.2115
 1211SOL    MW4 4612   4.057   3.780   6.244 -0.3508 -0.1901  0.7270
 1212SOL     OW 4613   2.269   4.936   5.778  0.2115  0.0684 -0.7380
 1212SOL    HW2 4614   2.255   5.030   5.770  1.6331  0.3534 -0.1016
 1212SOL    HW3 4615   2.285   4.905   5.689 -0.9933  0.2805 -1.0479
 1212SOL    MW4 4616   2.269   4.944   5.766  0.2401  0.1340 -0.6949
 1213SOL     OW 4617   3.353   1.692   4.218  0.7767 -0.0604  0.1035
 1213SOL    HW2 4618   3.260   1.670   4.216  0.8705 -0.8059  1.6999
 1213SOL    HW3 4619   3.393   1.633   4.154  0.4015 -1.3330  0.9842
 1213SOL    MW4 4620   3.346   1.681   4.209  0.7395 -0.3266  0.4303
 1214SOL     OW 4621   3.329   5.802   5.093 -0.5553 -0.2174  0.2824
 1214SOL    HW2 4622   3.391   5.813   5.022 -0.5122 -0.6092  0.2562
 1214SOL    HW3 4623   3.244   5.829   5.056 -0.5625 -0.5855  0.0318
 1214SOL    MW4 4624   3.326   5.807   5.079 -0.5505 -0.3176  0.2459
 1215SOL     OW 4625   0.927   4.371   2.359  0.1332 -0.0718 -0.8067
 1215SOL    HW2 4626   0.984   4.420   2.419  1.4249 -1.5391 -0.7719
 1215SOL    HW3 4627   0.984   4.346   2.287 -0.6001 -1.0977 -1.0541
 1215SOL    MW4 4628   0.942   4.374   2.358  0.2069 -0.4007 -0.8348
 1216SOL     OW 4629   4.605   4.797   0.219 -0.5626 -0.7692  0.3742
 1216SOL    HW2 4630   4.674   4.861   0.237 -1.6403 -0.1851  2.8414
 1216SOL    HW3 4631   4.580   4.813   0.128 -1.3313  2.9458  1.0914
 1216SOL    MW4 4632   4.611   4.807   0.209 -0.8062 -0.2020  0.7943
 1217SOL     OW 4633   1.890   0.601   1.315  0.2567 -0.2287  0.4834
 1217SOL    HW2 4634   1.934   0.516   1.318 -0.0477 -0.4285 -0.3678
 1217SOL    HW3 4635   1.798   0.580   1.300  0.3305  0.2717 -0.7601
 1217SOL    MW4 4636   1.884   0.587   1.313  0.2263 -0.1890  0.2070
 1218SOL     OW 4637   4.691   2.344   1.375 -0.1872  0.2486  0.1974
 1218SOL    HW2 4638   4.728   2.364   1.289  0.7923 -1.6671  0.0993
 1218SOL    HW3 4639   4.747   2.392   1.436  2.5967 -2.4169  0.0370
 1218SOL    MW4 4640   4.703   2.353   1.372  0.3094 -0.3558  0.1633
 1219SOL     OW 4641   3.595   3.197   2.784  0.1498  0.4105  0.3606
 1219SOL    HW2 4642   3.562   3.110   2.762  1.0949  0.1770 -0.2169
 1219SOL    HW3 4643   3.639   3.227   2.704  0.7000  0.9985  0.8651
 1219SOL    MW4 4644   3.597   3.190   2.770  0.3471  0.4572  0.3509
 1220SOL     OW 4645   1.323   4.395   6.004  0.2106 -0.7743 -0.7622
 1220SOL    HW2 4646   1.333   4.307   6.040  1.2074 -0.5031 -0.3455
 1220SOL    HW3 4647   1.390   4.401   5.936 -0.1555 -0.4869 -1.1110
 1220SOL    MW4 4648   1.333   4.384   6.000  0.2938 -0.7006 -0.7533
 1221SOL     OW 4649   0.875   2.485   4.737  0.2414 -0.1057  0.3827
 1221SOL    HW2 4650   0.899   2.518   4.651 -0.7532  0.9868  0.5000
 1221SOL    HW3 4651   0.864   2.563   4.791  0.2037 -0.7430  1.3361
 1221SOL    MW4 4652   0.877   2.499   4.733  0.1052 -0.0457  0.5240
 1222SOL     OW 4653   0.297   4.334   0.294  0.1044 -0.0184 -0.0192
 1222SOL    HW2 4654   0.208   4.365   0.277 -0.4864 -2.0966 -1.0029
 1222SOL    HW3 4655   0.315   4.362   0.384 -2.1357 -0.8348  0.7481
 1222SOL    MW4 4656   0.288   4.342   0.304 -0.2691 -0.4003 -0.0478
 1223SOL     OW 4657   1.047   2.144   5.012 -0.6255 -0.5852  0.4600
 1223SOL    HW2 4658   0.978   2.077   5.018  0.4335 -1.8457 -0.7283
 1223SOL    HW3 4659   1.127   2.097   5.036  0.3966 -0.2212 -1.9983
 1223SOL    MW4 4660   1.048   2.129   5.016 -0.3510 -0.7035 -0.0211
 1224SOL     OW 4661   6.230   0.588   2.791 -0.9152  0.5761  0.2754
 1224SOL    HW2 4662   6.309   0.546   2.826  0.0673  0.9533 -1.4045
 1224SOL    HW3 4663   6.160   0.526   2.811 -0.1837  0.1428  1.6318
 1224SOL    MW4 4664   6.231   0.574   2.799 -0.6890  0.5687  0.2327
 1225SOL     OW 4665   1.429   2.325   5.160 -0.6072  0.2817  0.6649
 1225SOL    HW2 4666   1.509   2.330   5.108 -1.4393 -1.7073 -0.9696
 1225SOL    HW3 4667   1.361   2.360   5.102 -0.8125  3.5616  2.6242
 1225SOL    MW4 4668   1.430   2.330   5.145 -0.7441  0.4520  0.7078
 1226SOL     OW 4669   5.486   4.507   3.765  0.1913  0.5335 -0.3673
 1226SOL    HW2 4670   5.393   4.506   3.785  0.1659  0.8789 -0.4637
 1226SOL    HW3 4671   5.511   4.415   3.758  0.3289  0.3348  1.8895
 1226SOL    MW4 4672   5.477   4.495   3.767  0.2061  0.5529 -0.0823
 1227SOL     OW 4673   0.126   5.002   2.212  0.4850  0.4387  0.0538
 1227SOL    HW2 4674   0.060   5.066   2.240  0.7397 -0.2383  2.4243
 1227SOL    HW3 4675   0.175   4.982   2.291  1.5350 -1.4168 -0.9927
 1227SOL    MW4 4676   0.124   5.008   2.226  0.6571  0.1046  0.2285
 1228SOL     OW 4677   0.259   0.326   2.253  0.1142  0.2111  0.1888
 1228SOL    HW2 4678   0.310   0.390   2.202 -0.3093 -0.2498 -0.8410
 1228SOL    HW3 4679   0.259   0.247   2.200  0.1340 -0.4746  1.1850
 1228SOL    MW4 4680   0.266   0.324   2.239  0.0609  0.0598  0.1844
 1229SOL     OW 4681   1.437   1.968   4.086 -0.0842 -0.1525  0.5274
 1229SOL    HW2 4682   1.476   2.025   4.152  1.0358 -1.7558  1.3202
 1229SOL    HW3 4683   1.349   2.002   4.074  0.7909  2.2461  0.3170
 1229SOL    MW4 4684   1.431   1.980   4.093  0.1790 -0.0475  0.6043
 1230SOL     OW 4685   5.596   4.568   0.865 -0.4632 -0.5015 -0.6868
 1230SOL    HW2 4686   5.518   4.624   0.867  0.8283  1.5726 -2.9245
 1230SOL    HW3 4687   5.663   4.619   0.911  0.3752 -0.7888 -1.5662
 1230SOL    MW4 4688   5.595   4.582   0.872 -0.1822 -0.2658 -1.0980
 1231SOL     OW 4689   0.625   2.955   3.033 -0.4007  0.1561  0.5462
 1231SOL    HW2 4690   0.643   2.992   3.120 -2.0083  0.4742  0.7747
 1231SOL    HW3 4691   0.711   2.953   2.990  0.3956  0.1957  2.0523
 1231SOL    MW4 4692   0.639   2.960   3.039 -0.5077  0.2033  0.7751
 1232SOL     OW 4693   6.004   4.192   4.617 -0.7100 -0.4911 -0.1354
 1232SOL    HW2 4694   5.918   4.171   4.653 -0.3509 -3.2531 -0.6323
 1232SOL    HW3 4695   6.028   4.276   4.657 -3.0948 -0.2438  0.9096
 1232SOL    MW4 4696   5.996   4.200   4.627 -0.9773 -0.8229 -0.0631
 1233SOL     OW 4697   3.655   4.235   5.625  0.2053 -0.2259 -0.4126
 1233SOL    HW2 4698   3.621   4.218   5.537 -1.5421  1.9630 -0.2615
 1233SOL    HW3 4699   3.673   4.329   5.625  2.3484 -0.5773  0.9048
 1233SOL    MW4 4700   3.653   4.245   5.613  0.2575  0.0166 -0.2189
 1234SOL     OW 4701   4.792   4.510   3.251  0.2993 -0.2588  0.9837
 1234SOL    HW2 4702   4.783   4.441   3.317  0.2140 -0.7654  0.4543
 1234SOL    HW3 4703   4.819   4.587   3.300  0.1282 -0.5997  1.6258
 1234SOL    MW4 4704   4.794   4.511   3.266  0.2654 -0.3706  0.9986
 1235SOL     OW 4705   3.619   2.863   6.247  0.4675  0.6482 -0.0701
 1235SOL    HW2 4706   3.524   2.874   6.253  0.3920 -0.2153  0.4326
 1235SOL    HW3 4707   3.651   2.879   6.336  0.7080  0.1441 -0.0634
 1235SOL    MW4 4708   3.611   2.867   6.260  0.4893  0.4678 -0.0029
 1236SOL     OW 4709   2.465   0.717   3.231  0.0239  0.4069 -0.0895
 1236SOL    HW2 4710   2.458   0.664   3.310  0.7039  0.3422 -0.0635
 1236SOL    HW3 4711   2.498   0.801   3.262  1.5317 -0.0285 -0.4386
 1236SOL    MW4 4712   2.469   0.721   3.246  0.3126  0.3409 -0.1321
 1237SOL     OW 4713   5.817   2.180   4.436 -0.5077  0.2186  0.4807
 1237SOL    HW2 4714   5.865   2.098   4.448 -0.1571  0.6107  1.9512
 1237SOL    HW3 4715   5.776   2.172   4.350  2.0339 -0.2174 -0.7828
 1237SOL    MW4 4716   5.818   2.168   4.427 -0.1261  0.2128  0.5080
 1238SOL     OW 4717   4.451   5.039   3.926  0.5350 -0.0811  0.2353
 1238SOL    HW2 4718   4.457   4.952   3.963 -1.2666 -1.0980 -1.6410
 1238SOL    HW3 4719   4.540   5.060   3.899  1.1185 -0.9987  1.3693
 1238SOL    MW4 4720   4.463   5.031   3.927  0.3743 -0.3363  0.1374
 1239SOL     OW 4721   4.791   5.778   5.368 -0.1328  0.0984 -0.0864
 1239SOL    HW2 4722   4.701   5.755   5.388  0.0063  0.9874  1.7616
 1239SOL    HW3 4723   4.784   5.853   5.309 -0.5680 -0.6557 -1.0265
 1239SOL    MW4 4724   4.778   5.785   5.363 -0.1719  0.1162  0.0334
 1240SOL     OW 4725   4.014   4.566   2.937 -0.5356  0.4463  0.1569
 1240SOL    HW2 4726   3.994   4.558   3.030  2.2660  0.2927  0.8227
 1240SOL    HW3 4727   4.058   4.650   2.929  1.7259 -0.7270 -0.4714
 1240SOL    MW4 4728   4.017   4.576   2.948  0.1324  0.2713  0.1619
 1241SOL     OW 4729   2.790   2.975   4.805 -0.1758  0.1958 -0.1155
 1241SOL    HW2 4730   2.820   3.055   4.848  2.7687 -1.0772  0.4663
 1241SOL    HW3 4731   2.730   2.935   4.867  2.9951 -0.9582  2.4728
 1241SOL    MW4 4732   2.786   2.981   4.819  0.6310 -0.1244  0.3028
 1242SOL     OW 4733   4.734   0.356   5.468 -0.0386  0.4168 -0.1392
 1242SOL    HW2 4734   4.796   0.363   5.541  0.5542 -3.7081 -0.0067
 1242SOL    HW3 4735   4.663   0.302   5.502 -0.4489 -0.4152 -2.1868
 1242SOL    MW4 4736   4.733   0.350   5.482 -0.0145 -0.2372 -0.3918
 1243SOL     OW 4737   2.960   0.026   3.111 -0.1746 -0.2785 -0.0786
 1243SOL    HW2 4738   2.956   0.054   3.020  1.4649  1.9760  0.4294
 1243SOL    HW3 4739   2.869   0.009   3.136 -0.6212 -1.2671 -2.1697
 1243SOL    MW4 4740   2.948   0.027   3.103 -0.0172 -0.1115 -0.2875
 1244SOL     OW 4741   4.133   0.334   0.978  1.0210  0.3879 -0.0217
 1244SOL    HW2 4742   4.076   0.410   0.987  1.5332  0.6626  1.0389
 1244SOL    HW3 4743   4.094   0.283   0.907 -0.0189  1.0243  0.0769
 1244SOL    MW4 4744   4.120   0.337   0.970  0.9514  0.5081  0.1313
 1245SOL     OW 4745   5.020   0.361   6.425  0.2064  0.4321 -0.6464
 1245SOL    HW2 4746   5.068   0.382   6.345  0.1625  0.8502 -0.5657
 1245SOL    HW3 4747   4.995   0.446   6.461  0.2380  0.2496 -0.1818
 1245SOL    MW4 4748   5.023   0.375   6.419  0.2048  0.4631 -0.5744
 1246SOL     OW 4749   4.639   6.272   4.984  0.3895  0.0424  0.3404
 1246SOL    HW2 4750   4.564   6.265   4.925 -0.2959  0.8807  1.0733
 1246SOL    HW3 4751   4.703   6.324   4.935 -0.1416  0.6620  0.2935
 1246SOL    MW4 4752   4.637   6.278   4.970  0.2290  0.2348  0.4309
 1247SOL     OW 4753   0.414   4.178   1.699 -0.1762 -0.0566 -0.1963
 1247SOL    HW2 4754   0.344   4.133   1.652 -1.2525  0.6116  0.7110
 1247SOL    HW3 4755   0.410   4.268   1.667  1.3539 -0.3510 -1.3184
 1247SOL    MW4 4756   0.404   4.184   1.688 -0.1163 -0.0073 -0.2246
 1248SOL     OW 4757   1.407   0.950   1.757  0.2051  0.5631  0.1146
 1248SOL    HW2 4758   1.424   0.921   1.667  1.2127 -1.3149  0.8663
 1248SOL    HW3 4759   1.488   0.933   1.804 -0.7490  0.1644  1.7040
 1248SOL    MW4 4760   1.420   0.944   1.751  0.2121  0.2627  0.4235
 1249SOL     OW 4761   2.691   0.630   4.662  0.0171 -0.7636  0.1367
 1249SOL    HW2 4762   2.678   0.546   4.707  2.6084 -1.4956 -0.3444
 1249SOL    HW3 4763   2.764   0.671   4.709 -0.5606  0.7978 -0.2737
 1249SOL    MW4 4764   2.699   0.625   4.674  0.2828 -0.6542  0.0190
 1250SOL     OW 4765   3.991   0.820   6.406  0.2023  0.0282 -0.8592
 1250SOL    HW2 4766   3.948   0.734   6.398 -0.7304  0.4504 -0.5346
 1250SOL    HW3 4767   4.054   0.822   6.334  0.2488 -0.9417 -0.8579
 1250SOL    MW4 4768   3.994   0.809   6.395  0.0854 -0.0440 -0.8162
 1251SOL     OW 4769   6.155   5.430   1.943  0.2271 -0.2055  0.3092
 1251SOL    HW2 4770   6.185   5.518   1.919 -0.3979  0.0206  0.3318
 1251SOL    HW3 4771   6.232   5.375   1.932  0.3756  0.1721 -0.6798
 1251SOL    MW4 4772   6.169   5.435   1.938  0.1643 -0.1259  0.1817
 1252SOL     OW 4773   0.892   6.333   4.783  0.5966  0.2365 -0.3717
 1252SOL    HW2 4774   0.949   6.331   4.706  0.7834 -0.3865 -0.2223
 1252SOL    HW3 4775   0.934   6.396   4.842  0.9489  0.0303 -0.4024
 1252SOL    MW4 4776   0.905   6.341   4.781  0.6677  0.1271 -0.3561
 1253SOL     OW 4777   1.588   1.803   3.450 -0.1653  0.2842 -0.0883
 1253SOL    HW2 4778   1.626   1.729   3.498 -0.6530 -0.4573 -0.8250
 1253SOL    HW3 4779   1.610   1.786   3.358  1.0358  1.8459 -0.1365
 1253SOL    MW4 4780   1.596   1.791   3.444 -0.0712  0.3924 -0.1918
 1254SOL     OW 4781   1.076   3.440   4.332 -0.2656 -0.3758  0.0955
 1254SOL    HW2 4782   0.984   3.463   4.317  0.1088  1.1436 -0.0339
 1254SOL    HW3 4783   1.086   3.354   4.292 -1.3803 -0.0935 -0.8420
 1254SOL    MW4 4784   1.065   3.432   4.325 -0.3633 -0.1381 -0.0453
 1255SOL     OW 4785   5.991   3.401   3.898  0.3366  0.1602 -0.2689
 1255SOL    HW2 4786   5.922   3.427   3.959  0.3478 -1.1309  0.3309
 1255SOL    HW3 4787   6.055   3.472   3.903  1.3322 -0.7914  2.8107
 1255SOL    MW4 4788   5.990   3.414   3.907  0.4694 -0.1357  0.2165
 1256SOL     OW 4789   1.917   5.276   3.731  0.3135  0.0748  0.2387
 1256SOL    HW2 4790   1.900   5.239   3.817  3.3201  0.1744  1.0091
 1256SOL    HW3 4791   2.010   5.258   3.715  0.0205  0.6142 -2.7238
 1256SOL    MW4 4792   1.927   5.269   3.740  0.6715  0.1591 -0.0505
 1257SOL     OW 4793   4.430   1.633   0.368 -0.5329 -0.8875 -0.6431
 1257SOL    HW2 4794   4.382   1.621   0.450 -3.1165 -1.6621 -2.1321
 1257SOL    HW3 4795   4.381   1.580   0.304  2.1948 -1.4461 -2.4163
 1257SOL    MW4 4796   4.417   1.625   0.370 -0.5139 -1.0634 -1.0735
 1258SOL     OW 4797   3.666   4.098   0.571 -0.0365  0.1458 -0.0744
 1258SOL    HW2 4798   3.607   4.112   0.497 -0.1031  0.7126  0.0855
 1258SOL    HW3 4799   3.608   4.075   0.644 -0.1636  1.6788  0.3383
 1258SOL    MW4 4800   3.650   4.097   0.571 -0.0621  0.4228  0.0012
 1259SOL     OW 4801   5.545   5.351   1.436 -0.2719 -0.5462 -0.1924
 1259SOL    HW2 4802   5.510   5.297   1.506  0.6417  0.0912  0.7798
 1259SOL    HW3 4803   5.630   5.381   1.468 -0.5938  1.1801 -0.8388
 1259SOL    MW4 4804   5.552   5.348   1.449 -0.1938 -0.2344 -0.1494
 1260SOL     OW 4805   6.256   5.960   1.176 -0.2561 -0.2551  0.0670
 1260SOL    HW2 4806   6.170   5.993   1.150  0.7333  1.6017 -1.0569
 1260SOL    HW3 4807   6.277   5.893   1.111 -0.2100  0.3473 -0.5344
 1260SOL    MW4 4808   6.247   5.955   1.164 -0.1194  0.0693 -0.1606
 1261SOL     OW 4809   0.024   4.114   1.480 -0.5268  0.1038  0.4944
 1261SOL    HW2 4810   0.014   4.099   1.386 -1.9304  0.7497  0.5190
 1261SOL    HW3 4811   0.089   4.049   1.508  1.5855  1.2873 -1.2885
 1261SOL    MW4 4812   0.031   4.104   1.471 -0.4333  0.3452  0.2624
 1262SOL     OW 4813   5.226   5.561   1.940 -0.5315 -0.3178 -0.6068
 1262SOL    HW2 4814   5.244   5.525   1.854  2.0600  1.0977 -0.7570
 1262SOL    HW3 4815   5.182   5.644   1.923  0.0046 -0.0254 -0.5842
 1262SOL    MW4 4816   5.222   5.567   1.927 -0.1188 -0.0925 -0.6236
 1263SOL     OW 4817   0.203   5.723   5.081 -0.1883  0.5249  0.2164
 1263SOL    HW2 4818   0.196   5.733   5.176  1.6864  2.2918  0.2318
 1263SOL    HW3 4819   0.250   5.801   5.052 -1.9808  0.7552 -2.3740
 1263SOL    MW4 4820   0.208   5.734   5.090 -0.1775  0.7884 -0.1233
 1264SOL     OW 4821   1.751   2.593   2.460  1.0552 -0.2965 -0.3738
 1264SOL    HW2 4822   1.833   2.643   2.463  0.1812  1.2056 -0.5954
 1264SOL    HW3 4823   1.709   2.621   2.379 -0.2352 -0.1556  0.3256
 1264SOL    MW4 4824   1.757   2.603   2.450  0.7696 -0.0797 -0.3108
 1265SOL     OW 4825   3.772   2.998   5.410 -0.2715 -0.0328  0.2283
 1265SOL    HW2 4826   3.865   2.997   5.430 -0.4937 -1.5232  1.4581
 1265SOL    HW3 4827   3.739   2.915   5.446 -1.9912  0.2665 -0.5363
 1265SOL    MW4 4828   3.780   2.987   5.418 -0.5277 -0.1900  0.2897
 1266SOL     OW 4829   4.597   1.251   3.650 -0.0533  0.5476  0.0712
 1266SOL    HW2 4830   4.647   1.302   3.713 -2.2161 -0.1154  2.5007
 1266SOL    HW3 4831   4.573   1.171   3.697 -2.2774  0.2642 -1.3676
 1266SOL    MW4 4832   4.600   1.247   3.664 -0.6321  0.4227  0.2019
 1267SOL     OW 4833   5.254   5.513   4.752 -0.3959 -0.5575 -0.1606
 1267SOL    HW2 4834   5.199   5.436   4.740 -0.3535 -0.6530  0.2301
 1267SOL    HW3 4835   5.222   5.576   4.688  0.6647 -1.4839 -1.6648
 1267SOL    MW4 4836   5.243   5.511   4.742 -0.2504 -0.6923 -0.3075
 1268SOL     OW 4837   6.055   2.031   0.476 -0.1206 -0.5224 -0.0362
 1268SOL    HW2 4838   6.014   2.073   0.552  0.7519  0.2100  0.0423
 1268SOL    HW3 4839   5.983   2.018   0.414 -0.4171  1.1712 -0.0917
 1268SOL    MW4 4840   6.040   2.035   0.478 -0.0446 -0.2023 -0.0332
 1269SOL     OW 4841   5.954   4.909   3.299 -0.6395 -0.4182  0.3149
 1269SOL    HW2 4842   6.000   4.832   3.333 -0.7966 -0.5596  0.2055
 1269SOL    HW3 4843   5.980   4.980   3.358 -1.0781 -0.7072  0.8675
 1269SOL    MW4 4844   5.963   4.908   3.312 -0.7181 -0.4750  0.3733
 1270SOL     OW 4845   0.511   4.330   0.138 -0.0120  0.7142  0.2714
 1270SOL    HW2 4846   0.566   4.263   0.179  0.6205 -0.4346 -2.2480
 1270SOL    HW3 4847   0.446   4.352   0.204  1.9128  0.2518  2.4641
 1270SOL    MW4 4848   0.510   4.324   0.152  0.3254  0.5016  0.2283
 1271SOL     OW 4849   4.251   3.413   5.856 -0.2338  0.1124  0.2502
 1271SOL    HW2 4850   4.249   3.337   5.799 -0.1701  0.2613  0.0479
 1271SOL    HW3 4851   4.165   3.413   5.899 -0.4676  0.2784 -0.2141
 1271SOL    MW4 4852   4.239   3.403   5.854 -0.2562  0.1539  0.1623
 1272SOL     OW 4853   0.815   0.613   0.751  0.0775 -0.5290 -0.7297
 1272SOL    HW2 4854   0.724   0.615   0.723  0.4419  2.6648 -2.2444
 1272SOL    HW3 4855   0.839   0.706   0.760  3.5214 -1.1474 -1.8085
 1272SOL    MW4 4856   0.806   0.626   0.748  0.5799 -0.1892 -1.0719
 1273SOL     OW 4857   0.628   3.022   0.864 -0.0980 -0.0731  0.5536
 1273SOL    HW2 4858   0.688   2.951   0.839  0.7490  0.8205 -0.0036
 1273SOL    HW3 4859   0.542   2.979   0.868  0.4326 -1.1931  0.5223
 1273SOL    MW4 4860   0.624   3.007   0.861  0.0837 -0.1029  0.4760
 1274SOL     OW 4861   2.834   5.192   3.157 -0.0630  0.5441 -0.9167
 1274SOL    HW2 4862   2.885   5.121   3.119  1.7094  1.6364 -0.6687
 1274SOL    HW3 4863   2.823   5.255   3.085 -1.9948 -0.1099 -1.2582
 1274SOL    MW4 4864   2.839   5.191   3.142 -0.0840  0.6019 -0.9291
 1275SOL     OW 4865   4.888   1.104   4.841  0.2310  0.0716  0.1710
 1275SOL    HW2 4866   4.840   1.186   4.849 -0.5386 -0.5691  4.3900
 1275SOL    HW3 4867   4.977   1.131   4.818  0.0370  2.1422  1.5795
 1275SOL    MW4 4868   4.894   1.119   4.839  0.1039  0.2603  0.9135
 1276SOL     OW 4869   6.276   0.778   1.147 -0.3025 -0.1773 -0.1172
 1276SOL    HW2 4870   6.339   0.844   1.119 -1.1083  1.1094  0.9385
 1276SOL    HW3 4871   6.284   0.708   1.083  0.2737  1.1389 -1.5614
 1276SOL    MW4 4872   6.285   0.778   1.135 -0.3328  0.1661 -0.1684
 1277SOL     OW 4873   4.631   2.410   4.475 -0.5622  0.1046 -0.0712
 1277SOL    HW2 4874   4.549   2.452   4.504  0.1289  1.5424 -0.1014
 1277SOL    HW3 4875   4.618   2.317   4.494 -1.8513  0.4215  0.7661
 1277SOL    MW4 4876   4.618   2.404   4.482 -0.6411  0.3361  0.0353
 1278SOL     OW 4877   1.970   0.212   4.862 -0.4870  0.2580 -0.0837
 1278SOL    HW2 4878   1.903   0.161   4.908  1.0833 -2.4216 -0.5101
 1278SOL    HW3 4879   2.033   0.236   4.930 -1.4960  2.2615  0.2144
 1278SOL    MW4 4880   1.969   0.208   4.877 -0.4130  0.1688 -0.1006
 1279SOL     OW 4881   1.857   3.399   2.165  0.0071 -0.2227  0.2086
 1279SOL    HW2 4882   1.804   3.451   2.226  0.6752  1.0699 -0.2754
 1279SOL    HW3 4883   1.875   3.459   2.092 -3.4355 -2.5426 -2.9324
 1279SOL    MW4 4884   1.852   3.414   2.163 -0.3589 -0.3582 -0.2697
 1280SOL     OW 4885   5.084   0.389   4.254 -0.1393 -0.3856  0.2949
 1280SOL    HW2 4886   5.118   0.477   4.237  0.0441 -0.4249  0.4464
 1280SOL    HW3 4887   5.144   0.330   4.208 -1.2782 -0.3555 -1.3147
 1280SOL    MW4 4888   5.097   0.393   4.246 -0.2654 -0.3868  0.1025
 1281SOL     OW 4889   0.908   3.566   2.455  0.0189 -0.4429  0.4939
 1281SOL    HW2 4890   0.865   3.524   2.529  0.1395 -0.6550  0.4434
 1281SOL    HW3 4891   0.844   3.630   2.423 -1.4735 -2.7194 -1.3967
 1281SOL    MW4 4892   0.894   3.569   2.461 -0.1621 -0.7712  0.2378
 1282SOL     OW 4893   5.611   0.203   0.789  0.2369 -0.0747 -0.0318
 1282SOL    HW2 4894   5.556   0.232   0.717  0.0190 -1.6533 -0.5407
 1282SOL    HW3 4895   5.653   0.283   0.822 -1.6830  1.0377 -0.1719
 1282SOL    MW4 4896   5.609   0.218   0.784 -0.0451 -0.1362 -0.1174
 1283SOL     OW 4897   3.831   1.907   4.560 -0.3596  0.2115  0.2640
 1283SOL    HW2 4898   3.899   1.908   4.628  0.0510 -1.8774 -0.0430
 1283SOL    HW3 4899   3.814   1.999   4.542  1.7952  0.8007  0.9480
 1283SOL    MW4 4900   3.838   1.919   4.567 -0.0212  0.0137  0.3138
 1284SOL     OW 4901   2.092   3.309   1.225 -0.4508 -0.5152 -0.5799
 1284SOL    HW2 4902   2.177   3.299   1.267 -0.2728  3.4384  0.4116
 1284SOL    HW3 4903   2.112   3.309   1.131  0.6398  0.2435 -0.3614
 1284SOL    MW4 4904   2.105   3.308   1.218 -0.2834  0.1065 -0.4203
 1285SOL     OW 4905   0.652   6.108   1.537  0.1460 -0.3313  0.6444
 1285SOL    HW2 4906   0.558   6.095   1.547 -0.3417  1.8369 -0.4074
 1285SOL    HW3 4907   0.684   6.027   1.499 -1.2276 -1.2306  1.3340
 1285SOL    MW4 4908   0.644   6.096   1.533 -0.0996 -0.1638  0.5966
 1286SOL     OW 4909   1.226   2.958   6.140  0.2163  0.3497 -0.2169
 1286SOL    HW2 4910   1.177   3.004   6.073  1.1965  0.8189 -0.6367
 1286SOL    HW3 4911   1.298   2.916   6.092  0.4357 -0.0241  0.4250
 1286SOL    MW4 4912   1.229   2.958   6.125  0.3746  0.3623 -0.1876
 1287SOL     OW 4913   0.731   1.046   3.007  0.1786 -0.5555  0.4145
 1287SOL    HW2 4914   0.648   1.079   3.040  0.6268  0.2952  0.7199
 1287SOL    HW3 4915   0.756   0.977   3.067 -0.6914 -1.3698 -0.1354
 1287SOL    MW4 4916   0.723   1.041   3.019  0.1229 -0.5507  0.3822
 1288SOL     OW 4917   5.608   1.907   2.928 -0.1268 -0.3339 -0.2772
 1288SOL    HW2 4918   5.513   1.903   2.913 -0.1541  0.3191 -0.3370
 1288SOL    HW3 4919   5.616   1.925   3.021 -0.0481 -0.8156 -0.1898
 1288SOL    MW4 4920   5.596   1.909   2.938 -0.1200 -0.3113 -0.2736
 1289SOL     OW 4921   1.059   1.154   5.325 -0.4054 -0.1159  0.3700
 1289SOL    HW2 4922   1.012   1.125   5.247  0.0587  0.3975 -0.1081
 1289SOL    HW3 4923   1.120   1.220   5.293  0.3329 -0.4491  1.0440
 1289SOL    MW4 4924   1.061   1.159   5.311 -0.2468 -0.0921  0.3959
 1290SOL     OW 4925   5.841   0.449   1.671 -0.1270  0.1700  0.0421
 1290SOL    HW2 4926   5.866   0.432   1.762 -0.8131  0.2006  0.2465
 1290SOL    HW3 4927   5.919   0.488   1.631 -0.3205  1.6617  1.0511
 1290SOL    MW4 4928   5.854   0.452   1.678 -0.2430  0.3709  0.2022
 1291SOL     OW 4929   4.446   5.144   1.334  0.3374 -0.3468 -0.3461
 1291SOL    HW2 4930   4.415   5.124   1.246 -0.1859  0.8106 -0.4461
 1291SOL    HW3 4931   4.368   5.171   1.381  0.2481 -2.8462  1.0915
 1291SOL    MW4 4932   4.432   5.145   1.328  0.2566 -0.5239 -0.1696
 1292SOL     OW 4933   5.109   5.644   0.188 -0.1203  0.0627  0.2393
 1292SOL    HW2 4934   5.095   5.728   0.232  1.2018  0.1247  0.5859
 1292SOL    HW3 4935   5.028   5.629   0.140  0.0083  2.0693 -0.7088
 1292SOL    MW4 4936   5.097   5.653   0.188  0.0711  0.3356  0.1599
 1293SOL     OW 4937   2.801   5.166   6.235 -0.2311  0.1113  0.0193
 1293SOL    HW2 4938   2.862   5.100   6.267 -0.2988  0.3873  0.7268
 1293SOL    HW3 4939   2.714   5.131   6.257 -0.3228 -0.0562 -0.5620
 1293SOL    MW4 4940   2.797   5.152   6.242 -0.2521  0.1257  0.0359
 1294SOL     OW 4941   4.487   3.941   0.650 -0.0408  1.0042 -0.6704
 1294SOL    HW2 4942   4.573   3.941   0.692  0.1675  0.4165 -1.0876
 1294SOL    HW3 4943   4.428   3.977   0.717 -0.0525 -1.6443  0.8727
 1294SOL    MW4 4944   4.491   3.946   0.665 -0.0148  0.5772 -0.5219
 1295SOL     OW 4945   3.065   1.332   0.330 -0.3771 -0.1521  0.4068
 1295SOL    HW2 4946   2.995   1.398   0.339 -1.9906 -1.8091  0.5990
 1295SOL    HW3 4947   3.066   1.287   0.414  1.0796 -0.0538  0.4656
 1295SOL    MW4 4948   3.056   1.335   0.342 -0.3978 -0.3578  0.4399
 1296SOL     OW 4949   5.934   1.779   1.417 -0.2305  0.3366 -0.4027
 1296SOL    HW2 4950   5.868   1.822   1.363  0.8250  1.7751 -0.6063
 1296SOL    HW3 4951   6.000   1.748   1.354 -0.6983 -1.1416 -0.2104
 1296SOL    MW4 4952   5.934   1.780   1.402 -0.1530  0.3313 -0.4042
 1297SOL     OW 4953   1.025   1.901   5.341  0.2883 -0.0321 -0.3924
 1297SOL    HW2 4954   1.109   1.883   5.300  0.2944 -0.8661 -0.0307
 1297SOL    HW3 4955   1.039   1.982   5.390  1.8447 -1.7105  2.1995
 1297SOL    MW4 4956   1.038   1.909   5.342  0.4944 -0.3636 -0.0027
 1298SOL     OW 4957   0.073   6.281   1.781 -0.1161  0.0577 -0.3392
 1298SOL    HW2 4958   0.093   6.244   1.695 -0.3241 -3.6320  1.0295
 1298SOL    HW3 4959   0.158   6.311   1.813  0.8118 -2.4419 -0.2373
 1298SOL    MW4 4960   0.087   6.280   1.774 -0.0211 -0.7589 -0.1452
 1299SOL     OW 4961   2.258   5.332   3.940  0.2015 -0.2913 -0.1631
 1299SOL    HW2 4962   2.247   5.290   3.855  3.3261 -1.7217 -0.0046
 1299SOL    HW3 4963   2.224   5.269   4.003  0.1290 -0.2866 -0.1970
 1299SOL    MW4 4964   2.252   5.318   3.937  0.6042 -0.4794 -0.1467
 1300SOL     OW 4965   5.374   0.550   0.362 -0.1484  0.1345 -0.0594
 1300SOL    HW2 4966   5.440   0.486   0.334  0.7850  1.3326 -0.7013
 1300SOL    HW3 4967   5.425   0.625   0.392 -1.2028  0.2394  1.5883
 1300SOL    MW4 4968   5.390   0.552   0.362 -0.1644  0.3064  0.0733
 1301SOL     OW 4969   5.333   5.248   2.561 -0.0163 -0.5705  0.1932
 1301SOL    HW2 4970   5.420   5.249   2.600 -0.4644  0.0970  1.1992
 1301SOL    HW3 4971   5.338   5.311   2.489  0.4752 -0.9447 -0.1113
 1301SOL    MW4 4972   5.345   5.256   2.556 -0.0106 -0.5318  0.2858
 1302SOL     OW 4973   1.943   5.409   1.138 -0.4436 -0.0058 -0.0080
 1302SOL    HW2 4974   1.965   5.320   1.166 -0.5625 -0.6171 -1.7273
 1302SOL    HW3 4975   1.965   5.464   1.213  0.6523 -1.3555  0.7081
 1302SOL    MW4 4976   1.949   5.405   1.151 -0.3147 -0.2645 -0.1404
 1303SOL     OW 4977   2.258   0.785   1.514 -0.6598 -0.4006 -0.1132
 1303SOL    HW2 4978   2.288   0.738   1.593  1.4514  0.5540 -0.2816
 1303SOL    HW3 4979   2.307   0.745   1.443  0.1419  1.1143 -0.4393
 1303SOL    MW4 4980   2.269   0.773   1.515 -0.2755 -0.0748 -0.1785
 1304SOL     OW 4981   5.768   1.377   0.750  0.5328 -0.1948 -0.1148
 1304SOL    HW2 4982   5.677   1.351   0.735  0.3976  0.4835 -0.5110
 1304SOL    HW3 4983   5.819   1.327   0.686  0.4794 -0.8136  0.3206
 1304SOL    MW4 4984   5.763   1.367   0.740  0.5079 -0.1870 -0.1096
 1305SOL     OW 4985   1.797   6.348   4.145 -0.2576  0.6798  0.1922
 1305SOL    HW2 4986   1.723   6.289   4.128 -0.5286  1.2982 -0.8392
 1305SOL    HW3 4987   1.757   6.426   4.182  0.0126  0.5850  0.7019
 1305SOL    MW4 4988   1.782   6.350   4.148 -0.2577  0.7489  0.1233
 1306SOL     OW 4989   0.429   1.148   1.133  0.0631  0.4725  0.4147
 1306SOL    HW2 4990   0.392   1.109   1.212  2.1408  0.5584  1.5029
 1306SOL    HW3 4991   0.490   1.214   1.166 -0.7419  2.1714 -1.3281
 1306SOL    MW4 4992   0.433   1.152   1.148  0.2310  0.7080  0.3283
 1307SOL     OW 4993   2.165   5.857   1.637 -0.5663  0.1269  0.1523
 1307SOL    HW2 4994   2.156   5.764   1.657  0.4316  0.2451  1.2905
 1307SOL    HW3 4995   2.076   5.892   1.641 -0.9557 -0.7702 -0.3331
 1307SOL    MW4 4996   2.152   5.849   1.640 -0.4860  0.0241  0.2385
 1308SOL     OW 4997   2.956   0.723   3.822 -0.1774  0.1422  0.0349
 1308SOL    HW2 4998   2.962   0.806   3.775 -3.7965 -0.3042 -1.5695
 1308SOL    HW3 4999   3.024   0.668   3.784 -0.1803  1.2146 -1.5980
 1308SOL    MW4 5000   2.966   0.727   3.811 -0.6553  0.2248 -0.3922
 1309SOL     OW 5001   1.680   6.198   2.732 -0.0089 -0.1320  0.2934
 1309SOL    HW2 5002   1.689   6.292   2.747 -1.4628  0.0630  0.0141
 1309SOL    HW3 5003   1.674   6.160   2.819  1.3469 -0.0772  0.4390
 1309SOL    MW4 5004   1.681   6.205   2.745 -0.0218 -0.0990  0.2757
 1310SOL     OW 5005   4.287   2.422   4.281 -0.2034 -0.5609  0.1985
 1310SOL    HW2 5006   4.276   2.418   4.376  1.2869  0.4044  0.4552
 1310SOL    HW3 5007   4.198   2.422   4.246 -0.7711 -1.1813  1.5778
 1310SOL    MW4 5008   4.274   2.422   4.289 -0.0817 -0.5154  0.4144
 1311SOL     OW 5009   2.573   0.114   3.509  0.1982  0.0884  0.4680
 1311SOL    HW2 5010   2.502   0.169   3.543  0.2380 -1.0323  2.5379
 1311SOL    HW3 5011   2.644   0.175   3.490 -0.8980  1.0978 -0.5414
 1311SOL    MW4 5012   2.573   0.129   3.511  0.0589  0.0737  0.6080
 1312SOL     OW 5013   1.524   5.153   6.326  0.3870 -0.2414 -0.5942
 1312SOL    HW2 5014   1.480   5.100   6.259  1.5433  0.8125 -2.2868
 1312SOL    HW3 5015   1.465   5.228   6.339  0.8263  0.3168 -1.6144
 1312SOL    MW4 5016   1.510   5.156   6.319  0.5975 -0.0287 -0.9522
 1313SOL     OW 5017   1.178   6.174   5.971  0.2685 -0.5779 -0.5632
 1313SOL    HW2 5018   1.111   6.148   6.033  0.9661  0.9624  0.9153
 1313SOL    HW3 5019   1.132   6.224   5.904 -0.1796 -0.2443 -0.0106
 1313SOL    MW4 5020   1.163   6.177   5.970  0.3014 -0.3306 -0.2953
 1314SOL     OW 5021   4.065   1.093   5.599  0.0244 -0.0326 -0.0314
 1314SOL    HW2 5022   4.079   1.167   5.658  0.5804  0.2499 -0.5149
 1314SOL    HW3 5023   4.109   1.020   5.643  1.5087  0.4518 -0.6754
 1314SOL    MW4 5024   4.072   1.093   5.613  0.2936  0.0686 -0.1801
 1315SOL     OW 5025   4.957   2.008   4.258  0.1343 -0.3314  0.3984
 1315SOL    HW2 5026   4.938   2.003   4.164 -0.9541  2.1086  0.4151
 1315SOL    HW3 5027   5.048   2.037   4.263  1.0146 -2.8515  0.1885
 1315SOL    MW4 5028   4.966   2.011   4.246  0.1069 -0.3420  0.3729
 1316SOL     OW 5029   0.301   6.184   1.112 -0.6737  0.2291  0.1232
 1316SOL    HW2 5030   0.245   6.254   1.144  1.8995  2.2519  0.4751
 1316SOL    HW3 5031   0.359   6.225   1.048  1.6216 -1.2774  1.0734
 1316SOL    MW4 5032   0.302   6.198   1.107 -0.0314  0.2972  0.2950
 1317SOL     OW 5033   4.373   3.826   4.696  0.0312  0.4327 -0.3885
 1317SOL    HW2 5034   4.455   3.779   4.682 -0.0540  0.9243 -2.9255
 1317SOL    HW3 5035   4.393   3.888   4.766  1.9293  0.7356 -1.1333
 1317SOL    MW4 5036   4.386   3.828   4.704  0.2704  0.5375 -0.8215
 1318SOL     OW 5037   0.322   3.985   2.846  0.2610 -0.2631 -0.3052
 1318SOL    HW2 5038   0.334   3.906   2.794 -1.2692 -0.0932 -0.9882
 1318SOL    HW3 5039   0.374   3.971   2.925 -0.9923 -2.5321  0.2130
 1318SOL    MW4 5040   0.330   3.973   2.849 -0.1062 -0.5400 -0.3269
 1319SOL     OW 5041   5.532   5.494   0.673 -0.5013  0.0751 -0.4011
 1319SOL    HW2 5042   5.514   5.447   0.592 -0.7736 -0.4021 -0.0698
 1319SOL    HW3 5043   5.496   5.582   0.658  1.2405  0.6401 -1.5368
 1319SOL    MW4 5044   5.525   5.499   0.660 -0.3074  0.0867 -0.5072
 1320SOL     OW 5045   1.820   5.188   2.932 -0.3647  0.4316  0.2382
 1320SOL    HW2 5046   1.915   5.191   2.922 -0.3066  1.6149  1.0164
 1320SOL    HW3 5047   1.798   5.094   2.927  0.8286  0.1524  0.0664
 1320SOL    MW4 5048   1.829   5.176   2.930 -0.1996  0.5509  0.3182
 1321SOL     OW 5049   2.441   1.534   3.639 -1.0235 -0.1188  0.6914
 1321SOL    HW2 5050   2.490   1.579   3.571  3.6349 -2.3641  2.1609
 1321SOL    HW3 5051   2.413   1.452   3.598 -1.8707  0.2804  0.4368
 1321SOL    MW4 5052   2.444   1.529   3.625 -0.5207 -0.3624  0.8517
 1322SOL     OW 5053   1.018   3.111   5.997  0.1005 -0.0312  0.2145
 1322SOL    HW2 5054   1.083   3.157   5.944  0.9415 -1.2750  0.1328
 1322SOL    HW3 5055   0.988   3.039   5.942 -0.1415 -0.4330  0.8568
 1322SOL    MW4 5056   1.023   3.108   5.983  0.1795 -0.2483  0.2884
 1323SOL     OW 5057   1.629   1.548   0.462 -0.2938  0.1337  0.0936
 1323SOL    HW2 5058   1.544   1.591   0.469 -0.1213  0.8136 -1.5292
 1323SOL    HW3 5059   1.620   1.468   0.513 -1.6211  0.6257  0.6668
 1323SOL    MW4 5060   1.617   1.543   0.469 -0.4462  0.2883 -0.0449
 1324SOL     OW 5061   0.497   3.709   3.686  0.2973  0.3026  0.1665
 1324SOL    HW2 5062   0.503   3.799   3.717 -0.1035  0.0718  0.9389
 1324SOL    HW3 5063   0.481   3.717   3.592 -0.3538  1.0459  0.3304
 1324SOL    MW4 5064   0.496   3.722   3.678  0.1585  0.3702  0.2900
 1325SOL     OW 5065   1.478   3.150   5.980  0.2427 -0.5842  0.0105
 1325SOL    HW2 5066   1.435   3.068   5.957  0.6749 -0.4379 -1.4376
 1325SOL    HW3 5067   1.423   3.218   5.941  0.7403 -0.2877 -0.1875
 1325SOL    MW4 5068   1.465   3.148   5.972  0.3653 -0.5257 -0.2066
 1326SOL     OW 5069   4.005   3.296   6.250 -0.1221 -0.3056  0.1383
 1326SOL    HW2 5070   3.930   3.245   6.281 -0.2022  0.3391  1.0627
 1326SOL    HW3 5071   4.017   3.364   6.317  0.8169  0.0615 -0.3800
 1326SOL    MW4 5072   3.997   3.299   6.263 -0.0088 -0.1721  0.1919
 1327SOL     OW 5073   3.329   3.348   0.723  0.5280 -0.3713 -0.8808
 1327SOL    HW2 5074   3.386   3.276   0.752 -0.6233 -1.0491 -0.2303
 1327SOL    HW3 5075   3.309   3.397   0.803  1.8430  1.1256 -1.4052
 1327SOL    MW4 5076   3.334   3.345   0.737  0.5496 -0.2632 -0.8642
 1328SOL     OW 5077   1.703   5.663   5.677 -0.1122 -0.6207  0.3736
 1328SOL    HW2 5078   1.788   5.621   5.665  0.3273  0.2489  0.3255
 1328SOL    HW3 5079   1.705   5.738   5.617 -0.8787 -0.5426  0.4359
 1328SOL    MW4 5080   1.714   5.667   5.667 -0.1553 -0.4957  0.3755
 1329SOL     OW 5081   3.702   2.881   1.962 -0.0261  0.4673  0.6557
 1329SOL    HW2 5082   3.642   2.956   1.966  0.9231  1.2757  0.2911
 1329SOL    HW3 5083   3.650   2.807   1.992 -1.9917  0.6415 -1.9321
 1329SOL    MW4 5084   3.688   2.882   1.966 -0.1602  0.5970  0.2662
 1330SOL     OW 5085   3.286   4.409   3.309 -0.2765 -0.1496  0.0125
 1330SOL    HW2 5086   3.241   4.493   3.297 -0.3784 -0.1604  0.3129
 1330SOL    HW3 5087   3.318   4.387   3.222 -0.4353  0.0964 -0.1107
 1330SOL    MW4 5088   3.285   4.417   3.296 -0.3109 -0.1186  0.0359
 1331SOL     OW 5089   1.226   3.811   1.179  0.0189  0.2030  0.6521
 1331SOL    HW2 5090   1.138   3.843   1.163 -0.2326  0.5196  2.3853
 1331SOL    HW3 5091   1.227   3.722   1.142 -1.3475 -0.1707  1.4252
 1331SOL    MW4 5092   1.215   3.803   1.172 -0.1945  0.1955  0.9828
 1332SOL     OW 5093   6.108   5.571   0.168  0.1683 -0.2131  0.4663
 1332SOL    HW2 5094   6.089   5.493   0.221 -0.6188  1.2909  2.4817
 1332SOL    HW3 5095   6.026   5.620   0.166  1.0629  1.3462  0.5548
 1332SOL    MW4 5096   6.095   5.567   0.175  0.1825  0.1911  0.7439
 1333SOL     OW 5097   3.570   1.086   4.931 -0.4104 -0.7991  0.6093
 1333SOL    HW2 5098   3.651   1.088   4.982  1.2587  1.7548 -1.8525
 1333SOL    HW3 5099   3.571   1.001   4.888  0.5427 -1.1168  1.2242
 1333SOL    MW4 5100   3.581   1.075   4.932 -0.0645 -0.5040  0.3656
 1334SOL     OW 5101   5.231   1.131   3.750 -0.1284 -0.0043 -0.4533
 1334SOL    HW2 5102   5.284   1.169   3.820 -1.4728  0.5655  0.2800
 1334SOL    HW3 5103   5.231   1.197   3.681  0.5265 -0.2305 -0.6860
 1334SOL    MW4 5104   5.238   1.144   3.750 -0.2194  0.0410 -0.3873
 1335SOL     OW 5105   6.245   3.826   4.171  0.7691  0.2489  0.0798
 1335SOL    HW2 5106   6.264   3.902   4.116  2.7948 -0.5765 -0.4595
 1335SOL    HW3 5107   6.242   3.860   4.260 -1.4528  1.4213 -0.3574
 1335SOL    MW4 5108   6.247   3.841   4.175  0.7432  0.2947 -0.0490
 1336SOL     OW 5109   0.130   4.587   1.081  0.3711 -0.2344 -0.3715
 1336SOL    HW2 5110   0.037   4.607   1.069 -0.4510 -2.2331  1.9873
 1336SOL    HW3 5111   0.165   4.661   1.131  1.0787  2.3137 -4.1562
 1336SOL    MW4 5112   0.123   4.600   1.086  0.3560 -0.1619 -0.5596
 1337SOL     OW 5113   2.666   3.245   4.617 -0.5818  0.3729  0.1696
 1337SOL    HW2 5114   2.640   3.322   4.565  0.1515 -1.4624 -3.2083
 1337SOL    HW3 5115   2.758   3.262   4.639 -0.2053  0.2295 -1.1784
 1337SOL    MW4 5116   2.675   3.258   4.613 -0.4354  0.1119 -0.4539
 1338SOL     OW 5117   5.735   4.894   1.914  0.6763  0.5372 -0.0420
 1338SOL    HW2 5118   5.688   4.875   1.996  0.6858 -1.2612 -0.4311
 1338SOL    HW3 5119   5.666   4.917   1.852  0.6191  1.2436  0.2632
 1338SOL    MW4 5120   5.720   4.895   1.917  0.6700  0.3931 -0.0531
 1339SOL     OW 5121   4.437   1.162   4.474  0.6190  0.0853  0.0831
 1339SOL    HW2 5122   4.426   1.142   4.568  2.3753  0.3550  0.3723
 1339SOL    HW3 5123   4.399   1.250   4.464 -2.0625 -0.9899 -0.0675
 1339SOL    MW4 5124   4.430   1.171   4.485  0.4970 -0.0209  0.1014
 1340SOL     OW 5125   2.930   6.214   6.367  0.4788  0.0264  0.2893
 1340SOL    HW2 5126   3.014   6.169   6.374  0.0339 -0.8037  0.3849
 1340SOL    HW3 5127   2.944   6.281   6.300  1.1760 -0.1855  0.2162
 1340SOL    MW4 5128   2.943   6.217   6.359  0.5121 -0.1111  0.2923
 1341SOL     OW 5129   2.508   3.877   5.876  0.0237 -0.1275  0.1816
 1341SOL    HW2 5130   2.428   3.928   5.864  0.2429 -0.0168 -0.8911
 1341SOL    HW3 5131   2.539   3.900   5.964 -0.2680  1.0424 -0.0104
 1341SOL    MW4 5132   2.502   3.887   5.886  0.0142  0.0415  0.0147
 1342SOL     OW 5133   6.355   5.625   4.719  0.2061  0.1457  0.1252
 1342SOL    HW2 5134   6.436   5.662   4.684  0.9679 -1.2758  0.3195
 1342SOL    HW3 5135   6.377   5.535   4.741 -1.2061 -0.0244  0.9836
 1342SOL    MW4 5136   6.368   5.618   4.718  0.1203 -0.0643  0.2641
 1343SOL     OW 5137   5.902   3.396   0.517 -0.0765 -0.6288  0.7309
 1343SOL    HW2 5138   5.816   3.418   0.482  0.9050 -0.4701 -1.7321
 1343SOL    HW3 5139   5.884   3.329   0.584 -2.0349 -1.1720 -0.2789
 1343SOL    MW4 5140   5.888   3.390   0.521 -0.2054 -0.6796  0.2727
 1344SOL     OW 5141   3.485   0.340   3.116 -0.3253  0.3008  0.0999
 1344SOL    HW2 5142   3.426   0.409   3.085 -0.3976 -0.0376 -0.5361
 1344SOL    HW3 5143   3.432   0.260   3.110  0.1631  0.0084 -0.3830
 1344SOL    MW4 5144   3.470   0.339   3.111 -0.2704  0.2176 -0.0478
 1345SOL     OW 5145   4.726   0.905   2.688  0.6614  0.1537 -0.2331
 1345SOL    HW2 5146   4.647   0.933   2.735 -0.2874  0.1287 -1.7334
 1345SOL    HW3 5147   4.757   0.984   2.643  1.5464  0.1798  0.4016
 1345SOL    MW4 5148   4.719   0.920   2.688  0.6530  0.1539 -0.3473
 1346SOL     OW 5149   4.020   0.858   1.946  0.3843  0.2236 -0.0344
 1346SOL    HW2 5150   3.979   0.939   1.914  0.7560  1.4833  2.4365
 1346SOL    HW3 5151   4.077   0.887   2.017  1.3169 -2.1358  0.2532
 1346SOL    MW4 5152   4.022   0.873   1.951  0.5563  0.0785  0.3295
 1347SOL     OW 5153   5.199   0.257   5.168  0.1985  0.2961  0.0302
 1347SOL    HW2 5154   5.236   0.345   5.181 -1.5590  0.9844  0.6619
 1347SOL    HW3 5155   5.106   0.267   5.185  0.2186 -2.1113  2.1027
 1347SOL    MW4 5156   5.192   0.270   5.172 -0.0307  0.0693  0.3870
 1348SOL     OW 5157   4.010   5.813   4.919  0.1594  0.2983  0.6584
 1348SOL    HW2 5158   3.982   5.722   4.927 -0.5620  0.5843  1.5310
 1348SOL    HW3 5159   3.976   5.842   4.835  1.2576 -0.5211 -0.0976
 1348SOL    MW4 5160   4.002   5.805   4.909  0.2091  0.2279  0.6738
 1349SOL     OW 5161   3.451   5.448   1.650 -0.4966  0.1662 -0.0065
 1349SOL    HW2 5162   3.474   5.383   1.716 -2.2510  0.0902  0.5893
 1349SOL    HW3 5163   3.524   5.447   1.588  0.0563 -1.5268  0.6260
 1349SOL    MW4 5164   3.464   5.439   1.650 -0.6552 -0.0672  0.1556
 1350SOL     OW 5165   2.213   0.569   0.917  0.8544 -0.3337  0.2577
 1350SOL    HW2 5166   2.165   0.582   0.999  0.9492  1.5078  0.0465
 1350SOL    HW3 5167   2.305   0.569   0.944  0.8439 -1.1501  0.3158
 1350SOL    MW4 5168   2.219   0.571   0.932  0.8655 -0.1985  0.2375
 1351SOL     OW 5169   3.019   5.921   1.523 -0.1477  0.2002  0.2059
 1351SOL    HW2 5170   2.985   5.987   1.463  0.9028  0.6251  0.0502
 1351SOL    HW3 5171   2.944   5.897   1.578 -0.1642  2.9451  1.5476
 1351SOL    MW4 5172   3.005   5.927   1.523 -0.0112  0.6184  0.3624
 1352SOL     OW 5173   2.438   3.109   6.215 -0.6365 -0.4208 -0.3365
 1352SOL    HW2 5174   2.429   3.178   6.282  0.7091 -0.0263 -0.5365
 1352SOL    HW3 5175   2.371   3.045   6.239 -0.5393 -0.0403  1.0842
 1352SOL    MW4 5176   2.428   3.110   6.227 -0.4461 -0.3186 -0.1754
 1353SOL     OW 5177   2.461   2.176   4.531  0.3336 -0.0194 -0.1929
 1353SOL    HW2 5178   2.406   2.176   4.453 -0.3114 -0.7520  0.2503
 1353SOL    HW3 5179   2.400   2.188   4.604  0.3504 -3.4835  0.5464
 1353SOL    MW4 5180   2.446   2.178   4.530  0.2507 -0.5731 -0.0369
 1354SOL     OW 5181   5.065   1.105   4.057  0.4348 -0.2833  0.0086
 1354SOL    HW2 5182   5.065   1.183   4.002  2.5678 -0.2387 -0.0121
 1354SOL    HW3 5183   5.001   1.125   4.126  0.9790  1.5277  0.0525
 1354SOL    MW4 5184   5.057   1.118   4.059  0.7880 -0.0385  0.0116
 1355SOL     OW 5185   2.630   0.437   2.214 -0.1045  0.3981  0.1066
 1355SOL    HW2 5186   2.551   0.384   2.208  0.3070 -0.2021 -0.1680
 1355SOL    HW3 5187   2.611   0.501   2.283 -1.0245  0.6302 -0.3473
 1355SOL    MW4 5188   2.617   0.438   2.223 -0.1716  0.3496  0.0105
 1356SOL     OW 5189   3.495   3.058   0.300 -0.5257  0.1693  0.1003
 1356SOL    HW2 5190   3.528   2.971   0.324 -0.9307  0.0267  0.1439
 1356SOL    HW3 5191   3.447   3.088   0.377  0.2965  0.7844  0.3920
 1356SOL    MW4 5192   3.493   3.051   0.313 -0.4707  0.2317  0.1446
 1357SOL     OW 5193   1.821   1.543   4.578 -0.4771  0.4288  0.4355
 1357SOL    HW2 5194   1.849   1.497   4.657  0.0819 -0.2744 -0.1534
 1357SOL    HW3 5195   1.882   1.617   4.571  0.1722 -0.1244  0.0904
 1357SOL    MW4 5196   1.833   1.547   4.587 -0.3177  0.2630  0.3122
 1358SOL     OW 5197   2.327   1.368   4.037 -0.8555  1.0230  0.0786
 1358SOL    HW2 5198   2.331   1.354   4.132  1.0015 -0.9392 -0.2233
 1358SOL    HW3 5199   2.270   1.298   4.005  2.1347 -1.2804 -0.6286
 1358SOL    MW4 5200   2.320   1.357   4.046 -0.2160  0.4602 -0.0545
 1359SOL     OW 5201   2.349   0.715   0.688  1.0454 -0.1760  0.2730
 1359SOL    HW2 5202   2.365   0.799   0.645 -0.6012 -1.0980 -2.3827
 1359SOL    HW3 5203   2.298   0.738   0.767  1.0128  1.3452 -0.1584
 1359SOL    MW4 5204   2.344   0.729   0.693  0.8239 -0.0969 -0.1343
 1360SOL     OW 5205   4.162   0.735   6.195 -0.3005 -0.3124  0.2402
 1360SOL    HW2 5206   4.257   0.743   6.193 -0.2975 -0.4084 -0.2176
 1360SOL    HW3 5207   4.135   0.742   6.103 -0.7657  0.0704  0.3986
 1360SOL    MW4 5208   4.171   0.737   6.183 -0.3615 -0.2746  0.2007
 1361SOL     OW 5209   3.966   0.052   4.237  0.2974  0.6228 -0.1856
 1361SOL    HW2 5210   4.054   0.065   4.273  0.7475 -1.0658 -0.5953
 1361SOL    HW3 5211   3.969  -0.035   4.197 -1.6682  0.3937  0.0737
 1361SOL    MW4 5212   3.978   0.042   4.237  0.0975  0.3698 -0.2054
 1362SOL     OW 5213   2.693   2.964   4.518 -0.4594 -0.1423 -0.1565
 1362SOL    HW2 5214   2.721   2.980   4.608  0.6448  1.3572 -0.7255
 1362SOL    HW3 5215   2.660   3.049   4.488  2.0850  0.2689 -2.1231
 1362SOL    MW4 5216   2.692   2.977   4.526  0.0220  0.1098 -0.4911
 1363SOL     OW 5217   2.281   1.383   0.192  0.3544 -0.1191 -0.5159
 1363SOL    HW2 5218   2.263   1.324   0.119  0.8996 -1.3186  0.2812
 1363SOL    HW3 5219   2.376   1.376   0.204  0.1700 -0.5401  0.7873
 1363SOL    MW4 5220   2.292   1.375   0.184  0.4020 -0.3329 -0.2388
 1364SOL     OW 5221   6.382   0.142   1.033  0.0975  0.0345 -0.2401
 1364SOL    HW2 5222   6.386   0.149   0.938  0.6589 -3.5560 -0.6094
 1364SOL    HW3 5223   6.305   0.193   1.058 -1.3500 -0.6804 -2.8777
 1364SOL    MW4 5224   6.373   0.150   1.024 -0.0194 -0.5336 -0.6369
 1365SOL     OW 5225   1.524   5.560   0.102  0.4862  0.0550  0.4779
 1365SOL    HW2 5226   1.462   5.607   0.158  0.6555  1.5922 -0.5752
 1365SOL    HW3 5227   1.579   5.628   0.064  0.3234 -0.9104 -1.6364
 1365SOL    MW4 5228   1.523   5.575   0.104  0.4871  0.1304  0.0600
 1366SOL     OW 5229   1.368   4.711   1.391  0.2752  0.5780  0.0027
 1366SOL    HW2 5230   1.281   4.752   1.391  0.2887  0.6081  0.4421
 1366SOL    HW3 5231   1.413   4.751   1.465  0.3224 -0.1751  0.3896
 1366SOL    MW4 5232   1.362   4.722   1.401  0.2832  0.4826  0.1117
 1367SOL     OW 5233   5.270   3.267   5.632 -0.3075  0.5660 -0.0534
 1367SOL    HW2 5234   5.304   3.199   5.574 -1.2509 -0.8374  0.9953
 1367SOL    HW3 5235   5.208   3.222   5.689  1.2619  1.6582  2.7213
 1367SOL    MW4 5236   5.266   3.252   5.632 -0.2249  0.5249  0.4511
 1368SOL     OW 5237   6.107   4.371   5.719 -0.7487 -0.7748 -0.5825
 1368SOL    HW2 5238   6.196   4.396   5.693 -0.5721 -0.3815  0.3587
 1368SOL    HW3 5239   6.067   4.452   5.748 -1.2041 -1.0624 -0.4009
 1368SOL    MW4 5240   6.114   4.385   5.719 -0.7855 -0.7609 -0.4343
 1369SOL     OW 5241   4.183   1.117   5.147 -0.4118  0.1669 -0.0193
 1369SOL    HW2 5242   4.249   1.185   5.131  0.7958 -0.4060  2.0458
 1369SOL    HW3 5243   4.104   1.166   5.172 -0.0030  0.8484 -0.0320
 1369SOL    MW4 5244   4.181   1.132   5.148 -0.1985  0.1812  0.2515
 1370SOL     OW 5245   3.785   0.684   3.973  0.2502 -0.3677 -0.4076
 1370SOL    HW2 5246   3.844   0.611   3.952 -1.0381 -2.5098  2.6104
 1370SOL    HW3 5247   3.820   0.719   4.055  0.1486  1.7101 -1.2009
 1370SOL    MW4 5248   3.798   0.679   3.981  0.0668 -0.3761 -0.1141
 1371SOL     OW 5249   2.385   3.771   4.260  0.8435 -0.5240  0.5510
 1371SOL    HW2 5250   2.339   3.835   4.314  0.5314  0.9482 -1.3558
 1371SOL    HW3 5251   2.431   3.823   4.195  1.4316 -2.2029 -0.4464
 1371SOL    MW4 5252   2.385   3.786   4.259  0.8799 -0.5512  0.1679
 1372SOL     OW 5253   4.521   2.073   0.432 -0.0699  0.4423 -0.3496
 1372SOL    HW2 5254   4.444   2.058   0.486 -0.3455  3.1099  0.1409
 1372SOL    HW3 5255   4.593   2.033   0.481 -0.9284 -0.9929 -0.2110
 1372SOL    MW4 5256   4.520   2.065   0.446 -0.2195  0.6049 -0.2666
 1373SOL     OW 5257   3.982   1.077   1.201  0.2138 -0.0138  0.2575
 1373SOL    HW2 5258   4.075   1.098   1.209 -0.0916  1.2137  0.9071
 1373SOL    HW3 5259   3.942   1.115   1.280 -0.9181 -0.0151 -0.2857
 1373SOL    MW4 5260   3.989   1.085   1.213  0.0241  0.1480  0.2715
 1374SOL     OW 5261   5.699   2.960   4.172 -0.1828  0.0164  0.8201
 1374SOL    HW2 5262   5.620   2.917   4.137  0.4550  1.0015 -2.1377
 1374SOL    HW3 5263   5.671   3.051   4.186  0.0176 -0.0044  1.3654
 1374SOL    MW4 5264   5.685   2.966   4.169 -0.0722  0.1436  0.5018
 1375SOL     OW 5265   0.363   1.946   2.637  0.4355 -0.5045  0.3533
 1375SOL    HW2 5266   0.335   1.854   2.630  1.8230 -0.9225  0.0277
 1375SOL    HW3 5267   0.371   1.976   2.547  0.2951 -0.1559  0.4567
 1375SOL    MW4 5268   0.360   1.938   2.624  0.6001 -0.5136  0.3240
 1376SOL     OW 5269   0.837   2.678   6.027  0.5616 -0.1374 -0.7245
 1376SOL    HW2 5270   0.776   2.627   5.974 -0.5113  0.6248 -0.2676
 1376SOL    HW3 5271   0.786   2.704   6.104  1.1955  1.2145 -0.7212
 1376SOL    MW4 5272   0.822   2.675   6.030  0.5037  0.1415 -0.6637
 1377SOL     OW 5273   6.017   0.961   1.509 -0.2961  0.4773  0.4842
 1377SOL    HW2 5274   5.946   1.024   1.519 -0.1728  0.4584  1.6863
 1377SOL    HW3 5275   6.049   0.974   1.420 -3.6481 -1.4451 -1.1965
 1377SOL    MW4 5276   6.012   0.971   1.499 -0.7221  0.2211  0.4211
 1378SOL     OW 5277   1.299   0.725   1.871 -0.2882  0.4273  0.2242
 1378SOL    HW2 5278   1.342   0.716   1.956 -0.8145  1.0140  0.5577
 1378SOL    HW3 5279   1.339   0.803   1.833  1.4540 -0.9595 -0.9918
 1378SOL    MW4 5280   1.310   0.734   1.877 -0.1278  0.3217  0.1077
 1379SOL     OW 5281   0.294   5.631   3.690 -0.1217 -0.5488 -0.0421
 1379SOL    HW2 5282   0.328   5.554   3.645 -2.5863 -2.6059  1.3826
 1379SOL    HW3 5283   0.372   5.673   3.727  1.4862 -1.2063 -2.4442
 1379SOL    MW4 5284   0.309   5.626   3.689 -0.2347 -0.9070 -0.1710
 1380SOL     OW 5285   6.014   0.053   4.098 -0.7006 -0.0727 -0.3609
 1380SOL    HW2 5286   6.069  -0.025   4.088  0.6668  0.7699  0.2880
 1380SOL    HW3 5287   6.068   0.115   4.147 -2.8346  0.2271  1.8013
 1380SOL    MW4 5288   6.028   0.051   4.103 -0.8017  0.0780  0.0100
 1381SOL     OW 5289   3.372   0.730   5.501  0.9017 -0.0306  0.4513
 1381SOL    HW2 5290   3.427   0.775   5.566 -0.1439 -0.3007  1.5678
 1381SOL    HW3 5291   3.411   0.752   5.417  0.6486  2.7012  0.9529
 1381SOL    MW4 5292   3.384   0.739   5.499  0.7304  0.2942  0.6648
 1382SOL     OW 5293   5.051   5.206   1.908 -0.2740  0.2389  0.5073
 1382SOL    HW2 5294   5.028   5.192   2.000  0.7833  0.0053  0.7454
 1382SOL    HW3 5295   5.052   5.118   1.870  2.2695 -0.0243  1.0169
 1382SOL    MW4 5296   5.048   5.193   1.915  0.2011  0.1733  0.6060
 1383SOL     OW 5297   4.840   2.410   4.870 -0.1520 -0.3301 -0.0543
 1383SOL    HW2 5298   4.905   2.428   4.938 -1.0844 -0.2580  0.8491
 1383SOL    HW3 5299   4.763   2.461   4.896 -0.7138 -0.7411 -0.8643
 1383SOL    MW4 5300   4.838   2.419   4.883 -0.3492 -0.3748 -0.0420
 1384SOL     OW 5301   1.451   0.171   1.622  0.2230 -0.1564  0.4673
 1384SOL    HW2 5302   1.510   0.149   1.695 -0.8603 -0.2913  1.3365
 1384SOL    HW3 5303   1.461   0.098   1.561  0.2880 -0.6408  1.0401
 1384SOL    MW4 5304   1.460   0.158   1.624  0.0887 -0.2381  0.6575
 1385SOL     OW 5305   2.401   4.710   0.217 -0.0086  0.5825 -0.3740
 1385SOL    HW2 5306   2.368   4.620   0.207 -0.2136  0.5773  0.2978
 1385SOL    HW3 5307   2.453   4.725   0.138 -0.1014 -0.0723 -0.5696
 1385SOL    MW4 5308   2.403   4.700   0.205 -0.0479  0.4954 -0.3111
 1386SOL     OW 5309   5.487   1.442   2.745 -0.0071  0.1948  0.6621
 1386SOL    HW2 5310   5.452   1.464   2.659 -1.2122 -0.9821  0.8238
 1386SOL    HW3 5311   5.581   1.432   2.730  0.2457  2.7514  0.0926
 1386SOL    MW4 5312   5.495   1.443   2.732 -0.1327  0.3768  0.6083
 1387SOL     OW 5313   0.132   1.841   2.902 -0.2158 -0.3815 -0.0265
 1387SOL    HW2 5314   0.211   1.791   2.879 -0.6306 -1.3001  0.5148
 1387SOL    HW3 5315   0.063   1.776   2.908 -0.9921  0.3986 -0.3238
 1387SOL    MW4 5316   0.133   1.826   2.900 -0.3730 -0.3998  0.0057
 1388SOL     OW 5317   5.447   2.465   1.409  0.4260 -0.5884  0.3540
 1388SOL    HW2 5318   5.525   2.450   1.462 -0.2071 -2.2234  0.8958
 1388SOL    HW3 5319   5.436   2.383   1.360 -0.0931  0.1828 -0.8771
 1388SOL    MW4 5320   5.456   2.452   1.409  0.2740 -0.7024  0.2631
 1389SOL     OW 5321   4.985   3.615   1.987 -0.3583  0.6798 -0.1339
 1389SOL    HW2 5322   4.946   3.555   2.051 -0.5320  1.5070  0.5555
 1389SOL    HW3 5323   5.078   3.590   1.984 -0.6760 -0.4824 -0.8543
 1389SOL    MW4 5324   4.992   3.604   1.995 -0.4232  0.6356 -0.1380
 1390SOL     OW 5325   2.594   6.159   3.904 -0.5758  0.2693 -0.0804
 1390SOL    HW2 5326   2.564   6.149   3.814  0.9768  1.6228 -0.7903
 1390SOL    HW3 5327   2.514   6.180   3.953 -1.1012  2.1658 -1.6201
 1390SOL    MW4 5328   2.579   6.161   3.899 -0.4403  0.6981 -0.3772
 1391SOL     OW 5329   2.946   4.225   5.447  0.4958  0.2659 -0.0164
 1391SOL    HW2 5330   2.873   4.195   5.393  0.8837 -0.8510  0.0695
 1391SOL    HW3 5331   2.939   4.173   5.527  1.5365 -0.0299 -0.1121
 1391SOL    MW4 5332   2.935   4.214   5.450  0.6843  0.0795 -0.0177
 1392SOL     OW 5333   4.353   1.220   0.763  0.5597  0.5659 -0.1792
 1392SOL    HW2 5334   4.418   1.164   0.720 -2.8203 -2.8350 -1.4993
 1392SOL    HW3 5335   4.351   1.299   0.710  1.4142 -0.5886 -2.0670
 1392SOL    MW4 5336   4.361   1.223   0.750  0.2265 -0.0351 -0.6024
 1393SOL     OW 5337   3.376   2.478   5.670 -0.0249 -0.2479 -0.1293
 1393SOL    HW2 5338   3.353   2.400   5.620  0.1228 -0.6177  0.3789
 1393SOL    HW3 5339   3.355   2.551   5.611 -0.3801 -0.6570 -0.5151
 1393SOL    MW4 5340   3.370   2.477   5.655 -0.0523 -0.3507 -0.1131
 1394SOL     OW 5341   1.129   5.660   1.978  0.9997  0.6192 -0.1840
 1394SOL    HW2 5342   1.058   5.597   1.985  0.0257  1.7026 -0.0275
 1394SOL    HW3 5343   1.188   5.638   2.049  0.1906  0.4593  0.4481
 1394SOL    MW4 5344   1.127   5.649   1.988  0.7645  0.7410 -0.0800
 1395SOL     OW 5345   4.778   2.031   2.542  0.6503 -0.5005 -0.4381
 1395SOL    HW2 5346   4.805   1.996   2.626  1.0047 -0.7155 -0.6391
 1395SOL    HW3 5347   4.741   2.117   2.561  0.0140 -0.8689  0.0333
 1395SOL    MW4 5348   4.776   2.038   2.555  0.6131 -0.5775 -0.4024
 1396SOL     OW 5349   5.519   0.273   6.285 -0.6053  0.1550 -0.2354
 1396SOL    HW2 5350   5.574   0.228   6.221  1.0636 -1.1548  1.9750
 1396SOL    HW3 5351   5.579   0.293   6.357 -2.0108  3.1011  0.2649
 1396SOL    MW4 5352   5.534   0.270   6.286 -0.5705  0.3709  0.1223
 1397SOL     OW 5353   3.729   2.493   4.760 -0.1426  0.4744  0.6001
 1397SOL    HW2 5354   3.678   2.491   4.679  0.0694 -0.0252  0.4739
 1397SOL    HW3 5355   3.788   2.568   4.750  0.2426  0.1015  0.0675
 1397SOL    MW4 5356   3.730   2.503   4.748 -0.0638  0.3593  0.5132
 1398SOL     OW 5357   4.749   5.684   1.165 -0.2356  0.0312 -0.4428
 1398SOL    HW2 5358   4.795   5.625   1.224 -0.5604 -0.2133 -0.4347
 1398SOL    HW3 5359   4.656   5.668   1.182 -0.3977  2.0509  1.1431
 1398SOL    MW4 5360   4.743   5.674   1.175 -0.2998  0.2654 -0.2325
 1399SOL     OW 5361   5.897   4.474   3.501  0.1464 -0.3031 -0.3087
 1399SOL    HW2 5362   5.941   4.413   3.561  1.9940  0.9073 -0.3364
 1399SOL    HW3 5363   5.804   4.451   3.506  0.8520 -4.2478 -1.6011
 1399SOL    MW4 5364   5.891   4.463   3.509  0.4833 -0.6639 -0.4829
 1400SOL     OW 5365   5.243   1.899   0.758  0.3662  0.3464 -0.2817
 1400SOL    HW2 5366   5.241   1.836   0.829 -1.1130  0.0289 -0.5755
 1400SOL    HW3 5367   5.226   1.983   0.800 -0.5109  0.1586 -0.2610
 1400SOL    MW4 5368   5.241   1.902   0.773  0.0553  0.2797 -0.3177
 1401SOL     OW 5369   4.176   4.530   4.948  0.0989  0.2114  0.0907
 1401SOL    HW2 5370   4.083   4.551   4.958 -0.0623 -0.8561  0.9920
 1401SOL    HW3 5371   4.179   4.457   4.887  0.1784 -0.8554  1.3119
 1401SOL    MW4 5372   4.164   4.523   4.942  0.0881 -0.0702  0.3707
 1402SOL     OW 5373   2.975   3.686   3.853 -0.0940  0.5491 -0.2669
 1402SOL    HW2 5374   3.029   3.738   3.793  0.2637  0.2935 -0.1730
 1402SOL    HW3 5375   2.933   3.621   3.797 -0.4674  0.8744 -0.3704
 1402SOL    MW4 5376   2.977   3.685   3.838 -0.0961  0.5583 -0.2682
 1403SOL     OW 5377   4.997   2.612   1.042  0.5530  0.2514 -0.6032
 1403SOL    HW2 5378   5.047   2.688   1.013  1.0937  0.4831  0.8663
 1403SOL    HW3 5379   4.981   2.562   0.962  1.4077  1.1887 -1.3845
 1403SOL    MW4 5380   5.001   2.615   1.027  0.7371  0.4056 -0.5124
 1404SOL     OW 5381   3.655   3.176   5.787  0.1778 -0.1813 -0.1011
 1404SOL    HW2 5382   3.578   3.229   5.765 -0.3615  0.0732  2.1344
 1404SOL    HW3 5383   3.648   3.161   5.881  2.2221 -1.2321 -0.0493
 1404SOL    MW4 5384   3.644   3.181   5.796  0.3763 -0.2863  0.2007
 1405SOL     OW 5385   0.272   4.414   4.475  0.1823 -0.1322  0.1882
 1405SOL    HW2 5386   0.308   4.421   4.387  0.4452  0.0617  0.3090
 1405SOL    HW3 5387   0.177   4.415   4.463  0.1741  1.9671  0.0310
 1405SOL    MW4 5388   0.264   4.415   4.462  0.2159  0.1704  0.1834
 1406SOL     OW 5389   2.921   3.834   0.419 -0.0527  0.3122 -0.3248
 1406SOL    HW2 5390   2.919   3.902   0.352  0.4276 -0.1728 -0.8408
 1406SOL    HW3 5391   2.890   3.755   0.375 -0.6112  0.1887  0.2692
 1406SOL    MW4 5392   2.917   3.833   0.405 -0.0630  0.2319 -0.3145
 1407SOL     OW 5393   6.171   3.953   5.729  0.6004 -0.4511 -0.4387
 1407SOL    HW2 5394   6.076   3.949   5.722  0.7012 -2.0092 -1.3343
 1407SOL    HW3 5395   6.189   3.932   5.821  0.1451 -2.3777 -0.7510
 1407SOL    MW4 5396   6.161   3.950   5.740  0.5536 -0.9109 -0.5981
 1408SOL     OW 5397   4.039   0.535   1.595 -0.4608 -0.3038 -0.9746
 1408SOL    HW2 5398   4.060   0.599   1.528 -1.6025  1.1062 -0.0570
 1408SOL    HW3 5399   3.947   0.513   1.580 -0.0726 -1.8187 -1.3145
 1408SOL    MW4 5400   4.029   0.540   1.584 -0.5602 -0.3176 -0.8984
 1409SOL     OW 5401   0.806   3.743   5.591 -0.6308  0.0353  0.0363
 1409SOL    HW2 5402   0.724   3.762   5.636  0.0950 -0.9094  1.8773
 1409SOL    HW3 5403   0.874   3.775   5.651  0.3594 -0.3071 -0.8853
 1409SOL    MW4 5404   0.805   3.750   5.605 -0.4044 -0.1345  0.1576
 1410SOL     OW 5405   4.034   6.193   6.102 -0.0922  0.3765 -0.0992
 1410SOL    HW2 5406   4.085   6.250   6.044  0.0253 -0.9843 -1.4096
 1410SOL    HW3 5407   4.055   6.104   6.072 -1.4062 -0.3045  0.9000
 1410SOL    MW4 5408   4.043   6.189   6.090 -0.2501  0.1071 -0.1403
 1411SOL     OW 5409   3.741   0.763   3.384 -0.5683  0.0683 -0.2582
 1411SOL    HW2 5410   3.705   0.838   3.336 -0.5459  0.8209  0.8700
 1411SOL    HW3 5411   3.742   0.692   3.320  0.0558  1.2013 -1.5614
 1411SOL    MW4 5412   3.736   0.763   3.369 -0.4830  0.3171 -0.2813
 1412SOL     OW 5413   4.213   5.548   2.365  0.1910 -0.2717 -0.4789
 1412SOL    HW2 5414   4.183   5.630   2.405  2.2290  0.0597  0.4894
 1412SOL    HW3 5415   4.209   5.484   2.435  0.9053 -0.4024 -0.5446
 1412SOL    MW4 5416   4.209   5.550   2.380  0.5541 -0.2452 -0.3598
 1413SOL     OW 5417   1.477   6.366   3.880 -0.0020 -0.5344  0.2835
 1413SOL    HW2 5418   1.423   6.444   3.891 -0.6528 -0.7561 -1.0295
 1413SOL    HW3 5419   1.566   6.399   3.872 -0.5126  0.4161 -3.0037
 1413SOL    MW4 5420   1.481   6.381   3.880 -0.1553 -0.4383 -0.3234
 1414SOL     OW 5421   4.190   5.470   0.551  0.0329 -0.2355  0.1020
 1414SOL    HW2 5422   4.240   5.393   0.577  0.8808  0.0370 -0.6748
 1414SOL    HW3 5423   4.130   5.438   0.484 -0.2267 -0.3872  0.4046
 1414SOL    MW4 5424   4.188   5.456   0.545  0.1105 -0.2195  0.0395
 1415SOL     OW 5425   1.150   2.618   3.987 -0.0736 -0.5065 -0.1402
 1415SOL    HW2 5426   1.158   2.605   3.893  0.0703  1.0474 -0.3630
 1415SOL    HW3 5427   1.198   2.545   4.026 -0.7885 -1.6065 -1.2351
 1415SOL    MW4 5428   1.157   2.607   3.980 -0.1489 -0.4466 -0.3141
 1416SOL     OW 5429   2.646   1.711   2.023  0.4775  0.7760 -0.2821
 1416SOL    HW2 5430   2.589   1.788   2.014 -0.3449  0.3587  1.0386
 1416SOL    HW3 5431   2.656   1.699   2.117 -0.6678 -1.6296 -0.3882
 1416SOL    MW4 5432   2.640   1.720   2.034  0.2179  0.4036 -0.1218
 1417SOL     OW 5433   2.200   5.254   3.676  0.1331 -0.0343  0.1787
 1417SOL    HW2 5434   2.213   5.165   3.646 -1.2476 -0.4934  0.8402
 1417SOL    HW3 5435   2.282   5.299   3.657  1.4826 -1.8822  1.4216
 1417SOL    MW4 5436   2.212   5.248   3.669  0.1290 -0.3387  0.4300
 1418SOL     OW 5437   3.345   5.424   3.101 -0.1433  0.4200  0.3028
 1418SOL    HW2 5438   3.377   5.514   3.098  2.8778 -0.4621  1.6811
 1418SOL    HW3 5439   3.328   5.401   3.010  0.3487  1.9438 -0.1983
 1418SOL    MW4 5440   3.347   5.433   3.089  0.3202  0.5047  0.4185
 1419SOL     OW 5441   4.278   3.673   1.460  0.5629 -0.4454 -0.5028
 1419SOL    HW2 5442   4.277   3.661   1.365 -2.7355  0.9899 -0.7808
 1419SOL    HW3 5443   4.361   3.719   1.477  2.7047 -3.3476 -2.1426
 1419SOL    MW4 5444   4.289   3.677   1.450  0.4103 -0.6390 -0.7558
 1420SOL     OW 5445   1.598   4.062   1.174  0.1239  0.4978 -0.4899
 1420SOL    HW2 5446   1.603   4.146   1.219 -0.0675 -0.5058  1.5349
 1420SOL    HW3 5447   1.684   4.022   1.187 -0.2288 -0.1924 -0.1898
 1420SOL    MW4 5448   1.610   4.068   1.182  0.0521  0.2743 -0.1831
 1421SOL     OW 5449   4.984   4.540   4.351 -0.0203  0.0699 -0.3233
 1421SOL    HW2 5450   4.932   4.514   4.275 -1.0158 -0.4897  0.5287
 1421SOL    HW3 5451   5.010   4.630   4.332 -3.3032  1.2705  0.2116
 1421SOL    MW4 5452   4.980   4.548   4.338 -0.5847  0.1545 -0.1403
 1422SOL     OW 5453   0.967   5.146   3.706 -1.0070 -0.5480  0.2077
 1422SOL    HW2 5454   1.060   5.130   3.688 -1.2735 -2.4527  0.2687
 1422SOL    HW3 5455   0.926   5.144   3.620 -1.2483 -1.9539  0.3202
 1422SOL    MW4 5456   0.974   5.143   3.693 -1.0740 -0.9848  0.2306
 1423SOL     OW 5457   5.384   3.696   3.774  0.2345 -0.3766  0.0449
 1423SOL    HW2 5458   5.300   3.705   3.820  1.3218  1.1527  1.9136
 1423SOL    HW3 5459   5.447   3.739   3.832  1.7467  1.8270 -2.9885
 1423SOL    MW4 5460   5.381   3.703   3.788  0.5775  0.1159 -0.1087
 1424SOL     OW 5461   3.394   6.136   2.635 -0.2779 -0.0143  0.0507
 1424SOL    HW2 5462   3.486   6.108   2.630 -0.4171 -0.4863  0.1289
 1424SOL    HW3 5463   3.368   6.116   2.725 -0.4872  0.0309 -0.0007
 1424SOL    MW4 5464   3.403   6.130   2.646 -0.3239 -0.0706  0.0542
 1425SOL     OW 5465   0.293   0.102   3.777  0.2207  0.2339  0.2225
 1425SOL    HW2 5466   0.320   0.165   3.709 -0.4313  0.3989  0.1091
 1425SOL    HW3 5467   0.375   0.073   3.817  0.4946  2.7126  1.6880
 1425SOL    MW4 5468   0.307   0.107   3.773  0.1708  0.5827  0.4009
 1426SOL     OW 5469   5.301   1.500   1.944  0.0337 -0.0192  0.2973
 1426SOL    HW2 5470   5.378   1.556   1.942  1.0273 -1.3017  0.6611
 1426SOL    HW3 5471   5.248   1.534   2.016 -0.3386  1.5883 -0.6867
 1426SOL    MW4 5472   5.304   1.512   1.953  0.1157  0.0236  0.2155
 1427SOL     OW 5473   3.542   1.798   3.433  0.0965 -0.1378 -0.5028
 1427SOL    HW2 5474   3.598   1.801   3.511  1.0879  0.1674 -1.2135
 1427SOL    HW3 5475   3.601   1.781   3.361 -0.7647 -0.0398 -1.2541
 1427SOL    MW4 5476   3.557   1.796   3.434  0.1137 -0.0846 -0.6957
 1428SOL     OW 5477   6.089   5.958   2.666  0.0393  0.7292  0.0624
 1428SOL    HW2 5478   6.170   5.939   2.619 -0.3742  0.6632 -0.6335
 1428SOL    HW3 5479   6.062   6.044   2.634  0.8541  1.6667  1.7393
 1428SOL    MW4 5480   6.097   5.967   2.655  0.0922  0.8442  0.1919
 1429SOL     OW 5481   3.035   5.654   3.054 -1.0269  0.7145  0.1216
 1429SOL    HW2 5482   2.986   5.637   3.134 -2.1996  0.2393 -0.6646
 1429SOL    HW3 5483   3.005   5.741   3.026  0.2315  1.3813  0.7826
 1429SOL    MW4 5484   3.024   5.663   3.061 -1.0156  0.7398  0.1051
 1430SOL     OW 5485   1.306   0.071   5.151  0.0925  0.2724 -0.3519
 1430SOL    HW2 5486   1.214   0.069   5.177  1.1845 -1.7068  4.2994
 1430SOL    HW3 5487   1.340   0.152   5.190  1.1036 -1.1776  2.0113
 1430SOL    MW4 5488   1.299   0.082   5.160  0.3700 -0.1800  0.5736
 1431SOL     OW 5489   5.869   3.191   2.438 -0.1309  0.6642  0.0001
 1431SOL    HW2 5490   5.940   3.164   2.497 -0.6803  0.7155  0.7019
 1431SOL    HW3 5491   5.908   3.187   2.351  0.7685  0.7994  0.3799
 1431SOL    MW4 5492   5.884   3.187   2.435 -0.0848  0.6888  0.1428
 1432SOL     OW 5493   1.552   3.060   1.574  0.9175 -0.0103  0.0846
 1432SOL    HW2 5494   1.618   3.028   1.635  1.1526 -0.9934 -0.6583
 1432SOL    HW3 5495   1.601   3.086   1.497  0.7299  2.1795  0.6385
 1432SOL    MW4 5496   1.567   3.059   1.572  0.9238  0.1489  0.0597
 1433SOL     OW 5497   2.113   4.761   1.504 -0.7305 -0.5299  0.0451
 1433SOL    HW2 5498   2.117   4.813   1.424  1.2770 -1.0156 -0.2265
 1433SOL    HW3 5499   2.188   4.789   1.555 -1.2087 -1.1968  1.1533
 1433SOL    MW4 5500   2.123   4.771   1.500 -0.5288 -0.6820  0.1554
 1434SOL     OW 5501   6.333   1.507   6.254  0.3940 -0.0274  0.2412
 1434SOL    HW2 5502   6.389   1.476   6.183 -1.3728 -1.3334 -0.6681
 1434SOL    HW3 5503   6.335   1.437   6.319 -0.0916 -0.0460  0.2413
 1434SOL    MW4 5504   6.341   1.493   6.253  0.0968 -0.2022  0.1213
 1435SOL     OW 5505   2.026   5.423   6.194  0.2580 -0.0334 -0.0269
 1435SOL    HW2 5506   2.093   5.480   6.157 -0.5903  0.5034 -0.7791
 1435SOL    HW3 5507   1.952   5.430   6.133 -0.1280 -1.3826  0.2482
 1435SOL    MW4 5508   2.025   5.431   6.181  0.0952 -0.1406 -0.0898
 1436SOL     OW 5509   1.828   2.637   4.172  0.1324  0.7878  0.0538
 1436SOL    HW2 5510   1.814   2.618   4.265  2.1393  1.2543  0.5092
 1436SOL    HW3 5511   1.792   2.724   4.159 -2.0594 -0.0827 -0.1666
 1436SOL    MW4 5512   1.822   2.646   4.183  0.1080  0.7345  0.0848
 1437SOL     OW 5513   0.158   5.265   2.607 -0.4958  0.2492 -0.0899
 1437SOL    HW2 5514   0.154   5.224   2.693 -0.9264  0.8399  0.1813
 1437SOL    HW3 5515   0.147   5.193   2.545 -1.2464 -0.0467  0.3759
 1437SOL    MW4 5516   0.156   5.250   2.610 -0.6516  0.2881  0.0073
 1438SOL     OW 5517   6.367   3.067   6.238  0.6058  0.2045  0.3903
 1438SOL    HW2 5518   6.444   3.070   6.181 -2.3676 -0.3192 -4.1624
 1438SOL    HW3 5519   6.337   3.158   6.243  0.9889  0.2945  1.5474
 1438SOL    MW4 5520   6.373   3.080   6.231  0.2640  0.1472 -0.0577
 1439SOL     OW 5521   5.540   4.660   1.965  1.5394  0.2864  0.0377
 1439SOL    HW2 5522   5.579   4.664   2.052 -0.8860 -2.9040  1.4898
 1439SOL    HW3 5523   5.605   4.617   1.911  2.6287  1.2502  0.5450
 1439SOL    MW4 5524   5.554   4.655   1.970  1.3631 -0.0074  0.2962
 1440SOL     OW 5525   6.190   2.721   3.524  0.2397 -0.0745 -0.4301
 1440SOL    HW2 5526   6.228   2.780   3.460 -0.1459  1.0548  0.3450
 1440SOL    HW3 5527   6.142   2.656   3.473 -0.4367  1.0651 -1.2715
 1440SOL    MW4 5528   6.189   2.720   3.509  0.0995  0.2248 -0.4389
 1441SOL     OW 5529   0.453   4.620   0.439  0.2250 -0.3334 -0.3925
 1441SOL    HW2 5530   0.433   4.674   0.515 -0.3614 -2.0852  0.7750
 1441SOL    HW3 5531   0.374   4.624   0.385 -0.8862 -2.0060  0.9831
 1441SOL    MW4 5532   0.440   4.627   0.442  0.0010 -0.7852 -0.0570
 1442SOL     OW 5533   2.397   1.279   3.111  0.0250 -0.0625  0.5822
 1442SOL    HW2 5534   2.384   1.288   3.017  0.2420  1.9351  0.7071
 1442SOL    HW3 5535   2.445   1.197   3.121 -1.7757 -1.3829 -0.8531
 1442SOL    MW4 5536   2.402   1.269   3.100 -0.1839  0.0269  0.4093
 1443SOL     OW 5537   5.619   5.637   2.684 -0.2653 -0.2076  0.0194
 1443SOL    HW2 5538   5.569   5.688   2.620  0.2796  0.2385 -0.0657
 1443SOL    HW3 5539   5.588   5.669   2.769 -0.0466  0.1546 -0.0326
 1443SOL    MW4 5540   5.608   5.648   2.687 -0.1645 -0.1009  0.0013
 1444SOL     OW 5541   2.682   5.545   1.141 -0.1077  0.2281  0.0957
 1444SOL    HW2 5542   2.734   5.594   1.206 -1.6673  1.9671  0.1185
 1444SOL    HW3 5543   2.631   5.483   1.193  1.2609 -0.8947  0.1517
 1444SOL    MW4 5544   2.682   5.543   1.156 -0.1329  0.3094  0.1061
 1445SOL     OW 5545   5.641   3.020   3.450  0.4587  0.8628  0.0635
 1445SOL    HW2 5546   5.620   2.929   3.428 -0.5374  1.3738 -1.2323
 1445SOL    HW3 5547   5.706   3.047   3.385  0.2764  1.2576  0.0405
 1445SOL    MW4 5548   5.647   3.012   3.439  0.3033  0.9823 -0.1105
 1446SOL     OW 5549   4.049   2.971   5.366  0.1442 -0.2795  0.2215
 1446SOL    HW2 5550   4.084   3.053   5.401  2.3357 -1.6381  1.4681
 1446SOL    HW3 5551   4.075   2.971   5.274  1.8147 -0.3875  0.6728
 1446SOL    MW4 5552   4.057   2.982   5.358  0.6537 -0.4730  0.4455
 1447SOL     OW 5553   0.397   6.145   4.557  0.0904  0.2344  0.2294
 1447SOL    HW2 5554   0.491   6.151   4.573 -0.3226  3.3352  2.2820
 1447SOL    HW3 5555   0.369   6.068   4.606  1.3380  0.2004  0.9266
 1447SOL    MW4 5556   0.405   6.135   4.566  0.2005  0.6390  0.5922
 1448SOL     OW 5557   5.636   4.154   3.329 -0.4317 -0.1850 -0.4855
 1448SOL    HW2 5558   5.617   4.237   3.284  1.3132  0.7936  0.4689
 1448SOL    HW3 5559   5.684   4.102   3.264 -0.8491 -0.1317 -0.8378
 1448SOL    MW4 5560   5.640   4.158   3.314 -0.2565 -0.0488 -0.4061
 1449SOL     OW 5561   5.854   1.716   4.997 -0.7114 -0.3859  0.0665
 1449SOL    HW2 5562   5.761   1.722   4.974 -0.3079  1.5488 -1.3508
 1449SOL    HW3 5563   5.891   1.657   4.930 -0.7014 -0.1040 -0.1787
 1449SOL    MW4 5564   5.847   1.709   4.985 -0.6568 -0.0935 -0.1529
 1450SOL     OW 5565   5.443   3.273   1.408  0.4143 -0.3131 -0.4275
 1450SOL    HW2 5566   5.396   3.191   1.424 -0.5297  0.2864 -0.0441
 1450SOL    HW3 5567   5.464   3.306   1.495 -1.0431  0.8676 -0.4867
 1450SOL    MW4 5568   5.440   3.266   1.421  0.0974 -0.0783 -0.3847
 1451SOL     OW 5569   1.650   4.791   3.708 -0.3268 -0.5510  0.0386
 1451SOL    HW2 5570   1.641   4.733   3.783 -2.6649  0.4492  0.6272
 1451SOL    HW3 5571   1.636   4.735   3.632 -0.7893 -1.0723  0.5027
 1451SOL    MW4 5572   1.647   4.776   3.708 -0.6963 -0.4878  0.1775
 1452SOL     OW 5573   4.781   4.231   2.729 -0.5229  0.2860  0.7809
 1452SOL    HW2 5574   4.797   4.156   2.671  1.5057 -0.5331  2.2733
 1452SOL    HW3 5575   4.765   4.304   2.670 -1.7494 -1.1159 -0.7392
 1452SOL    MW4 5576   4.781   4.231   2.714 -0.4170 -0.0070  0.7772
 1453SOL     OW 5577   2.652   0.902   1.441 -0.1012 -0.1717  0.1721
 1453SOL    HW2 5578   2.632   0.897   1.535 -2.5627 -0.6162 -0.3016
 1453SOL    HW3 5579   2.705   0.981   1.432  0.1957 -0.1216  1.9287
 1453SOL    MW4 5580   2.657   0.911   1.452 -0.3868 -0.2237  0.3413
 1454SOL     OW 5581   0.409   3.544   3.033 -0.5664  0.2154 -1.1758
 1454SOL    HW2 5582   0.356   3.549   3.113  2.8911 -1.9998  1.5397
 1454SOL    HW3 5583   0.465   3.622   3.037  0.3836 -0.4714 -0.7619
 1454SOL    MW4 5584   0.409   3.555   3.044  0.0151 -0.1675 -0.7629
 1455SOL     OW 5585   2.232   2.207   0.491 -0.2841 -0.4389  0.3056
 1455SOL    HW2 5586   2.166   2.187   0.557  0.2230 -1.9317  0.3978
 1455SOL    HW3 5587   2.220   2.300   0.473 -2.0588 -0.5568  0.6882
 1455SOL    MW4 5588   2.222   2.217   0.497 -0.4513 -0.6515  0.3683
 1456SOL     OW 5589   3.928   0.864   2.576  0.4023 -0.4070  0.7758
 1456SOL    HW2 5590   3.925   0.769   2.591 -1.7331 -0.2522  1.5456
 1456SOL    HW3 5591   3.854   0.899   2.624  1.0744  1.6746  0.3968
 1456SOL    MW4 5592   3.918   0.856   2.584  0.2092 -0.1119  0.8273
 1457SOL     OW 5593   1.841   0.219   3.496  0.5455  0.0947  0.2051
 1457SOL    HW2 5594   1.862   0.126   3.508  0.2607 -0.0590 -0.4119
 1457SOL    HW3 5595   1.750   0.226   3.522  0.2566 -0.0190 -0.7251
 1457SOL    MW4 5596   1.832   0.208   3.501  0.4698  0.0594  0.0009
 1458SOL     OW 5597   0.708   5.695   1.929 -0.4014  0.3913 -0.1355
 1458SOL    HW2 5598   0.766   5.619   1.936  0.8423  1.1588 -1.5110
 1458SOL    HW3 5599   0.767   5.770   1.935 -1.6125  1.2844  1.2544
 1458SOL    MW4 5600   0.724   5.695   1.931 -0.3971  0.6104 -0.1336
 1459SOL     OW 5601   5.219   6.322   4.236 -0.0227  0.2258 -0.1243
 1459SOL    HW2 5602   5.300   6.313   4.186 -1.3055 -1.2145 -2.1103
 1459SOL    HW3 5603   5.150   6.325   4.169 -1.6455  0.9794  1.5075
 1459SOL    MW4 5604   5.220   6.321   4.221 -0.4061  0.1352 -0.1710
 1460SOL     OW 5605   4.123   0.917   3.250  0.3055 -0.7456  0.4133
 1460SOL    HW2 5606   4.105   0.856   3.322  0.2464 -1.5367 -0.2519
 1460SOL    HW3 5607   4.192   0.974   3.283  2.0173 -2.6175  0.2938
 1460SOL    MW4 5608   4.129   0.916   3.264  0.5236 -1.0969  0.3098
 1461SOL     OW 5609   0.207   6.009   0.074 -0.4337 -0.2858 -0.4876
 1461SOL    HW2 5610   0.137   6.031   0.135 -1.4088 -0.3954 -1.5346
 1461SOL    HW3 5611   0.288   6.036   0.119 -1.3235  2.5071 -0.4198
 1461SOL    MW4 5612   0.209   6.015   0.088 -0.6797  0.0682 -0.6168
 1462SOL     OW 5613   2.372   1.847   4.687  0.1205 -0.2219 -0.1369
 1462SOL    HW2 5614   2.291   1.799   4.670  1.2217 -1.6792 -1.6168
 1462SOL    HW3 5615   2.439   1.780   4.698  1.8503  0.8401 -2.9399
 1462SOL    MW4 5616   2.370   1.832   4.686  0.4940 -0.2741 -0.7020
 1463SOL     OW 5617   2.196   6.217   2.097  0.2721  0.0596  0.2015
 1463SOL    HW2 5618   2.123   6.187   2.151 -1.2790  1.1642 -1.1857
 1463SOL    HW3 5619   2.256   6.142   2.093 -0.6675 -0.8026  1.5273
 1463SOL    MW4 5620   2.194   6.203   2.104 -0.0565  0.0916  0.1934
 1464SOL     OW 5621   4.011   4.058   1.711 -0.2240  1.1022 -0.1167
 1464SOL    HW2 5622   3.932   4.096   1.674 -0.1314  1.8521  0.4324
 1464SOL    HW3 5623   4.041   3.996   1.645 -0.2049  2.2177 -1.1825
 1464SOL    MW4 5624   4.005   4.054   1.698 -0.2093  1.3483 -0.1848
 1465SOL     OW 5625   3.436   2.924   2.746 -0.2773  0.1446  0.3898
 1465SOL    HW2 5626   3.400   2.925   2.835 -3.5063 -0.6344 -0.7733
 1465SOL    HW3 5627   3.465   2.834   2.733  0.9310  0.4455  0.8674
 1465SOL    MW4 5628   3.435   2.912   2.756 -0.5439  0.0815  0.2993
 1466SOL     OW 5629   4.342   1.313   3.119  0.0215  0.2201 -0.1727
 1466SOL    HW2 5630   4.285   1.379   3.158 -0.0324 -0.4468  0.9410
 1466SOL    HW3 5631   4.418   1.362   3.088  0.7595  0.6465  2.1392
 1466SOL    MW4 5632   4.345   1.328   3.120  0.1118  0.1884  0.2793
 1467SOL     OW 5633   6.193   6.259   3.706 -0.1471  0.0484  0.4410
 1467SOL    HW2 5634   6.196   6.353   3.685  0.6700 -0.1925 -0.6623
 1467SOL    HW3 5635   6.271   6.224   3.664  0.2478 -0.9320  1.9326
 1467SOL    MW4 5636   6.204   6.267   3.697  0.0128 -0.1127  0.4922
 1468SOL     OW 5637   1.828   1.461   5.220  0.6798  0.2618 -0.2704
 1468SOL    HW2 5638   1.756   1.450   5.157 -0.9305 -0.0052  1.5222
 1468SOL    HW3 5639   1.844   1.555   5.222  0.6342  0.2888 -0.9352
 1468SOL    MW4 5640   1.821   1.472   5.212  0.4613  0.2302 -0.1216
 1469SOL     OW 5641   1.040   1.079   2.516 -0.0611  0.4618  0.9634
 1469SOL    HW2 5642   0.957   1.107   2.556 -0.1008 -0.5451  1.6104
 1469SOL    HW3 5643   1.022   0.990   2.484  0.6071  0.4465  0.6218
 1469SOL    MW4 5644   1.026   1.071   2.517  0.0218  0.3270  1.0037
 1470SOL     OW 5645   2.328   3.637   3.511 -0.4907  0.2166  0.3175
 1470SOL    HW2 5646   2.329   3.733   3.509  0.1693  0.1968 -0.5624
 1470SOL    HW3 5647   2.326   3.611   3.419 -0.2819 -0.6173  0.5417
 1470SOL    MW4 5648   2.328   3.646   3.499 -0.3760  0.1040  0.2310
 1471SOL     OW 5649   2.203   0.787   3.813  0.1038  0.0635 -0.1339
 1471SOL    HW2 5650   2.109   0.774   3.797  0.2887 -0.7254 -0.5859
 1471SOL    HW3 5651   2.212   0.775   3.907 -0.0605 -1.1394 -0.2517
 1471SOL    MW4 5652   2.192   0.784   3.823  0.1065 -0.1993 -0.2091
 1472SOL     OW 5653   2.355   4.426   0.097 -0.1023 -0.2290 -0.2309
 1472SOL    HW2 5654   2.269   4.391   0.121  0.4973 -1.2804  0.4654
 1472SOL    HW3 5655   2.357   4.419   0.001 -0.3496 -1.3048 -0.1742
 1472SOL    MW4 5656   2.344   4.420   0.087 -0.0558 -0.5097 -0.1316
 1473SOL     OW 5657   3.348   5.582   0.369  0.1987 -0.2319 -0.3759
 1473SOL    HW2 5658   3.364   5.551   0.280 -0.6517  0.8877 -0.9413
 1473SOL    HW3 5659   3.403   5.659   0.379  0.3675 -0.4095  0.1097
 1473SOL    MW4 5660   3.357   5.588   0.359  0.1088 -0.1076 -0.3865
 1474SOL     OW 5661   4.479   0.419   1.240  0.1396 -0.5398 -0.1264
 1474SOL    HW2 5662   4.439   0.455   1.319 -1.1651 -1.3932 -0.3749
 1474SOL    HW3 5663   4.574   0.426   1.256 -0.1016 -0.6567  1.4831
 1474SOL    MW4 5664   4.487   0.425   1.252 -0.0643 -0.6679  0.0532
 1475SOL     OW 5665   4.010   0.055   0.447  0.0807  0.0150  0.3843
 1475SOL    HW2 5666   3.928   0.025   0.485 -0.5690  0.8803 -0.2999
 1475SOL    HW3 5667   4.076   0.031   0.512 -0.3894 -2.6640 -0.0377
 1475SOL    MW4 5668   4.008   0.048   0.461 -0.0671 -0.2243  0.2384
 1476SOL     OW 5669   1.554   2.992   1.043  0.0707  0.5590 -0.2369
 1476SOL    HW2 5670   1.520   3.025   1.126 -1.4274 -0.7861 -0.2622
 1476SOL    HW3 5671   1.643   3.026   1.038 -0.4546  2.2689  0.9891
 1476SOL    MW4 5672   1.561   3.001   1.053 -0.1962  0.6071 -0.0785
 1477SOL     OW 5673   2.888   6.277   0.308 -0.3824  0.3026  0.3303
 1477SOL    HW2 5674   2.909   6.271   0.401  1.9547 -0.5185 -0.1589
 1477SOL    HW3 5675   2.830   6.202   0.292  0.6566 -0.6374  0.8200
 1477SOL    MW4 5676   2.883   6.266   0.318  0.0630  0.0702  0.3304
 1478SOL     OW 5677   2.568   3.336   2.186  0.0652 -0.2876 -0.2982
 1478SOL    HW2 5678   2.559   3.272   2.115 -1.0158 -2.2387  1.4919
 1478SOL    HW3 5679   2.657   3.321   2.219 -0.5421 -1.6513  0.7849
 1478SOL    MW4 5680   2.579   3.325   2.181 -0.1575 -0.7249  0.0809
 1479SOL     OW 5681   4.224   4.495   4.371 -0.7433 -0.6497 -0.4503
 1479SOL    HW2 5682   4.311   4.458   4.385 -0.2144  0.2022 -1.3391
 1479SOL    HW3 5683   4.207   4.546   4.450 -0.3377 -0.6407 -0.3670
 1479SOL    MW4 5684   4.233   4.497   4.383 -0.6200 -0.5361 -0.5566
 1480SOL     OW 5685   4.576   1.577   4.034  0.1193  0.3409  0.3793
 1480SOL    HW2 5686   4.598   1.664   4.067 -0.5625 -0.3581  2.9061
 1480SOL    HW3 5687   4.625   1.517   4.089  0.2879 -0.9167 -1.0708
 1480SOL    MW4 5688   4.585   1.581   4.046  0.0516  0.0828  0.5214
 1481SOL     OW 5689   4.573   4.905   6.100 -0.0559  0.4010 -0.6090
 1481SOL    HW2 5690   4.495   4.851   6.088  0.0841 -0.2650  1.1013
 1481SOL    HW3 5691   4.634   4.877   6.032 -0.2387 -1.1689 -0.1581
 1481SOL    MW4 5692   4.571   4.894   6.090 -0.0616  0.1060 -0.3238
 1482SOL     OW 5693   0.614   3.077   6.194 -0.6062  0.0229 -0.0858
 1482SOL    HW2 5694   0.529   3.036   6.213 -1.2002  0.8680 -0.8696
 1482SOL    HW3 5695   0.677   3.007   6.210 -1.5200 -0.9303 -0.4544
 1482SOL    MW4 5696   0.611   3.062   6.199 -0.8052  0.0086 -0.2379
 1483SOL     OW 5697   2.637   1.850   1.252  0.3018 -0.2599  0.3409
 1483SOL    HW2 5698   2.601   1.769   1.216  1.3673 -0.0858 -1.1674
 1483SOL    HW3 5699   2.601   1.853   1.341 -1.0534 -1.5511 -0.1060
 1483SOL    MW4 5700   2.627   1.839   1.259  0.2636 -0.4073  0.0829
 1484SOL     OW 5701   1.835   4.078   4.329 -0.1612  0.1596  0.0161
 1484SOL    HW2 5702   1.872   4.055   4.244 -1.2511 -0.8498 -0.2135
 1484SOL    HW3 5703   1.902   4.053   4.393 -0.2832 -1.3604 -0.4051
 1484SOL    MW4 5704   1.849   4.072   4.327 -0.3211 -0.1741 -0.0697
 1485SOL     OW 5705   5.799   6.226   1.765 -0.3804 -0.1539  0.0910
 1485SOL    HW2 5706   5.768   6.147   1.810  1.0084  0.0403  1.4563
 1485SOL    HW3 5707   5.816   6.198   1.675  1.5079 -1.8199  0.9029
 1485SOL    MW4 5708   5.797   6.212   1.759  0.0520 -0.3481  0.3783
 1486SOL     OW 5709   4.186   5.275   0.752 -0.1269 -0.1534 -0.1454
 1486SOL    HW2 5710   4.255   5.312   0.806 -0.2565  0.7049 -0.5506
 1486SOL    HW3 5711   4.111   5.332   0.765 -1.4471 -2.1731  1.8260
 1486SOL    MW4 5712   4.186   5.287   0.761 -0.3182 -0.3066  0.0612
 1487SOL     OW 5713   0.056   2.485   1.226  0.1542  0.0021  0.1377
 1487SOL    HW2 5714   0.098   2.445   1.303 -0.0438 -2.9541 -1.1496
 1487SOL    HW3 5715  -0.037   2.470   1.240  0.1567 -1.1737 -0.9127
 1487SOL    MW4 5716   0.049   2.477   1.238  0.1284 -0.5430 -0.1708
 1488SOL     OW 5717   0.179   1.934   2.356 -0.7530  0.5801  0.6240
 1488SOL    HW2 5718   0.153   1.923   2.264  1.5259 -1.6845  0.1264
 1488SOL    HW3 5719   0.242   2.006   2.354 -0.1079  0.0167  0.2457
 1488SOL    MW4 5720   0.184   1.942   2.344 -0.3672  0.2069  0.5084
 1489SOL     OW 5721   5.801   3.358   1.808  0.1594 -0.1671 -0.2612
 1489SOL    HW2 5722   5.880   3.305   1.818  0.9287  1.0191  0.0754
 1489SOL    HW3 5723   5.832   3.447   1.796 -1.1039  0.1824 -1.2361
 1489SOL    MW4 5724   5.815   3.363   1.807  0.0942  0.0355 -0.3454
 1490SOL     OW 5725   0.660   1.048   2.359 -0.0085 -0.3207 -0.4128
 1490SOL    HW2 5726   0.683   1.011   2.274  0.5696  1.4984 -1.1067
 1490SOL    HW3 5727   0.655   1.143   2.343 -2.3939 -0.1408  1.0266
 1490SOL    MW4 5728   0.663   1.056   2.346 -0.2469 -0.0570 -0.3144
 1491SOL     OW 5729   2.252   5.084   1.473  0.1922  0.5649  0.0951
 1491SOL    HW2 5730   2.184   5.127   1.420  1.3789  0.3082 -1.7174
 1491SOL    HW3 5731   2.317   5.055   1.410  2.7498  2.0761  1.8362
 1491SOL    MW4 5732   2.251   5.086   1.458  0.6862  0.7304  0.0857
 1492SOL     OW 5733   5.307   5.070   4.699 -0.1469 -0.7007  0.1548
 1492SOL    HW2 5734   5.247   5.134   4.737 -1.2459 -1.9822  0.6668
 1492SOL    HW3 5735   5.390   5.083   4.744 -0.4884  0.0559  0.5609
 1492SOL    MW4 5736   5.310   5.080   4.710 -0.3370 -0.7700  0.2759
 1493SOL     OW 5737   4.979   2.705   4.900  0.4946 -0.3911 -0.4476
 1493SOL    HW2 5738   5.052   2.719   4.840  0.4395  0.1770 -0.3888
 1493SOL    HW3 5739   4.975   2.786   4.952  0.6468 -0.9274  0.4280
 1493SOL    MW4 5740   4.988   2.718   4.899  0.5074 -0.3869 -0.3243
 1494SOL     OW 5741   5.254   1.658   1.246  0.1735 -0.1157 -0.0722
 1494SOL    HW2 5742   5.216   1.571   1.234 -3.3337  1.5343 -2.5645
 1494SOL    HW3 5743   5.246   1.675   1.340  0.2535 -2.1135  0.3482
 1494SOL    MW4 5744   5.248   1.649   1.257 -0.2787 -0.1616 -0.3456
 1495SOL     OW 5745   2.635   3.574   1.845  0.0419 -0.1879 -0.1108
 1495SOL    HW2 5746   2.559   3.579   1.903 -0.8602  1.9907 -1.3719
 1495SOL    HW3 5747   2.694   3.643   1.877  1.4666 -1.7207  0.7304
 1495SOL    MW4 5748   2.633   3.584   1.857  0.1108 -0.1027 -0.1662
 1496SOL     OW 5749   4.108   4.182   3.258  0.3720  0.5732  0.1860
 1496SOL    HW2 5750   4.048   4.179   3.332  0.4582 -1.4776  0.2196
 1496SOL    HW3 5751   4.052   4.180   3.180  0.3532 -0.6864  0.2177
 1496SOL    MW4 5752   4.093   4.182   3.257  0.3809  0.1364  0.1946
 1497SOL     OW 5753   5.647   1.330   0.455  0.3385 -0.8098  0.0461
 1497SOL    HW2 5754   5.665   1.416   0.492 -0.1977 -0.4823 -0.4272
 1497SOL    HW3 5755   5.590   1.348   0.380  1.7141 -1.3990 -1.1956
 1497SOL    MW4 5756   5.642   1.343   0.450  0.4493 -0.8444 -0.1801
 1498SOL     OW 5757   3.101   0.909   4.023  0.1054  0.2363 -0.6444
 1498SOL    HW2 5758   3.064   0.844   3.963  1.8235 -0.4395 -1.0354
 1498SOL    HW3 5759   3.057   0.991   4.000  1.0386  0.1060 -3.2147
 1498SOL    MW4 5760   3.090   0.911   4.012  0.4552  0.1299 -1.0351
 1499SOL     OW 5761   6.408   2.709   0.037 -0.2243 -0.4774 -0.3650
 1499SOL    HW2 5762   6.324   2.664   0.031 -0.0894 -0.9157  0.7982
 1499SOL    HW3 5763   6.385   2.800   0.058 -0.4771 -0.0665 -2.2571
 1499SOL    MW4 5764   6.394   2.715   0.039 -0.2399 -0.4810 -0.4612
 1500SOL     OW 5765   2.232   4.843   3.808 -0.3589 -0.0563  0.0201
 1500SOL    HW2 5766   2.140   4.860   3.828 -1.3605 -0.7930 -3.2314
 1500SOL    HW3 5767   2.230   4.761   3.759  1.8803  0.5045 -1.1387
 1500SOL    MW4 5768   2.219   4.834   3.804 -0.1956 -0.0795 -0.5618
 1501SOL     OW 5769   3.334   0.073   6.272  0.6757  0.4789  0.0595
 1501SOL    HW2 5770   3.299   0.096   6.358 -2.5624  1.0624 -1.2705
 1501SOL    HW3 5771   3.371   0.155   6.239  1.1319  0.4670  0.5338
 1501SOL    MW4 5772   3.334   0.087   6.279  0.3086  0.5543 -0.0534
 1502SOL     OW 5773   3.741   2.318   2.965 -0.6009 -0.1262 -0.4037
 1502SOL    HW2 5774   3.827   2.276   2.973 -0.5272  0.0358 -0.3604
 1502SOL    HW3 5775   3.713   2.332   3.055 -0.8451 -0.5361 -0.4146
 1502SOL    MW4 5776   3.749   2.314   2.978 -0.6234 -0.1589 -0.3994
 1503SOL     OW 5777   2.652   0.388   3.975  0.3382 -0.1311  0.2870
 1503SOL    HW2 5778   2.708   0.311   3.971  1.2478  0.4834  0.8176
 1503SOL    HW3 5779   2.695   0.451   3.917  0.2485  0.3790  0.7734
 1503SOL    MW4 5780   2.665   0.386   3.967  0.4464  0.0173  0.4212
 1504SOL     OW 5781   2.650   0.611   1.599 -0.3044 -0.1752 -0.0886
 1504SOL    HW2 5782   2.596   0.685   1.628  1.2485  0.5397  1.1273
 1504SOL    HW3 5783   2.737   0.648   1.586  0.2754 -1.6009 -0.4838
 1504SOL    MW4 5784   2.654   0.626   1.601 -0.0230 -0.2690  0.0197
 1505SOL     OW 5785   0.868   0.469   4.644 -0.2105 -0.7228  0.2220
 1505SOL    HW2 5786   0.776   0.448   4.656 -0.7139  0.2514 -1.6265
 1505SOL    HW3 5787   0.889   0.531   4.713 -0.8127 -1.2419  0.8833
 1505SOL    MW4 5788   0.859   0.474   4.655 -0.3564 -0.6628  0.0654
 1506SOL     OW 5789   5.100   2.170   5.364 -0.0022 -0.8582  0.6161
 1506SOL    HW2 5790   5.027   2.224   5.332  0.0357 -0.8348  0.5694
 1506SOL    HW3 5791   5.058   2.102   5.416  0.0957  1.0282  3.3696
 1506SOL    MW4 5792   5.084   2.168   5.367  0.0157 -0.6062  0.9732
 1507SOL     OW 5793   5.008   5.362   4.118  0.1065  0.2227 -0.1269
 1507SOL    HW2 5794   5.065   5.359   4.041 -0.0279  1.6859 -0.3145
 1507SOL    HW3 5795   5.067   5.356   4.192  0.1613 -2.2663 -0.3058
 1507SOL    MW4 5796   5.023   5.361   4.117  0.0960  0.0874 -0.1752
 1508SOL     OW 5797   3.847   2.069   3.443  0.3599 -0.5597 -0.5433
 1508SOL    HW2 5798   3.931   2.049   3.485 -0.0138  0.3620  0.7128
 1508SOL    HW3 5799   3.854   2.031   3.355  1.3691 -2.1098  0.1690
 1508SOL    MW4 5800   3.859   2.061   3.437  0.4437 -0.6426 -0.2836
 1509SOL     OW 5801   5.611   2.960   1.676  0.1244  0.3031  0.2246
 1509SOL    HW2 5802   5.697   3.001   1.669 -0.3424  1.1506 -0.6500
 1509SOL    HW3 5803   5.585   2.974   1.767  0.4859  0.9101  0.2367
 1509SOL    MW4 5804   5.619   2.967   1.687  0.1105  0.4950  0.1108
 1510SOL     OW 5805   5.391   2.339   1.657 -0.3752  0.5088  0.2130
 1510SOL    HW2 5806   5.399   2.384   1.573  1.5990  0.4821  0.3491
 1510SOL    HW3 5807   5.419   2.404   1.722 -2.2795  0.6709  0.9425
 1510SOL    MW4 5808   5.395   2.354   1.654 -0.3660  0.5267  0.3272
 1511SOL     OW 5809   1.942   1.750   0.173  0.0549 -0.4895  0.5203
 1511SOL    HW2 5810   2.033   1.722   0.176  0.5750  1.0341 -0.0768
 1511SOL    HW3 5811   1.919   1.765   0.265  1.8271  3.2159  0.5361
 1511SOL    MW4 5812   1.951   1.748   0.186  0.3574  0.2004  0.4436
 1512SOL     OW 5813   0.287   3.969   3.186 -0.0489 -0.6139 -0.3082
 1512SOL    HW2 5814   0.219   3.908   3.156 -1.6961  1.2183 -0.5333
 1512SOL    HW3 5815   0.279   3.968   3.281  1.0175 -1.8863 -0.2084
 1512SOL    MW4 5816   0.277   3.961   3.195 -0.1255 -0.5400 -0.3247
 1513SOL     OW 5817   0.045   1.843   2.117  0.7116 -0.2405 -0.3046
 1513SOL    HW2 5818   0.066   1.751   2.104  1.9199  0.0035 -0.2713
 1513SOL    HW3 5819  -0.050   1.846   2.128  0.4751 -1.2817 -1.8587
 1513SOL    MW4 5820   0.036   1.831   2.117  0.8398 -0.3457 -0.5053
 1514SOL     OW 5821   2.433   2.451   0.972  0.3123  0.4373  0.1408
 1514SOL    HW2 5822   2.510   2.405   0.937 -0.1220 -0.6817  0.6216
 1514SOL    HW3 5823   2.358   2.409   0.930 -0.1024  0.6760  0.6344
 1514SOL    MW4 5824   2.434   2.440   0.961  0.2003  0.3212  0.2693
 1515SOL     OW 5825   0.809   5.907   1.455 -0.5855 -0.2335  0.2435
 1515SOL    HW2 5826   0.741   5.842   1.435  1.0708 -2.5248  1.4850
 1515SOL    HW3 5827   0.853   5.871   1.532  0.2466  2.6032  1.1956
 1515SOL    MW4 5828   0.806   5.893   1.463 -0.2572 -0.1615  0.5329
 1516SOL     OW 5829   5.625   0.647   3.618 -0.0463  0.2868 -0.3430
 1516SOL    HW2 5830   5.559   0.683   3.559 -0.3639 -1.2592 -0.9603
 1516SOL    HW3 5831   5.582   0.647   3.704 -0.3795  0.5121 -0.5067
 1516SOL    MW4 5832   5.610   0.652   3.622 -0.1321  0.1126 -0.4461
 1517SOL     OW 5833   2.472   2.646   4.855 -0.2965  0.4176 -0.3098
 1517SOL    HW2 5834   2.395   2.686   4.896 -1.4816  0.5309 -2.5079
 1517SOL    HW3 5835   2.480   2.560   4.896 -1.0107  0.7513  0.5735
 1517SOL    MW4 5836   2.463   2.640   4.866 -0.5471  0.4765 -0.4832
 1518SOL     OW 5837   3.867   1.811   5.090 -0.7821 -0.5585 -0.3882
 1518SOL    HW2 5838   3.808   1.883   5.069 -0.7880  0.2380  2.0532
 1518SOL    HW3 5839   3.955   1.847   5.076 -0.8109 -0.9915 -1.7842
 1518SOL    MW4 5840   3.871   1.825   5.086 -0.7867 -0.5106 -0.2503
 1519SOL     OW 5841   1.594   1.579   2.928  0.1248  0.4575  0.0469
 1519SOL    HW2 5842   1.545   1.546   2.853  2.4098 -1.6250 -0.6476
 1519SOL    HW3 5843   1.541   1.552   3.004  0.0979 -1.6498 -0.6661
 1519SOL    MW4 5844   1.580   1.571   2.928  0.4227 -0.0953 -0.1388
 1520SOL     OW 5845   5.357   2.996   3.696  0.1020  0.4019  0.1478
 1520SOL    HW2 5846   5.431   2.946   3.729 -0.5415  0.4199  1.6803
 1520SOL    HW3 5847   5.338   2.957   3.611  0.0757 -1.4895  0.9744
 1520SOL    MW4 5848   5.364   2.985   3.689  0.0136  0.1547  0.4591
 1521SOL     OW 5849   2.996   1.052   5.618  0.2207 -0.3564  0.3359
 1521SOL    HW2 5850   2.929   1.105   5.660 -1.6953 -1.5126 -1.0797
 1521SOL    HW3 5851   3.064   1.114   5.593 -1.4994  1.3340 -0.4398
 1521SOL    MW4 5852   2.996   1.067   5.620 -0.2591 -0.2860  0.0468
 1522SOL     OW 5853   3.289   3.184   2.789  0.3673  0.1146 -0.2276
 1522SOL    HW2 5854   3.330   3.108   2.748  1.3147  1.3113 -1.5818
 1522SOL    HW3 5855   3.341   3.199   2.869  2.2685  1.2422 -1.6017
 1522SOL    MW4 5856   3.301   3.176   2.794  0.7431  0.4213 -0.5876
 1523SOL     OW 5857   3.116   1.329   5.011  0.1799 -0.3031  0.7076
 1523SOL    HW2 5858   3.072   1.413   5.021 -0.6762 -0.6753  0.2053
 1523SOL    HW3 5859   3.208   1.350   4.999 -0.1619  0.6121 -0.3928
 1523SOL    MW4 5860   3.122   1.343   5.011  0.0218 -0.2315  0.4961
 1524SOL     OW 5861   1.044   0.849   1.448 -1.0069 -0.3269 -0.3888
 1524SOL    HW2 5862   1.037   0.919   1.383  0.8369 -1.0985 -1.4885
 1524SOL    HW3 5863   1.097   0.782   1.406  2.2611  0.0382  2.6423
 1524SOL    MW4 5864   1.050   0.850   1.434 -0.3325 -0.3805 -0.1339
 1525SOL     OW 5865   2.758   3.787   1.018 -0.4249 -0.1647  0.0460
 1525SOL    HW2 5866   2.681   3.817   1.066 -1.8006 -1.6939 -1.1071
 1525SOL    HW3 5867   2.780   3.861   0.960 -0.2335  0.7444  1.2348
 1525SOL    MW4 5868   2.751   3.801   1.016 -0.5811 -0.2465  0.0507
 1526SOL     OW 5869   0.138   3.151   2.277  0.8944  0.0732  0.3485
 1526SOL    HW2 5870   0.098   3.221   2.227  0.2359 -0.1505  0.5540
 1526SOL    HW3 5871   0.223   3.137   2.236  1.1062  1.1094  0.4236
 1526SOL    MW4 5872   0.144   3.158   2.265  0.8354  0.1804  0.3855
 1527SOL     OW 5873   2.600   3.900   5.235  0.4150  0.0476 -0.0041
 1527SOL    HW2 5874   2.587   3.877   5.327  0.0050  0.8204  0.1412
 1527SOL    HW3 5875   2.630   3.819   5.193 -1.4878 -0.8890  0.3685
 1527SOL    MW4 5876   2.602   3.886   5.241  0.1098  0.0260  0.0643
 1528SOL     OW 5877   3.659   4.305   1.900 -0.1869 -0.2597  0.3040
 1528SOL    HW2 5878   3.654   4.388   1.852 -0.4619  0.0866  0.9236
 1528SOL    HW3 5879   3.737   4.314   1.954  0.5608 -0.9548 -0.6192
 1528SOL    MW4 5880   3.668   4.318   1.901 -0.1245 -0.3057  0.2640
 1529SOL     OW 5881   2.427   0.811   1.262  0.0836 -0.2642  0.5024
 1529SOL    HW2 5882   2.506   0.829   1.314  0.0317 -0.7481  0.7525
 1529SOL    HW3 5883   2.456   0.820   1.172  0.0992  0.9106  0.6080
 1529SOL    MW4 5884   2.441   0.814   1.257  0.0788 -0.1731  0.5493
 1530SOL     OW 5885   5.837   2.098   3.333  0.3605  0.6510 -0.1586
 1530SOL    HW2 5886   5.804   2.161   3.398 -0.1585  0.3105 -0.0820
 1530SOL    HW3 5887   5.757   2.063   3.293  0.6488  0.0549 -0.2120
 1530SOL    MW4 5888   5.822   2.102   3.336  0.3301  0.5274 -0.1555
 1531SOL     OW 5889   1.495   3.823   0.435  0.3932 -0.6736  0.4277
 1531SOL    HW2 5890   1.468   3.890   0.496  0.7787 -0.1834  0.0698
 1531SOL    HW3 5891   1.422   3.813   0.375  1.3435  1.4198 -1.1978
 1531SOL    MW4 5892   1.482   3.830   0.435  0.5694 -0.3328  0.1660
 1532SOL     OW 5893   5.084   1.073   2.078 -0.6521 -0.6946  0.1132
 1532SOL    HW2 5894   4.996   1.075   2.117 -0.2040 -0.4756  1.1421
 1532SOL    HW3 5895   5.124   1.156   2.104 -0.4534 -0.3875 -1.1240
 1532SOL    MW4 5896   5.077   1.084   2.087 -0.5668 -0.6252  0.0857
 1533SOL     OW 5897   5.273   3.550   1.970  0.3414  0.3748  0.0768
 1533SOL    HW2 5898   5.331   3.474   1.967  0.7983  0.6793  0.8374
 1533SOL    HW3 5899   5.307   3.604   2.042 -0.1844  1.1295 -0.2195
 1533SOL    MW4 5900   5.285   3.547   1.979  0.3323  0.5146  0.1381
 1534SOL     OW 5901   5.163   3.576   4.302 -0.0365 -0.8393 -1.1121
 1534SOL    HW2 5902   5.188   3.489   4.273 -0.3364 -1.4294  0.3260
 1534SOL    HW3 5903   5.217   3.592   4.380  0.2074  0.3737 -1.4987
 1534SOL    MW4 5904   5.174   3.567   4.309 -0.0439 -0.7571 -0.9734
 1535SOL     OW 5905   3.296   0.573   0.869  0.2228 -0.1678 -0.1965
 1535SOL    HW2 5906   3.315   0.665   0.850 -1.2299  0.1942  0.0320
 1535SOL    HW3 5907   3.382   0.530   0.863  0.6294  0.8114 -2.4011
 1535SOL    MW4 5908   3.310   0.580   0.866  0.0848  0.0092 -0.4573
 1536SOL     OW 5909   3.937   5.068   3.488  0.1201  0.5120 -0.0144
 1536SOL    HW2 5910   4.006   5.130   3.513  0.0415  0.7795 -0.4531
 1536SOL    HW3 5911   3.871   5.122   3.444  0.0150  0.1272 -0.3310
 1536SOL    MW4 5912   3.937   5.084   3.486  0.0958  0.4965 -0.1140
 1537SOL     OW 5913   3.508   3.559   1.059  0.0672  0.0367  0.5364
 1537SOL    HW2 5914   3.450   3.631   1.086 -0.7340 -0.1261 -0.6960
 1537SOL    HW3 5915   3.449   3.495   1.019  0.8816 -0.9632  0.9081
 1537SOL    MW4 5916   3.492   3.560   1.058  0.0689 -0.1167  0.4229
 1538SOL     OW 5917   1.926   4.655   3.606  0.0161  0.0269 -0.2822
 1538SOL    HW2 5918   1.876   4.574   3.614 -1.4401  0.8473 -0.6236
 1538SOL    HW3 5919   1.922   4.676   3.513 -1.5322  1.6076  0.0891
 1538SOL    MW4 5920   1.919   4.647   3.595 -0.3803  0.3437 -0.2783
 1539SOL     OW 5921   6.363   1.882   0.362  0.0339 -0.3875  0.4778
 1539SOL    HW2 5922   6.346   1.971   0.392  1.3365 -0.5708  1.8828
 1539SOL    HW3 5923   6.427   1.892   0.291 -0.6696 -0.1429 -0.1253
 1539SOL    MW4 5924   6.369   1.895   0.356  0.1130 -0.3794  0.5836
 1540SOL     OW 5925   5.755   4.702   4.788 -0.3069 -0.1506  0.0739
 1540SOL    HW2 5926   5.814   4.656   4.849  0.0545  1.6440  1.1516
 1540SOL    HW3 5927   5.719   4.774   4.840 -0.2452  1.2532 -1.7378
 1540SOL    MW4 5928   5.758   4.705   4.803 -0.2511  0.2713 -0.0230
 1541SOL     OW 5929   5.277   2.923   0.648 -0.4317 -0.0391 -0.3640
 1541SOL    HW2 5930   5.324   2.992   0.696 -0.0964 -0.6973  0.2870
 1541SOL    HW3 5931   5.208   2.968   0.601 -0.2285  0.7391  0.0754
 1541SOL    MW4 5932   5.274   2.938   0.648 -0.3606 -0.0233 -0.2202
 1542SOL     OW 5933   0.568   3.294   1.232 -0.1942 -0.3844  0.7471
 1542SOL    HW2 5934   0.573   3.218   1.174 -0.4165 -0.0160  0.2307
 1542SOL    HW3 5935   0.608   3.266   1.314  2.0456 -0.2771 -0.2592
 1542SOL    MW4 5936   0.574   3.281   1.235  0.0720 -0.3216  0.5462
 1543SOL     OW 5937   1.945   2.443   5.419 -0.4571 -0.0959  0.2215
 1543SOL    HW2 5938   2.035   2.416   5.439  0.1124  1.4753  0.0141
 1543SOL    HW3 5939   1.917   2.492   5.496 -0.4145  0.9892 -0.4154
 1543SOL    MW4 5940   1.953   2.446   5.432 -0.3764  0.2546  0.1101
 1544SOL     OW 5941   5.555   5.146   4.794 -0.4509  0.1472 -0.2449
 1544SOL    HW2 5942   5.608   5.126   4.716  0.7759  0.1743  0.5482
 1544SOL    HW3 5943   5.600   5.220   4.835 -1.1164  0.1718  0.4517
 1544SOL    MW4 5944   5.568   5.153   4.789 -0.3768  0.1541 -0.0483
 1545SOL     OW 5945   6.034   2.674   1.282  0.1642  0.1059  0.1342
 1545SOL    HW2 5946   5.979   2.686   1.359  0.7541 -2.1758  0.9713
 1545SOL    HW3 5947   5.972   2.673   1.209 -0.6624 -0.1509  0.8235
 1545SOL    MW4 5948   6.019   2.676   1.282  0.1330 -0.2290  0.3356
 1546SOL     OW 5949   3.752   4.334   3.934  0.0034  0.5708  0.1948
 1546SOL    HW2 5950   3.689   4.406   3.937  1.2361  1.6530  1.3818
 1546SOL    HW3 5951   3.732   4.288   3.852 -2.3363  0.8296  0.5616
 1546SOL    MW4 5952   3.741   4.338   3.923 -0.1427  0.7477  0.3998
 1547SOL     OW 5953   1.618   5.049   4.359  0.5123  0.5580  0.4685
 1547SOL    HW2 5954   1.635   5.019   4.270  1.9138  0.0369  0.8836
 1547SOL    HW3 5955   1.535   5.007   4.382  0.3613  0.3354 -0.4239
 1547SOL    MW4 5956   1.609   5.040   4.350  0.6773  0.4599  0.4055
 1548SOL     OW 5957   4.052   5.757   6.261  0.5884 -0.1709  0.0049
 1548SOL    HW2 5958   3.979   5.696   6.260 -0.7646  1.3619  0.3478
 1548SOL    HW3 5959   4.130   5.702   6.266 -0.5042 -1.8651 -0.8307
 1548SOL    MW4 5960   4.053   5.742   6.262  0.2657 -0.1922 -0.0601
 1549SOL     OW 5961   0.311   4.554   0.865  0.0815 -0.2978 -0.1144
 1549SOL    HW2 5962   0.256   4.582   0.939 -0.1429 -1.6257  0.2450
 1549SOL    HW3 5963   0.399   4.547   0.903  0.3331  0.8228 -0.4436
 1549SOL    MW4 5964   0.316   4.557   0.880  0.0851 -0.3252 -0.1104
 1550SOL     OW 5965   2.584   3.844   4.714 -0.2379  0.6481 -0.1948
 1550SOL    HW2 5966   2.649   3.778   4.739 -1.3849  0.1168  1.6138
 1550SOL    HW3 5967   2.515   3.835   4.780 -2.1388  1.2235 -2.0279
 1550SOL    MW4 5968   2.584   3.834   4.726 -0.6400  0.6539 -0.1980
 1551SOL     OW 5969   3.137   6.274   2.148 -0.5402  0.2926  0.5818
 1551SOL    HW2 5970   3.071   6.260   2.080 -1.0703  2.8873  0.4556
 1551SOL    HW3 5971   3.087   6.295   2.226  0.0413 -3.0724  2.0522
 1551SOL    MW4 5972   3.122   6.275   2.149 -0.5334  0.1909  0.7591
 1552SOL     OW 5973   1.556   4.511   6.236  0.0106  0.1808  0.1523
 1552SOL    HW2 5974   1.614   4.540   6.166  0.5499 -0.5087  0.2902
 1552SOL    HW3 5975   1.497   4.584   6.252  1.4237  1.2688  0.6149
 1552SOL    MW4 5976   1.556   4.524   6.229  0.2682  0.2334  0.2315
 1553SOL     OW 5977   0.951   1.791   3.797  0.9753  0.0072 -0.6407
 1553SOL    HW2 5978   0.855   1.784   3.803  0.8872 -0.8076 -2.4912
 1553SOL    HW3 5979   0.983   1.710   3.837  1.0065  0.9949  1.4675
 1553SOL    MW4 5980   0.942   1.780   3.803  0.9678  0.0300 -0.6067
 1554SOL     OW 5981   3.406   3.838   4.230 -0.2719  0.0655 -0.5778
 1554SOL    HW2 5982   3.438   3.927   4.217 -0.0973 -0.0954 -1.2822
 1554SOL    HW3 5983   3.325   3.849   4.280  0.8765  0.4834  1.2875
 1554SOL    MW4 5984   3.400   3.851   4.235 -0.0973  0.0994 -0.4246
 1555SOL     OW 5985   3.912   1.884   2.254 -0.6743 -0.4671 -1.1263
 1555SOL    HW2 5986   3.951   1.797   2.253  0.2038 -0.1320  0.3004
 1555SOL    HW3 5987   3.972   1.937   2.307 -1.5979  0.8039 -1.2818
 1555SOL    MW4 5988   3.925   1.880   2.261 -0.6803 -0.2552 -0.9585
 1556SOL     OW 5989   2.565   2.192   5.628  0.6317 -0.0604 -0.3466
 1556SOL    HW2 5990   2.575   2.129   5.699  0.1152  0.7827  0.4966
 1556SOL    HW3 5991   2.587   2.276   5.668  1.1801  0.3187 -1.4205
 1556SOL    MW4 5992   2.569   2.195   5.643  0.6359  0.1008 -0.3770
 1557SOL     OW 5993   3.356   5.085   1.158  0.5713  0.2630  0.3072
 1557SOL    HW2 5994   3.388   5.021   1.222  0.8701  1.4527  1.3906
 1557SOL    HW3 5995   3.266   5.102   1.185  0.4776  0.2637 -0.0049
 1557SOL    MW4 5996   3.348   5.079   1.170  0.5984  0.4201  0.4089
 1558SOL     OW 5997   3.383   0.523   1.604 -0.2161 -0.4734 -0.3575
 1558SOL    HW2 5998   3.374   0.482   1.518 -1.8034 -0.1945 -0.3602
 1558SOL    HW3 5999   3.398   0.615   1.585 -1.7475 -0.2019 -0.3651
 1558SOL    MW4 6000   3.384   0.530   1.590 -0.6275 -0.4008 -0.3589
 1559SOL     OW 6001   5.772   0.678   0.318 -0.3644  0.0993  0.7481
 1559SOL    HW2 6002   5.827   0.738   0.367  1.9224 -2.3151  1.3841
 1559SOL    HW3 6003   5.807   0.680   0.229  0.3624 -0.9007  0.9859
 1559SOL    MW4 6004   5.784   0.686   0.312  0.0332 -0.3512  0.8634
 1560SOL     OW 6005   0.492   5.753   2.178  0.2789 -0.4278  0.2840
 1560SOL    HW2 6006   0.451   5.735   2.262 -1.2054 -1.8308 -0.6655
 1560SOL    HW3 6007   0.456   5.686   2.119  1.7799  0.0808 -1.3060
 1560SOL    MW4 6008   0.481   5.742   2.181  0.2811 -0.5458 -0.0510
 1561SOL     OW 6009   0.290   6.001   3.311 -0.2714 -0.2845  0.1531
 1561SOL    HW2 6010   0.226   6.059   3.352  0.9973  1.3794 -0.0859
 1561SOL    HW3 6011   0.287   6.025   3.218  1.0163  0.2089  0.2108
 1561SOL    MW4 6012   0.281   6.012   3.304  0.0659  0.0001  0.1292
 1562SOL     OW 6013   0.235   2.210   2.685 -0.0151 -0.4452 -0.6198
 1562SOL    HW2 6014   0.291   2.133   2.690  0.8416  0.2204  0.1467
 1562SOL    HW3 6015   0.227   2.241   2.775  0.3547  0.8525 -1.0070
 1562SOL    MW4 6016   0.241   2.204   2.697  0.1467 -0.1862 -0.5697
 1563SOL     OW 6017   2.419   5.421   2.441 -0.0806  0.4478 -0.0067
 1563SOL    HW2 6018   2.389   5.334   2.468  1.1671 -0.4221 -1.2721
 1563SOL    HW3 6019   2.403   5.476   2.517  0.2294 -1.1517  1.2760
 1563SOL    MW4 6020   2.413   5.417   2.454  0.1249  0.1220 -0.0044
 1564SOL     OW 6021   2.174   0.664   4.086 -0.7114 -0.0333 -0.2208
 1564SOL    HW2 6022   2.104   0.601   4.098 -0.2505 -0.1893  2.1889
 1564SOL    HW3 6023   2.199   0.690   4.175  0.5343  1.9684 -1.0634
 1564SOL    MW4 6024   2.168   0.659   4.100 -0.4862  0.2102 -0.0140
 1565SOL     OW 6025   4.480   1.429   2.725 -0.1634  0.0714  0.2098
 1565SOL    HW2 6026   4.391   1.431   2.688 -0.8599 -1.8838  1.5832
 1565SOL    HW3 6027   4.493   1.516   2.761 -0.3516  1.3233 -2.4739
 1565SOL    MW4 6028   4.470   1.441   2.725 -0.2801 -0.0214  0.0369
 1566SOL     OW 6029   0.283   5.486   3.969  0.2225 -0.1809  0.1057
 1566SOL    HW2 6030   0.296   5.575   4.001  0.8685  0.0535 -0.7777
 1566SOL    HW3 6031   0.256   5.497   3.878  2.3607 -0.9172 -0.6746
 1566SOL    MW4 6032   0.281   5.499   3.961  0.5899 -0.2471 -0.1138
 1567SOL     OW 6033   6.313   3.166   1.783 -0.6700 -0.3990 -0.2539
 1567SOL    HW2 6034   6.289   3.090   1.730 -0.3685 -0.4011 -0.3869
 1567SOL    HW3 6035   6.247   3.232   1.763  1.5154  1.0143 -3.6040
 1567SOL    MW4 6036   6.301   3.165   1.774 -0.3419 -0.2128 -0.7135
 1568SOL     OW 6037   6.374   1.718   5.912 -0.0419 -0.6839  0.3741
 1568SOL    HW2 6038   6.313   1.663   5.863 -1.1390 -1.3446  2.3471
 1568SOL    HW3 6039   6.340   1.807   5.901  1.8047 -0.2061 -2.9272
 1568SOL    MW4 6040   6.361   1.722   5.904  0.0570 -0.7080  0.1988
 1569SOL     OW 6041   2.058   0.233   2.825  0.2130 -0.1481 -0.5245
 1569SOL    HW2 6042   2.106   0.290   2.885  1.4455 -0.7414 -0.9326
 1569SOL    HW3 6043   2.089   0.257   2.738  1.8850 -2.4004 -0.6358
 1569SOL    MW4 6044   2.068   0.243   2.822  0.5962 -0.5235 -0.5930
 1570SOL     OW 6045   3.367   1.418   5.429  0.6442  0.5411  0.3756
 1570SOL    HW2 6046   3.315   1.473   5.370 -0.0232 -0.0665  0.3863
 1570SOL    HW3 6047   3.409   1.354   5.373  1.2417  0.9196  0.3889
 1570SOL    MW4 6048   3.366   1.417   5.414  0.6350  0.5109  0.3788
 1571SOL     OW 6049   4.581   3.402   3.194 -0.5327  0.8053 -0.4887
 1571SOL    HW2 6050   4.545   3.370   3.112 -1.2632  1.6026 -0.4921
 1571SOL    HW3 6051   4.521   3.370   3.261 -1.0678  1.8090 -0.4593
 1571SOL    MW4 6052   4.568   3.394   3.192 -0.6997  1.0429 -0.4853
 1572SOL     OW 6053   5.650   6.202   2.265  0.1624 -0.3623  0.6177
 1572SOL    HW2 6054   5.601   6.171   2.189 -0.4900 -0.9384  1.2588
 1572SOL    HW3 6055   5.732   6.236   2.228  0.0159 -0.9637 -0.3076
 1572SOL    MW4 6056   5.655   6.203   2.250  0.0570 -0.5176  0.5802
 1573SOL     OW 6057   5.857   1.369   4.170 -0.4191  0.5969 -0.3053
 1573SOL    HW2 6058   5.926   1.307   4.146  0.4712  1.7218 -0.7616
 1573SOL    HW3 6059   5.898   1.426   4.234 -2.1050 -0.9899  2.3824
 1573SOL    MW4 6060   5.871   1.368   4.175 -0.5240  0.5360 -0.0109
 1574SOL     OW 6061   3.680   1.427   4.456 -0.0227  0.1717  0.7631
 1574SOL    HW2 6062   3.626   1.502   4.431  0.9600  0.6599  0.0186
 1574SOL    HW3 6063   3.751   1.465   4.507  0.9091 -0.1215 -0.2707
 1574SOL    MW4 6064   3.682   1.442   4.459  0.2299  0.1974  0.5285
 1575SOL     OW 6065   4.524   1.871   4.825 -0.1586 -0.6173  0.0059
 1575SOL    HW2 6066   4.554   1.941   4.883  0.7698 -1.5722  0.7324
 1575SOL    HW3 6067   4.479   1.916   4.754 -0.9677  0.6188  1.2467
 1575SOL    MW4 6068   4.522   1.886   4.823 -0.1428 -0.5802  0.2655
 1576SOL     OW 6069   1.268   3.678   2.155 -0.2317  0.0863 -0.0291
 1576SOL    HW2 6070   1.218   3.674   2.236  0.1544  0.2293  0.2200
 1576SOL    HW3 6071   1.360   3.678   2.183 -0.1036  1.2431 -0.4124
 1576SOL    MW4 6072   1.274   3.677   2.169 -0.1638  0.2578 -0.0468
 1577SOL     OW 6073   0.565   6.315   5.594 -0.4850 -0.1433 -0.3117
 1577SOL    HW2 6074   0.539   6.395   5.548 -0.2919  0.5054  0.6833
 1577SOL    HW3 6075   0.633   6.344   5.655 -0.8482 -0.9619  0.4871
 1577SOL    MW4 6076   0.571   6.329   5.596 -0.5074 -0.1657 -0.0751
 1578SOL     OW 6077   4.914   3.358   1.695 -0.2087  0.7116 -0.0659
 1578SOL    HW2 6078   4.853   3.320   1.633  0.1359 -1.7580  0.9886
 1578SOL    HW3 6079   4.896   3.452   1.693 -1.9539  0.3863 -1.9426
 1578SOL    MW4 6080   4.904   3.365   1.687 -0.3935  0.3428 -0.1744
 1579SOL     OW 6081   6.221   2.850   4.611  0.0723 -0.3745 -0.6516
 1579SOL    HW2 6082   6.127   2.868   4.610  0.0762 -0.0644  0.9864
 1579SOL    HW3 6083   6.247   2.853   4.519 -1.4944 -0.3609 -1.1316
 1579SOL    MW4 6084   6.212   2.853   4.599 -0.1339 -0.3318 -0.4988
 1580SOL     OW 6085   0.220   1.878   1.449  0.2170 -1.0399 -0.0818
 1580SOL    HW2 6086   0.181   1.804   1.494  1.1935 -1.0027  0.8599
 1580SOL    HW3 6087   0.152   1.946   1.452  0.1093 -1.1730  0.9774
 1580SOL    MW4 6088   0.206   1.877   1.455  0.3316 -1.0526  0.1822
 1581SOL     OW 6089   3.836   3.237   5.137  0.0922 -0.7560  0.0173
 1581SOL    HW2 6090   3.889   3.158   5.126 -1.1294 -1.4546 -1.1811
 1581SOL    HW3 6091   3.850   3.287   5.057  0.7731  0.2289  0.7228
 1581SOL    MW4 6092   3.845   3.233   5.125  0.0209 -0.7182 -0.0477
 1582SOL     OW 6093   4.571   5.561   0.931  0.1449 -0.6423 -0.4623
 1582SOL    HW2 6094   4.635   5.620   0.892  2.2645 -1.3455  1.7000
 1582SOL    HW3 6095   4.553   5.496   0.863  2.0307 -0.6109 -1.0576
 1582SOL    MW4 6096   4.577   5.560   0.917  0.6734 -0.7309 -0.2555
 1583SOL     OW 6097   5.379   5.884   3.473  0.3116  0.0291  0.3063
 1583SOL    HW2 6098   5.296   5.928   3.495  0.8539  0.3257  1.9317
 1583SOL    HW3 6099   5.395   5.906   3.382 -1.1283  0.4193  0.1236
 1583SOL    MW4 6100   5.370   5.892   3.464  0.1932  0.1197  0.4966
 1584SOL     OW 6101   0.878   3.109   5.622 -0.7663 -0.0833 -0.7535
 1584SOL    HW2 6102   0.909   3.022   5.647 -2.9160 -0.8920 -0.6628
 1584SOL    HW3 6103   0.932   3.133   5.546  1.1539 -0.6170  0.3930
 1584SOL    MW4 6104   0.889   3.101   5.615 -0.7965 -0.2604 -0.5903
 1585SOL     OW 6105   6.281   4.356   3.583  0.1277  0.4908 -0.0033
 1585SOL    HW2 6106   6.292   4.402   3.666 -0.9812  1.1465 -0.1952
 1585SOL    HW3 6107   6.304   4.421   3.517  0.2246  0.2296 -0.2226
 1585SOL    MW4 6108   6.285   4.371   3.586 -0.0059  0.5428 -0.0576
 1586SOL     OW 6109   6.091   4.478   2.683  0.3020  0.1462 -0.0856
 1586SOL    HW2 6110   6.067   4.410   2.747 -0.4888  0.2782 -0.2230
 1586SOL    HW3 6111   6.037   4.458   2.607 -0.2822  1.1959  0.0344
 1586SOL    MW4 6112   6.080   4.466   2.682  0.1206  0.3021 -0.0879
 1587SOL     OW 6113   4.360   3.659   1.152  0.3726  0.5812  0.4477
 1587SOL    HW2 6114   4.333   3.569   1.135  0.0670  0.6434  0.5858
 1587SOL    HW3 6115   4.454   3.661   1.133  0.4904  0.0994  0.9739
 1587SOL    MW4 6116   4.369   3.648   1.147  0.3478  0.5258  0.5354
 1588SOL     OW 6117   5.052   3.134   5.188 -0.0659 -0.1167 -0.0071
 1588SOL    HW2 6118   5.016   3.170   5.270 -0.5744  2.9565 -1.4394
 1588SOL    HW3 6119   5.145   3.157   5.190 -0.1220  0.1481 -0.3757
 1588SOL    MW4 6120   5.060   3.142   5.199 -0.1404  0.3237 -0.2447
 1589SOL     OW 6121   6.018   2.775   6.289  0.0196 -0.3917  0.5611
 1589SOL    HW2 6122   6.090   2.731   6.335  0.3566 -0.9976 -0.5037
 1589SOL    HW3 6123   6.003   2.721   6.211 -1.0549  0.1748  0.3506
 1589SOL    MW4 6124   6.026   2.762   6.285 -0.0777 -0.3969  0.3928
 1590SOL     OW 6125   4.864   0.837   4.122  0.4116  0.1182 -0.4693
 1590SOL    HW2 6126   4.843   0.926   4.150  0.2279  0.8480 -2.7146
 1590SOL    HW3 6127   4.843   0.782   4.198  2.3378  2.1355  1.6548
 1590SOL    MW4 6128   4.858   0.842   4.136  0.6415  0.4806 -0.4853
 1591SOL     OW 6129   3.301   5.568   4.159 -0.3505 -0.2798 -0.0173
 1591SOL    HW2 6130   3.296   5.618   4.078 -0.1091 -0.2277 -0.0032
 1591SOL    HW3 6131   3.393   5.575   4.185 -0.7173  0.9627  1.0470
 1591SOL    MW4 6132   3.313   5.575   4.152 -0.3670 -0.1090  0.1250
 1592SOL     OW 6133   1.111   5.738   5.437 -0.2466  0.3761 -0.2512
 1592SOL    HW2 6134   1.200   5.724   5.468 -0.6821  0.2569  0.9960
 1592SOL    HW3 6135   1.119   5.803   5.367  0.8285  0.2131 -0.2838
 1592SOL    MW4 6136   1.124   5.745   5.432 -0.1622  0.3389 -0.0910
 1593SOL     OW 6137   1.673   0.878   1.397 -0.3780  0.3561  0.2582
 1593SOL    HW2 6138   1.716   0.855   1.479 -2.1414  1.0411  1.4428
 1593SOL    HW3 6139   1.654   0.972   1.405 -0.9968  0.3357 -0.7302
 1593SOL    MW4 6140   1.676   0.888   1.409 -0.6923  0.4438  0.2841
 1594SOL     OW 6141   3.629   0.069   1.958 -0.2686 -0.9215  0.4684
 1594SOL    HW2 6142   3.538   0.052   1.934  0.3868 -0.2565 -3.1024
 1594SOL    HW3 6143   3.637   0.164   1.959  0.8835 -0.9033 -2.0588
 1594SOL    MW4 6144   3.618   0.079   1.955 -0.0301 -0.8313 -0.3361
 1595SOL     OW 6145   1.972   2.253   6.419  0.5946 -0.1905 -0.2984
 1595SOL    HW2 6146   1.980   2.157   6.421  2.0474 -0.0708  1.4944
 1595SOL    HW3 6147   1.963   2.274   6.326  0.8914 -2.0145 -0.7813
 1595SOL    MW4 6148   1.972   2.243   6.407  0.8254 -0.4153 -0.1256
 1596SOL     OW 6149   0.472   1.100   3.068 -0.9789  0.2112 -0.0038
 1596SOL    HW2 6150   0.448   1.145   3.149 -0.2500 -1.2490  1.0659
 1596SOL    HW3 6151   0.403   1.034   3.056 -1.4746  0.8915 -0.9809
 1596SOL    MW4 6152   0.460   1.097   3.077 -0.9481  0.1083  0.0084
 1597SOL     OW 6153   1.083   4.108   6.362  0.2813  0.4757  0.7480
 1597SOL    HW2 6154   1.057   4.200   6.371 -1.4598  0.2658 -1.3150
 1597SOL    HW3 6155   1.113   4.101   6.272 -2.4606 -1.5327 -0.1541
 1597SOL    MW4 6156   1.083   4.119   6.351 -0.3102  0.1830  0.3568
 1598SOL     OW 6157   0.842   5.525   5.812 -0.1889  0.2022 -0.1976
 1598SOL    HW2 6158   0.917   5.581   5.794 -0.4327  0.8362  0.6975
 1598SOL    HW3 6159   0.864   5.479   5.893 -0.8372  0.5424  0.1818
 1598SOL    MW4 6160   0.855   5.526   5.820 -0.3066  0.3307 -0.0295
 1599SOL     OW 6161   1.051   0.617   5.307  0.9839 -0.3843 -0.3249
 1599SOL    HW2 6162   0.993   0.678   5.261  1.7812 -0.7508 -1.8773
 1599SOL    HW3 6163   1.042   0.641   5.399  0.0603  1.0194 -0.7399
 1599SOL    MW4 6164   1.042   0.628   5.313  0.9673 -0.2474 -0.5845
 1600SOL     OW 6165   1.677   2.351   5.028 -0.3467  0.3529 -0.2244
 1600SOL    HW2 6166   1.656   2.304   4.947  1.2147 -0.5180 -0.1635
 1600SOL    HW3 6167   1.681   2.443   5.001  0.6382  0.0321 -1.2961
 1600SOL    MW4 6168   1.675   2.357   5.013 -0.0107  0.1956 -0.3578
 1601SOL     OW 6169   0.017   3.690   5.845  0.4840 -0.0497  0.4673
 1601SOL    HW2 6170   0.034   3.784   5.851  0.4491 -0.0280  0.2310
 1601SOL    HW3 6171  -0.077   3.683   5.828  0.6391 -0.0946 -0.3975
 1601SOL    MW4 6172   0.007   3.702   5.844  0.4999 -0.0528  0.3220
 1602SOL     OW 6173   6.203   2.075   5.617 -0.0321 -0.4198  0.1789
 1602SOL    HW2 6174   6.261   2.011   5.576  0.9965 -0.3230  1.4342
 1602SOL    HW3 6175   6.117   2.057   5.577  0.5351 -1.5585 -0.6130
 1602SOL    MW4 6176   6.199   2.064   5.606  0.1785 -0.5573  0.2401
 1603SOL     OW 6177   5.573   1.308   5.631 -0.3083 -0.5265 -0.2042
 1603SOL    HW2 6178   5.642   1.343   5.575  1.1070  2.6141  3.1420
 1603SOL    HW3 6179   5.506   1.376   5.632 -0.5861 -0.7899  1.3255
 1603SOL    MW4 6180   5.573   1.321   5.624 -0.1582 -0.1469  0.4391
 1604SOL     OW 6181   1.678   4.116   5.274 -0.0500 -0.0768  0.5856
 1604SOL    HW2 6182   1.652   4.024   5.277  1.8626 -0.6388  1.3624
 1604SOL    HW3 6183   1.756   4.121   5.329  0.7928  1.7020 -0.6615
 1604SOL    MW4 6184   1.685   4.104   5.282  0.3136  0.0837  0.5236
 1605SOL     OW 6185   2.628   4.951   0.804 -0.2759  0.1590  0.7323
 1605SOL    HW2 6186   2.590   4.947   0.716 -0.8690  0.8834  0.9508
 1605SOL    HW3 6187   2.721   4.930   0.791 -0.1820  1.0581 -0.1904
 1605SOL    MW4 6188   2.635   4.948   0.791 -0.3417  0.3732  0.6394
 1606SOL     OW 6189   0.547   4.558   3.986 -0.7659  0.1203  0.3913
 1606SOL    HW2 6190   0.453   4.565   3.967 -0.7320  1.7545  0.6790
 1606SOL    HW3 6191   0.581   4.645   3.968  0.4538 -0.0610  1.6807
 1606SOL    MW4 6192   0.539   4.570   3.981 -0.6005  0.3120  0.5993
 1607SOL     OW 6193   4.136   1.481   6.105 -0.8759 -0.1804 -0.2618
 1607SOL    HW2 6194   4.195   1.554   6.121 -0.4852 -0.5778  0.1024
 1607SOL    HW3 6195   4.156   1.417   6.173 -1.6109 -0.3868 -0.2314
 1607SOL    MW4 6196   4.146   1.482   6.116 -0.9214 -0.2601 -0.2098
 1608SOL     OW 6197   1.003   1.105   5.789 -0.1395 -0.4107  0.0832
 1608SOL    HW2 6198   0.997   1.154   5.707  0.5836  0.6304  0.6319
 1608SOL    HW3 6199   0.969   1.166   5.855  1.8415 -0.1716  0.9472
 1608SOL    MW4 6200   0.997   1.120   5.787  0.2173 -0.2418  0.2696
 1609SOL     OW 6201   2.560   5.345   4.689  0.0173 -0.0185  0.3836
 1609SOL    HW2 6202   2.608   5.425   4.665 -1.7260  0.1788 -3.2374
 1609SOL    HW3 6203   2.627   5.277   4.694  1.1482  0.9992 -0.3375
 1609SOL    MW4 6204   2.575   5.347   4.686 -0.0635  0.1418 -0.1893
 1610SOL     OW 6205   0.024   4.831   0.112 -0.1750 -0.3773 -0.6321
 1610SOL    HW2 6206   0.014   4.740   0.141 -0.0119  0.0858  0.9684
 1610SOL    HW3 6207   0.042   4.824   0.018  1.1913 -2.0787 -0.3031
 1610SOL    MW4 6208   0.025   4.818   0.103  0.0268 -0.5407 -0.3775
 1611SOL     OW 6209   2.715   5.575   2.435  0.3502 -0.0675 -0.1880
 1611SOL    HW2 6210   2.670   5.559   2.518 -1.6640 -0.1030 -1.2248
 1611SOL    HW3 6211   2.794   5.624   2.460 -1.5107  2.3009  1.5190
 1611SOL    MW4 6212   2.720   5.579   2.450 -0.1610  0.2403 -0.0996
 1612SOL     OW 6213   6.361   5.947   3.204  0.4248  0.2592  0.0826
 1612SOL    HW2 6214   6.434   5.918   3.149  0.5019  0.6407 -0.0181
 1612SOL    HW3 6215   6.347   5.874   3.265 -0.1082 -0.4489 -0.8762
 1612SOL    MW4 6216   6.369   5.934   3.205  0.3646  0.2161 -0.0572
 1613SOL     OW 6217   1.070   2.559   6.155  0.2013  0.3935  0.2139
 1613SOL    HW2 6218   1.023   2.524   6.230 -1.6066 -0.1009 -1.0762
 1613SOL    HW3 6219   1.005   2.610   6.107  0.5505 -1.4241 -2.3819
 1613SOL    MW4 6220   1.055   2.561   6.159  0.0088  0.0885 -0.2988
 1614SOL     OW 6221   3.401   4.079   5.304 -0.3090 -0.1687 -0.3878
 1614SOL    HW2 6222   3.395   4.020   5.379 -0.3016  0.5521  0.1919
 1614SOL    HW3 6223   3.311   4.103   5.285 -0.2952 -0.1883 -0.4779
 1614SOL    MW4 6224   3.388   4.074   5.312 -0.3062 -0.0761 -0.3232
 1615SOL     OW 6225   2.432   4.113   3.654  0.0127  0.4596  0.1699
 1615SOL    HW2 6226   2.437   4.031   3.603 -0.6675  0.9669 -0.7508
 1615SOL    HW3 6227   2.524   4.135   3.672  0.1968 -0.6783  0.7360
 1615SOL    MW4 6228   2.445   4.105   3.649 -0.0528  0.3764  0.1231
 1616SOL     OW 6229   3.865   4.565   2.644  0.1187 -0.0530  0.4363
 1616SOL    HW2 6230   3.898   4.557   2.733  0.9040 -0.6840  0.0984
 1616SOL    HW3 6231   3.777   4.527   2.648  1.1074 -2.5432  0.4265
 1616SOL    MW4 6232   3.858   4.559   2.656  0.3527 -0.4648  0.3904
 1617SOL     OW 6233   5.911   2.019   5.461  0.0310  0.3466  0.0847
 1617SOL    HW2 6234   5.967   2.068   5.400 -1.1092 -0.0225 -1.3288
 1617SOL    HW3 6235   5.835   2.076   5.474  0.0024  0.1683  0.7175
 1617SOL    MW4 6236   5.909   2.033   5.454 -0.1232  0.2744 -0.0183
 1618SOL     OW 6237   3.201   5.998   4.337 -0.0078 -0.4230  0.6884
 1618SOL    HW2 6238   3.239   5.915   4.366  1.0078 -0.2543 -0.1067
 1618SOL    HW3 6239   3.135   5.972   4.272  0.1259 -0.6289  0.6322
 1618SOL    MW4 6240   3.197   5.984   4.332  0.1438 -0.4279  0.5761
 1619SOL     OW 6241   0.259   3.966   4.608  0.0741 -0.0411 -0.2715
 1619SOL    HW2 6242   0.263   3.930   4.697 -0.2203 -1.9516 -1.0024
 1619SOL    HW3 6243   0.288   3.895   4.552 -0.4383  0.9055 -1.7905
 1619SOL    MW4 6244   0.264   3.952   4.613 -0.0323 -0.1683 -0.5684
 1620SOL     OW 6245   1.723   4.956   6.373 -0.3824  0.2135  0.4101
 1620SOL    HW2 6246   1.662   5.030   6.369  1.4015  1.7749  1.1144
 1620SOL    HW3 6247   1.808   4.993   6.349  0.5038 -1.7010  0.4012
 1620SOL    MW4 6248   1.726   4.971   6.369 -0.0301  0.1669  0.5018
 1621SOL     OW 6249   0.345   5.095   2.391 -0.7449 -0.5331  0.6251
 1621SOL    HW2 6250   0.376   5.100   2.300 -0.4374 -0.4890  0.7329
 1621SOL    HW3 6251   0.369   5.179   2.429 -2.5876  0.2358  0.2169
 1621SOL    MW4 6252   0.352   5.106   2.384 -0.9474 -0.4259  0.5855
 1622SOL     OW 6253   1.473   2.706   0.279 -0.5467 -0.5766  0.0930
 1622SOL    HW2 6254   1.422   2.771   0.230  0.4221  0.5356  0.5213
 1622SOL    HW3 6255   1.475   2.630   0.221 -0.4728  0.2821 -1.0809
 1622SOL    MW4 6256   1.466   2.705   0.265 -0.4091 -0.3166 -0.0053
 1623SOL     OW 6257   1.737   2.428   1.526 -0.5650  0.6708  0.3607
 1623SOL    HW2 6258   1.811   2.373   1.550 -1.2559 -1.2420 -1.5106
 1623SOL    HW3 6259   1.765   2.473   1.446 -1.6523 -0.8402 -0.9544
 1623SOL    MW4 6260   1.750   2.426   1.518 -0.7996  0.2190 -0.0597
 1624SOL     OW 6261   4.851   3.605   3.126  0.0600  0.2886 -0.2687
 1624SOL    HW2 6262   4.788   3.642   3.065  0.0505  0.3144 -0.2440
 1624SOL    HW3 6263   4.800   3.586   3.205  0.3397  1.6475  0.2786
 1624SOL    MW4 6264   4.836   3.607   3.128  0.0957  0.4713 -0.1933
 1625SOL     OW 6265   3.925   0.888   5.397  0.1828  0.3215  0.1362
 1625SOL    HW2 6266   3.955   0.969   5.438 -1.6204  3.0049 -3.3149
 1625SOL    HW3 6267   4.004   0.851   5.358  1.0471  0.3080  1.7878
 1625SOL    MW4 6268   3.940   0.894   5.397  0.0589  0.6737 -0.1013
 1626SOL     OW 6269   0.828   5.485   4.401 -0.2458  0.0362  0.0391
 1626SOL    HW2 6270   0.767   5.543   4.355  0.6089  1.4287  0.5766
 1626SOL    HW3 6271   0.829   5.518   4.491 -0.3231 -1.3234  0.5569
 1626SOL    MW4 6272   0.820   5.497   4.407 -0.1433  0.0406  0.1783
 1627SOL     OW 6273   3.975   3.098   3.948 -0.0005 -0.1128  0.6699
 1627SOL    HW2 6274   3.966   3.030   3.881 -0.8676  0.3565  0.2927
 1627SOL    HW3 6275   4.067   3.123   3.945 -0.2321  0.6634 -1.1279
 1627SOL    MW4 6276   3.986   3.092   3.939 -0.1455  0.0515  0.3829
 1628SOL     OW 6277   0.228   6.140   6.234 -0.1192  0.9508 -0.1361
 1628SOL    HW2 6278   0.142   6.134   6.194 -0.6350  1.1475  0.9235
 1628SOL    HW3 6279   0.221   6.092   6.316  0.1724  2.6662  0.9537
 1628SOL    MW4 6280   0.216   6.133   6.239 -0.1487  1.2030  0.1475
 1629SOL     OW 6281   6.160   5.689   0.602 -0.4745  0.1353 -0.0826
 1629SOL    HW2 6282   6.167   5.612   0.658  2.6803  0.1186 -0.3112
 1629SOL    HW3 6283   6.142   5.761   0.662  0.9193 -0.1724  0.7390
 1629SOL    MW4 6284   6.158   5.689   0.617  0.1256  0.0925 -0.0043
 1630SOL     OW 6285   0.079   3.555   6.084  0.9549  0.0841 -0.8180
 1630SOL    HW2 6286   0.059   3.603   6.004 -0.1186  1.0271 -0.0260
 1630SOL    HW3 6287   0.095   3.465   6.056 -2.4787 -0.3599 -1.8450
 1630SOL    MW4 6288   0.078   3.550   6.070  0.3602  0.1499 -0.8490
 1631SOL     OW 6289   1.495   1.873   6.052 -0.5204 -0.0359  0.2279
 1631SOL    HW2 6290   1.436   1.833   5.988  1.6464 -0.4425 -1.6420
 1631SOL    HW3 6291   1.485   1.820   6.130 -0.2875 -2.1362 -1.0883
 1631SOL    MW4 6292   1.486   1.861   6.054 -0.2038 -0.3667 -0.1925
 1632SOL     OW 6293   3.068   3.913   0.872 -0.4937  0.0254 -0.2266
 1632SOL    HW2 6294   2.996   3.872   0.824  0.2736 -1.4087 -0.1891
 1632SOL    HW3 6295   3.123   3.952   0.804 -1.3122  1.1873 -0.2517
 1632SOL    MW4 6296   3.066   3.913   0.856 -0.5004 -0.0105 -0.2249
 1633SOL     OW 6297   0.023   3.046   4.713  0.3889 -0.1556  0.1091
 1633SOL    HW2 6298  -0.050   3.053   4.652 -0.0574 -0.3446  0.6237
 1633SOL    HW3 6299   0.098   3.082   4.664 -0.5369  2.5446  0.4793
 1633SOL    MW4 6300   0.024   3.052   4.698  0.2079  0.1757  0.2258
 1634SOL     OW 6301   2.690   5.039   0.340  0.7773  0.2851 -0.4613
 1634SOL    HW2 6302   2.645   4.993   0.410  2.1542 -1.9655 -0.9285
 1634SOL    HW3 6303   2.778   5.054   0.374  0.5692  2.0525 -0.5926
 1634SOL    MW4 6304   2.696   5.035   0.354  0.9315  0.2214 -0.5402
 1635SOL     OW 6305   4.461   3.334   5.300 -0.5004 -0.2100  0.2317
 1635SOL    HW2 6306   4.514   3.316   5.378  1.6510 -0.5476 -1.2294
 1635SOL    HW3 6307   4.404   3.406   5.326 -0.0053 -0.4695  2.1830
 1635SOL    MW4 6308   4.461   3.341   5.314 -0.1512 -0.2888  0.2964
 1636SOL     OW 6309   4.486   3.934   6.288  0.0535 -0.5723 -0.5667
 1636SOL    HW2 6310   4.532   3.855   6.317  1.8656  0.2208 -1.1906
 1636SOL    HW3 6311   4.457   3.913   6.199 -1.5941 -1.3602  0.0975
 1636SOL    MW4 6312   4.488   3.921   6.280  0.0752 -0.5716 -0.5614
 1637SOL     OW 6313   5.554   3.709   2.768 -0.1102  0.3318 -0.2561
 1637SOL    HW2 6314   5.544   3.779   2.833  0.9631  1.4694 -1.2871
 1637SOL    HW3 6315   5.630   3.659   2.799 -0.4977 -0.0258  0.1402
 1637SOL    MW4 6316   5.563   3.711   2.781 -0.0197  0.4347 -0.3399
 1638SOL     OW 6317   4.605   2.127   4.573  0.1774 -0.3343  0.7817
 1638SOL    HW2 6318   4.694   2.112   4.542  0.5965  0.4481  1.5656
 1638SOL    HW3 6319   4.549   2.097   4.501  1.0928  0.3295 -0.2446
 1638SOL    MW4 6320   4.609   2.121   4.559  0.3535 -0.1435  0.7498
 1639SOL     OW 6321   2.284   6.290   5.361  0.7262  0.1443  0.4847
 1639SOL    HW2 6322   2.323   6.376   5.373  1.5851 -0.3916  1.8195
 1639SOL    HW3 6323   2.222   6.281   5.434 -1.4196  0.6627 -1.1537
 1639SOL    MW4 6324   2.281   6.300   5.372  0.5564  0.1420  0.4446
 1640SOL     OW 6325   3.259   2.367   3.367  0.6186  0.4139  0.0654
 1640SOL    HW2 6326   3.315   2.290   3.361  0.2807  0.0950  0.8340
 1640SOL    HW3 6327   3.234   2.387   3.277  2.1366  0.6999 -0.3277
 1640SOL    MW4 6328   3.263   2.360   3.355  0.7743  0.4095  0.1150
 1641SOL     OW 6329   1.272   2.530   5.743  0.3352  0.1385 -0.1247
 1641SOL    HW2 6330   1.180   2.550   5.758 -0.6094 -1.6973 -2.6101
 1641SOL    HW3 6331   1.275   2.434   5.736  2.0452  0.2452 -1.9514
 1641SOL    MW4 6332   1.261   2.520   5.744  0.4362 -0.0897 -0.6937
 1642SOL     OW 6333   5.991   1.757   4.037  0.1486  0.1718 -0.7168
 1642SOL    HW2 6334   5.946   1.741   3.954  1.7556  0.4347 -1.6796
 1642SOL    HW3 6335   5.931   1.812   4.087 -0.6239  0.4529 -1.9122
 1642SOL    MW4 6336   5.978   1.762   4.033  0.2587  0.2435 -1.0015
 1643SOL     OW 6337   0.782   1.195   1.734 -0.1586 -0.2008 -0.1933
 1643SOL    HW2 6338   0.709   1.178   1.794  0.2100  0.7480  0.5568
 1643SOL    HW3 6339   0.831   1.113   1.732 -1.0511 -0.7459 -0.4463
 1643SOL    MW4 6340   0.779   1.182   1.742 -0.2277 -0.1475 -0.1278
 1644SOL     OW 6341   4.918   0.276   0.420  0.3151  0.9271 -0.0787
 1644SOL    HW2 6342   4.993   0.295   0.363  0.7908 -0.8179 -0.0746
 1644SOL    HW3 6343   4.919   0.181   0.430 -1.7356  0.8989  0.1820
 1644SOL    MW4 6344   4.928   0.266   0.414  0.1073  0.6931 -0.0438
 1645SOL     OW 6345   3.368   3.859   2.493  0.8669 -0.1531  0.3777
 1645SOL    HW2 6346   3.372   3.807   2.412  0.8388  0.0796  0.2257
 1645SOL    HW3 6347   3.274   3.875   2.506  0.8406 -0.5451  0.6853
 1645SOL    MW4 6348   3.356   3.854   2.484  0.8597 -0.1741  0.3982
 1646SOL     OW 6349   3.273   4.943   6.236 -0.1226  0.1178  0.5207
 1646SOL    HW2 6350   3.180   4.962   6.250 -0.4443 -1.0206  0.0220
 1646SOL    HW3 6351   3.302   5.011   6.175 -0.4884  0.7776  1.0594
 1646SOL    MW4 6352   3.264   4.954   6.230 -0.2133  0.0547  0.5260
 1647SOL     OW 6353   2.842   4.428   6.099  0.5722  0.0781 -0.3493
 1647SOL    HW2 6354   2.928   4.426   6.059  0.1981  0.4601 -1.1973
 1647SOL    HW3 6355   2.858   4.451   6.190  1.2003  2.6215 -1.0288
 1647SOL    MW4 6356   2.855   4.431   6.106  0.6057  0.4641 -0.5508
 1648SOL     OW 6357   4.750   5.832   6.038  0.3729 -0.0472 -0.2434
 1648SOL    HW2 6358   4.715   5.894   5.974 -0.0879  2.5022  2.3174
 1648SOL    HW3 6359   4.830   5.874   6.071  1.9360 -2.4152 -0.7589
 1648SOL    MW4 6360   4.756   5.846   6.034  0.5184 -0.0233  0.0264
 1649SOL     OW 6361   0.948   0.165   3.347  0.0190 -0.0762 -0.0665
 1649SOL    HW2 6362   0.896   0.088   3.325  1.2006 -1.0937  0.5883
 1649SOL    HW3 6363   1.026   0.158   3.292 -0.0754  0.9318 -0.3584
 1649SOL    MW4 6364   0.951   0.154   3.336  0.1624 -0.0774 -0.0187
 1650SOL     OW 6365   0.321   0.635   4.217 -0.1994 -0.0967  0.5754
 1650SOL    HW2 6366   0.244   0.579   4.225 -0.8109  0.5915 -0.2925
 1650SOL    HW3 6367   0.290   0.723   4.241  0.2207  0.2452 -0.1060
 1650SOL    MW4 6368   0.307   0.639   4.221 -0.2247  0.0392  0.3710
 1651SOL     OW 6369   5.941   4.567   5.888  0.2546 -0.1573 -0.2889
 1651SOL    HW2 6370   5.877   4.564   5.816  0.6871  1.0651 -0.7470
 1651SOL    HW3 6371   5.913   4.497   5.948  0.1153 -1.4873 -1.8269
 1651SOL    MW4 6372   5.929   4.557   5.886  0.2933 -0.1715 -0.5523
 1652SOL     OW 6373   2.006   2.232   1.909 -0.4845 -0.2415  0.0738
 1652SOL    HW2 6374   2.003   2.322   1.941  1.4834 -0.3286  0.6543
 1652SOL    HW3 6375   2.001   2.240   1.814 -0.3266  0.4781  0.1212
 1652SOL    MW4 6376   2.005   2.245   1.901 -0.2040 -0.1581  0.1566
 1653SOL     OW 6377   4.133   1.432   0.646  0.2530 -0.0189  0.2011
 1653SOL    HW2 6378   4.115   1.376   0.721  1.4226  0.7827  1.1218
 1653SOL    HW3 6379   4.134   1.373   0.571 -0.0787 -0.9745  0.9318
 1653SOL    MW4 6380   4.131   1.417   0.646  0.3636 -0.0392  0.4190
 1654SOL     OW 6381   5.235   0.613   4.707  0.0653  0.1730 -0.3043
 1654SOL    HW2 6382   5.154   0.581   4.746  0.7759  1.6251  2.6024
 1654SOL    HW3 6383   5.294   0.537   4.708 -0.2198 -0.0424  0.6487
 1654SOL    MW4 6384   5.232   0.599   4.712  0.1214  0.3362  0.2050
 1655SOL     OW 6385   3.254   6.077   5.977 -0.1096  0.0150  0.1027
 1655SOL    HW2 6386   3.171   6.047   6.014  0.3856 -0.4301  0.8724
 1655SOL    HW3 6387   3.280   6.150   6.034 -0.4708  0.8261 -0.7503
 1655SOL    MW4 6388   3.246   6.083   5.990 -0.0919  0.0633  0.0917
 1656SOL     OW 6389   0.515   0.160   0.572  0.4959 -0.0069 -0.2193
 1656SOL    HW2 6390   0.420   0.176   0.570  0.6213  0.8283  0.0726
 1656SOL    HW3 6391   0.523   0.069   0.604 -0.1889  0.1610  0.4758
 1656SOL    MW4 6392   0.503   0.150   0.576  0.4221  0.1254 -0.0891
 1657SOL     OW 6393   1.431   1.560   2.707 -0.0076 -0.2876 -0.4434
 1657SOL    HW2 6394   1.468   1.628   2.651  1.1857 -0.7135 -0.1922
 1657SOL    HW3 6395   1.343   1.591   2.726  0.1793  0.7183 -1.1131
 1657SOL    MW4 6396   1.424   1.573   2.702  0.1745 -0.2111 -0.4986
 1658SOL     OW 6397   6.400   5.124   0.683  0.2619 -0.2539  0.1696
 1658SOL    HW2 6398   6.317   5.079   0.697  1.0861 -1.0704  3.3400
 1658SOL    HW3 6399   6.460   5.056   0.652  0.2012 -0.0569 -0.3993
 1658SOL    MW4 6400   6.397   5.109   0.681  0.3626 -0.3356  0.5128
 1659SOL     OW 6401   5.321   4.242   0.280 -0.2973  0.2631 -0.0892
 1659SOL    HW2 6402   5.256   4.214   0.345 -1.7696  1.0489 -1.1711
 1659SOL    HW3 6403   5.389   4.175   0.284 -2.2212 -1.8293 -0.4281
 1659SOL    MW4 6404   5.321   4.229   0.289 -0.7454  0.0907 -0.2766
 1660SOL     OW 6405   0.444   1.568   3.751 -0.6467  0.5416  0.4900
 1660SOL    HW2 6406   0.440   1.622   3.830 -0.2800 -0.4292  1.1893
 1660SOL    HW3 6407   0.411   1.482   3.779  0.4777 -0.1109 -0.1384
 1660SOL    MW4 6408   0.439   1.564   3.765 -0.4500  0.3274  0.4994
 1661SOL     OW 6409   2.797   0.253   3.458 -0.0357 -0.3712 -0.0839
 1661SOL    HW2 6410   2.859   0.241   3.530 -1.8230 -0.4018  1.5085
 1661SOL    HW3 6411   2.773   0.346   3.462  0.2459 -0.2439 -1.0132
 1661SOL    MW4 6412   2.802   0.264   3.468 -0.2344 -0.3584  0.0036
 1662SOL     OW 6413   3.290   2.587   3.950 -0.5968  0.6657 -0.1426
 1662SOL    HW2 6414   3.207   2.632   3.934 -0.8946  1.7580  3.4677
 1662SOL    HW3 6415   3.357   2.643   3.909 -1.4751  0.5823 -1.7605
 1662SOL    MW4 6416   3.288   2.600   3.943 -0.7519  0.7988  0.1203
 1663SOL     OW 6417   3.400   4.908   5.977  0.0704  0.2898  0.4226
 1663SOL    HW2 6418   3.378   4.860   6.057  1.0097 -1.0040 -0.0608
 1663SOL    HW3 6419   3.319   4.905   5.925 -0.2641  0.3317  0.9331
 1663SOL    MW4 6420   3.386   4.901   5.980  0.1502  0.1246  0.4262
 1664SOL     OW 6421   4.710   3.856   2.863 -0.1313  0.3296 -0.2275
 1664SOL    HW2 6422   4.640   3.920   2.877 -1.8629 -2.0633  3.9003
 1664SOL    HW3 6423   4.783   3.888   2.917 -0.0253  0.1068 -0.2380
 1664SOL    MW4 6424   4.711   3.869   2.872 -0.3458 -0.0155  0.3157
 1665SOL     OW 6425   3.701   1.389   2.282  0.3466  0.1164  0.0053
 1665SOL    HW2 6426   3.699   1.475   2.324  0.3153 -0.6232  1.6051
 1665SOL    HW3 6427   3.693   1.327   2.355 -0.5926 -1.2261 -1.2006
 1665SOL    MW4 6428   3.700   1.392   2.297  0.2186 -0.1583  0.0572
 1666SOL     OW 6429   5.947   5.907   6.386 -0.1276 -0.3361 -0.3901
 1666SOL    HW2 6430   5.875   5.952   6.341  0.1335  1.1283  0.5902
 1666SOL    HW3 6431   5.904   5.835   6.433 -0.7554 -0.2872 -0.8656
 1666SOL    MW4 6432   5.932   5.903   6.386 -0.1759 -0.1365 -0.3235
 1667SOL     OW 6433   1.982   3.691   3.607  0.1647 -0.1873 -0.0254
 1667SOL    HW2 6434   1.891   3.701   3.637 -0.1190  0.8778 -1.1493
 1667SOL    HW3 6435   2.009   3.780   3.584  1.0947 -0.6662 -0.8308
 1667SOL    MW4 6436   1.974   3.704   3.608  0.2500 -0.1100 -0.2800
 1668SOL     OW 6437   4.024   3.885   1.924  0.2491  0.0552  0.5005
 1668SOL    HW2 6438   4.029   3.927   1.838  0.5843 -1.7147 -0.4008
 1668SOL    HW3 6439   3.948   3.925   1.966  1.1775  2.3065  0.1714
 1668SOL    MW4 6440   4.015   3.896   1.918  0.4158  0.1187  0.3381
 1669SOL     OW 6441   5.348   6.246   3.959  0.0355  0.0070  0.3915
 1669SOL    HW2 6442   5.443   6.230   3.967 -0.0983 -0.9613  0.2180
 1669SOL    HW3 6443   5.342   6.335   3.924  0.8566  0.4611  1.3375
 1669SOL    MW4 6444   5.360   6.256   3.955  0.1262 -0.0608  0.4934
 1670SOL     OW 6445   3.328   1.132   3.901 -0.1051  0.7790  0.5312
 1670SOL    HW2 6446   3.236   1.137   3.877  0.4207  0.0497 -1.9285
 1670SOL    HW3 6447   3.336   1.049   3.947 -0.6411  0.7769  0.6296
 1670SOL    MW4 6448   3.317   1.122   3.904 -0.1064  0.6825  0.2197
 1671SOL     OW 6449   5.483   4.109   5.651 -0.2580  0.3959 -0.1159
 1671SOL    HW2 6450   5.400   4.129   5.693 -0.6197 -0.1334 -0.5614
 1671SOL    HW3 6451   5.462   4.103   5.558  0.3506  0.6323 -0.2752
 1671SOL    MW4 6452   5.470   4.111   5.644 -0.2254  0.3573 -0.1957
 1672SOL     OW 6453   4.755   1.340   4.838 -0.4986  0.1650  0.6848
 1672SOL    HW2 6454   4.760   1.416   4.896  2.5568 -0.0892  0.9245
 1672SOL    HW3 6455   4.770   1.375   4.751  2.7362 -0.2435  0.9810
 1672SOL    MW4 6456   4.757   1.354   4.834  0.3313  0.0776  0.7555
 1673SOL     OW 6457   1.799   0.235   5.471  0.1685 -0.3057 -0.1257
 1673SOL    HW2 6458   1.864   0.273   5.529 -1.1703  0.7320  0.7534
 1673SOL    HW3 6459   1.840   0.235   5.384  0.8842  1.4566  0.1842
 1673SOL    MW4 6460   1.813   0.240   5.467  0.0863  0.0638  0.0312
 1674SOL     OW 6461   6.213   4.540   2.219 -0.0257  0.3694  0.0550
 1674SOL    HW2 6462   6.133   4.574   2.179  0.1306  2.9010  1.7280
 1674SOL    HW3 6463   6.282   4.565   2.159 -0.4157 -2.4186 -1.7504
 1674SOL    MW4 6464   6.211   4.547   2.206 -0.0566  0.3356  0.0375
 1675SOL     OW 6465   5.468   2.987   2.646  0.4079 -0.3568  0.0917
 1675SOL    HW2 6466   5.405   3.040   2.597 -0.6242 -0.4699  1.2394
 1675SOL    HW3 6467   5.553   3.008   2.606 -0.0069  1.8764  0.2261
 1675SOL    MW4 6468   5.471   2.997   2.634  0.2170 -0.0771  0.2608
 1676SOL     OW 6469   5.000   6.379   0.772  0.3137  0.1820  0.1800
 1676SOL    HW2 6470   5.094   6.386   0.755  0.4344 -2.0256 -0.3145
 1676SOL    HW3 6471   4.958   6.408   0.691  0.5611  0.7983  0.2660
 1676SOL    MW4 6472   5.007   6.384   0.759  0.3623 -0.0280  0.1261
 1677SOL     OW 6473   1.734   2.389   3.567 -0.2969  0.5149 -0.0355
 1677SOL    HW2 6474   1.817   2.342   3.566 -0.5863  0.0024 -0.8381
 1677SOL    HW3 6475   1.756   2.476   3.601  0.0151 -0.5688  2.8107
 1677SOL    MW4 6476   1.748   2.394   3.572 -0.2939  0.3043  0.2341
 1678SOL     OW 6477   5.714   5.455   2.006 -0.3024  0.3162 -0.1913
 1678SOL    HW2 6478   5.650   5.470   1.936 -1.4001  0.0566  0.7275
 1678SOL    HW3 6479   5.791   5.422   1.961 -0.6334  1.1066 -1.3853
 1678SOL    MW4 6480   5.715   5.453   1.991 -0.4909  0.3863 -0.2276
 1679SOL     OW 6481   2.990   0.042   4.818  0.2202 -0.2426 -0.8569
 1679SOL    HW2 6482   3.007   0.063   4.726 -1.0031 -0.4427 -1.1504
 1679SOL    HW3 6483   2.950   0.121   4.853 -1.2419 -0.8617 -1.0652
 1679SOL    MW4 6484   2.987   0.055   4.810 -0.1341 -0.3507 -0.9231
 1680SOL     OW 6485   5.305   4.070   0.931 -0.5915  0.2046  0.0547
 1680SOL    HW2 6486   5.391   4.062   0.890 -0.3886  2.6815 -0.1558
 1680SOL    HW3 6487   5.321   4.052   1.023  0.1258  0.3982 -0.0227
 1680SOL    MW4 6488   5.319   4.067   0.938 -0.4701  0.5569  0.0167
 1681SOL     OW 6489   0.100   1.849   6.265 -0.2131  0.0937  0.0831
 1681SOL    HW2 6490   0.019   1.813   6.230 -0.5357  0.9057 -0.0061
 1681SOL    HW3 6491   0.139   1.776   6.314 -0.4808 -0.6083 -0.7209
 1681SOL    MW4 6492   0.095   1.834   6.267 -0.2910  0.1082 -0.0348
 1682SOL     OW 6493   5.303   1.005   0.536  0.8638 -0.0207 -0.6518
 1682SOL    HW2 6494   5.354   1.056   0.473  0.6208  1.1250  0.0446
 1682SOL    HW3 6495   5.274   1.069   0.601 -0.3429 -0.8802 -0.3027
 1682SOL    MW4 6496   5.306   1.020   0.537  0.6725  0.0171 -0.5139
 1683SOL     OW 6497   5.440   4.452   4.172 -0.1384  0.3908 -0.8982
 1683SOL    HW2 6498   5.513   4.479   4.116 -0.6284  1.0502 -1.2267
 1683SOL    HW3 6499   5.443   4.512   4.247 -0.2955  0.3699 -0.8740
 1683SOL    MW4 6500   5.450   4.463   4.174 -0.2237  0.4751 -0.9384
 1684SOL     OW 6501   6.288   2.042   0.056 -0.2213 -0.5911 -0.1064
 1684SOL    HW2 6502   6.277   2.100   0.131 -2.5497  1.4765 -1.8673
 1684SOL    HW3 6503   6.240   1.962   0.080  0.3617 -0.5886  1.1360
 1684SOL    MW4 6504   6.280   2.039   0.069 -0.4516 -0.3180 -0.1748
 1685SOL     OW 6505   1.646   3.502   4.806  0.5384 -0.6543 -0.0892
 1685SOL    HW2 6506   1.683   3.567   4.747  1.0321 -0.2640  0.6324
 1685SOL    HW3 6507   1.599   3.441   4.749 -0.0134  0.3836 -0.7715
 1685SOL    MW4 6508   1.644   3.502   4.791  0.5308 -0.4659 -0.0840
 1686SOL     OW 6509   2.966   1.881   4.288 -0.1269 -0.0837 -0.3976
 1686SOL    HW2 6510   3.057   1.896   4.315 -0.4378 -0.3211  0.8502
 1686SOL    HW3 6511   2.949   1.951   4.225  0.7064  0.3951 -0.1191
 1686SOL    MW4 6512   2.976   1.892   4.284 -0.0580 -0.0519 -0.1962
 1687SOL     OW 6513   2.003   1.856   0.550 -0.2545  0.4901  0.1665
 1687SOL    HW2 6514   1.986   1.824   0.638  0.5973  0.7009  0.4178
 1687SOL    HW3 6515   2.093   1.829   0.531 -0.1876  1.0491 -0.3589
 1687SOL    MW4 6516   2.013   1.848   0.559 -0.1333  0.5917  0.1303
 1688SOL     OW 6517   2.480   0.737   3.838  0.1090  0.4792  0.1308
 1688SOL    HW2 6518   2.487   0.703   3.928  0.3124 -3.2908 -1.1433
 1688SOL    HW3 6519   2.386   0.732   3.818  0.3053 -1.0530 -0.5816
 1688SOL    MW4 6520   2.468   0.732   3.847  0.1617 -0.2204 -0.1313
 1689SOL     OW 6521   2.030   0.361   1.294 -0.2432 -0.0824 -0.1269
 1689SOL    HW2 6522   2.076   0.299   1.351 -1.6240 -0.9294  0.1092
 1689SOL    HW3 6523   2.019   0.315   1.211  0.8623  0.7770 -0.7813
 1689SOL    MW4 6524   2.035   0.347   1.291 -0.2795 -0.0808 -0.1821
 1690SOL     OW 6525   0.921   0.621   0.435 -0.2827 -0.3993 -0.1277
 1690SOL    HW2 6526   0.854   0.683   0.408 -0.7157 -1.1648 -0.8244
 1690SOL    HW3 6527   0.989   0.627   0.368  1.3101  1.7591  1.5207
 1690SOL    MW4 6528   0.921   0.630   0.423 -0.1297 -0.2155 -0.0021
 1691SOL     OW 6529   1.960   2.851   6.301 -0.3034 -0.3979 -0.2379
 1691SOL    HW2 6530   1.909   2.917   6.253 -0.0110 -0.8276 -1.1696
 1691SOL    HW3 6531   2.044   2.894   6.319  0.0353 -0.6224 -1.1932
 1691SOL    MW4 6532   1.964   2.866   6.297 -0.2202 -0.4842 -0.4868
 1692SOL     OW 6533   4.703   5.557   3.412  0.4645  0.0618  0.4440
 1692SOL    HW2 6534   4.679   5.499   3.340  0.1749 -0.1385  0.6969
 1692SOL    HW3 6535   4.798   5.560   3.411  0.6323 -2.1776  1.7770
 1692SOL    MW4 6536   4.712   5.550   3.403  0.4484 -0.2601  0.6533
 1693SOL     OW 6537   0.454   1.139   4.106 -0.6870 -0.2569 -0.3996
 1693SOL    HW2 6538   0.361   1.131   4.084 -0.6369  0.8196 -1.0755
 1693SOL    HW3 6539   0.499   1.133   4.022 -0.1271 -0.9351 -0.0582
 1693SOL    MW4 6540   0.448   1.137   4.092 -0.6065 -0.2043 -0.4438
 1694SOL     OW 6541   2.941   3.813   3.068 -0.6058 -0.3265 -0.0604
 1694SOL    HW2 6542   3.013   3.755   3.094 -0.0196  0.3187 -0.2142
 1694SOL    HW3 6543   2.942   3.811   2.972 -1.5094 -1.1737 -0.0640
 1694SOL    MW4 6544   2.951   3.805   3.059 -0.6477 -0.3532 -0.0812
 1695SOL     OW 6545   5.447   2.200   4.511  0.1216 -0.3423 -0.4589
 1695SOL    HW2 6546   5.533   2.232   4.542 -0.5534  0.2280  0.9120
 1695SOL    HW3 6547   5.389   2.275   4.523 -0.5594 -0.6882 -1.5068
 1695SOL    MW4 6548   5.451   2.214   4.517 -0.0573 -0.3127 -0.4162
 1696SOL     OW 6549   1.080   5.728   3.099  0.2174  0.4018 -0.4620
 1696SOL    HW2 6550   1.122   5.766   3.177 -1.1617  0.4165  0.3007
 1696SOL    HW3 6551   1.025   5.799   3.065 -2.0238 -0.6989  0.6993
 1696SOL    MW4 6552   1.078   5.743   3.105 -0.2603  0.2585 -0.2081
 1697SOL     OW 6553   5.070   4.928   4.620 -0.1340  0.0227  0.2943
 1697SOL    HW2 6554   5.004   4.985   4.660  0.3601  0.9121 -0.1343
 1697SOL    HW3 6555   5.152   4.975   4.630  0.5571 -1.3365  1.3307
 1697SOL    MW4 6556   5.072   4.942   4.627  0.0224 -0.0393  0.3745
 1698SOL     OW 6557   4.536   3.770   2.148  0.5922  0.5674 -0.3410
 1698SOL    HW2 6558   4.501   3.839   2.204  1.2648  0.8129 -0.2187
 1698SOL    HW3 6559   4.580   3.817   2.077  1.6768  0.2719  0.1280
 1698SOL    MW4 6560   4.537   3.785   2.146  0.8240  0.5608 -0.2630
 1699SOL     OW 6561   5.474   3.616   1.243  0.3151  0.4545 -0.2391
 1699SOL    HW2 6562   5.396   3.561   1.236 -0.0636  0.7905  1.0856
 1699SOL    HW3 6563   5.530   3.587   1.171 -0.6491 -0.3938 -0.6766
 1699SOL    MW4 6564   5.471   3.605   1.232  0.1379  0.3869 -0.1221
 1700SOL     OW 6565   6.429   2.284   2.530  0.8897 -0.2632  0.8306
 1700SOL    HW2 6566   6.490   2.238   2.587 -0.4785 -0.3311  2.3071
 1700SOL    HW3 6567   6.359   2.221   2.513  1.1686 -0.1808 -0.8147
 1700SOL    MW4 6568   6.428   2.270   2.535  0.7460 -0.2613  0.8084
 1701SOL     OW 6569   1.044   6.336   5.784  0.2137 -0.1297  0.0256
 1701SOL    HW2 6570   0.949   6.344   5.774  0.2704 -1.2915 -1.8336
 1701SOL    HW3 6571   1.079   6.344   5.695  2.0005  1.5694  0.7972
 1701SOL    MW4 6572   1.036   6.338   5.771  0.4569 -0.0588 -0.1179
 1702SOL     OW 6573   2.687   2.375   2.843 -0.0787  0.6294  0.3353
 1702SOL    HW2 6574   2.610   2.339   2.799  0.7335  0.4007 -0.9501
 1702SOL    HW3 6575   2.691   2.329   2.927  0.1742 -1.3425 -0.7162
 1702SOL    MW4 6576   2.677   2.364   2.849  0.0619  0.3391  0.0270
 1703SOL     OW 6577   5.821   5.778   4.471 -0.2611 -0.3533  0.0177
 1703SOL    HW2 6578   5.848   5.691   4.440 -0.9273 -0.3378 -0.6099
 1703SOL    HW3 6579   5.819   5.832   4.393 -0.2576  0.1298  0.3491
 1703SOL    MW4 6580   5.825   5.773   4.457 -0.3485 -0.2875 -0.0214
 1704SOL     OW 6581   2.469   3.040   5.254  0.1962 -0.2366  0.1082
 1704SOL    HW2 6582   2.512   3.119   5.222  0.4437 -0.3050  0.2623
 1704SOL    HW3 6583   2.532   3.003   5.317  0.6466 -1.2111 -0.8747
 1704SOL    MW4 6584   2.483   3.045   5.258  0.2883 -0.3742 -0.0011
 1705SOL     OW 6585   0.741   3.939   3.212  0.7432 -0.0615 -0.0469
 1705SOL    HW2 6586   0.801   3.907   3.279 -0.2534 -1.4623  0.2117
 1705SOL    HW3 6587   0.724   4.030   3.238  1.7999 -0.0170  0.5524
 1705SOL    MW4 6588   0.746   3.947   3.225  0.7511 -0.2404  0.0663
 1706SOL     OW 6589   2.601   3.271   5.148  0.2707  0.8657  0.1151
 1706SOL    HW2 6590   2.522   3.325   5.146  0.2329  0.7977 -0.9978
 1706SOL    HW3 6591   2.629   3.266   5.056  1.2001  0.3495  0.4106
 1706SOL    MW4 6592   2.594   3.277   5.135  0.3883  0.7886  0.0073
 1707SOL     OW 6593   6.089   6.178   2.473 -0.3651  0.1940 -0.4065
 1707SOL    HW2 6594   6.177   6.190   2.509  0.0146 -1.9040 -0.5327
 1707SOL    HW3 6595   6.101   6.118   2.400 -1.6082  1.7879 -2.0136
 1707SOL    MW4 6596   6.102   6.172   2.468 -0.4790  0.1275 -0.6352
 1708SOL     OW 6597   5.657   4.224   0.320 -0.2221  0.4062  0.2775
 1708SOL    HW2 6598   5.696   4.177   0.394  2.1206  0.6595 -0.6809
 1708SOL    HW3 6599   5.709   4.305   0.313 -0.2217  0.2817 -1.7534
 1708SOL    MW4 6600   5.669   4.229   0.329  0.0871  0.4232 -0.1169
 1709SOL     OW 6601   3.780   2.518   1.675 -0.0687  0.3699 -0.0024
 1709SOL    HW2 6602   3.750   2.541   1.763 -0.6551 -0.5702  0.0600
 1709SOL    HW3 6603   3.717   2.560   1.617 -0.6073 -0.3039  0.0827
 1709SOL    MW4 6604   3.767   2.526   1.679 -0.2171  0.1570  0.0170
 1710SOL     OW 6605   5.516   5.970   2.460 -0.0717  0.4058  0.1181
 1710SOL    HW2 6606   5.554   6.019   2.387  1.2453  0.5698  0.8762
 1710SOL    HW3 6607   5.523   5.878   2.434  1.7068  0.3647  0.5788
 1710SOL    MW4 6608   5.522   5.965   2.447  0.3367  0.4220  0.2789
 1711SOL     OW 6609   1.919   2.695   5.896 -0.6979 -0.4580 -0.1526
 1711SOL    HW2 6610   1.979   2.627   5.927 -2.0925 -1.0771  1.2630
 1711SOL    HW3 6611   1.894   2.666   5.808 -0.9590 -1.5728  0.2753
 1711SOL    MW4 6612   1.924   2.682   5.888 -0.9163 -0.6868  0.0906
 1712SOL     OW 6613   2.519   3.826   5.475  0.1095  0.2722 -0.1280
 1712SOL    HW2 6614   2.436   3.873   5.480  0.2536  1.0766 -3.2587
 1712SOL    HW3 6615   2.532   3.791   5.563 -2.5836  1.7064  0.9577
 1712SOL    MW4 6616   2.510   3.827   5.487 -0.2268  0.5675 -0.3978
 1713SOL     OW 6617   4.355   6.136   0.297  0.2128  0.1665  0.5238
 1713SOL    HW2 6618   4.310   6.075   0.356  0.7790 -1.1922 -0.4188
 1713SOL    HW3 6619   4.291   6.205   0.282  0.0257  0.5467  2.6890
 1713SOL    MW4 6620   4.341   6.137   0.303  0.2628  0.0374  0.6851
 1714SOL     OW 6621   5.697   2.359   0.610  0.1607 -0.4007  0.0173
 1714SOL    HW2 6622   5.749   2.403   0.676 -0.9924  2.9939 -1.1130
 1714SOL    HW3 6623   5.621   2.325   0.657 -0.5375  1.7707  0.5804
 1714SOL    MW4 6624   5.693   2.360   0.625 -0.0836  0.3337 -0.0575
 1715SOL     OW 6625   3.196   0.120   3.746 -0.2777 -0.5968 -0.2657
 1715SOL    HW2 6626   3.181   0.054   3.679  0.9921 -1.5589  0.3626
 1715SOL    HW3 6627   3.275   0.166   3.719 -0.3651 -0.2660  0.0240
 1715SOL    MW4 6628   3.204   0.118   3.734 -0.1217 -0.6801 -0.1446
 1716SOL     OW 6629   3.469   4.714   1.736  0.0150  0.0994  0.3753
 1716SOL    HW2 6630   3.538   4.775   1.764  1.3300 -1.6214  1.1353
 1716SOL    HW3 6631   3.414   4.703   1.814 -0.0661  0.1194  0.3208
 1716SOL    MW4 6632   3.471   4.721   1.750  0.1778 -0.1250  0.4684
 1717SOL     OW 6633   1.556   3.602   5.779  0.3217  0.0847 -0.1998
 1717SOL    HW2 6634   1.486   3.643   5.829  0.0197 -2.1536  1.3304
 1717SOL    HW3 6635   1.526   3.604   5.688  0.2352  2.9226 -0.1990
 1717SOL    MW4 6636   1.543   3.608   5.773  0.2705  0.1638  0.0022
 1718SOL     OW 6637   4.531   0.403   4.487 -0.4233  0.3427 -0.1256
 1718SOL    HW2 6638   4.480   0.414   4.568  0.2896  1.0219  0.2448
 1718SOL    HW3 6639   4.478   0.447   4.420 -0.5115  0.7343  0.1917
 1718SOL    MW4 6640   4.517   0.411   4.489 -0.3409  0.4840 -0.0348
 1719SOL     OW 6641   1.029   3.360   4.607 -0.1809 -0.5959 -0.1237
 1719SOL    HW2 6642   1.047   3.369   4.514 -0.4289  1.1188 -0.0257
 1719SOL    HW3 6643   1.087   3.423   4.649 -1.2262 -0.1845  0.7506
 1719SOL    MW4 6644   1.039   3.369   4.601 -0.3515 -0.3153  0.0045
 1720SOL     OW 6645   1.188   5.056   5.528 -0.0232 -0.1744 -0.3497
 1720SOL    HW2 6646   1.114   5.105   5.565 -0.3420 -1.1654  0.3623
 1720SOL    HW3 6647   1.259   5.120   5.524 -0.0254  0.0277  1.8640
 1720SOL    MW4 6648   1.187   5.071   5.532 -0.0656 -0.2785  0.0363
 1721SOL     OW 6649   5.412   0.143   5.785  0.0247 -0.2813 -0.2081
 1721SOL    HW2 6650   5.439   0.141   5.876  0.3809  1.2937 -0.2426
 1721SOL    HW3 6651   5.372   0.230   5.773 -2.0031 -1.2470 -1.0226
 1721SOL    MW4 6652   5.410   0.154   5.795 -0.1958 -0.2009 -0.3201
 1722SOL     OW 6653   4.903   1.660   2.381  0.1142  0.1387 -0.0382
 1722SOL    HW2 6654   4.882   1.745   2.344 -0.4891  0.3350  0.7194
 1722SOL    HW3 6655   4.883   1.597   2.311 -0.3545  0.5488 -0.2784
 1722SOL    MW4 6656   4.897   1.663   2.367 -0.0272  0.2187  0.0301
 1723SOL     OW 6657   1.826   6.403   5.571  0.6459  0.2322  0.4350
 1723SOL    HW2 6658   1.748   6.364   5.532  1.1414 -0.7041  0.3285
 1723SOL    HW3 6659   1.834   6.489   5.530  0.1166  0.0063 -0.1468
 1723SOL    MW4 6660   1.817   6.409   5.560  0.6414  0.0789  0.3442
 1724SOL     OW 6661   5.429   5.462   1.075 -0.0533 -0.3610  0.2734
 1724SOL    HW2 6662   5.468   5.535   1.026  0.9157 -1.3184 -0.4392
 1724SOL    HW3 6663   5.503   5.408   1.100 -0.8598 -2.1856 -1.0152
 1724SOL    MW4 6664   5.444   5.465   1.072 -0.0319 -0.7280  0.0094
 1725SOL     OW 6665   3.019   3.150   3.667  0.2206  0.6722 -0.1568
 1725SOL    HW2 6666   3.114   3.159   3.673  0.2857  0.8725 -1.3394
 1725SOL    HW3 6667   2.993   3.216   3.603 -0.4573 -0.8060 -1.4660
 1725SOL    MW4 6668   3.028   3.160   3.660  0.1397  0.5036 -0.4856
 1726SOL     OW 6669   1.523   0.290   5.526  0.3516 -0.3933  0.0453
 1726SOL    HW2 6670   1.512   0.374   5.570  0.7341 -1.4347  2.2716
 1726SOL    HW3 6671   1.616   0.286   5.504 -0.2539  1.3480 -3.7267
 1726SOL    MW4 6672   1.534   0.300   5.529  0.3222 -0.3010 -0.1587
 1727SOL     OW 6673   1.242   1.167   2.183 -0.5829  0.2485 -0.0289
 1727SOL    HW2 6674   1.238   1.224   2.106  0.3339  0.7761  0.3017
 1727SOL    HW3 6675   1.215   1.223   2.255 -1.0361 -0.1350  0.1073
 1727SOL    MW4 6676   1.238   1.182   2.182 -0.5217  0.2675  0.0327
 1728SOL     OW 6677   3.698   3.957   4.993  0.4597 -0.0546 -0.2609
 1728SOL    HW2 6678   3.645   3.907   4.931 -0.3827 -1.0664  1.2065
 1728SOL    HW3 6679   3.789   3.938   4.968  0.1374 -0.4621 -1.1519
 1728SOL    MW4 6680   3.703   3.948   4.981  0.3060 -0.2419 -0.1849
 1729SOL     OW 6681   0.757   5.208   1.376 -0.3407  0.0076 -0.2502
 1729SOL    HW2 6682   0.680   5.238   1.424 -1.1953 -1.6089 -0.5322
 1729SOL    HW3 6683   0.726   5.193   1.287  1.0313  2.1792 -1.1875
 1729SOL    MW4 6684   0.743   5.210   1.371 -0.2724  0.0808 -0.4111
 1730SOL     OW 6685   0.708   1.538   5.737 -0.2910 -0.0132  0.3980
 1730SOL    HW2 6686   0.613   1.529   5.724 -0.3668  1.0243  0.1545
 1730SOL    HW3 6687   0.746   1.466   5.686 -1.0039 -1.4003  1.7601
 1730SOL    MW4 6688   0.700   1.527   5.728 -0.3950 -0.0593  0.5456
 1731SOL     OW 6689   0.996   6.028   6.138  0.0091  0.3944  0.1169
 1731SOL    HW2 6690   0.975   5.941   6.104 -0.1439  0.2922  0.4742
 1731SOL    HW3 6691   1.040   6.011   6.221 -1.2429  0.6903  0.8631
 1731SOL    MW4 6692   0.999   6.014   6.144 -0.1763  0.4200  0.2625
 1732SOL     OW 6693   3.516   4.045   3.445  0.2847  0.0616 -0.5530
 1732SOL    HW2 6694   3.593   4.076   3.399 -0.0491 -0.2956 -1.3687
 1732SOL    HW3 6695   3.481   3.975   3.390 -0.0209 -0.5049  0.3370
 1732SOL    MW4 6696   3.521   4.040   3.432  0.2003 -0.0603 -0.5432
 1733SOL     OW 6697   1.081   2.630   1.422  0.3256  0.3122  0.7795
 1733SOL    HW2 6698   1.120   2.554   1.380  0.4089  1.3879 -1.1856
 1733SOL    HW3 6699   1.018   2.663   1.359 -0.1829  1.5064  1.8604
 1733SOL    MW4 6700   1.078   2.624   1.408  0.2695  0.6117  0.6629
 1734SOL     OW 6701   1.837   0.256   5.883 -0.3698 -0.0975 -0.0806
 1734SOL    HW2 6702   1.926   0.223   5.873 -0.2883 -0.4599  1.4946
 1734SOL    HW3 6703   1.795   0.194   5.943 -1.1649  0.9574  0.4975
 1734SOL    MW4 6704   1.843   0.244   5.890 -0.4639 -0.0061  0.2035
 1735SOL     OW 6705   1.302   0.999   4.203  0.1147 -0.0924 -0.3465
 1735SOL    HW2 6706   1.272   0.909   4.190 -0.0237  0.0625 -1.1968
 1735SOL    HW3 6707   1.247   1.052   4.145  1.0917  0.3632 -0.8910
 1735SOL    MW4 6708   1.291   0.994   4.193  0.2253 -0.0119 -0.5305
 1736SOL     OW 6709   1.861   1.941   2.707  0.1733  0.0174 -0.5396
 1736SOL    HW2 6710   1.780   1.990   2.719 -1.1710 -2.0020 -0.7363
 1736SOL    HW3 6711   1.879   1.904   2.794  0.1457 -0.5698 -0.7773
 1736SOL    MW4 6712   1.853   1.942   2.720 -0.0077 -0.3265 -0.5969
 1737SOL     OW 6713   6.168   5.202   2.692 -0.6649  0.7214 -0.6400
 1737SOL    HW2 6714   6.079   5.197   2.657 -0.9529 -0.3743  0.1727
 1737SOL    HW3 6715   6.189   5.112   2.715 -0.1883  1.2526  1.2034
 1737SOL    MW4 6716   6.159   5.189   2.691 -0.6400  0.6469 -0.2896
 1738SOL     OW 6717   0.434   0.734   3.598 -0.0352  0.1611 -0.0564
 1738SOL    HW2 6718   0.388   0.651   3.581  0.2335 -0.3784  1.6524
 1738SOL    HW3 6719   0.475   0.756   3.515 -2.6022  0.1993 -1.4167
 1738SOL    MW4 6720   0.433   0.726   3.585 -0.3384  0.0950 -0.0104
 1739SOL     OW 6721   3.970   5.892   3.708  0.3251 -0.1913 -0.2712
 1739SOL    HW2 6722   3.944   5.942   3.631 -0.6330 -0.6433 -0.2527
 1739SOL    HW3 6723   3.964   5.800   3.681 -0.5424 -0.3773  0.4831
 1739SOL    MW4 6724   3.966   5.886   3.694  0.0843 -0.2755 -0.1692
 1740SOL     OW 6725   3.216   1.726   0.945  0.4063  0.1168  0.1593
 1740SOL    HW2 6726   3.207   1.691   0.856  1.5468 -1.1485  0.5101
 1740SOL    HW3 6727   3.143   1.787   0.954 -1.0730 -1.4042 -0.8615
 1740SOL    MW4 6728   3.205   1.729   0.934  0.3616 -0.2508  0.0709
 1741SOL     OW 6729   3.824   1.068   5.039 -0.2648 -0.6227  0.3469
 1741SOL    HW2 6730   3.863   1.097   4.957  2.5760  0.2806  1.8782
 1741SOL    HW3 6731   3.857   1.129   5.104 -1.3402 -2.0722  2.3731
 1741SOL    MW4 6732   3.833   1.080   5.037 -0.0319 -0.6948  0.8163
 1742SOL     OW 6733   1.763   0.672   0.924  0.0725  0.2280 -0.2252
 1742SOL    HW2 6734   1.788   0.747   0.979  0.9428  0.7026 -1.2250
 1742SOL    HW3 6735   1.678   0.696   0.889  0.5779  1.0348 -0.9642
 1742SOL    MW4 6736   1.755   0.685   0.926  0.2540  0.3971 -0.4546
 1743SOL     OW 6737   1.111   5.769   0.833  0.0504 -0.1526 -0.2813
 1743SOL    HW2 6738   1.048   5.770   0.905  0.0628 -0.1192 -0.2714
 1743SOL    HW3 6739   1.120   5.860   0.806  0.4357 -0.1019  0.0113
 1743SOL    MW4 6740   1.104   5.781   0.839  0.1029 -0.1415 -0.2414
 1744SOL     OW 6741   6.293   3.866   5.463 -0.4804  0.1166  0.1323
 1744SOL    HW2 6742   6.204   3.830   5.465 -1.1997  1.8081  0.3455
 1744SOL    HW3 6743   6.294   3.929   5.535  0.9258  0.0876  0.1607
 1744SOL    MW4 6744   6.281   3.869   5.473 -0.3898  0.3359  0.1642
 1745SOL     OW 6745   4.456   4.630   5.906  0.9103  0.7360 -0.3620
 1745SOL    HW2 6746   4.504   4.553   5.875 -0.5648 -0.2864 -0.2312
 1745SOL    HW3 6747   4.443   4.683   5.827 -2.9569 -1.9256 -1.8222
 1745SOL    MW4 6748   4.460   4.626   5.891  0.2055  0.2500 -0.5374
 1746SOL     OW 6749   4.634   4.895   1.983  0.3660 -0.0128  0.0593
 1746SOL    HW2 6750   4.593   4.876   2.068  0.0406 -2.0928 -0.4948
 1746SOL    HW3 6751   4.580   4.848   1.920  1.1195  0.7677 -1.2007
 1746SOL    MW4 6752   4.621   4.886   1.986  0.4225 -0.1842 -0.1801
 1747SOL     OW 6753   5.141   2.582   2.367  0.1729  0.0689  0.1086
 1747SOL    HW2 6754   5.136   2.531   2.286 -0.5788  0.1995  0.0643
 1747SOL    HW3 6755   5.062   2.558   2.416 -0.3258  1.3443 -0.0256
 1747SOL    MW4 6756   5.130   2.572   2.362  0.0079  0.2544  0.0851
 1748SOL     OW 6757   1.139   5.598   0.636  0.1844  0.2367  0.0772
 1748SOL    HW2 6758   1.211   5.544   0.668 -0.6111 -0.1541  1.3048
 1748SOL    HW3 6759   1.140   5.676   0.692 -1.0057 -0.2894  0.8997
 1748SOL    MW4 6760   1.148   5.601   0.648 -0.0776  0.1157  0.3477
 1749SOL     OW 6761   2.026   1.985   4.294 -0.5452  0.3912  0.2208
 1749SOL    HW2 6762   2.035   2.002   4.388  0.7953  0.6524  0.0641
 1749SOL    HW3 6763   2.015   2.072   4.255  0.0036  0.3846  0.0390
 1749SOL    MW4 6764   2.025   1.999   4.302 -0.2959  0.4248  0.1762
 1750SOL     OW 6765   4.346   1.932   0.806 -0.3183 -0.3134  0.6149
 1750SOL    HW2 6766   4.382   1.991   0.872  1.0296 -1.7249  1.1849
 1750SOL    HW3 6767   4.391   1.849   0.820 -0.9679 -1.0314 -1.2290
 1750SOL    MW4 6768   4.357   1.929   0.816 -0.2262 -0.5944  0.4468
 1751SOL     OW 6769   2.786   4.533   5.102 -0.2864  0.7720 -0.1741
 1751SOL    HW2 6770   2.811   4.600   5.165  0.6175  0.6213 -0.3587
 1751SOL    HW3 6771   2.861   4.473   5.100 -0.7858  0.1517 -0.5377
 1751SOL    MW4 6772   2.799   4.534   5.110 -0.2330  0.6703 -0.2464
 1752SOL     OW 6773   3.658   0.983   3.214  0.0759  0.0161 -0.4331
 1752SOL    HW2 6774   3.750   1.008   3.202 -0.4509  1.8551 -0.9186
 1752SOL    HW3 6775   3.628   0.958   3.126  0.5870 -2.5581  0.0324
 1752SOL    MW4 6776   3.666   0.983   3.201  0.0738 -0.0809 -0.4358
 1753SOL     OW 6777   2.028   6.026   3.126 -0.1603 -0.3218 -0.1391
 1753SOL    HW2 6778   2.111   6.050   3.168 -0.0883 -2.1490  0.8622
 1753SOL    HW3 6779   1.961   6.059   3.186 -0.2141  1.4522 -1.1135
 1753SOL    MW4 6780   2.030   6.034   3.140 -0.1579 -0.3288 -0.1356
 1754SOL     OW 6781   0.250   1.064   0.472  0.4634  0.0634  0.2727
 1754SOL    HW2 6782   0.174   1.007   0.461  0.7133 -0.2459  0.1229
 1754SOL    HW3 6783   0.242   1.099   0.561  0.1022  0.0969  0.2260
 1754SOL    MW4 6784   0.239   1.061   0.482  0.4487  0.0270  0.2468
 1755SOL     OW 6785   0.064   5.770   2.719  0.0080 -0.1025  0.1464
 1755SOL    HW2 6786   0.083   5.771   2.813  1.5031 -0.0456 -0.1288
 1755SOL    HW3 6787  -0.020   5.725   2.712  0.4123 -1.1125  1.4236
 1755SOL    MW4 6788   0.056   5.764   2.731  0.2586 -0.2283  0.2786
 1756SOL     OW 6789   6.200   5.707   4.364  0.3141 -0.0766  0.0185
 1756SOL    HW2 6790   6.277   5.747   4.406  0.1723  0.5293 -0.2923
 1756SOL    HW3 6791   6.147   5.675   4.437  0.6761 -0.1513  0.2517
 1756SOL    MW4 6792   6.204   5.708   4.379  0.3432 -0.0065  0.0083
 1757SOL     OW 6793   3.543   4.425   0.586  0.8070  0.1393 -0.2244
 1757SOL    HW2 6794   3.537   4.518   0.608 -1.6953 -0.0541  0.2281
 1757SOL    HW3 6795   3.583   4.385   0.663 -0.3210  0.5466  0.5994
 1757SOL    MW4 6796   3.548   4.432   0.599  0.3280  0.1675 -0.0560
 1758SOL     OW 6797   5.171   0.020   5.792 -0.3471  0.2260  0.3600
 1758SOL    HW2 6798   5.253   0.066   5.776 -0.0847 -0.0022  1.0226
 1758SOL    HW3 6799   5.104   0.072   5.746  0.5010 -1.0138 -2.5327
 1758SOL    MW4 6800   5.173   0.033   5.784 -0.2006  0.0323  0.0658
 1759SOL     OW 6801   3.007   3.798   6.233 -0.0001  0.1884 -0.0272
 1759SOL    HW2 6802   3.025   3.712   6.271 -0.6636  0.2848  0.5491
 1759SOL    HW3 6803   2.973   3.779   6.146  1.7947 -0.0276 -0.7164
 1759SOL    MW4 6804   3.005   3.784   6.227  0.1492  0.1726 -0.0421
 1760SOL     OW 6805   2.248   0.441   2.319 -0.2083  0.7260  0.4394
 1760SOL    HW2 6806   2.257   0.531   2.291 -1.1604  0.7760  0.2439
 1760SOL    HW3 6807   2.162   0.414   2.285  0.1703 -0.3223  0.2898
 1760SOL    MW4 6808   2.238   0.449   2.311 -0.2840  0.5943  0.3939
 1761SOL     OW 6809   1.817   0.829   0.363  0.5502  0.1738 -0.0210
 1761SOL    HW2 6810   1.726   0.801   0.370  0.2783  1.1956  0.7425
 1761SOL    HW3 6811   1.853   0.818   0.451  0.6730  1.3735  0.0876
 1761SOL    MW4 6812   1.810   0.824   0.375  0.5305  0.4669  0.0941
 1762SOL     OW 6813   5.015   3.495   1.167  0.6781  0.4069  0.8388
 1762SOL    HW2 6814   5.001   3.418   1.113 -0.5878  0.5035  0.9907
 1762SOL    HW3 6815   5.099   3.480   1.209  0.4634 -0.8830  0.8543
 1762SOL    MW4 6816   5.024   3.483   1.165  0.4827  0.2495  0.8609
 1763SOL     OW 6817   1.933   4.316   6.362  0.4599  0.2099 -0.0783
 1763SOL    HW2 6818   1.953   4.291   6.272  0.1819  0.7247 -0.2859
 1763SOL    HW3 6819   1.858   4.261   6.386 -0.3661  1.0500 -0.6491
 1763SOL    MW4 6820   1.925   4.305   6.354  0.3142  0.3886 -0.1810
 1764SOL     OW 6821   2.264   6.248   5.818 -0.0892  0.2977 -0.0298
 1764SOL    HW2 6822   2.337   6.220   5.762  0.8476  2.0341  0.2458
 1764SOL    HW3 6823   2.306   6.295   5.890 -1.4482  0.6514  0.5573
 1764SOL    MW4 6824   2.279   6.251   5.820 -0.1449  0.5735  0.0840
 1765SOL     OW 6825   3.302   3.059   5.778 -0.0715  0.6513  0.2673
 1765SOL    HW2 6826   3.321   3.130   5.716  0.6184  0.7197  0.5419
 1765SOL    HW3 6827   3.319   3.097   5.864 -0.9945  0.5464  0.5068
 1765SOL    MW4 6828   3.307   3.073   5.781 -0.1023  0.6465  0.3351
 1766SOL     OW 6829   0.747   1.516   0.858 -0.3441 -0.0572  0.5155
 1766SOL    HW2 6830   0.660   1.518   0.899 -0.2150  1.7226  0.7623
 1766SOL    HW3 6831   0.736   1.457   0.783 -1.3655 -0.9994  1.3646
 1766SOL    MW4 6832   0.734   1.508   0.854 -0.4618  0.0533  0.6601
 1767SOL     OW 6833   4.282   4.054   0.830  0.2914  0.3536 -0.0489
 1767SOL    HW2 6834   4.283   3.980   0.890  0.3779  0.1149 -0.3436
 1767SOL    HW3 6835   4.196   4.051   0.789  0.6892 -0.2560 -0.8819
 1767SOL    MW4 6836   4.271   4.044   0.832  0.3553  0.2417 -0.1977
 1768SOL     OW 6837   0.744   0.653   1.092  0.2530 -0.5310  0.0516
 1768SOL    HW2 6838   0.833   0.686   1.085  1.2048 -2.3874  1.9964
 1768SOL    HW3 6839   0.688   0.728   1.074  2.1720  0.6133 -1.5286
 1768SOL    MW4 6840   0.748   0.667   1.089  0.6317 -0.6249  0.0997
 1769SOL     OW 6841   2.045   3.588   5.044  0.6368 -0.1141  0.2039
 1769SOL    HW2 6842   2.093   3.613   5.124 -0.8910  0.0397  1.1184
 1769SOL    HW3 6843   1.954   3.608   5.064 -0.4824 -4.1758  0.1483
 1769SOL    MW4 6844   2.040   3.594   5.058  0.2875 -0.6297  0.3172
 1770SOL     OW 6845   4.926   5.980   1.212 -0.0791  0.0527  0.3979
 1770SOL    HW2 6846   4.914   5.913   1.146  0.7273 -1.3001  1.5798
 1770SOL    HW3 6847   4.873   5.951   1.286  2.7336 -1.0839  2.1445
 1770SOL    MW4 6848   4.917   5.968   1.213  0.3984 -0.2757  0.7843
 1771SOL     OW 6849   0.775   4.344   5.844 -0.5536  0.3497 -0.0456
 1771SOL    HW2 6850   0.843   4.373   5.783  0.6545  0.3234  1.2385
 1771SOL    HW3 6851   0.794   4.251   5.858 -0.7598  0.3736  0.4210
 1771SOL    MW4 6852   0.787   4.335   5.838 -0.4214  0.3494  0.1854
 1772SOL     OW 6853   0.285   3.342   2.000  0.3027  0.0015 -0.4374
 1772SOL    HW2 6854   0.340   3.340   2.078  0.5312  0.0204 -0.5957
 1772SOL    HW3 6855   0.323   3.411   1.946  0.0612  0.0838 -0.5054
 1772SOL    MW4 6856   0.297   3.351   2.003  0.3010  0.0149 -0.4673
 1773SOL     OW 6857   3.399   0.831   0.839  0.0486  0.1921  0.6335
 1773SOL    HW2 6858   3.414   0.848   0.746 -1.5248 -2.2455 -0.1894
 1773SOL    HW3 6859   3.481   0.791   0.870 -0.0564 -0.7892 -0.2750
 1773SOL    MW4 6860   3.412   0.828   0.831 -0.1728 -0.2590  0.4051
 1774SOL     OW 6861   4.069   3.675   2.446 -0.1578 -0.1981  0.0475
 1774SOL    HW2 6862   4.061   3.610   2.377  0.9605 -0.8586  0.5112
 1774SOL    HW3 6863   4.061   3.625   2.527 -1.8008  0.6102  0.4266
 1774SOL    MW4 6864   4.067   3.660   2.448 -0.2270 -0.1786  0.1587
 1775SOL     OW 6865   1.555   5.755   4.082 -0.5713  0.3215  0.0317
 1775SOL    HW2 6866   1.565   5.789   4.170 -1.7382 -1.3138  0.8444
 1775SOL    HW3 6867   1.636   5.705   4.066  0.0959  1.4562 -0.2618
 1775SOL    MW4 6868   1.567   5.753   4.091 -0.6373  0.2554  0.1002
 1776SOL     OW 6869   0.608   4.391   0.480 -0.2558 -0.4468 -0.3453
 1776SOL    HW2 6870   0.560   4.344   0.547  0.0145  0.7267  0.7127
 1776SOL    HW3 6871   0.547   4.457   0.448 -0.3985 -1.0253 -1.3131
 1776SOL    MW4 6872   0.594   4.393   0.484 -0.2389 -0.3683 -0.3334
 1777SOL     OW 6873   4.146   2.601   2.304  0.0978 -0.0212  0.3424
 1777SOL    HW2 6874   4.206   2.675   2.302 -0.7215  0.6507 -0.9319
 1777SOL    HW3 6875   4.200   2.528   2.335  0.8022  1.1677  2.0775
 1777SOL    MW4 6876   4.161   2.601   2.308  0.0826  0.2243  0.4032
 1778SOL     OW 6877   1.813   0.382   1.951 -0.3127  0.4279  0.3283
 1778SOL    HW2 6878   1.795   0.404   2.043  1.3387  4.6020 -0.1436
 1778SOL    HW3 6879   1.880   0.314   1.955 -0.6966  0.1132  2.1912
 1778SOL    MW4 6880   1.820   0.376   1.964 -0.1455  0.9371  0.5118
 1779SOL     OW 6881   4.080   5.305   2.936  0.1237 -0.0843  0.0510
 1779SOL    HW2 6882   4.164   5.273   2.904 -0.1984  0.0189 -0.9373
 1779SOL    HW3 6883   4.042   5.231   2.982 -0.1961 -0.8522 -1.3974
 1779SOL    MW4 6884   4.086   5.291   2.938  0.0390 -0.1720 -0.2705
 1780SOL     OW 6885   0.788   5.820   5.435 -0.4643  0.2770 -0.0488
 1780SOL    HW2 6886   0.862   5.858   5.483  0.5401 -0.0120 -1.2961
 1780SOL    HW3 6887   0.823   5.739   5.398 -1.6180 -0.2091 -0.1123
 1780SOL    MW4 6888   0.803   5.815   5.436 -0.4840  0.1748 -0.2217
 1781SOL     OW 6889   4.968   4.225   0.981 -0.5297  0.5465 -0.1371
 1781SOL    HW2 6890   4.915   4.203   1.058 -0.0150 -0.7523 -0.1271
 1781SOL    HW3 6891   5.002   4.141   0.951  0.4284  1.2062 -0.9496
 1781SOL    MW4 6892   4.965   4.211   0.987 -0.3354  0.4622 -0.2430
 1782SOL     OW 6893   0.133   0.947   1.165 -0.0066 -0.1927 -0.4415
 1782SOL    HW2 6894   0.212   0.970   1.214 -0.0415  1.7390 -1.2273
 1782SOL    HW3 6895   0.158   0.869   1.115  0.9596 -0.3909  0.3183
 1782SOL    MW4 6896   0.147   0.940   1.165  0.1163  0.0360 -0.4449
 1783SOL     OW 6897   1.220   2.450   1.628  0.2552 -0.6306  1.0471
 1783SOL    HW2 6898   1.170   2.504   1.567  2.5919  1.8154  1.0641
 1783SOL    HW3 6899   1.272   2.392   1.572 -0.0074 -0.6913  0.8657
 1783SOL    MW4 6900   1.220   2.450   1.613  0.5289 -0.3159  1.0254
 1784SOL     OW 6901   1.178   6.104   0.454  0.2542 -0.7250 -0.1224
 1784SOL    HW2 6902   1.199   6.198   0.450  0.8169 -0.7834  1.2038
 1784SOL    HW3 6903   1.219   6.068   0.376  0.3145  0.0796 -0.4795
 1784SOL    MW4 6904   1.186   6.112   0.443  0.3364 -0.6266  0.0055
 1785SOL     OW 6905   4.297   4.083   0.289  0.0307 -0.6213  0.3638
 1785SOL    HW2 6906   4.385   4.056   0.316 -0.8303 -0.9984  3.0357
 1785SOL    HW3 6907   4.289   4.051   0.199  1.2559 -4.1014  1.3146
 1785SOL    MW4 6908   4.308   4.075   0.281  0.0788 -1.1302  0.8418
 1786SOL     OW 6909   3.964   1.763   3.453 -0.0439  0.1396 -0.4455
 1786SOL    HW2 6910   4.027   1.832   3.472  0.6340 -1.0641  2.1024
 1786SOL    HW3 6911   4.008   1.682   3.481 -1.9258 -0.9777 -0.5363
 1786SOL    MW4 6912   3.978   1.761   3.459 -0.2028 -0.1666 -0.1213
 1787SOL     OW 6913   0.176   1.479   2.361  0.1181  0.4251 -0.3136
 1787SOL    HW2 6914   0.082   1.498   2.360  0.4720  2.4374 -1.9702
 1787SOL    HW3 6915   0.185   1.408   2.424 -2.4285  0.6107  0.3817
 1787SOL    MW4 6916   0.165   1.473   2.369 -0.1712  0.7151 -0.4404
 1788SOL     OW 6917   1.647   2.114   5.247  1.0484  0.0731 -0.0676
 1788SOL    HW2 6918   1.627   2.094   5.339  0.3233  1.0132  0.0018
 1788SOL    HW3 6919   1.638   2.210   5.242  1.4465  0.0674 -1.0381
 1788SOL    MW4 6920   1.643   2.124   5.259  1.0053  0.1964 -0.1865
 1789SOL     OW 6921   0.843   5.151   3.450  0.0829 -0.1400  0.0866
 1789SOL    HW2 6922   0.840   5.242   3.420  0.1210 -0.2946 -0.3940
 1789SOL    HW3 6923   0.850   5.099   3.370  1.4994 -0.5070  0.4201
 1789SOL    MW4 6924   0.843   5.156   3.435  0.2748 -0.2088  0.0672
 1790SOL     OW 6925   5.582   5.548   5.194 -0.0025  0.4044  0.1093
 1790SOL    HW2 6926   5.496   5.537   5.153  0.0197  0.9731 -0.0992
 1790SOL    HW3 6927   5.575   5.501   5.277 -0.4280  0.2235 -0.0253
 1790SOL    MW4 6928   5.569   5.541   5.199 -0.0557  0.4556  0.0640
 1791SOL     OW 6929   1.141   5.652   0.384 -0.3950 -0.0540 -0.3232
 1791SOL    HW2 6930   1.059   5.700   0.372 -0.8266 -0.2325  1.7059
 1791SOL    HW3 6931   1.137   5.619   0.473 -0.0343 -3.7232 -1.5034
 1791SOL    MW4 6932   1.129   5.654   0.394 -0.4043 -0.5617 -0.2112
 1792SOL     OW 6933   4.353   5.171   4.726  0.1662  0.2378  0.1305
 1792SOL    HW2 6934   4.326   5.232   4.658 -0.4855  0.4265  0.5485
 1792SOL    HW3 6935   4.435   5.134   4.694 -1.2625 -1.4042 -1.8241
 1792SOL    MW4 6936   4.360   5.175   4.713 -0.1083  0.0460 -0.0722
 1793SOL     OW 6937   4.786   2.629   4.663 -0.2569 -0.2104  0.2551
 1793SOL    HW2 6938   4.825   2.547   4.633  0.2436 -0.4396  1.4653
 1793SOL    HW3 6939   4.840   2.655   4.738 -1.1562  0.5749  0.6538
 1793SOL    MW4 6940   4.798   2.622   4.669 -0.3095 -0.1371  0.4674
 1794SOL     OW 6941   3.717   4.884   3.323 -0.4012  0.0470 -0.2668
 1794SOL    HW2 6942   3.695   4.977   3.322  0.8422  0.4113  1.5709
 1794SOL    HW3 6943   3.688   4.853   3.409  1.2016 -0.7242  0.0288
 1794SOL    MW4 6944   3.710   4.892   3.335 -0.0257 -0.0067  0.0146
 1795SOL     OW 6945   6.012   1.576   4.285  0.1089  0.3610 -0.0855
 1795SOL    HW2 6946   6.020   1.629   4.206 -0.9127 -2.7056 -2.4621
 1795SOL    HW3 6947   6.089   1.520   4.284  0.8919  1.3031  2.0591
 1795SOL    MW4 6948   6.023   1.576   4.274  0.0774  0.0807 -0.1161
 1796SOL     OW 6949   6.086   5.503   6.050 -0.0910  0.3115  0.5400
 1796SOL    HW2 6950   6.049   5.572   5.996  0.6829  0.7404  0.5449
 1796SOL    HW3 6951   6.166   5.477   6.005 -0.4203 -0.6537  0.4866
 1796SOL    MW4 6952   6.092   5.508   6.037 -0.0323  0.2407  0.5336
 1797SOL     OW 6953   3.211   0.739   3.617  0.4371 -0.1290  0.1619
 1797SOL    HW2 6954   3.199   0.647   3.641  0.0038  0.0304  0.5673
 1797SOL    HW3 6955   3.284   0.769   3.672  0.7572 -0.2948 -0.1621
 1797SOL    MW4 6956   3.219   0.731   3.627  0.4222 -0.1298  0.1727
 1798SOL     OW 6957   5.297   2.944   5.021 -0.2869 -0.2198 -0.1340
 1798SOL    HW2 6958   5.387   2.977   5.014  0.1773 -1.2647  0.6008
 1798SOL    HW3 6959   5.260   2.957   4.934  0.4361  0.6139 -0.3346
 1798SOL    MW4 6960   5.304   2.950   5.008 -0.1303 -0.2477 -0.0635
 1799SOL     OW 6961   4.779   1.948   1.007 -0.2496 -0.0846 -0.0625
 1799SOL    HW2 6962   4.746   1.896   0.933 -1.0699 -0.9860  0.9144
 1799SOL    HW3 6963   4.843   1.891   1.050  1.1461  0.8933 -0.7450
 1799SOL    MW4 6964   4.783   1.933   1.003 -0.1737 -0.0745 -0.0236
 1800SOL     OW 6965   1.524   3.275   4.703 -0.2957 -0.5891 -0.2196
 1800SOL    HW2 6966   1.466   3.323   4.644 -1.4382 -2.1332 -0.4123
 1800SOL    HW3 6967   1.588   3.233   4.646  0.7466  0.6899 -0.0458
 1800SOL    MW4 6968   1.525   3.275   4.688 -0.3089 -0.6241 -0.2221
 1801SOL     OW 6969   1.190   0.642   2.689  0.1085  0.6235  0.0689
 1801SOL    HW2 6970   1.127   0.592   2.740  0.4413  0.5267  0.3909
 1801SOL    HW3 6971   1.274   0.602   2.709  0.4352  1.5501  0.6464
 1801SOL    MW4 6972   1.193   0.630   2.699  0.1955  0.7330  0.1876
 1802SOL     OW 6973   4.610   2.873   4.986  0.4074  0.4575 -0.0819
 1802SOL    HW2 6974   4.684   2.918   4.945  1.6271 -1.8863 -0.6412
 1802SOL    HW3 6975   4.648   2.831   5.063  0.1563 -2.2405 -1.3295
 1802SOL    MW4 6976   4.625   2.873   4.991  0.5352 -0.2077 -0.3203
 1803SOL     OW 6977   1.997   4.817   5.549 -0.4612  0.2169 -0.0631
 1803SOL    HW2 6978   1.997   4.826   5.644  0.0437 -0.7855  0.0530
 1803SOL    HW3 6979   1.970   4.726   5.534 -0.3143  0.2991 -0.8606
 1803SOL    MW4 6980   1.994   4.806   5.560 -0.3752  0.0955 -0.1530
 1804SOL     OW 6981   3.611   3.825   5.252 -0.1757 -0.2665 -0.5959
 1804SOL    HW2 6982   3.643   3.884   5.184  0.3692  1.2032  0.8769
 1804SOL    HW3 6983   3.679   3.758   5.260  1.1815  1.1652  0.4294
 1804SOL    MW4 6984   3.624   3.824   5.244  0.0753  0.1163 -0.2663
 1805SOL     OW 6985   5.760   2.274   3.532  0.3741  0.5399  0.1751
 1805SOL    HW2 6986   5.834   2.268   3.593  0.7868 -2.4937 -0.4759
 1805SOL    HW3 6987   5.686   2.236   3.580 -0.0747  1.0167 -0.1314
 1805SOL    MW4 6988   5.760   2.268   3.546  0.3693  0.2025  0.0488
 1806SOL     OW 6989   4.814   1.674   6.081  0.5622  0.3130  0.3017
 1806SOL    HW2 6990   4.888   1.734   6.091 -1.2040  2.9479 -1.1872
 1806SOL    HW3 6991   4.838   1.618   6.008  1.4195  0.5553  0.3856
 1806SOL    MW4 6992   4.827   1.675   6.073  0.4422  0.6926  0.1163
 1807SOL     OW 6993   1.222   4.517   6.242  0.6498  0.6602 -0.5119
 1807SOL    HW2 6994   1.236   4.476   6.157  2.6555  0.6462 -0.2241
 1807SOL    HW3 6995   1.160   4.587   6.225 -0.2574 -0.3695 -1.6522
 1807SOL    MW4 6996   1.216   4.520   6.229  0.7947  0.5225 -0.6243
 1808SOL     OW 6997   0.511   5.859   3.379 -0.4508  0.1302  0.2661
 1808SOL    HW2 6998   0.543   5.919   3.446  1.3176  2.5544 -2.4948
 1808SOL    HW3 6999   0.420   5.884   3.364  0.2626  2.2674 -0.8421
 1808SOL    MW4 7000   0.503   5.870   3.385 -0.1234  0.7320 -0.2444
 1809SOL     OW 7001   4.665   4.082   0.060 -0.7969  0.5098 -0.0682
 1809SOL    HW2 7002   4.576   4.112   0.041 -0.5613 -0.0336 -2.3674
 1809SOL    HW3 7003   4.713   4.094  -0.022  0.6788 -1.2410  0.4521
 1809SOL    MW4 7004   4.660   4.088   0.047 -0.5711  0.2071 -0.3029
 1810SOL     OW 7005   0.101   2.800   4.798 -0.2086 -0.5432 -0.0394
 1810SOL    HW2 7006   0.030   2.736   4.801 -0.6658 -0.0134  1.2815
 1810SOL    HW3 7007   0.062   2.878   4.760 -0.5637 -0.0223  1.3312
 1810SOL    MW4 7008   0.087   2.802   4.794 -0.3158 -0.4046  0.3157
 1811SOL     OW 7009   6.375   4.093   6.374  0.3338 -0.3169 -0.1327
 1811SOL    HW2 7010   6.331   4.131   6.449  0.1956 -1.3717  0.3263
 1811SOL    HW3 7011   6.443   4.037   6.411  0.7136 -0.3145 -0.8017
 1811SOL    MW4 7012   6.378   4.091   6.389  0.3657 -0.4557 -0.1604
 1812SOL     OW 7013   1.903   1.003   6.155  0.1139  0.2794 -0.1129
 1812SOL    HW2 7014   1.872   1.081   6.200  0.6740  0.5441 -0.1832
 1812SOL    HW3 7015   1.942   1.036   6.074  2.6006  0.1945  0.9660
 1812SOL    MW4 7016   1.904   1.017   6.150  0.5159  0.3031  0.0202
 1813SOL     OW 7017   6.009   0.910   0.890 -0.3257  0.4334 -0.7057
 1813SOL    HW2 7018   5.935   0.940   0.839 -0.0498  1.5686 -0.4549
 1813SOL    HW3 7019   5.969   0.873   0.969 -0.6478  0.5403 -0.8149
 1813SOL    MW4 7020   5.994   0.909   0.894 -0.3318  0.5973 -0.6870
 1814SOL     OW 7021   2.642   4.867   6.042  0.9594  0.0401 -1.0050
 1814SOL    HW2 7022   2.729   4.904   6.024  1.4941 -0.1971  0.8302
 1814SOL    HW3 7023   2.649   4.776   6.013  1.5790 -0.1661 -0.2550
 1814SOL    MW4 7024   2.655   4.860   6.036  1.1117 -0.0184 -0.6639
 1815SOL     OW 7025   4.188   0.170   0.207 -0.2241  0.2114 -0.1788
 1815SOL    HW2 7026   4.203   0.164   0.113 -0.2329 -0.2012 -0.1534
 1815SOL    HW3 7027   4.101   0.210   0.215  0.7301  2.4537 -0.3276
 1815SOL    MW4 7028   4.179   0.175   0.196 -0.0994  0.4528 -0.1951
 1816SOL     OW 7029   1.554   0.314   6.167 -0.0497  0.1878 -0.0900
 1816SOL    HW2 7030   1.584   0.225   6.152  0.5435  0.6570 -1.9225
 1816SOL    HW3 7031   1.461   0.312   6.144 -0.1525 -0.0623  0.3458
 1816SOL    MW4 7032   1.545   0.302   6.162  0.0150  0.2167 -0.2743
 1817SOL     OW 7033   1.766   3.883   3.407 -0.5777  0.2671 -0.1930
 1817SOL    HW2 7034   1.759   3.837   3.490  0.4631 -0.7237 -0.6234
 1817SOL    HW3 7035   1.860   3.893   3.394 -0.4277 -3.1856 -3.1227
 1817SOL    MW4 7036   1.778   3.878   3.416 -0.4206 -0.3191 -0.6363
 1818SOL     OW 7037   3.029   3.897   3.425  0.2845  0.3143  0.6481
 1818SOL    HW2 7038   2.948   3.947   3.435 -0.2829 -0.3691 -0.3945
 1818SOL    HW3 7039   3.088   3.956   3.377  0.1757  0.5705  0.8303
 1818SOL    MW4 7040   3.026   3.912   3.420  0.1953  0.2579  0.5346
 1819SOL     OW 7041   3.400   1.316   6.061  0.4016 -0.3276  0.3689
 1819SOL    HW2 7042   3.368   1.338   6.149 -0.4619 -1.1750  0.2809
 1819SOL    HW3 7043   3.486   1.276   6.076  1.3741  1.7493  0.6292
 1819SOL    MW4 7044   3.407   1.314   6.075  0.4160 -0.1654  0.3917
 1820SOL     OW 7045   5.704   1.700   2.801 -0.0123  0.5094 -0.7723
 1820SOL    HW2 7046   5.672   1.768   2.860  0.5924 -0.5167  0.7968
 1820SOL    HW3 7047   5.649   1.708   2.723 -0.9391  1.8088 -0.0239
 1820SOL    MW4 7048   5.693   1.710   2.799 -0.0548  0.5454 -0.4665
 1821SOL     OW 7049   1.783   1.526   0.228 -0.2628  0.0633 -0.4128
 1821SOL    HW2 7050   1.713   1.542   0.291  1.5471 -0.2716  1.7935
 1821SOL    HW3 7051   1.827   1.610   0.219 -1.1020  0.3860 -2.1332
 1821SOL    MW4 7052   1.779   1.539   0.235 -0.1348  0.0617 -0.3487
 1822SOL     OW 7053   5.095   1.921   2.002 -0.0877 -0.3168 -0.2416
 1822SOL    HW2 7054   5.058   1.987   2.060 -1.0570 -0.8764 -0.1991
 1822SOL    HW3 7055   5.020   1.888   1.953  0.4213 -1.2243 -0.4257
 1822SOL    MW4 7056   5.080   1.925   2.003 -0.1484 -0.5104 -0.2603
 1823SOL     OW 7057   5.337   2.653   0.682  0.1268  0.0958  0.0564
 1823SOL    HW2 7058   5.407   2.626   0.622  1.1784  1.5006  0.6034
 1823SOL    HW3 7059   5.308   2.737   0.648  0.5255  0.7625  1.3281
 1823SOL    MW4 7060   5.342   2.660   0.669  0.3182  0.3691  0.2964
 1824SOL     OW 7061   3.594   1.868   3.896 -0.2794 -0.4035  0.7585
 1824SOL    HW2 7062   3.569   1.834   3.810  0.0055 -0.7508  0.8110
 1824SOL    HW3 7063   3.519   1.922   3.924 -0.8084 -1.1223  0.7480
 1824SOL    MW4 7064   3.581   1.871   3.889 -0.3116 -0.5442  0.7640
 1825SOL     OW 7065   4.904   4.871   2.121  0.3399  0.1125  0.5555
 1825SOL    HW2 7066   4.898   4.807   2.192 -0.8531 -0.0187  0.3673
 1825SOL    HW3 7067   4.818   4.866   2.077  0.8675  0.5504 -0.5741
 1825SOL    MW4 7068   4.892   4.862   2.125  0.2521  0.1530  0.3817
 1826SOL     OW 7069   4.715   3.288   4.819 -0.6137 -0.0163  0.5437
 1826SOL    HW2 7070   4.731   3.269   4.912 -1.3860 -3.6786  0.1130
 1826SOL    HW3 7071   4.627   3.253   4.803  0.5933 -2.2328 -2.1001
 1826SOL    MW4 7072   4.706   3.281   4.829 -0.5563 -0.7920  0.1381
 1827SOL     OW 7073   4.321   2.462   0.408  0.0412 -0.0650 -0.1817
 1827SOL    HW2 7074   4.295   2.437   0.496  0.5947  1.0823  0.3421
 1827SOL    HW3 7075   4.416   2.468   0.412  0.0226  0.7370 -0.6312
 1827SOL    MW4 7076   4.330   2.460   0.420  0.1118  0.1922 -0.1719
 1828SOL     OW 7077   4.683   0.546   2.745  0.0677  0.2142  0.3874
 1828SOL    HW2 7078   4.690   0.452   2.757 -0.4576 -0.0607 -1.2722
 1828SOL    HW3 7079   4.749   0.567   2.678 -0.6114  0.8308 -0.1095
 1828SOL    MW4 7080   4.693   0.537   2.738 -0.0912  0.2593  0.1029
 1829SOL     OW 7081   4.770   0.160   1.300  0.0139 -0.7475  0.3540
 1829SOL    HW2 7082   4.768   0.103   1.224 -3.1247  0.4243 -0.5817
 1829SOL    HW3 7083   4.832   0.229   1.277  1.2140 -1.8544  0.1036
 1829SOL    MW4 7084   4.778   0.161   1.287 -0.2419 -0.7389  0.1975
 1830SOL     OW 7085   2.925   4.399   0.762 -0.7943 -0.9103 -0.2031
 1830SOL    HW2 7086   2.993   4.414   0.696 -0.0315 -1.3598  0.4546
 1830SOL    HW3 7087   2.932   4.475   0.820 -1.6428 -0.3843 -0.7806
 1830SOL    MW4 7088   2.935   4.411   0.761 -0.8056 -0.9002 -0.1926
 1831SOL     OW 7089   3.836   0.184   4.015 -0.2141  0.3107 -0.4596
 1831SOL    HW2 7090   3.890   0.145   4.084  1.6475  0.2773 -1.8439
 1831SOL    HW3 7091   3.768   0.119   3.998  1.1043 -1.0578 -0.7006
 1831SOL    MW4 7092   3.834   0.170   4.022  0.2055  0.1258 -0.6740
 1832SOL     OW 7093   1.770   2.068   3.465  0.1191 -0.1057  0.1517
 1832SOL    HW2 7094   1.743   1.984   3.427 -0.2039  0.0548  0.0345
 1832SOL    HW3 7095   1.816   2.043   3.546 -1.3240 -0.3267  0.9347
 1832SOL    MW4 7096   1.773   2.053   3.471 -0.1139 -0.1137  0.2395
 1833SOL     OW 7097   5.439   5.157   5.199  0.2316 -0.2354  0.2372
 1833SOL    HW2 7098   5.501   5.092   5.166 -0.1952 -1.1677  1.2297
 1833SOL    HW3 7099   5.449   5.154   5.294 -0.8216  0.1150  0.3720
 1833SOL    MW4 7100   5.448   5.148   5.207  0.0363 -0.3121  0.3859
 1834SOL     OW 7101   2.006   1.768   1.034  0.0870 -0.4511  0.0116
 1834SOL    HW2 7102   2.048   1.696   1.080 -0.5473  0.2096  1.6912
 1834SOL    HW3 7103   1.921   1.779   1.078  0.0201  1.0813 -0.4429
 1834SOL    MW4 7104   2.000   1.760   1.046 -0.0055 -0.1618  0.1732
 1835SOL     OW 7105   4.089   5.908   6.004 -0.3963  0.5460 -0.4561
 1835SOL    HW2 7106   4.061   5.855   5.929 -1.1007  0.7614 -0.3429
 1835SOL    HW3 7107   4.081   5.849   6.079  1.6598 -0.1379 -0.7048
 1835SOL    MW4 7108   4.085   5.893   6.004 -0.2180  0.4842 -0.4740
 1836SOL     OW 7109   1.027   1.974   3.487  0.0564  0.1666  0.6626
 1836SOL    HW2 7110   1.115   1.979   3.450 -0.6747  2.0857 -1.0095
 1836SOL    HW3 7111   1.008   1.880   3.492  1.3483 -0.2405 -1.0937
 1836SOL    MW4 7112   1.036   1.962   3.483  0.1304  0.3661  0.2103
 1837SOL     OW 7113   1.275   4.270   5.572 -0.0973  0.0304  0.3231
 1837SOL    HW2 7114   1.300   4.272   5.479  3.8203 -1.1340  1.1495
 1837SOL    HW3 7115   1.265   4.363   5.596 -2.3075  0.3186 -1.4213
 1837SOL    MW4 7116   1.277   4.283   5.563  0.1279 -0.0852  0.2020
 1838SOL     OW 7117   2.921   6.248   5.781 -0.6111 -0.6977  0.1694
 1838SOL    HW2 7118   2.897   6.314   5.846  1.2989  0.5953 -0.3549
 1838SOL    HW3 7119   2.855   6.257   5.712 -0.3079  0.8208  0.0407
 1838SOL    MW4 7120   2.909   6.258   5.780 -0.3191 -0.3268  0.0832
 1839SOL     OW 7121   2.979   4.107   4.383 -0.0918 -0.0578  0.3316
 1839SOL    HW2 7122   2.902   4.053   4.403  0.5217 -1.6916 -1.4315
 1839SOL    HW3 7123   3.015   4.068   4.303  1.5355  1.7930  0.1037
 1839SOL    MW4 7124   2.973   4.095   4.375  0.2039 -0.0292  0.0689
 1840SOL     OW 7125   2.468   4.890   4.575 -0.2884 -0.2034 -0.1908
 1840SOL    HW2 7126   2.410   4.871   4.648  1.0885 -1.3145  0.6741
 1840SOL    HW3 7127   2.474   4.986   4.573  1.3596 -0.1175  2.6608
 1840SOL    MW4 7128   2.461   4.900   4.584  0.1107 -0.3387  0.2996
 1841SOL     OW 7129   1.322   1.105   4.461 -0.6879 -0.2713  0.4304
 1841SOL    HW2 7130   1.243   1.061   4.494 -1.0619 -0.2063 -0.3735
 1841SOL    HW3 7131   1.329   1.078   4.370  0.5077 -0.6757  0.6182
 1841SOL    MW4 7132   1.312   1.095   4.454 -0.5795 -0.3161  0.3491
 1842SOL     OW 7133   1.493   1.600   5.542  0.8115  0.2376  0.4666
 1842SOL    HW2 7134   1.495   1.693   5.567  0.8384 -0.2904  2.6627
 1842SOL    HW3 7135   1.537   1.556   5.615  1.5076 -1.4331 -0.9282
 1842SOL    MW4 7136   1.499   1.607   5.555  0.9069 -0.0525  0.5723
 1843SOL     OW 7137   2.318   0.163   0.042  0.3775 -0.5145 -0.4382
 1843SOL    HW2 7138   2.240   0.215   0.061 -0.0157 -1.5088  0.8595
 1843SOL    HW3 7139   2.384   0.227   0.017 -0.0900  0.6328  1.1016
 1843SOL    MW4 7140   2.317   0.178   0.041  0.2639 -0.4943 -0.0639
 1844SOL     OW 7141   1.799   1.593   0.709  0.0305 -0.2706  0.3272
 1844SOL    HW2 7142   1.736   1.563   0.643  1.6437  1.0944 -1.9717
 1844SOL    HW3 7143   1.770   1.681   0.732  1.5715  0.7638 -1.4972
 1844SOL    MW4 7144   1.787   1.601   0.703  0.4467  0.0460 -0.2168
 1845SOL     OW 7145   2.656   0.033   3.211 -0.0994  0.5715  0.2629
 1845SOL    HW2 7146   2.581   0.092   3.220 -0.0106  0.7090  0.0884
 1845SOL    HW3 7147   2.628  -0.029   3.143  0.0165  0.7341  0.0650
 1845SOL    MW4 7148   2.642   0.032   3.203 -0.0724  0.6111  0.2138
 1846SOL     OW 7149   4.506   3.113   1.606  1.2090 -0.4287 -0.8813
 1846SOL    HW2 7150   4.458   3.030   1.609 -0.1490  0.2816 -1.9680
 1846SOL    HW3 7151   4.552   3.116   1.690 -0.4987 -1.2619  0.1506
 1846SOL    MW4 7152   4.506   3.102   1.618  0.8045 -0.4449 -0.8886
 1847SOL     OW 7153   1.434   0.305   2.547  0.1183  0.0329 -0.5767
 1847SOL    HW2 7154   1.423   0.372   2.614  0.9274  1.9736 -2.2582
 1847SOL    HW3 7155   1.528   0.286   2.546 -0.0842 -1.0221 -0.2212
 1847SOL    MW4 7156   1.445   0.311   2.555  0.1983  0.1498 -0.7517
 1848SOL     OW 7157   3.892   1.098   4.381 -0.4945  0.3220 -0.5703
 1848SOL    HW2 7158   3.860   1.162   4.318 -0.6907  0.2810 -0.5142
 1848SOL    HW3 7159   3.814   1.048   4.407 -0.4473  0.4461 -0.1718
 1848SOL    MW4 7160   3.877   1.100   4.376 -0.5142  0.3330 -0.5103
 1849SOL     OW 7161   3.570   2.930   3.986 -0.7998  0.0236 -0.5309
 1849SOL    HW2 7162   3.614   2.887   4.060 -1.1946  0.5224  0.0069
 1849SOL    HW3 7163   3.557   2.860   3.922 -1.9922 -0.8314  0.5828
 1849SOL    MW4 7164   3.574   2.915   3.988 -1.0092 -0.0234 -0.3130
 1850SOL     OW 7165   0.774   1.045   2.620 -0.4237 -0.1916 -0.2467
 1850SOL    HW2 7166   0.731   1.032   2.535  0.6300 -0.9222 -0.6843
 1850SOL    HW3 7167   0.722   0.993   2.681 -0.0755 -1.2230 -0.8054
 1850SOL    MW4 7168   0.761   1.036   2.617 -0.2387 -0.4241 -0.3782
 1851SOL     OW 7169   4.189   1.692   3.797  0.0185 -1.0724 -0.3045
 1851SOL    HW2 7170   4.237   1.609   3.805  0.3332 -0.8552  0.1604
 1851SOL    HW3 7171   4.220   1.729   3.715  0.5805 -0.9863 -0.0614
 1851SOL    MW4 7172   4.200   1.686   3.787  0.1342 -1.0323 -0.2111
 1852SOL     OW 7173   5.486   2.230   0.779  0.2864 -0.1757  0.0138
 1852SOL    HW2 7174   5.551   2.225   0.849 -0.9648 -1.1246  1.1511
 1852SOL    HW3 7175   5.417   2.286   0.815 -1.6031 -2.7381  0.6654
 1852SOL    MW4 7176   5.486   2.237   0.793 -0.1280 -0.6389  0.2498
 1853SOL     OW 7177   6.159   1.352   3.895  0.5420 -0.2205  0.0222
 1853SOL    HW2 7178   6.215   1.416   3.939 -1.1176  1.3783 -0.0584
 1853SOL    HW3 7179   6.114   1.403   3.827 -0.5220 -1.5872 -0.3394
 1853SOL    MW4 7180   6.160   1.367   3.892  0.1826 -0.1899 -0.0362
 1854SOL     OW 7181   5.527   0.522   1.409 -0.4256  0.2038 -0.7457
 1854SOL    HW2 7182   5.594   0.529   1.477 -1.0705 -0.5447 -0.0029
 1854SOL    HW3 7183   5.513   0.612   1.379 -0.4221  0.6014  0.4045
 1854SOL    MW4 7184   5.534   0.535   1.414 -0.5102  0.1575 -0.4959
 1855SOL     OW 7185   4.610   3.054   5.945  0.0068  0.0372 -0.1821
 1855SOL    HW2 7186   4.529   3.049   5.996  0.1824  2.0366  0.3585
 1855SOL    HW3 7187   4.679   3.065   6.010  0.5350  0.0767 -0.7349
 1855SOL    MW4 7188   4.609   3.055   5.960  0.0997  0.3062 -0.1837
 1856SOL     OW 7189   4.840   2.885   2.474 -0.5882 -0.1933 -0.1681
 1856SOL    HW2 7190   4.800   2.809   2.431 -0.0125 -0.5938 -0.0146
 1856SOL    HW3 7191   4.876   2.849   2.555  1.3001 -0.1433 -0.9341
 1856SOL    MW4 7192   4.839   2.870   2.479 -0.2631 -0.2395 -0.2489
 1857SOL     OW 7193   5.910   2.531   0.052  0.2110  0.8609  0.2589
 1857SOL    HW2 7194   5.931   2.486   0.134 -2.1882  1.5288  1.3288
 1857SOL    HW3 7195   5.878   2.461  -0.006  1.0133  0.5237  0.2149
 1857SOL    MW4 7196   5.908   2.516   0.055  0.0003  0.9045  0.3942
 1858SOL     OW 7197   5.491   0.470   3.141  0.1374 -0.5048  0.1995
 1858SOL    HW2 7198   5.529   0.409   3.204  0.9925 -0.3184 -0.1189
 1858SOL    HW3 7199   5.517   0.556   3.172  0.0168 -0.3751 -0.0502
 1858SOL    MW4 7200   5.500   0.473   3.153  0.2343 -0.4631  0.1245
 1859SOL     OW 7201   2.226   6.274   3.019 -0.1989  0.0822 -0.3404
 1859SOL    HW2 7202   2.196   6.314   2.938 -0.7164  1.0418  0.3034
 1859SOL    HW3 7203   2.169   6.311   3.087 -1.6147 -2.7319  0.1650
 1859SOL    MW4 7204   2.214   6.284   3.017 -0.4540 -0.1625 -0.1888
 1860SOL     OW 7205   4.492   1.826   6.433  0.2999  0.4055 -0.4099
 1860SOL    HW2 7206   4.506   1.760   6.365  1.7951 -0.0872  0.3328
 1860SOL    HW3 7207   4.536   1.790   6.510 -2.5643  0.2774  1.2886
 1860SOL    MW4 7208   4.500   1.812   6.434  0.1193  0.3236 -0.0878
 1861SOL     OW 7209   5.439   3.244   3.515 -0.4158 -0.3774  0.3447
 1861SOL    HW2 7210   5.355   3.225   3.473  0.0425  0.2920 -0.9010
 1861SOL    HW3 7211   5.491   3.165   3.500 -0.2423 -0.1289 -0.3988
 1861SOL    MW4 7212   5.435   3.231   3.507 -0.3324 -0.2563  0.0823
 1862SOL     OW 7213   2.324   2.679   3.408 -0.0131 -0.0681 -0.0743
 1862SOL    HW2 7214   2.355   2.641   3.491 -0.1818  0.7498  0.3754
 1862SOL    HW3 7215   2.346   2.772   3.415  2.0319 -0.3245 -1.9028
 1862SOL    MW4 7216   2.331   2.686   3.420  0.2345  0.0060 -0.2562
 1863SOL     OW 7217   6.246   4.573   5.068 -0.2842 -0.0982 -0.4106
 1863SOL    HW2 7218   6.281   4.501   5.120  0.2342  0.1241 -0.4453
 1863SOL    HW3 7219   6.311   4.587   4.999 -0.4820  0.2583 -0.5291
 1863SOL    MW4 7220   6.259   4.566   5.066 -0.2419 -0.0218 -0.4308
 1864SOL     OW 7221   4.248   0.911   5.732  0.3299  0.2867 -0.1943
 1864SOL    HW2 7222   4.289   0.983   5.779  0.2491 -0.0935  0.4742
 1864SOL    HW3 7223   4.192   0.868   5.796  1.2229 -1.0431 -0.2440
 1864SOL    MW4 7224   4.246   0.915   5.746  0.4371  0.0611 -0.1127
 1865SOL     OW 7225   0.829   6.051   4.387 -0.1969 -0.0671  0.4790
 1865SOL    HW2 7226   0.877   5.971   4.407  0.0365 -0.0331  0.0658
 1865SOL    HW3 7227   0.774   6.028   4.312  0.3028  0.3134 -0.0162
 1865SOL    MW4 7228   0.828   6.037   4.380 -0.1002 -0.0124  0.3591
 1866SOL     OW 7229   1.518   4.381   1.812 -0.9139  0.3700  0.1219
 1866SOL    HW2 7230   1.525   4.470   1.846 -2.1323 -0.1263  1.8204
 1866SOL    HW3 7231   1.595   4.336   1.845 -0.6166  0.6203 -0.2198
 1866SOL    MW4 7232   1.529   4.387   1.821 -1.0354  0.3375  0.3009
 1867SOL     OW 7233   4.223   3.627   0.017  0.3818  0.4560 -0.1912
 1867SOL    HW2 7234   4.177   3.555   0.061  2.6796 -0.5580  0.7119
 1867SOL    HW3 7235   4.293   3.650   0.078  2.0523  0.8217 -2.1733
 1867SOL    MW4 7236   4.226   3.620   0.031  0.9053  0.3705 -0.3336
 1868SOL     OW 7237   6.347   0.350   0.574  0.1589 -0.1134  0.0155
 1868SOL    HW2 7238   6.367   0.345   0.480  0.5542  0.9132  0.0296
 1868SOL    HW3 7239   6.255   0.326   0.580  0.5409 -1.7921 -0.4379
 1868SOL    MW4 7240   6.337   0.346   0.562  0.2615 -0.1994 -0.0425
 1869SOL     OW 7241   2.203   3.602   6.197  0.0896  1.0240  0.6553
 1869SOL    HW2 7242   2.291   3.606   6.235 -0.1558  0.6996  1.2700
 1869SOL    HW3 7243   2.217   3.613   6.103  0.5473  3.9144  0.9650
 1869SOL    MW4 7244   2.217   3.604   6.189  0.1176  1.3626  0.7773
 1870SOL     OW 7245   0.151   2.555   5.851  0.0788 -0.2460  0.4535
 1870SOL    HW2 7246   0.229   2.502   5.869  0.9114  0.9248  0.3780
 1870SOL    HW3 7247   0.181   2.645   5.856 -1.0179  0.2236 -0.7137
 1870SOL    MW4 7248   0.165   2.560   5.854  0.0440 -0.0296  0.2895
 1871SOL     OW 7249   2.869   5.686   3.990  0.6171  0.4375  0.3257
 1871SOL    HW2 7250   2.886   5.775   3.958 -0.4140 -0.0084 -1.6185
 1871SOL    HW3 7251   2.778   5.688   4.017  0.5696 -0.0476  0.2023
 1871SOL    MW4 7252   2.860   5.698   3.989  0.4748  0.3147  0.0529
 1872SOL     OW 7253   3.878   1.773   0.326 -0.1741  0.0658  0.0916
 1872SOL    HW2 7254   3.956   1.810   0.366 -0.3351  0.1285  0.3518
 1872SOL    HW3 7255   3.843   1.713   0.392  1.3349 -2.3385 -1.1636
 1872SOL    MW4 7256   3.883   1.770   0.340  0.0037 -0.2431 -0.0397
 1873SOL     OW 7257   3.492   4.649   5.765  0.2484  0.2941  0.1639
 1873SOL    HW2 7258   3.475   4.635   5.858  1.3288 -0.9013  0.2069
 1873SOL    HW3 7259   3.408   4.677   5.729 -1.1761 -2.7851  0.8146
 1873SOL    MW4 7260   3.479   4.651   5.772  0.2030 -0.2699  0.2554
 1874SOL     OW 7261   1.468   6.247   0.639  0.1790 -0.2565  0.1219
 1874SOL    HW2 7262   1.419   6.217   0.715 -0.1631  1.7019  0.7395
 1874SOL    HW3 7263   1.560   6.233   0.663  0.0639  0.1062  0.7913
 1874SOL    MW4 7264   1.474   6.241   0.652  0.1187  0.0498  0.2917
 1875SOL     OW 7265   1.328   5.515   4.126 -0.2605  0.3606 -0.3939
 1875SOL    HW2 7266   1.393   5.585   4.138  1.4879 -1.3269  0.4519
 1875SOL    HW3 7267   1.379   5.435   4.124 -2.0480 -0.8423 -3.0292
 1875SOL    MW4 7268   1.344   5.514   4.127 -0.2657 -0.0207 -0.6300
 1876SOL     OW 7269   4.976   6.394   5.504  0.7089  0.4040 -0.2516
 1876SOL    HW2 7270   4.985   6.489   5.495  0.8650  0.6686  2.0659
 1876SOL    HW3 7271   5.065   6.362   5.516  0.7141 -0.1518 -1.5365
 1876SOL    MW4 7272   4.989   6.402   5.504  0.7302  0.3656 -0.1153
 1877SOL     OW 7273   5.125   3.812   3.167  0.5201 -0.4627  0.2382
 1877SOL    HW2 7274   5.062   3.867   3.119  0.9993  0.3295  0.4945
 1877SOL    HW3 7275   5.085   3.801   3.253 -1.1290 -3.2373 -0.7515
 1877SOL    MW4 7276   5.111   3.818   3.172  0.3657 -0.7243  0.1414
 1878SOL     OW 7277   1.356   2.737   3.203  0.0256 -0.5748  0.1631
 1878SOL    HW2 7278   1.366   2.692   3.119 -0.4242  0.0702 -0.2471
 1878SOL    HW3 7279   1.397   2.822   3.189  0.0903 -0.5243  0.6559
 1878SOL    MW4 7280   1.363   2.742   3.190 -0.0252 -0.4830  0.1740
 1879SOL     OW 7281   5.310   4.714   6.168 -0.5544 -0.0143  0.2963
 1879SOL    HW2 7282   5.255   4.696   6.091  0.2128 -1.1066 -0.0148
 1879SOL    HW3 7283   5.269   4.665   6.238 -0.5163 -0.0580  0.2874
 1879SOL    MW4 7284   5.297   4.705   6.167 -0.4482 -0.1642  0.2540
 1880SOL     OW 7285   2.825   2.139   5.348  0.3031  0.4096 -0.3770
 1880SOL    HW2 7286   2.805   2.060   5.398  0.7014  0.6732  0.2095
 1880SOL    HW3 7287   2.920   2.147   5.355  0.6119 -0.4820 -2.5775
 1880SOL    MW4 7288   2.835   2.129   5.355  0.3964  0.3268 -0.5899
 1881SOL     OW 7289   5.537   4.871   1.537 -0.0504 -0.0121 -0.2370
 1881SOL    HW2 7290   5.511   4.870   1.629 -1.0811 -0.7420 -0.5183
 1881SOL    HW3 7291   5.465   4.917   1.492 -1.0249 -2.2298 -1.0570
 1881SOL    MW4 7292   5.524   4.877   1.543 -0.3150 -0.4010 -0.3823
 1882SOL     OW 7293   3.739   1.378   1.664 -0.0393  0.6402  0.3721
 1882SOL    HW2 7294   3.819   1.396   1.616 -0.1588 -2.3913 -1.1958
 1882SOL    HW3 7295   3.668   1.398   1.603 -0.3312  0.1498  0.5385
 1882SOL    MW4 7296   3.740   1.383   1.650 -0.0936  0.1755  0.1872
 1883SOL     OW 7297   2.336   2.496   2.384  0.2053  0.5193  0.2017
 1883SOL    HW2 7298   2.429   2.484   2.369  0.4113 -1.0024  2.3244
 1883SOL    HW3 7299   2.326   2.590   2.399  1.5340  0.5760  0.8039
 1883SOL    MW4 7300   2.347   2.507   2.384  0.4078  0.3260  0.5612
 1884SOL     OW 7301   6.040   5.180   2.311  0.4834  0.5356  0.0390
 1884SOL    HW2 7302   5.993   5.113   2.261  0.3514  0.2340  0.5623
 1884SOL    HW3 7303   6.095   5.131   2.371  1.1668  0.8957 -0.2891
 1884SOL    MW4 7304   6.041   5.165   2.312  0.5562  0.5433  0.0648
 1885SOL     OW 7305   4.420   5.426   5.398 -0.7775  0.3783 -0.1444
 1885SOL    HW2 7306   4.466   5.491   5.344  0.0593 -0.8021 -0.8823
 1885SOL    HW3 7307   4.467   5.426   5.481 -1.0028  0.9573 -0.0102
 1885SOL    MW4 7308   4.432   5.435   5.402 -0.6968  0.2989 -0.2241
 1886SOL     OW 7309   1.815   4.383   3.542  0.0184 -0.7561  0.0757
 1886SOL    HW2 7310   1.721   4.370   3.556 -0.5299  0.5499 -1.9586
 1886SOL    HW3 7311   1.827   4.366   3.448  1.7255 -0.3870  0.2101
 1886SOL    MW4 7312   1.804   4.379   3.531  0.1713 -0.5351 -0.1750
 1887SOL     OW 7313   1.517   5.170   3.686  0.3851  0.0602 -0.1302
 1887SOL    HW2 7314   1.537   5.194   3.596  0.6563  1.3899  0.2738
 1887SOL    HW3 7315   1.440   5.223   3.708 -1.3551 -2.1676 -0.4070
 1887SOL    MW4 7316   1.509   5.180   3.677  0.1912 -0.0583 -0.1134
 1888SOL     OW 7317   4.659   2.339   6.014  0.0381  0.3986  0.1861
 1888SOL    HW2 7318   4.603   2.338   6.091  1.4869 -0.1485  1.2793
 1888SOL    HW3 7319   4.746   2.358   6.048  0.9342 -1.0848 -1.1421
 1888SOL    MW4 7320   4.663   2.341   6.029  0.3475  0.1307  0.1551
 1889SOL     OW 7321   2.037   5.297   0.731 -0.0049  0.2087  0.2815
 1889SOL    HW2 7322   2.108   5.309   0.668  0.0769 -1.6241 -0.0205
 1889SOL    HW3 7323   2.071   5.332   0.813  1.4471 -1.0497  0.2455
 1889SOL    MW4 7324   2.051   5.304   0.734  0.1974 -0.1991  0.2369
 1890SOL     OW 7325   1.464   5.950   6.238  0.0128 -0.0465  0.4529
 1890SOL    HW2 7326   1.502   6.030   6.202 -1.9402  0.4546 -0.5981
 1890SOL    HW3 7327   1.488   5.951   6.330  0.4475  1.4777  0.3407
 1890SOL    MW4 7328   1.472   5.960   6.245 -0.1875  0.2207  0.2994
 1891SOL     OW 7329   0.338   4.676   4.605  0.0404  0.0863  0.0406
 1891SOL    HW2 7330   0.312   4.599   4.554  0.9435  0.7205 -1.4602
 1891SOL    HW3 7331   0.294   4.750   4.562  0.1174  0.5406  0.7321
 1891SOL    MW4 7332   0.329   4.676   4.592  0.1697  0.2299 -0.0662
 1892SOL     OW 7333   0.219   1.170   6.131  0.4228  0.2658  0.1268
 1892SOL    HW2 7334   0.231   1.265   6.130 -0.7841  0.4443  0.6525
 1892SOL    HW3 7335   0.187   1.150   6.043  0.7392  0.3334 -0.0056
 1892SOL    MW4 7336   0.216   1.180   6.119  0.3053  0.2983  0.1787
 1893SOL     OW 7337   1.213   0.368   6.408 -0.1579 -0.6191  0.1230
 1893SOL    HW2 7338   1.267   0.291   6.427  0.9938 -0.1994 -1.2672
 1893SOL    HW3 7339   1.124   0.341   6.431  0.0248 -2.7925 -1.4056
 1893SOL    MW4 7340   1.208   0.354   6.413  0.0182 -0.8505 -0.2621
 1894SOL     OW 7341   3.444   0.077   5.967  0.6547 -0.7967  0.6105
 1894SOL    HW2 7342   3.366   0.126   5.991  0.3579 -0.7511 -0.4243
 1894SOL    HW3 7343   3.414  -0.014   5.960  1.0141 -1.0138  1.6319
 1894SOL    MW4 7344   3.430   0.071   5.969  0.6630 -0.8193  0.6088
 1895SOL     OW 7345   1.917   0.963   2.411 -0.5086 -0.2414 -0.4777
 1895SOL    HW2 7346   1.936   1.038   2.355  0.9617  1.2374  1.8643
 1895SOL    HW3 7347   1.910   0.999   2.499  1.5855 -2.9643  0.9584
 1895SOL    MW4 7348   1.919   0.977   2.415 -0.0383 -0.4056  0.0208
 1896SOL     OW 7349   1.052   5.584   4.085  0.2176  0.0646 -0.2110
 1896SOL    HW2 7350   1.147   5.574   4.085  0.0540 -2.5076  1.4263
 1896SOL    HW3 7351   1.037   5.678   4.071  3.0630  0.9141  1.5591
 1896SOL    MW4 7352   1.062   5.595   4.083  0.5714 -0.1627  0.2386
 1897SOL     OW 7353   3.629   1.191   4.561  0.2929  0.0078  0.6285
 1897SOL    HW2 7354   3.537   1.183   4.587 -0.0149  2.3544  0.5229
 1897SOL    HW3 7355   3.635   1.280   4.525  2.2774 -0.6353 -0.7919
 1897SOL    MW4 7356   3.617   1.202   4.559  0.5141  0.2326  0.4272
 1898SOL     OW 7357   1.452   2.565   4.768  0.5767 -0.5188  0.1465
 1898SOL    HW2 7358   1.398   2.635   4.731  1.0786 -1.3414 -2.3136
 1898SOL    HW3 7359   1.389   2.502   4.804 -0.0493 -0.4822 -0.8448
 1898SOL    MW4 7360   1.436   2.566   4.768  0.5603 -0.6225 -0.3089
 1899SOL     OW 7361   0.770   0.845   0.293  0.2118  0.3378 -0.1256
 1899SOL    HW2 7362   0.828   0.921   0.303  3.1597 -1.9786  1.9987
 1899SOL    HW3 7363   0.801   0.801   0.214 -0.2654  0.3371 -0.3159
 1899SOL    MW4 7364   0.782   0.850   0.284  0.5378  0.0321  0.1296
 1900SOL     OW 7365   0.079   6.032   2.730  0.2254 -0.3313 -0.5987
 1900SOL    HW2 7366  -0.005   6.062   2.693 -0.0268 -0.2028  0.0737
 1900SOL    HW3 7367   0.072   5.937   2.731  0.5078 -0.3726 -1.5158
 1900SOL    MW4 7368   0.067   6.024   2.725  0.2294 -0.3198 -0.6310
 1901SOL     OW 7369   1.960   2.784   2.378 -0.3468  0.2895 -0.2300
 1901SOL    HW2 7370   2.050   2.774   2.411 -0.2742 -0.5432 -0.6575
 1901SOL    HW3 7371   1.935   2.872   2.404  1.3801  1.3724 -1.9764
 1901SOL    MW4 7372   1.969   2.794   2.386 -0.1094  0.3225 -0.5168
 1902SOL     OW 7373   5.123   4.268   1.561 -0.3903  0.3148  0.1350
 1902SOL    HW2 7374   5.128   4.304   1.473  1.8593 -1.5623 -0.5967
 1902SOL    HW3 7375   5.107   4.174   1.549  1.1661 -0.2050  1.6195
 1902SOL    MW4 7376   5.121   4.260   1.548  0.1118 -0.0015  0.2343
 1903SOL     OW 7377   0.816   4.570   4.849 -0.4558  0.6139 -0.6057
 1903SOL    HW2 7378   0.760   4.642   4.822  1.0714  2.0401 -0.1395
 1903SOL    HW3 7379   0.860   4.602   4.928  1.1859 -0.3295 -1.0867
 1903SOL    MW4 7380   0.814   4.584   4.856 -0.0377  0.6776 -0.6077
 1904SOL     OW 7381   3.092   1.569   4.525  0.1813 -0.1067 -0.2622
 1904SOL    HW2 7382   3.161   1.513   4.562 -0.3868 -0.1142  0.8267
 1904SOL    HW3 7383   3.020   1.563   4.587  0.2888  2.2646  0.2039
 1904SOL    MW4 7384   3.092   1.561   4.538  0.1205  0.2052 -0.0571
 1905SOL     OW 7385   0.494   3.741   2.129 -0.3310 -0.5800  0.0774
 1905SOL    HW2 7386   0.568   3.683   2.144  0.9180  1.0858  0.5561
 1905SOL    HW3 7387   0.455   3.754   2.216  0.7740  1.0540  0.3605
 1905SOL    MW4 7388   0.499   3.735   2.143 -0.0204 -0.1446  0.1779
 1906SOL     OW 7389   0.241   4.409   3.497 -0.4519  0.8226 -0.5442
 1906SOL    HW2 7390   0.300   4.483   3.510  1.9792 -0.9205 -0.9164
 1906SOL    HW3 7391   0.258   4.381   3.407 -0.0111 -1.2026  0.1298
 1906SOL    MW4 7392   0.251   4.415   3.487 -0.0730  0.3254 -0.5044
 1907SOL     OW 7393   5.130   5.839   4.042  0.5209 -0.5485  0.4925
 1907SOL    HW2 7394   5.050   5.884   4.014  0.9448  0.8672  1.4516
 1907SOL    HW3 7395   5.171   5.810   3.960 -1.2621 -1.8817  0.0059
 1907SOL    MW4 7396   5.124   5.841   4.027  0.3416 -0.5376  0.5548
 1908SOL     OW 7397   2.328   5.328   4.320  0.2270  0.2029  0.0542
 1908SOL    HW2 7398   2.283   5.392   4.375 -0.2567  0.8173 -1.0164
 1908SOL    HW3 7399   2.361   5.263   4.381  1.2695  1.7775  1.2534
 1908SOL    MW4 7400   2.326   5.328   4.335  0.3008  0.4917  0.0711
 1909SOL     OW 7401   2.121   3.407   2.286 -0.6054 -0.9946 -0.3805
 1909SOL    HW2 7402   2.046   3.369   2.240  0.1018 -3.1676  0.1747
 1909SOL    HW3 7403   2.175   3.332   2.309  1.9219  0.5370 -1.0271
 1909SOL    MW4 7404   2.118   3.392   2.283 -0.1786 -1.0792 -0.3926
 1910SOL     OW 7405   2.709   0.892   5.224 -0.3481  0.5407 -0.2922
 1910SOL    HW2 7406   2.800   0.921   5.215 -0.9059  2.5559 -0.0989
 1910SOL    HW3 7407   2.711   0.799   5.204  1.6912  0.6186 -0.6881
 1910SOL    MW4 7408   2.721   0.884   5.221 -0.1527  0.8169 -0.3190
 1911SOL     OW 7409   3.142   6.087   1.742 -0.0574  0.0953  0.5805
 1911SOL    HW2 7410   3.155   6.179   1.718  0.4625  0.5799  2.5134
 1911SOL    HW3 7411   3.116   6.044   1.661 -0.2807  1.9403 -0.3729
 1911SOL    MW4 7412   3.141   6.093   1.728 -0.0183  0.4027  0.7097
 1912SOL     OW 7413   0.949   0.659   4.836  0.1956 -1.1189 -0.0409
 1912SOL    HW2 7414   1.035   0.675   4.799  0.8184 -1.7118  1.0892
 1912SOL    HW3 7415   0.894   0.729   4.801  1.4650  0.0828  0.2794
 1912SOL    MW4 7416   0.953   0.670   4.827  0.4453 -1.0386  0.1505
 1913SOL     OW 7417   4.781   4.860   1.662  0.0670 -0.0087  0.0600
 1913SOL    HW2 7418   4.686   4.869   1.663 -0.1703 -1.8928 -0.4057
 1913SOL    HW3 7419   4.797   4.772   1.696  1.6756  0.4099  0.4685
 1913SOL    MW4 7420   4.771   4.849   1.666  0.2479 -0.2020  0.0524
 1914SOL     OW 7421   1.697   4.480   3.135 -0.0429  0.1862  0.2142
 1914SOL    HW2 7422   1.682   4.575   3.133 -1.4056  0.0049  0.6161
 1914SOL    HW3 7423   1.624   4.443   3.086  0.9452 -0.6408 -0.6959
 1914SOL    MW4 7424   1.686   4.488   3.128 -0.0923  0.0532  0.1472
 1915SOL     OW 7425   3.584   0.612   3.773 -0.3403 -0.2366  0.8891
 1915SOL    HW2 7426   3.657   0.616   3.835  1.8490  2.8795 -1.5653
 1915SOL    HW3 7427   3.614   0.551   3.705 -0.9264 -0.4772  0.8431
 1915SOL    MW4 7428   3.598   0.604   3.772 -0.1288  0.1428  0.5592
 1916SOL     OW 7429   1.308   4.676   0.294  0.5810  0.1848 -0.4284
 1916SOL    HW2 7430   1.224   4.633   0.276  0.4987  0.0006  0.3484
 1916SOL    HW3 7431   1.338   4.706   0.209 -1.1129  1.8105 -0.5230
 1916SOL    MW4 7432   1.301   4.674   0.281  0.3467  0.3750 -0.3384
 1917SOL     OW 7433   5.098   3.998   1.553  0.5535  0.1599 -0.4761
 1917SOL    HW2 7434   5.029   4.007   1.619  1.6966 -1.5496  1.0566
 1917SOL    HW3 7435   5.170   3.956   1.600  2.5976  1.7173 -2.0551
 1917SOL    MW4 7436   5.098   3.993   1.568  0.9740  0.1398 -0.4822
 1918SOL     OW 7437   6.020   4.254   3.638 -0.1978 -0.0960  0.1867
 1918SOL    HW2 7438   6.024   4.168   3.680  1.2720  0.0641  0.4511
 1918SOL    HW3 7439   6.112   4.278   3.625 -0.5885  1.3039 -0.1621
 1918SOL    MW4 7440   6.033   4.246   3.642 -0.0554  0.1099  0.1755
 1919SOL     OW 7441   0.428   4.634   1.417  0.3684  0.4570  0.4384
 1919SOL    HW2 7442   0.483   4.702   1.457  1.3629  1.3265 -2.2120
 1919SOL    HW3 7443   0.375   4.680   1.353 -0.1489 -1.0549 -0.2753
 1919SOL    MW4 7444   0.429   4.649   1.414  0.4314  0.3723 -0.0054
 1920SOL     OW 7445   5.910   1.218   4.659 -0.0025  0.4865 -0.0318
 1920SOL    HW2 7446   5.934   1.136   4.703 -0.1223 -0.1944 -1.1900
 1920SOL    HW3 7447   5.824   1.201   4.621  0.8346  0.3983 -2.0255
 1920SOL    MW4 7448   5.902   1.205   4.660  0.0921  0.3850 -0.4476
 1921SOL     OW 7449   1.156   0.973   0.743 -0.0847 -0.0781  0.5956
 1921SOL    HW2 7450   1.152   0.900   0.681  0.8088  0.5199 -0.2066
 1921SOL    HW3 7451   1.119   1.047   0.695  1.5383  0.6393  0.3577
 1921SOL    MW4 7452   1.151   0.973   0.728  0.2473  0.0955  0.4583
 1922SOL     OW 7453   2.712   5.381   0.090 -0.1878 -0.1495  0.0097
 1922SOL    HW2 7454   2.667   5.320   0.149  0.6192  0.3923  1.2401
 1922SOL    HW3 7455   2.719   5.462   0.141  0.1133  0.4912 -1.0262
 1922SOL    MW4 7456   2.707   5.384   0.105 -0.0416  0.0065  0.0353
 1923SOL     OW 7457   4.131   6.394   4.650 -0.4363  0.0948  0.2811
 1923SOL    HW2 7458   4.222   6.425   4.655 -0.7051  0.7911  1.0225
 1923SOL    HW3 7459   4.109   6.369   4.740 -1.3313  0.9697  0.3155
 1923SOL    MW4 7460   4.140   6.395   4.662 -0.5899  0.3021  0.3835
 1924SOL     OW 7461   4.612   3.237   1.214 -0.1644  0.3914 -0.3150
 1924SOL    HW2 7462   4.600   3.317   1.265  0.2018  0.0701  0.2868
 1924SOL    HW3 7463   4.558   3.250   1.136 -2.5152 -0.0414  1.1704
 1924SOL    MW4 7464   4.604   3.249   1.210 -0.4263  0.2919 -0.0396
 1925SOL     OW 7465   4.817   4.151   3.188 -0.0394  0.2974  0.0139
 1925SOL    HW2 7466   4.781   4.123   3.272  0.6150  0.1149  0.2386
 1925SOL    HW3 7467   4.892   4.205   3.211  1.5668 -1.6161 -0.4421
 1925SOL    MW4 7468   4.822   4.154   3.202  0.2589  0.0209 -0.0166
 1926SOL     OW 7469   1.971   3.728   0.694 -0.4021 -0.5667  0.9395
 1926SOL    HW2 7470   1.876   3.718   0.706 -0.7477  1.5464  0.4072
 1926SOL    HW3 7471   1.984   3.719   0.600 -0.4117  1.0328  0.7429
 1926SOL    MW4 7472   1.960   3.726   0.683 -0.4490 -0.0769  0.8433
 1927SOL     OW 7473   2.752   1.034   2.903  0.7188 -0.6475 -0.0737
 1927SOL    HW2 7474   2.775   1.126   2.894  0.7788 -0.7696 -1.2910
 1927SOL    HW3 7475   2.830   0.993   2.940  0.7243 -0.2397  0.3835
 1927SOL    MW4 7476   2.765   1.041   2.907  0.7275 -0.6098 -0.1740
 1928SOL     OW 7477   5.471   1.546   5.818 -0.3732 -0.0493 -0.0549
 1928SOL    HW2 7478   5.399   1.512   5.764 -2.0645  2.2427  0.6003
 1928SOL    HW3 7479   5.429   1.572   5.900  1.7441 -1.2978  1.5161
 1928SOL    MW4 7480   5.456   1.545   5.822 -0.3170  0.0884  0.2388
 1929SOL     OW 7481   2.269   1.634   4.095  0.0838  0.2181  0.6630
 1929SOL    HW2 7482   2.178   1.604   4.104 -0.0409  0.8673  1.8507
 1929SOL    HW3 7483   2.314   1.562   4.052 -1.5813  1.0061 -2.7566
 1929SOL    MW4 7484   2.263   1.621   4.091 -0.1523  0.4077  0.3685
 1930SOL     OW 7485   3.384   2.538   3.553  0.4116 -0.3941 -0.3247
 1930SOL    HW2 7486   3.345   2.477   3.491  0.1027 -1.0505  0.4942
 1930SOL    HW3 7487   3.370   2.625   3.514  0.3725 -0.7983 -1.2368
 1930SOL    MW4 7488   3.377   2.542   3.540  0.3657 -0.5341 -0.3370
 1931SOL     OW 7489   0.014   2.989   3.588 -0.0956  0.1930 -0.3207
 1931SOL    HW2 7490  -0.032   2.958   3.510 -0.6752 -0.7950  0.3866
 1931SOL    HW3 7491   0.104   2.956   3.577  0.0515  0.7713 -0.9491
 1931SOL    MW4 7492   0.020   2.981   3.576 -0.1527  0.1390 -0.3103
 1932SOL     OW 7493   3.311   2.604   6.399 -0.5490  0.3820  0.3039
 1932SOL    HW2 7494   3.252   2.659   6.347  3.4220  1.6963 -3.4589
 1932SOL    HW3 7495   3.330   2.529   6.342  1.3152  0.0327  1.3044
 1932SOL    MW4 7496   3.306   2.601   6.384  0.2209  0.5093 -0.0606
 1933SOL     OW 7497   0.022   0.927   1.671 -0.3894  0.4630  0.6397
 1933SOL    HW2 7498   0.038   0.843   1.714  2.5020 -0.9082 -2.6006
 1933SOL    HW3 7499  -0.070   0.947   1.690 -1.5452 -3.9532  0.8224
 1933SOL    MW4 7500   0.012   0.919   1.679 -0.1604 -0.3006  0.2363
 1934SOL     OW 7501   3.010   2.665   3.018  0.7176 -0.2584  0.2168
 1934SOL    HW2 7502   2.947   2.613   3.069 -0.3426 -0.0342 -0.8067
 1934SOL    HW3 7503   3.007   2.751   3.058 -0.9555  0.2329 -0.8266
 1934SOL    MW4 7504   3.001   2.669   3.030  0.3570 -0.1640 -0.0559
 1935SOL     OW 7505   5.616   4.595   3.998  0.1236  0.3063  0.0402
 1935SOL    HW2 7506   5.662   4.678   3.986  1.6977 -0.4580  0.6037
 1935SOL    HW3 7507   5.586   4.571   3.910 -1.6065  2.1201  0.0558
 1935SOL    MW4 7508   5.618   4.603   3.985  0.1030  0.4448  0.1166
 1936SOL     OW 7509   5.186   4.217   0.520 -0.6055  0.7870 -0.1317
 1936SOL    HW2 7510   5.100   4.222   0.563  0.2489  1.7338  1.6044
 1936SOL    HW3 7511   5.233   4.294   0.553  1.4293 -0.5299  0.1970
 1936SOL    MW4 7512   5.181   4.228   0.530 -0.2243  0.7382  0.1407
 1937SOL     OW 7513   5.725   4.215   4.768 -0.4256  0.1730  0.4061
 1937SOL    HW2 7514   5.710   4.232   4.861  0.2901  1.5297  0.2960
 1937SOL    HW3 7515   5.655   4.263   4.723 -1.4878 -1.4351  0.2534
 1937SOL    MW4 7516   5.714   4.224   4.774 -0.4713  0.1398  0.3714
 1938SOL     OW 7517   2.612   1.342   0.570  0.1328 -0.3160 -0.2305
 1938SOL    HW2 7518   2.702   1.349   0.603 -0.3442  1.1684  0.9190
 1938SOL    HW3 7519   2.571   1.424   0.598 -1.9020 -1.4522  0.2906
 1938SOL    MW4 7520   2.619   1.354   0.578 -0.1986 -0.2701 -0.0101
 1939SOL     OW 7521   3.370   1.201   2.410  0.4802  0.0172 -0.0951
 1939SOL    HW2 7522   3.327   1.128   2.454  0.4568  0.9157  1.4249
 1939SOL    HW3 7523   3.460   1.200   2.443  1.4578 -1.2392 -2.5010
 1939SOL    MW4 7524   3.376   1.192   2.420  0.6061 -0.0300 -0.2120
 1940SOL     OW 7525   1.409   4.884   3.120  0.3737 -0.3724 -0.1091
 1940SOL    HW2 7526   1.445   4.959   3.166  0.9808 -0.6047 -0.1967
 1940SOL    HW3 7527   1.382   4.918   3.035  2.3054 -0.5970 -0.8508
 1940SOL    MW4 7528   1.410   4.898   3.115  0.7087 -0.4327 -0.2185
 1941SOL     OW 7529   4.533   1.176   4.021 -0.0085 -0.1959  0.7025
 1941SOL    HW2 7530   4.440   1.172   4.046 -0.3203  1.9788  0.1410
 1941SOL    HW3 7531   4.540   1.114   3.948 -0.8221 -0.9832  1.2700
 1941SOL    MW4 7532   4.521   1.168   4.015 -0.1570 -0.0129  0.7033
 1942SOL     OW 7533   1.240   3.552   2.878 -0.0502  0.0762 -0.2250
 1942SOL    HW2 7534   1.251   3.624   2.816 -0.4080  0.2308 -0.1049
 1942SOL    HW3 7535   1.210   3.479   2.824 -0.9743  0.3831 -0.1428
 1942SOL    MW4 7536   1.238   3.552   2.863 -0.2193  0.1371 -0.1983
 1943SOL     OW 7537   0.353   0.059   2.539  0.4038 -0.3701 -0.0496
 1943SOL    HW2 7538   0.265   0.087   2.516  0.2488 -1.8241 -1.3463
 1943SOL    HW3 7539   0.408   0.135   2.520 -0.4798  0.3498  0.2121
 1943SOL    MW4 7540   0.349   0.073   2.534  0.2668 -0.4670 -0.1861
 1944SOL     OW 7541   0.151   1.213   3.694 -0.0911  0.5858 -0.0994
 1944SOL    HW2 7542   0.149   1.125   3.657 -0.2456  0.1094  0.9814
 1944SOL    HW3 7543   0.110   1.269   3.629  1.3324  0.1159 -1.4498
 1944SOL    MW4 7544   0.146   1.209   3.681  0.0763  0.4610 -0.1350
 1945SOL     OW 7545   4.407   1.996   5.412 -0.1730  0.0597 -0.2083
 1945SOL    HW2 7546   4.319   1.968   5.389  0.6707 -2.6683 -0.4899
 1945SOL    HW3 7547   4.412   1.988   5.507 -0.1975  0.1310 -0.2008
 1945SOL    MW4 7548   4.396   1.992   5.421 -0.0649 -0.2908 -0.2445
 1946SOL     OW 7549   1.561   3.813   2.660  0.3146  0.1450 -0.2340
 1946SOL    HW2 7550   1.615   3.734   2.666 -1.1313 -0.9595 -1.0668
 1946SOL    HW3 7551   1.489   3.798   2.721 -0.9063  0.0048 -1.6402
 1946SOL    MW4 7552   1.559   3.800   2.669 -0.0373 -0.0192 -0.5294
 1947SOL     OW 7553   5.204   5.467   0.379  0.5679 -0.7988  0.3564
 1947SOL    HW2 7554   5.115   5.434   0.391  0.0608  0.8481  1.5343
 1947SOL    HW3 7555   5.198   5.524   0.302  0.5099 -0.3944  0.6595
 1947SOL    MW4 7556   5.191   5.470   0.370  0.4933 -0.5282  0.5518
 1948SOL     OW 7557   3.242   4.742   5.696  0.5249 -0.8791  0.4460
 1948SOL    HW2 7558   3.205   4.817   5.649  0.7418 -1.2520 -0.3338
 1948SOL    HW3 7559   3.168   4.682   5.707  0.1331 -0.1782  1.8822
 1948SOL    MW4 7560   3.227   4.744   5.691  0.5018 -0.8358  0.5326
 1949SOL     OW 7561   6.029   1.705   5.426 -0.1050  0.0694  0.0035
 1949SOL    HW2 7562   6.032   1.733   5.517  1.8201 -1.8446  0.6116
 1949SOL    HW3 7563   5.937   1.716   5.401 -0.3513  2.3390  1.5535
 1949SOL    MW4 7564   6.017   1.710   5.435  0.1165  0.1163  0.2882
 1950SOL     OW 7565   3.349   4.890   0.619  0.4408 -0.4356  0.1237
 1950SOL    HW2 7566   3.368   4.908   0.527 -1.0540  0.7426  0.0069
 1950SOL    HW3 7567   3.354   4.976   0.661  0.8733 -0.9283  1.1134
 1950SOL    MW4 7568   3.353   4.904   0.612  0.3006 -0.3452  0.2389
 1951SOL     OW 7569   3.391   0.667   0.087 -0.0049 -0.3715 -0.4060
 1951SOL    HW2 7570   3.417   0.745   0.136  2.2902  0.6362 -2.9259
 1951SOL    HW3 7571   3.470   0.612   0.085 -1.2356 -2.2556  0.3233
 1951SOL    MW4 7572   3.405   0.670   0.093  0.1356 -0.4871 -0.6422
 1952SOL     OW 7573   2.681   3.296   1.799 -0.4203 -0.2030 -0.7630
 1952SOL    HW2 7574   2.622   3.240   1.849  0.9643 -1.3580 -0.3627
 1952SOL    HW3 7575   2.648   3.385   1.815 -2.1922 -0.8068 -0.7851
 1952SOL    MW4 7576   2.669   3.301   1.808 -0.4714 -0.4350 -0.7131
 1953SOL     OW 7577   2.002   0.187   3.191 -0.3830  0.4184 -0.0711
 1953SOL    HW2 7578   2.049   0.262   3.228 -1.0133  1.0883 -0.5847
 1953SOL    HW3 7579   1.971   0.218   3.106  0.5821 -0.9197 -0.9409
 1953SOL    MW4 7580   2.004   0.201   3.185 -0.3389  0.3303 -0.2536
 1954SOL     OW 7581   3.330   0.865   6.089 -0.5917 -0.1260 -0.4703
 1954SOL    HW2 7582   3.383   0.917   6.150 -0.1107  1.4849 -2.1483
 1954SOL    HW3 7583   3.393   0.832   6.025 -1.3817  0.4021 -1.5497
 1954SOL    MW4 7584   3.346   0.867   6.088 -0.6325  0.1562 -0.8341
 1955SOL     OW 7585   1.894   5.828   0.101  0.3762 -0.2122 -0.5423
 1955SOL    HW2 7586   1.852   5.743   0.087 -0.0883  0.0978 -1.1006
 1955SOL    HW3 7587   1.957   5.812   0.171  0.1111 -0.9541 -0.4563
 1955SOL    MW4 7588   1.897   5.814   0.108  0.2799 -0.2692 -0.6046
 1956SOL     OW 7589   3.473   4.315   1.562 -0.1346 -0.0477 -0.0943
 1956SOL    HW2 7590   3.427   4.236   1.591 -0.8398  0.0938 -0.8051
 1956SOL    HW3 7591   3.408   4.385   1.567  0.1430  0.2554 -0.6054
 1956SOL    MW4 7592   3.458   4.314   1.567 -0.1910  0.0110 -0.2555
 1957SOL     OW 7593   3.230   3.435   2.142  0.2837 -0.4941  0.3723
 1957SOL    HW2 7594   3.230   3.339   2.141  0.6239 -0.5699  2.6132
 1957SOL    HW3 7595   3.168   3.459   2.211  1.0387  0.8470  0.6358
 1957SOL    MW4 7596   3.222   3.425   2.151  0.4282 -0.3271  0.7027
 1958SOL     OW 7597   3.447   5.574   5.768  0.0667 -0.4167  0.2237
 1958SOL    HW2 7598   3.511   5.536   5.707  0.7431  0.1869  0.5416
 1958SOL    HW3 7599   3.385   5.503   5.784 -1.0089 -0.1636 -2.3084
 1958SOL    MW4 7600   3.447   5.559   5.762  0.0141 -0.3037 -0.0684
 1959SOL     OW 7601   0.850   5.937   2.974 -0.4706  0.0244  0.5901
 1959SOL    HW2 7602   0.777   5.974   3.023 -0.9969 -0.8661  0.4988
 1959SOL    HW3 7603   0.857   5.991   2.895 -1.1924 -0.0412  0.4794
 1959SOL    MW4 7604   0.842   5.949   2.970 -0.6352 -0.1017  0.5635
 1960SOL     OW 7605   4.087   5.993   2.710 -0.2367  0.0907  0.3009
 1960SOL    HW2 7606   4.007   6.014   2.757  0.5796  2.1249  0.9185
 1960SOL    HW3 7607   4.071   6.022   2.620 -0.2139  0.4484  0.4116
 1960SOL    MW4 7608   4.075   5.999   2.704 -0.1260  0.4063  0.3970
 1961SOL     OW 7609   2.462   0.664   2.053  0.3962  0.0369  0.1265
 1961SOL    HW2 7610   2.538   0.608   2.037  0.6235  0.0357  1.1571
 1961SOL    HW3 7611   2.437   0.646   2.143 -0.0399  0.9817  0.2102
 1961SOL    MW4 7612   2.469   0.655   2.063  0.3687  0.1614  0.2735
 1962SOL     OW 7613   1.820   2.875   5.047 -0.1055 -0.4128  0.1909
 1962SOL    HW2 7614   1.878   2.804   5.076  0.7805 -0.3412 -1.2963
 1962SOL    HW3 7615   1.781   2.909   5.128  1.0159 -1.2467  1.1135
 1962SOL    MW4 7616   1.822   2.870   5.061  0.1593 -0.5134  0.1164
 1963SOL     OW 7617   2.868   3.207   4.972  0.3050  0.1242 -0.2685
 1963SOL    HW2 7618   2.845   3.282   5.028  1.8373 -0.0582  0.6581
 1963SOL    HW3 7619   2.955   3.181   5.001  0.1769 -1.4687 -1.1870
 1963SOL    MW4 7620   2.876   3.213   4.984  0.4903 -0.1100 -0.2675
 1964SOL     OW 7621   2.684   0.514   0.164 -0.5369  0.0806 -0.3478
 1964SOL    HW2 7622   2.768   0.471   0.179 -0.3485  0.9520  1.2975
 1964SOL    HW3 7623   2.708   0.602   0.134 -0.8360  0.5571  0.7821
 1964SOL    MW4 7624   2.699   0.520   0.162 -0.5515  0.2584  0.0184
 1965SOL     OW 7625   2.119   1.376   2.635  0.0656  0.4440  0.6048
 1965SOL    HW2 7626   2.076   1.450   2.678 -0.1073  1.1928 -0.8061
 1965SOL    HW3 7627   2.211   1.402   2.630 -0.2765  1.4889 -1.6046
 1965SOL    MW4 7628   2.126   1.389   2.640 -0.0024  0.6807  0.1271
 1966SOL     OW 7629   0.657   2.756   6.252  0.0654  0.6063  0.1647
 1966SOL    HW2 7630   0.634   2.671   6.289 -0.8297  0.6808 -0.2040
 1966SOL    HW3 7631   0.581   2.782   6.200  0.2171  1.7609  0.4867
 1966SOL    MW4 7632   0.644   2.748   6.250 -0.0327  0.7685  0.1585
 1967SOL     OW 7633   4.369   0.507   1.473  0.0343 -0.3513 -0.4725
 1967SOL    HW2 7634   4.314   0.429   1.465  0.2060 -0.5828  0.4397
 1967SOL    HW3 7635   4.306   0.578   1.488 -0.0035 -0.9619  3.0378
 1967SOL    MW4 7636   4.353   0.506   1.474  0.0519 -0.4624  0.1110
 1968SOL     OW 7637   0.593   4.342   3.808 -0.3855  0.0283 -0.0296
 1968SOL    HW2 7638   0.580   4.417   3.866 -0.4386  0.6921 -0.8822
 1968SOL    HW3 7639   0.544   4.271   3.850  1.1773 -0.0590  1.7492
 1968SOL    MW4 7640   0.585   4.343   3.821 -0.1863  0.1044  0.0926
 1969SOL     OW 7641   2.342   3.177   5.481  0.2558  0.1294 -0.1725
 1969SOL    HW2 7642   2.388   3.143   5.404 -1.6778 -1.0815 -0.8723
 1969SOL    HW3 7643   2.402   3.161   5.554  0.8934 -1.5255 -1.0042
 1969SOL    MW4 7644   2.356   3.170   5.480  0.0848 -0.2487 -0.3746
 1970SOL     OW 7645   0.031   3.165   2.534  0.1655  0.0573 -0.1264
 1970SOL    HW2 7646   0.094   3.118   2.588 -0.6673  0.0294  0.8407
 1970SOL    HW3 7647   0.059   3.148   2.444 -0.5149 -2.9463  0.1222
 1970SOL    MW4 7648   0.043   3.156   2.529 -0.0342 -0.3427  0.0340
 1971SOL     OW 7649   1.513   3.570   5.487  0.3463  0.0171  0.2612
 1971SOL    HW2 7650   1.559   3.554   5.405 -1.0313 -1.1953 -0.3149
 1971SOL    HW3 7651   1.463   3.490   5.503 -2.2774  1.5505  0.3303
 1971SOL    MW4 7652   1.512   3.558   5.478 -0.1816  0.0595  0.1943
 1972SOL     OW 7653   2.788   2.553   0.860 -0.2339 -0.4119 -0.3574
 1972SOL    HW2 7654   2.818   2.562   0.769  0.1100  4.2811 -0.0434
 1972SOL    HW3 7655   2.867   2.568   0.912 -1.0434  0.4656  0.6501
 1972SOL    MW4 7656   2.802   2.556   0.855 -0.2953  0.3230 -0.1831
 1973SOL     OW 7657   5.852   4.058   4.210  0.3124  0.0697  0.0143
 1973SOL    HW2 7658   5.925   4.031   4.154 -2.1714 -2.7904 -2.1786
 1973SOL    HW3 7659   5.800   3.978   4.222 -1.4684  1.5004  3.1758
 1973SOL    MW4 7660   5.854   4.044   4.205 -0.2502 -0.1189  0.1421
 1974SOL     OW 7661   3.834   0.095   3.508 -0.3056 -0.1221  0.0996
 1974SOL    HW2 7662   3.826   0.141   3.424 -2.4873 -1.2822 -0.4136
 1974SOL    HW3 7663   3.923   0.113   3.537 -0.2946  2.3955 -1.2205
 1974SOL    MW4 7664   3.845   0.104   3.501 -0.5920  0.0570 -0.1423
 1975SOL     OW 7665   1.367   2.885   2.637 -0.1127 -0.7910 -0.2219
 1975SOL    HW2 7666   1.312   2.823   2.590  0.0200 -0.3569 -0.9758
 1975SOL    HW3 7667   1.455   2.848   2.631 -0.2355 -1.2003  0.4904
 1975SOL    MW4 7668   1.371   2.872   2.630 -0.1114 -0.7877 -0.2273
 1976SOL     OW 7669   2.535   1.650   4.785 -0.0460 -0.0903  0.1454
 1976SOL    HW2 7670   2.580   1.703   4.850  0.1018 -0.1653  0.1039
 1976SOL    HW3 7671   2.492   1.581   4.835 -1.0848  0.6490  0.3108
 1976SOL    MW4 7672   2.535   1.648   4.800 -0.1636 -0.0026  0.1617
 1977SOL     OW 7673   2.426   0.719   4.977  0.4880  0.3224 -0.2917
 1977SOL    HW2 7674   2.423   0.718   4.881 -0.5929  0.2700 -0.2706
 1977SOL    HW3 7675   2.415   0.811   5.000 -0.4909  0.1883 -0.1986
 1977SOL    MW4 7676   2.424   0.731   4.967  0.2163  0.2978 -0.2767
 1978SOL     OW 7677   4.488   4.567   1.884  0.0029  0.4233  0.0624
 1978SOL    HW2 7678   4.567   4.552   1.833  0.7021 -0.3063  1.2982
 1978SOL    HW3 7679   4.421   4.587   1.819  1.3662  1.8751 -0.9669
 1978SOL    MW4 7680   4.490   4.567   1.869  0.2750  0.5186  0.0897
 1979SOL     OW 7681   5.425   3.091   0.020 -0.7397  0.2603  0.1916
 1979SOL    HW2 7682   5.518   3.111   0.024 -0.5506 -0.7161  1.2990
 1979SOL    HW3 7683   5.417   3.025  -0.049 -0.0723 -2.0925  2.2193
 1979SOL    MW4 7684   5.436   3.085   0.012 -0.6267 -0.1790  0.6052
 1980SOL     OW 7685   1.925   1.249   0.716 -0.1420  0.1955 -0.0123
 1980SOL    HW2 7686   1.917   1.282   0.627 -1.1497 -1.1852 -0.4668
 1980SOL    HW3 7687   1.842   1.204   0.733  0.8093 -1.3500  0.8489
 1980SOL    MW4 7688   1.913   1.247   0.707 -0.1494 -0.1906  0.0414
 1981SOL     OW 7689   2.422   0.129   1.029  0.5507 -0.2423  0.2199
 1981SOL    HW2 7690   2.340   0.090   1.000  0.3489  1.1886 -1.2029
 1981SOL    HW3 7691   2.468   0.152   0.948  1.4989  0.7360  1.0085
 1981SOL    MW4 7692   2.417   0.127   1.015  0.6492  0.0756  0.1362
 1982SOL     OW 7693   4.161   2.892   0.118 -0.0067  0.7449  0.5625
 1982SOL    HW2 7694   4.163   2.823   0.051  0.7989  3.8564 -2.9291
 1982SOL    HW3 7695   4.077   2.880   0.162  0.3491 -2.7533  0.5846
 1982SOL    MW4 7696   4.150   2.881   0.115  0.1465  0.6939  0.1047
 1983SOL     OW 7697   4.634   2.987   0.624 -0.0034  0.0073 -0.0964
 1983SOL    HW2 7698   4.597   3.011   0.709  2.0408  0.6127  0.6775
 1983SOL    HW3 7699   4.572   3.022   0.560 -1.4163 -0.1884  1.1188
 1983SOL    MW4 7700   4.621   2.995   0.627  0.0799  0.0613  0.1660
 1984SOL     OW 7701   1.319   3.307   6.399 -0.2789  0.0959 -0.3169
 1984SOL    HW2 7702   1.357   3.228   6.360  1.1440  0.0187  1.0912
 1984SOL    HW3 7703   1.363   3.314   6.484 -1.4820  1.5808  0.2162
 1984SOL    MW4 7704   1.330   3.297   6.405 -0.2499  0.2816 -0.0608
 1985SOL     OW 7705   4.927   1.406   0.351  0.8970  0.2585 -0.4301
 1985SOL    HW2 7706   4.904   1.316   0.329 -1.3571  1.0452 -1.6045
 1985SOL    HW3 7707   5.000   1.427   0.292  1.6190 -0.8303  0.0303
 1985SOL    MW4 7708   4.934   1.397   0.340  0.6949  0.2187 -0.5243
 1986SOL     OW 7709   1.899   0.221   1.053 -0.5399 -0.3836  0.0153
 1986SOL    HW2 7710   1.894   0.132   1.088 -1.7965 -0.2324  0.2701
 1986SOL    HW3 7711   1.927   0.208   0.962 -1.1569 -1.0853 -0.0896
 1986SOL    MW4 7712   1.902   0.207   1.045 -0.7871 -0.4562  0.0351
 1987SOL     OW 7713   3.075   5.047   3.059  0.0997 -0.1129 -0.0675
 1987SOL    HW2 7714   3.167   5.039   3.035  0.4477 -0.3038  1.2567
 1987SOL    HW3 7715   3.051   4.960   3.092  0.0174  0.4568  1.4453
 1987SOL    MW4 7716   3.084   5.035   3.060  0.1347 -0.0629  0.3068
 1988SOL     OW 7717   2.862   0.030   5.941 -0.5157 -0.6196 -0.2342
 1988SOL    HW2 7718   2.907   0.032   6.025  0.0278 -1.2459 -0.5033
 1988SOL    HW3 7719   2.858   0.122   5.913 -2.4214 -0.1585  1.3587
 1988SOL    MW4 7720   2.867   0.042   5.948 -0.6954 -0.6414 -0.0596
 1989SOL     OW 7721   3.371   3.894   3.247  0.0599 -0.2410  0.0976
 1989SOL    HW2 7722   3.296   3.950   3.225  0.5747  0.7296  0.7069
 1989SOL    HW3 7723   3.439   3.921   3.186 -0.0181 -0.9788 -0.3221
 1989SOL    MW4 7724   3.370   3.905   3.236  0.1175 -0.2103  0.1226
 1990SOL     OW 7725   5.506   2.544   4.204 -0.3092 -0.0256  0.9975
 1990SOL    HW2 7726   5.420   2.556   4.243 -0.3369 -0.5841  1.1258
 1990SOL    HW3 7727   5.567   2.545   4.278 -0.2421  0.0488  0.9412
 1990SOL    MW4 7728   5.503   2.545   4.219 -0.3040 -0.0894  1.0070
 1991SOL     OW 7729   6.008   3.693   0.908  0.2248 -0.4990  0.3737
 1991SOL    HW2 7730   6.017   3.788   0.904  1.3588 -0.4921  2.3573
 1991SOL    HW3 7731   5.964   3.676   0.991  0.1098 -1.7236  0.0839
 1991SOL    MW4 7732   6.003   3.703   0.918  0.3592 -0.6597  0.5972
 1992SOL     OW 7733   5.943   1.742   0.359 -0.2359  0.1086  0.2189
 1992SOL    HW2 7734   5.866   1.776   0.405 -1.3095  1.2181 -2.1972
 1992SOL    HW3 7735   5.954   1.653   0.392 -2.5419 -0.0592  0.7018
 1992SOL    MW4 7736   5.934   1.735   0.369 -0.6818  0.2329 -0.0361
 1993SOL     OW 7737   5.822   3.344   4.766 -0.0680  0.3671 -0.0757
 1993SOL    HW2 7738   5.788   3.378   4.850 -2.4740 -0.8115 -0.4764
 1993SOL    HW3 7739   5.770   3.390   4.700  0.8006  0.2130 -0.8710
 1993SOL    MW4 7740   5.811   3.355   4.769 -0.2708  0.1913 -0.2335
 1994SOL     OW 7741   2.217   3.862   2.010  0.6655 -0.6241 -0.2120
 1994SOL    HW2 7742   2.152   3.852   1.941  0.3728  0.0757 -0.0408
 1994SOL    HW3 7743   2.246   3.772   2.029  0.0202 -0.9054 -0.5439
 1994SOL    MW4 7744   2.212   3.849   2.004  0.5417 -0.5689 -0.2332
 1995SOL     OW 7745   5.278   3.861   5.530  0.3811 -0.0300  0.5170
 1995SOL    HW2 7746   5.335   3.926   5.486 -2.3139  2.0906 -0.1013
 1995SOL    HW3 7747   5.262   3.795   5.462  1.0226  0.0592  0.2665
 1995SOL    MW4 7748   5.284   3.861   5.515  0.1102  0.2616  0.4023
 1996SOL     OW 7749   2.412   0.114   5.436  0.5816  0.1410  0.1395
 1996SOL    HW2 7750   2.432   0.094   5.528  2.4158 -0.5460 -0.3781
 1996SOL    HW3 7751   2.495   0.141   5.398 -0.3068  1.1804 -1.1598
 1996SOL    MW4 7752   2.425   0.115   5.443  0.7064  0.1875 -0.1002
 1997SOL     OW 7753   1.230   5.551   2.225  1.1087 -0.1977  0.2475
 1997SOL    HW2 7754   1.164   5.488   2.252  1.0193  0.2027  1.0154
 1997SOL    HW3 7755   1.219   5.624   2.287 -0.1404  1.4876 -1.8411
 1997SOL    MW4 7756   1.220   5.552   2.237  0.9321  0.0775  0.0732
 1998SOL     OW 7757   5.641   0.865   5.496  0.3279  0.1224  0.2386
 1998SOL    HW2 7758   5.657   0.864   5.591  1.5581  1.5872  0.0668
 1998SOL    HW3 7759   5.607   0.952   5.478  0.0792 -0.1525 -0.6831
 1998SOL    MW4 7760   5.639   0.876   5.506  0.4574  0.2794  0.0943
 1999SOL     OW 7761   0.401   0.540   3.849  0.2913 -0.1417  0.2060
 1999SOL    HW2 7762   0.450   0.608   3.895  0.2587 -0.8555  1.3381
 1999SOL    HW3 7763   0.323   0.584   3.816  0.4567  0.4527  0.5997
 1999SOL    MW4 7764   0.397   0.555   3.851  0.3088 -0.1574  0.4073
 2000SOL     OW 7765   0.101   5.503   1.166  0.2442 -0.2838 -0.7856
 2000SOL    HW2 7766   0.085   5.583   1.115 -0.8899 -0.4355 -0.7060
 2000SOL    HW3 7767   0.025   5.497   1.224  0.5597 -1.1624 -0.4591
 2000SOL    MW4 7768   0.089   5.513   1.167  0.1362 -0.4197 -0.7320
 2001SOL     OW 7769   2.908   2.458   3.186  0.0830  0.0488 -0.1207
 2001SOL    HW2 7770   2.814   2.476   3.180  0.0927  1.0281  1.9263
 2001SOL    HW3 7771   2.913   2.363   3.197 -0.4628 -0.3747 -2.8343
 2001SOL    MW4 7772   2.896   2.448   3.187  0.0123  0.1221 -0.2087
 2002SOL     OW 7773   2.231   6.419   6.267  0.4557  0.2687  0.5140
 2002SOL    HW2 7774   2.282   6.451   6.342  2.7484  0.3699 -0.9792
 2002SOL    HW3 7775   2.170   6.490   6.247 -0.8440 -0.1324  2.7883
 2002SOL    MW4 7776   2.230   6.433   6.274  0.5867  0.2291  0.6171
 2003SOL     OW 7777   4.803   0.145   0.087  0.0728 -0.0994  0.0928
 2003SOL    HW2 7778   4.862   0.219   0.098 -0.3301  0.0891  1.0610
 2003SOL    HW3 7779   4.860   0.068   0.092  0.3394  0.1011  0.1821
 2003SOL    MW4 7780   4.818   0.145   0.089  0.0548 -0.0481  0.2323
 2004SOL     OW 7781   0.372   5.863   2.442 -0.7523 -0.3495 -0.4068
 2004SOL    HW2 7782   0.372   5.936   2.503 -0.5532 -0.7792  0.1091
 2004SOL    HW3 7783   0.280   5.839   2.433 -0.9429  0.6865 -1.4590
 2004SOL    MW4 7784   0.360   5.869   2.449 -0.7512 -0.2695 -0.4776
 2005SOL     OW 7785   2.544   3.045   1.265 -0.0193 -0.4811 -0.1510
 2005SOL    HW2 7786   2.509   3.042   1.354  1.4818 -0.5659  0.4653
 2005SOL    HW3 7787   2.547   2.953   1.238 -1.6117 -0.3694 -0.7742
 2005SOL    MW4 7788   2.540   3.032   1.273 -0.0313 -0.4776 -0.1519
 2006SOL     OW 7789   0.334   1.717   2.478  0.1451  0.0817 -0.3033
 2006SOL    HW2 7790   0.321   1.622   2.486  0.7354 -0.1323 -1.6534
 2006SOL    HW3 7791   0.257   1.747   2.429 -0.3542  0.4200  0.6541
 2006SOL    MW4 7792   0.322   1.708   2.473  0.1571  0.0981 -0.3551
 2007SOL     OW 7793   0.528   4.291   6.097  0.3064 -0.4428  0.1360
 2007SOL    HW2 7794   0.573   4.316   6.178  1.8686 -1.9996 -0.1837
 2007SOL    HW3 7795   0.438   4.320   6.109  1.0348  1.4358  1.4531
 2007SOL    MW4 7796   0.522   4.298   6.109  0.6086 -0.4003  0.2676
 2008SOL     OW 7797   5.718   5.939   5.594 -0.2769  0.0863  0.2221
 2008SOL    HW2 7798   5.720   6.026   5.552 -2.9658  0.4930  0.7623
 2008SOL    HW3 7799   5.683   5.881   5.526 -2.0953  0.2247  0.9854
 2008SOL    MW4 7800   5.713   5.943   5.579 -0.8716  0.1582  0.3941
 2009SOL     OW 7801   3.078   6.070   5.214 -0.0941  0.2622 -0.0781
 2009SOL    HW2 7802   3.109   6.127   5.144 -0.2947  0.3060 -0.1327
 2009SOL    HW3 7803   3.150   6.066   5.276 -0.0852  0.5859 -0.0686
 2009SOL    MW4 7804   3.092   6.077   5.213 -0.1194  0.3107 -0.0840
 2010SOL     OW 7805   2.285   1.933   3.907  0.4082  0.0455 -0.0463
 2010SOL    HW2 7806   2.256   1.857   3.857 -2.1868  1.1106 -0.3199
 2010SOL    HW3 7807   2.266   1.910   3.998  2.0597 -0.5952  0.1723
 2010SOL    MW4 7808   2.279   1.920   3.912  0.2837  0.1015 -0.0536
 2011SOL     OW 7809   4.140   6.311   0.232 -0.1776  0.2651  0.4850
 2011SOL    HW2 7810   4.130   6.398   0.270 -1.1290  0.0349  0.7813
 2011SOL    HW3 7811   4.153   6.328   0.138  0.2334  0.7474  0.6244
 2011SOL    MW4 7812   4.141   6.325   0.225 -0.2489  0.2983  0.5425
 2012SOL     OW 7813   1.450   6.348   2.521 -0.3145 -0.2176  0.4170
 2012SOL    HW2 7814   1.402   6.353   2.604 -2.1207 -0.3133 -0.5621
 2012SOL    HW3 7815   1.413   6.418   2.468  0.4164 -0.5081 -0.4996
 2012SOL    MW4 7816   1.438   6.358   2.525 -0.4564 -0.2686  0.1669
 2013SOL     OW 7817   3.672   2.740   5.146 -0.4549  0.2370  0.3303
 2013SOL    HW2 7818   3.654   2.710   5.235  1.2008  0.7551  0.8797
 2013SOL    HW3 7819   3.594   2.789   5.121 -1.2818 -0.6018  1.1721
 2013SOL    MW4 7820   3.659   2.743   5.155 -0.3455  0.1947  0.5139
 2014SOL     OW 7821   2.134   0.242   2.549 -0.7160 -0.2267  0.2060
 2014SOL    HW2 7822   2.074   0.251   2.475 -1.2476  1.6537  0.8070
 2014SOL    HW3 7823   2.203   0.306   2.532 -1.4199  1.0222  1.8241
 2014SOL    MW4 7824   2.135   0.251   2.537 -0.8790  0.1862  0.4987
 2015SOL     OW 7825   4.592   3.912   3.770  0.4774  0.0835  0.1277
 2015SOL    HW2 7826   4.680   3.900   3.805 -0.1505 -1.5316  1.2685
 2015SOL    HW3 7827   4.569   4.002   3.791  1.3369  0.1022  1.0553
 2015SOL    MW4 7828   4.601   3.922   3.777  0.5080 -0.1271  0.4006
 2016SOL     OW 7829   3.529   2.699   3.809 -0.0226  0.0744 -0.3054
 2016SOL    HW2 7830   3.622   2.680   3.795  0.3011  2.1333 -1.2170
 2016SOL    HW3 7831   3.497   2.726   3.724 -1.4697 -0.5174  0.0279
 2016SOL    MW4 7832   3.537   2.700   3.796 -0.1708  0.2680 -0.3817
 2017SOL     OW 7833   5.115   6.367   4.958  0.1248  0.7017 -0.5093
 2017SOL    HW2 7834   5.161   6.447   4.934 -0.1945  1.0678  0.0690
 2017SOL    HW3 7835   5.022   6.385   4.940  0.0507  0.4677 -0.3759
 2017SOL    MW4 7836   5.109   6.380   4.952  0.0729  0.7191 -0.4154
 2018SOL     OW 7837   0.658   5.882   1.115  0.3376  0.4864 -0.0669
 2018SOL    HW2 7838   0.686   5.974   1.117  0.7018  0.4283 -1.5657
 2018SOL    HW3 7839   0.581   5.882   1.058  0.8474 -0.2465 -0.7860
 2018SOL    MW4 7840   0.651   5.894   1.108  0.4529  0.3820 -0.3595
 2019SOL     OW 7841   5.714   4.547   6.203  0.6258 -0.0152  0.1497
 2019SOL    HW2 7842   5.631   4.520   6.241 -0.1348  0.8214 -0.8663
 2019SOL    HW3 7843   5.733   4.631   6.245  0.1430  0.5640 -0.7668
 2019SOL    MW4 7844   5.706   4.554   6.214  0.4618  0.1716 -0.1052
 2020SOL     OW 7845   4.233   4.102   2.611  0.1261 -0.2139 -0.1690
 2020SOL    HW2 7846   4.322   4.128   2.587 -0.5208  0.3746 -2.1112
 2020SOL    HW3 7847   4.206   4.041   2.542 -0.9225 -0.5220  0.4799
 2020SOL    MW4 7848   4.241   4.097   2.598 -0.0976 -0.1769 -0.3396
 2021SOL     OW 7849   6.306   5.762   0.200  0.0501 -0.2827  0.3669
 2021SOL    HW2 7850   6.238   5.699   0.179  2.0439 -2.1311 -0.9082
 2021SOL    HW3 7851   6.322   5.808   0.118 -1.6214  2.3107  1.3473
 2021SOL    MW4 7852   6.299   5.760   0.186  0.0926 -0.1844  0.3280
 2022SOL     OW 7853   4.918   5.552   5.286 -0.2731 -0.1051  0.2550
 2022SOL    HW2 7854   4.890   5.638   5.317  0.6831  0.8540 -1.3659
 2022SOL    HW3 7855   4.983   5.523   5.349 -0.3797  0.5008  0.6484
 2022SOL    MW4 7856   4.923   5.559   5.298 -0.1610  0.1014  0.0930
 2023SOL     OW 7857   3.776   5.974   1.383 -0.2287 -0.0547 -0.5443
 2023SOL    HW2 7858   3.765   5.880   1.372 -0.2890 -0.2779  1.2252
 2023SOL    HW3 7859   3.729   5.995   1.464 -0.9341  1.6479 -1.3519
 2023SOL    MW4 7860   3.768   5.964   1.392 -0.3297  0.1405 -0.4174
 2024SOL     OW 7861   3.002   5.860   0.158  0.3380 -0.2172  0.2608
 2024SOL    HW2 7862   2.911   5.845   0.132  0.3232  0.7768 -0.3058
 2024SOL    HW3 7863   3.018   5.795   0.227 -0.4973 -1.0376 -0.2856
 2024SOL    MW4 7864   2.992   5.849   0.164  0.2258 -0.1943  0.1139
 2025SOL     OW 7865   4.714   0.258   2.809 -0.0873 -0.2399  0.2061
 2025SOL    HW2 7866   4.685   0.245   2.900 -2.8896  0.6301 -0.4770
 2025SOL    HW3 7867   4.805   0.287   2.818 -0.6670  1.0988  2.8299
 2025SOL    MW4 7868   4.722   0.260   2.822 -0.5335  0.0515  0.4621
 2026SOL     OW 7869   0.330   1.120   5.341 -0.1241 -0.2333  0.4837
 2026SOL    HW2 7870   0.235   1.125   5.344 -0.1430  1.9241 -1.1941
 2026SOL    HW3 7871   0.359   1.207   5.369  1.3325 -0.5130 -0.0616
 2026SOL    MW4 7872   0.321   1.132   5.345  0.0656  0.0144  0.1904
 2027SOL     OW 7873   1.836   4.572   4.251  0.5644 -0.3604 -0.1814
 2027SOL    HW2 7874   1.800   4.629   4.319  2.5719  0.5863  0.1586
 2027SOL    HW3 7875   1.814   4.483   4.281  3.3758 -0.1801  3.1214
 2027SOL    MW4 7876   1.829   4.568   4.264  1.2002 -0.2117  0.2992
 2028SOL     OW 7877   4.166   0.472   6.242  0.1556  0.4137  0.3289
 2028SOL    HW2 7878   4.085   0.452   6.289  1.5561  0.0878  2.7324
 2028SOL    HW3 7879   4.159   0.566   6.222 -1.2125  0.1863 -0.3987
 2028SOL    MW4 7880   4.154   0.482   6.245  0.1599  0.3407  0.5500
 2029SOL     OW 7881   1.134   0.629   0.241  0.6171  0.1582  0.6399
 2029SOL    HW2 7882   1.167   0.563   0.302  0.5754  0.9515  1.5232
 2029SOL    HW3 7883   1.198   0.700   0.246  0.3604  0.4320  0.1057
 2029SOL    MW4 7884   1.147   0.630   0.249  0.5777  0.2990  0.6860
 2030SOL     OW 7885   3.103   1.149   5.243  0.7817  0.0814  0.2005
 2030SOL    HW2 7886   3.128   1.216   5.179  1.8620  0.6461  1.1720
 2030SOL    HW3 7887   3.179   1.142   5.301  0.3098 -1.3157  0.6800
 2030SOL    MW4 7888   3.116   1.157   5.242  0.8620 -0.0284  0.3920
 2031SOL     OW 7889   4.705   4.764   0.624  0.0336 -0.3667  0.2087
 2031SOL    HW2 7890   4.665   4.838   0.578  1.2345  0.6853  0.8290
 2031SOL    HW3 7891   4.733   4.705   0.554  1.0200  0.7856 -0.3979
 2031SOL    MW4 7892   4.703   4.766   0.609  0.3222 -0.0759  0.2105
 2032SOL     OW 7893   4.761   2.648   0.793 -0.2000  0.0856 -0.4084
 2032SOL    HW2 7894   4.808   2.565   0.800 -1.9935 -0.9282  0.4763
 2032SOL    HW3 7895   4.829   2.715   0.799  1.0641 -1.2626  2.0731
 2032SOL    MW4 7896   4.776   2.646   0.795 -0.2698 -0.2261  0.0357
 2033SOL     OW 7897   6.008   2.656   3.119  0.3783  0.0085 -0.0063
 2033SOL    HW2 7898   6.054   2.590   3.067  0.4862  0.0238  0.0680
 2033SOL    HW3 7899   5.915   2.643   3.099  0.3320 -0.7212  0.6456
 2033SOL    MW4 7900   6.002   2.646   3.110  0.3864 -0.0857  0.0895
 2034SOL     OW 7901   4.269   1.518   1.441 -0.1136 -0.0824 -0.0028
 2034SOL    HW2 7902   4.306   1.603   1.416  0.4771 -0.7713 -1.6295
 2034SOL    HW3 7903   4.344   1.467   1.469  0.0728 -1.0831 -2.1312
 2034SOL    MW4 7904   4.284   1.523   1.441 -0.0111 -0.3053 -0.4983
 2035SOL     OW 7905   0.488   3.631   2.424  0.6820  0.0219  0.2372
 2035SOL    HW2 7906   0.560   3.684   2.392  1.2757 -1.2175 -0.5789
 2035SOL    HW3 7907   0.508   3.542   2.393 -1.0442 -0.4040  0.2395
 2035SOL    MW4 7908   0.500   3.626   2.416  0.5326 -0.1979  0.1298
 2036SOL     OW 7909   1.094   3.882   4.161  0.2779  0.0037  0.1685
 2036SOL    HW2 7910   1.082   3.977   4.161  1.4071  0.1927 -1.3231
 2036SOL    HW3 7911   1.139   3.863   4.243 -1.6511  0.4742  1.3823
 2036SOL    MW4 7912   1.099   3.892   4.172  0.1724  0.0907  0.1318
 2037SOL     OW 7913   3.212   5.412   3.353 -0.5594  0.5433 -0.4558
 2037SOL    HW2 7914   3.229   5.421   3.259 -0.4489  0.6720 -0.4243
 2037SOL    HW3 7915   3.148   5.341   3.359 -0.1002  0.1126 -0.5816
 2037SOL    MW4 7916   3.206   5.404   3.341 -0.4842  0.5034 -0.4683
 2038SOL     OW 7917   6.244   2.549   1.603  0.2790 -0.1285 -0.0591
 2038SOL    HW2 7918   6.257   2.530   1.510  0.2545  1.1998 -0.3530
 2038SOL    HW3 7919   6.319   2.604   1.627 -0.1339  0.2014  0.4935
 2038SOL    MW4 7920   6.256   2.554   1.594  0.2213  0.0903 -0.0249
 2039SOL     OW 7921   1.074   2.247   6.348  0.0954 -0.3580 -0.1118
 2039SOL    HW2 7922   1.111   2.161   6.333  0.0388 -0.1991 -1.2106
 2039SOL    HW3 7923   1.102   2.270   6.437  1.9686 -0.5620 -0.6194
 2039SOL    MW4 7924   1.082   2.239   6.358  0.3351 -0.3639 -0.3237
 2040SOL     OW 7925   3.869   2.222   4.777  0.3515  0.4305  0.0567
 2040SOL    HW2 7926   3.930   2.238   4.849 -0.0753  1.1696  0.2589
 2040SOL    HW3 7927   3.818   2.303   4.770  0.4095  0.3788 -1.0980
 2040SOL    MW4 7928   3.870   2.235   4.786  0.3029  0.5212 -0.0690
 2041SOL     OW 7929   4.583   3.721   5.319  0.1939  0.3581 -0.2251
 2041SOL    HW2 7930   4.557   3.772   5.395  0.3732  3.1750 -1.9054
 2041SOL    HW3 7931   4.678   3.714   5.326  0.1187 -0.2257  0.2707
 2041SOL    MW4 7932   4.592   3.727   5.330  0.2077  0.6528 -0.3814
 2042SOL     OW 7933   1.862   1.755   5.265 -0.1180 -0.0734 -0.1362
 2042SOL    HW2 7934   1.821   1.805   5.194  0.8376  0.3824 -0.3798
 2042SOL    HW3 7935   1.949   1.794   5.275 -0.0620 -0.4368  0.9758
 2042SOL    MW4 7936   1.868   1.767   5.257  0.0154 -0.0612 -0.0217
 2043SOL     OW 7937   5.163   5.656   4.961  0.5578  0.4170  0.0175
 2043SOL    HW2 7938   5.218   5.733   4.965  1.8535 -0.2694 -2.5387
 2043SOL    HW3 7939   5.186   5.613   4.879 -2.0542 -1.2457  0.0006
 2043SOL    MW4 7940   5.173   5.660   4.951  0.3842  0.1071 -0.3220
 2044SOL     OW 7941   3.506   2.470   1.292 -0.1940  0.3245 -0.0358
 2044SOL    HW2 7942   3.555   2.391   1.273 -1.9598 -0.5736 -1.0857
 2044SOL    HW3 7943   3.480   2.504   1.207 -0.9024  1.0755  0.4611
 2044SOL    MW4 7944   3.509   2.464   1.278 -0.5205  0.3051 -0.1088
 2045SOL     OW 7945   4.598   3.104   3.514 -0.5742 -0.2073 -0.6224
 2045SOL    HW2 7946   4.606   3.125   3.607 -1.5744  0.2532 -0.6267
 2045SOL    HW3 7947   4.535   3.032   3.511  1.2332 -1.8662 -0.7760
 2045SOL    MW4 7948   4.591   3.097   3.526 -0.4677 -0.3654 -0.6432
 2046SOL     OW 7949   4.295   1.936   3.159 -0.0496 -0.2179  0.4699
 2046SOL    HW2 7950   4.306   1.848   3.122 -1.5784 -0.8591  1.4481
 2046SOL    HW3 7951   4.343   1.933   3.242 -0.6406 -0.3601  0.8142
 2046SOL    MW4 7952   4.303   1.924   3.165 -0.3292 -0.3212  0.6444
 2047SOL     OW 7953   4.764   4.292   3.454  0.3117  0.2195  0.1224
 2047SOL    HW2 7954   4.859   4.284   3.467  0.1393 -1.1420  0.6640
 2047SOL    HW3 7955   4.728   4.211   3.490 -0.9409  0.0924 -1.3162
 2047SOL    MW4 7956   4.772   4.280   3.460  0.1237  0.0231  0.0040
 2048SOL     OW 7957   2.029   5.819   4.745  0.0441  0.3515  0.9503
 2048SOL    HW2 7958   1.952   5.851   4.698  0.7012  0.1054 -0.3403
 2048SOL    HW3 7959   2.056   5.741   4.697  1.0614  0.4039  1.4140
 2048SOL    MW4 7960   2.022   5.813   4.733  0.2650  0.3260  0.8412
 2049SOL     OW 7961   2.117   3.675   5.319 -0.1405  0.7828 -0.4059
 2049SOL    HW2 7962   2.123   3.583   5.346  1.6248  1.6976  2.8591
 2049SOL    HW3 7963   2.034   3.705   5.355  0.8595  1.2384  1.6948
 2049SOL    MW4 7964   2.107   3.667   5.328  0.2243  0.9636  0.3021
 2050SOL     OW 7965   2.740   1.593   1.587 -0.1144  0.5771 -0.4736
 2050SOL    HW2 7966   2.816   1.563   1.637  1.5478  1.3710 -2.3729
 2050SOL    HW3 7967   2.674   1.525   1.601  0.9241 -0.1548  1.2417
 2050SOL    MW4 7968   2.741   1.580   1.595  0.2419  0.5853 -0.4979
 2051SOL     OW 7969   0.122   1.905   0.139 -0.2526 -0.1099  0.2736
 2051SOL    HW2 7970   0.181   1.974   0.170  0.2884 -0.5382  0.2087
 2051SOL    HW3 7971   0.052   1.953   0.094  1.3059  0.3609 -1.8541
 2051SOL    MW4 7972   0.121   1.921   0.137  0.0244 -0.1043 -0.0157
 2052SOL     OW 7973   5.778   5.754   3.702 -0.0468 -0.0020 -0.7222
 2052SOL    HW2 7974   5.822   5.739   3.618  2.3621 -0.3503  0.5222
 2052SOL    HW3 7975   5.801   5.678   3.755  1.0736  1.6160  1.2379
 2052SOL    MW4 7976   5.787   5.742   3.698  0.4189  0.1655 -0.2994
 2053SOL     OW 7977   1.695   0.773   5.066  0.3831  0.6041  0.0453
 2053SOL    HW2 7978   1.618   0.810   5.110  0.4709 -0.7260  1.3798
 2053SOL    HW3 7979   1.742   0.727   5.135  1.2620 -0.4052 -1.1923
 2053SOL    MW4 7980   1.691   0.772   5.081  0.5106  0.2954  0.0581
 2054SOL     OW 7981   6.171   3.429   5.573  0.6100  0.1258 -0.3492
 2054SOL    HW2 7982   6.125   3.504   5.610 -0.1943 -0.6492  0.2784
 2054SOL    HW3 7983   6.262   3.457   5.566  0.9235  0.1872  2.6512
 2054SOL    MW4 7984   6.177   3.443   5.577  0.5452  0.0316  0.1294
 2055SOL     OW 7985   2.061   3.012   0.798 -0.1790  0.1310  0.3429
 2055SOL    HW2 7986   1.988   2.987   0.741  0.3684 -0.7528  0.0090
 2055SOL    HW3 7987   2.121   2.938   0.794  0.2124  0.3603  1.5153
 2055SOL    MW4 7988   2.059   2.999   0.790 -0.0551  0.0447  0.4536
 2056SOL     OW 7989   3.309   4.261   5.695 -0.6050 -0.3766  0.4565
 2056SOL    HW2 7990   3.270   4.339   5.655 -2.4162 -1.4108  0.0874
 2056SOL    HW3 7991   3.365   4.294   5.765  0.2737  1.3379 -0.9901
 2056SOL    MW4 7992   3.311   4.275   5.699 -0.7280 -0.2869  0.2169
 2057SOL     OW 7993   1.864   1.322   1.748  0.2236 -0.2082  0.2041
 2057SOL    HW2 7994   1.773   1.306   1.773  0.5105 -1.2445  0.6536
 2057SOL    HW3 7995   1.903   1.235   1.743  1.3532  0.2573  0.6243
 2057SOL    MW4 7996   1.857   1.309   1.751  0.4105 -0.2835  0.3188
 2058SOL     OW 7997   1.925   5.375   5.467 -0.2425  0.1331  0.2690
 2058SOL    HW2 7998   1.938   5.300   5.525 -0.9176  1.6635  2.5613
 2058SOL    HW3 7999   1.833   5.369   5.441 -0.7145  0.8951  1.6529
 2058SOL    MW4 8000   1.915   5.365   5.471 -0.3938  0.4355  0.7540
 2059SOL     OW 8001   6.218   2.797   5.911  0.0385  0.9644  0.0527
 2059SOL    HW2 8002   6.162   2.854   5.963 -0.4950  0.6623 -0.1834
 2059SOL    HW3 8003   6.307   2.821   5.937 -0.2166  0.5816  1.3676
 2059SOL    MW4 8004   6.222   2.808   5.921 -0.0655  0.8740  0.1950
 2060SOL     OW 8005   3.066   4.592   1.736  0.4193  0.4559  0.5461
 2060SOL    HW2 8006   3.048   4.624   1.647 -1.7640  0.4719  0.9538
 2060SOL    HW3 8007   3.136   4.527   1.723  1.3531  1.6589 -0.9359
 2060SOL    MW4 8008   3.073   4.588   1.722  0.2544  0.6167  0.4044
 2061SOL     OW 8009   2.589   2.388   4.314  0.1232  0.3824 -0.2460
 2061SOL    HW2 8010   2.522   2.423   4.256  1.2217  1.7169 -0.7709
 2061SOL    HW3 8011   2.671   2.428   4.283  1.1457 -1.0341  0.4889
 2061SOL    MW4 8012   2.591   2.398   4.302  0.4030  0.3716 -0.2183
 2062SOL     OW 8013   6.370   5.875   4.500  0.0767 -0.2530  0.3372
 2062SOL    HW2 8014   6.388   5.926   4.422 -0.4496 -0.6189 -0.0321
 2062SOL    HW3 8015   6.455   5.863   4.542  0.2636  0.5615  0.2119
 2062SOL    MW4 8016   6.383   5.880   4.495  0.0319 -0.1938  0.2720
 2063SOL     OW 8017   2.633   3.002   2.208 -0.5988  0.0653  0.3959
 2063SOL    HW2 8018   2.624   2.919   2.256 -1.6186 -0.6127 -0.8714
 2063SOL    HW3 8019   2.561   3.000   2.145  0.6657  0.9131 -1.1434
 2063SOL    MW4 8020   2.622   2.991   2.206 -0.5665  0.0877  0.0256
 2064SOL     OW 8021   3.550   1.334   2.973 -0.2339  0.6601  0.3478
 2064SOL    HW2 8022   3.517   1.336   3.063 -0.7761 -1.0991  0.2314
 2064SOL    HW3 8023   3.557   1.241   2.952  1.0121  1.0224 -1.0423
 2064SOL    MW4 8024   3.547   1.322   2.982 -0.1410  0.4758  0.1490
 2065SOL     OW 8025   4.535   1.354   5.637  0.2532  0.2999  0.1225
 2065SOL    HW2 8026   4.503   1.298   5.566 -1.0820 -0.1623  1.0510
 2065SOL    HW3 8027   4.455   1.385   5.680  1.0478  0.4513  1.5209
 2065SOL    MW4 8028   4.520   1.351   5.633  0.1819  0.2589  0.4295
 2066SOL     OW 8029   0.312   0.188   1.723 -0.4638  0.1177  0.0237
 2066SOL    HW2 8030   0.220   0.210   1.707 -0.7582 -1.6312 -0.9726
 2066SOL    HW3 8031   0.359   0.230   1.650 -0.4536  1.0002  0.5248
 2066SOL    MW4 8032   0.306   0.197   1.711 -0.5013  0.0034 -0.0417
 2067SOL     OW 8033   2.097   5.169   2.901  0.4166  0.6076  0.1627
 2067SOL    HW2 8034   2.104   5.157   2.996 -0.4598  1.4009  0.3388
 2067SOL    HW3 8035   2.155   5.243   2.882  2.5254 -1.0465 -0.3170
 2067SOL    MW4 8036   2.106   5.177   2.911  0.5792  0.4940  0.1226
 2068SOL     OW 8037   2.596   2.035   2.274  0.0698 -0.2903 -0.4278
 2068SOL    HW2 8038   2.519   2.016   2.327 -0.0774  2.4368  0.5013
 2068SOL    HW3 8039   2.670   2.004   2.327 -0.2143  0.3237  0.3463
 2068SOL    MW4 8040   2.596   2.028   2.288  0.0129  0.1505 -0.2031
 2069SOL     OW 8041   4.695   5.135   2.928  0.6770 -0.1856  0.6261
 2069SOL    HW2 8042   4.622   5.196   2.936  1.5511  1.0015 -0.2289
 2069SOL    HW3 8043   4.747   5.168   2.856  2.1558 -0.9192  1.3118
 2069SOL    MW4 8044   4.692   5.147   2.920  0.9874 -0.1257  0.6038
 2070SOL     OW 8045   2.212   1.501   2.050 -0.2887  0.3016 -0.2332
 2070SOL    HW2 8046   2.121   1.523   2.030 -0.0206  0.9053 -0.8007
 2070SOL    HW3 8047   2.247   1.579   2.094  0.5391  0.8999 -1.8657
 2070SOL    MW4 8048   2.205   1.514   2.053 -0.1441  0.4602 -0.5234
 2071SOL     OW 8049   6.243   0.806   5.844  0.2301 -0.1789  0.5171
 2071SOL    HW2 8050   6.234   0.711   5.856 -0.6547 -0.0523  0.9620
 2071SOL    HW3 8051   6.167   0.843   5.890  1.4533  0.8562  1.7750
 2071SOL    MW4 8052   6.231   0.798   5.852  0.2747 -0.0256  0.7418
 2072SOL     OW 8053   2.213   0.678   4.385  0.8573 -0.5464 -0.0283
 2072SOL    HW2 8054   2.132   0.638   4.415  0.3347 -0.0071 -0.6742
 2072SOL    HW3 8055   2.276   0.606   4.382 -0.0070 -1.3031 -0.9661
 2072SOL    MW4 8056   2.211   0.663   4.388  0.6743 -0.5751 -0.2373
 2073SOL     OW 8057   2.915   1.843   6.201 -0.7166  0.5304  0.4810
 2073SOL    HW2 8058   2.893   1.900   6.275 -0.9914 -0.6250  1.3006
 2073SOL    HW3 8059   2.996   1.800   6.227  0.3211  1.6071 -0.7627
 2073SOL    MW4 8060   2.923   1.845   6.214 -0.6160  0.5200  0.4250
 2074SOL     OW 8061   6.334   4.454   3.872 -0.3773  0.7120  0.7239
 2074SOL    HW2 8062   6.257   4.508   3.854 -0.8833 -0.1304  0.3154
 2074SOL    HW3 8063   6.372   4.492   3.952 -0.2501  2.1665  0.0161
 2074SOL    MW4 8064   6.329   4.466   3.880 -0.4273  0.7927  0.5766
 2075SOL     OW 8065   4.415   0.836   3.115  0.4826 -0.1140 -0.2459
 2075SOL    HW2 8066   4.380   0.888   3.188  0.4992 -1.0352  0.4358
 2075SOL    HW3 8067   4.341   0.824   3.056  1.0408  2.8105 -1.7371
 2075SOL    MW4 8068   4.401   0.841   3.117  0.5584  0.1503 -0.3527
 2076SOL     OW 8069   1.690   6.252   2.412 -0.6247  0.0617  0.2728
 2076SOL    HW2 8070   1.602   6.253   2.450 -1.2588  1.3033 -1.1069
 2076SOL    HW3 8071   1.711   6.159   2.401 -2.4481 -0.2871 -0.8098
 2076SOL    MW4 8072   1.681   6.240   2.415 -0.9489  0.1795 -0.0521
 2077SOL     OW 8073   2.739   3.229   0.950 -0.3599 -0.3360  0.2171
 2077SOL    HW2 8074   2.669   3.170   0.923  1.0024 -2.0996  0.3976
 2077SOL    HW3 8075   2.725   3.240   1.044  0.0610 -1.3268  0.4009
 2077SOL    MW4 8076   2.728   3.223   0.959 -0.1246 -0.6994  0.2651
 2078SOL     OW 8077   0.034   4.412   1.282  0.7723 -0.3135 -0.4186
 2078SOL    HW2 8078   0.109   4.397   1.340  0.0037 -1.0765  0.4077
 2078SOL    HW3 8079   0.067   4.472   1.215  1.7620  0.3938  0.6648
 2078SOL    MW4 8080   0.048   4.418   1.281  0.8015 -0.3208 -0.1667
 2079SOL     OW 8081   5.957   5.740   1.488  0.4386 -0.5510  0.0438
 2079SOL    HW2 8082   5.940   5.703   1.574  0.7887  0.0856  0.3907
 2079SOL    HW3 8083   5.903   5.818   1.484  1.1669 -0.0292  0.0860
 2079SOL    MW4 8084   5.948   5.745   1.499  0.5809 -0.3981  0.0951
 2080SOL     OW 8085   1.832   2.905   1.189 -0.2389  0.1032 -0.2734
 2080SOL    HW2 8086   1.832   2.854   1.108 -1.3604  1.0856 -0.9202
 2080SOL    HW3 8087   1.920   2.945   1.192  0.1983 -0.8299 -0.4111
 2080SOL    MW4 8088   1.844   2.904   1.179 -0.3292  0.1097 -0.3769
 2081SOL     OW 8089   0.076   2.012   3.112  0.1085  0.1508  0.0369
 2081SOL    HW2 8090   0.106   1.967   3.033 -0.9275 -0.5672  0.0285
 2081SOL    HW3 8091   0.055   2.101   3.083  3.3043  1.1224  0.2792
 2081SOL    MW4 8092   0.077   2.018   3.098  0.3934  0.1843  0.0677
 2082SOL     OW 8093   0.347   5.945   4.964 -0.1008  0.4493 -0.0836
 2082SOL    HW2 8094   0.297   6.025   4.946 -0.3463  0.2354 -0.3548
 2082SOL    HW3 8095   0.382   5.919   4.879  1.4264  1.2244  0.2764
 2082SOL    MW4 8096   0.345   5.952   4.951  0.0683  0.5233 -0.0719
 2083SOL     OW 8097   2.661   4.344   4.077 -0.1229 -0.0851 -0.7802
 2083SOL    HW2 8098   2.631   4.382   3.995  1.0164 -1.2215 -1.7769
 2083SOL    HW3 8099   2.755   4.329   4.064  0.0926 -0.2759  0.7414
 2083SOL    MW4 8100   2.669   4.347   4.065  0.0559 -0.2602 -0.7110
 2084SOL     OW 8101   4.390   3.189   2.055  0.1581  0.0066 -0.7427
 2084SOL    HW2 8102   4.416   3.252   2.123 -0.7649  0.0253 -0.3915
 2084SOL    HW3 8103   4.297   3.206   2.042 -0.3080 -1.8186 -0.0627
 2084SOL    MW4 8104   4.382   3.199   2.062 -0.0251 -0.2317 -0.6067
 2085SOL     OW 8105   0.656   6.149   4.636 -0.3839 -0.2106 -0.1165
 2085SOL    HW2 8106   0.712   6.072   4.650 -0.2925 -0.6789 -2.6236
 2085SOL    HW3 8107   0.651   6.190   4.722  1.4366 -1.7551  0.8173
 2085SOL    MW4 8108   0.663   6.144   4.650 -0.1317 -0.4761 -0.3241
 2086SOL     OW 8109   2.190   4.105   0.464 -0.0667 -0.2731 -0.1201
 2086SOL    HW2 8110   2.141   4.060   0.532 -0.0798 -2.0323 -1.2472
 2086SOL    HW3 8111   2.179   4.051   0.385  0.3268  1.4401 -1.4233
 2086SOL    MW4 8112   2.182   4.092   0.462 -0.0165 -0.2792 -0.4407
 2087SOL     OW 8113   3.408   3.903   2.113  0.1104 -0.1064 -0.1851
 2087SOL    HW2 8114   3.491   3.949   2.121  0.5501 -1.1907  2.1205
 2087SOL    HW3 8115   3.342   3.967   2.138  0.5978 -0.2924  1.6603
 2087SOL    MW4 8116   3.410   3.917   2.117  0.2327 -0.2740  0.3626
 2088SOL     OW 8117   5.835   2.184   2.241  0.2124  0.5690  0.5807
 2088SOL    HW2 8118   5.855   2.211   2.331  0.3577  0.5997  0.5404
 2088SOL    HW3 8119   5.876   2.098   2.233  0.7001  0.8146  0.3640
 2088SOL    MW4 8120   5.843   2.176   2.252  0.2959  0.6054  0.5468
 2089SOL     OW 8121   6.379   5.265   1.910  0.5510  0.2221  0.1126
 2089SOL    HW2 8122   6.339   5.188   1.869 -2.8785  0.8586  1.8781
 2089SOL    HW3 8123   6.406   5.235   1.997  3.4408  0.0133 -0.7665
 2089SOL    MW4 8124   6.377   5.251   1.916  0.4798  0.2785  0.2295
 2090SOL     OW 8125   2.716   1.372   2.371 -0.4087 -0.1458 -0.3901
 2090SOL    HW2 8126   2.784   1.306   2.388  0.6881  0.7732 -1.0764
 2090SOL    HW3 8127   2.661   1.333   2.304  0.5262 -0.1809 -1.1574
 2090SOL    MW4 8128   2.718   1.358   2.365 -0.1407 -0.0292 -0.5819
 2091SOL     OW 8129   6.022   6.408   2.312 -0.2244  0.5815 -0.1868
 2091SOL    HW2 8130   6.057   6.478   2.367  2.1117 -0.3921 -0.3045
 2091SOL    HW3 8131   6.029   6.329   2.366  2.3383 -0.4412 -1.8127
 2091SOL    MW4 8132   6.028   6.406   2.326  0.4219  0.3181 -0.4168
 2092SOL     OW 8133   2.246   4.787   6.232 -0.5590 -0.1933 -0.6689
 2092SOL    HW2 8134   2.171   4.732   6.252 -0.6821  1.0263  3.0540
 2092SOL    HW3 8135   2.314   4.727   6.205 -1.8631 -1.6959 -0.7430
 2092SOL    MW4 8136   2.245   4.772   6.231 -0.7473 -0.2307 -0.1875
 2093SOL     OW 8137   3.246   0.165   2.781 -0.0608 -0.5662  0.1099
 2093SOL    HW2 8138   3.275   0.174   2.872  0.2268  0.7544 -0.1003
 2093SOL    HW3 8139   3.268   0.075   2.758 -0.1879 -0.9421  1.3588
 2093SOL    MW4 8140   3.253   0.154   2.790 -0.0396 -0.4416  0.2469
 2094SOL     OW 8141   0.614   3.259   4.380  0.1349 -0.1338 -0.0614
 2094SOL    HW2 8142   0.582   3.343   4.414 -2.4055 -1.2196  0.4659
 2094SOL    HW3 8143   0.539   3.222   4.333  1.3305 -1.9038 -0.6698
 2094SOL    MW4 8144   0.600   3.265   4.379 -0.0425 -0.5106 -0.0721
 2095SOL     OW 8145   3.979   4.299   5.595  0.0339  0.2612  0.6001
 2095SOL    HW2 8146   3.915   4.256   5.539  0.2202 -0.2342  0.7560
 2095SOL    HW3 8147   4.048   4.233   5.607  0.5246  0.7506  0.5069
 2095SOL    MW4 8148   3.980   4.284   5.589  0.1232  0.2604  0.6083
 2096SOL     OW 8149   0.895   6.203   1.567 -0.3644 -0.1209 -0.6728
 2096SOL    HW2 8150   0.805   6.171   1.559 -0.3244 -0.2048 -0.7856
 2096SOL    HW3 8151   0.886   6.294   1.595 -0.4717 -0.5949  0.9351
 2096SOL    MW4 8152   0.882   6.210   1.570 -0.3733 -0.1945 -0.4756
 2097SOL     OW 8153   0.409   0.219   4.987 -0.0610 -0.5425  0.0838
 2097SOL    HW2 8154   0.368   0.227   5.073 -0.0394  0.3426  0.0296
 2097SOL    HW3 8155   0.502   0.212   5.005 -0.1940 -2.2876  0.1970
 2097SOL    MW4 8156   0.416   0.219   5.001 -0.0757 -0.6559  0.0916
 2098SOL     OW 8157   4.804   0.283   4.367  0.4363  0.4099  0.0472
 2098SOL    HW2 8158   4.728   0.338   4.387  0.5822  0.8842 -0.6874
 2098SOL    HW3 8159   4.880   0.339   4.381  0.6056  0.2563 -0.2386
 2098SOL    MW4 8160   4.804   0.298   4.371  0.4779  0.4522 -0.0874
 2099SOL     OW 8161   5.748   1.208   2.341  0.2866 -0.2756  0.1489
 2099SOL    HW2 8162   5.826   1.223   2.287  0.5067  2.0280  1.0121
 2099SOL    HW3 8163   5.782   1.195   2.430 -0.2439 -0.6998  0.2959
 2099SOL    MW4 8164   5.763   1.208   2.346  0.2457 -0.0276  0.2821
 2100SOL     OW 8165   5.307   2.195   2.946  0.2233 -0.3035  0.4312
 2100SOL    HW2 8166   5.321   2.131   2.876 -1.3629 -1.2487  0.9563
 2100SOL    HW3 8167   5.213   2.213   2.945  0.2756  0.2037  1.8729
 2100SOL    MW4 8168   5.297   2.189   2.936  0.0209 -0.3613  0.6907
 2101SOL     OW 8169   1.489   0.372   1.909 -0.3798  0.1455  0.0636
 2101SOL    HW2 8170   1.565   0.428   1.923 -0.0083 -0.7596  1.9202
 2101SOL    HW3 8171   1.439   0.378   1.990 -0.8864 -1.3707 -0.1003
 2101SOL    MW4 8172   1.492   0.380   1.921 -0.3976 -0.1739  0.2869
 2102SOL     OW 8173   0.951   1.741   2.381 -0.9028 -1.0867 -0.3718
 2102SOL    HW2 8174   1.040   1.714   2.403 -0.0811 -0.9651 -3.1812
 2102SOL    HW3 8175   0.947   1.834   2.403 -1.3883 -1.6920  2.5273
 2102SOL    MW4 8176   0.962   1.749   2.387 -0.8585 -1.1505 -0.3600
 2103SOL     OW 8177   4.517   4.637   1.252  0.0315 -0.6951  0.2229
 2103SOL    HW2 8178   4.508   4.724   1.292 -0.3071 -0.2820 -0.7084
 2103SOL    HW3 8179   4.427   4.609   1.235  0.1644 -0.8295 -0.2867
 2103SOL    MW4 8180   4.504   4.645   1.255  0.0043 -0.6583  0.0328
 2104SOL     OW 8181   4.219   3.055   3.779  0.0076 -0.2246 -0.0268
 2104SOL    HW2 8182   4.205   2.961   3.784  0.3460 -0.3060 -0.5359
 2104SOL    HW3 8183   4.171   3.082   3.700  0.7965 -0.1514 -0.4973
 2104SOL    MW4 8184   4.210   3.046   3.769  0.1563 -0.2257 -0.1560
 2105SOL     OW 8185   0.667   0.200   1.160  0.0529  0.4629 -0.2338
 2105SOL    HW2 8186   0.693   0.268   1.097  1.4290 -2.4012 -3.0289
 2105SOL    HW3 8187   0.728   0.211   1.233  1.3368  1.2264 -1.3629
 2105SOL    MW4 8188   0.679   0.211   1.161  0.4038  0.1857 -0.7516
 2106SOL     OW 8189   3.235   1.897   4.402 -0.1766 -0.0674  0.0920
 2106SOL    HW2 8190   3.271   1.838   4.336 -0.6799  1.2319 -1.4139
 2106SOL    HW3 8191   3.310   1.924   4.454  0.2335 -1.1178  0.0696
 2106SOL    MW4 8192   3.250   1.893   4.400 -0.1889 -0.0345 -0.1097
 2107SOL     OW 8193   4.037   5.461   3.172  0.2764  0.6381  0.4652
 2107SOL    HW2 8194   3.972   5.531   3.168 -0.3866  0.0282  0.2856
 2107SOL    HW3 8195   4.037   5.424   3.084 -1.4404 -1.3942  1.2407
 2107SOL    MW4 8196   4.029   5.465   3.160 -0.0376  0.2895  0.5438
 2108SOL     OW 8197   0.424   6.084   0.244 -0.1102 -0.1303  0.0184
 2108SOL    HW2 8198   0.490   6.019   0.270 -0.2975 -1.1657 -1.9465
 2108SOL    HW3 8199   0.474   6.149   0.194 -0.1119  0.7016  1.0598
 2108SOL    MW4 8200   0.440   6.084   0.241 -0.1351 -0.1572 -0.1034
 2109SOL     OW 8201   1.235   5.998   3.051 -0.3079  0.5816  0.5047
 2109SOL    HW2 8202   1.292   5.938   3.099 -2.2722 -0.0439  2.2451
 2109SOL    HW3 8203   1.268   5.998   2.962  1.3885 -0.9809  1.0881
 2109SOL    MW4 8204   1.247   5.990   3.046 -0.3432  0.2930  0.8113
 2110SOL     OW 8205   5.686   0.533   4.753 -0.3886 -0.1618  0.0793
 2110SOL    HW2 8206   5.708   0.470   4.684 -1.6792 -1.1155  0.5073
 2110SOL    HW3 8207   5.766   0.540   4.806 -0.1599 -1.2804 -0.0982
 2110SOL    MW4 8208   5.700   0.526   4.751 -0.5287 -0.4352  0.1123
 2111SOL     OW 8209   3.313   5.924   3.055 -0.3397 -0.4090  0.2704
 2111SOL    HW2 8210   3.300   5.840   3.011 -1.6103 -0.2916  0.3796
 2111SOL    HW3 8211   3.262   5.916   3.136 -1.4821  0.8946 -0.2812
 2111SOL    MW4 8212   3.304   5.911   3.060 -0.6580 -0.2215  0.2120
 2112SOL     OW 8213   5.566   5.700   2.413 -0.1790  0.0384 -0.0481
 2112SOL    HW2 8214   5.484   5.652   2.424 -0.4062  0.2192 -0.9142
 2112SOL    HW3 8215   5.628   5.635   2.380 -0.1419  0.0496 -0.0015
 2112SOL    MW4 8216   5.563   5.685   2.410 -0.2041  0.0637 -0.1562
 2113SOL     OW 8217   0.284   0.018   3.355  0.4573  0.0263  0.2796
 2113SOL    HW2 8218   0.238   0.096   3.385 -0.4896 -0.8124  1.0866
 2113SOL    HW3 8219   0.226  -0.020   3.289  1.0510  0.1484 -0.3251
 2113SOL    MW4 8220   0.270   0.023   3.350  0.4107 -0.0683  0.3063
 2114SOL     OW 8221   6.037   1.895   3.736 -0.0985 -0.1529 -0.4198
 2114SOL    HW2 8222   5.989   1.919   3.656  0.0660  0.9088 -0.2184
 2114SOL    HW3 8223   6.129   1.902   3.711 -0.0243 -1.7349 -0.6737
 2114SOL    MW4 8224   6.043   1.899   3.722 -0.0670 -0.2215 -0.4267
 2115SOL     OW 8225   6.061   5.975   5.394 -0.2919  0.1964  0.2211
 2115SOL    HW2 8226   6.011   6.022   5.460  0.4585  0.6268  0.4866
 2115SOL    HW3 8227   6.001   5.969   5.319 -0.6316  0.9780  0.4221
 2115SOL    MW4 8228   6.046   5.981   5.393 -0.2377  0.3563  0.2827
 2116SOL     OW 8229   5.707   4.566   1.760 -0.1696  0.0385  0.2741
 2116SOL    HW2 8230   5.779   4.515   1.796  0.7588  1.0502 -0.0909
 2116SOL    HW3 8231   5.731   4.579   1.668  0.1798  2.0191  0.5886
 2116SOL    MW4 8232   5.719   4.561   1.752 -0.0010  0.4333  0.2674
 2117SOL     OW 8233   2.282   1.738   2.180 -0.1066  0.5125  0.3545
 2117SOL    HW2 8234   2.204   1.793   2.176  0.3720  1.1486 -0.3922
 2117SOL    HW3 8235   2.347   1.785   2.129  0.1967 -0.9316 -0.6434
 2117SOL    MW4 8236   2.280   1.751   2.173 -0.0035  0.4059  0.1243
 2118SOL     OW 8237   2.610   2.835   0.486  0.7814  0.3329 -0.4360
 2118SOL    HW2 8238   2.539   2.773   0.504  2.6388 -1.7944  0.0922
 2118SOL    HW3 8239   2.569   2.921   0.494 -1.3422 -0.7295  1.6761
 2118SOL    MW4 8240   2.595   2.838   0.490  0.7463 -0.0879 -0.0877
 2119SOL     OW 8241   0.607   5.170   1.145  0.0575 -0.2588 -0.2387
 2119SOL    HW2 8242   0.531   5.130   1.188 -0.7042 -0.1844 -1.4679
 2119SOL    HW3 8243   0.600   5.143   1.054  0.9258  0.6267 -0.5841
 2119SOL    MW4 8244   0.596   5.162   1.139  0.0716 -0.1322 -0.4464
 2120SOL     OW 8245   0.872   0.497   5.779 -0.0865  0.8020  0.1075
 2120SOL    HW2 8246   0.886   0.488   5.873  0.9424  4.1159  0.4154
 2120SOL    HW3 8247   0.844   0.411   5.750  1.8669 -0.9784  3.0212
 2120SOL    MW4 8248   0.870   0.485   5.787  0.3069  1.0043  0.5326
 2121SOL     OW 8249   5.103   3.108   0.516 -0.7762 -0.1403  0.1676
 2121SOL    HW2 8250   5.015   3.105   0.553 -0.3151  0.1236  1.3329
 2121SOL    HW3 8251   5.120   3.201   0.503 -1.0835 -0.2482 -1.1310
 2121SOL    MW4 8252   5.093   3.120   0.519 -0.7559 -0.1198  0.1500
 2122SOL     OW 8253   2.094   2.495   2.539 -0.2666  0.0389  0.3085
 2122SOL    HW2 8254   2.035   2.488   2.464 -1.6120  0.3115  1.3135
 2122SOL    HW3 8255   2.181   2.500   2.500 -0.8499 -0.8505 -1.1981
 2122SOL    MW4 8256   2.098   2.494   2.524 -0.5211 -0.0425  0.2423
 2123SOL     OW 8257   3.078   4.568   2.692 -1.0685 -0.6607  0.2991
 2123SOL    HW2 8258   3.161   4.522   2.707 -1.6051 -2.2361 -1.2960
 2123SOL    HW3 8259   3.096   4.658   2.721  0.6929 -1.3124  1.4633
 2123SOL    MW4 8260   3.091   4.574   2.698 -0.9069 -0.9545  0.2422
 2124SOL     OW 8261   0.880   0.390   0.288  0.4267 -0.0436 -0.4605
 2124SOL    HW2 8262   0.928   0.448   0.347 -1.1972  2.0931 -1.1218
 2124SOL    HW3 8263   0.788   0.403   0.310 -0.0728 -1.1238 -1.7459
 2124SOL    MW4 8264   0.874   0.400   0.298  0.1465  0.0958 -0.7174
 2125SOL     OW 8265   5.080   4.378   5.614 -0.1752  0.0734 -0.3686
 2125SOL    HW2 8266   5.080   4.388   5.519  0.6739  0.5492 -0.3324
 2125SOL    HW3 8267   5.073   4.467   5.647  3.6738  0.4376 -0.0255
 2125SOL    MW4 8268   5.079   4.391   5.606  0.4447  0.1842 -0.3186
 2126SOL     OW 8269   2.364   4.088   6.235 -0.0907  0.2615 -0.2184
 2126SOL    HW2 8270   2.319   4.090   6.151 -0.1876 -0.1552 -0.1800
 2126SOL    HW3 8271   2.447   4.044   6.217 -0.3255 -0.2810 -0.0006
 2126SOL    MW4 8272   2.369   4.082   6.222 -0.1344  0.1350 -0.1846
 2127SOL     OW 8273   5.764   0.042   2.205 -0.5495 -0.3270 -0.1594
 2127SOL    HW2 8274   5.848   0.006   2.234 -1.1586 -0.7178  1.2143
 2127SOL    HW3 8275   5.755   0.124   2.254 -0.8877 -0.1898 -0.4450
 2127SOL    MW4 8276   5.774   0.048   2.215 -0.6745 -0.3604 -0.0159
 2128SOL     OW 8277   5.789   4.872   1.484 -0.1151 -0.1398  0.6701
 2128SOL    HW2 8278   5.815   4.895   1.395  0.7105 -0.8943  0.7067
 2128SOL    HW3 8279   5.695   4.888   1.486  0.2652  2.7177  0.5467
 2128SOL    MW4 8280   5.780   4.877   1.473  0.0440  0.1377  0.6586
 2129SOL     OW 8281   2.956   4.287   3.404  0.1350  0.2016 -0.5331
 2129SOL    HW2 8282   3.046   4.262   3.423  0.0224 -1.9481 -2.3482
 2129SOL    HW3 8283   2.904   4.210   3.428 -0.9662  0.6505 -1.3738
 2129SOL    MW4 8284   2.961   4.273   3.410 -0.0251 -0.0228 -0.8835
 2130SOL     OW 8285   1.923   0.711   2.277 -0.5353  0.5390 -0.1804
 2130SOL    HW2 8286   1.934   0.793   2.326 -1.5734  0.5797  0.0007
 2130SOL    HW3 8287   2.007   0.699   2.232 -0.0698  1.2495  0.4678
 2130SOL    MW4 8288   1.936   0.721   2.277 -0.6109  0.6381 -0.0710
 2131SOL     OW 8289   2.768   2.650   1.290  0.2038  0.0462 -0.0203
 2131SOL    HW2 8290   2.685   2.687   1.259  0.6520  0.9544 -0.1635
 2131SOL    HW3 8291   2.835   2.710   1.256  0.8516 -0.1220  0.9349
 2131SOL    MW4 8292   2.766   2.663   1.281  0.3484  0.1438  0.0868
 2132SOL     OW 8293   5.954   4.541   4.979  0.1627  0.0863  0.2330
 2132SOL    HW2 8294   6.022   4.604   5.001 -1.0614  1.0412  1.4032
 2132SOL    HW3 8295   5.972   4.518   4.887  0.9646  1.7175 -0.0555
 2132SOL    MW4 8296   5.966   4.546   4.969  0.1070  0.4275  0.3493
 2133SOL     OW 8297   0.179   2.115   6.159 -0.5563 -0.0433 -0.2127
 2133SOL    HW2 8298   0.151   2.026   6.179 -1.4961 -0.1340 -1.8038
 2133SOL    HW3 8299   0.274   2.114   6.169 -0.2453 -1.9052 -2.5835
 2133SOL    MW4 8300   0.188   2.103   6.163 -0.6392 -0.3010 -0.7354
 2134SOL     OW 8301   4.547   3.002   2.923  0.1132  0.2410  0.1108
 2134SOL    HW2 8302   4.515   2.977   2.836 -0.2452  3.1852 -0.7116
 2134SOL    HW3 8303   4.638   3.029   2.908  0.4534 -0.4133  0.9139
 2134SOL    MW4 8304   4.555   3.002   2.909  0.1108  0.5431  0.1083
 2135SOL     OW 8305   1.974   5.495   3.144  0.8127  0.2564 -0.5407
 2135SOL    HW2 8306   2.017   5.551   3.209  1.6021 -1.4242  0.4420
 2135SOL    HW3 8307   1.995   5.406   3.171 -0.4978 -0.5458 -1.9980
 2135SOL    MW4 8308   1.982   5.490   3.156  0.7440 -0.0712 -0.6033
 2136SOL     OW 8309   3.946   5.263   4.663  0.1834 -0.4057 -0.4514
 2136SOL    HW2 8310   3.867   5.230   4.621 -0.6792  0.1702  0.6484
 2136SOL    HW3 8311   3.937   5.236   4.755 -0.1660  2.0958  0.3283
 2136SOL    MW4 8312   3.934   5.255   4.670  0.0235  0.0004 -0.2034
 2137SOL     OW 8313   3.661   4.415   1.354  0.4426 -0.0827 -0.4286
 2137SOL    HW2 8314   3.606   4.353   1.403 -0.0195  1.7240  1.4839
 2137SOL    HW3 8315   3.655   4.385   1.264 -2.7868 -0.6967 -0.1579
 2137SOL    MW4 8316   3.653   4.403   1.349 -0.0445  0.0746 -0.1406
 2138SOL     OW 8317   6.359   5.052   3.807 -0.0011 -0.2032 -0.2500
 2138SOL    HW2 8318   6.362   4.962   3.776 -0.6611 -0.5662  0.7076
 2138SOL    HW3 8319   6.356   5.045   3.903  4.2770  0.9043  0.1918
 2138SOL    MW4 8320   6.359   5.039   3.816  0.4763 -0.1049 -0.0653
 2139SOL     OW 8321   0.199   5.501   2.310  0.8841  0.1060  0.6134
 2139SOL    HW2 8322   0.109   5.476   2.329  0.6795  0.0235 -0.3845
 2139SOL    HW3 8323   0.248   5.479   2.389  0.0869 -0.1460  1.0437
 2139SOL    MW4 8324   0.193   5.495   2.323  0.7519  0.0618  0.5385
 2140SOL     OW 8325   0.828   0.474   6.313  0.3255  0.1388  0.2725
 2140SOL    HW2 8326   0.818   0.544   6.377 -1.6416 -0.3780  0.5817
 2140SOL    HW3 8327   0.873   0.404   6.360  0.2646  0.3409  0.6300
 2140SOL    MW4 8328   0.833   0.474   6.327  0.0579  0.0973  0.3605
 2141SOL     OW 8329   3.802   3.192   2.966  0.3905 -0.0378 -0.4002
 2141SOL    HW2 8330   3.847   3.277   2.965  0.7182 -0.0569  2.9196
 2141SOL    HW3 8331   3.738   3.199   2.895  1.7108  2.2008 -1.4982
 2141SOL    MW4 8332   3.799   3.204   2.956  0.6079  0.2551 -0.1070
 2142SOL     OW 8333   5.237   0.938   2.453  0.2809 -0.1891 -0.0809
 2142SOL    HW2 8334   5.257   0.856   2.498  0.1217 -0.7983 -1.0640
 2142SOL    HW3 8335   5.271   0.925   2.364 -1.2174  0.1511 -0.7367
 2142SOL    MW4 8336   5.244   0.925   2.447  0.0622 -0.2246 -0.2971
 2143SOL     OW 8337   1.058   3.324   3.912  0.7188 -0.2994 -0.1874
 2143SOL    HW2 8338   1.057   3.420   3.912  1.5923 -0.2763 -0.0263
 2143SOL    HW3 8339   1.124   3.302   3.845 -0.6089 -0.8228 -1.3691
 2143SOL    MW4 8340   1.067   3.334   3.903  0.6589 -0.3654 -0.3220
 2144SOL     OW 8341   4.357   2.799   2.309  0.0630  0.7187  0.9361
 2144SOL    HW2 8342   4.450   2.790   2.329  0.2825 -2.2276 -0.7580
 2144SOL    HW3 8343   4.354   2.844   2.225  0.0712 -0.2770  0.3885
 2144SOL    MW4 8344   4.368   2.803   2.301  0.0931  0.1986  0.6403
 2145SOL     OW 8345   1.048   2.554   1.830  0.3925 -0.0536  0.2041
 2145SOL    HW2 8346   1.100   2.522   1.757 -2.8914 -1.8349 -1.5845
 2145SOL    HW3 8347   0.989   2.482   1.852 -2.4182  2.2310  0.9187
 2145SOL    MW4 8348   1.047   2.540   1.824 -0.4116  0.0128  0.0624
 2146SOL     OW 8349   1.061   5.361   4.275 -0.4563 -0.1744 -0.4083
 2146SOL    HW2 8350   1.053   5.433   4.212 -0.0103  0.1259 -0.1288
 2146SOL    HW3 8351   0.994   5.380   4.341 -1.0637 -0.6021 -0.8959
 2146SOL    MW4 8352   1.051   5.373   4.275 -0.4776 -0.1912 -0.4357
 2147SOL     OW 8353   0.160   6.253   4.290  0.2316  0.0709 -0.1465
 2147SOL    HW2 8354   0.152   6.281   4.381  2.9551 -1.5688  0.7313
 2147SOL    HW3 8355   0.104   6.176   4.283  2.8430 -2.1375  1.3899
 2147SOL    MW4 8356   0.152   6.247   4.301  0.9355 -0.4368  0.1720
 2148SOL     OW 8357   0.664   0.914   5.011 -0.2778  0.2458  0.5186
 2148SOL    HW2 8358   0.670   0.873   5.098 -1.0992  1.6704  1.2758
 2148SOL    HW3 8359   0.578   0.956   5.011  0.5568  1.9996 -0.2016
 2148SOL    MW4 8360   0.653   0.914   5.023 -0.2761  0.6652  0.5235
 2149SOL     OW 8361   1.572   5.654   2.451  0.1241  0.7306  0.6603
 2149SOL    HW2 8362   1.550   5.609   2.369  1.5348 -0.0084  0.6772
 2149SOL    HW3 8363   1.656   5.695   2.434  1.0354 -0.4426  2.1176
 2149SOL    MW4 8364   1.580   5.654   2.438  0.4304  0.4783  0.8548
 2150SOL     OW 8365   1.163   5.573   1.223 -0.3870 -0.7805 -0.2733
 2150SOL    HW2 8366   1.106   5.536   1.155 -1.6120  0.3937  0.0705
 2150SOL    HW3 8367   1.116   5.650   1.254 -0.4454 -1.8845  2.7310
 2150SOL    MW4 8368   1.149   5.578   1.218 -0.5563 -0.7712  0.1684
 2151SOL     OW 8369   3.357   3.691   6.412  0.5182 -0.0259  0.1389
 2151SOL    HW2 8370   3.342   3.617   6.471  1.0687  0.1366  0.4859
 2151SOL    HW3 8371   3.302   3.672   6.336 -0.1172 -0.2815  0.6617
 2151SOL    MW4 8372   3.348   3.678   6.409  0.5070 -0.0382  0.2537
 2152SOL     OW 8373   3.269   1.904   5.946  0.2476 -0.2304  0.0831
 2152SOL    HW2 8374   3.205   1.849   5.900 -1.6417  0.6906  1.4930
 2152SOL    HW3 8375   3.302   1.963   5.878  0.0405 -1.0864 -0.7968
 2152SOL    MW4 8376   3.265   1.905   5.931 -0.0290 -0.2218  0.1530
 2153SOL     OW 8377   2.726   3.108   6.232 -0.5878 -0.8255  0.7755
 2153SOL    HW2 8378   2.632   3.122   6.224 -0.6202 -1.6908 -0.6250
 2153SOL    HW3 8379   2.755   3.084   6.144  1.2828  1.2678  0.7163
 2153SOL    MW4 8380   2.718   3.107   6.220 -0.3453 -0.6635  0.5829
 2154SOL     OW 8381   2.975   1.537   1.148 -0.0455  0.2187 -0.2311
 2154SOL    HW2 8382   3.004   1.588   1.224 -0.0074  1.1355 -0.8438
 2154SOL    HW3 8383   2.937   1.602   1.089  1.5030 -0.1889 -1.7634
 2154SOL    MW4 8384   2.974   1.552   1.150  0.1639  0.2859 -0.5141
 2155SOL     OW 8385   1.008   2.676   3.488  0.2399  0.0776  0.2158
 2155SOL    HW2 8386   0.985   2.755   3.439 -3.8851 -2.0824 -1.8280
 2155SOL    HW3 8387   1.052   2.620   3.424  0.0144 -0.5908  0.6347
 2155SOL    MW4 8388   1.011   2.679   3.473 -0.3341 -0.2956  0.0014
 2156SOL     OW 8389   5.322   6.188   3.079  0.2018 -0.5348 -0.0023
 2156SOL    HW2 8390   5.363   6.101   3.080 -0.3276 -0.7847  0.7163
 2156SOL    HW3 8391   5.306   6.208   3.171 -3.0101 -1.2893 -0.2902
 2156SOL    MW4 8392   5.325   6.179   3.091 -0.2918 -0.6673  0.0545
 2157SOL     OW 8393   3.871   0.619   2.084 -0.7670 -0.5413 -0.0613
 2157SOL    HW2 8394   3.894   0.554   2.019  2.4621  0.4698 -0.0875
 2157SOL    HW3 8395   3.894   0.703   2.044 -1.9156  0.4030  1.1385
 2157SOL    MW4 8396   3.877   0.622   2.070 -0.4925 -0.2833  0.0935
 2158SOL     OW 8397   5.268   0.224   4.143  0.5053  0.4452 -0.3283
 2158SOL    HW2 8398   5.341   0.285   4.132  0.7249  0.9906  2.9641
 2158SOL    HW3 8399   5.300   0.160   4.207 -1.2911 -0.4163 -0.2307
 2158SOL    MW4 8400   5.282   0.224   4.150  0.2972  0.4035  0.1189
 2159SOL     OW 8401   2.159   4.831   5.232  0.4095 -0.0492  0.1997
 2159SOL    HW2 8402   2.108   4.750   5.227  1.5235 -0.7183 -1.0631
 2159SOL    HW3 8403   2.101   4.894   5.276 -1.9953 -0.3697 -2.2661
 2159SOL    MW4 8404   2.145   4.829   5.237  0.2392 -0.1797 -0.2922
 2160SOL     OW 8405   4.035   2.314   5.575  0.7768  0.2342  0.4417
 2160SOL    HW2 8406   4.052   2.320   5.481 -3.0157  0.3410 -0.3894
 2160SOL    HW3 8407   4.021   2.404   5.603  1.2028  0.1357  1.0127
 2160SOL    MW4 8408   4.036   2.326   5.567  0.3327  0.2353  0.4074
 2161SOL     OW 8409   2.175   1.961   1.315  0.6215 -0.0477 -0.7293
 2161SOL    HW2 8410   2.185   1.982   1.407  0.1702  0.2724 -0.7479
 2161SOL    HW3 8411   2.214   1.874   1.305 -0.4997 -0.6535  0.0216
 2161SOL    MW4 8412   2.182   1.952   1.326  0.4140 -0.0854 -0.6327
 2162SOL     OW 8413   1.757   1.134   3.131 -0.2462 -0.4744 -0.0209
 2162SOL    HW2 8414   1.731   1.146   3.040  1.4547  0.6047 -0.4056
 2162SOL    HW3 8415   1.788   1.221   3.159  0.2588 -1.0372  1.2400
 2162SOL    MW4 8416   1.758   1.147   3.123  0.0449 -0.4063  0.0947
 2163SOL     OW 8417   0.529   4.507   4.717  0.3301  0.4656 -0.0883
 2163SOL    HW2 8418   0.588   4.544   4.783 -0.9382  1.5729  0.4773
 2163SOL    HW3 8419   0.482   4.583   4.682  0.8611 -0.1224 -2.1801
 2163SOL    MW4 8420   0.531   4.522   4.721  0.2328  0.5341 -0.2897
 2164SOL     OW 8421   4.555   4.061   1.735 -0.4507 -0.2030  0.3860
 2164SOL    HW2 8422   4.600   4.040   1.817 -0.0462  1.3497  0.5973
 2164SOL    HW3 8423   4.470   4.016   1.742 -0.2154 -0.5176  1.4116
 2164SOL    MW4 8424   4.550   4.052   1.747 -0.3663 -0.0396  0.5492
 2165SOL     OW 8425   5.393   3.163   4.056  0.3822 -0.1857 -0.3589
 2165SOL    HW2 8426   5.319   3.107   4.035  0.8336  0.0520 -2.9563
 2165SOL    HW3 8427   5.369   3.249   4.020  1.7754 -0.0499 -1.0355
 2165SOL    MW4 8428   5.380   3.167   4.048  0.6255 -0.1364 -0.7909
 2166SOL     OW 8429   4.413   2.129   3.855  0.0629 -0.1760 -0.2641
 2166SOL    HW2 8430   4.431   2.187   3.928 -2.5305  0.0534  0.2926
 2166SOL    HW3 8431   4.406   2.042   3.894  0.5827 -0.3498 -0.5534
 2166SOL    MW4 8432   4.415   2.125   3.870 -0.2107 -0.1686 -0.2289
 2167SOL     OW 8433   4.847   1.910   4.872 -0.1696 -0.6915  0.3457
 2167SOL    HW2 8434   4.890   1.884   4.953  2.0738 -0.7158 -0.7835
 2167SOL    HW3 8435   4.821   2.001   4.886 -2.2629 -1.4345  1.9851
 2167SOL    MW4 8436   4.849   1.918   4.884 -0.1498 -0.7927  0.4130
 2168SOL     OW 8437   5.338   2.398   3.113 -0.3214  0.1448 -0.0670
 2168SOL    HW2 8438   5.339   2.319   3.061 -0.5885  1.0335 -1.4705
 2168SOL    HW3 8439   5.326   2.368   3.203  0.8238 -1.4625 -0.4140
 2168SOL    MW4 8440   5.336   2.384   3.118 -0.2056  0.0500 -0.2979
 2169SOL     OW 8441   1.340   4.937   2.585 -0.1435  0.4727  0.4200
 2169SOL    HW2 8442   1.394   4.934   2.665  1.9579  0.6176 -0.9180
 2169SOL    HW3 8443   1.400   4.966   2.517 -1.9289  0.5081 -1.2119
 2169SOL    MW4 8444   1.355   4.941   2.587 -0.1018  0.4965  0.0282
 2170SOL     OW 8445   3.247   5.730   6.431 -0.0054  0.1029 -0.2731
 2170SOL    HW2 8446   3.240   5.737   6.336  0.1420 -2.5864 -0.5653
 2170SOL    HW3 8447   3.172   5.781   6.464 -0.1497  0.9454 -1.8095
 2170SOL    MW4 8448   3.236   5.738   6.423 -0.0050 -0.1408 -0.5144
 2171SOL     OW 8449   0.716   1.659   5.284 -0.7572 -0.1521 -0.5019
 2171SOL    HW2 8450   0.782   1.605   5.328 -0.5631  0.7634  0.3609
 2171SOL    HW3 8451   0.746   1.664   5.193 -0.1254 -0.4880 -0.3179
 2171SOL    MW4 8452   0.729   1.653   5.277 -0.6482 -0.0756 -0.3638
 2172SOL     OW 8453   2.522   2.711   0.919  0.8834  0.4460 -0.1575
 2172SOL    HW2 8454   2.608   2.728   0.880  0.9538  0.9736  0.2172
 2172SOL    HW3 8455   2.512   2.616   0.914  0.3472  0.5563 -2.6020
 2172SOL    MW4 8456   2.532   2.701   0.913  0.8219  0.5302 -0.4306
 2173SOL     OW 8457   2.757   2.869   0.790 -0.0066  0.4274  0.5095
 2173SOL    HW2 8458   2.741   2.819   0.709 -1.1567 -0.2514  1.1364
 2173SOL    HW3 8459   2.839   2.834   0.824  0.9500  1.3113 -0.7859
 2173SOL    MW4 8460   2.765   2.858   0.783 -0.0321  0.4545  0.4213
 2174SOL     OW 8461   3.330   5.651   3.889 -0.3792 -0.0710 -0.0932
 2174SOL    HW2 8462   3.401   5.594   3.918 -2.5041 -2.8540  0.0842
 2174SOL    HW3 8463   3.300   5.612   3.807 -0.5971  2.1108 -1.1120
 2174SOL    MW4 8464   3.335   5.638   3.882 -0.6883 -0.1503 -0.2042
 2175SOL     OW 8465   3.570   1.714   2.207 -0.3934  0.2671 -0.7880
 2175SOL    HW2 8466   3.618   1.722   2.289 -0.1514 -0.6567 -0.8234
 2175SOL    HW3 8467   3.567   1.803   2.172 -2.8878  1.2195  1.5102
 2175SOL    MW4 8468   3.576   1.727   2.213 -0.6906  0.2708 -0.4894
 2176SOL     OW 8469   3.366   0.808   3.147 -0.3842  0.4605  0.0764
 2176SOL    HW2 8470   3.407   0.777   3.228  1.2819  2.0288 -0.1039
 2176SOL    HW3 8471   3.318   0.887   3.173 -2.6713 -0.8328  0.0998
 2176SOL    MW4 8472   3.365   0.814   3.161 -0.4662  0.4968  0.0557
 2177SOL     OW 8473   4.478   3.939   1.240  0.0049 -0.0986 -0.0521
 2177SOL    HW2 8474   4.425   3.984   1.175 -0.9823 -1.3788 -0.1663
 2177SOL    HW3 8475   4.434   3.855   1.254 -0.0150  0.2441  2.4928
 2177SOL    MW4 8476   4.465   3.934   1.233 -0.1279 -0.2223  0.2686
 2178SOL     OW 8477   4.297   4.744   0.054 -0.6328 -0.0115 -0.2198
 2178SOL    HW2 8478   4.242   4.709  -0.016 -0.8743 -0.3952  0.1551
 2178SOL    HW3 8479   4.381   4.763   0.012 -1.0256  0.5027 -0.7776
 2178SOL    MW4 8480   4.301   4.742   0.039 -0.7165  0.0057 -0.2440
 2179SOL     OW 8481   0.578   0.008   5.946  0.2560  0.0870 -0.7427
 2179SOL    HW2 8482   0.540  -0.077   5.970  0.8886  0.0067  0.0450
 2179SOL    HW3 8483   0.608   0.045   6.029 -2.4556  2.3539 -0.6377
 2179SOL    MW4 8484   0.577   0.002   5.960 -0.0183  0.3755 -0.6249
 2180SOL     OW 8485   5.559   2.538   2.993 -0.3989 -0.2223 -0.9225
 2180SOL    HW2 8486   5.497   2.475   3.030  0.0712 -0.5218 -0.6296
 2180SOL    HW3 8487   5.520   2.564   2.909  1.2641 -4.0607 -3.1634
 2180SOL    MW4 8488   5.546   2.533   2.987 -0.1175 -0.7682 -1.1795
 2181SOL     OW 8489   6.178   2.271   1.938  0.6190 -0.3025 -0.2415
 2181SOL    HW2 8490   6.171   2.233   2.026 -0.7438 -1.3510 -0.7547
 2181SOL    HW3 8491   6.178   2.195   1.880 -0.9272  0.4245 -1.2584
 2181SOL    MW4 8492   6.177   2.256   1.942  0.2352 -0.3449 -0.4434
 2182SOL     OW 8493   1.109   2.908   4.531 -0.3471  0.6847  0.2327
 2182SOL    HW2 8494   1.068   2.956   4.603  0.9803 -0.5420  1.9108
 2182SOL    HW3 8495   1.061   2.825   4.527 -0.3878  0.7287 -0.2780
 2182SOL    MW4 8496   1.098   2.903   4.540 -0.1774  0.5287  0.3867
 2183SOL     OW 8497   6.154   5.682   5.111 -0.1447  0.3910  0.6282
 2183SOL    HW2 8498   6.068   5.641   5.101  0.2047 -0.4571  1.0658
 2183SOL    HW3 8499   6.162   5.699   5.205  0.7380 -0.8196  0.7970
 2183SOL    MW4 8500   6.144   5.679   5.122  0.0178  0.1194  0.7082
 2184SOL     OW 8501   4.169   3.516   2.809  0.3425 -0.2371  0.1558
 2184SOL    HW2 8502   4.255   3.504   2.767  0.2272  0.9895 -0.4586
 2184SOL    HW3 8503   4.112   3.457   2.760  0.9101 -1.4187  0.8721
 2184SOL    MW4 8504   4.173   3.506   2.797  0.4022 -0.2311  0.1693
 2185SOL     OW 8505   3.688   4.510   5.612 -0.3055  0.3918 -0.0002
 2185SOL    HW2 8506   3.748   4.526   5.684 -0.2531  1.4606 -0.2615
 2185SOL    HW3 8507   3.602   4.535   5.646 -0.6864 -1.5050  0.4993
 2185SOL    MW4 8508   3.685   4.516   5.626 -0.3489  0.2825  0.0312
 2186SOL     OW 8509   5.312   0.211   1.827 -0.0590 -0.2585 -0.4827
 2186SOL    HW2 8510   5.395   0.237   1.868  0.2558 -2.0849  0.1370
 2186SOL    HW3 8511   5.330   0.212   1.733  0.8698 -1.2322 -0.3317
 2186SOL    MW4 8512   5.325   0.215   1.820  0.1051 -0.6280 -0.3810
 2187SOL     OW 8513   5.580   6.064   4.286  0.6780 -0.4722  0.0566
 2187SOL    HW2 8514   5.525   6.018   4.224  0.7113  0.6421 -0.8369
 2187SOL    HW3 8515   5.528   6.068   4.367 -1.0331  1.4210 -1.0394
 2187SOL    MW4 8516   5.566   6.058   4.289  0.4566 -0.0754 -0.2059
 2188SOL     OW 8517   6.369   1.577   4.557  0.3345  0.2405 -0.4207
 2188SOL    HW2 8518   6.463   1.593   4.571  0.0028  1.9597  0.0388
 2188SOL    HW3 8519   6.341   1.531   4.636  0.2287  2.3365  0.8387
 2188SOL    MW4 8520   6.378   1.573   4.570  0.2768  0.7439 -0.1939
 2189SOL     OW 8521   5.052   5.024   5.961 -0.1602 -0.4467  0.1381
 2189SOL    HW2 8522   5.120   5.049   6.023 -1.1081 -0.7187  1.3112
 2189SOL    HW3 8523   4.971   5.062   5.997 -0.8671 -1.3390 -0.4652
 2189SOL    MW4 8524   5.050   5.032   5.974 -0.3785 -0.6003  0.2133
 2190SOL     OW 8525   4.633   1.167   3.168 -0.0076  0.0936 -0.1058
 2190SOL    HW2 8526   4.636   1.088   3.222  0.0486 -0.5403 -1.0066
 2190SOL    HW3 8527   4.575   1.226   3.215 -2.0634 -1.4112 -0.5870
 2190SOL    MW4 8528   4.625   1.164   3.181 -0.2714 -0.1885 -0.2881
 2191SOL     OW 8529   1.282   4.635   3.072  0.2612 -0.2804  0.5292
 2191SOL    HW2 8530   1.329   4.719   3.072  1.7948 -0.9927 -2.8538
 2191SOL    HW3 8531   1.350   4.569   3.063 -1.0907 -1.6875  0.2206
 2191SOL    MW4 8532   1.297   4.638   3.071  0.2852 -0.5600  0.0422
 2192SOL     OW 8533   6.058   5.311   5.271  0.3234 -0.3739  0.1331
 2192SOL    HW2 8534   6.133   5.253   5.282  0.2159 -0.9996 -1.9003
 2192SOL    HW3 8535   6.070   5.348   5.183 -1.0233  0.5800  0.3228
 2192SOL    MW4 8536   6.070   5.308   5.261  0.1315 -0.3306 -0.1102
 2193SOL     OW 8537   1.383   6.016   5.836  0.2797 -0.1068  0.2405
 2193SOL    HW2 8538   1.452   6.071   5.873  0.5988  0.2927 -0.9223
 2193SOL    HW3 8539   1.302   6.051   5.875  0.7762 -1.4517  2.6938
 2193SOL    MW4 8540   1.381   6.028   5.846  0.3873 -0.2315  0.4108
 2194SOL     OW 8541   6.130   0.686   0.756 -0.0172  0.7986  0.7453
 2194SOL    HW2 8542   6.089   0.764   0.792 -2.3779 -0.3594  0.7844
 2194SOL    HW3 8543   6.181   0.650   0.829  0.5628  1.9215  0.9119
 2194SOL    MW4 8544   6.131   0.691   0.771 -0.2521  0.7940  0.7724
 2195SOL     OW 8545   2.160   1.878   5.005  0.4672 -0.1668 -0.0516
 2195SOL    HW2 8546   2.251   1.905   5.010  0.3798 -0.0809  2.9124
 2195SOL    HW3 8547   2.115   1.951   4.962  1.9064 -0.7424 -2.6768
 2195SOL    MW4 8548   2.166   1.892   5.000  0.6455 -0.2314 -0.0069
 2196SOL     OW 8549   4.389   5.328   4.965  0.2647  0.4537  0.1676
 2196SOL    HW2 8550   4.342   5.410   4.951 -1.8012 -0.6493  0.2102
 2196SOL    HW3 8551   4.372   5.278   4.885  1.6777  0.1231  0.0510
 2196SOL    MW4 8552   4.380   5.332   4.952  0.1785  0.2646  0.1579
 2197SOL     OW 8553   2.284   3.608   2.140 -0.0024  0.0666  0.5690
 2197SOL    HW2 8554   2.324   3.544   2.082  0.5553 -0.9656  2.0505
 2197SOL    HW3 8555   2.238   3.556   2.206 -1.8952  1.2169  0.2217
 2197SOL    MW4 8556   2.283   3.593   2.141 -0.1785  0.0822  0.7187
 2198SOL     OW 8557   4.280   1.134   4.126 -0.2909 -0.2451 -0.2729
 2198SOL    HW2 8558   4.249   1.192   4.196 -1.2777  0.5749 -1.3405
 2198SOL    HW3 8559   4.256   1.046   4.156 -0.9640  0.1185  0.2994
 2198SOL    MW4 8560   4.272   1.130   4.139 -0.5099 -0.0890 -0.3383
 2199SOL     OW 8561   1.118   4.341   2.143  0.5408 -0.7851 -0.1670
 2199SOL    HW2 8562   1.192   4.352   2.203  0.3934  0.2329 -0.1473
 2199SOL    HW3 8563   1.111   4.426   2.099 -1.0680 -0.6201  0.3514
 2199SOL    MW4 8564   1.127   4.354   2.145  0.3091 -0.6290 -0.0960
 2200SOL     OW 8565   0.906   2.952   5.192 -0.2975  0.5022 -0.2573
 2200SOL    HW2 8566   0.944   3.013   5.255 -1.4557  2.4497 -1.3547
 2200SOL    HW3 8567   0.833   2.911   5.239 -0.1945  0.7806  0.1467
 2200SOL    MW4 8568   0.901   2.955   5.207 -0.4367  0.7959 -0.3488
 2201SOL     OW 8569   1.689   3.286   1.967 -0.4647  0.2800 -0.3930
 2201SOL    HW2 8570   1.750   3.310   1.897  0.0804  2.5843  0.7846
 2201SOL    HW3 8571   1.737   3.306   2.048 -1.5195 -1.1798  0.6462
 2201SOL    MW4 8572   1.704   3.292   1.969 -0.5319  0.3914 -0.1005
 2202SOL     OW 8573   4.562   5.154   5.921 -0.0803 -0.4737 -0.6494
 2202SOL    HW2 8574   4.538   5.220   5.856  1.3132 -0.2477 -0.9650
 2202SOL    HW3 8575   4.518   5.182   6.001 -0.9556 -0.1672 -1.2165
 2202SOL    MW4 8576   4.553   5.166   5.923 -0.0120 -0.4035 -0.7659
 2203SOL     OW 8577   0.393   2.902   6.334 -0.5420  0.4080  0.2791
 2203SOL    HW2 8578   0.320   2.854   6.294 -1.3549  0.6166  1.4419
 2203SOL    HW3 8579   0.403   2.862   6.420  0.5777  0.5453  0.2247
 2203SOL    MW4 8580   0.384   2.891   6.340 -0.5015  0.4537  0.4253
 2204SOL     OW 8581   0.862   3.419   0.501  0.2687 -0.6044  0.0431
 2204SOL    HW2 8582   0.812   3.465   0.434 -0.3929 -0.7917  0.4003
 2204SOL    HW3 8583   0.839   3.463   0.582  1.2436 -0.2309  0.1261
 2204SOL    MW4 8584   0.852   3.431   0.503  0.3101 -0.5798  0.1012
 2205SOL     OW 8585   2.636   1.676   5.680  0.1818 -0.1525 -0.1565
 2205SOL    HW2 8586   2.676   1.590   5.665  1.4415  0.3222  0.3383
 2205SOL    HW3 8587   2.552   1.672   5.635  0.7201 -1.2535 -1.0974
 2205SOL    MW4 8588   2.630   1.664   5.672  0.4190 -0.2351 -0.2153
 2206SOL     OW 8589   5.213   2.553   4.756 -0.5655 -0.0018  1.0546
 2206SOL    HW2 8590   5.183   2.628   4.706 -3.3857  0.7839  3.5936
 2206SOL    HW3 8591   5.293   2.583   4.799  1.3505 -0.3820 -1.9624
 2206SOL    MW4 8592   5.220   2.566   4.755 -0.6848  0.0517  0.9915
 2207SOL     OW 8593   2.908   0.817   6.303  0.1918  0.9233  0.4443
 2207SOL    HW2 8594   2.962   0.785   6.229  3.0045  1.2683  2.1929
 2207SOL    HW3 8595   2.896   0.910   6.285 -0.6076  0.6749 -0.3858
 2207SOL    MW4 8596   2.914   0.825   6.291  0.4574  0.9360  0.5655
 2208SOL     OW 8597   1.484   5.269   4.033  0.1545 -0.3598  0.4267
 2208SOL    HW2 8598   1.528   5.287   4.116  1.5599  0.0794 -0.3751
 2208SOL    HW3 8599   1.418   5.202   4.054  2.5688 -2.6167  1.3474
 2208SOL    MW4 8600   1.481   5.262   4.047  0.6585 -0.5996  0.4424
 2209SOL     OW 8601   6.080   1.365   6.425  0.9608  0.4168 -0.1580
 2209SOL    HW2 8602   6.050   1.382   6.514  3.0153 -2.6466  1.3087
 2209SOL    HW3 8603   6.001   1.346   6.376 -0.0634 -0.2883  1.6631
 2209SOL    MW4 8604   6.066   1.365   6.430  1.0967 -0.0804  0.2758
 2210SOL     OW 8605   3.028   3.957   1.952 -0.1920 -0.1299 -0.2305
 2210SOL    HW2 8606   2.993   4.004   2.027  2.5944  2.4807 -0.3675
 2210SOL    HW3 8607   3.074   3.882   1.991 -1.2411 -0.4864  0.3657
 2210SOL    MW4 8608   3.030   3.953   1.967  0.0372  0.1675 -0.1699
 2211SOL     OW 8609   4.560   1.515   5.327  0.6402 -0.0600  0.3951
 2211SOL    HW2 8610   4.529   1.425   5.339 -0.2818  0.3112  0.8695
 2211SOL    HW3 8611   4.655   1.507   5.326  0.5641 -1.1692 -0.6134
 2211SOL    MW4 8612   4.568   1.502   5.328  0.5085 -0.1574  0.3246
 2212SOL     OW 8613   5.027   3.460   3.902 -0.3602  0.2034 -0.5834
 2212SOL    HW2 8614   5.057   3.459   3.811 -2.4833 -1.0632 -1.3442
 2212SOL    HW3 8615   5.068   3.537   3.940  0.6377  0.7277 -2.5905
 2212SOL    MW4 8616   5.036   3.470   3.895 -0.5086  0.1054 -0.9486
 2213SOL     OW 8617   1.261   4.087   4.422  0.5725  0.5580  0.5354
 2213SOL    HW2 8618   1.226   4.012   4.471  0.3969 -0.4040 -0.9827
 2213SOL    HW3 8619   1.344   4.107   4.466  0.7574 -0.7172  0.8296
 2213SOL    MW4 8620   1.267   4.079   4.434  0.5737  0.2629  0.3740
 2214SOL     OW 8621   2.670   4.973   2.761 -0.5259  0.1339 -0.0044
 2214SOL    HW2 8622   2.752   5.021   2.770 -0.2732 -0.3693  0.3982
 2214SOL    HW3 8623   2.691   4.884   2.787 -1.3412  0.1387  0.7053
 2214SOL    MW4 8624   2.683   4.968   2.766 -0.6001  0.0682  0.1424
 2215SOL     OW 8625   5.608   3.362   3.341 -0.3573 -0.0166 -0.3871
 2215SOL    HW2 8626   5.574   3.384   3.254 -2.3543 -0.5376  0.2169
 2215SOL    HW3 8627   5.537   3.315   3.384  0.5538  0.2962  1.5815
 2215SOL    MW4 8628   5.594   3.359   3.335 -0.5006 -0.0441 -0.0476
 2216SOL     OW 8629   1.222   0.861   3.518 -0.1608 -0.0510 -0.5826
 2216SOL    HW2 8630   1.231   0.945   3.473 -0.8247  0.1609 -0.3264
 2216SOL    HW3 8631   1.129   0.856   3.542  0.2862  0.1479  1.3516
 2216SOL    MW4 8632   1.211   0.871   3.515 -0.1894  0.0032 -0.2936
 2217SOL     OW 8633   1.293   2.961   4.995 -0.3132  0.4994 -0.0681
 2217SOL    HW2 8634   1.355   2.917   5.053 -0.7243  0.1592  0.1218
 2217SOL    HW3 8635   1.311   3.054   5.007  1.6649  0.3830 -1.6716
 2217SOL    MW4 8636   1.304   2.968   5.004 -0.1064  0.4392 -0.2546
 2218SOL     OW 8637   5.161   1.380   1.257 -0.0724 -0.2537 -0.2059
 2218SOL    HW2 8638   5.248   1.366   1.219 -0.0031 -1.0565  0.2382
 2218SOL    HW3 8639   5.170   1.352   1.348 -1.5050 -3.0568 -0.8276
 2218SOL    MW4 8640   5.174   1.374   1.264 -0.2523 -0.7294 -0.2293
 2219SOL     OW 8641   4.787   1.329   2.352 -0.0056  0.1614 -0.1953
 2219SOL    HW2 8642   4.821   1.383   2.282 -1.2658 -1.1167 -1.8906
 2219SOL    HW3 8643   4.714   1.379   2.388  0.6583  0.8302  0.2520
 2219SOL    MW4 8644   4.782   1.343   2.348 -0.0843  0.0810 -0.3599
 2220SOL     OW 8645   4.764   3.650   4.059  0.1874  0.3961 -0.1529
 2220SOL    HW2 8646   4.706   3.710   4.106 -0.2894 -0.0449 -0.1769
 2220SOL    HW3 8647   4.838   3.637   4.120 -0.6590 -0.5608  0.6968
 2220SOL    MW4 8648   4.766   3.656   4.074  0.0129  0.2117 -0.0440
 2221SOL     OW 8649   3.522   2.626   0.165 -0.5059  0.4377  0.0196
 2221SOL    HW2 8650   3.439   2.634   0.119 -0.0918  1.3961 -0.5936
 2221SOL    HW3 8651   3.529   2.707   0.216 -0.8191 -0.4724  1.5569
 2221SOL    MW4 8652   3.512   2.638   0.166 -0.4926  0.4441  0.1415
 2222SOL     OW 8653   5.589   0.792   4.717  0.2679 -0.1702  0.3286
 2222SOL    HW2 8654   5.666   0.844   4.741 -0.3988  1.1876 -0.3486
 2222SOL    HW3 8655   5.619   0.701   4.723  1.4451  0.2630  1.6487
 2222SOL    MW4 8656   5.603   0.787   4.721  0.3353  0.0661  0.4134
 2223SOL     OW 8657   3.200   5.343   4.691 -0.4737  0.3686  0.1721
 2223SOL    HW2 8658   3.110   5.340   4.660 -0.7174  0.3028  0.8603
 2223SOL    HW3 8659   3.218   5.436   4.703 -0.6100  0.3601  0.4657
 2223SOL    MW4 8660   3.191   5.355   4.689 -0.5239  0.3588  0.3017
 2224SOL     OW 8661   5.628   1.787   4.611 -0.1360  0.1040  0.5354
 2224SOL    HW2 8662   5.722   1.801   4.615 -0.1566 -0.0498  1.8514
 2224SOL    HW3 8663   5.592   1.842   4.681 -0.9374 -0.4929  0.6066
 2224SOL    MW4 8664   5.635   1.796   4.621 -0.2445  0.0050  0.7184
 2225SOL     OW 8665   2.555   3.600   4.487  0.1288 -0.0040  0.4334
 2225SOL    HW2 8666   2.633   3.649   4.513  0.6102 -0.4858 -0.0845
 2225SOL    HW3 8667   2.496   3.666   4.451  1.2059  0.0879 -1.2869
 2225SOL    MW4 8668   2.558   3.615   4.486  0.3344 -0.0554  0.1381
 2226SOL     OW 8669   2.347   3.279   2.350 -0.1677  0.1847  0.1846
 2226SOL    HW2 8670   2.386   3.203   2.393 -1.7941 -0.2922  0.8917
 2226SOL    HW3 8671   2.414   3.309   2.288  1.6826  0.0190  2.0167
 2226SOL    MW4 8672   2.361   3.273   2.347 -0.1381  0.0999  0.5196
 2227SOL     OW 8673   4.671   6.076   1.517 -0.0390 -0.2081 -0.1193
 2227SOL    HW2 8674   4.585   6.088   1.476 -0.9534 -1.2718  1.3751
 2227SOL    HW3 8675   4.708   5.999   1.475  0.2341  0.2934 -0.8157
 2227SOL    MW4 8676   4.665   6.068   1.506 -0.1236 -0.2823 -0.0140
 2228SOL     OW 8677   6.352   2.302   3.786 -0.4105  0.4538  0.2136
 2228SOL    HW2 8678   6.362   2.382   3.734 -2.3369  0.0518 -0.8739
 2228SOL    HW3 8679   6.314   2.332   3.869 -0.3905  0.7650  0.1111
 2228SOL    MW4 8680   6.348   2.317   3.791 -0.6620  0.4418  0.0566
 2229SOL     OW 8681   1.147   1.217   1.224 -0.0982 -0.0181 -0.3025
 2229SOL    HW2 8682   1.064   1.201   1.269  0.1165 -0.3687 -0.0228
 2229SOL    HW3 8683   1.158   1.141   1.166 -0.1984  0.2556 -0.6802
 2229SOL    MW4 8684   1.138   1.205   1.222 -0.0831 -0.0282 -0.3154
 2230SOL     OW 8685   6.209   4.684   5.470  0.2561 -0.0012  0.7016
 2230SOL    HW2 8686   6.208   4.664   5.563 -0.3160  0.5272  0.8166
 2230SOL    HW3 8687   6.263   4.615   5.431 -0.8221 -1.1635  1.2091
 2230SOL    MW4 8688   6.216   4.672   5.477  0.0384 -0.0848  0.7837
 2231SOL     OW 8689   1.424   6.404   1.384 -0.0012 -0.2594 -0.0326
 2231SOL    HW2 8690   1.472   6.321   1.381 -0.8066 -0.8384  1.4523
 2231SOL    HW3 8691   1.480   6.466   1.339  1.8658 -1.0354  1.1005
 2231SOL    MW4 8692   1.438   6.401   1.378  0.1388 -0.4382  0.3128
 2232SOL     OW 8693   5.687   6.292   3.983  0.2423  0.3409 -0.1947
 2232SOL    HW2 8694   5.728   6.288   4.070 -0.6075 -0.3213  0.1956
 2232SOL    HW3 8695   5.701   6.205   3.946 -0.0183  0.3921 -0.4222
 2232SOL    MW4 8696   5.694   6.280   3.990  0.0958  0.2603 -0.1732
 2233SOL     OW 8697   6.351   2.122   0.554  0.0020  0.0752 -0.0565
 2233SOL    HW2 8698   6.412   2.190   0.529 -0.4835  1.1011  1.3911
 2233SOL    HW3 8699   6.271   2.169   0.578 -0.2462 -0.9521  1.2564
 2233SOL    MW4 8700   6.349   2.137   0.554 -0.0948  0.0750  0.3077
 2234SOL     OW 8701   0.152   2.718   1.415 -0.0402  0.2099  0.0563
 2234SOL    HW2 8702   0.143   2.627   1.441  0.2015  0.1968  0.0972
 2234SOL    HW3 8703   0.109   2.768   1.485 -0.1452  0.1285  0.0489
 2234SOL    MW4 8704   0.145   2.713   1.428 -0.0222  0.1974  0.0607
 2235SOL     OW 8705   5.754   0.015   3.289 -0.0502  0.8126 -0.0622
 2235SOL    HW2 8706   5.709   0.001   3.373 -1.0003 -0.1780 -0.7100
 2235SOL    HW3 8707   5.845  -0.010   3.307 -0.3724 -0.0044  0.5332
 2235SOL    MW4 8708   5.760   0.010   3.303 -0.2180  0.5741 -0.0691
 2236SOL     OW 8709   3.359   3.986   4.989  0.1559  0.5467  0.0107
 2236SOL    HW2 8710   3.357   4.074   4.951  0.9260 -0.1772 -1.8148
 2236SOL    HW3 8711   3.379   4.001   5.082 -0.0492  2.3012 -0.1854
 2236SOL    MW4 8712   3.361   4.000   4.996  0.2304  0.6827 -0.2560
 2237SOL     OW 8713   3.119   0.654   4.684 -0.0276 -0.0999 -0.3064
 2237SOL    HW2 8714   3.191   0.613   4.637  0.5651 -1.3224  1.5328
 2237SOL    HW3 8715   3.161   0.698   4.758 -1.1374 -1.1588  1.0198
 2237SOL    MW4 8716   3.134   0.654   4.688 -0.0958 -0.4009  0.1112
 2238SOL     OW 8717   0.510   3.824   5.190 -0.7085  0.2226  0.1043
 2238SOL    HW2 8718   0.570   3.898   5.186 -0.4880  0.1705  1.7891
 2238SOL    HW3 8719   0.523   3.778   5.106  1.2205  0.4998  0.2087
 2238SOL    MW4 8720   0.520   3.827   5.178 -0.4249  0.2523  0.3404
 2239SOL     OW 8721   1.100   2.192   0.905 -0.0894  0.1855  0.2653
 2239SOL    HW2 8722   1.140   2.279   0.915  0.8548 -0.3285  1.2620
 2239SOL    HW3 8723   1.145   2.154   0.829  0.9190 -0.1411  0.9924
 2239SOL    MW4 8724   1.111   2.198   0.896  0.1682  0.0746  0.4928
 2240SOL     OW 8725   3.308   4.067   1.393  0.2689 -0.1658 -0.6157
 2240SOL    HW2 8726   3.332   3.996   1.454 -0.5396  0.9799  1.1215
 2240SOL    HW3 8727   3.219   4.090   1.418  0.1361  0.7436 -1.8789
 2240SOL    MW4 8728   3.300   4.061   1.405  0.1447  0.1053 -0.5531
 2241SOL     OW 8729   5.766   0.410   4.509 -0.4056 -0.1217 -0.1023
 2241SOL    HW2 8730   5.782   0.318   4.527 -0.0189  0.0158  0.2966
 2241SOL    HW3 8731   5.745   0.414   4.416  1.6167 -0.3702 -0.6185
 2241SOL    MW4 8732   5.766   0.399   4.499 -0.0878 -0.1364 -0.1178
 2242SOL     OW 8733   2.018   5.357   0.032  0.0460 -0.4305  0.6428
 2242SOL    HW2 8734   2.008   5.361  -0.063  0.0132 -0.1569  0.6588
 2242SOL    HW3 8735   2.107   5.389   0.048  0.0512 -0.4753  0.7051
 2242SOL    MW4 8736   2.028   5.362   0.021  0.0423 -0.4003  0.6531
 2243SOL     OW 8737   3.431   1.611   4.831  0.1294  0.2987 -0.5435
 2243SOL    HW2 8738   3.387   1.644   4.909 -1.1026  0.1793 -1.1585
 2243SOL    HW3 8739   3.519   1.649   4.835  0.5011 -0.6320  1.4743
 2243SOL    MW4 8740   3.437   1.620   4.842  0.0159  0.1602 -0.3584
 2244SOL     OW 8741   2.554   1.215   4.989 -0.2898 -0.0187 -0.2890
 2244SOL    HW2 8742   2.503   1.283   5.032 -1.1921 -0.4346 -0.6636
 2244SOL    HW3 8743   2.562   1.244   4.898 -0.6470 -0.3769 -0.4421
 2244SOL    MW4 8744   2.549   1.228   4.982 -0.4560 -0.1208 -0.3586
 2245SOL     OW 8745   5.265   4.998   6.176  0.4475 -0.0224 -0.0731
 2245SOL    HW2 8746   5.276   4.903   6.167 -0.4197 -0.0909 -0.4822
 2245SOL    HW3 8747   5.340   5.034   6.128  1.2850 -0.4927  0.8356
 2245SOL    MW4 8748   5.277   4.990   6.168  0.4436 -0.0935 -0.0072
 2246SOL     OW 8749   2.281   0.442   3.869 -0.3262  0.2166 -0.0434
 2246SOL    HW2 8750   2.326   0.387   3.933 -1.0559 -1.1891 -0.7030
 2246SOL    HW3 8751   2.227   0.501   3.922  0.7169  0.5429  0.6801
 2246SOL    MW4 8752   2.280   0.443   3.885 -0.2849  0.0742 -0.0350
 2247SOL     OW 8753   1.376   0.559   2.337 -0.0262 -0.4632 -0.5325
 2247SOL    HW2 8754   1.385   0.579   2.243  0.3058 -1.3028 -0.6853
 2247SOL    HW3 8755   1.463   0.574   2.373  0.0184 -0.8272 -0.4896
 2247SOL    MW4 8756   1.388   0.564   2.329  0.0235 -0.6220 -0.5470
 2248SOL     OW 8757   1.392   0.127   0.016 -0.0118  0.1914 -0.0885
 2248SOL    HW2 8758   1.418   0.063   0.082  0.5507  0.1958 -0.2939
 2248SOL    HW3 8759   1.472   0.179   0.002 -0.6934  1.5377  0.7565
 2248SOL    MW4 8760   1.406   0.126   0.023 -0.0275  0.3696 -0.0041
 2249SOL     OW 8761   5.680   4.289   5.036 -0.2332 -0.1095 -0.1103
 2249SOL    HW2 8762   5.595   4.331   5.048 -0.5955 -0.7693 -0.3246
 2249SOL    HW3 8763   5.739   4.336   5.095 -1.2476 -1.1811  1.8389
 2249SOL    MW4 8764   5.677   4.301   5.045 -0.4149 -0.3379  0.1186
 2250SOL     OW 8765   1.837   3.274   2.581 -0.5939  0.0304  0.2394
 2250SOL    HW2 8766   1.750   3.312   2.575 -0.5264  0.0562 -0.6703
 2250SOL    HW3 8767   1.895   3.350   2.590 -0.7221 -0.0225  1.7794
 2250SOL    MW4 8768   1.833   3.289   2.581 -0.6019  0.0269  0.3225
 2251SOL     OW 8769   5.328   2.683   5.069 -0.2992 -0.1968 -0.0279
 2251SOL    HW2 8770   5.290   2.651   5.151  0.8416 -1.0066  0.2073
 2251SOL    HW3 8771   5.316   2.778   5.073  0.9858 -0.0483  1.7648
 2251SOL    MW4 8772   5.321   2.691   5.080  0.0208 -0.2841  0.2396
 2252SOL     OW 8773   5.289   1.191   0.765 -0.6037  0.0303  0.2723
 2252SOL    HW2 8774   5.350   1.265   0.767  0.8938 -1.1759  1.0865
 2252SOL    HW3 8775   5.206   1.228   0.795  0.0398  1.4239  0.4327
 2252SOL    MW4 8776   5.286   1.206   0.769 -0.3212  0.0550  0.4009
 2253SOL     OW 8777   3.771   4.301   2.877 -0.2453 -0.1548  0.0350
 2253SOL    HW2 8778   3.816   4.339   2.801 -1.2993  1.8902  0.3697
 2253SOL    HW3 8779   3.717   4.231   2.841 -1.5773  1.4839 -1.3368
 2253SOL    MW4 8780   3.770   4.297   2.862 -0.5601  0.3312 -0.1019
 2254SOL     OW 8781   3.794   0.187   4.398 -0.0551 -0.1349 -0.1837
 2254SOL    HW2 8782   3.837   0.133   4.332 -0.6142 -0.6062 -0.1760
 2254SOL    HW3 8783   3.813   0.143   4.481 -0.7253 -0.4730 -0.2030
 2254SOL    MW4 8784   3.802   0.174   4.400 -0.2173 -0.2417 -0.1852
 2255SOL     OW 8785   3.374   3.160   3.070  0.4905  0.2848  0.5416
 2255SOL    HW2 8786   3.453   3.213   3.070 -0.3844  1.6489  0.6623
 2255SOL    HW3 8787   3.366   3.127   3.159  1.2172 -0.3466  0.3828
 2255SOL    MW4 8788   3.383   3.163   3.081  0.4710  0.3815  0.5365
 2256SOL     OW 8789   5.952   3.978   0.892  0.0014 -0.1329  0.1262
 2256SOL    HW2 8790   5.980   4.044   0.829 -0.4750 -0.8488 -0.8724
 2256SOL    HW3 8791   5.979   4.012   0.977  3.2834 -0.4563 -0.6659
 2256SOL    MW4 8792   5.959   3.991   0.895  0.3716 -0.2700 -0.1101
 2257SOL     OW 8793   3.131   2.814   2.632  0.1735 -0.1853  0.1609
 2257SOL    HW2 8794   3.109   2.749   2.699 -2.1597 -0.4143 -0.7314
 2257SOL    HW3 8795   3.134   2.764   2.551 -0.0954  0.5661 -0.3211
 2257SOL    MW4 8796   3.129   2.798   2.630 -0.1698 -0.1164 -0.0204
 2258SOL     OW 8797   0.287   0.799   0.046  0.2998 -0.4317 -0.1033
 2258SOL    HW2 8798   0.376   0.796   0.010  1.0255 -0.1745  1.5515
 2258SOL    HW3 8799   0.264   0.891   0.046  0.8678 -0.2626  1.2993
 2258SOL    MW4 8800   0.296   0.811   0.041  0.4705 -0.3754  0.3001
 2259SOL     OW 8801   4.321   0.867   2.580  0.0071 -0.0116 -0.0005
 2259SOL    HW2 8802   4.268   0.838   2.506  0.4157  0.6176 -0.5514
 2259SOL    HW3 8803   4.259   0.910   2.639 -0.0940  0.8335 -0.6984
 2259SOL    MW4 8804   4.306   0.869   2.578  0.0476  0.1829 -0.1653
 2260SOL     OW 8805   3.523   3.090   1.969  0.0709 -0.5787 -0.0404
 2260SOL    HW2 8806   3.434   3.056   1.974 -0.7199  1.0567 -1.5615
 2260SOL    HW3 8807   3.537   3.107   1.876  0.8347  1.8977  0.4377
 2260SOL    MW4 8808   3.513   3.088   1.957  0.0673 -0.0362 -0.1780
 2261SOL     OW 8809   1.809   2.385   2.620  0.1520  0.1496  0.7489
 2261SOL    HW2 8810   1.772   2.380   2.708  1.7077  0.1756  1.4361
 2261SOL    HW3 8811   1.784   2.473   2.589 -0.2910  0.1897  1.2030
 2261SOL    MW4 8812   1.801   2.396   2.628  0.2988  0.1583  0.8995
 2262SOL     OW 8813   3.759   2.413   1.005  0.1526 -0.3807  0.5305
 2262SOL    HW2 8814   3.841   2.428   1.053  1.1696 -4.0237  0.2755
 2262SOL    HW3 8815   3.787   2.401   0.914 -0.6437 -1.4293  0.4019
 2262SOL    MW4 8816   3.774   2.413   1.000  0.1817 -0.9997  0.4799
 2263SOL     OW 8817   1.411   3.238   4.956 -0.1448  0.0844  0.3450
 2263SOL    HW2 8818   1.460   3.250   4.875  2.7377  3.2946  2.2717
 2263SOL    HW3 8819   1.361   3.319   4.966 -2.5944 -1.3484  0.6068
 2263SOL    MW4 8820   1.411   3.251   4.947 -0.0877  0.3189  0.6338
 2264SOL     OW 8821   0.476   4.342   2.312 -0.3776  0.1762 -0.1051
 2264SOL    HW2 8822   0.444   4.342   2.222 -2.4945  0.8531  0.5857
 2264SOL    HW3 8823   0.540   4.271   2.315 -0.8751 -0.3941 -1.9357
 2264SOL    MW4 8824   0.481   4.332   2.301 -0.7225  0.1903 -0.2555
 2265SOL     OW 8825   1.995   6.345   0.759 -0.3800  0.3024  0.4343
 2265SOL    HW2 8826   2.055   6.325   0.832 -1.5107 -3.2072  0.6065
 2265SOL    HW3 8827   1.980   6.439   0.766  2.0459  0.6679  2.7392
 2265SOL    MW4 8828   2.001   6.355   0.770 -0.2091 -0.1125  0.7611
 2266SOL     OW 8829   1.058   3.001   0.407  0.1049  0.2372 -0.1229
 2266SOL    HW2 8830   1.065   2.932   0.472  0.7515  1.1379  0.7991
 2266SOL    HW3 8831   0.978   3.047   0.429  0.8624  1.1938  0.7241
 2266SOL    MW4 8832   1.048   2.998   0.419  0.2901  0.4823  0.1105
 2267SOL     OW 8833   0.889   0.742   2.656  0.6769 -0.2291  0.0285
 2267SOL    HW2 8834   0.869   0.653   2.684  1.2157 -0.3471  0.0519
 2267SOL    HW3 8835   0.826   0.797   2.702  0.9301 -0.5150  0.7232
 2267SOL    MW4 8836   0.878   0.738   2.666  0.7814 -0.2824  0.1233
 2268SOL     OW 8837   1.367   1.654   0.491  0.0579  0.2402  0.5301
 2268SOL    HW2 8838   1.398   1.741   0.467  4.0325 -0.9972  0.4966
 2268SOL    HW3 8839   1.391   1.645   0.583 -1.8378 -0.3047  1.0210
 2268SOL    MW4 8840   1.374   1.664   0.500  0.3322  0.0050  0.5905
 2269SOL     OW 8841   2.998   0.975   3.027  0.4583  0.0174 -0.0526
 2269SOL    HW2 8842   3.049   0.972   3.108  2.7032  0.0119 -1.3791
 2269SOL    HW3 8843   3.051   0.929   2.963 -1.3094 -0.1054 -1.5343
 2269SOL    MW4 8844   3.012   0.969   3.029  0.5213  0.0005 -0.4231
 2270SOL     OW 8845   3.544   4.671   5.192 -0.7336 -0.0059 -0.2124
 2270SOL    HW2 8846   3.522   4.578   5.194  0.0542 -0.1991 -0.1249
 2270SOL    HW3 8847   3.505   4.707   5.272  0.0785 -0.5355  0.4438
 2270SOL    MW4 8848   3.536   4.663   5.203 -0.5225 -0.1012 -0.1143
 2271SOL     OW 8849   2.413   3.448   2.574 -0.1654 -0.1014 -0.2341
 2271SOL    HW2 8850   2.352   3.405   2.634  1.0080 -0.5316  0.6996
 2271SOL    HW3 8851   2.385   3.420   2.487 -1.0343 -0.6320  0.2053
 2271SOL    MW4 8852   2.402   3.439   2.570 -0.1252 -0.2281 -0.0529
 2272SOL     OW 8853   2.221   1.657   0.151  0.1221 -0.0899 -0.5508
 2272SOL    HW2 8854   2.263   1.702   0.078 -0.2361  0.1159 -0.6266
 2272SOL    HW3 8855   2.264   1.571   0.154  1.0500  0.3711 -0.1841
 2272SOL    MW4 8856   2.232   1.651   0.142  0.1973 -0.0019 -0.5125
 2273SOL     OW 8857   2.604   6.082   3.259  0.3321 -0.0572  0.2823
 2273SOL    HW2 8858   2.551   6.090   3.180 -1.0584  1.4253  1.3063
 2273SOL    HW3 8859   2.684   6.130   3.240 -0.1667  0.6386 -0.0914
 2273SOL    MW4 8860   2.607   6.089   3.246  0.0828  0.2302  0.3681
 2274SOL     OW 8861   0.236   5.270   1.080 -0.3538  0.0539 -0.2829
 2274SOL    HW2 8862   0.176   5.212   1.034 -1.5695  0.8625  0.2241
 2274SOL    HW3 8863   0.183   5.347   1.102  0.3853  0.0443  1.7285
 2274SOL    MW4 8864   0.221   5.273   1.077 -0.4167  0.1593  0.0494
 2275SOL     OW 8865   4.012   3.125   0.489 -0.4439  0.2149 -0.1019
 2275SOL    HW2 8866   4.054   3.133   0.575 -0.6180  0.0992 -0.0053
 2275SOL    HW3 8867   4.012   3.031   0.470 -0.1601  0.2639 -0.3526
 2275SOL    MW4 8868   4.017   3.114   0.498 -0.4294  0.2061 -0.1222
 2276SOL     OW 8869   2.378   2.061   6.098 -0.2761 -0.1002 -0.0978
 2276SOL    HW2 8870   2.319   2.075   6.173  1.2763  0.5936  1.0634
 2276SOL    HW3 8871   2.446   2.002   6.132 -0.8407 -1.7551 -1.7169
 2276SOL    MW4 8872   2.380   2.055   6.113 -0.1458 -0.2270 -0.1582
 2277SOL     OW 8873   3.035   6.338   1.005 -0.2152 -0.2047  0.1579
 2277SOL    HW2 8874   3.104   6.404   0.995  0.1980 -0.6690 -0.0619
 2277SOL    HW3 8875   2.987   6.366   1.083  0.5305 -0.1496  0.6061
 2277SOL    MW4 8876   3.038   6.350   1.014 -0.0623 -0.2587  0.1880
 2278SOL     OW 8877   1.326   0.609   3.420 -0.1962  0.3105 -0.0557
 2278SOL    HW2 8878   1.412   0.647   3.405 -1.3934  2.6627 -1.5111
 2278SOL    HW3 8879   1.282   0.671   3.479 -0.9765 -0.7610  0.5331
 2278SOL    MW4 8880   1.331   0.622   3.426 -0.4571  0.4795 -0.1700
 2279SOL     OW 8881   1.986   2.266   4.321 -0.2330  0.1863 -0.0379
 2279SOL    HW2 8882   1.969   2.298   4.410 -0.1847  1.4200 -0.4592
 2279SOL    HW3 8883   1.900   2.264   4.279 -0.7025 -3.0400  0.8262
 2279SOL    MW4 8884   1.973   2.270   4.327 -0.2886 -0.0766  0.0205
 2280SOL     OW 8885   0.950   5.698   2.443 -0.4055 -0.0256 -1.1563
 2280SOL    HW2 8886   1.019   5.731   2.386 -0.7433  3.5255  0.2587
 2280SOL    HW3 8887   0.874   5.752   2.423 -0.8698  0.5678  1.7560
 2280SOL    MW4 8888   0.949   5.709   2.433 -0.5114  0.5212 -0.5853
 2281SOL     OW 8889   1.569   0.909   0.106 -0.4601  0.0897  0.3856
 2281SOL    HW2 8890   1.516   0.948   0.037 -0.1231  1.5298  0.9120
 2281SOL    HW3 8891   1.649   0.880   0.062  0.1393  1.8074  0.2853
 2281SOL    MW4 8892   1.573   0.910   0.091 -0.3366  0.5063  0.4418
 2282SOL     OW 8893   3.719   6.349   3.699 -0.0530 -0.1363 -0.2755
 2282SOL    HW2 8894   3.673   6.272   3.666  0.0797 -0.9219  1.2663
 2282SOL    HW3 8895   3.728   6.406   3.623 -1.3907 -1.0303 -1.1519
 2282SOL    MW4 8896   3.714   6.346   3.685 -0.2120 -0.3579 -0.1877
 2283SOL     OW 8897   2.345   1.676   5.633  0.9189  0.3096 -0.2187
 2283SOL    HW2 8898   2.342   1.768   5.659 -2.9756 -0.1061  1.5912
 2283SOL    HW3 8899   2.337   1.678   5.538 -0.6204  1.9446 -0.1280
 2283SOL    MW4 8900   2.343   1.688   5.624  0.2020  0.4705  0.0320
 2284SOL     OW 8901   0.543   6.162   5.335  0.2673  0.0807  0.3044
 2284SOL    HW2 8902   0.561   6.211   5.415  0.6247  0.0577  0.2390
 2284SOL    HW3 8903   0.544   6.227   5.265 -0.5348  0.1795  0.3761
 2284SOL    MW4 8904   0.545   6.177   5.336  0.2086  0.0907  0.3052
 2285SOL     OW 8905   0.858   2.456   0.572  0.1985 -0.1944  0.6777
 2285SOL    HW2 8906   0.881   2.436   0.481  0.5860  0.6863  0.5647
 2285SOL    HW3 8907   0.939   2.491   0.609 -0.0302 -0.3100  1.2903
 2285SOL    MW4 8908   0.872   2.458   0.565  0.2195 -0.0934  0.7436
 2286SOL     OW 8909   1.678   5.959   1.431  0.4360 -0.2834  0.0169
 2286SOL    HW2 8910   1.631   5.909   1.498  0.7177 -0.0633  0.3843
 2286SOL    HW3 8911   1.761   5.983   1.473  2.2781 -3.2860 -1.6155
 2286SOL    MW4 8912   1.683   5.956   1.446  0.7162 -0.6505 -0.1500
 2287SOL     OW 8913   3.716   3.194   3.897  0.4256  0.0969  0.0940
 2287SOL    HW2 8914   3.645   3.136   3.923 -0.3125  0.0380 -1.8444
 2287SOL    HW3 8915   3.794   3.158   3.939 -0.5821 -0.1346  1.8407
 2287SOL    MW4 8916   3.717   3.182   3.906  0.1953  0.0586  0.0687
 2288SOL     OW 8917   4.856   3.452   5.137 -0.0459 -0.3456  0.2882
 2288SOL    HW2 8918   4.830   3.360   5.127  2.3214 -0.9981 -0.5982
 2288SOL    HW3 8919   4.795   3.500   5.081 -3.2144 -0.8973  2.9226
 2288SOL    MW4 8920   4.844   3.446   5.128 -0.1516 -0.5045  0.5188
 2289SOL     OW 8921   5.315   1.592   4.670 -0.1745 -0.4304  0.1068
 2289SOL    HW2 8922   5.265   1.514   4.645 -0.8427 -0.5254  1.5660
 2289SOL    HW3 8923   5.403   1.559   4.690  0.1403 -0.4640 -1.2786
 2289SOL    MW4 8924   5.320   1.577   4.670 -0.2212 -0.4474  0.1165
 2290SOL     OW 8925   3.268   2.188   2.840 -0.3541 -0.4520  0.1008
 2290SOL    HW2 8926   3.269   2.108   2.788  1.0362 -0.8638  0.7347
 2290SOL    HW3 8927   3.219   2.165   2.919 -1.9485  0.0048 -0.7192
 2290SOL    MW4 8928   3.262   2.175   2.843 -0.3810 -0.4460  0.0762
 2291SOL     OW 8929   5.186   3.998   6.077  0.7702 -0.2048  0.3219
 2291SOL    HW2 8930   5.237   3.968   6.002 -1.1775 -0.4396 -0.9808
 2291SOL    HW3 8931   5.250   4.039   6.135  2.5197 -1.1278 -0.8727
 2291SOL    MW4 8932   5.201   3.999   6.075  0.7441 -0.3575 -0.0076
 2292SOL     OW 8933   5.988   3.801   2.757 -0.4394 -0.1253 -0.1235
 2292SOL    HW2 8934   5.985   3.738   2.686  0.1907 -1.9967  1.4286
 2292SOL    HW3 8935   6.082   3.812   2.775 -0.5760  0.6010  0.1917
 2292SOL    MW4 8936   6.000   3.794   2.750 -0.3743 -0.2764  0.1229
 2293SOL     OW 8937   4.599   3.181   1.864  0.8549 -0.2111  0.1792
 2293SOL    HW2 8938   4.526   3.173   1.925  1.5503 -0.9220  0.9475
 2293SOL    HW3 8939   4.630   3.271   1.875 -1.4536  0.9809 -2.0178
 2293SOL    MW4 8940   4.594   3.191   1.874  0.6421 -0.1476 -0.0093
 2294SOL     OW 8941   4.855   0.315   6.032  0.1473 -0.1668  0.0246
 2294SOL    HW2 8942   4.933   0.368   6.047 -0.2558  0.9391 -1.5935
 2294SOL    HW3 8943   4.863   0.242   6.094  0.3806  2.0749  2.8292
 2294SOL    MW4 8944   4.866   0.312   6.042  0.1249  0.2749  0.1811
 2295SOL     OW 8945   3.019   2.060   5.002  0.2821 -0.4643  0.0864
 2295SOL    HW2 8946   3.077   2.030   4.932  0.3365  0.2577 -0.1896
 2295SOL    HW3 8947   3.078   2.093   5.069  0.2293 -1.1618  0.4818
 2295SOL    MW4 8948   3.034   2.060   5.001  0.2823 -0.4611  0.1022
 2296SOL     OW 8949   4.490   2.094   2.775  0.2884  0.0175 -0.4537
 2296SOL    HW2 8950   4.543   2.021   2.808  0.1065  0.5519  1.1243
 2296SOL    HW3 8951   4.401   2.073   2.800  0.3202  1.0847  0.7158
 2296SOL    MW4 8952   4.485   2.082   2.783  0.2686  0.2288 -0.0912
 2297SOL     OW 8953   2.522   4.198   2.867  0.4484  0.0642 -0.0644
 2297SOL    HW2 8954   2.572   4.268   2.826  0.1502  0.7913  0.7730
 2297SOL    HW3 8955   2.551   4.200   2.959 -0.6215  0.0584  0.2799
 2297SOL    MW4 8956   2.533   4.208   2.874  0.2679  0.1593  0.0915
 2298SOL     OW 8957   3.638   3.414   0.283 -0.0813  0.1461 -0.1685
 2298SOL    HW2 8958   3.697   3.456   0.221 -1.4518  0.2631 -1.4326
 2298SOL    HW3 8959   3.693   3.348   0.327  1.2133  0.9033 -0.6066
 2298SOL    MW4 8960   3.653   3.411   0.281 -0.0913  0.2614 -0.3931
 2299SOL     OW 8961   3.872   4.607   1.292  0.2344 -0.1521 -0.7018
 2299SOL    HW2 8962   3.805   4.545   1.322 -1.1537  1.2164 -0.7918
 2299SOL    HW3 8963   3.889   4.582   1.201 -0.1331 -0.5403 -0.6697
 2299SOL    MW4 8964   3.865   4.596   1.284  0.0028 -0.0227 -0.7094
 2300SOL     OW 8965   0.491   3.365   5.513 -0.3031  0.5894  0.2901
 2300SOL    HW2 8966   0.471   3.400   5.600  0.0797  0.4186  0.4488
 2300SOL    HW3 8967   0.499   3.270   5.527 -1.4550  0.4110 -0.1555
 2300SOL    MW4 8968   0.490   3.357   5.527 -0.4046  0.5433  0.2522
 2301SOL     OW 8969   1.444   1.331   0.069  0.2380  0.0519  0.4785
 2301SOL    HW2 8970   1.396   1.393   0.123  0.2362  0.9899 -0.5725
 2301SOL    HW3 8971   1.519   1.380   0.036  0.0926 -0.4040 -0.5888
 2301SOL    MW4 8972   1.448   1.346   0.071  0.2186  0.1155  0.1990
 2302SOL     OW 8973   3.633   3.035   4.400 -0.8129 -0.2908  0.8614
 2302SOL    HW2 8974   3.685   3.076   4.331 -0.3421 -0.6474  1.0037
 2302SOL    HW3 8975   3.544   3.068   4.385 -0.7234 -0.3903  0.0675
 2302SOL    MW4 8976   3.628   3.045   4.389 -0.7390 -0.3509  0.7754
 2303SOL     OW 8977   2.416   5.728   4.271  0.6899  0.3933  0.5119
 2303SOL    HW2 8978   2.466   5.649   4.292  2.2605  0.8584 -1.2146
 2303SOL    HW3 8979   2.443   5.791   4.339  0.7113 -0.0376  0.9116
 2303SOL    MW4 8980   2.426   5.726   4.283  0.9000  0.3978  0.3368
 2304SOL     OW 8981   1.584   3.541   0.512 -0.0415  0.9024  0.5912
 2304SOL    HW2 8982   1.571   3.630   0.479  1.8531  0.9695 -0.1097
 2304SOL    HW3 8983   1.528   3.536   0.590  0.0540  2.8227  0.8447
 2304SOL    MW4 8984   1.575   3.552   0.518  0.2210  1.1646  0.5321
 2305SOL     OW 8985   3.097   6.064   1.115 -0.5101 -0.2292  0.0692
 2305SOL    HW2 8986   3.047   6.143   1.094 -1.5305 -1.1291 -1.0212
 2305SOL    HW3 8987   3.187   6.085   1.088 -0.7005  0.6464  0.0642
 2305SOL    MW4 8988   3.103   6.078   1.109 -0.6699 -0.2324 -0.0753
 2306SOL     OW 8989   2.872   0.620   5.743 -0.1665 -0.5829 -0.0038
 2306SOL    HW2 8990   2.929   0.681   5.790 -0.7587 -0.7387  0.9162
 2306SOL    HW3 8991   2.928   0.587   5.672  0.8325 -0.5787  0.7560
 2306SOL    MW4 8992   2.887   0.624   5.740 -0.1128 -0.6029  0.2178
 2307SOL     OW 8993   3.787   4.983   2.834 -0.3682 -1.0206 -0.7503
 2307SOL    HW2 8994   3.814   4.948   2.749  0.2328  2.1614 -2.0244
 2307SOL    HW3 8995   3.868   4.984   2.886  0.0228  0.0305 -1.3434
 2307SOL    MW4 8996   3.801   4.979   2.830 -0.2373 -0.4621 -0.9967
 2308SOL     OW 8997   1.516   1.604   3.874 -0.3173  0.0441 -0.3310
 2308SOL    HW2 8998   1.522   1.531   3.936  1.0832  0.1895 -0.2568
 2308SOL    HW3 8999   1.429   1.596   3.836 -1.8750  0.8195  2.7185
 2308SOL    MW4 9000   1.505   1.594   3.877 -0.3380  0.1656  0.0812
 2309SOL     OW 9001   0.094   4.864   5.234  0.4609  0.4781 -1.0111
 2309SOL    HW2 9002  -0.001   4.872   5.224  0.1334 -0.1388  1.0741
 2309SOL    HW3 9003   0.106   4.806   5.310  2.4655  2.3294  0.2130
 2309SOL    MW4 9004   0.083   4.857   5.243  0.6821  0.6410 -0.5745
 2310SOL     OW 9005   3.907   0.006   2.647 -0.0712  0.2013 -0.3734
 2310SOL    HW2 9006   3.890   0.041   2.560 -1.6057  0.1045 -0.1455
 2310SOL    HW3 9007   3.996  -0.028   2.643 -0.5208 -0.8846 -2.2675
 2310SOL    MW4 9008   3.916   0.006   2.635 -0.3330  0.0453 -0.5933
 2311SOL     OW 9009   5.176   5.004   5.251 -0.5251 -0.0710  0.2097
 2311SOL    HW2 9010   5.129   5.052   5.184 -0.1565 -1.1560 -0.8598
 2311SOL    HW3 9011   5.247   4.959   5.204  0.6078  0.2493  1.5287
 2311SOL    MW4 9012   5.179   5.004   5.236 -0.3270 -0.1719  0.2426
 2312SOL     OW 9013   3.121   2.635   5.267 -0.7485 -0.1786 -0.3750
 2312SOL    HW2 9014   3.111   2.661   5.176 -0.7716 -0.4993 -0.4672
 2312SOL    HW3 9015   3.034   2.604   5.293 -1.1548  1.4259  0.2506
 2312SOL    MW4 9016   3.109   2.634   5.259 -0.8052 -0.0092 -0.3046
 2313SOL     OW 9017   3.099   0.561   6.394 -0.5420 -0.5229  0.0987
 2313SOL    HW2 9018   3.092   0.639   6.339 -0.6108 -1.2802 -0.9888
 2313SOL    HW3 9019   3.191   0.536   6.389 -0.7925 -1.3389 -0.7505
 2313SOL    MW4 9020   3.110   0.568   6.386 -0.5841 -0.7305 -0.1568
 2314SOL     OW 9021   5.301   0.261   2.585 -0.3360  0.1744  0.5840
 2314SOL    HW2 9022   5.312   0.218   2.500 -2.4262  0.9214 -0.1270
 2314SOL    HW3 9023   5.340   0.200   2.648  0.8732 -0.5959 -0.8470
 2314SOL    MW4 9024   5.308   0.247   2.582 -0.4522  0.1713  0.3014
 2315SOL     OW 9025   0.376   2.168   3.659  0.4606  0.2602 -0.1662
 2315SOL    HW2 9026   0.301   2.143   3.713  0.6227  0.6404  0.2396
 2315SOL    HW3 9027   0.447   2.110   3.689  1.4060  2.4452  2.1900
 2315SOL    MW4 9028   0.376   2.157   3.670  0.6067  0.5986  0.1982
 2316SOL     OW 9029   0.913   3.873   4.873  0.1629 -0.0677 -0.2077
 2316SOL    HW2 9030   0.849   3.942   4.893  1.2428  0.9697 -0.2535
 2316SOL    HW3 9031   0.900   3.855   4.780 -0.5044 -0.3304 -0.0672
 2316SOL    MW4 9032   0.903   3.880   4.863  0.2174  0.0345 -0.1952
 2317SOL     OW 9033   1.153   5.259   3.508  0.1241 -0.8507  0.2511
 2317SOL    HW2 9034   1.062   5.256   3.478 -0.0081  0.9227  0.3342
 2317SOL    HW3 9035   1.196   5.317   3.445  0.0690  2.1974  2.7606
 2317SOL    MW4 9036   1.146   5.266   3.496  0.0994 -0.2145  0.5932
 2318SOL     OW 9037   1.828   3.768   3.930 -0.5664  0.3614 -0.1476
 2318SOL    HW2 9038   1.879   3.709   3.875 -0.2574  0.1237  0.3926
 2318SOL    HW3 9039   1.761   3.712   3.969 -0.1858  0.3330  0.4770
 2318SOL    MW4 9040   1.826   3.753   3.928 -0.4754  0.3263  0.0060
 2319SOL     OW 9041   5.108   3.267   4.639 -0.3404 -0.5872  0.0051
 2319SOL    HW2 9042   5.077   3.329   4.706  0.4733  0.8985 -0.9353
 2319SOL    HW3 9043   5.035   3.260   4.578  0.2186  1.0490 -0.9335
 2319SOL    MW4 9044   5.094   3.274   4.640 -0.1593 -0.1753 -0.2428
 2320SOL     OW 9045   3.549   1.964   6.333  0.1466 -0.7024  0.0347
 2320SOL    HW2 9046   3.481   1.900   6.351  0.1230 -0.3928  1.0989
 2320SOL    HW3 9047   3.619   1.944   6.396  0.1766  0.2479  0.3237
 2320SOL    MW4 9048   3.549   1.953   6.344  0.1474 -0.5362  0.2132
 2321SOL     OW 9049   1.025   4.067   5.614 -0.1985  0.3184 -0.4175
 2321SOL    HW2 9050   1.064   4.030   5.535 -1.2725  0.2223 -0.9206
 2321SOL    HW3 9051   1.082   4.140   5.637 -0.5125  1.0998 -1.9846
 2321SOL    MW4 9052   1.037   4.072   5.607 -0.3817  0.4088 -0.6906
 2322SOL     OW 9053   0.759   2.375   4.312  0.1552  0.3932 -0.0695
 2322SOL    HW2 9054   0.832   2.394   4.253 -0.2878 -0.7734 -1.0418
 2322SOL    HW3 9055   0.701   2.317   4.261 -0.2457 -0.6585  1.4989
 2322SOL    MW4 9056   0.761   2.369   4.298  0.0438  0.1005  0.0092
 2323SOL     OW 9057   5.528   1.790   2.597 -0.1697 -0.0466 -0.2597
 2323SOL    HW2 9058   5.458   1.725   2.593  0.6300 -0.9440 -0.0221
 2323SOL    HW3 9059   5.571   1.785   2.512  0.5032 -0.5418  0.0967
 2323SOL    MW4 9060   5.525   1.781   2.585  0.0246 -0.2304 -0.1813
 2324SOL     OW 9061   5.737   2.153   1.644 -0.0103  0.3041  0.3586
 2324SOL    HW2 9062   5.755   2.130   1.736  0.6768  0.5672  0.2963
 2324SOL    HW3 9063   5.812   2.117   1.596 -0.2925  0.3068 -0.0797
 2324SOL    MW4 9064   5.750   2.145   1.650  0.0431  0.3392  0.2925
 2325SOL     OW 9065   4.182   6.323   2.638 -0.1376 -0.0541 -0.5705
 2325SOL    HW2 9066   4.235   6.244   2.633 -1.3012 -1.0306  1.3104
 2325SOL    HW3 9067   4.231   6.382   2.695  0.9701  0.8200 -2.3786
 2325SOL    MW4 9068   4.195   6.321   2.645 -0.1450 -0.0676 -0.5609
 2326SOL     OW 9069   1.935   4.439   4.827 -0.0373 -0.1672  0.5873
 2326SOL    HW2 9070   1.850   4.459   4.866  0.6927 -0.7002  2.5494
 2326SOL    HW3 9071   1.965   4.523   4.791 -0.9553  0.2405  0.7450
 2326SOL    MW4 9072   1.928   4.453   4.827 -0.0621 -0.1837  0.8669
 2327SOL     OW 9073   2.394   5.826   2.416 -0.2767  0.1571 -0.4131
 2327SOL    HW2 9074   2.469   5.849   2.471 -0.2804 -0.1415 -0.2814
 2327SOL    HW3 9075   2.427   5.757   2.358 -0.7522 -0.8127  0.4304
 2327SOL    MW4 9076   2.408   5.820   2.416 -0.3399 -0.0102 -0.2844
 2328SOL     OW 9077   6.431   0.404   5.044 -0.1116  0.3492 -0.2399
 2328SOL    HW2 9078   6.430   0.346   5.120 -0.6999  1.8382  0.9409
 2328SOL    HW3 9079   6.352   0.380   4.995  1.2030 -1.8708 -1.4498
 2328SOL    MW4 9080   6.421   0.393   5.047 -0.0157  0.2527 -0.2438
 2329SOL     OW 9081   3.824   4.832   2.568 -0.2353 -0.1406  0.0814
 2329SOL    HW2 9082   3.838   4.741   2.596 -1.8549  0.1008  1.9123
 2329SOL    HW3 9083   3.733   4.834   2.538  0.2226  0.5863 -1.3038
 2329SOL    MW4 9084   3.814   4.820   2.568 -0.3886 -0.0128  0.1402
 2330SOL     OW 9085   4.896   2.523   2.519  0.0758 -0.4093 -0.2700
 2330SOL    HW2 9086   4.817   2.495   2.473  0.3497  0.2589 -1.1560
 2330SOL    HW3 9087   4.929   2.443   2.560 -1.2291 -0.6374  0.4026
 2330SOL    MW4 9088   4.890   2.509   2.518 -0.0603 -0.3513 -0.2982
 2331SOL     OW 9089   6.026   3.750   4.858  0.1180  0.1956  0.0328
 2331SOL    HW2 9090   6.049   3.788   4.774 -2.4427  1.3708 -0.2209
 2331SOL    HW3 9091   6.070   3.665   4.859  1.9255  1.0511 -1.5264
 2331SOL    MW4 9092   6.035   3.744   4.847  0.0186  0.4636 -0.2064
 2332SOL     OW 9093   2.074   2.997   1.229  0.5537  0.5492  0.2620
 2332SOL    HW2 9094   2.156   2.956   1.204  1.4614  2.2485  0.3212
 2332SOL    HW3 9095   2.074   3.081   1.182 -1.0682  0.6550  0.3910
 2332SOL    MW4 9096   2.085   3.003   1.219  0.4595  0.7873  0.2869
 2333SOL     OW 9097   5.395   5.565   6.397 -0.0895  1.1815 -0.4099
 2333SOL    HW2 9098   5.370   5.473   6.387  0.2081  1.0031  0.4206
 2333SOL    HW3 9099   5.313   5.612   6.406 -0.1965  0.7499  1.1000
 2333SOL    MW4 9100   5.381   5.559   6.397 -0.0644  1.1010 -0.1011
 2334SOL     OW 9101   6.339   0.054   1.654 -0.4044 -0.0844  0.3567
 2334SOL    HW2 9102   6.385  -0.014   1.703  0.0035 -0.2802 -0.2973
 2334SOL    HW3 9103   6.357   0.035   1.562 -3.5727 -1.4722 -0.0885
 2334SOL    MW4 9104   6.348   0.043   1.649 -0.7686 -0.2933  0.2117
 2335SOL     OW 9105   2.111   3.592   2.489 -0.1030  0.5359  0.0460
 2335SOL    HW2 9106   2.037   3.573   2.547  0.5150  0.0434  0.6958
 2335SOL    HW3 9107   2.114   3.519   2.428 -0.8778  1.1544 -0.7600
 2335SOL    MW4 9108   2.102   3.580   2.489 -0.1237  0.5526  0.0254
 2336SOL     OW 9109   3.748   0.085   2.896  0.3673 -0.3033  0.6721
 2336SOL    HW2 9110   3.816   0.113   2.835  0.5179  0.7733  1.3073
 2336SOL    HW3 9111   3.715   0.167   2.933 -0.1299 -0.9111  1.5835
 2336SOL    MW4 9112   3.753   0.100   2.893  0.3216 -0.2415  0.8762
 2337SOL     OW 9113   5.240   6.263   5.234  0.1235 -0.3416 -0.3211
 2337SOL    HW2 9114   5.256   6.340   5.289  1.1683 -1.3759  0.9005
 2337SOL    HW3 9115   5.201   6.298   5.154 -0.6167  1.3121  0.7124
 2337SOL    MW4 9116   5.237   6.278   5.231  0.1637 -0.2598 -0.0236
 2338SOL     OW 9117   2.460   3.924   4.053 -0.4278 -0.0702  0.2872
 2338SOL    HW2 9118   2.534   3.903   3.996  0.2279 -1.6602  1.6663
 2338SOL    HW3 9119   2.494   3.994   4.110  0.3893 -1.4637  1.5678
 2338SOL    MW4 9120   2.474   3.931   4.053 -0.2335 -0.4638  0.6381
 2339SOL     OW 9121   4.450   5.343   5.751  0.0453 -0.3729  0.1176
 2339SOL    HW2 9122   4.394   5.293   5.692  0.5956 -0.6479 -0.1725
 2339SOL    HW3 9123   4.391   5.408   5.789 -0.5905 -0.9821  0.2059
 2339SOL    MW4 9124   4.435   5.345   5.748  0.0340 -0.4895  0.0910
 2340SOL     OW 9125   1.698   5.076   5.505  0.0454 -0.5650 -0.2494
 2340SOL    HW2 9126   1.661   4.991   5.479 -0.7875 -0.3232  0.1010
 2340SOL    HW3 9127   1.622   5.126   5.536  0.9272 -0.9525  2.9643
 2340SOL    MW4 9128   1.683   5.071   5.506  0.0519 -0.5842  0.2208
 2341SOL     OW 9129   0.522   4.564   3.506  0.3437  0.2863  0.6184
 2341SOL    HW2 9130   0.604   4.515   3.515  0.6327  0.9726  2.0576
 2341SOL    HW3 9131   0.518   4.588   3.414  0.3539 -2.1159 -0.0516
 2341SOL    MW4 9132   0.532   4.561   3.495  0.3832  0.0599  0.7199
 2342SOL     OW 9133   5.562   1.703   4.091  0.2772 -0.4784 -0.2558
 2342SOL    HW2 9134   5.536   1.620   4.129  1.3662 -0.4823  0.5289
 2342SOL    HW3 9135   5.624   1.740   4.153 -0.3824  1.0547 -0.4654
 2342SOL    MW4 9136   5.567   1.697   4.104  0.3338 -0.2766 -0.1799
 2343SOL     OW 9137   4.455   3.501   2.733  0.2765 -0.1319  0.6307
 2343SOL    HW2 9138   4.498   3.530   2.814 -0.2933  1.3907  0.4235
 2343SOL    HW3 9139   4.498   3.419   2.711  1.9500  0.5179  1.3208
 2343SOL    MW4 9140   4.466   3.494   2.741  0.4221  0.1548  0.6944
 2344SOL     OW 9141   6.039   1.945   2.614  0.4881  0.1373 -0.3190
 2344SOL    HW2 9142   6.023   1.866   2.562 -1.7538 -0.4680  1.1147
 2344SOL    HW3 9143   5.953   1.988   2.619  1.2539  1.6506  0.5131
 2344SOL    MW4 9144   6.025   1.940   2.608  0.2934  0.2571 -0.0200
 2345SOL     OW 9145   1.154   0.362   4.971  0.7101 -0.0260 -0.3685
 2345SOL    HW2 9146   1.179   0.366   4.879  1.7236 -3.3340 -0.3472
 2345SOL    HW3 9147   1.218   0.419   5.015 -0.4604  2.4867 -1.7009
 2345SOL    MW4 9148   1.166   0.370   4.965  0.6894 -0.1309 -0.5415
 2346SOL     OW 9149   4.015   3.567   2.201 -0.3786 -0.4986 -0.0830
 2346SOL    HW2 9150   3.976   3.480   2.209  0.3193 -0.6623  2.3830
 2346SOL    HW3 9151   3.941   3.627   2.204 -0.7251 -0.9455  1.1497
 2346SOL    MW4 9152   4.000   3.564   2.203 -0.3323 -0.5791  0.4050
 2347SOL     OW 9153   0.840   5.771   3.314 -0.2642  0.3661  0.0063
 2347SOL    HW2 9154   0.781   5.835   3.275 -1.9046 -0.5674  0.8298
 2347SOL    HW3 9155   0.904   5.823   3.362 -1.9372  1.4308  1.1990
 2347SOL    MW4 9156   0.841   5.786   3.315 -0.7014  0.3834  0.2724
 2348SOL     OW 9157   2.432   0.102   1.531 -0.0955 -0.2672  0.1570
 2348SOL    HW2 9158   2.416   0.056   1.613  3.6745 -0.9563  0.6609
 2348SOL    HW3 9159   2.493   0.172   1.554  0.6938 -0.1902 -1.9711
 2348SOL    MW4 9160   2.438   0.105   1.545  0.5061 -0.3480 -0.0573
 2349SOL     OW 9161   5.383   4.404   4.918  0.5023 -0.7199 -0.3024
 2349SOL    HW2 9162   5.295   4.367   4.908  0.1228  0.4732 -1.9789
 2349SOL    HW3 9163   5.420   4.403   4.830  1.6328  0.0644  0.1273
 2349SOL    MW4 9164   5.376   4.399   4.905  0.6014 -0.4590 -0.4669
 2350SOL     OW 9165   0.862   4.708   3.370 -0.2801  0.1874 -0.4001
 2350SOL    HW2 9166   0.828   4.705   3.459 -0.9102  2.0969 -0.5283
 2350SOL    HW3 9167   0.957   4.709   3.380 -0.3535  1.4947  0.3308
 2350SOL    MW4 9168   0.870   4.708   3.383 -0.3729  0.6118 -0.3206
 2351SOL     OW 9169   5.913   0.513   0.697 -0.6578 -0.0541 -0.2809
 2351SOL    HW2 9170   5.981   0.580   0.707 -1.1164  0.1494  1.8639
 2351SOL    HW3 9171   5.952   0.449   0.638  0.3071  1.4107 -1.3172
 2351SOL    MW4 9172   5.927   0.514   0.690 -0.5910  0.1660 -0.1346
 2352SOL     OW 9173   4.317   1.884   3.999  0.6383  0.4631 -0.4827
 2352SOL    HW2 9174   4.267   1.965   4.016  1.3183  0.4097  2.2993
 2352SOL    HW3 9175   4.264   1.836   3.936 -0.4473  2.4891 -1.2091
 2352SOL    MW4 9176   4.304   1.889   3.993  0.5848  0.7233 -0.2115
 2353SOL     OW 9177   3.445   1.693   1.251  0.1658 -0.1293 -0.1139
 2353SOL    HW2 9178   3.460   1.617   1.306  0.3399 -0.8031 -1.0598
 2353SOL    HW3 9179   3.533   1.722   1.227  0.2229  1.8611  2.1528
 2353SOL    MW4 9180   3.459   1.687   1.255  0.1963  0.0444  0.0604
 2354SOL     OW 9181   5.676   4.012   1.993 -0.3489 -0.6781  0.7953
 2354SOL    HW2 9182   5.584   4.018   2.019 -1.0808 -2.4034 -1.1202
 2354SOL    HW3 9183   5.677   3.946   1.924  2.0675  0.6339 -0.5564
 2354SOL    MW4 9184   5.664   4.004   1.987 -0.1266 -0.7326  0.3642
 2355SOL     OW 9185   2.583   1.986   5.839  0.1954  0.0996 -0.1889
 2355SOL    HW2 9186   2.658   1.935   5.868  0.1309 -0.8561 -1.5843
 2355SOL    HW3 9187   2.514   1.921   5.824 -0.8567  0.9422  0.8736
 2355SOL    MW4 9188   2.584   1.971   5.841  0.0481  0.0846 -0.2328
 2356SOL     OW 9189   3.377   3.655   1.384 -0.0403 -0.0214  0.1135
 2356SOL    HW2 9190   3.362   3.718   1.313  1.4289  0.7007  0.4094
 2356SOL    HW3 9191   3.422   3.582   1.341 -0.6542 -0.3423  0.0022
 2356SOL    MW4 9192   3.381   3.653   1.369  0.0726  0.0315  0.1378
 2357SOL     OW 9193   4.194   4.028   3.860  0.2571 -0.3986  0.4212
 2357SOL    HW2 9194   4.208   4.109   3.811  3.7994 -1.6491 -0.9955
 2357SOL    HW3 9195   4.150   3.969   3.799 -0.6158 -0.1551  0.8043
 2357SOL    MW4 9196   4.190   4.031   3.845  0.6093 -0.5315  0.2848
 2358SOL     OW 9197   4.941   3.288   0.906 -0.3512 -0.8206  1.0289
 2358SOL    HW2 9198   4.917   3.227   0.837  0.2184 -0.9065  0.8972
 2358SOL    HW3 9199   5.004   3.347   0.865 -0.4747 -0.4919  1.3072
 2358SOL    MW4 9200   4.946   3.288   0.892 -0.2923 -0.7885  1.0483
 2359SOL     OW 9201   0.544   4.921   4.558 -0.4048 -0.3167  0.4042
 2359SOL    HW2 9202   0.506   4.928   4.471  2.3211  1.9160 -0.7935
 2359SOL    HW3 9203   0.549   5.012   4.590 -0.0909 -0.9462  2.3014
 2359SOL    MW4 9204   0.540   4.934   4.551 -0.0037 -0.1052  0.4965
 2360SOL     OW 9205   0.512   1.947   0.473 -0.1847 -0.0435 -0.5476
 2360SOL    HW2 9206   0.426   1.988   0.482 -1.9944 -3.6658  0.3687
 2360SOL    HW3 9207   0.505   1.894   0.393  1.4708  0.0956 -0.8256
 2360SOL    MW4 9208   0.499   1.945   0.463 -0.2051 -0.5030 -0.4634
 2361SOL     OW 9209   4.803   1.285   2.978 -0.2013 -0.1564  0.0473
 2361SOL    HW2 9210   4.802   1.266   2.885 -0.2656 -0.4824  0.1131
 2361SOL    HW3 9211   4.731   1.233   3.014 -0.9727  0.9220  0.0996
 2361SOL    MW4 9212   4.794   1.276   2.971 -0.3115 -0.0571  0.0629
 2362SOL     OW 9213   6.139   5.948   2.004  0.1463 -0.1661  0.3626
 2362SOL    HW2 9214   6.206   5.990   1.951 -0.2289  0.2052  0.1786
 2362SOL    HW3 9215   6.126   5.863   1.963 -0.5972  0.3693 -0.5266
 2362SOL    MW4 9216   6.146   5.942   1.992 -0.0013 -0.0464  0.2210
 2363SOL     OW 9217   2.217   1.392   4.326 -1.0162 -0.4710 -0.3185
 2363SOL    HW2 9218   2.239   1.485   4.314 -2.3713  0.0315  0.7705
 2363SOL    HW3 9219   2.135   1.381   4.278 -0.6728 -1.1970 -0.7395
 2363SOL    MW4 9220   2.209   1.403   4.318 -1.1497 -0.5005 -0.2304
 2364SOL     OW 9221   1.310   5.576   2.565 -0.0063 -0.4182  0.1735
 2364SOL    HW2 9222   1.258   5.654   2.585 -1.5486 -1.1902 -0.6924
 2364SOL    HW3 9223   1.393   5.610   2.531 -1.0673  0.8644 -1.2274
 2364SOL    MW4 9224   1.314   5.591   2.563 -0.3498 -0.3509 -0.1256
 2365SOL     OW 9225   2.282   5.381   2.867  0.0953  0.1735  0.1803
 2365SOL    HW2 9226   2.363   5.334   2.844  0.1141 -0.4342  1.3870
 2365SOL    HW3 9227   2.300   5.417   2.954 -0.0397  2.1890 -0.5769
 2365SOL    MW4 9228   2.295   5.380   2.875  0.0800  0.3593  0.2396
 2366SOL     OW 9229   5.944   4.863   1.227  0.0410  0.3220  0.4966
 2366SOL    HW2 9230   6.008   4.801   1.261  0.7387 -0.1012 -1.4771
 2366SOL    HW3 9231   5.991   4.912   1.159 -1.2874  1.0869  0.0813
 2366SOL    MW4 9232   5.958   4.862   1.223 -0.0422  0.3670  0.1814
 2367SOL     OW 9233   0.298   0.051   0.788  0.3159  0.3773 -0.3068
 2367SOL    HW2 9234   0.359   0.013   0.852  0.8993  0.6407 -0.7013
 2367SOL    HW3 9235   0.212   0.023   0.818  0.6272  0.0265  0.2794
 2367SOL    MW4 9236   0.295   0.042   0.801  0.4340  0.3657 -0.2815
 2368SOL     OW 9237   4.550   3.014   0.884 -0.3601 -0.1473 -0.2277
 2368SOL    HW2 9238   4.638   3.018   0.922 -0.5845  0.0625  0.2808
 2368SOL    HW3 9239   4.501   2.955   0.941 -0.2000 -1.2943 -1.2534
 2368SOL    MW4 9240   4.555   3.007   0.896 -0.3686 -0.2710 -0.2960
 2369SOL     OW 9241   2.626   4.432   1.253  0.5154 -0.1641 -0.6099
 2369SOL    HW2 9242   2.587   4.357   1.208 -0.6140 -0.3024  0.5459
 2369SOL    HW3 9243   2.692   4.394   1.311 -3.0807 -0.9834  3.4536
 2369SOL    MW4 9244   2.630   4.417   1.255 -0.1081 -0.2905  0.0788
 2370SOL     OW 9245   2.765   4.158   6.087  0.2448  0.6053 -0.1166
 2370SOL    HW2 9246   2.844   4.119   6.124 -0.3233 -1.1320 -0.6182
 2370SOL    HW3 9247   2.774   4.251   6.103  1.6048  0.2669  1.3296
 2370SOL    MW4 9248   2.777   4.165   6.094  0.3493  0.3314  0.0080
 2371SOL     OW 9249   3.447   4.434   2.111  0.1816  0.0462  0.0622
 2371SOL    HW2 9250   3.435   4.518   2.067  2.0963  0.1163 -0.3770
 2371SOL    HW3 9251   3.358   4.402   2.124 -0.5604  1.7123 -0.5683
 2371SOL    MW4 9252   3.433   4.441   2.107  0.3363  0.2753 -0.0789
 2372SOL     OW 9253   3.193   3.766   0.391  0.0668  0.2932  0.2822
 2372SOL    HW2 9254   3.100   3.780   0.412 -0.4887  0.7094 -2.1112
 2372SOL    HW3 9255   3.219   3.845   0.344  1.6387  0.1350  0.8159
 2372SOL    MW4 9256   3.184   3.778   0.387  0.2009  0.3272  0.0368
 2373SOL     OW 9257   5.442   4.445   5.311 -0.4287 -0.0437  0.3197
 2373SOL    HW2 9258   5.411   4.478   5.395 -1.6299 -1.0501  0.3015
 2373SOL    HW3 9259   5.529   4.410   5.329 -1.4821 -2.1801  1.6736
 2373SOL    MW4 9260   5.449   4.445   5.324 -0.7261 -0.4584  0.4959
 2374SOL     OW 9261   6.274   5.729   5.996 -0.2181  0.6977 -0.2814
 2374SOL    HW2 9262   6.233   5.785   5.929 -0.1448 -0.0898 -1.0001
 2374SOL    HW3 9263   6.213   5.730   6.069 -1.7138 -0.7131 -1.4561
 2374SOL    MW4 9264   6.261   5.737   5.997 -0.4058  0.4077 -0.5312
 2375SOL     OW 9265   3.767   3.918   2.031 -0.1498 -0.5701  0.4886
 2375SOL    HW2 9266   3.725   4.002   2.052  1.8899  0.5421  0.4494
 2375SOL    HW3 9267   3.738   3.898   1.942  0.0528  0.5929  0.1371
 2375SOL    MW4 9268   3.758   3.926   2.022  0.1460 -0.2699  0.4371
 2376SOL     OW 9269   3.714   0.868   1.978  0.6778 -0.0586 -0.2031
 2376SOL    HW2 9270   3.785   0.839   1.919  0.5630 -0.5228 -0.1201
 2376SOL    HW3 9271   3.634   0.837   1.935  0.6131 -0.6870  0.3555
 2376SOL    MW4 9272   3.713   0.860   1.964  0.6541 -0.2027 -0.1185
 2377SOL     OW 9273   0.431   3.503   4.007  0.4954 -0.3026  0.3827
 2377SOL    HW2 9274   0.373   3.472   3.937 -0.4069  2.3481 -0.1753
 2377SOL    HW3 9275   0.454   3.592   3.980  1.0969  0.3611  2.8834
 2377SOL    MW4 9276   0.426   3.511   3.994  0.4557  0.1347  0.6390
 2378SOL     OW 9277   0.947   0.401   0.630 -0.5308 -0.4120 -0.0430
 2378SOL    HW2 9278   0.901   0.484   0.641 -0.2071 -0.1270 -0.8035
 2378SOL    HW3 9279   0.878   0.334   0.640 -0.9554 -0.0209 -0.3090
 2378SOL    MW4 9280   0.932   0.403   0.633 -0.5441 -0.3228 -0.1784
 2379SOL     OW 9281   4.326   2.888   1.535  0.7132  0.1453 -0.0963
 2379SOL    HW2 9282   4.377   2.814   1.567  1.1794  0.6270  0.2913
 2379SOL    HW3 9283   4.297   2.861   1.448  1.8995 -0.0130 -0.4586
 2379SOL    MW4 9284   4.329   2.875   1.528  0.9312  0.1880 -0.0930
 2380SOL     OW 9285   4.504   4.165   3.789  0.2714 -0.0090  0.1465
 2380SOL    HW2 9286   4.423   4.199   3.751  2.0912  1.2906 -2.9521
 2380SOL    HW3 9287   4.547   4.243   3.826  1.0567 -0.2840 -0.1656
 2380SOL    MW4 9288   4.499   4.180   3.789  0.6151  0.1262 -0.3035
 2381SOL     OW 9289   1.471   0.540   5.655  0.0143 -0.3784 -0.6222
 2381SOL    HW2 9290   1.541   0.588   5.610  0.9627 -0.1371  1.0069
 2381SOL    HW3 9291   1.514   0.504   5.733 -1.2907 -1.7374 -0.4908
 2381SOL    MW4 9292   1.486   0.542   5.660 -0.0328 -0.5259 -0.3899
 2382SOL     OW 9293   4.938   2.454   0.836 -0.1737  0.1032 -0.3155
 2382SOL    HW2 9294   4.961   2.442   0.744 -2.3044 -0.2146 -0.8639
 2382SOL    HW3 9295   4.883   2.379   0.857  1.7809 -0.8325  1.8142
 2382SOL    MW4 9296   4.934   2.443   0.827 -0.1970 -0.0622 -0.1069
 2383SOL     OW 9297   3.291   5.458   6.156 -0.3086  0.2825  0.0090
 2383SOL    HW2 9298   3.368   5.429   6.107 -1.1696 -0.5317 -0.9153
 2383SOL    HW3 9299   3.274   5.387   6.218  0.1364  0.8239  0.7708
 2383SOL    MW4 9300   3.299   5.445   6.158 -0.3635  0.2465 -0.0125
 2384SOL     OW 9301   0.622   2.576   3.444  0.2369  0.4479  0.3307
 2384SOL    HW2 9302   0.682   2.624   3.501  0.3940 -0.4343  0.9259
 2384SOL    HW3 9303   0.625   2.623   3.360  1.4930  0.6196  0.4598
 2384SOL    MW4 9304   0.630   2.589   3.440  0.4234  0.3542  0.4263
 2385SOL     OW 9305   4.988   0.452   3.804 -0.4477 -0.1532 -0.3781
 2385SOL    HW2 9306   5.059   0.516   3.807 -0.0369 -0.5686 -1.1529
 2385SOL    HW3 9307   5.027   0.374   3.766 -1.2886 -0.4295 -0.6861
 2385SOL    MW4 9308   5.002   0.450   3.800 -0.5044 -0.2445 -0.5209
 2386SOL     OW 9309   6.058   4.224   4.328  0.2005  0.3168 -0.7734
 2386SOL    HW2 9310   6.047   4.218   4.423  0.6772  2.1348 -0.5622
 2386SOL    HW3 9311   5.972   4.203   4.292  0.0888 -0.6884  0.0293
 2386SOL    MW4 9312   6.046   4.221   4.335  0.2487  0.4240 -0.6396
 2387SOL     OW 9313   2.244   2.698   5.685  0.0383 -0.0847  0.5846
 2387SOL    HW2 9314   2.203   2.662   5.764  0.0305 -0.3449  0.4620
 2387SOL    HW3 9315   2.181   2.764   5.654 -0.5787 -0.9001  0.0616
 2387SOL    MW4 9316   2.230   2.702   5.691 -0.0441 -0.2266  0.4994
 2388SOL     OW 9317   1.407   1.732   4.231 -0.1508 -0.4404  0.6281
 2388SOL    HW2 9318   1.395   1.773   4.317 -0.9273 -1.7078  1.1483
 2388SOL    HW3 9319   1.413   1.806   4.171 -0.3315  0.4638  1.6819
 2388SOL    MW4 9320   1.406   1.747   4.235 -0.2771 -0.4883  0.8358
 2389SOL     OW 9321   2.533   6.222   2.346  0.4490 -0.3396 -0.2284
 2389SOL    HW2 9322   2.539   6.314   2.374 -0.2612  0.2070 -1.7337
 2389SOL    HW3 9323   2.442   6.198   2.360  0.8082 -1.0945  0.9098
 2389SOL    MW4 9324   2.522   6.231   2.351  0.4027 -0.3671 -0.2768
 2390SOL     OW 9325   0.214   1.751   4.245  0.1748  0.5624  0.2273
 2390SOL    HW2 9326   0.123   1.766   4.270 -0.2439 -1.0399 -0.1877
 2390SOL    HW3 9327   0.240   1.830   4.199  0.0406  2.3951  3.0715
 2390SOL    MW4 9328   0.205   1.763   4.242  0.1019  0.5928  0.5478
 2391SOL     OW 9329   0.048   2.918   5.039 -0.3228 -0.2599  0.4839
 2391SOL    HW2 9330   0.065   2.885   4.951  0.7364 -0.4917  0.7532
 2391SOL    HW3 9331   0.015   2.842   5.087  1.2934 -0.7561  0.8748
 2391SOL    MW4 9332   0.046   2.903   5.034  0.0302 -0.3559  0.5710
 2392SOL     OW 9333   4.968   3.871   6.195 -0.0700 -0.1895 -0.3812
 2392SOL    HW2 9334   5.040   3.913   6.148 -0.1731  0.9252  0.4231
 2392SOL    HW3 9335   4.903   3.940   6.207 -0.5804 -0.7723  0.3022
 2392SOL    MW4 9336   4.969   3.886   6.190 -0.1509 -0.1193 -0.1849
 2393SOL     OW 9337   6.177   4.971   5.524 -0.4716  0.1360  0.1680
 2393SOL    HW2 9338   6.200   4.878   5.528  0.0778  0.3146  2.1168
 2393SOL    HW3 9339   6.092   4.976   5.567 -1.6721  0.2600 -2.0581
 2393SOL    MW4 9340   6.169   4.959   5.530 -0.5575  0.1759  0.1314
 2394SOL     OW 9341   0.117   3.203   5.476 -0.2755 -0.4115 -0.5927
 2394SOL    HW2 9342   0.187   3.243   5.425 -1.1156  0.3087 -1.2186
 2394SOL    HW3 9343   0.078   3.139   5.416  0.3588 -1.4102  0.0341
 2394SOL    MW4 9344   0.121   3.199   5.461 -0.3026 -0.4483 -0.5926
 2395SOL     OW 9345   3.150   3.514   3.967 -0.2626 -0.0639  0.0953
 2395SOL    HW2 9346   3.105   3.576   3.910 -0.4357 -0.3711 -0.1032
 2395SOL    HW3 9347   3.092   3.438   3.971  0.2726 -0.4953 -0.2225
 2395SOL    MW4 9348   3.137   3.512   3.960 -0.2148 -0.1614  0.0272
 2396SOL     OW 9349   2.849   1.111   6.237  0.2837 -0.0844  0.0411
 2396SOL    HW2 9350   2.883   1.177   6.178 -2.0603  1.8940  0.7496
 2396SOL    HW3 9351   2.872   1.141   6.324 -0.9088 -0.0897  0.3820
 2396SOL    MW4 9352   2.856   1.123   6.240 -0.1829  0.1759  0.1795
 2397SOL     OW 9353   1.750   4.401   0.873 -0.2570  0.0380  0.2069
 2397SOL    HW2 9354   1.772   4.493   0.888 -1.7544  0.6463 -1.0476
 2397SOL    HW3 9355   1.816   4.352   0.921 -0.9833  1.7526  3.2080
 2397SOL    MW4 9356   1.761   4.407   0.881 -0.5504  0.3445  0.4374
 2398SOL     OW 9357   5.415   6.257   4.704 -0.3815  0.1258  0.7445
 2398SOL    HW2 9358   5.345   6.206   4.745  0.4513 -2.4987 -0.8512
 2398SOL    HW3 9359   5.496   6.217   4.737  0.3279  0.7879 -0.1299
 2398SOL    MW4 9360   5.417   6.245   4.714 -0.1780 -0.1331  0.4186
 2399SOL     OW 9361   5.118   5.261   4.386  0.3581 -0.2789 -0.2529
 2399SOL    HW2 9362   5.205   5.230   4.412  0.2213 -1.1683 -0.8200
 2399SOL    HW3 9363   5.084   5.303   4.465  1.7135  1.0327 -0.3324
 2399SOL    MW4 9364   5.125   5.262   4.400  0.5189 -0.2232 -0.3382
 2400SOL     OW 9365   3.016   2.456   6.126  0.1682 -0.2841  0.4663
 2400SOL    HW2 9366   3.109   2.440   6.147  1.1265  3.3789 -0.2084
 2400SOL    HW3 9367   2.984   2.508   6.201 -0.3239  1.2355 -0.7371
 2400SOL    MW4 9368   3.024   2.461   6.139  0.2298  0.3997  0.2185
 2401SOL     OW 9369   3.180   2.698   2.385 -0.8124 -0.2814  0.0707
 2401SOL    HW2 9370   3.273   2.716   2.397 -0.7096 -1.5826  1.4848
 2401SOL    HW3 9371   3.175   2.657   2.299 -0.1912  0.4416 -0.3264
 2401SOL    MW4 9372   3.192   2.695   2.375 -0.7169 -0.3577  0.2049
 2402SOL     OW 9373   3.317   2.169   4.754 -0.1992  0.4758  0.3852
 2402SOL    HW2 9374   3.351   2.235   4.694  0.0719  0.4162  0.4715
 2402SOL    HW3 9375   3.332   2.206   4.841  1.4018 -0.3764  0.4953
 2402SOL    MW4 9376   3.323   2.182   4.757  0.0478  0.3555  0.4111
 2403SOL     OW 9377   1.956   4.014   0.616  0.3836 -0.2700  0.3185
 2403SOL    HW2 9378   1.942   4.011   0.522  1.5597  1.0451  0.0541
 2403SOL    HW3 9379   1.949   3.923   0.645 -0.4286 -0.6329 -0.9591
 2403SOL    MW4 9380   1.953   4.002   0.608  0.4316 -0.1443  0.1151
 2404SOL     OW 9381   0.705   3.025   3.293  0.0894 -0.2705 -0.0208
 2404SOL    HW2 9382   0.790   3.069   3.284 -0.0197 -0.0956 -0.2042
 2404SOL    HW3 9383   0.691   3.018   3.387 -0.4086  1.0874  0.0246
 2404SOL    MW4 9384   0.714   3.030   3.304  0.0093 -0.0683 -0.0390
 2405SOL     OW 9385   2.557   6.185   5.033  0.2359 -0.5724 -0.4641
 2405SOL    HW2 9386   2.484   6.165   5.091 -0.9966  0.9133 -1.4263
 2405SOL    HW3 9387   2.527   6.160   4.946  0.4496  0.9849 -1.0132
 2405SOL    MW4 9388   2.544   6.179   5.029  0.1015 -0.1709 -0.6635
 2406SOL     OW 9389   5.722   5.389   2.556  0.4918 -0.0868 -0.0386
 2406SOL    HW2 9390   5.704   5.413   2.466 -0.4256 -0.7446 -0.0358
 2406SOL    HW3 9391   5.700   5.467   2.607 -1.9552 -0.6625 -0.0852
 2406SOL    MW4 9392   5.717   5.403   2.551  0.0479 -0.2496 -0.0443
 2407SOL     OW 9393   3.856   5.276   2.507 -0.0021 -0.0190 -0.0507
 2407SOL    HW2 9394   3.941   5.232   2.507 -0.0548 -0.1974  1.6041
 2407SOL    HW3 9395   3.793   5.207   2.485 -0.1536 -1.0609  3.1323
 2407SOL    MW4 9396   3.858   5.261   2.504 -0.0291 -0.1800  0.5876
 2408SOL     OW 9397   1.053   5.458   3.854 -0.0955 -0.3154  0.6466
 2408SOL    HW2 9398   1.000   5.380   3.867 -1.6256  0.3872 -0.9102
 2408SOL    HW3 9399   1.039   5.510   3.933 -1.4683 -0.3162  0.4286
 2408SOL    MW4 9400   1.045   5.455   3.866 -0.4785 -0.2228  0.4124
 2409SOL     OW 9401   0.988   5.482   1.037  0.1748 -0.5668  0.7590
 2409SOL    HW2 9402   0.979   5.388   1.045  1.0715 -0.5605  2.0042
 2409SOL    HW3 9403   0.913   5.518   1.085 -0.1829 -0.6274  0.2601
 2409SOL    MW4 9404   0.977   5.475   1.044  0.2459 -0.5740  0.8575
 2410SOL     OW 9405   3.140   4.405   5.487  0.0060 -0.0516  0.2822
 2410SOL    HW2 9406   3.161   4.420   5.395 -0.2667 -2.0385 -0.1502
 2410SOL    HW3 9407   3.080   4.331   5.485  0.0735 -0.1797  2.0776
 2410SOL    MW4 9408   3.135   4.397   5.474 -0.0210 -0.3307  0.4620
 2411SOL     OW 9409   5.352   4.864   5.095 -0.5509 -0.1977  0.0296
 2411SOL    HW2 9410   5.320   4.776   5.074 -0.9202  0.4487 -2.4560
 2411SOL    HW3 9411   5.424   4.879   5.033 -0.6131  1.3152  0.2741
 2411SOL    MW4 9412   5.357   4.855   5.084 -0.6078  0.0872 -0.2661
 2412SOL     OW 9413   3.338   2.930   6.274 -0.0881  0.0041 -0.2474
 2412SOL    HW2 9414   3.352   2.986   6.197  0.9642 -1.5566 -1.2666
 2412SOL    HW3 9415   3.290   2.854   6.240 -0.7168 -0.1283  0.9071
 2412SOL    MW4 9416   3.334   2.927   6.259 -0.0322 -0.2193 -0.2296
 2413SOL     OW 9417   0.144   0.257   3.437 -0.5334  0.0381  0.0922
 2413SOL    HW2 9418   0.179   0.346   3.431 -2.9834  1.0190 -1.4855
 2413SOL    HW3 9419   0.061   0.261   3.390 -1.0609 -2.9564  0.5522
 2413SOL    MW4 9420   0.138   0.269   3.430 -0.9263 -0.2275 -0.0552
 2414SOL     OW 9421   5.212   2.294   0.159 -0.1683  0.0178  0.2966
 2414SOL    HW2 9422   5.129   2.287   0.112  0.4243 -3.2892 -0.5223
 2414SOL    HW3 9423   5.191   2.268   0.249 -0.0303 -0.9632  0.0552
 2414SOL    MW4 9424   5.198   2.290   0.165 -0.0719 -0.5479  0.1567
 2415SOL     OW 9425   5.673   0.646   1.626 -0.2321 -0.2215 -0.0045
 2415SOL    HW2 9426   5.716   0.683   1.550  2.6706  0.4550  1.7895
 2415SOL    HW3 9427   5.734   0.579   1.658 -1.0176 -0.0337  2.0775
 2415SOL    MW4 9428   5.687   0.642   1.620  0.0472 -0.1075  0.5069
 2416SOL     OW 9429   4.534   4.187   6.113 -0.3870  0.4150 -0.6368
 2416SOL    HW2 9430   4.559   4.264   6.063  0.8451 -0.9391 -2.2221
 2416SOL    HW3 9431   4.481   4.135   6.052  0.2374 -0.7817 -0.1899
 2416SOL    MW4 9432   4.530   4.190   6.098 -0.1420  0.0785 -0.7870
 2417SOL     OW 9433   1.715   2.521   3.960 -0.1528 -0.0969  0.4660
 2417SOL    HW2 9434   1.757   2.567   3.888 -1.7874  0.1802 -0.3492
 2417SOL    HW3 9435   1.761   2.551   4.038  0.9057  0.4499 -0.3467
 2417SOL    MW4 9436   1.727   2.531   3.961 -0.2288  0.0118  0.2512
 2418SOL     OW 9437   4.754   0.441   5.750  0.1403  0.2619  0.1011
 2418SOL    HW2 9438   4.799   0.358   5.764 -1.0916 -2.2243 -6.6529
 2418SOL    HW3 9439   4.661   0.419   5.752 -0.2018  1.1105 -2.4594
 2418SOL    MW4 9440   4.747   0.428   5.752 -0.0674  0.0458 -1.1279
 2419SOL     OW 9441   1.513   2.151   0.721  0.2253 -0.2649 -0.1326
 2419SOL    HW2 9442   1.580   2.084   0.706  0.8813  0.2247  0.5270
 2419SOL    HW3 9443   1.528   2.216   0.652  0.0573 -0.4324 -0.3292
 2419SOL    MW4 9444   1.524   2.151   0.710  0.2897 -0.2224 -0.0715
 2420SOL     OW 9445   2.927   5.966   3.611 -0.1559  0.0438  0.2314
 2420SOL    HW2 9446   2.927   6.057   3.640 -0.5652  0.0949  0.0782
 2420SOL    HW3 9447   2.885   5.968   3.525 -0.2642 -0.3028  0.2745
 2420SOL    MW4 9448   2.921   5.978   3.604 -0.2242  0.0048  0.2169
 2421SOL     OW 9449   6.058   2.909   3.891 -0.3669 -0.0333 -0.1559
 2421SOL    HW2 9450   5.963   2.904   3.903 -0.5539  0.2139 -1.3411
 2421SOL    HW3 9451   6.078   3.002   3.902 -0.2120 -0.1324  0.4037
 2421SOL    MW4 9452   6.048   2.920   3.894 -0.3711 -0.0137 -0.2384
 2422SOL     OW 9453   1.420   0.411   1.473  0.3561  0.5735 -0.5521
 2422SOL    HW2 9454   1.459   0.330   1.506  1.2830  1.0180 -0.5293
 2422SOL    HW3 9455   1.427   0.473   1.546 -0.7135  0.5613 -0.4310
 2422SOL    MW4 9456   1.426   0.409   1.487  0.3373  0.6306 -0.5331
 2423SOL     OW 9457   5.183   4.410   4.053 -0.4088 -0.1077 -0.2146
 2423SOL    HW2 9458   5.125   4.486   4.062 -0.4048  0.2046 -2.3176
 2423SOL    HW3 9459   5.267   4.440   4.089 -0.0004  1.4478 -2.2869
 2423SOL    MW4 9460   5.187   4.424   4.059 -0.3544  0.1388 -0.7655
 2424SOL     OW 9461   2.675   3.788   3.871  0.0528  0.2430  0.6780
 2424SOL    HW2 9462   2.769   3.782   3.889  0.1159 -0.2645  0.2266
 2424SOL    HW3 9463   2.671   3.823   3.781 -0.2167  1.3229  1.0973
 2424SOL    MW4 9464   2.687   3.792   3.861  0.0255  0.3185  0.6738
 2425SOL     OW 9465   3.930   5.394   5.393  0.1696 -0.0095 -0.1704
 2425SOL    HW2 9466   3.981   5.331   5.342  3.8796  0.9861  1.9020
 2425SOL    HW3 9467   3.958   5.480   5.362 -0.4363  0.5965  0.8739
 2425SOL    MW4 9468   3.941   5.397   5.382  0.5791  0.2018  0.2408
 2426SOL     OW 9469   6.184   2.487   3.963 -0.2894 -0.4144  0.0808
 2426SOL    HW2 9470   6.138   2.523   3.888  2.7115  0.2798 -1.5806
 2426SOL    HW3 9471   6.186   2.558   4.027 -0.6617 -0.1417 -0.2084
 2426SOL    MW4 9472   6.178   2.501   3.962  0.0574 -0.2868 -0.1766
 2427SOL     OW 9473   3.661   0.259   1.674 -0.0293  0.1919  0.2807
 2427SOL    HW2 9474   3.580   0.207   1.683 -0.1813 -0.0241 -1.8006
 2427SOL    HW3 9475   3.693   0.268   1.764 -1.4757 -1.1426  1.0005
 2427SOL    MW4 9476   3.654   0.253   1.687 -0.2402 -0.0127  0.1011
 2428SOL     OW 9477   4.620   6.105   5.506 -0.3932  0.8592  0.0738
 2428SOL    HW2 9478   4.597   6.102   5.413  1.8406  0.0244 -0.5098
 2428SOL    HW3 9479   4.579   6.185   5.539 -0.7601  1.4578 -1.7434
 2428SOL    MW4 9480   4.611   6.115   5.498 -0.1469  0.8281 -0.2429
 2429SOL     OW 9481   1.413   5.538   5.198  0.3746  0.3641  0.0296
 2429SOL    HW2 9482   1.501   5.506   5.179  0.8695  1.2015  0.8082
 2429SOL    HW3 9483   1.387   5.585   5.120  0.6059  0.0922 -0.2145
 2429SOL    MW4 9484   1.421   5.540   5.185  0.4704  0.4387  0.1001
 2430SOL     OW 9485   2.519   3.583   3.945  0.3556  0.2586 -0.0122
 2430SOL    HW2 9486   2.572   3.657   3.914  0.0169  1.1494  1.4029
 2430SOL    HW3 9487   2.474   3.551   3.867  1.9564  0.3254 -1.0059
 2430SOL    MW4 9488   2.520   3.589   3.931  0.5221  0.3850  0.0434
 2431SOL     OW 9489   1.769   5.792   1.207  0.5889 -0.2279  0.2660
 2431SOL    HW2 9490   1.834   5.741   1.256 -0.4112 -1.1084  0.6906
 2431SOL    HW3 9491   1.721   5.840   1.274 -0.3814 -0.9686  0.1141
 2431SOL    MW4 9492   1.771   5.791   1.222  0.3289 -0.4418  0.3020
 2432SOL     OW 9493   6.295   4.433   2.997 -0.0584 -0.2207 -0.5061
 2432SOL    HW2 9494   6.314   4.491   2.924  0.7537  2.0135  1.3756
 2432SOL    HW3 9495   6.344   4.353   2.978  2.8415  1.5092 -0.8868
 2432SOL    MW4 9496   6.304   4.430   2.985  0.4313  0.3023 -0.3081
 2433SOL     OW 9497   1.122   2.222   4.318 -0.3811 -0.1468 -0.5906
 2433SOL    HW2 9498   1.104   2.310   4.286  3.0367  0.8599 -0.2171
 2433SOL    HW3 9499   1.062   2.210   4.391 -1.3990  1.5849 -1.0841
 2433SOL    MW4 9500   1.112   2.232   4.323 -0.0645  0.2145 -0.6064
 2434SOL     OW 9501   1.177   4.840   4.068  0.2068 -0.2288 -0.2971
 2434SOL    HW2 9502   1.224   4.923   4.079 -2.3704  1.6243 -2.2351
 2434SOL    HW3 9503   1.128   4.830   4.150 -1.2055  1.4238 -0.8864
 2434SOL    MW4 9504   1.177   4.850   4.081 -0.3196  0.2337 -0.6306
 2435SOL     OW 9505   0.069   0.777   5.415  0.1301 -0.6932 -0.0152
 2435SOL    HW2 9506  -0.001   0.788   5.479  0.3547 -0.5710  0.2125
 2435SOL    HW3 9507   0.073   0.862   5.370 -2.0961 -1.6829 -2.3398
 2435SOL    MW4 9508   0.061   0.790   5.417 -0.1340 -0.8077 -0.2918
 2436SOL     OW 9509   4.786   1.366   6.119 -0.1862  0.3246  0.2243
 2436SOL    HW2 9510   4.860   1.381   6.060 -0.2485 -1.8981 -0.5063
 2436SOL    HW3 9511   4.824   1.369   6.206  0.3175  1.4418 -0.0113
 2436SOL    MW4 9512   4.801   1.368   6.123 -0.1279  0.1787  0.0968
 2437SOL     OW 9513   0.533   2.505   2.093 -0.2935  0.7868 -0.6122
 2437SOL    HW2 9514   0.601   2.526   2.157 -0.8365 -0.1670  0.2910
 2437SOL    HW3 9515   0.451   2.506   2.142 -0.7064 -0.0911 -1.2437
 2437SOL    MW4 9516   0.531   2.508   2.108 -0.4196  0.5451 -0.5763
 2438SOL     OW 9517   2.691   3.619   4.827  0.2563 -0.0149 -0.0273
 2438SOL    HW2 9518   2.745   3.548   4.792 -0.5931 -0.6835 -0.0243
 2438SOL    HW3 9519   2.601   3.593   4.806 -0.0189  3.2776 -4.3984
 2438SOL    MW4 9520   2.686   3.606   4.820  0.1079  0.3313 -0.6036
 2439SOL     OW 9521   4.321   2.565   4.863  0.0354  0.2773 -0.2975
 2439SOL    HW2 9522   4.369   2.630   4.812  0.6068 -0.1886 -0.3678
 2439SOL    HW3 9523   4.385   2.495   4.879 -0.5417 -0.2274 -0.1593
 2439SOL    MW4 9524   4.336   2.564   4.858  0.0347  0.1492 -0.2885
 2440SOL     OW 9525   2.656   5.287   5.063  0.3245 -0.2979 -0.0953
 2440SOL    HW2 9526   2.707   5.218   5.020  0.2807  1.2803 -2.8898
 2440SOL    HW3 9527   2.686   5.286   5.154  2.1442 -2.2932 -0.6400
 2440SOL    MW4 9528   2.666   5.278   5.070  0.5588 -0.3530 -0.5359
 2441SOL     OW 9529   2.903   2.684   2.724  0.2726 -0.0171 -0.5481
 2441SOL    HW2 9530   2.946   2.656   2.805 -0.4472  1.7569  0.5144
 2441SOL    HW3 9531   2.812   2.700   2.749 -0.9115 -2.8693 -2.5574
 2441SOL    MW4 9532   2.896   2.683   2.738  0.0214 -0.1594 -0.6730
 2442SOL     OW 9533   0.797   4.392   5.194  0.0417 -0.1245  0.1286
 2442SOL    HW2 9534   0.728   4.394   5.127 -0.6234  0.6946  0.8097
 2442SOL    HW3 9535   0.750   4.405   5.277  0.8754 -0.8804  0.7416
 2442SOL    MW4 9536   0.782   4.394   5.196  0.0639 -0.1161  0.2994
 2443SOL     OW 9537   1.958   4.916   0.189 -0.5781 -0.7497 -0.3199
 2443SOL    HW2 9538   1.886   4.908   0.127 -1.5418  1.2410  0.4566
 2443SOL    HW3 9539   1.919   4.891   0.273  0.6495 -3.1974 -0.3849
 2443SOL    MW4 9540   1.943   4.912   0.192 -0.5433 -0.8100 -0.2260
 2444SOL     OW 9541   3.640   2.186   3.604  0.0131 -0.5522  0.9018
 2444SOL    HW2 9542   3.572   2.120   3.595  0.8391 -1.3632  0.4548
 2444SOL    HW3 9543   3.720   2.143   3.573  0.4404  0.8850 -0.1038
 2444SOL    MW4 9544   3.642   2.172   3.599  0.1785 -0.4696  0.7102
 2445SOL     OW 9545   1.158   5.979   4.676 -0.2551  0.0321 -0.2182
 2445SOL    HW2 9546   1.169   5.907   4.614  3.0095 -1.2023  1.5417
 2445SOL    HW3 9547   1.190   6.056   4.629 -1.6090 -0.0686 -1.3552
 2445SOL    MW4 9548   1.164   5.979   4.662 -0.0030 -0.1441 -0.1360
 2446SOL     OW 9549   6.024   5.854   3.796 -0.0185 -0.3866  0.0002
 2446SOL    HW2 9550   6.048   5.803   3.874  0.2540  1.3973  1.1400
 2446SOL    HW3 9551   5.931   5.838   3.785 -0.3596  0.3259  1.5183
 2446SOL    MW4 9552   6.015   5.845   3.805 -0.0276 -0.0572  0.3509
 2447SOL     OW 9553   1.281   5.642   3.525  0.4789  0.0110 -0.2699
 2447SOL    HW2 9554   1.366   5.637   3.568  0.7391  1.5604 -0.5468
 2447SOL    HW3 9555   1.223   5.681   3.591  0.1835 -0.2523 -0.3694
 2447SOL    MW4 9556   1.284   5.647   3.539  0.4743  0.1807 -0.3195
 2448SOL     OW 9557   5.874   1.298   3.729  0.0453 -0.7265  0.4533
 2448SOL    HW2 9558   5.893   1.215   3.772 -0.6400 -0.7616  0.6962
 2448SOL    HW3 9559   5.842   1.355   3.799  0.3287 -0.3134  0.2552
 2448SOL    MW4 9560   5.872   1.295   3.744 -0.0077 -0.6766  0.4592
 2449SOL     OW 9561   5.631   5.830   4.865 -0.4168  0.0944 -0.5230
 2449SOL    HW2 9562   5.558   5.791   4.817  0.6231 -1.4257 -0.9428
 2449SOL    HW3 9563   5.709   5.802   4.817  0.7448 -2.0593  2.3170
 2449SOL    MW4 9564   5.631   5.821   4.852 -0.1263 -0.3903 -0.2037
 2450SOL     OW 9565   3.454   0.048   4.791 -0.1023  0.2824 -0.5214
 2450SOL    HW2 9566   3.387   0.055   4.859  1.7122 -0.5054  1.4953
 2450SOL    HW3 9567   3.502   0.130   4.797  2.0907 -1.0037  1.5884
 2450SOL    MW4 9568   3.452   0.060   4.801  0.4264  0.0088  0.0231
 2451SOL     OW 9569   4.920   5.526   5.014  0.0010  0.5465  0.6208
 2451SOL    HW2 9570   5.006   5.559   4.989 -0.6468  2.6343  0.9236
 2451SOL    HW3 9571   4.919   5.529   5.110  0.5239 -2.1716  0.8004
 2451SOL    MW4 9572   4.931   5.531   5.024 -0.0155  0.4634  0.6845
 2452SOL     OW 9573   4.712   3.427   0.911  0.7205  0.0784 -0.1061
 2452SOL    HW2 9574   4.786   3.368   0.929  0.0994 -1.8654 -3.1921
 2452SOL    HW3 9575   4.635   3.376   0.935  0.2020 -0.2347 -2.2242
 2452SOL    MW4 9576   4.711   3.412   0.916  0.5702 -0.2194 -0.7928
 2453SOL     OW 9577   5.378   2.223   0.509  0.5943  0.5170 -0.0493
 2453SOL    HW2 9578   5.399   2.316   0.517 -0.1190  0.6106  0.9553
 2453SOL    HW3 9579   5.377   2.191   0.599 -0.7655 -0.0938 -0.2652
 2453SOL    MW4 9580   5.381   2.231   0.522  0.3208  0.4488  0.0547
 2454SOL     OW 9581   3.742   1.418   3.316  0.0766  0.5059  0.0167
 2454SOL    HW2 9582   3.802   1.402   3.243  0.9001  2.4321  0.2164
 2454SOL    HW3 9583   3.750   1.340   3.371  2.8432  0.8902  0.2887
 2454SOL    MW4 9584   3.751   1.406   3.314  0.5503  0.8108  0.0790
 2455SOL     OW 9585   5.462   3.882   1.106  0.5608  0.3571 -0.6514
 2455SOL    HW2 9586   5.550   3.903   1.075  2.1163 -2.1531  1.5661
 2455SOL    HW3 9587   5.473   3.800   1.153 -2.4305  1.3109  2.0942
 2455SOL    MW4 9588   5.475   3.874   1.108  0.3714  0.1518  0.0034
 2456SOL     OW 9589   0.151   2.019   0.758 -0.1890 -0.2563  0.3132
 2456SOL    HW2 9590   0.129   2.101   0.802 -0.7176  1.1370 -2.3730
 2456SOL    HW3 9591   0.067   1.987   0.724 -0.0959 -2.3040  1.8228
 2456SOL    MW4 9592   0.137   2.025   0.760 -0.2464 -0.3426  0.1580
 2457SOL     OW 9593   3.357   6.159   4.154  0.2601 -0.1202 -0.1314
 2457SOL    HW2 9594   3.379   6.246   4.187 -0.7205  0.1562 -0.1931
 2457SOL    HW3 9595   3.297   6.123   4.219 -0.8301 -0.0006 -1.0477
 2457SOL    MW4 9596   3.352   6.166   4.167 -0.0131 -0.0680 -0.2604
 2458SOL     OW 9597   0.701   0.488   4.926 -0.3299 -0.3108  0.2234
 2458SOL    HW2 9598   0.792   0.463   4.916  0.1079  1.6045 -1.2471
 2458SOL    HW3 9599   0.657   0.450   4.850 -0.4518  0.0173  0.1285
 2458SOL    MW4 9600   0.707   0.480   4.914 -0.2882 -0.0148  0.0169
 2459SOL     OW 9601   3.401   4.722   0.265 -1.0282 -0.4174 -0.8362
 2459SOL    HW2 9602   3.407   4.647   0.206 -0.9802 -1.7794  0.8198
 2459SOL    HW3 9603   3.473   4.780   0.238 -0.5454 -1.3618 -1.6356
 2459SOL    MW4 9604   3.412   4.720   0.254 -0.9581 -0.7217 -0.7232
 2460SOL     OW 9605   5.027   2.259   2.920  0.4148  0.4478  0.3400
 2460SOL    HW2 9606   4.960   2.212   2.970  0.5840  0.4533  0.5744
 2460SOL    HW3 9607   5.035   2.344   2.964  2.4102 -0.4841  1.9408
 2460SOL    MW4 9608   5.019   2.264   2.933  0.7004  0.3255  0.5821
 2461SOL     OW 9609   0.936   0.159   2.835  0.0916 -0.4767  0.0504
 2461SOL    HW2 9610   1.006   0.193   2.780 -1.3370  0.7137 -1.1448
 2461SOL    HW3 9611   0.870   0.126   2.773 -1.0291 -0.2342  1.0684
 2461SOL    MW4 9612   0.936   0.159   2.820 -0.2447 -0.2876  0.0270
 2462SOL     OW 9613   4.982   3.078   1.068 -0.5714 -0.2426  0.4827
 2462SOL    HW2 9614   4.957   3.152   1.012 -0.3686 -0.1625  0.4964
 2462SOL    HW3 9615   4.899   3.042   1.099 -0.6757  1.6207  2.6068
 2462SOL    MW4 9616   4.968   3.083   1.065 -0.5584  0.0138  0.7648
 2463SOL     OW 9617   0.542   6.297   0.933 -0.6865 -0.3969  0.4082
 2463SOL    HW2 9618   0.612   6.248   0.975 -0.1289  0.8373  0.9619
 2463SOL    HW3 9619   0.535   6.259   0.845  1.3764  0.0824 -0.0151
 2463SOL    MW4 9620   0.550   6.286   0.927 -0.3408 -0.1709  0.4254
 2464SOL     OW 9621   1.094   0.821   3.103 -0.3762 -0.0133  0.3129
 2464SOL    HW2 9622   1.161   0.763   3.140 -0.9020 -1.9543 -1.5744
 2464SOL    HW3 9623   1.108   0.818   3.008 -1.6986  1.3759  0.0214
 2464SOL    MW4 9624   1.104   0.813   3.095 -0.6201 -0.0861  0.0254
 2465SOL     OW 9625   0.142   4.940   0.995 -0.1741  0.1855  0.1512
 2465SOL    HW2 9626   0.077   4.919   1.061 -1.0113  1.1781 -0.3367
 2465SOL    HW3 9627   0.107   4.902   0.914  1.1464 -1.5904  0.3365
 2465SOL    MW4 9628   0.129   4.932   0.993 -0.1104  0.0822  0.1112
 2466SOL     OW 9629   6.298   3.233   3.661  0.1004 -0.4844  0.4302
 2466SOL    HW2 9630   6.204   3.236   3.674  0.0702 -1.6922  0.6831
 2466SOL    HW3 9631   6.315   3.142   3.633  0.8459  0.4273 -2.4842
 2466SOL    MW4 9632   6.288   3.221   3.659  0.1948 -0.5235  0.0791
 2467SOL     OW 9633   4.730   5.313   5.282 -0.2176  0.0645 -0.2372
 2467SOL    HW2 9634   4.784   5.392   5.284 -0.9046  0.5704 -0.6917
 2467SOL    HW3 9635   4.656   5.334   5.339 -0.9088  0.1554 -1.1269
 2467SOL    MW4 9636   4.727   5.326   5.289 -0.3994  0.1432 -0.4145
 2468SOL     OW 9637   1.592   0.409   5.874 -0.5364 -0.1571  0.6629
 2468SOL    HW2 9638   1.683   0.378   5.872 -0.0360  1.2294  0.3088
 2468SOL    HW3 9639   1.549   0.355   5.939  0.3469 -1.3717  0.2692
 2468SOL    MW4 9640   1.598   0.398   5.882 -0.3538 -0.1344  0.5642
 2469SOL     OW 9641   6.174   0.779   4.330  0.1789  0.1732 -0.2807
 2469SOL    HW2 9642   6.114   0.767   4.404 -0.0182 -0.2445 -0.5078
 2469SOL    HW3 9643   6.118   0.802   4.257  0.4539  1.5786 -0.0934
 2469SOL    MW4 9644   6.159   0.781   4.330  0.1892  0.3036 -0.2860
 2470SOL     OW 9645   3.632   4.400   1.047  0.1339  0.3305  0.4425
 2470SOL    HW2 9646   3.556   4.450   1.019 -0.6986 -0.9598  0.3225
 2470SOL    HW3 9647   3.596   4.324   1.092  1.3816  0.7409  2.2752
 2470SOL    MW4 9648   3.618   4.396   1.049  0.1887  0.2144  0.6685
 2471SOL     OW 9649   2.707   3.496   0.232  0.0358 -0.4820 -0.1233
 2471SOL    HW2 9650   2.784   3.501   0.289  0.2359 -1.1264 -0.3273
 2471SOL    HW3 9651   2.697   3.402   0.213  0.1262 -0.2620 -1.3496
 2471SOL    MW4 9652   2.716   3.484   0.237  0.0741 -0.5380 -0.3120
 2472SOL     OW 9653   3.075   2.241   5.849 -0.0232  0.2970 -0.4402
 2472SOL    HW2 9654   3.094   2.194   5.930  0.7943 -0.3609 -0.9962
 2472SOL    HW3 9655   3.088   2.176   5.780  2.1621  1.5750 -1.3236
 2472SOL    MW4 9656   3.079   2.226   5.850  0.3730  0.3788 -0.6301
 2473SOL     OW 9657   5.117   6.002   0.982 -0.4199  0.3185 -0.0182
 2473SOL    HW2 9658   5.120   5.907   0.968 -0.4744  0.3710 -0.3922
 2473SOL    HW3 9659   5.050   6.014   1.049 -0.2916  0.0804  0.1559
 2473SOL    MW4 9660   5.109   5.991   0.989 -0.4101  0.2940 -0.0445
 2474SOL     OW 9661   2.488   4.701   4.354 -0.2968  0.5792  0.1704
 2474SOL    HW2 9662   2.502   4.750   4.434 -0.7342  1.7237 -0.4320
 2474SOL    HW3 9663   2.403   4.730   4.322  0.1550  0.6416 -1.0445
 2474SOL    MW4 9664   2.479   4.711   4.360 -0.2949  0.7385 -0.0694
 2475SOL     OW 9665   6.403   3.628   3.615  0.1442 -0.1019  0.2878
 2475SOL    HW2 9666   6.439   3.692   3.554 -0.7835  0.5494  0.4181
 2475SOL    HW3 9667   6.310   3.623   3.593  0.1329 -1.1371  0.5181
 2475SOL    MW4 9668   6.396   3.636   3.604  0.0203 -0.1525  0.3354
 2476SOL     OW 9669   2.068   1.683   0.768 -0.2864 -0.4809 -0.8942
 2476SOL    HW2 9670   1.987   1.637   0.749 -0.5360 -0.7747  0.7347
 2476SOL    HW3 9671   2.064   1.701   0.862  0.7722  0.9926 -1.0927
 2476SOL    MW4 9672   2.057   1.679   0.778 -0.1796 -0.3252 -0.7055
 2477SOL     OW 9673   5.225   2.786   2.994  0.4215  0.0723 -0.1516
 2477SOL    HW2 9674   5.174   2.707   3.015 -2.7854  2.2968  1.1456
 2477SOL    HW3 9675   5.215   2.797   2.900  1.0983 -1.1461 -0.3854
 2477SOL    MW4 9676   5.217   2.777   2.984  0.0877  0.2051 -0.0113
 2478SOL     OW 9677   2.216   1.183   1.165  0.2130 -0.1746 -0.1444
 2478SOL    HW2 9678   2.207   1.242   1.240  1.1909  0.3833 -0.4545
 2478SOL    HW3 9679   2.247   1.239   1.094 -0.5992 -0.7149 -0.9551
 2478SOL    MW4 9680   2.219   1.198   1.166  0.2349 -0.1723 -0.2923
 2479SOL     OW 9681   0.562   4.057   4.761  0.2853  0.9120  0.6382
 2479SOL    HW2 9682   0.615   4.063   4.840 -0.4749  0.7222  1.1726
 2479SOL    HW3 9683   0.472   4.046   4.793  0.0343  0.2531 -0.2522
 2479SOL    MW4 9684   0.557   4.057   4.776  0.1519  0.8000  0.5912
 2480SOL     OW 9685   3.264   2.406   0.957 -0.3699 -0.0134  0.6149
 2480SOL    HW2 9686   3.335   2.344   0.971 -0.7434 -0.9050 -1.1794
 2480SOL    HW3 9687   3.222   2.413   1.043  0.0530 -1.7914  1.0145
 2480SOL    MW4 9688   3.267   2.399   0.970 -0.3634 -0.3656  0.4309
 2481SOL     OW 9689   5.836   0.359   6.199 -0.3899 -0.6341 -0.2455
 2481SOL    HW2 9690   5.910   0.305   6.230 -0.6152 -0.6394  0.2950
 2481SOL    HW3 9691   5.877   0.426   6.144  0.0114 -0.6991 -0.0329
 2481SOL    MW4 9692   5.851   0.361   6.196 -0.3667 -0.6434 -0.1461
 2482SOL     OW 9693   3.708   1.363   5.392 -0.0936 -0.0760 -0.5108
 2482SOL    HW2 9694   3.691   1.409   5.474 -0.9207 -0.0826 -0.6658
 2482SOL    HW3 9695   3.694   1.429   5.324 -1.9795 -0.6853 -0.7711
 2482SOL    MW4 9696   3.704   1.378   5.394 -0.4515 -0.1573 -0.5656
 2483SOL     OW 9697   0.533   1.995   0.104 -0.2969 -0.0796  0.1420
 2483SOL    HW2 9698   0.468   2.046   0.152  2.3951  1.5204  2.4430
 2483SOL    HW3 9699   0.523   1.906   0.138 -0.8565  0.2739  0.9361
 2483SOL    MW4 9700   0.523   1.990   0.115 -0.0156  0.1781  0.5503
 2484SOL     OW 9701   2.111   0.925   5.075 -0.2377 -0.1189 -0.8422
 2484SOL    HW2 9702   2.096   0.873   4.996  0.1241  0.1076 -1.0635
 2484SOL    HW3 9703   2.206   0.938   5.078 -0.2946  0.2677 -0.6201
 2484SOL    MW4 9704   2.122   0.920   5.065 -0.1975 -0.0380 -0.8421
 2485SOL     OW 9705   4.983   3.809   4.318 -0.1453  0.4941 -0.5720
 2485SOL    HW2 9706   5.009   3.877   4.255 -0.1576  1.5883  0.5803
 2485SOL    HW3 9707   5.042   3.736   4.299 -1.6992 -0.1894 -3.4838
 2485SOL    MW4 9708   4.994   3.808   4.307 -0.3519  0.5483 -0.8042
 2486SOL     OW 9709   0.646   0.727   4.785 -0.3348 -0.0454  0.1828
 2486SOL    HW2 9710   0.679   0.652   4.834  0.1682  0.4186  0.5670
 2486SOL    HW3 9711   0.586   0.770   4.845  2.3594  2.1305  1.5608
 2486SOL    MW4 9712   0.643   0.722   4.799  0.0870  0.3029  0.4153
 2487SOL     OW 9713   6.134   3.934   4.409 -0.3612 -0.3108  0.4509
 2487SOL    HW2 9714   6.204   3.992   4.438 -1.0474  0.2408  1.0233
 2487SOL    HW3 9715   6.087   3.984   4.343 -0.4973 -0.5093  0.3981
 2487SOL    MW4 9716   6.137   3.948   4.404 -0.4697 -0.2642  0.5194
 2488SOL     OW 9717   4.173   4.402   5.212 -0.1991 -0.3996 -0.0918
 2488SOL    HW2 9718   4.149   4.448   5.293  1.5157 -0.3559  0.4458
 2488SOL    HW3 9719   4.169   4.470   5.145 -0.3862 -0.1215  0.1943
 2488SOL    MW4 9720   4.169   4.417   5.214  0.0025 -0.3572  0.0169
 2489SOL     OW 9721   3.484   5.342   1.916 -0.1358 -0.1993  0.4721
 2489SOL    HW2 9722   3.412   5.385   1.963 -0.5235  1.7699 -1.7523
 2489SOL    HW3 9723   3.563   5.389   1.944 -0.4084  1.2121 -1.0007
 2489SOL    MW4 9724   3.485   5.353   1.926 -0.2229  0.2467 -0.0157
 2490SOL     OW 9725   0.024   0.114   3.656 -0.0770  0.6635  0.0595
 2490SOL    HW2 9726   0.063   0.175   3.594 -0.2809  0.0930 -0.6448
 2490SOL    HW3 9727   0.092   0.100   3.722  0.1338  1.2896 -0.0141
 2490SOL    MW4 9728   0.038   0.120   3.656 -0.0761  0.6708 -0.0431
 2491SOL     OW 9729   3.955   4.266   5.882  0.0912  0.2631 -0.3976
 2491SOL    HW2 9730   4.046   4.237   5.880 -0.2245 -0.8870  0.8646
 2491SOL    HW3 9731   3.925   4.256   5.792  0.6549 -1.2223 -0.4425
 2491SOL    MW4 9732   3.963   4.261   5.870  0.1239 -0.0846 -0.2370
 2492SOL     OW 9733   5.728   3.963   3.140  0.1705  0.1073 -0.3391
 2492SOL    HW2 9734   5.814   3.958   3.100  0.0974  1.3640 -0.6843
 2492SOL    HW3 9735   5.734   3.906   3.217  0.7242 -1.2517 -1.3703
 2492SOL    MW4 9736   5.740   3.955   3.145  0.2339  0.0938 -0.5207
 2493SOL     OW 9737   2.012   3.397   0.446 -0.4055  0.8726  0.3539
 2493SOL    HW2 9738   1.981   3.417   0.534 -2.0493 -1.4456  0.4136
 2493SOL    HW3 9739   1.944   3.340   0.410  1.1596  0.1892 -1.6917
 2493SOL    MW4 9740   1.999   3.392   0.453 -0.4159  0.4765  0.0919
 2494SOL     OW 9741   5.283   2.760   3.917  0.5613 -0.2600 -0.4469
 2494SOL    HW2 9742   5.324   2.786   3.835  1.3404  0.2359  0.0882
 2494SOL    HW3 9743   5.349   2.777   3.984 -0.0546 -0.6673  0.2890
 2494SOL    MW4 9744   5.297   2.766   3.915  0.5828 -0.2483 -0.2792
 2495SOL     OW 9745   4.537   3.598   2.384  0.0723 -0.0605 -0.5059
 2495SOL    HW2 9746   4.475   3.653   2.431 -0.2701 -0.3560 -0.6041
 2495SOL    HW3 9747   4.560   3.648   2.306  2.2442  1.3735  0.9320
 2495SOL    MW4 9748   4.532   3.612   2.380  0.3137  0.0897 -0.3291
 2496SOL     OW 9749   4.831   5.529   5.722  0.0579 -0.5750 -0.3109
 2496SOL    HW2 9750   4.768   5.536   5.795  0.7626 -0.6938  0.3173
 2496SOL    HW3 9751   4.917   5.535   5.764  0.4787  1.7108 -1.3594
 2496SOL    MW4 9752   4.834   5.531   5.737  0.2064 -0.2891 -0.3664
 2497SOL     OW 9753   4.505   3.396   5.017  0.0317  0.0204 -0.1533
 2497SOL    HW2 9754   4.513   3.404   5.112 -1.6812  0.3276 -0.0108
 2497SOL    HW3 9755   4.541   3.478   4.983 -2.9661  1.7081  0.4791
 2497SOL    MW4 9756   4.511   3.408   5.025 -0.5898  0.2836 -0.0511
 2498SOL     OW 9757   5.955   1.014   3.374  0.4469 -0.3415 -0.4638
 2498SOL    HW2 9758   5.980   0.957   3.447 -0.2965  1.7585  1.5768
 2498SOL    HW3 9759   5.859   1.009   3.373  0.3310  1.2902  0.1862
 2498SOL    MW4 9760   5.945   1.006   3.384  0.3335  0.1508 -0.1088
 2499SOL     OW 9761   5.266   4.731   3.651  0.1266  0.3965  0.4692
 2499SOL    HW2 9762   5.339   4.697   3.599  0.3775 -0.5573  1.3909
 2499SOL    HW3 9763   5.248   4.661   3.714  0.1990  1.7116  2.0146
 2499SOL    MW4 9764   5.274   4.717   3.653  0.1693  0.4442  0.7947
 2500SOL     OW 9765   2.290   4.760   0.591 -0.2191 -0.2189 -0.1690
 2500SOL    HW2 9766   2.290   4.759   0.687  0.8625 -0.0485 -0.1550
 2500SOL    HW3 9767   2.309   4.669   0.566 -0.8636 -0.3423 -0.2386
 2500SOL    MW4 9768   2.292   4.748   0.600 -0.1614 -0.2127 -0.1764
 2501SOL     OW 9769   5.218   6.290   6.363 -0.1729  0.2785  0.0835
 2501SOL    HW2 9770   5.127   6.320   6.361  0.1212  1.1682 -1.8823
 2501SOL    HW3 9771   5.248   6.299   6.273  2.0898  0.6962  0.8261
 2501SOL    MW4 9772   5.210   6.296   6.351  0.1645  0.4510 -0.0779
 2502SOL     OW 9773   2.802   0.169   3.905  0.1082  0.8221  0.0006
 2502SOL    HW2 9774   2.759   0.089   3.874  0.0025 -1.3486  4.9404
 2502SOL    HW3 9775   2.883   0.139   3.945  1.7525  3.7380 -0.8179
 2502SOL    MW4 9776   2.807   0.154   3.906  0.3112  0.9204  0.5443
 2503SOL     OW 9777   5.478   1.371   0.203 -0.0670  0.4179 -0.3365
 2503SOL    HW2 9778   5.532   1.449   0.216 -0.4121  0.6665 -0.3963
 2503SOL    HW3 9779   5.520   1.326   0.129  1.1049 -0.3129  0.7297
 2503SOL    MW4 9780   5.491   1.375   0.195  0.0421  0.3543 -0.2037
 2504SOL     OW 9781   5.729   5.108   4.563 -0.1811  0.4757  0.5404
 2504SOL    HW2 9782   5.788   5.034   4.551 -0.8157 -0.2520  1.7566
 2504SOL    HW3 9783   5.782   5.185   4.539  0.7854 -0.2796  0.2023
 2504SOL    MW4 9784   5.744   5.109   4.558 -0.1373  0.2800  0.6563
 2505SOL     OW 9785   0.859   6.136   0.031 -0.2137  0.5007 -0.3484
 2505SOL    HW2 9786   0.826   6.160   0.118 -0.9687  0.2104 -0.5449
 2505SOL    HW3 9787   0.850   6.216  -0.021  2.6378  1.4692  0.4728
 2505SOL    MW4 9788   0.853   6.150   0.036  0.0629  0.5902 -0.2660
 2506SOL     OW 9789   4.278   0.466   2.204 -0.1379  0.5562 -0.5654
 2506SOL    HW2 9790   4.309   0.488   2.116  0.2278 -0.6923 -0.7761
 2506SOL    HW3 9791   4.358   0.456   2.255 -0.3608  1.6311  0.0145
 2506SOL    MW4 9792   4.293   0.467   2.199 -0.1191  0.5333 -0.5167
 2507SOL     OW 9793   0.502   3.516   2.695 -0.2946  0.0540 -0.2798
 2507SOL    HW2 9794   0.474   3.568   2.619  0.3144  0.3081 -0.3377
 2507SOL    HW3 9795   0.597   3.505   2.683 -0.3073 -0.4839  0.0948
 2507SOL    MW4 9796   0.511   3.522   2.683 -0.2159  0.0165 -0.2380
 2508SOL     OW 9797   1.546   4.704   1.166 -0.2417  0.4763 -0.3147
 2508SOL    HW2 9798   1.620   4.658   1.206  0.9398  0.7919 -2.0304
 2508SOL    HW3 9799   1.477   4.702   1.233  0.2564 -2.4693  0.2218
 2508SOL    MW4 9800   1.547   4.698   1.180 -0.0201  0.1293 -0.4703
 2509SOL     OW 9801   1.248   0.340   5.815  0.0868 -0.0038 -0.5273
 2509SOL    HW2 9802   1.216   0.387   5.738 -0.9600 -1.7136 -1.1918
 2509SOL    HW3 9803   1.301   0.269   5.780  0.2227 -0.3490  0.3589
 2509SOL    MW4 9804   1.251   0.337   5.800 -0.0334 -0.2749 -0.4980
 2510SOL     OW 9805   2.046   4.682   4.766  0.2220 -0.0467 -0.1529
 2510SOL    HW2 9806   2.136   4.704   4.791  0.6308 -1.7661  0.0296
 2510SOL    HW3 9807   2.050   4.671   4.671  0.1090  0.2602 -0.1942
 2510SOL    MW4 9808   2.058   4.684   4.757  0.2610 -0.2331 -0.1342
 2511SOL     OW 9809   4.224   5.208   0.201  0.4480  0.2755 -1.1836
 2511SOL    HW2 9810   4.166   5.189   0.275  1.0130 -0.3325 -0.8808
 2511SOL    HW3 9811   4.202   5.142   0.136  0.5479  0.2733 -1.2145
 2511SOL    MW4 9812   4.213   5.197   0.202  0.5358  0.1950 -1.1477
 2512SOL     OW 9813   5.092   1.487   2.806  0.1619  0.2568  0.3381
 2512SOL    HW2 9814   5.024   1.478   2.740  0.3183  0.3557  0.1648
 2512SOL    HW3 9815   5.074   1.571   2.848 -0.4464 -0.1856  1.0001
 2512SOL    MW4 9816   5.081   1.497   2.803  0.1023  0.2115  0.4026
 2513SOL     OW 9817   3.381   0.389   5.568  0.1115  0.6159  0.0115
 2513SOL    HW2 9818   3.460   0.440   5.552  1.0029 -0.8328 -0.4359
 2513SOL    HW3 9819   3.404   0.300   5.539 -0.6162 -0.5579  2.6815
 2513SOL    MW4 9820   3.394   0.384   5.562  0.1331  0.2699  0.3048
 2514SOL     OW 9821   5.169   2.376   5.688  0.1718  0.3284  0.0534
 2514SOL    HW2 9822   5.152   2.470   5.688 -0.1726  0.2821 -0.8040
 2514SOL    HW3 9823   5.084   2.336   5.671  0.3879 -0.1136 -0.0124
 2514SOL    MW4 9824   5.156   2.383   5.686  0.1549  0.2639 -0.0684
 2515SOL     OW 9825   4.174   1.663   5.481 -0.3509  0.0120  0.4918
 2515SOL    HW2 9826   4.253   1.660   5.536  0.6663 -0.3733 -0.9345
 2515SOL    HW3 9827   4.141   1.573   5.481 -0.5019  0.0654  0.6603
 2515SOL    MW4 9828   4.180   1.651   5.489 -0.2366 -0.0318  0.3259
 2516SOL     OW 9829   2.601   2.519   5.248  0.2075 -0.4445  0.7594
 2516SOL    HW2 9830   2.579   2.433   5.284 -1.3092 -0.1772  0.5407
 2516SOL    HW3 9831   2.588   2.509   5.154  2.3069 -0.6077  0.4555
 2516SOL    MW4 9832   2.596   2.506   5.240  0.2844 -0.4308  0.6905
 2517SOL     OW 9833   6.070   0.119   3.557  0.1195 -0.2785 -0.3234
 2517SOL    HW2 9834   5.993   0.172   3.536  1.2790  0.8215 -2.0502
 2517SOL    HW3 9835   6.088   0.138   3.650 -0.8721  0.5081 -0.2753
 2517SOL    MW4 9836   6.062   0.129   3.567  0.1417 -0.0295 -0.5449
 2518SOL     OW 9837   5.714   4.316   4.195  0.1801 -0.3030  0.0800
 2518SOL    HW2 9838   5.621   4.334   4.206 -0.0545  0.3919 -2.5652
 2518SOL    HW3 9839   5.718   4.230   4.154  0.5678  0.4293 -1.4906
 2518SOL    MW4 9840   5.703   4.307   4.191  0.2003 -0.1147 -0.4762
 2519SOL     OW 9841   4.435   3.045   0.433 -0.4976  0.5115  0.6259
 2519SOL    HW2 9842   4.384   3.119   0.466 -1.4768 -0.5202  1.4863
 2519SOL    HW3 9843   4.395   3.024   0.349 -1.2485 -0.0107  1.0955
 2519SOL    MW4 9844   4.423   3.052   0.426 -0.7259  0.3065  0.8014
 2520SOL     OW 9845   2.298   4.458   5.825 -0.5999  0.1535  0.6081
 2520SOL    HW2 9846   2.315   4.551   5.833  0.3591  0.0459  0.0282
 2520SOL    HW3 9847   2.203   4.450   5.827 -0.7435  1.2837 -0.7154
 2520SOL    MW4 9848   2.288   4.469   5.826 -0.4923  0.2884  0.3569
 2521SOL     OW 9849   3.234   3.731   5.587 -0.0672  1.0312 -0.8411
 2521SOL    HW2 9850   3.267   3.816   5.616  0.0771  0.7809 -0.2550
 2521SOL    HW3 9851   3.265   3.722   5.497  2.3094  0.3853 -0.0180
 2521SOL    MW4 9852   3.242   3.741   5.579  0.2654  0.9129 -0.6552
 2522SOL     OW 9853   5.092   1.889   3.676 -0.3397  0.1733  0.4615
 2522SOL    HW2 9854   5.066   1.978   3.653 -0.3099 -0.2982 -1.5644
 2522SOL    HW3 9855   5.085   1.886   3.771 -1.5329  1.9586  0.4764
 2522SOL    MW4 9856   5.088   1.901   3.685 -0.4932  0.3466  0.1962
 2523SOL     OW 9857   0.253   0.989   1.958 -0.1818 -0.1223 -0.0103
 2523SOL    HW2 9858   0.273   1.042   2.035 -1.2581  2.4207 -1.3783
 2523SOL    HW3 9859   0.325   0.925   1.955  1.1706  1.1745  1.7659
 2523SOL    MW4 9860   0.265   0.987   1.968 -0.1454  0.3843  0.0435
 2524SOL     OW 9861   2.208   5.053   0.757 -0.3423 -0.6328  0.2906
 2524SOL    HW2 9862   2.137   5.117   0.750 -0.2226 -0.3919  1.0969
 2524SOL    HW3 9863   2.232   5.033   0.667  0.8687  1.8980 -0.0494
 2524SOL    MW4 9864   2.202   5.059   0.744 -0.1667 -0.2671  0.3521
 2525SOL     OW 9865   1.899   2.221   2.413  0.5240  0.6232 -0.2006
 2525SOL    HW2 9866   1.831   2.243   2.349 -0.3131  1.1264  0.8188
 2525SOL    HW3 9867   1.869   2.263   2.494  1.8820  0.5401  0.3587
 2525SOL    MW4 9868   1.886   2.229   2.415  0.5927  0.6786  0.0077
 2526SOL     OW 9869   0.988   0.584   2.304  0.2597  0.0715 -0.6541
 2526SOL    HW2 9870   0.996   0.659   2.364 -0.4311 -0.0514 -0.4059
 2526SOL    HW3 9871   1.056   0.523   2.334  0.1108  0.1348 -0.1741
 2526SOL    MW4 9872   0.998   0.586   2.316  0.1489  0.0636 -0.5580
 2527SOL     OW 9873   3.212   1.093   5.999  0.3779 -0.7384  0.1426
 2527SOL    HW2 9874   3.282   1.158   6.006 -0.5349  0.5168 -1.6507
 2527SOL    HW3 9875   3.250   1.013   6.034  1.5213  0.7226  2.5227
 2527SOL    MW4 9876   3.226   1.091   6.005  0.4083 -0.3801  0.2200
 2528SOL     OW 9877   3.648   5.874   5.646 -0.7655  0.0774 -0.4052
 2528SOL    HW2 9878   3.581   5.915   5.591 -1.3794  0.5993  0.7033
 2528SOL    HW3 9879   3.709   5.945   5.666  0.3652 -0.4745 -1.7114
 2528SOL    MW4 9880   3.647   5.889   5.641 -0.6973  0.0735 -0.4313
 2529SOL     OW 9881   0.361   2.144   3.385  0.2358  0.1661  0.1285
 2529SOL    HW2 9882   0.366   2.154   3.480 -1.9142  0.4914  0.2683
 2529SOL    HW3 9883   0.346   2.050   3.372  2.8052 -0.2742 -0.0798
 2529SOL    MW4 9884   0.359   2.133   3.396  0.2912  0.1509  0.1195
 2530SOL     OW 9885   5.947   1.911   4.456  0.0760  0.2835 -0.3867
 2530SOL    HW2 9886   5.961   1.836   4.514  0.4164  0.0842 -0.7216
 2530SOL    HW3 9887   6.032   1.926   4.415  0.0449  0.9406 -0.2228
 2530SOL    MW4 9888   5.960   1.903   4.458  0.1168  0.3439 -0.4093
 2531SOL     OW 9889   1.219   1.089   3.134  0.3482  0.2438 -0.8652
 2531SOL    HW2 9890   1.159   1.014   3.136 -1.3996  1.5820 -0.0262
 2531SOL    HW3 9891   1.259   1.090   3.221  1.5731 -0.5888 -1.3920
 2531SOL    MW4 9892   1.216   1.079   3.146  0.2792  0.3105 -0.8240
 2532SOL     OW 9893   4.401   0.280   0.775 -0.4453  0.4447  0.1503
 2532SOL    HW2 9894   4.378   0.259   0.866  0.8488  1.1488  0.6634
 2532SOL    HW3 9895   4.342   0.226   0.723 -0.6418 -0.6255  1.4095
 2532SOL    MW4 9896   4.390   0.270   0.780 -0.3005  0.3964  0.3842
 2533SOL     OW 9897   5.973   5.555   2.792  0.2348 -0.1760  0.3190
 2533SOL    HW2 9898   5.927   5.477   2.823 -0.2832  0.4185  1.1086
 2533SOL    HW3 9899   5.921   5.586   2.718 -0.7289  0.5495  1.2717
 2533SOL    MW4 9900   5.960   5.549   2.786  0.0393 -0.0019  0.5489
 2534SOL     OW 9901   1.168   1.499   0.830  0.0506 -0.1465 -0.6983
 2534SOL    HW2 9902   1.110   1.565   0.792 -0.1758  0.4738  0.6674
 2534SOL    HW3 9903   1.113   1.421   0.839 -0.5920  0.3995  0.4737
 2534SOL    MW4 9904   1.153   1.497   0.826 -0.0640  0.0074 -0.3635
 2535SOL     OW 9905   0.747   6.177   0.270 -0.0501  0.2361 -0.1806
 2535SOL    HW2 9906   0.803   6.135   0.336  0.7341 -0.2908 -1.1563
 2535SOL    HW3 9907   0.734   6.266   0.303 -1.0364 -0.4750  1.5053
 2535SOL    MW4 9908   0.753   6.183   0.283 -0.0768  0.0728 -0.0869
 2536SOL     OW 9909   3.950   4.244   6.176  0.1343 -0.2356 -0.1815
 2536SOL    HW2 9910   3.940   4.234   6.081 -0.1004  2.1529 -0.4731
 2536SOL    HW3 9911   3.869   4.287   6.204  0.4039 -0.4946  1.0446
 2536SOL    MW4 9912   3.938   4.248   6.167  0.1389  0.0454 -0.0582
 2537SOL     OW 9913   5.465   3.425   3.120  0.1163 -0.4637  0.4931
 2537SOL    HW2 9914   5.496   3.381   3.041  1.2217 -1.6049  1.5192
 2537SOL    HW3 9915   5.447   3.515   3.092  0.1135 -0.9350 -1.1195
 2537SOL    MW4 9916   5.467   3.431   3.106  0.2618 -0.6765  0.4157
 2538SOL     OW 9917   4.355   5.039   5.433  0.1609  0.7358 -0.2832
 2538SOL    HW2 9918   4.361   5.074   5.344 -0.9674  0.8591 -0.3170
 2538SOL    HW3 9919   4.411   4.961   5.432  0.7129  1.1244 -0.8949
 2538SOL    MW4 9920   4.363   5.034   5.421  0.0849  0.8033 -0.3684
 2539SOL     OW 9921   2.839   4.982   5.362  0.0349  0.3755 -0.0752
 2539SOL    HW2 9922   2.830   4.974   5.457 -2.3249  0.7983 -0.1949
 2539SOL    HW3 9923   2.841   5.077   5.346  0.1062  0.3109 -0.4606
 2539SOL    MW4 9924   2.838   4.994   5.372 -0.2670  0.4228 -0.1418
 2540SOL     OW 9925   2.248   3.282   2.713  0.0655  0.4128 -0.1671
 2540SOL    HW2 9926   2.289   3.226   2.779  2.1310  0.3783 -1.3956
 2540SOL    HW3 9927   2.195   3.343   2.764 -0.8841 -1.5204  1.3160
 2540SOL    MW4 9928   2.246   3.283   2.729  0.2127  0.1532 -0.1335
 2541SOL     OW 9929   2.268   5.586   1.409  0.5945  0.8273 -0.0821
 2541SOL    HW2 9930   2.295   5.587   1.318  0.7267  3.4003 -0.0963
 2541SOL    HW3 9931   2.298   5.501   1.443  0.8084 -0.0445 -2.3142
 2541SOL    MW4 9932   2.276   5.575   1.402  0.6401  1.0518 -0.3785
 2542SOL     OW 9933   2.643   3.030   3.630  0.3784  0.0213 -0.1579
 2542SOL    HW2 9934   2.733   3.005   3.611 -0.6399 -1.8337 -3.1929
 2542SOL    HW3 9935   2.627   2.997   3.718  2.0686 -1.3962 -0.3353
 2542SOL    MW4 9936   2.653   3.023   3.639  0.4670 -0.4105 -0.5818
 2543SOL     OW 9937   4.960   1.785   5.101 -0.6394 -0.2326 -0.5362
 2543SOL    HW2 9938   4.883   1.794   5.157  0.2052 -2.1627  1.0620
 2543SOL    HW3 9939   5.035   1.791   5.160  0.3410 -1.1940 -1.6132
 2543SOL    MW4 9940   4.960   1.787   5.116 -0.3986 -0.6141 -0.4674
 2544SOL     OW 9941   2.025   5.697   2.927  0.5862 -0.1721 -0.1087
 2544SOL    HW2 9942   1.990   5.628   2.983 -0.5636 -0.2845 -0.9408
 2544SOL    HW3 9943   2.112   5.716   2.964  0.4358 -1.2258  0.8346
 2544SOL    MW4 9944   2.032   5.690   2.940  0.4146 -0.3260 -0.0940
 2545SOL     OW 9945   6.102   3.502   1.245 -0.1210  0.3689  0.2013
 2545SOL    HW2 9946   6.144   3.525   1.162  0.1766 -0.2673  0.1675
 2545SOL    HW3 9947   6.141   3.418   1.268 -3.0650 -1.4825 -1.0301
 2545SOL    MW4 9948   6.113   3.494   1.237 -0.4702  0.0407  0.0344
 2546SOL     OW 9949   4.543   0.217   5.607 -0.0164  0.2507  0.1320
 2546SOL    HW2 9950   4.450   0.231   5.624  0.1399 -0.0951  1.3902
 2546SOL    HW3 9951   4.550   0.123   5.588 -0.1686  0.6090 -1.8693
 2546SOL    MW4 9952   4.532   0.206   5.607 -0.0158  0.2524  0.0340
 2547SOL     OW 9953   3.155   1.212   1.909 -0.3192  0.3545 -0.0484
 2547SOL    HW2 9954   3.210   1.205   1.831 -0.0934 -1.9127  0.2245
 2547SOL    HW3 9955   3.067   1.225   1.875  0.0939  2.0795 -0.5557
 2547SOL    MW4 9956   3.151   1.213   1.894 -0.2349  0.2830 -0.0793
 2548SOL     OW 9957   5.979   1.451   0.244  0.2756  0.2688 -0.0667
 2548SOL    HW2 9958   6.009   1.372   0.288  1.7741  1.2683  0.7623
 2548SOL    HW3 9959   5.885   1.436   0.230  0.4513 -1.4782  0.3967
 2548SOL    MW4 9960   5.970   1.439   0.248  0.4965  0.1702  0.1038
 2549SOL     OW 9961   3.325   5.585   4.657 -0.0609 -0.2741  0.3644
 2549SOL    HW2 9962   3.330   5.612   4.565  0.7323 -0.4797  0.3455
 2549SOL    HW3 9963   3.415   5.573   4.684 -0.3502 -2.4064  0.5224
 2549SOL    MW4 9964   3.337   5.587   4.648  0.0056 -0.5825  0.3828
 2550SOL     OW 9965   2.372   4.386   2.681 -0.2861  0.1203 -0.2766
 2550SOL    HW2 9966   2.433   4.422   2.617  0.1071 -0.5656 -0.3104
 2550SOL    HW3 9967   2.404   4.296   2.695 -2.0420 -0.7167 -1.2689
 2550SOL    MW4 9968   2.384   4.379   2.675 -0.4659 -0.0806 -0.4120
 2551SOL     OW 9969   2.622   4.308   5.245 -0.3876 -0.0072 -0.3286
 2551SOL    HW2 9970   2.549   4.301   5.183 -0.2816  1.5005 -0.6613
 2551SOL    HW3 9971   2.680   4.374   5.206  1.1510 -1.1289 -0.0474
 2551SOL    MW4 9972   2.620   4.316   5.231 -0.1706  0.0437 -0.3354
 2552SOL     OW 9973   3.012   5.192   2.275  0.0075  0.1739 -0.4852
 2552SOL    HW2 9974   3.023   5.184   2.369  0.3200  1.0468 -0.4334
 2552SOL    HW3 9975   3.095   5.229   2.244 -0.4835  0.9186 -0.9497
 2552SOL    MW4 9976   3.024   5.196   2.283 -0.0160  0.3873 -0.5397
 2553SOL     OW 9977   3.659   1.536   5.153  0.1056  0.1355  0.1097
 2553SOL    HW2 9978   3.699   1.516   5.069 -0.0776 -0.7733  0.2317
 2553SOL    HW3 9979   3.715   1.605   5.190  1.3695 -0.8635  0.1205
 2553SOL    MW4 9980   3.672   1.542   5.147  0.2482 -0.1162  0.1272
 2554SOL     OW 9981   0.748   1.395   4.016 -0.2241 -0.0163 -0.1453
 2554SOL    HW2 9982   0.678   1.400   4.081  1.2829  0.6230  1.5237
 2554SOL    HW3 9983   0.810   1.332   4.053  0.0242 -0.7065 -1.6663
 2554SOL    MW4 9984   0.747   1.387   4.030  0.0075 -0.0230 -0.1258
 2555SOL     OW 9985   2.266   0.672   6.062  0.0667 -0.4085 -0.0725
 2555SOL    HW2 9986   2.241   0.759   6.092 -0.0313 -0.7753  0.9471
 2555SOL    HW3 9987   2.340   0.647   6.118  0.8237 -0.5328 -1.0967
 2555SOL    MW4 9988   2.273   0.680   6.074  0.1536 -0.4733 -0.0731
 2556SOL     OW 9989   4.067   5.345   1.722  0.0476  0.6644 -0.0202
 2556SOL    HW2 9990   4.012   5.288   1.668  0.1020  1.7203 -1.2546
 2556SOL    HW3 9991   4.146   5.359   1.670  0.9747  0.1158  1.2257
 2556SOL    MW4 9992   4.070   5.340   1.708  0.1771  0.7313 -0.0187
 2557SOL     OW 9993   4.184   4.989   0.866 -0.1630 -0.6010  0.0940
 2557SOL    HW2 9994   4.158   4.934   0.940  0.8666 -0.3564  0.6579
 2557SOL    HW3 9995   4.106   5.040   0.846 -0.2449 -0.1269  1.5086
 2557SOL    MW4 9996   4.170   4.988   0.873 -0.0380 -0.5062  0.3551
 2558SOL     OW 9997   5.575   5.476   0.206  0.0029 -0.1300 -0.6438
 2558SOL    HW2 9998   5.524   5.511   0.132  0.1115  0.9536 -0.2311
 2558SOL    HW3 9999   5.664   5.470   0.173  0.1001  0.6066 -0.5308
 2558SOL    MW410000   5.580   5.480   0.192  0.0301  0.1102 -0.5744
 2559SOL     OW10001   0.777   0.118   3.734  0.2553  1.0688 -0.1227
 2559SOL    HW210002   0.871   0.097   3.730 -0.2656 -2.0711  1.0968
 2559SOL    HW310003   0.749   0.122   3.643  1.3647  0.7432 -0.4926
 2559SOL    MW410004   0.786   0.115   3.721  0.3330  0.6115 -0.0106
 2560SOL     OW10005   3.372   3.623   3.563  0.1637 -0.4515 -0.2633
 2560SOL    HW210006   3.381   3.715   3.588  0.3472 -0.3273 -0.7643
 2560SOL    HW310007   3.455   3.601   3.521 -0.9321  0.0677 -2.9281
 2560SOL    MW410008   3.384   3.632   3.561  0.0433 -0.3666 -0.6810
 2561SOL     OW10009   2.502   5.287   2.141 -0.1107 -0.5646 -0.1223
 2561SOL    HW210010   2.416   5.311   2.107 -0.1651 -2.6411 -1.6584
 2561SOL    HW310011   2.530   5.215   2.085  2.5361 -0.1079  0.5003
 2561SOL    MW410012   2.494   5.280   2.129  0.2313 -0.7783 -0.2428
 2562SOL     OW10013   6.389   5.062   4.345 -0.2974  1.2012 -0.2899
 2562SOL    HW210014   6.464   5.089   4.398  1.5974  0.1358 -2.2559
 2562SOL    HW310015   6.339   5.004   4.403  1.9759 -0.3551  0.2613
 2562SOL    MW410016   6.392   5.058   4.360  0.2526  0.8553 -0.4765
 2563SOL     OW10017   1.748   3.813   2.082  0.5027  0.7420  0.3516
 2563SOL    HW210018   1.729   3.783   1.994  0.0891  0.4343  0.5406
 2563SOL    HW310019   1.833   3.775   2.104  1.2571  1.9160 -0.4119
 2563SOL    MW410020   1.756   3.804   2.074  0.5477  0.8563  0.2758
 2564SOL     OW10021   4.561   0.626   5.167 -0.2129  0.0595 -0.1684
 2564SOL    HW210022   4.568   0.531   5.175 -1.0913 -0.1773 -1.7615
 2564SOL    HW310023   4.621   0.648   5.095 -1.6382  0.3941 -1.2951
 2564SOL    MW410024   4.570   0.616   5.159 -0.5168  0.0724 -0.5273
 2565SOL     OW10025   3.352   5.263   4.478  0.6147 -0.5315 -0.1663
 2565SOL    HW210026   3.341   5.168   4.469  0.3926 -0.4827 -0.4161
 2565SOL    HW310027   3.300   5.285   4.556  0.9887 -0.6723  0.1249
 2565SOL    MW410028   3.343   5.253   4.487  0.6347 -0.5437 -0.1609
 2566SOL     OW10029   2.367   5.521   3.103 -0.5645 -0.1470  0.3782
 2566SOL    HW210030   2.463   5.529   3.100 -0.6049  0.2100 -0.1381
 2566SOL    HW310031   2.351   5.446   3.160  0.0190 -0.0812  0.6351
 2566SOL    MW410032   2.378   5.512   3.110 -0.4928 -0.0912  0.3439
 2567SOL     OW10033   2.580   1.384   1.687 -0.1402  0.3104  0.4479
 2567SOL    HW210034   2.607   1.406   1.776  0.7317  1.8938 -0.1722
 2567SOL    HW310035   2.496   1.427   1.676 -1.6486 -2.1651  1.3694
 2567SOL    MW410036   2.573   1.392   1.697 -0.2242  0.1927  0.4877
 2568SOL     OW10037   4.373   4.746   0.927  0.2128  0.5404  0.0392
 2568SOL    HW210038   4.350   4.767   0.837  0.3881 -0.6181 -0.2859
 2568SOL    HW310039   4.464   4.772   0.935  1.0406 -1.7681 -0.9564
 2568SOL    MW410040   4.382   4.752   0.916  0.3451  0.0830 -0.1351
 2569SOL     OW10041   1.618   3.234   5.154  0.0853 -0.7583 -0.1233
 2569SOL    HW210042   1.539   3.228   5.100 -0.2591  2.4657 -0.1784
 2569SOL    HW310043   1.690   3.233   5.090 -0.2303  1.1463 -0.5795
 2569SOL    MW410044   1.617   3.233   5.138 -0.0018 -0.0816 -0.1908
 2570SOL     OW10045   3.184   5.481   3.679 -0.5292  0.2996  0.2098
 2570SOL    HW210046   3.120   5.533   3.631 -1.7856 -1.4718 -0.1738
 2570SOL    HW310047   3.137   5.449   3.756 -0.0378 -0.7957  0.0818
 2570SOL    MW410048   3.169   5.483   3.683 -0.6301 -0.0786  0.1423
 2571SOL     OW10049   2.617   1.757   3.069 -0.5517  0.1070 -0.7264
 2571SOL    HW210050   2.552   1.727   3.133  0.8318 -1.4413  0.0290
 2571SOL    HW310051   2.627   1.682   3.010  1.6447 -0.3048  0.0955
 2571SOL    MW410052   2.609   1.743   3.069 -0.0794 -0.1516 -0.5183
 2572SOL     OW10053   4.111   1.592   0.919  0.2980  0.2291 -0.1842
 2572SOL    HW210054   4.199   1.580   0.953  0.0211  0.5305  0.6740
 2572SOL    HW310055   4.092   1.685   0.933 -0.8098 -0.1795  1.3235
 2572SOL    MW410056   4.120   1.602   0.925  0.1153  0.2150  0.1279
 2573SOL     OW10057   3.573   5.112   4.796  0.3301  0.0007  0.2191
 2573SOL    HW210058   3.484   5.085   4.776  0.3650  0.7218 -1.0022
 2573SOL    HW310059   3.601   5.052   4.865 -0.8337 -0.7089  0.1053
 2573SOL    MW410060   3.565   5.100   4.803  0.1812  0.0022  0.0430
 2574SOL     OW10061   1.567   3.343   1.611  0.5808 -0.3387 -0.0993
 2574SOL    HW210062   1.551   3.249   1.620  0.7059 -0.4420 -0.8854
 2574SOL    HW310063   1.500   3.384   1.666 -1.6548 -0.8019 -2.2352
 2574SOL    MW410064   1.556   3.336   1.619  0.3023 -0.4135 -0.4848
 2575SOL     OW10065   3.144   2.170   4.310  0.2198  0.2382  0.4388
 2575SOL    HW210066   3.171   2.089   4.352 -2.0356  0.0333  1.6328
 2575SOL    HW310067   3.063   2.195   4.354  0.8418  3.1859  0.1667
 2575SOL    MW410068   3.137   2.163   4.321  0.0043  0.6001  0.5605
 2576SOL     OW10069   2.215   5.737   5.151 -0.0262  0.5115 -0.2172
 2576SOL    HW210070   2.243   5.645   5.154  1.0491  0.8257 -0.1487
 2576SOL    HW310071   2.292   5.786   5.180 -1.0254  1.3557  1.1237
 2576SOL    MW410072   2.229   5.731   5.155 -0.0162  0.6644 -0.0312
 2577SOL     OW10073   4.748   4.582   1.738 -0.0776  0.1766 -0.5653
 2577SOL    HW210074   4.778   4.583   1.647  1.1176 -0.9243 -0.2087
 2577SOL    HW310075   4.824   4.554   1.788 -1.1622 -0.8027  0.6030
 2577SOL    MW410076   4.762   4.578   1.733 -0.0630 -0.0979 -0.3641
 2578SOL     OW10077   5.713   3.852   3.635  0.1480 -0.2611  0.6147
 2578SOL    HW210078   5.728   3.766   3.672  1.3138  0.3896  1.7091
 2578SOL    HW310079   5.799   3.881   3.605  0.1484  1.3015  2.0084
 2578SOL    MW410080   5.726   3.845   3.636  0.3019  0.0309  0.9430
 2579SOL     OW10081   4.036   5.293   1.034  0.1526 -0.5655  0.5694
 2579SOL    HW210082   4.105   5.283   0.968  1.5607  0.1192  1.8765
 2579SOL    HW310083   4.069   5.361   1.093 -1.8814  0.1495  0.9728
 2579SOL    MW410084   4.049   5.301   1.033  0.0700 -0.3808  0.7951
 2580SOL     OW10085   1.278   0.715   5.787 -0.4053 -0.4198  0.4538
 2580SOL    HW210086   1.348   0.665   5.746  0.6768  0.5055  1.1345
 2580SOL    HW310087   1.231   0.650   5.840  1.1700 -0.7036  1.5746
 2580SOL    MW410088   1.281   0.700   5.789 -0.0547 -0.3351  0.6915
 2581SOL     OW10089   1.900   5.240   0.294 -0.3767 -0.0334 -0.4501
 2581SOL    HW210090   1.940   5.313   0.341  2.0555 -1.1691 -0.6172
 2581SOL    HW310091   1.926   5.254   0.203 -0.3367 -0.8259 -0.5635
 2581SOL    MW410092   1.909   5.252   0.288 -0.0505 -0.2878 -0.4871
 2582SOL     OW10093   5.741   1.956   0.461  0.2498 -0.2688  0.3442
 2582SOL    HW210094   5.750   1.953   0.556 -1.1765  0.3602  0.5210
 2582SOL    HW310095   5.760   2.047   0.437  1.4400 -0.6081 -0.0948
 2582SOL    MW410096   5.745   1.968   0.470  0.2187 -0.2305  0.3096
 2583SOL     OW10097   4.242   2.371   6.375  0.2271  0.4340 -0.2912
 2583SOL    HW210098   4.209   2.288   6.409  2.3571  0.2549  1.5919
 2583SOL    HW310099   4.223   2.434   6.445 -0.7303  1.4283 -1.3980
 2583SOL    MW410100   4.235   2.368   6.389  0.3818  0.5416 -0.1887
 2584SOL     OW10101   1.271   3.451   3.392  0.2577 -0.3397  0.3843
 2584SOL    HW210102   1.348   3.397   3.375  0.5211 -0.2098  1.1157
 2584SOL    HW310103   1.197   3.391   3.381  0.3964 -0.2596 -1.1686
 2584SOL    MW410104   1.271   3.436   3.389  0.3108 -0.3120  0.2759
 2585SOL     OW10105   3.911   0.469   3.830  0.2180 -0.1672 -0.3240
 2585SOL    HW210106   3.940   0.384   3.861 -1.2030 -0.4949  0.1914
 2585SOL    HW310107   3.973   0.492   3.760  2.6750 -0.0652  1.7192
 2585SOL    MW410108   3.923   0.461   3.825  0.3547 -0.1970  0.0136
 2586SOL     OW10109   0.604   5.114   0.877 -0.1554 -0.3848  0.0978
 2586SOL    HW210110   0.565   5.201   0.875 -0.8981 -0.7129 -0.1934
 2586SOL    HW310111   0.688   5.124   0.832  0.8779  0.6856  2.1238
 2586SOL    MW410112   0.610   5.127   0.871 -0.1171 -0.2869  0.3267
 2587SOL     OW10113   0.891   1.249   4.213  0.2669 -0.2274 -0.0005
 2587SOL    HW210114   0.909   1.314   4.281 -0.7158  0.0167  0.0486
 2587SOL    HW310115   0.840   1.182   4.258 -2.4564  1.0608 -0.9408
 2587SOL    MW410116   0.886   1.249   4.228 -0.2221 -0.0253 -0.1181
 2588SOL     OW10117   6.314   4.217   4.148 -0.4027  0.3492 -0.5710
 2588SOL    HW210118   6.249   4.222   4.218 -0.4210  1.4463 -0.6542
 2588SOL    HW310119   6.262   4.218   4.067 -0.3154  0.6854 -0.6258
 2588SOL    MW410120   6.298   4.218   4.147 -0.3936  0.5383 -0.5892
 2589SOL     OW10121   2.139   6.068   4.726 -0.0739  0.3734 -0.6941
 2589SOL    HW210122   2.102   5.979   4.720  1.0464 -0.1796  0.1095
 2589SOL    HW310123   2.196   6.076   4.650  1.6057 -0.5075  0.4022
 2589SOL    MW410124   2.142   6.057   4.715  0.2955  0.1842 -0.4434
 2590SOL     OW10125   5.199   3.359   1.608  0.5836 -0.1266  0.3340
 2590SOL    HW210126   5.104   3.357   1.619  0.4911  0.4545 -0.2448
 2590SOL    HW310127   5.218   3.451   1.588  1.0840 -0.4953 -0.9953
 2590SOL    MW410128   5.189   3.371   1.607  0.6374 -0.0986  0.0823
 2591SOL     OW10129   4.175   2.248   1.708  0.3309 -0.8822 -0.0131
 2591SOL    HW210130   4.230   2.319   1.673 -0.6703 -1.1655 -2.4257
 2591SOL    HW310131   4.087   2.268   1.674 -0.1820 -2.7180  0.1335
 2591SOL    MW410132   4.170   2.260   1.699  0.1311 -1.1618 -0.3121
 2592SOL     OW10133   2.257   3.132   0.223  0.2466  0.2159  0.5886
 2592SOL    HW210134   2.272   3.183   0.143 -1.4626  1.5180  1.0447
 2592SOL    HW310135   2.339   3.139   0.271  1.2015 -0.3325 -0.8931
 2592SOL    MW410136   2.270   3.140   0.219  0.1471  0.3154  0.4533
 2593SOL     OW10137   0.093   5.806   2.973 -0.3024  0.3866 -0.7373
 2593SOL    HW210138   0.172   5.859   2.970 -0.1807  0.2563 -0.0937
 2593SOL    HW310139   0.107   5.746   3.047 -0.8543  0.1297 -0.8307
 2593SOL    MW410140   0.105   5.805   2.983 -0.3591  0.3355 -0.6647
 2594SOL     OW10141   2.856   4.504   3.218 -0.4148 -0.2419  0.0339
 2594SOL    HW210142   2.862   4.578   3.279 -1.0931 -0.7220  0.7137
 2594SOL    HW310143   2.897   4.432   3.265  1.7632  0.0589 -1.2846
 2594SOL    MW410144   2.862   4.505   3.233 -0.2169 -0.2655 -0.0503
 2595SOL     OW10145   2.577   3.002   0.164 -0.1925 -0.6033  0.9155
 2595SOL    HW210146   2.531   3.024   0.245  0.5727  1.4737  0.8487
 2595SOL    HW310147   2.621   3.084   0.139  0.4274 -1.4869 -1.0407
 2595SOL    MW410148   2.577   3.016   0.171 -0.0097 -0.4459  0.6486
 2596SOL     OW10149   2.667   0.359   6.158 -0.2942 -0.1035 -0.3367
 2596SOL    HW210150   2.724   0.358   6.235 -0.7127  1.5772  0.0378
 2596SOL    HW310151   2.726   0.343   6.084  0.5008  0.5045  0.1500
 2596SOL    MW410152   2.682   0.357   6.158 -0.2445  0.1985 -0.2231
 2597SOL     OW10153   2.679   2.372   3.769 -0.2609 -0.4432 -0.3128
 2597SOL    HW210154   2.689   2.327   3.853  0.6875  1.6057  0.7296
 2597SOL    HW310155   2.764   2.364   3.727 -0.0916  0.3017 -0.1309
 2597SOL    MW410156   2.692   2.365   3.775 -0.1134 -0.0746 -0.1513
 2598SOL     OW10157   0.410   0.216   1.239 -0.1392  0.1649 -0.3712
 2598SOL    HW210158   0.502   0.197   1.220 -0.5870 -0.6668 -1.9127
 2598SOL    HW310159   0.399   0.308   1.216  0.3044  0.2754 -0.1563
 2598SOL    MW410160   0.421   0.225   1.233 -0.1398  0.0698 -0.5462
 2599SOL     OW10161   0.368   3.410   4.867  0.0994  0.3737  0.2328
 2599SOL    HW210162   0.313   3.443   4.796 -0.4388 -1.4242 -0.2337
 2599SOL    HW310163   0.306   3.371   4.928  0.7785 -0.9344  0.1136
 2599SOL    MW410164   0.353   3.409   4.866  0.1180 -0.0361  0.1555
 2600SOL     OW10165   6.239   3.879   2.869  0.5990 -0.3888  0.6813
 2600SOL    HW210166   6.313   3.922   2.826  0.3825  0.7663  1.4008
 2600SOL    HW310167   6.198   3.949   2.920 -0.5667 -1.1747  0.8537
 2600SOL    MW410168   6.243   3.894   2.870  0.4166 -0.3401  0.7990
 2601SOL     OW10169   0.118   4.104   3.799  0.2303  0.1743 -0.1638
 2601SOL    HW210170   0.087   4.014   3.806 -0.5032  0.3789 -0.6745
 2601SOL    HW310171   0.101   4.128   3.708  2.3625  0.1348 -0.6129
 2601SOL    MW410172   0.112   4.096   3.788  0.4149  0.1961 -0.2904
 2602SOL     OW10173   5.873   0.627   4.965  0.3599  0.0380  0.6369
 2602SOL    HW210174   5.830   0.582   5.038 -0.1031 -1.0796 -0.2831
 2602SOL    HW310175   5.966   0.620   4.984  0.2095  1.2981  1.9817
 2602SOL    MW410176   5.879   0.620   4.977  0.2790  0.0568  0.6929
 2603SOL     OW10177   2.227   5.595   4.746 -0.0185  0.0577  0.0495
 2603SOL    HW210178   2.253   5.516   4.794  0.5585 -1.1246 -2.0806
 2603SOL    HW310179   2.221   5.567   4.655 -2.1408  1.9448 -0.4891
 2603SOL    MW410180   2.230   5.581   4.740 -0.2224  0.1507 -0.3026
 2604SOL     OW10181   0.990   0.987   1.677 -0.3071  0.2294 -0.5248
 2604SOL    HW210182   0.932   0.923   1.719  0.7980 -1.2362 -1.1550
 2604SOL    HW310183   1.025   0.941   1.601 -1.2889  2.3908 -2.3911
 2604SOL    MW410184   0.987   0.972   1.673 -0.2908  0.3212 -0.8542
 2605SOL     OW10185   1.441   3.040   4.289  0.0099  0.0250 -0.3929
 2605SOL    HW210186   1.487   3.027   4.372  0.9548 -0.3240 -0.9594
 2605SOL    HW310187   1.359   2.990   4.299 -0.2212  0.5810  0.5898
 2605SOL    MW410188   1.436   3.032   4.301  0.1041  0.0523 -0.3380
 2606SOL     OW10189   0.955   1.921   4.756  0.8125  0.4159 -0.0647
 2606SOL    HW210190   1.002   1.942   4.675  1.5019  1.8403  0.6921
 2606SOL    HW310191   1.023   1.906   4.821  0.2511  0.5374  0.5666
 2606SOL    MW410192   0.970   1.921   4.754  0.8294  0.6199  0.1185
 2607SOL     OW10193   2.096   2.352   1.340  0.5843  0.2861 -0.2272
 2607SOL    HW210194   2.159   2.402   1.392  1.5558 -1.2848  0.1803
 2607SOL    HW310195   2.142   2.332   1.259  0.3132 -0.1409 -0.2792
 2607SOL    MW410196   2.110   2.356   1.336  0.6767  0.0225 -0.1803
 2608SOL     OW10197   0.365   2.248   5.052  0.2419  0.5747 -0.1642
 2608SOL    HW210198   0.348   2.240   4.958  0.5264 -2.3908 -0.0563
 2608SOL    HW310199   0.456   2.222   5.062  0.2177  0.8568  0.9385
 2608SOL    MW410200   0.375   2.244   5.041  0.2763  0.2207 -0.0045
 2609SOL     OW10201   0.672   0.498   1.940 -0.2273  0.1828 -0.1099
 2609SOL    HW210202   0.620   0.420   1.924  1.2140 -0.6173 -1.0731
 2609SOL    HW310203   0.711   0.519   1.855 -0.6172  1.9869  0.1156
 2609SOL    MW410204   0.671   0.491   1.927 -0.0886  0.3153 -0.2072
 2610SOL     OW10205   3.621   5.252   4.105  0.1308 -0.3342  0.1121
 2610SOL    HW210206   3.713   5.273   4.121  0.0311  1.3147 -1.1543
 2610SOL    HW310207   3.592   5.319   4.042 -1.0166 -2.8635 -2.2495
 2610SOL    MW410208   3.630   5.264   4.099 -0.0337 -0.4503 -0.3666
 2611SOL     OW10209   0.381   5.072   2.116 -0.2399 -0.1850  0.1528
 2611SOL    HW210210   0.387   5.080   2.021 -1.4686  0.8116  0.1283
 2611SOL    HW310211   0.291   5.044   2.132  0.4941 -2.3284  0.9579
 2611SOL    MW410212   0.370   5.069   2.106 -0.3051 -0.3363  0.2558
 2612SOL     OW10213   4.205   1.539   3.198 -0.0652  0.4208 -0.1374
 2612SOL    HW210214   4.257   1.590   3.260 -0.9306  1.7094 -0.4391
 2612SOL    HW310215   4.206   1.591   3.117  0.2378 -0.7575 -0.9298
 2612SOL    MW410216   4.212   1.552   3.195 -0.1394  0.4354 -0.2817
 2613SOL     OW10217   1.925   5.114   0.950  0.4411  0.3165  0.3825
 2613SOL    HW210218   1.863   5.056   0.995 -0.2706 -1.1431 -2.2739
 2613SOL    HW310219   2.007   5.105   0.999 -1.1315  1.7205  3.5388
 2613SOL    MW410220   1.928   5.105   0.962  0.1397  0.3092  0.4485
 2614SOL     OW10221   0.825   4.278   4.868  0.1795  0.1991  0.5714
 2614SOL    HW210222   0.793   4.367   4.883  1.0873  0.8591 -1.0425
 2614SOL    HW310223   0.915   4.279   4.901  0.2187 -0.0925  0.4752
 2614SOL    MW410224   0.833   4.290   4.874  0.3044  0.2477  0.3458
 2615SOL     OW10225   5.274   5.311   6.414  0.1899 -0.5161  0.1657
 2615SOL    HW210226   5.201   5.282   6.469  2.4229  0.6364  4.1621
 2615SOL    HW310227   5.334   5.237   6.412  0.2204 -0.4824 -0.6482
 2615SOL    MW410228   5.273   5.298   6.421  0.4885 -0.3596  0.5856
 2616SOL     OW10229   0.760   4.029   3.972  0.4996 -0.4059 -0.1068
 2616SOL    HW210230   0.704   4.074   4.036  0.4092  2.1131 -1.8148
 2616SOL    HW310231   0.712   3.950   3.949 -1.4705  0.7170 -0.0890
 2616SOL    MW410232   0.746   4.025   3.978  0.2278  0.0746 -0.3298
 2617SOL     OW10233   2.650   0.082   2.617  0.2006  0.1930 -0.0579
 2617SOL    HW210234   2.695   0.116   2.694  0.8793 -0.7644 -0.0202
 2617SOL    HW310235   2.715   0.087   2.547  0.1983 -0.6862 -0.1325
 2617SOL    MW410236   2.665   0.087   2.618  0.2898 -0.0493 -0.0628
 2618SOL     OW10237   2.877   3.398   4.762 -0.2039 -0.5559 -0.4676
 2618SOL    HW210238   2.874   3.345   4.841 -0.0685 -0.4096 -0.3627
 2618SOL    HW310239   2.952   3.365   4.713  0.1508 -0.1699 -0.1912
 2618SOL    MW410240   2.886   3.387   4.766 -0.1393 -0.4857 -0.4173
 2619SOL     OW10241   4.496   5.369   3.786 -0.6181 -0.2603 -0.0651
 2619SOL    HW210242   4.537   5.447   3.750 -1.5449 -0.0578 -0.7178
 2619SOL    HW310243   4.534   5.359   3.873  3.2885 -1.9061 -1.6928
 2619SOL    MW410244   4.506   5.378   3.793 -0.2249 -0.4508 -0.3660
 2620SOL     OW10245   3.955   1.886   0.694 -0.7633  0.4057 -0.1751
 2620SOL    HW210246   3.864   1.859   0.707 -0.7909  0.4876 -0.2010
 2620SOL    HW310247   4.000   1.853   0.772 -0.1842 -2.4044 -1.5538
 2620SOL    MW410248   3.949   1.878   0.706 -0.6905  0.0458 -0.3604
 2621SOL     OW10249   5.670   1.345   3.281 -0.6384 -0.0889  0.7106
 2621SOL    HW210250   5.748   1.314   3.325  0.3613 -2.0701 -2.1494
 2621SOL    HW310251   5.702   1.415   3.223 -1.4022  0.5258  1.0098
 2621SOL    MW410252   5.684   1.350   3.279 -0.6073 -0.2692  0.3727
 2622SOL     OW10253   4.924   5.418   0.432  0.1997  0.0982 -1.1838
 2622SOL    HW210254   4.864   5.465   0.374 -2.3529 -0.5361  0.7245
 2622SOL    HW310255   4.895   5.443   0.520  0.3677 -3.0498 -0.1255
 2622SOL    MW410256   4.912   5.428   0.436 -0.1149 -0.4008 -0.7924
 2623SOL     OW10257   0.633   1.317   0.683 -0.8091 -0.2665 -0.4958
 2623SOL    HW210258   0.621   1.265   0.762 -0.5715  0.5297  0.0724
 2623SOL    HW310259   0.598   1.262   0.613  0.4708 -1.6542 -0.0778
 2623SOL    MW410260   0.627   1.303   0.684 -0.6089 -0.3445 -0.3657
 2624SOL     OW10261   3.428   2.030   3.563  0.0253 -0.9473  0.0986
 2624SOL    HW210262   3.451   1.965   3.497  0.0625 -0.2956 -0.5422
 2624SOL    HW310263   3.347   2.069   3.531  0.1795 -0.4486  0.3053
 2624SOL    MW410264   3.420   2.026   3.550  0.0506 -0.7955  0.0413
 2625SOL     OW10265   3.980   5.767   0.182 -0.1450  0.2310 -0.8131
 2625SOL    HW210266   4.058   5.779   0.128  1.3747 -0.3152  1.1488
 2625SOL    HW310267   3.979   5.673   0.202 -1.9096  0.0338 -1.6122
 2625SOL    MW410268   3.990   5.756   0.178 -0.1773  0.1329 -0.6596
 2626SOL     OW10269   3.812   1.213   4.766 -0.0063  0.6935 -0.3890
 2626SOL    HW210270   3.738   1.223   4.706 -1.0226 -0.6876  0.5721
 2626SOL    HW310271   3.889   1.208   4.709 -0.9192 -0.3470 -1.5863
 2626SOL    MW410272   3.812   1.213   4.750 -0.2609  0.3740 -0.4202
 2627SOL     OW10273   6.073   1.334   5.150  0.8742 -0.2040 -0.2224
 2627SOL    HW210274   6.078   1.429   5.156  0.1336 -0.2345  3.0601
 2627SOL    HW310275   5.983   1.316   5.126  1.0796 -0.1206 -1.1034
 2627SOL    MW410276   6.062   1.344   5.148  0.8036 -0.1970  0.0944
 2628SOL     OW10277   2.911   3.664   2.629  0.2086 -0.2484  0.0323
 2628SOL    HW210278   2.998   3.626   2.639  0.7080  1.0927  1.0429
 2628SOL    HW310279   2.854   3.609   2.683  1.2162  1.2781  2.8714
 2628SOL    MW410280   2.915   3.652   2.637  0.4074  0.1300  0.5402
 2629SOL     OW10281   1.321   4.680   4.572 -0.0079  0.0639 -0.2189
 2629SOL    HW210282   1.243   4.652   4.619 -0.8792  1.4029 -0.8352
 2629SOL    HW310283   1.394   4.650   4.628 -0.9878  0.7626  1.4946
 2629SOL    MW410284   1.321   4.672   4.586 -0.2521  0.3328 -0.0742
 2630SOL     OW10285   5.341   4.497   2.403  0.1573 -0.2194  0.0238
 2630SOL    HW210286   5.364   4.468   2.491  0.6539 -1.6503 -0.5456
 2630SOL    HW310287   5.363   4.590   2.401 -1.5964  0.3171  1.9745
 2630SOL    MW410288   5.347   4.505   2.414 -0.0086 -0.3374  0.2061
 2631SOL     OW10289   6.057   4.239   6.085 -0.6812  0.3419  0.0333
 2631SOL    HW210290   6.012   4.319   6.113 -3.4896 -0.5811 -1.5020
 2631SOL    HW310291   6.074   4.191   6.166 -0.7374  1.5998  0.8108
 2631SOL    MW410292   6.053   4.243   6.100 -1.0591  0.3860 -0.0667
 2632SOL     OW10293   4.394   5.923   1.238 -0.5414  0.2554  0.1189
 2632SOL    HW210294   4.317   5.931   1.181 -0.9565 -0.0140  0.6372
 2632SOL    HW310295   4.468   5.929   1.178 -0.9662 -1.8703 -0.7230
 2632SOL    MW410296   4.393   5.925   1.222 -0.6522 -0.0606  0.0762
 2633SOL     OW10297   0.919   5.828   1.707  0.2844 -0.3721  0.6184
 2633SOL    HW210298   0.991   5.887   1.685  0.1411 -0.9777 -1.7879
 2633SOL    HW310299   0.962   5.745   1.728  0.3409 -0.5681 -0.2312
 2633SOL    MW410300   0.934   5.825   1.706  0.2730 -0.4779  0.1888
 2634SOL     OW10301   3.648   0.557   4.893  0.2441  0.0229 -0.1920
 2634SOL    HW210302   3.674   0.553   4.985 -1.3996  0.8037  0.3384
 2634SOL    HW310303   3.604   0.474   4.877 -0.9721  0.5549  0.2442
 2634SOL    MW410304   3.646   0.546   4.903 -0.1332  0.1961 -0.0644
 2635SOL     OW10305   0.024   5.745   1.036 -0.5931  0.1766 -0.0936
 2635SOL    HW210306   0.004   5.791   0.954 -1.0140  1.6321  0.7873
 2635SOL    HW310307   0.092   5.798   1.077 -2.9813  1.7089  2.2489
 2635SOL    MW410308   0.030   5.758   1.030 -0.9637  0.5708  0.3317
 2636SOL     OW10309   1.289   4.651   3.891  0.2450  0.4509  0.0438
 2636SOL    HW210310   1.244   4.701   3.959 -0.5482 -0.2654  0.0556
 2636SOL    HW310311   1.253   4.563   3.898  1.6063 -0.1399  0.0149
 2636SOL    MW410312   1.278   4.646   3.901  0.3200  0.2784  0.0415
 2637SOL     OW10313   4.242   5.580   5.790 -0.4204 -0.8198 -0.0838
 2637SOL    HW210314   4.320   5.627   5.820 -0.6310 -0.5977  0.1157
 2637SOL    HW310315   4.190   5.568   5.869 -1.5671  0.8565 -0.5500
 2637SOL    MW410316   4.246   5.584   5.804 -0.5995 -0.5693 -0.1190
 2638SOL     OW10317   1.775   6.345   6.307 -0.3088  0.3625 -0.1907
 2638SOL    HW210318   1.814   6.422   6.349  1.4019 -0.2634 -0.5603
 2638SOL    HW310319   1.844   6.309   6.252 -0.8578 -1.7555  0.3723
 2638SOL    MW410320   1.789   6.350   6.305 -0.1555  0.0005 -0.1652
 2639SOL     OW10321   1.400   3.153   2.555 -0.8958 -0.3209 -0.6970
 2639SOL    HW210322   1.352   3.138   2.473 -0.5596 -1.1158 -0.7578
 2639SOL    HW310323   1.403   3.067   2.597 -0.1144 -0.1385 -0.3677
 2639SOL    MW410324   1.394   3.140   2.550 -0.7483 -0.4017 -0.6616
 2640SOL     OW10325   1.324   2.572   0.475  0.1863 -0.5144 -0.5734
 2640SOL    HW210326   1.237   2.608   0.458  0.5347  1.3134  1.1735
 2640SOL    HW310327   1.384   2.641   0.449  0.9816 -0.6671  0.7721
 2640SOL    MW410328   1.320   2.586   0.469  0.3372 -0.2934 -0.1654
 2641SOL     OW10329   1.345   5.369   3.803  0.0890 -0.6390 -0.0223
 2641SOL    HW210330   1.257   5.402   3.822 -1.7585 -3.9491 -1.9882
 2641SOL    HW310331   1.374   5.330   3.886 -0.5705 -0.1584  0.4472
 2641SOL    MW410332   1.337   5.369   3.816 -0.2418 -1.0123 -0.2197
 2642SOL     OW10333   1.823   2.668   0.720 -0.0113  0.1061 -0.1839
 2642SOL    HW210334   1.816   2.600   0.652 -0.4883  1.4479 -1.5173
 2642SOL    HW310335   1.739   2.713   0.716 -0.3856 -0.3240  1.9296
 2642SOL    MW410336   1.811   2.665   0.710 -0.1236  0.2264 -0.0810
 2643SOL     OW10337   3.125   0.817   5.444  0.6499  0.5242  0.3655
 2643SOL    HW210338   3.085   0.884   5.499 -0.4454 -0.0140  0.2517
 2643SOL    HW310339   3.198   0.783   5.497  0.1327  0.5903  1.1381
 2643SOL    MW410340   3.129   0.822   5.458  0.4371  0.4619  0.4524
 2644SOL     OW10341   0.895   1.178   0.724  0.4389 -0.2719  0.1470
 2644SOL    HW210342   0.804   1.192   0.699  0.5528  0.7147  0.2549
 2644SOL    HW310343   0.940   1.160   0.642 -0.1507 -2.6986  0.2617
 2644SOL    MW410344   0.889   1.177   0.710  0.3761 -0.4619  0.1764
 2645SOL     OW10345   5.153   3.781   4.977 -0.2696 -0.1525  0.1549
 2645SOL    HW210346   5.157   3.871   5.008 -1.0448 -0.0776  0.0770
 2645SOL    HW310347   5.233   3.740   5.010 -0.3933  0.3008  1.0547
 2645SOL    MW410348   5.164   3.787   4.986 -0.3882 -0.0828  0.2633
 2646SOL     OW10349   0.920   5.314   2.975 -0.8072 -0.2136 -0.1150
 2646SOL    HW210350   0.967   5.327   2.893 -0.1173  0.5030  0.3680
 2646SOL    HW310351   0.830   5.338   2.956 -0.8756 -1.0734 -0.9245
 2646SOL    MW410352   0.915   5.319   2.962 -0.7252 -0.2325 -0.1581
 2647SOL     OW10353   2.016   5.156   1.311  0.2528 -0.2188 -0.1122
 2647SOL    HW210354   2.004   5.061   1.316 -1.8538 -0.0992 -1.5954
 2647SOL    HW310355   1.944   5.193   1.362  1.1661  0.6084  0.6221
 2647SOL    MW410356   2.005   5.149   1.318  0.0954 -0.0939 -0.2110
 2648SOL     OW10357   2.197   1.980   0.939  0.4338  0.3354  0.1257
 2648SOL    HW210358   2.138   1.931   0.996 -1.5969  0.9621 -1.3025
 2648SOL    HW310359   2.224   2.056   0.992 -0.6554  0.4227  0.5802
 2648SOL    MW410360   2.193   1.984   0.954  0.0222  0.4296 -0.0027
 2649SOL     OW10361   3.665   2.848   4.618 -0.2870 -0.0661 -0.2833
 2649SOL    HW210362   3.589   2.824   4.672 -0.0367  1.4294  0.7795
 2649SOL    HW310363   3.635   2.922   4.565  0.0964 -0.2050 -0.7000
 2649SOL    MW410364   3.651   2.854   4.618 -0.2034  0.1129 -0.1980
 2650SOL     OW10365   4.907   5.224   1.499 -0.1323  0.7723  0.1447
 2650SOL    HW210366   4.895   5.130   1.484  0.1813  0.7554 -0.0130
 2650SOL    HW310367   4.836   5.265   1.449  0.5456  0.6837 -0.9178
 2650SOL    MW410368   4.896   5.217   1.490 -0.0015  0.7584 -0.0163
 2651SOL     OW10369   0.757   1.478   0.025 -0.0958  0.2433 -0.5585
 2651SOL    HW210370   0.816   1.551   0.044  0.5021 -0.1386 -0.8990
 2651SOL    HW310371   0.765   1.420   0.101 -1.9611  1.3829  0.5687
 2651SOL    MW410372   0.766   1.480   0.037 -0.2630  0.3433 -0.4547
 2652SOL     OW10373   4.960   0.354   2.873 -0.4207  0.1655  0.7617
 2652SOL    HW210374   4.981   0.329   2.963 -0.8244 -0.3778  0.7108
 2652SOL    HW310375   4.940   0.447   2.878  0.6300  0.3989  1.0452
 2652SOL    MW410376   4.960   0.363   2.886 -0.3353  0.1246  0.7924
 2653SOL     OW10377   0.489   1.834   3.187 -0.7047 -0.3963  0.4278
 2653SOL    HW210378   0.503   1.810   3.095  1.3387  0.4533  0.4584
 2653SOL    HW310379   0.555   1.783   3.235 -0.2568  0.8364  1.1480
 2653SOL    MW410380   0.500   1.824   3.181 -0.3760 -0.1216  0.5268
 2654SOL     OW10381   5.115   4.518   1.100 -0.4354 -0.3680  0.6861
 2654SOL    HW210382   5.095   4.472   1.181  1.9244 -1.6567  0.6490
 2654SOL    HW310383   5.187   4.577   1.123  0.7469 -1.2524 -0.5361
 2654SOL    MW410384   5.122   4.520   1.114  0.0320 -0.6547  0.5199
 2655SOL     OW10385   0.028   4.721   6.243  0.2822 -0.5393 -0.6929
 2655SOL    HW210386   0.090   4.679   6.184 -0.8360 -2.8091 -0.3531
 2655SOL    HW310387  -0.037   4.761   6.185  0.3743 -0.8747 -1.0303
 2655SOL    MW410388   0.027   4.721   6.228  0.1468 -0.8830 -0.6926
 2656SOL     OW10389   3.058   2.937   3.083  0.2611  0.2702  0.6434
 2656SOL    HW210390   3.037   3.019   3.038 -0.3466 -0.2100  0.0280
 2656SOL    HW310391   3.039   2.955   3.175  0.3283  0.8862  0.5427
 2656SOL    MW410392   3.053   2.950   3.089  0.1898  0.2882  0.5489
 2657SOL     OW10393   6.281   5.454   1.275 -0.2259 -0.5121  0.0772
 2657SOL    HW210394   6.320   5.444   1.361  0.4166  0.8134 -0.0321
 2657SOL    HW310395   6.302   5.373   1.229  0.3648 -0.7789  0.8101
 2657SOL    MW410396   6.289   5.442   1.280 -0.0632 -0.3724  0.1595
 2658SOL     OW10397   4.575   0.973   5.185 -0.3450 -0.3233 -0.0438
 2658SOL    HW210398   4.576   0.888   5.228 -1.9026 -0.1539  0.4081
 2658SOL    HW310399   4.524   0.959   5.106  1.8275 -0.4415 -1.4943
 2658SOL    MW410400   4.568   0.960   5.181 -0.2639 -0.3165 -0.1756
 2659SOL     OW10401   4.432   2.251   4.933  0.1886 -0.2599  0.7688
 2659SOL    HW210402   4.434   2.185   5.001  1.3213  1.0122  2.0384
 2659SOL    HW310403   4.516   2.241   4.887 -0.9773 -1.7996 -1.2273
 2659SOL    MW410404   4.443   2.241   4.936  0.1842 -0.2952  0.6729
 2660SOL     OW10405   6.057   2.350   4.484 -0.4830 -0.1622 -0.0559
 2660SOL    HW210406   6.061   2.398   4.566 -1.1920  0.8759 -0.5972
 2660SOL    HW310407   5.967   2.319   4.479 -0.3157 -0.6242 -0.2153
 2660SOL    MW410408   6.046   2.352   4.494 -0.5545 -0.0862 -0.1484
 2661SOL     OW10409   0.636   1.983   4.053  0.4336  0.1209  0.3533
 2661SOL    HW210410   0.650   2.076   4.072 -2.3717  1.2581 -2.2305
 2661SOL    HW310411   0.664   1.973   3.962 -2.2760 -0.6877 -0.4863
 2661SOL    MW410412   0.642   1.994   4.043 -0.2940  0.1643 -0.0984
 2662SOL     OW10413   1.480   3.302   5.478  0.5594  0.4815 -0.1302
 2662SOL    HW210414   1.458   3.252   5.556  1.2855  0.5585  0.1280
 2662SOL    HW310415   1.573   3.284   5.463  0.7441  1.4889 -0.2257
 2662SOL    MW410416   1.489   3.293   5.486  0.6796  0.6246 -0.1088
 2663SOL     OW10417   2.847   1.731   0.968  0.1035  0.0705  0.0796
 2663SOL    HW210418   2.872   1.715   0.877 -1.2462 -0.0908 -0.2838
 2663SOL    HW310419   2.760   1.771   0.962  1.2692  3.0917  1.1478
 2663SOL    MW410420   2.839   1.734   0.955  0.0792  0.4478  0.1726
 2664SOL     OW10421   1.319   0.299   5.316  0.4170 -0.9416 -0.0145
 2664SOL    HW210422   1.393   0.308   5.377 -0.2314 -0.9829  0.7966
 2664SOL    HW310423   1.327   0.375   5.258  1.2290 -1.0728 -0.0935
 2664SOL    MW410424   1.330   0.310   5.317  0.4386 -0.9644  0.0821
 2665SOL     OW10425   1.105   6.312   4.257  0.7880  0.0824 -0.0290
 2665SOL    HW210426   1.106   6.407   4.265 -0.7105  0.3090 -1.7339
 2665SOL    HW310427   1.052   6.282   4.331  2.5529  0.3857  1.4244
 2665SOL    MW410428   1.098   6.321   4.268  0.8232  0.1523 -0.0622
 2666SOL     OW10429   4.054   3.335   3.743  0.0919  0.5309 -0.3794
 2666SOL    HW210430   4.122   3.316   3.678  0.3584  1.6882 -0.4484
 2666SOL    HW310431   3.980   3.281   3.715  0.9775 -0.8242 -0.2554
 2666SOL    MW410432   4.053   3.325   3.730  0.2439  0.5048 -0.3721
 2667SOL     OW10433   3.965   2.762   3.392 -0.6042 -0.1601 -0.7747
 2667SOL    HW210434   3.969   2.688   3.453  0.5641  0.7716  0.3353
 2667SOL    HW310435   4.053   2.767   3.355 -0.9670  0.0427 -1.6280
 2667SOL    MW410436   3.977   2.753   3.395 -0.4980 -0.0104 -0.7408
 2668SOL     OW10437   0.505   3.098   0.150 -0.1774 -0.3953  0.2377
 2668SOL    HW210438   0.543   3.020   0.192 -0.6311 -1.4879 -1.2761
 2668SOL    HW310439   0.573   3.129   0.090 -0.0343  0.3312  0.7663
 2668SOL    MW410440   0.519   3.092   0.147 -0.2184 -0.4436  0.1077
 2669SOL     OW10441   0.481   1.311   4.606 -0.4576  0.4523 -0.0999
 2669SOL    HW210442   0.392   1.347   4.613 -0.4026  0.8513 -1.2187
 2669SOL    HW310443   0.527   1.373   4.549 -0.2962 -1.2724 -1.9373
 2669SOL    MW410444   0.475   1.324   4.600 -0.4290  0.2774 -0.4899
 2670SOL     OW10445   2.249   0.442   1.963  0.0377 -0.2975  0.0817
 2670SOL    HW210446   2.312   0.372   1.947  0.4402  0.1976 -0.5458
 2670SOL    HW310447   2.251   0.495   1.884  0.3937  0.9314  0.8805
 2670SOL    MW410448   2.258   0.440   1.951  0.1378 -0.0701  0.1043
 2671SOL     OW10449   5.317   0.612   2.959  0.2069  0.9176  0.1128
 2671SOL    HW210450   5.276   0.545   2.903 -0.0046  1.3162 -0.2151
 2671SOL    HW310451   5.362   0.562   3.027 -1.4236  0.4731  0.9291
 2671SOL    MW410452   5.317   0.596   2.960 -0.0361  0.9116  0.1772
 2672SOL     OW10453   3.786   0.681   1.752  0.5642  0.2752  0.1154
 2672SOL    HW210454   3.809   0.609   1.693  0.4006  0.8856 -0.7125
 2672SOL    HW310455   3.770   0.755   1.694  0.7791  0.9953  0.9560
 2672SOL    MW410456   3.787   0.681   1.737  0.5710  0.4507  0.1171
 2673SOL     OW10457   3.356   2.757   3.417  0.2013  0.0769  0.4452
 2673SOL    HW210458   3.380   2.690   3.353  0.7534  0.1132  0.6087
 2673SOL    HW310459   3.304   2.821   3.368  1.8397  0.8678 -0.3234
 2673SOL    MW410460   3.352   2.757   3.402  0.4903  0.1860  0.3654
 2674SOL     OW10461   1.335   0.728   5.388  0.1596 -0.2663  0.5816
 2674SOL    HW210462   1.262   0.679   5.350  0.6586  0.0576 -0.8335
 2674SOL    HW310463   1.401   0.661   5.406  0.1895 -0.3298  0.2371
 2674SOL    MW410464   1.334   0.712   5.385  0.2294 -0.2320  0.3494
 2675SOL     OW10465   2.180   5.050   6.368  0.1788  0.0475 -0.1546
 2675SOL    HW210466   2.214   5.042   6.457  0.4917 -0.4786 -0.3168
 2675SOL    HW310467   2.211   4.971   6.323 -1.2619 -0.4683 -0.3036
 2675SOL    MW410468   2.188   5.039   6.374  0.0300 -0.0899 -0.1957
 2676SOL     OW10469   2.404   5.435   0.729 -0.4332  0.8739 -0.0942
 2676SOL    HW210470   2.353   5.405   0.654  0.4685  0.8220 -0.7065
 2676SOL    HW310471   2.344   5.488   0.780 -1.3915 -0.0338 -0.2389
 2676SOL    MW410472   2.389   5.438   0.726 -0.4406  0.7473 -0.1940
 2677SOL     OW10473   5.491   2.377   2.619 -0.2632 -0.5534  0.2494
 2677SOL    HW210474   5.557   2.431   2.575  1.1691  0.6315  3.5477
 2677SOL    HW310475   5.411   2.429   2.616 -0.1790 -0.4689 -0.8444
 2677SOL    MW410476   5.489   2.391   2.613 -0.0631 -0.3859  0.5403
 2678SOL     OW10477   1.525   4.943   5.732 -0.1319  0.4320  0.6261
 2678SOL    HW210478   1.431   4.941   5.752 -0.2784  2.8915  0.5714
 2678SOL    HW310479   1.536   5.022   5.679  1.8100 -0.4762 -0.4128
 2678SOL    MW410480   1.514   4.954   5.728  0.1050  0.6367  0.4818
 2679SOL     OW10481   0.294   4.371   0.606  0.1885  0.1607  0.0293
 2679SOL    HW210482   0.284   4.420   0.688  0.0302 -2.1310  1.4555
 2679SOL    HW310483   0.340   4.291   0.631 -0.0933 -0.7332 -2.0897
 2679SOL    MW410484   0.299   4.367   0.620  0.1304 -0.2596 -0.0621
 2680SOL     OW10485   5.427   1.224   4.831 -0.0776  0.4808 -0.6202
 2680SOL    HW210486   5.395   1.266   4.910  0.5053  1.6565 -0.9847
 2680SOL    HW310487   5.472   1.145   4.861 -4.7707 -2.4170 -0.1503
 2680SOL    MW410488   5.429   1.219   4.845 -0.6199  0.2536 -0.6063
 2681SOL     OW10489   0.400   4.750   0.678 -0.3250  0.2707  0.2586
 2681SOL    HW210490   0.374   4.700   0.756  0.0300  0.2314  0.3539
 2681SOL    HW310491   0.494   4.764   0.690 -0.0446 -0.6709 -0.6798
 2681SOL    MW410492   0.409   4.745   0.690 -0.2412  0.1413  0.1473
 2682SOL     OW10493   6.255   1.693   3.547  0.3387  0.1871 -0.1987
 2682SOL    HW210494   6.251   1.761   3.615 -2.7401 -0.3789  0.3272
 2682SOL    HW310495   6.192   1.627   3.575  0.8756 -1.3514 -2.3466
 2682SOL    MW410496   6.246   1.694   3.560  0.0033 -0.0906 -0.4127
 2683SOL     OW10497   4.120   4.798   1.053 -0.5494  0.0037  0.1336
 2683SOL    HW210498   4.133   4.813   1.146  0.8354  1.8570 -0.2847
 2683SOL    HW310499   4.205   4.767   1.022 -1.0166 -0.6647 -0.5112
 2683SOL    MW410500   4.133   4.796   1.061 -0.4283  0.1600 -0.0067
 2684SOL     OW10501   2.873   5.417   2.971  0.2068 -0.4687 -0.1994
 2684SOL    HW210502   2.945   5.473   3.001 -0.5482  0.0745  0.6577
 2684SOL    HW310503   2.909   5.369   2.897  1.6037 -0.5657  0.5060
 2684SOL    MW410504   2.887   5.418   2.966  0.2915 -0.4098  0.0067
 2685SOL     OW10505   2.663   2.986   5.467  0.1159  0.0616  0.1137
 2685SOL    HW210506   2.735   3.031   5.423 -0.3120  0.9058  0.2593
 2685SOL    HW310507   2.703   2.908   5.506  2.2354  3.0589  4.7875
 2685SOL    MW410508   2.678   2.981   5.466  0.3391  0.5684  0.7496
 2686SOL     OW10509   5.138   2.780   6.156  0.3734 -0.6108 -0.4780
 2686SOL    HW210510   5.229   2.755   6.170 -0.1096 -2.8520 -0.8435
 2686SOL    HW310511   5.135   2.812   6.066  0.7219 -1.1239 -0.6819
 2686SOL    MW410512   5.150   2.781   6.146  0.3557 -0.9742 -0.5531
 2687SOL     OW10513   0.248   5.480   5.875 -0.2078  1.1879  0.5835
 2687SOL    HW210514   0.290   5.469   5.790  1.8576  0.0231  1.6658
 2687SOL    HW310515   0.253   5.573   5.893 -0.3859  1.3972 -0.4084
 2687SOL    MW410516   0.254   5.491   5.866  0.0412  1.0618  0.5955
 2688SOL     OW10517   3.812   4.369   5.026 -0.4540 -0.1680  0.2851
 2688SOL    HW210518   3.862   4.451   5.028 -1.1144  0.2477  0.1706
 2688SOL    HW310519   3.857   4.315   4.960  0.7045 -0.3824  1.2147
 2688SOL    MW410520   3.825   4.373   5.017 -0.3883 -0.1414  0.3927
 2689SOL     OW10521   5.786   2.935   3.911 -0.3974 -0.0181 -0.3758
 2689SOL    HW210522   5.747   2.977   3.987  1.7745 -0.4465  1.0792
 2689SOL    HW310523   5.786   3.003   3.843  0.0107  1.2572  0.8562
 2689SOL    MW410524   5.781   2.949   3.912 -0.0570  0.0936 -0.0213
 2690SOL     OW10525   6.175   3.908   0.416  0.0047  0.0535 -0.1408
 2690SOL    HW210526   6.239   3.874   0.479 -0.5853  0.3690  0.6484
 2690SOL    HW310527   6.199   3.867   0.333  0.7418 -0.4471  0.3039
 2690SOL    MW410528   6.187   3.898   0.413  0.0241  0.0291  0.0220
 2691SOL     OW10529   5.434   0.423   4.648 -0.6042 -0.2663 -0.2585
 2691SOL    HW210530   5.512   0.437   4.701 -0.9654 -1.0385  0.4847
 2691SOL    HW310531   5.468   0.407   4.560  0.0110  0.5948 -0.1991
 2691SOL    MW410532   5.449   0.423   4.643 -0.5707 -0.2546 -0.1526
 2692SOL     OW10533   2.698   3.550   1.398 -0.0901  0.3287 -0.3624
 2692SOL    HW210534   2.632   3.557   1.468 -1.2717  0.7008 -1.4717
 2692SOL    HW310535   2.749   3.630   1.405  0.4600 -0.0963  0.6979
 2692SOL    MW410536   2.696   3.561   1.408 -0.1734  0.3218 -0.3689
 2693SOL     OW10537   2.090   1.190   3.351 -0.4775  0.2977 -0.2828
 2693SOL    HW210538   2.100   1.153   3.264  0.3990 -1.7958  0.6514
 2693SOL    HW310539   2.175   1.176   3.393 -0.9867  0.9595  1.0245
 2693SOL    MW410540   2.103   1.184   3.345 -0.4290  0.1088  0.0129
 2694SOL     OW10541   1.858   2.769   5.408  0.5050 -0.0381  0.2342
 2694SOL    HW210542   1.809   2.848   5.427 -0.5547 -0.0805 -1.9421
 2694SOL    HW310543   1.802   2.720   5.347  2.1392 -1.3433 -0.3138
 2694SOL    MW410544   1.844   2.773   5.402  0.5808 -0.2159 -0.1253
 2695SOL     OW10545   2.728   6.121   0.114 -0.4134  0.1944 -0.9178
 2695SOL    HW210546   2.790   6.150   0.047  1.1785  1.6408  1.0706
 2695SOL    HW310547   2.678   6.199   0.137  0.0815  0.1045  0.5812
 2695SOL    MW410548   2.730   6.135   0.108 -0.1381  0.3733 -0.4577
 2696SOL     OW10549   2.465   4.340   5.594 -0.2696 -0.5246 -0.9411
 2696SOL    HW210550   2.552   4.368   5.622  0.0148 -2.1995 -0.0129
 2696SOL    HW310551   2.409   4.355   5.670 -0.7775  0.3457 -1.4640
 2696SOL    MW410552   2.469   4.346   5.608 -0.2991 -0.6307 -0.8876
 2697SOL     OW10553   0.720   3.783   0.390  0.4395  0.5011  0.5711
 2697SOL    HW210554   0.717   3.699   0.345 -0.9506  0.4137  0.8063
 2697SOL    HW310555   0.794   3.829   0.349 -0.0471 -0.0264 -0.9721
 2697SOL    MW410556   0.730   3.778   0.379  0.1919  0.4200  0.3985
 2698SOL     OW10557   0.387   2.630   5.422  0.3435  0.6289 -0.2216
 2698SOL    HW210558   0.450   2.591   5.362  0.7497 -0.9716  1.1653
 2698SOL    HW310559   0.307   2.578   5.410  0.3862  0.3784  0.4892
 2698SOL    MW410560   0.385   2.618   5.413  0.4028  0.3847  0.0552
 2699SOL     OW10561   1.447   5.548   3.146 -0.2655  0.5808  0.5827
 2699SOL    HW210562   1.516   5.483   3.137 -0.7065 -0.0469  1.5554
 2699SOL    HW310563   1.372   5.498   3.181 -1.4230  1.0984 -1.0608
 2699SOL    MW410564   1.446   5.533   3.150 -0.4764  0.5663  0.4942
 2700SOL     OW10565   2.728   5.087   4.289 -0.3957 -0.3577 -0.2342
 2700SOL    HW210566   2.660   5.066   4.224 -0.1177 -2.0896 -0.0107
 2700SOL    HW310567   2.777   5.005   4.299  0.1108  0.1348  1.5220
 2700SOL    MW410568   2.725   5.073   4.281 -0.2922 -0.5212  0.0270
 2701SOL     OW10569   1.535   0.964   5.221 -0.2788  0.1382 -0.0792
 2701SOL    HW210570   1.625   0.993   5.239 -0.0736  0.9295 -2.0978
 2701SOL    HW310571   1.487   0.985   5.300  1.0119  1.1076  0.4865
 2701SOL    MW410572   1.541   0.971   5.233 -0.0814  0.3705 -0.2709
 2702SOL     OW10573   6.180   1.497   1.595 -0.4857  0.3702 -0.6368
 2702SOL    HW210574   6.164   1.431   1.663 -1.0811  1.8186  0.6830
 2702SOL    HW310575   6.102   1.494   1.540 -1.3406  1.1838  0.4844
 2702SOL    MW410576   6.168   1.488   1.597 -0.6770  0.6686 -0.3147
 2703SOL     OW10577   3.318   3.756   1.125 -0.2101 -0.2137  0.0296
 2703SOL    HW210578   3.294   3.842   1.090 -1.4648  0.2944  1.9789
 2703SOL    HW310579   3.235   3.715   1.148  0.4061 -1.7805 -0.4467
 2703SOL    MW410580   3.304   3.762   1.123 -0.2943 -0.3534  0.2239
 2704SOL     OW10581   5.786   1.786   2.006  0.5723 -0.2566  0.2085
 2704SOL    HW210582   5.748   1.868   1.975  0.5474 -0.7725 -1.2007
 2704SOL    HW310583   5.852   1.764   1.941  1.7191 -0.5494  1.4199
 2704SOL    MW410584   5.789   1.794   1.994  0.7204 -0.3633  0.1824
 2705SOL     OW10585   1.693   1.158   2.864 -0.9122 -0.3029 -0.0987
 2705SOL    HW210586   1.760   1.226   2.856  0.3499 -1.5641 -0.6505
 2705SOL    HW310587   1.610   1.205   2.855 -0.0680  1.0895 -0.9734
 2705SOL    MW410588   1.691   1.173   2.862 -0.6343 -0.2856 -0.2869
 2706SOL     OW10589   0.494   1.202   0.083  0.3798  0.4017 -0.4616
 2706SOL    HW210590   0.542   1.237   0.008  0.4482  2.3679  0.4442
 2706SOL    HW310591   0.557   1.147   0.129  0.6195 -0.0506 -1.3027
 2706SOL    MW410592   0.508   1.200   0.079  0.4204  0.6014 -0.4531
 2707SOL     OW10593   4.558   6.308   0.522  0.3470 -0.2522  0.0958
 2707SOL    HW210594   4.573   6.381   0.581 -0.1454 -0.8750  1.0218
 2707SOL    HW310595   4.522   6.347   0.443  1.8181  0.6908 -0.1440
 2707SOL    MW410596   4.555   6.323   0.519  0.4761 -0.2100  0.1863
 2708SOL     OW10597   0.415   4.778   5.573  0.5368  0.0636  0.1808
 2708SOL    HW210598   0.412   4.825   5.490 -0.6440  0.3646  0.3903
 2708SOL    HW310599   0.485   4.821   5.623 -0.7526  1.8696  0.5138
 2708SOL    MW410600   0.424   4.790   5.569  0.2109  0.3416  0.2524
 2709SOL     OW10601   2.973   3.915   5.391 -0.5505  0.3237  0.0664
 2709SOL    HW210602   2.997   3.948   5.478  3.0807  1.0190 -1.0466
 2709SOL    HW310603   2.928   3.988   5.349  0.5485  1.1341  0.2741
 2709SOL    MW410604   2.970   3.929   5.397  0.0736  0.5224 -0.0530
 2710SOL     OW10605   0.678   5.800   6.429 -0.5221  0.3876  0.2009
 2710SOL    HW210606   0.611   5.732   6.420  0.5805 -0.7216  0.1221
 2710SOL    HW310607   0.651   5.867   6.366 -0.2959 -1.1274 -1.6208
 2710SOL    MW410608   0.665   5.799   6.419 -0.3467  0.0414 -0.0498
 2711SOL     OW10609   4.192   4.850   4.377  0.4364  0.0149 -0.2705
 2711SOL    HW210610   4.281   4.832   4.409  0.7545 -0.1018 -1.2064
 2711SOL    HW310611   4.135   4.808   4.441  1.0241  0.7498  0.7833
 2711SOL    MW410612   4.196   4.842   4.390  0.5560  0.0965 -0.2550
 2712SOL     OW10613   0.130   0.685   4.875 -0.1126 -0.2342 -0.1465
 2712SOL    HW210614   0.145   0.591   4.867  0.5613 -0.2015  0.5668
 2712SOL    HW310615   0.139   0.702   4.969  0.9155  0.7198 -0.4049
 2712SOL    MW410616   0.133   0.675   4.886  0.1120 -0.1040 -0.0865
 2713SOL     OW10617   5.435   3.664   1.722  0.1262  0.0588  0.0982
 2713SOL    HW210618   5.471   3.607   1.789 -1.1092 -1.1613 -0.2228
 2713SOL    HW310619   5.486   3.645   1.644 -0.1453 -0.4618  0.0446
 2713SOL    MW410620   5.446   3.654   1.721 -0.0726 -0.1709  0.0488
 2714SOL     OW10621   3.814   3.300   1.289 -0.1044 -0.0348 -0.0328
 2714SOL    HW210622   3.806   3.254   1.372  0.5843 -1.0465 -0.5136
 2714SOL    HW310623   3.896   3.348   1.295 -0.1816  0.1009 -0.0380
 2714SOL    MW410624   3.824   3.301   1.300 -0.0237 -0.1504 -0.0969
 2715SOL     OW10625   3.784   3.777   1.053  0.2136 -0.3927  0.1948
 2715SOL    HW210626   3.847   3.835   1.096  1.1749 -0.6121 -0.8924
 2715SOL    HW310627   3.756   3.718   1.123  0.1828  0.5476  1.0158
 2715SOL    MW410628   3.789   3.777   1.068  0.3364 -0.2976  0.1597
 2716SOL     OW10629   2.098   1.389   4.625  0.9140  0.2954 -0.1411
 2716SOL    HW210630   2.050   1.312   4.598  0.6441  0.0593  0.9565
 2716SOL    HW310631   2.149   1.414   4.548  1.7988 -1.5715 -0.2095
 2716SOL    MW410632   2.098   1.382   4.611  0.9951  0.0179 -0.0053
 2717SOL     OW10633   5.790   1.544   1.811  0.0269 -0.5221 -0.0033
 2717SOL    HW210634   5.795   1.508   1.722  0.7348 -0.7089  0.1060
 2717SOL    HW310635   5.725   1.490   1.855 -1.0745  0.1940 -0.6817
 2717SOL    MW410636   5.782   1.532   1.805 -0.0250 -0.4523 -0.0784
 2718SOL     OW10637   2.261   2.152   5.806  0.0186  0.5130  0.5897
 2718SOL    HW210638   2.344   2.172   5.848  0.3533  0.3149  0.0275
 2718SOL    HW310639   2.230   2.073   5.851  1.5093 -1.0910 -1.0531
 2718SOL    MW410640   2.268   2.144   5.817  0.2594  0.2753  0.2988
 2719SOL     OW10641   4.760   4.453   2.544 -0.0632  0.2636 -0.3436
 2719SOL    HW210642   4.847   4.492   2.542  0.1935 -0.3590 -1.7126
 2719SOL    HW310643   4.705   4.516   2.497  0.3874 -1.0374 -2.7247
 2719SOL    MW410644   4.764   4.467   2.538  0.0301  0.0098 -0.8384
 2720SOL     OW10645   4.844   2.574   6.260  0.5073 -0.3399 -0.0955
 2720SOL    HW210646   4.820   2.661   6.228  1.1995 -0.4348 -0.9249
 2720SOL    HW310647   4.784   2.557   6.332 -0.3499  0.3763 -0.6181
 2720SOL    MW410648   4.833   2.583   6.265  0.4855 -0.2579 -0.2739
 2721SOL     OW10649   0.975   4.224   0.566  0.2401  0.5458  0.0442
 2721SOL    HW210650   1.051   4.185   0.522 -0.4937  0.1085 -0.8668
 2721SOL    HW310651   0.937   4.151   0.616  0.7184  0.8970  0.9527
 2721SOL    MW410652   0.980   4.209   0.567  0.2064  0.5344  0.0439
 2722SOL     OW10653   2.815   1.824   4.709  0.6042 -0.5190  0.6814
 2722SOL    HW210654   2.906   1.855   4.711  0.0153  1.3669  0.5986
 2722SOL    HW310655   2.765   1.900   4.681 -0.9451 -1.7326  0.0048
 2722SOL    MW410656   2.821   1.838   4.706  0.3221 -0.4303  0.5812
 2723SOL     OW10657   6.057   0.149   0.798 -0.0861 -0.1115  0.1083
 2723SOL    HW210658   6.124   0.094   0.757  0.2726 -0.5019  1.1957
 2723SOL    HW310659   5.974   0.108   0.773  0.0932 -0.0202 -0.6744
 2723SOL    MW410660   6.055   0.136   0.789 -0.0151 -0.1509  0.1485
 2724SOL     OW10661   2.382   5.061   2.265 -0.7347 -0.2461 -0.0911
 2724SOL    HW210662   2.452   5.121   2.241 -0.1083 -0.6244  0.7250
 2724SOL    HW310663   2.391   4.988   2.204 -1.3478  0.3587 -0.9303
 2724SOL    MW410664   2.392   5.059   2.254 -0.7329 -0.2162 -0.0941
 2725SOL     OW10665   0.152   5.433   4.484 -0.2560 -0.0574 -0.6377
 2725SOL    HW210666   0.162   5.441   4.389  0.4644 -0.3422 -0.5861
 2725SOL    HW310667   0.181   5.344   4.504 -1.1649 -0.2788 -0.2449
 2725SOL    MW410668   0.157   5.423   4.474 -0.2809 -0.1242 -0.5790
 2726SOL     OW10669   0.189   1.623   0.700 -0.1158  0.2583 -0.0644
 2726SOL    HW210670   0.278   1.608   0.670 -0.3785 -0.3908 -0.5543
 2726SOL    HW310671   0.199   1.666   0.785  0.6517  0.8005 -0.4189
 2726SOL    MW410672   0.202   1.627   0.707 -0.0492  0.2442 -0.1758
 2727SOL     OW10673   6.404   4.699   4.881 -0.3383 -0.7290  0.2027
 2727SOL    HW210674   6.420   4.669   4.792 -1.1615 -2.0381  0.4795
 2727SOL    HW310675   6.346   4.774   4.871  0.4908 -0.1446 -0.4059
 2727SOL    MW410676   6.399   4.705   4.868 -0.3375 -0.8246  0.1589
 2728SOL     OW10677   0.513   0.764   4.009 -0.2485 -0.2535  0.8677
 2728SOL    HW210678   0.460   0.752   4.088 -1.2237  0.0832  0.2809
 2728SOL    HW310679   0.591   0.710   4.023 -0.4908 -0.3194  1.9828
 2728SOL    MW410680   0.516   0.755   4.021 -0.4092 -0.2178  0.9374
 2729SOL     OW10681   3.076   5.950   0.462  0.1535  0.4395  0.0060
 2729SOL    HW210682   3.100   5.981   0.375 -0.3354  0.1544 -0.2363
 2729SOL    HW310683   2.983   5.969   0.470 -0.1790 -0.9871 -0.1771
 2729SOL    MW410684   3.067   5.957   0.451  0.0451  0.2137 -0.0501
 2730SOL     OW10685   4.189   6.338   6.357  0.2929  0.5174  0.5503
 2730SOL    HW210686   4.245   6.415   6.369  1.5973 -0.2739 -0.2700
 2730SOL    HW310687   4.132   6.362   6.283  2.2571 -0.0995 -1.2616
 2730SOL    MW410688   4.189   6.352   6.349  0.7241  0.3316  0.2030
 2731SOL     OW10689   0.149   1.315   2.062 -0.4261  0.1278 -0.0411
 2731SOL    HW210690   0.236   1.348   2.038 -0.3151 -0.7354 -0.9326
 2731SOL    HW310691   0.165   1.259   2.138 -0.5553  1.7386  1.2081
 2731SOL    MW410692   0.163   1.312   2.069 -0.4285  0.2264  0.0061
 2732SOL     OW10693   0.565   6.318   0.620 -0.4839  0.2814  0.3202
 2732SOL    HW210694   0.488   6.276   0.583 -2.1777  0.5511  3.2127
 2732SOL    HW310695   0.620   6.245   0.651  0.3288  0.1054 -1.3877
 2732SOL    MW410696   0.562   6.302   0.619 -0.6002  0.2938  0.4765
 2733SOL     OW10697   1.928   0.751   3.692 -0.3775 -0.2831  0.1073
 2733SOL    HW210698   1.933   0.843   3.665  1.2353 -0.2478  0.4173
 2733SOL    HW310699   1.835   0.735   3.705 -0.7162  1.2246 -0.2417
 2733SOL    MW410700   1.917   0.761   3.690 -0.2094 -0.0795  0.1022
 2734SOL     OW10701   3.655   2.145   2.325 -0.2764  0.0174  0.2098
 2734SOL    HW210702   3.702   2.098   2.394 -0.7210 -1.1466 -0.2476
 2734SOL    HW310703   3.678   2.237   2.338  2.5229 -0.5228 -0.3238
 2734SOL    MW410704   3.664   2.151   2.336  0.0343 -0.2075  0.0791
 2735SOL     OW10705   3.231   0.154   0.092 -0.1386  1.0418  0.5747
 2735SOL    HW210706   3.283   0.133   0.169  0.3583  1.1722  0.2755
 2735SOL    HW310707   3.152   0.100   0.101  0.6888 -0.2347  0.2831
 2735SOL    MW410708   3.227   0.144   0.104  0.0362  0.8906  0.4967
 2736SOL     OW10709   4.697   3.291   0.125  0.4048  0.1514 -0.3717
 2736SOL    HW210710   4.771   3.322   0.073  0.4043 -0.9424 -1.0695
 2736SOL    HW310711   4.735   3.226   0.184 -0.2364 -2.0627 -2.2179
 2736SOL    MW410712   4.712   3.286   0.126  0.3201 -0.2850 -0.7073
 2737SOL     OW10713   0.793   3.726   6.368  0.1309 -0.0170 -0.1055
 2737SOL    HW210714   0.847   3.648   6.355  1.1483  0.8309 -1.1834
 2737SOL    HW310715   0.849   3.787   6.416 -0.1017  0.6386 -0.6539
 2737SOL    MW410716   0.807   3.724   6.373  0.2344  0.1814 -0.3201
 2738SOL     OW10717   1.544   2.954   4.540 -0.0714 -0.5458 -0.1737
 2738SOL    HW210718   1.616   2.893   4.529  0.1986 -0.3297  0.3925
 2738SOL    HW310719   1.467   2.898   4.553  0.1447 -0.7609  0.1650
 2738SOL    MW410720   1.543   2.939   4.540 -0.0073 -0.5457 -0.0543
 2739SOL     OW10721   3.184   1.249   2.811  0.2306 -0.2433  0.1001
 2739SOL    HW210722   3.090   1.243   2.794 -0.1386  1.0950  1.4177
 2739SOL    HW310723   3.211   1.330   2.768  0.2011  0.7715  1.8799
 2739SOL    MW410724   3.175   1.259   2.803  0.1780  0.0671  0.5087
 2740SOL     OW10725   6.268   3.516   1.938  0.0776  0.4146 -0.2384
 2740SOL    HW210726   6.322   3.440   1.963  1.1170  1.0517 -0.4586
 2740SOL    HW310727   6.329   3.573   1.891 -0.7183  1.3348 -0.1689
 2740SOL    MW410728   6.283   3.513   1.935  0.1098  0.6200 -0.2583
 2741SOL     OW10729   2.468   3.808   0.178  0.6912 -0.3236  0.1796
 2741SOL    HW210730   2.486   3.900   0.194 -1.3716 -0.0125  0.9906
 2741SOL    HW310731   2.411   3.781   0.250 -0.2519 -1.7352 -1.0179
 2741SOL    MW410732   2.463   3.817   0.190  0.2946 -0.4688  0.1286
 2742SOL     OW10733   4.452   5.777   1.733  0.0557 -0.3081  0.2839
 2742SOL    HW210734   4.385   5.796   1.799 -1.9839 -2.6046 -0.9506
 2742SOL    HW310735   4.483   5.863   1.704 -0.7403  0.7905  2.4623
 2742SOL    MW410736   4.447   5.791   1.738 -0.3184 -0.4662  0.4085
 2743SOL     OW10737   0.908   3.028   6.270  0.4893 -0.1311  0.0779
 2743SOL    HW210738   0.907   3.101   6.209  0.1579 -0.9370 -0.9240
 2743SOL    HW310739   0.989   2.981   6.250 -0.1844 -1.0536 -0.5783
 2743SOL    MW410740   0.918   3.031   6.259  0.3566 -0.3591 -0.1408
 2744SOL     OW10741   1.851   1.623   5.684  0.1661 -0.2669  0.5166
 2744SOL    HW210742   1.945   1.607   5.673  0.1232 -0.1004 -0.1329
 2744SOL    HW310743   1.809   1.554   5.632 -0.0456  0.6083 -0.5155
 2744SOL    MW410744   1.858   1.612   5.676  0.1325 -0.1294  0.2948
 2745SOL     OW10745   2.439   1.502   6.038 -0.0908 -0.1827 -0.7266
 2745SOL    HW210746   2.466   1.470   5.952  2.1948  1.3936 -0.6972
 2745SOL    HW310747   2.345   1.516   6.030 -0.0450 -0.7010 -2.7431
 2745SOL    MW410748   2.430   1.499   6.026  0.2168 -0.0431 -0.9888
 2746SOL     OW10749   4.677   3.509   6.160 -0.2810 -0.2932 -0.6248
 2746SOL    HW210750   4.742   3.559   6.111 -0.7520  2.3599  1.1873
 2746SOL    HW310751   4.605   3.496   6.099  1.2445 -1.9266 -2.1894
 2746SOL    MW410752   4.676   3.514   6.146 -0.1419 -0.1586 -0.5921
 2747SOL     OW10753   5.790   3.072   5.097 -0.2681  0.3693 -0.4515
 2747SOL    HW210754   5.860   3.083   5.161 -0.1841  0.6111 -0.5870
 2747SOL    HW310755   5.726   3.139   5.120  0.3457  1.3128 -1.4154
 2747SOL    MW410756   5.791   3.082   5.109 -0.1760  0.5257 -0.5966
 2748SOL     OW10757   3.676   3.271   4.188  0.1247  0.0114  0.3401
 2748SOL    HW210758   3.706   3.361   4.175 -0.0159 -0.0176 -0.2121
 2748SOL    HW310759   3.610   3.258   4.120  0.1580 -0.5190  0.4081
 2748SOL    MW410760   3.671   3.281   4.178  0.1106 -0.0624  0.2762
 2749SOL     OW10761   5.970   3.890   3.505  0.8204  0.7290  0.7444
 2749SOL    HW210762   5.956   3.890   3.411 -0.3184 -1.1299  0.8674
 2749SOL    HW310763   6.030   3.817   3.521 -0.6722 -0.3692  1.6185
 2749SOL    MW410764   5.976   3.881   3.495  0.4732  0.3389  0.8760
 2750SOL     OW10765   6.208   2.863   1.155 -0.1080 -0.0105  0.5886
 2750SOL    HW210766   6.144   2.809   1.201  1.5206  0.2798  3.3798
 2750SOL    HW310767   6.252   2.913   1.223  1.3928  1.6925 -1.4774
 2750SOL    MW410768   6.205   2.862   1.170  0.3049  0.2525  0.6843
 2751SOL     OW10769   4.349   4.967   2.982  0.0795 -0.3502 -0.1328
 2751SOL    HW210770   4.386   4.896   2.930  0.4090  0.5965 -1.2202
 2751SOL    HW310771   4.361   5.045   2.928  0.0014  0.5850  1.1644
 2751SOL    MW410772   4.356   4.968   2.968  0.1127 -0.1019 -0.1051
 2752SOL     OW10773   4.464   4.814   2.757 -0.0515  0.0769  0.0657
 2752SOL    HW210774   4.529   4.744   2.762 -0.7846 -0.6086  0.2324
 2752SOL    HW310775   4.383   4.770   2.732 -0.5361  0.8601  0.2154
 2752SOL    MW410776   4.462   4.799   2.754 -0.2122  0.0898  0.1074
 2753SOL     OW10777   3.940   4.523   4.200 -0.3014  0.8860  0.3652
 2753SOL    HW210778   4.005   4.464   4.239 -0.4845  0.0653 -0.5034
 2753SOL    HW310779   3.941   4.601   4.255  0.8247  0.5525  0.8478
 2753SOL    MW410780   3.949   4.525   4.212 -0.1770  0.7337  0.3143
 2754SOL     OW10781   0.057   6.328   0.839 -0.3325 -0.0166 -0.3126
 2754SOL    HW210782   0.092   6.242   0.815  1.5216 -0.6576  3.7790
 2754SOL    HW310783   0.006   6.312   0.918 -0.0914  2.5789  0.4654
 2754SOL    MW410784   0.055   6.314   0.846 -0.0560  0.2413  0.3299
 2755SOL     OW10785   2.547   2.952   3.876 -0.3698 -1.0618  0.0470
 2755SOL    HW210786   2.552   3.033   3.927  1.2597 -1.2060  0.1872
 2755SOL    HW310787   2.510   2.888   3.936 -1.8033 -0.4221 -0.1025
 2755SOL    MW410788   2.543   2.955   3.891 -0.3439 -0.9965  0.0458
 2756SOL     OW10789   2.319   1.210   5.397  0.3544 -0.4544  0.5576
 2756SOL    HW210790   2.362   1.125   5.387  1.5901  0.3430 -1.5064
 2756SOL    HW310791   2.226   1.191   5.393  0.6009 -1.7315  0.4572
 2756SOL    MW410792   2.312   1.196   5.395  0.5499 -0.5177  0.2720
 2757SOL     OW10793   0.565   4.545   0.955 -0.1709 -0.8421  0.1530
 2757SOL    HW210794   0.576   4.511   1.044  0.2295 -0.5495  0.2156
 2757SOL    HW310795   0.646   4.523   0.910  0.1646  0.1572  0.2389
 2757SOL    MW410796   0.577   4.538   0.961 -0.0738 -0.6717  0.1726
 2758SOL     OW10797   3.713   2.289   2.663  0.2481  0.2136  0.0079
 2758SOL    HW210798   3.705   2.339   2.582 -0.0121 -0.2498 -0.2516
 2758SOL    HW310799   3.730   2.200   2.635  0.3887  0.0935  0.4689
 2758SOL    MW410800   3.715   2.284   2.649  0.2323  0.1366  0.0345
 2759SOL     OW10801   4.266   3.176   4.095 -0.2154 -0.0116  0.1396
 2759SOL    HW210802   4.227   3.259   4.124  0.2463  0.4231 -0.4672
 2759SOL    HW310803   4.281   3.128   4.176 -1.1872  0.1766  0.4503
 2759SOL    MW410804   4.263   3.181   4.110 -0.2827  0.0706  0.1005
 2760SOL     OW10805   0.666   3.530   2.170 -0.0576  0.1818 -0.3530
 2760SOL    HW210806   0.761   3.519   2.166  0.0708  1.3657 -3.0132
 2760SOL    HW310807   0.635   3.491   2.088 -1.8206  0.3720  0.1911
 2760SOL    MW410808   0.674   3.523   2.158 -0.2733  0.3631 -0.6322
 2761SOL     OW10809   1.293   2.332   3.571 -0.5020  0.2789 -0.5070
 2761SOL    HW210810   1.239   2.274   3.624  0.5184 -0.4732 -0.2611
 2761SOL    HW310811   1.375   2.339   3.619 -0.1699  0.9532 -1.1457
 2761SOL    MW410812   1.296   2.325   3.584 -0.3236  0.2687 -0.5588
 2762SOL     OW10813   4.357   5.214   5.230 -0.2209 -0.3454 -0.2584
 2762SOL    HW210814   4.376   5.263   5.150  1.0848  0.9980  0.8368
 2762SOL    HW310815   4.348   5.281   5.298 -0.4365 -1.5104  0.8967
 2762SOL    MW410816   4.358   5.229   5.228 -0.0771 -0.3218  0.0385
 2763SOL     OW10817   0.221   4.748   1.291 -0.2982  0.0435  0.2688
 2763SOL    HW210818   0.206   4.842   1.281 -1.5870 -0.1278  0.4707
 2763SOL    HW310819   0.162   4.722   1.361 -2.1058 -1.4247 -1.6810
 2763SOL    MW410820   0.211   4.757   1.299 -0.7067 -0.1728  0.0382
 2764SOL     OW10821   1.621   0.022   1.050  0.3814  0.1876 -0.2139
 2764SOL    HW210822   1.618   0.071   1.132  2.7892  0.1441 -0.0448
 2764SOL    HW310823   1.631   0.089   0.982  1.0021  0.0876 -0.2250
 2764SOL    MW410824   1.622   0.038   1.052  0.7810  0.1687 -0.1930
 2765SOL     OW10825   0.961   0.280   0.057  0.8643  0.5780 -0.1629
 2765SOL    HW210826   0.955   0.189   0.086  0.1842  0.5837 -0.2648
 2765SOL    HW310827   0.959   0.331   0.139  0.4199  0.5338 -0.1451
 2765SOL    MW410828   0.960   0.275   0.072  0.7160  0.5729 -0.1740
 2766SOL     OW10829   4.764   4.914   4.507  0.1247  0.3449  0.3041
 2766SOL    HW210830   4.836   4.946   4.453  1.2854 -1.7827  0.4803
 2766SOL    HW310831   4.782   4.821   4.518 -2.2735 -0.0943  1.0035
 2766SOL    MW410832   4.776   4.906   4.502 -0.0386  0.0063  0.4197
 2767SOL     OW10833   3.270   1.441   1.331 -0.2742  0.0342  0.0231
 2767SOL    HW210834   3.212   1.516   1.339 -0.4588 -0.0481 -0.4865
 2767SOL    HW310835   3.212   1.366   1.325 -0.1298 -0.0261 -0.7497
 2767SOL    MW410836   3.255   1.441   1.331 -0.2795  0.0154 -0.1461
 2768SOL     OW10837   1.286   1.786   5.885  0.2563  0.5351 -0.5235
 2768SOL    HW210838   1.215   1.812   5.827  1.0260 -1.6842 -2.5837
 2768SOL    HW310839   1.304   1.694   5.864  1.4953 -0.0078  2.3107
 2768SOL    MW410840   1.279   1.777   5.875  0.5213  0.1707 -0.4214
 2769SOL     OW10841   0.179   2.472   6.156  0.1574  0.2539 -0.0387
 2769SOL    HW210842   0.137   2.458   6.071 -1.3873 -1.4070  0.9116
 2769SOL    HW310843   0.112   2.447   6.220  2.3143 -1.8128  1.6078
 2769SOL    MW410844   0.165   2.466   6.154  0.2382 -0.2379  0.3039
 2770SOL     OW10845   2.872   4.441   6.383  0.3307  0.6755  0.2354
 2770SOL    HW210846   2.796   4.475   6.429 -0.6440 -0.0526 -0.7864
 2770SOL    HW310847   2.883   4.352   6.418 -0.5627  0.0269 -1.0394
 2770SOL    MW410848   2.864   4.434   6.393  0.0842  0.4938 -0.0676
 2771SOL     OW10849   4.393   5.437   1.925 -0.4981 -0.2243  0.2889
 2771SOL    HW210850   4.469   5.450   1.982  1.1592  0.9212 -1.9957
 2771SOL    HW310851   4.380   5.342   1.923  0.5293 -0.4008  1.1521
 2771SOL    MW410852   4.401   5.426   1.932 -0.1439 -0.0965  0.1014
 2772SOL     OW10853   0.728   5.625   3.518 -0.2118  0.0601  0.0555
 2772SOL    HW210854   0.754   5.680   3.444 -1.6680 -1.0130 -1.3194
 2772SOL    HW310855   0.637   5.651   3.536 -0.2101 -0.4247  0.7958
 2772SOL    MW410856   0.720   5.636   3.511 -0.4037 -0.1454 -0.0282
 2773SOL     OW10857   3.201   4.888   3.761 -0.6389 -0.0607  0.0463
 2773SOL    HW210858   3.234   4.807   3.800  0.2807 -0.4129 -1.3744
 2773SOL    HW310859   3.184   4.865   3.669 -1.8530  0.9669 -0.0120
 2773SOL    MW410860   3.203   4.874   3.754 -0.6778  0.0284 -0.1488
 2774SOL     OW10861   2.086   5.650   2.002  0.1773  0.1121 -0.5134
 2774SOL    HW210862   2.163   5.609   1.962  0.1564 -1.1254  0.6345
 2774SOL    HW310863   2.122   5.714   2.064  0.4554 -2.0726  1.7513
 2774SOL    MW410864   2.101   5.653   2.005  0.2112 -0.3394 -0.0632
 2775SOL     OW10865   4.538   4.039   5.269  0.4446  0.0365  0.0621
 2775SOL    HW210866   4.587   4.048   5.187  0.1173 -1.5634 -0.3562
 2775SOL    HW310867   4.576   3.962   5.311 -0.4183 -0.0750  0.6536
 2775SOL    MW410868   4.549   4.030   5.264  0.2876 -0.1893  0.0849
 2776SOL     OW10869   4.028   2.588   4.561 -0.4601 -0.5688 -0.3276
 2776SOL    HW210870   3.952   2.546   4.523 -1.3281 -0.5198  1.2689
 2776SOL    HW310871   4.097   2.522   4.557 -1.4789 -1.7638  1.0835
 2776SOL    MW410872   4.027   2.574   4.556 -0.7091 -0.7200  0.0692
 2777SOL     OW10873   3.531   3.191   0.816 -0.4246  0.3866  0.2944
 2777SOL    HW210874   3.599   3.126   0.801 -0.5971 -0.1355  1.6163
 2777SOL    HW310875   3.532   3.205   0.911 -2.1172  0.3745  0.3505
 2777SOL    MW410876   3.540   3.184   0.827 -0.6707  0.3161  0.4762
 2778SOL     OW10877   5.850   0.648   0.029  0.1840 -0.2323  0.0088
 2778SOL    HW210878   5.783   0.607  -0.026  1.7023 -0.5078 -1.7361
 2778SOL    HW310879   5.908   0.577   0.054  0.7997  0.2706  0.0378
 2778SOL    MW410880   5.849   0.633   0.025  0.4656 -0.2023 -0.2176
 2779SOL     OW10881   1.592   2.103   2.491  0.3613 -0.1392 -0.1003
 2779SOL    HW210882   1.617   2.105   2.583  0.2891 -2.0939  0.0070
 2779SOL    HW310883   1.672   2.128   2.444  0.1326  1.8147  0.4891
 2779SOL    MW410884   1.606   2.106   2.497  0.3216 -0.1393 -0.0083
 2780SOL     OW10885   2.715   4.679   2.534  0.3525  0.0562  0.1360
 2780SOL    HW210886   2.681   4.766   2.514  0.2852  0.2892  1.2121
 2780SOL    HW310887   2.711   4.673   2.629 -1.1642 -1.7149  0.0190
 2780SOL    MW410888   2.710   4.690   2.544  0.1435 -0.1467  0.2626
 2781SOL     OW10889   1.730   1.096   5.370  0.6821  0.2705 -0.0205
 2781SOL    HW210890   1.684   1.178   5.388  0.8501  0.4061 -0.1989
 2781SOL    HW310891   1.801   1.121   5.310  1.2577  0.1396  0.5932
 2781SOL    MW410892   1.733   1.110   5.364  0.7802  0.2711  0.0369
 2782SOL     OW10893   1.871   5.977   1.022  0.1546 -0.8700 -0.2645
 2782SOL    HW210894   1.824   5.926   1.088 -0.8197 -0.7493 -0.8459
 2782SOL    HW310895   1.809   6.044   0.995  0.6399 -0.7476 -1.1019
 2782SOL    MW410896   1.857   5.979   1.027  0.0901 -0.8380 -0.4517
 2783SOL     OW10897   3.609   1.226   2.510  0.3991  0.3002 -0.7524
 2783SOL    HW210898   3.642   1.277   2.584 -0.8973 -0.1426  0.1817
 2783SOL    HW310899   3.662   1.147   2.510 -2.0433 -1.6302  2.3636
 2783SOL    MW410900   3.620   1.222   2.520 -0.0942 -0.0129 -0.2180
 2784SOL     OW10901   4.175   2.783   4.401  0.2705 -0.3320 -0.2112
 2784SOL    HW210902   4.119   2.714   4.437  1.0025 -0.3887  0.8767
 2784SOL    HW310903   4.122   2.863   4.407 -0.1209 -0.5826 -0.2980
 2784SOL    MW410904   4.160   2.785   4.407  0.3154 -0.3726 -0.0791
 2785SOL     OW10905   1.614   3.847   5.244 -0.0997 -0.3908 -0.0353
 2785SOL    HW210906   1.696   3.818   5.283 -1.3774 -1.5963  1.9168
 2785SOL    HW310907   1.635   3.864   5.152  2.4361 -0.0641  0.5459
 2785SOL    MW410908   1.627   3.846   5.237  0.0663 -0.5068  0.2990
 2786SOL     OW10909   4.015   5.748   5.797  0.7131 -0.2270  0.3094
 2786SOL    HW210910   4.077   5.679   5.777  0.0621 -0.3961 -1.2405
 2786SOL    HW310911   3.929   5.707   5.791  0.1822  1.0564 -2.6165
 2786SOL    MW410912   4.012   5.734   5.794  0.5572 -0.0800 -0.2811
 2787SOL     OW10913   4.938   4.489   0.835  0.4494 -0.0625  0.5714
 2787SOL    HW210914   4.950   4.427   0.763  2.1426  1.9264 -0.9620
 2787SOL    HW310915   4.984   4.449   0.908  0.8863 -0.9520 -0.1688
 2787SOL    MW410916   4.946   4.475   0.835  0.7304  0.0826  0.2715
 2788SOL     OW10917   4.079   6.091   1.844 -0.3800  0.1762  0.8879
 2788SOL    HW210918   4.115   6.173   1.880  0.9193  1.3997 -2.7278
 2788SOL    HW310919   3.986   6.108   1.835  0.0974  2.0769 -1.4237
 2788SOL    MW410920   4.072   6.104   1.848 -0.1456  0.5884  0.1058
 2789SOL     OW10921   5.752   1.118   0.072  0.7939  0.4670  0.4435
 2789SOL    HW210922   5.712   1.200   0.041  1.4737  0.7182  0.2291
 2789SOL    HW310923   5.694   1.050   0.038  1.4402  0.7287 -1.3046
 2789SOL    MW410924   5.739   1.120   0.063  0.9689  0.5347  0.1846
 2790SOL     OW10925   3.507   2.832   5.786 -0.0467  0.1715  0.7764
 2790SOL    HW210926   3.533   2.805   5.698  0.3685  1.0586  0.6199
 2790SOL    HW310927   3.442   2.900   5.772 -0.3424 -0.0279  1.1630
 2790SOL    MW410928   3.502   2.837   5.772 -0.0309  0.2622  0.8067
 2791SOL     OW10929   2.935   3.338   3.900  0.3513  0.3530 -0.5848
 2791SOL    HW210930   2.850   3.325   3.942  0.2729 -0.6499 -1.0288
 2791SOL    HW310931   2.917   3.332   3.806  0.6282  1.9642 -0.7827
 2791SOL    MW410932   2.921   3.336   3.893  0.3775  0.4332 -0.6695
 2792SOL     OW10933   6.244   1.508   5.445 -0.6887  0.0373 -0.0179
 2792SOL    HW210934   6.316   1.568   5.427 -0.0471 -0.7767 -0.2016
 2792SOL    HW310935   6.166   1.564   5.446  0.0875  1.1581  1.6547
 2792SOL    MW410936   6.243   1.523   5.443 -0.5016  0.0778  0.1785
 2793SOL     OW10937   2.752   1.497   1.289 -0.0123 -0.1990 -0.2009
 2793SOL    HW210938   2.826   1.507   1.228 -1.0820  0.8708 -1.3906
 2793SOL    HW310939   2.782   1.538   1.370  1.1049 -0.8074 -0.2768
 2793SOL    MW410940   2.766   1.504   1.291 -0.0060 -0.1381 -0.3679
 2794SOL     OW10941   5.815   1.520   2.465 -0.1407 -0.8361  0.3292
 2794SOL    HW210942   5.856   1.606   2.474 -0.8488 -0.3875 -0.5842
 2794SOL    HW310943   5.880   1.468   2.417 -0.4897 -0.2274 -0.8244
 2794SOL    MW410944   5.829   1.524   2.460 -0.2802 -0.6966  0.0565
 2795SOL     OW10945   4.317   1.701   4.543 -0.1167  0.5143  0.3934
 2795SOL    HW210946   4.301   1.763   4.472 -0.6696 -0.3751 -0.2859
 2795SOL    HW310947   4.239   1.708   4.599 -1.4256 -1.3445 -1.0599
 2795SOL    MW410948   4.304   1.710   4.541 -0.3624  0.1517  0.1120
 2796SOL     OW10949   6.127   3.669   3.595 -0.7937 -0.0022  0.1957
 2796SOL    HW210950   6.123   3.579   3.560 -3.7261 -0.2209  0.8440
 2796SOL    HW310951   6.158   3.658   3.685  0.2950 -0.1748 -0.1865
 2796SOL    MW410952   6.130   3.655   3.602 -1.0370 -0.0539  0.2308
 2797SOL     OW10953   5.134   0.247   0.251  0.8289 -0.6440  0.0841
 2797SOL    HW210954   5.122   0.287   0.165 -0.1320 -0.0653  0.4763
 2797SOL    HW310955   5.229   0.252   0.267  0.6503  3.0812  0.8267
 2797SOL    MW410956   5.145   0.253   0.242  0.6786 -0.0761  0.2338
 2798SOL     OW10957   2.441   6.002   6.376 -0.1255 -0.0606 -0.4418
 2798SOL    HW210958   2.398   5.926   6.337 -0.3474  0.4906 -1.3195
 2798SOL    HW310959   2.498   6.035   6.306  0.1178  0.4526 -0.0046
 2798SOL    MW410960   2.443   5.997   6.361 -0.1227  0.0799 -0.4999
 2799SOL     OW10961   5.748   0.730   2.380 -0.3298  0.0973 -0.9293
 2799SOL    HW210962   5.665   0.731   2.427 -0.1680 -0.2208 -0.6353
 2799SOL    HW310963   5.807   0.781   2.435 -0.3086  0.2628 -1.1030
 2799SOL    MW410964   5.745   0.737   2.394 -0.3056  0.0771 -0.9135
 2800SOL     OW10965   6.406   3.284   5.956  0.5043 -0.5874  0.5285
 2800SOL    HW210966   6.315   3.304   5.937  0.0833 -1.1626  1.8470
 2800SOL    HW310967   6.455   3.325   5.885 -0.8488 -1.2149 -0.8084
 2800SOL    MW410968   6.401   3.292   5.944  0.2702 -0.7461  0.5261
 2801SOL     OW10969   2.167   1.740   2.672 -0.4290 -0.3246  0.0337
 2801SOL    HW210970   2.092   1.717   2.617  0.2454 -0.3711 -0.8943
 2801SOL    HW310971   2.152   1.832   2.695  0.0975  0.2306 -1.6505
 2801SOL    MW410972   2.155   1.749   2.668 -0.2705 -0.2575 -0.3109
 2802SOL     OW10973   3.696   0.328   1.930 -0.0133 -0.1516 -0.5610
 2802SOL    HW210974   3.648   0.408   1.913 -0.9071 -0.0682  2.0305
 2802SOL    HW310975   3.788   0.354   1.926 -0.2479  0.6104 -1.3603
 2802SOL    MW410976   3.702   0.342   1.927 -0.1622 -0.0400 -0.3246
 2803SOL     OW10977   4.745   3.646   5.691 -0.2103 -0.5479  0.9964
 2803SOL    HW210978   4.696   3.693   5.758  0.5613  0.6435  0.7544
 2803SOL    HW310979   4.837   3.664   5.711  0.0850 -1.5045  0.5582
 2803SOL    MW410980   4.751   3.655   5.703 -0.0696 -0.5169  0.9067
 2804SOL     OW10981   2.319   2.990   1.069 -0.4081  0.0845 -0.1352
 2804SOL    HW210982   2.389   2.958   1.127 -0.1333  0.4031 -0.2908
 2804SOL    HW310983   2.364   3.011   0.987 -0.7506 -0.0852 -0.3682
 2804SOL    MW410984   2.335   2.988   1.066 -0.4171  0.1042 -0.1864
 2805SOL     OW10985   3.053   6.313   0.566 -0.0138  0.2348 -0.0163
 2805SOL    HW210986   3.128   6.255   0.556  1.7349  1.9808  2.1278
 2805SOL    HW310987   2.998   6.270   0.632  1.4170  1.0238  1.7787
 2805SOL    MW410988   3.055   6.300   0.573  0.4057  0.5692  0.5034
 2806SOL     OW10989   3.433   0.804   1.613 -0.1093 -0.3652  0.1106
 2806SOL    HW210990   3.511   0.838   1.570 -0.0989 -0.0642  0.3623
 2806SOL    HW310991   3.450   0.816   1.706 -0.3252 -0.5820  0.1772
 2806SOL    MW410992   3.445   0.810   1.619 -0.1364 -0.3541  0.1526
 2807SOL     OW10993   1.287   4.337   3.443 -0.2412 -0.3110  0.3162
 2807SOL    HW210994   1.369   4.354   3.397 -0.7470 -2.1160 -1.4172
 2807SOL    HW310995   1.219   4.355   3.378 -1.0014 -2.6638  0.3560
 2807SOL    MW410996   1.289   4.342   3.428 -0.4082 -0.8596  0.0928
 2808SOL     OW10997   5.515   6.330   5.485  0.4279  0.1604 -0.1340
 2808SOL    HW210998   5.534   6.252   5.433 -1.4719 -0.4843  0.0690
 2808SOL    HW310999   5.581   6.329   5.555 -1.1584 -2.8718  1.5201
 2808SOL    MW411000   5.526   6.320   5.488 -0.0320 -0.3247  0.1110
 2809SOL     OW11001   5.662   2.149   1.211  0.0024 -0.2158 -0.0737
 2809SOL    HW211002   5.708   2.224   1.251  1.1288 -1.4733  1.1066
 2809SOL    HW311003   5.578   2.145   1.258  0.4137 -0.3624  0.6632
 2809SOL    MW411004   5.657   2.159   1.223  0.2053 -0.4011  0.1792
 2810SOL     OW11005   1.114   2.635   3.167  0.1147  0.1798  0.3349
 2810SOL    HW211006   1.201   2.672   3.182  0.1509 -0.1450  0.9610
 2810SOL    HW311007   1.117   2.548   3.205 -0.5962  0.3031  0.7040
 2810SOL    MW411008   1.126   2.628   3.174  0.0257  0.1532  0.4662
 2811SOL     OW11009   4.659   4.841   5.722  0.1251  0.3214  0.1923
 2811SOL    HW211010   4.706   4.834   5.806  0.5878 -0.4658 -0.1284
 2811SOL    HW311011   4.579   4.888   5.744  0.4074  0.4448  1.0113
 2811SOL    MW411012   4.655   4.847   5.736  0.2234  0.2338  0.2581
 2812SOL     OW11013   3.311   3.054   3.315  0.1522  0.1481 -0.3024
 2812SOL    HW211014   3.340   3.125   3.372 -1.1867  0.5402 -0.0927
 2812SOL    HW311015   3.220   3.039   3.339  0.0075 -0.6964 -1.3163
 2812SOL    MW411016   3.303   3.061   3.326 -0.0435  0.0884 -0.4085
 2813SOL     OW11017   3.683   0.472   5.840  0.6287  0.3346 -0.3265
 2813SOL    HW211018   3.595   0.505   5.825  1.2551  2.0741 -0.4051
 2813SOL    HW311019   3.741   0.541   5.807  2.0269 -0.9046 -0.5849
 2813SOL    MW411020   3.679   0.485   5.834  0.8958  0.4006 -0.3710
 2814SOL     OW11021   1.478   1.721   6.295 -0.8123 -0.2020 -0.1793
 2814SOL    HW211022   1.406   1.657   6.297 -0.8937 -0.1080 -0.1241
 2814SOL    HW311023   1.447   1.794   6.348  0.1952 -1.0773  1.7137
 2814SOL    MW411024   1.464   1.722   6.302 -0.6901 -0.3051  0.0777
 2815SOL     OW11025   5.681   0.225   6.027 -0.0597  0.3594 -0.2484
 2815SOL    HW211026   5.738   0.271   6.088 -1.7179  1.3542  0.6375
 2815SOL    HW311027   5.735   0.211   5.949  0.7455  3.2301 -0.3031
 2815SOL    MW411028   5.695   0.229   6.025 -0.1722  0.8694 -0.1387
 2816SOL     OW11029   5.441   3.424   6.264 -0.4429 -0.1214 -0.1129
 2816SOL    HW211030   5.422   3.440   6.356  0.4048 -0.7601  0.1849
 2816SOL    HW311031   5.527   3.382   6.264  0.4542  1.6119 -1.3361
 2816SOL    MW411032   5.450   3.420   6.276 -0.2127  0.0230 -0.2350
 2817SOL     OW11033   1.065   0.465   3.187 -0.2644  0.3908  0.4267
 2817SOL    HW211034   1.019   0.497   3.264 -0.8887 -1.9304  1.1005
 2817SOL    HW311035   1.134   0.407   3.222 -0.9137 -1.1551 -0.7104
 2817SOL    MW411036   1.068   0.461   3.201 -0.4324 -0.1194  0.3656
 2818SOL     OW11037   1.330   2.130   2.684 -0.0621 -0.5063 -0.6123
 2818SOL    HW211038   1.345   2.190   2.610 -1.8196 -0.4527 -0.9569
 2818SOL    HW311039   1.290   2.185   2.751 -0.1326 -0.9483 -0.2900
 2818SOL    MW411040   1.327   2.146   2.683 -0.3033 -0.5575 -0.6152
 2819SOL     OW11041   5.345   3.515   2.822  0.4560  0.3349  0.5194
 2819SOL    HW211042   5.384   3.601   2.806  0.4173 -0.1067 -2.6310
 2819SOL    HW311043   5.255   3.534   2.847  0.9622  1.2239  1.7670
 2819SOL    MW411044   5.339   3.529   2.823  0.5177  0.3940  0.2683
 2820SOL     OW11045   1.607   2.044   2.767  0.2351 -0.2026 -0.0725
 2820SOL    HW211046   1.535   2.107   2.764  0.1029 -0.3625 -0.2942
 2820SOL    HW311047   1.579   1.981   2.834 -0.3042 -0.8271 -0.8656
 2820SOL    MW411048   1.594   2.044   2.776  0.1465 -0.3061 -0.2064
 2821SOL     OW11049   3.130   1.816   0.513 -0.4244  0.0984 -0.4545
 2821SOL    HW211050   3.043   1.835   0.478 -2.0672 -2.0543  2.1259
 2821SOL    HW311051   3.151   1.891   0.567 -0.7944  0.4848 -0.8370
 2821SOL    MW411052   3.122   1.828   0.515 -0.6900 -0.1346 -0.1645
 2822SOL     OW11053   3.768   0.215   5.047  0.0630  0.4379 -0.4435
 2822SOL    HW211054   3.775   0.210   4.952  0.3049  0.2389 -0.4165
 2822SOL    HW311055   3.693   0.160   5.069  1.5989 -1.7366 -0.3064
 2822SOL    MW411056   3.759   0.207   5.037  0.2976  0.1247 -0.4218
 2823SOL     OW11057   4.046   2.457   4.152  0.1785 -0.5833 -0.4725
 2823SOL    HW211058   4.060   2.408   4.071  0.6102 -0.0098 -0.7520
 2823SOL    HW311059   4.055   2.549   4.126  1.4014 -0.4237  0.4308
 2823SOL    MW411060   4.049   2.462   4.138  0.3968 -0.4866 -0.3902
 2824SOL     OW11061   0.070   0.525   2.895  0.2737 -0.2981 -0.0134
 2824SOL    HW211062   0.122   0.470   2.836  1.4425  1.7187 -0.9746
 2824SOL    HW311063   0.109   0.511   2.981  1.1636 -0.2885 -0.3981
 2824SOL    MW411064   0.082   0.516   2.899  0.5453 -0.0308 -0.1910
 2825SOL     OW11065   5.695   6.189   5.120  0.0523 -0.4058 -0.2335
 2825SOL    HW211066   5.783   6.187   5.159  0.2444 -0.1032 -0.6416
 2825SOL    HW311067   5.704   6.136   5.040  0.2362  0.7699 -1.0227
 2825SOL    MW411068   5.708   6.182   5.114  0.1019 -0.2108 -0.3915
 2826SOL     OW11069   2.885   0.429   5.175  0.3404 -0.5249  0.4085
 2826SOL    HW211070   2.955   0.487   5.145 -1.2863  1.9348  1.0632
 2826SOL    HW311071   2.804   0.478   5.159 -1.5371 -4.0500 -2.2227
 2826SOL    MW411072   2.883   0.443   5.169 -0.1219 -0.6654  0.1477
 2827SOL     OW11073   2.034   5.392   3.432 -0.0344 -0.1424 -0.4950
 2827SOL    HW211074   2.075   5.379   3.518  0.2895  2.3452 -0.1767
 2827SOL    HW311075   1.973   5.465   3.446 -1.3253 -0.8766 -1.9981
 2827SOL    MW411076   2.031   5.400   3.445 -0.1620  0.0889 -0.6513
 2828SOL     OW11077   2.731   4.046   0.835 -0.2737  0.0502  0.9943
 2828SOL    HW211078   2.651   4.097   0.842 -2.5892 -3.3818  1.8785
 2828SOL    HW311079   2.760   4.060   0.745 -1.1507  2.2243  0.9693
 2828SOL    MW411080   2.725   4.055   0.824 -0.6949 -0.1158  1.1077
 2829SOL     OW11081   5.624   3.132   4.732  0.4650  0.4183 -0.1422
 2829SOL    HW211082   5.625   3.045   4.773  0.9898  0.9853  1.1174
 2829SOL    HW311083   5.706   3.172   4.761  0.7708  0.9243 -1.6601
 2829SOL    MW411084   5.635   3.126   4.741  0.5746  0.5598 -0.1763
 2830SOL     OW11085   5.665   4.524   0.578  0.4514 -0.4075  0.2240
 2830SOL    HW211086   5.663   4.537   0.673  3.2738  1.3304  0.1853
 2830SOL    HW311087   5.592   4.576   0.545 -0.6957 -1.2070  1.4346
 2830SOL    MW411088   5.655   4.533   0.586  0.6724 -0.2837  0.3786
 2831SOL     OW11089   2.754   4.656   3.556 -0.2208  0.4582 -0.3418
 2831SOL    HW211090   2.723   4.679   3.643 -0.9313  0.3320 -0.5575
 2831SOL    HW311091   2.679   4.671   3.499  0.8109  2.4481 -1.2573
 2831SOL    MW411092   2.740   4.661   3.560 -0.1784  0.7041 -0.4911
 2832SOL     OW11093   0.677   5.807   2.757 -0.1153  0.5702 -0.7833
 2832SOL    HW211094   0.614   5.862   2.804  0.0335 -1.2745  1.8721
 2832SOL    HW311095   0.622   5.741   2.713 -0.1578 -0.1887  0.3555
 2832SOL    MW411096   0.661   5.805   2.758 -0.1012  0.2267 -0.2827
 2833SOL     OW11097   6.008   3.066   5.285  0.1600  0.3257  0.0691
 2833SOL    HW211098   6.053   3.116   5.216 -0.1903 -0.8922 -1.0841
 2833SOL    HW311099   6.074   3.052   5.352  1.3946 -0.9304 -1.3282
 2833SOL    MW411100   6.023   3.071   5.285  0.2767 -0.0008 -0.2674
 2834SOL     OW11101   3.880   5.404   5.684  0.0697 -0.0558  0.0098
 2834SOL    HW211102   3.826   5.467   5.732 -0.8262 -1.2925  0.7074
 2834SOL    HW311103   3.882   5.437   5.595 -1.0051  0.5882  0.1988
 2834SOL    MW411104   3.873   5.416   5.679 -0.1903 -0.1340  0.1268
 2835SOL     OW11105   3.581   5.480   5.464  0.5924 -0.0368 -0.4900
 2835SOL    HW211106   3.604   5.548   5.400  0.2876 -0.5474 -1.1619
 2835SOL    HW311107   3.486   5.476   5.461  0.5882 -0.1879 -0.1335
 2835SOL    MW411108   3.572   5.488   5.455  0.5516 -0.1241 -0.5316
 2836SOL     OW11109   5.081   1.743   6.030 -0.7238 -0.4776  0.1429
 2836SOL    HW211110   5.081   1.837   6.012 -2.3232 -0.5898 -0.6204
 2836SOL    HW311111   5.173   1.723   6.050 -0.0761  0.9617 -1.1415
 2836SOL    MW411112   5.093   1.753   6.030 -0.8494 -0.3025 -0.1273
 2837SOL     OW11113   4.789   6.368   2.769  0.0971 -0.5253 -0.6475
 2837SOL    HW211114   4.789   6.415   2.686  0.8548 -0.0668 -0.4019
 2837SOL    HW311115   4.878   6.380   2.804 -0.4768  0.1085  0.6732
 2837SOL    MW411116   4.801   6.376   2.763  0.1213 -0.3812 -0.4409
 2838SOL     OW11117   3.906   2.237   3.740 -0.1522  0.5058 -0.2658
 2838SOL    HW211118   3.872   2.149   3.757 -2.3700  0.7666 -2.5838
 2838SOL    HW311119   3.852   2.294   3.795 -1.4140  0.6482 -1.5701
 2838SOL    MW411120   3.894   2.233   3.749 -0.6113  0.5590 -0.7437
 2839SOL     OW11121   4.883   1.298   0.030 -0.0870 -0.1742 -0.5507
 2839SOL    HW211122   4.975   1.272   0.029 -0.2508 -0.8404  0.4172
 2839SOL    HW311123   4.839   1.230   0.081 -0.7668  1.2699  0.8874
 2839SOL    MW411124   4.889   1.286   0.036 -0.1983 -0.0716 -0.2333
 2840SOL     OW11125   1.749   4.397   2.121 -0.5913 -0.0195  1.1593
 2840SOL    HW211126   1.778   4.477   2.076  1.5846 -2.4542 -2.2675
 2840SOL    HW311127   1.754   4.418   2.214 -3.9740  4.9982  0.6095
 2840SOL    MW411128   1.754   4.410   2.127 -0.7505  0.3213  0.6346
 2841SOL     OW11129   1.273   2.445   4.957 -0.6191 -0.5469  0.8297
 2841SOL    HW211130   1.230   2.519   4.999 -0.7958 -1.0925  1.6469
 2841SOL    HW311131   1.204   2.404   4.904 -0.4963 -0.0816  0.3027
 2841SOL    MW411132   1.258   2.449   4.955 -0.6262 -0.5575  0.8680
 2842SOL     OW11133   0.599   0.365   0.321 -0.0027 -0.2334 -0.0965
 2842SOL    HW211134   0.553   0.446   0.342  0.0530  0.1528 -1.3776
 2842SOL    HW311135   0.551   0.297   0.369 -0.0283  0.5516  1.0068
 2842SOL    MW411136   0.587   0.366   0.330  0.0013 -0.0789 -0.1199
 2843SOL     OW11137   5.355   6.160   2.597  0.0196 -0.3014 -0.1287
 2843SOL    HW211138   5.419   6.100   2.558  0.1382 -0.4360  0.2692
 2843SOL    HW311139   5.377   6.162   2.690 -0.9453 -0.8361  0.1248
 2843SOL    MW411140   5.367   6.153   2.604 -0.0921 -0.3897 -0.0428
 2844SOL     OW11141   4.484   0.608   3.239 -0.1448  0.4288 -0.2826
 2844SOL    HW211142   4.452   0.537   3.184  0.2850 -0.7826  0.9705
 2844SOL    HW311143   4.444   0.687   3.202 -1.5323 -0.5793 -1.0392
 2844SOL    MW411144   4.475   0.609   3.227 -0.2712  0.1360 -0.2171
 2845SOL     OW11145   3.642   0.230   2.489  0.2537 -0.1325  0.1263
 2845SOL    HW211146   3.661   0.283   2.566 -0.0500  0.7402 -0.3937
 2845SOL    HW311147   3.598   0.289   2.429  1.2630 -0.5541 -1.0725
 2845SOL    MW411148   3.639   0.245   2.491  0.3468 -0.0730 -0.1005
 2846SOL     OW11149   4.803   2.683   5.625  0.3126  0.2250 -0.4918
 2846SOL    HW211150   4.757   2.767   5.624 -1.9446 -0.9004  0.8791
 2846SOL    HW311151   4.791   2.649   5.536 -1.4524  0.0192 -0.1996
 2846SOL    MW411152   4.796   2.690   5.613 -0.2181  0.0494 -0.2724
 2847SOL     OW11153   1.469   3.389   0.792 -0.9206  0.0358 -0.1225
 2847SOL    HW211154   1.491   3.467   0.843 -0.8240  0.5925 -0.9973
 2847SOL    HW311155   1.554   3.357   0.760 -1.1829  1.6461 -2.7237
 2847SOL    MW411156   1.483   3.395   0.794 -0.9425  0.3217 -0.5811
 2848SOL     OW11157   5.208   2.647   3.617  0.1723  0.1049 -0.6241
 2848SOL    HW211158   5.113   2.638   3.604  0.0641  0.4063 -0.0743
 2848SOL    HW311159   5.236   2.706   3.547 -0.2371  0.9137 -0.1189
 2848SOL    MW411160   5.199   2.654   3.606  0.1040  0.2514 -0.4849
 2849SOL     OW11161   3.167   6.012   2.842 -0.4376 -0.1774  0.6299
 2849SOL    HW211162   3.164   6.107   2.846 -2.1360 -0.1328 -0.6635
 2849SOL    HW311163   3.223   5.987   2.915 -0.5402  1.7707  1.4384
 2849SOL    MW411164   3.174   6.021   2.852 -0.6752  0.0855  0.5659
 2850SOL     OW11165   3.248   4.966   5.261 -0.0664 -0.0589  0.1144
 2850SOL    HW211166   3.270   4.896   5.200 -2.1374 -1.1298  0.4876
 2850SOL    HW311167   3.165   5.002   5.228  1.1039  2.5384 -0.2806
 2850SOL    MW411168   3.240   4.962   5.248 -0.1852  0.1425  0.1115
 2851SOL     OW11169   0.238   1.337   4.347 -0.1146 -0.0843  0.2136
 2851SOL    HW211170   0.245   1.372   4.436  0.7974  2.3113 -0.7154
 2851SOL    HW311171   0.328   1.312   4.324 -0.0672  0.6983 -0.5125
 2851SOL    MW411172   0.251   1.339   4.356  0.0120  0.3351 -0.0048
 2852SOL     OW11173   0.917   0.323   2.077 -0.2188 -0.0300  0.4150
 2852SOL    HW211174   0.939   0.234   2.105 -0.8484 -0.3526 -0.0957
 2852SOL    HW311175   0.843   0.348   2.132 -0.5307 -0.1169  0.0400
 2852SOL    MW411176   0.911   0.314   2.088 -0.3430 -0.0840  0.2981
 2853SOL     OW11177   6.130   6.196   0.847  0.2003  0.3972  0.1609
 2853SOL    HW211178   6.153   6.255   0.774  0.0909 -2.1085 -2.0249
 2853SOL    HW311179   6.198   6.213   0.913  1.8786  0.9311 -1.6142
 2853SOL    MW411180   6.142   6.206   0.846  0.4073  0.1371 -0.3617
 2854SOL     OW11181   5.785   4.149   2.561 -0.0038  0.3828 -0.3868
 2854SOL    HW211182   5.841   4.224   2.543  0.7919  0.3411  1.6573
 2854SOL    HW311183   5.817   4.114   2.644 -0.2063 -2.3610 -1.3677
 2854SOL    MW411184   5.796   4.154   2.570  0.0745  0.0153 -0.2466
 2855SOL     OW11185   0.906   4.105   5.940 -0.1823 -0.1630 -0.3201
 2855SOL    HW211186   0.921   4.029   5.883  0.9567 -0.7232  0.6906
 2855SOL    HW311187   0.842   4.075   6.004  0.1968 -0.2435  0.0223
 2855SOL    MW411188   0.899   4.091   5.941  0.0180 -0.2476 -0.1416
 2856SOL     OW11189   5.862   5.880   0.659 -0.0347 -0.3542  0.4778
 2856SOL    HW211190   5.945   5.883   0.706 -0.0837 -0.2835  0.5587
 2856SOL    HW311191   5.797   5.910   0.722  0.1794  1.8227 -0.2263
 2856SOL    MW411192   5.864   5.884   0.673 -0.0129 -0.0577  0.3955
 2857SOL     OW11193   0.923   2.167   5.790 -0.0034 -0.6539 -0.2606
 2857SOL    HW211194   1.010   2.205   5.779 -0.4874  1.0903  1.4357
 2857SOL    HW311195   0.932   2.103   5.861 -0.0120 -0.8687 -0.4494
 2857SOL    MW411196   0.935   2.163   5.798 -0.0684 -0.4521 -0.0617
 2858SOL     OW11197   6.346   1.501   3.171 -0.4040 -0.0609  0.3529
 2858SOL    HW211198   6.291   1.451   3.232  0.1779 -1.7969 -0.4686
 2858SOL    HW311199   6.375   1.576   3.222 -4.2624  1.5377  0.5457
 2858SOL    MW411200   6.342   1.504   3.186 -0.8363 -0.0791  0.2700
 2859SOL     OW11201   1.731   5.037   3.803 -0.0883 -0.5445 -0.6829
 2859SOL    HW211202   1.694   4.953   3.777 -1.0143 -0.4253  0.2037
 2859SOL    HW311203   1.670   5.103   3.771  1.6788 -0.0074 -3.2653
 2859SOL    MW411204   1.718   5.035   3.795  0.0226 -0.4579 -0.9066
 2860SOL     OW11205   5.872   1.145   2.594  0.4248  0.2715 -0.5431
 2860SOL    HW211206   5.958   1.142   2.551  0.5220  0.3930 -0.3564
 2860SOL    HW311207   5.848   1.053   2.606  0.5396  0.2379 -0.5698
 2860SOL    MW411208   5.880   1.133   2.590  0.4528  0.2831 -0.5220
 2861SOL     OW11209   1.554   3.925   3.766 -0.2754 -0.2463  0.6124
 2861SOL    HW211210   1.470   3.906   3.806  0.5522  2.6200  4.3127
 2861SOL    HW311211   1.536   3.995   3.703 -0.7252  0.4755  1.5144
 2861SOL    MW411212   1.541   3.932   3.763 -0.2255  0.2271  1.2196
 2862SOL     OW11213   2.506   1.926   4.338 -0.0310 -0.6657 -0.1313
 2862SOL    HW211214   2.561   1.989   4.293 -0.7471  0.0991  0.0348
 2862SOL    HW311215   2.510   1.952   4.430  0.3727 -1.4100  0.0678
 2862SOL    MW411216   2.514   1.937   4.344 -0.0722 -0.6630 -0.0831
 2863SOL     OW11217   4.726   4.842   2.987 -0.2656  0.2485  0.1078
 2863SOL    HW211218   4.656   4.906   2.977 -0.9207 -0.2199  1.5040
 2863SOL    HW311219   4.689   4.773   3.042  1.1454 -0.2151  0.5367
 2863SOL    MW411220   4.712   4.841   2.993 -0.1659  0.1255  0.3486
 2864SOL     OW11221   5.560   5.664   4.441  0.4003  0.3927 -0.3005
 2864SOL    HW211222   5.649   5.673   4.474  0.1918  1.3657  0.0036
 2864SOL    HW311223   5.505   5.709   4.504 -0.6571 -2.3748  0.9232
 2864SOL    MW411224   5.565   5.671   4.453  0.2333  0.1560 -0.0990
 2865SOL     OW11225   3.265   5.777   1.438  0.3781 -0.3512  0.4859
 2865SOL    HW211226   3.171   5.795   1.444  0.1809 -1.5141  1.3916
 2865SOL    HW311227   3.306   5.859   1.463 -0.3972  0.1978  0.0080
 2865SOL    MW411228   3.258   5.790   1.442  0.2498 -0.4322  0.5423
 2866SOL     OW11229   2.286   2.211   3.979 -0.0182  0.3141  0.0534
 2866SOL    HW211230   2.345   2.226   3.906  0.5590  1.2794  0.6904
 2866SOL    HW311231   2.272   2.116   3.980  0.6416  0.1988 -0.7839
 2866SOL    MW411232   2.292   2.200   3.970  0.1450  0.4262  0.0270
 2867SOL     OW11233   0.949   1.697   3.542 -0.7465 -0.0436  0.1864
 2867SOL    HW211234   0.961   1.719   3.634 -0.6978 -0.8197  0.3699
 2867SOL    HW311235   0.868   1.646   3.540  0.7699 -2.5889  0.2455
 2867SOL    MW411236   0.940   1.693   3.554 -0.5400 -0.4818  0.2184
 2868SOL     OW11237   5.572   6.340   0.909  0.0663  0.2810 -0.3489
 2868SOL    HW211238   5.503   6.301   0.963  1.3624  0.4791  1.5431
 2868SOL    HW311239   5.544   6.430   0.894 -0.1753  0.3160  0.2849
 2868SOL    MW411240   5.559   6.347   0.914  0.2054  0.3117 -0.0156
 2869SOL     OW11241   5.708   3.764   5.312  0.2904  0.1248  0.6351
 2869SOL    HW211242   5.706   3.848   5.265  0.1241  0.2281  0.8234
 2869SOL    HW311243   5.779   3.715   5.271  0.0181  0.1386  0.1406
 2869SOL    MW411244   5.717   3.769   5.300  0.2325  0.1403  0.5947
 2870SOL     OW11245   0.450   6.323   0.075  0.6656 -0.5161 -0.5180
 2870SOL    HW211246   0.525   6.364   0.117  1.0821 -2.2058  0.5128
 2870SOL    HW311247   0.382   6.390   0.074  1.3693  0.2495  0.8886
 2870SOL    MW411248   0.451   6.337   0.080  0.8134 -0.6380 -0.1964
 2871SOL     OW11249   0.959   5.006   4.619 -0.0465 -0.2574 -0.2533
 2871SOL    HW211250   0.936   4.931   4.564 -0.1820  0.4476 -1.1875
 2871SOL    HW311251   0.966   4.970   4.707 -2.9534 -0.8872 -0.1602
 2871SOL    MW411252   0.957   4.992   4.623 -0.4479 -0.2475 -0.3643
 2872SOL     OW11253   2.501   0.613   4.081 -0.4024  0.2291 -0.4394
 2872SOL    HW211254   2.545   0.532   4.054  0.2385  0.3910  0.1027
 2872SOL    HW311255   2.572   0.673   4.101 -0.8764  0.9670 -0.9359
 2872SOL    MW411256   2.516   0.610   4.080 -0.3804  0.3478 -0.4334
 2873SOL     OW11257   2.301   5.579   1.129 -0.1481  0.0621 -0.0729
 2873SOL    HW211258   2.373   5.636   1.101 -0.1003  1.3538  2.4791
 2873SOL    HW311259   2.224   5.615   1.087  0.5978 -1.5784 -3.1855
 2873SOL    MW411260   2.300   5.591   1.120 -0.0434  0.0161 -0.1469
 2874SOL     OW11261   3.422   0.119   1.712 -0.2522  0.5646 -0.3060
 2874SOL    HW211262   3.348   0.154   1.762 -1.0477 -1.6229  0.1855
 2874SOL    HW311263   3.386   0.099   1.626 -1.0930 -2.9864  0.7186
 2874SOL    MW411264   3.407   0.121   1.707 -0.4681 -0.1925 -0.1060
 2875SOL     OW11265   4.314   4.552   0.273  0.3698  0.2297  0.4070
 2875SOL    HW211266   4.306   4.621   0.207 -1.7935  0.1039  0.4462
 2875SOL    HW311267   4.324   4.599   0.356  3.3225  0.3873  0.0522
 2875SOL    MW411268   4.314   4.568   0.275  0.4739  0.2339  0.3654
 2876SOL     OW11269   3.878   5.171   4.287 -0.5099 -0.8343 -0.1489
 2876SOL    HW211270   3.850   5.082   4.267  0.7200 -1.2549 -0.1144
 2876SOL    HW311271   3.973   5.164   4.301 -0.7464  0.0344  2.4282
 2876SOL    MW411272   3.887   5.159   4.286 -0.3789 -0.7751  0.1957
 2877SOL     OW11273   1.997   5.602   1.341  0.1900 -0.3548 -0.0451
 2877SOL    HW211274   2.086   5.635   1.344 -0.7191  2.3572 -0.2378
 2877SOL    HW311275   1.971   5.594   1.433 -0.1611  1.3899  0.0469
 2877SOL    MW411276   2.005   5.605   1.354  0.0237  0.2332 -0.0584
 2878SOL     OW11277   0.696   3.039   3.588  0.4501  0.6376 -0.4969
 2878SOL    HW211278   0.708   2.985   3.666  0.3983  0.1807 -0.7981
 2878SOL    HW311279   0.616   3.089   3.604  0.8689  1.1337  0.0717
 2878SOL    MW411280   0.687   3.038   3.600  0.4985  0.6428 -0.4616
 2879SOL     OW11281   3.353   6.182   1.057 -0.1917 -0.3821  0.1273
 2879SOL    HW211282   3.428   6.136   1.097 -0.0882 -0.2753  0.0567
 2879SOL    HW311283   3.336   6.255   1.116  0.2959  0.0816 -0.2930
 2879SOL    MW411284   3.361   6.185   1.070 -0.1137 -0.3068  0.0626
 2880SOL     OW11285   5.348   0.762   1.370  0.7175  0.4091 -0.0763
 2880SOL    HW211286   5.293   0.773   1.448  0.2645  0.0612 -0.3432
 2880SOL    HW311287   5.350   0.849   1.330 -0.5500  0.1866 -0.6611
 2880SOL    MW411288   5.341   0.775   1.375  0.4905  0.3339 -0.1887
 2881SOL     OW11289   4.717   0.805   6.162  0.4443  0.6887 -0.4714
 2881SOL    HW211290   4.787   0.750   6.195 -0.5412 -0.2909  0.0605
 2881SOL    HW311291   4.706   0.779   6.070  3.1582  3.3855 -1.7241
 2881SOL    MW411292   4.725   0.795   6.154  0.6723  0.9153 -0.5665
 2882SOL     OW11293   4.478   4.201   4.568 -0.1737 -0.2895  0.4558
 2882SOL    HW211294   4.525   4.153   4.500 -1.5233 -1.0270  0.0187
 2882SOL    HW311295   4.479   4.292   4.539 -1.1118 -0.6566 -0.8052
 2882SOL    MW411296   4.484   4.207   4.555 -0.4756 -0.4353  0.2318
 2883SOL     OW11297   3.275   1.657   2.236 -0.5681  0.0987 -0.1942
 2883SOL    HW211298   3.369   1.657   2.255 -1.0383  0.0389  2.3777
 2883SOL    HW311299   3.258   1.745   2.199  0.0466  1.2062  2.0157
 2883SOL    MW411300   3.285   1.669   2.233 -0.5490  0.2369  0.4367
 2884SOL     OW11301   0.740   3.783   2.415  0.2070  0.3350 -0.3375
 2884SOL    HW211302   0.744   3.835   2.334  1.2620  0.3874 -0.2676
 2884SOL    HW311303   0.710   3.845   2.481  1.7506  0.9857 -0.1904
 2884SOL    MW411304   0.737   3.798   2.413  0.5499  0.4277 -0.3088
 2885SOL     OW11305   6.163   1.067   0.596 -0.6105 -0.5603 -0.7701
 2885SOL    HW211306   6.202   1.066   0.684  0.0683 -0.3603 -1.0638
 2885SOL    HW311307   6.165   0.975   0.568  0.7886 -0.4005 -1.2672
 2885SOL    MW411308   6.168   1.055   0.604 -0.3364 -0.5128 -0.8744
 2886SOL     OW11309   4.687   2.317   4.015 -0.6513  0.3969 -0.7325
 2886SOL    HW211310   4.726   2.385   4.070  0.4527 -0.2843 -0.6482
 2886SOL    HW311311   4.607   2.292   4.061  0.5238 -0.5630  0.9222
 2886SOL    MW411312   4.681   2.323   4.029 -0.3506  0.1803 -0.5030
 2887SOL     OW11313   3.971   2.717   5.895  0.0781  0.1432 -0.6209
 2887SOL    HW211314   3.967   2.812   5.882  0.6446  0.1292 -0.9012
 2887SOL    HW311315   3.885   2.695   5.931 -0.5522  0.5757 -1.8004
 2887SOL    MW411316   3.959   2.727   5.898  0.0697  0.1984 -0.8135
 2888SOL     OW11317   5.040   5.566   1.471  0.4033 -0.7019 -0.2332
 2888SOL    HW211318   5.095   5.494   1.503  0.9307 -0.4555 -0.5842
 2888SOL    HW311319   5.093   5.644   1.483  0.2060 -0.4847 -0.7545
 2888SOL    MW411320   5.054   5.567   1.477  0.4468 -0.6408 -0.3483
 2889SOL     OW11321   4.900   4.554   2.792  0.5140  0.1377  0.6253
 2889SOL    HW211322   4.968   4.518   2.736  2.0491  3.1464  0.3862
 2889SOL    HW311323   4.928   4.532   2.881 -0.7129 -2.5977  0.4422
 2889SOL    MW411324   4.912   4.546   2.796  0.5547  0.1737  0.5696
 2890SOL     OW11325   4.875   5.930   2.125  0.1270 -0.0428  0.6977
 2890SOL    HW211326   4.906   5.854   2.174  0.6145 -0.7271 -0.6283
 2890SOL    HW311327   4.868   5.899   2.035  0.9674  1.6498  0.0082
 2890SOL    MW411328   4.878   5.916   2.120  0.3022  0.0902  0.4318
 2891SOL     OW11329   3.783   3.646   4.675 -0.1780 -0.7071 -0.0249
 2891SOL    HW211330   3.761   3.560   4.640  0.8731 -1.1005  0.2673
 2891SOL    HW311331   3.713   3.665   4.737 -1.2067 -0.6962 -1.1484
 2891SOL    MW411332   3.771   3.637   4.679 -0.1750 -0.7576 -0.1346
 2892SOL     OW11333   1.874   1.001   2.722 -0.0381 -0.1444  0.0303
 2892SOL    HW211334   1.944   1.056   2.756  0.4787 -1.0142  0.3999
 2892SOL    HW311335   1.793   1.047   2.745  0.3911  0.7942 -0.2711
 2892SOL    MW411336   1.872   1.014   2.729  0.0867 -0.1353  0.0393
 2893SOL     OW11337   5.302   5.385   2.288  0.2010 -0.1945  0.2155
 2893SOL    HW211338   5.362   5.442   2.240 -0.0163  1.7456  2.1116
 2893SOL    HW311339   5.240   5.355   2.222  0.3042  1.8376 -0.8933
 2893SOL    MW411340   5.302   5.389   2.273  0.1859  0.3296  0.3194
 2894SOL     OW11341   5.527   5.155   5.768 -0.1638 -0.3763 -0.1512
 2894SOL    HW211342   5.471   5.159   5.846 -0.9400  1.8836 -0.7280
 2894SOL    HW311343   5.466   5.136   5.696  0.0523  0.4603 -0.5673
 2894SOL    MW411344   5.512   5.153   5.769 -0.2377  0.0323 -0.2822
 2895SOL     OW11345   3.692   2.235   4.107  0.1203  0.2874  0.1744
 2895SOL    HW211346   3.656   2.250   4.194  0.6367 -1.8752  0.8365
 2895SOL    HW311347   3.760   2.168   4.120  2.5924  2.2963 -1.3943
 2895SOL    MW411348   3.696   2.228   4.120  0.5146  0.2671  0.0548
 2896SOL     OW11349   1.537   1.600   5.270 -0.5465 -0.2307  0.0787
 2896SOL    HW211350   1.580   1.683   5.249  1.1585 -0.4926  2.1862
 2896SOL    HW311351   1.494   1.616   5.354 -0.6272 -1.3194  0.2606
 2896SOL    MW411352   1.537   1.613   5.278 -0.3322 -0.4089  0.3807
 2897SOL     OW11353   3.049   2.795   4.238  0.1154 -0.0583  0.3058
 2897SOL    HW211354   2.955   2.813   4.239  0.2539  0.7397 -0.0734
 2897SOL    HW311355   3.057   2.708   4.199 -0.7758 -2.4332  4.7721
 2897SOL    MW411356   3.038   2.786   4.233  0.0161 -0.2664  0.8450
 2898SOL     OW11357   3.041   3.922   1.518  0.8210 -0.3713 -0.3372
 2898SOL    HW211358   3.123   3.902   1.563  0.9440  1.1323  0.1853
 2898SOL    HW311359   2.986   3.845   1.531  1.7297 -0.9281  0.3036
 2898SOL    MW411360   3.045   3.910   1.526  0.9571 -0.2464 -0.1837
 2899SOL     OW11361   4.373   5.056   1.094  0.0779  0.4992 -0.6204
 2899SOL    HW211362   4.446   5.009   1.054  1.0756  1.2628  0.2371
 2899SOL    HW311363   4.296   5.024   1.047  0.7823 -1.3830 -0.6078
 2899SOL    MW411364   4.373   5.046   1.082  0.3025  0.3516 -0.5056
 2900SOL     OW11365   5.150   1.214   4.797 -0.0762  0.0477  0.3658
 2900SOL    HW211366   5.239   1.181   4.797 -0.2955 -0.6100 -0.7428
 2900SOL    HW311367   5.149   1.281   4.728 -0.0534  1.2128  1.4588
 2900SOL    MW411368   5.161   1.219   4.788 -0.1021  0.1147  0.3638
 2901SOL     OW11369   5.715   4.858   6.071  0.7512 -0.1616 -0.1667
 2901SOL    HW211370   5.806   4.843   6.047  0.7786  0.0876 -0.2130
 2901SOL    HW311371   5.666   4.796   6.016  0.7306  1.0892 -1.6057
 2901SOL    MW411372   5.720   4.848   6.061  0.7521  0.0363 -0.3627
 2902SOL     OW11373   6.357   1.625   2.921 -0.0831  0.3455  0.9136
 2902SOL    HW211374   6.325   1.608   3.010 -0.4813  1.2930  0.9633
 2902SOL    HW311375   6.291   1.682   2.883 -0.0737 -0.3091 -0.1080
 2902SOL    MW411376   6.344   1.630   2.928 -0.1344  0.3841  0.7854
 2903SOL     OW11377   2.008   2.323   3.569  0.4733 -0.8079  0.2567
 2903SOL    HW211378   2.052   2.342   3.652 -0.3748 -2.2224  1.0734
 2903SOL    HW311379   2.026   2.399   3.514  2.6314 -0.6692  1.0738
 2903SOL    MW411380   2.016   2.336   3.573  0.6461 -0.9762  0.4722
 2904SOL     OW11381   2.601   3.536   3.512  0.0747 -0.3643  0.3594
 2904SOL    HW211382   2.506   3.544   3.507  0.1185 -0.4196 -1.2678
 2904SOL    HW311383   2.626   3.504   3.425  1.6232  0.1149  0.6067
 2904SOL    MW411384   2.592   3.533   3.500  0.2848 -0.3084  0.1774
 2905SOL     OW11385   2.712   0.065   6.377  0.0572  0.0475  0.0793
 2905SOL    HW211386   2.656   0.142   6.369 -0.0488  0.0397  0.6825
 2905SOL    HW311387   2.715   0.028   6.289 -1.1317 -0.1208  0.0950
 2905SOL    MW411388   2.705   0.070   6.364 -0.1137  0.0243  0.1609
 2906SOL     OW11389   4.498   4.066   2.923 -0.3184 -0.1783  0.9500
 2906SOL    HW211390   4.467   4.132   2.861  0.4579 -1.2792 -0.6598
 2906SOL    HW311391   4.446   4.082   3.002 -1.5851  1.0500 -0.0753
 2906SOL    MW411392   4.487   4.077   2.925 -0.3831 -0.1615  0.6023
 2907SOL     OW11393   2.157   5.452   4.497 -0.0054 -1.0328  0.0070
 2907SOL    HW211394   2.080   5.407   4.463  1.2527 -2.0292 -1.6515
 2907SOL    HW311395   2.152   5.540   4.460 -0.2757 -1.1316 -0.1975
 2907SOL    MW411396   2.146   5.457   4.488  0.1250 -1.1773 -0.2388
 2908SOL     OW11397   6.318   4.367   6.034  0.6320  0.0416 -0.0620
 2908SOL    HW211398   6.391   4.309   6.053  0.5554 -0.3168 -0.7985
 2908SOL    HW311399   6.241   4.311   6.037  0.6593 -0.1545 -1.7956
 2908SOL    MW411400   6.317   4.352   6.037  0.6255 -0.0315 -0.3879
 2909SOL     OW11401   2.380   2.513   4.168  0.0717  0.0012  0.3757
 2909SOL    HW211402   2.418   2.601   4.175 -0.2446  0.2544 -0.8702
 2909SOL    HW311403   2.290   2.528   4.141 -0.0628 -0.7071  0.4168
 2909SOL    MW411404   2.373   2.526   4.165  0.0122 -0.0588  0.2167
 2910SOL     OW11405   2.525   0.555   0.960  0.5363 -0.1844 -0.5177
 2910SOL    HW211406   2.578   0.476   0.953  1.0195  0.0087  0.7791
 2910SOL    HW311407   2.572   0.611   1.022 -0.1572  0.8329 -0.8780
 2910SOL    MW411408   2.538   0.552   0.967  0.5086 -0.0247 -0.3942
 2911SOL     OW11409   2.090   5.801   0.313  0.4619  0.2964  0.4688
 2911SOL    HW211410   2.130   5.781   0.398  0.1422 -0.2152  0.5042
 2911SOL    HW311411   2.121   5.889   0.292  1.1189  0.1469  0.7809
 2911SOL    MW411412   2.100   5.810   0.322  0.5064  0.2092  0.5147
 2912SOL     OW11413   6.147   0.326   3.781  0.4957  0.0073 -0.6546
 2912SOL    HW211414   6.105   0.378   3.713  0.0184  0.8007  0.2087
 2912SOL    HW311415   6.224   0.377   3.807  0.5072 -0.1393 -0.3950
 2912SOL    MW411416   6.152   0.340   3.776  0.4343  0.0926 -0.5064
 2913SOL     OW11417   1.650   4.927   2.647  0.2105 -0.0314 -0.4959
 2913SOL    HW211418   1.735   4.961   2.674 -0.9863  1.8397  1.1743
 2913SOL    HW311419   1.629   4.974   2.566  0.9567 -0.8890 -1.2089
 2913SOL    MW411420   1.658   4.938   2.640  0.1510  0.1023 -0.3696
 2914SOL     OW11421   3.699   4.322   0.359 -0.3961 -0.4824 -0.0686
 2914SOL    HW211422   3.649   4.369   0.426  0.3149 -0.5773  0.5466
 2914SOL    HW311423   3.728   4.391   0.298  2.6437  0.3512  2.0868
 2914SOL    MW411424   3.696   4.338   0.360  0.0987 -0.3849  0.2970
 2915SOL     OW11425   4.532   0.503   2.350  0.4318 -0.3427 -0.0289
 2915SOL    HW211426   4.551   0.441   2.420  1.0690 -1.2303 -0.9596
 2915SOL    HW311427   4.548   0.589   2.388 -0.4354 -0.7319  1.2765
 2915SOL    MW411428   4.536   0.506   2.364  0.4014 -0.5112  0.0205
 2916SOL     OW11429   0.882   5.278   0.015  0.2314 -0.2602  0.1857
 2916SOL    HW211430   0.898   5.196   0.062  0.0133 -1.4046 -1.6531
 2916SOL    HW311431   0.963   5.327   0.024  0.2917 -0.5560  1.4926
 2916SOL    MW411432   0.895   5.274   0.023  0.2106 -0.4502  0.1155
 2917SOL     OW11433   2.911   0.358   0.197  0.0469  0.2247 -0.7375
 2917SOL    HW211434   2.932   0.283   0.252 -0.9886  0.9637  0.7345
 2917SOL    HW311435   2.996   0.389   0.166  0.7825  0.3551  1.2709
 2917SOL    MW411436   2.925   0.352   0.200  0.0073  0.3394 -0.2783
 2918SOL     OW11437   5.372   6.275   6.122  0.4829  0.1884 -0.3166
 2918SOL    HW211438   5.338   6.198   6.076 -0.0273  0.7958 -0.9862
 2918SOL    HW311439   5.467   6.265   6.117  0.4493  0.2336 -1.5369
 2918SOL    MW411440   5.380   6.263   6.115  0.4111  0.2745 -0.5659
 2919SOL     OW11441   4.009   2.492   1.123 -0.0097  0.2457  0.1815
 2919SOL    HW211442   4.065   2.422   1.090 -0.0751 -0.3606  1.3052
 2919SOL    HW311443   4.057   2.528   1.197 -1.2016 -0.4798  1.3576
 2919SOL    MW411444   4.023   2.487   1.128 -0.1756  0.0700  0.4850
 2920SOL     OW11445   4.217   0.774   2.930  0.1147 -0.5587  0.1370
 2920SOL    HW211446   4.277   0.725   2.874 -0.1087 -0.5525 -0.1089
 2920SOL    HW311447   4.190   0.849   2.876  0.6027 -0.0542  0.5770
 2920SOL    MW411448   4.221   0.778   2.915  0.1496 -0.4913  0.1626
 2921SOL     OW11449   0.987   6.228   1.978 -0.2733 -0.4470 -0.3110
 2921SOL    HW211450   1.030   6.186   1.904  0.6109 -0.8058  0.3775
 2921SOL    HW311451   1.043   6.207   2.053  0.1752  1.8481  0.0872
 2921SOL    MW411452   1.000   6.220   1.978 -0.0975 -0.1916 -0.1676
 2922SOL     OW11453   4.419   0.599   5.999 -0.0337  0.4832 -0.1613
 2922SOL    HW211454   4.504   0.638   5.979  1.9997 -3.0981  0.5149
 2922SOL    HW311455   4.415   0.598   6.095 -1.4250  1.6276 -0.1803
 2922SOL    MW411456   4.430   0.604   6.009  0.0510  0.1617 -0.0746
 2923SOL     OW11457   2.120   6.198   1.619 -0.6441  0.0969  0.5973
 2923SOL    HW211458   2.179   6.196   1.545 -1.0473  1.3126  0.2031
 2923SOL    HW311459   2.080   6.285   1.615 -0.1585  0.4725  2.6433
 2923SOL    MW411460   2.122   6.209   1.609 -0.6332  0.3068  0.8152
 2924SOL     OW11461   2.905   6.396   3.400 -0.3069  0.3678  0.0941
 2924SOL    HW211462   2.826   6.353   3.434 -0.2696  0.5694  0.4475
 2924SOL    HW311463   2.875   6.483   3.373  0.1291  1.1441  1.9677
 2924SOL    MW411464   2.891   6.402   3.401 -0.2445  0.4968  0.3879
 2925SOL     OW11465   2.242   6.211   1.381  0.3347 -0.0380  0.5984
 2925SOL    HW211466   2.194   6.133   1.352 -0.6225  0.4947  0.6965
 2925SOL    HW311467   2.311   6.222   1.315 -0.0766 -0.4581  0.0805
 2925SOL    MW411468   2.245   6.202   1.368  0.1541 -0.0232  0.5430
 2926SOL     OW11469   2.755   4.914   2.188 -0.3563  0.1215 -0.1530
 2926SOL    HW211470   2.839   4.917   2.235 -1.5299  0.3045  2.0682
 2926SOL    HW311471   2.769   4.969   2.111  1.9472 -0.9357 -0.5963
 2926SOL    MW411472   2.768   4.922   2.184 -0.2072  0.0062  0.0816
 2927SOL     OW11473   1.047   2.687   0.343  0.0735 -0.4153  0.1798
 2927SOL    HW211474   1.039   2.733   0.260 -0.6653 -1.8049 -0.5564
 2927SOL    HW311475   0.976   2.721   0.397 -0.7420 -0.9990 -0.5146
 2927SOL    MW411476   1.037   2.698   0.339 -0.1316 -0.6756 -0.0089
 2928SOL     OW11477   0.036   2.213   2.111  0.0828 -0.7882 -0.0195
 2928SOL    HW211478   0.067   2.139   2.059  3.2165 -0.0679  0.6019
 2928SOL    HW311479   0.047   2.289   2.054  0.1447 -0.4082  0.4881
 2928SOL    MW411480   0.041   2.214   2.097  0.5044 -0.6431  0.1295
 2929SOL     OW11481   0.090   3.651   0.975 -0.0237 -0.9165  0.5648
 2929SOL    HW211482   0.095   3.585   0.905 -0.3941 -0.1701 -0.1793
 2929SOL    HW311483   0.009   3.629   1.022 -0.7400 -0.3402 -0.3685
 2929SOL    MW411484   0.080   3.639   0.972 -0.1671 -0.7420  0.3435
 2930SOL     OW11485   1.463   4.367   3.010  0.2637 -0.4439 -0.0005
 2930SOL    HW211486   1.442   4.312   3.086 -1.6227 -0.3207 -0.3829
 2930SOL    HW311487   1.406   4.334   2.940  1.3747 -0.0201 -1.1390
 2930SOL    MW411488   1.452   4.355   3.011  0.1614 -0.3717 -0.2012
 2931SOL     OW11489   1.466   2.330   2.889 -0.0180 -0.1887 -0.5674
 2931SOL    HW211490   1.558   2.336   2.915  0.5496  0.6594 -2.5694
 2931SOL    HW311491   1.417   2.338   2.971  1.6497  2.1093  0.3090
 2931SOL    MW411492   1.471   2.332   2.903  0.2769  0.2264 -0.7159
 2932SOL     OW11493   2.542   2.787   1.183  0.0954 -0.1181 -0.5459
 2932SOL    HW211494   2.464   2.736   1.207 -1.0960  1.3194 -1.1953
 2932SOL    HW311495   2.550   2.774   1.088 -1.1956  2.0638 -1.0387
 2932SOL    MW411496   2.532   2.779   1.174 -0.2321  0.3594 -0.6966
 2933SOL     OW11497   1.540   1.849   2.972 -0.0618  0.4428  0.1700
 2933SOL    HW211498   1.445   1.842   2.984  0.0374  1.4957  1.9138
 2933SOL    HW311499   1.564   1.768   2.926 -2.0378  1.0777 -2.1857
 2933SOL    MW411500   1.530   1.837   2.968 -0.3094  0.6655  0.0892
 2934SOL     OW11501   5.894   1.658   3.431 -0.3825 -0.0018 -0.6569
 2934SOL    HW211502   5.915   1.652   3.338 -0.2708  1.8269 -0.7871
 2934SOL    HW311503   5.810   1.614   3.440 -0.9918  0.8676 -1.8619
 2934SOL    MW411504   5.886   1.651   3.420 -0.4481  0.3542 -0.8330
 2935SOL     OW11505   4.828   1.099   2.505  0.4464 -0.1322 -0.0415
 2935SOL    HW211506   4.871   1.043   2.441  1.1312  1.6581 -1.2228
 2935SOL    HW311507   4.807   1.179   2.456 -2.6921 -0.2365  0.9274
 2935SOL    MW411508   4.831   1.102   2.490  0.1227  0.0902 -0.0695
 2936SOL     OW11509   6.330   5.859   6.358  0.6362  0.2165 -0.0737
 2936SOL    HW211510   6.261   5.810   6.313  2.2084 -1.6610 -0.6346
 2936SOL    HW311511   6.331   5.945   6.316  0.3216 -0.6036 -1.8422
 2936SOL    MW411512   6.321   5.864   6.347  0.8022 -0.1394 -0.3810
 2937SOL     OW11513   2.146   0.636   2.133 -0.3932 -0.3273  0.7626
 2937SOL    HW211514   2.131   0.713   2.078 -0.9074 -0.8296  0.1963
 2937SOL    HW311515   2.191   0.574   2.076 -2.5660 -1.5765  0.3144
 2937SOL    MW411516   2.150   0.638   2.118 -0.7477 -0.5584  0.6288
 2938SOL     OW11517   1.536   4.097   5.917  0.2962  0.5505 -0.4206
 2938SOL    HW211518   1.457   4.122   5.870 -0.6440  1.2982  1.4626
 2938SOL    HW311519   1.509   4.024   5.972  0.6316  1.4573  0.9869
 2938SOL    MW411520   1.522   4.090   5.918  0.2164  0.7688  0.0135
 2939SOL     OW11521   2.440   3.656   5.694 -0.1821  0.7454  0.0638
 2939SOL    HW211522   2.352   3.635   5.661 -0.3989 -0.7222  1.4351
 2939SOL    HW311523   2.424   3.709   5.772  0.2241  1.6360 -0.4387
 2939SOL    MW411524   2.426   3.660   5.700 -0.1571  0.6693  0.1784
 2940SOL     OW11525   3.617   3.658   0.488 -0.5137  0.0736  0.3565
 2940SOL    HW211526   3.680   3.726   0.463 -1.3968  0.4091 -1.0952
 2940SOL    HW311527   3.616   3.599   0.413 -1.6686 -0.1108  0.5031
 2940SOL    MW411528   3.625   3.659   0.475 -0.7826  0.0935  0.1843
 2941SOL     OW11529   4.263   1.724   2.987  0.6489 -0.7683 -0.0406
 2941SOL    HW211530   4.345   1.697   2.945  0.3946  0.4400 -1.4290
 2941SOL    HW311531   4.208   1.753   2.914 -0.7677 -0.9245  0.9329
 2941SOL    MW411532   4.267   1.724   2.972  0.4285 -0.6295 -0.0953
 2942SOL     OW11533   4.342   3.705   3.335  0.4353 -0.1134  0.6317
 2942SOL    HW211534   4.393   3.713   3.254  1.0359  1.4096  1.1281
 2942SOL    HW311535   4.280   3.635   3.317  0.4016  0.3409 -1.2303
 2942SOL    MW411536   4.341   3.697   3.321  0.5101  0.1475  0.4515
 2943SOL     OW11537   1.801   3.669   1.700  0.3260  0.0075  0.0007
 2943SOL    HW211538   1.769   3.698   1.614  0.5373 -0.8928 -0.3968
 2943SOL    HW311539   1.880   3.720   1.715  1.7183 -1.5518 -1.5236
 2943SOL    MW411540   1.807   3.679   1.690  0.5376 -0.3170 -0.2528
 2944SOL     OW11541   4.782   3.928   4.482  0.3271 -0.3898 -0.1614
 2944SOL    HW211542   4.722   3.966   4.419 -0.2300 -0.5434  0.2688
 2944SOL    HW311543   4.838   3.869   4.431 -0.4152 -0.8575 -0.4428
 2944SOL    MW411544   4.782   3.925   4.467  0.1557 -0.4718 -0.1418
 2945SOL     OW11545   4.243   3.865   2.995 -0.4847  0.3007  0.5780
 2945SOL    HW211546   4.233   3.960   2.990 -1.5711  0.2928  1.8100
 2945SOL    HW311547   4.335   3.852   3.018 -0.2932  1.0429  0.2885
 2945SOL    MW411548   4.254   3.876   2.998 -0.6028  0.3976  0.7023
 2946SOL     OW11549   6.287   6.169   4.920 -0.1871 -0.0631 -0.3501
 2946SOL    HW211550   6.269   6.135   5.008 -1.4889 -0.7290 -0.8449
 2946SOL    HW311551   6.201   6.176   4.879  0.4738 -0.9139 -1.9826
 2946SOL    MW411552   6.273   6.166   4.926 -0.2716 -0.2632 -0.6307
 2947SOL     OW11553   0.345   4.378   2.081  0.4558 -0.5114  0.0310
 2947SOL    HW211554   0.304   4.296   2.055  1.3335 -0.5678 -1.2411
 2947SOL    HW311555   0.320   4.440   2.012 -0.3109  0.3490  1.0445
 2947SOL    MW411556   0.336   4.376   2.069  0.4704 -0.4053 -0.0031
 2948SOL     OW11557   3.775   3.724   3.786 -0.7069  0.1354 -0.3160
 2948SOL    HW211558   3.752   3.632   3.801  3.1245 -1.2111 -1.4971
 2948SOL    HW311559   3.767   3.734   3.691  2.4284 -0.2319 -0.7044
 2948SOL    MW411560   3.771   3.713   3.775  0.2123 -0.0907 -0.5231
 2949SOL     OW11561   4.484   1.204   4.755 -0.0247  0.2185  0.0183
 2949SOL    HW211562   4.565   1.239   4.792 -1.4668  1.7766  1.8955
 2949SOL    HW311563   4.461   1.131   4.813 -1.6643  1.9136  1.6332
 2949SOL    MW411564   4.492   1.199   4.767 -0.4313  0.6477  0.4791
 2950SOL     OW11565   3.050   4.361   4.270 -0.3702 -0.1137  0.1058
 2950SOL    HW211566   3.024   4.273   4.299 -1.2791  0.7771  2.1896
 2950SOL    HW311567   2.993   4.420   4.318  1.5390  1.7175  0.2822
 2950SOL    MW411568   3.039   4.357   4.280 -0.2382  0.2454  0.4040
 2951SOL     OW11569   1.327   4.468   5.218  0.7924 -0.3355 -0.3363
 2951SOL    HW211570   1.340   4.373   5.212  0.3437 -0.4142 -0.0546
 2951SOL    HW311571   1.249   4.479   5.272  1.5570  0.2228  0.7012
 2951SOL    MW411572   1.319   4.457   5.224  0.8341 -0.2722 -0.1622
 2952SOL     OW11573   6.239   5.110   0.145 -0.1105  0.7542  0.3717
 2952SOL    HW211574   6.177   5.177   0.175  1.0811  1.1825  2.0180
 2952SOL    HW311575   6.283   5.151   0.070 -1.0556  0.8612 -0.1356
 2952SOL    MW411576   6.237   5.124   0.139 -0.0780  0.8249  0.5219
 2953SOL     OW11577   0.016   1.412   0.660 -0.2464 -0.2758  0.3842
 2953SOL    HW211578  -0.018   1.444   0.577 -2.0096 -0.7976  0.8509
 2953SOL    HW311579   0.068   1.484   0.695  1.0381 -0.2656 -1.4152
 2953SOL    MW411580   0.019   1.425   0.654 -0.3096 -0.3433  0.2084
 2954SOL     OW11581   6.096   4.678   4.300 -0.0666 -0.5147  1.3366
 2954SOL    HW211582   6.160   4.729   4.249 -3.0502  1.7568 -0.4547
 2954SOL    HW311583   6.068   4.609   4.241 -0.7327 -0.2303  1.3086
 2954SOL    MW411584   6.101   4.676   4.286 -0.5482 -0.1775  1.0966
 2955SOL     OW11585   6.175   1.049   3.222 -0.0042 -0.2013  0.4185
 2955SOL    HW211586   6.145   1.047   3.131  0.4886 -3.0514  0.2134
 2955SOL    HW311587   6.101   1.015   3.272  1.0064 -2.4610  0.5153
 2955SOL    MW411588   6.161   1.044   3.217  0.1942 -0.8754  0.4042
 2956SOL     OW11589   5.340   5.137   1.956 -0.0727 -0.1167 -0.9143
 2956SOL    HW211590   5.334   5.042   1.965  0.7960 -0.0173  1.6643
 2956SOL    HW311591   5.252   5.164   1.930 -1.0574 -1.4525  0.7750
 2956SOL    MW411592   5.328   5.128   1.954 -0.0880 -0.2798 -0.3512
 2957SOL     OW11593   2.887   5.902   2.526 -0.0571  0.6003 -0.0280
 2957SOL    HW211594   2.890   5.863   2.614  1.6549 -2.6232 -1.3495
 2957SOL    HW311595   2.974   5.939   2.513  0.2215 -0.3497 -0.9223
 2957SOL    MW411596   2.899   5.902   2.536  0.2055  0.0496 -0.3203
 2958SOL     OW11597   5.200   5.707   0.566 -0.0086  0.1597 -0.0316
 2958SOL    HW211598   5.191   5.678   0.656  3.3308  0.3308  0.4666
 2958SOL    HW311599   5.176   5.630   0.514  2.8638 -1.7162  1.1682
 2958SOL    MW411600   5.196   5.693   0.571  0.8109 -0.0652  0.1924
 2959SOL     OW11601   3.253   1.756   1.666 -0.1737  0.1486 -0.0756
 2959SOL    HW211602   3.280   1.808   1.590 -0.4723  0.7182  0.1974
 2959SOL    HW311603   3.210   1.819   1.723 -0.7836 -0.4632  0.1492
 2959SOL    MW411604   3.251   1.771   1.664 -0.2936  0.1430 -0.0099
 2960SOL     OW11605   1.528   5.545   0.515  0.3334  0.0995  0.4704
 2960SOL    HW211606   1.533   5.586   0.601 -0.2530 -2.5025  1.8417
 2960SOL    HW311607   1.553   5.454   0.530  2.2595 -0.0088 -2.5095
 2960SOL    MW411608   1.532   5.538   0.529  0.5102 -0.2581  0.2582
 2961SOL     OW11609   3.618   3.999   3.107  0.2374  0.0465 -0.6325
 2961SOL    HW211610   3.656   4.054   3.175  0.3449  0.8090 -1.2994
 2961SOL    HW311611   3.688   3.937   3.084  0.7251  0.7645 -1.1113
 2961SOL    MW411612   3.633   3.998   3.113  0.3159  0.2419 -0.7836
 2962SOL     OW11613   2.124   6.043   3.936 -0.0787  0.5544  0.1186
 2962SOL    HW211614   2.134   6.004   4.022  0.8876  0.3791 -0.0683
 2962SOL    HW311615   2.043   6.006   3.902  0.2044 -0.3641  0.4313
 2962SOL    MW411616   2.114   6.033   3.943  0.0861  0.4101  0.1352
 2963SOL     OW11617   0.739   4.424   3.554 -0.3664 -0.2877 -0.2798
 2963SOL    HW211618   0.716   4.376   3.633  0.3925 -0.6228 -0.2446
 2963SOL    HW311619   0.835   4.426   3.555 -0.3627  0.1187 -0.9415
 2963SOL    MW411620   0.749   4.418   3.564 -0.2658 -0.2783 -0.3625
 2964SOL     OW11621   4.748   0.799   0.514 -0.0848 -0.1628 -0.3067
 2964SOL    HW211622   4.749   0.704   0.521 -0.4419 -0.0897  1.4018
 2964SOL    HW311623   4.839   0.824   0.501  0.0108 -0.7354 -0.7416
 2964SOL    MW411624   4.760   0.790   0.513 -0.1193 -0.2287 -0.1387
 2965SOL     OW11625   2.868   4.526   4.389  0.1917 -0.4377 -0.1530
 2965SOL    HW211626   2.895   4.517   4.481 -1.0171  1.0699  0.3884
 2965SOL    HW311627   2.795   4.466   4.379 -1.3132  1.1912  0.6187
 2965SOL    MW411628   2.862   4.517   4.400 -0.1663 -0.0239  0.0203
 2966SOL     OW11629   0.387   2.011   1.937 -0.3302  0.0647  0.3412
 2966SOL    HW211630   0.468   2.008   1.987  1.0783  0.8289 -1.7647
 2966SOL    HW311631   0.368   1.919   1.914  0.4875 -0.0293  0.0315
 2966SOL    MW411632   0.395   1.998   1.940 -0.0365  0.1531  0.0225
 2967SOL     OW11633   4.613   3.272   6.282  0.2166 -0.5843 -0.4409
 2967SOL    HW211634   4.621   3.304   6.372  1.2579 -2.7419  0.2985
 2967SOL    HW311635   4.653   3.340   6.229  0.8340  0.1088  0.8724
 2967SOL    MW411636   4.619   3.285   6.287  0.4354 -0.7775 -0.1701
 2968SOL     OW11637   1.230   0.614   3.745  0.3661  0.7772 -0.1378
 2968SOL    HW211638   1.181   0.534   3.764  0.6965  0.7361  0.6086
 2968SOL    HW311639   1.322   0.589   3.755  0.4426  1.5394  1.4574
 2968SOL    MW411640   1.235   0.600   3.749  0.4198  0.8723  0.1711
 2969SOL     OW11641   6.143   0.294   1.013  0.0050  0.2539 -0.2910
 2969SOL    HW211642   6.069   0.300   1.073  0.5102  0.4218  0.3287
 2969SOL    HW311643   6.111   0.239   0.941 -0.7349  0.3758 -0.0660
 2969SOL    MW411644   6.129   0.287   1.011 -0.0260  0.2921 -0.1795
 2970SOL     OW11645   5.265   0.388   5.784  0.2888 -0.4172  0.6985
 2970SOL    HW211646   5.327   0.440   5.835 -0.0941  0.5972  0.1669
 2970SOL    HW311647   5.179   0.426   5.805  0.0950 -0.2190 -0.4213
 2970SOL    MW411648   5.262   0.400   5.794  0.2127 -0.2572  0.4806
 2971SOL     OW11649   1.601   0.094   1.858 -0.2863  0.0261  0.6479
 2971SOL    HW211650   1.685   0.065   1.894 -0.7135  0.0356  1.7061
 2971SOL    HW311651   1.587   0.180   1.897 -0.6817  0.1275  0.2924
 2971SOL    MW411652   1.610   0.101   1.868 -0.3948  0.0407  0.7406
 2972SOL     OW11653   1.537   0.825   6.164  0.4568  0.3164 -0.0256
 2972SOL    HW211654   1.573   0.746   6.204  1.7917  0.4637 -0.8722
 2972SOL    HW311655   1.581   0.831   6.079 -1.3081  0.7325 -0.9616
 2972SOL    MW411656   1.548   0.815   6.158  0.4001  0.3907 -0.2608
 2973SOL     OW11657   1.124   5.426   6.419 -0.0315  0.6307  0.6041
 2973SOL    HW211658   1.208   5.403   6.380 -0.2768 -0.7993  0.8773
 2973SOL    HW311659   1.131   5.519   6.439  0.9626  0.8536 -0.6755
 2973SOL    MW411660   1.136   5.435   6.416  0.0673  0.4714  0.4713
 2974SOL     OW11661   2.650   2.498   2.509  0.1947  0.4016 -0.0227
 2974SOL    HW211662   2.664   2.505   2.603  1.8258  2.1508 -0.3273
 2974SOL    HW311663   2.738   2.496   2.471 -0.4187 -0.4663 -1.5160
 2974SOL    MW411664   2.663   2.499   2.516  0.3290  0.5179 -0.2599
 2975SOL     OW11665   1.717   0.278   2.536 -0.1621  0.5022 -0.3879
 2975SOL    HW211666   1.775   0.336   2.486  1.8996  1.4930  2.8330
 2975SOL    HW311667   1.761   0.192   2.534  0.1850  0.6627  0.0532
 2975SOL    MW411668   1.731   0.274   2.529  0.1557  0.6541  0.0952
 2976SOL     OW11669   5.062   6.221   2.993 -0.3796  0.1089 -0.3400
 2976SOL    HW211670   5.150   6.210   3.027 -1.1640  1.3666  2.3680
 2976SOL    HW311671   5.070   6.295   2.932  0.5350 -0.1874 -0.5975
 2976SOL    MW411672   5.075   6.229   2.989 -0.3624  0.2357 -0.0167
 2977SOL     OW11673   1.183   2.465   0.961 -0.3617  0.0855  0.0925
 2977SOL    HW211674   1.277   2.450   0.967 -0.2787 -0.2208 -1.5153
 2977SOL    HW311675   1.172   2.515   0.879 -1.6250 -0.2505  0.0349
 2977SOL    MW411676   1.194   2.470   0.951 -0.5174  0.0008 -0.1272
 2978SOL     OW11677   0.133   4.706   5.461 -0.7625  0.2730  0.1870
 2978SOL    HW211678   0.131   4.707   5.557  1.0989  0.6961  0.2624
 2978SOL    HW311679   0.122   4.613   5.438 -0.6675  0.0896  0.8453
 2978SOL    MW411680   0.131   4.694   5.471 -0.5044  0.3047  0.2838
 2979SOL     OW11681   2.675   4.380   2.755  0.2269  0.1140  0.2108
 2979SOL    HW211682   2.746   4.320   2.732 -0.7923 -1.0284 -0.1028
 2979SOL    HW311683   2.654   4.424   2.672 -0.0240 -0.2165  0.0960
 2979SOL    MW411684   2.682   4.378   2.741  0.0593 -0.0804  0.1543
 2980SOL     OW11685   4.799   6.241   1.209 -0.0376 -0.2971  0.0253
 2980SOL    HW211686   4.776   6.148   1.215 -3.8217  0.4197 -0.8885
 2980SOL    HW311687   4.872   6.243   1.147 -1.9225 -2.4852 -2.5194
 2980SOL    MW411688   4.806   6.229   1.202 -0.7856 -0.4912 -0.4310
 2981SOL     OW11689   2.297   3.348   3.990  0.7300 -0.0063  0.3090
 2981SOL    HW211690   2.300   3.414   3.921 -0.4189 -1.4635 -1.2312
 2981SOL    HW311691   2.277   3.397   4.069  0.7054  1.5793 -0.6396
 2981SOL    MW411692   2.294   3.363   3.991  0.5752  0.0106 -0.0194
 2982SOL     OW11693   4.572   3.206   5.565  0.0755 -0.1374 -0.2420
 2982SOL    HW211694   4.614   3.281   5.608  0.6469  0.0425 -1.0890
 2982SOL    HW311695   4.602   3.130   5.614  0.6063  0.0753 -0.2376
 2982SOL    MW411696   4.581   3.206   5.577  0.2209 -0.0856 -0.3531
 2983SOL     OW11697   3.195   5.490   5.056  0.0495  0.1566 -0.8836
 2983SOL    HW211698   3.274   5.544   5.061 -0.4039  0.7194  3.2946
 2983SOL    HW311699   3.225   5.401   5.075 -0.2196  0.3419  0.5192
 2983SOL    MW411700   3.209   5.485   5.059 -0.0458  0.2553 -0.1473
 2984SOL     OW11701   3.379   5.168   0.704 -0.4137 -0.0525  0.1234
 2984SOL    HW211702   3.318   5.236   0.674 -0.5422  0.2539  1.0624
 2984SOL    HW311703   3.466   5.207   0.693 -0.5200  0.5711  1.3834
 2984SOL    MW411704   3.382   5.183   0.698 -0.4447  0.0702  0.4136
 2985SOL     OW11705   5.245   0.856   4.105  0.4034  0.1346  0.3546
 2985SOL    HW211706   5.180   0.926   4.101 -1.2865 -1.4108 -2.1442
 2985SOL    HW311707   5.207   0.792   4.166 -0.7684 -0.9527 -1.4055
 2985SOL    MW411708   5.231   0.857   4.113  0.0258 -0.2128 -0.2073
 2986SOL     OW11709   4.522   2.088   0.971 -0.3242 -0.7070 -0.5198
 2986SOL    HW211710   4.498   2.177   0.999  1.3068 -0.4445  0.1636
 2986SOL    HW311711   4.616   2.083   0.988  0.0824 -1.7632 -2.7737
 2986SOL    MW411712   4.531   2.099   0.977 -0.0553 -0.8117 -0.7270
 2987SOL     OW11713   3.620   3.241   0.043 -0.0938  0.5254 -0.6414
 2987SOL    HW211714   3.647   3.311  -0.016  0.7126 -0.1078 -1.0299
 2987SOL    HW311715   3.615   3.283   0.129 -1.5125  1.5176 -1.1526
 2987SOL    MW411716   3.623   3.256   0.047 -0.1746  0.5728 -0.7601
 2988SOL     OW11717   4.019   5.642   5.304 -0.5963  0.4802 -0.1667
 2988SOL    HW211718   3.983   5.730   5.316 -0.6503  0.5873 -1.0294
 2988SOL    HW311719   4.089   5.635   5.369 -0.6896  1.1076  0.0017
 2988SOL    MW411720   4.024   5.653   5.314 -0.6157  0.5771 -0.2583
 2989SOL     OW11721   1.530   5.523   2.214  0.1551 -0.1088 -0.1345
 2989SOL    HW211722   1.436   5.516   2.194  0.2515 -1.0285 -0.2869
 2989SOL    HW311723   1.558   5.601   2.166 -0.2402 -0.6227 -1.2532
 2989SOL    MW411724   1.521   5.533   2.205  0.1156 -0.2980 -0.3022
 2990SOL     OW11725   3.381   0.516   5.173 -0.2871  0.1557  0.6062
 2990SOL    HW211726   3.430   0.598   5.176  0.6810 -0.4381  1.4938
 2990SOL    HW311727   3.317   0.524   5.243 -0.7340  0.4727  0.1688
 2990SOL    MW411728   3.379   0.528   5.182 -0.2183  0.1192  0.6656
 2991SOL     OW11729   2.907   3.358   1.962 -0.6731  0.0366 -0.3334
 2991SOL    HW211730   2.841   3.341   1.894 -2.7320  2.9071  0.7212
 2991SOL    HW311731   2.857   3.358   2.044  0.8915  1.0152  0.6782
 2991SOL    MW411732   2.891   3.356   1.964 -0.7383  0.5444 -0.0608
 2992SOL     OW11733   5.821   3.541   3.412 -0.6210  0.3497 -0.4691
 2992SOL    HW211734   5.737   3.499   3.434 -1.0000  1.4068  0.1872
 2992SOL    HW311735   5.802   3.634   3.414  0.7652  0.6374  0.5095
 2992SOL    MW411736   5.807   3.547   3.415 -0.4881  0.5271 -0.2534
 2993SOL     OW11737   3.034   5.625   1.721 -0.6609 -0.5903  0.4147
 2993SOL    HW211738   3.022   5.613   1.627  0.0139  2.1592 -0.1065
 2993SOL    HW311739   3.129   5.630   1.732 -0.7654  1.7820  0.7615
 2993SOL    MW411740   3.045   5.624   1.710 -0.5857  0.0855  0.3917
 2994SOL     OW11741   6.423   2.380   1.739  0.0770  0.3196  0.0021
 2994SOL    HW211742   6.409   2.285   1.745  0.4797  0.3403  3.2526
 2994SOL    HW311743   6.348   2.412   1.688 -1.6716 -1.4891  1.2580
 2994SOL    MW411744   6.411   2.372   1.733 -0.1006  0.0837  0.5966
 2995SOL     OW11745   2.859   6.213   5.031  0.1510 -0.6201 -1.0919
 2995SOL    HW211746   2.885   6.146   4.968  2.1205 -3.1454  2.0908
 2995SOL    HW311747   2.764   6.201   5.041  0.5654 -3.6651  0.0044
 2995SOL    MW411748   2.850   6.203   5.024  0.4655 -1.3550 -0.5273
 2996SOL     OW11749   0.228   3.120   4.535  0.4242 -0.1788 -0.3510
 2996SOL    HW211750   0.244   3.067   4.457 -3.0207 -0.2511 -1.2127
 2996SOL    HW311751   0.184   3.199   4.502  0.7636  0.7911  1.3589
 2996SOL    MW411752   0.224   3.124   4.520  0.0145 -0.0604 -0.2391
 2997SOL     OW11753   3.763   0.320   0.864 -0.0544 -0.4998  0.5708
 2997SOL    HW211754   3.816   0.400   0.868  0.2747 -0.6552 -0.5571
 2997SOL    HW311755   3.823   0.251   0.891  0.7570 -0.8621 -1.9175
 2997SOL    MW411756   3.778   0.321   0.868  0.0961 -0.5681  0.0937
 2998SOL     OW11757   1.549   6.242   2.102 -0.1696 -0.2126  0.4618
 2998SOL    HW211758   1.495   6.189   2.160  0.4216  0.8460  2.0570
 2998SOL    HW311759   1.488   6.308   2.068 -0.2553 -0.0601  0.8993
 2998SOL    MW411760   1.533   6.244   2.105 -0.1029 -0.0528  0.7300
 2999SOL     OW11761   4.776   5.006   6.303 -0.3067 -0.0530  0.3655
 2999SOL    HW211762   4.697   4.973   6.261 -0.2276 -0.7103  0.7127
 2999SOL    HW311763   4.844   4.943   6.278 -0.0784  0.0339  0.7535
 2999SOL    MW411764   4.775   4.993   6.294 -0.2662 -0.1282  0.4625
 3000SOL     OW11765   4.175   0.325   4.446 -0.0635 -0.0912  0.0130
 3000SOL    HW211766   4.165   0.400   4.387  1.6893 -1.1342 -1.7208
 3000SOL    HW311767   4.226   0.359   4.520  1.8445  0.1815 -1.3721
 3000SOL    MW411768   4.180   0.340   4.448  0.4195 -0.1929 -0.3985
 3001SOL     OW11769   5.357   0.602   6.332  0.6079 -0.0387 -0.1517
 3001SOL    HW211770   5.338   0.682   6.283 -0.5285  0.6578  1.3362
 3001SOL    HW311771   5.314   0.532   6.283 -1.9197  0.8667  0.6534
 3001SOL    MW411772   5.349   0.603   6.319  0.1245  0.1726  0.1508
 3002SOL     OW11773   0.692   4.469   4.195 -0.3182  0.3461  0.0353
 3002SOL    HW211774   0.654   4.503   4.115 -0.2971  0.0763 -0.0914
 3002SOL    HW311775   0.661   4.378   4.199  0.6545 -0.0041 -0.2878
 3002SOL    MW411776   0.683   4.461   4.185 -0.1871  0.2643 -0.0241
 3003SOL     OW11777   5.957   6.344   4.505  0.1434  0.0817 -0.4165
 3003SOL    HW211778   6.048   6.323   4.486  0.0205  0.5556 -1.5716
 3003SOL    HW311779   5.911   6.331   4.422 -0.8437 -0.1260  0.1402
 3003SOL    MW411780   5.963   6.339   4.492 -0.0030  0.1168 -0.4955
 3004SOL     OW11781   5.227   3.210   1.068 -0.1160  0.3446  0.2623
 3004SOL    HW211782   5.158   3.144   1.079  1.2546 -1.1484  0.3618
 3004SOL    HW311783   5.223   3.234   0.975  0.9420 -1.8041 -0.4095
 3004SOL    MW411784   5.218   3.204   1.057  0.2044 -0.1359  0.1868
 3005SOL     OW11785   3.423   5.859   1.960 -0.6239 -0.3080 -0.0744
 3005SOL    HW211786   3.395   5.817   1.878 -1.9754  1.3793 -0.5163
 3005SOL    HW311787   3.456   5.945   1.934  1.6190 -0.8010  0.8788
 3005SOL    MW411788   3.424   5.864   1.946 -0.5063 -0.1505 -0.0070
 3006SOL     OW11789   0.533   5.623   4.880  0.2747 -0.3347  0.7020
 3006SOL    HW211790   0.558   5.705   4.923 -0.3660  0.7694 -0.8994
 3006SOL    HW311791   0.554   5.555   4.943 -0.7491  1.1756  2.8146
 3006SOL    MW411792   0.539   5.625   4.894  0.0551  0.0102  0.7695
 3007SOL     OW11793   3.580   1.659   0.191 -0.7101  0.0635  0.1631
 3007SOL    HW211794   3.546   1.737   0.236 -0.6516  0.7838 -1.0137
 3007SOL    HW311795   3.545   1.585   0.243 -2.8342  0.7963 -0.1023
 3007SOL    MW411796   3.571   1.659   0.204 -0.9826  0.2552 -0.0272
 3008SOL     OW11797   3.606   3.162   1.701  0.0588  0.0468  0.1889
 3008SOL    HW211798   3.699   3.185   1.695 -0.0979  0.8498  0.7313
 3008SOL    HW311799   3.591   3.103   1.626  0.8749  0.3316 -0.2075
 3008SOL    MW411800   3.616   3.157   1.690  0.1458  0.1903  0.2081
 3009SOL     OW11801   0.891   5.431   2.573  0.1315 -0.4792 -0.2276
 3009SOL    HW211802   0.921   5.518   2.548 -0.8831  0.4676  1.6176
 3009SOL    HW311803   0.957   5.400   2.635 -0.3048 -0.3434  0.3129
 3009SOL    MW411804   0.903   5.439   2.578 -0.0599 -0.3364  0.0872
 3010SOL     OW11805   2.869   3.756   5.968 -0.4710  0.6728 -0.3019
 3010SOL    HW211806   2.861   3.762   5.872 -0.8866 -1.1942 -0.4149
 3010SOL    HW311807   2.834   3.670   5.990 -2.6082  1.9524  1.8059
 3010SOL    MW411808   2.863   3.746   5.958 -0.8078  0.5953 -0.0387
 3011SOL     OW11809   2.524   0.869   1.699  0.0735  0.1195  0.9775
 3011SOL    HW211810   2.459   0.814   1.742  0.4398 -0.9659  0.1648
 3011SOL    HW311811   2.473   0.923   1.639 -0.2332  0.3436  1.4322
 3011SOL    MW411812   2.509   0.869   1.697  0.0814  0.0059  0.9303
 3012SOL     OW11813   3.775   6.088   6.014 -0.2299  0.2976  0.2739
 3012SOL    HW211814   3.773   6.072   5.920 -0.9519  1.5687  0.0437
 3012SOL    HW311815   3.866   6.114   6.032  0.4525 -1.9562  0.3330
 3012SOL    MW411816   3.787   6.090   6.004 -0.2351  0.1679  0.2513
 3013SOL     OW11817   3.722   4.917   5.621  0.1826  0.1444  0.2017
 3013SOL    HW211818   3.631   4.944   5.617  0.3195  0.5319 -0.5228
 3013SOL    HW311819   3.772   4.999   5.612  0.6039  0.0075  1.1606
 3013SOL    MW411820   3.717   4.931   5.619  0.2562  0.1774  0.2326
 3014SOL     OW11821   3.442   5.002   5.629  0.4418  0.0164 -0.0458
 3014SOL    HW211822   3.361   5.001   5.579  0.3923  0.2401  0.0295
 3014SOL    HW311823   3.425   5.061   5.703  0.3005 -0.8238  0.6064
 3014SOL    MW411824   3.429   5.010   5.632  0.4166 -0.0649  0.0502
 3015SOL     OW11825   5.430   0.371   4.332 -0.0544  0.0661  0.6497
 3015SOL    HW211826   5.344   0.406   4.353 -2.0287 -1.7158 -3.2651
 3015SOL    HW311827   5.469   0.437   4.274  0.4969  0.1372  1.0984
 3015SOL    MW411828   5.424   0.384   4.327 -0.2421 -0.1596  0.1924
 3016SOL     OW11829   0.949   4.978   0.581  0.7652  0.5200 -0.4516
 3016SOL    HW211830   0.931   4.949   0.491 -0.4730 -0.6910  0.1430
 3016SOL    HW311831   1.021   4.922   0.610  0.3615  0.0624 -0.3072
 3016SOL    MW411832   0.956   4.967   0.573  0.5486  0.2998 -0.3541
 3017SOL     OW11833   4.179   4.466   3.320 -0.1866 -0.0592 -0.3156
 3017SOL    HW211834   4.184   4.371   3.317  2.4756 -0.2027  2.4561
 3017SOL    HW311835   4.243   4.496   3.255  0.7088 -0.3217  0.4095
 3017SOL    MW411836   4.188   4.457   3.311  0.2828 -0.1128  0.1457
 3018SOL     OW11837   6.213   3.928   2.456 -0.3387 -0.2506  0.4891
 3018SOL    HW211838   6.121   3.948   2.471 -0.5168  0.5045 -1.4292
 3018SOL    HW311839   6.259   4.010   2.472  0.2875 -0.9924  3.0796
 3018SOL    MW411840   6.207   3.941   2.460 -0.2796 -0.2489  0.5778
 3019SOL     OW11841   6.015   6.424   0.283  0.6538  0.6858 -0.2169
 3019SOL    HW211842   5.982   6.477   0.355 -0.9790  0.0175 -0.4335
 3019SOL    HW311843   6.054   6.347   0.325  0.8454  0.8921 -0.0111
 3019SOL    MW411844   6.016   6.421   0.298  0.4637  0.6249 -0.2183
 3020SOL     OW11845   3.555   5.467   6.011  0.0563 -0.0927  0.2821
 3020SOL    HW211846   3.618   5.412   5.964  0.6752  0.0375  0.9280
 3020SOL    HW311847   3.506   5.511   5.942 -1.0525 -2.0710 -0.2702
 3020SOL    MW411848   3.557   5.466   5.995 -0.0083 -0.3365  0.2945
 3021SOL     OW11849   2.002   3.753   2.186  0.1572  0.4361  0.0431
 3021SOL    HW211850   2.051   3.835   2.179 -2.2607  1.8742 -1.9902
 3021SOL    HW311851   1.975   3.749   2.278  0.2146  2.0188  0.1646
 3021SOL    MW411852   2.005   3.763   2.197 -0.1542  0.8347 -0.2092
 3022SOL     OW11853   5.623   4.266   5.857 -0.0502  0.6769 -0.1435
 3022SOL    HW211854   5.718   4.273   5.852  0.2750 -0.4924  2.5680
 3022SOL    HW311855   5.600   4.205   5.788  1.0881  1.3932 -1.1904
 3022SOL    MW411856   5.632   4.259   5.847  0.1429  0.6171  0.0762
 3023SOL     OW11857   0.856   5.468   1.971 -0.2982  0.2297  0.3579
 3023SOL    HW211858   0.844   5.406   2.044 -1.0937  0.9922  0.8893
 3023SOL    HW311859   0.803   5.431   1.900 -0.7010  0.2470  0.6442
 3023SOL    MW411860   0.848   5.455   1.971 -0.4563  0.3326  0.4658
 3024SOL     OW11861   4.487   2.598   4.611  0.4208  0.1170  0.6294
 3024SOL    HW211862   4.581   2.615   4.620  0.6233  0.2355 -1.3439
 3024SOL    HW311863   4.447   2.685   4.620  0.6641  0.3347 -0.3402
 3024SOL    MW411864   4.495   2.612   4.614  0.4796  0.1613  0.2411
 3025SOL     OW11865   1.930   1.208   5.602  0.5644  0.8874  0.1448
 3025SOL    HW211866   1.871   1.280   5.581  1.1900  2.0817  2.1420
 3025SOL    HW311867   1.974   1.188   5.520 -1.7122  0.7405 -1.1468
 3025SOL    MW411868   1.928   1.215   5.589  0.3466  1.0256  0.2379
 3026SOL     OW11869   5.981   6.060   1.171 -0.1581 -0.1667  0.3400
 3026SOL    HW211870   5.936   6.142   1.149  1.2958 -0.1756 -3.2045
 3026SOL    HW311871   5.913   5.993   1.164 -0.2587  0.1137 -2.5936
 3026SOL    MW411872   5.966   6.062   1.167  0.0204 -0.1309 -0.5147
 3027SOL     OW11873   5.678   2.312   4.639 -0.3629 -0.1039  0.1838
 3027SOL    HW211874   5.743   2.256   4.597  0.1607 -0.2302  1.1267
 3027SOL    HW311875   5.661   2.270   4.724  0.0769  1.1626  0.9310
 3027SOL    MW411876   5.684   2.299   4.645 -0.2358  0.0465  0.4068
 3028SOL     OW11877   2.110   4.387   1.398 -0.2918  0.0804 -0.0366
 3028SOL    HW211878   2.183   4.431   1.442  0.3904 -1.0464  0.0255
 3028SOL    HW311879   2.152   4.314   1.351 -1.0601  0.9776 -2.2081
 3028SOL    MW411880   2.125   4.383   1.398 -0.3031  0.0501 -0.3149
 3029SOL     OW11881   1.950   4.621   0.616  0.2388  0.2673 -0.4332
 3029SOL    HW211882   1.859   4.648   0.600 -0.8796 -2.9420 -0.2621
 3029SOL    HW311883   2.002   4.678   0.560 -1.8435  2.2838 -0.4835
 3029SOL    MW411884   1.945   4.632   0.607 -0.1835  0.1099 -0.4173
 3030SOL     OW11885   4.310   2.593   3.019 -0.1038  0.1400 -0.1614
 3030SOL    HW211886   4.383   2.642   3.057 -1.2651  0.5464  1.6798
 3030SOL    HW311887   4.346   2.552   2.940  1.9924  0.6216  0.4980
 3030SOL    MW411888   4.324   2.594   3.013  0.0195  0.2572  0.1686
 3031SOL     OW11889   0.615   5.006   3.473 -0.2737  0.0115  0.4505
 3031SOL    HW211890   0.640   4.928   3.523 -0.9899 -0.5817 -0.1045
 3031SOL    HW311891   0.695   5.058   3.469  0.3678 -0.9574  0.3511
 3031SOL    MW411892   0.629   5.002   3.479 -0.2836 -0.1946  0.3641
 3032SOL     OW11893   3.508   5.635   3.140  0.1476  0.3529  0.4225
 3032SOL    HW211894   3.508   5.678   3.054 -0.4416 -1.6264 -0.6082
 3032SOL    HW311895   3.446   5.686   3.191 -0.6138  0.6864 -0.7887
 3032SOL    MW411896   3.500   5.648   3.135 -0.0306  0.1357  0.1267
 3033SOL     OW11897   1.637   1.543   0.971 -0.3789 -0.5829 -0.2057
 3033SOL    HW211898   1.563   1.553   1.032 -0.5759  1.7132 -0.7088
 3033SOL    HW311899   1.596   1.530   0.885 -0.2857  1.2692 -0.5781
 3033SOL    MW411900   1.622   1.543   0.968 -0.3926 -0.0356 -0.3212
 3034SOL     OW11901   0.504   4.175   0.931 -0.5118  0.1699 -0.1628
 3034SOL    HW211902   0.551   4.098   0.964 -0.7128 -0.3728 -1.0886
 3034SOL    HW311903   0.569   4.245   0.932 -0.2404 -0.0870  0.4135
 3034SOL    MW411904   0.519   4.174   0.935 -0.5025  0.0644 -0.2089
 3035SOL     OW11905   4.034   0.540   2.312  0.0463 -0.2187 -0.3253
 3035SOL    HW211906   3.978   0.570   2.240 -0.7059  1.4870  0.8819
 3035SOL    HW311907   4.116   0.515   2.270 -0.3972  0.6506 -1.7952
 3035SOL    MW411908   4.037   0.541   2.297 -0.1115  0.1210 -0.3599
 3036SOL     OW11909   6.404   3.226   0.741  0.1515  1.1530 -0.2583
 3036SOL    HW211910   6.419   3.238   0.648 -1.3600  0.5986 -0.6063
 3036SOL    HW311911   6.448   3.143   0.762 -0.4746  0.6835 -0.7503
 3036SOL    MW411912   6.412   3.217   0.732 -0.1305  1.0179 -0.3691
 3037SOL     OW11913   3.167   3.655   3.122 -0.1179  0.4020 -0.1451
 3037SOL    HW211914   3.237   3.710   3.087  0.6830 -1.0850 -0.9762
 3037SOL    HW311915   3.193   3.637   3.212  1.5335 -1.5638 -0.9501
 3037SOL    MW411916   3.179   3.660   3.129  0.2056 -0.0536 -0.3610
 3038SOL     OW11917   1.917   2.042   3.735 -0.5602  0.6801  0.4482
 3038SOL    HW211918   2.013   2.048   3.730 -0.6126  0.3486 -1.8014
 3038SOL    HW311919   1.901   1.965   3.790  0.4978 -0.0144 -0.1674
 3038SOL    MW411920   1.928   2.033   3.742 -0.4275  0.5447  0.0702
 3039SOL     OW11921   3.914   5.448   2.735  0.0803  0.2996  0.3356
 3039SOL    HW211922   3.969   5.394   2.791  0.3212 -0.1716 -0.3395
 3039SOL    HW311923   3.916   5.405   2.650  0.7315  1.6825 -0.3843
 3039SOL    MW411924   3.921   5.435   2.731  0.1980  0.4199  0.1516
 3040SOL     OW11925   1.851   6.169   3.299  0.4412  0.4470  0.7122
 3040SOL    HW211926   1.929   6.224   3.303  0.2596  0.7622  0.0340
 3040SOL    HW311927   1.778   6.232   3.299  0.2111  0.1792  0.6104
 3040SOL    MW411928   1.852   6.185   3.300  0.3869  0.4533  0.6093
 3041SOL     OW11929   4.222   0.813   3.537 -0.0417 -0.6373 -0.3081
 3041SOL    HW211930   4.129   0.836   3.535 -0.8449 -3.1801  1.6463
 3041SOL    HW311931   4.222   0.718   3.553  2.9076 -0.7637 -0.6170
 3041SOL    MW411932   4.210   0.803   3.539  0.2415 -0.9895 -0.0910
 3042SOL     OW11933   6.258   3.012   1.393  0.7979 -0.0106  0.2351
 3042SOL    HW211934   6.241   3.104   1.372 -2.3420 -0.7729 -1.0983
 3042SOL    HW311935   6.209   2.996   1.473  1.2838 -0.5624  0.4289
 3042SOL    MW411936   6.249   3.022   1.401  0.4477 -0.1840  0.0848
 3043SOL     OW11937   1.297   2.666   6.330 -1.1240 -0.2136 -0.4028
 3043SOL    HW211938   1.220   2.642   6.278 -0.8015 -1.7525 -0.2203
 3043SOL    HW311939   1.305   2.595   6.395 -0.1267  0.4335  0.2123
 3043SOL    MW411940   1.288   2.654   6.332 -0.9499 -0.3313 -0.2976
 3044SOL     OW11941   2.609   5.989   2.850  0.5582 -0.5968 -0.0836
 3044SOL    HW211942   2.634   6.068   2.802  2.6195 -1.4088 -0.4339
 3044SOL    HW311943   2.524   6.010   2.889 -0.2583  0.8193 -2.4108
 3044SOL    MW411944   2.601   6.002   2.849  0.7224 -0.5171 -0.4369
 3045SOL     OW11945   5.802   1.431   1.549 -0.8091 -0.6606 -0.0334
 3045SOL    HW211946   5.830   1.343   1.576  0.0434 -0.7416 -1.1044
 3045SOL    HW311947   5.858   1.452   1.474 -0.7281  0.9703  0.4427
 3045SOL    MW411948   5.813   1.422   1.543 -0.6859 -0.4561 -0.1119
 3046SOL     OW11949   3.190   1.020   3.242 -0.4497 -0.3937  0.2720
 3046SOL    HW211950   3.168   0.965   3.317  0.8143 -0.5321  0.5630
 3046SOL    HW311951   3.256   1.081   3.275  0.6706 -0.9299 -0.8649
 3046SOL    MW411952   3.196   1.021   3.256 -0.1351 -0.4827  0.1604
 3047SOL     OW11953   2.565   4.337   1.555 -0.4178  0.2941 -0.1244
 3047SOL    HW211954   2.640   4.380   1.515  0.5705 -0.9605  0.3038
 3047SOL    HW311955   2.579   4.244   1.537 -2.8294  0.1353 -1.6265
 3047SOL    MW411956   2.577   4.330   1.547 -0.6056  0.1076 -0.2660
 3048SOL     OW11957   1.365   5.516   6.096  0.1448 -0.2580  0.2735
 3048SOL    HW211958   1.445   5.539   6.050  0.3027 -0.9561  0.1821
 3048SOL    HW311959   1.330   5.599   6.128 -0.5866  0.4182 -2.0943
 3048SOL    MW411960   1.371   5.530   6.094  0.0691 -0.2609 -0.0509
 3049SOL     OW11961   5.955   4.413   1.817  0.2760 -0.8880  0.4789
 3049SOL    HW211962   5.964   4.352   1.890  1.3908 -1.0720  0.2021
 3049SOL    HW311963   5.996   4.494   1.849 -0.7254 -0.4355  0.6539
 3049SOL    MW411964   5.962   4.416   1.831  0.2910 -0.8526  0.4655
 3050SOL     OW11965   6.302   0.144   4.448 -0.1214  0.7330  0.6356
 3050SOL    HW211966   6.221   0.178   4.486 -0.6311 -1.2918  1.5050
 3050SOL    HW311967   6.363   0.138   4.522  0.4868  1.2694  0.1845
 3050SOL    MW411968   6.299   0.147   4.463 -0.1084  0.5366  0.6908
 3051SOL     OW11969   6.418   3.944   5.219 -0.4070 -0.1672  0.3985
 3051SOL    HW211970   6.442   3.884   5.148  0.1712 -0.5137  0.8699
 3051SOL    HW311971   6.375   3.888   5.284  0.7962 -0.2453  1.1777
 3051SOL    MW411972   6.416   3.928   5.218 -0.1720 -0.2232  0.5635
 3052SOL     OW11973   5.143   5.745   4.622  0.3319  0.3109  0.2079
 3052SOL    HW211974   5.141   5.774   4.530  1.7482  0.0804  0.0802
 3052SOL    HW311975   5.067   5.786   4.662  0.4852  1.5649 -0.7425
 3052SOL    MW411976   5.133   5.754   4.615  0.5390  0.4459  0.0657
 3053SOL     OW11977   3.595   0.016   5.146 -0.3200 -0.0335 -0.3883
 3053SOL    HW211978   3.503   0.014   5.120  0.0648 -0.2336 -1.8728
 3053SOL    HW311979   3.626  -0.073   5.127 -0.2132 -0.4883  1.7422
 3053SOL    MW411980   3.587   0.004   5.140 -0.2552 -0.1199 -0.3031
 3054SOL     OW11981   3.613   5.965   3.017 -0.0036  0.2000  0.5973
 3054SOL    HW211982   3.636   5.961   3.110  0.1549  0.4822  0.5705
 3054SOL    HW311983   3.518   5.953   3.014  0.0065  0.0756  0.7852
 3054SOL    MW411984   3.604   5.963   3.029  0.0186  0.2208  0.6185
 3055SOL     OW11985   4.479   1.422   6.085  0.1049  0.1193  0.1443
 3055SOL    HW211986   4.571   1.396   6.079 -0.3609 -1.3162 -3.0619
 3055SOL    HW311987   4.441   1.362   6.149  1.0366 -0.5254  0.1130
 3055SOL    MW411988   4.486   1.411   6.092  0.1664 -0.1552 -0.2829
 3056SOL     OW11989   3.336   4.486   2.815 -0.2627  0.1028  0.1231
 3056SOL    HW211990   3.429   4.494   2.796 -0.1282 -1.1707  0.1448
 3056SOL    HW311991   3.321   4.392   2.822 -2.0713  0.1086 -2.5108
 3056SOL    MW411992   3.346   4.475   2.814 -0.4836 -0.0644 -0.2215
 3057SOL     OW11993   3.169   4.679   6.120  0.1636  0.0049 -0.3696
 3057SOL    HW211994   3.150   4.682   6.214  2.0274 -0.8218  0.0794
 3057SOL    HW311995   3.135   4.762   6.086  0.9515  1.1036  1.3539
 3057SOL    MW411996   3.162   4.691   6.128  0.5135  0.0408 -0.0830
 3058SOL     OW11997   3.982   4.281   1.299 -0.0457  0.2890 -0.8385
 3058SOL    HW211998   4.043   4.207   1.295 -0.3790  0.0584 -4.1199
 3058SOL    HW311999   4.036   4.356   1.322  0.6879 -0.5653  0.3542
 3058SOL    MW412000   3.997   4.281   1.301  0.0071  0.1459 -1.1141
 3059SOL     OW12001   4.907   4.057   1.784 -0.4381 -0.6433  0.0526
 3059SOL    HW212002   4.955   4.122   1.836 -1.0535  0.7497 -1.0457
 3059SOL    HW312003   4.839   4.024   1.843  0.9034 -1.5727  1.1561
 3059SOL    MW412004   4.904   4.061   1.799 -0.3423 -0.5821  0.0533
 3060SOL     OW12005   0.691   2.390   3.692 -0.1085  0.0203 -0.2632
 3060SOL    HW212006   0.758   2.369   3.757  0.4525 -3.4078 -1.7162
 3060SOL    HW312007   0.709   2.481   3.668  1.5908  0.3922  2.1146
 3060SOL    MW412008   0.702   2.400   3.697  0.1897 -0.3830 -0.1412
 3061SOL     OW12009   4.572   1.857   4.135 -0.3276 -0.2389  0.1537
 3061SOL    HW212010   4.632   1.891   4.069  0.9366 -1.0396  0.8509
 3061SOL    HW312011   4.494   1.832   4.086  0.0873  0.3779 -0.8440
 3061SOL    MW412012   4.570   1.858   4.120 -0.1060 -0.2632  0.1140
 3062SOL     OW12013   5.237   0.738   2.675  0.1483  0.4122  0.5471
 3062SOL    HW212014   5.148   0.764   2.652  0.2473  0.8858  0.6904
 3062SOL    HW312015   5.230   0.646   2.700  0.0168 -0.1323 -1.3187
 3062SOL    MW412016   5.224   0.730   2.675  0.1440  0.4028  0.3198
 3063SOL     OW12017   5.823   5.470   5.827  0.0951  0.2366 -0.3698
 3063SOL    HW212018   5.728   5.462   5.841  0.0752  0.0071 -0.6238
 3063SOL    HW312019   5.839   5.564   5.827  0.0299  0.2564  0.7124
 3063SOL    MW412020   5.812   5.481   5.829  0.0839  0.2089 -0.2606
 3064SOL     OW12021   1.634   5.685   6.224 -0.3458  0.4713  0.0088
 3064SOL    HW212022   1.696   5.758   6.224 -0.4427  0.5671  0.7859
 3064SOL    HW312023   1.550   5.724   6.200 -0.4317  0.6543  0.5905
 3064SOL    MW412024   1.631   5.700   6.221 -0.3699  0.5081  0.1881
 3065SOL     OW12025   3.951   6.216   4.148 -0.1764  0.2329  0.0569
 3065SOL    HW212026   4.046   6.210   4.157 -0.2671 -0.5775  0.6294
 3065SOL    HW312027   3.935   6.206   4.055  0.3346  1.0330 -0.1297
 3065SOL    MW412028   3.962   6.214   4.137 -0.1209  0.2316  0.1078
 3066SOL     OW12029   5.302   3.829   1.377  0.1129  0.1451 -0.5239
 3066SOL    HW212030   5.350   3.774   1.315 -0.4197 -1.1372  0.1517
 3066SOL    HW312031   5.367   3.890   1.411  0.8942 -0.5362 -0.7680
 3066SOL    MW412032   5.317   3.830   1.373  0.1457 -0.1140 -0.4670
 3067SOL     OW12033   2.507   0.966   2.133 -0.0311  0.3974 -0.0220
 3067SOL    HW212034   2.441   0.913   2.178  0.3559 -1.2426 -1.3028
 3067SOL    HW312035   2.474   1.056   2.140 -1.4281 -0.1592  0.9968
 3067SOL    MW412036   2.494   0.971   2.140 -0.1644  0.1076 -0.0566
 3068SOL     OW12037   6.207   6.144   5.217 -0.0572  0.1115 -0.3339
 3068SOL    HW212038   6.161   6.089   5.280 -0.7106 -1.1770 -1.8766
 3068SOL    HW312039   6.286   6.094   5.194 -1.5513 -1.1942 -3.1249
 3068SOL    MW412040   6.211   6.130   5.222 -0.3405 -0.2308 -0.9057
 3069SOL     OW12041   3.375   4.242   4.046 -0.0208  0.5368  0.4576
 3069SOL    HW212042   3.442   4.188   4.088 -0.0203  0.0359 -0.1842
 3069SOL    HW312043   3.337   4.292   4.118 -0.5206 -0.8382  1.1940
 3069SOL    MW412044   3.379   4.241   4.061 -0.0867  0.2893  0.4701
 3070SOL     OW12045   3.463   2.597   1.034  0.3512 -0.3553  0.6559
 3070SOL    HW212046   3.376   2.561   1.017 -0.4817  0.9142  1.9923
 3070SOL    HW312047   3.451   2.692   1.032  2.2266 -0.0708 -1.5394
 3070SOL    MW412048   3.450   2.605   1.032  0.4887 -0.1503  0.5425
 3071SOL     OW12049   3.461   3.401   2.967 -0.2271 -0.3325  0.5486
 3071SOL    HW212050   3.493   3.361   2.886  1.7348 -2.8110  2.3877
 3071SOL    HW312051   3.367   3.410   2.954  0.0321 -0.5809 -1.9847
 3071SOL    MW412052   3.453   3.397   2.955  0.0660 -0.6923  0.4570
 3072SOL     OW12053   0.933   0.131   6.092 -0.1228  0.9827  0.4394
 3072SOL    HW212054   0.968   0.142   6.004 -0.0238  1.4834  0.5377
 3072SOL    HW312055   1.008   0.103   6.144 -0.6832 -1.8201 -0.1158
 3072SOL    MW412056   0.947   0.129   6.088 -0.1837  0.6790  0.3791
 3073SOL     OW12057   0.810   1.465   0.520 -0.3282 -0.2911  0.2346
 3073SOL    HW212058   0.895   1.476   0.563 -0.4713  1.2994  0.1614
 3073SOL    HW312059   0.761   1.409   0.580  0.8982 -1.6320  0.0593
 3073SOL    MW412060   0.815   1.459   0.534 -0.1852 -0.2581  0.2018
 3074SOL     OW12061   1.387   5.812   3.874  0.5414  0.3402  0.1760
 3074SOL    HW212062   1.415   5.738   3.820  0.1538  1.3260 -1.4354
 3074SOL    HW312063   1.424   5.793   3.961  2.4658 -0.5783 -0.7720
 3074SOL    MW412064   1.396   5.800   3.878  0.7442  0.3490 -0.1617
 3075SOL     OW12065   0.154   3.557   4.648 -0.5359 -0.3782 -0.4027
 3075SOL    HW212066   0.068   3.598   4.659 -0.1266  0.4788 -0.3457
 3075SOL    HW312067   0.211   3.628   4.621  0.6155 -0.4781  1.5372
 3075SOL    MW412068   0.150   3.572   4.646 -0.3300 -0.2783 -0.1392
 3076SOL     OW12069   0.806   5.091   2.628 -0.5982 -0.3510 -0.5304
 3076SOL    HW212070   0.889   5.089   2.675 -0.6557  0.1724 -0.4026
 3076SOL    HW312071   0.755   5.020   2.667 -0.7655  0.2871  0.4274
 3076SOL    MW412072   0.810   5.081   2.639 -0.6278 -0.1978 -0.3872
 3077SOL     OW12073   5.464   0.007   3.737 -0.1222 -0.0641  0.2080
 3077SOL    HW212074   5.382  -0.006   3.690 -0.1059  0.9443 -0.1211
 3077SOL    HW312075   5.458   0.096   3.771  1.1553  0.3169 -0.4964
 3077SOL    MW412076   5.452   0.017   3.735  0.0485  0.1192  0.0716
 3078SOL     OW12077   0.257   2.405   3.847 -0.5169  0.0807 -0.0408
 3078SOL    HW212078   0.229   2.378   3.759  0.7364  0.5212 -0.6007
 3078SOL    HW312079   0.253   2.501   3.845  2.1283  0.2601 -0.5964
 3078SOL    MW412080   0.253   2.414   3.835 -0.0025  0.1625 -0.1880
 3079SOL     OW12081   4.790   3.445   2.491  0.0644 -0.3554  0.2542
 3079SOL    HW212082   4.718   3.505   2.472 -0.6835 -0.9096  1.2500
 3079SOL    HW312083   4.763   3.362   2.452  0.6012 -0.3256 -0.1845
 3079SOL    MW412084   4.777   3.442   2.483  0.0365 -0.4246  0.3277
 3080SOL     OW12085   2.876   3.729   2.290 -0.5612  0.1543  0.1624
 3080SOL    HW212086   2.849   3.713   2.200  0.0529  1.0871 -0.1942
 3080SOL    HW312087   2.800   3.703   2.343 -1.6229  1.3337 -0.7270
 3080SOL    MW412088   2.862   3.723   2.285 -0.6203  0.4330 -0.0020
 3081SOL     OW12089   5.829   2.029   0.975  0.6888  0.2753 -0.1999
 3081SOL    HW212090   5.759   2.035   1.040 -0.6198  1.2060 -1.6412
 3081SOL    HW312091   5.910   2.028   1.028 -0.2768  1.7199  1.4275
 3081SOL    MW412092   5.831   2.030   0.991  0.3887  0.5887 -0.1753
 3082SOL     OW12093   5.911   4.951   2.187 -0.0146 -0.6174  0.2453
 3082SOL    HW212094   5.826   4.921   2.218 -0.3452 -0.9264 -0.9004
 3082SOL    HW312095   5.896   4.972   2.095  0.3950  2.2777  0.7520
 3082SOL    MW412096   5.898   4.950   2.179 -0.0042 -0.2762  0.1610
 3083SOL     OW12097   3.095   1.892   1.893 -0.4183 -0.0486  0.3845
 3083SOL    HW212098   3.046   1.967   1.928 -2.4533 -0.1561 -1.9884
 3083SOL    HW312099   3.028   1.825   1.879  1.0238 -1.5183  0.3802
 3083SOL    MW412100   3.079   1.893   1.896 -0.4965 -0.2567  0.0708
 3084SOL     OW12101   2.552   4.053   4.534 -0.1293  0.7680  0.2285
 3084SOL    HW212102   2.580   4.121   4.594  0.1657  0.1009  0.8638
 3084SOL    HW312103   2.566   3.971   4.582  0.2767  0.2052 -0.8108
 3084SOL    MW412104   2.557   4.051   4.548 -0.0368  0.6058  0.1752
 3085SOL     OW12105   6.001   1.080   6.375 -0.3668 -0.0256 -0.1940
 3085SOL    HW212106   5.916   1.122   6.389 -1.4100 -1.5067 -1.6433
 3085SOL    HW312107   6.039   1.075   6.462 -2.0837  0.0452  0.6181
 3085SOL    MW412108   5.994   1.085   6.388 -0.7310 -0.2117 -0.2781
 3086SOL     OW12109   2.682   6.286   0.986 -0.2469 -0.0964 -0.2760
 3086SOL    HW212110   2.602   6.271   0.935 -0.0267 -0.3672 -0.5454
 3086SOL    HW312111   2.701   6.202   1.027 -0.6837  0.2392  0.6450
 3086SOL    MW412112   2.674   6.273   0.984 -0.2755 -0.0879 -0.1900
 3087SOL     OW12113   5.580   5.249   3.758 -0.0485 -0.6825 -0.2415
 3087SOL    HW212114   5.654   5.242   3.698  1.2795 -1.0331  1.3534
 3087SOL    HW312115   5.533   5.328   3.731  1.1970 -0.1858 -0.9918
 3087SOL    MW412116   5.583   5.259   3.747  0.2910 -0.6632 -0.1300
 3088SOL     OW12117   5.925   0.691   4.550  0.5178 -0.7543 -0.2295
 3088SOL    HW212118   5.903   0.784   4.548  1.7650 -0.3566  1.6662
 3088SOL    HW312119   5.852   0.648   4.505 -1.9490  0.8339  1.9242
 3088SOL    MW412120   5.912   0.698   4.544  0.3569 -0.4922  0.3047
 3089SOL     OW12121   0.133   4.477   1.638  0.4576  0.2988  0.0878
 3089SOL    HW212122   0.047   4.476   1.679  0.8090 -2.9607  1.0238
 3089SOL    HW312123   0.190   4.520   1.702  0.0643 -0.2607  0.8293
 3089SOL    MW412124   0.129   4.483   1.652  0.4521 -0.2051  0.3091
 3090SOL     OW12125   5.667   0.873   2.982  0.5863 -0.2355 -0.5748
 3090SOL    HW212126   5.661   0.965   3.008 -0.3348 -0.1123 -1.1624
 3090SOL    HW312127   5.600   0.864   2.914  1.1625 -1.1644 -1.0298
 3090SOL    MW412128   5.657   0.884   2.976  0.5408 -0.3418 -0.7123
 3091SOL     OW12129   1.053   0.826   2.427 -0.5584  0.0303 -0.6360
 3091SOL    HW212130   1.143   0.808   2.453 -0.8981 -0.4403  0.2522
 3091SOL    HW312131   1.002   0.812   2.507 -1.6488 -1.4735 -1.5525
 3091SOL    MW412132   1.058   0.822   2.441 -0.7471 -0.2302 -0.6398
 3092SOL     OW12133   2.155   3.920   5.765  0.1918 -0.0035  0.1499
 3092SOL    HW212134   2.184   3.880   5.683  0.5220  1.0342 -0.2620
 3092SOL    HW312135   2.124   3.847   5.818  1.0912 -0.8404 -0.4377
 3092SOL    MW412136   2.155   3.905   5.761  0.3541  0.0230  0.0181
 3093SOL     OW12137   3.001   1.033   2.256 -0.4408  0.1019  0.0309
 3093SOL    HW212138   3.092   1.063   2.252 -0.2464 -0.5960 -1.9539
 3093SOL    HW312139   2.958   1.076   2.182 -1.9861  1.0941  1.4344
 3093SOL    MW412140   3.007   1.042   2.246 -0.6190  0.1407 -0.0458
 3094SOL     OW12141   1.021   6.157   1.126 -0.6839  0.2834  0.1576
 3094SOL    HW212142   1.065   6.231   1.084 -1.6390  0.1695 -1.1140
 3094SOL    HW312143   1.050   6.161   1.217 -0.3703  1.9604  0.0311
 3094SOL    MW412144   1.031   6.168   1.132 -0.7685  0.4896 -0.0269
 3095SOL     OW12145   4.573   4.333   1.630 -0.2067 -0.0569  0.6313
 3095SOL    HW212146   4.590   4.250   1.675 -1.7981  0.6330  2.6683
 3095SOL    HW312147   4.656   4.381   1.638  0.3355 -0.9447  0.5194
 3095SOL    MW412148   4.586   4.329   1.637 -0.3452 -0.0830  0.8853
 3096SOL     OW12149   2.603   1.942   2.693 -0.1691  0.1137 -0.1550
 3096SOL    HW212150   2.561   1.918   2.776  0.3809  1.5277  0.5692
 3096SOL    HW312151   2.580   2.034   2.681  0.6766  0.2207 -1.0207
 3096SOL    MW412152   2.594   1.951   2.702  0.0150  0.3144 -0.1736
 3097SOL     OW12153   0.110   4.564   0.510  0.4415 -0.5939  0.3528
 3097SOL    HW212154   0.184   4.513   0.544 -0.1348 -1.3671  0.4919
 3097SOL    HW312155   0.040   4.550   0.573 -0.0289 -0.4142 -0.1179
 3097SOL    MW412156   0.110   4.555   0.523  0.3034 -0.6722  0.3090
 3098SOL     OW12157   3.649   0.071   1.093 -0.0162 -0.3421 -0.1322
 3098SOL    HW212158   3.737   0.051   1.063 -0.2251  0.2261 -1.1399
 3098SOL    HW312159   3.652   0.052   1.187  0.7609 -1.7214 -0.4029
 3098SOL    MW412160   3.661   0.066   1.102  0.0588 -0.4491 -0.3009
 3099SOL     OW12161   0.065   3.989   2.760 -0.6054  0.1541 -0.0673
 3099SOL    HW212162   0.065   3.956   2.671  0.3747 -0.1764  0.0396
 3099SOL    HW312163   0.158   3.996   2.783 -0.8092 -1.4224  1.5103
 3099SOL    MW412164   0.077   3.985   2.752 -0.5029 -0.0975  0.1550
 3100SOL     OW12165   3.608   3.423   4.599 -0.7854 -0.0511 -0.5570
 3100SOL    HW212166   3.569   3.451   4.682 -0.0861  0.4863 -0.3924
 3100SOL    HW312167   3.626   3.330   4.612 -1.3200 -0.1273 -0.3609
 3100SOL    MW412168   3.605   3.414   4.612 -0.7637  0.0098 -0.5094
 3101SOL     OW12169   5.561   2.145   2.211  0.4151 -0.4068 -0.0374
 3101SOL    HW212170   5.651   2.173   2.194  0.7233 -0.1503  1.8261
 3101SOL    HW312171   5.559   2.123   2.304 -1.2629 -1.1740 -0.2016
 3101SOL    MW412172   5.572   2.146   2.221  0.2344 -0.4742  0.1868
 3102SOL     OW12173   2.934   1.249   2.681  0.0260 -0.2085 -0.6080
 3102SOL    HW212174   2.843   1.277   2.695  0.4041  0.9145 -0.2039
 3102SOL    HW312175   2.952   1.269   2.589  0.6461  2.1462 -0.0604
 3102SOL    MW412176   2.924   1.255   2.671  0.1577  0.2503 -0.4824
 3103SOL     OW12177   5.234   2.522   4.276 -0.5459  0.5432  1.0726
 3103SOL    HW212178   5.192   2.470   4.207 -0.5265  1.5259  0.2955
 3103SOL    HW312179   5.220   2.471   4.356  0.9046 -1.5177  0.1304
 3103SOL    MW412180   5.227   2.508   4.277 -0.3520  0.4009  0.8458
 3104SOL     OW12181   1.941   0.321   3.891  0.1567 -0.5659  0.2035
 3104SOL    HW212182   1.953   0.377   3.967 -2.0135  0.2882  0.0100
 3104SOL    HW312183   1.994   0.361   3.822 -1.3188  1.3427  0.0820
 3104SOL    MW412184   1.949   0.333   3.892 -0.3243 -0.2014  0.1619
 3105SOL     OW12185   2.145   1.680   4.823 -0.1903 -0.3077  0.4806
 3105SOL    HW212186   2.138   1.744   4.893 -1.5580 -1.1994  1.1834
 3105SOL    HW312187   2.182   1.602   4.864 -0.7479 -0.7509  0.1596
 3105SOL    MW412188   2.149   1.678   4.837 -0.4444 -0.4838  0.5310
 3106SOL     OW12189   2.851   5.963   3.904  0.2581  0.5172  0.5964
 3106SOL    HW212190   2.769   6.012   3.912  0.1691  0.3057  1.0672
 3106SOL    HW312191   2.895   6.000   3.828 -0.6544  0.0777 -0.1531
 3106SOL    MW412192   2.846   5.974   3.895  0.1260  0.4313  0.5597
 3107SOL     OW12193   6.205   2.183   4.301 -0.5570  0.4288  0.4171
 3107SOL    HW212194   6.165   2.246   4.360  0.6783  0.7446  0.9596
 3107SOL    HW312195   6.140   2.168   4.233 -0.3323  3.5026 -0.6362
 3107SOL    MW412196   6.191   2.189   4.300 -0.3643  0.8760  0.3497
 3108SOL     OW12197   5.098   5.175   2.714  0.3356 -0.2308 -0.4529
 3108SOL    HW212198   5.175   5.214   2.672 -0.1924  0.1368 -1.1088
 3108SOL    HW312199   5.098   5.085   2.681 -0.1576  0.0953 -1.3998
 3108SOL    MW412200   5.108   5.168   2.704  0.2008 -0.1393 -0.6644
 3109SOL     OW12201   3.638   4.740   2.900 -0.2081 -0.0086 -0.0333
 3109SOL    HW212202   3.700   4.813   2.890 -0.9077  0.5838 -0.1281
 3109SOL    HW312203   3.653   4.709   2.989  1.2959 -0.8848 -0.5577
 3109SOL    MW412204   3.649   4.746   2.911 -0.1020 -0.0460 -0.1150
 3110SOL     OW12205   2.272   3.629   5.929  0.1693  0.2282  0.2573
 3110SOL    HW212206   2.355   3.584   5.915 -0.4424 -0.8416 -0.0592
 3110SOL    HW312207   2.223   3.614   5.848 -0.9554 -0.5441  1.0538
 3110SOL    MW412208   2.277   3.621   5.916 -0.0598 -0.0148  0.3207
 3111SOL     OW12209   1.802   5.426   1.812 -0.1176 -0.2470  0.0275
 3111SOL    HW212210   1.866   5.355   1.806 -1.4053 -1.6829  1.9582
 3111SOL    HW312211   1.724   5.391   1.768 -1.1236 -0.5528  1.9468
 3111SOL    MW412212   1.800   5.412   1.806 -0.4202 -0.4768  0.5355
 3112SOL     OW12213   1.587   0.406   5.203 -0.0656  0.3567 -0.5884
 3112SOL    HW212214   1.672   0.411   5.158  0.1290  0.5097 -0.2025
 3112SOL    HW312215   1.583   0.315   5.235 -0.1796  0.2636 -0.8652
 3112SOL    MW412216   1.598   0.395   5.201 -0.0549  0.3646 -0.5740
 3113SOL     OW12217   5.537   3.576   0.670  0.3139  0.2467  0.0873
 3113SOL    HW212218   5.449   3.610   0.656 -0.5467 -1.3054  1.3849
 3113SOL    HW312219   5.580   3.641   0.725 -1.0688 -0.3559  1.9678
 3113SOL    MW412220   5.531   3.589   0.675  0.0179 -0.0376  0.5066
 3114SOL     OW12221   1.284   5.256   1.118 -0.1375  0.9906  0.8484
 3114SOL    HW212222   1.191   5.248   1.140  0.4638  0.7653  3.7720
 3114SOL    HW312223   1.323   5.175   1.151  0.9197  0.2141 -2.0082
 3114SOL    MW412224   1.277   5.244   1.125  0.0814  0.8584  0.8572
 3115SOL     OW12225   6.158   5.535   3.560 -0.1878 -0.0438 -0.2747
 3115SOL    HW212226   6.246   5.541   3.522  0.7288  1.1658  1.8859
 3115SOL    HW312227   6.126   5.625   3.561 -1.7602 -0.5395 -1.6065
 3115SOL    MW412228   6.165   5.548   3.555 -0.2743  0.0504 -0.1653
 3116SOL     OW12229   3.975   3.939   4.964  1.0708  0.0849 -0.0393
 3116SOL    HW212230   4.019   3.858   4.990  1.8751  1.3471  3.0438
 3116SOL    HW312231   3.967   3.933   4.869  2.8726 -2.7009 -0.1325
 3116SOL    MW412232   3.980   3.928   4.955  1.4146 -0.1161  0.3552
 3117SOL     OW12233   0.667   6.218   3.344 -0.2239 -0.0953  0.1603
 3117SOL    HW212234   0.632   6.225   3.433 -1.4735  2.1984 -0.4393
 3117SOL    HW312235   0.750   6.266   3.347 -0.3854  0.1924  0.0360
 3117SOL    MW412236   0.673   6.225   3.356 -0.4101  0.2453  0.0648
 3118SOL     OW12237   6.290   4.527   1.749  0.5766  0.2484 -0.7884
 3118SOL    HW212238   6.205   4.550   1.711 -0.2809 -0.4923  0.5935
 3118SOL    HW312239   6.324   4.610   1.782 -0.4572  0.2975  0.2304
 3118SOL    MW412240   6.283   4.541   1.749  0.3270  0.1571 -0.4717
 3119SOL     OW12241   5.240   1.626   3.518 -0.1683  0.0591  0.4835
 3119SOL    HW212242   5.273   1.665   3.437 -0.4842 -1.6356 -0.5118
 3119SOL    HW312243   5.145   1.630   3.510 -0.2254 -1.4934  0.0154
 3119SOL    MW412244   5.232   1.631   3.506 -0.2175 -0.3693  0.2904
 3120SOL     OW12245   3.909   1.081   4.007 -0.0453  0.5049 -0.0788
 3120SOL    HW212246   3.838   1.110   4.065 -2.0271  0.9042 -2.4748
 3120SOL    HW312247   3.938   0.998   4.043 -2.5947 -0.2657  0.3965
 3120SOL    MW412248   3.903   1.074   4.019 -0.6431  0.4559 -0.3322
 3121SOL     OW12249   0.806   3.807   3.488 -0.3441 -0.3100 -0.6192
 3121SOL    HW212250   0.741   3.878   3.490 -1.4223 -1.2533 -1.1736
 3121SOL    HW312251   0.879   3.841   3.539 -0.5821  1.4409 -1.3501
 3121SOL    MW412252   0.807   3.821   3.495 -0.5177 -0.2034 -0.7888
 3122SOL     OW12253   5.078   4.804   4.312  0.4280 -0.1692  0.2704
 3122SOL    HW212254   5.025   4.883   4.318 -0.9470 -1.1139  1.1891
 3122SOL    HW312255   5.126   4.801   4.394  0.8937 -0.0137  0.0062
 3122SOL    MW412256   5.077   4.814   4.324  0.3080 -0.2733  0.3567
 3123SOL     OW12257   3.840   0.255   5.727  0.0808  0.8011 -0.8578
 3123SOL    HW212258   3.840   0.266   5.632  1.0722 -0.9707 -1.0819
 3123SOL    HW312259   3.779   0.323   5.758  1.0444  2.5481 -2.5889
 3123SOL    MW412260   3.832   0.266   5.718  0.3387  0.7978 -1.1157
 3124SOL     OW12261   1.165   0.048   6.213  0.0263 -0.0814  0.5350
 3124SOL    HW212262   1.214   0.125   6.242 -0.9313  0.5291  0.5833
 3124SOL    HW312263   1.217   0.012   6.142  1.1113 -0.1168  1.3279
 3124SOL    MW412264   1.178   0.053   6.207  0.0431 -0.0055  0.6460
 3125SOL     OW12265   1.111   4.892   1.402  0.2227 -0.4194 -0.1563
 3125SOL    HW212266   1.026   4.863   1.369 -0.8754  0.2841  1.8955
 3125SOL    HW312267   1.122   4.847   1.485  0.3009  1.9042  1.1868
 3125SOL    MW412268   1.101   4.882   1.408  0.0881 -0.0200  0.2916
 3126SOL     OW12269   2.359   3.905   3.479 -0.0449  0.3449  0.1070
 3126SOL    HW212270   2.340   3.920   3.386  0.6163  1.3311  0.1164
 3126SOL    HW312271   2.279   3.933   3.524  0.2847  1.6240 -0.0550
 3126SOL    MW412272   2.346   3.911   3.473  0.0858  0.6437  0.0868
 3127SOL     OW12273   4.271   3.171   1.225 -0.0911  0.0225  0.1422
 3127SOL    HW212274   4.302   3.216   1.303 -1.5467 -0.9326  1.3135
 3127SOL    HW312275   4.264   3.241   1.159 -1.3514  1.3758  1.6257
 3127SOL    MW412276   4.274   3.186   1.226 -0.4494  0.0751  0.4925
 3128SOL     OW12277   1.119   1.288   0.031  0.4894 -0.8640 -0.1260
 3128SOL    HW212278   1.087   1.345   0.101 -0.1527 -3.2126  1.6219
 3128SOL    HW312279   1.072   1.318  -0.047  0.8536  1.5197  0.4896
 3128SOL    MW412280   1.108   1.300   0.030  0.4528 -0.8593  0.1858
 3129SOL     OW12281   5.068   4.020   5.111 -0.0859 -0.8376  0.0528
 3129SOL    HW212282   5.147   4.053   5.154 -0.3501  0.5151 -0.4584
 3129SOL    HW312283   5.000   4.024   5.177 -0.1421 -0.2232 -0.0377
 3129SOL    MW412284   5.070   4.025   5.125 -0.1282 -0.5780 -0.0266
 3130SOL     OW12285   2.305   6.410   0.690 -0.6587  0.5356  0.2836
 3130SOL    HW212286   2.389   6.420   0.645 -1.3232  1.9649 -0.7267
 3130SOL    HW312287   2.291   6.494   0.733  0.2534 -0.9717  3.8940
 3130SOL    MW412288   2.314   6.422   0.689 -0.6260  0.5253  0.6266
 3131SOL     OW12289   0.191   3.220   1.223  0.4827 -0.2714 -0.4522
 3131SOL    HW212290   0.191   3.269   1.306  0.6838 -1.2344  0.1324
 3131SOL    HW312291   0.136   3.272   1.165  1.7616  1.3729 -0.2962
 3131SOL    MW412292   0.184   3.233   1.227  0.6779 -0.1815 -0.3545
 3132SOL     OW12293   1.735   0.536   0.567 -0.5488  0.0175  0.6349
 3132SOL    HW212294   1.796   0.516   0.496 -0.9139 -2.2111  0.8750
 3132SOL    HW312295   1.664   0.584   0.524  0.5872  1.2835  0.0794
 3132SOL    MW412296   1.733   0.540   0.552 -0.4471 -0.1095  0.5933
 3133SOL     OW12297   0.622   3.930   2.614  0.0262  0.2292 -0.8304
 3133SOL    HW212298   0.685   3.980   2.665  0.2534  0.7158 -1.5844
 3133SOL    HW312299   0.560   3.995   2.582  1.5393  0.4095 -3.6590
 3133SOL    MW412300   0.622   3.945   2.617  0.2558  0.3172 -1.3031
 3134SOL     OW12301   2.840   6.232   2.897  0.5184 -0.4650 -0.3808
 3134SOL    HW212302   2.902   6.305   2.882  0.2102  0.2476  1.6066
 3134SOL    HW312303   2.766   6.252   2.840  0.8041  0.3164 -0.4910
 3134SOL    MW412304   2.839   6.244   2.887  0.5154 -0.2679 -0.1331
 3135SOL     OW12305   5.420   3.419   3.946 -0.0582  0.4258 -0.3612
 3135SOL    HW212306   5.452   3.506   3.967  2.0708 -0.1124 -1.1673
 3135SOL    HW312307   5.469   3.392   3.869 -0.9479 -1.3454 -0.3765
 3135SOL    MW412308   5.431   3.427   3.939  0.1053  0.1211 -0.4696
 3136SOL     OW12309   1.766   4.934   1.087  0.0064 -0.1555 -0.4411
 3136SOL    HW212310   1.783   4.845   1.055  0.8448  0.3112 -1.3373
 3136SOL    HW312311   1.761   4.924   1.182  0.8914 -1.0509 -0.4712
 3136SOL    MW412312   1.768   4.921   1.096  0.2338 -0.2120 -0.5633
 3137SOL     OW12313   1.291   4.948   4.825  0.3220  0.3506 -0.5127
 3137SOL    HW212314   1.336   4.935   4.909 -0.1841  0.2958 -0.2499
 3137SOL    HW312315   1.352   4.913   4.760  0.4758 -0.1271 -0.1179
 3137SOL    MW412316   1.305   4.942   4.828  0.2755  0.2804 -0.4260
 3138SOL     OW12317   2.904   5.287   5.764 -0.2595 -0.1734  0.2659
 3138SOL    HW212318   2.847   5.358   5.735  1.0996  0.6717 -0.4716
 3138SOL    HW312319   2.967   5.330   5.822 -0.0990 -0.9891  0.7012
 3138SOL    MW412320   2.905   5.302   5.768 -0.0590 -0.1695  0.2260
 3139SOL     OW12321   3.070   5.601   5.808  0.4587 -0.0038 -0.2281
 3139SOL    HW212322   3.138   5.632   5.748 -1.0711 -0.0837 -2.1344
 3139SOL    HW312323   2.996   5.660   5.791 -0.2579 -0.4888  1.0905
 3139SOL    MW412324   3.069   5.613   5.798  0.1623 -0.0783 -0.3056
 3140SOL     OW12325   4.335   5.948   2.425  0.0230  0.6061 -0.2338
 3140SOL    HW212326   4.374   6.009   2.489 -0.2574  0.8443 -0.2870
 3140SOL    HW312327   4.408   5.893   2.398  0.6059  1.7775 -1.1788
 3140SOL    MW412328   4.350   5.949   2.430  0.0629  0.7921 -0.3655
 3141SOL     OW12329   1.031   1.487   0.247 -0.4006  0.0857  0.1504
 3141SOL    HW212330   1.043   1.521   0.335  1.1903 -1.0639  0.4262
 3141SOL    HW312331   0.997   1.561   0.197  1.4157  1.6290  1.0641
 3141SOL    MW412332   1.028   1.501   0.252  0.0489  0.1377  0.3074
 3142SOL     OW12333   0.704   5.029   3.808  0.3374 -0.1789  0.3132
 3142SOL    HW212334   0.791   5.015   3.770 -0.7534 -1.3642 -1.9064
 3142SOL    HW312335   0.677   5.115   3.776  1.3599  1.0496  2.5186
 3142SOL    MW412336   0.712   5.039   3.799  0.3284 -0.1732  0.3114
 3143SOL     OW12337   1.941   4.096   6.129 -0.2637  0.5639 -0.3013
 3143SOL    HW212338   1.974   4.022   6.077  1.4954  0.5768  0.7189
 3143SOL    HW312339   1.896   4.055   6.202  2.3120  0.3398  1.3014
 3143SOL    MW412340   1.940   4.081   6.132  0.3082  0.5360  0.0447
 3144SOL     OW12341   1.851   3.108   2.822  0.4453 -0.4961 -0.0263
 3144SOL    HW212342   1.757   3.117   2.840  0.0304 -3.7234  0.0117
 3144SOL    HW312343   1.868   3.174   2.754 -2.3061 -1.0533 -1.4329
 3144SOL    MW412344   1.841   3.118   2.815  0.0276 -0.9955 -0.2069
 3145SOL     OW12345   3.486   2.932   3.587  0.2318 -0.1941 -0.2232
 3145SOL    HW212346   3.439   2.899   3.511 -0.7917 -1.0160  0.7345
 3145SOL    HW312347   3.577   2.940   3.557 -0.3195  0.4856 -1.8122
 3145SOL    MW412348   3.492   2.929   3.573  0.0240 -0.2128 -0.3065
 3146SOL     OW12349   5.208   0.454   2.739  0.1798  0.3068 -0.1125
 3146SOL    HW212350   5.227   0.380   2.681 -0.8411 -0.3380  0.3444
 3146SOL    HW312351   5.118   0.439   2.769 -1.4552  3.6147 -2.7433
 3146SOL    MW412352   5.199   0.442   2.736 -0.1706  0.6582 -0.3993
 3147SOL     OW12353   1.929   5.805   1.838  0.3226  0.3575  0.4003
 3147SOL    HW212354   1.986   5.764   1.904  1.0630  0.0652 -0.4002
 3147SOL    HW312355   1.957   5.897   1.838  1.0097  0.1616 -0.1822
 3147SOL    MW412356   1.940   5.812   1.847  0.5109  0.2931  0.2178
 3148SOL     OW12357   3.547   5.762   0.399  0.6756  0.6674  0.4795
 3148SOL    HW212358   3.581   5.728   0.482  0.9890  2.4015  1.0935
 3148SOL    HW312359   3.625   5.793   0.352  0.3157  1.3178  0.3045
 3148SOL    MW412360   3.562   5.762   0.403  0.6695  0.9820  0.5374
 3149SOL     OW12361   3.033   5.173   4.335 -0.3169  0.0596  0.1481
 3149SOL    HW212362   3.101   5.222   4.288  0.3588  0.2108  1.2568
 3149SOL    HW312363   2.954   5.225   4.323 -0.0091  0.4502 -0.2457
 3149SOL    MW412364   3.032   5.186   4.327 -0.1871  0.1311  0.2424
 3150SOL     OW12365   4.822   4.022   5.821  0.5976 -0.2421  0.3078
 3150SOL    HW212366   4.906   3.987   5.789  0.3004 -1.4589  0.8038
 3150SOL    HW312367   4.810   4.103   5.772  1.3723 -0.7901 -0.8357
 3150SOL    MW412368   4.832   4.028   5.810  0.6606 -0.4750  0.2224
 3151SOL     OW12369   5.597   5.695   3.434  0.3840 -0.3729 -0.5612
 3151SOL    HW212370   5.538   5.767   3.456  1.1701 -0.0293  0.5067
 3151SOL    HW312371   5.592   5.636   3.509  0.7906 -0.7541 -0.8262
 3151SOL    MW412372   5.588   5.696   3.447  0.5414 -0.3779 -0.4553
 3152SOL     OW12373   3.443   4.589   4.602 -0.1350 -0.5858  0.5549
 3152SOL    HW212374   3.414   4.661   4.658  0.1548 -0.9564  1.1972
 3152SOL    HW312375   3.446   4.627   4.514 -0.3348  0.0831  0.8273
 3152SOL    MW412376   3.440   4.604   4.598 -0.1231 -0.5465  0.6756
 3153SOL     OW12377   2.077   1.464   2.355  0.3038  0.3378 -1.0816
 3153SOL    HW212378   2.022   1.424   2.288 -3.0332  1.7622  0.5637
 3153SOL    HW312379   2.057   1.414   2.435 -1.9552  3.3388  0.4299
 3153SOL    MW412380   2.067   1.452   2.357 -0.4345  0.9216 -0.6651
 3154SOL     OW12381   5.875   5.396   5.574 -0.8739  0.2457  0.0221
 3154SOL    HW212382   5.842   5.439   5.652 -0.9293  0.0701  0.0954
 3154SOL    HW312383   5.952   5.347   5.604 -0.9813  0.0608 -0.0045
 3154SOL    MW412384   5.881   5.395   5.588 -0.8954  0.1982  0.0283
 3155SOL     OW12385   1.568   4.435   0.086 -0.3873 -0.4658 -0.6130
 3155SOL    HW212386   1.573   4.453  -0.008  0.6285 -4.3790 -1.4929
 3155SOL    HW312387   1.476   4.414   0.101 -0.7052  0.9189 -0.5094
 3155SOL    MW412388   1.556   4.434   0.075 -0.2952 -0.7994 -0.7154
 3156SOL     OW12389   5.567   0.991   2.371 -0.1959  0.0104 -0.0285
 3156SOL    HW212390   5.490   1.048   2.376  0.6564  1.1015  2.9680
 3156SOL    HW312391   5.640   1.052   2.358  0.6825 -0.3132  2.7213
 3156SOL    MW412392   5.566   1.007   2.370  0.0324  0.1117  0.7297
 3157SOL     OW12393   0.695   0.711   5.756  1.1859 -0.0160  0.6979
 3157SOL    HW212394   0.738   0.792   5.731  2.5036 -1.2817 -1.3899
 3157SOL    HW312395   0.763   0.659   5.798  0.9869 -0.9356 -0.0800
 3157SOL    MW412396   0.709   0.715   5.759  1.3335 -0.3043  0.3198
 3158SOL     OW12397   0.782   4.311   0.804  0.4520  0.1384 -0.2379
 3158SOL    HW212398   0.837   4.234   0.786  0.1274 -0.0860 -0.2681
 3158SOL    HW312399   0.783   4.360   0.722  1.9844  1.0133  0.2508
 3158SOL    MW412400   0.790   4.307   0.791  0.6114  0.2242 -0.1774
 3159SOL     OW12401   5.887   5.731   3.402 -0.0865  0.3072  0.3595
 3159SOL    HW212402   5.904   5.820   3.371 -0.6231  0.8767  1.6457
 3159SOL    HW312403   5.792   5.720   3.390 -0.3166  0.5578  1.7809
 3159SOL    MW412404   5.877   5.741   3.396 -0.1877  0.4154  0.7167
 3160SOL     OW12405   0.574   0.576   5.159 -0.0497  0.1856  0.3142
 3160SOL    HW212406   0.646   0.542   5.212  0.0100  0.7127  0.5784
 3160SOL    HW312407   0.598   0.555   5.069 -0.0704 -0.5658  0.4760
 3160SOL    MW412408   0.586   0.569   5.154 -0.0445  0.1560  0.3704
 3161SOL     OW12409   4.234   0.769   1.063  0.3668  0.1076 -0.3459
 3161SOL    HW212410   4.270   0.681   1.073 -0.0117  0.0248  0.3700
 3161SOL    HW312411   4.267   0.817   1.139 -1.5422 -0.1600  0.7317
 3161SOL    MW412412   4.243   0.764   1.075  0.0650  0.0614 -0.1093
 3162SOL     OW12413   4.676   1.351   4.561  0.4031 -0.1824 -0.2555
 3162SOL    HW212414   4.645   1.260   4.566 -0.2340  0.0042 -0.6370
 3162SOL    HW312415   4.599   1.401   4.533  1.1926  0.2226 -1.8346
 3162SOL    MW412416   4.662   1.346   4.558  0.4232 -0.1043 -0.5142
 3163SOL     OW12417   5.282   3.436   0.070  0.4919  0.5443 -0.4194
 3163SOL    HW212418   5.349   3.413   0.134 -1.0060 -1.2884  0.5835
 3163SOL    HW312419   5.253   3.523   0.096  0.1985 -0.0058  1.1652
 3163SOL    MW412420   5.287   3.444   0.081  0.2556  0.2299 -0.0780
 3164SOL     OW12421   3.411   4.869   2.776  0.0359 -0.0535 -0.2821
 3164SOL    HW212422   3.437   4.936   2.713 -3.0474  1.5124 -0.0959
 3164SOL    HW312423   3.493   4.838   2.814  1.7724  1.3469 -2.6395
 3164SOL    MW412424   3.425   4.874   2.773 -0.1418  0.3379 -0.5685
 3165SOL     OW12425   0.453   2.591   2.840  0.1403  0.7113 -0.2879
 3165SOL    HW212426   0.439   2.685   2.827  1.0113  0.8935  0.0530
 3165SOL    HW312427   0.547   2.582   2.855  0.1874 -0.3155 -1.1077
 3165SOL    MW412428   0.463   2.602   2.840  0.2614  0.5999 -0.3511
 3166SOL     OW12429   4.845   1.047   6.160 -0.5078 -0.7687 -0.0677
 3166SOL    HW212430   4.855   1.054   6.255 -2.1496 -0.7555  0.1395
 3166SOL    HW312431   4.817   0.956   6.146  1.7086 -1.3915 -0.7768
 3166SOL    MW412432   4.842   1.036   6.171 -0.4320 -0.8491 -0.1339
 3167SOL     OW12433   2.553   4.907   2.494  0.6809 -0.4773 -0.1466
 3167SOL    HW212434   2.541   4.992   2.452  0.6992  0.6209  1.9298
 3167SOL    HW312435   2.596   4.927   2.577 -0.3935 -2.3892  0.9476
 3167SOL    MW412436   2.557   4.921   2.499  0.5416 -0.5847  0.2717
 3168SOL     OW12437   1.496   3.044   0.595 -0.2993  0.2563  0.1676
 3168SOL    HW212438   1.554   3.111   0.633 -0.2741  0.5896 -0.4498
 3168SOL    HW312439   1.422   3.093   0.560 -1.7208 -0.2789  2.2448
 3168SOL    MW412440   1.494   3.059   0.596 -0.4835  0.2297  0.3602
 3169SOL     OW12441   1.588   0.236   0.832 -0.5475 -0.4108 -0.1683
 3169SOL    HW212442   1.639   0.236   0.751 -0.2327  0.5333  0.0201
 3169SOL    HW312443   1.628   0.304   0.886 -1.1277 -0.6210  0.5491
 3169SOL    MW412444   1.600   0.245   0.829 -0.5825 -0.3140 -0.0488
 3170SOL     OW12445   4.669   5.209   5.004  0.2369  0.3697  0.0405
 3170SOL    HW212446   4.579   5.240   4.998  0.5903  1.3921 -0.1257
 3170SOL    HW312447   4.701   5.243   5.087  0.9632  1.3965 -0.6335
 3170SOL    MW412448   4.661   5.217   5.014  0.3793  0.6401 -0.0703
 3171SOL     OW12449   0.307   1.717   1.231 -0.5531 -0.2282 -0.0004
 3171SOL    HW212450   0.288   1.783   1.297 -1.2599  0.0147 -0.4298
 3171SOL    HW312451   0.286   1.633   1.273 -0.9825 -0.0755  0.0890
 3171SOL    MW412452   0.302   1.714   1.245 -0.7030 -0.1760 -0.0453
 3172SOL     OW12453   6.089   6.294   1.812 -0.1507 -0.0716  0.6181
 3172SOL    HW212454   5.994   6.298   1.807 -0.1188 -0.3851 -0.8858
 3172SOL    HW312455   6.110   6.320   1.901 -1.6152  0.4531  0.8341
 3172SOL    MW412456   6.080   6.298   1.823 -0.3397 -0.0437  0.4481
 3173SOL     OW12457   5.304   0.134   2.924 -0.6764 -0.0421 -0.9096
 3173SOL    HW212458   5.326   0.096   3.009 -0.9088  0.5228 -0.5905
 3173SOL    HW312459   5.378   0.189   2.903 -1.6425  1.7335  0.0887
 3173SOL    MW412460   5.317   0.136   2.933 -0.8345  0.2667 -0.7358
 3174SOL     OW12461   0.703   0.960   4.023  0.2178  0.8073 -0.7705
 3174SOL    HW212462   0.716   0.996   4.111  1.3948  0.2582 -0.7129
 3174SOL    HW312463   0.627   0.903   4.032  0.4879  0.5491 -0.0396
 3174SOL    MW412464   0.694   0.958   4.036  0.4087  0.7008 -0.6665
 3175SOL     OW12465   2.620   3.385   6.274 -0.5182  0.4656 -0.1903
 3175SOL    HW212466   2.697   3.329   6.260 -0.7786  0.5470 -2.4182
 3175SOL    HW312467   2.656   3.470   6.297  0.0496  0.3572 -0.6425
 3175SOL    MW412468   2.635   3.389   6.275 -0.4777  0.4621 -0.5439
 3176SOL     OW12469   0.771   6.350   5.773  0.3156 -0.6306 -0.1702
 3176SOL    HW212470   0.749   6.257   5.777  0.2921 -0.5744  1.1968
 3176SOL    HW312471   0.718   6.391   5.840  1.5522  0.1167  0.3847
 3176SOL    MW412472   0.761   6.343   5.782  0.4757 -0.5246  0.0834
 3177SOL     OW12473   5.774   0.883   3.981  0.3288 -0.5326 -0.2488
 3177SOL    HW212474   5.810   0.928   3.905  1.2890 -0.1548  0.4091
 3177SOL    HW312475   5.696   0.934   4.005  0.6247 -0.0365 -0.3343
 3177SOL    MW412476   5.768   0.895   3.974  0.4945 -0.4173 -0.1733
 3178SOL     OW12477   1.188   2.554   5.418 -0.0863 -0.4246 -1.0144
 3178SOL    HW212478   1.266   2.606   5.438 -0.4692 -0.0582 -0.4851
 3178SOL    HW312479   1.221   2.464   5.409  0.1538 -0.5663  0.9447
 3178SOL    MW412480   1.203   2.549   5.419 -0.1052 -0.3949 -0.6861
 3179SOL     OW12481   6.031   3.477   4.269 -0.1521  0.2389  0.1496
 3179SOL    HW212482   6.125   3.489   4.282  0.1463  0.6247 -1.9430
 3179SOL    HW312483   6.017   3.382   4.276  0.4521  0.1493  0.1645
 3179SOL    MW412484   6.042   3.466   4.272 -0.0330  0.2780 -0.1245
 3180SOL     OW12485   0.342   1.446   1.384 -0.2280  0.2175  0.1317
 3180SOL    HW212486   0.379   1.378   1.328  1.7256  1.5495 -0.2793
 3180SOL    HW312487   0.397   1.446   1.462 -2.2159 -0.8166  1.6469
 3180SOL    MW412488   0.354   1.437   1.387 -0.2325  0.2568  0.2774
 3181SOL     OW12489   3.339   5.785   2.566 -0.5610  0.1269  0.6207
 3181SOL    HW212490   3.275   5.724   2.529  0.4205 -0.5492 -0.0268
 3181SOL    HW312491   3.298   5.871   2.559 -1.2866 -0.2577 -0.0135
 3181SOL    MW412492   3.325   5.788   2.560 -0.5272 -0.0130  0.4516
 3182SOL     OW12493   3.027   0.858   3.444 -0.8257 -0.2063 -0.0429
 3182SOL    HW212494   2.987   0.918   3.507  1.0759  1.0532  0.0343
 3182SOL    HW312495   3.092   0.809   3.494 -0.5951 -0.5232 -0.6369
 3182SOL    MW412496   3.030   0.860   3.459 -0.5444 -0.0819 -0.1111
 3183SOL     OW12497   0.357   0.447   5.552 -0.3635  0.2149  0.1479
 3183SOL    HW212498   0.421   0.510   5.519 -0.5227  0.1963 -0.2044
 3183SOL    HW312499   0.406   0.394   5.616 -0.0379  0.2238 -0.0896
 3183SOL    MW412500   0.372   0.448   5.556 -0.3416  0.2136  0.0701
 3184SOL     OW12501   6.339   6.395   0.422 -0.2233  0.0041 -0.7328
 3184SOL    HW212502   6.428   6.430   0.427 -1.3806  3.1242  0.1715
 3184SOL    HW312503   6.301   6.438   0.345 -1.0640 -1.1084 -0.9614
 3184SOL    MW412504   6.346   6.405   0.412 -0.4869  0.2690 -0.6437
 3185SOL     OW12505   5.481   1.105   5.476 -0.0927 -0.3857  0.4512
 3185SOL    HW212506   5.457   1.150   5.395 -0.7752 -0.5448  0.5558
 3185SOL    HW312507   5.526   1.172   5.529 -0.8513  0.1011  0.4917
 3185SOL    MW412508   5.484   1.120   5.473 -0.2828 -0.3425  0.4703
 3186SOL     OW12509   0.295   3.061   5.632  0.0772 -0.0967  0.3700
 3186SOL    HW212510   0.318   3.009   5.555  1.1586  2.0336 -0.8336
 3186SOL    HW312511   0.219   3.112   5.605 -0.1904 -0.1069  1.0821
 3186SOL    MW412512   0.288   3.061   5.618  0.1846  0.1830  0.3052
 3187SOL     OW12513   1.698   4.167   6.367 -0.3224  0.4660 -0.1763
 3187SOL    HW212514   1.609   4.174   6.333  0.1625  0.8202 -1.4409
 3187SOL    HW312515   1.718   4.074   6.365 -0.8675  0.3178  0.7028
 3187SOL    MW412516   1.689   4.156   6.362 -0.3303  0.4932 -0.2271
 3188SOL     OW12517   1.464   6.059   5.577  0.1835 -0.2564 -0.1167
 3188SOL    HW212518   1.422   6.021   5.655  1.5598 -0.9611  0.3182
 3188SOL    HW312519   1.417   6.019   5.503  0.6566 -1.7648  0.3498
 3188SOL    MW412520   1.453   6.049   5.577  0.4275 -0.5484  0.0022
 3189SOL     OW12521   0.789   4.138   4.439  0.5224 -0.0403 -0.1146
 3189SOL    HW212522   0.874   4.182   4.451  0.8942 -0.4814 -0.9672
 3189SOL    HW312523   0.729   4.184   4.497  1.6143 -0.5185  1.4701
 3189SOL    MW412524   0.793   4.150   4.448  0.7155 -0.1616 -0.0180
 3190SOL     OW12525   0.553   2.147   1.288  0.1128 -0.4891  0.6657
 3190SOL    HW212526   0.577   2.127   1.379 -0.5587  0.0194  0.9637
 3190SOL    HW312527   0.550   2.242   1.284 -2.0456 -0.4899  0.7386
 3190SOL    MW412528   0.556   2.157   1.299 -0.2606 -0.4221  0.7146
 3191SOL     OW12529   6.366   5.339   0.873 -0.7287 -0.4181 -0.5278
 3191SOL    HW212530   6.402   5.268   0.820  0.1706 -0.4466  0.0956
 3191SOL    HW312531   6.441   5.396   0.891 -0.9390 -0.5981  0.9985
 3191SOL    MW412532   6.381   5.337   0.868 -0.6378 -0.4456 -0.2442
 3192SOL     OW12533   3.462   0.807   1.880  0.2729  0.3895 -0.3874
 3192SOL    HW212534   3.412   0.815   1.961  2.1246  2.1147  0.6915
 3192SOL    HW312535   3.490   0.716   1.877 -1.3414 -0.1305 -0.0662
 3192SOL    MW412536   3.459   0.796   1.890  0.3042  0.5485 -0.2027
 3193SOL     OW12537   2.300   2.989   3.668 -0.4568  0.2927  0.0107
 3193SOL    HW212538   2.231   2.980   3.734 -1.0128  1.0381 -0.4521
 3193SOL    HW312539   2.380   2.997   3.720 -0.7220 -0.4721  0.5576
 3193SOL    MW412540   2.301   2.989   3.684 -0.5651  0.2901  0.0218
 3194SOL     OW12541   0.283   3.147   6.307  0.3156  0.6804 -0.1400
 3194SOL    HW212542   0.326   3.062   6.321  0.4023  0.6959 -0.3034
 3194SOL    HW312543   0.353   3.211   6.319 -0.0346  0.8167  1.3262
 3194SOL    MW412544   0.298   3.144   6.311  0.2809  0.7005  0.0319
 3195SOL     OW12545   3.555   5.001   0.443 -0.0666  0.3145  0.1361
 3195SOL    HW212546   3.613   4.969   0.374 -0.3259 -2.4451  1.0733
 3195SOL    HW312547   3.594   4.969   0.524 -0.4400  2.4306  1.2257
 3195SOL    MW412548   3.568   4.993   0.445 -0.1501  0.2296  0.4035
 3196SOL     OW12549   3.529   6.305   0.898 -0.4907 -0.0980 -0.0098
 3196SOL    HW212550   3.584   6.366   0.948 -1.6974  2.2472 -1.3696
 3196SOL    HW312551   3.465   6.273   0.961  0.5902 -0.5243  0.8975
 3196SOL    MW412552   3.528   6.309   0.913 -0.5073  0.1552 -0.0695
 3197SOL     OW12553   5.824   5.399   4.567  0.3345  0.1884 -0.3169
 3197SOL    HW212554   5.916   5.380   4.551  0.4317 -0.4264  0.8474
 3197SOL    HW312555   5.823   5.449   4.648 -0.3368  0.5689 -0.5472
 3197SOL    MW412556   5.836   5.403   4.575  0.2588  0.1575 -0.1936
 3198SOL     OW12557   3.543   5.058   3.746 -0.6636  0.5048  0.2722
 3198SOL    HW212558   3.553   4.987   3.683  0.4937 -1.6078  2.6481
 3198SOL    HW312559   3.505   5.130   3.696 -1.3853 -1.5814 -2.4017
 3198SOL    MW412560   3.539   5.058   3.731 -0.6061 -0.0492  0.2328
 3199SOL     OW12561   2.799   2.664   0.367 -0.2551 -0.0289  0.1094
 3199SOL    HW212562   2.755   2.608   0.303 -0.9234  0.7251 -0.1096
 3199SOL    HW312563   2.729   2.714   0.408  0.3282  0.7021  0.2484
 3199SOL    MW412564   2.784   2.663   0.364 -0.2663  0.1670  0.0988
 3200SOL     OW12565   2.914   3.547   0.403 -0.3679 -0.0687  0.7179
 3200SOL    HW212566   2.968   3.468   0.397  0.1062  0.2689  0.4206
 3200SOL    HW312567   2.870   3.541   0.487 -0.3412 -0.6543  0.6917
 3200SOL    MW412568   2.916   3.536   0.413 -0.3019 -0.1014  0.6752
 3201SOL     OW12569   5.961   5.440   2.331 -0.0026 -0.0439 -0.2270
 3201SOL    HW212570   5.960   5.345   2.319  1.6566 -0.3978  1.9070
 3201SOL    HW312571   6.021   5.455   2.403  0.4843  2.7354 -1.0790
 3201SOL    MW412572   5.969   5.429   2.339  0.2806  0.2761 -0.0578
 3202SOL     OW12573   4.380   4.127   3.297 -0.0301  0.0139 -0.2118
 3202SOL    HW212574   4.401   4.060   3.362 -0.1231  1.2310  1.1290
 3202SOL    HW312575   4.287   4.146   3.312  0.6813  2.6248  1.6460
 3202SOL    MW412576   4.370   4.121   3.308  0.0515  0.5190  0.2102
 3203SOL     OW12577   4.879   5.296   2.308 -0.2542 -0.5574 -0.0832
 3203SOL    HW212578   4.790   5.280   2.277 -0.1077  0.8820 -1.3847
 3203SOL    HW312579   4.928   5.320   2.229  1.4432 -1.8444  0.5139
 3203SOL    MW412580   4.874   5.297   2.293 -0.0109 -0.5373 -0.1761
 3204SOL     OW12581   3.269   2.266   2.072  0.0390  0.2528 -0.1962
 3204SOL    HW212582   3.216   2.338   2.106 -2.0550 -1.8970  1.3380
 3204SOL    HW312583   3.306   2.224   2.150  0.4771 -0.8940 -0.9935
 3204SOL    MW412584   3.267   2.270   2.087 -0.1795 -0.1822 -0.0989
 3205SOL     OW12585   0.462   4.891   2.534  0.1353  0.4142 -0.7825
 3205SOL    HW212586   0.424   4.953   2.472 -1.2622 -0.0705 -0.4460
 3205SOL    HW312587   0.443   4.928   2.620 -1.5059 -0.8760 -0.5458
 3205SOL    MW412588   0.455   4.904   2.537 -0.2656  0.1801 -0.7068
 3206SOL     OW12589   4.891   5.560   2.823  0.5120  0.2133  0.3272
 3206SOL    HW212590   4.843   5.623   2.768 -0.5728 -0.2319  0.7266
 3206SOL    HW312591   4.978   5.556   2.784 -0.5919 -1.1406 -2.3104
 3206SOL    MW412592   4.896   5.568   2.810  0.2232 -0.0241  0.0319
 3207SOL     OW12593   3.664   3.856   0.179 -0.2164  0.3949 -0.0623
 3207SOL    HW212594   3.577   3.892   0.197 -0.0021  0.9645 -0.1405
 3207SOL    HW312595   3.719   3.888   0.250 -0.1513 -0.2730  0.1903
 3207SOL    MW412596   3.660   3.865   0.191 -0.1795  0.3819 -0.0393
 3208SOL     OW12597   5.003   0.932   4.482 -0.8668  0.5762  0.0832
 3208SOL    HW212598   5.083   0.881   4.489 -0.6545  1.0361  1.3970
 3208SOL    HW312599   5.029   1.013   4.439 -0.5824  0.7878  0.6456
 3208SOL    MW412600   5.017   0.936   4.477 -0.8013  0.6648  0.3308
 3209SOL     OW12601   1.255   3.073   1.556  0.4454 -0.5465  0.2478
 3209SOL    HW212602   1.350   3.077   1.556  0.5450  2.4075 -3.2427
 3209SOL    HW312603   1.234   2.979   1.560  3.6529 -1.5253 -2.0726
 3209SOL    MW412604   1.265   3.061   1.557  0.8817 -0.2859 -0.5189
 3210SOL     OW12605   0.099   1.077   0.888  0.3924  0.2599  1.0540
 3210SOL    HW212606   0.004   1.067   0.891  0.5287 -1.2922  0.8974
 3210SOL    HW312607   0.128   1.051   0.975  0.7803 -0.7828  0.6271
 3210SOL    MW412608   0.090   1.072   0.900  0.4616 -0.0825  0.9770
 3211SOL     OW12609   2.058   4.272   4.002 -0.3052  0.5397  0.2620
 3211SOL    HW212610   2.075   4.182   3.975 -0.6267 -0.0368  1.8247
 3211SOL    HW312611   2.118   4.286   4.075 -0.0780  1.6895 -0.1327
 3211SOL    MW412612   2.068   4.262   4.008 -0.3176  0.6153  0.4161
 3212SOL     OW12613   2.297   4.357   6.248  0.1032  0.2014 -0.0030
 3212SOL    HW212614   2.322   4.265   6.242  1.5058  0.5929 -0.3946
 3212SOL    HW312615   2.223   4.364   6.187  1.0512 -0.3311 -1.2787
 3212SOL    MW412616   2.290   4.346   6.239  0.4134  0.1828 -0.2230
 3213SOL     OW12617   5.120   1.793   5.347  0.1544  0.7302  0.4553
 3213SOL    HW212618   5.067   1.845   5.406  1.1019  1.7214  0.4640
 3213SOL    HW312619   5.210   1.807   5.376  0.6664  1.3648 -1.2846
 3213SOL    MW412620   5.125   1.802   5.359  0.3470  0.9447  0.2269
 3214SOL     OW12621   4.850   0.909   2.991 -0.1922 -0.3917  0.3197
 3214SOL    HW212622   4.769   0.910   2.939  0.1648  1.1482 -0.2802
 3214SOL    HW312623   4.919   0.930   2.927  0.3867  0.5752  1.2358
 3214SOL    MW412624   4.849   0.912   2.975 -0.0687 -0.0610  0.3614
 3215SOL     OW12625   2.330   5.837   2.747 -0.7083  0.2515 -0.3764
 3215SOL    HW212626   2.263   5.906   2.750 -1.0418 -0.0923  1.0755
 3215SOL    HW312627   2.410   5.881   2.720 -0.9381  1.2043  0.4539
 3215SOL    MW412628   2.331   5.852   2.744 -0.7826  0.3318 -0.0753
 3216SOL     OW12629   5.809   1.142   1.597  0.0309 -0.5250 -0.1548
 3216SOL    HW212630   5.797   1.079   1.668  1.8721 -0.6210  0.1369
 3216SOL    HW312631   5.737   1.125   1.536 -1.3169 -0.7598  1.4334
 3216SOL    MW412632   5.798   1.131   1.599  0.0960 -0.5687  0.0932
 3217SOL     OW12633   4.891   4.267   0.196 -0.1813  0.1066 -0.1628
 3217SOL    HW212634   4.963   4.219   0.156  0.2610 -1.8477  2.7021
 3217SOL    HW312635   4.837   4.200   0.237 -2.7873  1.6482 -0.8192
 3217SOL    MW412636   4.893   4.252   0.196 -0.4668  0.0522  0.1286
 3218SOL     OW12637   3.974   2.794   6.186  0.0244 -0.2135 -0.4292
 3218SOL    HW212638   3.956   2.755   6.101 -0.3403 -1.5985  0.2630
 3218SOL    HW312639   4.055   2.753   6.216 -0.9196 -1.2644  0.7728
 3218SOL    MW412640   3.982   2.784   6.179 -0.1483 -0.5349 -0.1793
 3219SOL     OW12641   1.872   2.612   4.854 -0.4940 -0.0225 -0.3750
 3219SOL    HW212642   1.941   2.547   4.861 -0.6230 -0.0462  1.1324
 3219SOL    HW312643   1.918   2.694   4.836  0.1672  0.2626  2.1609
 3219SOL    MW412644   1.887   2.614   4.852 -0.4238  0.0120  0.1584
 3220SOL     OW12645   3.862   4.845   1.129 -0.3265  0.4026  0.2715
 3220SOL    HW212646   3.850   4.778   1.197 -1.7434 -1.5200 -1.7194
 3220SOL    HW312647   3.943   4.820   1.084 -1.9747 -1.5044 -1.9057
 3220SOL    MW412648   3.871   4.833   1.132 -0.7309 -0.1027 -0.2784
 3221SOL     OW12649   0.296   2.589   2.249 -0.1992  0.2782 -0.1812
 3221SOL    HW212650   0.248   2.622   2.172 -0.4888  1.4355  0.4656
 3221SOL    HW312651   0.242   2.518   2.282 -0.1132 -0.1831 -1.0044
 3221SOL    MW412652   0.283   2.584   2.243 -0.2261  0.3700 -0.2044
 3222SOL     OW12653   5.361   0.850   3.758 -0.2394  0.1098 -0.2696
 3222SOL    HW212654   5.290   0.901   3.797 -1.7911 -0.9363 -1.5789
 3222SOL    HW312655   5.415   0.824   3.833 -0.6714  1.7174  0.6658
 3222SOL    MW412656   5.358   0.853   3.773 -0.5011  0.1839 -0.3189
 3223SOL     OW12657   5.019   3.792   2.685 -0.1166 -0.0563 -0.0744
 3223SOL    HW212658   4.959   3.865   2.673  0.5965  0.3930 -1.0612
 3223SOL    HW312659   4.991   3.727   2.620 -0.8319 -0.7328  0.8880
 3223SOL    MW412660   5.008   3.793   2.675 -0.1169 -0.0863 -0.0776
 3224SOL     OW12661   4.289   2.987   3.209 -0.1086 -0.8874  0.1064
 3224SOL    HW212662   4.281   3.074   3.169 -1.5524 -0.8368  0.4709
 3224SOL    HW312663   4.202   2.949   3.201  0.4253 -2.1820  0.2619
 3224SOL    MW412664   4.276   2.994   3.202 -0.2286 -1.0515  0.1750
 3225SOL     OW12665   4.055   2.988   1.282  0.2224 -0.1222 -0.4004
 3225SOL    HW212666   4.122   3.056   1.273 -0.3753  0.3206 -1.9706
 3225SOL    HW312667   4.013   2.984   1.195 -0.5611 -1.6626  0.0011
 3225SOL    MW412668   4.058   2.996   1.269  0.0401 -0.2671 -0.5546
 3226SOL     OW12669   4.264   4.381   4.715  0.0493 -0.4723  0.1821
 3226SOL    HW212670   4.349   4.366   4.757  1.3393 -0.0425 -2.1275
 3226SOL    HW312671   4.237   4.294   4.685  0.3929 -0.3918 -0.3647
 3226SOL    MW412672   4.271   4.368   4.717  0.2648 -0.4050 -0.1948
 3227SOL     OW12673   4.477   5.495   1.493 -0.2660  0.6955 -0.0069
 3227SOL    HW212674   4.433   5.578   1.478 -0.4907  0.6071  0.1465
 3227SOL    HW312675   4.510   5.501   1.583  0.6855  1.0492 -0.3643
 3227SOL    MW412676   4.476   5.507   1.503 -0.1701  0.7305 -0.0338
 3228SOL     OW12677   0.112   5.641   0.643  0.2590 -0.2003  0.4517
 3228SOL    HW212678   0.163   5.584   0.702  0.2350 -0.3569  0.3214
 3228SOL    HW312679   0.084   5.583   0.572  1.2925  0.2387 -0.3388
 3228SOL    MW412680   0.115   5.626   0.642  0.3922 -0.1630  0.3302
 3229SOL     OW12681   0.210   1.288   2.541 -0.1621  0.4322  0.1807
 3229SOL    HW212682   0.132   1.307   2.593  0.6661  0.9383  1.2904
 3229SOL    HW312683   0.249   1.211   2.583 -0.2234 -0.0139 -0.5597
 3229SOL    MW412684   0.205   1.280   2.554 -0.0609  0.4401  0.2294
 3230SOL     OW12685   0.901   3.178   2.222 -0.6429  0.5756  0.1179
 3230SOL    HW212686   0.948   3.237   2.280  0.7306 -0.6723  0.3221
 3230SOL    HW312687   0.911   3.092   2.262 -1.4917 -0.0004 -0.8587
 3230SOL    MW412688   0.908   3.174   2.235 -0.5736  0.3350  0.0160
 3231SOL     OW12689   6.426   3.786   2.558  0.0894 -0.1083 -0.1650
 3231SOL    HW212690   6.378   3.718   2.605 -0.2963 -0.3298 -0.8671
 3231SOL    HW312691   6.359   3.832   2.507  0.5141  0.0556 -0.5831
 3231SOL    MW412692   6.410   3.783   2.557  0.0945 -0.1159 -0.3128
 3232SOL     OW12693   3.991   0.308   0.590 -0.2848 -0.2995  0.0323
 3232SOL    HW212694   4.027   0.245   0.527  0.1352 -0.0687  0.0339
 3232SOL    HW312695   3.915   0.346   0.546  1.0173  1.1464 -1.0706
 3232SOL    MW412696   3.986   0.304   0.576 -0.0576 -0.0783 -0.1130
 3233SOL     OW12697   1.331   1.093   3.400 -0.6060 -0.9069  0.5663
 3233SOL    HW212698   1.348   1.146   3.478  1.2192 -1.7219  0.7573
 3233SOL    HW312699   1.408   1.037   3.391 -0.9030 -1.0316 -1.6808
 3233SOL    MW412700   1.343   1.092   3.409 -0.4044 -1.0309  0.2950
 3234SOL     OW12701   0.379   0.477   1.146 -0.6009 -0.2026 -0.1514
 3234SOL    HW212702   0.456   0.487   1.202 -0.3539 -1.0747 -0.3236
 3234SOL    HW312703   0.414   0.447   1.062 -0.9067  1.5995 -0.9800
 3234SOL    MW412704   0.393   0.474   1.143 -0.6087 -0.0799 -0.2834
 3235SOL     OW12705   5.434   5.892   4.106  0.1723 -0.3650 -0.0701
 3235SOL    HW212706   5.376   5.920   4.035  1.3569  0.8177 -0.6128
 3235SOL    HW312707   5.376   5.853   4.171 -1.0973 -0.1891 -1.0703
 3235SOL    MW412708   5.419   5.890   4.105  0.1611 -0.1858 -0.2736
 3236SOL     OW12709   3.193   0.124   0.735 -0.1913  0.5337  0.0552
 3236SOL    HW212710   3.222   0.152   0.822  1.8917  0.4374 -0.5457
 3236SOL    HW312711   3.268   0.076   0.699 -0.8163  0.9863 -1.9905
 3236SOL    MW412712   3.207   0.121   0.742  0.0010  0.5807 -0.2940
 3237SOL     OW12713   2.421   0.165   3.292 -0.2196 -0.1198 -0.6124
 3237SOL    HW212714   2.476   0.162   3.371 -0.8560  0.0410 -0.1538
 3237SOL    HW312715   2.430   0.255   3.261 -1.1485  0.2482  0.1433
 3237SOL    MW412716   2.430   0.176   3.299 -0.4262 -0.0500 -0.4522
 3238SOL     OW12717   0.228   0.093   2.098 -0.8302 -0.0294 -0.4052
 3238SOL    HW212718   0.265   0.016   2.055  0.7119 -0.1904  1.1177
 3238SOL    HW312719   0.194   0.146   2.026  0.5328 -0.8650 -1.7177
 3238SOL    MW412720   0.228   0.090   2.083 -0.4469 -0.1609 -0.3775
 3239SOL     OW12721   5.716   0.288   3.240  0.4142 -0.3553 -0.3016
 3239SOL    HW212722   5.783   0.325   3.297  1.9460 -0.0262 -2.2113
 3239SOL    HW312723   5.711   0.196   3.265  0.0582  0.0485  1.2321
 3239SOL    MW412724   5.724   0.281   3.251  0.5693 -0.2586 -0.3512
 3240SOL     OW12725   1.451   4.160   3.599  0.3189  0.0065  0.1224
 3240SOL    HW212726   1.491   4.224   3.658 -0.6627  0.5886  0.1810
 3240SOL    HW312727   1.380   4.208   3.557  0.9954 -0.3956 -1.5481
 3240SOL    MW412728   1.447   4.175   3.601  0.2787  0.0302 -0.0903
 3241SOL     OW12729   4.611   3.642   1.078  0.8050  0.2181 -0.5420
 3241SOL    HW212730   4.639   3.576   1.014  0.3894 -0.9507  0.4404
 3241SOL    HW312731   4.654   3.723   1.049  1.8367 -0.6115 -1.4268
 3241SOL    MW412732   4.621   3.644   1.065  0.8863 -0.0455 -0.5291
 3242SOL     OW12733   5.724   5.931   0.264  0.3405 -0.4488  0.3559
 3242SOL    HW212734   5.743   5.992   0.335  1.7936 -1.9568  1.3336
 3242SOL    HW312735   5.651   5.972   0.216  0.7309  1.6334  1.4123
 3242SOL    MW412736   5.717   5.945   0.267  0.5838 -0.3731  0.6243
 3243SOL     OW12737   3.432   1.030   6.304 -0.0533  0.4617 -0.6110
 3243SOL    HW212738   3.508   1.008   6.357  0.4109  1.2369 -0.9280
 3243SOL    HW312739   3.427   1.126   6.308 -0.5513  0.4735 -1.2148
 3243SOL    MW412740   3.442   1.040   6.311 -0.0577  0.5655 -0.7325
 3244SOL     OW12741   0.630   2.558   0.207 -0.5855 -0.0689 -0.6060
 3244SOL    HW212742   0.619   2.549   0.113  0.3255 -0.6876 -0.6644
 3244SOL    HW312743   0.720   2.531   0.224 -0.3347  1.2105  0.2900
 3244SOL    MW412744   0.640   2.553   0.197 -0.4322  0.0183 -0.4955
 3245SOL     OW12745   5.792   2.338   6.284  0.2666  0.7973 -0.2871
 3245SOL    HW212746   5.706   2.299   6.303  0.9874 -0.4365  0.5240
 3245SOL    HW312747   5.771   2.414   6.229 -1.5504  1.9066  1.7382
 3245SOL    MW412748   5.778   2.343   6.279  0.1219  0.7809  0.0871
 3246SOL     OW12749   6.206   4.967   2.851 -0.3304  0.3921  0.4493
 3246SOL    HW212750   6.118   4.992   2.878 -0.6941 -0.8385  0.4605
 3246SOL    HW312751   6.249   4.941   2.932 -1.1555 -2.5057  0.0529
 3246SOL    MW412752   6.200   4.967   2.865 -0.4873 -0.1526  0.3985
 3247SOL     OW12753   0.622   4.640   2.938 -0.4112 -0.1502  0.1906
 3247SOL    HW212754   0.526   4.643   2.935 -0.4042  0.0387  0.1045
 3247SOL    HW312755   0.646   4.712   2.996 -0.3377 -0.4704  0.5585
 3247SOL    MW412756   0.612   4.650   2.945 -0.4006 -0.1675  0.2278
 3248SOL     OW12757   0.765   2.115   4.731  0.2620 -0.0091 -0.0087
 3248SOL    HW212758   0.694   2.054   4.713 -1.3412  1.1869  1.9626
 3248SOL    HW312759   0.838   2.059   4.759  0.8612 -1.4022 -3.7607
 3248SOL    MW412760   0.765   2.099   4.732  0.1296 -0.0351 -0.2437
 3249SOL     OW12761   1.336   2.501   4.191  0.1367 -0.2084 -0.0601
 3249SOL    HW212762   1.390   2.444   4.135 -0.2106  0.2793 -0.9139
 3249SOL    HW312763   1.391   2.578   4.207  0.7673 -0.9334  1.4391
 3249SOL    MW412764   1.350   2.504   4.186  0.1741 -0.2397  0.0251
 3250SOL     OW12765   3.013   3.115   1.520 -0.0758  0.0212 -0.9773
 3250SOL    HW212766   2.942   3.057   1.546 -0.9816  0.5539 -2.1995
 3250SOL    HW312767   2.971   3.196   1.494  1.2993  2.6977  3.9165
 3250SOL    MW412768   2.998   3.118   1.520 -0.0139  0.4446 -0.4929
 3251SOL     OW12769   2.106   3.265   3.417  0.2500  0.0600 -0.4895
 3251SOL    HW212770   2.117   3.220   3.334 -1.8567 -0.6038 -0.4397
 3251SOL    HW312771   2.062   3.347   3.395  0.5969  0.3542 -0.1249
 3251SOL    MW412772   2.102   3.270   3.403  0.0179  0.0112 -0.4348
 3252SOL     OW12773   3.874   2.253   1.675  0.3733 -0.5649  0.5229
 3252SOL    HW212774   3.880   2.203   1.756  2.1227  0.3531  1.0152
 3252SOL    HW312775   3.810   2.322   1.694  1.3749  0.1441  1.4414
 3252SOL    MW412776   3.866   2.256   1.688  0.7363 -0.3502  0.7090
 3253SOL     OW12777   3.908   5.753   3.269  0.6205  1.0410 -0.8879
 3253SOL    HW212778   3.971   5.819   3.298  0.3077  1.3813 -0.9737
 3253SOL    HW312779   3.828   5.802   3.251 -0.1647  0.4112  0.7226
 3253SOL    MW412780   3.906   5.768   3.270  0.4756  1.0028 -0.6868
 3254SOL     OW12781   5.834   1.143   6.025  0.0156 -0.2383  0.6087
 3254SOL    HW212782   5.885   1.062   6.028  2.3760  1.1067 -0.4431
 3254SOL    HW312783   5.825   1.162   5.932 -0.0873  0.9404  0.8500
 3254SOL    MW412784   5.840   1.135   6.013  0.3135  0.0946  0.5018
 3255SOL     OW12785   0.992   2.829   2.065 -0.3092  0.6848  0.0514
 3255SOL    HW212786   0.947   2.890   2.005 -1.5356  0.2904  0.5451
 3255SOL    HW312787   0.976   2.865   2.152  1.9341  1.5632  0.1820
 3255SOL    MW412788   0.984   2.842   2.068 -0.1750  0.7487  0.1337
 3256SOL     OW12789   5.863   3.310   0.223 -0.0304  0.0816 -0.0945
 3256SOL    HW212790   5.922   3.385   0.224 -0.5496  0.4915  0.3696
 3256SOL    HW312791   5.884   3.262   0.304 -0.5183  0.3835  0.2172
 3256SOL    MW412792   5.874   3.313   0.234 -0.1633  0.1755  0.0078
 3257SOL     OW12793   4.826   5.675   0.022  0.1056 -0.2366  0.1501
 3257SOL    HW212794   4.752   5.650   0.076  0.5323  0.4086  1.0713
 3257SOL    HW312795   4.832   5.770   0.032  0.3401 -0.1327 -0.8543
 3257SOL    MW412796   4.817   5.684   0.030  0.1928 -0.1378  0.1391
 3258SOL     OW12797   2.511   5.263   2.756  0.1567 -0.2962  0.0736
 3258SOL    HW212798   2.464   5.238   2.676 -0.1763  0.4400  0.0306
 3258SOL    HW312799   2.501   5.187   2.813 -0.7288 -0.3260 -0.0991
 3258SOL    MW412800   2.503   5.250   2.753 -0.0041 -0.2030  0.0451
 3259SOL     OW12801   1.758   3.447   5.671 -0.1295  0.1018  0.3774
 3259SOL    HW212802   1.807   3.406   5.742 -0.0427  1.1954  0.9766
 3259SOL    HW312803   1.691   3.499   5.715 -1.8070 -1.2616 -0.4185
 3259SOL    MW412804   1.755   3.448   5.686 -0.3394  0.0662  0.3514
 3260SOL     OW12805   4.774   0.540   0.465 -0.1634 -0.2769 -0.3759
 3260SOL    HW212806   4.751   0.479   0.535 -1.5104 -1.6329 -1.9283
 3260SOL    HW312807   4.862   0.514   0.439 -0.1941 -0.6631 -0.1053
 3260SOL    MW412808   4.783   0.529   0.471 -0.3451 -0.5068 -0.5450
 3261SOL     OW12809   1.542   2.104   0.113 -0.2489  0.9774 -0.5455
 3261SOL    HW212810   1.602   2.039   0.148 -0.9679  1.4181  1.7048
 3261SOL    HW312811   1.599   2.170   0.072  0.5079 -0.6619 -2.2448
 3261SOL    MW412812   1.558   2.104   0.113 -0.2439  0.8193 -0.4728
 3262SOL     OW12813   4.305   4.575   1.664 -0.0388 -0.2272  0.0859
 3262SOL    HW212814   4.292   4.481   1.651 -2.7347  0.0586  0.1480
 3262SOL    HW312815   4.225   4.615   1.630 -0.0875  1.8570  2.3802
 3262SOL    MW412816   4.292   4.568   1.658 -0.4009  0.0855  0.3968
 3263SOL     OW12817   0.546   6.182   2.180  0.3959  0.2526 -0.0983
 3263SOL    HW212818   0.517   6.193   2.270 -1.4792 -0.4701 -0.5878
 3263SOL    HW312819   0.489   6.115   2.143  1.1978  0.4408 -1.7959
 3263SOL    MW412820   0.535   6.175   2.187  0.2543  0.1821 -0.3869
 3264SOL     OW12821   4.436   6.217   3.326 -0.6739  0.1310 -0.6931
 3264SOL    HW212822   4.400   6.208   3.414  0.7771  2.7829  0.3011
 3264SOL    HW312823   4.515   6.163   3.327 -0.1796  0.8385 -0.0218
 3264SOL    MW412824   4.442   6.209   3.338 -0.4172  0.5742 -0.4734
 3265SOL     OW12825   4.762   3.938   0.759 -0.3487  0.3110 -0.0270
 3265SOL    HW212826   4.736   3.937   0.851 -2.4788 -1.4824 -0.5816
 3265SOL    HW312827   4.858   3.930   0.761 -0.2046  1.8888  2.0134
 3265SOL    MW412828   4.771   3.937   0.771 -0.6107  0.2826  0.1690
 3266SOL     OW12829   4.894   2.582   5.910  0.1572 -0.3503 -0.5393
 3266SOL    HW212830   4.990   2.579   5.918  0.2279  1.6909 -0.0528
 3266SOL    HW312831   4.872   2.675   5.921 -2.0220 -0.9592  0.8976
 3266SOL    MW412832   4.904   2.594   5.912 -0.1210 -0.1613 -0.2856
 3267SOL     OW12833   0.649   4.106   2.307  0.3566  0.9308  0.0431
 3267SOL    HW212834   0.702   4.069   2.237 -1.0609 -1.3647  0.0805
 3267SOL    HW312835   0.712   4.127   2.376  1.4500  0.3415 -0.7403
 3267SOL    MW412836   0.664   4.104   2.307  0.3138  0.5502 -0.0553
 3268SOL     OW12837   3.425   5.362   1.202  0.5916 -0.6132  0.8816
 3268SOL    HW212838   3.428   5.268   1.184 -1.5476 -0.4571 -0.7862
 3268SOL    HW312839   3.342   5.391   1.163  1.5983  2.1319  0.5738
 3268SOL    MW412840   3.414   5.354   1.195  0.4422 -0.2304  0.6209
 3269SOL     OW12841   2.745   0.080   5.568 -0.0866 -0.3498 -0.1332
 3269SOL    HW212842   2.722   0.131   5.491 -1.3991  1.5758  1.4138
 3269SOL    HW312843   2.672   0.094   5.629  0.3045 -2.7661  1.0445
 3269SOL    MW412844   2.732   0.088   5.566 -0.2082 -0.4145  0.2263
 3270SOL     OW12845   6.147   5.983   2.294 -0.3226 -0.3537 -0.2321
 3270SOL    HW212846   6.151   5.988   2.199  0.1344 -2.9675 -0.4337
 3270SOL    HW312847   6.078   5.919   2.312 -0.4370  0.1408  1.1874
 3270SOL    MW412848   6.139   5.975   2.284 -0.2774 -0.6333 -0.0715
 3271SOL     OW12849   2.260   5.762   3.078  0.3477 -0.0338  0.0525
 3271SOL    HW212850   2.211   5.766   3.160  2.0362  1.6663  1.0569
 3271SOL    HW312851   2.298   5.674   3.077 -1.7576 -0.9942 -0.2320
 3271SOL    MW412852   2.259   5.751   3.089  0.2927  0.0638  0.1475
 3272SOL     OW12853   2.824   1.146   2.078  0.0489 -0.0181  0.1391
 3272SOL    HW212854   2.748   1.109   2.033 -0.0717 -0.3096  0.5772
 3272SOL    HW312855   2.870   1.196   2.010 -0.7100  0.4428 -0.0551
 3272SOL    MW412856   2.820   1.148   2.063 -0.0671  0.0043  0.1713
 3273SOL     OW12857   4.708   2.358   3.316 -0.0326 -0.1468 -0.0093
 3273SOL    HW212858   4.689   2.354   3.410  0.4195 -0.0924  0.0870
 3273SOL    HW312859   4.623   2.346   3.274 -0.1666 -0.6992  0.3977
 3273SOL    MW412860   4.694   2.356   3.323  0.0094 -0.2125  0.0571
 3274SOL     OW12861   1.407   1.947   4.776  0.0614 -0.2869 -0.1525
 3274SOL    HW212862   1.429   2.039   4.791  0.7290 -0.4135 -0.3251
 3274SOL    HW312863   1.333   1.930   4.834  1.2390 -0.2044  1.4334
 3274SOL    MW412864   1.400   1.957   4.786  0.3049 -0.2927  0.0340
 3275SOL     OW12865   0.694   0.836   2.823 -0.3792  0.2644  0.4283
 3275SOL    HW212866   0.710   0.912   2.880  0.4911  1.8026 -1.7229
 3275SOL    HW312867   0.600   0.818   2.833 -0.6080  1.6162  0.9867
 3275SOL    MW412868   0.684   0.844   2.832 -0.2946  0.6457  0.2181
 3276SOL     OW12869   5.327   2.710   5.709 -0.0417  0.3259 -0.1551
 3276SOL    HW212870   5.248   2.704   5.656  1.7631  0.5937 -3.1189
 3276SOL    HW312871   5.367   2.623   5.702 -0.4199 -0.0854  2.0334
 3276SOL    MW412872   5.322   2.698   5.701  0.1465  0.3069 -0.2574
 3277SOL     OW12873   5.262   3.940   0.446 -0.1444  0.6729 -0.0629
 3277SOL    HW212874   5.306   3.964   0.365  2.8142  0.7747  1.4489
 3277SOL    HW312875   5.237   4.024   0.485 -0.7059  0.6601 -0.3740
 3277SOL    MW412876   5.264   3.954   0.441  0.1719  0.6846  0.0955
 3278SOL     OW12877   1.310   3.707   4.071 -0.4448 -0.5575  0.2165
 3278SOL    HW212878   1.226   3.737   4.105  0.0120  1.5682 -0.3643
 3278SOL    HW312879   1.306   3.612   4.078 -3.2199 -0.5978 -0.5270
 3278SOL    MW412880   1.298   3.699   4.076 -0.7506 -0.2824  0.0418
 3279SOL     OW12881   5.539   0.132   4.431  0.2933  0.1389  0.2804
 3279SOL    HW212882   5.475   0.129   4.503  2.6234  0.9980  2.5239
 3279SOL    HW312883   5.516   0.211   4.383 -0.1284  0.6375  1.2652
 3279SOL    MW412884   5.527   0.142   4.434  0.5451  0.3180  0.7063
 3280SOL     OW12885   6.428   2.564   4.426  0.2762 -0.4560  0.6471
 3280SOL    HW212886   6.445   2.508   4.502  1.4737  0.5357  1.1509
 3280SOL    HW312887   6.510   2.559   4.376  0.5545  1.1157  0.9043
 3280SOL    MW412888   6.441   2.556   4.429  0.4709 -0.1178  0.7475
 3281SOL     OW12889   5.798   1.288   5.054 -0.5237 -0.0026 -0.0010
 3281SOL    HW212890   5.722   1.231   5.041 -1.0377  0.7118 -0.1863
 3281SOL    HW312891   5.769   1.353   5.117  0.5038 -0.7320  1.2881
 3281SOL    MW412892   5.784   1.289   5.061 -0.4559 -0.0046  0.1446
 3282SOL     OW12893   3.059   2.106   2.344  0.0911 -0.3199 -0.0529
 3282SOL    HW212894   3.046   2.180   2.402  0.9449 -0.1574 -0.0682
 3282SOL    HW312895   3.146   2.119   2.306 -0.0776 -0.9058 -0.6612
 3282SOL    MW412896   3.069   2.117   2.347  0.1815 -0.3757 -0.1352
 3283SOL     OW12897   2.692   6.321   4.424 -0.1264 -0.2407 -0.4029
 3283SOL    HW212898   2.742   6.385   4.373 -1.6434  1.2606 -0.1109
 3283SOL    HW312899   2.679   6.363   4.509  2.0314 -2.5491  1.2032
 3283SOL    MW412900   2.697   6.335   4.428 -0.0418 -0.3472 -0.1525
 3284SOL     OW12901   0.338   2.449   1.096 -0.2081 -0.0951  0.2472
 3284SOL    HW212902   0.349   2.370   1.042 -1.4869 -0.1332  0.0105
 3284SOL    HW312903   0.243   2.457   1.108 -0.1066  1.4353  0.2243
 3284SOL    MW412904   0.327   2.440   1.090 -0.3634  0.1018  0.2129
 3285SOL     OW12905   6.195   5.886   3.524  0.2029  0.0251  0.2031
 3285SOL    HW212906   6.257   5.913   3.592  1.4222 -0.0724 -0.8228
 3285SOL    HW312907   6.244   5.823   3.471  0.5636  2.5566 -2.7655
 3285SOL    MW412908   6.210   5.881   3.526  0.4114  0.3462 -0.3239
 3286SOL     OW12909   4.009   2.234   2.904  0.0271  0.0978  0.0805
 3286SOL    HW212910   4.012   2.301   2.836 -0.5820 -0.2366 -0.2885
 3286SOL    HW312911   4.098   2.199   2.907  0.0386  0.0522 -0.6209
 3286SOL    MW412912   4.021   2.238   2.895 -0.0518  0.0476 -0.0608
 3287SOL     OW12913   2.116   0.930   1.143  0.1519 -0.1129 -0.1010
 3287SOL    HW212914   2.128   1.024   1.154  0.4504  0.1426 -2.2257
 3287SOL    HW312915   2.021   0.918   1.142  0.0461  0.5245 -2.0192
 3287SOL    MW412916   2.105   0.940   1.144  0.1774  0.0049 -0.6344
 3288SOL     OW12917   1.066   0.124   3.798 -0.0348 -0.3271  0.2299
 3288SOL    HW212918   1.072   0.218   3.809  1.7926 -0.3478 -0.3531
 3288SOL    HW312919   1.092   0.108   3.708 -1.4830 -1.3112 -0.0448
 3288SOL    MW412920   1.070   0.134   3.788  0.0153 -0.4597  0.1167
 3289SOL     OW12921   1.879   4.249   1.498  0.0265  0.3708  0.0996
 3289SOL    HW212922   1.936   4.282   1.429  0.9106  0.3683  0.8178
 3289SOL    HW312923   1.904   4.297   1.577  2.2508 -2.7211  1.4977
 3289SOL    MW412924   1.890   4.259   1.499  0.4366 -0.0375  0.3788
 3290SOL     OW12925   5.065   0.628   2.315  0.3880  0.4286  0.2292
 3290SOL    HW212926   5.140   0.651   2.260 -0.0648 -1.2726 -1.1852
 3290SOL    HW312927   5.080   0.537   2.341  0.1265  0.8934  2.2281
 3290SOL    MW412928   5.077   0.619   2.311  0.2937  0.2655  0.3063
 3291SOL     OW12929   1.459   4.177   5.046 -0.3116 -0.0886 -0.4758
 3291SOL    HW212930   1.409   4.140   5.119  0.9081 -1.2766 -0.1920
 3291SOL    HW312931   1.551   4.167   5.073  0.1180  0.9044 -1.5002
 3291SOL    MW412932   1.465   4.171   5.059 -0.0940 -0.1144 -0.5735
 3292SOL     OW12933   2.192   5.939   4.487 -0.4798  0.1273  0.1422
 3292SOL    HW212934   2.175   5.994   4.411  0.3328  0.3788  0.1254
 3292SOL    HW312935   2.288   5.935   4.492 -0.5062  0.5670  1.4694
 3292SOL    MW412936   2.203   5.946   4.478 -0.3761  0.2185  0.3151
 3293SOL     OW12937   1.859   5.488   2.144  0.2565 -1.0621 -0.2507
 3293SOL    HW212938   1.813   5.451   2.069 -0.4192 -3.6798  1.3065
 3293SOL    HW312939   1.930   5.540   2.106 -0.3266 -1.9231 -2.6681
 3293SOL    MW412940   1.863   5.490   2.129  0.0904 -1.5211 -0.3642
 3294SOL     OW12941   1.784   3.259   4.928 -0.7502  0.3576  0.3316
 3294SOL    HW212942   1.736   3.304   4.859  0.6118  0.5854 -0.5115
 3294SOL    HW312943   1.789   3.168   4.899 -0.2434  0.4378  0.1518
 3294SOL    MW412944   1.778   3.253   4.915 -0.5037  0.3982  0.1967
 3295SOL     OW12945   1.624   6.268   1.712 -0.1789 -0.5195  0.8965
 3295SOL    HW212946   1.672   6.299   1.635 -1.7748 -0.8879 -0.3107
 3295SOL    HW312947   1.615   6.345   1.768  0.3720 -0.0581  0.3574
 3295SOL    MW412948   1.629   6.282   1.709 -0.3168 -0.5072  0.6661
 3296SOL     OW12949   0.375   2.126   2.391 -0.4634 -0.2431 -0.4759
 3296SOL    HW212950   0.321   2.204   2.381  0.7061  0.4487 -1.6292
 3296SOL    HW312951   0.456   2.157   2.431 -0.1421 -0.9394 -0.5654
 3296SOL    MW412952   0.379   2.140   2.395 -0.2667 -0.2437 -0.6399
 3297SOL     OW12953   0.417   3.949   1.286  0.1958  0.0273  0.0811
 3297SOL    HW212954   0.457   3.968   1.371 -0.7658 -1.3837  0.8844
 3297SOL    HW312955   0.492   3.937   1.227  0.9424 -0.8960  1.1704
 3297SOL    MW412956   0.432   3.950   1.289  0.1674 -0.2807  0.3308
 3298SOL     OW12957   3.000   4.676   1.460 -0.0719  0.6077 -0.3342
 3298SOL    HW212958   3.081   4.642   1.424 -1.1987 -0.2904 -2.1761
 3298SOL    HW312959   2.984   4.757   1.412  0.6400  1.8102  1.3511
 3298SOL    MW412960   3.008   4.683   1.449 -0.1266  0.6479 -0.3549
 3299SOL     OW12961   3.943   5.893   0.502 -0.3699 -0.0934  0.1339
 3299SOL    HW212962   3.951   5.846   0.419  2.0250 -0.2917  0.4266
 3299SOL    HW312963   3.874   5.958   0.486  1.1410  0.9899 -2.5412
 3299SOL    MW412964   3.935   5.895   0.489  0.1454  0.0233 -0.1804
 3300SOL     OW12965   5.596   1.121   0.640  0.3167  0.2723  0.0858
 3300SOL    HW212966   5.605   1.167   0.557  1.2491  1.8504  1.0059
 3300SOL    HW312967   5.504   1.094   0.644  0.8723 -2.6220 -2.7954
 3300SOL    MW412968   5.585   1.123   0.630  0.5130  0.0987 -0.1729
 3301SOL     OW12969   2.032   1.089   1.797 -0.2806 -0.7666 -0.3916
 3301SOL    HW212970   2.101   1.148   1.828  0.0629 -1.7419  0.7945
 3301SOL    HW312971   2.058   1.067   1.707  0.1627  0.0255 -0.4645
 3301SOL    MW412972   2.044   1.094   1.789 -0.1768 -0.7908 -0.2448
 3302SOL     OW12973   2.805   0.734   3.358  0.0187 -0.3858  0.4149
 3302SOL    HW212974   2.738   0.777   3.412 -0.2618 -0.2272 -0.0485
 3302SOL    HW312975   2.888   0.763   3.395 -0.1625  0.6839  0.0198
 3302SOL    MW412976   2.807   0.744   3.370 -0.0422 -0.2238  0.3016
 3303SOL     OW12977   3.209   0.905   4.322  0.5958 -0.2215 -0.2600
 3303SOL    HW212978   3.147   0.887   4.252  1.8251 -1.4639 -1.0916
 3303SOL    HW312979   3.230   0.998   4.311 -0.6545  0.0735 -0.3098
 3303SOL    MW412980   3.204   0.915   4.311  0.5930 -0.3465 -0.3763
 3304SOL     OW12981   1.731   3.323   0.360 -0.1512 -0.0206  0.3535
 3304SOL    HW212982   1.734   3.375   0.279  1.0793 -0.3651  0.1499
 3304SOL    HW312983   1.688   3.380   0.423 -1.0606  0.2845 -0.5203
 3304SOL    MW412984   1.726   3.338   0.357 -0.1088 -0.0258  0.2113
 3305SOL     OW12985   2.149   5.192   4.144 -0.1167  0.6280 -0.3182
 3305SOL    HW212986   2.202   5.236   4.211 -0.3378  0.7504 -0.2211
 3305SOL    HW312987   2.151   5.100   4.169 -0.9791  0.7906  0.4113
 3305SOL    MW412988   2.157   5.186   4.156 -0.2597  0.6656 -0.2092
 3306SOL     OW12989   1.931   1.101   4.049 -0.3318  0.3449 -0.1539
 3306SOL    HW212990   1.882   1.111   3.967 -0.2408  1.8775 -0.0503
 3306SOL    HW312991   2.017   1.138   4.029 -0.2528  0.5641  0.5751
 3306SOL    MW412992   1.936   1.107   4.035 -0.3094  0.5760 -0.0440
 3307SOL     OW12993   0.771   1.271   1.472 -0.0950  0.8288 -0.0479
 3307SOL    HW212994   0.829   1.347   1.464  1.5105 -0.3636 -0.3785
 3307SOL    HW312995   0.786   1.239   1.561 -0.0712  0.3928 -0.2046
 3307SOL    MW412996   0.781   1.277   1.483  0.1200  0.6139 -0.1122
 3308SOL     OW12997   2.147   5.496   5.248 -0.1018 -0.7686  0.0123
 3308SOL    HW212998   2.052   5.508   5.246  0.0794  0.9310 -1.9837
 3308SOL    HW312999   2.162   5.419   5.193 -0.2740 -0.2116 -0.8405
 3308SOL    MW413000   2.136   5.488   5.240 -0.1006 -0.4708 -0.3636
 3309SOL     OW13001   0.266   5.383   3.237  0.2216 -0.3637 -0.3201
 3309SOL    HW213002   0.292   5.343   3.154  1.3508 -0.3561  0.0157
 3309SOL    HW313003   0.348   5.411   3.278 -0.2695 -0.7592  1.0061
 3309SOL    MW413004   0.280   5.381   3.232  0.3058 -0.4149 -0.1008
 3310SOL     OW13005   1.352   2.515   4.474  0.0676  0.4098 -0.3791
 3310SOL    HW213006   1.330   2.453   4.543  1.2600  0.5229  0.1380
 3310SOL    HW313007   1.329   2.471   4.393  1.6989 -1.1077 -0.0841
 3310SOL    MW413008   1.346   2.501   4.473  0.4402  0.2245 -0.2720
 3311SOL     OW13009   5.750   0.367   4.216 -0.1202  0.1670  0.1642
 3311SOL    HW213010   5.774   0.417   4.138 -0.5915 -0.7442 -0.5862
 3311SOL    HW313011   5.686   0.303   4.184 -1.5227  0.7925  1.5819
 3311SOL    MW413012   5.744   0.365   4.201 -0.3675  0.1293  0.2523
 3312SOL     OW13013   4.836   5.913   0.955 -0.6930  0.2059  0.2570
 3312SOL    HW213014   4.767   5.956   1.006 -1.6779 -1.2501  0.2174
 3312SOL    HW313015   4.867   5.981   0.896 -0.1268  1.6968  2.1635
 3312SOL    MW413016   4.831   5.928   0.954 -0.7483  0.2105  0.5033
 3313SOL     OW13017   4.703   4.022   1.469  0.3857 -0.4831 -0.4493
 3313SOL    HW213018   4.635   4.064   1.417  2.3740  1.3900 -1.6935
 3313SOL    HW313019   4.671   4.029   1.559 -0.9336  0.6219 -0.9579
 3313SOL    MW413020   4.689   4.029   1.474  0.4740 -0.0902 -0.6806
 3314SOL     OW13021   5.640   1.477   2.258  0.3975 -0.2665 -0.4018
 3314SOL    HW213022   5.714   1.516   2.304  1.5179 -1.7424 -0.8867
 3314SOL    HW313023   5.636   1.387   2.290 -1.3424 -0.1672 -0.2235
 3314SOL    MW413024   5.649   1.470   2.268  0.3158 -0.4481 -0.4423
 3315SOL     OW13025   0.051   1.407   6.018  1.2099  0.3270 -0.4199
 3315SOL    HW213026   0.006   1.355   5.952 -0.6838  2.0070 -0.5650
 3315SOL    HW313027   0.115   1.459   5.968 -0.1744  1.5492 -1.0145
 3315SOL    MW413028   0.054   1.407   6.003  0.7774  0.7099 -0.5175
 3316SOL     OW13029   4.210   6.055   6.275 -0.1628  0.1196 -0.1056
 3316SOL    HW213030   4.177   6.145   6.272 -0.6741  0.0172  1.4437
 3316SOL    HW313031   4.132   6.000   6.270 -0.1299 -0.1593  1.6140
 3316SOL    MW413032   4.196   6.060   6.274 -0.2259  0.0693  0.3257
 3317SOL     OW13033   0.272   4.559   1.857 -0.1261 -0.3401  0.0691
 3317SOL    HW213034   0.266   4.654   1.864 -1.1780 -0.4012  0.2210
 3317SOL    HW313035   0.366   4.540   1.854  0.1191  0.8348 -1.8993
 3317SOL    MW413036   0.284   4.569   1.857 -0.2325 -0.1932 -0.1706
 3318SOL     OW13037   1.659   0.652   5.490  0.0086 -0.1776 -0.0958
 3318SOL    HW213038   1.716   0.587   5.530  0.8053  0.9123  0.5969
 3318SOL    HW313039   1.699   0.736   5.512 -1.6220  0.6002  0.0238
 3318SOL    MW413040   1.672   0.654   5.498 -0.1014  0.0688  0.0114
 3319SOL     OW13041   0.089   2.087   4.849  0.1557 -0.4675  0.2140
 3319SOL    HW213042   0.171   2.128   4.822 -0.4048  0.6490  0.1675
 3319SOL    HW313043   0.035   2.087   4.769 -0.4137  0.1297  0.5875
 3319SOL    MW413044   0.093   2.092   4.835  0.0066 -0.2414  0.2571
 3320SOL     OW13045   2.081   4.573   1.741  0.0990  0.5746  0.6814
 3320SOL    HW213046   2.143   4.500   1.733 -2.6690 -2.0179  1.0964
 3320SOL    HW313047   2.054   4.592   1.652  0.6492  0.9593  0.5922
 3320SOL    MW413048   2.086   4.566   1.729 -0.1936  0.2833  0.7244
 3321SOL     OW13049   3.036   5.790   5.376  0.4077  0.2412  0.3291
 3321SOL    HW213050   2.975   5.814   5.305  0.4899 -1.2670 -0.2813
 3321SOL    HW313051   3.010   5.846   5.449 -2.8201 -1.3689  0.6268
 3321SOL    MW413052   3.024   5.801   5.376 -0.0073 -0.1702  0.2878
 3322SOL     OW13053   0.921   1.919   6.308  0.5615  0.3835  0.1837
 3322SOL    HW213054   0.970   1.843   6.275  0.0743  0.0207  0.2799
 3322SOL    HW313055   0.830   1.890   6.309  0.3578  1.0029  0.1451
 3322SOL    MW413056   0.915   1.905   6.303  0.4703  0.4174  0.1913
 3323SOL     OW13057   4.847   3.454   2.155  0.1397  0.1359 -0.3799
 3323SOL    HW213058   4.773   3.425   2.102 -1.2486 -0.9888  2.0026
 3323SOL    HW313059   4.883   3.373   2.193  0.6488  0.9263  0.9010
 3323SOL    MW413060   4.842   3.439   2.153  0.0237  0.0918  0.1035
 3324SOL     OW13061   5.874   4.513   1.204 -0.2735 -0.4540 -0.1395
 3324SOL    HW213062   5.778   4.518   1.202 -0.2405  0.1946 -0.4358
 3324SOL    HW313063   5.897   4.460   1.128 -0.4899 -2.5937  1.2118
 3324SOL    MW413064   5.864   4.507   1.194 -0.2977 -0.6508 -0.0003
 3325SOL     OW13065   3.809   3.496   4.098 -0.9031 -0.1358  0.0523
 3325SOL    HW213066   3.763   3.467   4.020  0.0135  0.5472 -0.7811
 3325SOL    HW313067   3.772   3.583   4.116 -2.1250 -0.8741  1.2564
 3325SOL    MW413068   3.798   3.504   4.090 -0.9434 -0.1431  0.1012
 3326SOL     OW13069   0.050   4.086   1.049  0.5962 -0.5465  0.4554
 3326SOL    HW213070   0.011   4.052   0.968  0.9368 -0.8654  0.4246
 3326SOL    HW313071   0.142   4.101   1.027  0.5484 -0.0187  0.5976
 3326SOL    MW413072   0.057   4.083   1.035  0.6348 -0.5190  0.4701
 3327SOL     OW13073   1.696   0.158   4.238 -0.0169 -0.3169  0.2784
 3327SOL    HW213074   1.744   0.144   4.319 -0.5976  2.2116  1.1692
 3327SOL    HW313075   1.605   0.138   4.260 -0.2907  1.0535  0.5398
 3327SOL    MW413076   1.690   0.154   4.252 -0.1296  0.1975  0.4304
 3328SOL     OW13077   1.444   0.153   4.537 -0.0258  0.0286 -0.8333
 3328SOL    HW213078   1.501   0.223   4.568  1.2376 -1.2585 -0.1338
 3328SOL    HW313079   1.359   0.170   4.580  1.0447 -0.4302  1.6630
 3328SOL    MW413080   1.440   0.164   4.547  0.2821 -0.2017 -0.4117
 3329SOL     OW13081   4.952   3.934   1.150 -0.5701 -0.1507  0.1506
 3329SOL    HW213082   4.968   3.854   1.099  0.8441 -0.0870  0.4628
 3329SOL    HW313083   4.933   3.902   1.238 -0.4460 -0.1614  0.1737
 3329SOL    MW413084   4.952   3.919   1.155 -0.3672 -0.1437  0.1948
 3330SOL     OW13085   3.289   0.521   4.523 -0.2478 -0.0930  0.1396
 3330SOL    HW213086   3.217   0.532   4.459 -1.3167  0.4865  1.3965
 3330SOL    HW313087   3.358   0.578   4.489 -0.6791 -0.0202 -0.6716
 3330SOL    MW413088   3.288   0.530   4.510 -0.4457 -0.0069  0.1984
 3331SOL     OW13089   3.033   1.614   5.007 -0.0470 -0.3067 -0.2025
 3331SOL    HW213090   3.108   1.672   4.990 -1.7981  2.5499  1.0428
 3331SOL    HW313091   2.990   1.605   4.922  2.0487 -2.7206 -1.1384
 3331SOL    MW413092   3.037   1.621   4.994 -0.0015 -0.2483 -0.1617
 3332SOL     OW13093   3.024   1.446   5.543  0.1179 -0.2718 -0.0896
 3332SOL    HW213094   3.040   1.540   5.532  0.6676 -0.6052 -2.8346
 3332SOL    HW313095   3.030   1.410   5.455 -0.0540 -2.9178  0.8840
 3332SOL    MW413096   3.027   1.453   5.530  0.1677 -0.6649 -0.3233
 3333SOL     OW13097   0.852   3.765   1.770  0.1023  0.1877 -0.1595
 3333SOL    HW213098   0.883   3.716   1.846 -1.7431  2.0133  1.9301
 3333SOL    HW313099   0.890   3.852   1.780 -0.4113  0.5425 -1.1715
 3333SOL    MW413100   0.861   3.770   1.782 -0.2090  0.4754 -0.0173
 3334SOL     OW13101   2.504   0.859   6.037 -0.0475  0.3532 -0.2659
 3334SOL    HW213102   2.461   0.819   5.961 -1.5472  1.5000 -0.0745
 3334SOL    HW313103   2.442   0.926   6.067  1.4495  1.3852  0.6751
 3334SOL    MW413104   2.490   0.863   6.031 -0.0478  0.6407 -0.1165
 3335SOL     OW13105   0.588   1.259   2.663  0.2756  0.2804 -0.2925
 3335SOL    HW213106   0.512   1.201   2.663  0.4054 -0.0592  2.4930
 3335SOL    HW313107   0.664   1.200   2.664  0.4239  0.4414  1.6522
 3335SOL    MW413108   0.588   1.244   2.663  0.3123  0.2569  0.3316
 3336SOL     OW13109   4.309   5.642   6.210 -0.3622  0.6906 -0.0948
 3336SOL    HW213110   4.357   5.600   6.281  0.1949 -0.0202 -0.8756
 3336SOL    HW313111   4.365   5.715   6.183 -0.1314  0.4032 -0.4071
 3336SOL    MW413112   4.323   5.646   6.216 -0.2582  0.5589 -0.2390
 3337SOL     OW13113   1.870   4.179   2.003 -0.1038  0.1420  0.0880
 3337SOL    HW213114   1.817   4.243   2.049 -0.4634  0.0303 -0.1730
 3337SOL    HW313115   1.807   4.119   1.962  0.2259 -0.7315  0.8210
 3337SOL    MW413116   1.855   4.180   2.003 -0.1078  0.0120  0.1503
 3338SOL     OW13117   3.063   2.863   0.503  0.1230 -0.0394  0.3302
 3338SOL    HW213118   3.024   2.780   0.531 -1.8152 -0.3479 -2.8295
 3338SOL    HW313119   2.991   2.926   0.510  1.0634  0.9984  0.9563
 3338SOL    MW413120   3.048   2.860   0.508 -0.0086  0.0568 -0.0041
 3339SOL     OW13121   0.634   1.296   3.757 -0.4022 -0.0831 -0.1829
 3339SOL    HW213122   0.649   1.365   3.692 -0.1367 -0.6726 -0.7633
 3339SOL    HW313123   0.661   1.335   3.840  0.3827  0.2849 -0.5990
 3339SOL    MW413124   0.640   1.310   3.759 -0.2636 -0.1123 -0.3144
 3340SOL     OW13125   2.024   4.399   5.759  0.6442  0.0732  0.2019
 3340SOL    HW213126   1.941   4.445   5.769  1.0490  0.6017  1.4980
 3340SOL    HW313127   2.000   4.307   5.752 -0.0562  0.1858  0.8822
 3340SOL    MW413128   2.010   4.393   5.760  0.6052  0.1578  0.4626
 3341SOL     OW13129   5.457   1.949   6.235  0.2335 -0.4735 -0.7887
 3341SOL    HW213130   5.368   1.985   6.238  0.3708 -0.2107  0.3556
 3341SOL    HW313131   5.477   1.945   6.141 -0.3263  1.1155 -1.0106
 3341SOL    MW413132   5.448   1.954   6.223  0.1777 -0.2292 -0.6670
 3342SOL     OW13133   3.377   0.397   1.352  0.5752 -0.3599 -0.2877
 3342SOL    HW213134   3.315   0.444   1.296 -1.6530 -1.6344  0.9464
 3342SOL    HW313135   3.463   0.420   1.318 -0.5647  1.3513 -2.2329
 3342SOL    MW413136   3.380   0.406   1.340  0.1308 -0.3023 -0.3815
 3343SOL     OW13137   0.685   1.302   5.377  0.1697 -0.7029  0.5649
 3343SOL    HW213138   0.684   1.287   5.282  2.2593 -1.9525  0.6746
 3343SOL    HW313139   0.736   1.383   5.388 -1.8766  0.6675  0.5757
 3343SOL    MW413140   0.691   1.311   5.366  0.1754 -0.6870  0.5808
 3344SOL     OW13141   4.816   2.118   5.098  0.1997  0.0683  0.1906
 3344SOL    HW213142   4.765   2.081   5.170 -0.3213  1.1313  0.4011
 3344SOL    HW313143   4.752   2.128   5.027  0.7195 -1.0213 -0.4588
 3344SOL    MW413144   4.801   2.115   5.098  0.1996  0.0647  0.1327
 3345SOL     OW13145   1.162   0.417   2.505  0.6160 -0.0187 -0.1176
 3345SOL    HW213146   1.236   0.461   2.461  1.5389  0.3303  1.6985
 3345SOL    HW313147   1.129   0.482   2.567 -1.2814 -0.1614 -0.9136
 3345SOL    MW413148   1.168   0.431   2.507  0.4875  0.0085  0.0170
 3346SOL     OW13149   1.481   2.364   4.004  0.4212 -0.0612  0.3982
 3346SOL    HW213150   1.473   2.323   3.918  1.9870 -1.3831  0.8156
 3346SOL    HW313151   1.544   2.435   3.991  2.1677 -1.4709  0.7737
 3346SOL    MW413152   1.488   2.368   3.991  0.8582 -0.4216  0.5028
 3347SOL     OW13153   5.884   2.125   3.949 -0.5027  0.2932  0.1484
 3347SOL    HW213154   5.830   2.047   3.935  2.7384 -2.0214 -0.6891
 3347SOL    HW313155   5.911   2.152   3.862 -0.0405  1.1780  0.5518
 3347SOL    MW413156   5.881   2.118   3.936 -0.0141  0.1045  0.0911
 3348SOL     OW13157   1.791   0.265   1.462  0.3422  0.1559 -0.1872
 3348SOL    HW213158   1.835   0.322   1.398  0.5744  0.3492  0.1385
 3348SOL    HW313159   1.773   0.322   1.536  0.0432 -0.0597 -0.0942
 3348SOL    MW413160   1.795   0.280   1.463  0.3334  0.1530 -0.1320
 3349SOL     OW13161   6.174   1.405   5.976 -0.3944  0.3379  0.6118
 3349SOL    HW213162   6.136   1.336   6.032 -0.3482 -0.4640 -0.3215
 3349SOL    HW313163   6.249   1.436   6.026 -0.9013  0.3097  1.4282
 3349SOL    MW413164   6.179   1.400   5.990 -0.4552  0.2284  0.5964
 3350SOL     OW13165   3.670   2.347   5.356 -0.0422  0.1425 -0.8520
 3350SOL    HW213166   3.716   2.294   5.421 -0.6737 -0.5263 -0.9322
 3350SOL    HW313167   3.661   2.433   5.397 -0.4342 -0.2689 -0.0466
 3350SOL    MW413168   3.675   2.351   5.370 -0.1773 -0.0000 -0.7563
 3351SOL     OW13169   4.334   0.130   6.381 -0.1612 -0.1836 -0.0810
 3351SOL    HW213170   4.357   0.223   6.373 -1.5429  0.0428 -2.1440
 3351SOL    HW313171   4.414   0.088   6.414  1.3760  1.3418 -1.6649
 3351SOL    MW413172   4.348   0.137   6.385 -0.1407  0.0475 -0.5622
 3352SOL     OW13173   1.032   0.053   5.236 -0.4172  0.1237 -0.2808
 3352SOL    HW213174   1.029  -0.039   5.260 -0.7610  0.1658 -0.1611
 3352SOL    HW313175   1.012   0.100   5.317  0.5901  0.3331 -0.1415
 3352SOL    MW413176   1.029   0.047   5.250 -0.3296  0.1569 -0.2466
 3353SOL     OW13177   3.363   2.549   4.232 -0.3807  0.4188  0.4429
 3353SOL    HW213178   3.417   2.621   4.265 -0.5858  1.1876 -0.8373
 3353SOL    HW313179   3.331   2.580   4.148 -0.4474 -1.1874 -0.1554
 3353SOL    MW413180   3.366   2.562   4.225 -0.4166  0.3083  0.1950
 3354SOL     OW13181   0.233   1.175   4.927  0.1111 -0.2774  0.4449
 3354SOL    HW213182   0.289   1.110   4.969 -2.5790 -1.6715  2.1738
 3354SOL    HW313183   0.144   1.142   4.940 -1.1873  1.9447 -1.8640
 3354SOL    MW413184   0.229   1.162   4.934 -0.4152 -0.1682  0.3684
 3355SOL     OW13185   2.751   3.938   4.372 -0.2645  0.2717  0.2318
 3355SOL    HW213186   2.682   3.984   4.421  0.4655  1.2959  0.3447
 3355SOL    HW313187   2.748   3.977   4.285 -0.0793  0.0392  0.1213
 3355SOL    MW413188   2.741   3.949   4.367 -0.1437  0.3761  0.2321
 3356SOL     OW13189   5.987   5.386   3.415  0.2073 -0.2669  0.3730
 3356SOL    HW213190   6.042   5.452   3.457  1.2981 -0.5716 -0.5107
 3356SOL    HW313191   6.047   5.314   3.394 -0.2788 -0.1784 -1.5873
 3356SOL    MW413192   6.002   5.385   3.418  0.2871 -0.2954 -0.0022
 3357SOL     OW13193   5.459   4.275   1.603  0.2046  0.3671  0.0831
 3357SOL    HW213194   5.379   4.230   1.629  0.8174 -0.7280  0.1182
 3357SOL    HW313195   5.519   4.264   1.676  1.0672 -0.5547 -0.7320
 3357SOL    MW413196   5.456   4.268   1.616  0.3992  0.1010 -0.0198
 3358SOL     OW13197   0.196   5.923   1.149 -0.0551  0.0679 -0.0551
 3358SOL    HW213198   0.197   5.895   1.241 -1.3148 -0.3318 -0.1412
 3358SOL    HW313199   0.236   6.010   1.151  1.3685 -0.5729  0.6221
 3358SOL    MW413200   0.201   5.931   1.162 -0.0335 -0.0694  0.0229
 3359SOL     OW13201   1.690   1.975   0.593  0.2137  0.0165  0.3379
 3359SOL    HW213202   1.743   1.933   0.661  0.3717  0.8831  0.7606
 3359SOL    HW313203   1.752   2.005   0.528  0.0569 -0.8612 -0.2317
 3359SOL    MW413204   1.705   1.974   0.594  0.2139  0.0151  0.3185
 3360SOL     OW13205   3.541   2.868   1.074  0.0759  0.1964  0.2924
 3360SOL    HW213206   3.618   2.841   1.125 -1.0397 -2.2794  0.8098
 3360SOL    HW313207   3.481   2.904   1.139  0.4486  1.3869  0.0010
 3360SOL    MW413208   3.543   2.869   1.089 -0.0221  0.0268  0.3222
 3361SOL     OW13209   2.622   0.318   1.569  0.3420 -0.2608  0.0155
 3361SOL    HW213210   2.636   0.411   1.590  1.4892 -0.3176 -0.4308
 3361SOL    HW313211   2.705   0.276   1.591 -0.0824 -1.1355 -0.0461
 3361SOL    MW413212   2.635   0.325   1.575  0.4373 -0.3837 -0.0515
 3362SOL     OW13213   5.500   3.812   2.492  0.0621 -0.1183  0.0526
 3362SOL    HW213214   5.405   3.823   2.490 -0.0133 -0.3134  1.5315
 3362SOL    HW313215   5.519   3.777   2.579  1.2902 -2.1017 -0.9274
 3362SOL    MW413216   5.490   3.809   2.503  0.2142 -0.4057  0.1184
 3363SOL     OW13217   1.383   2.066   1.575 -0.1281 -0.1121  0.5426
 3363SOL    HW213218   1.411   2.156   1.560 -1.5928  0.7777  2.6186
 3363SOL    HW313219   1.463   2.019   1.596  0.7670  0.4673 -1.3109
 3363SOL    MW413220   1.397   2.072   1.576 -0.2033  0.0817  0.5719
 3364SOL     OW13221   6.068   3.505   0.314  0.0455  0.2631  0.2430
 3364SOL    HW213222   6.131   3.434   0.299 -0.4542  0.2972 -2.4697
 3364SOL    HW313223   6.032   3.487   0.402  0.9860 -1.9909  0.2324
 3364SOL    MW413224   6.071   3.493   0.324  0.1036 -0.0298 -0.1163
 3365SOL     OW13225   2.640   2.714   2.265  0.6582  0.1476  0.9161
 3365SOL    HW213226   2.589   2.682   2.190 -0.7339 -2.4254  2.8149
 3365SOL    HW313227   2.729   2.683   2.248  0.4550 -0.0371  0.1196
 3365SOL    MW413228   2.645   2.706   2.253  0.4477 -0.2163  1.0615
 3366SOL     OW13229   4.942   4.848   0.789 -0.4337 -0.3363 -0.3809
 3366SOL    HW213230   5.009   4.803   0.738  0.3692  0.2012  0.1718
 3366SOL    HW313231   4.863   4.842   0.735 -0.0364 -1.2953 -0.8759
 3366SOL    MW413232   4.941   4.842   0.775 -0.2753 -0.3919 -0.3733
 3367SOL     OW13233   4.163   5.500   4.249 -0.3363  0.4730  0.3890
 3367SOL    HW213234   4.244   5.451   4.264 -2.9985 -4.4075  1.1912
 3367SOL    HW313235   4.174   5.538   4.162  2.4620 -0.7398  0.0917
 3367SOL    MW413236   4.175   5.498   4.240 -0.3184 -0.3309  0.4556
 3368SOL     OW13237   3.231   0.350   5.005  0.4123  0.1831  0.8720
 3368SOL    HW213238   3.320   0.384   5.010  1.1112 -0.4448 -3.4986
 3368SOL    HW313239   3.236   0.263   5.046  1.7367  0.2740  0.9465
 3368SOL    MW413240   3.243   0.343   5.011  0.6793  0.1123  0.3051
 3369SOL     OW13241   1.865   5.625   0.966  0.4010  0.0860 -0.5818
 3369SOL    HW213242   1.821   5.652   1.046  0.3174 -0.8877 -0.2841
 3369SOL    HW313243   1.952   5.663   0.972  0.4106 -0.0216  0.0046
 3369SOL    MW413244   1.871   5.633   0.977  0.3912 -0.0566 -0.4651
 3370SOL     OW13245   5.800   1.117   0.369  0.1278  0.5222  0.1508
 3370SOL    HW213246   5.804   1.140   0.276  0.5449  0.3538  0.1230
 3370SOL    HW313247   5.746   1.185   0.408  1.3936  1.6208  0.0826
 3370SOL    MW413248   5.794   1.129   0.362  0.3498  0.6450  0.1381
 3371SOL     OW13249   0.035   3.838   3.805 -0.3290 -0.2232  0.2645
 3371SOL    HW213250   0.120   3.796   3.813 -0.3815 -0.0342  2.1542
 3371SOL    HW313251  -0.017   3.776   3.753  1.2763  0.2609 -2.1003
 3371SOL    MW413252   0.039   3.824   3.799 -0.1241 -0.1344  0.2018
 3372SOL     OW13253   4.394   2.778   1.009 -0.2723  0.1666  0.2827
 3372SOL    HW213254   4.352   2.725   0.941 -2.2498  1.6430  0.2914
 3372SOL    HW313255   4.480   2.737   1.020 -0.2270 -0.7004 -2.4273
 3372SOL    MW413256   4.400   2.766   1.001 -0.5272  0.2470 -0.0737
 3373SOL     OW13257   1.495   6.159   4.389 -0.2521 -0.6219  0.0575
 3373SOL    HW213258   1.404   6.154   4.419 -0.4231 -2.0506 -0.6487
 3373SOL    HW313259   1.489   6.164   4.294  0.3531  2.2418  0.0589
 3373SOL    MW413260   1.482   6.159   4.381 -0.1948 -0.4326 -0.0355
 3374SOL     OW13261   0.249   4.009   0.584  0.4427  0.2853 -0.0558
 3374SOL    HW213262   0.278   3.986   0.672 -0.3744 -0.0615  0.1265
 3374SOL    HW313263   0.326   3.993   0.529  1.0041  0.6570  0.6125
 3374SOL    MW413264   0.263   4.004   0.588  0.4089  0.2886  0.0564
 3375SOL     OW13265   2.573   3.225   4.882 -0.2327 -0.1515 -0.0766
 3375SOL    HW213266   2.612   3.190   4.801 -0.9934 -0.2556 -0.4067
 3375SOL    HW313267   2.506   3.161   4.905  0.6426 -0.6567  1.2130
 3375SOL    MW413268   2.569   3.212   4.874 -0.2176 -0.2319  0.0500
 3376SOL     OW13269   4.826   1.857   1.890 -1.3471 -0.7541 -0.3753
 3376SOL    HW213270   4.781   1.903   1.960 -2.6959 -0.5299 -1.3425
 3376SOL    HW313271   4.845   1.770   1.926 -0.1150  0.0228  0.9519
 3376SOL    MW413272   4.823   1.852   1.904 -1.3625 -0.6220 -0.3278
 3377SOL     OW13273   5.216   0.997   3.488 -0.4280 -0.0633  0.1181
 3377SOL    HW213274   5.138   0.946   3.508 -0.3251  0.0026  0.7000
 3377SOL    HW313275   5.268   0.994   3.568  0.1430 -0.0620 -0.2448
 3377SOL    MW413276   5.213   0.990   3.501 -0.3391 -0.0544  0.1470
 3378SOL     OW13277   5.604   4.652   3.082 -0.5969 -0.0334  0.5854
 3378SOL    HW213278   5.584   4.559   3.091  1.6105 -0.7442 -0.8576
 3378SOL    HW313279   5.614   4.665   2.988 -1.4499  1.8230  0.7154
 3378SOL    MW413280   5.603   4.641   3.071 -0.4182  0.1178  0.4122
 3379SOL     OW13281   1.638   4.156   0.221  0.2907  0.3749  0.0072
 3379SOL    HW213282   1.637   4.194   0.133  1.2976  2.3048  0.7670
 3379SOL    HW313283   1.674   4.069   0.210  1.3662  0.9635 -1.3742
 3379SOL    MW413284   1.642   4.150   0.208  0.5655  0.7072 -0.0748
 3380SOL     OW13285   3.199   0.387   0.228  0.1743 -0.6111  0.0739
 3380SOL    HW213286   3.227   0.314   0.173  0.7515  0.9158 -1.7550
 3380SOL    HW313287   3.248   0.462   0.196 -0.9522  0.7605  1.4014
 3380SOL    MW413288   3.209   0.387   0.217  0.1019 -0.2286  0.0078
 3381SOL     OW13289   4.988   2.810   0.749 -0.2110  0.0343 -0.3422
 3381SOL    HW213290   4.991   2.747   0.677 -1.5062  1.7250 -1.9503
 3381SOL    HW313291   5.080   2.830   0.767  0.2635 -2.5074  0.4613
 3381SOL    MW413292   5.001   2.804   0.742 -0.3193 -0.0779 -0.4483
 3382SOL     OW13293   0.896   4.649   1.920  0.2361 -0.4875  0.0384
 3382SOL    HW213294   0.857   4.603   1.994 -0.7928 -1.9610 -1.3491
 3382SOL    HW313295   0.913   4.580   1.856  1.3403  0.7106 -1.0060
 3382SOL    MW413296   0.893   4.634   1.921  0.2460 -0.5238 -0.2824
 3383SOL     OW13297   2.583   5.057   5.804 -0.6614  1.0444 -0.2090
 3383SOL    HW213298   2.592   4.980   5.861 -0.6757 -1.0566 -2.8570
 3383SOL    HW313299   2.673   5.089   5.793 -0.3510  0.0135 -0.8238
 3383SOL    MW413300   2.596   5.051   5.810 -0.6223  0.6312 -0.6395
 3384SOL     OW13301   0.634   0.456   1.276 -0.0991 -0.2096  0.7091
 3384SOL    HW213302   0.687   0.519   1.227 -0.7402  0.2982  0.6629
 3384SOL    HW313303   0.699   0.400   1.319  0.4805 -0.2356 -0.1537
 3384SOL    MW413304   0.650   0.457   1.275 -0.1072 -0.1460  0.5892
 3385SOL     OW13305   4.078   3.482   3.987  0.6753  0.4785  0.4212
 3385SOL    HW213306   4.051   3.452   3.900  2.0957 -0.2482  0.1950
 3385SOL    HW313307   3.996   3.491   4.036 -0.1257  0.6983 -0.9264
 3385SOL    MW413308   4.064   3.479   3.982  0.7571  0.4116  0.2136
 3386SOL     OW13309   0.866   0.262   2.484  0.1918  0.0640 -0.0016
 3386SOL    HW213310   0.961   0.271   2.476  0.1893 -1.2780 -2.6290
 3386SOL    HW313311   0.853   0.177   2.525  0.1085  0.4399  0.7629
 3386SOL    MW413312   0.877   0.252   2.488  0.1805 -0.0634 -0.2474
 3387SOL     OW13313   1.482   3.602   3.207 -0.3614  0.3627  0.4383
 3387SOL    HW213314   1.549   3.670   3.206 -0.9476  1.0528  2.5632
 3387SOL    HW313315   1.531   3.520   3.196  0.3006  1.0569 -2.7027
 3387SOL    MW413316   1.497   3.600   3.206 -0.3514  0.5454  0.3042
 3388SOL     OW13317   4.371   2.659   5.914  0.3926 -0.1515 -0.1632
 3388SOL    HW213318   4.446   2.604   5.893 -0.8890 -2.1101  0.0791
 3388SOL    HW313319   4.339   2.690   5.829 -0.7898 -2.5496 -0.6910
 3388SOL    MW413320   4.377   2.656   5.900  0.0675 -0.7263 -0.2008
 3389SOL     OW13321   3.382   3.767   0.609  0.1396 -0.0805 -0.2313
 3389SOL    HW213322   3.312   3.739   0.549 -1.4990 -2.5175  2.5328
 3389SOL    HW313323   3.462   3.733   0.570 -0.8971 -1.7520 -1.0271
 3389SOL    MW413324   3.383   3.759   0.596 -0.2134 -0.6226  0.0284
 3390SOL     OW13325   1.707   4.718   4.459 -0.4168 -0.4784 -0.2689
 3390SOL    HW213326   1.692   4.802   4.502  0.6804 -0.3235 -0.1569
 3390SOL    HW313327   1.651   4.656   4.506  0.3648 -0.2133  1.0397
 3390SOL    MW413328   1.697   4.721   4.471 -0.1689 -0.4230 -0.0815
 3391SOL     OW13329   5.177   5.296   1.449  0.9764 -0.2415 -0.3789
 3391SOL    HW213330   5.090   5.259   1.463  0.3902  1.1466 -0.2133
 3391SOL    HW313331   5.232   5.220   1.429 -0.0857 -1.2363  0.3298
 3391SOL    MW413332   5.173   5.281   1.448  0.7589 -0.1896 -0.2635
 3392SOL     OW13333   6.412   1.065   4.915  0.5375 -0.1113  0.3198
 3392SOL    HW213334   6.384   0.982   4.955 -0.6273  0.4215  0.6784
 3392SOL    HW313335   6.408   1.049   4.821  1.4968 -0.8205  0.3894
 3392SOL    MW413336   6.408   1.052   4.908  0.5104 -0.1346  0.3763
 3393SOL     OW13337   0.418   5.316   0.879 -0.1964  0.0911 -0.3097
 3393SOL    HW213338   0.366   5.318   0.798 -0.7268  1.0167  0.0348
 3393SOL    HW313339   0.353   5.315   0.949  0.2331  1.1485  0.1295
 3393SOL    MW413340   0.402   5.316   0.878 -0.2097  0.3527 -0.2063
 3394SOL     OW13341   0.245   2.177   5.289  0.1620  0.3422 -0.3268
 3394SOL    HW213342   0.266   2.201   5.199 -0.8759 -0.0719 -0.6928
 3394SOL    HW313343   0.150   2.167   5.290  0.1067  0.8338  0.9402
 3394SOL    MW413344   0.236   2.179   5.278  0.0178  0.3525 -0.2079
 3395SOL     OW13345   5.148   4.866   2.927  0.0262 -0.1374 -0.1774
 3395SOL    HW213346   5.073   4.841   2.873 -0.9596  1.2126  0.4880
 3395SOL    HW313347   5.141   4.961   2.935  1.7439  0.0032  0.0280
 3395SOL    MW413348   5.137   4.875   2.921  0.1228  0.0593 -0.0625
 3396SOL     OW13349   1.834   0.647   3.312 -0.2057 -0.4906  0.5670
 3396SOL    HW213350   1.879   0.730   3.326  0.4105 -0.4871 -1.1967
 3396SOL    HW313351   1.872   0.612   3.231 -1.5208 -1.7721  0.4549
 3396SOL    MW413352   1.845   0.653   3.304 -0.2979 -0.6592  0.3195
 3397SOL     OW13353   6.348   1.753   4.242 -0.0409 -0.2883 -0.3339
 3397SOL    HW213354   6.307   1.685   4.297  2.7528  0.3778  2.8937
 3397SOL    HW313355   6.330   1.835   4.288  0.0860  0.7119 -1.9830
 3397SOL    MW413356   6.340   1.755   4.255  0.3444 -0.0684 -0.1256
 3398SOL     OW13357   1.587   0.356   3.530 -0.3304  0.2044  0.0986
 3398SOL    HW213358   1.547   0.417   3.592 -0.0442  0.2557  0.2332
 3398SOL    HW313359   1.515   0.301   3.501 -0.6997  0.9440 -0.4248
 3398SOL    MW413360   1.572   0.357   3.534 -0.3413  0.3088  0.0473
 3399SOL     OW13361   2.769   1.138   4.388 -0.7967  0.0655 -0.8278
 3399SOL    HW213362   2.725   1.220   4.412  0.1362  0.1822  0.5982
 3399SOL    HW313363   2.751   1.079   4.460  2.1305  0.4260  0.3282
 3399SOL    MW413364   2.761   1.141   4.400 -0.2874  0.1285 -0.4871
 3400SOL     OW13365   1.732   2.919   3.727 -0.2665 -0.2295  0.3814
 3400SOL    HW213366   1.797   2.939   3.795  1.1770 -0.1581 -0.9619
 3400SOL    HW313367   1.648   2.940   3.767  0.5989  0.5525  1.8723
 3400SOL    MW413368   1.730   2.924   3.741  0.0381 -0.1169  0.4009
 3401SOL     OW13369   0.370   2.120   1.651 -0.3666 -0.0709 -0.4240
 3401SOL    HW213370   0.324   2.037   1.636 -1.5676  0.3449  0.7088
 3401SOL    HW313371   0.404   2.113   1.740 -0.0729  0.4779 -0.4868
 3401SOL    MW413372   0.368   2.108   1.661 -0.4863  0.0564 -0.2828
 3402SOL     OW13373   5.969   5.703   5.910 -0.4641 -0.4030  0.1787
 3402SOL    HW213374   5.983   5.725   5.818 -0.0464 -1.3208  0.0109
 3402SOL    HW313375   5.879   5.731   5.928 -0.1000  1.0343 -0.1169
 3402SOL    MW413376   5.959   5.710   5.900 -0.3610 -0.3344  0.1176
 3403SOL     OW13377   3.089   2.073   6.082 -0.4455  0.0153  0.2530
 3403SOL    HW213378   3.003   2.032   6.069 -0.5769  0.6515 -1.0686
 3403SOL    HW313379   3.151   2.014   6.040 -0.3441 -0.0173  0.4480
 3403SOL    MW413380   3.086   2.060   6.075 -0.4494  0.0949  0.1044
 3404SOL     OW13381   3.986   0.327   4.657  0.3640 -0.0809 -0.4053
 3404SOL    HW213382   4.019   0.354   4.743 -0.0011  1.0678 -0.6211
 3404SOL    HW313383   4.063   0.333   4.600  0.0588  1.6020 -0.6853
 3404SOL    MW413384   4.001   0.331   4.661  0.2756  0.2927 -0.4707
 3405SOL     OW13385   2.527   6.300   3.039  0.2563  0.6206 -0.0991
 3405SOL    HW213386   2.431   6.302   3.046  0.1716  1.1496 -1.2381
 3405SOL    HW313387   2.544   6.280   2.947  1.2593 -0.8721  0.3658
 3405SOL    MW413388   2.516   6.297   3.028  0.3775  0.4935 -0.1880
 3406SOL     OW13389   5.911   4.247   2.037 -0.4126 -0.0509 -0.5296
 3406SOL    HW213390   5.973   4.246   2.109  0.4199  0.9505 -1.2012
 3406SOL    HW313391   5.903   4.155   2.010 -0.3965 -0.3675  0.5332
 3406SOL    MW413392   5.918   4.234   2.043 -0.3007  0.0395 -0.4780
 3407SOL     OW13393   4.990   5.418   4.601  0.1735  0.0542  0.0030
 3407SOL    HW213394   4.983   5.376   4.687 -1.1430 -1.6744 -0.8831
 3407SOL    HW313395   4.911   5.472   4.593  0.1827  0.0387 -0.2028
 3407SOL    MW413396   4.979   5.419   4.611  0.0010 -0.1759 -0.1411
 3408SOL     OW13397   2.172   1.320   1.400  0.0620  0.7527  0.3816
 3408SOL    HW213398   2.143   1.241   1.446 -0.0661  0.9300  0.6037
 3408SOL    HW313399   2.090   1.363   1.373  0.1327  0.7207  0.1059
 3408SOL    MW413400   2.157   1.315   1.402  0.0544  0.7718  0.3745
 3409SOL     OW13401   2.169   6.323   3.933 -0.1864 -0.2073  0.5197
 3409SOL    HW213402   2.112   6.246   3.925  1.0923 -0.9795 -1.9283
 3409SOL    HW313403   2.185   6.351   3.843  1.9371  1.0226  1.2160
 3409SOL    MW413404   2.163   6.317   3.920  0.2625 -0.1469  0.2886
 3410SOL     OW13405   6.132   2.232   4.905 -0.8883 -0.0107 -0.1277
 3410SOL    HW213406   6.089   2.233   4.991 -2.5107 -0.8958 -0.8877
 3410SOL    HW313407   6.113   2.319   4.868  2.4754  1.6400  1.5644
 3410SOL    MW413408   6.123   2.244   4.912 -0.6586  0.0903 -0.0047
 3411SOL     OW13409   4.670   1.173   5.780  0.3115  0.3709  0.1480
 3411SOL    HW213410   4.628   1.248   5.738  1.5044  1.6558  1.1507
 3411SOL    HW313411   4.629   1.168   5.867 -0.0483 -0.4103 -0.0602
 3411SOL    MW413412   4.659   1.183   5.786  0.4214  0.4374  0.2528
 3412SOL     OW13413   0.641   4.300   2.840 -0.2585  0.0364 -0.3437
 3412SOL    HW213414   0.712   4.237   2.827 -0.7131 -0.3196 -1.1661
 3412SOL    HW313415   0.678   4.384   2.814 -0.2058 -0.1826 -0.9817
 3412SOL    MW413416   0.655   4.302   2.835 -0.3116 -0.0395 -0.5364
 3413SOL     OW13417   4.262   1.092   1.190  0.1294 -0.8244  0.4907
 3413SOL    HW213418   4.260   1.076   1.096  1.5268 -0.6084  0.4066
 3413SOL    HW313419   4.282   1.185   1.199 -0.2231 -0.7930  1.0058
 3413SOL    MW413420   4.265   1.102   1.179  0.2673 -0.7917  0.5476
 3414SOL     OW13421   3.369   0.886   4.058 -0.4328  0.3420 -0.1751
 3414SOL    HW213422   3.274   0.881   4.066 -0.2947 -0.7675  1.0911
 3414SOL    HW313423   3.399   0.922   4.142  0.4002 -1.5423  0.3886
 3414SOL    MW413424   3.361   0.890   4.070 -0.3046 -0.0530  0.0664
 3415SOL     OW13425   1.964   4.908   3.742  0.4269  0.0724 -0.0311
 3415SOL    HW213426   1.896   4.967   3.775  0.0323 -1.1001  1.3475
 3415SOL    HW313427   1.916   4.836   3.701  0.9089  1.1659 -2.6705
 3415SOL    MW413428   1.948   4.906   3.741  0.4384  0.0620 -0.1974
 3416SOL     OW13429   2.360   1.786   6.345  0.2326  0.2667  0.4666
 3416SOL    HW213430   2.323   1.874   6.342  0.2286  0.2511 -1.1686
 3416SOL    HW313431   2.445   1.794   6.301  0.6775 -0.3506  1.1945
 3416SOL    MW413432   2.367   1.799   6.339  0.2907  0.1832  0.3469
 3417SOL     OW13433   2.816   2.265   2.263  0.0210  0.1961 -0.2091
 3417SOL    HW213434   2.750   2.211   2.218 -1.4969  1.1275  0.8069
 3417SOL    HW313435   2.894   2.209   2.266 -1.2318 -1.6436  0.0809
 3417SOL    MW413436   2.817   2.250   2.257 -0.3446  0.0763 -0.0368
 3418SOL     OW13437   4.611   0.789   3.956  0.0367 -0.0837 -0.2267
 3418SOL    HW213438   4.685   0.745   3.996  1.9204  0.3759 -2.9613
 3418SOL    HW313439   4.560   0.720   3.915  1.6998 -0.0421 -2.5006
 3418SOL    MW413440   4.614   0.774   3.956  0.5047 -0.0176 -0.8875
 3419SOL     OW13441   0.142   4.734   2.412 -0.2014  0.3886  0.5763
 3419SOL    HW213442   0.210   4.699   2.469  0.9974 -1.6613 -1.8746
 3419SOL    HW313443   0.065   4.680   2.431 -0.0113  0.1842  0.7711
 3419SOL    MW413444   0.141   4.722   2.422 -0.0182  0.0912  0.2786
 3420SOL     OW13445   1.217   2.925   5.294 -0.0252 -0.2259  0.5929
 3420SOL    HW213446   1.236   2.911   5.201 -1.7160 -0.7459  0.3033
 3420SOL    HW313447   1.231   3.018   5.308 -0.7912  0.0564 -0.4359
 3420SOL    MW413448   1.222   2.935   5.283 -0.3494 -0.2573  0.4190
 3421SOL     OW13449   4.718   0.124   1.025  0.1554 -0.0502 -0.3557
 3421SOL    HW213450   4.752   0.041   0.993  1.3020 -0.1954  1.1133
 3421SOL    HW313451   4.782   0.189   0.996  0.9232 -0.1177  1.0475
 3421SOL    MW413452   4.731   0.122   1.017  0.4080 -0.0783  0.0232
 3422SOL     OW13453   3.874   1.726   6.254  0.2191 -0.1157  0.4587
 3422SOL    HW213454   3.824   1.760   6.328  0.0886  0.4903  0.1084
 3422SOL    HW313455   3.940   1.794   6.237  0.1424 -0.1714 -0.0763
 3422SOL    MW413456   3.876   1.740   6.261  0.1918 -0.0431  0.3419
 3423SOL     OW13457   5.488   0.865   2.768  0.0522  0.3486  0.8628
 3423SOL    HW213458   5.456   0.954   2.756 -0.7842  0.0607  0.8980
 3423SOL    HW313459   5.410   0.813   2.785  0.5636 -0.3396  1.1804
 3423SOL    MW413460   5.474   0.870   2.769  0.0093  0.2198  0.9094
 3424SOL     OW13461   4.388   4.944   5.830  0.1782  0.2193 -0.1335
 3424SOL    HW213462   4.301   4.957   5.793  0.0692 -1.1081 -0.4076
 3424SOL    HW313463   4.415   5.030   5.861 -0.3356  1.0953 -1.9940
 3424SOL    MW413464   4.380   4.957   5.829  0.0960  0.1597 -0.4151
 3425SOL     OW13465   6.424   4.842   0.773  0.4849 -0.1443 -0.5478
 3425SOL    HW213466   6.406   4.749   0.760  1.5029 -0.2668 -1.1734
 3425SOL    HW313467   6.469   4.870   0.694 -1.5718  1.3915 -1.2901
 3425SOL    MW413468   6.427   4.834   0.761  0.3478  0.0421 -0.7283
 3426SOL     OW13469   2.112   2.624   0.690  0.1645  0.5074 -0.0739
 3426SOL    HW213470   2.020   2.634   0.714 -0.0944 -0.9183 -0.3585
 3426SOL    HW313471   2.159   2.682   0.749 -0.9008  1.1126  0.2068
 3426SOL    MW413472   2.106   2.633   0.701 -0.0102  0.3991 -0.0744
 3427SOL     OW13473   3.122   0.842   2.833 -0.1000  0.2600 -0.1981
 3427SOL    HW213474   3.070   0.895   2.773 -2.2000  0.3990  1.6192
 3427SOL    HW313475   3.202   0.893   2.846 -0.7563  1.5173 -0.8562
 3427SOL    MW413476   3.126   0.856   2.827 -0.4637  0.4442 -0.0452
 3428SOL     OW13477   2.892   1.197   0.070  0.5620 -0.9745 -0.1555
 3428SOL    HW213478   2.817   1.164   0.118  0.7932 -0.4633  0.5824
 3428SOL    HW313479   2.891   1.292   0.085 -0.9143 -0.3529 -3.3796
 3428SOL    MW413480   2.882   1.205   0.078  0.3978 -0.8250 -0.4835
 3429SOL     OW13481   0.742   6.015   5.206  0.0688 -0.2046  0.1146
 3429SOL    HW213482   0.695   6.079   5.260  1.1141  0.4552  0.2532
 3429SOL    HW313483   0.769   5.946   5.267  0.6553  0.2004  0.3100
 3429SOL    MW413484   0.739   6.014   5.221  0.2841 -0.0641  0.1587
 3430SOL     OW13485   0.577   5.611   5.186  0.1243 -0.2252 -0.2862
 3430SOL    HW213486   0.542   5.696   5.211  0.8491  0.4867 -1.6329
 3430SOL    HW313487   0.560   5.555   5.263 -2.6157  0.4318 -0.3229
 3430SOL    MW413488   0.570   5.615   5.200 -0.1416 -0.0446 -0.4687
 3431SOL     OW13489   5.560   0.952   6.388  0.5520 -0.4560  0.0460
 3431SOL    HW213490   5.536   0.921   6.301 -1.7335 -0.2634  0.5284
 3431SOL    HW313491   5.491   0.918   6.445  0.9755  0.9406  1.4716
 3431SOL    MW413492   5.547   0.944   6.384  0.3063 -0.2463  0.2977
 3432SOL     OW13493   2.662   1.635   2.285 -0.1017  0.3206  0.1298
 3432SOL    HW213494   2.684   1.550   2.323 -1.0021 -0.0808 -0.2273
 3432SOL    HW313495   2.593   1.669   2.341 -0.8903  0.0774 -0.6795
 3432SOL    MW413496   2.656   1.628   2.297 -0.3246  0.2355 -0.0241
 3433SOL     OW13497   6.424   0.814   3.226  0.6065 -0.0276  0.2258
 3433SOL    HW213498   6.351   0.770   3.181  1.1110 -0.4396 -0.1997
 3433SOL    HW313499   6.403   0.907   3.221  0.8598 -0.0312 -1.2398
 3433SOL    MW413500   6.411   0.820   3.220  0.7065 -0.0824 -0.0237
 3434SOL     OW13501   5.330   1.825   2.938 -0.4029 -0.3750  0.2785
 3434SOL    HW213502   5.365   1.741   2.967  3.0565  1.1835  1.1562
 3434SOL    HW313503   5.298   1.866   3.018 -1.0058 -0.3881  0.0446
 3434SOL    MW413504   5.331   1.819   2.952 -0.0260 -0.1711  0.3634
 3435SOL     OW13505   2.834   5.494   0.924 -0.0821  0.1576 -0.5833
 3435SOL    HW213506   2.781   5.516   1.000 -0.5614 -2.6522  0.0240
 3435SOL    HW313507   2.877   5.576   0.900 -0.9969  1.4552  1.8380
 3435SOL    MW413508   2.833   5.508   0.931 -0.2660 -0.0419 -0.1837
 3436SOL     OW13509   0.423   4.109   4.389  0.0288  0.2500 -0.3988
 3436SOL    HW213510   0.341   4.069   4.418 -0.2875  0.7480 -0.5877
 3436SOL    HW313511   0.458   4.151   4.468 -0.2739  0.6602 -0.4752
 3436SOL    MW413512   0.417   4.110   4.403 -0.0529  0.3698 -0.4338
 3437SOL     OW13513   0.055   6.258   5.994 -0.2347 -0.3766  0.0004
 3437SOL    HW213514  -0.011   6.314   6.034 -0.8697  0.5810 -2.2452
 3437SOL    HW313515   0.009   6.175   5.977 -1.8838  1.0640 -3.8734
 3437SOL    MW413516   0.040   6.254   5.997 -0.5360 -0.0602 -0.8069
 3438SOL     OW13517   5.702   6.002   3.171  0.0213  0.8614  0.0776
 3438SOL    HW213518   5.715   5.964   3.084 -1.1850 -0.1469  0.2988
 3438SOL    HW313519   5.789   6.003   3.210  0.7501  2.2191 -1.4613
 3438SOL    MW413520   5.715   5.997   3.164 -0.0417  0.9075 -0.0962
 3439SOL     OW13521   2.747   3.692   5.099  0.0041 -0.1473 -0.6508
 3439SOL    HW213522   2.790   3.621   5.147 -0.4371  0.4485  0.7027
 3439SOL    HW313523   2.708   3.650   5.023  0.5081 -1.2006 -0.3411
 3439SOL    MW413524   2.747   3.677   5.096  0.0124 -0.2077 -0.4313
 3440SOL     OW13525   4.061   3.837   1.564  0.5254  0.1127 -0.1214
 3440SOL    HW213526   4.144   3.792   1.549  0.1758 -0.1299 -1.4022
 3440SOL    HW313527   4.006   3.772   1.608  1.1927  0.4745  1.3091
 3440SOL    MW413528   4.064   3.822   1.568  0.5673  0.1284 -0.1017
 3441SOL     OW13529   1.168   1.847   0.830 -0.6627  0.1212 -0.6190
 3441SOL    HW213530   1.255   1.836   0.868 -0.9521 -0.9123 -0.2446
 3441SOL    HW313531   1.111   1.861   0.905 -0.8376  0.7452 -0.8602
 3441SOL    MW413532   1.172   1.848   0.845 -0.7240  0.0671 -0.6014
 3442SOL     OW13533   1.959   4.993   5.342  0.0637 -0.4385 -0.2779
 3442SOL    HW213534   1.982   4.941   5.419 -1.3853  1.3997  1.5388
 3442SOL    HW313535   2.019   5.068   5.345 -1.1648  0.5672  0.1746
 3442SOL    MW413536   1.970   4.996   5.353 -0.2895 -0.0632  0.0215
 3443SOL     OW13537   5.821   5.282   3.618 -0.0016  0.0928  0.4412
 3443SOL    HW213538   5.876   5.317   3.548  0.5087  2.3799  1.8677
 3443SOL    HW313539   5.860   5.317   3.699 -1.9815 -0.4540  1.6982
 3443SOL    MW413540   5.834   5.291   3.620 -0.1955  0.3224  0.7952
 3444SOL     OW13541   3.403   2.145   6.073 -0.3651  0.1879  0.0648
 3444SOL    HW213542   3.497   2.125   6.081 -0.4925 -1.3955 -1.7144
 3444SOL    HW313543   3.362   2.060   6.058 -1.7738  1.1030 -1.5637
 3444SOL    MW413544   3.410   2.131   6.072 -0.5678  0.0997 -0.3848
 3445SOL     OW13545   2.205   5.079   4.680  0.4583 -0.1163 -0.1608
 3445SOL    HW213546   2.244   5.009   4.732  0.6891 -0.2465 -0.5002
 3445SOL    HW313547   2.160   5.134   4.743  0.2791 -0.5693  0.1127
 3445SOL    MW413548   2.204   5.077   4.695  0.4651 -0.1933 -0.1695
 3446SOL     OW13549   2.678   1.327   2.716  0.0499  0.2595 -0.0022
 3446SOL    HW213550   2.648   1.410   2.754 -0.3708 -0.7465  2.0324
 3446SOL    HW313551   2.604   1.296   2.666  0.2264  1.1118 -0.8254
 3446SOL    MW413552   2.664   1.334   2.715  0.0177  0.2392  0.1576
 3447SOL     OW13553   1.009   6.111   5.198  0.2339 -0.1799 -0.2770
 3447SOL    HW213554   0.916   6.090   5.206  0.4130 -1.3910 -1.2607
 3447SOL    HW313555   1.015   6.167   5.121  0.4860 -1.2095 -1.0122
 3447SOL    MW413556   0.997   6.116   5.189  0.2908 -0.4756 -0.5038
 3448SOL     OW13557   6.308   6.418   2.623 -0.4980 -0.0359 -0.1486
 3448SOL    HW213558   6.261   6.409   2.706 -0.5393  1.4683  0.0118
 3448SOL    HW313559   6.252   6.474   2.570 -0.3182 -0.7232 -1.0870
 3448SOL    MW413560   6.294   6.424   2.627 -0.4797  0.0719 -0.2513
 3449SOL     OW13561   5.002   6.110   4.606 -0.6372  0.3289  0.3595
 3449SOL    HW213562   4.916   6.153   4.602 -1.3266 -1.0645 -0.2711
 3449SOL    HW313563   5.041   6.129   4.521 -1.0309 -0.4278 -0.0032
 3449SOL    MW413564   4.995   6.118   4.594 -0.7801  0.0452  0.2285
 3450SOL     OW13565   0.102   4.828   2.775  0.2669 -0.3050 -0.4551
 3450SOL    HW213566   0.065   4.860   2.857 -1.2965  2.1587 -1.9905
 3450SOL    HW313567   0.057   4.746   2.758 -0.0976 -0.3483  0.6305
 3450SOL    MW413568   0.091   4.822   2.784  0.0126  0.0144 -0.5145
 3451SOL     OW13569   5.294   2.811   1.826  0.2505  0.1106  0.0085
 3451SOL    HW213570   5.232   2.878   1.795  0.5130  1.0447  1.4146
 3451SOL    HW313571   5.328   2.771   1.746 -2.5523 -0.8436 -0.8590
 3451SOL    MW413572   5.290   2.814   1.812 -0.0847  0.1079  0.0796
 3452SOL     OW13573   6.434   1.672   5.124  0.1271  0.0143 -0.5988
 3452SOL    HW213574   6.504   1.684   5.060  1.8574  1.1313  1.3822
 3452SOL    HW313575   6.391   1.757   5.129 -1.2441 -0.5921 -1.5976
 3452SOL    MW413576   6.438   1.685   5.116  0.1745  0.0817 -0.4692
 3453SOL     OW13577   0.944   4.429   6.031 -0.0565  0.0203 -0.1785
 3453SOL    HW213578   0.877   4.381   5.982 -0.1076  0.3614 -0.4474
 3453SOL    HW313579   1.022   4.375   6.024 -0.6788 -1.1719  1.4548
 3453SOL    MW413580   0.945   4.416   6.024 -0.1453 -0.0920  0.0015
 3454SOL     OW13581   0.608   1.968   2.755 -0.3875  0.1439  0.2053
 3454SOL    HW213582   0.531   1.941   2.705 -0.5625  0.8215  0.1072
 3454SOL    HW313583   0.597   2.062   2.769  1.7209  0.8484 -2.1475
 3454SOL    MW413584   0.596   1.977   2.750 -0.1324  0.3262 -0.1181
 3455SOL     OW13585   6.419   4.682   4.593 -0.1175 -0.0633 -0.6591
 3455SOL    HW213586   6.465   4.761   4.565 -1.6341  0.9841 -0.3654
 3455SOL    HW313587   6.328   4.710   4.602 -0.0766 -0.5678  3.9114
 3455SOL    MW413588   6.413   4.696   4.591 -0.3122  0.0083 -0.0174
 3456SOL     OW13589   0.341   2.539   0.825 -0.0744  0.1063  0.1673
 3456SOL    HW213590   0.345   2.634   0.819 -0.1436  0.1463  0.6981
 3456SOL    HW313591   0.328   2.521   0.918 -0.7930 -0.3927 -0.0176
 3456SOL    MW413592   0.340   2.549   0.837 -0.1784  0.0458  0.2129
 3457SOL     OW13593   6.184   5.850   5.724 -0.2546  0.4389  0.1973
 3457SOL    HW213594   6.180   5.946   5.728  3.1458  0.6705  1.0186
 3457SOL    HW313595   6.275   5.831   5.703 -0.9924 -2.6599 -0.7091
 3457SOL    MW413596   6.195   5.860   5.722  0.0967  0.0606  0.1860
 3458SOL     OW13597   5.640   0.104   0.402 -0.0204 -0.1406  0.3178
 3458SOL    HW213598   5.688   0.078   0.323  0.8770  1.7924  0.1627
 3458SOL    HW313599   5.646   0.028   0.460  1.7908 -0.5782 -0.3814
 3458SOL    MW413600   5.647   0.090   0.399  0.3370  0.0567  0.2051
 3459SOL     OW13601   0.693   3.372   4.863  0.4068 -0.5659  0.4339
 3459SOL    HW213602   0.690   3.277   4.875 -0.9910 -0.6947 -0.7346
 3459SOL    HW313603   0.726   3.384   4.774  0.7681  0.0718  0.6438
 3459SOL    MW413604   0.697   3.361   4.853  0.2700 -0.4988  0.3074
 3460SOL     OW13605   1.351   6.206   4.837  0.1734  0.4810 -0.1440
 3460SOL    HW213606   1.268   6.195   4.883 -1.7063  0.0600 -3.3190
 3460SOL    HW313607   1.384   6.291   4.867 -0.9753  0.3145  1.7620
 3460SOL    MW413608   1.344   6.216   4.847 -0.2262  0.4035 -0.3114
 3461SOL     OW13609   2.917   3.873   2.791 -0.6483 -0.4212  0.2187
 3461SOL    HW213610   2.832   3.916   2.785 -0.0921  0.7914  0.6966
 3461SOL    HW313611   2.914   3.805   2.723 -0.9042  1.5398 -1.8563
 3461SOL    MW413612   2.905   3.869   2.781 -0.6087 -0.0025  0.0080
 3462SOL     OW13613   3.661   4.660   4.157  0.2713 -0.7372  0.3758
 3462SOL    HW213614   3.622   4.635   4.074 -1.7555 -1.4811  1.4771
 3462SOL    HW313615   3.713   4.584   4.183 -0.0218 -0.9598  0.3188
 3462SOL    MW413616   3.663   4.647   4.150 -0.0348 -0.8648  0.5136
 3463SOL     OW13617   2.714   5.649   6.275  0.1138  0.4080 -0.3923
 3463SOL    HW213618   2.632   5.602   6.292 -0.1747  0.7466 -0.8297
 3463SOL    HW313619   2.771   5.584   6.235 -0.8215  0.7912 -2.4792
 3463SOL    MW413620   2.711   5.634   6.272 -0.0477  0.5032 -0.7254
 3464SOL     OW13621   3.814   4.563   5.355  0.0100 -0.5234 -0.0474
 3464SOL    HW213622   3.778   4.531   5.438  0.2104 -1.0999 -0.1739
 3464SOL    HW313623   3.738   4.575   5.299 -0.1830  0.4090  0.3874
 3464SOL    MW413624   3.799   4.560   5.359  0.0110 -0.4764 -0.0068
 3465SOL     OW13625   1.097   2.407   3.350  0.6733  0.0612  0.0435
 3465SOL    HW213626   1.168   2.371   3.404  0.0427 -0.2173  0.7112
 3465SOL    HW313627   1.022   2.352   3.370 -0.0327  1.0596  0.2429
 3465SOL    MW413628   1.097   2.395   3.360  0.4970  0.1562  0.1579
 3466SOL     OW13629   3.805   0.429   6.071 -0.0068 -0.0204  0.4672
 3466SOL    HW213630   3.761   0.354   6.111  0.9462  0.5790  2.8444
 3466SOL    HW313631   3.752   0.450   5.995 -0.9464 -2.3842  0.3752
 3466SOL    MW413632   3.792   0.422   6.067 -0.0050 -0.2532  0.7687
 3467SOL     OW13633   5.565   2.395   3.947 -0.1506  0.4203 -0.1607
 3467SOL    HW213634   5.586   2.450   4.022 -0.3433 -2.2048  1.9951
 3467SOL    HW313635   5.480   2.425   3.917  0.0030  1.6292  0.5598
 3467SOL    MW413636   5.557   2.406   3.953 -0.1558  0.2334  0.2188
 3468SOL     OW13637   4.860   2.736   0.349  0.2746 -0.1764 -0.5226
 3468SOL    HW213638   4.823   2.737   0.438  0.3130 -0.7237 -0.5012
 3468SOL    HW313639   4.784   2.743   0.291  0.2864  0.8153 -0.4477
 3468SOL    MW413640   4.845   2.737   0.353  0.2812 -0.1178 -0.5099
 3469SOL     OW13641   0.027   6.268   4.571  0.2489 -0.2526  0.0229
 3469SOL    HW213642  -0.056   6.262   4.526 -0.1304 -0.1575  0.6919
 3469SOL    HW313643   0.026   6.355   4.612  0.1978 -0.6689  0.9288
 3469SOL    MW413644   0.016   6.279   4.571  0.1921 -0.2950  0.2306
 3470SOL     OW13645   6.221   4.211   0.128  0.4208 -0.1466  0.0290
 3470SOL    HW213646   6.143   4.266   0.121  1.2254  0.8904 -1.3584
 3470SOL    HW313647   6.232   4.195   0.222  0.0249  1.8915  0.4540
 3470SOL    MW413648   6.212   4.216   0.140  0.4747  0.2591 -0.0980
 3471SOL     OW13649   2.699   2.894   3.038 -0.1475 -0.4877 -0.0051
 3471SOL    HW213650   2.702   2.873   3.131  0.1505 -0.4294 -0.0008
 3471SOL    HW313651   2.606   2.887   3.015 -0.4523  1.0105  0.6460
 3471SOL    MW413652   2.687   2.890   3.047 -0.1484 -0.2824  0.0814
 3472SOL     OW13653   5.677   4.196   3.810  0.6007 -0.4653  0.2496
 3472SOL    HW213654   5.633   4.159   3.886  2.3162 -2.5201  0.3166
 3472SOL    HW313655   5.748   4.248   3.847  0.2887  0.1123  0.0574
 3472SOL    MW413656   5.680   4.198   3.825  0.7859 -0.6602  0.2331
 3473SOL     OW13657   3.923   4.242   2.618  0.0417  0.3555 -0.6029
 3473SOL    HW213658   3.926   4.149   2.642 -2.1727 -0.2800 -2.5008
 3473SOL    HW313659   4.004   4.256   2.568  0.5614 -0.4306 -0.0134
 3473SOL    MW413660   3.934   4.231   2.614 -0.1819  0.1680 -0.7756
 3474SOL     OW13661   1.887   3.383   1.771  0.1392  0.2207  0.1397
 3474SOL    HW213662   1.880   3.331   1.691 -1.1758  0.1620  0.2709
 3474SOL    HW313663   1.857   3.471   1.746 -0.7162  0.0926  0.6419
 3474SOL    MW413664   1.882   3.388   1.757 -0.1471  0.1961  0.2233
 3475SOL     OW13665   5.888   2.338   3.205 -0.6022  0.0696 -0.7871
 3475SOL    HW213666   5.844   2.337   3.120  1.5586 -1.4498 -1.9832
 3475SOL    HW313667   5.886   2.247   3.235  0.4305  0.2198 -0.2004
 3475SOL    MW413668   5.882   2.326   3.198 -0.1809 -0.1110 -0.8675
 3476SOL     OW13669   4.956   1.111   0.272 -0.1897 -0.3656  0.3678
 3476SOL    HW213670   5.040   1.120   0.226  0.3089 -1.2747  1.0654
 3476SOL    HW313671   4.897   1.074   0.207  0.4995 -1.6038  0.4134
 3476SOL    MW413672   4.959   1.107   0.257 -0.0330 -0.6489  0.4659
 3477SOL     OW13673   2.978   4.279   2.857 -0.1146  0.2480  0.3177
 3477SOL    HW213674   2.970   4.372   2.881  0.4438  0.8840 -1.7327
 3477SOL    HW313675   2.963   4.232   2.939 -0.3458  2.1451  1.4368
 3477SOL    MW413676   2.975   4.285   2.871 -0.0714  0.5822  0.1948
 3478SOL     OW13677   1.407   1.564   4.671  0.2171 -0.1860  0.1084
 3478SOL    HW213678   1.471   1.523   4.612 -0.5413 -0.0269 -0.8439
 3478SOL    HW313679   1.456   1.580   4.751  2.2365  2.5597 -1.4913
 3478SOL    MW413680   1.422   1.561   4.674  0.3835  0.1973 -0.2283
 3479SOL     OW13681   1.323   4.359   0.193  0.9358 -0.2886  0.4141
 3479SOL    HW213682   1.304   4.360   0.287 -0.8219  1.0413  0.1031
 3479SOL    HW313683   1.324   4.267   0.170 -1.0723 -0.5905  1.3200
 3479SOL    MW413684   1.321   4.347   0.203  0.4389 -0.1529  0.4926
 3480SOL     OW13685   2.181   2.538   5.910  0.6189 -0.0687 -0.0876
 3480SOL    HW213686   2.148   2.456   5.948  0.5122 -0.6862 -1.4705
 3480SOL    HW313687   2.215   2.587   5.986  2.8032 -2.3556  0.5580
 3480SOL    MW413688   2.181   2.533   5.925  0.8930 -0.4519 -0.1849
 3481SOL     OW13689   2.426   5.172   4.527  0.7313 -0.0818 -0.2180
 3481SOL    HW213690   2.342   5.162   4.570  0.1383  0.9148 -1.0976
 3481SOL    HW313691   2.473   5.236   4.580 -0.1772  1.4978 -1.2386
 3481SOL    MW413692   2.421   5.179   4.539  0.5332  0.2581 -0.4687
 3482SOL     OW13693   4.342   5.317   0.994 -0.2898 -0.1692  0.5184
 3482SOL    HW213694   4.306   5.364   1.069 -0.2207 -1.5263  1.4436
 3482SOL    HW313695   4.358   5.228   1.027  0.4295 -0.5988 -0.9047
 3482SOL    MW413696   4.339   5.311   1.008 -0.1858 -0.4049  0.4527
 3483SOL     OW13697   4.883   1.585   3.065  0.0651 -0.3073 -0.3205
 3483SOL    HW213698   4.844   1.529   2.999 -0.2111  0.5634 -0.9088
 3483SOL    HW313699   4.958   1.626   3.022 -0.4167  0.6574 -0.2689
 3483SOL    MW413700   4.888   1.583   3.051 -0.0349 -0.0651 -0.3913
 3484SOL     OW13701   0.753   4.540   2.714 -0.2690 -0.2243  0.2448
 3484SOL    HW213702   0.691   4.537   2.642 -0.7226  0.3645  0.5993
 3484SOL    HW313703   0.705   4.581   2.786  0.1085 -0.9827  0.9493
 3484SOL    MW413704   0.739   4.545   2.714 -0.2790 -0.2467  0.3845
 3485SOL     OW13705   0.885   4.714   1.546  0.8711  0.0043 -0.0106
 3485SOL    HW213706   0.870   4.807   1.529 -1.7944  0.1641  2.4139
 3485SOL    HW313707   0.969   4.710   1.592 -0.2083  1.6681  2.3012
 3485SOL    MW413708   0.894   4.725   1.550  0.3770  0.2449  0.6143
 3486SOL     OW13709   2.139   4.159   0.777 -0.2543  0.1098  0.2321
 3486SOL    HW213710   2.173   4.228   0.720  1.5691  0.7323  1.9580
 3486SOL    HW313711   2.072   4.116   0.724 -0.4064  2.2216 -1.4538
 3486SOL    MW413712   2.135   4.162   0.762 -0.0338  0.4706  0.2374
 3487SOL     OW13713   2.416   5.344   1.508 -0.4742  0.0916  0.6731
 3487SOL    HW213714   2.373   5.260   1.493  0.8823 -0.7907  1.5646
 3487SOL    HW313715   2.468   5.360   1.429  0.3493 -0.6015  1.0636
 3487SOL    MW413716   2.417   5.335   1.495 -0.1866 -0.1162  0.8423
 3488SOL     OW13717   6.354   5.532   4.182 -0.7627 -0.2016  0.0905
 3488SOL    HW213718   6.300   5.590   4.236 -1.2503  0.0900 -0.7008
 3488SOL    HW313719   6.444   5.558   4.203 -0.9683  0.5746  0.0355
 3488SOL    MW413720   6.359   5.543   4.192 -0.8542 -0.0607 -0.0211
 3489SOL     OW13721   3.309   2.892   3.011  0.3914  0.5554  0.1342
 3489SOL    HW213722   3.216   2.900   3.033  0.5336  0.3097  0.8240
 3489SOL    HW313723   3.343   2.981   3.019  0.2331  0.6374 -0.0708
 3489SOL    MW413724   3.301   2.905   3.015  0.3892  0.5338  0.1982
 3490SOL     OW13725   3.825   2.539   4.375 -0.2119  0.5029 -0.3903
 3490SOL    HW213726   3.865   2.462   4.333  1.2287  1.3696 -0.6780
 3490SOL    HW313727   3.816   2.603   4.304 -1.8883  0.4516 -0.2649
 3490SOL    MW413728   3.829   2.537   4.360 -0.2430  0.6105 -0.4117
 3491SOL     OW13729   0.953   5.848   1.050 -0.2191 -1.0069  0.2250
 3491SOL    HW213730   0.974   5.836   1.143 -0.8515 -0.7667  0.4045
 3491SOL    HW313731   0.963   5.942   1.036  0.6281 -1.1393 -0.1481
 3491SOL    MW413732   0.957   5.859   1.060 -0.1907 -0.9927  0.1994
 3492SOL     OW13733   2.898   6.245   1.999 -0.2659 -0.1223 -0.5366
 3492SOL    HW213734   2.891   6.310   1.929  1.2347  1.6527  0.8545
 3492SOL    HW313735   2.812   6.248   2.042 -0.1965  1.0320 -0.4361
 3492SOL    MW413736   2.885   6.254   1.995 -0.0588  0.2642 -0.3398
 3493SOL     OW13737   5.093   4.200   1.913 -0.3361 -0.3175 -0.2495
 3493SOL    HW213738   5.164   4.197   1.850 -1.5389  0.1389 -1.6918
 3493SOL    HW313739   5.134   4.182   1.997  1.5031  0.1662 -1.0063
 3493SOL    MW413740   5.108   4.198   1.916 -0.2521 -0.1935 -0.5397
 3494SOL     OW13741   4.810   5.701   3.876 -0.1264 -0.2357 -0.2158
 3494SOL    HW213742   4.826   5.659   3.961  1.9360  2.9434  1.1383
 3494SOL    HW313743   4.896   5.700   3.833 -0.5180  0.7005 -1.0390
 3494SOL    MW413744   4.824   5.695   3.882  0.0940  0.3073 -0.1457
 3495SOL     OW13745   4.220   5.423   1.491 -0.0104  0.5027 -0.0368
 3495SOL    HW213746   4.180   5.509   1.505 -0.4803  0.4130 -0.7398
 3495SOL    HW313747   4.314   5.439   1.497 -0.1167  0.8831  0.7776
 3495SOL    MW413748   4.227   5.436   1.494 -0.0864  0.5411 -0.0221
 3496SOL     OW13749   3.700   5.494   2.386 -0.3730  0.7137 -0.1400
 3496SOL    HW213750   3.745   5.424   2.433 -1.4389  0.5720  0.6948
 3496SOL    HW313751   3.765   5.564   2.379  1.1865 -0.8173 -2.2091
 3496SOL    MW413752   3.715   5.494   2.391 -0.3079  0.4930 -0.3028
 3497SOL     OW13753   5.650   1.052   4.972  0.0528  0.4779  0.6882
 3497SOL    HW213754   5.712   1.004   4.917 -1.4677 -1.3096  0.4465
 3497SOL    HW313755   5.631   0.993   5.045 -3.1910 -0.1624 -0.5028
 3497SOL    MW413756   5.655   1.038   4.975 -0.5758  0.1576  0.4992
 3498SOL     OW13757   2.362   3.923   3.185 -0.7200 -0.0877 -0.0074
 3498SOL    HW213758   2.332   4.005   3.144  0.0473  0.4834  0.5389
 3498SOL    HW313759   2.330   3.854   3.126 -0.5226  0.6533 -1.0153
 3498SOL    MW413760   2.354   3.925   3.171 -0.5927  0.0854 -0.0683
 3499SOL     OW13761   2.583   6.270   2.765  0.0732 -0.2224 -0.4455
 3499SOL    HW213762   2.576   6.362   2.739  0.8819 -0.1257 -0.3483
 3499SOL    HW313763   2.515   6.225   2.714  1.3734  0.0185 -2.5286
 3499SOL    MW413764   2.573   6.276   2.755  0.3515 -0.1779 -0.7075
 3500SOL     OW13765   2.019   2.686   5.169  0.4642  0.0491 -0.4734
 3500SOL    HW213766   2.015   2.698   5.264 -0.1750  2.4049 -0.7437
 3500SOL    HW313767   1.997   2.594   5.155 -1.3583  0.1237  1.5365
 3500SOL    MW413768   2.016   2.675   5.180  0.1394  0.3698 -0.2439
 3501SOL     OW13769   3.154   1.280   0.057 -0.1089 -0.8327 -0.2686
 3501SOL    HW213770   3.081   1.217   0.052 -2.2413  1.4469 -0.0468
 3501SOL    HW313771   3.153   1.312   0.147 -0.5615  1.0498 -0.8778
 3501SOL    MW413772   3.144   1.276   0.068 -0.4500 -0.2835 -0.3197
 3502SOL     OW13773   1.442   1.290   2.864 -0.8126  0.1878 -0.0203
 3502SOL    HW213774   1.381   1.360   2.885 -0.9353  0.8206 -2.2277
 3502SOL    HW313775   1.388   1.224   2.818 -0.0265  0.4131 -1.3207
 3502SOL    MW413776   1.427   1.290   2.860 -0.7251  0.3010 -0.4831
 3503SOL     OW13777   1.218   4.047   1.893  0.3722 -0.0231 -0.2801
 3503SOL    HW213778   1.237   4.050   1.987  1.1054 -2.3183 -0.3036
 3503SOL    HW313779   1.224   4.138   1.865  4.4420  0.3504  1.1238
 3503SOL    MW413780   1.221   4.060   1.901  1.0059 -0.2766 -0.0979
 3504SOL     OW13781   0.699   4.641   0.239 -0.1988  0.6747 -0.1760
 3504SOL    HW213782   0.666   4.684   0.160 -1.6107 -0.0487 -0.0051
 3504SOL    HW313783   0.637   4.665   0.308  0.8273  1.0285  0.6718
 3504SOL    MW413784   0.687   4.650   0.238 -0.2497  0.6260 -0.0416
 3505SOL     OW13785   3.950   5.500   0.238 -0.5123 -0.6350  0.0697
 3505SOL    HW213786   3.903   5.430   0.193 -1.1420 -0.6400  0.7222
 3505SOL    HW313787   3.913   5.502   0.326  0.9434 -0.8628  0.7278
 3505SOL    MW413788   3.939   5.491   0.244 -0.4034 -0.6657  0.2426
 3506SOL     OW13789   3.552   5.581   5.108  0.1666 -0.0655  0.9526
 3506SOL    HW213790   3.595   5.629   5.179 -0.8053  1.8094  0.3407
 3506SOL    HW313791   3.623   5.533   5.065  1.1848  0.7472  1.6686
 3506SOL    MW413792   3.567   5.581   5.112  0.1727  0.2891  0.9663
 3507SOL     OW13793   1.600   1.857   5.162  0.0290  0.3839  0.0860
 3507SOL    HW213794   1.648   1.839   5.080 -3.5395 -0.0648 -2.1268
 3507SOL    HW313795   1.617   1.949   5.180  1.7596  0.2241 -0.5291
 3507SOL    MW413796   1.609   1.866   5.153 -0.2135  0.3036 -0.2871
 3508SOL     OW13797   2.736   2.763   5.611 -0.0275  0.5724 -0.3387
 3508SOL    HW213798   2.765   2.682   5.568 -0.6770  0.8811 -1.4210
 3508SOL    HW313799   2.805   2.784   5.673  1.7589  0.9231 -2.3251
 3508SOL    MW413800   2.749   2.755   5.613  0.1225  0.6594 -0.7436
 3509SOL     OW13801   0.466   3.547   5.764  0.3706  0.3935 -0.1094
 3509SOL    HW213802   0.418   3.593   5.833 -0.3460 -2.0239  1.1235
 3509SOL    HW313803   0.558   3.561   5.786  0.1613  0.3494  0.8642
 3509SOL    MW413804   0.471   3.555   5.776  0.2484  0.0687  0.1817
 3510SOL     OW13805   4.311   5.148   2.434  0.0666 -0.2763  0.2618
 3510SOL    HW213806   4.228   5.102   2.446 -0.2124  0.1400 -0.0211
 3510SOL    HW313807   4.310   5.175   2.342  0.1726  0.3790  0.4474
 3510SOL    MW413808   4.300   5.145   2.424  0.0438 -0.1350  0.2489
 3511SOL     OW13809   3.954   4.754   5.685  0.8569 -0.0297  0.2062
 3511SOL    HW213810   3.872   4.800   5.666  0.6887  0.3796  1.7677
 3511SOL    HW313811   4.017   4.790   5.623  0.4875  1.6555  0.7556
 3511SOL    MW413812   3.951   4.765   5.675  0.7859  0.2466  0.4847
 3512SOL     OW13813   2.841   1.600   2.526  0.3147 -0.1843 -0.5056
 3512SOL    HW213814   2.902   1.602   2.600  1.5268  0.5244 -1.4694
 3512SOL    HW313815   2.829   1.507   2.507 -0.9728 -0.4306  1.3082
 3512SOL    MW413816   2.848   1.588   2.533  0.3047 -0.1233 -0.3934
 3513SOL     OW13817   1.898   0.483   2.464 -0.1758 -0.1038  0.0393
 3513SOL    HW213818   1.841   0.505   2.537  1.1770  0.1274  1.0690
 3513SOL    HW313819   1.893   0.559   2.406 -0.5934  0.0891  0.3256
 3513SOL    MW413820   1.890   0.496   2.466 -0.0524 -0.0479  0.2129
 3514SOL     OW13821   1.756   2.326   2.897 -0.1876 -0.2950 -0.4085
 3514SOL    HW213822   1.793   2.394   2.953 -0.5962  0.2299 -0.7646
 3514SOL    HW313823   1.823   2.258   2.895 -0.0245 -0.1699  0.4314
 3514SOL    MW413824   1.770   2.326   2.904 -0.2200 -0.2092 -0.3447
 3515SOL     OW13825   2.018   0.696   0.776 -0.7175 -0.0497 -0.2065
 3515SOL    HW213826   1.951   0.689   0.843  0.2477  0.0458  0.8006
 3515SOL    HW313827   2.094   0.651   0.813  0.4147  1.5541 -0.4555
 3515SOL    MW413828   2.020   0.689   0.789 -0.4407  0.1745 -0.1065
 3516SOL     OW13829   5.186   1.474   1.688 -0.1722  0.5425 -0.0145
 3516SOL    HW213830   5.232   1.492   1.770 -2.1433 -0.1878  1.3429
 3516SOL    HW313831   5.093   1.477   1.712 -0.8487 -3.9452 -1.1651
 3516SOL    MW413832   5.180   1.477   1.702 -0.5215 -0.1459  0.0128
 3517SOL     OW13833   4.278   1.395   5.081 -0.2293  0.1935  0.0432
 3517SOL    HW213834   4.281   1.470   5.139 -1.3350  2.2512 -2.3480
 3517SOL    HW313835   4.362   1.397   5.035 -0.5927  0.5143 -0.6201
 3517SOL    MW413836   4.289   1.405   5.082 -0.4232  0.5073 -0.3598
 3518SOL     OW13837   1.407   0.916   2.965  0.4574  0.0804 -0.3198
 3518SOL    HW213838   1.389   0.845   3.027 -2.1926  0.7192 -0.2056
 3518SOL    HW313839   1.324   0.965   2.960  1.7712  2.3746 -1.4149
 3518SOL    MW413840   1.393   0.913   2.972  0.2811  0.4674 -0.4492
 3519SOL     OW13841   0.852   1.045   1.315 -0.1799  0.2869 -0.1607
 3519SOL    HW213842   0.831   1.040   1.222  1.2258 -0.1253 -0.4738
 3519SOL    HW313843   0.801   1.120   1.347 -2.4747 -0.9363 -0.7289
 3519SOL    MW413844   0.842   1.054   1.307 -0.2972  0.0711 -0.2770
 3520SOL     OW13845   1.265   5.830   3.329  0.0049  0.1021  0.4456
 3520SOL    HW213846   1.258   5.762   3.396 -1.1380 -0.8800 -0.6180
 3520SOL    HW313847   1.357   5.828   3.303  0.2908 -0.0476  1.4209
 3520SOL    MW413848   1.276   5.821   3.335 -0.1082 -0.0473  0.4339
 3521SOL     OW13849   2.199   1.684   3.771  0.6052  0.1654 -0.1461
 3521SOL    HW213850   2.187   1.713   3.680  0.2685  0.7467  0.0789
 3521SOL    HW313851   2.274   1.623   3.767  2.2421  2.1016 -0.4233
 3521SOL    MW413852   2.207   1.679   3.758  0.7768  0.4976 -0.1530
 3522SOL     OW13853   2.654   4.460   0.140 -0.5630 -0.2192 -0.5182
 3522SOL    HW213854   2.705   4.395   0.188 -0.5819  0.7975  0.9501
 3522SOL    HW313855   2.566   4.422   0.134 -0.2574 -0.8851 -0.8307
 3522SOL    MW413856   2.649   4.446   0.145 -0.5252 -0.1729 -0.3657
 3523SOL     OW13857   4.911   1.536   1.170  0.1968 -0.0718 -0.2256
 3523SOL    HW213858   4.941   1.619   1.132 -0.1159 -0.0342 -0.3912
 3523SOL    HW313859   4.988   1.479   1.167  0.4892  0.2980  0.1362
 3523SOL    MW413860   4.925   1.540   1.165  0.1941 -0.0181 -0.1997
 3524SOL     OW13861   1.904   1.555   5.945 -0.0167 -0.1619  0.0856
 3524SOL    HW213862   1.878   1.584   5.857 -0.1935 -0.8618 -0.1001
 3524SOL    HW313863   1.849   1.606   6.004  1.3846  1.7000 -0.1061
 3524SOL    MW413864   1.893   1.566   5.941  0.1448 -0.0086  0.0358
 3525SOL     OW13865   2.023   5.027   1.682 -0.3884  0.4441 -0.1373
 3525SOL    HW213866   2.068   4.964   1.740 -0.2841 -0.9688 -1.6801
 3525SOL    HW313867   2.082   5.037   1.608 -1.3707  0.7601 -0.8902
 3525SOL    MW413868   2.037   5.020   1.680 -0.5043  0.2993 -0.4402
 3526SOL     OW13869   4.878   2.355   0.554  0.1589 -0.6709 -0.3506
 3526SOL    HW213870   4.959   2.318   0.519  1.4690  1.9171 -0.2361
 3526SOL    HW313871   4.848   2.415   0.486 -1.4828 -1.2498 -0.1997
 3526SOL    MW413872   4.884   2.358   0.540  0.1152 -0.4058 -0.3156
 3527SOL     OW13873   5.521   3.682   5.988 -0.0874  0.2862  0.2105
 3527SOL    HW213874   5.535   3.626   5.911  0.9663  0.3093  0.3812
 3527SOL    HW313875   5.440   3.649   6.026 -0.3315 -0.0840 -0.5952
 3527SOL    MW413876   5.512   3.670   5.983  0.0194  0.2404  0.1267
 3528SOL     OW13877   1.657   5.673   1.860 -0.0751  0.1041  0.0807
 3528SOL    HW213878   1.706   5.594   1.839 -1.0313 -0.4852  0.0182
 3528SOL    HW313879   1.722   5.731   1.901  0.5633 -0.8299  0.4335
 3528SOL    MW413880   1.672   5.671   1.862 -0.1170 -0.0969  0.1190
 3529SOL     OW13881   4.345   6.197   0.644 -0.0762  0.6628 -0.8586
 3529SOL    HW213882   4.426   6.203   0.592 -0.4713  2.5282 -1.3163
 3529SOL    HW313883   4.294   6.130   0.599  0.5275  0.6506 -1.5502
 3529SOL    MW413884   4.349   6.189   0.631 -0.0487  0.9073 -1.0102
 3530SOL     OW13885   5.351   2.040   2.716  0.3022 -0.1559  0.5534
 3530SOL    HW213886   5.401   1.960   2.700  1.0241 -0.1248  2.4313
 3530SOL    HW313887   5.259   2.011   2.714  0.4332 -0.5272 -1.2526
 3530SOL    MW413888   5.345   2.025   2.714  0.4147 -0.2008  0.5629
 3531SOL     OW13889   3.377   5.279   5.824  0.1438  0.3523  0.1602
 3531SOL    HW213890   3.388   5.251   5.915  1.7398 -1.3398 -0.5004
 3531SOL    HW313891   3.461   5.260   5.783 -0.8746  0.1167 -1.9164
 3531SOL    MW413892   3.390   5.273   5.831  0.2200  0.0979 -0.2009
 3532SOL     OW13893   1.931   5.125   6.269  0.4506  1.1052  0.4398
 3532SOL    HW213894   1.941   5.092   6.179  0.3146  1.4724  0.2854
 3532SOL    HW313895   2.012   5.100   6.313 -0.2235 -0.6923  0.7472
 3532SOL    MW413896   1.943   5.118   6.263  0.3438  0.9165  0.4600
 3533SOL     OW13897   0.306   2.103   0.242 -0.2309 -0.1189 -0.7502
 3533SOL    HW213898   0.303   2.089   0.337 -0.0272  1.3247 -0.5045
 3533SOL    HW313899   0.279   2.194   0.230  1.3721  0.2445 -1.9337
 3533SOL    MW413900   0.302   2.113   0.253  0.0075  0.1195 -0.8739
 3534SOL     OW13901   5.665   5.698   1.369  0.2015 -0.4823 -0.1059
 3534SOL    HW213902   5.730   5.628   1.378  0.6116  0.0203  1.0132
 3534SOL    HW313903   5.582   5.656   1.391  0.5035 -0.5470  1.0107
 3534SOL    MW413904   5.663   5.683   1.373  0.2955 -0.4245  0.1891
 3535SOL     OW13905   4.109   0.746   1.418 -0.0269  0.0366 -0.0966
 3535SOL    HW213906   4.196   0.785   1.409  0.7641 -1.2068  1.6062
 3535SOL    HW313907   4.063   0.771   1.338  1.6496  1.3234 -0.7096
 3535SOL    MW413908   4.114   0.754   1.406  0.2987  0.0423  0.0472
 3536SOL     OW13909   3.240   2.954   0.955  0.1641  0.2749 -0.0031
 3536SOL    HW213910   3.243   2.908   1.039 -0.8698  1.8441  0.9317
 3536SOL    HW313911   3.167   3.016   0.964 -0.7543 -0.3337 -2.4909
 3536SOL    MW413912   3.231   2.956   0.967 -0.0935  0.4016 -0.2080
 3537SOL     OW13913   0.472   1.586   0.934 -0.0185  0.4760  0.8210
 3537SOL    HW213914   0.417   1.660   0.957  0.4946  0.5270  1.9623
 3537SOL    HW313915   0.412   1.513   0.924 -0.7691  1.3953 -2.2499
 3537SOL    MW413916   0.457   1.586   0.936 -0.0498  0.6040  0.5665
 3538SOL     OW13917   2.307   5.910   3.772 -0.3760  0.0099  0.4466
 3538SOL    HW213918   2.242   5.927   3.840 -1.0532 -0.7816  0.0101
 3538SOL    HW313919   2.265   5.937   3.691  0.6454  1.5137  0.3679
 3538SOL    MW413920   2.293   5.916   3.770 -0.3306  0.1039  0.3786
 3539SOL     OW13921   2.228   2.194   2.223 -0.5783 -0.3188  0.1467
 3539SOL    HW213922   2.294   2.157   2.282 -0.1355 -0.2172 -0.2810
 3539SOL    HW313923   2.249   2.158   2.137 -0.7562  0.1364 -0.0919
 3539SOL    MW413924   2.239   2.184   2.220 -0.5434 -0.2453  0.0588
 3540SOL     OW13925   1.074   3.396   1.705 -0.0840  0.1229  0.6057
 3540SOL    HW213926   1.031   3.454   1.768 -0.4754 -0.4237  0.8462
 3540SOL    HW313927   1.016   3.321   1.698  0.4961 -0.3096  0.4102
 3540SOL    MW413928   1.061   3.394   1.713 -0.0591 -0.0063  0.6117
 3541SOL     OW13929   4.604   0.467   4.099 -0.1413  0.7037 -0.4221
 3541SOL    HW213930   4.582   0.377   4.123 -0.7659  0.6592 -1.1357
 3541SOL    HW313931   4.699   0.466   4.090 -0.1861 -0.0316 -0.9607
 3541SOL    MW413932   4.614   0.455   4.101 -0.2296  0.6008 -0.5873
 3542SOL     OW13933   5.895   4.887   4.635  0.5768  0.2483 -0.3307
 3542SOL    HW213934   5.924   4.952   4.699 -0.1421  0.3817 -0.1290
 3542SOL    HW313935   5.852   4.819   4.688  1.4220 -0.4659 -0.5263
 3542SOL    MW413936   5.893   4.886   4.651  0.5935  0.1717 -0.3299
 3543SOL     OW13937   5.649   4.630   4.538 -0.1747  0.3255 -0.4011
 3543SOL    HW213938   5.712   4.573   4.496  0.9388  1.3801 -0.2230
 3543SOL    HW313939   5.691   4.656   4.620 -1.5495 -0.2786  0.5325
 3543SOL    MW413940   5.663   4.626   4.544 -0.2091  0.3849 -0.2544
 3544SOL     OW13941   1.195   1.302   2.420  0.7316  0.3546  0.4074
 3544SOL    HW213942   1.144   1.231   2.458 -0.1605 -0.6497 -2.3926
 3544SOL    HW313943   1.277   1.303   2.469 -0.4933 -0.4482  2.5940
 3544SOL    MW413944   1.199   1.293   2.431  0.4523  0.1162  0.3264
 3545SOL     OW13945   3.411   1.072   3.636 -0.6007 -0.6503 -0.3302
 3545SOL    HW213946   3.372   1.120   3.709 -1.0121 -0.9361 -0.3608
 3545SOL    HW313947   3.433   0.987   3.673  1.6498  0.0888  0.1699
 3545SOL    MW413948   3.409   1.067   3.651 -0.3581 -0.5905 -0.2683
 3546SOL     OW13949   4.560   0.804   4.697  0.4124 -0.2240 -0.0166
 3546SOL    HW213950   4.651   0.834   4.694  0.4400 -0.3732 -0.6778
 3546SOL    HW313951   4.529   0.809   4.607 -0.0298 -0.8271  0.0932
 3546SOL    MW413952   4.568   0.809   4.685  0.3577 -0.3233 -0.0894
 3547SOL     OW13953   5.378   1.237   2.310  0.3574  0.4568 -0.3191
 3547SOL    HW213954   5.420   1.309   2.358 -0.2291  0.3578  0.3587
 3547SOL    HW313955   5.289   1.234   2.345 -0.0374  0.2694 -1.2992
 3547SOL    MW413956   5.372   1.246   2.321  0.2279  0.4190 -0.3590
 3548SOL     OW13957   1.719   3.547   0.168  0.0875  0.0509  0.1266
 3548SOL    HW213958   1.681   3.634   0.160  0.8008  0.3807  0.2474
 3548SOL    HW313959   1.810   3.558   0.139  0.1768 -0.6545  0.1278
 3548SOL    MW413960   1.726   3.560   0.163  0.1934  0.0014  0.1427
 3549SOL     OW13961   0.077   1.219   5.608  0.1081  0.0426  0.3152
 3549SOL    HW213962   0.098   1.307   5.576 -2.0597  0.7658  0.6858
 3549SOL    HW313963   0.013   1.234   5.678 -1.0241 -1.8623 -0.2343
 3549SOL    MW413964   0.072   1.233   5.613 -0.3273 -0.1133  0.2916
 3550SOL     OW13965   5.998   1.610   3.100 -0.2829 -0.1768 -0.1953
 3550SOL    HW213966   6.048   1.668   3.157 -1.6190  0.8094  0.0059
 3550SOL    HW313967   6.025   1.522   3.126 -0.6505  0.2583  1.7652
 3550SOL    MW413968   6.008   1.606   3.111 -0.5077  0.0107  0.0899
 3551SOL     OW13969   1.473   4.122   4.563  0.4981  0.0517  0.0255
 3551SOL    HW213970   1.507   4.186   4.500  0.1733  0.4452  0.2488
 3551SOL    HW313971   1.457   4.173   4.642 -0.2615 -0.2085  0.0396
 3551SOL    MW413972   1.476   4.138   4.565  0.3550  0.0693  0.0568
 3552SOL     OW13973   1.989   0.815   1.487 -0.7703 -0.4658 -0.3050
 3552SOL    HW213974   2.084   0.807   1.498 -0.8278  0.4088  1.0969
 3552SOL    HW313975   1.957   0.725   1.486  0.1341 -0.8120 -1.7332
 3552SOL    MW413976   1.997   0.802   1.488 -0.6585 -0.3961 -0.3085
 3553SOL     OW13977   2.826   1.750   3.647 -0.5113  0.7000 -0.4228
 3553SOL    HW213978   2.824   1.818   3.715 -1.1634  0.0469  0.2262
 3553SOL    HW313979   2.831   1.668   3.695  2.2724  0.3062 -1.2160
 3553SOL    MW413980   2.826   1.748   3.662 -0.2300  0.5618 -0.4418
 3554SOL     OW13981   5.282   1.694   3.238  0.2060 -0.1888 -0.4825
 3554SOL    HW213982   5.255   1.612   3.197  0.3605 -0.4933  0.0095
 3554SOL    HW313983   5.377   1.687   3.247  0.2094  0.0013 -0.3512
 3554SOL    MW413984   5.291   1.682   3.234  0.2269 -0.2039 -0.4002
 3555SOL     OW13985   0.287   4.115   2.021 -0.1792 -0.1600  0.3532
 3555SOL    HW213986   0.373   4.115   1.979  0.3022  1.5493  1.2652
 3555SOL    HW313987   0.225   4.103   1.949  0.7636 -0.3261 -0.4457
 3555SOL    MW413988   0.290   4.113   2.006  0.0087  0.0436  0.3681
 3556SOL     OW13989   2.899   0.336   6.358 -0.0273  0.1786 -0.2814
 3556SOL    HW213990   2.875   0.346   6.450 -0.3910  0.5373 -0.4138
 3556SOL    HW313991   2.948   0.416   6.338 -0.1044  0.1837 -0.4492
 3556SOL    MW413992   2.902   0.348   6.367 -0.0854  0.2266 -0.3210
 3557SOL     OW13993   5.833   0.216   2.401 -0.9496  0.1822 -0.0999
 3557SOL    HW213994   5.818   0.140   2.457 -1.1132  0.1000 -0.2565
 3557SOL    HW313995   5.757   0.272   2.414 -1.2524 -0.0962 -0.6643
 3557SOL    MW413996   5.821   0.213   2.410 -1.0111  0.1346 -0.1950
 3558SOL     OW13997   1.928   1.305   3.593 -0.0960 -0.4584 -0.0913
 3558SOL    HW213998   2.014   1.279   3.560 -0.5316 -2.1025  0.0045
 3558SOL    HW313999   1.918   1.396   3.564  2.2719  0.2832  1.1382
 3558SOL    MW414000   1.938   1.314   3.585  0.1590 -0.5775  0.0836
 3559SOL     OW14001   6.268   0.485   5.687  0.0209  1.2374 -0.0701
 3559SOL    HW214002   6.214   0.439   5.622 -0.1009  0.3993  0.6032
 3559SOL    HW314003   6.354   0.444   5.679  0.0401  1.2229  0.2003
 3559SOL    MW414004   6.272   0.473   5.677  0.0074  1.1249  0.0544
 3560SOL     OW14005   5.455   4.191   2.718  0.0453 -0.1767  0.2965
 3560SOL    HW214006   5.379   4.161   2.768 -1.1802  2.2307 -0.0129
 3560SOL    HW314007   5.440   4.159   2.629 -0.4648  0.0534  0.3012
 3560SOL    MW414008   5.443   4.182   2.713 -0.1837  0.1713  0.2563
 3561SOL     OW14009   5.781   3.269   1.017  0.4858  0.4656  0.8495
 3561SOL    HW214010   5.756   3.274   1.109 -1.0122  0.3646  0.4649
 3561SOL    HW314011   5.728   3.198   0.981 -0.3461  1.7290 -0.5236
 3561SOL    MW414012   5.771   3.260   1.024  0.1784  0.6190  0.6176
 3562SOL     OW14013   5.534   3.775   3.991 -0.3168 -0.7678 -0.5547
 3562SOL    HW214014   5.614   3.754   4.041 -0.0814  1.2545  0.0096
 3562SOL    HW314015   5.463   3.766   4.055 -0.6592 -2.9812 -1.1613
 3562SOL    MW414016   5.536   3.771   4.006 -0.3309 -0.7930 -0.5603
 3563SOL     OW14017   5.275   4.606   5.076 -0.2091  0.0680  0.3393
 3563SOL    HW214018   5.318   4.560   5.004  1.7243  1.0746  0.7856
 3563SOL    HW314019   5.318   4.573   5.155 -1.5763 -0.2553  0.9784
 3563SOL    MW414020   5.287   4.596   5.077 -0.1344  0.1581  0.4825
 3564SOL     OW14021   5.090   0.092   3.313  0.2454 -0.2968 -0.4502
 3564SOL    HW214022   5.090   0.142   3.231 -1.8419  0.2994 -0.1552
 3564SOL    HW314023   5.182   0.073   3.329  0.7638  0.0237 -2.6490
 3564SOL    MW414024   5.102   0.096   3.304  0.0384 -0.1758 -0.7014
 3565SOL     OW14025   0.334   0.746   5.105 -0.0369  0.5124  0.6789
 3565SOL    HW214026   0.403   0.680   5.094 -0.1677  0.6622 -1.7820
 3565SOL    HW314027   0.262   0.699   5.145  1.3236  0.2697  2.9950
 3565SOL    MW414028   0.334   0.731   5.109  0.1254  0.5002  0.6598
 3566SOL     OW14029   1.160   1.418   3.412 -0.4642 -0.4945  0.2569
 3566SOL    HW214030   1.072   1.392   3.441 -0.6117  0.7153  0.9716
 3566SOL    HW314031   1.218   1.378   3.477 -0.7090  1.0921  1.5267
 3566SOL    MW414032   1.156   1.410   3.425 -0.5159 -0.1255  0.5187
 3567SOL     OW14033   1.305   1.153   5.131 -0.5998 -0.2538  0.7020
 3567SOL    HW214034   1.249   1.120   5.060 -1.5453  0.5133  1.0623
 3567SOL    HW314035   1.367   1.082   5.148  0.3717 -0.0532 -1.6134
 3567SOL    MW414036   1.306   1.139   5.123 -0.5964 -0.1261  0.4441
 3568SOL     OW14037   5.171   1.293   0.460 -0.0379 -0.3354  0.1911
 3568SOL    HW214038   5.210   1.263   0.378 -1.0038  1.4399 -0.9835
 3568SOL    HW314039   5.084   1.325   0.435  1.0876  4.0710  1.0412
 3568SOL    MW414040   5.165   1.294   0.446 -0.0168  0.4802  0.1483
 3569SOL     OW14041   1.212   1.655   2.404 -0.5076  0.5004  0.3174
 3569SOL    HW214042   1.237   1.743   2.374  0.6554  0.7351  1.8736
 3569SOL    HW314043   1.231   1.598   2.329  2.2394  1.0723  0.4654
 3569SOL    MW414044   1.218   1.659   2.390  0.0083  0.6068  0.5422
 3570SOL     OW14045   3.503   3.509   4.843  0.1718 -0.4128  0.1413
 3570SOL    HW214046   3.419   3.529   4.802 -0.1995 -2.5393 -0.2218
 3570SOL    HW314047   3.492   3.422   4.881  2.5899 -1.3561 -1.0899
 3570SOL    MW414048   3.491   3.500   4.843  0.4418 -0.8179 -0.0690
 3571SOL     OW14049   1.853   2.103   0.285 -0.3170  0.1856 -0.1708
 3571SOL    HW214050   1.824   2.082   0.196 -1.5790  1.0539  0.0113
 3571SOL    HW314051   1.931   2.050   0.297 -2.2448 -2.9910 -0.4019
 3571SOL    MW414052   1.859   2.093   0.275 -0.7379 -0.1190 -0.1773
 3572SOL     OW14053   2.935   2.159   0.222  0.7474 -0.1203  0.7058
 3572SOL    HW214054   3.023   2.122   0.213  0.3375 -1.0552  0.4195
 3572SOL    HW314055   2.945   2.229   0.286  1.7028 -0.2204  0.6786
 3572SOL    MW414056   2.948   2.163   0.229  0.8194 -0.2568  0.6645
 3573SOL     OW14057   6.009   3.569   5.989 -0.3054 -0.5818 -0.1551
 3573SOL    HW214058   5.969   3.649   6.023 -0.5238 -0.1206 -1.4674
 3573SOL    HW314059   6.097   3.568   6.028 -0.8367 -0.5212  1.0842
 3573SOL    MW414060   6.015   3.579   5.999 -0.4043 -0.5130 -0.1647
 3574SOL     OW14061   4.211   3.106   6.303  0.3234  0.5481  0.2809
 3574SOL    HW214062   4.186   3.059   6.383  0.9367 -0.3676 -0.0378
 3574SOL    HW314063   4.134   3.156   6.279 -0.0987  0.3018  1.0739
 3574SOL    MW414064   4.198   3.106   6.310  0.3486  0.3948  0.3435
 3575SOL     OW14065   3.753   6.136   0.470 -0.4706 -0.7853 -0.4751
 3575SOL    HW214066   3.671   6.097   0.440 -1.5105  1.5594 -0.8949
 3575SOL    HW314067   3.800   6.156   0.390 -0.4455 -0.1863 -0.3102
 3575SOL    MW414068   3.748   6.133   0.456 -0.6045 -0.3969 -0.5087
 3576SOL     OW14069   3.093   3.893   2.490  0.1444 -0.7133  0.1597
 3576SOL    HW214070   3.102   3.972   2.544 -0.7470 -0.0756 -0.5775
 3576SOL    HW314071   3.013   3.852   2.522 -0.6092 -0.1184 -0.8977
 3576SOL    MW414072   3.084   3.898   2.501 -0.0726 -0.5507 -0.0771
 3577SOL     OW14073   3.364   2.489   5.266 -0.2719  0.2085 -0.4002
 3577SOL    HW214074   3.319   2.420   5.217 -1.7410  1.0909 -0.3742
 3577SOL    HW314075   3.295   2.553   5.284  1.0379  1.6392 -0.3499
 3577SOL    MW414076   3.349   2.488   5.262 -0.2929  0.5137 -0.3901
 3578SOL     OW14077   4.385   1.448   4.440  0.4143  0.5303  0.5954
 3578SOL    HW214078   4.355   1.522   4.493 -0.9961  1.0175 -0.8030
 3578SOL    HW314079   4.396   1.485   4.352 -2.0067 -1.2319 -0.5666
 3578SOL    MW414080   4.383   1.463   4.435 -0.0912  0.3621  0.2576
 3579SOL     OW14081   6.263   3.283   1.279  0.8504 -0.0929 -0.1181
 3579SOL    HW214082   6.322   3.355   1.257  0.3270 -0.0002 -1.3158
 3579SOL    HW314083   6.232   3.250   1.194 -1.0343  0.0332  0.4625
 3579SOL    MW414084   6.267   3.288   1.264  0.5327 -0.0640 -0.1995
 3580SOL     OW14085   6.265   5.285   2.975  0.2538  0.2410 -0.2263
 3580SOL    HW214086   6.280   5.379   2.962 -0.4525  0.6483  1.5664
 3580SOL    HW314087   6.240   5.253   2.889  0.1382  1.7695 -0.7996
 3580SOL    MW414088   6.264   5.293   2.962  0.1453  0.4964 -0.0654
 3581SOL     OW14089   0.401   4.220   2.691 -0.1600 -0.2871 -0.1160
 3581SOL    HW214090   0.482   4.246   2.735 -0.4226 -1.7573  1.3675
 3581SOL    HW314091   0.371   4.143   2.740 -2.2147 -0.0596 -0.9037
 3581SOL    MW414092   0.408   4.213   2.703 -0.4657 -0.4510 -0.0242
 3582SOL     OW14093   2.051   4.347   0.569 -0.3573  0.0579 -0.1642
 3582SOL    HW214094   2.008   4.290   0.505  1.6327  1.7275 -3.2690
 3582SOL    HW314095   1.994   4.424   0.575 -2.0446 -1.2644  2.5242
 3582SOL    MW414096   2.038   4.350   0.561 -0.3174  0.1037 -0.2191
 3583SOL     OW14097   2.825   2.588   5.989  0.8741 -0.3166 -0.1534
 3583SOL    HW214098   2.752   2.581   6.051  0.1290 -2.0304 -1.1402
 3583SOL    HW314099   2.892   2.528   6.022  1.1088 -0.0659 -0.1743
 3583SOL    MW414100   2.824   2.579   6.001  0.8068 -0.5096 -0.2864
 3584SOL     OW14101   2.440   2.023   3.230  0.0331  0.0615  0.4302
 3584SOL    HW214102   2.432   2.081   3.154 -2.1191 -0.1889  0.3851
 3584SOL    HW314103   2.399   2.071   3.301  2.0480  0.2983  1.4862
 3584SOL    MW414104   2.433   2.037   3.229  0.0150  0.0597  0.5636
 3585SOL     OW14105   3.989   0.702   4.470 -0.0588 -0.4024 -0.3527
 3585SOL    HW214106   3.898   0.672   4.478 -0.4050  0.3470 -1.2471
 3585SOL    HW314107   4.024   0.651   4.396  0.3721 -0.9487  0.2161
 3585SOL    MW414108   3.981   0.691   4.461 -0.0476 -0.3756 -0.3957
 3586SOL     OW14109   3.266   6.385   4.545 -1.0220 -0.1213 -0.2753
 3586SOL    HW214110   3.261   6.480   4.555  0.9206  0.2410 -2.0385
 3586SOL    HW314111   3.326   6.371   4.472 -1.0888 -2.7280  0.0508
 3586SOL    MW414112   3.273   6.396   4.537 -0.7745 -0.4174 -0.4649
 3587SOL     OW14113   3.490   1.935   4.766  0.5446  0.2614 -0.6316
 3587SOL    HW214114   3.579   1.962   4.791  0.7375  0.3370 -1.3588
 3587SOL    HW314115   3.445   2.018   4.749  0.0957  0.2566  0.4910
 3587SOL    MW414116   3.496   1.950   4.767  0.5108  0.2708 -0.5794
 3588SOL     OW14117   3.862   6.394   4.566 -0.0808  0.0800  0.3445
 3588SOL    HW214118   3.958   6.392   4.565 -0.0792  0.1316 -0.8351
 3588SOL    HW314119   3.837   6.310   4.529 -0.4946  0.2906  0.1493
 3588SOL    MW414120   3.871   6.382   4.561 -0.1351  0.1146  0.1631
 3589SOL     OW14121   4.976   2.586   3.507 -0.0468 -0.1070 -0.3640
 3589SOL    HW214122   4.979   2.494   3.479 -2.5525 -0.2790 -0.3432
 3589SOL    HW314123   4.984   2.636   3.425 -1.6680 -0.4714 -0.7880
 3589SOL    MW414124   4.977   2.581   3.492 -0.5913 -0.1777 -0.4172
 3590SOL     OW14125   3.485   6.360   4.309  0.3053  0.6123 -0.3478
 3590SOL    HW214126   3.547   6.311   4.255 -0.1684  0.1723 -0.4973
 3590SOL    HW314127   3.511   6.451   4.298  1.3467  0.3904  0.1167
 3590SOL    MW414128   3.497   6.365   4.300  0.3802  0.5250 -0.3062
 3591SOL     OW14129   2.554   3.237   3.976 -0.0935  0.8904  0.0304
 3591SOL    HW214130   2.585   3.273   3.893  0.0371  2.9071  0.8809
 3591SOL    HW314131   2.466   3.274   3.986 -0.8912 -0.9056 -0.0972
 3591SOL    MW414132   2.547   3.247   3.966 -0.1815  0.9196  0.1258
 3592SOL     OW14133   5.156   2.150   0.886 -0.0772  0.0672  0.5735
 3592SOL    HW214134   5.091   2.161   0.955 -0.0481  0.2064  0.5780
 3592SOL    HW314135   5.190   2.238   0.870 -1.0292  0.2491 -0.5548
 3592SOL    MW414136   5.152   2.163   0.893 -0.1989  0.1096  0.4252
 3593SOL     OW14137   5.688   3.779   3.348 -0.2839  0.2483 -0.1557
 3593SOL    HW214138   5.711   3.829   3.426  1.2893  1.7691 -1.4987
 3593SOL    HW314139   5.594   3.765   3.356 -0.4740  1.8528  1.1957
 3593SOL    MW414140   5.678   3.784   3.359 -0.1014  0.6606 -0.1546
 3594SOL     OW14141   3.765   2.032   0.303 -0.3340 -0.6150 -0.3364
 3594SOL    HW214142   3.785   1.941   0.325 -2.5935 -0.8789  0.9392
 3594SOL    HW314143   3.830   2.055   0.238 -0.1692 -3.4201 -1.3316
 3594SOL    MW414144   3.776   2.023   0.297 -0.6104 -1.0199 -0.2994
 3595SOL     OW14145   3.127   4.246   6.168  0.5482  0.4237 -0.0424
 3595SOL    HW214146   3.060   4.192   6.211 -0.8376  2.1563  0.0583
 3595SOL    HW314147   3.193   4.183   6.141 -1.3083 -1.4423 -0.5290
 3595SOL    MW414148   3.127   4.230   6.170  0.1204  0.4061 -0.0933
 3596SOL     OW14149   6.103   4.089   1.650 -0.3515 -0.0457  0.6307
 3596SOL    HW214150   6.010   4.106   1.634  0.1349  2.0480 -0.2556
 3596SOL    HW314151   6.132   4.042   1.572 -0.1616  1.5036 -0.2803
 3596SOL    MW414152   6.094   4.085   1.638 -0.2623  0.4349  0.3935
 3597SOL     OW14153   0.440   4.369   3.262  0.3802  0.0340 -0.3370
 3597SOL    HW214154   0.451   4.461   3.241 -0.0087  0.0453 -0.4977
 3597SOL    HW314155   0.527   4.331   3.249  1.2657  0.8877  2.4095
 3597SOL    MW414156   0.453   4.376   3.258  0.4457  0.1481  0.0041
 3598SOL     OW14157   6.055   0.764   2.988 -0.1344 -0.2790 -0.2543
 3598SOL    HW214158   6.008   0.775   3.071  1.4313 -0.3530  0.6807
 3598SOL    HW314159   6.053   0.850   2.948 -1.0982 -0.2928 -0.2666
 3598SOL    MW414160   6.049   0.776   2.994 -0.0550 -0.2906 -0.1326
 3599SOL     OW14161   3.744   5.186   3.232 -0.0416  0.2347 -0.1048
 3599SOL    HW214162   3.650   5.177   3.215  0.0390 -0.8409 -0.0606
 3599SOL    HW314163   3.769   5.268   3.188 -0.9314  0.3605 -0.3904
 3599SOL    MW414164   3.735   5.196   3.224 -0.1484  0.1094 -0.1367
 3600SOL     OW14165   1.649   5.406   5.101 -0.2893  0.1045 -0.4121
 3600SOL    HW214166   1.738   5.436   5.082  0.4884 -2.7692 -1.7076
 3600SOL    HW314167   1.660   5.336   5.165 -1.7626  0.5202  0.3484
 3600SOL    MW414168   1.662   5.401   5.107 -0.3811 -0.2198 -0.4827
 3601SOL     OW14169   4.740   1.557   0.106 -0.2666 -0.0167 -0.0624
 3601SOL    HW214170   4.792   1.477   0.098  1.0310  0.9623 -3.9763
 3601SOL    HW314171   4.681   1.554   0.030 -1.5088  1.8790  0.7585
 3601SOL    MW414172   4.739   1.546   0.095 -0.2593  0.3626 -0.4705
 3602SOL     OW14173   0.826   0.011   2.606  0.1674 -0.5128 -0.2940
 3602SOL    HW214174   0.915  -0.013   2.581  0.0249 -0.7887 -0.5497
 3602SOL    HW314175   0.771  -0.025   2.536 -0.0455  0.7493 -0.7974
 3602SOL    MW414176   0.830   0.003   2.593  0.1205 -0.3827 -0.3942
 3603SOL     OW14177   1.193   3.620   3.690 -0.3244  0.0696  0.2552
 3603SOL    HW214178   1.239   3.540   3.716  1.4522  1.4039  1.4466
 3603SOL    HW314179   1.140   3.593   3.615  0.7428 -2.0522  0.1663
 3603SOL    MW414180   1.192   3.606   3.684  0.0508 -0.0343  0.4006
 3604SOL     OW14181   4.735   0.677   3.101 -0.2453 -0.3700  0.1408
 3604SOL    HW214182   4.767   0.767   3.090 -0.2720 -0.4787 -1.0175
 3604SOL    HW314183   4.646   0.686   3.133 -0.4822  0.0435 -0.6185
 3604SOL    MW414184   4.728   0.690   3.104 -0.2801 -0.3298 -0.1122
 3605SOL     OW14185   2.565   0.535   0.437 -0.1113  0.0554 -0.0544
 3605SOL    HW214186   2.478   0.576   0.430 -0.4382 -0.3981  1.1693
 3605SOL    HW314187   2.587   0.511   0.347 -0.9943  0.7049 -0.4587
 3605SOL    MW414188   2.556   0.537   0.424 -0.2709  0.0812  0.0537
 3606SOL     OW14189   1.537   3.684   2.215 -0.1102 -0.0544  0.1046
 3606SOL    HW214190   1.586   3.620   2.266 -1.2160 -1.8414 -0.9283
 3606SOL    HW314191   1.603   3.730   2.164  0.6263 -2.0820 -0.9167
 3606SOL    MW414192   1.552   3.681   2.215 -0.1589 -0.5577 -0.1664
 3607SOL     OW14193   1.860   4.356   1.766 -0.1625  0.2317  0.0069
 3607SOL    HW214194   1.940   4.409   1.767  1.1318 -1.6117  0.7254
 3607SOL    HW314195   1.867   4.301   1.845 -1.2346 -1.2654 -0.8870
 3607SOL    MW414196   1.871   4.356   1.777 -0.1332 -0.2091 -0.0163
 3608SOL     OW14197   6.354   5.452   2.309  0.3571 -0.2203  0.5210
 3608SOL    HW214198   6.296   5.448   2.385  0.3266  1.1258  0.5995
 3608SOL    HW314199   6.340   5.539   2.273  1.2766 -0.3935 -0.3052
 3608SOL    MW414200   6.345   5.463   2.314  0.4744 -0.0656  0.4224
 3609SOL     OW14201   1.677   3.864   0.195  0.0970 -0.5739  0.5746
 3609SOL    HW214202   1.610   3.830   0.254  0.4098 -1.7914  0.2540
 3609SOL    HW314203   1.637   3.860   0.108  0.3610 -0.7138  0.4585
 3609SOL    MW414204   1.663   3.859   0.191  0.1731 -0.7530  0.5170
 3610SOL     OW14205   2.683   4.249   3.711  0.3027  0.7642 -0.0475
 3610SOL    HW214206   2.639   4.316   3.763  2.0895 -0.0935  2.8394
 3610SOL    HW314207   2.750   4.297   3.662  0.6984  1.3070  0.9818
 3610SOL    MW414208   2.686   4.264   3.711  0.5907  0.7226  0.4692
 3611SOL     OW14209   0.817   4.733   4.074 -0.5184 -0.0233 -0.0895
 3611SOL    HW214210   0.820   4.811   4.019  0.1957 -1.2055 -1.8100
 3611SOL    HW314211   0.739   4.746   4.129 -0.0816  2.1520  0.1306
 3611SOL    MW414212   0.807   4.745   4.074 -0.3666  0.1078 -0.2874
 3612SOL     OW14213   3.088   4.938   4.191 -0.1123 -0.2894 -0.1911
 3612SOL    HW214214   3.043   4.931   4.107 -1.3630 -1.3651  0.5305
 3612SOL    HW314215   3.064   5.025   4.224  0.4320  0.1621 -0.9465
 3612SOL    MW414216   3.079   4.949   4.184 -0.2055 -0.3718 -0.1956
 3613SOL     OW14217   2.101   4.300   0.159  0.0207 -0.4455 -0.3352
 3613SOL    HW214218   2.039   4.317   0.088  0.9782  1.2889 -0.8065
 3613SOL    HW314219   2.046   4.296   0.238 -0.7801  0.2783 -0.8362
 3613SOL    MW414220   2.085   4.302   0.160  0.0414 -0.1212 -0.4635
 3614SOL     OW14221   3.734   1.685   4.860 -0.0408  0.2231  0.9267
 3614SOL    HW214222   3.776   1.731   4.933 -0.4059 -0.5224  1.6200
 3614SOL    HW314223   3.789   1.608   4.845  0.0319  0.3732  0.4113
 3614SOL    MW414224   3.747   1.681   4.868 -0.0794  0.1445  0.9502
 3615SOL     OW14225   0.325   1.865   0.903  0.2305  0.8120  0.2541
 3615SOL    HW214226   0.280   1.929   0.848 -1.4141  0.7897  1.4867
 3615SOL    HW314227   0.357   1.917   0.977 -0.5716  0.3464  0.9482
 3615SOL    MW414228   0.323   1.881   0.906 -0.0923  0.7476  0.5083
 3616SOL     OW14229   0.288   1.294   0.296  0.0417 -0.0571 -0.3753
 3616SOL    HW214230   0.344   1.255   0.228  1.0420 -0.9275  0.8794
 3616SOL    HW314231   0.257   1.218   0.347  0.4219  0.6355  0.9392
 3616SOL    MW414232   0.291   1.279   0.294  0.2239 -0.0805 -0.0363
 3617SOL     OW14233   2.595   4.035   1.959  0.0433 -0.4114  0.0492
 3617SOL    HW214234   2.543   4.044   2.039 -0.1124  0.9320 -0.1895
 3617SOL    HW314235   2.635   4.121   1.945  0.2688 -0.6879 -1.1868
 3617SOL    MW414236   2.594   4.048   1.967  0.0525 -0.2706 -0.1454
 3618SOL     OW14237   0.608   0.130   2.274 -0.2007 -0.5383 -0.2606
 3618SOL    HW214238   0.652   0.215   2.273 -0.7457 -0.2449  0.1440
 3618SOL    HW314239   0.598   0.107   2.181 -1.5029  0.6097 -0.4363
 3618SOL    MW414240   0.613   0.139   2.261 -0.4444 -0.3481 -0.2304
 3619SOL     OW14241   2.337   0.318   0.347  0.3729  0.0217  0.8288
 3619SOL    HW214242   2.311   0.342   0.258  1.9935 -0.4204  0.1884
 3619SOL    HW314243   2.331   0.400   0.397  1.3087  0.7332 -0.1718
 3619SOL    MW414244   2.333   0.332   0.342  0.7102  0.0573  0.6123
 3620SOL     OW14245   1.811   5.564   0.043  0.0813 -0.3602  0.1619
 3620SOL    HW214246   1.764   5.527  -0.032 -1.0613 -2.8212  1.9535
 3620SOL    HW314247   1.886   5.505   0.055  0.6317  0.4058  0.5506
 3620SOL    MW414248   1.815   5.551   0.034  0.0031 -0.5838  0.4496
 3621SOL     OW14249   2.618   2.495   4.568 -0.3637  0.2430 -0.1720
 3621SOL    HW214250   2.599   2.433   4.498 -1.6212 -0.3780  0.6747
 3621SOL    HW314251   2.684   2.452   4.622  1.3659  1.1434 -1.4771
 3621SOL    MW414252   2.624   2.482   4.566 -0.3014  0.2799 -0.2325
 3622SOL     OW14253   3.483   0.893   0.221 -0.0660 -0.2461 -0.9190
 3622SOL    HW214254   3.427   0.967   0.243 -0.8332 -0.0972 -3.1526
 3622SOL    HW314255   3.546   0.888   0.294 -1.6420  0.8880  0.5966
 3622SOL    MW414256   3.484   0.902   0.234 -0.3751 -0.0768 -1.0138
 3623SOL     OW14257   2.321   2.952   4.610  0.6721 -0.5681 -0.6046
 3623SOL    HW214258   2.334   3.010   4.535  0.2299 -0.6154 -0.7232
 3623SOL    HW314259   2.386   2.883   4.599  1.1262 -0.1524 -0.5226
 3623SOL    MW414260   2.331   2.950   4.599  0.6736 -0.5195 -0.6094
 3624SOL     OW14261   1.622   0.423   3.268 -0.0301 -0.5154  0.6774
 3624SOL    HW214262   1.606   0.390   3.357 -0.4797 -0.9769  0.4324
 3624SOL    HW314263   1.700   0.478   3.276 -0.8713  0.6037  1.6401
 3624SOL    MW414264   1.630   0.426   3.281 -0.2004 -0.4286  0.7721
 3625SOL     OW14265   3.323   2.348   4.967  0.0503  0.1273 -0.2222
 3625SOL    HW214266   3.246   2.397   4.937  0.4850 -0.7953 -3.2130
 3625SOL    HW314267   3.397   2.406   4.951  0.2873 -0.3454 -0.8706
 3625SOL    MW414268   3.322   2.362   4.961  0.1389 -0.0568 -0.7024
 3626SOL     OW14269   0.721   3.224   0.715 -0.4027 -0.3508  0.1849
 3626SOL    HW214270   0.815   3.229   0.733 -0.7300  0.6530  1.7944
 3626SOL    HW314271   0.691   3.148   0.766 -0.5847 -0.2376  0.2478
 3626SOL    MW414272   0.730   3.215   0.724 -0.4699 -0.2035  0.4055
 3627SOL     OW14273   6.234   5.240   5.917  0.2337 -0.4845 -0.1073
 3627SOL    HW214274   6.143   5.243   5.888  0.0433 -1.3725  0.3687
 3627SOL    HW314275   6.272   5.321   5.885 -0.8144  0.0541 -0.0210
 3627SOL    MW414276   6.227   5.251   5.909  0.0703 -0.5306 -0.0331
 3628SOL     OW14277   5.258   5.782   3.033  0.3064  0.3465  0.2232
 3628SOL    HW214278   5.232   5.809   2.945  1.6155 -0.1684 -0.3338
 3628SOL    HW314279   5.176   5.785   3.083 -0.6165 -0.0989 -1.1804
 3628SOL    MW414280   5.243   5.786   3.028  0.3574  0.2198 -0.0355
 3629SOL     OW14281   0.282   0.432   0.300 -0.6843 -0.0794 -0.3249
 3629SOL    HW214282   0.293   0.392   0.214  0.9474 -1.4627  0.4599
 3629SOL    HW314283   0.282   0.526   0.283  1.6459 -0.2433 -1.7039
 3629SOL    MW414284   0.283   0.439   0.287 -0.1616 -0.2835 -0.4033
 3630SOL     OW14285   0.389   6.043   1.511  0.0680 -0.5283  0.2986
 3630SOL    HW214286   0.296   6.060   1.492  0.0844 -0.2385  0.4835
 3630SOL    HW314287   0.419   5.992   1.435 -0.3040 -0.8343  0.3505
 3630SOL    MW414288   0.381   6.038   1.498  0.0210 -0.5304  0.3298
 3631SOL     OW14289   5.029   5.732   1.070  0.0399  0.0277 -0.6603
 3631SOL    HW214290   4.942   5.762   1.044  0.0129  1.2473  0.6632
 3631SOL    HW314291   5.012   5.658   1.129 -0.2151  1.1002  0.6714
 3631SOL    MW414292   5.015   5.727   1.075  0.0027  0.3301 -0.3100
 3632SOL     OW14293   2.498   3.585   5.333 -1.7164  0.1134 -0.0264
 3632SOL    HW214294   2.464   3.610   5.247  1.5084  2.1547 -0.9029
 3632SOL    HW314295   2.504   3.667   5.381 -0.7089 -0.5583  1.0444
 3632SOL    MW414296   2.494   3.599   5.328 -1.1580  0.2941 -0.0008
 3633SOL     OW14297   1.974   2.881   3.465 -0.0275  0.9602 -0.2005
 3633SOL    HW214298   1.913   2.814   3.435  0.4490 -0.2225  1.3135
 3633SOL    HW314299   2.014   2.843   3.544  0.0262  3.1632  0.9085
 3633SOL    MW414300   1.971   2.867   3.472  0.0425  1.0948  0.1456
 3634SOL     OW14301   2.671   3.246   0.509  0.1560  0.0174  0.4096
 3634SOL    HW214302   2.752   3.195   0.512 -0.1289 -0.4455  0.5168
 3634SOL    HW314303   2.664   3.285   0.596 -0.4820 -1.1659  0.9213
 3634SOL    MW414304   2.680   3.244   0.521  0.0342 -0.1998  0.4913
 3635SOL     OW14305   0.417   3.208   0.703 -0.2846 -0.3546  0.5727
 3635SOL    HW214306   0.387   3.242   0.787  1.2813 -0.3270  1.1511
 3635SOL    HW314307   0.512   3.224   0.703 -0.1261 -1.1456 -0.8226
 3635SOL    MW414308   0.426   3.215   0.714 -0.0571 -0.4554  0.4649
 3636SOL     OW14309   6.139   5.166   3.399  0.8146  0.1108  0.0199
 3636SOL    HW214310   6.155   5.178   3.493  1.4284  1.6140 -0.2498
 3636SOL    HW314311   6.210   5.214   3.357  0.9433 -1.1279 -1.2284
 3636SOL    MW414312   6.151   5.174   3.406  0.9125  0.1457 -0.1804
 3637SOL     OW14313   6.237   3.836   1.781  0.8828 -0.1376 -0.9061
 3637SOL    HW214314   6.202   3.917   1.743  1.3211  0.6608  0.3125
 3637SOL    HW314315   6.163   3.795   1.825  0.6103 -0.5231 -1.7144
 3637SOL    MW414316   6.223   3.842   1.782  0.9047 -0.0832 -0.8520
 3638SOL     OW14317   2.584   0.388   2.949 -0.1528 -0.5154  0.4762
 3638SOL    HW214318   2.494   0.378   2.978  0.1447  1.8072  2.4785
 3638SOL    HW314319   2.585   0.469   2.898  1.1469  0.8437  2.4980
 3638SOL    MW414320   2.572   0.397   2.946  0.0579 -0.0296  1.0072
 3639SOL     OW14321   5.235   0.740   4.471 -0.2668 -0.6337  0.0139
 3639SOL    HW214322   5.229   0.678   4.544  0.4337 -2.4229 -1.3749
 3639SOL    HW314323   5.329   0.753   4.459 -0.3579 -0.7955 -0.9129
 3639SOL    MW414324   5.246   0.733   4.479 -0.1864 -0.8911 -0.2916
 3640SOL     OW14325   0.068   6.052   4.756 -0.3887 -0.2679 -0.2276
 3640SOL    HW214326   0.062   6.106   4.677  0.4311  1.0992  0.6124
 3640SOL    HW314327  -0.010   6.074   4.806 -0.5446 -0.6031 -0.3171
 3640SOL    MW414328   0.057   6.062   4.752 -0.3011 -0.1317 -0.1285
 3641SOL     OW14329   1.348   2.766   4.561 -0.3259  0.7460  0.1611
 3641SOL    HW214330   1.336   2.683   4.516 -0.5839 -0.0785  1.6592
 3641SOL    HW314331   1.263   2.809   4.557 -0.5126  0.3999  0.3742
 3641SOL    MW414332   1.335   2.761   4.555 -0.3846  0.5916  0.3869
 3642SOL     OW14333   3.267   3.910   0.124  0.3081  0.0891  0.1389
 3642SOL    HW214334   3.311   3.993   0.108 -0.0741  0.6628  1.7694
 3642SOL    HW314335   3.325   3.844   0.089  0.8263  1.0198 -0.8098
 3642SOL    MW414336   3.280   3.913   0.117  0.3261  0.2875  0.2288
 3643SOL     OW14337   4.493   1.243   5.386 -0.1211  0.1580  0.5272
 3643SOL    HW214338   4.571   1.193   5.408 -0.0777  0.3956  0.9179
 3643SOL    HW314339   4.421   1.183   5.403  0.0430 -1.1015 -2.5308
 3643SOL    MW414340   4.494   1.229   5.391 -0.0937  0.0232  0.1753
 3644SOL     OW14341   0.662   4.385   6.335 -0.8453 -0.6220 -0.0309
 3644SOL    HW214342   0.687   4.477   6.325  2.1282 -1.4025 -0.9604
 3644SOL    HW314343   0.640   4.376   6.428  0.8688  0.6535  0.5625
 3644SOL    MW414344   0.663   4.395   6.346 -0.2268 -0.5567 -0.0752
 3645SOL     OW14345   0.145   1.325   3.124  0.1618  0.3327  0.6705
 3645SOL    HW214346   0.195   1.347   3.203 -1.3267  0.6606  1.5538
 3645SOL    HW314347   0.069   1.383   3.127  1.0884  1.8608 -2.1308
 3645SOL    MW414348   0.142   1.335   3.135  0.0876  0.5776  0.4175
 3646SOL     OW14349   5.152   6.021   2.094 -0.1360 -0.0452  0.1272
 3646SOL    HW214350   5.204   6.092   2.132 -0.5208  1.3930 -1.8689
 3646SOL    HW314351   5.063   6.038   2.123 -0.4811  1.2302 -1.5333
 3646SOL    MW414352   5.147   6.033   2.102 -0.2323  0.3128 -0.3552
 3647SOL     OW14353   1.122   1.424   1.656 -0.0731  0.8811 -0.0095
 3647SOL    HW214354   1.115   1.331   1.674 -1.4381  1.1382  0.9440
 3647SOL    HW314355   1.044   1.445   1.605 -0.3079  1.6938  0.6601
 3647SOL    MW414356   1.111   1.415   1.652 -0.2842  1.0223  0.2047
 3648SOL     OW14357   1.232   1.497   2.945  0.2918 -0.0186 -0.0209
 3648SOL    HW214358   1.183   1.459   2.873  0.6996 -0.4572 -0.0764
 3648SOL    HW314359   1.207   1.443   3.021 -1.2556  1.3347  0.4906
 3648SOL    MW414360   1.222   1.485   2.946  0.1414  0.1020  0.0393
 3649SOL     OW14361   6.316   4.601   2.784  0.3129  0.3728 -0.1465
 3649SOL    HW214362   6.373   4.553   2.724 -0.1409 -0.1294 -0.1824
 3649SOL    HW314363   6.227   4.581   2.753  0.1146  1.1842 -0.1261
 3649SOL    MW414364   6.312   4.592   2.772  0.2269  0.4136 -0.1486
 3650SOL     OW14365   5.003   4.578   5.149  0.4416  0.3587  0.0071
 3650SOL    HW214366   4.989   4.654   5.206  0.0344  0.4979 -0.2777
 3650SOL    HW314367   5.092   4.588   5.117 -0.0064  1.3662 -0.9829
 3650SOL    MW414368   5.013   4.589   5.153  0.3288  0.5100 -0.1611
 3651SOL     OW14369   5.768   3.448   2.118 -0.6043 -0.1211  0.6725
 3651SOL    HW214370   5.862   3.446   2.099 -0.8287 -0.4796 -0.4699
 3651SOL    HW314371   5.756   3.530   2.167  0.2959 -0.0530  0.8043
 3651SOL    MW414372   5.779   3.459   2.122 -0.5151 -0.1594  0.5391
 3652SOL     OW14373   0.877   0.836   4.490 -0.0384 -0.3306  0.5201
 3652SOL    HW214374   0.797   0.865   4.534 -0.6776 -1.4978  0.1634
 3652SOL    HW314375   0.850   0.759   4.439  1.6952 -1.9066  1.8563
 3652SOL    MW414376   0.863   0.830   4.489  0.1060 -0.6925  0.6493
 3653SOL     OW14377   4.397   2.438   1.326 -0.2683 -0.2173  0.5166
 3653SOL    HW214378   4.490   2.419   1.337 -0.0959 -0.5968 -1.2664
 3653SOL    HW314379   4.395   2.530   1.300 -0.1488 -0.7436 -1.5753
 3653SOL    MW414380   4.409   2.448   1.324 -0.2298 -0.3368  0.0054
 3654SOL     OW14381   5.752   4.512   5.672  0.0902 -0.1286 -0.9354
 3654SOL    HW214382   5.668   4.500   5.716  0.8429 -1.0508  0.3286
 3654SOL    HW314383   5.741   4.469   5.587 -0.3557 -1.2770 -0.3164
 3654SOL    MW414384   5.739   4.505   5.666  0.1307 -0.4018 -0.6870
 3655SOL     OW14385   5.357   3.247   1.858  0.2936  0.1122 -0.0328
 3655SOL    HW214386   5.263   3.249   1.840  0.3860 -2.9519 -1.7154
 3655SOL    HW314387   5.398   3.275   1.776  0.8291 -0.3910  0.0521
 3655SOL    MW414388   5.350   3.251   1.845  0.3764 -0.3584 -0.2436
 3656SOL     OW14389   0.174   2.242   5.599  0.5628 -0.8089  0.0656
 3656SOL    HW214390   0.263   2.276   5.590  0.3326 -0.5030 -1.2232
 3656SOL    HW314391   0.185   2.148   5.616  1.1621 -0.4152  2.0551
 3656SOL    MW414392   0.187   2.234   5.600  0.6115 -0.7166  0.1580
 3657SOL     OW14393   3.388   5.318   5.193  0.4464  0.4035  0.3276
 3657SOL    HW214394   3.421   5.230   5.176  1.0056  0.5474  0.6363
 3657SOL    HW314395   3.446   5.375   5.142  0.1439  0.5980  0.2012
 3657SOL    MW414396   3.400   5.314   5.184  0.4802  0.4482  0.3517
 3658SOL     OW14397   0.458   3.574   0.707  0.5592 -0.4126  0.0549
 3658SOL    HW214398   0.396   3.570   0.635 -0.5668  2.3790  0.7460
 3658SOL    HW314399   0.479   3.668   0.717  2.9461 -0.9833  1.4819
 3658SOL    MW414400   0.453   3.586   0.699  0.7256 -0.1196  0.3344
 3659SOL     OW14401   5.726   3.787   4.264  0.1917  0.1809  0.4118
 3659SOL    HW214402   5.649   3.773   4.320 -0.4078 -0.8854 -0.6274
 3659SOL    HW314403   5.799   3.749   4.314 -0.1584  0.1512  0.9079
 3659SOL    MW414404   5.726   3.780   4.278  0.0664  0.0363  0.3402
 3660SOL     OW14405   3.271   4.178   3.463 -0.2275  0.3636 -0.5827
 3660SOL    HW214406   3.290   4.240   3.392 -1.5647  0.9345 -0.4674
 3660SOL    HW314407   3.354   4.133   3.478  0.4401  1.2271 -1.5447
 3660SOL    MW414408   3.285   4.180   3.455 -0.3159  0.5528 -0.6944
 3661SOL     OW14409   3.805   2.158   5.526 -0.1656 -0.0025 -0.1889
 3661SOL    HW214410   3.840   2.096   5.461 -0.2450  0.1484 -0.3755
 3661SOL    HW314411   3.875   2.223   5.536  0.5131 -0.8730  1.0504
 3661SOL    MW414412   3.819   2.158   5.519 -0.0865 -0.0974 -0.0500
 3662SOL     OW14413   4.111   5.855   4.535 -0.0591  0.3841 -0.5456
 3662SOL    HW214414   4.030   5.866   4.584  0.9976  0.7289  1.2215
 3662SOL    HW314415   4.126   5.939   4.493 -1.2398 -0.0691 -1.9377
 3662SOL    MW414416   4.102   5.867   4.536 -0.0754  0.3698 -0.4961
 3663SOL     OW14417   5.276   5.680   1.187 -0.2398 -0.1849 -0.6372
 3663SOL    HW214418   5.211   5.710   1.123 -2.2787 -1.3921  0.7657
 3663SOL    HW314419   5.302   5.593   1.156 -1.5701 -0.9671  0.3347
 3663SOL    MW414420   5.271   5.673   1.174 -0.6843 -0.4474 -0.3239
 3664SOL     OW14421   0.698   3.770   3.948  0.5350 -0.1035 -0.1705
 3664SOL    HW214422   0.749   3.724   3.881  0.3304 -0.1604 -0.2893
 3664SOL    HW314423   0.754   3.771   4.025  0.0258 -1.7693  0.2722
 3664SOL    MW414424   0.712   3.764   3.949  0.4409 -0.3308 -0.1277
 3665SOL     OW14425   1.578   5.459   5.872 -0.2704  0.4888  0.5542
 3665SOL    HW214426   1.640   5.518   5.830 -0.6211 -0.0230 -0.7299
 3665SOL    HW314427   1.631   5.385   5.902 -0.0697  0.7064  0.7461
 3665SOL    MW414428   1.593   5.457   5.871 -0.2902  0.4500  0.4101
 3666SOL     OW14429   4.009   0.176   3.081  0.1091  0.4746 -0.4448
 3666SOL    HW214430   3.959   0.095   3.071 -0.7504  0.6659  1.7010
 3666SOL    HW314431   4.013   0.212   2.992 -0.7144 -1.1906 -1.2224
 3666SOL    MW414432   4.003   0.170   3.068 -0.1129  0.2802 -0.2643
 3667SOL     OW14433   2.719   0.331   1.092  0.3762  0.0049  0.0372
 3667SOL    HW214434   2.678   0.246   1.109  0.5901 -0.7244 -2.6493
 3667SOL    HW314435   2.798   0.310   1.043  2.0643  1.6433  1.8693
 3667SOL    MW414436   2.724   0.317   1.088  0.6272  0.1249 -0.0755
 3668SOL     OW14437   3.324   5.692   3.356 -0.8054 -0.7827 -0.4514
 3668SOL    HW214438   3.396   5.682   3.418 -0.1554 -1.3266 -1.2663
 3668SOL    HW314439   3.287   5.604   3.349  1.8117 -1.8692 -3.9490
 3668SOL    MW414440   3.329   5.679   3.363 -0.3743 -0.9978 -1.0204
 3669SOL     OW14441   3.796   2.920   2.222 -0.1723 -0.9470  0.0329
 3669SOL    HW214442   3.769   2.916   2.130 -0.5729 -0.5297  0.1284
 3669SOL    HW314443   3.823   2.830   2.242  0.7628 -0.8540 -0.7335
 3669SOL    MW414444   3.796   2.907   2.212 -0.1018 -0.8796 -0.0557
 3670SOL     OW14445   5.217   1.764   0.342  0.5277  0.1651  0.1953
 3670SOL    HW214446   5.150   1.755   0.410  0.4141 -0.5820 -0.0046
 3670SOL    HW314447   5.299   1.772   0.390  0.3511  0.6144  0.4329
 3670SOL    MW414448   5.219   1.764   0.357  0.4894  0.1258  0.2003
 3671SOL     OW14449   3.461   4.743   6.310 -0.4436  0.4012 -0.5441
 3671SOL    HW214450   3.398   4.812   6.291 -0.2282  0.8633  0.3519
 3671SOL    HW314451   3.544   4.789   6.321 -0.5706  0.2025  1.5821
 3671SOL    MW414452   3.464   4.758   6.309 -0.4319  0.4360 -0.1454
 3672SOL     OW14453   5.034   0.878   3.888 -0.5129 -0.1768 -0.3711
 3672SOL    HW214454   4.970   0.844   3.950 -1.6622  0.5170 -1.1407
 3672SOL    HW314455   5.064   0.960   3.928  0.0692 -0.6064  0.0894
 3672SOL    MW414456   5.029   0.884   3.901 -0.5878 -0.1420 -0.4119
 3673SOL     OW14457   3.042   5.843   5.046  0.0700 -0.1644  0.2769
 3673SOL    HW214458   3.049   5.907   5.116 -1.2424 -0.0969  0.3664
 3673SOL    HW314459   2.979   5.881   4.985 -0.1013 -0.9995 -0.0808
 3673SOL    MW414460   3.034   5.856   5.047 -0.1258 -0.2657  0.2415
 3674SOL     OW14461   3.457   3.571   4.390 -0.4565 -0.1093 -0.6884
 3674SOL    HW214462   3.495   3.658   4.403 -0.6439 -0.1025 -0.1666
 3674SOL    HW314463   3.495   3.517   4.458 -2.5325  0.2736  0.8937
 3674SOL    MW414464   3.467   3.576   4.401 -0.7551 -0.0579 -0.4108
 3675SOL     OW14465   2.972   0.226   5.612 -0.6387 -0.4196 -0.3551
 3675SOL    HW214466   2.886   0.182   5.613  0.1143 -1.9512  0.2659
 3675SOL    HW314467   3.035   0.154   5.614  0.6583  0.7090  0.6286
 3675SOL    MW414468   2.969   0.211   5.613 -0.3682 -0.4728 -0.1434
 3676SOL     OW14469   2.334   5.882   0.810 -0.1155  0.1811  0.1253
 3676SOL    HW214470   2.332   5.932   0.728 -0.1905  0.5714  0.3588
 3676SOL    HW314471   2.425   5.853   0.818  0.2442  1.3527  0.6050
 3676SOL    MW414472   2.346   5.885   0.800 -0.0779  0.3872  0.2194
 3677SOL     OW14473   0.990   1.715   5.550  0.0178 -0.1906  0.1606
 3677SOL    HW214474   1.012   1.771   5.476 -0.5884 -0.5246 -0.2907
 3677SOL    HW314475   1.073   1.678   5.579  0.2484 -0.1496 -0.4410
 3677SOL    MW414476   1.004   1.717   5.544 -0.0318 -0.2293  0.0217
 3678SOL     OW14477   5.271   0.454   0.592  0.0020 -0.2416  0.0367
 3678SOL    HW214478   5.308   0.489   0.511  1.6113 -0.9034  0.4552
 3678SOL    HW314479   5.215   0.524   0.625  1.2799  1.0255 -0.3761
 3678SOL    MW414480   5.268   0.468   0.586  0.3829 -0.1618  0.0374
 3679SOL     OW14481   4.793   1.647   3.768  0.3339  0.3295 -0.1121
 3679SOL    HW214482   4.835   1.680   3.847  0.6711 -1.2030  0.3713
 3679SOL    HW314483   4.859   1.658   3.699  1.4334 -1.6458  0.5543
 3679SOL    MW414484   4.808   1.653   3.769  0.5234 -0.1333  0.0396
 3680SOL     OW14485   0.790   0.047   4.375  0.0699  0.2772  0.2860
 3680SOL    HW214486   0.729   0.019   4.308  0.2977  0.9286 -0.2038
 3680SOL    HW314487   0.735   0.090   4.441 -0.0934  0.1154  0.2547
 3680SOL    MW414488   0.775   0.049   4.375  0.0784  0.3418  0.2172
 3681SOL     OW14489   4.439   0.080   3.342  0.2376 -0.8637  0.1070
 3681SOL    HW214490   4.437  -0.015   3.332  0.2510 -0.7703 -0.9161
 3681SOL    HW314491   4.395   0.113   3.263  0.8445 -0.0042  0.1210
 3681SOL    MW414492   4.433   0.072   3.330  0.3194 -0.7380 -0.0261
 3682SOL     OW14493   5.307   0.827   6.159  1.0039 -0.1133  0.4200
 3682SOL    HW214494   5.280   0.780   6.080  0.4608 -0.9313  1.0801
 3682SOL    HW314495   5.272   0.916   6.147  0.0883 -0.4932  0.1686
 3682SOL    MW414496   5.299   0.833   6.147  0.8115 -0.2713  0.4740
 3683SOL     OW14497   0.096   4.685   3.062 -0.1437 -0.0910 -0.1959
 3683SOL    HW214498   0.025   4.746   3.078 -0.3570  0.0692 -1.6746
 3683SOL    HW314499   0.166   4.713   3.122 -0.5360  1.0851 -0.2755
 3683SOL    MW414500   0.096   4.697   3.072 -0.2236  0.0853 -0.4015
 3684SOL     OW14501   5.602   3.864   6.184  0.1910  0.0409  0.6966
 3684SOL    HW214502   5.584   3.794   6.122  1.8240 -0.3367  0.6055
 3684SOL    HW314503   5.574   3.944   6.140  0.0446 -0.3647  0.0472
 3684SOL    MW414504   5.596   3.865   6.170  0.3872 -0.0624  0.5989
 3685SOL     OW14505   4.406   1.669   5.652  0.2639  0.7464 -0.5318
 3685SOL    HW214506   4.487   1.666   5.602  1.0050  1.2384  0.6088
 3685SOL    HW314507   4.404   1.756   5.691 -0.7758  0.7171 -0.4700
 3685SOL    MW414508   4.416   1.680   5.650  0.2245  0.8074 -0.3731
 3686SOL     OW14509   2.634   6.383   1.413  0.1363  0.3971  0.0295
 3686SOL    HW214510   2.626   6.320   1.485 -0.3581 -0.2093 -0.5380
 3686SOL    HW314511   2.586   6.460   1.443  2.0646  1.1428  1.3802
 3686SOL    MW414512   2.626   6.385   1.427  0.3255  0.4155  0.1328
 3687SOL     OW14513   2.046   5.249   1.843 -0.4096  0.5348 -0.3527
 3687SOL    HW214514   2.043   5.204   1.928  1.1926 -1.9714 -1.5186
 3687SOL    HW314515   2.025   5.181   1.779  1.8711  1.4582 -2.2144
 3687SOL    MW414516   2.043   5.235   1.846  0.1027  0.3259 -0.7522
 3688SOL     OW14517   4.648   4.515   4.798  0.5008 -0.1956  0.0847
 3688SOL    HW214518   4.690   4.544   4.878  0.5803 -0.6400  0.2060
 3688SOL    HW314519   4.720   4.499   4.737  0.4639 -0.2196  0.0475
 3688SOL    MW414520   4.663   4.516   4.800  0.5065 -0.2574  0.0958
 3689SOL     OW14521   2.765   0.870   2.251  0.1733 -0.0133 -0.2875
 3689SOL    HW214522   2.692   0.923   2.218 -0.6034 -0.4864  0.6177
 3689SOL    HW314523   2.830   0.934   2.280  0.3341  0.4147 -1.5292
 3689SOL    MW414524   2.764   0.885   2.250  0.0921 -0.0192 -0.3319
 3690SOL     OW14525   5.825   2.485   0.813  0.3186  0.2334 -0.1274
 3690SOL    HW214526   5.912   2.458   0.842  0.3473  0.0995 -0.3346
 3690SOL    HW314527   5.765   2.443   0.875  0.3042 -1.1462 -1.0133
 3690SOL    MW414528   5.828   2.476   0.825  0.3205  0.0337 -0.2716
 3691SOL     OW14529   4.090   0.208   1.219 -0.2658  0.6363  0.5483
 3691SOL    HW214530   4.161   0.231   1.279  0.5892 -1.0506  0.2305
 3691SOL    HW314531   4.101   0.268   1.145  0.6173  0.5993  0.6469
 3691SOL    MW414532   4.101   0.219   1.218 -0.0365  0.4089  0.5194
 3692SOL     OW14533   0.827   5.608   0.316 -0.2174  0.1373 -0.3371
 3692SOL    HW214534   0.773   5.656   0.379  0.1784  1.2265 -0.8013
 3692SOL    HW314535   0.770   5.537   0.285 -0.7132  0.1149  0.5927
 3692SOL    MW414536   0.812   5.605   0.320 -0.2306  0.2780 -0.2756
 3693SOL     OW14537   3.698   2.012   2.575 -0.0087 -0.3745  0.0349
 3693SOL    HW214538   3.772   1.994   2.633 -0.4105 -1.0589  0.3397
 3693SOL    HW314539   3.652   1.928   2.567 -0.0800 -0.2408 -1.1009
 3693SOL    MW414540   3.702   1.999   2.582 -0.0711 -0.4472 -0.0747
 3694SOL     OW14541   5.386   2.058   3.280  0.6813  0.8175  0.3128
 3694SOL    HW214542   5.365   2.003   3.355 -1.8284 -0.0057 -0.9012
 3694SOL    HW314543   5.355   2.145   3.304 -1.6114  0.2304 -0.2954
 3694SOL    MW414544   5.379   2.063   3.293  0.0477  0.6314  0.0724
 3695SOL     OW14545   6.131   1.705   1.891 -0.4808 -0.3895 -0.4746
 3695SOL    HW214546   6.216   1.681   1.852 -0.3849 -2.0327  0.6282
 3695SOL    HW314547   6.069   1.700   1.818  0.0334 -1.3232 -0.8722
 3695SOL    MW414548   6.134   1.701   1.876 -0.4003 -0.7295 -0.3815
 3696SOL     OW14549   3.602   4.120   2.150  0.0750  0.1100  0.0845
 3696SOL    HW214550   3.597   4.125   2.246 -1.6324  1.1243 -0.0245
 3696SOL    HW314551   3.556   4.198   2.120  1.3333  0.2590 -1.5827
 3696SOL    MW414552   3.596   4.131   2.159  0.0157  0.2635 -0.1498
 3697SOL     OW14553   0.706   2.469   1.060  0.3235 -0.0052  0.3523
 3697SOL    HW214554   0.691   2.416   1.139  0.2708  0.8262  0.9050
 3697SOL    HW314555   0.679   2.557   1.084 -1.3020 -0.0547 -1.1433
 3697SOL    MW414556   0.700   2.473   1.073  0.1021  0.0979  0.2279
 3698SOL     OW14557   3.289   5.325   1.459 -0.2161 -0.2545  0.1713
 3698SOL    HW214558   3.350   5.370   1.518 -0.4264  0.7328 -0.3325
 3698SOL    HW314559   3.306   5.364   1.373 -1.6849  0.1927  0.0542
 3698SOL    MW414560   3.299   5.336   1.455 -0.4377 -0.0653  0.0894
 3699SOL     OW14561   0.762   1.743   3.288  0.0534 -0.0873 -0.0822
 3699SOL    HW214562   0.836   1.730   3.348  0.1220  0.1969 -0.1040
 3699SOL    HW314563   0.794   1.712   3.203  0.4769  0.9060 -0.2990
 3699SOL    MW414564   0.776   1.737   3.284  0.1183  0.0812 -0.1137
 3700SOL     OW14565   1.941   1.622   3.479  0.0623 -0.0635 -0.2901
 3700SOL    HW214566   1.978   1.710   3.487  3.2309 -1.3000  0.1501
 3700SOL    HW314567   1.918   1.613   3.387  1.0991  0.7625 -0.6493
 3700SOL    MW414568   1.943   1.632   3.468  0.6172 -0.1177 -0.2794
 3701SOL     OW14569   0.976   6.051   2.372 -0.2280 -0.1760  0.0986
 3701SOL    HW214570   0.902   6.074   2.316 -0.0834 -1.6506 -0.7670
 3701SOL    HW314571   1.005   5.966   2.339  0.2753 -0.8015  2.0182
 3701SOL    MW414572   0.970   6.043   2.360 -0.1425 -0.4531  0.2377
 3702SOL     OW14573   5.205   3.749   6.302  0.0508  0.0872  0.3914
 3702SOL    HW214574   5.192   3.709   6.388 -0.4131  0.0801  0.3208
 3702SOL    HW314575   5.119   3.784   6.279  0.3121  0.6002  0.1876
 3702SOL    MW414576   5.192   3.748   6.310  0.0241  0.1540  0.3552
 3703SOL     OW14577   2.840   2.518   2.115 -0.3700 -0.3623 -0.2739
 3703SOL    HW214578   2.790   2.532   2.035 -2.4389  0.4917  1.0806
 3703SOL    HW314579   2.795   2.446   2.159 -0.2565  0.2126  0.8341
 3703SOL    MW414580   2.827   2.510   2.110 -0.6280 -0.1738  0.0510
 3704SOL     OW14581   2.158   1.844   3.502  0.2966 -0.0830  0.0700
 3704SOL    HW214582   2.247   1.819   3.479  0.6566  0.8461  0.3987
 3704SOL    HW314583   2.167   1.931   3.543 -0.8894  0.6531 -1.1449
 3704SOL    MW414584   2.171   1.853   3.504  0.1876  0.1367 -0.0469
 3705SOL     OW14585   3.832   1.651   5.388  0.5012  0.0071 -0.2506
 3705SOL    HW214586   3.853   1.744   5.389 -0.9208  0.3599 -1.1647
 3705SOL    HW314587   3.862   1.619   5.473  3.2012  0.7678 -0.8314
 3705SOL    MW414588   3.839   1.659   5.400  0.6698  0.1540 -0.4478
 3706SOL     OW14589   4.728   3.565   3.777 -0.1045  0.0669 -0.0057
 3706SOL    HW214590   4.717   3.548   3.870  0.9092 -0.2269  0.0693
 3706SOL    HW314591   4.642   3.593   3.747 -1.0515 -2.1087  0.5326
 3706SOL    MW414592   4.715   3.567   3.785 -0.0957 -0.2589  0.0752
 3707SOL     OW14593   4.085   2.319   5.305 -0.4813 -0.0442 -0.0109
 3707SOL    HW214594   4.171   2.291   5.274  0.8031  1.0568  2.2950
 3707SOL    HW314595   4.065   2.397   5.253  0.9066  0.8770  0.7684
 3707SOL    MW414596   4.093   2.326   5.294 -0.1287  0.2226  0.3961
 3708SOL     OW14597   6.072   4.657   0.734  0.1339 -0.2843  0.4236
 3708SOL    HW214598   6.061   4.700   0.649  0.2496 -0.1227  0.4894
 3708SOL    HW314599   6.011   4.583   0.732 -2.1299  1.4183  1.3276
 3708SOL    MW414600   6.062   4.653   0.723 -0.1495 -0.0383  0.5515
 3709SOL     OW14601   5.058   2.285   2.655  0.0817 -0.2236 -0.0260
 3709SOL    HW214602   5.080   2.200   2.616 -1.0095 -0.4958 -0.1010
 3709SOL    HW314603   5.050   2.267   2.748  1.2215  0.1080  0.1472
 3709SOL    MW414604   5.060   2.272   2.662  0.0881 -0.2158 -0.0130
 3710SOL     OW14605   4.496   3.786   3.108 -0.4712 -0.3485  0.3308
 3710SOL    HW214606   4.556   3.728   3.060 -0.0543  1.9330 -2.1820
 3710SOL    HW314607   4.554   3.837   3.165  0.2281  2.0284 -2.2762
 3710SOL    MW414608   4.512   3.785   3.109 -0.3240  0.2661 -0.3447
 3711SOL     OW14609   6.211   3.220   4.575  0.3674 -0.1942  0.2716
 3711SOL    HW214610   6.197   3.315   4.577 -3.4870 -0.5678 -0.7003
 3711SOL    HW314611   6.149   3.186   4.639  0.5030 -2.1451 -0.5715
 3711SOL    MW414612   6.201   3.228   4.584 -0.1233 -0.5009  0.0321
 3712SOL     OW14613   5.790   2.669   2.702  0.0928  0.1526 -0.8522
 3712SOL    HW214614   5.694   2.677   2.700 -0.0763 -1.4982 -1.6508
 3712SOL    HW314615   5.820   2.747   2.749 -1.6942  0.2399  0.2471
 3712SOL    MW414616   5.781   2.680   2.708 -0.1653 -0.0537 -0.8125
 3713SOL     OW14617   0.212   0.128   4.415 -0.2300  0.4836 -0.4315
 3713SOL    HW214618   0.265   0.083   4.480 -0.6907 -0.0455 -0.4214
 3713SOL    HW314619   0.252   0.106   4.331 -0.0060  0.6678 -0.3736
 3713SOL    MW414620   0.224   0.119   4.413 -0.2612  0.4381 -0.4225
 3714SOL     OW14621   4.115   4.813   2.981 -0.3351  0.1257 -0.2427
 3714SOL    HW214622   4.066   4.827   3.062  0.4037 -0.4906  0.3245
 3714SOL    HW314623   4.184   4.879   2.983 -1.7628  1.7798 -1.6067
 3714SOL    MW414624   4.117   4.824   2.992 -0.4260  0.2626 -0.3478
 3715SOL     OW14625   4.227   5.378   3.867  0.1304  0.5909  0.5221
 3715SOL    HW214626   4.314   5.346   3.844  0.1315  0.1320  1.1272
 3715SOL    HW314627   4.167   5.310   3.834  0.0395  0.6519  0.5606
 3715SOL    MW414628   4.230   5.365   3.860  0.1185  0.5384  0.6070
 3716SOL     OW14629   3.138   2.508   5.813 -0.2987 -0.9038 -0.5298
 3716SOL    HW214630   3.226   2.486   5.782 -0.8411 -2.0083 -1.4102
 3716SOL    HW314631   3.102   2.424   5.842 -1.0641 -0.4684 -0.1979
 3716SOL    MW414632   3.145   2.494   5.813 -0.4713 -0.9921 -0.6022
 3717SOL     OW14633   1.078   6.093   1.745  0.2167 -0.3722 -0.5007
 3717SOL    HW214634   1.017   6.126   1.679  0.8253 -0.4685 -1.1348
 3717SOL    HW314635   1.164   6.123   1.715  0.3211  1.4861  1.4351
 3717SOL    MW414636   1.081   6.101   1.732  0.3108 -0.1397 -0.3289
 3718SOL     OW14637   3.878   2.520   3.197 -0.3130  0.0306  0.7940
 3718SOL    HW214638   3.882   2.544   3.289  0.1634 -0.5433  0.9293
 3718SOL    HW314639   3.917   2.432   3.193  1.4907  0.8247 -0.2311
 3718SOL    MW414640   3.884   2.511   3.209 -0.0122  0.0597  0.6766
 3719SOL     OW14641   2.272   3.545   3.253  1.0783 -0.1871 -0.0214
 3719SOL    HW214642   2.284   3.603   3.178  0.9899 -0.2564 -0.0896
 3719SOL    HW314643   2.269   3.457   3.216  0.3295 -0.1698 -0.0132
 3719SOL    MW414644   2.273   3.541   3.238  0.9678 -0.1940 -0.0293
 3720SOL     OW14645   5.248   0.414   1.456 -0.3115  0.0389  0.5276
 3720SOL    HW214646   5.325   0.469   1.443 -1.8768  2.0320 -0.9448
 3720SOL    HW314647   5.282   0.324   1.453  1.9471  0.8481  0.0339
 3720SOL    MW414648   5.263   0.409   1.454 -0.2200  0.4086  0.2682
 3721SOL     OW14649   3.345   2.283   4.167  0.0862 -0.6015  0.4022
 3721SOL    HW214650   3.260   2.262   4.206  0.6925 -1.6385  1.2165
 3721SOL    HW314651   3.354   2.377   4.179  0.0746 -0.8199  2.4630
 3721SOL    MW414652   3.335   2.293   4.174  0.1646 -0.7672  0.7815
 3722SOL     OW14653   0.699   5.989   3.203  0.3982  0.0893  0.2581
 3722SOL    HW214654   0.624   5.938   3.232  2.2896 -1.5624  2.6456
 3722SOL    HW314655   0.688   6.074   3.246 -0.8260  0.4170 -0.6526
 3722SOL    MW414656   0.688   5.994   3.212  0.4862 -0.0854  0.4530
 3723SOL     OW14657   0.223   5.553   2.603  0.1895 -0.4138  0.3409
 3723SOL    HW214658   0.166   5.610   2.656  0.6929 -1.6066  2.2564
 3723SOL    HW314659   0.192   5.464   2.621 -0.3085 -0.8635 -2.2727
 3723SOL    MW414660   0.212   5.549   2.612  0.1902 -0.6305  0.2488
 3724SOL     OW14661   3.797   5.909   1.855  0.6489 -0.0158  0.3350
 3724SOL    HW214662   3.854   5.864   1.793  0.5553 -0.7696  0.7832
 3724SOL    HW314663   3.831   5.885   1.941  1.7041  2.1987  0.6127
 3724SOL    MW414664   3.809   5.900   1.858  0.7758  0.1769  0.4308
 3725SOL     OW14665   0.287   4.220   3.073 -0.0023  0.5884  0.1268
 3725SOL    HW214666   0.296   4.132   3.110 -1.1183  1.1670  1.9126
 3725SOL    HW314667   0.357   4.270   3.113 -0.0034  0.7557 -0.0787
 3725SOL    MW414668   0.297   4.215   3.083 -0.1497  0.6868  0.3353
 3726SOL     OW14669   2.887   3.188   4.296 -0.5855  0.5383  0.0017
 3726SOL    HW214670   2.982   3.183   4.282 -0.7182  0.2921 -0.8652
 3726SOL    HW314671   2.867   3.282   4.290 -0.2647  0.7016  1.1929
 3726SOL    MW414672   2.897   3.200   4.293 -0.5606  0.5274  0.0444
 3727SOL     OW14673   0.634   2.078   1.034  0.4214  0.5404 -0.0490
 3727SOL    HW214674   0.596   2.100   1.119 -1.6701  1.1433 -1.0850
 3727SOL    HW314675   0.638   1.982   1.034 -2.7850  0.3126 -0.5083
 3727SOL    MW414676   0.629   2.068   1.046 -0.2776  0.5899 -0.2463
 3728SOL     OW14677   4.540   0.794   4.420 -0.2360 -0.0027  0.6095
 3728SOL    HW214678   4.561   0.860   4.353  1.1340 -1.4727 -0.4934
 3728SOL    HW314679   4.489   0.728   4.373  0.2226 -0.7623  1.1685
 3728SOL    MW414680   4.536   0.794   4.405  0.0052 -0.2968  0.5377
 3729SOL     OW14681   0.856   1.041   3.494 -0.2415 -0.1666  0.1358
 3729SOL    HW214682   0.770   1.028   3.535 -0.2548  0.7962  0.4252
 3729SOL    HW314683   0.836   1.064   3.403 -0.3099  0.3757  0.2839
 3729SOL    MW414684   0.842   1.042   3.488 -0.2522  0.0320  0.1936
 3730SOL     OW14685   5.130   6.081   4.354  0.5023 -0.6303 -0.0280
 3730SOL    HW214686   5.176   6.142   4.296  0.5630 -1.6745 -1.1151
 3730SOL    HW314687   5.103   6.010   4.297 -3.0674  0.2123  0.4104
 3730SOL    MW414688   5.133   6.080   4.339  0.0393 -0.6569 -0.1136
 3731SOL     OW14689   5.473   2.504   2.149  0.2343  0.0672 -0.0467
 3731SOL    HW214690   5.425   2.576   2.190  0.8413  0.7588 -0.5256
 3731SOL    HW314691   5.432   2.425   2.184 -0.8985  0.6378 -0.0448
 3731SOL    MW414692   5.461   2.503   2.159  0.1649  0.2337 -0.1096
 3732SOL     OW14693   0.076   4.150   3.538  0.7047  0.0714 -0.0739
 3732SOL    HW214694  -0.019   4.147   3.546  0.6288 -3.1643 -0.9340
 3732SOL    HW314695   0.096   4.243   3.530 -2.3570  0.8619  0.1241
 3732SOL    MW414696   0.066   4.162   3.538  0.2907 -0.2512 -0.1612
 3733SOL     OW14697   6.378   0.470   3.843 -0.1961 -0.1839  0.7405
 3733SOL    HW214698   6.435   0.398   3.870  0.2317  1.0900  3.7220
 3733SOL    HW314699   6.436   0.530   3.795  0.1598 -0.4580  0.8223
 3733SOL    MW414700   6.393   0.469   3.840 -0.0927 -0.0520  1.1447
 3734SOL     OW14701   0.368   0.996   4.554 -0.7174 -0.0511 -0.1330
 3734SOL    HW214702   0.356   0.939   4.630  3.4818  0.3035  1.0237
 3734SOL    HW314703   0.338   1.082   4.584  0.7301  0.0473  1.1303
 3734SOL    MW414704   0.362   1.000   4.568  0.0276  0.0086  0.1863
 3735SOL     OW14705   4.968   3.203   3.394  0.3672  0.1948 -0.2530
 3735SOL    HW214706   4.972   3.254   3.313 -0.9145  0.3482 -0.2361
 3735SOL    HW314707   4.894   3.240   3.442  0.7396 -0.2928  0.7262
 3735SOL    MW414708   4.959   3.215   3.390  0.2472  0.1507 -0.1216
 3736SOL     OW14709   3.447   0.148   3.426  0.5959  0.3603  0.3026
 3736SOL    HW214710   3.492   0.215   3.374  1.1465 -1.6132 -1.9576
 3736SOL    HW314711   3.357   0.148   3.393  0.0540  1.2724  1.6946
 3736SOL    MW414712   3.441   0.156   3.415  0.5971  0.2203  0.1881
 3737SOL     OW14713   2.097   0.143   4.014 -0.2002 -0.5785  0.6167
 3737SOL    HW214714   2.052   0.188   3.943 -1.6902  1.4046  2.6745
 3737SOL    HW314715   2.118   0.057   3.978  1.0012  0.9695 -2.8569
 3737SOL    MW414716   2.094   0.138   4.000 -0.2383 -0.1126  0.4299
 3738SOL     OW14717   0.369   2.862   3.308  0.0429  0.0749  0.1795
 3738SOL    HW214718   0.455   2.822   3.293 -0.5033 -0.0881 -3.1345
 3738SOL    HW314719   0.306   2.796   3.281 -1.0280  1.2776 -0.3740
 3738SOL    MW414720   0.372   2.848   3.302 -0.1705  0.2121 -0.3308
 3739SOL     OW14721   5.840   0.129   5.806 -0.1002  0.0201  0.3047
 3739SOL    HW214722   5.790   0.063   5.759 -0.6904  0.0329  0.9087
 3739SOL    HW314723   5.908   0.156   5.744  1.3587 -2.4931  0.6831
 3739SOL    MW414724   5.843   0.124   5.792  0.0144 -0.3098  0.4343
 3740SOL     OW14725   1.421   0.763   4.450  0.5152 -0.0500  0.4374
 3740SOL    HW214726   1.327   0.773   4.462  0.7993  1.8253  1.4405
 3740SOL    HW314727   1.430   0.699   4.379 -1.5478  1.6238 -1.4817
 3740SOL    MW414728   1.410   0.756   4.442  0.2805  0.4183  0.3166
 3741SOL     OW14729   6.039   2.922   3.051  0.1406 -0.2942  0.0532
 3741SOL    HW214730   6.043   2.831   3.079 -0.2048 -0.5136 -0.5833
 3741SOL    HW314731   6.068   2.972   3.127  0.7083 -0.9574  0.2790
 3741SOL    MW414732   6.043   2.917   3.065  0.1699 -0.4107 -0.0010
 3742SOL     OW14733   5.193   0.838   5.502  0.2479  0.3344  0.7394
 3742SOL    HW214734   5.257   0.848   5.432 -0.5276 -1.4721 -0.3101
 3742SOL    HW314735   5.134   0.913   5.491  0.5443  0.4566 -0.1047
 3742SOL    MW414736   5.193   0.849   5.491  0.1847  0.1122  0.4895
 3743SOL     OW14737   3.637   3.533   3.395  0.4070 -0.7229  0.0137
 3743SOL    HW214738   3.714   3.483   3.423 -0.5716 -1.3187  1.7411
 3743SOL    HW314739   3.650   3.544   3.300  1.9561 -1.9567  0.0328
 3743SOL    MW414740   3.649   3.528   3.386  0.4823 -0.9643  0.2441
 3744SOL     OW14741   5.803   2.906   5.447 -0.3465 -0.1259 -0.1429
 3744SOL    HW214742   5.852   2.925   5.367 -0.1885  0.0858  0.0037
 3744SOL    HW314743   5.806   2.988   5.497 -2.6358  0.5842 -1.0659
 3744SOL    MW414744   5.810   2.919   5.443 -0.6277 -0.0043 -0.2454
 3745SOL     OW14745   0.623   2.935   5.860  0.0177  0.4228  0.1872
 3745SOL    HW214746   0.601   2.906   5.772  1.8942  1.6523 -0.7549
 3745SOL    HW314747   0.596   3.027   5.862 -0.3901  0.2927  1.0527
 3745SOL    MW414748   0.617   2.943   5.849  0.2115  0.5679  0.1771
 3746SOL     OW14749   6.045   4.898   1.650 -0.2909  0.6945  0.2647
 3746SOL    HW214750   6.062   4.803   1.648  1.4622  0.9395 -2.9052
 3746SOL    HW314751   5.959   4.908   1.609  0.0470  0.5112 -0.5102
 3746SOL    MW414752   6.036   4.886   1.644 -0.0150  0.7027 -0.2558
 3747SOL     OW14753   4.552   0.504   3.834  0.2356 -0.3653 -0.1564
 3747SOL    HW214754   4.587   0.496   3.923  2.2082  1.4824 -0.6808
 3747SOL    HW314755   4.628   0.526   3.780 -1.0119 -0.8250 -2.2257
 3747SOL    MW414756   4.567   0.506   3.839  0.3313 -0.1821 -0.4986
 3748SOL     OW14757   0.354   0.069   4.182 -0.2582 -0.0815 -0.0582
 3748SOL    HW214758   0.364   0.158   4.147  0.1757 -0.0393  0.1555
 3748SOL    HW314759   0.443   0.034   4.182 -0.1374  0.1584  1.6071
 3748SOL    MW414760   0.367   0.077   4.177 -0.1850 -0.0443  0.1897
 3749SOL     OW14761   5.039   4.513   4.764  0.1844 -0.1377  0.1711
 3749SOL    HW214762   5.033   4.591   4.819  2.0683 -0.2113  0.5524
 3749SOL    HW314763   5.069   4.444   4.823  2.0927 -0.2612 -0.8298
 3749SOL    MW414764   5.042   4.515   4.779  0.6847 -0.1637  0.0893
 3750SOL     OW14765   0.431   5.582   4.391  0.2800 -0.6218 -0.2607
 3750SOL    HW214766   0.482   5.510   4.354  1.0546 -0.6400  0.7964
 3750SOL    HW314767   0.479   5.608   4.470 -1.3250 -0.6047  0.7554
 3750SOL    MW414768   0.444   5.576   4.396  0.1705 -0.6220  0.0128
 3751SOL     OW14769   3.709   3.506   2.775  0.4426 -0.2869 -0.3539
 3751SOL    HW214770   3.760   3.490   2.695  1.6868  1.4694  0.0289
 3751SOL    HW314771   3.623   3.533   2.743  0.0605 -2.1404 -1.0270
 3751SOL    MW414772   3.704   3.507   2.760  0.5563 -0.2998 -0.3922
 3752SOL     OW14773   6.424   0.143   4.702  0.4089  0.7322 -0.2362
 3752SOL    HW214774   6.381   0.221   4.737  0.5404  0.2719  1.0112
 3752SOL    HW314775   6.426   0.082   4.776 -0.7659 -0.9200 -1.5238
 3752SOL    MW414776   6.419   0.145   4.717  0.2713  0.4535 -0.2415
 3753SOL     OW14777   0.918   4.171   3.402 -0.5255 -0.1824  0.4626
 3753SOL    HW214778   0.979   4.169   3.476  1.0894 -1.0334 -0.8159
 3753SOL    HW314779   0.943   4.248   3.352  0.2590 -1.0996 -0.6261
 3753SOL    MW414780   0.930   4.181   3.405 -0.2089 -0.4157  0.1503
 3754SOL     OW14781   5.505   6.361   4.216 -0.4912  0.0655  0.1483
 3754SOL    HW214782   5.531   6.432   4.275 -1.1620 -0.5449  1.1915
 3754SOL    HW314783   5.567   6.290   4.234 -1.2082 -0.4239  0.7378
 3754SOL    MW414784   5.517   6.361   4.226 -0.6743 -0.0796  0.3637
 3755SOL     OW14785   5.278   3.426   1.241  0.9212  0.3819  0.3471
 3755SOL    HW214786   5.266   3.352   1.181  0.9146  1.2241 -0.7178
 3755SOL    HW314787   5.305   3.386   1.324 -0.8801 -0.9496  0.3494
 3755SOL    MW414788   5.280   3.411   1.244  0.6827  0.3173  0.2069
 3756SOL     OW14789   1.786   6.060   1.804  0.4502 -0.5444 -0.1555
 3756SOL    HW214790   1.711   6.003   1.820 -0.9826  1.2396 -0.2603
 3756SOL    HW314791   1.751   6.134   1.756  2.2372  0.4761  0.0160
 3756SOL    MW414792   1.772   6.062   1.800  0.4969 -0.1744 -0.1467
 3757SOL     OW14793   0.173   5.255   1.738 -0.3087 -0.7977  0.3846
 3757SOL    HW214794   0.150   5.285   1.650 -1.1043 -0.4263  0.7060
 3757SOL    HW314795   0.092   5.263   1.788 -0.0935 -1.8173  0.9435
 3757SOL    MW414796   0.159   5.260   1.733 -0.3853 -0.8832  0.5008
 3758SOL     OW14797   0.640   6.378   4.149  0.4092 -0.1130  0.2397
 3758SOL    HW214798   0.574   6.319   4.186  0.6780  0.3752  1.5540
 3758SOL    HW314799   0.715   6.322   4.133  0.1915 -0.3887  0.1737
 3758SOL    MW414800   0.641   6.363   4.152  0.4159 -0.0849  0.4044
 3759SOL     OW14801   1.846   0.409   5.080 -0.3767  0.2245 -0.4021
 3759SOL    HW214802   1.852   0.471   5.152  0.4340 -1.5347  1.1138
 3759SOL    HW314803   1.912   0.438   5.017 -1.1478  1.8146 -0.5238
 3759SOL    MW414804   1.855   0.421   5.081 -0.3714  0.2022 -0.2182
 3760SOL     OW14805   2.012   3.551   3.849 -0.3267  0.0620 -0.2435
 3760SOL    HW214806   2.031   3.576   3.758  0.7566  0.8563  0.1713
 3760SOL    HW314807   2.087   3.584   3.898  0.6463 -2.9997  0.5384
 3760SOL    MW414808   2.025   3.558   3.844 -0.0554 -0.2371 -0.0856
 3761SOL     OW14809   1.342   0.952   2.486 -0.3153  0.2475 -0.1325
 3761SOL    HW214810   1.409   0.923   2.549  1.2926  0.4734 -1.6465
 3761SOL    HW314811   1.313   1.036   2.520  0.6658  0.4568  0.2381
 3761SOL    MW414812   1.347   0.959   2.499  0.0263  0.3049 -0.2833
 3762SOL     OW14813   4.835   2.438   0.251  0.1528  0.0304  0.2004
 3762SOL    HW214814   4.874   2.370   0.197  0.6940  0.6746 -0.2340
 3762SOL    HW314815   4.906   2.500   0.267  0.0183 -0.1666  1.7004
 3762SOL    MW414816   4.850   2.437   0.246  0.2064  0.0894  0.3410
 3763SOL     OW14817   4.545   5.891   5.011  0.0860  0.1811 -0.1231
 3763SOL    HW214818   4.480   5.910   4.943  1.9033  1.6537 -1.5544
 3763SOL    HW314819   4.584   5.808   4.984  1.2581  1.0835 -1.3134
 3763SOL    MW414820   4.542   5.882   4.998  0.4804  0.4944 -0.4690
 3764SOL     OW14821   1.353   3.403   6.120 -0.3628 -0.1920 -0.4000
 3764SOL    HW214822   1.263   3.422   6.093 -0.0365  2.0186 -0.1512
 3764SOL    HW314823   1.346   3.379   6.212 -0.6644  0.4107 -0.2628
 3764SOL    MW414824   1.340   3.402   6.128 -0.3596  0.1791 -0.3491
 3765SOL     OW14825   1.743   6.211   4.484 -0.0738  0.0949 -0.2472
 3765SOL    HW214826   1.660   6.190   4.441  0.3558 -2.5263  0.0419
 3765SOL    HW314827   1.762   6.135   4.539  2.7728  0.3605 -0.6912
 3765SOL    MW414828   1.735   6.198   4.485  0.3585 -0.2159 -0.2676
 3766SOL     OW14829   1.547   0.358   4.025  0.3923  0.1299 -0.0326
 3766SOL    HW214830   1.472   0.318   4.070  0.1605  0.4489 -0.1351
 3766SOL    HW314831   1.601   0.283   3.999  0.1016 -0.1047  0.0239
 3766SOL    MW414832   1.544   0.343   4.027  0.3233  0.1410 -0.0387
 3767SOL     OW14833   3.556   4.187   6.264  0.4024  0.7076 -0.3654
 3767SOL    HW214834   3.496   4.146   6.202  0.8091  0.0024 -0.2950
 3767SOL    HW314835   3.613   4.116   6.294 -2.1261  0.0847  3.7575
 3767SOL    MW414836   3.556   4.173   6.260  0.1224  0.5324  0.1879
 3768SOL     OW14837   4.459   4.781   5.424  0.0941  0.1436  0.0353
 3768SOL    HW214838   4.410   4.726   5.485  0.0821 -1.4442 -1.3530
 3768SOL    HW314839   4.544   4.737   5.414  1.0372  1.6957  0.7251
 3768SOL    MW414840   4.464   4.768   5.431  0.2169  0.1389 -0.0569
 3769SOL     OW14841   4.515   0.102   3.850 -0.0072  0.3638  0.3362
 3769SOL    HW214842   4.487   0.120   3.760  0.5749 -1.4189 -0.2537
 3769SOL    HW314843   4.590   0.159   3.865  2.1858 -1.8032 -1.6572
 3769SOL    MW414844   4.521   0.112   3.840  0.3589 -0.1573 -0.0047
 3770SOL     OW14845   6.366   4.773   1.872 -0.0165  0.3516 -0.8349
 3770SOL    HW214846   6.441   4.833   1.863 -0.2302  0.4455 -2.2250
 3770SOL    HW314847   6.390   4.716   1.945  0.4959  1.6777  0.0773
 3770SOL    MW414848   6.379   4.774   1.881  0.0230  0.5389 -0.8979
 3771SOL     OW14849   0.068   4.980   2.509 -0.0152 -0.1037  0.3097
 3771SOL    HW214850   0.088   4.959   2.600 -0.1856 -0.3278  0.2985
 3771SOL    HW314851   0.104   4.906   2.459 -0.3734 -0.2348  0.2420
 3771SOL    MW414852   0.076   4.967   2.514 -0.0850 -0.1505  0.2993
 3772SOL     OW14853   0.349   0.513   3.462 -0.3912  0.3483 -0.3568
 3772SOL    HW214854   0.289   0.577   3.425  0.0048  1.7983  1.3553
 3772SOL    HW314855   0.424   0.513   3.403 -1.4033 -0.3612 -1.6832
 3772SOL    MW414856   0.351   0.521   3.449 -0.4725  0.4460 -0.3059
 3773SOL     OW14857   6.059   4.113   6.349  0.1855  0.3004  0.1899
 3773SOL    HW214858   6.141   4.118   6.398  0.5077  1.9353 -0.4586
 3773SOL    HW314859   5.992   4.140   6.411  0.3179  0.2767  0.3454
 3773SOL    MW414860   6.061   4.117   6.363  0.2455  0.5130  0.1248
 3774SOL     OW14861   1.003   0.132   0.424  0.1669 -0.2886 -0.3830
 3774SOL    HW214862   1.005   0.227   0.417  0.4143 -0.3496 -1.3224
 3774SOL    HW314863   0.915   0.112   0.456 -0.2580  0.2171 -1.1944
 3774SOL    MW414864   0.991   0.142   0.427  0.1435 -0.2299 -0.6140
 3775SOL     OW14865   0.308   3.332   5.957  0.1268 -0.3293 -0.5110
 3775SOL    HW214866   0.396   3.347   5.991  0.6528 -1.2992 -1.3479
 3775SOL    HW314867   0.295   3.400   5.891 -0.3941  0.7773  0.7084
 3775SOL    MW414868   0.318   3.343   5.953  0.1275 -0.3113 -0.4605
 3776SOL     OW14869   3.228   0.819   4.877 -0.1700  0.1486  0.2915
 3776SOL    HW214870   3.323   0.807   4.878 -0.3725 -2.6251 -1.3003
 3776SOL    HW314871   3.198   0.786   4.961  0.2634  1.3521  0.9368
 3776SOL    MW414872   3.236   0.813   4.888 -0.1395 -0.0585  0.1666
 3777SOL     OW14873   3.385   4.858   4.720 -0.6216  0.7213 -0.1043
 3777SOL    HW214874   3.438   4.858   4.799 -1.1574 -0.3430  0.2779
 3777SOL    HW314875   3.298   4.884   4.749 -0.8656  0.1502 -0.2958
 3777SOL    MW414876   3.380   4.861   4.734 -0.7245  0.5055 -0.0792
 3778SOL     OW14877   5.054   3.977   4.100  0.5628  0.3440 -0.4437
 3778SOL    HW214878   4.978   3.962   4.043  0.4255 -0.0965 -0.1540
 3778SOL    HW314879   5.030   4.053   4.152 -0.0338 -0.2780  0.2167
 3778SOL    MW414880   5.041   3.985   4.099  0.4660  0.2038 -0.3183
 3779SOL     OW14881   3.561   1.267   2.078  0.5665 -0.0235 -0.3965
 3779SOL    HW214882   3.507   1.332   2.033  1.8399  0.3174 -1.4925
 3779SOL    HW314883   3.604   1.316   2.149 -1.7350 -0.6404  1.5746
 3779SOL    MW414884   3.559   1.282   2.082  0.4309 -0.0599 -0.2810
 3780SOL     OW14885   2.828   2.283   1.864 -0.5956 -0.1739  0.2016
 3780SOL    HW214886   2.887   2.251   1.795  0.8838  0.1622  1.2571
 3780SOL    HW314887   2.774   2.348   1.820 -1.3427 -1.6548 -1.1826
 3780SOL    MW414888   2.829   2.287   1.849 -0.4990 -0.3249  0.1582
 3781SOL     OW14889   5.234   0.810   1.648  0.1472  0.2249 -0.1138
 3781SOL    HW214890   5.304   0.752   1.676 -0.6307 -0.7601 -0.1344
 3781SOL    HW314891   5.275   0.896   1.640  0.9576  0.0230  1.5207
 3781SOL    MW414892   5.248   0.813   1.651  0.1515  0.0683  0.0991
 3782SOL     OW14893   1.237   2.789   1.049  0.1793  0.5302  0.0258
 3782SOL    HW214894   1.299   2.842   1.000  0.1039  0.1603 -0.4787
 3782SOL    HW314895   1.291   2.720   1.089  0.1161  0.2817 -0.3109
 3782SOL    MW414896   1.252   2.787   1.048  0.1610  0.4486 -0.0852
 3783SOL     OW14897   3.791   3.892   2.409 -0.5809  0.1149 -0.2449
 3783SOL    HW214898   3.781   3.821   2.346 -1.0418  0.1458 -0.2052
 3783SOL    HW314899   3.790   3.971   2.355 -3.6173  0.3306 -0.0013
 3783SOL    MW414900   3.790   3.893   2.393 -1.0424  0.1474 -0.2075
 3784SOL     OW14901   5.443   4.953   0.697  0.0400 -0.0151  0.1715
 3784SOL    HW214902   5.430   4.892   0.769  2.3318 -1.1846 -0.3174
 3784SOL    HW314903   5.436   4.900   0.618 -0.4872  0.8695 -0.4004
 3784SOL    MW414904   5.441   4.938   0.696  0.2728 -0.0527  0.0316
 3785SOL     OW14905   0.033   4.427   2.610 -0.9540 -0.4127 -0.2744
 3785SOL    HW214906   0.102   4.419   2.675 -0.0908 -2.2607 -1.3760
 3785SOL    HW314907   0.078   4.431   2.526 -2.1462 -0.9228 -0.9670
 3785SOL    MW414908   0.048   4.427   2.607 -0.9974 -0.7238 -0.5111
 3786SOL     OW14909   2.220   0.906   0.882  0.4945 -0.4948  0.8457
 3786SOL    HW214910   2.305   0.903   0.925  1.2270 -1.8161 -0.5840
 3786SOL    HW314911   2.157   0.903   0.953  1.6451 -0.3989  1.8981
 3786SOL    MW414912   2.223   0.905   0.897  0.7429 -0.6565  0.7959
 3787SOL     OW14913   2.381   5.905   1.833 -0.0760  0.5697 -0.0953
 3787SOL    HW214914   2.288   5.900   1.810 -0.2723 -0.2909  0.8381
 3787SOL    HW314915   2.407   5.815   1.850  0.3197  1.0351  2.0096
 3787SOL    MW414916   2.372   5.893   1.832 -0.0497  0.5175  0.3056
 3788SOL     OW14917   2.576   3.655   0.741 -0.0494 -0.3617  0.3837
 3788SOL    HW214918   2.638   3.721   0.771 -0.8700 -0.0233  1.4086
 3788SOL    HW314919   2.571   3.668   0.646  1.6911 -0.6403  0.2306
 3788SOL    MW414920   2.583   3.665   0.732  0.0720 -0.3538  0.4987
 3789SOL     OW14921   3.630   1.141   0.959  0.6375 -0.9510 -0.0127
 3789SOL    HW214922   3.553   1.194   0.943 -1.1183 -3.3604 -0.0958
 3789SOL    HW314923   3.699   1.204   0.980 -1.1241  1.3296 -0.7014
 3789SOL    MW414924   3.629   1.156   0.960  0.1734 -0.9680 -0.1145
 3790SOL     OW14925   4.814   5.990   4.271  0.2654  0.9933 -0.0231
 3790SOL    HW214926   4.796   6.026   4.358 -2.1391 -1.4362  0.6416
 3790SOL    HW314927   4.727   5.972   4.234  1.1864 -2.4125 -0.9079
 3790SOL    MW414928   4.800   5.992   4.278  0.0697  0.2234 -0.0521
 3791SOL     OW14929   2.440   0.751   4.704  0.2020  0.0640  0.4292
 3791SOL    HW214930   2.509   0.695   4.668 -1.0438 -0.1143 -1.8926
 3791SOL    HW314931   2.456   0.837   4.667 -1.6542 -0.3328 -1.4950
 3791SOL    MW414932   2.451   0.755   4.695 -0.2073 -0.0118 -0.1310
 3792SOL     OW14933   2.735   5.130   4.692  0.4145 -0.6643 -0.3152
 3792SOL    HW214934   2.810   5.183   4.665 -0.8776  0.4402 -1.9574
 3792SOL    HW314935   2.741   5.051   4.640  0.5403 -0.6643 -0.3013
 3792SOL    MW414936   2.746   5.127   4.682  0.2606 -0.5186 -0.5300
 3793SOL     OW14937   2.244   1.699   0.504  0.0351 -0.1693  0.8988
 3793SOL    HW214938   2.206   1.626   0.456 -0.5439  1.0183 -0.5573
 3793SOL    HW314939   2.306   1.739   0.442 -0.6012  1.3173  1.1658
 3793SOL    MW414940   2.247   1.695   0.489 -0.1252  0.1836  0.7419
 3794SOL     OW14941   0.201   1.214   4.658 -0.7630 -0.4899 -0.1396
 3794SOL    HW214942   0.115   1.173   4.648 -1.3144  0.0785  1.7663
 3794SOL    HW314943   0.230   1.189   4.746  0.7282 -0.1158 -0.4851
 3794SOL    MW414944   0.194   1.205   4.668 -0.6390 -0.3655  0.0663
 3795SOL     OW14945   1.977   4.885   2.154 -0.4710 -0.0377  0.4608
 3795SOL    HW214946   1.998   4.883   2.247 -0.8436  0.0562  0.5492
 3795SOL    HW314947   1.896   4.937   2.149 -0.4463 -0.0340  0.0857
 3795SOL    MW414948   1.969   4.892   2.166 -0.5169 -0.0248  0.4230
 3796SOL     OW14949   1.615   2.911   2.122 -0.1669 -0.1576  0.0514
 3796SOL    HW214950   1.635   2.956   2.205 -2.8241  3.3279 -0.9428
 3796SOL    HW314951   1.682   2.943   2.061 -1.0264  1.2247 -0.2220
 3796SOL    MW414952   1.627   2.921   2.125 -0.6309  0.4846 -0.1158
 3797SOL     OW14953   2.539   5.324   1.242 -0.2160 -0.0717 -0.8374
 3797SOL    HW214954   2.578   5.237   1.254  0.0609  0.2975  1.3213
 3797SOL    HW314955   2.459   5.308   1.192  0.1355 -1.4839 -0.9962
 3797SOL    MW414956   2.534   5.310   1.237 -0.1331 -0.2093 -0.5735
 3798SOL     OW14957   0.382   5.213   0.406  0.0426 -0.7344  0.9791
 3798SOL    HW214958   0.469   5.219   0.446  0.0907 -0.7574  0.8788
 3798SOL    HW314959   0.371   5.121   0.384  0.0476 -0.7098  0.8711
 3798SOL    MW414960   0.392   5.202   0.409  0.0496 -0.7341  0.9516
 3799SOL     OW14961   1.302   5.368   4.404  0.0542  0.6075  0.4535
 3799SOL    HW214962   1.225   5.397   4.355 -0.2642  1.7534  1.5736
 3799SOL    HW314963   1.276   5.285   4.442 -0.1533  0.3485 -0.2271
 3799SOL    MW414964   1.288   5.361   4.402 -0.0152  0.7245  0.5115
 3800SOL     OW14965   5.363   2.354   6.079 -0.2936 -0.4808 -0.7407
 3800SOL    HW214966   5.333   2.303   6.004 -0.9381  0.8619 -1.4305
 3800SOL    HW314967   5.287   2.359   6.137  0.0355 -1.0454 -0.2551
 3800SOL    MW414968   5.349   2.348   6.077 -0.3352 -0.3781 -0.7677
 3801SOL     OW14969   2.118   6.227   5.581 -0.2600 -0.1274 -0.1460
 3801SOL    HW214970   2.043   6.286   5.594 -1.1993 -1.6375  2.0316
 3801SOL    HW314971   2.166   6.231   5.664  0.2878 -1.5380 -0.3675
 3801SOL    MW414972   2.114   6.235   5.594 -0.3116 -0.5128  0.1121
 3802SOL     OW14973   4.748   4.138   0.433  0.5744 -0.5034  0.3413
 3802SOL    HW214974   4.691   4.082   0.380  0.4460  0.5457 -0.6723
 3802SOL    HW314975   4.693   4.213   0.455  1.3767  0.2608 -0.1794
 3802SOL    MW414976   4.733   4.141   0.429  0.6633 -0.2641  0.1389
 3803SOL     OW14977   3.784   6.110   5.349 -0.2271 -0.0402 -0.7416
 3803SOL    HW214978   3.854   6.170   5.375 -0.8965  0.7039 -0.6064
 3803SOL    HW314979   3.707   6.142   5.396 -0.0532 -2.6776  1.5577
 3803SOL    MW414980   3.783   6.122   5.359 -0.2925 -0.2900 -0.4204
 3804SOL     OW14981   0.548   4.539   2.514  0.2393  0.0703 -0.3257
 3804SOL    HW214982   0.471   4.563   2.566  1.0596 -0.0683  1.0077
 3804SOL    HW314983   0.517   4.470   2.455 -1.1012  1.3234 -1.1739
 3804SOL    MW414984   0.534   4.533   2.513  0.1706  0.2173 -0.2617
 3805SOL     OW14985   4.393   2.322   1.060  0.0992  0.6844  0.1840
 3805SOL    HW214986   4.408   2.342   1.153  0.6530 -1.9644  0.7307
 3805SOL    HW314987   4.300   2.302   1.054  0.4691 -1.3134  0.6613
 3805SOL    MW414988   4.383   2.322   1.072  0.2211  0.0714  0.3191
 3806SOL     OW14989   1.445   1.071   6.357  0.1382  0.3343  0.2460
 3806SOL    HW214990   1.402   1.074   6.272 -1.0130  0.5162  0.8164
 3806SOL    HW314991   1.455   1.163   6.382  0.0009  0.2667  0.5452
 3806SOL    MW414992   1.441   1.083   6.349 -0.0318  0.3494  0.3607
 3807SOL     OW14993   5.875   3.637   0.671 -0.5054 -0.0658  0.2776
 3807SOL    HW214994   5.913   3.637   0.759 -0.2423 -0.6909  0.1701
 3807SOL    HW314995   5.910   3.558   0.630  0.3371  0.8642 -0.8242
 3807SOL    MW414996   5.884   3.626   0.678 -0.3596 -0.0256  0.1181
 3808SOL     OW14997   2.233   4.491   1.038  0.0229  0.0713  0.1369
 3808SOL    HW214998   2.283   4.512   1.116  1.1187 -1.0787 -0.2272
 3808SOL    HW314999   2.141   4.501   1.064  0.3657 -0.6083  1.6480
 3808SOL    MW415000   2.227   4.495   1.052  0.2127 -0.1701  0.2882
 3809SOL     OW15001   3.520   0.809   4.860  0.0362  0.0711 -0.2186
 3809SOL    HW215002   3.562   0.724   4.872 -0.8140 -0.4772 -0.9618
 3809SOL    HW315003   3.560   0.845   4.782  0.3811  0.3406  0.0842
 3809SOL    MW415004   3.531   0.802   4.851 -0.0305  0.0343 -0.2767
 3810SOL     OW15005   3.711   5.791   6.001 -0.3865 -0.4158  0.0464
 3810SOL    HW215006   3.767   5.866   6.023  0.0995 -0.6811 -0.2595
 3810SOL    HW315007   3.675   5.763   6.085 -2.0930  1.3137 -0.0199
 3810SOL    MW415008   3.714   5.798   6.015 -0.5475 -0.2226 -0.0027
 3811SOL     OW15009   0.133   3.687   0.063 -0.2827  0.1607 -0.0615
 3811SOL    HW215010   0.061   3.719   0.008 -1.5404  0.0344  1.4294
 3811SOL    HW315011   0.089   3.634   0.130  1.5544 -3.9572 -1.7549
 3811SOL    MW415012   0.117   3.684   0.064 -0.2062 -0.3993 -0.0882
 3812SOL     OW15013   4.819   5.283   2.709  0.0775 -0.2156 -0.2914
 3812SOL    HW215014   4.909   5.251   2.702  0.9586  1.8915  0.5469
 3812SOL    HW315015   4.828   5.377   2.728 -2.3049  0.0667 -0.2237
 3812SOL    MW415016   4.832   5.291   2.710 -0.1205  0.0996 -0.1719
 3813SOL     OW15017   3.170   4.357   0.018 -0.5869 -0.7938 -0.3467
 3813SOL    HW215018   3.145   4.338  -0.072 -0.3046 -2.5052 -0.1061
 3813SOL    HW315019   3.095   4.326   0.070 -0.6333 -0.0630  0.0303
 3813SOL    MW415020   3.157   4.351   0.013 -0.5557 -0.9231 -0.2652
 3814SOL     OW15021   1.795   0.905   5.571 -0.2686  0.1593 -0.2249
 3814SOL    HW215022   1.728   0.926   5.636  1.5085 -0.3420  1.8741
 3814SOL    HW315023   1.787   0.975   5.506 -0.6028  2.0745  1.7420
 3814SOL    MW415024   1.785   0.917   5.571 -0.0782  0.3459  0.3115
 3815SOL     OW15025   5.064   2.130   1.604 -0.0711  0.2999 -0.2996
 3815SOL    HW215026   4.983   2.080   1.615  0.7262 -0.5908  2.6275
 3815SOL    HW315027   5.049   2.211   1.653  0.9902 -0.1812  0.8766
 3815SOL    MW415028   5.051   2.134   1.612  0.1741  0.1189  0.2418
 3816SOL     OW15029   2.968   1.249   6.038  0.0135  0.4919 -0.0403
 3816SOL    HW215030   3.006   1.314   6.097 -0.5838  0.5280  0.3191
 3816SOL    HW315031   3.041   1.191   6.016 -0.1185 -0.8200  2.4922
 3816SOL    MW415032   2.983   1.250   6.043 -0.0827  0.3236  0.3412
 3817SOL     OW15033   4.832   5.163   0.492  0.4514 -0.1269  0.2225
 3817SOL    HW215034   4.845   5.249   0.451 -0.9605  0.8360  1.7030
 3817SOL    HW315035   4.912   5.148   0.541  0.8910  0.1293 -0.3938
 3817SOL    MW415036   4.844   5.173   0.493  0.3231  0.0339  0.3365
 3818SOL     OW15037   2.298   6.027   3.291 -0.0174 -0.5872  0.3013
 3818SOL    HW215038   2.335   6.029   3.203  0.6046 -1.1663  0.5528
 3818SOL    HW315039   2.341   6.099   3.337  0.2376 -0.7833  0.3686
 3818SOL    MW415040   2.308   6.037   3.286  0.0983 -0.6895  0.3434
 3819SOL     OW15041   5.250   1.500   0.635 -0.3115 -0.1230 -0.1866
 3819SOL    HW215042   5.220   1.433   0.573  1.1210 -0.7637 -0.2107
 3819SOL    HW315043   5.184   1.569   0.628 -0.4072 -0.3415 -2.1585
 3819SOL    MW415044   5.237   1.501   0.626 -0.1351 -0.2364 -0.4499
 3820SOL     OW15045   2.825   0.339   5.912 -0.2634 -0.7929  0.0450
 3820SOL    HW215046   2.902   0.384   5.945 -0.1922 -1.5151  0.9123
 3820SOL    HW315047   2.810   0.375   5.825 -1.1399  2.0406  1.2657
 3820SOL    MW415048   2.833   0.349   5.905 -0.3696 -0.5143  0.3205
 3821SOL     OW15049   3.759   0.678   2.334  0.1482 -0.4303  0.0871
 3821SOL    HW215050   3.681   0.732   2.346 -0.9136 -1.4308 -1.8605
 3821SOL    HW315051   3.774   0.678   2.239  2.8920  0.1966  0.4243
 3821SOL    MW415052   3.751   0.685   2.323  0.3701 -0.4796 -0.1254
 3822SOL     OW15053   3.898   2.010   2.769 -0.5153  0.5462  0.2502
 3822SOL    HW215054   3.925   2.086   2.820  0.3964 -0.2949  1.0811
 3822SOL    HW315055   3.967   1.945   2.786 -0.6935 -0.0861 -1.3120
 3822SOL    MW415056   3.911   2.011   2.778 -0.4185  0.3518  0.1537
 3823SOL     OW15057   0.186   2.350   2.319  0.4818  0.1993 -0.0214
 3823SOL    HW215058   0.118   2.340   2.385  0.1621  1.7149 -0.0871
 3823SOL    HW315059   0.144   2.322   2.237 -0.0656  1.0834 -0.0543
 3823SOL    MW415060   0.172   2.345   2.317  0.3674  0.5159 -0.0344
 3824SOL     OW15061   5.483   3.147   4.497 -0.0388 -0.5563  0.0047
 3824SOL    HW215062   5.550   3.145   4.566  1.8318  0.9204 -1.6525
 3824SOL    HW315063   5.453   3.238   4.495  0.6282 -0.3418 -1.7044
 3824SOL    MW415064   5.488   3.159   4.506  0.2960 -0.3331 -0.4394
 3825SOL     OW15065   2.574   1.175   0.925  0.0981 -0.3331  0.0455
 3825SOL    HW215066   2.642   1.136   0.871  0.0349  0.4036 -0.5988
 3825SOL    HW315067   2.507   1.202   0.862  0.6951  1.9356  0.2884
 3825SOL    MW415068   2.574   1.174   0.909  0.1685  0.0634 -0.0075
 3826SOL     OW15069   2.010   4.576   2.462 -0.1522  0.7106 -0.1984
 3826SOL    HW215070   2.065   4.551   2.387  0.2791  0.2685  0.2647
 3826SOL    HW315071   1.924   4.538   2.443  0.1121  0.1022 -0.1923
 3826SOL    MW415072   2.006   4.568   2.449 -0.0604  0.5720 -0.1365
 3827SOL     OW15073   2.092   3.252   0.956  0.0085 -0.1105 -0.3937
 3827SOL    HW215074   2.076   3.317   0.889 -3.6858 -0.9249 -0.5038
 3827SOL    HW315075   2.107   3.170   0.907 -1.6916 -0.5075 -0.3052
 3827SOL    MW415076   2.092   3.250   0.941 -0.7032 -0.2703 -0.3965
 3828SOL     OW15077   0.896   3.748   0.622 -0.1384  0.0798  0.2491
 3828SOL    HW215078   0.848   3.734   0.704 -1.4190 -2.1275 -0.7921
 3828SOL    HW315079   0.830   3.778   0.560  0.1444 -1.1853 -0.7208
 3828SOL    MW415080   0.881   3.750   0.625 -0.2701 -0.3783 -0.0163
 3829SOL     OW15081   3.803   2.625   2.948 -0.0602 -0.4277 -0.3767
 3829SOL    HW215082   3.788   2.719   2.954 -0.5740 -0.5336  0.1529
 3829SOL    HW315083   3.819   2.597   3.039  0.7356 -0.7508 -0.6045
 3829SOL    MW415084   3.803   2.633   2.961 -0.0230 -0.4843 -0.3369
 3830SOL     OW15085   4.882   4.143   4.867 -0.3288  0.1463 -0.2788
 3830SOL    HW215086   4.807   4.166   4.923  0.0683  0.3525  0.1812
 3830SOL    HW315087   4.956   4.139   4.928 -0.0802 -0.6744 -0.6306
 3830SOL    MW415088   4.882   4.146   4.883 -0.2436  0.0652 -0.2645
 3831SOL     OW15089   3.257   4.928   2.446 -0.1121 -0.2521 -0.2947
 3831SOL    HW215090   3.303   4.934   2.362 -0.9444 -0.0120 -0.7443
 3831SOL    HW315091   3.255   5.018   2.479 -1.3215 -0.0532 -0.8685
 3831SOL    MW415092   3.263   4.941   2.439 -0.3815 -0.1942 -0.4297
 3832SOL     OW15093   0.370   4.237   1.222 -0.2807  0.1494  0.4928
 3832SOL    HW215094   0.331   4.253   1.308  0.6546 -0.8559  1.1441
 3832SOL    HW315095   0.382   4.142   1.218  0.7589  0.2813 -0.2530
 3832SOL    MW415096   0.367   4.227   1.233 -0.0201  0.0341  0.4803
 3833SOL     OW15097   1.902   1.817   3.921  0.0744  0.0905  0.1367
 3833SOL    HW215098   1.809   1.825   3.942 -0.3614 -0.4593 -1.4114
 3833SOL    HW315099   1.946   1.818   4.005 -1.3658 -0.0297  0.9240
 3833SOL    MW415100   1.896   1.818   3.935 -0.1732  0.0021  0.0363
 3834SOL     OW15101   2.967   0.248   0.975 -0.5171  0.0940 -0.1252
 3834SOL    HW215102   2.974   0.336   0.937 -0.0334 -0.3170 -1.0145
 3834SOL    HW315103   2.967   0.189   0.900 -0.9807 -0.6683  0.4587
 3834SOL    MW415104   2.968   0.252   0.961 -0.5144 -0.0608 -0.1655
 3835SOL     OW15105   3.090   6.242   3.995 -0.3434 -0.8436 -0.2187
 3835SOL    HW215106   3.185   6.257   3.996 -0.5237  0.4191 -0.3320
 3835SOL    HW315107   3.079   6.159   4.042  0.7038 -0.2579  1.1501
 3835SOL    MW415108   3.101   6.233   4.002 -0.2291 -0.5998 -0.0531
 3836SOL     OW15109   0.626   3.047   1.123 -0.0800 -0.2075  0.6484
 3836SOL    HW215110   0.716   3.052   1.153  0.7833  1.5583 -1.8642
 3836SOL    HW315111   0.633   3.037   1.028 -2.5234 -0.1252  0.3927
 3836SOL    MW415112   0.639   3.046   1.114 -0.2885  0.0363  0.2832
 3837SOL     OW15113   1.441   2.130   3.299  0.1782  0.1710  0.1330
 3837SOL    HW215114   1.528   2.130   3.261 -0.0210 -1.3101 -0.3899
 3837SOL    HW315115   1.442   2.201   3.363  1.4028  0.8797 -0.6554
 3837SOL    MW415116   1.452   2.139   3.303  0.3135  0.0691 -0.0400
 3838SOL     OW15117   5.069   2.037   5.976  0.1048  0.3349 -0.5773
 3838SOL    HW215118   5.121   2.100   5.926 -2.0256  4.0116  1.4289
 3838SOL    HW315119   4.981   2.042   5.939 -0.0080 -2.2105 -0.8565
 3838SOL    MW415120   5.065   2.046   5.965 -0.1911  0.4842 -0.3495
 3839SOL     OW15121   0.349   0.989   1.338 -0.6199 -0.2712 -0.5653
 3839SOL    HW215122   0.371   1.050   1.409  0.1373 -1.2999  0.1229
 3839SOL    HW315123   0.398   0.910   1.360 -0.7529 -0.7666 -2.0067
 3839SOL    MW415124   0.358   0.987   1.351 -0.5376 -0.4723 -0.6647
 3840SOL     OW15125   3.679   5.655   0.631  0.3572  0.1806  0.3562
 3840SOL    HW215126   3.679   5.744   0.668 -3.7550  0.6244 -0.2781
 3840SOL    HW315127   3.617   5.607   0.685 -1.8245 -0.6182 -2.6096
 3840SOL    MW415128   3.671   5.661   0.643 -0.4732  0.1338 -0.1188
 3841SOL     OW15129   3.199   5.305   6.402  0.1986  0.3221 -0.7067
 3841SOL    HW215130   3.117   5.312   6.451  0.0643  0.5686 -0.9666
 3841SOL    HW315131   3.239   5.224   6.434 -0.7145 -0.4537 -1.4241
 3841SOL    MW415132   3.193   5.295   6.412  0.0604  0.2523 -0.8356
 3842SOL     OW15133   1.084   4.463   5.365  0.0714  0.2739 -0.4123
 3842SOL    HW215134   1.049   4.528   5.304 -2.0246  0.4686  0.8833
 3842SOL    HW315135   1.078   4.380   5.318 -2.0547  0.3399 -0.3513
 3842SOL    MW415136   1.079   4.461   5.351 -0.4856  0.3083 -0.2333
 3843SOL     OW15137   5.457   6.344   2.414 -0.7290 -0.7768  0.5168
 3843SOL    HW215138   5.531   6.301   2.371 -0.4355 -0.4106  0.6481
 3843SOL    HW315139   5.406   6.272   2.451 -1.1659 -1.1200 -0.7004
 3843SOL    MW415140   5.460   6.329   2.413 -0.7479 -0.7738  0.3736
 3844SOL     OW15141   3.559   1.736   2.677 -0.2794 -0.1072 -0.5300
 3844SOL    HW215142   3.465   1.750   2.670 -0.1201  1.6046  0.2085
 3844SOL    HW315143   3.576   1.738   2.771  0.1737 -3.1032 -0.4630
 3844SOL    MW415144   3.549   1.738   2.689 -0.1986 -0.2766 -0.4237
 3845SOL     OW15145   5.458   4.286   2.270 -0.6311 -0.0170  0.1903
 3845SOL    HW215146   5.476   4.228   2.345  0.0017  0.2161  0.2313
 3845SOL    HW315147   5.406   4.358   2.307 -2.3561 -1.0773 -0.0721
 3845SOL    MW415148   5.454   4.288   2.285 -0.7752 -0.1261  0.1611
 3846SOL     OW15149   1.138   0.028   0.639  0.0241  0.2842  0.4308
 3846SOL    HW215150   1.096  -0.050   0.677 -0.3574  0.8349  1.1689
 3846SOL    HW315151   1.073   0.062   0.577  0.5260 -0.4438 -0.5198
 3846SOL    MW415152   1.124   0.022   0.636  0.0400  0.2608  0.4028
 3847SOL     OW15153   2.319   2.205   1.512  0.1118 -0.4378 -0.1863
 3847SOL    HW215154   2.332   2.239   1.423 -3.5150  0.0978 -0.6757
 3847SOL    HW315155   2.310   2.283   1.566  0.0518 -0.7381  0.2410
 3847SOL    MW415156   2.320   2.220   1.507 -0.3747 -0.4067 -0.1945
 3848SOL     OW15157   2.213   5.494   2.256 -0.2824 -0.4047 -0.4347
 3848SOL    HW215158   2.140   5.437   2.281  0.5487 -0.1997  2.8207
 3848SOL    HW315159   2.289   5.456   2.300  0.9157  1.4205 -0.8224
 3848SOL    MW415160   2.214   5.481   2.265 -0.0146 -0.1368 -0.0563
 3849SOL     OW15161   5.672   2.385   5.924  0.6166  0.7748  0.0872
 3849SOL    HW215162   5.715   2.305   5.953 -0.7035 -0.1085 -0.3156
 3849SOL    HW315163   5.619   2.413   5.999 -0.0039  0.4894 -0.2399
 3849SOL    MW415164   5.671   2.378   5.938  0.3606  0.6206 -0.0091
 3850SOL     OW15165   2.737   3.464   3.233 -0.4751 -0.2800 -0.0839
 3850SOL    HW215166   2.761   3.556   3.236 -0.1408 -0.3717  2.7585
 3850SOL    HW315167   2.676   3.458   3.159 -0.9725  2.3089  0.0121
 3850SOL    MW415168   2.732   3.475   3.223 -0.4966  0.0494  0.3038
 3851SOL     OW15169   3.659   5.441   1.478 -0.1717 -0.0029 -0.3932
 3851SOL    HW215170   3.671   5.532   1.453 -1.0287 -0.0397 -0.9887
 3851SOL    HW315171   3.711   5.392   1.414 -1.4047 -0.0282 -1.4253
 3851SOL    MW415172   3.668   5.446   1.466 -0.4474 -0.0111 -0.6080
 3852SOL     OW15173   2.017   2.094   4.898  0.1778  0.3846 -0.1513
 3852SOL    HW215174   1.980   2.110   4.984  2.0012 -0.5583  0.8620
 3852SOL    HW315175   1.982   2.165   4.843 -1.1086  0.9189  1.2957
 3852SOL    MW415176   2.007   2.106   4.902  0.2486  0.3307  0.1733
 3853SOL     OW15177   0.354   4.360   4.863 -0.5842  0.0794  0.7798
 3853SOL    HW215178   0.305   4.324   4.789  1.8925 -1.9000 -0.0478
 3853SOL    HW315179   0.411   4.427   4.824  0.0517 -0.3023  1.0300
 3853SOL    MW415180   0.355   4.364   4.848 -0.1736 -0.2322  0.7036
 3854SOL     OW15181   4.467   6.189   4.121  0.3100 -0.0969 -0.0994
 3854SOL    HW215182   4.495   6.098   4.122  1.0602  0.1126 -1.0115
 3854SOL    HW315183   4.531   6.235   4.175  0.2014 -0.0416 -0.0175
 3854SOL    MW415184   4.479   6.183   4.128  0.3947 -0.0620 -0.2089
 3855SOL     OW15185   4.995   0.473   1.552 -0.1832 -0.1173  0.4759
 3855SOL    HW215186   5.084   0.453   1.523  0.4978 -0.2228  2.4412
 3855SOL    HW315187   4.993   0.568   1.559 -1.0494  0.0895 -1.8633
 3855SOL    MW415188   5.007   0.483   1.549 -0.2076 -0.1039  0.4266
 3856SOL     OW15189   0.707   2.504   2.884  0.2125 -0.3703  0.1748
 3856SOL    HW215190   0.769   2.569   2.916 -0.9557  1.4764 -1.1861
 3856SOL    HW315191   0.701   2.440   2.956  1.5384  0.8929  1.4771
 3856SOL    MW415192   0.714   2.504   2.898  0.2333  0.0400  0.1671
 3857SOL     OW15193   1.810   0.838   6.391 -0.0961 -0.3303  0.0803
 3857SOL    HW215194   1.824   0.749   6.359 -1.0397 -0.0101 -1.3229
 3857SOL    HW315195   1.807   0.892   6.312 -3.3759  0.4019  0.5523
 3857SOL    MW415196   1.811   0.833   6.376 -0.6533 -0.1914 -0.0425
 3858SOL     OW15197   0.200   5.285   5.073  0.1997 -0.9717 -0.6316
 3858SOL    HW215198   0.154   5.367   5.089 -1.3190 -1.2906 -2.8366
 3858SOL    HW315199   0.204   5.242   5.158 -1.5724  0.1444  0.0627
 3858SOL    MW415200   0.194   5.290   5.086 -0.2345 -0.8665 -0.8309
 3859SOL     OW15201   3.029   4.997   4.568  0.4975 -0.5304  0.7623
 3859SOL    HW215202   2.968   4.924   4.557  1.1204 -0.9627 -0.0049
 3859SOL    HW315203   3.021   5.047   4.486  0.1909  0.1749  1.2181
 3859SOL    MW415204   3.020   4.994   4.556  0.5392 -0.4943  0.7212
 3860SOL     OW15205   3.388   1.305   6.336  0.1047 -0.3886  0.1004
 3860SOL    HW215206   3.461   1.319   6.396 -0.0135  0.7691 -0.0042
 3860SOL    HW315207   3.314   1.285   6.392  0.0174  0.5872  0.3580
 3860SOL    MW415208   3.388   1.304   6.351  0.0776 -0.1071  0.1206
 3861SOL     OW15209   0.204   1.878   4.549  0.0650  0.2078  0.5026
 3861SOL    HW215210   0.267   1.812   4.523 -0.2950  0.3115 -0.6936
 3861SOL    HW315211   0.149   1.835   4.614  0.8405 -0.1356  0.9433
 3861SOL    MW415212   0.205   1.864   4.554  0.1199  0.1762  0.4029
 3862SOL     OW15213   3.812   4.870   4.228  0.4443 -0.4050 -0.1699
 3862SOL    HW215214   3.837   4.837   4.314  0.7321 -0.5669 -0.3141
 3862SOL    HW315215   3.743   4.811   4.198 -0.8505  0.6298  0.6600
 3862SOL    MW415216   3.806   4.858   4.235  0.3114 -0.2899 -0.0794
 3863SOL     OW15217   3.488   0.328   1.011 -0.0567 -0.0628  0.2869
 3863SOL    HW215218   3.522   0.397   1.068  0.8867 -0.9055  0.7955
 3863SOL    HW315219   3.549   0.255   1.024 -1.1539 -1.0666 -0.0597
 3863SOL    MW415220   3.501   0.327   1.020 -0.0770 -0.3064  0.3082
 3864SOL     OW15221   0.991   4.076   3.091  0.0694  0.1238  0.2781
 3864SOL    HW215222   1.042   4.092   3.170  1.0047  1.1216 -0.4961
 3864SOL    HW315223   0.925   4.013   3.117  1.0111 -0.3527  1.5932
 3864SOL    MW415224   0.989   4.070   3.105  0.3170  0.1926  0.3495
 3865SOL     OW15225   1.851   1.374   2.882 -0.4150  0.4634 -0.4822
 3865SOL    HW215226   1.923   1.435   2.870 -0.7869  1.2928  1.0973
 3865SOL    HW315227   1.790   1.421   2.939  0.4182 -2.2192  2.9649
 3865SOL    MW415228   1.852   1.388   2.888 -0.3541  0.2189  0.1810
 3866SOL     OW15229   0.586   3.420   1.916  0.1805 -0.4713  0.0374
 3866SOL    HW215230   0.526   3.476   1.866  1.6552 -0.8744 -2.3303
 3866SOL    HW315231   0.567   3.332   1.886  0.6484 -0.8148  0.7290
 3866SOL    MW415232   0.576   3.416   1.905  0.4368 -0.5698 -0.1837
 3867SOL     OW15233   4.566   1.390   3.405 -0.4529 -0.0855  0.1554
 3867SOL    HW215234   4.578   1.333   3.481 -1.5649 -0.9709 -0.2858
 3867SOL    HW315235   4.652   1.394   3.364  0.3133  0.8967  1.7715
 3867SOL    MW415236   4.579   1.383   3.410 -0.4985 -0.0727  0.3104
 3868SOL     OW15237   3.856   1.125   3.577  0.3566  0.3607  0.4524
 3868SOL    HW215238   3.906   1.146   3.655 -2.1226 -0.1358  2.3374
 3868SOL    HW315239   3.880   1.034   3.556  0.9315  0.4530  0.7128
 3868SOL    MW415240   3.865   1.116   3.584  0.1054  0.3074  0.7355
 3869SOL     OW15241   5.362   1.911   4.086 -0.1131 -0.0312  0.2415
 3869SOL    HW215242   5.430   1.846   4.102 -0.2595 -0.8559 -2.0448
 3869SOL    HW315243   5.408   1.987   4.051 -0.2056  0.0446  0.2836
 3869SOL    MW415244   5.377   1.912   4.084 -0.1446 -0.1300 -0.0546
 3870SOL     OW15245   1.158   4.413   1.210 -0.6025  0.2634 -0.0854
 3870SOL    HW215246   1.173   4.489   1.154  0.4527 -0.6564 -1.1004
 3870SOL    HW315247   1.239   4.406   1.262  0.2836 -1.4413 -1.5968
 3870SOL    MW415248   1.171   4.422   1.209 -0.3463 -0.0829 -0.4188
 3871SOL     OW15249   3.935   0.010   5.101 -0.4201 -0.1070 -0.0043
 3871SOL    HW215250   3.860   0.066   5.084 -2.2214 -2.0449  1.0682
 3871SOL    HW315251   3.948  -0.039   5.020 -0.0529  0.4861 -0.3114
 3871SOL    MW415252   3.927   0.011   5.088 -0.6093 -0.2845  0.0967
 3872SOL     OW15253   5.369   4.753   4.043 -0.4145  0.3184 -0.5863
 3872SOL    HW215254   5.426   4.684   4.009  0.3120  0.7312 -0.2144
 3872SOL    HW315255   5.385   4.754   4.137 -1.5403 -0.0061 -0.3683
 3872SOL    MW415256   5.378   4.744   4.051 -0.4672  0.3300 -0.5085
 3873SOL     OW15257   0.496   5.853   1.336 -0.2639 -0.0352  0.1508
 3873SOL    HW215258   0.536   5.871   1.251 -2.2806  0.8530 -0.6691
 3873SOL    HW315259   0.426   5.790   1.318 -0.3617 -0.2788  1.2535
 3873SOL    MW415260   0.492   5.847   1.323 -0.5429  0.0498  0.1881
 3874SOL     OW15261   2.273   3.536   0.187  0.2450  0.4801 -0.6729
 3874SOL    HW215262   2.333   3.485   0.132 -0.6002 -1.0863 -0.1880
 3874SOL    HW315263   2.298   3.513   0.277  1.5884  2.9816 -0.2844
 3874SOL    MW415264   2.284   3.526   0.192  0.3107  0.6035 -0.5576
 3875SOL     OW15265   0.267   3.075   3.183  0.1351 -0.4564  0.2434
 3875SOL    HW215266   0.266   3.148   3.245  3.1630  1.6318 -1.9114
 3875SOL    HW315267   0.303   3.002   3.234  1.7729  0.9572  1.2162
 3875SOL    MW415268   0.271   3.075   3.198  0.7507  0.0056  0.0875
 3876SOL     OW15269   2.905   6.127   4.764  0.2320 -0.1324 -0.4748
 3876SOL    HW215270   2.951   6.125   4.681  0.2733  1.0690 -0.4979
 3876SOL    HW315271   2.843   6.199   4.756  1.1067  0.8391  0.9794
 3876SOL    MW415272   2.903   6.136   4.752  0.3529  0.1543 -0.2860
 3877SOL     OW15273   6.404   1.376   3.570  0.0389 -0.7952  0.4400
 3877SOL    HW215274   6.339   1.390   3.501  1.7828  0.6653 -1.0147
 3877SOL    HW315275   6.378   1.436   3.640 -0.5874 -0.8073  0.2276
 3877SOL    MW415276   6.392   1.386   3.570  0.1863 -0.6041  0.2201
 3878SOL     OW15277   1.469   1.886   0.427 -0.1025  0.0264  0.7521
 3878SOL    HW215278   1.539   1.926   0.479  1.2810  2.4718 -2.6377
 3878SOL    HW315279   1.411   1.958   0.405 -1.8745 -1.3524  0.6956
 3878SOL    MW415280   1.471   1.901   0.431 -0.1538  0.1671  0.2974
 3879SOL     OW15281   0.795   5.221   0.679 -0.2241  0.1190  0.6662
 3879SOL    HW215282   0.862   5.152   0.674 -0.4288  0.0150 -1.1040
 3879SOL    HW315283   0.841   5.297   0.714  0.4779 -0.3582  0.7931
 3879SOL    MW415284   0.810   5.222   0.683 -0.1585  0.0423  0.4494
 3880SOL     OW15285   0.932   3.108   4.620  0.9912  0.5974  0.3971
 3880SOL    HW215286   0.971   3.194   4.635 -0.6872  1.4857 -0.0766
 3880SOL    HW315287   0.845   3.113   4.659  1.1022 -1.1494  0.9843
 3880SOL    MW415288   0.925   3.120   4.627  0.7844  0.4841  0.4121
 3881SOL     OW15289   1.764   1.835   5.527 -0.3675  0.3646 -0.1781
 3881SOL    HW215290   1.794   1.799   5.443 -0.0631 -1.4447  0.6613
 3881SOL    HW315291   1.782   1.766   5.590  1.5691  2.5251  1.8310
 3881SOL    MW415292   1.770   1.821   5.524 -0.0718  0.4110  0.1978
 3882SOL     OW15293   5.968   4.369   0.968  0.1576 -0.1886 -0.1481
 3882SOL    HW215294   5.987   4.283   1.005 -1.1485 -0.2448  0.4736
 3882SOL    HW315295   5.893   4.354   0.909 -0.2045  0.5451  0.1081
 3882SOL    MW415296   5.960   4.356   0.965 -0.0625 -0.0992 -0.0323
 3883SOL     OW15297   5.565   5.234   2.718 -0.8855 -0.0351 -0.7534
 3883SOL    HW215298   5.626   5.288   2.667 -2.2098  0.5392 -1.7882
 3883SOL    HW315299   5.564   5.273   2.805  1.5902 -1.1599 -0.1210
 3883SOL    MW415300   5.573   5.246   2.722 -0.7336 -0.1077 -0.8065
 3884SOL     OW15301   5.349   1.636   6.034  0.5437 -0.0556  0.2475
 3884SOL    HW215302   5.328   1.560   6.088 -2.2563  2.1896  2.6353
 3884SOL    HW315303   5.419   1.681   6.082  1.4099 -0.4530 -0.5889
 3884SOL    MW415304   5.356   1.632   6.048  0.2885  0.1882  0.4522
 3885SOL     OW15305   3.677   4.929   6.382  0.3781  0.5414  0.4239
 3885SOL    HW215306   3.735   4.919   6.307 -0.6489  1.8242 -0.5822
 3885SOL    HW315307   3.656   5.022   6.385  0.6223  0.5895  2.5135
 3885SOL    MW415308   3.682   4.940   6.373  0.2748  0.7170  0.5669
 3886SOL     OW15309   6.176   0.813   2.606  0.2615  0.2882  0.2695
 3886SOL    HW215310   6.174   0.906   2.626  1.0169  1.0245 -2.6229
 3886SOL    HW315311   6.218   0.773   2.682 -0.3547  2.2336  1.7084
 3886SOL    MW415312   6.181   0.820   2.618  0.2799  0.6420  0.0777
 3887SOL     OW15313   5.568   0.976   3.582  0.3050 -0.3966 -0.6665
 3887SOL    HW215314   5.491   0.953   3.634  1.0455 -0.2937  0.5015
 3887SOL    HW315315   5.586   1.067   3.606  0.6183 -0.3268 -1.1587
 3887SOL    MW415316   5.560   0.985   3.592  0.4440 -0.3738 -0.5774
 3888SOL     OW15317   1.684   0.865   2.396  0.3368  0.1294 -0.1004
 3888SOL    HW215318   1.633   0.935   2.437  0.5160  2.2927 -3.2041
 3888SOL    HW315319   1.773   0.899   2.392  0.5484 -0.4881 -1.1499
 3888SOL    MW415320   1.689   0.879   2.400  0.3883  0.3334 -0.6483
 3889SOL     OW15321   4.647   0.761   0.936 -0.4469  0.4685 -0.3862
 3889SOL    HW215322   4.562   0.793   0.906 -0.9122  0.6261  1.0087
 3889SOL    HW315323   4.640   0.762   1.032  1.4614  1.4301 -0.2143
 3889SOL    MW415324   4.635   0.766   0.945 -0.2565  0.6162 -0.1795
 3890SOL     OW15325   2.351   2.605   2.867  0.1928  0.5312  0.2584
 3890SOL    HW215326   2.264   2.615   2.828  0.0273 -3.7913 -1.0679
 3890SOL    HW315327   2.334   2.599   2.961 -1.3780 -2.1359 -0.0798
 3890SOL    MW415328   2.337   2.605   2.874 -0.0363 -0.3910  0.0388
 3891SOL     OW15329   1.195   5.408   0.263 -0.2723 -0.1946 -0.0402
 3891SOL    HW215330   1.164   5.406   0.173  1.1564  1.0244 -0.5833
 3891SOL    HW315331   1.166   5.492   0.297 -0.8133 -0.6496  0.6625
 3891SOL    MW415332   1.187   5.419   0.256 -0.1552 -0.0938 -0.0191
 3892SOL     OW15333   2.361   1.513   2.346 -0.2625 -0.0582 -0.2428
 3892SOL    HW215334   2.363   1.599   2.304 -1.4829 -1.1911 -2.8357
 3892SOL    HW315335   2.268   1.491   2.349 -0.2891 -0.0580  3.2935
 3892SOL    MW415336   2.349   1.522   2.341 -0.4270 -0.2077 -0.1183
 3893SOL     OW15337   0.766   0.650   2.150 -0.3306  0.4015  0.6270
 3893SOL    HW215338   0.851   0.622   2.184 -0.9171 -1.7341  0.4309
 3893SOL    HW315339   0.749   0.593   2.076 -2.3996  0.0708  1.2928
 3893SOL    MW415340   0.775   0.639   2.145 -0.6810  0.0761  0.6890
 3894SOL     OW15341   1.410   4.674   5.403 -0.1053  0.3288  0.2166
 3894SOL    HW215342   1.397   4.604   5.339 -0.5433  0.7858 -0.2098
 3894SOL    HW315343   1.345   4.740   5.378  1.6588  1.8082 -0.6796
 3894SOL    MW415344   1.399   4.673   5.391  0.0697  0.5843  0.0421
 3895SOL     OW15345   5.955   0.233   2.667  0.0227 -0.1339  0.5474
 3895SOL    HW215346   5.894   0.306   2.657  0.0894 -0.2888 -1.1783
 3895SOL    HW315347   5.899   0.157   2.680 -0.2482 -0.3723 -1.6252
 3895SOL    MW415348   5.940   0.233   2.668 -0.0042 -0.1858  0.0331
 3896SOL     OW15349   3.694   0.804   5.552 -0.0356 -0.2605  0.2090
 3896SOL    HW215350   3.774   0.818   5.503  0.9197  0.0694  1.8082
 3896SOL    HW315351   3.655   0.891   5.561 -0.3586 -0.3597 -0.1807
 3896SOL    MW415352   3.699   0.817   5.547  0.0478 -0.2300  0.3686
 3897SOL     OW15353   5.975   3.178   2.768 -0.5975  0.0065  0.0059
 3897SOL    HW215354   5.977   3.089   2.734  0.7153 -0.0666  0.2124
 3897SOL    HW315355   6.045   3.223   2.721  0.3277  0.2670  1.5554
 3897SOL    MW415356   5.985   3.172   2.758 -0.3022  0.0312  0.2376
 3898SOL     OW15357   3.346   2.163   2.316  0.4810 -0.3893  0.0897
 3898SOL    HW215358   3.441   2.148   2.322  0.3114 -1.1104  1.1266
 3898SOL    HW315359   3.321   2.192   2.403 -0.3866 -0.9979  0.0494
 3898SOL    MW415360   3.355   2.165   2.328  0.3441 -0.5647  0.2212
 3899SOL     OW15361   0.721   0.387   2.287  0.4739  0.5032  0.2102
 3899SOL    HW215362   0.732   0.482   2.277  0.5164  0.3694 -1.2832
 3899SOL    HW315363   0.789   0.361   2.348  2.3210  1.0639 -1.4993
 3899SOL    MW415364   0.731   0.396   2.294  0.7232  0.5596 -0.2124
 3900SOL     OW15365   2.845   1.736   1.850 -0.3405 -0.4645 -0.2129
 3900SOL    HW215366   2.769   1.716   1.905 -0.6907  2.2033  0.4278
 3900SOL    HW315367   2.812   1.800   1.786  1.3848  1.0073  0.2732
 3900SOL    MW415368   2.831   1.742   1.849 -0.1591  0.0817 -0.0642
 3901SOL     OW15369   6.238   2.514   3.016  0.3910  0.0977 -0.2333
 3901SOL    HW215370   6.176   2.441   3.012 -0.4121  0.7944 -1.2584
 3901SOL    HW315371   6.260   2.522   3.109 -2.3279  0.7999  0.4591
 3901SOL    MW415372   6.233   2.506   3.028 -0.0737  0.2823 -0.2772
 3902SOL     OW15373   3.538   4.548   3.908 -0.0923 -0.4485 -0.1777
 3902SOL    HW215374   3.590   4.595   3.843  1.5092  0.8657  1.9302
 3902SOL    HW315375   3.452   4.590   3.906 -0.4689 -1.1861 -2.1543
 3902SOL    MW415376   3.533   4.560   3.899  0.0693 -0.3724 -0.1604
 3903SOL     OW15377   3.162   5.185   3.634  0.2305 -0.1130 -0.1269
 3903SOL    HW215378   3.185   5.277   3.631  1.0777 -0.3383 -1.1363
 3903SOL    HW315379   3.214   5.149   3.707  1.8836 -0.2830 -1.3427
 3903SOL    MW415380   3.172   5.192   3.644  0.5604 -0.1652 -0.4205
 3904SOL     OW15381   2.206   3.635   4.035 -0.3915  0.0937 -0.0606
 3904SOL    HW215382   2.299   3.651   4.051 -0.1647 -0.5308 -0.7506
 3904SOL    HW315383   2.162   3.669   4.114  0.4206  0.3291  0.2943
 3904SOL    MW415384   2.212   3.642   4.048 -0.2544  0.0424 -0.1048
 3905SOL     OW15385   4.260   3.535   5.336 -0.3487 -0.2891  0.1759
 3905SOL    HW215386   4.281   3.605   5.274 -1.2089  0.5193  0.7687
 3905SOL    HW315387   4.188   3.488   5.296 -0.1251 -0.5053  0.0250
 3905SOL    MW415388   4.253   3.538   5.323 -0.4327 -0.2110  0.2342
 3906SOL     OW15389   2.095   1.654   6.243 -0.0007  0.1854 -0.0619
 3906SOL    HW215390   2.186   1.686   6.245  0.1534 -0.1793 -0.8886
 3906SOL    HW315391   2.104   1.559   6.240 -0.4496  0.0324  1.9087
 3906SOL    MW415392   2.108   1.646   6.243 -0.0396  0.1171  0.0890
 3907SOL     OW15393   4.145   2.271   0.937  0.2565  0.2991 -0.3297
 3907SOL    HW215394   4.093   2.233   0.866  0.2519 -1.9347  0.7690
 3907SOL    HW315395   4.120   2.220   1.014  2.8660  0.2330  0.5595
 3907SOL    MW415396   4.135   2.259   0.938  0.6002 -0.0043 -0.0674
 3908SOL     OW15397   0.036   0.204   0.772  0.0747 -0.2254  0.6479
 3908SOL    HW215398   0.001   0.252   0.697  0.0894 -1.7582 -0.3843
 3908SOL    HW315399   0.126   0.183   0.747  0.1696 -0.5290  1.2217
 3908SOL    MW415400   0.044   0.208   0.759  0.0892 -0.4677  0.5874
 3909SOL     OW15401   5.268   5.061   2.318  0.1357  0.0756 -0.0953
 3909SOL    HW215402   5.189   5.073   2.266  0.7868  1.0424 -0.9181
 3909SOL    HW315403   5.243   5.083   2.407 -0.7033 -0.3637 -0.2201
 3909SOL    MW415404   5.254   5.066   2.323  0.1109  0.1452 -0.2203
 3910SOL     OW15405   0.139   0.989   3.539 -0.2653  0.3226  0.1477
 3910SOL    HW215406   0.214   0.975   3.483 -1.0959 -4.8839 -0.1221
 3910SOL    HW315407   0.065   0.996   3.479 -0.6696 -1.1149  0.4418
 3910SOL    MW415408   0.139   0.988   3.524 -0.4282 -0.5540  0.1509
 3911SOL     OW15409   4.484   5.462   4.357 -0.2842 -0.7010 -0.6778
 3911SOL    HW215410   4.415   5.436   4.418 -0.4028  0.9273 -0.0669
 3911SOL    HW315411   4.566   5.437   4.399 -0.4303 -1.2682 -0.7207
 3911SOL    MW415412   4.486   5.455   4.370 -0.3191 -0.5610 -0.6028
 3912SOL     OW15413   1.027   4.408   5.657  0.4714 -0.1882 -0.0662
 3912SOL    HW215414   1.079   4.408   5.576  1.9225 -0.9546  0.8283
 3912SOL    HW315415   1.036   4.497   5.691 -0.6991  0.3399 -1.0534
 3912SOL    MW415416   1.035   4.420   5.651  0.5084 -0.2197 -0.0785
 3913SOL     OW15417   0.878   0.778   3.593  0.0355  0.4871  0.7811
 3913SOL    HW215418   0.881   0.821   3.679 -1.0419 -0.7763  1.4835
 3913SOL    HW315419   0.861   0.850   3.532  0.3874  1.3536  1.6759
 3913SOL    MW415420   0.876   0.793   3.597 -0.0602  0.4347  0.9918
 3914SOL     OW15421   2.496   3.152   5.696 -0.6119 -0.1112 -0.4851
 3914SOL    HW215422   2.512   3.060   5.714 -2.1591 -0.4961 -0.9241
 3914SOL    HW315423   2.460   3.187   5.778  0.5392  0.2618 -0.1269
 3914SOL    MW415424   2.493   3.145   5.709 -0.6642 -0.1128 -0.4958
 3915SOL     OW15425   1.051   1.860   5.765 -0.4964 -0.2594 -0.1193
 3915SOL    HW215426   1.024   1.813   5.686 -0.6962 -0.0628 -0.1666
 3915SOL    HW315427   1.083   1.944   5.733 -0.4242 -0.2435 -0.0051
 3915SOL    MW415428   1.052   1.865   5.750 -0.5132 -0.2313 -0.1104
 3916SOL     OW15429   2.983   5.283   1.026  0.4257  0.1651 -0.7931
 3916SOL    HW215430   2.918   5.337   0.982  0.0026 -0.4148 -0.8918
 3916SOL    HW315431   2.999   5.210   0.965 -1.7784 -1.8504  0.8547
 3916SOL    MW415432   2.977   5.280   1.012  0.0791 -0.1774 -0.5888
 3917SOL     OW15433   4.056   6.288   0.785  0.5393  0.0545  0.3085
 3917SOL    HW215434   4.109   6.242   0.849  1.0926 -0.0360 -0.2048
 3917SOL    HW315435   3.993   6.222   0.754  1.0399 -0.2426 -0.0994
 3917SOL    MW415436   4.054   6.273   0.789  0.6783  0.0034  0.1870
 3918SOL     OW15437   2.730   4.006   5.746  0.2472  0.1223 -0.2261
 3918SOL    HW215438   2.669   3.965   5.806  0.8462  0.5503  0.7060
 3918SOL    HW315439   2.676   4.035   5.672 -0.3607 -1.1972 -0.3200
 3918SOL    MW415440   2.715   4.005   5.744  0.2460  0.0046 -0.1155
 3919SOL     OW15441   3.249   6.009   4.805  0.2763  0.4471  0.0999
 3919SOL    HW215442   3.197   6.058   4.740 -0.2427  2.1610  1.7119
 3919SOL    HW315443   3.215   5.920   4.801 -0.3779  0.7250 -1.3055
 3919SOL    MW415444   3.238   6.004   4.796  0.1215  0.7099  0.1271
 3920SOL     OW15445   3.568   0.544   1.835  0.3983 -0.6473  0.1455
 3920SOL    HW215446   3.534   0.511   1.751  1.2194 -2.4735  0.4670
 3920SOL    HW315447   3.646   0.593   1.811 -0.3414  0.3533 -0.2835
 3920SOL    MW415448   3.574   0.546   1.820  0.4091 -0.7562  0.1313
 3921SOL     OW15449   1.777   5.997   2.341  0.2707 -0.4657  0.0073
 3921SOL    HW215450   1.867   6.027   2.332  0.1766  0.0716  0.8152
 3921SOL    HW315451   1.783   5.919   2.396  0.6674 -2.8369 -3.0966
 3921SOL    MW415452   1.790   5.990   2.347  0.3106 -0.7077 -0.2957
 3922SOL     OW15453   0.798   4.534   2.168  0.1192 -0.0182  0.0960
 3922SOL    HW215454   0.836   4.477   2.236  0.7148 -0.5189 -0.6329
 3922SOL    HW315455   0.743   4.476   2.117  2.1063 -0.4124 -1.7460
 3922SOL    MW415456   0.796   4.519   2.170  0.4600 -0.1362 -0.2432
 3923SOL     OW15457   1.609   1.129   2.523  0.3038  0.3307  0.2877
 3923SOL    HW215458   1.542   1.197   2.515 -1.4531 -1.3440 -0.0147
 3923SOL    HW315459   1.584   1.080   2.601 -0.4582 -1.9541 -1.3008
 3923SOL    MW415460   1.597   1.132   2.532 -0.0285 -0.1917  0.0382
 3924SOL     OW15461   1.595   0.751   5.894 -0.3905  0.1892  0.0932
 3924SOL    HW215462   1.674   0.699   5.912 -0.7618 -0.8981 -1.3050
 3924SOL    HW315463   1.523   0.697   5.927 -0.5530  1.4981  2.0368
 3924SOL    MW415464   1.596   0.737   5.901 -0.4609  0.2185  0.1652
 3925SOL     OW15465   3.273   1.537   5.905  0.7665  0.7204  0.0836
 3925SOL    HW215466   3.222   1.475   5.852 -0.6306  2.1836 -0.3699
 3925SOL    HW315467   3.308   1.485   5.977 -0.8488 -0.4782  0.0446
 3925SOL    MW415468   3.271   1.522   5.907  0.3691  0.7553  0.0186
 3926SOL     OW15469   2.468   3.466   4.809 -0.1374  0.2447 -0.8521
 3926SOL    HW215470   2.501   3.384   4.844 -0.5891  0.1802 -0.5697
 3926SOL    HW315471   2.395   3.440   4.752 -2.3419  0.6044  1.6187
 3926SOL    MW415472   2.463   3.452   4.806 -0.4878  0.2836 -0.4888
 3927SOL     OW15473   6.011   1.949   5.048 -0.0546 -0.1753  0.1896
 3927SOL    HW215474   6.093   1.923   5.090  1.2425  0.5204 -1.7396
 3927SOL    HW315475   5.958   1.870   5.046  0.6256 -0.6810  1.3292
 3927SOL    MW415476   6.015   1.935   5.053  0.2063 -0.1502  0.0854
 3928SOL     OW15477   0.920   0.374   4.237  0.2821 -0.0584 -0.1867
 3928SOL    HW215478   0.955   0.303   4.291 -1.7376 -0.6496  0.4302
 3928SOL    HW315479   0.912   0.336   4.150  0.8620 -0.0042 -0.2699
 3928SOL    MW415480   0.924   0.360   4.233  0.0921 -0.1292 -0.1163
 3929SOL     OW15481   4.229   4.198   1.828 -0.2679 -0.7151 -0.2570
 3929SOL    HW215482   4.156   4.259   1.841  0.8258  0.7041 -0.4988
 3929SOL    HW315483   4.188   4.119   1.794 -1.5171  0.6830 -2.2507
 3929SOL    MW415484   4.214   4.196   1.826 -0.2884 -0.3434 -0.5519
 3930SOL     OW15485   0.569   3.252   3.247 -0.0376 -0.4833 -0.1908
 3930SOL    HW215486   0.612   3.168   3.261 -0.5048 -0.4053  1.9214
 3930SOL    HW315487   0.485   3.245   3.292 -1.0236  0.3999 -1.7688
 3930SOL    MW415488   0.564   3.240   3.255 -0.2294 -0.3565 -0.1203
 3931SOL     OW15489   1.535   4.719   0.881  0.1984 -0.0977 -0.2727
 3931SOL    HW215490   1.529   4.717   0.976 -1.0592  0.1865 -0.3283
 3931SOL    HW315491   1.505   4.633   0.853  1.4830 -0.5181 -0.3812
 3931SOL    MW415492   1.530   4.708   0.890  0.2020 -0.1157 -0.2943
 3932SOL     OW15493   0.994   5.115   4.177  0.0535 -0.1413  0.4417
 3932SOL    HW215494   0.993   5.197   4.227 -0.7663 -0.7849  1.5235
 3932SOL    HW315495   0.920   5.066   4.211  1.7244 -2.2107  1.3140
 3932SOL    MW415496   0.984   5.120   4.188  0.1658 -0.4993  0.6995
 3933SOL     OW15497   1.817   2.642   3.673  0.8040 -0.5515  0.1339
 3933SOL    HW215498   1.910   2.662   3.661  0.4034  0.1928 -2.2385
 3933SOL    HW315499   1.773   2.726   3.664 -0.3364 -1.3323 -2.4118
 3933SOL    MW415500   1.823   2.656   3.670  0.6007 -0.5563 -0.5150
 3934SOL     OW15501   6.187   0.807   0.494  0.0434  0.2174 -0.2829
 3934SOL    HW215502   6.189   0.740   0.426  3.0160  1.3314 -1.5141
 3934SOL    HW315503   6.190   0.759   0.577  1.5990 -1.2478 -1.1193
 3934SOL    MW415504   6.188   0.792   0.496  0.6408  0.1711 -0.5557
 3935SOL     OW15505   3.905   1.061   3.183 -0.5630  0.0972 -0.5677
 3935SOL    HW215506   3.906   1.060   3.087 -1.1115 -0.7203 -0.5673
 3935SOL    HW315507   3.988   1.021   3.208 -1.4146 -1.8841 -0.7172
 3935SOL    MW415508   3.916   1.056   3.174 -0.7477 -0.2720 -0.5874
 3936SOL     OW15509   4.938   3.371   6.375 -0.0603  0.6025  0.1673
 3936SOL    HW215510   4.968   3.394   6.287  0.3214 -1.9746 -0.4777
 3936SOL    HW315511   5.012   3.325   6.414  0.0495  2.3710  2.1965
 3936SOL    MW415512   4.951   3.368   6.368  0.0045  0.4958  0.3499
 3937SOL     OW15513   1.637   5.819   2.187  0.0615  0.0125 -0.0086
 3937SOL    HW215514   1.624   5.855   2.099 -1.0494 -0.1081  0.0945
 3937SOL    HW315515   1.714   5.867   2.221  0.5085  0.0459 -1.0349
 3937SOL    MW415516   1.646   5.830   2.180 -0.0261  0.0010 -0.1304
 3938SOL     OW15517   5.545   5.427   5.786  0.4788 -0.5377  0.1113
 3938SOL    HW215518   5.496   5.421   5.868 -0.4092 -0.8959 -0.4365
 3938SOL    HW315519   5.552   5.336   5.755  0.1961 -0.3375 -0.5606
 3938SOL    MW415520   5.540   5.414   5.793  0.3243 -0.5586 -0.0496
 3939SOL     OW15521   5.550   0.938   6.090 -0.0462 -0.4908  0.1253
 3939SOL    HW215522   5.474   0.881   6.095  0.1528 -0.7575  0.1208
 3939SOL    HW315523   5.624   0.879   6.075  0.1857 -0.2523  0.3061
 3939SOL    MW415524   5.550   0.923   6.089  0.0106 -0.4945  0.1486
 3940SOL     OW15525   1.426   1.796   4.513 -0.0123  0.3050  0.2598
 3940SOL    HW215526   1.396   1.861   4.576  3.5438  0.9997  1.5072
 3940SOL    HW315527   1.439   1.716   4.564 -0.2014 -0.1050 -0.3174
 3940SOL    MW415528   1.424   1.794   4.528  0.4319  0.3426  0.3482
 3941SOL     OW15529   0.676   3.488   3.360  0.5460  0.3604 -0.7481
 3941SOL    HW215530   0.615   3.431   3.313 -1.5972  0.9719  1.1237
 3941SOL    HW315531   0.716   3.431   3.425 -1.0010  0.7236  0.5907
 3941SOL    MW415532   0.673   3.473   3.362  0.0591  0.4890 -0.3245
 3942SOL     OW15533   3.127   2.062   5.647  0.1483  0.4555  0.6005
 3942SOL    HW215534   3.072   2.031   5.575  1.4101  1.8030 -1.0191
 3942SOL    HW315535   3.183   1.988   5.668  1.2284  0.6725 -1.3110
 3942SOL    MW415536   3.127   2.048   5.641  0.4573  0.6619  0.1346
 3943SOL     OW15537   1.389   1.855   1.315 -0.3330 -0.5365  0.4490
 3943SOL    HW215538   1.452   1.835   1.384 -0.9478 -1.5021  0.7468
 3943SOL    HW315539   1.409   1.946   1.290  2.2511 -1.2939 -0.5998
 3943SOL    MW415540   1.400   1.865   1.321 -0.0732 -0.7639  0.3499
 3944SOL     OW15541   1.814   5.224   5.871  0.4998  0.0399  0.0749
 3944SOL    HW215542   1.792   5.150   5.927  0.8013  1.6945  2.5341
 3944SOL    HW315543   1.836   5.295   5.932  0.6631  2.0352 -2.1513
 3944SOL    MW415544   1.814   5.224   5.887  0.5611  0.5214  0.1057
 3945SOL     OW15545   5.244   5.382   0.779 -0.5635  0.7584 -0.4682
 3945SOL    HW215546   5.192   5.449   0.824 -1.4982 -0.7025  0.7196
 3945SOL    HW315547   5.327   5.425   0.760 -1.8961  2.9499 -1.7891
 3945SOL    MW415548   5.248   5.397   0.782 -0.8627  0.8548 -0.4857
 3946SOL     OW15549   4.625   3.383   0.607  0.2724  0.5926 -0.5454
 3946SOL    HW215550   4.638   3.470   0.568  1.3545  0.5827 -0.2445
 3946SOL    HW315551   4.624   3.400   0.702  0.9838  0.2271 -0.4653
 3946SOL    MW415552   4.626   3.397   0.615  0.5090  0.5431 -0.4951
 3947SOL     OW15553   5.153   6.035   3.515 -0.3834 -0.2074 -0.1603
 3947SOL    HW215554   5.140   6.105   3.451  0.2828  0.1430  0.0743
 3947SOL    HW315555   5.164   6.081   3.598 -1.5674 -0.6670  0.2789
 3947SOL    MW415556   5.153   6.050   3.518 -0.4517 -0.2218 -0.0714
 3948SOL     OW15557   2.079   3.233   4.361 -0.7372  0.2312  0.2350
 3948SOL    HW215558   2.132   3.303   4.322  0.8997 -1.5724 -0.9551
 3948SOL    HW315559   2.130   3.205   4.437 -0.0678 -1.2946 -0.7244
 3948SOL    MW415560   2.093   3.238   4.366 -0.4329 -0.2081 -0.0486
 3949SOL     OW15561   4.103   4.544   5.489 -0.1200 -0.3190  0.8552
 3949SOL    HW215562   4.049   4.475   5.528 -0.5416 -1.3123 -1.2992
 3949SOL    HW315563   4.057   4.625   5.510 -0.3222 -0.7885  2.3423
 3949SOL    MW415564   4.090   4.545   5.497 -0.2023 -0.5120  0.7671
 3950SOL     OW15565   1.693   5.883   5.495 -0.0960 -0.7037 -0.2959
 3950SOL    HW215566   1.659   5.834   5.420 -2.1448 -0.1249  0.2043
 3950SOL    HW315567   1.617   5.927   5.532  1.0874  0.0366  1.3937
 3950SOL    MW415568   1.679   5.882   5.490 -0.2102 -0.5297 -0.0070
 3951SOL     OW15569   4.478   2.801   3.117 -0.2365  0.3887 -0.0076
 3951SOL    HW215570   4.405   2.842   3.162  0.9151  1.6572  0.7971
 3951SOL    HW315571   4.482   2.845   3.032  0.0093  0.8085  0.2199
 3951SOL    MW415572   4.469   2.812   3.112 -0.0521  0.6115  0.1286
 3952SOL     OW15573   2.470   5.985   1.243 -0.2752  0.0339 -0.0654
 3952SOL    HW215574   2.519   5.976   1.325  0.4695  0.9025 -0.3943
 3952SOL    HW315575   2.504   5.916   1.186 -0.3652 -0.1890  0.1499
 3952SOL    MW415576   2.481   5.975   1.246 -0.1888  0.1191 -0.0804
 3953SOL     OW15577   6.256   0.293   5.489  0.1659 -0.7310 -0.6732
 3953SOL    HW215578   6.342   0.281   5.529 -0.0619  2.1981  0.9690
 3953SOL    HW315579   6.274   0.338   5.406  0.2540 -1.0745 -0.8432
 3953SOL    MW415580   6.270   0.297   5.483  0.1475 -0.3898 -0.4790
 3954SOL     OW15581   1.358   6.011   3.629 -0.7084  0.2237 -0.2391
 3954SOL    HW215582   1.329   6.047   3.545 -2.4125 -0.9557 -0.2087
 3954SOL    HW315583   1.452   5.999   3.619 -0.6195  1.5958 -1.3910
 3954SOL    MW415584   1.367   6.014   3.617 -0.9215  0.2492 -0.3871
 3955SOL     OW15585   0.650   6.212   4.911 -0.0035  0.0455  0.9001
 3955SOL    HW215586   0.740   6.239   4.896 -0.4606  2.2222  1.7187
 3955SOL    HW315587   0.655   6.117   4.921  1.8384 -0.1742 -1.2904
 3955SOL    MW415588   0.662   6.203   4.910  0.1792  0.3037  0.7191
 3956SOL     OW15589   6.079   4.172   5.469 -0.0999  0.1957  0.0134
 3956SOL    HW215590   6.073   4.193   5.562  0.3838  1.2265 -0.1719
 3956SOL    HW315591   6.173   4.172   5.450 -0.1722 -0.4053 -0.4008
 3956SOL    MW415592   6.091   4.175   5.478 -0.0456  0.2524 -0.0657
 3957SOL     OW15593   3.701   0.745   1.244 -0.3195  0.1939  0.3104
 3957SOL    HW215594   3.794   0.752   1.224 -0.7088 -1.4101 -2.5714
 3957SOL    HW315595   3.666   0.833   1.230  0.5405  0.5108  0.1533
 3957SOL    MW415596   3.708   0.757   1.239 -0.2574  0.0241 -0.0906
 3958SOL     OW15597   0.750   5.990   4.109  0.4998 -0.3944 -0.0064
 3958SOL    HW215598   0.794   5.906   4.096 -0.2692 -0.7969 -0.1175
 3958SOL    HW315599   0.657   5.970   4.095 -0.0960 -0.1991  2.9742
 3958SOL    MW415600   0.743   5.976   4.106  0.3197 -0.4217  0.3722
 3959SOL     OW15601   1.132   1.695   2.096 -0.5158  0.3283 -0.4301
 3959SOL    HW215602   1.043   1.696   2.060 -0.5784  0.4578 -0.2751
 3959SOL    HW315603   1.188   1.728   2.026 -0.7797  1.7108 -0.0262
 3959SOL    MW415604   1.127   1.699   2.082 -0.5589  0.5278 -0.3564
 3960SOL     OW15605   2.022   1.488   4.108  0.3410  0.0099  0.3981
 3960SOL    HW215606   1.995   1.574   4.140  0.6296  0.5224 -0.7005
 3960SOL    HW315607   2.005   1.491   4.014  0.0913 -1.2416  0.3889
 3960SOL    MW415608   2.016   1.500   4.100  0.3462 -0.0876  0.2520
 3961SOL     OW15609   6.044   3.417   2.124 -0.6175 -0.1728 -0.1014
 3961SOL    HW215610   6.088   3.422   2.209 -0.7524  0.4225 -0.0568
 3961SOL    HW315611   6.105   3.459   2.063 -1.2865  1.0846  0.0425
 3961SOL    MW415612   6.058   3.423   2.127 -0.7236  0.0717 -0.0765
 3962SOL     OW15613   2.828   1.448   4.427  0.6526  0.4880  0.3590
 3962SOL    HW215614   2.763   1.414   4.365 -0.1371  0.4573  1.1864
 3962SOL    HW315615   2.807   1.541   4.436 -0.4460  0.1199  1.9949
 3962SOL    MW415616   2.817   1.456   4.420  0.4035  0.4354  0.6840
 3963SOL     OW15617   2.957   2.202   3.283  0.1820  0.2553 -0.4647
 3963SOL    HW215618   2.909   2.168   3.358 -1.5547  2.4762 -0.4619
 3963SOL    HW315619   2.949   2.135   3.216 -0.0323 -0.8565  0.6456
 3963SOL    MW415620   2.950   2.189   3.284 -0.0754  0.4016 -0.3178
 3964SOL     OW15621   3.114   4.631   6.415 -0.1451 -0.1171  0.0529
 3964SOL    HW215622   3.021   4.612   6.400  0.0369 -0.7827 -0.2392
 3964SOL    HW315623   3.154   4.546   6.432  0.6433  0.0101 -1.0615
 3964SOL    MW415624   3.107   4.618   6.416 -0.0170 -0.1881 -0.1327
 3965SOL     OW15625   3.948   0.547   0.940  0.5220  1.1457  0.1536
 3965SOL    HW215626   3.892   0.620   0.968  0.0999  0.7986  0.2167
 3965SOL    HW315627   3.985   0.576   0.857 -0.9737  0.7596 -0.6801
 3965SOL    MW415628   3.945   0.561   0.933  0.2689  1.0489  0.0519
 3966SOL     OW15629   3.286   0.296   6.080  0.6059  0.0137 -0.0744
 3966SOL    HW215630   3.314   0.355   6.150  1.4361  0.4904 -0.8042
 3966SOL    HW315631   3.207   0.338   6.044  0.7637  0.2891 -0.1008
 3966SOL    MW415632   3.279   0.309   6.085  0.7362  0.1129 -0.1741
 3967SOL     OW15633   2.696   5.595   4.592  0.0228  0.3065 -0.2623
 3967SOL    HW215634   2.624   5.601   4.529 -0.7740  0.5012  0.6496
 3967SOL    HW315635   2.667   5.647   4.667  1.0626  0.2787  0.1785
 3967SOL    MW415636   2.683   5.603   4.593  0.0549  0.3285 -0.0838
 3968SOL     OW15637   5.006   2.918   3.607  0.0806 -0.2151 -0.3834
 3968SOL    HW215638   4.919   2.880   3.615 -0.5033  1.0966 -0.1864
 3968SOL    HW315639   5.042   2.879   3.527 -0.8153 -0.5414 -0.6358
 3968SOL    MW415640   4.999   2.908   3.597 -0.1146 -0.0851 -0.3907
 3969SOL     OW15641   1.185   4.103   0.373  0.7068  0.3976  0.4962
 3969SOL    HW215642   1.258   4.069   0.424  1.2646  1.8929  0.7299
 3969SOL    HW315643   1.212   4.091   0.282 -0.7894 -3.3912  0.3567
 3969SOL    MW415644   1.198   4.097   0.367  0.5830  0.0950  0.5087
 3970SOL     OW15645   6.294   6.105   1.819 -0.2132  0.1626  0.2254
 3970SOL    HW215646   6.372   6.154   1.845  0.0223 -0.1887  0.1807
 3970SOL    HW315647   6.226   6.172   1.810  0.2690  0.5672 -0.5065
 3970SOL    MW415648   6.295   6.120   1.822 -0.1185  0.1696  0.1229
 3971SOL     OW15649   4.047   1.655   2.259  0.8267  0.2464 -0.5457
 3971SOL    HW215650   4.036   1.565   2.228  2.9891 -0.7891  1.3658
 3971SOL    HW315651   4.130   1.684   2.222  0.2901  1.3893 -0.9144
 3971SOL    MW415652   4.057   1.647   2.250  1.0412  0.2606 -0.3421
 3972SOL     OW15653   2.128   3.976   0.229  0.2935 -0.3818 -0.4370
 3972SOL    HW215654   2.172   3.933   0.155 -0.0074  0.9503 -1.4290
 3972SOL    HW315655   2.122   4.068   0.203 -0.7264 -0.0628  0.8268
 3972SOL    MW415656   2.133   3.982   0.216  0.1193 -0.1640 -0.4011
 3973SOL     OW15657   5.513   1.689   1.980 -0.1496 -0.3855  0.1554
 3973SOL    HW215658   5.515   1.777   2.016  1.0305 -1.2250  2.2775
 3973SOL    HW315659   5.604   1.661   1.976 -0.5665 -1.9452  0.6668
 3973SOL    MW415660   5.525   1.697   1.984 -0.0489 -0.7021  0.5028
 3974SOL     OW15661   4.051   1.290   4.625  0.1765 -0.0161 -0.5447
 3974SOL    HW215662   4.124   1.337   4.664 -0.3282  0.0164  0.3887
 3974SOL    HW315663   4.078   1.275   4.534  0.8585  0.9760 -0.5209
 3974SOL    MW415664   4.064   1.294   4.618  0.1999  0.1191 -0.4184
 3975SOL     OW15665   4.811   0.462   3.244  0.0192  0.5386  0.1187
 3975SOL    HW215666   4.748   0.449   3.314  1.6474  0.4076  1.6053
 3975SOL    HW315667   4.782   0.542   3.201 -1.3728  0.2705  0.4996
 3975SOL    MW415668   4.799   0.471   3.247  0.0504  0.4860  0.3651
 3976SOL     OW15669   3.298   1.500   2.704  0.6042  0.1406  0.2090
 3976SOL    HW215670   3.285   1.476   2.612  0.4500  0.7377  0.0690
 3976SOL    HW315671   3.392   1.485   2.719  1.1905  2.3087 -0.7651
 3976SOL    MW415672   3.309   1.495   2.694  0.6612  0.5054  0.0620
 3977SOL     OW15673   5.402   2.179   1.329 -0.2522 -0.9947  0.2770
 3977SOL    HW215674   5.423   2.111   1.392  1.1172 -0.7977  0.0634
 3977SOL    HW315675   5.307   2.177   1.322 -0.3757 -1.4723  1.8303
 3977SOL    MW415676   5.392   2.170   1.336 -0.0878 -1.0317  0.4538
 3978SOL     OW15677   2.702   2.096   6.190  0.3209  0.3913 -0.3566
 3978SOL    HW215678   2.752   2.135   6.262  1.2971 -0.5969 -0.4779
 3978SOL    HW315679   2.740   2.135   6.111 -2.6979  3.8170 -0.3863
 3978SOL    MW415680   2.713   2.106   6.189  0.0514  0.7129 -0.3765
 3979SOL     OW15681   1.755   6.420   2.204 -0.0448  0.6282  0.3903
 3979SOL    HW215682   1.715   6.372   2.277 -1.0855  0.1734 -0.4388
 3979SOL    HW315683   1.738   6.365   2.128 -0.0522  1.6622 -0.3760
 3979SOL    MW415684   1.747   6.407   2.204 -0.1830  0.7046  0.1798
 3980SOL     OW15685   2.352   2.977   3.381  0.7367 -0.6657  0.1134
 3980SOL    HW215686   2.383   3.065   3.361 -2.5296  0.2549 -1.7991
 3980SOL    HW315687   2.336   2.978   3.475  0.9548  0.7466  0.1589
 3980SOL    MW415688   2.354   2.989   3.391  0.3345 -0.3579 -0.1330
 3981SOL     OW15689   6.277   0.913   4.034 -0.2431 -0.9964  0.2577
 3981SOL    HW215690   6.343   0.850   4.063 -0.1699 -1.4051 -0.7430
 3981SOL    HW315691   6.285   0.913   3.938  1.8634  2.7915  0.2377
 3981SOL    MW415692   6.287   0.905   4.025  0.0445 -0.5506  0.1230
 3982SOL     OW15693   1.144   1.001   0.098 -0.3390  0.0115 -0.2201
 3982SOL    HW215694   1.168   1.089   0.070  1.6490 -0.0053  1.1965
 3982SOL    HW315695   1.106   0.961   0.021 -0.4892  1.8260 -1.1461
 3982SOL    MW415696   1.142   1.007   0.084 -0.0965  0.2487 -0.1554
 3983SOL     OW15697   2.272   6.032   5.028  0.2199  0.3062 -0.5691
 3983SOL    HW215698   2.201   5.977   5.061  0.2936 -0.6661 -1.9477
 3983SOL    HW315699   2.234   6.120   5.025 -0.3376  0.1216  0.3847
 3983SOL    MW415700   2.257   6.037   5.032  0.1561  0.1535 -0.6251
 3984SOL     OW15701   3.322   0.132   1.431 -0.1380 -0.3824  0.1687
 3984SOL    HW215702   3.229   0.136   1.452 -0.4181 -1.1449 -0.8251
 3984SOL    HW315703   3.342   0.217   1.392 -1.2818 -1.3294 -2.7713
 3984SOL    MW415704   3.313   0.144   1.428 -0.3259 -0.6079 -0.3503
 3985SOL     OW15705   2.218   4.297   3.646  0.1843  0.1662  0.0081
 3985SOL    HW215706   2.280   4.224   3.641  0.9313  0.8224 -0.6276
 3985SOL    HW315707   2.132   4.255   3.652  0.5266 -0.7913 -1.2408
 3985SOL    MW415708   2.215   4.282   3.646  0.3280  0.1265 -0.2406
 3986SOL     OW15709   6.062   2.743   2.402  0.5620  0.2660 -0.7992
 3986SOL    HW215710   6.140   2.782   2.362  0.1709  0.7308 -1.1153
 3986SOL    HW315711   5.992   2.759   2.339  0.4785 -1.3589 -1.1404
 3986SOL    MW415712   6.063   2.751   2.389  0.4994  0.1129 -0.8859
 3987SOL     OW15713   4.930   0.700   6.327 -0.2374 -0.4348 -0.4457
 3987SOL    HW215714   4.890   0.656   6.402 -1.2177 -2.3774 -1.9834
 3987SOL    HW315715   4.964   0.628   6.273  0.7728  0.9055 -1.6845
 3987SOL    MW415716   4.929   0.684   6.330 -0.2334 -0.5142 -0.8120
 3988SOL     OW15717   5.462   5.121   3.092 -0.1450 -0.5535 -0.2489
 3988SOL    HW215718   5.366   5.121   3.091 -0.2691  2.7682  0.2960
 3988SOL    HW315719   5.485   5.069   3.170 -1.5328 -0.4983  0.2329
 3988SOL    MW415720   5.453   5.114   3.102 -0.3445 -0.1080 -0.1134
 3989SOL     OW15721   5.075   2.620   0.563 -0.2910  0.0510 -0.0134
 3989SOL    HW215722   5.110   2.608   0.475  1.3747 -0.6451  0.7114
 3989SOL    HW315723   5.143   2.586   0.622 -2.3524 -1.8125  1.4741
 3989SOL    MW415724   5.089   2.614   0.559 -0.3432 -0.2868  0.2785
 3990SOL     OW15725   5.671   3.817   1.798  0.0899 -0.5862  0.2928
 3990SOL    HW215726   5.682   3.870   1.719 -0.9868 -0.7935 -0.0153
 3990SOL    HW315727   5.580   3.788   1.795 -0.0447 -0.4152  1.7334
 3990SOL    MW415728   5.661   3.820   1.787 -0.0699 -0.5910  0.4422
 3991SOL     OW15729   4.271   3.063   4.781 -0.0579  0.6420  0.4782
 3991SOL    HW215730   4.284   3.158   4.779  1.4363  0.4583  0.1914
 3991SOL    HW315731   4.310   3.035   4.864  0.7090  0.1452 -0.0313
 3991SOL    MW415732   4.278   3.072   4.791  0.2404  0.5522  0.3731
 3992SOL     OW15733   6.331   0.520   1.605  0.3463  0.0656 -0.0518
 3992SOL    HW215734   6.276   0.546   1.531  0.5332  0.1172 -0.1774
 3992SOL    HW315735   6.271   0.482   1.668  0.6323 -4.2909 -2.0605
 3992SOL    MW415736   6.316   0.518   1.603  0.4087 -0.5024 -0.3334
 3993SOL     OW15737   0.278   3.996   0.881 -0.3720  0.1438 -0.4952
 3993SOL    HW215738   0.331   4.075   0.887  1.3022 -0.7563 -2.2727
 3993SOL    HW315739   0.318   3.936   0.943  0.1993 -0.2306 -1.1979
 3993SOL    MW415740   0.290   3.998   0.890 -0.0757 -0.0243 -0.8225
 3994SOL     OW15741   3.568   3.904   5.880  0.0914 -0.4765  0.1958
 3994SOL    HW215742   3.588   3.848   5.955  3.4977 -2.6583 -2.0562
 3994SOL    HW315743   3.608   3.988   5.902 -0.6761 -0.4209  1.5415
 3994SOL    MW415744   3.576   3.908   5.893  0.4396 -0.7570  0.0762
 3995SOL     OW15745   2.325   5.641   3.353 -0.0329 -0.1008  0.3317
 3995SOL    HW215746   2.324   5.603   3.265 -1.5590 -0.5451  0.5266
 3995SOL    HW315747   2.388   5.713   3.346  0.0956 -0.3104 -1.0381
 3995SOL    MW415748   2.333   5.645   3.341 -0.2173 -0.1871  0.1767
 3996SOL     OW15749   1.168   2.603   2.804  0.5208 -0.0975 -0.0532
 3996SOL    HW215750   1.186   2.510   2.818  1.6629  0.1575  0.2679
 3996SOL    HW315751   1.080   2.616   2.841  0.2171 -1.1047 -0.3824
 3996SOL    MW415752   1.159   2.592   2.811  0.6314 -0.1968 -0.0542
 3997SOL     OW15753   2.949   0.258   3.695  0.2394 -0.0378  0.2051
 3997SOL    HW215754   3.033   0.222   3.723 -0.8188 -1.1940  2.1737
 3997SOL    HW315755   2.887   0.229   3.763 -1.3675  2.5428 -0.0184
 3997SOL    MW415756   2.952   0.249   3.708 -0.1122  0.1501  0.4353
 3998SOL     OW15757   4.163   4.976   4.824  0.0460  0.1943  0.6488
 3998SOL    HW215758   4.099   4.974   4.753  1.5929  0.6717 -0.8362
 3998SOL    HW315759   4.228   5.040   4.795  1.7132 -0.9829  1.6086
 3998SOL    MW415760   4.163   4.984   4.810  0.4701  0.1020  0.5795
 3999SOL     OW15761   3.934   0.819   4.186 -0.2318 -0.1279 -0.5841
 3999SOL    HW215762   4.028   0.824   4.199 -0.2724 -2.2600  0.9919
 3999SOL    HW315763   3.897   0.832   4.273 -1.3470 -0.5785 -0.9692
 3999SOL    MW415764   3.941   0.822   4.199 -0.3843 -0.4686 -0.4270
 4000SOL     OW15765   1.650   5.807   2.836  1.1235  1.0355 -0.2601
 4000SOL    HW215766   1.714   5.741   2.809  1.4651  0.6677  1.3360
 4000SOL    HW315767   1.568   5.759   2.845  1.6225  0.4943  2.0760
 4000SOL    MW415768   1.648   5.792   2.833  1.2344  0.9155  0.2587
 4001SOL     OW15769   5.703   5.828   5.885 -0.1657 -0.1047 -0.5832
 4001SOL    HW215770   5.621   5.827   5.935 -0.2446 -1.4409 -0.7009
 4001SOL    HW315771   5.675   5.843   5.794 -0.2541 -0.2476 -0.5797
 4001SOL    MW415772   5.688   5.830   5.879 -0.1878 -0.2999 -0.5982
 4002SOL     OW15773   0.997   4.690   6.253 -0.1132 -0.5087  0.2175
 4002SOL    HW215774   0.990   4.714   6.160 -2.2767 -0.3332  0.3677
 4002SOL    HW315775   1.028   4.769   6.296  2.8764 -1.1454 -0.5252
 4002SOL    MW415776   1.000   4.704   6.246 -0.0042 -0.5695  0.1394
 4003SOL     OW15777   1.099   6.217   5.464  0.2938  0.4242 -0.4665
 4003SOL    HW215778   1.055   6.174   5.390 -0.1367 -0.6332  0.3674
 4003SOL    HW315779   1.176   6.258   5.425  1.7845 -2.6716 -1.1240
 4003SOL    MW415780   1.104   6.216   5.449  0.4337 -0.1237 -0.4432
 4004SOL     OW15781   1.820   0.372   2.873  0.1596 -0.9008 -0.2346
 4004SOL    HW215782   1.747   0.313   2.892  1.9990 -2.9481  0.9385
 4004SOL    HW315783   1.892   0.314   2.848  2.1437  0.7814  1.2036
 4004SOL    MW415784   1.820   0.356   2.872  0.6641 -0.9490  0.1099
 4005SOL     OW15785   3.482   2.366   2.908 -0.7784 -0.9375  0.4149
 4005SOL    HW215786   3.551   2.302   2.930  0.1839  0.4600  1.6288
 4005SOL    HW315787   3.400   2.317   2.918 -0.0428 -2.1920  0.5492
 4005SOL    MW415788   3.481   2.351   2.912 -0.5544 -0.9186  0.5928
 4006SOL     OW15789   2.568   0.207   4.536 -0.2729  0.7468  0.2595
 4006SOL    HW215790   2.493   0.148   4.537  2.0332 -2.4893  0.2936
 4006SOL    HW315791   2.561   0.256   4.618 -2.3701  0.6600  0.1917
 4006SOL    MW415792   2.557   0.206   4.547 -0.2453  0.3084  0.2550
 4007SOL     OW15793   0.392   0.603   6.270 -0.2883 -0.1146 -0.5238
 4007SOL    HW215794   0.446   0.531   6.240 -0.7046 -0.6511 -0.0090
 4007SOL    HW315795   0.347   0.634   6.192  1.9238  1.4039 -1.2998
 4007SOL    MW415796   0.393   0.598   6.256 -0.0514  0.0150 -0.5583
 4008SOL     OW15797   4.604   6.303   0.871  0.0769 -0.6587  0.0935
 4008SOL    HW215798   4.671   6.241   0.897  1.5360  0.9219  0.2985
 4008SOL    HW315799   4.540   6.301   0.942 -0.4724 -2.6533 -0.4154
 4008SOL    MW415800   4.604   6.295   0.884  0.1970 -0.7133  0.0534
 4009SOL     OW15801   1.758   5.372   2.750 -0.3707 -0.3881 -0.3722
 4009SOL    HW215802   1.677   5.407   2.787  0.3742  0.3298  0.6207
 4009SOL    HW315803   1.790   5.309   2.814  0.5716  0.3531 -0.0953
 4009SOL    MW415804   1.752   5.368   2.763 -0.1481 -0.1956 -0.2047
 4010SOL     OW15805   0.108   3.932   6.113 -0.5977 -0.0442 -0.2956
 4010SOL    HW215806   0.125   4.023   6.138 -0.3168 -0.0659 -0.4036
 4010SOL    HW315807   0.185   3.884   6.143 -0.7206 -0.2368 -0.2904
 4010SOL    MW415808   0.120   3.938   6.120 -0.5768 -0.0725 -0.3092
 4011SOL     OW15809   5.749   2.679   0.624  0.1011  0.9197 -0.4714
 4011SOL    HW215810   5.779   2.624   0.696 -0.3542  0.7837 -0.3765
 4011SOL    HW315811   5.745   2.767   0.661 -1.1533  0.6865  0.0013
 4011SOL    MW415812   5.752   2.683   0.638 -0.1245  0.8710 -0.3965
 4012SOL     OW15813   0.113   5.780   3.518  0.4456  0.2655  0.1052
 4012SOL    HW215814   0.175   5.723   3.564  1.8430 -1.6922 -3.8102
 4012SOL    HW315815   0.168   5.841   3.469 -0.7706 -0.0473 -1.7232
 4012SOL    MW415816   0.128   5.781   3.518  0.4695 -0.0341 -0.6526
 4013SOL     OW15817   0.749   6.141   6.140  0.1008 -0.0445 -0.1899
 4013SOL    HW215818   0.763   6.230   6.171  1.8751 -0.1558 -0.5759
 4013SOL    HW315819   0.825   6.092   6.171 -1.0970 -1.5946  0.5054
 4013SOL    MW415820   0.761   6.146   6.148  0.1769 -0.2637 -0.1491
 4014SOL     OW15821   3.169   4.941   1.987  0.0165  0.2052 -0.3635
 4014SOL    HW215822   3.169   4.907   2.077  1.9282 -0.0385 -0.4026
 4014SOL    HW315823   3.249   4.993   1.982 -0.8114  1.4121 -1.5147
 4014SOL    MW415824   3.180   4.943   1.998  0.1595  0.3323 -0.5205
 4015SOL     OW15825   0.812   5.547   4.693  0.0175  0.3085 -0.4261
 4015SOL    HW215826   0.768   5.469   4.727  0.5882 -1.1452 -2.7810
 4015SOL    HW315827   0.900   5.543   4.731  0.2732 -0.6377 -1.0735
 4015SOL    MW415828   0.818   5.536   4.703  0.1266 -0.0081 -0.8222
 4016SOL     OW15829   1.752   5.351   6.287 -0.1925  0.1313 -0.2970
 4016SOL    HW215830   1.675   5.295   6.292  0.3157 -0.8887 -2.5751
 4016SOL    HW315831   1.826   5.290   6.288  0.4838  0.9272 -0.4681
 4016SOL    MW415832   1.752   5.335   6.288 -0.0362  0.1018 -0.6202
 4017SOL     OW15833   0.804   4.487   3.137 -0.4050 -0.4464 -0.5190
 4017SOL    HW215834   0.735   4.539   3.095 -0.8208 -1.6227 -1.3312
 4017SOL    HW315835   0.836   4.543   3.209 -1.1330  0.7388 -1.0878
 4017SOL    MW415836   0.799   4.501   3.141 -0.5559 -0.4453 -0.7012
 4018SOL     OW15837   3.124   6.334   3.585  0.2712  0.0024  0.5203
 4018SOL    HW215838   3.074   6.363   3.509  1.0659 -0.3059 -0.1363
 4018SOL    HW315839   3.061   6.285   3.638 -0.2970  0.2395  0.0718
 4018SOL    MW415840   3.109   6.331   3.582  0.3011 -0.0070  0.3745
 4019SOL     OW15841   0.424   1.716   4.425  0.0090 -0.1428  0.5014
 4019SOL    HW215842   0.469   1.634   4.403  0.9973  0.6181 -0.3946
 4019SOL    HW315843   0.368   1.733   4.349 -0.2109  0.0032  0.6968
 4019SOL    MW415844   0.423   1.707   4.412  0.1104 -0.0231  0.4090
 4020SOL     OW15845   0.863   1.866   1.354  0.0759 -0.4583  0.1924
 4020SOL    HW215846   0.943   1.916   1.372  2.2354 -3.4433 -0.4633
 4020SOL    HW315847   0.827   1.907   1.275  0.3038  1.5749  1.0593
 4020SOL    MW415848   0.869   1.878   1.346  0.3909 -0.5839  0.2203
 4021SOL     OW15849   3.585   1.749   4.584  0.1662 -0.2766 -0.0268
 4021SOL    HW215850   3.550   1.793   4.662  0.2895 -2.3487  1.2731
 4021SOL    HW315851   3.679   1.771   4.584  0.3185 -0.8856  0.8764
 4021SOL    MW415852   3.593   1.758   4.594  0.2026 -0.6303  0.2639
 4022SOL     OW15853   2.915   5.342   4.636  0.3506  0.8670 -0.0251
 4022SOL    HW215854   2.865   5.396   4.576  0.6313  2.4393  1.1015
 4022SOL    HW315855   2.914   5.389   4.719  2.7654  0.4400  0.3355
 4022SOL    MW415856   2.909   5.355   4.639  0.7063  1.0181  0.1711
 4023SOL     OW15857   0.910   4.417   1.771  0.5758  0.0272  0.1019
 4023SOL    HW215858   0.847   4.438   1.701  1.4850 -0.3881 -0.8754
 4023SOL    HW315859   0.926   4.323   1.760  1.0785  0.0576  0.5768
 4023SOL    MW415860   0.904   4.407   1.760  0.7621 -0.0236  0.0356
 4024SOL     OW15861   3.657   1.626   1.810  0.2781  0.2361 -0.4751
 4024SOL    HW215862   3.669   1.544   1.761 -1.5974  0.3216 -1.1397
 4024SOL    HW315863   3.641   1.692   1.743  0.0321  0.8136  0.1421
 4024SOL    MW415864   3.656   1.624   1.795 -0.0018  0.3236 -0.4814
 4025SOL     OW15865   0.563   4.268   4.593  0.3330 -0.3341  0.4181
 4025SOL    HW215866   0.532   4.348   4.635 -0.5521 -1.5512  2.2212
 4025SOL    HW315867   0.578   4.207   4.666  2.6557 -1.2803 -0.7501
 4025SOL    MW415868   0.561   4.271   4.608  0.5226 -0.6195  0.5019
 4026SOL     OW15869   5.434   3.169   6.114  0.2384 -0.2387 -0.7367
 4026SOL    HW215870   5.429   3.252   6.162  0.3904  0.4238 -1.8316
 4026SOL    HW315871   5.345   3.133   6.120  0.4520 -0.5862  0.7265
 4026SOL    MW415872   5.421   3.175   6.121  0.2866 -0.1972 -0.6881
 4027SOL     OW15873   0.160   3.351   5.047 -0.5054  0.4264 -0.0034
 4027SOL    HW215874   0.099   3.283   5.018  0.3579  0.5892 -2.4089
 4027SOL    HW315875   0.193   3.319   5.131 -2.6080 -0.4518  0.5755
 4027SOL    MW415876   0.156   3.338   5.054 -0.6689  0.3320 -0.2444
 4028SOL     OW15877   5.095   1.758   5.727 -0.3431  0.2127 -0.1400
 4028SOL    HW215878   5.084   1.722   5.816 -0.7037  1.6975  0.4379
 4028SOL    HW315879   5.044   1.699   5.671 -2.5964  0.9141  1.0591
 4028SOL    MW415880   5.087   1.745   5.732 -0.6880  0.5011  0.0945
 4029SOL     OW15881   2.185   2.919   3.908  0.0407  0.8183  0.2012
 4029SOL    HW215882   2.243   2.927   3.984 -0.9845 -0.5004  1.1762
 4029SOL    HW315883   2.100   2.949   3.940 -0.1850  1.2055 -0.7345
 4029SOL    MW415884   2.182   2.924   3.922 -0.1243  0.6954  0.2064
 4030SOL     OW15885   4.837   6.189   5.349 -0.1206 -0.4412 -0.1980
 4030SOL    HW215886   4.771   6.159   5.411 -1.1499  1.9647 -0.0161
 4030SOL    HW315887   4.913   6.211   5.402 -0.8745  1.2705  0.2273
 4030SOL    MW415888   4.838   6.188   5.364 -0.3559  0.1021 -0.1179
 4031SOL     OW15889   0.413   5.550   5.638  0.2079 -1.0181  0.3803
 4031SOL    HW215890   0.455   5.633   5.616  0.0639 -0.7949  0.9272
 4031SOL    HW315891   0.339   5.544   5.577 -0.4825 -0.1691  1.0883
 4031SOL    MW415892   0.409   5.560   5.627  0.0978 -0.8766  0.5458
 4032SOL     OW15893   4.273   3.776   0.938  0.4363 -0.1064  0.8590
 4032SOL    HW215894   4.325   3.739   1.010 -0.4999 -1.3720  0.9218
 4032SOL    HW315895   4.185   3.740   0.952 -0.3800  1.6841  0.5438
 4032SOL    MW415896   4.268   3.766   0.949  0.2050 -0.0372  0.8257
 4033SOL     OW15897   0.683   4.338   2.014  0.2841  0.4517  0.3180
 4033SOL    HW215898   0.765   4.309   1.974  0.2171  0.2548  0.3238
 4033SOL    HW315899   0.645   4.398   1.950  0.0829 -0.0116 -0.0006
 4033SOL    MW415900   0.689   4.342   2.000  0.2487  0.3646  0.2767
 4034SOL     OW15901   2.659   5.328   3.764 -0.1923  0.4837 -0.2703
 4034SOL    HW215902   2.694   5.417   3.769 -1.4302  0.9711  0.0584
 4034SOL    HW315903   2.713   5.277   3.824  0.0382  1.1781  0.1128
 4034SOL    MW415904   2.671   5.333   3.772 -0.3252  0.6396 -0.1764
 4035SOL     OW15905   4.023   0.392   4.955 -0.1467 -0.2219  0.6680
 4035SOL    HW215906   4.116   0.371   4.956  0.4289  2.0586  1.1072
 4035SOL    HW315907   4.019   0.486   4.975 -2.5740 -0.3798  1.3158
 4035SOL    MW415908   4.034   0.402   4.958 -0.3910  0.0582  0.8115
 4036SOL     OW15909   2.065   4.000   1.552 -0.5587  0.2089 -0.0286
 4036SOL    HW215910   1.975   4.025   1.531 -0.7705 -0.9829 -0.6414
 4036SOL    HW315911   2.086   3.932   1.488 -0.9911 -3.2273  3.1349
 4036SOL    MW415912   2.056   3.994   1.540 -0.6437 -0.4017  0.3079
 4037SOL     OW15913   0.995   3.229   1.968 -0.1519  0.5201 -0.6190
 4037SOL    HW215914   0.945   3.207   2.047 -1.1831 -0.2137 -1.4577
 4037SOL    HW315915   1.087   3.225   1.997 -0.5001 -0.0307  0.4775
 4037SOL    MW415916   1.001   3.226   1.982 -0.3339  0.3506 -0.5850
 4038SOL     OW15917   3.540   1.969   5.489  0.3813 -0.2187 -0.0180
 4038SOL    HW215918   3.628   1.978   5.525  0.7086 -1.0107 -0.5967
 4038SOL    HW315919   3.538   1.882   5.450  0.2621  0.7803 -2.4367
 4038SOL    MW415920   3.551   1.959   5.488  0.4088 -0.1914 -0.4135
 4039SOL     OW15921   3.518   3.833   4.816 -0.1930 -0.1574 -0.2042
 4039SOL    HW215922   3.478   3.852   4.732 -2.2994  1.4759  1.0596
 4039SOL    HW315923   3.461   3.876   4.880  2.4493  0.4345  1.9206
 4039SOL    MW415924   3.505   3.841   4.814 -0.1223  0.1362  0.2429
 4040SOL     OW15925   5.369   4.759   0.886  0.6993  0.0280 -0.4463
 4040SOL    HW215926   5.338   4.772   0.976  1.5857 -1.0681  0.0363
 4040SOL    HW315927   5.295   4.716   0.842  0.4401  0.1257 -0.1146
 4040SOL    MW415928   5.355   4.755   0.892  0.7821 -0.1038 -0.3389
 4041SOL     OW15929   0.462   4.803   3.825  0.2736  0.1980 -0.2073
 4041SOL    HW215930   0.397   4.779   3.759  0.7015 -0.7586 -0.3092
 4041SOL    HW315931   0.546   4.802   3.778  0.3444  1.7379 -0.1543
 4041SOL    MW415932   0.465   4.800   3.810  0.3394  0.2750 -0.2138
 4042SOL     OW15933   5.621   1.782   2.324 -0.3069 -0.2878  0.5826
 4042SOL    HW215934   5.573   1.842   2.268  0.7723  0.9483  0.9329
 4042SOL    HW315935   5.690   1.747   2.268  0.6722  0.8248  1.0672
 4042SOL    MW415936   5.624   1.785   2.309 -0.0354  0.0221  0.6928
 4043SOL     OW15937   4.762   0.488   1.819 -0.2339  0.0316  0.5119
 4043SOL    HW215938   4.838   0.545   1.805 -0.3787  0.3199  0.8832
 4043SOL    HW315939   4.690   0.532   1.775 -0.1173 -0.4151 -0.1357
 4043SOL    MW415940   4.763   0.501   1.811 -0.2376  0.0107  0.4755
 4044SOL     OW15941   0.360   3.736   5.939 -0.2176  0.3117 -0.2099
 4044SOL    HW215942   0.334   3.726   6.031 -1.3696 -2.3313 -0.7565
 4044SOL    HW315943   0.386   3.828   5.932 -2.8574  1.3523  2.0579
 4044SOL    MW415944   0.360   3.747   5.950 -0.7179  0.1003  0.0172
 4045SOL     OW15945   3.010   0.525   0.431  0.4093 -0.0122 -0.1443
 4045SOL    HW215946   2.988   0.549   0.341 -0.1345  1.3881  0.3317
 4045SOL    HW315947   3.106   0.522   0.432  0.4144 -2.1299 -1.2443
 4045SOL    MW415948   3.020   0.528   0.419  0.3382 -0.1069 -0.2266
 4046SOL     OW15949   2.693   1.006   0.462 -0.1339 -0.3888  0.0525
 4046SOL    HW215950   2.611   0.993   0.509 -0.4015 -0.0277 -0.3112
 4046SOL    HW315951   2.735   0.920   0.462  0.1576 -0.2859  1.4740
 4046SOL    MW415952   2.688   0.993   0.468 -0.1307 -0.3276  0.1920
 4047SOL     OW15953   3.066   2.448   4.419  0.1646 -0.2314  0.1544
 4047SOL    HW215954   3.084   2.488   4.334 -0.1045  2.0563  1.1074
 4047SOL    HW315955   3.152   2.439   4.460  0.0483  2.6534  1.2613
 4047SOL    MW415956   3.079   2.452   4.413  0.1137  0.4510  0.4262
 4048SOL     OW15957   4.817   5.314   1.765 -0.3746  0.2197  0.2536
 4048SOL    HW215958   4.819   5.300   1.670 -2.3630 -1.7462  0.4007
 4048SOL    HW315959   4.905   5.291   1.795 -0.1575 -0.6467 -0.9616
 4048SOL    MW415960   4.829   5.309   1.757 -0.6083 -0.1540  0.1127
 4049SOL     OW15961   5.051   0.043   2.822 -0.6813  0.3312  0.0254
 4049SOL    HW215962   5.040   0.081   2.735 -0.4442 -1.5082 -0.8651
 4049SOL    HW315963   5.141   0.064   2.846 -0.7551  0.8788 -0.1701
 4049SOL    MW415964   5.061   0.050   2.813 -0.6597  0.1607 -0.1179
 4050SOL     OW15965   4.718   4.354   2.109  0.8005  0.0764  0.6325
 4050SOL    HW215966   4.771   4.366   2.030  0.0946  0.2315  0.1776
 4050SOL    HW315967   4.653   4.288   2.085 -0.5847  1.4404  0.4812
 4050SOL    MW415968   4.717   4.347   2.095  0.5246  0.2768  0.5525
 4051SOL     OW15969   2.176   1.863   3.097 -0.2725  0.2186 -0.1511
 4051SOL    HW215970   2.237   1.844   3.168  0.7571  2.0731 -0.4599
 4051SOL    HW315971   2.232   1.884   3.023 -1.3209  0.0210 -1.0174
 4051SOL    MW415972   2.192   1.863   3.097 -0.2750  0.4372 -0.3061
 4052SOL     OW15973   3.449   1.916   5.091  0.0777  0.0405 -0.2313
 4052SOL    HW215974   3.445   1.966   5.173  0.2654 -1.0614  0.4600
 4052SOL    HW315975   3.437   1.825   5.117 -0.6565 -0.2636 -1.5242
 4052SOL    MW415976   3.447   1.911   5.105  0.0056 -0.1450 -0.3107
 4053SOL     OW15977   0.079   2.134   1.190  0.0959 -0.2777 -0.1583
 4053SOL    HW215978   0.061   2.048   1.152  1.9080 -0.5484 -0.5102
 4053SOL    HW315979   0.045   2.128   1.279 -0.3081 -1.1551 -0.3559
 4053SOL    MW415980   0.072   2.122   1.197  0.2817 -0.4292 -0.2308
 4054SOL     OW15981   3.432   3.475   5.370 -0.5357  0.0090 -0.1705
 4054SOL    HW215982   3.492   3.500   5.440 -1.1214 -0.4313  0.5099
 4054SOL    HW315983   3.402   3.559   5.334  1.0611  0.2330 -1.0539
 4054SOL    MW415984   3.436   3.490   5.375 -0.4023 -0.0196 -0.1973
 4055SOL     OW15985   5.424   2.598   1.069  0.7666  0.3286  0.1050
 4055SOL    HW215986   5.454   2.676   1.022  2.5489 -0.9229 -0.9709
 4055SOL    HW315987   5.458   2.608   1.158 -0.3149  1.4584  0.4064
 4055SOL    MW415988   5.432   2.609   1.075  0.8591  0.3126  0.0028
 4056SOL     OW15989   1.152   5.049   6.007 -0.5920 -0.2378  0.6361
 4056SOL    HW215990   1.175   5.142   6.002 -0.9147 -0.1659  0.4644
 4056SOL    HW315991   1.185   5.011   5.926 -2.7997  0.2571 -0.5772
 4056SOL    MW415992   1.159   5.056   5.996 -0.9259 -0.1630  0.4533
 4057SOL     OW15993   1.082   1.618   0.485 -0.6084  0.1496 -0.7237
 4057SOL    HW215994   1.046   1.663   0.562  0.9301 -0.5770  0.4875
 4057SOL    HW315995   1.176   1.613   0.502 -0.3381 -0.7677 -2.2773
 4057SOL    MW415996   1.090   1.623   0.498 -0.3698 -0.0673 -0.7689
 4058SOL     OW15997   1.209   0.751   4.100 -0.4625 -0.4581  0.6942
 4058SOL    HW215998   1.252   0.677   4.144  0.2831 -1.2491 -1.2671
 4058SOL    HW315999   1.122   0.718   4.076 -0.5830 -0.2852  0.8895
 4058SOL    MW416000   1.203   0.737   4.103 -0.3800 -0.5396  0.4612
 4059SOL     OW16001   0.252   0.480   0.722 -0.6147 -0.1418  0.3966
 4059SOL    HW216002   0.305   0.424   0.779 -0.8863 -0.3714  0.4294
 4059SOL    HW316003   0.211   0.542   0.782  1.5420  1.6523  0.1148
 4059SOL    MW416004   0.253   0.481   0.738 -0.3659  0.0646  0.3638
 4060SOL     OW16005   4.061   1.514   3.536 -0.2148 -0.3173  0.1826
 4060SOL    HW216006   4.150   1.487   3.557 -0.2381 -1.0803 -0.6723
 4060SOL    HW316007   4.021   1.438   3.495 -0.4977  0.7648 -1.6634
 4060SOL    MW416008   4.068   1.501   3.533 -0.2552 -0.2752 -0.1737
 4061SOL     OW16009   6.010   4.099   5.051 -0.0994 -0.2300  0.0469
 4061SOL    HW216010   6.103   4.082   5.037 -0.2137  0.1630 -1.3015
 4061SOL    HW316011   5.966   4.052   4.980 -0.8682  0.2784  0.1748
 4061SOL    MW416012   6.016   4.090   5.040 -0.2159 -0.1111 -0.1141
 4062SOL     OW16013   3.486   0.742   5.771 -0.6640 -0.9016  0.1119
 4062SOL    HW216014   3.441   0.662   5.799 -0.7021 -0.5460  1.1170
 4062SOL    HW316015   3.421   0.811   5.780 -1.0011 -0.9032 -1.8928
 4062SOL    MW416016   3.472   0.741   5.776 -0.7135 -0.8549 -0.0200
 4063SOL     OW16017   2.451   4.155   4.220  0.5406  0.1302 -0.1113
 4063SOL    HW216018   2.377   4.213   4.203  2.0672  1.9838 -0.7682
 4063SOL    HW316019   2.437   4.125   4.310 -1.2389  0.0377 -0.3792
 4063SOL    MW416020   2.439   4.159   4.230  0.5072  0.3625 -0.2333
 4064SOL     OW16021   5.521   2.720   2.747  0.0672  0.2134 -0.1343
 4064SOL    HW216022   5.507   2.804   2.703  0.8289  0.1846 -0.4545
 4064SOL    HW316023   5.468   2.658   2.697 -1.3332  0.6631  0.7309
 4064SOL    MW416024   5.512   2.723   2.734 -0.0171  0.2690 -0.0624
 4065SOL     OW16025   3.408   2.248   0.298 -0.0163  0.3566  0.1830
 4065SOL    HW216026   3.460   2.282   0.371  1.1005  1.8191 -1.2121
 4065SOL    HW316027   3.318   2.277   0.317  0.2373  0.6209  1.0188
 4065SOL    MW416028   3.403   2.257   0.310  0.1645  0.5844  0.1092
 4066SOL     OW16029   2.044   2.035   4.579 -0.1248 -0.4486 -0.0435
 4066SOL    HW216030   2.052   1.940   4.592  2.0648 -0.3998 -0.6168
 4066SOL    HW316031   2.120   2.072   4.624  2.1630  0.5202 -4.1016
 4066SOL    MW416032   2.055   2.027   4.586  0.4660 -0.3143 -0.6546
 4067SOL     OW16033   5.094   1.235   2.937  0.6883 -0.4338  0.3500
 4067SOL    HW216034   5.004   1.250   2.967  0.8209 -1.7049  1.5236
 4067SOL    HW316035   5.112   1.307   2.877 -0.1697  1.4495  2.2036
 4067SOL    MW416036   5.084   1.247   2.933  0.5926 -0.3530  0.7494
 4068SOL     OW16037   1.240   4.390   0.545  0.1824 -0.0734 -0.4216
 4068SOL    HW216038   1.286   4.306   0.542  0.8764  0.2584  0.5340
 4068SOL    HW316039   1.151   4.367   0.574  0.3351 -0.4935 -0.2736
 4068SOL    MW416040   1.234   4.376   0.548  0.2941 -0.0851 -0.2760
 4069SOL     OW16041   3.075   2.117   4.628  0.4560 -0.2533  0.9378
 4069SOL    HW216042   3.080   2.027   4.661  0.4116  0.0668  1.8388
 4069SOL    HW316043   3.156   2.158   4.657  0.8532 -0.2085 -0.1570
 4069SOL    MW416044   3.086   2.111   4.636  0.5025 -0.2051  0.9122
 4070SOL     OW16045   1.512   2.164   2.148  0.0939  0.5895  0.0371
 4070SOL    HW216046   1.496   2.102   2.077  1.1022 -2.1785  2.0419
 4070SOL    HW316047   1.439   2.225   2.144 -1.9806 -1.7947 -1.0179
 4070SOL    MW416048   1.500   2.164   2.138 -0.0468 -0.0902  0.1624
 4071SOL     OW16049   0.325   2.902   5.116  0.2653 -0.2265 -0.1132
 4071SOL    HW216050   0.236   2.917   5.084  0.1152 -0.2747  0.2718
 4071SOL    HW316051   0.381   2.918   5.041 -0.0296  0.3660 -0.2067
 4071SOL    MW416052   0.321   2.906   5.102  0.2066 -0.1547 -0.0747
 4072SOL     OW16053   1.172   5.728   0.039  0.8691 -0.1823 -0.3895
 4072SOL    HW216054   1.205   5.782   0.111 -1.4467 -0.9023  1.3469
 4072SOL    HW316055   1.078   5.722   0.055  0.5815 -2.0872 -2.3512
 4072SOL    MW416056   1.164   5.734   0.051  0.5256 -0.5286 -0.4192
 4073SOL     OW16057   0.376   2.295   2.968  0.0554  0.0854  0.3944
 4073SOL    HW216058   0.465   2.275   2.998  0.9539 -1.3226 -2.7903
 4073SOL    HW316059   0.372   2.391   2.966  1.2932  0.1650  1.1353
 4073SOL    MW416060   0.387   2.305   2.971  0.3372 -0.0899  0.0720
 4074SOL     OW16061   1.465   4.572   4.983  0.5452 -0.1471  0.7153
 4074SOL    HW216062   1.433   4.538   5.067 -0.3130  0.8258  0.8095
 4074SOL    HW316063   1.390   4.562   4.923  1.1977 -0.9716  0.0104
 4074SOL    MW416064   1.451   4.566   4.986  0.5181 -0.1275  0.6347
 4075SOL     OW16065   2.357   1.100   6.119  0.4600  0.3176  0.3240
 4075SOL    HW216066   2.271   1.075   6.153  0.7674  0.1718  1.0086
 4075SOL    HW316067   2.339   1.173   6.060 -0.3570 -0.8806 -0.9984
 4075SOL    MW416068   2.343   1.106   6.116  0.3928  0.1403  0.2398
 4076SOL     OW16069   4.573   0.297   2.541  0.3131  0.0241  0.2150
 4076SOL    HW216070   4.506   0.233   2.516  2.9140 -3.0944  0.6742
 4076SOL    HW316071   4.595   0.276   2.631  1.3057  1.5793  0.3747
 4076SOL    MW416072   4.567   0.286   2.549  0.7872 -0.1821  0.2966
 4077SOL     OW16073   6.378   3.753   1.382 -0.2106  0.6361  0.0361
 4077SOL    HW216074   6.363   3.682   1.320 -0.8586  1.5213 -0.8633
 4077SOL    HW316075   6.439   3.812   1.336 -1.1775  1.6128 -0.0617
 4077SOL    MW416076   6.384   3.752   1.367 -0.4237  0.8817 -0.0955
 4078SOL     OW16077   4.621   2.108   3.689  0.6213 -0.2875 -0.1466
 4078SOL    HW216078   4.696   2.069   3.735 -0.7020 -1.3466  1.1949
 4078SOL    HW316079   4.556   2.123   3.757 -0.0941  1.4314 -1.1451
 4078SOL    MW416080   4.623   2.105   3.704  0.3523 -0.2005 -0.1013
 4079SOL     OW16081   5.650   5.339   6.184 -0.8854  0.4764 -0.2569
 4079SOL    HW216082   5.608   5.425   6.176  1.6408  2.1104  1.9685
 4079SOL    HW316083   5.698   5.345   6.267  1.5203 -2.1438 -1.3302
 4079SOL    MW416084   5.650   5.351   6.194 -0.2347  0.3463 -0.1049
 4080SOL     OW16085   1.394   3.567   4.925 -0.0839 -0.2707  0.0701
 4080SOL    HW216086   1.480   3.536   4.897  0.7034  1.0223  0.9271
 4080SOL    HW316087   1.386   3.655   4.888 -2.7625 -1.7133 -3.3139
 4080SOL    MW416088   1.404   3.575   4.917 -0.3334 -0.2904 -0.2633
 4081SOL     OW16089   1.609   1.236   4.282 -0.2486  0.0713  0.2979
 4081SOL    HW216090   1.607   1.159   4.339  0.2864 -0.7264 -0.7418
 4081SOL    HW316091   1.701   1.263   4.282 -0.1991 -0.0820 -0.3789
 4081SOL    MW416092   1.621   1.229   4.290 -0.1715 -0.0542  0.0714
 4082SOL     OW16093   2.913   0.577   2.477  0.7720  0.2597  0.0617
 4082SOL    HW216094   2.966   0.533   2.542  1.0532  0.6722  0.1178
 4082SOL    HW316095   2.947   0.546   2.393 -0.0330 -0.7904  0.1001
 4082SOL    MW416096   2.925   0.567   2.474  0.7029  0.1756  0.0741
 4083SOL     OW16097   1.275   3.696   5.864 -0.5359  0.1820  0.0240
 4083SOL    HW216098   1.219   3.663   5.934 -0.6831 -0.2290 -0.2811
 4083SOL    HW316099   1.249   3.645   5.787  0.4864 -0.2456 -0.0481
 4083SOL    MW416100   1.264   3.685   5.863 -0.4204  0.0713 -0.0257
 4084SOL     OW16101   6.264   2.456   2.679  0.6517  0.2613 -0.2529
 4084SOL    HW216102   6.320   2.400   2.626 -0.2475 -1.5484  0.6393
 4084SOL    HW316103   6.202   2.397   2.721 -2.0376  2.1712 -1.2274
 4084SOL    MW416104   6.264   2.441   2.678  0.1782  0.2745 -0.2638
 4085SOL     OW16105   5.266   5.516   3.144  0.4579 -0.3805 -0.2181
 4085SOL    HW216106   5.230   5.603   3.127 -0.3849 -1.3310 -4.4432
 4085SOL    HW316107   5.354   5.533   3.179  0.8610  2.2615 -2.1866
 4085SOL    MW416108   5.273   5.530   3.147  0.3999 -0.1573 -1.0352
 4086SOL     OW16109   5.039   0.773   3.544 -0.2650 -0.1254 -0.3231
 4086SOL    HW216110   4.981   0.831   3.593  0.5511  0.6291 -0.2204
 4086SOL    HW316111   4.982   0.732   3.479 -1.5202 -1.6629  1.6157
 4086SOL    MW416112   5.024   0.775   3.542 -0.3229 -0.2287 -0.0537
 4087SOL     OW16113   1.612   4.870   5.980  0.4618  0.2479  0.3049
 4087SOL    HW216114   1.597   4.891   5.888  2.2862 -1.8296 -0.5492
 4087SOL    HW316115   1.544   4.918   6.027 -2.3891 -0.8814 -2.3335
 4087SOL    MW416116   1.601   4.879   5.974  0.3263 -0.1752 -0.1559
 4088SOL     OW16117   3.145   3.436   5.105 -0.1572  0.2992  0.2255
 4088SOL    HW216118   3.148   3.363   5.044  0.6127  0.5452 -0.0401
 4088SOL    HW316119   3.162   3.396   5.191 -1.1152 -0.0262  0.2772
 4088SOL    MW416120   3.148   3.421   5.108 -0.1820  0.2888  0.1973
 4089SOL     OW16121   0.362   3.066   2.160 -0.4017  0.2147 -0.1855
 4089SOL    HW216122   0.435   3.004   2.163 -1.3758 -0.8998  1.3566
 4089SOL    HW316123   0.402   3.150   2.181  0.4845 -0.3423  0.4393
 4089SOL    MW416124   0.377   3.069   2.163 -0.4133 -0.0059  0.1004
 4090SOL     OW16125   1.567   1.321   5.373 -0.2192  0.2018  0.8072
 4090SOL    HW216126   1.485   1.293   5.412 -1.1265 -0.1687 -1.2217
 4090SOL    HW316127   1.548   1.409   5.339  0.3439  0.2798  0.6869
 4090SOL    MW416128   1.554   1.329   5.373 -0.2646  0.1632  0.5236
 4091SOL     OW16129   5.854   0.865   5.260 -0.1615  0.8241  0.1775
 4091SOL    HW216130   5.831   0.851   5.352  0.6832 -0.9690  0.1424
 4091SOL    HW316131   5.770   0.862   5.214 -0.4862  0.7055  0.7650
 4091SOL    MW416132   5.840   0.863   5.266 -0.0929  0.5719  0.2504
 4092SOL     OW16133   0.521   5.260   6.038  0.1397 -0.3703  0.0644
 4092SOL    HW216134   0.594   5.274   5.979 -1.2570  0.4207 -1.5761
 4092SOL    HW316135   0.538   5.319   6.112  0.6076  0.6867 -0.8504
 4092SOL    MW416136   0.533   5.270   6.040  0.0171 -0.1265 -0.2727
 4093SOL     OW16137   0.291   2.520   2.631 -0.0883  0.4288 -0.1674
 4093SOL    HW216138   0.332   2.540   2.715  0.0888  1.4368 -0.4874
 4093SOL    HW316139   0.286   2.424   2.629 -0.1551  0.3954  1.0124
 4093SOL    MW416140   0.295   2.510   2.642 -0.0738  0.5574 -0.0540
 4094SOL     OW16141   6.407   2.512   3.263 -0.7669 -0.3149 -0.5087
 4094SOL    HW216142   6.435   2.569   3.334 -2.2599 -0.5763  0.3176
 4094SOL    HW316143   6.489   2.480   3.224  0.1306  2.2812 -0.9616
 4094SOL    MW416144   6.421   2.515   3.267 -0.8455 -0.0069 -0.4594
 4095SOL     OW16145   0.933   3.502   1.927 -0.8656  0.3732  0.0292
 4095SOL    HW216146   0.845   3.500   1.889 -0.2511 -1.2663 -1.4604
 4095SOL    HW316147   0.938   3.422   1.979 -1.7196  2.5952  3.9305
 4095SOL    MW416148   0.922   3.491   1.929 -0.8972  0.4501  0.3474
 4096SOL     OW16149   2.436   1.923   3.582 -0.1933  0.0422 -0.5652
 4096SOL    HW216150   2.492   1.856   3.541  1.2506  1.3454 -0.8133
 4096SOL    HW316151   2.471   1.932   3.671 -0.0413  0.8035 -0.6935
 4096SOL    MW416152   2.448   1.915   3.588  0.0173  0.3146 -0.6149
 4097SOL     OW16153   2.684   0.512   5.460 -0.3458 -0.3218 -0.6033
 4097SOL    HW216154   2.627   0.588   5.453 -0.5950 -0.2106  1.8480
 4097SOL    HW316155   2.773   0.549   5.455 -0.4674  0.0989  0.1861
 4097SOL    MW416156   2.688   0.527   5.458 -0.3947 -0.2516 -0.1757
 4098SOL     OW16157   6.207   5.613   1.600 -0.3054 -0.8445 -0.1570
 4098SOL    HW216158   6.150   5.545   1.565  0.2532 -1.9773  1.0448
 4098SOL    HW316159   6.210   5.680   1.532 -2.7090 -0.9339 -0.4322
 4098SOL    MW416160   6.200   5.613   1.587 -0.5488 -1.0058 -0.0348
 4099SOL     OW16161   1.122   5.377   1.417  0.3075  0.4815  0.1737
 4099SOL    HW216162   1.150   5.435   1.346  0.5826 -0.8132 -0.8109
 4099SOL    HW316163   1.049   5.424   1.458  1.2043  1.9956  0.1035
 4099SOL    MW416164   1.116   5.391   1.413  0.4622  0.5104  0.0345
 4100SOL     OW16165   5.257   6.291   2.163  0.1350 -0.3992 -0.0425
 4100SOL    HW216166   5.347   6.322   2.152  0.0755 -0.2045  0.0135
 4100SOL    HW316167   5.208   6.337   2.094  0.1681 -0.8857 -0.3964
 4100SOL    MW416168   5.263   6.301   2.152  0.1315 -0.4377 -0.0818
 4101SOL     OW16169   1.958   5.029   5.024 -0.0498 -0.3340 -0.3423
 4101SOL    HW216170   1.948   4.954   5.083 -1.2288  0.9669  1.2244
 4101SOL    HW316171   1.882   5.024   4.966  0.2675 -0.7317 -0.7364
 4101SOL    MW416172   1.946   5.018   5.024 -0.1635 -0.2148 -0.1876
 4102SOL     OW16173   5.139   6.329   2.424  0.4197 -0.0214 -0.2867
 4102SOL    HW216174   5.167   6.309   2.334  0.7950 -0.4422 -0.0838
 4102SOL    HW316175   5.140   6.244   2.468  2.2238  0.4305  0.6540
 4102SOL    MW416176   5.143   6.315   2.418  0.7072 -0.0173 -0.1358
 4103SOL     OW16177   5.866   6.180   2.729  0.1811 -0.2924  0.1328
 4103SOL    HW216178   5.826   6.204   2.813 -1.9426  1.3424 -1.2527
 4103SOL    HW316179   5.820   6.100   2.703  0.3683 -0.4219  0.1958
 4103SOL    MW416180   5.855   6.172   2.737 -0.0744 -0.0938 -0.0417
 4104SOL     OW16181   3.674   0.418   2.713 -0.2521 -0.6690 -0.2141
 4104SOL    HW216182   3.730   0.487   2.680  0.0310 -0.6348  0.3242
 4104SOL    HW316183   3.709   0.398   2.800 -2.3436  0.8679  1.0727
 4104SOL    MW416184   3.686   0.424   2.720 -0.4907 -0.4617  0.0267
 4105SOL     OW16185   6.251   4.823   5.187  0.9178  0.1357  0.2420
 4105SOL    HW216186   6.231   4.816   5.281 -4.7579  0.0061 -0.5974
 4105SOL    HW316187   6.249   4.733   5.156 -1.3715  0.3358 -0.4182
 4105SOL    MW416188   6.248   4.810   5.195 -0.1331  0.1450  0.0442
 4106SOL     OW16189   4.481   4.456   4.436 -0.2862  0.3052  0.3449
 4106SOL    HW216190   4.478   4.541   4.480 -1.5515 -0.2045  1.2894
 4106SOL    HW316191   4.518   4.475   4.350 -2.6310  2.2225 -0.3427
 4106SOL    MW416192   4.485   4.470   4.431 -0.7625  0.4909  0.3788
 4107SOL     OW16193   4.424   4.019   4.909 -0.3403  0.0158 -0.5519
 4107SOL    HW216194   4.461   4.105   4.891 -1.4394  0.1368 -2.5914
 4107SOL    HW316195   4.371   4.032   4.988  1.2456  0.6285  0.4480
 4107SOL    MW416196   4.422   4.032   4.917 -0.2761  0.1126 -0.6891
 4108SOL     OW16197   0.640   3.972   1.062 -0.2748  0.0479  0.4219
 4108SOL    HW216198   0.732   3.996   1.054 -0.4752  0.7425  0.1333
 4108SOL    HW316199   0.641   3.883   1.097  0.5779 -1.2739 -2.6627
 4108SOL    MW416200   0.652   3.963   1.066 -0.1887 -0.0348 -0.0231
 4109SOL     OW16201   4.763   3.412   5.521  0.2185  0.6142 -0.4282
 4109SOL    HW216202   4.801   3.475   5.459  0.0101  1.5877  0.3912
 4109SOL    HW316203   4.760   3.461   5.604 -0.3139 -0.3647  0.1372
 4109SOL    MW416204   4.768   3.427   5.524  0.1207  0.6135 -0.2455
 4110SOL     OW16205   2.181   3.059   2.557 -0.3091 -0.0388 -0.3547
 4110SOL    HW216206   2.101   3.062   2.505 -0.9725  0.6172  0.6608
 4110SOL    HW316207   2.196   3.150   2.583  0.0278 -0.3403  0.5514
 4110SOL    MW416208   2.173   3.071   2.554 -0.3522  0.0080 -0.1012
 4111SOL     OW16209   4.736   2.822   6.168  0.0049  0.1847 -0.1312
 4111SOL    HW216210   4.730   2.879   6.245  0.3528  0.1182 -0.0562
 4111SOL    HW316211   4.648   2.785   6.160  0.2011 -0.4995  0.7653
 4111SOL    MW416212   4.724   2.825   6.177  0.0767  0.0857 -0.0030
 4112SOL     OW16213   0.795   1.309   0.252  0.1911 -0.0283 -0.0073
 4112SOL    HW216214   0.724   1.302   0.316  0.4230 -0.1759  0.2385
 4112SOL    HW316215   0.863   1.358   0.298 -0.1537  1.0214 -0.5980
 4112SOL    MW416216   0.795   1.315   0.267  0.1762  0.0907 -0.0528
 4113SOL     OW16217   4.242   2.996   1.009 -0.1271  0.2444  0.0703
 4113SOL    HW216218   4.267   3.037   1.093 -1.1038  1.5291 -0.2363
 4113SOL    HW316219   4.286   2.911   1.010 -0.6139 -0.0347  2.1726
 4113SOL    MW416220   4.251   2.990   1.021 -0.3202  0.3770  0.3072
 4114SOL     OW16221   5.112   1.366   2.193 -0.1499 -0.4882  0.1445
 4114SOL    HW216222   5.039   1.422   2.169  0.8859  0.5651 -0.7139
 4114SOL    HW316223   5.155   1.411   2.266 -1.0333 -1.7278  1.4901
 4114SOL    MW416224   5.108   1.379   2.199 -0.1298 -0.5128  0.2088
 4115SOL     OW16225   0.452   1.634   5.265 -0.3975  0.1343  0.0512
 4115SOL    HW216226   0.409   1.719   5.260  0.0158  0.2509 -3.0979
 4115SOL    HW316227   0.546   1.655   5.272 -0.4332 -0.1123  1.5528
 4115SOL    MW416228   0.459   1.648   5.266 -0.3477  0.1171 -0.1661
 4116SOL     OW16229   1.887   1.260   4.275  0.0808 -0.1615  0.1488
 4116SOL    HW216230   1.908   1.199   4.205  0.0958  1.7565 -1.6025
 4116SOL    HW316231   1.927   1.222   4.353 -0.2351 -2.5440 -0.7761
 4116SOL    MW416232   1.895   1.247   4.276  0.0411 -0.2228 -0.2043
 4117SOL     OW16233   1.883   5.867   3.901 -0.0271 -0.4194  0.1801
 4117SOL    HW216234   1.877   5.791   3.958 -1.2902 -1.3364 -1.1174
 4117SOL    HW316235   1.904   5.831   3.815  2.1774  0.9580  0.0688
 4117SOL    MW416236   1.885   5.852   3.898  0.0972 -0.3587 -0.0057
 4118SOL     OW16237   0.093   0.171   2.564 -0.1939 -0.2104 -0.1054
 4118SOL    HW216238   0.060   0.200   2.479 -2.2012  4.1024  1.7862
 4118SOL    HW316239   0.019   0.125   2.604 -1.0112  1.8065  0.8689
 4118SOL    MW416240   0.079   0.169   2.558 -0.5665  0.6247  0.2727
 4119SOL     OW16241   0.340   5.784   4.060  0.2445  0.0580 -0.2795
 4119SOL    HW216242   0.262   5.818   4.104 -1.2331  0.5839 -3.0760
 4119SOL    HW316243   0.400   5.859   4.055  0.1956  0.1387  0.3124
 4119SOL    MW416244   0.338   5.798   4.065  0.0431  0.1380 -0.5704
 4120SOL     OW16245   6.354   5.385   4.855 -0.0297 -0.1218 -0.4388
 4120SOL    HW216246   6.418   5.397   4.925  1.1894  1.0142 -1.6980
 4120SOL    HW316247   6.278   5.345   4.899  0.5950  0.7503  1.5498
 4120SOL    MW416248   6.352   5.381   4.870  0.2136  0.1432 -0.3426
 4121SOL     OW16249   1.706   2.327   0.340  0.4241 -0.6223 -0.4973
 4121SOL    HW216250   1.741   2.238   0.335 -0.5478 -1.0642  0.1668
 4121SOL    HW316251   1.721   2.364   0.253  2.7516 -0.6674 -0.1852
 4121SOL    MW416252   1.713   2.320   0.328  0.6030 -0.6866 -0.3685
 4122SOL     OW16253   5.114   4.503   2.244 -0.0398 -0.4083  0.1782
 4122SOL    HW216254   5.172   4.534   2.314 -0.5725 -2.0619  1.4233
 4122SOL    HW316255   5.173   4.487   2.170  0.6997  0.3953  0.5747
 4122SOL    MW416256   5.130   4.505   2.243 -0.0125 -0.5205  0.3948
 4123SOL     OW16257   3.584   4.815   3.587 -0.2436  0.2475  0.4414
 4123SOL    HW216258   3.644   4.775   3.649 -2.0885 -0.6641  1.7146
 4123SOL    HW316259   3.562   4.745   3.526  0.1318  0.6529 -0.1873
 4123SOL    MW416260   3.589   4.801   3.587 -0.4375  0.1807  0.5265
 4124SOL     OW16261   1.996   6.210   6.204  0.7449  0.3427  0.1008
 4124SOL    HW216262   1.999   6.124   6.247  1.0885  0.1897 -0.2289
 4124SOL    HW316263   2.066   6.260   6.246 -0.3293  0.9231  1.2594
 4124SOL    MW416264   2.005   6.205   6.215  0.6485  0.3991  0.2102
 4125SOL     OW16265   4.241   2.990   5.883  0.3634  0.3638 -0.3409
 4125SOL    HW216266   4.294   2.979   5.962  1.6635 -1.3213 -1.3652
 4125SOL    HW316267   4.152   3.004   5.915  0.3919 -2.7246  1.5023
 4125SOL    MW416268   4.236   2.990   5.898  0.5387 -0.2660 -0.2329
 4126SOL     OW16269   2.449   1.166   5.624  0.0175  0.5839  0.1256
 4126SOL    HW216270   2.526   1.115   5.601 -0.3641 -0.5991  1.3142
 4126SOL    HW316271   2.419   1.204   5.541  0.3310 -1.1328 -0.8149
 4126SOL    MW416272   2.455   1.164   5.610  0.0085  0.2013  0.1583
 4127SOL     OW16273   3.049   5.986   6.114 -0.2906 -0.5047  0.8728
 4127SOL    HW216274   3.074   6.004   6.205 -0.5985 -1.3392  1.1366
 4127SOL    HW316275   3.075   5.894   6.100  0.0967 -0.2691 -0.0055
 4127SOL    MW416276   3.056   5.976   6.125 -0.2801 -0.5837  0.7917
 4128SOL     OW16277   1.410   5.074   5.228 -0.3925 -0.2040  0.3155
 4128SOL    HW216278   1.351   5.148   5.241 -1.7729 -1.1850 -0.0782
 4128SOL    HW316279   1.456   5.094   5.147  0.1861  0.8085  0.8859
 4128SOL    MW416280   1.408   5.086   5.219 -0.4983 -0.1998  0.3388
 4129SOL     OW16281   2.304   6.086   1.024  0.2247  0.0758  0.3268
 4129SOL    HW216282   2.370   6.079   1.093 -0.2580 -1.1292  0.6846
 4129SOL    HW316283   2.306   6.001   0.980 -0.2573  0.4470 -0.4378
 4129SOL    MW416284   2.313   6.074   1.027  0.0974 -0.0342  0.2731
 4130SOL     OW16285   4.602   6.290   2.959  0.1240 -0.0069 -0.6018
 4130SOL    HW216286   4.666   6.334   2.902 -0.5533  0.3323 -1.1091
 4130SOL    HW316287   4.578   6.211   2.912 -1.0809  0.6957 -1.2181
 4130SOL    MW416288   4.608   6.286   2.945 -0.1243  0.1306 -0.7501
 4131SOL     OW16289   4.368   2.674   3.734 -0.3774 -0.5249 -0.1725
 4131SOL    HW216290   4.433   2.610   3.764 -0.3886 -1.0192 -1.1594
 4131SOL    HW316291   4.365   2.740   3.803  0.6174 -0.8968  0.2369
 4131SOL    MW416292   4.376   2.674   3.747 -0.2476 -0.6392 -0.2487
 4132SOL     OW16293   3.144   2.174   6.364  0.2287 -0.1273  0.6660
 4132SOL    HW216294   3.143   2.099   6.423 -0.7139  0.6974  1.7475
 4132SOL    HW316295   3.142   2.135   6.276 -0.2273 -1.3634  1.1929
 4132SOL    MW416296   3.143   2.159   6.360  0.0441 -0.1816  0.8782
 4133SOL     OW16297   0.508   3.794   3.160 -0.0956 -0.2573  0.7800
 4133SOL    HW216298   0.582   3.854   3.154  0.2722 -0.6977  0.8684
 4133SOL    HW316299   0.431   3.849   3.146  0.3090 -0.0205 -0.7042
 4133SOL    MW416300   0.507   3.809   3.157  0.0063 -0.2842  0.5958
 4134SOL     OW16301   0.070   2.367   4.644 -0.0358  0.1625 -0.3070
 4134SOL    HW216302   0.162   2.393   4.650 -0.2498  1.5560 -2.3171
 4134SOL    HW316303   0.029   2.404   4.722  1.0290 -0.2783  0.4895
 4134SOL    MW416304   0.077   2.375   4.655  0.0765  0.2882 -0.4671
 4135SOL     OW16305   5.139   3.441   3.654 -0.0104  0.4683  0.4958
 4135SOL    HW216306   5.153   3.346   3.652 -1.4281  0.1870 -3.1302
 4135SOL    HW316307   5.224   3.479   3.633 -0.1035 -0.2446 -1.3825
 4135SOL    MW416308   5.152   3.433   3.651 -0.2097  0.3371 -0.2304
 4136SOL     OW16309   3.090   2.898   5.664 -0.2708 -0.1110 -0.2374
 4136SOL    HW216310   3.143   2.951   5.723  2.2678 -2.4447 -0.2517
 4136SOL    HW316311   3.108   2.933   5.577  2.7924 -1.8947 -0.4495
 4136SOL    MW416312   3.099   2.910   5.661  0.4683 -0.6542 -0.2673
 4137SOL     OW16313   5.490   5.337   0.419  0.1803  0.2051  0.5205
 4137SOL    HW216314   5.402   5.375   0.421  0.3065  0.5069  0.4284
 4137SOL    HW316315   5.534   5.383   0.347  1.2384  1.8746  2.1475
 4137SOL    MW416316   5.484   5.348   0.409  0.3366  0.4652  0.7230
 4138SOL     OW16317   0.872   1.290   5.947  0.1384 -0.0748  0.4416
 4138SOL    HW216318   0.819   1.249   6.015 -0.6646  1.3081  0.7015
 4138SOL    HW316319   0.808   1.332   5.889  0.8828  0.3705 -0.0761
 4138SOL    MW416320   0.856   1.290   5.948  0.1307  0.1664  0.4076
 4139SOL     OW16321   5.112   4.679   5.581 -0.0250 -0.7129 -0.2000
 4139SOL    HW216322   5.132   4.742   5.650 -1.2133 -1.8223  1.2404
 4139SOL    HW316323   5.084   4.732   5.507  0.8649  0.5059  0.2951
 4139SOL    MW416324   5.111   4.694   5.581 -0.0644 -0.6985  0.0554
 4140SOL     OW16325   5.400   1.321   1.126 -0.6279  0.2049 -0.4789
 4140SOL    HW216326   5.490   1.312   1.159 -1.6453 -0.2568  2.4326
 4140SOL    HW316327   5.411   1.363   1.040  2.3514  0.1314 -0.2558
 4140SOL    MW416328   5.414   1.326   1.119 -0.3691  0.1343 -0.0654
 4141SOL     OW16329   1.243   4.022   2.178  0.0833 -0.3767  0.4541
 4141SOL    HW216330   1.330   4.048   2.209  0.7138 -0.7318 -0.9260
 4141SOL    HW316331   1.251   3.929   2.157 -0.0880 -0.0309 -1.3396
 4141SOL    MW416332   1.256   4.013   2.179  0.1439 -0.3779  0.0354
 4142SOL     OW16333   4.030   3.693   0.415  0.4093 -0.6695  0.2150
 4142SOL    HW216334   4.068   3.779   0.432 -0.3801 -0.8131  3.3470
 4142SOL    HW316335   4.098   3.631   0.441 -0.3171 -0.9294  1.5866
 4142SOL    MW416336   4.044   3.696   0.421  0.2093 -0.7228  0.8092
 4143SOL     OW16337   0.119   0.384   5.379 -0.2824  0.3521 -0.0669
 4143SOL    HW216338   0.147   0.464   5.333 -0.6060 -0.4583 -1.7514
 4143SOL    HW316339   0.142   0.400   5.471 -1.5465  2.9359 -0.1010
 4143SOL    MW416340   0.126   0.397   5.385 -0.4918  0.5861 -0.2936
 4144SOL     OW16341   0.651   3.977   6.358 -0.3049 -0.2484 -0.1316
 4144SOL    HW216342   0.664   3.882   6.364 -0.0018 -0.1579  0.8441
 4144SOL    HW316343   0.620   4.002   6.445 -0.0290  0.6043 -0.2708
 4144SOL    MW416344   0.648   3.968   6.371 -0.2285 -0.1239 -0.0212
 4145SOL     OW16345   4.310   1.633   0.615 -0.8004 -0.6082  0.0124
 4145SOL    HW216346   4.249   1.562   0.638  0.0157 -1.1593  0.5369
 4145SOL    HW316347   4.359   1.649   0.696 -1.3151  0.9238  0.0454
 4145SOL    MW416348   4.309   1.626   0.629 -0.7606 -0.4788  0.0860
 4146SOL     OW16349   1.841   0.512   5.652 -0.4863  0.1557  0.7312
 4146SOL    HW216350   1.862   0.579   5.717 -0.6337 -0.2578  1.2153
 4146SOL    HW316351   1.922   0.461   5.643  0.0791  1.2508 -0.6976
 4146SOL    MW416352   1.855   0.514   5.660 -0.4311  0.2456  0.6065
 4147SOL     OW16353   2.210   0.011   3.641  0.6473 -0.9447 -0.2652
 4147SOL    HW216354   2.120   0.042   3.654 -0.5862 -2.4657 -3.9006
 4147SOL    HW316355   2.263   0.091   3.644 -0.8689  0.0843  1.2110
 4147SOL    MW416356   2.205   0.026   3.643  0.2845 -1.0096 -0.5501
 4148SOL     OW16357   5.473   1.518   4.308  0.2655 -0.5234  0.0631
 4148SOL    HW216358   5.432   1.583   4.366  1.9403 -0.0378  0.7562
 4148SOL    HW316359   5.547   1.485   4.358  1.6293 -0.2666 -1.6905
 4148SOL    MW416360   5.477   1.523   4.322  0.6664 -0.4254 -0.0768
 4149SOL     OW16361   2.405   2.006   4.899  0.7353 -0.5222 -0.2229
 4149SOL    HW216362   2.490   2.044   4.878  1.8061 -1.6782  1.7024
 4149SOL    HW316363   2.390   1.941   4.830  0.5270  0.8894 -1.5628
 4149SOL    MW416364   2.414   2.002   4.887  0.8491 -0.4885 -0.1456
 4150SOL     OW16365   2.602   4.256   4.737  0.4688  0.3726 -0.3602
 4150SOL    HW216366   2.694   4.276   4.757  1.1219 -2.6669  0.1670
 4150SOL    HW316367   2.579   4.187   4.800 -2.4500  1.5504  0.0017
 4150SOL    MW416368   2.611   4.249   4.748  0.1699  0.1270 -0.2429
 4151SOL     OW16369   5.661   5.347   5.403 -0.0560 -0.0162 -0.3352
 4151SOL    HW216370   5.594   5.301   5.453  0.3550 -0.2565 -0.0006
 4151SOL    HW316371   5.730   5.365   5.467 -0.1990  1.0493 -0.4602
 4151SOL    MW416372   5.661   5.344   5.418 -0.0206  0.0927 -0.3075
 4152SOL     OW16373   5.354   4.637   3.184 -0.6865 -0.9169  0.0271
 4152SOL    HW216374   5.423   4.691   3.144 -1.8345 -0.1633 -1.0093
 4152SOL    HW316375   5.380   4.628   3.276  0.4850 -0.1689 -0.2149
 4152SOL    MW416376   5.367   4.643   3.191 -0.6834 -0.7188 -0.1416
 4153SOL     OW16377   3.111   3.063   4.179  0.1781  0.6041 -0.1330
 4153SOL    HW216378   3.089   2.971   4.193 -0.8923  0.8652 -0.0616
 4153SOL    HW316379   3.168   3.062   4.102 -0.0316 -0.0919 -0.2852
 4153SOL    MW416380   3.116   3.051   4.170  0.0092  0.5467 -0.1437
 4154SOL     OW16381   4.838   3.943   2.282  0.1012 -0.1953 -0.1659
 4154SOL    HW216382   4.842   4.037   2.302 -0.4722 -0.5918  2.0422
 4154SOL    HW316383   4.752   3.916   2.313  0.2931 -1.4898 -0.7128
 4154SOL    MW416384   4.827   3.952   2.288  0.0509 -0.4184  0.0533
 4155SOL     OW16385   2.614   2.880   3.335  0.1231  0.0476 -0.5772
 4155SOL    HW216386   2.530   2.925   3.338  0.9391  1.6407 -0.6118
 4155SOL    HW316387   2.678   2.945   3.366  1.2095 -1.4899  0.6016
 4155SOL    MW416388   2.612   2.895   3.339  0.3741  0.0550 -0.4262
 4156SOL     OW16389   1.842   0.606   5.286 -0.6678 -0.0967 -0.1365
 4156SOL    HW216390   1.910   0.666   5.316  0.0270 -0.4131 -1.0322
 4156SOL    HW316391   1.771   0.616   5.349  1.1482 -1.5681  2.2972
 4156SOL    MW416392   1.842   0.615   5.298 -0.3365 -0.3326  0.0664
 4157SOL     OW16393   0.740   6.419   6.225  0.2270  0.0339 -0.2220
 4157SOL    HW216394   0.799   6.486   6.191  0.6539  0.2900  0.9756
 4157SOL    HW316395   0.692   6.464   6.295 -0.9958 -0.3262 -0.7980
 4157SOL    MW416396   0.741   6.434   6.230  0.1220  0.0202 -0.1400
 4158SOL     OW16397   2.243   3.436   5.400 -0.0131  0.6201 -0.5490
 4158SOL    HW216398   2.321   3.488   5.417  0.3121 -0.4018  1.3203
 4158SOL    HW316399   2.264   3.349   5.435 -2.4019  0.6227  1.1182
 4158SOL    MW416400   2.256   3.431   5.407 -0.2854  0.4856 -0.0824
 4159SOL     OW16401   4.659   2.703   4.187  0.0451 -0.4400 -0.3248
 4159SOL    HW216402   4.691   2.770   4.247  1.6620 -0.0244 -1.5745
 4159SOL    HW316403   4.566   2.694   4.207  0.1334  1.0968  0.8772
 4159SOL    MW416404   4.651   2.710   4.197  0.2701 -0.1824 -0.3311
 4160SOL     OW16405   2.182   0.889   2.644  0.1496 -0.4628 -0.4709
 4160SOL    HW216406   2.267   0.845   2.652 -0.3400 -1.1454  1.6044
 4160SOL    HW316407   2.121   0.820   2.619 -0.3583 -0.7638  1.3954
 4160SOL    MW416408   2.186   0.874   2.642  0.0180 -0.5926  0.0491
 4161SOL     OW16409   4.570   0.786   5.400 -0.1513  0.2846  0.0642
 4161SOL    HW216410   4.589   0.709   5.347 -1.3928  0.7509 -1.1282
 4161SOL    HW316411   4.499   0.758   5.458 -1.2893  0.7459 -1.0424
 4161SOL    MW416412   4.563   0.772   5.400 -0.4653  0.4070 -0.2391
 4162SOL     OW16413   2.981   4.312   5.056  1.1229  0.1844 -0.3355
 4162SOL    HW216414   2.935   4.291   4.975  2.0727  0.5055 -0.9738
 4162SOL    HW316415   2.956   4.242   5.117  1.3310 -0.7121 -1.2660
 4162SOL    MW416416   2.971   4.300   5.053  1.2757  0.1085 -0.5425
 4163SOL     OW16417   5.693   4.963   2.568  0.6695 -0.1334  0.3536
 4163SOL    HW216418   5.648   4.982   2.650  0.5679 -0.7686  0.4493
 4163SOL    HW316419   5.638   5.002   2.500  0.9740  0.7712  0.6134
 4163SOL    MW416420   5.680   4.971   2.570  0.6963 -0.0978  0.4005
 4164SOL     OW16421   2.408   2.330   2.818  0.4197  0.0445  0.1208
 4164SOL    HW216422   2.419   2.424   2.804  1.3624 -0.1954 -0.9265
 4164SOL    HW316423   2.314   2.315   2.803  0.1862  0.8593  0.6711
 4164SOL    MW416424   2.397   2.341   2.814  0.5133  0.1203  0.0552
 4165SOL     OW16425   3.932   2.720   1.577 -0.0427  0.7395 -0.1887
 4165SOL    HW216426   3.866   2.733   1.509 -0.6522 -1.7918 -0.1698
 4165SOL    HW316427   3.899   2.647   1.629  1.0033  1.8167  2.1166
 4165SOL    MW416428   3.919   2.712   1.575  0.0149  0.5476  0.1179
 4166SOL     OW16429   2.109   3.326   1.936 -0.1191  0.3177 -0.9496
 4166SOL    HW216430   2.086   3.302   1.846  1.5898 -0.8691 -1.1053
 4166SOL    HW316431   2.201   3.354   1.930  0.3789 -0.8861  0.6037
 4166SOL    MW416432   2.118   3.327   1.923  0.1721  0.0023 -0.7652
 4167SOL     OW16433   1.309   6.369   0.436  0.1939 -0.5139  0.0870
 4167SOL    HW216434   1.248   6.423   0.486  0.1314  0.0928 -0.6411
 4167SOL    HW316435   1.372   6.338   0.501  1.2113  1.7596  0.2681
 4167SOL    MW416436   1.309   6.372   0.451  0.3199 -0.1339  0.0148
 4168SOL     OW16437   3.748   6.173   2.639 -0.2727  0.2897  0.6676
 4168SOL    HW216438   3.782   6.110   2.576 -1.4252 -2.0830  2.2385
 4168SOL    HW316439   3.808   6.247   2.635  2.4051 -1.7598  0.1151
 4168SOL    MW416440   3.761   6.175   2.630 -0.0715 -0.2938  0.8020
 4169SOL     OW16441   5.767   3.831   0.124  0.5089 -0.0227  0.4580
 4169SOL    HW216442   5.842   3.799   0.174  0.8993  1.1220  0.6385
 4169SOL    HW316443   5.758   3.769   0.052  2.6313  0.6533 -0.4779
 4169SOL    MW416444   5.776   3.819   0.121  0.8404  0.2175  0.3583
 4170SOL     OW16445   1.329   0.812   0.211 -0.1935  0.4569  0.1587
 4170SOL    HW216446   1.258   0.875   0.197 -0.1494  0.1283 -1.7002
 4170SOL    HW316447   1.408   0.859   0.184  0.0930  0.2618  0.6466
 4170SOL    MW416448   1.330   0.827   0.206 -0.1498  0.3878 -0.0222
 4171SOL     OW16449   1.350   3.433   1.743  0.3712 -0.2981 -0.1171
 4171SOL    HW216450   1.355   3.402   1.833 -1.1034 -0.7559 -0.1537
 4171SOL    HW316451   1.259   3.417   1.718  0.5702  0.5060 -1.4440
 4171SOL    MW416452   1.339   3.427   1.751  0.2029 -0.2524 -0.2970
 4172SOL     OW16453   4.940   6.045   3.192  0.2522  0.5675  0.2945
 4172SOL    HW216454   4.870   6.010   3.136  0.9442  0.0683 -0.2804
 4172SOL    HW316455   4.981   6.113   3.138  1.4305 -0.4521 -0.1524
 4172SOL    MW416456   4.936   6.049   3.177  0.4990  0.3671  0.1597
 4173SOL     OW16457   5.346   2.222   5.508 -0.1955 -0.2399 -0.0303
 4173SOL    HW216458   5.264   2.206   5.462 -0.5397  1.4162 -0.0453
 4173SOL    HW316459   5.327   2.292   5.570  0.8297 -0.8935  1.0803
 4173SOL    MW416460   5.333   2.229   5.510 -0.1056 -0.1076  0.1143
 4174SOL     OW16461   0.574   6.368   5.149 -0.4056 -0.3735 -0.2225
 4174SOL    HW216462   0.594   6.320   5.068 -0.2947 -0.0137 -0.4101
 4174SOL    HW316463   0.611   6.455   5.135 -1.3005  0.0200 -0.2075
 4174SOL    MW416464   0.581   6.373   5.137 -0.5090 -0.2741 -0.2453
 4175SOL     OW16465   2.067   3.027   5.237  0.1893  0.0064 -0.0221
 4175SOL    HW216466   2.105   2.943   5.262 -0.3413 -0.6678 -1.3811
 4175SOL    HW316467   2.115   3.053   5.159  0.8191  1.3357  0.7781
 4175SOL    MW416468   2.078   3.019   5.230  0.2024  0.0928 -0.0958
 4176SOL     OW16469   2.919   6.187   0.780  0.0702  0.2556 -0.0992
 4176SOL    HW216470   2.951   6.249   0.846 -0.6946  1.0913 -0.4910
 4176SOL    HW316471   2.986   6.119   0.776  0.9845  1.1215  0.2538
 4176SOL    MW416472   2.932   6.186   0.788  0.0899  0.4801 -0.1043
 4177SOL     OW16473   3.166   1.691   3.752  0.1137  0.0549 -0.3606
 4177SOL    HW216474   3.144   1.618   3.809  0.6431  0.6834  0.6841
 4177SOL    HW316475   3.157   1.656   3.663  1.8333 -1.7381  0.1037
 4177SOL    MW416476   3.162   1.677   3.748  0.4104 -0.0987 -0.1615
 4178SOL     OW16477   1.284   1.532   6.308  0.1377  0.0448 -0.1377
 4178SOL    HW216478   1.277   1.493   6.395 -4.2900  1.6462  0.4388
 4178SOL    HW316479   1.260   1.462   6.248 -0.0334 -0.1900  0.2027
 4178SOL    MW416480   1.280   1.518   6.312 -0.4690  0.2251 -0.0167
 4179SOL     OW16481   5.599   1.533   4.729  0.2267 -0.5255  0.1298
 4179SOL    HW216482   5.670   1.473   4.749  0.8191  0.2161  0.2747
 4179SOL    HW316483   5.636   1.595   4.666 -0.3631 -0.2820  0.0102
 4179SOL    MW416484   5.613   1.533   4.723  0.2270 -0.3955  0.1331
 4180SOL     OW16485   3.437   3.582   2.680  0.0176 -0.0234 -0.2793
 4180SOL    HW216486   3.452   3.669   2.643  0.0997 -0.4969 -1.3854
 4180SOL    HW316487   3.389   3.535   2.612 -2.0624 -0.1583  1.1923
 4180SOL    MW416488   3.433   3.588   2.666 -0.2460 -0.1037 -0.2311
 4181SOL     OW16489   0.520   2.533   5.641  0.7398  0.3630 -0.4548
 4181SOL    HW216490   0.539   2.441   5.625 -1.1171 -0.0972 -0.2655
 4181SOL    HW316491   0.450   2.555   5.579  0.7515  1.4817 -0.1051
 4181SOL    MW416492   0.513   2.524   5.631  0.4963  0.4499 -0.3837
 4182SOL     OW16493   0.887   3.705   4.127  0.0692 -0.6365 -0.4497
 4182SOL    HW216494   0.926   3.773   4.183 -0.7114 -2.0875  2.0219
 4182SOL    HW316495   0.949   3.695   4.055  1.6414  0.6804  0.6296
 4182SOL    MW416496   0.900   3.713   4.125  0.1737 -0.6542  0.0188
 4183SOL     OW16497   0.471   5.897   5.235 -0.3720 -0.6856  0.4925
 4183SOL    HW216498   0.515   5.972   5.274 -0.6159 -0.4261  0.2757
 4183SOL    HW316499   0.463   5.919   5.142  1.0040 -1.6874  0.1075
 4183SOL    MW416500   0.476   5.910   5.228 -0.2226 -0.7836  0.4131
 4184SOL     OW16501   0.120   3.447   5.746 -0.4985  0.2392  0.2647
 4184SOL    HW216502   0.153   3.475   5.661 -1.8865  1.9881  0.2435
 4184SOL    HW316503   0.098   3.529   5.791 -0.2019 -0.6577  2.1575
 4184SOL    MW416504   0.122   3.462   5.741 -0.6425  0.3516  0.5116
 4185SOL     OW16505   3.323   1.744   0.077 -0.2977 -0.1047  0.2978
 4185SOL    HW216506   3.276   1.738   0.161 -2.3762 -2.4811 -0.8942
 4185SOL    HW316507   3.397   1.684   0.087 -1.4745 -1.6741 -0.0437
 4185SOL    MW416508   3.326   1.735   0.090 -0.7272 -0.6253  0.0955
 4186SOL     OW16509   1.407   4.106   4.170  0.2918 -0.0411 -0.4203
 4186SOL    HW216510   1.359   4.080   4.249 -0.4203  0.1768 -0.7787
 4186SOL    HW316511   1.340   4.115   4.103  0.8081  0.5164 -0.8673
 4186SOL    MW416512   1.392   4.104   4.172  0.2660  0.0612 -0.5266
 4187SOL     OW16513   4.617   0.773   2.420 -0.2947  0.0992 -0.4128
 4187SOL    HW216514   4.625   0.815   2.505  1.4682 -0.1567 -0.4269
 4187SOL    HW316515   4.583   0.842   2.362  0.6380  0.9370  0.0115
 4187SOL    MW416516   4.613   0.788   2.423  0.0610  0.1760 -0.3587
 4188SOL     OW16517   6.310   3.891   3.419  0.1749  0.0028 -0.0255
 4188SOL    HW216518   6.257   3.970   3.416 -0.8499 -0.6856 -0.7613
 4188SOL    HW316519   6.255   3.823   3.378  1.5723 -0.7599 -0.7360
 4188SOL    MW416520   6.296   3.892   3.413  0.2241 -0.1887 -0.2163
 4189SOL     OW16521   4.549   5.452   4.061  0.0585  0.3293 -0.9628
 4189SOL    HW216522   4.502   5.433   4.143 -0.9312  0.6990 -1.4248
 4189SOL    HW316523   4.633   5.489   4.089  0.5868 -1.4231 -0.0908
 4189SOL    MW416524   4.554   5.454   4.075 -0.0024  0.1469 -0.9087
 4190SOL     OW16525   5.355   0.506   4.026 -0.3000  0.1357  0.4338
 4190SOL    HW216526   5.389   0.567   4.092 -0.5854 -1.6669  2.3426
 4190SOL    HW316527   5.301   0.561   3.968  2.3590  2.3177 -0.1868
 4190SOL    MW416528   5.352   0.522   4.027  0.0131  0.1857  0.6038
 4191SOL     OW16529   1.049   3.015   0.881 -0.1450  0.3443  0.5544
 4191SOL    HW216530   1.020   3.003   0.971  0.2467 -2.2180  0.4218
 4191SOL    HW316531   1.145   3.011   0.886 -0.1480 -1.4734 -0.1039
 4191SOL    MW416532   1.058   3.013   0.893 -0.0937 -0.2336  0.4501
 4192SOL     OW16533   5.917   5.082   1.828 -0.5626 -0.6338  0.8269
 4192SOL    HW216534   5.979   5.015   1.802 -0.0275 -0.9770  2.8425
 4192SOL    HW316535   5.842   5.034   1.863 -0.8929 -0.1953  0.7365
 4192SOL    MW416536   5.915   5.067   1.829 -0.5355 -0.6212  1.0809
 4193SOL     OW16537   4.789   3.372   3.570 -0.3680 -0.3793  0.1629
 4193SOL    HW216538   4.823   3.427   3.641  0.7426 -0.7658 -0.0655
 4193SOL    HW316539   4.731   3.309   3.614  1.2138 -1.3688  0.8971
 4193SOL    MW416540   4.786   3.371   3.585 -0.0128 -0.5609  0.2297
 4194SOL     OW16541   5.798   5.325   0.014  0.5262  0.4163  0.2614
 4194SOL    HW216542   5.793   5.242   0.061 -2.6138 -1.3926 -2.7322
 4194SOL    HW316543   5.879   5.320  -0.036 -0.2177 -1.6090 -0.8719
 4194SOL    MW416544   5.808   5.314   0.013  0.0137 -0.0896 -0.2831
 4195SOL     OW16545   3.878   2.665   2.348  0.5000  0.0817 -0.5161
 4195SOL    HW216546   3.971   2.641   2.347  0.3132 -0.8789  1.2522
 4195SOL    HW316547   3.854   2.662   2.440 -1.2624  0.5059 -0.9320
 4195SOL    MW416548   3.887   2.662   2.360  0.2428  0.0109 -0.3377
 4196SOL     OW16549   0.425   1.328   1.984  0.1096 -0.4298 -0.1414
 4196SOL    HW216550   0.470   1.244   1.974  0.9280 -0.2740  1.8211
 4196SOL    HW316551   0.492   1.387   2.020 -1.3316  0.0721  1.9034
 4196SOL    MW416552   0.440   1.325   1.987  0.0274 -0.3431  0.3873
 4197SOL     OW16553   1.132   3.870   0.755  0.0656 -0.2515 -0.1067
 4197SOL    HW216554   1.066   3.828   0.699  0.5067 -0.7382 -0.2717
 4197SOL    HW316555   1.214   3.825   0.733  0.5515  0.7034 -0.2719
 4197SOL    MW416556   1.134   3.858   0.745  0.1879 -0.1898 -0.1502
 4198SOL     OW16557   5.552   0.697   3.908  0.6295  0.1302  0.8186
 4198SOL    HW216558   5.551   0.634   3.980  1.0528 -0.4080  0.3582
 4198SOL    HW316559   5.624   0.756   3.929  2.1052 -1.2473 -0.1845
 4198SOL    MW416560   5.561   0.696   3.921  0.8800 -0.1226  0.6255
 4199SOL     OW16561   0.048   2.796   0.495 -0.2991 -0.2385  0.0865
 4199SOL    HW216562   0.127   2.850   0.487  0.7165 -1.7990 -0.9269
 4199SOL    HW316563   0.055   2.757   0.582  0.1239 -0.4863 -0.0554
 4199SOL    MW416564   0.060   2.798   0.506 -0.1093 -0.4771 -0.0659
 4200SOL     OW16565   2.266   1.941   4.173 -0.0023 -0.3939 -0.0202
 4200SOL    HW216566   2.338   1.953   4.236  0.4260 -1.8937 -0.1980
 4200SOL    HW316567   2.188   1.967   4.222  0.5321  0.2449  0.5237
 4200SOL    MW416568   2.266   1.946   4.188  0.1247 -0.5075  0.0281
 4201SOL     OW16569   0.453   2.749   1.318  0.1050 -0.4984 -0.2299
 4201SOL    HW216570   0.394   2.824   1.307 -0.2295 -0.9425 -1.7446
 4201SOL    HW316571   0.400   2.684   1.365 -0.2644 -0.4922 -0.6282
 4201SOL    MW416572   0.438   2.750   1.323  0.0121 -0.5561 -0.4823
 4202SOL     OW16573   0.485   3.768   5.576  0.0210  0.0052 -0.0674
 4202SOL    HW216574   0.485   3.727   5.489 -1.9478  0.2828 -0.2574
 4202SOL    HW316575   0.483   3.694   5.637  1.4434 -0.1912 -0.2288
 4202SOL    MW416576   0.484   3.753   5.573 -0.0510  0.0159 -0.1137
 4203SOL     OW16577   3.921   0.494   5.549  0.0542  0.4416 -0.4401
 4203SOL    HW216578   3.952   0.496   5.459  0.3496  0.3844 -0.3406
 4203SOL    HW316579   3.991   0.451   5.598  0.0335  0.7488 -0.1334
 4203SOL    MW416580   3.934   0.489   5.544  0.0905  0.4746 -0.3865
 4204SOL     OW16581   4.027   3.127   2.680  0.7788  0.5254 -0.2597
 4204SOL    HW216582   3.991   3.059   2.623 -0.4932  0.2699  0.8106
 4204SOL    HW316583   4.078   3.079   2.745  3.0028  0.8725 -1.6497
 4204SOL    MW416584   4.029   3.111   2.681  0.9044  0.5375 -0.3019
 4205SOL     OW16585   5.005   4.117   3.503  0.6571 -0.1094 -0.1624
 4205SOL    HW216586   5.072   4.087   3.441  0.7120  0.0253 -0.1680
 4205SOL    HW316587   4.950   4.040   3.517  0.2070  0.0586 -0.9438
 4205SOL    MW416588   5.007   4.103   3.497  0.6049 -0.0695 -0.2662
 4206SOL     OW16589   4.124   4.868   5.506  0.2748  0.6283 -0.2469
 4206SOL    HW216590   4.074   4.949   5.497 -0.8034 -0.1626 -1.8107
 4206SOL    HW316591   4.195   4.878   5.442 -0.5869 -0.1470 -1.3573
 4206SOL    MW416592   4.127   4.880   5.496  0.0189  0.4216 -0.5997
 4207SOL     OW16593   4.028   5.126   6.124  0.0293 -0.2298  0.5988
 4207SOL    HW216594   3.944   5.081   6.116 -0.4506  0.2615  2.3523
 4207SOL    HW316595   4.014   5.192   6.192  1.6257  0.3898  0.3856
 4207SOL    MW416596   4.015   5.129   6.132  0.1766 -0.0832  0.8020
 4208SOL     OW16597   4.766   2.113   3.029 -0.3021 -0.6015  0.2663
 4208SOL    HW216598   4.681   2.152   3.049 -0.5510 -1.1859  0.3755
 4208SOL    HW316599   4.802   2.089   3.114 -0.0240 -0.3417  0.2207
 4208SOL    MW416600   4.759   2.115   3.043 -0.2983 -0.6443  0.2747
 4209SOL     OW16601   0.933   3.794   1.117 -0.7589  0.3315 -0.1048
 4209SOL    HW216602   0.913   3.702   1.136  0.7895 -0.5371 -2.3596
 4209SOL    HW316603   0.926   3.838   1.202 -2.2513 -1.6932  0.9068
 4209SOL    MW416604   0.929   3.788   1.131 -0.7515 -0.0503 -0.2688
 4210SOL     OW16605   3.110   1.199   3.751  0.5447 -0.2549 -0.2524
 4210SOL    HW216606   3.115   1.209   3.656 -1.0224 -1.0199 -0.4419
 4210SOL    HW316607   3.102   1.289   3.783 -1.6640 -0.0822 -1.0842
 4210SOL    MW416608   3.109   1.212   3.743  0.0465 -0.3331 -0.3871
 4211SOL     OW16609   2.085   4.680   0.204 -0.6248 -0.1498 -0.0688
 4211SOL    HW216610   2.018   4.615   0.184  0.1104 -0.7020 -0.7825
 4211SOL    HW316611   2.046   4.764   0.177 -1.2007 -0.4087 -0.0505
 4211SOL    MW416612   2.071   4.683   0.198 -0.6038 -0.2568 -0.1605
 4212SOL     OW16613   4.909   1.554   5.389 -0.2923  0.3950  0.2951
 4212SOL    HW216614   4.875   1.634   5.349 -4.9447 -1.5955 -0.3942
 4212SOL    HW316615   4.863   1.483   5.345  1.4941 -2.5704  2.7376
 4212SOL    MW416616   4.899   1.555   5.378 -0.6704 -0.2589  0.5264
 4213SOL     OW16617   2.399   5.990   2.087  0.0095  0.3525 -0.0508
 4213SOL    HW216618   2.391   5.950   2.001  1.8169  2.8300 -1.5117
 4213SOL    HW316619   2.479   5.952   2.124 -0.7955 -0.7519  0.6224
 4213SOL    MW416620   2.409   5.980   2.081  0.1418  0.5336 -0.1547
 4214SOL     OW16621   5.707   3.976   1.568 -0.5832 -0.3034  0.3315
 4214SOL    HW216622   5.748   4.056   1.602  0.1547 -0.1038 -0.9469
 4214SOL    HW316623   5.630   4.007   1.520 -0.9511 -0.4746  0.8040
 4214SOL    MW416624   5.703   3.991   1.566 -0.5344 -0.2997  0.2252
 4215SOL     OW16625   3.312   3.657   5.034 -0.1499 -0.2255  0.2093
 4215SOL    HW216626   3.259   3.578   5.038  0.0888 -0.3500  1.7745
 4215SOL    HW316627   3.375   3.641   4.964 -1.5932 -0.4248 -1.0807
 4215SOL    MW416628   3.314   3.644   5.025 -0.3088 -0.2682  0.2456
 4216SOL     OW16629   1.664   2.777   5.995  0.1941 -0.0040 -0.1114
 4216SOL    HW216630   1.627   2.745   6.077  0.1111  1.0115  0.2602
 4216SOL    HW316631   1.750   2.735   5.989 -0.2251 -0.8987 -0.0378
 4216SOL    MW416632   1.670   2.767   6.005  0.1278  0.0119 -0.0526
 4217SOL     OW16633   1.257   5.130   1.455  0.5206 -0.3938 -0.4023
 4217SOL    HW216634   1.203   5.205   1.428 -0.5705 -0.8456  0.4464
 4217SOL    HW316635   1.197   5.055   1.450  0.6036 -0.6901  2.0560
 4217SOL    MW416636   1.242   5.130   1.451  0.3876 -0.4925  0.0340
 4218SOL     OW16637   3.072   0.431   1.263  0.3998  0.1842  0.5762
 4218SOL    HW216638   3.117   0.499   1.213 -1.9467 -0.2013 -2.3244
 4218SOL    HW316639   3.007   0.479   1.315  0.5903  0.3509  0.6617
 4218SOL    MW416640   3.069   0.446   1.263  0.1153  0.1554  0.2048
 4219SOL     OW16641   6.017   3.783   1.993  0.2978 -0.4427 -0.2344
 4219SOL    HW216642   6.069   3.753   2.067  0.0292 -0.1836  0.0685
 4219SOL    HW316643   5.988   3.703   1.949  0.8233 -0.5880 -0.3193
 4219SOL    MW416644   6.020   3.768   1.997  0.3317 -0.4277 -0.2056
 4220SOL     OW16645   0.597   5.849   0.270  0.3387 -0.1456  0.6421
 4220SOL    HW216646   0.536   5.775   0.279 -0.2396  0.3376  0.7555
 4220SOL    HW316647   0.632   5.840   0.182  0.2478 -0.5410  0.6435
 4220SOL    MW416648   0.593   5.838   0.260  0.2504 -0.1340  0.6573
 4221SOL     OW16649   4.505   4.370   3.477  0.8024  0.0860 -0.3758
 4221SOL    HW216650   4.601   4.365   3.472  0.8137  0.4044 -0.4993
 4221SOL    HW316651   4.476   4.357   3.386  0.6832 -0.9206 -0.2030
 4221SOL    MW416652   4.514   4.367   3.464  0.7881 -0.0048 -0.3693
 4222SOL     OW16653   5.871   1.282   1.008  0.3277 -0.4414 -0.2219
 4222SOL    HW216654   5.851   1.298   0.916  0.4915  0.5996 -0.0861
 4222SOL    HW316655   5.809   1.336   1.057 -1.1922 -2.5817  0.3616
 4222SOL    MW416656   5.860   1.291   1.003  0.1488 -0.5864 -0.1270
 4223SOL     OW16657   2.306   4.375   3.186  0.5236 -0.2154  0.4339
 4223SOL    HW216658   2.398   4.385   3.159 -0.4720  0.6560 -3.2189
 4223SOL    HW316659   2.289   4.450   3.243  1.5294  0.9338 -0.7125
 4223SOL    MW416660   2.316   4.386   3.190  0.5249  0.0512 -0.1993
 4224SOL     OW16661   3.217   1.927   2.134  0.0202 -0.2820 -0.2796
 4224SOL    HW216662   3.310   1.940   2.116 -0.5408  1.7636 -2.0816
 4224SOL    HW316663   3.180   1.903   2.049 -0.9187 -2.6804  0.7172
 4224SOL    MW416664   3.224   1.926   2.120 -0.1777 -0.3285 -0.3858
 4225SOL     OW16665   3.809   2.562   2.608  0.1087 -0.0259  0.0436
 4225SOL    HW216666   3.756   2.514   2.545 -0.1009  1.6634 -1.1331
 4225SOL    HW316667   3.891   2.512   2.614 -0.1342 -0.5794 -1.0726
 4225SOL    MW416668   3.813   2.549   2.600  0.0490  0.1239 -0.2589
 4226SOL     OW16669   4.714   2.049   2.072 -0.2329 -0.3847 -0.0607
 4226SOL    HW216670   4.781   2.116   2.088  0.6319 -0.5630 -2.4419
 4226SOL    HW316671   4.656   2.088   2.007 -0.2975 -1.5633 -0.7488
 4226SOL    MW416672   4.715   2.063   2.065 -0.1274 -0.5637 -0.4656
 4227SOL     OW16673   0.174   3.650   1.554  0.4337 -0.1581 -0.0410
 4227SOL    HW216674   0.111   3.648   1.626  1.3940  0.8809  0.8606
 4227SOL    HW316675   0.125   3.687   1.480 -0.8377 -2.1298 -0.2653
 4227SOL    MW416676   0.159   3.655   1.553  0.3926 -0.2811  0.0483
 4228SOL     OW16677   3.557   6.343   2.222 -0.3476 -0.5061  0.4012
 4228SOL    HW216678   3.558   6.252   2.251  2.4724 -0.5452  0.4067
 4228SOL    HW316679   3.582   6.339   2.130  0.3706  0.2743  0.5454
 4228SOL    MW416680   3.560   6.330   2.214  0.1192 -0.4083  0.4209
 4229SOL     OW16681   0.604   3.504   1.034  0.0869  0.4630  0.3139
 4229SOL    HW216682   0.588   3.433   1.096  0.2929  0.0245 -0.1237
 4229SOL    HW316683   0.698   3.498   1.015 -0.1470 -0.0685 -0.8063
 4229SOL    MW416684   0.614   3.494   1.040  0.0833  0.3350  0.1084
 4230SOL     OW16685   2.631   3.654   2.398 -0.0846  0.0449 -0.2651
 4230SOL    HW216686   2.622   3.565   2.433 -1.2054  0.7458  1.4041
 4230SOL    HW316687   2.551   3.667   2.346 -2.0210  1.3471  2.7553
 4230SOL    MW416688   2.619   3.644   2.396 -0.4880  0.3092  0.3537
 4231SOL     OW16689   1.415   3.448   2.076 -0.1748  0.0104  0.3333
 4231SOL    HW216690   1.499   3.480   2.042 -0.9228  0.4415 -1.1749
 4231SOL    HW316691   1.362   3.526   2.088 -0.2156 -0.2105  1.7952
 4231SOL    MW416692   1.419   3.462   2.073 -0.2789  0.0381  0.3272
 4232SOL     OW16693   0.901   6.269   4.081  0.5606 -0.1664 -0.0958
 4232SOL    HW216694   0.882   6.175   4.089  1.2660 -0.2871  0.2906
 4232SOL    HW316695   0.972   6.284   4.144  2.7984 -0.0838 -2.4482
 4232SOL    MW416696   0.908   6.258   4.091  0.9489 -0.1715 -0.3552
 4233SOL     OW16697   2.118   1.592   3.116 -0.2758  0.5138 -0.2159
 4233SOL    HW216698   2.027   1.584   3.144  0.3688  0.4863  2.1137
 4233SOL    HW316699   2.137   1.686   3.120 -0.2247  0.5363 -0.8320
 4233SOL    MW416700   2.109   1.603   3.120 -0.1840  0.5132  0.0102
 4234SOL     OW16701   2.934   0.970   3.697  0.2529  0.1091  0.1404
 4234SOL    HW216702   2.982   1.051   3.715  0.4078 -0.0907  0.6478
 4234SOL    HW316703   2.843   0.993   3.717 -0.1998  1.0589 -2.6611
 4234SOL    MW416704   2.928   0.984   3.702  0.2136  0.2081 -0.1623
 4235SOL     OW16705   4.043   3.632   3.728  0.0548  0.6338  0.1536
 4235SOL    HW216706   3.950   3.654   3.737 -0.2937 -0.4744 -0.5347
 4235SOL    HW316707   4.043   3.540   3.701  1.3347  0.8791 -0.7405
 4235SOL    MW416708   4.031   3.622   3.726  0.1777  0.5200 -0.0552
 4236SOL     OW16709   2.510   2.332   6.278  0.1603  0.0391 -0.0057
 4236SOL    HW216710   2.554   2.416   6.269 -0.3922  0.2424 -0.9530
 4236SOL    HW316711   2.550   2.276   6.211 -1.3700  0.4039 -1.2899
 4236SOL    MW416712   2.521   2.336   6.268 -0.1145  0.1141 -0.3001
 4237SOL     OW16713   6.112   3.153   4.012 -0.0777 -0.0704  0.1745
 4237SOL    HW216714   6.057   3.229   3.992 -0.2365 -0.0410  0.7054
 4237SOL    HW316715   6.200   3.190   4.023 -0.1922  0.0754  0.6474
 4237SOL    MW416716   6.117   3.168   4.011 -0.1138 -0.0473  0.3070
 4238SOL     OW16717   4.423   2.413   2.839  0.0281 -0.7237  0.4863
 4238SOL    HW216718   4.484   2.357   2.887  0.1174 -0.9897  0.0629
 4238SOL    HW316719   4.386   2.357   2.772  0.5073 -0.1482 -0.2774
 4238SOL    MW416720   4.426   2.398   2.837  0.1031 -0.6829  0.3297
 4239SOL     OW16721   2.909   4.109   3.078  0.1135  0.2253 -0.2515
 4239SOL    HW216722   2.912   4.013   3.076 -0.2578  0.2158 -0.4118
 4239SOL    HW316723   2.970   4.133   3.148  2.8064  0.0197 -2.3584
 4239SOL    MW416724   2.918   4.099   3.087  0.4198  0.1969 -0.5506
 4240SOL     OW16725   2.518   3.046   0.883 -0.7807 -0.1948 -0.1208
 4240SOL    HW216726   2.488   3.081   0.799  0.0553 -0.3656 -0.5006
 4240SOL    HW316727   2.562   2.964   0.860  0.1206  0.1367  0.3928
 4240SOL    MW416728   2.520   3.040   0.869 -0.5515 -0.1736 -0.1032
 4241SOL     OW16729   1.653   1.923   1.996 -0.1070 -0.2814  0.0145
 4241SOL    HW216730   1.729   1.970   2.028 -0.4295 -0.2049  0.6771
 4241SOL    HW316731   1.643   1.953   1.905 -0.2581  0.8838  0.3944
 4241SOL    MW416732   1.661   1.933   1.988 -0.1695 -0.1176  0.1520
 4242SOL     OW16733   6.412   0.586   2.212 -0.0686 -0.3489  0.2441
 4242SOL    HW216734   6.356   0.581   2.134  0.4644 -2.3962 -0.0874
 4242SOL    HW316735   6.385   0.666   2.257 -0.3660  0.9209 -2.0463
 4242SOL    MW416736   6.401   0.596   2.208 -0.0375 -0.4515 -0.1018
 4243SOL     OW16737   5.537   0.663   5.841 -0.2889  0.0334 -0.5868
 4243SOL    HW216738   5.550   0.588   5.783 -0.6941 -0.6011  0.1189
 4243SOL    HW316739   5.579   0.736   5.796 -2.0192 -0.0406 -2.4789
 4243SOL    MW416740   5.544   0.663   5.827 -0.5706 -0.0600 -0.7433
 4244SOL     OW16741   3.026   2.981   3.358  0.3658  0.4876  0.5337
 4244SOL    HW216742   2.964   3.050   3.379 -0.6904 -0.1307 -0.4302
 4244SOL    HW316743   2.995   2.904   3.407  2.2581  0.9357  2.6366
 4244SOL    MW416744   3.014   2.980   3.367  0.4761  0.4651  0.6840
 4245SOL     OW16745   4.952   2.034   3.265 -0.6048  0.2164 -0.0389
 4245SOL    HW216746   4.910   1.953   3.294  0.4317 -0.6984 -1.0050
 4245SOL    HW316747   5.028   2.005   3.215 -1.4614  1.7116 -2.3788
 4245SOL    MW416748   4.956   2.020   3.262 -0.5811  0.2930 -0.4751
 4246SOL     OW16749   6.187   4.870   0.479  0.2771  0.5289 -0.4153
 4246SOL    HW216750   6.138   4.866   0.397 -0.5498 -1.0970  0.1255
 4246SOL    HW316751   6.258   4.932   0.461 -0.2477  0.6790 -2.1524
 4246SOL    MW416752   6.190   4.878   0.466  0.0987  0.3342 -0.5732
 4247SOL     OW16753   4.010   3.984   1.001  0.4176 -0.4821 -0.3527
 4247SOL    HW216754   3.996   4.078   1.007 -2.9192 -0.8251 -0.7024
 4247SOL    HW316755   3.974   3.959   0.916 -0.3818 -2.2690  0.4470
 4247SOL    MW416756   4.003   3.993   0.990 -0.1281 -0.7631 -0.2934
 4248SOL     OW16757   5.575   3.516   1.918  0.8373  0.2499  0.0151
 4248SOL    HW216758   5.568   3.436   1.866  0.3723  0.0564  0.3630
 4248SOL    HW316759   5.665   3.515   1.951  0.6977 -0.3668  0.3882
 4248SOL    MW416760   5.586   3.505   1.916  0.7576  0.1430  0.1103
 4249SOL     OW16761   2.129   3.741   1.372 -0.5463  0.3624 -0.1445
 4249SOL    HW216762   2.057   3.680   1.355 -1.8172  1.8689 -0.5312
 4249SOL    HW316763   2.158   3.721   1.461 -2.2788  0.4631  0.4913
 4249SOL    MW416764   2.123   3.730   1.381 -0.9426  0.5745 -0.1117
 4250SOL     OW16765   2.924   2.770   4.689  0.7511 -0.1932  0.3498
 4250SOL    HW216766   2.885   2.848   4.728  2.6492  1.6268 -1.1329
 4250SOL    HW316767   2.879   2.760   4.605 -0.4089 -1.5502  1.0992
 4250SOL    MW416768   2.913   2.779   4.683  0.8485 -0.1321  0.2531
 4251SOL     OW16769   2.658   5.441   0.418 -0.0267 -0.2174  0.1140
 4251SOL    HW216770   2.687   5.437   0.509 -0.3463 -0.7900  0.2035
 4251SOL    HW316771   2.722   5.496   0.374  2.1075 -2.6212 -0.0288
 4251SOL    MW416772   2.670   5.447   0.425  0.2127 -0.6101  0.1070
 4252SOL     OW16773   1.137   3.878   4.595  0.1454  0.0196 -0.1982
 4252SOL    HW216774   1.177   3.810   4.540 -0.0429 -0.0759 -0.2192
 4252SOL    HW316775   1.045   3.854   4.598  0.4207 -0.9824  1.6125
 4252SOL    MW416776   1.130   3.866   4.588  0.1568 -0.1252  0.0379
 4253SOL     OW16777   4.970   3.451   4.785  0.0302  0.9115 -0.4031
 4253SOL    HW216778   4.999   3.450   4.876 -0.1174  1.0986 -0.3524
 4253SOL    HW316779   4.882   3.413   4.788 -1.2292  3.6544 -0.0163
 4253SOL    MW416780   4.962   3.446   4.797 -0.1554  1.2981 -0.3454
 4254SOL     OW16781   2.393   1.195   4.386  0.4064 -0.1963  0.1125
 4254SOL    HW216782   2.468   1.236   4.429  0.4012  1.3255 -1.2442
 4254SOL    HW316783   2.327   1.264   4.382 -1.0763 -1.4646  1.1724
 4254SOL    MW416784   2.394   1.210   4.391  0.2101 -0.1629  0.0734
 4255SOL     OW16785   4.744   1.356   4.100  0.2154  0.1066 -0.1740
 4255SOL    HW216786   4.666   1.308   4.073  0.0284 -0.1357  0.7670
 4255SOL    HW316787   4.795   1.366   4.020 -1.2756  1.2101 -1.0459
 4255SOL    MW416788   4.741   1.351   4.086 -0.0059  0.2203 -0.1649
 4256SOL     OW16789   5.689   1.880   1.324 -0.1510 -0.0689  0.6998
 4256SOL    HW216790   5.632   1.914   1.393 -1.3015 -0.6807  0.0791
 4256SOL    HW316791   5.711   1.957   1.271 -1.2792  0.0342  0.3427
 4256SOL    MW416792   5.685   1.895   1.326 -0.4517 -0.1361  0.5708
 4257SOL     OW16793   0.795   2.814   0.775 -0.3204 -0.0062  0.1168
 4257SOL    HW216794   0.851   2.779   0.844  0.8039 -1.4791 -1.4368
 4257SOL    HW316795   0.746   2.738   0.744  0.1375  0.3285 -1.5113
 4257SOL    MW416796   0.796   2.799   0.780 -0.1117 -0.1564 -0.3030
 4258SOL     OW16797   3.961   0.850   3.515 -0.0494  0.1355 -0.1592
 4258SOL    HW216798   3.883   0.826   3.465 -0.9809  1.5364  0.5699
 4258SOL    HW316799   3.939   0.827   3.605  1.0184 -0.9359 -0.1555
 4258SOL    MW416800   3.948   0.844   3.520 -0.0314  0.1790 -0.0625
 4259SOL     OW16801   3.256   5.165   3.941  0.2362  0.2714  0.2065
 4259SOL    HW216802   3.275   5.072   3.932 -2.1551 -0.1351 -1.6735
 4259SOL    HW316803   3.301   5.191   4.021  1.0076 -2.4814  0.7723
 4259SOL    MW416804   3.264   5.156   3.950  0.0225 -0.1454  0.0331
 4260SOL     OW16805   4.438   4.229   4.185  0.4987 -0.0869  0.2449
 4260SOL    HW216806   4.391   4.310   4.166 -0.6885 -0.7530  0.2289
 4260SOL    HW316807   4.420   4.172   4.110  0.3175 -0.7813  0.7949
 4260SOL    MW416808   4.429   4.232   4.173  0.3182 -0.2664  0.3154
 4261SOL     OW16809   5.233   3.860   2.508 -0.1055 -0.2658  0.2728
 4261SOL    HW216810   5.164   3.837   2.571 -0.5049 -1.0678 -0.4440
 4261SOL    HW316811   5.191   3.850   2.422 -0.5818  3.7967 -0.1734
 4261SOL    MW416812   5.218   3.856   2.505 -0.2211  0.1644  0.1194
 4262SOL     OW16813   0.068   1.476   1.430  0.1503 -0.2194  0.3486
 4262SOL    HW216814   0.046   1.422   1.506  0.1559  1.7737  1.8446
 4262SOL    HW316815   0.163   1.470   1.424  0.2443  0.3649  1.1107
 4262SOL    MW416816   0.078   1.468   1.440  0.1634  0.1206  0.6465
 4263SOL     OW16817   0.502   3.311   0.420 -0.1622  0.5879  0.2387
 4263SOL    HW216818   0.485   3.279   0.509 -0.7166 -1.3223 -0.5000
 4263SOL    HW316819   0.420   3.295   0.373 -0.0179  1.9615 -0.5257
 4263SOL    MW416820   0.489   3.304   0.426 -0.2163  0.5171  0.0404
 4264SOL     OW16821   2.356   5.585   5.425  0.0893 -0.2289 -0.2966
 4264SOL    HW216822   2.289   5.573   5.358 -0.9386  0.3780  0.5797
 4264SOL    HW316823   2.398   5.499   5.432  0.1601 -0.3272 -1.6271
 4264SOL    MW416824   2.352   5.572   5.417 -0.0370 -0.1618 -0.3565
 4265SOL     OW16825   1.785   1.409   3.995  0.2011  0.1026  0.1529
 4265SOL    HW216826   1.811   1.461   3.919 -0.3898  1.2267  0.6937
 4265SOL    HW316827   1.854   1.425   4.059  1.7989 -2.4528 -0.7809
 4265SOL    MW416828   1.798   1.418   3.994  0.3339 -0.0863  0.1011
 4266SOL     OW16829   6.009   3.255   3.663 -0.3265 -0.3947  0.6783
 4266SOL    HW216830   6.041   3.315   3.596  0.9803 -0.0715  1.5497
 4266SOL    HW316831   6.002   3.308   3.742  1.4019 -1.4558  1.6110
 4266SOL    MW416832   6.012   3.270   3.664  0.0740 -0.4921  0.9163
 4267SOL     OW16833   0.721   4.208   0.315  0.5392 -0.6687 -0.5935
 4267SOL    HW216834   0.690   4.274   0.377 -1.4207  0.5379 -2.6888
 4267SOL    HW316835   0.781   4.254   0.258 -0.4273 -0.7967 -1.7451
 4267SOL    MW416836   0.725   4.223   0.316  0.1531 -0.5264 -1.0219
 4268SOL     OW16837   3.770   0.571   3.167  0.1779  0.2975 -0.2334
 4268SOL    HW216838   3.698   0.617   3.123  1.4146  2.1040 -0.5052
 4268SOL    HW316839   3.847   0.627   3.152  1.4817 -1.1333  0.7478
 4268SOL    MW416840   3.771   0.584   3.159  0.5131  0.3471 -0.1398
 4269SOL     OW16841   4.588   3.679   6.371  0.3846  0.1095  0.2616
 4269SOL    HW216842   4.598   3.634   6.455 -1.0976  0.9905  0.9368
 4269SOL    HW316843   4.625   3.617   6.307  0.2781 -1.1696  1.3867
 4269SOL    MW416844   4.594   3.665   6.373  0.1750  0.0570  0.4991
 4270SOL     OW16845   5.161   3.285   2.921  0.0517  0.2851  0.1459
 4270SOL    HW216846   5.090   3.320   2.974 -1.8283 -2.6156 -0.2216
 4270SOL    HW316847   5.240   3.305   2.970 -1.4743 -1.2677  3.5655
 4270SOL    MW416848   5.162   3.292   2.934 -0.3977 -0.3025  0.5486
 4271SOL     OW16849   1.456   4.231   6.235  1.0402 -0.1365  0.3092
 4271SOL    HW216850   1.373   4.249   6.279 -0.8415 -1.1766 -2.5333
 4271SOL    HW316851   1.490   4.317   6.212  0.1287  0.2756  0.4707
 4271SOL    MW416852   1.449   4.245   6.237  0.6717 -0.2194 -0.0445
 4272SOL     OW16853   6.002   0.315   2.207  0.3450 -0.0303 -0.0042
 4272SOL    HW216854   6.062   0.363   2.264 -1.0207  1.3168  0.3528
 4272SOL    HW316855   5.958   0.253   2.265 -1.1959  1.4828  0.5169
 4272SOL    MW416856   6.004   0.313   2.222 -0.0385  0.3470  0.1116
 4273SOL     OW16857   4.216   0.821   3.833 -0.0609 -0.2032  0.2403
 4273SOL    HW216858   4.236   0.828   3.740  0.9222 -0.5347  0.4098
 4273SOL    HW316859   4.121   0.813   3.837 -0.0700 -0.7828 -0.7794
 4273SOL    MW416860   4.206   0.821   3.822  0.0676 -0.3234  0.1281
 4274SOL     OW16861   4.296   6.179   3.604  0.2777 -0.5504  0.5221
 4274SOL    HW216862   4.353   6.217   3.670 -1.3492 -0.9547  2.2200
 4274SOL    HW316863   4.278   6.090   3.636 -2.7510  0.1515  1.0615
 4274SOL    MW416864   4.301   6.172   3.617 -0.3365 -0.5111  0.8173
 4275SOL     OW16865   5.876   3.001   1.900 -0.3871  0.3098  0.2254
 4275SOL    HW216866   5.847   2.993   1.991 -0.8671 -2.6570 -0.0904
 4275SOL    HW316867   5.967   2.969   1.901 -0.7526 -0.8288 -0.4559
 4275SOL    MW416868   5.884   2.996   1.912 -0.4986 -0.2318  0.0938
 4276SOL     OW16869   1.527   0.607   4.690  0.4466  0.0232 -0.0292
 4276SOL    HW216870   1.487   0.665   4.625 -1.1292 -0.7152  0.2413
 4276SOL    HW316871   1.552   0.665   4.762 -0.0766  0.5127 -0.2402
 4276SOL    MW416872   1.525   0.622   4.691  0.1697 -0.0097 -0.0213
 4277SOL     OW16873   3.080   1.731   5.841  0.3351  0.2842  0.1232
 4277SOL    HW216874   3.139   1.670   5.885 -0.1872  0.5739  1.2660
 4277SOL    HW316875   3.106   1.727   5.749  1.4477 -0.3585  0.4396
 4277SOL    MW416876   3.091   1.722   5.835  0.4130  0.2376  0.3157
 4278SOL     OW16877   5.305   5.475   1.689  0.2334  0.2383  0.1325
 4278SOL    HW216878   5.319   5.502   1.598 -1.6856  1.9397  0.2749
 4278SOL    HW316879   5.334   5.384   1.692 -2.7879 -1.0571 -3.0876
 4278SOL    MW416880   5.311   5.467   1.677 -0.4184  0.2919 -0.2736
 4279SOL     OW16881   1.203   4.386   3.862  0.6116  0.0392  0.3578
 4279SOL    HW216882   1.108   4.383   3.867  0.4756 -1.0363 -1.9462
 4279SOL    HW316883   1.232   4.304   3.902  0.3679 -1.0781 -1.6571
 4279SOL    MW416884   1.195   4.375   3.868  0.5615 -0.2501 -0.2120
 4280SOL     OW16885   0.149   1.439   5.450  0.1406 -0.3143 -0.0212
 4280SOL    HW216886   0.090   1.420   5.377 -0.6805 -0.3047  0.6253
 4280SOL    HW316887   0.236   1.416   5.418 -0.0404  0.8785 -1.4435
 4280SOL    MW416888   0.153   1.433   5.436  0.0084 -0.1556 -0.1236
 4281SOL     OW16889   4.871   3.077   0.750 -0.2182 -0.2796  0.2146
 4281SOL    HW216890   4.794   3.051   0.699  0.5268 -0.9259 -0.6017
 4281SOL    HW316891   4.912   2.995   0.776 -1.8691 -0.1093  4.0029
 4281SOL    MW416892   4.866   3.063   0.746 -0.3377 -0.3424  0.6067
 4282SOL     OW16893   2.848   0.701   2.833 -0.3052 -0.3118  0.2069
 4282SOL    HW216894   2.820   0.701   2.925 -2.1585 -1.5177 -0.3034
 4282SOL    HW316895   2.941   0.676   2.837  0.3206  1.9415  1.8481
 4282SOL    MW416896   2.857   0.698   2.846 -0.4672 -0.1736  0.3561
 4283SOL     OW16897   4.074   3.020   5.083  0.9283 -0.6117 -0.1249
 4283SOL    HW216898   4.020   2.945   5.056  0.6349 -0.7842  0.8903
 4283SOL    HW316899   4.159   3.003   5.044  0.4389 -0.6784 -1.2044
 4283SOL    MW416900   4.078   3.008   5.074  0.8250 -0.6433 -0.1334
 4284SOL     OW16901   5.458   2.464   5.745 -0.0418  0.6619 -0.3477
 4284SOL    HW216902   5.493   2.472   5.656  0.4670  0.3955 -0.1791
 4284SOL    HW316903   5.525   2.504   5.801  0.5931 -0.9205  0.0974
 4284SOL    MW416904   5.472   2.470   5.741  0.1091  0.4179 -0.2667
 4285SOL     OW16905   2.865   0.136   0.391 -0.1882  0.0598 -0.3732
 4285SOL    HW216906   2.885   0.089   0.310 -1.3355 -2.2848  0.5908
 4285SOL    HW316907   2.769   0.132   0.397 -0.1444  0.5730  0.8724
 4285SOL    MW416908   2.855   0.129   0.381 -0.3338 -0.1818 -0.0817
 4286SOL     OW16909   1.630   2.607   5.263 -0.4757  0.1379  0.6281
 4286SOL    HW216910   1.615   2.618   5.169 -2.4258 -2.8231  0.4681
 4286SOL    HW316911   1.556   2.650   5.305 -0.2808  0.3561  0.7504
 4286SOL    MW416912   1.618   2.614   5.256 -0.7073 -0.2240  0.6231
 4287SOL     OW16913   4.416   3.347   1.466 -0.2571  0.3589  0.0365
 4287SOL    HW216914   4.461   3.424   1.500 -0.1707  0.6556 -0.7325
 4287SOL    HW316915   4.474   3.274   1.489 -1.4420  0.1972  2.8462
 4287SOL    MW416916   4.430   3.347   1.473 -0.4020  0.3767  0.3058
 4288SOL     OW16917   5.947   4.978   5.710  0.0429 -0.0262 -0.2481
 4288SOL    HW216918   5.862   4.946   5.680 -1.0178  1.2683  1.2201
 4288SOL    HW316919   5.931   5.069   5.735  1.8774  0.2591  0.0327
 4288SOL    MW416920   5.934   4.985   5.709  0.1450  0.1823 -0.0173
 4289SOL     OW16921   4.357   4.012   2.179 -0.5068 -0.3687 -0.2894
 4289SOL    HW216922   4.287   4.044   2.236 -0.0546 -0.6083  0.4048
 4289SOL    HW316923   4.315   3.946   2.124 -0.9516 -0.1139 -0.2592
 4289SOL    MW416924   4.342   4.008   2.179 -0.5058 -0.3667 -0.1938
 4290SOL     OW16925   0.834   1.719   4.398 -0.5168  0.0985 -0.0268
 4290SOL    HW216926   0.773   1.766   4.456 -3.1996 -2.2804 -0.7161
 4290SOL    HW316927   0.794   1.725   4.311  1.6142  0.6075 -1.0229
 4290SOL    MW416928   0.820   1.726   4.394 -0.5896 -0.1482 -0.2491
 4291SOL     OW16929   6.064   0.157   1.764  0.4022 -0.4145 -0.2853
 4291SOL    HW216930   6.080   0.065   1.745  3.5375  0.1936 -1.1444
 4291SOL    HW316931   5.971   0.162   1.784 -0.2051 -3.4688 -1.8577
 4291SOL    MW416932   6.054   0.146   1.764  0.7357 -0.7372 -0.6061
 4292SOL     OW16933   2.325   5.161   2.553 -0.0020 -0.5514  0.3346
 4292SOL    HW216934   2.307   5.118   2.469  2.0504 -0.2079 -0.3456
 4292SOL    HW316935   2.293   5.100   2.619  2.0887 -2.8453 -0.6179
 4292SOL    MW416936   2.319   5.147   2.550  0.5447 -0.8087  0.1192
 4293SOL     OW16937   1.773   5.256   2.492 -0.1717  0.3052  0.5601
 4293SOL    HW216938   1.771   5.307   2.573  0.1344  0.1044  0.6944
 4293SOL    HW316939   1.861   5.271   2.456 -0.6327  1.2103 -0.2594
 4293SOL    MW416940   1.785   5.265   2.498 -0.1921  0.3981  0.4697
 4294SOL     OW16941   3.154   2.439   1.440  0.2190  0.5694 -0.8337
 4294SOL    HW216942   3.142   2.489   1.521  1.3990  0.2619 -0.4368
 4294SOL    HW316943   3.077   2.383   1.435 -0.9791  2.1703 -1.1247
 4294SOL    MW416944   3.143   2.438   1.450  0.2166  0.7400 -0.8197
 4295SOL     OW16945   1.175   5.553   2.905 -0.0904 -0.2102 -0.6832
 4295SOL    HW216946   1.145   5.605   2.979 -0.8366 -0.7154 -0.6116
 4295SOL    HW316947   1.128   5.590   2.830  0.9400  0.5358 -0.9735
 4295SOL    MW416948   1.165   5.565   2.905 -0.0529 -0.1784 -0.7120
 4296SOL     OW16949   1.807   4.223   3.909 -0.2681  0.8393 -0.2239
 4296SOL    HW216950   1.757   4.157   3.958  1.7511 -2.2210 -1.9048
 4296SOL    HW316951   1.868   4.259   3.974 -0.6617  0.2278  0.5126
 4296SOL    MW416952   1.809   4.219   3.924 -0.0536  0.3549 -0.3485
 4297SOL     OW16953   3.793   0.364   0.429 -0.2518  0.2886  0.1979
 4297SOL    HW216954   3.829   0.355   0.340  0.1963  1.0435  0.2936
 4297SOL    HW316955   3.732   0.437   0.422  1.5523  1.9502  1.0216
 4297SOL    MW416956   3.789   0.373   0.416  0.0453  0.6074  0.3192
 4298SOL     OW16957   2.383   3.281   1.282 -0.9414 -0.0153 -0.0596
 4298SOL    HW216958   2.416   3.196   1.253 -0.9731 -0.6508  1.6309
 4298SOL    HW316959   2.430   3.298   1.364  1.6019  3.1958 -1.9238
 4298SOL    MW416960   2.394   3.272   1.289 -0.6100  0.3245 -0.0825
 4299SOL     OW16961   0.248   5.720   1.638  0.5288  0.3630 -0.7625
 4299SOL    HW216962   0.342   5.703   1.641  0.6216  0.7231 -1.5555
 4299SOL    HW316963   0.235   5.794   1.697  0.4160 -1.0323  1.0707
 4299SOL    MW416964   0.259   5.727   1.646  0.5262  0.2264 -0.6253
 4300SOL     OW16965   4.233   4.085   4.624 -0.0918  0.0636  0.3716
 4300SOL    HW216966   4.245   3.990   4.634 -2.3866 -0.6410 -2.2992
 4300SOL    HW316967   4.322   4.119   4.615  0.8261 -1.7178  1.9262
 4300SOL    MW416968   4.246   4.077   4.624 -0.2734 -0.2644  0.2243
 4301SOL     OW16969   2.654   5.893   2.203 -0.0372 -0.2367  0.4223
 4301SOL    HW216970   2.694   5.928   2.283  0.3751 -0.1963  0.2061
 4301SOL    HW316971   2.717   5.917   2.134  0.3056 -1.4950  0.2800
 4301SOL    MW416972   2.668   5.901   2.204  0.0624 -0.3974  0.3750
 4302SOL     OW16973   3.933   0.031   1.041  0.3162  0.4382  0.8294
 4302SOL    HW216974   3.986   0.054   1.116  0.7888  1.2605  0.2594
 4302SOL    HW316975   3.990   0.045   0.965 -0.3218  0.1608  0.2813
 4302SOL    MW416976   3.947   0.036   1.041  0.2944  0.5101  0.6819
 4303SOL     OW16977   1.204   1.832   0.249 -0.4268 -0.1657 -0.4371
 4303SOL    HW216978   1.187   1.858   0.339 -1.3428  0.8831 -0.8986
 4303SOL    HW316979   1.122   1.849   0.203 -1.0680 -3.6286 -0.8651
 4303SOL    MW416980   1.191   1.837   0.255 -0.6323 -0.4842 -0.5545
 4304SOL     OW16981   6.140   1.592   5.158 -0.2736 -0.2354 -0.5478
 4304SOL    HW216982   6.234   1.606   5.155 -0.4260  0.7638 -1.5914
 4304SOL    HW316983   6.113   1.623   5.244  0.3866 -0.8491 -0.1127
 4304SOL    MW416984   6.149   1.598   5.169 -0.2066 -0.1846 -0.6281
 4305SOL     OW16985   5.671   4.389   2.135  0.4782 -0.0164  0.3048
 4305SOL    HW216986   5.596   4.340   2.170 -0.1051 -1.5959 -2.7766
 4305SOL    HW316987   5.740   4.323   2.126  0.8923  0.5208 -0.5660
 4305SOL    MW416988   5.670   4.374   2.139  0.4559 -0.1539 -0.2167
 4306SOL     OW16989   5.873   0.294   3.463  0.0607 -0.0431  0.2253
 4306SOL    HW216990   5.922   0.373   3.484  1.8603 -0.8415 -0.8037
 4306SOL    HW316991   5.788   0.307   3.505  1.1316  1.3695  2.0864
 4306SOL    MW416992   5.868   0.306   3.471  0.4394  0.0380  0.3351
 4307SOL     OW16993   2.817   1.206   5.804  0.7577  0.4303  0.2205
 4307SOL    HW216994   2.878   1.223   5.876  0.3211 -2.0280  1.2713
 4307SOL    HW316995   2.796   1.113   5.812 -0.5114  0.4390 -2.1876
 4307SOL    MW416996   2.822   1.196   5.815  0.5327  0.1071  0.0414
 4308SOL     OW16997   5.303   6.000   6.426  0.1071 -0.6066 -0.1637
 4308SOL    HW216998   5.274   6.085   6.393 -0.5275 -0.5378  0.5472
 4308SOL    HW316999   5.355   6.021   6.503 -1.2630 -0.9130  0.8770
 4308SOL    MW417000   5.306   6.014   6.431 -0.1574 -0.6379  0.0674
 4309SOL     OW17001   6.344   1.515   0.398 -0.0375 -0.0452 -0.1261
 4309SOL    HW217002   6.412   1.492   0.335 -1.0497 -0.4641 -1.0900
 4309SOL    HW317003   6.306   1.596   0.364 -1.1498 -0.7219 -0.5277
 4309SOL    MW417004   6.348   1.523   0.385 -0.3178 -0.1897 -0.3062
 4310SOL     OW17005   5.881   6.155   4.699  0.0580  0.4735 -0.0197
 4310SOL    HW217006   5.951   6.093   4.677 -0.0981  0.2581  0.0949
 4310SOL    HW317007   5.891   6.225   4.635 -0.1590  0.0335 -0.5389
 4310SOL    MW417008   5.892   6.156   4.688  0.0087  0.3870 -0.0730
 4311SOL     OW17009   3.058   3.589   1.983  0.0598 -0.2251 -0.2327
 4311SOL    HW217010   3.125   3.547   2.037  0.2315  0.4752  0.1148
 4311SOL    HW317011   2.993   3.521   1.968  0.3444 -0.6203  0.2990
 4311SOL    MW417012   3.058   3.575   1.988  0.1200 -0.1848 -0.1167
 4312SOL     OW17013   5.890   0.650   3.764  0.0090  0.4115  0.3789
 4312SOL    HW217014   5.858   0.609   3.844 -0.1776  0.1570  0.1775
 4312SOL    HW317015   5.814   0.696   3.728  0.1717  0.7848  0.5093
 4312SOL    MW417016   5.876   0.651   3.770  0.0059  0.4272  0.3695
 4313SOL     OW17017   5.784   5.327   3.936  0.1500  0.1643  0.0104
 4313SOL    HW217018   5.754   5.291   4.020 -1.9036  0.5386 -0.5214
 4313SOL    HW317019   5.715   5.306   3.874  1.0177  1.0622 -1.3279
 4313SOL    MW417020   5.771   5.319   3.939 -0.0065  0.3322 -0.2364
 4314SOL     OW17021   0.541   5.905   1.743  0.1134 -0.6780 -0.3721
 4314SOL    HW217022   0.530   5.810   1.749  0.3502 -0.7334 -0.7594
 4314SOL    HW317023   0.629   5.916   1.708  0.2046 -0.3083 -0.0191
 4314SOL    MW417024   0.551   5.894   1.739  0.1566 -0.6366 -0.3766
 4315SOL     OW17025   2.804   6.096   2.352  0.3232  0.3920 -0.8763
 4315SOL    HW217026   2.807   6.030   2.421 -1.8700 -1.0519 -2.0271
 4315SOL    HW317027   2.715   6.133   2.358  1.3328  2.9872 -0.5681
 4315SOL    MW417028   2.792   6.092   2.362  0.1670  0.5439 -0.9875
 4316SOL     OW17029   2.930   3.396   6.273  0.0254  0.0756 -0.9625
 4316SOL    HW217030   2.899   3.378   6.185 -0.3565  0.4996 -0.9189
 4316SOL    HW317031   2.992   3.325   6.292  0.0615 -0.0508 -1.5409
 4316SOL    MW417032   2.934   3.384   6.264 -0.0202  0.1149 -1.0330
 4317SOL     OW17033   5.022   6.312   1.047 -0.2460 -0.1314  0.0213
 4317SOL    HW217034   4.995   6.346   0.961 -0.2232  0.0522  0.0855
 4317SOL    HW317035   5.109   6.350   1.061 -0.2996 -0.0653  0.1779
 4317SOL    MW417036   5.030   6.322   1.037 -0.2501 -0.0985  0.0504
 4318SOL     OW17037   1.606   4.105   1.898  0.4215 -0.3930  0.1835
 4318SOL    HW217038   1.559   4.135   1.976  1.0163 -0.4640  0.5751
 4318SOL    HW317039   1.561   4.025   1.871 -2.1882  1.5465 -1.7860
 4318SOL    MW417040   1.594   4.098   1.904  0.1557 -0.1465 -0.0247
 4319SOL     OW17041   2.622   2.458   5.647 -0.3989  0.5291 -0.1982
 4319SOL    HW217042   2.603   2.482   5.738 -1.8753 -0.5413 -0.1849
 4319SOL    HW317043   2.550   2.495   5.597  0.6871  1.5710 -1.0409
 4319SOL    MW417044   2.610   2.466   5.652 -0.4504  0.5253 -0.3076
 4320SOL     OW17045   4.143   0.253   2.060 -0.3545  0.5211 -0.3788
 4320SOL    HW217046   4.084   0.232   2.132 -0.2861  0.5254 -0.3218
 4320SOL    HW317047   4.216   0.300   2.101 -0.9211  1.6414 -0.6045
 4320SOL    MW417048   4.145   0.257   2.075 -0.4202  0.6695 -0.4010
 4321SOL     OW17049   5.094   2.293   1.130 -0.2528 -0.4974 -0.2814
 4321SOL    HW217050   5.089   2.242   1.210  1.9673 -1.5678 -0.7241
 4321SOL    HW317051   5.105   2.384   1.160 -1.9055 -0.5490  0.5489
 4321SOL    MW417052   5.095   2.299   1.144 -0.1779 -0.6454 -0.2303
 4322SOL     OW17053   0.087   5.124   3.043  0.1816 -0.5909 -0.2503
 4322SOL    HW217054   0.003   5.160   3.015  0.4833  0.3325 -0.0098
 4322SOL    HW317055   0.079   5.118   3.138 -0.0834 -1.7382 -0.3398
 4322SOL    MW417056   0.075   5.128   3.052  0.1865 -0.6205 -0.2303
 4323SOL     OW17057   3.838   6.193   1.701 -0.1466  0.1695 -0.7522
 4323SOL    HW217058   3.827   6.271   1.756 -0.5668 -0.1823 -0.3304
 4323SOL    HW317059   3.904   6.219   1.637  3.6814 -0.7801  2.4449
 4323SOL    MW417060   3.845   6.207   1.700  0.3030 -0.0022 -0.2747
 4324SOL     OW17061   4.018   2.977   3.121 -0.3842 -0.1508 -0.3770
 4324SOL    HW217062   4.051   2.986   3.031  0.2235 -0.4311 -0.1934
 4324SOL    HW317063   4.006   2.882   3.132  0.5595 -0.2301  0.1685
 4324SOL    MW417064   4.021   2.966   3.111 -0.1796 -0.1982 -0.2808
 4325SOL     OW17065   6.388   2.757   2.969  0.2128  0.0790 -0.2315
 4325SOL    HW217066   6.334   2.836   2.963 -0.1647 -0.0784  0.9476
 4325SOL    HW317067   6.325   2.685   2.973  0.3753  0.0024  3.0038
 4325SOL    MW417068   6.373   2.758   2.969  0.1844  0.0481  0.3509
 4326SOL     OW17069   1.335   5.605   0.909 -0.2374  0.9381  0.1463
 4326SOL    HW217070   1.341   5.522   0.862  1.2464  1.2522 -0.2746
 4326SOL    HW317071   1.252   5.642   0.881 -0.2126  0.2943 -0.8426
 4326SOL    MW417072   1.325   5.599   0.899 -0.0383  0.8946 -0.0397
 4327SOL     OW17073   1.995   4.804   0.823 -0.4102  0.6420  0.1942
 4327SOL    HW217074   1.967   4.892   0.799 -2.1244  0.2804  0.7741
 4327SOL    HW317075   1.985   4.753   0.742 -0.1470  0.7927  0.0631
 4327SOL    MW417076   1.990   4.809   0.809 -0.6017  0.6142  0.2534
 4328SOL     OW17077   0.034   3.622   4.054  0.1210  0.3345 -0.7282
 4328SOL    HW217078   0.112   3.611   4.109  0.3075  0.0876 -1.0370
 4328SOL    HW317079  -0.015   3.692   4.096 -0.3274 -0.6275  0.4245
 4328SOL    MW417080   0.038   3.630   4.067  0.0865  0.1750 -0.6168
 4329SOL     OW17081   0.832   2.785   0.478  0.1515 -0.2046 -0.5395
 4329SOL    HW217082   0.824   2.827   0.564 -2.3898 -1.1836 -0.2189
 4329SOL    HW317083   0.772   2.833   0.422 -0.7043 -1.6237 -0.8818
 4329SOL    MW417084   0.823   2.797   0.482 -0.2967 -0.5210 -0.5424
 4330SOL     OW17085   0.668   0.066   4.750  0.3220  0.6712 -0.3290
 4330SOL    HW217086   0.619   0.049   4.670  0.8336  1.1374 -0.7491
 4330SOL    HW317087   0.749   0.014   4.740 -0.5575 -1.0376  0.8782
 4330SOL    MW417088   0.673   0.057   4.738  0.2735  0.5073 -0.2252
 4331SOL     OW17089   2.116   2.813   4.220  0.8186  0.0470  0.6023
 4331SOL    HW217090   2.089   2.780   4.306  1.8214 -1.4791  0.3840
 4331SOL    HW317091   2.076   2.752   4.158  1.1268  0.3933  0.0590
 4331SOL    MW417092   2.107   2.800   4.223  0.9916 -0.1086  0.5018
 4332SOL     OW17093   4.821   4.443   3.828  0.7661  0.6996  0.3559
 4332SOL    HW217094   4.855   4.532   3.821  2.2304  0.0813 -1.1994
 4332SOL    HW317095   4.877   4.391   3.770 -1.0031 -0.9748  0.0246
 4332SOL    MW417096   4.833   4.448   3.820  0.7258  0.3971  0.1070
 4333SOL     OW17097   6.027   5.974   4.901 -0.2524  0.5513 -0.1477
 4333SOL    HW217098   5.979   5.952   4.981 -1.3648  0.1156 -0.9154
 4333SOL    HW317099   6.115   5.940   4.916 -0.4095  0.5821  0.9370
 4333SOL    MW417100   6.032   5.967   4.914 -0.4199  0.4978 -0.1058
 4334SOL     OW17101   1.696   6.426   3.347 -0.4444 -0.3509 -0.4480
 4334SOL    HW217102   1.765   6.493   3.342  0.7370 -1.5705 -1.0532
 4334SOL    HW317103   1.629   6.457   3.285  0.3298  0.0226 -1.1237
 4334SOL    MW417104   1.696   6.439   3.338 -0.1864 -0.4625 -0.6170
 4335SOL     OW17105   1.783   4.894   2.949 -0.2189  0.0857  0.2175
 4335SOL    HW217106   1.774   4.819   2.890  0.1535 -0.3026  0.6443
 4335SOL    HW317107   1.868   4.882   2.990 -0.5810  0.2097  1.0265
 4335SOL    MW417108   1.793   4.882   2.947 -0.2176  0.0508  0.3805
 4336SOL     OW17109   4.688   6.006   4.533  0.4716  0.0437  0.1006
 4336SOL    HW217110   4.605   6.035   4.572  0.8138 -0.4194  1.2009
 4336SOL    HW317111   4.698   5.916   4.564  1.1353 -0.0736 -0.4512
 4336SOL    MW417112   4.678   5.998   4.542  0.6043 -0.0329  0.1730
 4337SOL     OW17113   3.790   3.503   2.434  0.4180  0.0667  0.1627
 4337SOL    HW217114   3.738   3.563   2.380 -0.3166  1.1790  2.0318
 4337SOL    HW317115   3.729   3.432   2.457  0.0494  0.7468  1.3469
 4337SOL    MW417116   3.775   3.501   2.430  0.2724  0.3032  0.5656
 4338SOL     OW17117   3.705   4.509   4.495  0.1807  0.1403 -0.4865
 4338SOL    HW217118   3.622   4.536   4.535  0.8544  0.9842  0.3903
 4338SOL    HW317119   3.685   4.424   4.454 -1.0784  0.2721 -0.1988
 4338SOL    MW417120   3.691   4.501   4.495  0.1035  0.2691 -0.3329
 4339SOL     OW17121   6.192   2.326   1.067  0.0861  0.7639  0.6101
 4339SOL    HW217122   6.171   2.397   1.006 -0.9545 -1.3545 -1.6941
 4339SOL    HW317123   6.268   2.283   1.029 -1.3538 -1.3925 -0.0117
 4339SOL    MW417124   6.199   2.330   1.054 -0.2412  0.1999  0.2241
 4340SOL     OW17125   5.881   1.349   6.239  0.8867 -0.1410 -0.1355
 4340SOL    HW217126   5.857   1.303   6.159 -2.8770 -0.4460  0.9786
 4340SOL    HW317127   5.890   1.441   6.213  2.2899 -0.5788 -1.2972
 4340SOL    MW417128   5.879   1.355   6.225  0.5753 -0.2390 -0.1418
 4341SOL     OW17129   5.886   3.301   1.476  0.4219 -0.0771  0.2355
 4341SOL    HW217130   5.934   3.255   1.407 -0.9821 -0.3136 -0.6161
 4341SOL    HW317131   5.867   3.233   1.541 -0.8213 -0.5276 -0.5710
 4341SOL    MW417132   5.890   3.286   1.475  0.0727 -0.1677  0.0167
 4342SOL     OW17133   4.796   4.223   2.331 -0.4663 -0.0649  0.3105
 4342SOL    HW217134   4.738   4.267   2.394 -1.7703  0.0321 -0.8943
 4342SOL    HW317135   4.780   4.270   2.248  0.7386 -0.5844 -0.2259
 4342SOL    MW417136   4.786   4.235   2.328 -0.4794 -0.1206  0.0808
 4343SOL     OW17137   4.729   1.988   0.602  0.0063  0.2297 -0.0133
 4343SOL    HW217138   4.700   1.914   0.656 -1.0796  0.3438 -0.3987
 4343SOL    HW317139   4.694   2.065   0.647 -1.4800  0.2867 -1.1782
 4343SOL    MW417140   4.720   1.988   0.615 -0.3331  0.2523 -0.2179
 4344SOL     OW17141   2.772   5.840   3.065 -0.0951 -0.2795 -0.3538
 4344SOL    HW217142   2.717   5.761   3.060 -1.8160  0.8570 -0.1682
 4344SOL    HW317143   2.718   5.909   3.028  1.5457  0.7585 -0.8916
 4344SOL    MW417144   2.757   5.838   3.060 -0.1057  0.0074 -0.4003
 4345SOL     OW17145   5.931   2.262   6.004  0.5012  0.4709 -0.1066
 4345SOL    HW217146   5.956   2.172   5.985 -0.3504  0.2693 -0.3050
 4345SOL    HW317147   5.884   2.257   6.088 -0.3768  0.5764 -0.5791
 4345SOL    MW417148   5.928   2.250   6.013  0.2730  0.4582 -0.1951
 4346SOL     OW17149   0.920   2.143   2.756 -0.0702 -0.4134  0.0569
 4346SOL    HW217150   0.843   2.098   2.719  0.3046 -0.5913 -0.5125
 4346SOL    HW317151   0.952   2.082   2.823  0.1144 -0.7629 -0.3407
 4346SOL    MW417152   0.914   2.129   2.760  0.0036 -0.4830 -0.0707
 4347SOL     OW17153   3.175   0.458   5.356  0.5909 -0.3404  0.0757
 4347SOL    HW217154   3.202   0.371   5.326  0.4100 -0.4173  0.1347
 4347SOL    HW317155   3.233   0.476   5.430 -0.8326 -1.3902  1.5322
 4347SOL    MW417156   3.186   0.449   5.362  0.3792 -0.4891  0.2757
 4348SOL     OW17157   5.455   2.288   5.236 -0.4164  0.2971 -0.1904
 4348SOL    HW217158   5.550   2.299   5.247 -0.2421  1.8115 -2.5098
 4348SOL    HW317159   5.422   2.279   5.325  1.7018  1.7052  0.8391
 4348SOL    MW417160   5.463   2.289   5.250 -0.1140  0.6827 -0.3606
 4349SOL     OW17161   6.277   4.435   5.325 -0.3292  0.6471  0.0428
 4349SOL    HW217162   6.200   4.385   5.297 -0.0958  0.0593  0.4333
 4349SOL    HW317163   6.316   4.382   5.394  1.0143  0.4052 -0.8530
 4349SOL    MW417164   6.272   4.421   5.330 -0.1211  0.5376 -0.0238
 4350SOL     OW17165   4.425   3.669   0.727 -0.2530  0.3288  0.3850
 4350SOL    HW217166   4.456   3.746   0.678 -1.2223  1.1387  0.9966
 4350SOL    HW317167   4.363   3.705   0.791 -2.1494 -1.1757 -0.5145
 4350SOL    MW417168   4.421   3.684   0.729 -0.6311  0.2372  0.3470
 4351SOL     OW17169   0.918   4.432   1.324 -0.0867 -0.1146  0.4644
 4351SOL    HW217170   1.006   4.425   1.288 -0.1033  0.9667  0.1842
 4351SOL    HW317171   0.863   4.385   1.262  0.5027 -2.5776  1.6526
 4351SOL    MW417172   0.922   4.425   1.311 -0.0112 -0.2969  0.5842
 4352SOL     OW17173   4.139   5.495   5.093 -0.5428  0.2161  0.3244
 4352SOL    HW217174   4.098   5.525   5.012  1.2429  1.7897 -0.0820
 4352SOL    HW317175   4.087   5.535   5.163 -0.4014  1.2250 -0.1395
 4352SOL    MW417176   4.126   5.504   5.092 -0.2885  0.5568  0.2096
 4353SOL     OW17177   5.856   0.171   1.072 -0.1232 -0.1808  0.2975
 4353SOL    HW217178   5.852   0.248   1.015 -0.9735 -0.6537 -0.3054
 4353SOL    HW317179   5.825   0.202   1.157 -0.2305  0.1921  0.1241
 4353SOL    MW417180   5.851   0.186   1.075 -0.2496 -0.1940  0.1951
 4354SOL     OW17181   5.298   6.231   3.345 -0.1310 -0.6774 -0.0917
 4354SOL    HW217182   5.360   6.163   3.370 -0.1460 -1.0135 -0.9190
 4354SOL    HW317183   5.265   6.266   3.428 -0.4438 -1.9658  0.3535
 4354SOL    MW417184   5.302   6.226   3.359 -0.1742 -0.8917 -0.1421
 4355SOL     OW17185   4.053   3.256   0.241  0.3413 -0.0414 -0.1389
 4355SOL    HW217186   4.146   3.246   0.219  0.2136 -1.7456 -0.0346
 4355SOL    HW317187   4.048   3.231   0.334 -0.6172 -3.0568 -0.8745
 4355SOL    MW417188   4.065   3.251   0.251  0.1980 -0.6641 -0.2222
 4356SOL     OW17189   6.194   1.400   3.377  0.0482  1.2597 -0.2297
 4356SOL    HW217190   6.147   1.400   3.460 -0.5989  0.2026 -0.5880
 4356SOL    HW317191   6.134   1.362   3.314  1.5018 -0.5718 -0.6061
 4356SOL    MW417192   6.180   1.395   3.380  0.1546  0.8786 -0.3266
 4357SOL     OW17193   0.919   1.503   1.485 -0.2533  0.0172  0.5539
 4357SOL    HW217194   0.866   1.577   1.515  0.2599  0.9627 -0.7831
 4357SOL    HW317195   0.962   1.535   1.405  1.2247 -1.1958  0.8258
 4357SOL    MW417196   0.918   1.517   1.478  0.0094 -0.0181  0.4134
 4358SOL     OW17197   1.215   3.704   4.392  0.3680  0.3005  0.1486
 4358SOL    HW217198   1.310   3.700   4.406  0.3039 -1.1784  0.3447
 4358SOL    HW317199   1.190   3.613   4.376 -0.9808  0.7171 -0.2224
 4358SOL    MW417200   1.224   3.691   4.392  0.1816  0.1603  0.1256
 4359SOL     OW17201   4.046   1.203   2.033 -0.1388  0.1206  0.3446
 4359SOL    HW217202   4.089   1.130   2.077  0.5536  0.9984  1.1905
 4359SOL    HW317203   3.992   1.163   1.965 -0.7188 -1.2324  1.5656
 4359SOL    MW417204   4.045   1.188   2.030 -0.1239  0.0579  0.6173
 4360SOL     OW17205   4.947   4.322   0.608  0.2369 -0.8467  0.7889
 4360SOL    HW217206   4.942   4.373   0.528 -0.8607 -0.4248  1.1155
 4360SOL    HW317207   4.866   4.270   0.610  0.5616 -1.3564  1.2914
 4360SOL    MW417208   4.936   4.322   0.598  0.1349 -0.8583  0.8983
 4361SOL     OW17209   3.651   1.849   1.089  0.1276  0.1131 -0.1567
 4361SOL    HW217210   3.726   1.898   1.054 -1.5166  1.8211 -1.5227
 4361SOL    HW317211   3.659   1.762   1.049  2.6396 -0.6020  1.6284
 4361SOL    MW417212   3.662   1.844   1.079  0.2421  0.2441 -0.1014
 4362SOL     OW17213   5.033   0.581   5.178  0.3644 -0.4729 -0.0411
 4362SOL    HW217214   5.021   0.651   5.242 -0.8647  1.0104 -1.7867
 4362SOL    HW317215   4.961   0.520   5.195 -2.0115  1.5694 -1.9180
 4362SOL    MW417216   5.022   0.582   5.188 -0.1112 -0.0077 -0.5191
 4363SOL     OW17217   3.275   3.444   4.229 -0.1442  0.3849 -0.7525
 4363SOL    HW217218   3.340   3.502   4.269  0.3974 -0.5176 -0.2964
 4363SOL    HW317219   3.205   3.503   4.201  0.3717  1.2546 -0.2673
 4363SOL    MW417220   3.274   3.460   4.231 -0.0047  0.3806 -0.6283
 4364SOL     OW17221   5.604   2.187   4.895  0.0088 -0.1726 -0.8502
 4364SOL    HW217222   5.638   2.267   4.934 -0.3781 -0.2322 -0.3804
 4364SOL    HW317223   5.509   2.198   4.896 -0.0924 -0.9637 -0.0466
 4364SOL    MW417224   5.596   2.199   4.900 -0.0556 -0.2849 -0.6822
 4365SOL     OW17225   4.650   2.946   5.671 -0.0376 -0.0214  0.2626
 4365SOL    HW217226   4.562   2.920   5.644  0.4660 -0.6858 -0.8124
 4365SOL    HW317227   4.640   2.971   5.763 -1.6022  1.2026 -0.1897
 4365SOL    MW417228   4.637   2.946   5.680 -0.1776  0.0525  0.0611
 4366SOL     OW17229   4.337   4.649   2.368 -0.4258  0.2589 -0.0998
 4366SOL    HW217230   4.431   4.661   2.376 -0.5726  1.0187  0.5547
 4366SOL    HW317231   4.305   4.733   2.335 -1.0022  0.3743  0.7262
 4366SOL    MW417232   4.345   4.662   2.364 -0.5212  0.3744  0.0955
 4367SOL     OW17233   1.862   4.944   4.092  0.0410 -0.3095 -0.1905
 4367SOL    HW217234   1.879   4.929   4.185 -0.8611 -1.1656 -0.1501
 4367SOL    HW317235   1.768   4.930   4.082  0.2010 -0.6386 -1.3093
 4367SOL    MW417236   1.852   4.940   4.103 -0.0569 -0.4659 -0.3328
 4368SOL     OW17237   1.377   4.428   1.396  0.1927 -0.0816  0.5227
 4368SOL    HW217238   1.388   4.520   1.371 -2.0326 -0.2005 -1.2290
 4368SOL    HW317239   1.297   4.427   1.449 -1.3638 -1.2526 -1.6829
 4368SOL    MW417240   1.367   4.440   1.399 -0.3063 -0.2518  0.0006
 4369SOL     OW17241   3.248   0.177   5.296 -0.4332 -0.1617  0.3652
 4369SOL    HW217242   3.275   0.133   5.377  1.0660  0.7353  0.3891
 4369SOL    HW317243   3.152   0.177   5.299 -0.4570 -2.0923  1.0566
 4369SOL    MW417244   3.239   0.171   5.307 -0.2386 -0.2980  0.4596
 4370SOL     OW17245   2.588   5.709   4.824 -0.3888 -0.2107  0.2250
 4370SOL    HW217246   2.516   5.769   4.806 -0.3465 -0.2298 -0.0124
 4370SOL    HW317247   2.560   5.660   4.902 -2.0149 -2.4000 -1.6084
 4370SOL    MW417248   2.575   5.710   4.832 -0.5978 -0.5020 -0.0482
 4371SOL     OW17249   1.282   3.768   0.249  0.2037  0.1393  0.1946
 4371SOL    HW217250   1.279   3.698   0.184  1.9999 -2.1544  2.3334
 4371SOL    HW317251   1.206   3.752   0.305 -1.6430  2.4247 -1.4765
 4371SOL    MW417252   1.272   3.756   0.248  0.1970  0.1382  0.2563
 4372SOL     OW17253   2.146   4.268   2.017  0.4495  0.0856 -0.2818
 4372SOL    HW217254   2.058   4.234   2.007  0.0221  1.0216  0.2033
 4372SOL    HW317255   2.134   4.359   2.043  1.5315 -0.1589  1.2514
 4372SOL    MW417256   2.133   4.275   2.019  0.5358  0.1768 -0.0155
 4373SOL     OW17257   6.260   3.293   0.237 -0.2616 -0.5903  0.2347
 4373SOL    HW217258   6.247   3.230   0.308 -1.4245 -0.5327  0.0994
 4373SOL    HW317259   6.205   3.260   0.166 -0.4476  0.2655 -0.0313
 4373SOL    MW417260   6.251   3.280   0.237 -0.4396 -0.4698  0.1818
 4374SOL     OW17261   0.156   3.080   6.047  0.1987  0.1147  0.5180
 4374SOL    HW217262   0.223   3.123   6.100  2.7764 -2.0301 -0.7955
 4374SOL    HW317263   0.107   3.153   6.007  2.5381  1.8314  0.5772
 4374SOL    MW417264   0.158   3.095   6.049  0.8474  0.0582  0.3525
 4375SOL     OW17265   4.876   0.469   4.048 -0.4464  0.3412  0.0584
 4375SOL    HW217266   4.917   0.486   3.963  0.1379  1.5969  0.5756
 4375SOL    HW317267   4.946   0.431   4.101 -1.5284 -3.3141 -0.8427
 4375SOL    MW417268   4.890   0.466   4.044 -0.5121  0.0246  0.0078
 4376SOL     OW17269   1.393   5.721   5.429  0.0384 -0.5354 -0.2568
 4376SOL    HW217270   1.391   5.805   5.384  4.2479  0.7525  1.4025
 4376SOL    HW317271   1.416   5.658   5.361  1.6571  0.5820 -0.8260
 4376SOL    MW417272   1.396   5.724   5.414  0.8074 -0.2180 -0.1130
 4377SOL     OW17273   0.932   2.148   1.684 -0.0035 -0.0412 -0.0265
 4377SOL    HW217274   0.893   2.233   1.665  1.1702  0.1149 -2.0376
 4377SOL    HW317275   0.871   2.084   1.646  1.5200  0.2042 -3.2278
 4377SOL    MW417276   0.919   2.151   1.676  0.3523  0.0117 -0.7142
 4378SOL     OW17277   0.131   5.115   3.321  0.4958 -0.2563 -0.2423
 4378SOL    HW217278   0.113   5.209   3.323 -0.6442 -0.4620  0.6533
 4378SOL    HW317279   0.208   5.104   3.376  1.1900  0.2445 -1.0922
 4378SOL    MW417280   0.139   5.126   3.328  0.4370 -0.2173 -0.2363
 4379SOL     OW17281   0.353   1.958   5.006 -0.0970 -0.1455  0.2122
 4379SOL    HW217282   0.325   2.049   4.997  0.3600 -0.0958 -0.9125
 4379SOL    HW317283   0.388   1.953   5.095 -0.7597  0.5934  0.5283
 4379SOL    MW417284   0.354   1.970   5.017 -0.1241 -0.0415  0.1055
 4380SOL     OW17285   4.511   2.204   3.028 -0.0308 -0.3305  0.3417
 4380SOL    HW217286   4.427   2.244   3.051 -0.7352  0.0077 -2.4355
 4380SOL    HW317287   4.492   2.150   2.951  2.2743 -0.2615 -0.3679
 4380SOL    MW417288   4.497   2.202   3.021  0.1804 -0.2768 -0.1183
 4381SOL     OW17289   5.865   6.175   0.823  0.1406  0.1782 -0.5686
 4381SOL    HW217290   5.843   6.227   0.900  0.3377  0.1323 -0.4807
 4381SOL    HW317291   5.959   6.161   0.829 -0.1824 -2.0242  0.5859
 4381SOL    MW417292   5.874   6.180   0.834  0.1240 -0.1184 -0.4047
 4382SOL     OW17293   4.420   4.310   5.332  0.0133  0.0204 -0.1677
 4382SOL    HW217294   4.341   4.318   5.278 -1.1288  0.5377  1.5090
 4382SOL    HW317295   4.443   4.217   5.328 -0.5725 -0.1070 -0.8015
 4382SOL    MW417296   4.412   4.299   5.324 -0.2147  0.0718 -0.0301
 4383SOL     OW17297   3.879   4.146   0.143  0.4490 -0.3589  0.1874
 4383SOL    HW217298   3.808   4.180   0.197  0.6637  2.7756 -1.3032
 4383SOL    HW317299   3.953   4.204   0.161  0.9054 -0.0005 -2.4929
 4383SOL    MW417300   3.880   4.158   0.153  0.5375  0.1019 -0.3629
 4384SOL     OW17301   1.908   0.885   0.632  0.0219 -0.0105  0.1109
 4384SOL    HW217302   1.943   0.812   0.683 -0.2316  0.1884  0.5764
 4384SOL    HW317303   1.984   0.941   0.615  0.0951 -0.0414  0.3325
 4384SOL    MW417304   1.923   0.883   0.637 -0.0019  0.0117  0.2015
 4385SOL     OW17305   5.273   2.186   5.871  0.5306  0.2800  0.3884
 4385SOL    HW217306   5.296   2.101   5.833  2.4837  0.9315 -0.0072
 4385SOL    HW317307   5.254   2.242   5.796 -0.8902  0.1869  0.6544
 4385SOL    MW417308   5.273   2.182   5.856  0.6009  0.3537  0.3713
 4386SOL     OW17309   4.174   2.113   0.027  0.0832 -0.2771 -0.2664
 4386SOL    HW217310   4.224   2.121   0.108 -0.1478 -2.5531  0.1755
 4386SOL    HW317311   4.083   2.122   0.054  0.0386 -0.4043 -0.3709
 4386SOL    MW417312   4.169   2.115   0.041  0.0468 -0.5941 -0.2219
 4387SOL     OW17313   1.101   1.348   2.742  0.3602  0.1461 -0.0693
 4387SOL    HW217314   1.018   1.354   2.788  0.9897  3.1530  0.8505
 4387SOL    HW317315   1.114   1.434   2.702  2.8198 -0.3677 -0.5904
 4387SOL    MW417316   1.092   1.360   2.743  0.7678  0.4750 -0.0167
 4388SOL     OW17317   2.812   4.095   5.217 -0.2807  0.3989  0.0356
 4388SOL    HW217318   2.753   4.025   5.190 -0.1106  0.2705 -0.0042
 4388SOL    HW317319   2.754   4.168   5.241 -0.4334  1.0187 -1.9882
 4388SOL    MW417320   2.797   4.096   5.217 -0.2784  0.4637 -0.2367
 4389SOL     OW17321   4.175   5.597   2.045  0.3693 -0.1340  0.1228
 4389SOL    HW217322   4.234   5.613   2.119 -0.3813  1.9214  0.3464
 4389SOL    HW317323   4.221   5.533   1.990  2.4421  0.8153  0.6830
 4389SOL    MW417324   4.189   5.590   2.047  0.5438  0.2624  0.2262
 4390SOL     OW17325   5.523   5.889   3.750 -0.4043  0.0699 -0.3723
 4390SOL    HW217326   5.533   5.963   3.690  1.7111 -0.7403 -1.1154
 4390SOL    HW317327   5.598   5.832   3.730 -2.2989 -2.6169 -0.3072
 4390SOL    MW417328   5.535   5.891   3.740 -0.3752 -0.3915 -0.4617
 4391SOL     OW17329   0.983   2.942   2.337  0.0246 -0.2920  0.8681
 4391SOL    HW217330   1.074   2.963   2.354  0.0220 -1.1687  2.1346
 4391SOL    HW317331   0.950   2.909   2.420 -1.0285 -1.4408  0.0415
 4391SOL    MW417332   0.990   2.940   2.350 -0.1147 -0.5593  0.9262
 4392SOL     OW17333   4.355   5.767   4.594  0.5548  0.0184  0.3224
 4392SOL    HW217334   4.377   5.860   4.606  1.1345  0.2579 -2.0077
 4392SOL    HW317335   4.262   5.768   4.571  1.2450  0.5090 -3.0584
 4392SOL    MW417336   4.346   5.780   4.593  0.7224  0.1147 -0.4311
 4393SOL     OW17337   3.594   0.475   0.151 -0.1826  0.3572  0.3599
 4393SOL    HW217338   3.551   0.441   0.230 -0.7534  1.4447  0.5222
 4393SOL    HW317339   3.658   0.539   0.184 -0.2113  0.5974 -0.0444
 4393SOL    MW417340   3.597   0.479   0.166 -0.2617  0.5324  0.3280
 4394SOL     OW17341   4.794   0.420   2.228  0.0658  0.2411 -0.2492
 4394SOL    HW217342   4.721   0.455   2.279  1.0473  1.4149  0.3938
 4394SOL    HW317343   4.869   0.422   2.288  1.0287  0.7595 -1.4243
 4394SOL    MW417344   4.794   0.425   2.243  0.3223  0.4643 -0.3194
 4395SOL     OW17345   4.205   4.513   3.790  0.3393 -0.1712 -0.1710
 4395SOL    HW217346   4.129   4.514   3.848  0.7627 -0.7406  0.4025
 4395SOL    HW317347   4.202   4.428   3.748  0.2264  0.1076 -0.7333
 4395SOL    MW417348   4.195   4.502   3.792  0.3803 -0.2095 -0.1695
 4396SOL     OW17349   2.873   5.140   3.613  0.1777 -0.6174  0.5706
 4396SOL    HW217350   2.961   5.128   3.651  0.0691 -3.0482  0.1955
 4396SOL    HW317351   2.820   5.170   3.687  0.5608 -2.6967  1.7686
 4396SOL    MW417352   2.878   5.143   3.628  0.2139 -1.2124  0.6792
 4397SOL     OW17353   2.485   3.194   3.341  0.0716  0.1592 -0.0721
 4397SOL    HW217354   2.444   3.237   3.267  0.2304  1.7744  0.7374
 4397SOL    HW317355   2.450   3.238   3.418  0.2735 -1.1441  0.8138
 4397SOL    MW417356   2.475   3.205   3.342  0.1192  0.2003  0.1516
 4398SOL     OW17357   4.163   4.454   1.388  0.2219 -0.2324 -0.3339
 4398SOL    HW217358   4.233   4.488   1.333  1.6625 -0.2827  1.3561
 4398SOL    HW317359   4.206   4.388   1.444 -0.6575  1.1351  2.1324
 4398SOL    MW417360   4.178   4.449   1.388  0.2959 -0.0586  0.2144
 4399SOL     OW17361   0.681   2.111   6.121 -0.3066 -0.3217  0.1299
 4399SOL    HW217362   0.639   2.146   6.042  1.1186  2.1487  0.3546
 4399SOL    HW317363   0.760   2.068   6.089 -0.5431 -0.7372  0.0973
 4399SOL    MW417364   0.686   2.110   6.107 -0.1498 -0.0506  0.1553
 4400SOL     OW17365   1.464   3.238   3.323  0.0226 -0.1664 -0.5814
 4400SOL    HW217366   1.414   3.216   3.245 -1.4707 -0.2738  0.3592
 4400SOL    HW317367   1.555   3.226   3.298 -0.4692 -1.0797 -2.0313
 4400SOL    MW417368   1.469   3.233   3.310 -0.2393 -0.3010 -0.6486
 4401SOL     OW17369   5.077   4.239   2.343 -0.1810  0.4216 -0.4624
 4401SOL    HW217370   4.982   4.241   2.352 -0.2577  2.0941 -1.2224
 4401SOL    HW317371   5.100   4.327   2.311  1.7491  0.5548  1.0859
 4401SOL    MW417372   5.068   4.251   2.340  0.0635  0.6598 -0.3584
 4402SOL     OW17373   4.027   4.948   2.101  0.4652  0.3270  0.4064
 4402SOL    HW217374   4.035   5.041   2.080 -1.6001  0.3585 -0.4284
 4402SOL    HW317375   4.035   4.903   2.017 -0.3645 -0.1001  0.5384
 4402SOL    MW417376   4.029   4.954   2.088  0.0833  0.2748  0.3137
 4403SOL     OW17377   4.790   3.347   4.021 -0.0430  0.0382  0.4833
 4403SOL    HW217378   4.822   3.288   4.089  1.5826  1.0915  0.6833
 4403SOL    HW317379   4.869   3.383   3.981 -0.9828  0.8623 -0.7103
 4403SOL    MW417380   4.805   3.344   4.025  0.0475  0.2859  0.3522
 4404SOL     OW17381   4.174   0.994   2.783 -0.0444 -0.5409 -0.9472
 4404SOL    HW217382   4.227   1.069   2.811  2.0007 -2.6151  1.1764
 4404SOL    HW317383   4.087   1.012   2.818  0.5101  0.6580 -0.1193
 4404SOL    MW417384   4.170   1.006   2.791  0.2986 -0.6564 -0.5578
 4405SOL     OW17385   3.524   4.696   0.738 -0.4348  0.3939  0.1943
 4405SOL    HW217386   3.488   4.639   0.807 -1.0088  0.0411 -0.3855
 4405SOL    HW317387   3.451   4.752   0.713 -0.1911  0.6077 -0.0411
 4405SOL    MW417388   3.510   4.696   0.744 -0.4784  0.3755  0.0867
 4406SOL     OW17389   5.779   3.115   6.150  0.2552 -0.4125  0.9143
 4406SOL    HW217390   5.795   3.022   6.161 -2.5848 -0.9419  1.4586
 4406SOL    HW317391   5.851   3.146   6.095  0.6037 -3.1526 -0.3289
 4406SOL    MW417392   5.791   3.107   6.144 -0.0735 -0.8439  0.8221
 4407SOL     OW17393   1.500   3.338   4.263  0.1983 -0.1669  0.4093
 4407SOL    HW217394   1.472   3.386   4.185 -1.5272  0.6466  1.4670
 4407SOL    HW317395   1.483   3.246   4.243  1.1565 -0.1221 -0.6939
 4407SOL    MW417396   1.494   3.332   4.250  0.0970 -0.0537  0.4033
 4408SOL     OW17397   0.187   4.950   5.805  0.2566 -0.0952  0.6665
 4408SOL    HW217398   0.113   4.993   5.848  0.4279 -0.3939  1.2738
 4408SOL    HW317399   0.264   4.987   5.848  0.5109  0.8260 -0.5233
 4408SOL    MW417400   0.187   4.961   5.816  0.3128 -0.0131  0.5896
 4409SOL     OW17401   0.502   0.916   4.301  0.1201 -0.0159  0.0924
 4409SOL    HW217402   0.460   0.920   4.387 -0.1405  0.0199 -0.0384
 4409SOL    HW317403   0.471   0.994   4.255  0.2415 -0.0480 -0.0444
 4409SOL    MW417404   0.492   0.927   4.307  0.1017 -0.0154  0.0571
 4410SOL     OW17405   0.078   2.041   3.517 -0.2842  0.2866 -0.2230
 4410SOL    HW217406   0.021   2.118   3.520  1.9849  2.0749  1.7094
 4410SOL    HW317407   0.119   2.045   3.431 -2.2282 -0.4598 -1.2432
 4410SOL    MW417408   0.076   2.052   3.506 -0.2413  0.4240 -0.1026
 4411SOL     OW17409   4.152   0.647   1.845 -0.8288  0.0311 -0.0349
 4411SOL    HW217410   4.111   0.639   1.758 -0.5244  0.0605 -0.1821
 4411SOL    HW317411   4.115   0.728   1.881 -1.9068 -0.6248  0.3766
 4411SOL    MW417412   4.142   0.657   1.838 -0.9309 -0.0516 -0.0000
 4412SOL     OW17413   4.112   0.554   3.648 -0.0547 -0.3978 -0.2492
 4412SOL    HW217414   4.199   0.515   3.656  0.8603  1.3406 -0.9132
 4412SOL    HW317415   4.081   0.526   3.562  0.8572  0.7567 -0.9851
 4412SOL    MW417416   4.120   0.545   3.638  0.1863 -0.0161 -0.4339
 4413SOL     OW17417   0.987   1.608   1.247 -0.4121 -0.1628 -0.5141
 4413SOL    HW217418   1.068   1.596   1.198 -0.1829  1.1091 -0.4717
 4413SOL    HW317419   0.965   1.700   1.235 -1.0258 -0.1243  0.7505
 4413SOL    MW417420   0.995   1.619   1.239 -0.4628  0.0101 -0.3416
 4414SOL     OW17421   0.177   4.060   2.278  0.0969 -0.2204  0.3866
 4414SOL    HW217422   0.114   3.999   2.240  2.3710 -1.9128 -0.9371
 4414SOL    HW317423   0.239   4.079   2.207  0.7400  1.9057  1.4221
 4414SOL    MW417424   0.177   4.055   2.264  0.4818 -0.1632  0.3486
 4415SOL     OW17425   3.902   1.190   1.442  0.2798 -0.2575  0.1345
 4415SOL    HW217426   3.810   1.190   1.469  0.5735 -0.0975  1.1905
 4415SOL    HW317427   3.936   1.274   1.473  0.5716  0.0854 -1.0533
 4415SOL    MW417428   3.894   1.201   1.450  0.3570 -0.1912  0.1171
 4416SOL     OW17429   1.000   2.333   5.230  0.6247  0.2431 -0.5248
 4416SOL    HW217430   1.011   2.267   5.162 -1.6074  0.5273 -1.2457
 4416SOL    HW317431   1.042   2.412   5.194 -0.0971  0.2527 -1.3936
 4416SOL    MW417432   1.007   2.335   5.216  0.2349  0.2819 -0.7345
 4417SOL     OW17433   6.315   3.165   4.322  0.0149  0.1130  0.6039
 4417SOL    HW217434   6.355   3.233   4.268  0.6089  0.4191  1.4145
 4417SOL    HW317435   6.313   3.202   4.410 -0.3334 -0.6371  0.9207
 4417SOL    MW417436   6.320   3.179   4.326  0.0473  0.0544  0.7527
 4418SOL     OW17437   6.099   3.424   3.456  0.2664 -0.9810 -0.1394
 4418SOL    HW217438   6.040   3.457   3.388  1.8265  0.6119 -0.8131
 4418SOL    HW317439   6.171   3.384   3.407  0.6091 -1.2922  0.6091
 4418SOL    MW417440   6.101   3.423   3.441  0.5175 -0.8119 -0.1295
 4419SOL     OW17441   3.655   0.917   2.668 -0.1919  0.3601 -0.1253
 4419SOL    HW217442   3.603   0.896   2.590 -1.2040  0.8594  0.3972
 4419SOL    HW317443   3.690   0.833   2.697 -0.9789 -0.0353 -0.2984
 4419SOL    MW417444   3.653   0.903   2.661 -0.4293  0.3738 -0.0792
 4420SOL     OW17445   4.717   0.383   0.697  0.1061  0.0557 -0.1484
 4420SOL    HW217446   4.659   0.414   0.767  0.0526 -0.5113  0.0572
 4420SOL    HW317447   4.689   0.293   0.680 -0.3705  0.4126 -1.4152
 4420SOL    MW417448   4.705   0.375   0.704  0.0362  0.0280 -0.2884
 4421SOL     OW17449   2.108   3.147   4.652 -0.6905  0.8634  0.4508
 4421SOL    HW217450   2.168   3.075   4.669 -0.4741  0.8156 -0.4636
 4421SOL    HW317451   2.023   3.116   4.683 -0.8556 -0.2818 -1.0822
 4421SOL    MW417452   2.105   3.134   4.659 -0.6837  0.7060  0.1279
 4422SOL     OW17453   1.365   2.081   1.917  0.4370  0.3328  0.3856
 4422SOL    HW217454   1.423   2.118   1.850 -0.1721  1.1547  0.2906
 4422SOL    HW317455   1.280   2.123   1.901 -0.4708 -1.5625 -0.0887
 4422SOL    MW417456   1.361   2.092   1.906  0.2369  0.1912  0.3105
 4423SOL     OW17457   4.105   1.838   0.475  0.3079 -0.0636  0.3993
 4423SOL    HW217458   4.044   1.844   0.549 -0.3357  2.3223 -0.2398
 4423SOL    HW317459   4.178   1.786   0.509 -0.8728 -0.7465  2.0451
 4423SOL    MW417460   4.107   1.832   0.490  0.0672  0.1611  0.5321
 4424SOL     OW17461   5.423   0.055   3.197  0.6129 -0.4516 -0.2530
 4424SOL    HW217462   5.428  -0.039   3.213 -0.2319 -0.4213  0.2688
 4424SOL    HW317463   5.448   0.096   3.280  0.8930 -0.2128 -0.4515
 4424SOL    MW417464   5.427   0.048   3.210  0.5384 -0.4161 -0.2103
 4425SOL     OW17465   2.863   2.223   6.374  0.5336 -0.6933  0.2724
 4425SOL    HW217466   2.849   2.207   6.467 -3.4160 -2.1946 -0.3636
 4425SOL    HW317467   2.958   2.214   6.362  1.1227 -1.0496  3.9970
 4425SOL    MW417468   2.874   2.219   6.385  0.0902 -0.9384  0.6799
 4426SOL     OW17469   5.592   1.256   3.561  0.2432  0.0434  0.2310
 4426SOL    HW217470   5.552   1.307   3.631 -2.4099 -1.9815  0.3334
 4426SOL    HW317471   5.528   1.254   3.491  1.8149 -0.0640 -1.2856
 4426SOL    MW417472   5.579   1.262   3.561  0.1005 -0.2379  0.0444
 4427SOL     OW17473   5.478   0.643   5.006 -0.4854  0.1442 -0.3432
 4427SOL    HW217474   5.485   0.551   4.980 -0.0552 -0.1607  0.7985
 4427SOL    HW317475   5.443   0.687   4.928 -0.2863 -0.9047 -1.0502
 4427SOL    MW417476   5.474   0.637   4.992 -0.4024 -0.0344 -0.2858
 4428SOL     OW17477   3.991   5.067   3.911  0.2977  0.2481 -0.0969
 4428SOL    HW217478   3.985   5.142   3.970 -0.8759 -0.3197  0.5487
 4428SOL    HW317479   3.923   5.084   3.845 -0.1044 -0.3328  0.1651
 4428SOL    MW417480   3.981   5.079   3.910  0.0898  0.0966  0.0229
 4429SOL     OW17481   2.427   0.958   0.560  0.2353  0.1559  0.4053
 4429SOL    HW217482   2.416   1.030   0.622  0.3909  0.0225  0.5885
 4429SOL    HW317483   2.375   0.984   0.484 -1.4205 -0.4857  1.2657
 4429SOL    MW417484   2.419   0.971   0.558  0.0374  0.0537  0.5430
 4430SOL     OW17485   5.402   3.681   5.067  0.2134 -0.1761  0.0135
 4430SOL    HW217486   5.432   3.610   5.010  1.0516  0.1943 -0.0211
 4430SOL    HW317487   5.431   3.655   5.154  3.6230  1.6580 -0.3951
 4430SOL    MW417488   5.410   3.668   5.071  0.7739  0.1148 -0.0450
 4431SOL     OW17489   5.765   0.023   0.146 -0.0330 -0.3805 -0.4623
 4431SOL    HW217490   5.772   0.102   0.093 -0.0830  0.9628  1.4378
 4431SOL    HW317491   5.855   0.004   0.173 -0.1721 -0.1929  0.1487
 4431SOL    MW417492   5.778   0.031   0.142 -0.0579 -0.1785 -0.1310
 4432SOL     OW17493   1.391   0.357   0.543  0.0227 -0.3306 -0.9232
 4432SOL    HW217494   1.428   0.305   0.471 -0.0122 -0.0322 -1.1603
 4432SOL    HW317495   1.393   0.298   0.618  0.3115 -0.5580 -1.1041
 4432SOL    MW417496   1.396   0.342   0.543  0.0562 -0.3212 -0.9784
 4433SOL     OW17497   6.272   5.760   5.365  0.5069 -0.0551  0.2850
 4433SOL    HW217498   6.252   5.699   5.435  1.2320 -0.3130  0.2814
 4433SOL    HW317499   6.210   5.832   5.376  1.0898  0.2758  1.6598
 4433SOL    MW417500   6.261   5.762   5.376  0.6795 -0.0454  0.4659
 4434SOL     OW17501   2.255   2.170   4.718 -0.7284 -0.1870  0.1638
 4434SOL    HW217502   2.225   2.238   4.779  0.8494  0.5065  0.2163
 4434SOL    HW317503   2.298   2.106   4.774 -0.3816 -0.1826 -0.0999
 4434SOL    MW417504   2.256   2.171   4.733 -0.4745 -0.0949  0.1359
 4435SOL     OW17505   4.879   6.024   3.992 -0.0524  0.3696  0.1245
 4435SOL    HW217506   4.805   6.005   3.935  1.2599 -1.9469 -0.9654
 4435SOL    HW317507   4.843   6.021   4.081 -1.5674  1.1148 -0.4263
 4435SOL    MW417508   4.865   6.021   3.996 -0.0791  0.1623 -0.0919
 4436SOL     OW17509   2.013   3.769   6.291  0.2249 -0.2536  0.2298
 4436SOL    HW217510   2.080   3.824   6.331 -0.2327  0.1848  0.3980
 4436SOL    HW317511   2.061   3.691   6.260  0.7844 -0.0039  0.4618
 4436SOL    MW417512   2.028   3.766   6.292  0.2383 -0.1628  0.2826
 4437SOL     OW17513   3.164   3.009   2.137  0.1301  0.4412 -0.2875
 4437SOL    HW217514   3.239   2.951   2.125 -0.4167 -0.5692  0.8871
 4437SOL    HW317515   3.194   3.075   2.199 -0.2892 -0.7513  1.2754
 4437SOL    MW417516   3.177   3.010   2.144  0.0026  0.1506  0.0736
 4438SOL     OW17517   4.868   5.076   4.774  0.2026  0.6006  0.3614
 4438SOL    HW217518   4.802   5.126   4.727  2.4482  1.0333 -2.6135
 4438SOL    HW317519   4.818   5.016   4.830 -2.6308  1.5088 -1.0316
 4438SOL    MW417520   4.853   5.075   4.775  0.1250  0.7775 -0.2149
 4439SOL     OW17521   1.876   3.350   5.912  0.4365 -0.1048 -0.3211
 4439SOL    HW217522   1.964   3.317   5.925  0.5853  0.2406 -0.4403
 4439SOL    HW317523   1.823   3.271   5.894  0.7687 -0.2851 -0.5169
 4439SOL    MW417524   1.881   3.335   5.911  0.5000 -0.0831 -0.3627
 4440SOL     OW17525   6.329   0.426   6.202  0.6466 -0.1528  0.2153
 4440SOL    HW217526   6.311   0.427   6.108 -0.2274 -1.4306  0.3520
 4440SOL    HW317527   6.422   0.448   6.208  1.0657 -1.4098 -1.0544
 4440SOL    MW417528   6.339   0.429   6.190  0.5866 -0.4873  0.0658
 4441SOL     OW17529   0.884   1.941   0.521  0.5814 -0.3357 -0.5857
 4441SOL    HW217530   0.838   2.024   0.506  0.0565 -0.5660 -0.2955
 4441SOL    HW317531   0.877   1.926   0.615 -0.1695 -1.1756 -0.7499
 4441SOL    MW417532   0.877   1.950   0.531  0.4131 -0.4769 -0.5691
 4442SOL     OW17533   6.322   3.518   2.969  0.6817 -0.1502 -0.1373
 4442SOL    HW217534   6.259   3.447   2.976  1.4065 -0.7261  0.9071
 4442SOL    HW317535   6.407   3.475   2.961  1.1675  0.5731  0.8156
 4442SOL    MW417536   6.325   3.503   2.969  0.8414 -0.1307  0.1262
 4443SOL     OW17537   5.927   4.421   0.621 -0.1930  0.3008 -0.0813
 4443SOL    HW217538   5.835   4.441   0.606 -0.0718  1.0100  0.1093
 4443SOL    HW317539   5.971   4.453   0.542 -0.0358  0.4846  0.0830
 4443SOL    MW417540   5.921   4.428   0.608 -0.1563  0.4186 -0.0344
 4444SOL     OW17541   1.280   0.812   5.112  0.1936  0.2238 -0.1722
 4444SOL    HW217542   1.336   0.842   5.040  0.7468  1.3221  0.7014
 4444SOL    HW317543   1.328   0.832   5.191 -1.7205  1.8825  0.6566
 4444SOL    MW417544   1.293   0.818   5.113  0.0141  0.5875  0.0524
 4445SOL     OW17545   2.863   4.743   6.284 -0.3771  0.1268 -0.0949
 4445SOL    HW217546   2.771   4.739   6.310 -1.0453  1.7379 -2.0011
 4445SOL    HW317547   2.865   4.708   6.195  0.3473  2.6697 -1.1534
 4445SOL    MW417548   2.851   4.738   6.276 -0.3697  0.6749 -0.4860
 4446SOL     OW17549   3.618   2.983   2.454 -0.4535  0.2419 -0.1431
 4446SOL    HW217550   3.685   2.967   2.387 -2.0147 -0.1648 -1.6683
 4446SOL    HW317551   3.654   2.945   2.534  1.2067  0.2100 -0.8676
 4446SOL    MW417552   3.632   2.976   2.456 -0.4405  0.1840 -0.4399
 4447SOL     OW17553   3.146   2.355   0.335  0.7927  0.5938  0.3125
 4447SOL    HW217554   3.107   2.391   0.255  1.0355 -0.9143 -0.5329
 4447SOL    HW317555   3.073   2.342   0.395  0.3256  0.0023 -0.3730
 4447SOL    MW417556   3.131   2.358   0.332  0.7631  0.3168  0.1105
 4448SOL     OW17557   4.263   4.622   2.653  0.1448 -0.1769 -0.2514
 4448SOL    HW217558   4.230   4.533   2.638  1.6741 -0.7953 -0.1937
 4448SOL    HW317559   4.308   4.645   2.572 -0.5758  0.7210 -0.4098
 4448SOL    MW417560   4.265   4.613   2.640  0.2515 -0.1401 -0.2647
 4449SOL     OW17561   6.255   5.179   1.464  0.0482 -0.1400  0.7150
 4449SOL    HW217562   6.250   5.084   1.450 -0.6540  0.1095 -0.9814
 4449SOL    HW317563   6.345   5.202   1.439  0.0581 -0.2935  0.6031
 4449SOL    MW417564   6.266   5.169   1.459 -0.0431 -0.1273  0.4765
 4450SOL     OW17565   4.256   1.088   3.838 -0.1746  0.2257 -0.6117
 4450SOL    HW217566   4.223   1.131   3.917 -2.4760  0.3044 -1.5364
 4450SOL    HW317567   4.263   0.995   3.862 -0.2516  0.3496 -0.1079
 4450SOL    MW417568   4.252   1.081   3.851 -0.4884  0.2524 -0.6672
 4451SOL     OW17569   5.340   4.211   4.581 -0.8788  0.2691 -0.1615
 4451SOL    HW217570   5.254   4.249   4.561 -1.6265 -0.1125  2.0523
 4451SOL    HW317571   5.327   4.166   4.664  1.6146  0.6494  0.5091
 4451SOL    MW417572   5.327   4.210   4.589 -0.6485  0.2689  0.2191
 4452SOL     OW17573   3.138   6.136   4.583  0.4626 -0.1151  0.3308
 4452SOL    HW217574   3.179   6.223   4.589 -0.3010  0.3216 -0.5467
 4452SOL    HW317575   3.154   6.109   4.493 -0.5229 -0.2681  0.1983
 4452SOL    MW417576   3.146   6.144   4.572  0.2318 -0.0777  0.1975
 4453SOL     OW17577   4.275   5.541   4.811 -1.1652 -0.4462  0.1861
 4453SOL    HW217578   4.215   5.506   4.745 -0.8686  0.9716 -0.8946
 4453SOL    HW317579   4.362   5.528   4.773 -0.9311 -0.4471  0.7219
 4453SOL    MW417580   4.279   5.535   4.797 -1.0952 -0.2592  0.1142
 4454SOL     OW17581   2.653   3.950   2.756  0.0769  0.8915 -0.0748
 4454SOL    HW217582   2.638   3.952   2.661 -1.0184 -1.6985 -0.0398
 4454SOL    HW317583   2.584   4.005   2.792 -2.3027 -1.5234 -0.6217
 4454SOL    MW417584   2.642   3.958   2.748 -0.3816  0.2312 -0.1423
 4455SOL     OW17585   1.981   0.034   1.650  0.9736  0.8346  0.4180
 4455SOL    HW217586   1.929   0.046   1.571  2.0077  1.6195 -0.1773
 4455SOL    HW317587   1.995   0.123   1.683 -2.2383  0.4392  3.4503
 4455SOL    MW417588   1.976   0.047   1.644  0.6863  0.8860  0.7395
 4456SOL     OW17589   2.860   3.534   3.644 -0.1367  0.3950 -0.6007
 4456SOL    HW217590   2.903   3.478   3.578  0.3569  3.1521 -2.8282
 4456SOL    HW317591   2.770   3.543   3.612 -0.5462 -0.0454  0.4019
 4456SOL    MW417592   2.854   3.528   3.631 -0.1256  0.7007 -0.7623
 4457SOL     OW17593   0.771   1.161   6.169  0.6709  0.6995  0.3079
 4457SOL    HW217594   0.687   1.149   6.214  0.5639  0.5148  0.0640
 4457SOL    HW317595   0.811   1.237   6.212 -0.5653  2.1307 -0.9432
 4457SOL    MW417596   0.765   1.169   6.180  0.4937  0.8639  0.1106
 4458SOL     OW17597   1.461   5.197   5.554  0.3443  0.5900 -0.4742
 4458SOL    HW217598   1.428   5.236   5.636 -0.1923  0.6247 -0.6992
 4458SOL    HW317599   1.465   5.271   5.493  0.3211  0.4853 -0.6027
 4458SOL    MW417600   1.457   5.212   5.557  0.2704  0.5807 -0.5209
 4459SOL     OW17601   0.113   3.329   2.906  0.3913  0.3384 -0.0555
 4459SOL    HW217602   0.196   3.293   2.936 -0.0371  0.0107  0.7837
 4459SOL    HW317603   0.058   3.251   2.891  0.3216  0.5380 -0.8692
 4459SOL    MW417604   0.116   3.314   2.908  0.3255  0.3215 -0.0521
 4460SOL     OW17605   4.326   0.615   5.061 -0.0520 -0.2514  0.4546
 4460SOL    HW217606   4.319   0.683   4.994 -1.1240 -0.5946  0.1918
 4460SOL    HW317607   4.418   0.615   5.086  0.6023 -0.7868 -1.7479
 4460SOL    MW417608   4.337   0.624   5.055 -0.1071 -0.3674  0.1294
 4461SOL     OW17609   1.917   3.452   5.432  0.8879  0.2929  0.8311
 4461SOL    HW217610   1.845   3.475   5.372  0.7456  2.8414  1.8474
 4461SOL    HW317611   1.875   3.443   5.517  1.4225 -0.9989  0.9802
 4461SOL    MW417612   1.902   3.454   5.435  0.9396  0.4587  0.9849
 4462SOL     OW17613   2.667   4.738   3.816 -0.1775  0.2389 -0.0604
 4462SOL    HW217614   2.739   4.747   3.879  0.1275  0.6031 -0.4544
 4462SOL    HW317615   2.610   4.812   3.834 -1.2398 -0.8589  1.2367
 4462SOL    MW417616   2.669   4.749   3.827 -0.2774  0.1421  0.0587
 4463SOL     OW17617   3.575   6.273   4.598  0.8857 -0.2333  0.3805
 4463SOL    HW217618   3.532   6.341   4.650  1.1026 -0.5685  1.0022
 4463SOL    HW317619   3.577   6.309   4.509 -2.8162 -1.1203 -0.2287
 4463SOL    MW417620   3.569   6.287   4.593  0.4259 -0.3945  0.3821
 4464SOL     OW17621   2.535   5.207   0.912 -0.1023  0.1768  0.4778
 4464SOL    HW217622   2.483   5.255   0.847  1.5043  0.3335 -0.7496
 4464SOL    HW317623   2.537   5.117   0.878  0.5558  0.2087  0.4349
 4464SOL    MW417624   2.528   5.201   0.899  0.1965  0.2017  0.3102
 4465SOL     OW17625   2.776   1.210   1.263  0.6843 -0.1913 -0.0172
 4465SOL    HW217626   2.690   1.169   1.272  0.5233 -1.1012 -3.7654
 4465SOL    HW317627   2.758   1.304   1.255 -0.0889 -0.4328 -1.3736
 4465SOL    MW417628   2.763   1.217   1.263  0.5610 -0.3432 -0.6907
 4466SOL     OW17629   4.558   3.788   4.179  0.1947  0.1150  0.2155
 4466SOL    HW217630   4.486   3.741   4.223  0.7925 -1.7500 -0.7013
 4466SOL    HW317631   4.514   3.848   4.119 -0.6070 -0.0481  0.6171
 4466SOL    MW417632   4.542   3.790   4.177  0.1678 -0.1526  0.1475
 4467SOL     OW17633   2.276   2.843   5.330  0.0236 -0.1868  0.5297
 4467SOL    HW217634   2.350   2.901   5.316 -0.2555  0.0207 -0.1646
 4467SOL    HW317635   2.253   2.854   5.422  1.1712 -0.6478  0.8846
 4467SOL    MW417636   2.283   2.852   5.340  0.1382 -0.2203  0.4849
 4468SOL     OW17637   2.192   1.252   5.686  0.3100 -0.6591 -0.0349
 4468SOL    HW217638   2.241   1.205   5.619 -0.2040 -1.8959  0.4246
 4468SOL    HW317639   2.102   1.224   5.675 -0.1651  0.8428 -0.2395
 4468SOL    MW417640   2.187   1.242   5.676  0.1795 -0.6242 -0.0013
 4469SOL     OW17641   5.034   0.863   0.446  0.2794  0.2992 -0.7896
 4469SOL    HW217642   5.119   0.862   0.490 -0.2014  1.2723  0.2119
 4469SOL    HW317643   5.025   0.952   0.413 -0.8045  0.5475  0.0836
 4469SOL    MW417644   5.044   0.875   0.448  0.0730  0.4603 -0.5422
 4470SOL     OW17645   6.312   3.553   2.693 -0.9139 -0.0704 -0.4421
 4470SOL    HW217646   6.311   3.564   2.788 -2.6523  2.0084 -0.6142
 4470SOL    HW317647   6.396   3.513   2.674 -0.1389  0.3099  1.8961
 4470SOL    MW417648   6.323   3.549   2.703 -1.0410  0.2540 -0.1563
 4471SOL     OW17649   3.143   6.347   1.662  0.2625  0.1846 -0.3441
 4471SOL    HW217650   3.055   6.343   1.699  0.5440  0.2918  0.3556
 4471SOL    HW317651   3.130   6.370   1.570 -0.3350  2.7216  0.3074
 4471SOL    MW417652   3.130   6.350   1.655  0.2208  0.5335 -0.1658
 4472SOL     OW17653   3.664   5.987   1.624  0.2548  0.2914 -0.0379
 4472SOL    HW217654   3.672   5.926   1.698 -1.7996  0.8646  0.7237
 4472SOL    HW317655   3.711   6.065   1.653  0.0247  0.2705  0.4005
 4472SOL    MW417656   3.671   5.990   1.638 -0.0466  0.3643  0.1205
 4473SOL     OW17657   5.657   0.433   0.392 -0.1194  0.0124 -0.5532
 4473SOL    HW217658   5.648   0.437   0.488  1.4724 -2.5378 -0.2076
 4473SOL    HW317659   5.701   0.515   0.370 -0.6134  0.7068  0.8577
 4473SOL    MW417660   5.662   0.444   0.402  0.0254 -0.2324 -0.3214
 4474SOL     OW17661   1.375   1.229   5.646  0.1249 -0.8625  0.1473
 4474SOL    HW217662   1.399   1.151   5.596  1.9842  0.9164 -1.9691
 4474SOL    HW317663   1.416   1.216   5.732 -1.1506 -2.9563  0.4992
 4474SOL    MW417664   1.384   1.217   5.651  0.2019 -0.9040 -0.0855
 4475SOL     OW17665   0.195   1.408   3.373  0.0969 -0.2780  0.0752
 4475SOL    HW217666   0.124   1.388   3.434 -1.3536  0.0161 -1.4588
 4475SOL    HW317667   0.233   1.489   3.407 -2.1027  1.1035 -0.5532
 4475SOL    MW417668   0.191   1.416   3.386 -0.3847 -0.0570 -0.2101
 4476SOL     OW17669   2.120   3.293   1.514 -0.2994 -0.8638 -0.2392
 4476SOL    HW217670   2.099   3.200   1.528  0.0335 -0.6343  2.1350
 4476SOL    HW317671   2.037   3.332   1.488 -0.8466 -1.5186  0.4828
 4476SOL    MW417672   2.106   3.286   1.512 -0.3277 -0.9199  0.1693
 4477SOL     OW17673   6.054   4.292   2.921  0.2795  0.5854  0.1742
 4477SOL    HW217674   5.988   4.334   2.976  0.0467 -2.8668  2.9082
 4477SOL    HW317675   6.137   4.317   2.961  0.1442 -1.2781  1.7594
 4477SOL    MW417676   6.056   4.301   2.933  0.2309 -0.1159  0.7440
 4478SOL     OW17677   5.052   1.644   6.383  0.0209  0.0584  1.2137
 4478SOL    HW217678   5.025   1.728   6.346  0.9798 -0.8419 -1.8150
 4478SOL    HW317679   4.976   1.588   6.372  0.8346 -0.6973 -1.3054
 4478SOL    MW417680   5.039   1.648   6.376  0.2548 -0.1601  0.4817
 4479SOL     OW17681   0.982   4.334   2.963 -0.2550 -0.1164 -0.0025
 4479SOL    HW217682   0.914   4.385   3.007 -1.1405  0.2709 -1.7511
 4479SOL    HW317683   0.965   4.244   2.989 -1.4207 -0.0180 -0.3783
 4479SOL    MW417684   0.971   4.329   2.972 -0.5256 -0.0523 -0.2828
 4480SOL     OW17685   0.193   0.056   1.162 -0.3126 -0.0106  0.7157
 4480SOL    HW217686   0.265   0.117   1.176  1.2942 -0.9266 -2.5515
 4480SOL    HW317687   0.129   0.107   1.111  0.5674 -0.6532 -1.1144
 4480SOL    MW417688   0.194   0.071   1.157  0.0155 -0.2163  0.0432
 4481SOL     OW17689   4.587   4.595   2.127  0.3177  0.6055  0.4906
 4481SOL    HW217690   4.621   4.505   2.130 -2.6973 -0.6613  2.4403
 4481SOL    HW317691   4.553   4.605   2.039  0.5521 -0.2331  0.2928
 4481SOL    MW417692   4.587   4.584   2.116 -0.0492  0.3277  0.7217
 4482SOL     OW17693   4.685   4.397   5.912 -0.3486 -0.2574 -0.7756
 4482SOL    HW217694   4.759   4.441   5.953 -0.8646 -0.8152  0.8005
 4482SOL    HW317695   4.711   4.387   5.820  0.3480  2.0713 -0.9052
 4482SOL    MW417696   4.698   4.402   5.905 -0.3248 -0.0238 -0.5847
 4483SOL     OW17697   1.769   1.296   5.964  0.2884  0.3862  0.0356
 4483SOL    HW217698   1.795   1.293   6.056  1.0258 -1.2377 -0.1920
 4483SOL    HW317699   1.797   1.382   5.934 -1.7682  1.7839  1.8039
 4483SOL    MW417700   1.776   1.307   5.972  0.1144  0.3563  0.2389
 4484SOL     OW17701   3.766   3.614   1.262  0.6191  0.4609 -0.2954
 4484SOL    HW217702   3.767   3.682   1.329  2.0836 -0.0866  0.2760
 4484SOL    HW317703   3.851   3.571   1.270  0.8220  0.3464 -2.4944
 4484SOL    MW417704   3.777   3.617   1.272  0.8391  0.3736 -0.5101
 4485SOL     OW17705   5.793   0.127   1.841 -0.6240 -0.1969 -0.0061
 4485SOL    HW217706   5.793   0.192   1.911 -1.4846  0.8666 -0.9564
 4485SOL    HW317707   5.729   0.062   1.867 -2.1274  1.0249 -0.5070
 4485SOL    MW417708   5.785   0.127   1.853 -0.9359  0.1046 -0.1976
 4486SOL     OW17709   1.252   4.997   3.460 -0.3849 -0.4196 -0.5066
 4486SOL    HW217710   1.226   4.956   3.542 -2.9085  0.9055 -0.5403
 4486SOL    HW317711   1.206   5.082   3.460 -0.2781 -0.2775 -3.1498
 4486SOL    MW417712   1.242   5.003   3.471 -0.7037 -0.2260 -0.8598
 4487SOL     OW17713   1.583   1.707   2.457  0.2504 -0.1812 -0.1873
 4487SOL    HW217714   1.644   1.743   2.393  0.6230  1.0174  0.8079
 4487SOL    HW317715   1.513   1.772   2.463 -0.5915 -1.0238 -0.5050
 4487SOL    MW417716   1.582   1.720   2.450  0.1885 -0.1342 -0.0979
 4488SOL     OW17717   4.069   4.655   6.340  0.0895  0.4038  0.1617
 4488SOL    HW217718   4.075   4.560   6.330 -2.8878  0.2876 -2.5154
 4488SOL    HW317719   4.036   4.668   6.429  1.8759 -0.9212  1.0674
 4488SOL    MW417720   4.065   4.644   6.350 -0.0676  0.2137 -0.0720
 4489SOL     OW17721   3.249   4.292   2.427 -0.1104  0.4962 -0.2935
 4489SOL    HW217722   3.230   4.239   2.350  0.9254  1.0595 -0.9586
 4489SOL    HW317723   3.207   4.376   2.410 -2.1586 -0.1871  0.9715
 4489SOL    MW417724   3.241   4.296   2.415 -0.2440  0.4803 -0.2144
 4490SOL     OW17725   0.395   5.428   1.833  0.0446 -0.7292 -0.3025
 4490SOL    HW217726   0.322   5.387   1.788 -0.7129  1.4705 -1.2118
 4490SOL    HW317727   0.362   5.448   1.921 -1.2050  1.8891 -1.2504
 4490SOL    MW417728   0.381   5.425   1.839 -0.2202 -0.0935 -0.5475
 4491SOL     OW17729   3.514   5.512   0.796  1.1475 -0.4580  0.1121
 4491SOL    HW217730   3.520   5.505   0.891 -0.2929 -2.1179  0.1225
 4491SOL    HW317731   3.559   5.434   0.762  0.9719 -0.2822 -0.5478
 4491SOL    MW417732   3.521   5.501   0.804  0.9343 -0.6538  0.0264
 4492SOL     OW17733   0.326   4.673   2.626 -0.3400 -0.0417  0.1555
 4492SOL    HW217734   0.280   4.702   2.705  2.7662 -0.7472  2.4377
 4492SOL    HW317735   0.377   4.748   2.598  1.2671 -0.7371  1.0433
 4492SOL    MW417736   0.327   4.686   2.633  0.2818 -0.2266  0.5738
 4493SOL     OW17737   3.271   4.013   0.697 -0.0641  0.2623 -0.3493
 4493SOL    HW217738   3.301   3.929   0.663 -1.6866 -0.8729  0.8305
 4493SOL    HW317739   3.259   4.068   0.619 -2.7532 -1.9076 -1.6387
 4493SOL    MW417740   3.273   4.010   0.682 -0.6330 -0.1738 -0.3638
 4494SOL     OW17741   0.411   6.125   3.800  0.1346 -0.1980 -0.1495
 4494SOL    HW217742   0.318   6.127   3.818 -0.0288  0.0923 -0.9710
 4494SOL    HW317743   0.430   6.209   3.759  0.3289 -1.0368 -1.8942
 4494SOL    MW417744   0.401   6.136   3.797  0.1387 -0.2704 -0.4881
 4495SOL     OW17745   2.712   2.109   4.608  0.6066  0.1404  0.4332
 4495SOL    HW217746   2.775   2.168   4.567  1.3635 -1.2766 -0.5572
 4495SOL    HW317747   2.629   2.128   4.564  0.4296  1.6322  1.3549
 4495SOL    MW417748   2.710   2.119   4.597  0.6831  0.1503  0.4242
 4496SOL     OW17749   4.083   1.808   2.802  0.6920  0.5396 -0.0173
 4496SOL    HW217750   4.081   1.777   2.711  0.8586 -1.0549  0.4843
 4496SOL    HW317751   4.036   1.741   2.851  5.8043 -2.1383  1.9913
 4496SOL    MW417752   4.077   1.795   2.796  1.3885 -0.0241  0.3139
 4497SOL     OW17753   4.593   3.923   2.454  0.3307 -0.5799 -0.5797
 4497SOL    HW217754   4.587   4.018   2.462  1.3658 -0.4772 -0.8603
 4497SOL    HW317755   4.503   3.892   2.464  0.0709  0.3737  0.1490
 4497SOL    MW417756   4.581   3.931   2.456  0.4330 -0.4406 -0.5206
 4498SOL     OW17757   0.550   0.954   1.662 -0.2493 -0.0855 -0.1733
 4498SOL    HW217758   0.496   0.877   1.642 -1.4380  0.9723 -1.1761
 4498SOL    HW317759   0.639   0.927   1.637 -0.9346 -0.5074 -2.3779
 4498SOL    MW417760   0.554   0.940   1.656 -0.4966 -0.0016 -0.5964
 4499SOL     OW17761   2.440   5.052   1.281  0.1841 -0.3846  0.0121
 4499SOL    HW217762   2.384   5.115   1.236  0.1125  0.5312  1.3293
 4499SOL    HW317763   2.442   4.976   1.223 -0.1566  0.6167 -1.3672
 4499SOL    MW417764   2.433   5.050   1.267  0.1297 -0.1316  0.0039
 4500SOL     OW17765   1.697   2.928   4.142 -0.1865 -0.4123 -0.0522
 4500SOL    HW217766   1.759   2.970   4.201  1.4325 -1.0519 -1.2248
 4500SOL    HW317767   1.650   3.000   4.102  0.2232  0.1233  0.4066
 4500SOL    MW417768   1.699   2.943   4.145  0.0811 -0.4261 -0.1464
 4501SOL     OW17769   1.300   1.493   5.812 -0.1362  0.2956 -0.0240
 4501SOL    HW217770   1.267   1.505   5.723  0.5286 -0.6569 -0.4131
 4501SOL    HW317771   1.394   1.479   5.801 -0.0734 -0.0078  0.8094
 4501SOL    MW417772   1.308   1.493   5.799 -0.0402  0.1299  0.0346
 4502SOL     OW17773   3.630   4.207   4.797  0.6316 -0.4286  0.3095
 4502SOL    HW217774   3.609   4.138   4.733  0.0977 -0.9990  1.0734
 4502SOL    HW317775   3.723   4.193   4.818  1.6315  1.4980 -2.3675
 4502SOL    MW417776   3.640   4.196   4.791  0.6931 -0.2497  0.0571
 4503SOL     OW17777   4.365   5.573   0.268  0.6485 -0.4647 -0.3137
 4503SOL    HW217778   4.437   5.618   0.222  0.5322 -1.3682 -1.4440
 4503SOL    HW317779   4.308   5.542   0.197 -0.0661 -1.0528  0.5028
 4503SOL    MW417780   4.367   5.575   0.252  0.5389 -0.6615 -0.3551
 4504SOL     OW17781   1.835   4.234   4.666 -0.4130 -0.6659 -0.0296
 4504SOL    HW217782   1.881   4.299   4.720 -0.6418 -0.2362 -0.3440
 4504SOL    HW317783   1.804   4.284   4.590 -1.6779 -0.8698  0.3255
 4504SOL    MW417784   1.837   4.250   4.663 -0.6101 -0.6361 -0.0242
 4505SOL     OW17785   5.028   0.360   4.788  0.5094  0.3467  0.1483
 4505SOL    HW217786   4.958   0.425   4.796 -0.1580 -0.3930  0.4908
 4505SOL    HW317787   5.040   0.348   4.694 -0.0936  0.1977  0.0877
 4505SOL    MW417788   5.021   0.367   4.777  0.3418  0.2294  0.1855
 4506SOL     OW17789   1.240   5.737   6.204 -0.2195  1.0018 -0.4843
 4506SOL    HW217790   1.285   5.820   6.192 -0.9617  1.4408 -0.2885
 4506SOL    HW317791   1.226   5.731   6.298 -1.7640  1.5304 -0.6487
 4506SOL    MW417792   1.244   5.747   6.215 -0.5212  1.1294 -0.4802
 4507SOL     OW17793   4.548   3.527   0.167  0.5951  0.3766  0.0937
 4507SOL    HW217794   4.461   3.489   0.159  0.1064  0.5430  3.1511
 4507SOL    HW317795   4.606   3.452   0.182  0.8083  0.3443 -0.8704
 4507SOL    MW417796   4.544   3.512   0.168  0.5588  0.3943  0.3699
 4508SOL     OW17797   1.372   0.782   1.529  0.2295 -0.0930  0.2821
 4508SOL    HW217798   1.390   0.799   1.437 -0.1290 -0.7786  0.0762
 4508SOL    HW317799   1.284   0.746   1.531  0.0321  0.3997  0.9539
 4508SOL    MW417800   1.363   0.779   1.517  0.1562 -0.1184  0.3435
 4509SOL     OW17801   0.466   5.976   2.011  0.6415  0.3227  0.4336
 4509SOL    HW217802   0.489   5.891   2.050  0.2167  0.2458  0.5185
 4509SOL    HW317803   0.485   5.964   1.918 -2.0246 -0.8326 -0.0623
 4509SOL    MW417804   0.472   5.963   2.004  0.2337  0.1601  0.3794
 4510SOL     OW17805   1.544   2.924   5.604 -0.4026  1.0946  0.3540
 4510SOL    HW217806   1.565   2.839   5.642 -1.3604  0.3256 -0.7719
 4510SOL    HW317807   1.628   2.958   5.573  0.1751  1.1165  1.8472
 4510SOL    MW417808   1.558   2.917   5.605 -0.4527  0.9961  0.4025
 4511SOL     OW17809   6.090   1.578   4.739 -0.2206 -0.0533 -0.2435
 4511SOL    HW217810   6.011   1.523   4.748 -1.9540  1.9738 -2.1354
 4511SOL    HW317811   6.162   1.520   4.766 -2.1722 -2.4470  0.2022
 4511SOL    MW417812   6.089   1.563   4.744 -0.7068 -0.1016 -0.4343
 4512SOL     OW17813   5.254   3.987   4.438  0.7062  0.1058  0.2611
 4512SOL    HW217814   5.197   3.950   4.505 -2.6633  1.3389 -1.6210
 4512SOL    HW317815   5.282   4.071   4.475 -1.1248  0.7860  0.2278
 4512SOL    MW417816   5.250   3.993   4.452  0.0201  0.3582  0.0084
 4513SOL     OW17817   3.760   4.109   3.316  0.7382 -0.1267 -0.5923
 4513SOL    HW217818   3.786   4.198   3.336  1.0272 -0.5886  1.2479
 4513SOL    HW317819   3.834   4.055   3.346 -0.3739 -1.1255  0.4661
 4513SOL    MW417820   3.774   4.113   3.323  0.6296 -0.3194 -0.2099
 4514SOL     OW17821   4.675   1.794   0.796 -0.1284  0.0482  0.2281
 4514SOL    HW217822   4.730   1.722   0.764 -0.8307  0.6572 -2.6758
 4514SOL    HW317823   4.588   1.756   0.805 -0.4890  0.4590 -1.2586
 4514SOL    MW417824   4.671   1.779   0.793 -0.2686  0.1828 -0.3512
 4515SOL     OW17825   4.415   2.115   1.616 -0.1843 -0.1189  0.0315
 4515SOL    HW217826   4.396   2.021   1.622 -1.3314 -0.0081 -1.2608
 4515SOL    HW317827   4.332   2.157   1.638  0.4107  0.6239  0.9348
 4515SOL    MW417828   4.401   2.108   1.620 -0.2572 -0.0063 -0.0198
 4516SOL     OW17829   3.551   6.384   2.744  0.3417 -0.4292 -0.2344
 4516SOL    HW217830   3.620   6.432   2.788 -1.4473  0.1263  2.2089
 4516SOL    HW317831   3.596   6.325   2.684  2.8924 -0.0786  1.2228
 4516SOL    MW417832   3.566   6.382   2.742  0.4422 -0.3097  0.2802
 4517SOL     OW17833   2.561   4.647   0.466 -0.0258  0.2727 -0.6528
 4517SOL    HW217834   2.501   4.641   0.392  0.6695 -2.6255 -1.1049
 4517SOL    HW317835   2.648   4.643   0.427  0.4005  0.8040  0.2119
 4517SOL    MW417836   2.565   4.646   0.451  0.1222 -0.0396 -0.5983
 4518SOL     OW17837   4.679   5.648   4.962 -0.2160  0.5471 -0.1019
 4518SOL    HW217838   4.656   5.605   4.879 -0.8413 -0.9140  0.7987
 4518SOL    HW317839   4.759   5.604   4.990 -0.8897 -0.1066  0.8609
 4518SOL    MW417840   4.687   5.637   4.955 -0.3874  0.2681  0.1440
 4519SOL     OW17841   0.663   2.287   3.067  0.4619 -0.0741 -0.1223
 4519SOL    HW217842   0.663   2.292   3.163 -1.5601  0.0737 -0.0693
 4519SOL    HW317843   0.711   2.206   3.047  2.7307  0.9498  0.8607
 4519SOL    MW417844   0.669   2.277   3.077  0.4945  0.0805  0.0144
 4520SOL     OW17845   0.038   6.121   0.311 -0.2021 -0.1843 -0.0471
 4520SOL    HW217846   0.110   6.162   0.359  0.3549  0.4086 -1.3355
 4520SOL    HW317847  -0.035   6.122   0.372  0.9985 -1.2970  1.5030
 4520SOL    MW417848   0.038   6.127   0.325  0.0298 -0.2529 -0.0125
 4521SOL     OW17849   3.034   4.054   4.728  0.1807 -0.1462  0.0091
 4521SOL    HW217850   3.044   4.017   4.816 -1.5731 -0.7136  0.0044
 4521SOL    HW317851   3.031   3.977   4.670 -1.5662  0.0372 -0.2029
 4521SOL    MW417852   3.035   4.039   4.732 -0.2812 -0.1969 -0.0195
 4522SOL     OW17853   2.549   1.521   6.290 -0.3081 -0.3803 -0.4997
 4522SOL    HW217854   2.494   1.532   6.212  1.0025 -0.4377 -1.4563
 4522SOL    HW317855   2.541   1.428   6.311 -0.3003 -0.4609 -0.8438
 4522SOL    MW417856   2.540   1.510   6.282 -0.1342 -0.3985 -0.6713
 4523SOL     OW17857   3.658   5.444   2.820 -0.0158  0.2413  0.5380
 4523SOL    HW217858   3.625   5.533   2.835  1.6081  1.2054 -1.1932
 4523SOL    HW317859   3.747   5.456   2.787  0.3053 -2.0514  0.3803
 4523SOL    MW417860   3.665   5.457   2.817  0.2408  0.0660  0.2887
 4524SOL     OW17861   6.081   1.611   0.883 -0.2763  0.1402 -0.6694
 4524SOL    HW217862   6.007   1.590   0.825 -0.1681 -2.5362  0.0295
 4524SOL    HW317863   6.130   1.529   0.889  1.6976  1.3386  0.4111
 4524SOL    MW417864   6.078   1.597   0.876 -0.0016 -0.0548 -0.4347
 4525SOL     OW17865   2.979   2.086   4.093 -0.0937  0.1180 -0.1230
 4525SOL    HW217866   3.049   2.037   4.049  0.6575  0.7770  0.3061
 4525SOL    HW317867   3.023   2.131   4.165 -0.5735  2.0644 -0.9735
 4525SOL    MW417868   2.994   2.086   4.096 -0.0579  0.4617 -0.1786
 4526SOL     OW17869   4.297   6.020   3.163  0.2169 -0.1193  0.1363
 4526SOL    HW217870   4.334   6.100   3.201  1.1516 -0.2733 -0.4210
 4526SOL    HW317871   4.235   5.989   3.229 -1.3248  1.8845 -0.2889
 4526SOL    MW417872   4.294   6.026   3.177  0.1368  0.1248  0.0067
 4527SOL     OW17873   3.559   4.278   4.405 -0.0620  0.1492 -0.3932
 4527SOL    HW217874   3.496   4.331   4.356 -1.1444  0.9913  1.7924
 4527SOL    HW317875   3.621   4.248   4.339 -2.0303  0.3199 -2.4444
 4527SOL    MW417876   3.559   4.281   4.390 -0.4645  0.2828 -0.3755
 4528SOL     OW17877   2.114   1.552   5.676  0.0229  0.1086  0.0749
 4528SOL    HW217878   2.132   1.458   5.683  0.9633  0.3842  1.6814
 4528SOL    HW317879   2.201   1.592   5.667 -0.3637  0.8582 -0.4008
 4528SOL    MW417880   2.128   1.545   5.676  0.0960  0.2439  0.2240
 4529SOL     OW17881   5.562   4.841   1.202  0.3123  0.0721 -0.2207
 4529SOL    HW217882   5.553   4.935   1.186 -0.4384 -0.3065 -2.3229
 4529SOL    HW317883   5.639   4.815   1.151  1.6975 -0.1866  1.8642
 4529SOL    MW417884   5.571   4.850   1.193  0.3960 -0.0119 -0.2230
 4530SOL     OW17885   5.131   1.682   2.121 -0.1102  0.2673  0.2327
 4530SOL    HW217886   5.058   1.643   2.074  0.4326 -0.3513 -0.1165
 4530SOL    HW317887   5.134   1.773   2.091 -1.5656  0.6970  1.2725
 4530SOL    MW417888   5.122   1.689   2.111 -0.2306  0.2424  0.3238
 4531SOL     OW17889   4.572   6.047   1.774 -0.2601 -0.2543  0.2073
 4531SOL    HW217890   4.617   6.063   1.691 -1.3741  1.9873 -0.0074
 4531SOL    HW317891   4.499   6.108   1.775 -0.1791 -0.0782  2.9281
 4531SOL    MW417892   4.569   6.057   1.763 -0.3964  0.0647  0.5380
 4532SOL     OW17893   0.275   5.144   2.848  0.8198 -0.2247  0.0070
 4532SOL    HW217894   0.316   5.059   2.836 -1.1311 -1.2171  0.0746
 4532SOL    HW317895   0.200   5.127   2.905  0.7485  1.6563  0.5442
 4532SOL    MW417896   0.271   5.131   2.854  0.5530 -0.1074  0.0868
 4533SOL     OW17897   0.143   3.920   1.254 -0.3259  0.6799  0.2402
 4533SOL    HW217898   0.115   3.968   1.176 -1.5056  0.6911  0.6494
 4533SOL    HW317899   0.239   3.923   1.251 -0.3334 -0.0393 -1.6355
 4533SOL    MW417900   0.152   3.927   1.243 -0.4825  0.5865  0.0467
 4534SOL     OW17901   5.626   4.826   2.200  0.7832  0.0343 -0.3394
 4534SOL    HW217902   5.607   4.777   2.280 -0.9064 -0.6022 -1.0866
 4534SOL    HW317903   5.571   4.904   2.206  0.2183 -0.2973 -1.1387
 4534SOL    MW417904   5.616   4.830   2.211  0.4857 -0.0935 -0.5435
 4535SOL     OW17905   3.975   2.597   5.641  0.3859  0.3698  0.0813
 4535SOL    HW217906   4.000   2.646   5.720 -0.4808 -1.0204  1.2592
 4535SOL    HW317907   3.881   2.614   5.632  0.0594 -1.0893  0.5459
 4535SOL    MW417908   3.966   2.606   5.650  0.2285 -0.0061  0.2980
 4536SOL     OW17909   4.534   3.765   1.524 -0.3702  0.3028  0.4558
 4536SOL    HW217910   4.582   3.692   1.483  1.2035  0.6644  1.5642
 4536SOL    HW317911   4.562   3.842   1.476 -0.3115  0.4440  0.7169
 4536SOL    MW417912   4.544   3.765   1.512 -0.1548  0.3691  0.6365
 4537SOL     OW17913   6.049   3.199   0.041  0.0541  0.0316 -0.0064
 4537SOL    HW217914   6.041   3.109   0.071  1.1938  0.0398  0.4002
 4537SOL    HW317915   5.971   3.243   0.075 -1.3433 -1.1328 -1.5749
 4537SOL    MW417916   6.038   3.193   0.050  0.0201 -0.1210 -0.1597
 4538SOL     OW17917   4.405   5.027   3.649  0.3384 -0.5182  0.2998
 4538SOL    HW217918   4.465   5.092   3.613 -1.2787  0.1766 -1.3302
 4538SOL    HW317919   4.403   5.045   3.743 -0.5878  2.3208 -0.1719
 4538SOL    MW417920   4.412   5.038   3.657  0.0028 -0.0519  0.0225
 4539SOL     OW17921   0.124   4.372   3.223 -0.2496 -0.2551 -0.2983
 4539SOL    HW217922   0.189   4.317   3.181 -0.2044 -0.5800  0.1885
 4539SOL    HW317923   0.067   4.401   3.152  0.1166 -0.3938 -0.6494
 4539SOL    MW417924   0.125   4.369   3.208 -0.1953 -0.3163 -0.2804
 4540SOL     OW17925   6.152   3.427   2.393  0.4831 -0.5785 -0.0558
 4540SOL    HW217926   6.102   3.499   2.431 -0.3089 -0.9085 -0.4532
 4540SOL    HW317927   6.152   3.360   2.462 -0.2623 -0.8658 -0.3337
 4540SOL    MW417928   6.145   3.428   2.407  0.2803 -0.6599 -0.1449
 4541SOL     OW17929   1.917   5.903   3.416  0.4341  0.4069  0.3102
 4541SOL    HW217930   1.835   5.854   3.417 -0.1830  1.4365  0.6773
 4541SOL    HW317931   1.894   5.988   3.379  1.7535  0.0089 -1.6239
 4541SOL    MW417932   1.903   5.907   3.411  0.5268  0.4903  0.1035
 4542SOL     OW17933   3.935   1.647   2.997  0.3680 -0.5312  0.5129
 4542SOL    HW217934   3.904   1.565   2.957 -2.8871  0.2505  1.1594
 4542SOL    HW317935   3.887   1.654   3.079  2.0791  1.0973  1.4654
 4542SOL    MW417936   3.925   1.637   3.002  0.1643 -0.2132  0.7239
 4543SOL     OW17937   5.155   5.744   6.368 -0.6869 -0.2674  0.0439
 4543SOL    HW217938   5.123   5.700   6.447  0.0181  0.1262  0.5669
 4543SOL    HW317939   5.178   5.832   6.398  1.8417 -0.8298 -0.0591
 4543SOL    MW417940   5.153   5.750   6.383 -0.2602 -0.2897  0.0993
 4544SOL     OW17941   0.522   2.368   0.396 -0.3327 -0.3176  0.8243
 4544SOL    HW217942   0.566   2.422   0.330 -2.0686  0.5318  0.3188
 4544SOL    HW317943   0.590   2.307   0.425  0.3207 -1.2783 -2.3306
 4544SOL    MW417944   0.537   2.367   0.391 -0.4756 -0.3322  0.3413
 4545SOL     OW17945   1.393   5.403   6.333  0.5129 -0.8162  0.0930
 4545SOL    HW217946   1.430   5.461   6.399 -1.2105 -1.6547  1.9248
 4545SOL    HW317947   1.385   5.457   6.255  1.5820  0.5578  0.8816
 4545SOL    MW417948   1.397   5.417   6.332  0.4266 -0.7455  0.4388
 4546SOL     OW17949   1.544   4.288   1.560 -0.5596  0.3789  0.5833
 4546SOL    HW217950   1.485   4.347   1.514 -0.4720 -0.2536 -0.3738
 4546SOL    HW317951   1.538   4.314   1.652 -0.9620  1.4802  0.2609
 4546SOL    MW417952   1.536   4.299   1.566 -0.6011  0.4407  0.4145
 4547SOL     OW17953   5.482   0.212   3.416  0.0165 -0.5027  0.0399
 4547SOL    HW217954   5.552   0.267   3.450 -0.2594 -0.9014  1.3298
 4547SOL    HW317955   5.401   0.255   3.444 -0.2704 -0.0970 -1.3480
 4547SOL    MW417956   5.480   0.225   3.424 -0.0578 -0.5018  0.0269
 4548SOL     OW17957   5.491   4.023   3.530  0.1667  0.1407 -0.7163
 4548SOL    HW217958   5.554   3.963   3.570  0.6206  0.6512 -0.6506
 4548SOL    HW317959   5.543   4.073   3.467  0.3696  2.1975  0.9680
 4548SOL    MW417960   5.506   4.022   3.527  0.2534  0.4794 -0.4854
 4549SOL     OW17961   5.542   4.094   2.457  0.7437 -0.3128 -0.0284
 4549SOL    HW217962   5.530   4.000   2.464  2.0494 -0.5447 -0.7474
 4549SOL    HW317963   5.634   4.109   2.477  0.8693  0.6574 -1.2172
 4549SOL    MW417964   5.552   4.084   2.461  0.9325 -0.2154 -0.2801
 4550SOL     OW17965   5.261   0.035   1.025 -0.5868  0.1740  0.6444
 4550SOL    HW217966   5.212   0.114   1.047 -0.1965 -0.0344  2.3553
 4550SOL    HW317967   5.336   0.035   1.085 -1.5854 -2.4449  2.0516
 4550SOL    MW417968   5.265   0.046   1.036 -0.6670 -0.1990  1.0558
 4551SOL     OW17969   1.753   2.226   4.168 -0.0788 -0.0031  0.0601
 4551SOL    HW217970   1.798   2.214   4.085  0.6017  0.3135  0.3661
 4551SOL    HW317971   1.694   2.301   4.154 -0.3483 -0.2797 -0.2826
 4551SOL    MW417972   1.751   2.235   4.156 -0.0245  0.0022  0.0553
 4552SOL     OW17973   4.060   4.427   1.890 -0.2383 -0.5543 -0.4672
 4552SOL    HW217974   3.989   4.481   1.855 -0.0289 -0.8911 -1.4720
 4552SOL    HW317975   4.121   4.489   1.929 -0.4236 -0.1313 -0.8395
 4552SOL    MW417976   4.059   4.442   1.890 -0.2351 -0.5429 -0.6489
 4553SOL     OW17977   3.031   0.349   2.610  0.0689 -0.1530  0.3013
 4553SOL    HW217978   3.116   0.313   2.583 -0.0796  0.0332 -0.4355
 4553SOL    HW317979   2.967   0.284   2.583  0.0304 -0.7112  1.6565
 4553SOL    MW417980   3.034   0.336   2.603  0.0442 -0.2021  0.3829
 4554SOL     OW17981   5.517   1.927   5.949  0.1153 -0.2498  0.3496
 4554SOL    HW217982   5.578   1.928   5.875 -0.2544 -1.0415  0.0217
 4554SOL    HW317983   5.431   1.914   5.909 -0.4423  2.0613  0.7091
 4554SOL    MW417984   5.514   1.925   5.934 -0.0070 -0.0493  0.3538
 4555SOL     OW17985   0.294   4.028   3.452 -0.1722  0.0507  0.0333
 4555SOL    HW217986   0.208   4.070   3.450 -1.1825 -1.8816 -0.0107
 4555SOL    HW317987   0.349   4.088   3.502 -1.8227  0.8569  0.9820
 4555SOL    MW417988   0.290   4.041   3.459 -0.5233 -0.0979  0.1526
 4556SOL     OW17989   2.695   6.339   4.727  0.7393  0.3302  0.1305
 4556SOL    HW217990   2.779   6.385   4.715  0.7771  0.3251  0.3850
 4556SOL    HW317991   2.657   6.378   4.805  1.0445 -0.4904  0.6960
 4556SOL    MW417992   2.701   6.351   4.736  0.7846  0.2212  0.2387
 4557SOL     OW17993   3.309   5.447   5.445 -0.1415 -0.3330  0.9401
 4557SOL    HW217994   3.310   5.396   5.364 -0.0620  0.2731  0.5561
 4557SOL    HW317995   3.291   5.537   5.417 -0.6212 -0.1983  1.6397
 4557SOL    MW417996   3.306   5.452   5.431 -0.1943 -0.2353  0.9817
 4558SOL     OW17997   1.960   3.263   0.043 -0.2958 -0.3746 -0.1461
 4558SOL    HW217998   1.956   3.170   0.067  0.8913 -0.3362  0.2977
 4558SOL    HW317999   1.968   3.308   0.127  0.5989  0.0075 -0.4185
 4558SOL    MW418000   1.961   3.257   0.058 -0.0212 -0.3191 -0.1235
 4559SOL     OW18001   4.651   6.022   5.852  0.3631 -0.3011  0.4223
 4559SOL    HW218002   4.582   5.992   5.792 -0.0214  0.6560  0.3586
 4559SOL    HW318003   4.607   6.082   5.912  0.8154 -0.9915  1.4760
 4559SOL    MW418004   4.636   6.026   5.852  0.3721 -0.2659  0.5529
 4560SOL     OW18005   4.931   0.990   3.258  0.1323 -0.3166  0.4251
 4560SOL    HW218006   4.851   0.987   3.311  0.1912 -0.5092  0.4993
 4560SOL    HW318007   4.902   0.961   3.171 -0.1032  0.6163  0.1800
 4560SOL    MW418008   4.916   0.986   3.253  0.1090 -0.2189  0.4026
 4561SOL     OW18009   3.409   3.643   4.026 -0.7142  0.0663  0.0049
 4561SOL    HW218010   3.402   3.667   4.118  0.5707 -1.9437  0.7090
 4561SOL    HW318011   3.330   3.592   4.008  0.5061 -2.3816  1.0468
 4561SOL    MW418012   3.398   3.639   4.036 -0.3836 -0.5219  0.2352
 4562SOL     OW18013   0.191   6.094   0.746 -0.3300 -0.1602  0.0745
 4562SOL    HW218014   0.283   6.073   0.733  0.4231  0.5632  3.4409
 4562SOL    HW318015   0.152   6.013   0.780 -0.1150  0.4322  1.8220
 4562SOL    MW418016   0.198   6.080   0.749 -0.2023  0.0134  0.7492
 4563SOL     OW18017   1.277   1.884   3.375 -0.1872  0.5211  0.4101
 4563SOL    HW218018   1.335   1.949   3.336  0.6646 -0.3231  0.2234
 4563SOL    HW318019   1.316   1.865   3.460  1.3314 -1.9009 -0.7179
 4563SOL    MW418020   1.290   1.890   3.381  0.1255  0.0902  0.2366
 4564SOL     OW18021   4.709   4.633   5.537 -0.2147 -0.2666  0.3247
 4564SOL    HW218022   4.684   4.712   5.586  0.1103  0.5634 -0.8017
 4564SOL    HW318023   4.682   4.561   5.593  2.0608  0.5990  2.7171
 4564SOL    MW418024   4.702   4.634   5.550  0.1284 -0.0429  0.4918
 4565SOL     OW18025   3.886   0.166   5.449  0.3052 -0.4107 -0.1616
 4565SOL    HW218026   3.809   0.210   5.411 -0.3272  0.3381  1.8467
 4565SOL    HW318027   3.958   0.192   5.393  0.0531  3.6423  1.0203
 4565SOL    MW418028   3.885   0.175   5.437  0.1885  0.2229  0.2593
 4566SOL     OW18029   4.376   1.202   2.871 -0.7989 -0.3534 -0.1925
 4566SOL    HW218030   4.409   1.276   2.820  0.4578 -1.2072 -0.6810
 4566SOL    HW318031   4.362   1.238   2.959  1.1148  0.2020 -0.0513
 4566SOL    MW418032   4.379   1.216   2.876 -0.3806 -0.3928 -0.2383
 4567SOL     OW18033   1.624   5.317   3.096 -0.0764 -0.2016  0.8254
 4567SOL    HW218034   1.689   5.278   3.036 -0.5913 -1.3070  0.9631
 4567SOL    HW318035   1.677   5.359   3.164  0.5131  0.7085 -0.1486
 4567SOL    MW418036   1.640   5.318   3.097 -0.0666 -0.2274  0.7151
 4568SOL     OW18037   5.183   5.795   1.525 -0.2951 -0.0937  0.0709
 4568SOL    HW218038   5.116   5.842   1.574  0.5915 -0.5932  1.8379
 4568SOL    HW318039   5.209   5.857   1.456 -0.6524  1.1738  1.0304
 4568SOL    MW418040   5.178   5.809   1.522 -0.2253  0.0077  0.4306
 4569SOL     OW18041   2.866   1.335   0.698  0.1737 -0.1643  0.3785
 4569SOL    HW218042   2.858   1.326   0.793 -0.8316 -0.6584  0.2571
 4569SOL    HW318043   2.918   1.260   0.670 -0.8404 -0.8837  0.3735
 4569SOL    MW418044   2.872   1.324   0.707 -0.0928 -0.3244  0.3618
 4570SOL     OW18045   3.975   4.695   0.169  0.2644  0.0712 -0.2055
 4570SOL    HW218046   3.948   4.620   0.221 -1.1639  0.2403 -0.6554
 4570SOL    HW318047   4.009   4.758   0.233  1.4338 -0.9076  0.1794
 4570SOL    MW418048   3.976   4.693   0.184  0.2302 -0.0356 -0.2141
 4571SOL     OW18049   1.039   0.048   1.093 -0.2653  0.5646 -0.3598
 4571SOL    HW218050   1.113   0.000   1.056 -0.0500  0.8393 -0.2897
 4571SOL    HW318051   1.034   0.128   1.041 -0.1714  0.7983 -0.0120
 4571SOL    MW418052   1.048   0.052   1.081 -0.2245  0.6317 -0.3047
 4572SOL     OW18053   4.893   4.870   5.073  0.2592 -0.3466 -0.5338
 4572SOL    HW218054   4.950   4.862   4.996 -1.0216  0.4384 -1.6207
 4572SOL    HW318055   4.807   4.893   5.037 -0.1967  0.8908  1.1879
 4572SOL    MW418056   4.889   4.872   5.058  0.0300 -0.0797 -0.4500
 4573SOL     OW18057   0.721   2.136   5.566  0.3169  0.3180 -0.0009
 4573SOL    HW218058   0.713   2.042   5.579  0.8982 -0.1209 -2.3240
 4573SOL    HW318059   0.788   2.163   5.628  0.9950 -1.0219 -0.1112
 4573SOL    MW418060   0.728   2.127   5.576  0.4831  0.0833 -0.3220
 4574SOL     OW18061   2.851   1.744   3.225  0.2268 -0.0553  1.0504
 4574SOL    HW218062   2.915   1.719   3.159 -0.9413  1.4449 -0.7407
 4574SOL    HW318063   2.769   1.756   3.177 -1.2077 -0.9222  3.1024
 4574SOL    MW418064   2.848   1.742   3.210 -0.1166  0.0282  1.0849
 4575SOL     OW18065   5.287   6.140   1.871  0.2296 -0.2156  0.0835
 4575SOL    HW218066   5.242   6.220   1.899  0.8414 -0.4283  1.7379
 4575SOL    HW318067   5.224   6.070   1.887 -0.2154 -0.1173 -1.1380
 4575SOL    MW418068   5.273   6.141   1.877  0.2516 -0.2307  0.1406
 4576SOL     OW18069   0.076   3.957   4.063 -0.3490  0.7244  0.3317
 4576SOL    HW218070   0.050   3.922   3.978 -1.5778  2.0320  0.1368
 4576SOL    HW318071   0.076   4.052   4.052 -1.6978  0.9808  2.1023
 4576SOL    MW418072   0.073   3.965   4.050 -0.6891  0.9307  0.5396
 4577SOL     OW18073   4.000   6.304   5.328 -0.0340  0.6153 -0.5238
 4577SOL    HW218074   4.060   6.242   5.287  1.5595  1.4008  0.5014
 4577SOL    HW318075   3.972   6.361   5.256 -0.1196 -0.1950 -1.1472
 4577SOL    MW418076   4.004   6.303   5.313  0.1650  0.6120 -0.4708
 4578SOL     OW18077   5.160   1.259   0.143  0.2411  0.4053  0.1243
 4578SOL    HW218078   5.163   1.355   0.147  0.3168  0.6051 -2.7934
 4578SOL    HW318079   5.244   1.234   0.105 -0.4348 -0.6796 -0.7162
 4578SOL    MW418080   5.172   1.269   0.139  0.1619  0.2885 -0.3715
 4579SOL     OW18081   1.708   0.567   2.685 -0.2667 -0.4674  0.1142
 4579SOL    HW218082   1.721   0.652   2.725  1.9847  0.1684 -1.7032
 4579SOL    HW318083   1.731   0.504   2.753  0.0375  0.4509  0.8731
 4579SOL    MW418084   1.713   0.570   2.699  0.0705 -0.2624 -0.0255
 4580SOL     OW18085   1.760   4.029   2.305 -0.5303  0.0575  0.1647
 4580SOL    HW218086   1.816   3.971   2.253 -1.5306 -0.1600 -0.6983
 4580SOL    HW318087   1.822   4.089   2.348  0.4198 -0.7521 -0.0330
 4580SOL    MW418088   1.776   4.030   2.304 -0.5369 -0.0780  0.0248
 4581SOL     OW18089   0.638   3.200   2.159 -0.0725 -0.2402 -0.4672
 4581SOL    HW218090   0.729   3.192   2.187 -0.3048 -1.6908 -0.0561
 4581SOL    HW318091   0.641   3.192   2.064  0.2547  0.0028 -0.4766
 4581SOL    MW418092   0.650   3.198   2.150 -0.0600 -0.3995 -0.4142
 4582SOL     OW18093   0.225   4.297   0.974 -0.2514  0.4631 -0.0931
 4582SOL    HW218094   0.241   4.298   1.068  0.1442 -0.2647 -0.1464
 4582SOL    HW318095   0.247   4.386   0.945 -2.6958  1.4446  0.8515
 4582SOL    MW418096   0.230   4.309   0.982 -0.5217  0.4966  0.0245
 4583SOL     OW18097   5.090   2.978   2.356 -0.0295  0.3113 -0.2136
 4583SOL    HW218098   5.021   2.956   2.418 -0.0314  1.0765  0.0723
 4583SOL    HW318099   5.088   2.908   2.291 -1.2725  0.4894 -0.3786
 4583SOL    MW418100   5.081   2.966   2.356 -0.1937  0.4358 -0.1976
 4584SOL     OW18101   0.957   5.754   6.066  0.2250  0.7524  0.0826
 4584SOL    HW218102   1.043   5.748   6.107 -0.0863  0.5314  0.7240
 4584SOL    HW318103   0.974   5.747   5.972  0.6542 -2.9456  0.2665
 4584SOL    MW418104   0.970   5.752   6.059  0.2405  0.2354  0.1915
 4585SOL     OW18105   1.507   0.601   1.695 -0.2813 -0.0085 -0.1090
 4585SOL    HW218106   1.471   0.673   1.642 -0.3424 -0.3008 -0.4694
 4585SOL    HW318107   1.454   0.602   1.774 -0.2195  0.4058 -0.0700
 4585SOL    MW418108   1.495   0.611   1.698 -0.2812  0.0076 -0.1514
 4586SOL     OW18109   6.064   3.092   3.260  0.5203  0.3933  0.4725
 4586SOL    HW218110   5.972   3.118   3.266  0.6166  0.4103  3.5175
 4586SOL    HW318111   6.111   3.174   3.245  0.1709  0.7402  1.2005
 4586SOL    MW418112   6.058   3.106   3.259  0.4869  0.4413  0.9703
 4587SOL     OW18113   3.571   5.173   2.829 -0.3049  0.6645  0.5753
 4587SOL    HW218114   3.643   5.110   2.824 -0.0115  1.0402 -0.0536
 4587SOL    HW318115   3.614   5.257   2.849 -0.4952  1.0054 -0.4124
 4587SOL    MW418116   3.587   5.176   2.831 -0.2913  0.7590  0.3620
 4588SOL     OW18117   5.791   1.614   6.408  0.1126 -0.0519 -0.3712
 4588SOL    HW218118   5.877   1.652   6.424  1.1654 -2.0321 -0.9210
 4588SOL    HW318119   5.754   1.602   6.495 -0.1317  1.8753 -0.1771
 4588SOL    MW418120   5.798   1.617   6.422  0.2193 -0.0589 -0.4181
 4589SOL     OW18121   0.395   2.244   4.369  0.5812 -0.1273  0.4977
 4589SOL    HW218122   0.381   2.306   4.440 -0.6644  0.9254 -0.6106
 4589SOL    HW318123   0.316   2.189   4.369  0.3115  0.2468 -0.4089
 4589SOL    MW418124   0.383   2.245   4.378  0.3813  0.0610  0.2319
 4590SOL     OW18125   0.190   2.810   2.423  0.1349  0.1991 -0.0642
 4590SOL    HW218126   0.172   2.724   2.385  1.5847  0.0160 -0.4066
 4590SOL    HW318127   0.218   2.792   2.513  1.2883  0.2159 -0.4035
 4590SOL    MW418128   0.191   2.797   2.430  0.4783  0.1772 -0.1542
 4591SOL     OW18129   2.162   4.869   3.344 -0.2785 -0.1652  0.0575
 4591SOL    HW218130   2.198   4.926   3.412  1.6794 -0.6870 -0.4575
 4591SOL    HW318131   2.073   4.849   3.373  0.2556  0.1902  2.1040
 4591SOL    MW418132   2.155   4.874   3.356  0.0503 -0.1871  0.2596
 4592SOL     OW18133   3.449   0.588   4.108 -0.0512  0.3022  0.0881
 4592SOL    HW218134   3.436   0.673   4.065  0.6263 -0.6532 -2.1465
 4592SOL    HW318135   3.544   0.573   4.102 -0.0331 -0.1797  1.3799
 4592SOL    MW418136   3.460   0.598   4.101  0.0406  0.1126 -0.0363
 4593SOL     OW18137   4.663   2.241   0.719  0.6517 -0.1499  0.4413
 4593SOL    HW218138   4.732   2.284   0.669  1.1782 -0.4203  0.9190
 4593SOL    HW318139   4.592   2.306   0.724  0.3385 -0.3350 -1.1536
 4593SOL    MW418140   4.663   2.255   0.713  0.6799 -0.2100  0.2939
 4594SOL     OW18141   3.951   4.811   3.228  0.4353 -0.5772 -0.4752
 4594SOL    HW218142   3.866   4.850   3.250  0.1672 -0.6653 -1.3048
 4594SOL    HW318143   4.000   4.811   3.310  0.2351  0.9934 -0.3111
 4594SOL    MW418144   3.946   4.816   3.241  0.3735 -0.3816 -0.5630
 4595SOL     OW18145   3.189   5.221   4.934  0.0450  0.0600  0.0306
 4595SOL    HW218146   3.179   5.263   4.848  0.5364  3.2398  1.3820
 4595SOL    HW318147   3.198   5.128   4.914 -1.1335  0.5136 -3.2524
 4595SOL    MW418148   3.189   5.215   4.920 -0.0457  0.5394 -0.2242
 4596SOL     OW18149   1.323   4.392   2.338  0.2943  0.0840  0.2198
 4596SOL    HW218150   1.394   4.331   2.317  0.6301  0.6879 -0.4540
 4596SOL    HW318151   1.303   4.374   2.430 -0.4385 -1.8581 -0.2728
 4596SOL    MW418152   1.330   4.382   2.348  0.2419 -0.0925  0.0659
 4597SOL     OW18153   2.048   2.412   4.865  0.0658  0.4354 -0.1687
 4597SOL    HW218154   2.059   2.405   4.960  0.9602 -1.9363 -0.3986
 4597SOL    HW318155   2.126   2.459   4.835  0.8953 -0.7620  0.0614
 4597SOL    MW418156   2.060   2.417   4.874  0.2932 -0.0355 -0.1687
 4598SOL     OW18157   1.419   1.607   0.764  0.5626  0.0052  0.0568
 4598SOL    HW218158   1.425   1.694   0.802 -0.3458 -0.2304  0.7749
 4598SOL    HW318159   1.331   1.577   0.786  1.4407 -1.7886  1.3674
 4598SOL    MW418160   1.408   1.614   0.772  0.5586 -0.2626  0.3245
 4599SOL     OW18161   2.811   6.016   0.496 -0.6768  0.7545 -0.1083
 4599SOL    HW218162   2.752   5.960   0.445 -0.3725 -0.1254  0.4755
 4599SOL    HW318163   2.760   6.041   0.573  0.4111 -2.0939  1.7224
 4599SOL    MW418164   2.797   6.012   0.500 -0.4931  0.2626  0.2103
 4600SOL     OW18165   6.019   0.481   3.571 -0.0138  0.6489 -0.1671
 4600SOL    HW218166   6.098   0.514   3.527 -1.0749  2.4752 -0.7990
 4600SOL    HW318167   5.997   0.549   3.635 -1.3893  0.4618 -0.4086
 4600SOL    MW418168   6.027   0.495   3.573 -0.3353  0.8652 -0.2823
 4601SOL     OW18169   0.181   3.743   2.040 -0.1878  0.3391 -0.4977
 4601SOL    HW218170   0.247   3.812   2.027 -1.9264  2.2108  0.2318
 4601SOL    HW318171   0.208   3.698   2.120 -0.3037  1.7070  0.3212
 4601SOL    MW418172   0.194   3.746   2.049 -0.4325  0.7665 -0.2934
 4602SOL     OW18173   3.129   2.554   2.142 -0.5900  0.0973  0.1363
 4602SOL    HW218174   3.035   2.539   2.130 -0.1318 -1.2050 -2.6272
 4602SOL    HW318175   3.164   2.560   2.053  2.0317 -0.0045  1.0750
 4602SOL    MW418176   3.121   2.553   2.129 -0.1836 -0.0879 -0.1044
 4603SOL     OW18177   3.355   3.067   4.383 -0.0350  0.6986 -0.1551
 4603SOL    HW218178   3.336   3.137   4.445  0.5980  4.1218 -3.4411
 4603SOL    HW318179   3.271   3.052   4.338 -0.0749 -0.4496  0.2721
 4603SOL    MW418180   3.341   3.074   4.385  0.0432  0.9987 -0.5323
 4604SOL     OW18181   2.797   5.352   4.327 -0.3308  0.6709  0.4359
 4604SOL    HW218182   2.774   5.267   4.290  2.2036  0.3457 -0.5889
 4604SOL    HW318183   2.859   5.390   4.264  1.2185  1.7699  2.4989
 4604SOL    MW418184   2.802   5.346   4.313  0.2080  0.7730  0.5728
 4605SOL     OW18185   4.568   5.229   3.539 -0.9074  0.5917 -0.2278
 4605SOL    HW218186   4.646   5.197   3.494 -0.9722 -1.0214  0.7157
 4605SOL    HW318187   4.601   5.285   3.609 -0.6914  1.0707 -0.7019
 4605SOL    MW418188   4.583   5.232   3.542 -0.8875  0.4421 -0.1659
 4606SOL     OW18189   5.894   5.575   3.898  0.0926 -0.1213 -0.0897
 4606SOL    HW218190   5.850   5.501   3.939 -0.7020 -0.0175 -0.7217
 4606SOL    HW318191   5.892   5.645   3.964  0.7643 -0.6233  0.4729
 4606SOL    MW418192   5.888   5.575   3.912  0.0764 -0.1738 -0.0988
 4607SOL     OW18193   5.755   2.819   6.284  0.6322  0.3322  0.1777
 4607SOL    HW218194   5.849   2.810   6.303  1.1840  2.6767 -1.0285
 4607SOL    HW318195   5.731   2.736   6.245  2.1662 -0.3917  0.6751
 4607SOL    MW418196   5.764   2.807   6.282  0.9074  0.5460  0.0842
 4608SOL     OW18197   1.810   5.384   4.208 -0.3654  0.4235  0.6511
 4608SOL    HW218198   1.721   5.369   4.241 -0.9394  2.6904  0.3106
 4608SOL    HW318199   1.817   5.327   4.132 -0.8573 -1.0931  1.6850
 4608SOL    MW418200   1.799   5.374   4.202 -0.5060  0.5225  0.7426
 4609SOL     OW18201   3.521   1.565   4.042 -0.1693 -0.0868  0.0743
 4609SOL    HW218202   3.520   1.476   4.008 -0.0799 -0.3170  0.6558
 4609SOL    HW318203   3.516   1.621   3.965  0.5932 -0.5879 -0.3463
 4609SOL    MW418204   3.520   1.560   4.028 -0.0569 -0.1833  0.0955
 4610SOL     OW18205   5.826   4.090   0.102  0.3143  0.5602  0.4688
 4610SOL    HW218206   5.774   4.131   0.171  2.6759  4.5602  0.1597
 4610SOL    HW318207   5.806   3.996   0.110 -3.0242  1.3052  3.4665
 4610SOL    MW418208   5.816   4.083   0.112  0.1854  1.1862  0.8235
 4611SOL     OW18209   0.879   3.520   1.362  0.1316 -0.8988 -0.0641
 4611SOL    HW218210   0.899   3.428   1.379  1.2445 -0.7887 -0.7173
 4611SOL    HW318211   0.931   3.568   1.426  1.3986 -0.6485 -1.2281
 4611SOL    MW418212   0.888   3.514   1.373  0.4456 -0.8512 -0.3038
 4612SOL     OW18213   0.446   0.529   2.149 -0.1876  0.5381  0.1165
 4612SOL    HW218214   0.377   0.527   2.084 -1.5045  0.5096  1.4491
 4612SOL    HW318215   0.521   0.488   2.107 -0.9347  0.6797 -1.4076
 4612SOL    MW418216   0.447   0.524   2.135 -0.4599  0.5530  0.0913
 4613SOL     OW18217   1.352   1.474   1.820 -0.2238  0.3098  0.0939
 4613SOL    HW218218   1.305   1.446   1.899 -1.2384  1.1894 -0.1870
 4613SOL    HW318219   1.293   1.451   1.748 -0.3587  1.6675 -0.2462
 4613SOL    MW418220   1.338   1.467   1.821 -0.3755  0.6050  0.0119
 4614SOL     OW18221   3.962   3.669   4.337 -0.2027  0.0477 -0.2365
 4614SOL    HW218222   3.947   3.579   4.366 -0.3959 -0.0715 -0.6856
 4614SOL    HW318223   4.003   3.660   4.251  2.0876  0.3777  0.7514
 4614SOL    MW418224   3.965   3.656   4.329  0.0740  0.0755 -0.1655
 4615SOL     OW18225   3.324   3.330   2.514  0.1084 -0.1848  0.2425
 4615SOL    HW218226   3.304   3.252   2.565  1.0618 -0.0243  0.8753
 4615SOL    HW318227   3.312   3.304   2.423  0.0393 -0.9450  0.4692
 4615SOL    MW418228   3.320   3.317   2.509  0.2250 -0.2639  0.3559
 4616SOL     OW18229   5.404   4.053   5.374  0.3390 -0.4656 -0.3753
 4616SOL    HW218230   5.346   4.122   5.343  0.2090 -0.1133  0.6294
 4616SOL    HW318231   5.461   4.035   5.299 -1.3988 -1.2123 -1.5583
 4616SOL    MW418232   5.404   4.060   5.360  0.0926 -0.5176 -0.3988
 4617SOL     OW18233   3.948   5.909   5.341 -0.2067  0.2259 -0.5321
 4617SOL    HW218234   3.994   5.932   5.421 -0.5350 -0.1076 -0.2444
 4617SOL    HW318235   3.873   5.969   5.339 -1.7538 -1.5671  0.8513
 4617SOL    MW418236   3.944   5.920   5.351 -0.4541 -0.0546 -0.3116
 4618SOL     OW18237   3.573   2.510   4.972 -0.0541  0.0069  0.0618
 4618SOL    HW218238   3.608   2.581   5.026 -1.9256  1.0044  0.0318
 4618SOL    HW318239   3.625   2.515   4.891  0.7032  0.4843  0.5610
 4618SOL    MW418240   3.585   2.520   4.968 -0.2011  0.2015  0.1237
 4619SOL     OW18241   3.423   3.315   4.042 -0.2333 -0.8991 -0.2939
 4619SOL    HW218242   3.374   3.365   4.107 -0.9213 -2.0043  0.0600
 4619SOL    HW318243   3.442   3.378   3.973 -1.4065 -0.2341 -0.0337
 4619SOL    MW418244   3.419   3.330   4.041 -0.4789 -0.9572 -0.2129
 4620SOL     OW18245   6.392   2.258   5.018  0.0847  0.5309  0.3295
 4620SOL    HW218246   6.439   2.205   4.954  1.8419  1.4341  0.7952
 4620SOL    HW318247   6.306   2.273   4.979  0.7598  0.2335 -1.3602
 4620SOL    MW418248   6.387   2.253   5.005  0.4056  0.6108  0.1680
 4621SOL     OW18249   0.178   2.742   6.252  1.0264  0.3808 -0.3142
 4621SOL    HW218250   0.117   2.729   6.324 -0.7134  1.9001 -1.4358
 4621SOL    HW318251   0.201   2.653   6.223 -0.8533 -0.2317 -0.0309
 4621SOL    MW418252   0.173   2.728   6.257  0.5489  0.5004 -0.4248
 4622SOL     OW18253   2.328   6.367   1.732  0.2129 -0.1390  0.1861
 4622SOL    HW218254   2.365   6.308   1.799  0.3779  0.2997  0.4898
 4622SOL    HW318255   2.277   6.310   1.675  1.0686 -0.7087 -0.0277
 4622SOL    MW418256   2.326   6.351   1.734  0.3475 -0.1563  0.1980
 4623SOL     OW18257   1.129   2.055   1.434  0.7130  0.2570  0.2829
 4623SOL    HW218258   1.078   2.123   1.479  1.0700  0.6404  0.1201
 4623SOL    HW318259   1.200   2.035   1.495 -0.6858 -1.6761  1.3698
 4623SOL    MW418260   1.132   2.062   1.448  0.5756  0.0526  0.4048
 4624SOL     OW18261   3.161   1.350   0.750 -0.2904  0.3400 -0.1379
 4624SOL    HW218262   3.243   1.327   0.793  1.2275  0.4959 -2.7471
 4624SOL    HW318263   3.177   1.436   0.711 -2.3194  1.1691  0.7587
 4624SOL    MW418264   3.174   1.358   0.750 -0.3578  0.4700 -0.3639
 4625SOL     OW18265   1.130   1.922   4.547 -0.0808  0.1274 -0.0063
 4625SOL    HW218266   1.103   1.899   4.458 -2.2215  0.9573  0.3615
 4625SOL    HW318267   1.208   1.976   4.535  0.2166 -0.5472 -1.3135
 4625SOL    MW418268   1.137   1.926   4.534 -0.3240  0.1479 -0.1302
 4626SOL     OW18269   5.464   4.967   3.308 -0.5598  0.4089 -0.1998
 4626SOL    HW218270   5.420   5.001   3.386 -0.0977  1.2998 -0.3063
 4626SOL    HW318271   5.535   4.912   3.341  0.8363  2.2740  0.1089
 4626SOL    MW418272   5.468   4.964   3.322 -0.3147  0.7725 -0.1732
 4627SOL     OW18273   1.420   5.712   0.329 -0.2827  0.4436  0.2241
 4627SOL    HW218274   1.325   5.725   0.336 -0.3894 -0.7171  1.2832
 4627SOL    HW318275   1.444   5.668   0.410  0.8838 -0.7859 -0.7391
 4627SOL    MW418276   1.410   5.708   0.340 -0.1429  0.1283  0.2367
 4628SOL     OW18277   3.905   3.510   2.958 -0.0177 -0.9860  0.1091
 4628SOL    HW218278   3.836   3.520   2.892 -1.1376 -1.9792  1.0969
 4628SOL    HW318279   3.985   3.541   2.914 -1.5089  3.2022 -0.1382
 4628SOL    MW418280   3.907   3.516   2.943 -0.3622 -0.5644  0.2068
 4629SOL     OW18281   5.618   5.685   0.988  0.1700  0.1486 -0.0248
 4629SOL    HW218282   5.670   5.613   0.953  0.3333  0.3378 -0.1755
 4629SOL    HW318283   5.643   5.761   0.936  2.1257  0.9615  1.9382
 4629SOL    MW418284   5.628   5.686   0.977  0.4496  0.2808  0.2143
 4630SOL     OW18285   0.738   5.190   5.633 -0.1120 -0.2643 -0.0090
 4630SOL    HW218286   0.696   5.105   5.648 -0.1757 -0.5664 -1.6861
 4630SOL    HW318287   0.684   5.252   5.680 -0.4294 -1.0755  0.7278
 4630SOL    MW418288   0.726   5.187   5.641 -0.1623 -0.4112 -0.1330
 4631SOL     OW18289   3.450   2.008   3.147 -0.5339 -0.9214 -0.4250
 4631SOL    HW218290   3.540   1.996   3.117 -0.5358 -1.1369 -0.3474
 4631SOL    HW318291   3.457   2.064   3.224 -0.5363 -0.2874 -0.8800
 4631SOL    MW418292   3.463   2.014   3.153 -0.5345 -0.8662 -0.4748
 4632SOL     OW18293   3.800   6.350   5.570 -0.3857 -0.0383 -0.3912
 4632SOL    HW218294   3.746   6.384   5.641 -0.4135 -0.2589 -0.3043
 4632SOL    HW318295   3.817   6.425   5.514 -2.2267 -0.3004 -1.3793
 4632SOL    MW418296   3.795   6.364   5.572 -0.6323 -0.1020 -0.5101
 4633SOL     OW18297   5.239   4.881   1.616  0.0154  0.0281  0.0746
 4633SOL    HW218298   5.161   4.925   1.652 -0.0623  0.0780 -0.1560
 4633SOL    HW318299   5.204   4.812   1.560  0.1271  0.6232 -0.7482
 4633SOL    MW418300   5.224   4.878   1.613  0.0199  0.1132 -0.0644
 4634SOL     OW18301   6.074   2.558   0.917  0.0861 -0.4020 -0.0406
 4634SOL    HW218302   5.996   2.605   0.948 -1.0292 -0.8475 -2.0165
 4634SOL    HW318303   6.101   2.606   0.839 -0.1573 -2.1005 -1.2209
 4634SOL    MW418304   6.067   2.571   0.911 -0.0931 -0.6849 -0.4570
 4635SOL     OW18305   1.378   5.754   2.904  0.3631 -0.3036 -0.4282
 4635SOL    HW218306   1.345   5.784   2.819 -2.1049  0.0290  0.5626
 4635SOL    HW318307   1.312   5.693   2.935  0.7014  0.3310  1.6808
 4635SOL    MW418308   1.365   5.750   2.897  0.0821 -0.1760 -0.0192
 4636SOL     OW18309   4.801   2.110   5.872 -0.0464 -0.1255 -0.1855
 4636SOL    HW218310   4.817   2.204   5.871  1.6439 -0.3830 -0.3544
 4636SOL    HW318311   4.762   2.091   5.787 -0.8946  0.4927  0.0597
 4636SOL    MW418312   4.798   2.120   5.861  0.0647 -0.0779 -0.1754
 4637SOL     OW18313   1.237   3.248   5.807 -0.3229 -0.6065 -0.5383
 4637SOL    HW218314   1.208   3.331   5.769  0.6229  0.0578  0.1527
 4637SOL    HW318315   1.270   3.197   5.732  2.2263  0.9720 -0.6091
 4637SOL    MW418316   1.237   3.252   5.792  0.1382 -0.3106 -0.4565
 4638SOL     OW18317   5.768   2.019   2.602 -0.0186  0.5360  0.4110
 4638SOL    HW218318   5.740   2.072   2.677  3.0233 -0.7892  2.7417
 4638SOL    HW318319   5.708   1.944   2.603 -1.9697  1.9970 -0.5531
 4638SOL    MW418320   5.756   2.016   2.612  0.1253  0.5539  0.5913
 4639SOL     OW18321   0.059   0.759   6.300 -0.0407  0.0007 -0.0296
 4639SOL    HW218322   0.090   0.754   6.210 -1.0211  1.0861 -0.4617
 4639SOL    HW318323   0.136   0.742   6.353  0.6829 -0.0598 -1.0747
 4639SOL    MW418324   0.073   0.756   6.295 -0.0746  0.1359 -0.2245
 4640SOL     OW18325   0.674   5.315   1.793 -0.1757 -0.2566 -0.3216
 4640SOL    HW218326   0.678   5.250   1.863  1.2989 -0.2400 -0.3531
 4640SOL    HW318327   0.595   5.366   1.811  0.9329  0.7170  2.2334
 4640SOL    MW418328   0.664   5.313   1.805  0.1651 -0.1259  0.0113
 4641SOL     OW18329   3.821   0.316   1.295  0.4316  0.5028 -0.1869
 4641SOL    HW218330   3.911   0.301   1.268  0.2975  1.6960 -1.4011
 4641SOL    HW318331   3.786   0.228   1.311  1.3073 -0.0876 -1.3824
 4641SOL    MW418332   3.828   0.302   1.293  0.5294  0.5823 -0.5048
 4642SOL     OW18333   1.886   4.981   6.020  0.0418 -0.1085  0.0036
 4642SOL    HW218334   1.803   4.939   6.041 -0.1333 -0.6267 -1.5757
 4642SOL    HW318335   1.923   4.929   5.949  1.8287  0.0058  0.7762
 4642SOL    MW418336   1.880   4.969   6.013  0.2545 -0.1618 -0.1028
 4643SOL     OW18337   3.908   3.388   4.443 -0.6345 -0.0715  0.6579
 4643SOL    HW218338   3.944   3.412   4.529 -1.3135  0.8890  0.6971
 4643SOL    HW318339   3.813   3.391   4.456 -0.7360 -0.0855 -0.0790
 4643SOL    MW418340   3.900   3.392   4.456 -0.7374  0.0534  0.5659
 4644SOL     OW18341   3.825   5.317   1.281 -0.7168 -0.0740 -0.6125
 4644SOL    HW218342   3.779   5.274   1.209 -0.6717  0.3320 -0.8800
 4644SOL    HW318343   3.866   5.394   1.242  1.3519 -1.1296 -0.6961
 4644SOL    MW418344   3.824   5.321   1.267 -0.4379 -0.1597 -0.6588
 4645SOL     OW18345   1.439   4.919   3.810 -0.7071  0.1768 -0.6978
 4645SOL    HW218346   1.474   5.007   3.792  2.2007 -0.2444  2.0294
 4645SOL    HW318347   1.489   4.861   3.752  0.5428 -0.0350  0.5323
 4645SOL    MW418348   1.450   4.923   3.800 -0.1585  0.0933 -0.1757
 4646SOL     OW18349   0.609   5.298   2.253 -0.2882  0.2592  0.0700
 4646SOL    HW218350   0.545   5.306   2.323 -0.6539  0.9537 -0.3383
 4646SOL    HW318351   0.659   5.380   2.255 -0.5734  0.4673 -0.7387
 4646SOL    MW418352   0.607   5.310   2.262 -0.3741  0.3783 -0.0906
 4647SOL     OW18353   3.891   0.187   0.224 -0.2273  0.1579 -0.0288
 4647SOL    HW218354   3.920   0.129   0.295 -0.3067  0.2088  0.0442
 4647SOL    HW318355   3.809   0.148   0.194 -1.3830  1.3719  1.3868
 4647SOL    MW418356   3.884   0.174   0.230 -0.3902  0.3248  0.1676
 4648SOL     OW18357   3.573   3.859   5.536 -0.4988  0.1063  0.1507
 4648SOL    HW218358   3.589   3.855   5.441 -0.3246  1.0201  0.1273
 4648SOL    HW318359   3.657   3.887   5.573 -0.7516  0.4183  0.4987
 4648SOL    MW418360   3.587   3.862   5.528 -0.5091  0.2680  0.1936
 4649SOL     OW18361   2.202   2.615   2.027  0.0610  0.0249 -0.9671
 4649SOL    HW218362   2.148   2.571   2.093  1.7836 -1.2575 -0.3242
 4649SOL    HW318363   2.151   2.612   1.947 -2.1517  1.7251  0.2708
 4649SOL    MW418364   2.188   2.609   2.025 -0.0037  0.0800 -0.7190
 4650SOL     OW18365   3.080   3.286   1.170 -0.5907  0.1957 -0.1337
 4650SOL    HW218366   3.009   3.308   1.230 -0.0108  0.7042  0.3741
 4650SOL    HW318367   3.036   3.243   1.096 -1.5738  1.6425 -0.4167
 4650SOL    MW418368   3.065   3.283   1.168 -0.6439  0.4536 -0.1040
 4651SOL     OW18369   5.782   4.548   2.325 -0.4618  0.0684 -0.0679
 4651SOL    HW218370   5.842   4.598   2.269  0.2756 -0.7148  0.0088
 4651SOL    HW318371   5.727   4.499   2.264 -0.9130  0.6560 -0.1358
 4651SOL    MW418372   5.783   4.548   2.309 -0.4241  0.0426 -0.0667
 4652SOL     OW18373   1.860   0.584   5.994  0.5473  0.3447 -0.4903
 4652SOL    HW218374   1.867   0.488   5.992  1.0765  0.3980 -1.4545
 4652SOL    HW318375   1.943   0.615   5.959  0.5551  1.1757  0.2372
 4652SOL    MW418376   1.872   0.575   5.989  0.6181  0.4614 -0.5215
 4653SOL     OW18377   0.818   5.133   5.233  0.4086 -0.4092  0.4880
 4653SOL    HW218378   0.861   5.202   5.181  0.7990 -0.3354  0.8952
 4653SOL    HW318379   0.739   5.174   5.267  1.3618  0.3345  1.9259
 4653SOL    MW418380   0.813   5.148   5.231  0.5859 -0.3013  0.7315
 4654SOL     OW18381   4.633   5.122   4.628 -0.0579  0.3608 -0.3353
 4654SOL    HW218382   4.673   5.046   4.586  0.9545 -0.1230  1.4076
 4654SOL    HW318383   4.656   5.196   4.571  1.2711 -0.2515 -0.6300
 4654SOL    MW418384   4.641   5.122   4.615  0.2510  0.2162 -0.1442
 4655SOL     OW18385   2.395   4.587   1.260 -0.3957  0.1616  0.3901
 4655SOL    HW218386   2.344   4.558   1.336  1.7910  0.7375  2.1620
 4655SOL    HW318387   2.469   4.527   1.256  0.7299  1.5260  0.1170
 4655SOL    MW418388   2.398   4.575   1.269  0.0413  0.4176  0.5879
 4656SOL     OW18389   2.218   5.605   3.873  0.7548  0.1426 -0.1625
 4656SOL    HW218390   2.304   5.625   3.835  0.3722  0.1391 -1.0532
 4656SOL    HW318391   2.229   5.517   3.910  1.2624  0.3271  0.1416
 4656SOL    MW418392   2.231   5.596   3.873  0.7713  0.1665 -0.2399
 4657SOL     OW18393   1.488   2.349   0.529 -0.2872 -0.5376  0.3031
 4657SOL    HW218394   1.445   2.433   0.512  0.6097 -0.1381 -0.0593
 4657SOL    HW318395   1.572   2.356   0.485  0.3853 -1.0935  1.4549
 4657SOL    MW418396   1.493   2.361   0.521 -0.0801 -0.5582  0.4072
 4658SOL     OW18397   5.331   0.622   3.520 -0.2268 -0.1223 -0.1051
 4658SOL    HW218398   5.251   0.674   3.523 -0.3778 -0.2261 -1.7000
 4658SOL    HW318399   5.301   0.532   3.515  0.0065 -0.2130  0.1059
 4658SOL    MW418400   5.317   0.617   3.520 -0.2159 -0.1480 -0.2877
 4659SOL     OW18401   5.244   4.050   4.800 -0.3900  0.2488 -0.2423
 4659SOL    HW218402   5.318   3.991   4.785 -0.7387  0.3883 -3.3252
 4659SOL    HW318403   5.175   4.017   4.743 -0.9947  2.8825 -1.2057
 4659SOL    MW418404   5.245   4.038   4.790 -0.5158  0.6147 -0.7762
 4660SOL     OW18405   6.300   1.050   2.755 -0.2438  0.1950  0.3423
 4660SOL    HW218406   6.318   1.138   2.723  0.2332  0.4118  1.1662
 4660SOL    HW318407   6.382   1.023   2.797 -0.8586 -0.0225  1.4452
 4660SOL    MW418408   6.313   1.058   2.757 -0.2620  0.1949  0.5965
 4661SOL     OW18409   0.214   1.487   4.597  0.0022 -0.3075 -0.2625
 4661SOL    HW218410   0.183   1.405   4.636 -2.2182  0.2644 -0.6774
 4661SOL    HW318411   0.265   1.529   4.666  0.6227 -1.7260  0.1721
 4661SOL    MW418412   0.216   1.482   4.611 -0.2089 -0.4192 -0.2599
 4662SOL     OW18413   1.471   3.834   6.050  0.0912  0.4967 -0.4654
 4662SOL    HW218414   1.384   3.806   6.018 -0.0524  0.1879  0.1868
 4662SOL    HW318415   1.457   3.855   6.142  1.3399 -2.6790  0.5949
 4662SOL    MW418416   1.457   3.833   6.058  0.2370  0.0370 -0.2394
 4663SOL     OW18417   3.389   1.655   5.118 -0.4886 -0.1198  0.4086
 4663SOL    HW218418   3.472   1.623   5.154  0.8045  1.8967 -0.5679
 4663SOL    HW318419   3.324   1.635   5.185  0.4489 -3.2500  0.5046
 4663SOL    MW418420   3.391   1.648   5.132 -0.1943 -0.2668  0.2924
 4664SOL     OW18421   2.092   6.374   4.825 -0.2050  1.2263  0.1927
 4664SOL    HW218422   2.039   6.454   4.818 -1.5252  0.5880  2.0608
 4664SOL    HW318423   2.128   6.377   4.914  0.0192 -0.0647  0.1664
 4664SOL    MW418424   2.090   6.385   4.836 -0.3496  0.9717  0.4357
 4665SOL     OW18425   4.921   5.854   4.717  0.0716 -0.2889  0.2009
 4665SOL    HW218426   4.932   5.923   4.652  3.1329 -0.7284  0.0977
 4665SOL    HW318427   4.885   5.899   4.793  2.4357  1.6527  0.3236
 4665SOL    MW418428   4.918   5.869   4.718  0.7874 -0.0907  0.2035
 4666SOL     OW18429   4.056   2.446   2.698  0.2163 -0.0393  0.1584
 4666SOL    HW218430   4.135   2.406   2.660  0.1413  0.4849 -0.5726
 4666SOL    HW318431   4.089   2.520   2.748  0.2938 -0.5888  0.9390
 4666SOL    MW418432   4.071   2.450   2.699  0.2166 -0.0426  0.1649
 4667SOL     OW18433   3.334   1.835   5.631 -0.1544  0.0697 -0.3450
 4667SOL    HW218434   3.417   1.875   5.607  0.3165 -0.1233  0.8725
 4667SOL    HW318435   3.357   1.769   5.697 -1.2674  0.0033 -0.0026
 4667SOL    MW418436   3.348   1.831   5.637 -0.2391  0.0355 -0.1392
 4668SOL     OW18437   4.475   2.029   4.317 -0.3766  0.2107  0.7460
 4668SOL    HW218438   4.529   1.967   4.267 -0.8607  0.4294 -0.0688
 4668SOL    HW318439   4.407   1.974   4.357  0.3119 -0.0358  1.5994
 4668SOL    MW418440   4.473   2.014   4.315 -0.3497  0.2070  0.7511
 4669SOL     OW18441   4.148   1.381   5.460  0.0192 -0.2903 -0.0004
 4669SOL    HW218442   4.107   1.382   5.373  0.2546  1.1230 -0.1303
 4669SOL    HW318443   4.117   1.301   5.501 -0.9907 -0.4205 -0.9749
 4669SOL    MW418444   4.139   1.371   5.454 -0.0830 -0.1210 -0.1461
 4670SOL     OW18445   4.182   3.779   2.734 -0.8163 -0.2732  0.2196
 4670SOL    HW218446   4.169   3.687   2.758 -0.8831 -0.3993 -0.2868
 4670SOL    HW318447   4.206   3.822   2.816  0.3370 -0.9646  0.2694
 4670SOL    MW418448   4.184   3.772   2.748 -0.6729 -0.3811  0.1593
 4671SOL     OW18449   1.701   4.033   1.624  0.2511  0.4049 -0.1451
 4671SOL    HW218450   1.686   4.055   1.716  0.8479 -2.0216  0.6080
 4671SOL    HW318451   1.735   4.113   1.585  0.9688  1.2053  1.9879
 4671SOL    MW418452   1.703   4.046   1.631  0.4245  0.1904  0.2357
 4672SOL     OW18453   0.745   6.140   0.714  0.0763 -0.2578 -0.1560
 4672SOL    HW218454   0.788   6.132   0.629 -0.1672  0.1814 -0.3254
 4672SOL    HW318455   0.746   6.052   0.750  0.8241 -0.3150 -0.2999
 4672SOL    MW418456   0.751   6.127   0.708  0.1428 -0.2074 -0.1973
 4673SOL     OW18457   4.077   1.758   5.926 -0.2574  0.0379 -0.5526
 4673SOL    HW218458   4.045   1.680   5.971 -1.3139 -0.7796 -2.6074
 4673SOL    HW318459   4.052   1.831   5.983  0.3180 -1.0502  1.1730
 4673SOL    MW418460   4.070   1.757   5.939 -0.3209 -0.2135 -0.5961
 4674SOL     OW18461   4.684   2.773   1.263  0.0687  0.1916 -0.0921
 4674SOL    HW218462   4.710   2.745   1.351  2.6331  2.2441 -0.0832
 4674SOL    HW318463   4.694   2.694   1.209 -0.3434 -0.7920  1.2304
 4674SOL    MW418464   4.689   2.759   1.267  0.3526  0.3326  0.0836
 4675SOL     OW18465   0.918   2.822   1.693 -0.1336 -1.0413 -0.6015
 4675SOL    HW218466   0.985   2.890   1.687 -1.4814  0.3328 -0.8474
 4675SOL    HW318467   0.961   2.749   1.738  1.1973  0.1801  0.1838
 4675SOL    MW418468   0.932   2.821   1.698 -0.1358 -0.6988 -0.5303
 4676SOL     OW18469   4.493   2.398   5.631 -0.3562 -0.1639 -0.1594
 4676SOL    HW218470   4.415   2.350   5.660 -0.5520  0.3511  0.1671
 4676SOL    HW318471   4.525   2.441   5.710  0.6783 -0.9497 -0.1356
 4676SOL    MW418472   4.487   2.397   5.645 -0.2456 -0.1996 -0.1132
 4677SOL     OW18473   2.658   5.627   1.648  0.1078  0.3543  0.6786
 4677SOL    HW218474   2.567   5.652   1.631  0.1985 -1.0616 -2.4938
 4677SOL    HW318475   2.652   5.535   1.674  0.6790 -0.0898 -0.7058
 4677SOL    MW418476   2.645   5.618   1.649  0.1951  0.1089  0.0774
 4678SOL     OW18477   1.751   6.184   0.712 -0.8194 -0.4403 -0.7432
 4678SOL    HW218478   1.786   6.106   0.668 -1.0338 -1.2442  0.4642
 4678SOL    HW318479   1.828   6.239   0.728 -0.5047 -0.9106 -0.6250
 4678SOL    MW418480   1.766   6.181   0.708 -0.8062 -0.6084 -0.5683
 4679SOL     OW18481   5.851   4.772   5.246  0.1198 -0.1782  0.2556
 4679SOL    HW218482   5.907   4.804   5.175 -0.8666  0.4388 -0.2788
 4679SOL    HW318483   5.892   4.690   5.275  0.7908 -0.2032 -0.7273
 4679SOL    MW418484   5.864   4.765   5.240  0.0782 -0.1001  0.0554
 4680SOL     OW18485   0.578   2.808   5.615  0.5158 -0.3442  0.5727
 4680SOL    HW218486   0.490   2.836   5.593  1.1731 -1.0264 -3.6537
 4680SOL    HW318487   0.572   2.713   5.624  0.7644 -0.3548  0.6515
 4680SOL    MW418488   0.566   2.799   5.614  0.6353 -0.4356  0.0255
 4681SOL     OW18489   3.712   5.918   2.434  0.1530 -0.0725 -0.3186
 4681SOL    HW218490   3.645   5.955   2.376  1.1165 -0.6705 -1.8706
 4681SOL    HW318491   3.673   5.838   2.468 -0.1684 -0.0607 -0.6608
 4681SOL    MW418492   3.698   5.913   2.431  0.2377 -0.1498 -0.5685
 4682SOL     OW18493   0.527   5.633   2.590 -0.1594 -0.1272  0.4098
 4682SOL    HW218494   0.449   5.579   2.575 -0.4499  0.6118 -0.9133
 4682SOL    HW318495   0.504   5.718   2.553  1.2774  0.1070  0.0181
 4682SOL    MW418496   0.513   5.637   2.583 -0.0082  0.0012  0.1836
 4683SOL     OW18497   1.308   1.718   5.134  0.3443 -0.4431  0.7663
 4683SOL    HW218498   1.262   1.641   5.100 -0.2042  0.1240  0.1911
 4683SOL    HW318499   1.397   1.687   5.151 -0.6549 -2.0600  3.6944
 4683SOL    MW418500   1.314   1.704   5.132  0.1401 -0.5816  1.0767
 4684SOL     OW18501   3.666   3.801   4.450  0.1344  0.6255  0.3576
 4684SOL    HW218502   3.682   3.794   4.356  0.3133 -2.5773  0.5163
 4684SOL    HW318503   3.725   3.737   4.489 -2.5032 -0.8323  2.2680
 4684SOL    MW418504   3.676   3.792   4.443 -0.1900  0.0106  0.6306
 4685SOL     OW18505   3.451   1.907   0.922  0.0036  0.5844  0.3859
 4685SOL    HW218506   3.374   1.853   0.909 -0.6031  1.4994  0.0694
 4685SOL    HW318507   3.493   1.871   1.000 -1.1397  0.5209  0.9924
 4685SOL    MW418508   3.446   1.895   0.931 -0.2273  0.6968  0.4242
 4686SOL     OW18509   2.189   5.633   0.790  0.5824  0.8890  0.3339
 4686SOL    HW218510   2.207   5.639   0.696  1.9401  1.8682  0.6185
 4686SOL    HW318511   2.196   5.723   0.821  3.2110  0.2687  1.8587
 4686SOL    MW418512   2.192   5.646   0.782  1.1083  0.9363  0.5726
 4687SOL     OW18513   2.284   4.826   4.810  0.6211  0.3631  0.0569
 4687SOL    HW218514   2.342   4.753   4.827 -0.2470 -0.3116  0.1811
 4687SOL    HW318515   2.298   4.886   4.884  0.2762 -0.3637  0.7191
 4687SOL    MW418516   2.293   4.825   4.822  0.4611  0.1782  0.1607
 4688SOL     OW18517   5.496   5.533   3.642 -0.2489 -0.9477 -0.4145
 4688SOL    HW218518   5.493   5.557   3.735 -0.5912  0.0769 -0.6718
 4688SOL    HW318519   5.414   5.568   3.607  0.2306 -0.6636 -1.2564
 4688SOL    MW418520   5.485   5.541   3.650 -0.2308 -0.7750 -0.5596
 4689SOL     OW18521   2.332   4.496   1.502  0.0599 -0.1059 -0.8962
 4689SOL    HW218522   2.392   4.423   1.513 -1.1765 -1.2983 -1.7903
 4689SOL    HW318523   2.373   4.568   1.550  1.1290 -1.4727  0.3187
 4689SOL    MW418524   2.345   4.496   1.510  0.0378 -0.4435 -0.8539
 4690SOL     OW18525   3.780   5.035   5.234  0.4968 -0.1893 -0.1234
 4690SOL    HW218526   3.847   5.103   5.240  0.6965 -0.2831 -1.1607
 4690SOL    HW318527   3.823   4.956   5.266  0.8887 -0.2470 -0.7813
 4690SOL    MW418528   3.794   5.033   5.239  0.5749 -0.2093 -0.3471
 4691SOL     OW18529   2.090   0.150   5.945  0.3572 -0.1552 -0.2749
 4691SOL    HW218530   2.065   0.058   5.937  2.5350 -0.8839  0.3540
 4691SOL    HW318531   2.070   0.172   6.036  0.3560 -0.1806 -0.2690
 4691SOL    MW418532   2.084   0.141   5.956  0.6444 -0.2547 -0.1911
 4692SOL     OW18533   4.828   1.610   2.663 -0.4945  0.2142  1.0253
 4692SOL    HW218534   4.852   1.635   2.574 -1.9527  0.7871  0.7645
 4692SOL    HW318535   4.783   1.525   2.653 -1.4713  0.7050  1.0716
 4692SOL    MW418536   4.825   1.602   2.650 -0.8158  0.3545  0.9970
 4693SOL     OW18537   4.331   0.391   3.757 -0.1139 -0.2059  0.1786
 4693SOL    HW218538   4.413   0.430   3.786 -0.9907  0.2948  2.1733
 4693SOL    HW318539   4.357   0.326   3.692  1.5741  2.0455 -1.5452
 4693SOL    MW418540   4.345   0.387   3.753 -0.0069  0.1572  0.2144
 4694SOL     OW18541   2.455   6.218   0.844  0.2819 -0.5914  0.3240
 4694SOL    HW218542   2.397   6.165   0.899 -0.7793  1.3868  1.2311
 4694SOL    HW318543   2.397   6.279   0.799  1.5983  1.6059  1.4031
 4694SOL    MW418544   2.440   6.219   0.846  0.3156 -0.0405  0.5861
 4695SOL     OW18545   1.138   1.671   4.697 -0.5610  0.0605 -0.2462
 4695SOL    HW218546   1.139   1.739   4.630  0.1307  1.5410  1.1964
 4695SOL    HW318547   1.226   1.635   4.696 -0.2584  0.7671  0.5193
 4695SOL    MW418548   1.150   1.675   4.688 -0.4298  0.3491  0.0451
 4696SOL     OW18549   1.671   1.570   3.648 -0.2026  0.0205  0.0344
 4696SOL    HW218550   1.763   1.588   3.671  0.2021  0.9059 -2.0696
 4696SOL    HW318551   1.625   1.572   3.732  1.5042  0.8332  1.0127
 4696SOL    MW418552   1.677   1.573   3.662  0.0760  0.2446 -0.1141
 4697SOL     OW18553   5.313   5.387   5.645  0.7908  0.3333  0.4638
 4697SOL    HW218554   5.389   5.406   5.700  1.4880 -0.2762 -0.2713
 4697SOL    HW318555   5.316   5.454   5.576 -0.2057  1.2318  1.2483
 4697SOL    MW418556   5.323   5.399   5.643  0.7513  0.3714  0.4703
 4698SOL     OW18557   2.023   5.695   3.698  0.1506 -0.0511  0.4734
 4698SOL    HW218558   2.070   5.737   3.626 -0.4889 -0.9529 -0.5118
 4698SOL    HW318559   2.091   5.666   3.758  0.8988 -1.3315 -0.9246
 4698SOL    MW418560   2.038   5.697   3.696  0.1649 -0.3390  0.1590
 4699SOL     OW18561   0.262   2.701   3.767  0.0231  0.0792 -0.1642
 4699SOL    HW218562   0.172   2.718   3.794 -0.2731 -1.2673 -0.2581
 4699SOL    HW318563   0.267   2.738   3.679 -0.1711  0.9286  0.1679
 4699SOL    MW418564   0.251   2.708   3.759 -0.0416  0.0136 -0.1327
 4700SOL     OW18565   0.321   1.456   6.248 -0.4777 -0.0387  0.1772
 4700SOL    HW218566   0.340   1.531   6.192  1.9828 -0.0982  0.7835
 4700SOL    HW318567   0.281   1.493   6.326 -3.2076  0.1240 -1.1876
 4700SOL    MW418568   0.318   1.470   6.251 -0.5133 -0.0251  0.0771
 4701SOL     OW18569   2.449   2.410   5.024  0.1257 -0.3824  0.2583
 4701SOL    HW218570   2.458   2.326   4.978  1.6752 -0.3786  0.4912
 4701SOL    HW318571   2.375   2.397   5.083  0.1471 -1.4905  0.0725
 4701SOL    MW418572   2.441   2.397   5.025  0.3330 -0.5281  0.2645
 4702SOL     OW18573   1.150   2.278   2.872 -0.0895 -0.5910 -0.1422
 4702SOL    HW218574   1.143   2.247   2.962 -0.1358 -0.1022  0.0273
 4702SOL    HW318575   1.068   2.253   2.831 -1.4090  1.8708  0.8065
 4702SOL    MW418576   1.138   2.271   2.879 -0.2697 -0.2017  0.0053
 4703SOL     OW18577   2.271   4.092   2.943  0.4729  0.1730 -0.5549
 4703SOL    HW218578   2.214   4.060   2.873  0.2491 -1.1983  0.2302
 4703SOL    HW318579   2.338   4.143   2.898 -0.9946  1.3067 -1.5538
 4703SOL    MW418580   2.273   4.095   2.928  0.2498  0.1416 -0.5831
 4704SOL     OW18581   0.759   5.740   4.264 -0.2752  0.2685  0.0111
 4704SOL    HW218582   0.748   5.731   4.169 -1.1134 -2.4200  0.2728
 4704SOL    HW318583   0.677   5.778   4.294 -0.6959 -0.4622 -0.1879
 4704SOL    MW418584   0.747   5.744   4.255 -0.4413 -0.1827  0.0194
 4705SOL     OW18585   1.911   4.360   2.874  0.6261 -0.1636  0.4800
 4705SOL    HW218586   1.967   4.331   2.946  1.0259 -1.8037 -0.4472
 4705SOL    HW318587   1.959   4.336   2.795 -0.5887  0.0104 -0.3355
 4705SOL    MW418588   1.925   4.353   2.873  0.5186 -0.3570  0.2501
 4706SOL     OW18589   0.680   4.044   6.093  0.0489 -0.1111 -0.0332
 4706SOL    HW218590   0.675   4.030   6.188  2.0339  1.3554  0.3516
 4706SOL    HW318591   0.622   4.118   6.077 -1.4852 -1.3082 -0.2594
 4706SOL    MW418592   0.672   4.052   6.103  0.1084 -0.0756 -0.0123
 4707SOL     OW18593   1.575   6.196   4.103  0.9340  0.1929  0.2344
 4707SOL    HW218594   1.610   6.123   4.052  0.7092 -0.2588  0.7253
 4707SOL    HW318595   1.544   6.258   4.037  2.3758  0.4751 -0.2116
 4707SOL    MW418596   1.575   6.195   4.087  1.0946  0.1705  0.2404
 4708SOL     OW18597   0.083   0.733   1.380  0.0188  0.3236 -0.6526
 4708SOL    HW218598   0.090   0.805   1.317 -0.7012  0.3142 -0.7523
 4708SOL    HW318599   0.081   0.776   1.466 -0.3781  0.4209 -0.7105
 4708SOL    MW418600   0.084   0.748   1.383 -0.1286  0.3352 -0.6734
 4709SOL     OW18601   5.289   2.419   0.887 -0.6048  0.2322 -0.2879
 4709SOL    HW218602   5.300   2.476   0.963  4.2161 -1.0457  0.2865
 4709SOL    HW318603   5.271   2.478   0.815 -3.3531  1.6551  1.3846
 4709SOL    MW418604   5.288   2.434   0.888 -0.3314  0.2513  0.0086
 4710SOL     OW18605   0.456   4.656   4.981 -0.1365 -0.2130 -0.0912
 4710SOL    HW218606   0.516   4.707   4.926 -0.4297 -0.0782 -0.2882
 4710SOL    HW318607   0.370   4.693   4.963 -0.2324 -0.1497  0.4830
 4710SOL    MW418608   0.453   4.668   4.972 -0.1879 -0.1868 -0.0414
 4711SOL     OW18609   2.144   2.285   2.741 -0.2601  0.5260 -0.6705
 4711SOL    HW218610   2.070   2.260   2.796 -0.2836 -0.4188 -1.1054
 4711SOL    HW318611   2.103   2.328   2.665 -0.3295  0.5271 -0.6332
 4711SOL    MW418612   2.129   2.287   2.738 -0.2723  0.4015 -0.7229
 4712SOL     OW18613   0.708   0.803   5.256  0.0778  0.5023  0.4371
 4712SOL    HW218614   0.763   0.770   5.327 -0.2751  1.5324  1.1990
 4712SOL    HW318615   0.652   0.729   5.233 -0.7347  0.5542  2.1462
 4712SOL    MW418616   0.708   0.789   5.262 -0.0759  0.6450  0.7631
 4713SOL     OW18617   6.373   3.124   2.853 -0.2358 -0.2542 -0.1639
 4713SOL    HW218618   6.303   3.065   2.826  0.1955 -0.1913 -1.4612
 4713SOL    HW318619   6.450   3.096   2.803 -0.2189  1.8891 -1.4441
 4713SOL    MW418620   6.374   3.112   2.843 -0.1767  0.0369 -0.5040
 4714SOL     OW18621   0.704   5.748   5.850  0.3768 -0.2477 -0.7420
 4714SOL    HW218622   0.754   5.668   5.837  1.3434  0.2901 -0.4171
 4714SOL    HW318623   0.661   5.736   5.935  2.5984  0.6109  0.5737
 4714SOL    MW418624   0.705   5.736   5.859  0.7975 -0.0635 -0.5256
 4715SOL     OW18625   5.733   2.697   1.700  0.3537  0.3641  0.1040
 4715SOL    HW218626   5.663   2.761   1.688  0.0691 -0.1304 -1.0189
 4715SOL    HW318627   5.760   2.708   1.791 -2.1151 -0.3657  0.9896
 4715SOL    MW418628   5.727   2.707   1.710 -0.0096  0.2025  0.0727
 4716SOL     OW18629   4.593   3.565   4.422 -0.0903  0.2789  0.2221
 4716SOL    HW218630   4.583   3.530   4.333 -1.3589  1.8989 -0.3244
 4716SOL    HW318631   4.686   3.551   4.442  0.7346  1.6418 -2.1814
 4716SOL    MW418632   4.604   3.559   4.413 -0.1488  0.6725 -0.1671
 4717SOL     OW18633   3.337   3.329   6.210 -0.0426  0.1917 -0.5380
 4717SOL    HW218634   3.297   3.414   6.193  0.1937  0.5187  0.4497
 4717SOL    HW318635   3.344   3.325   6.306  1.3011 -0.3018 -0.6281
 4717SOL    MW418636   3.333   3.340   6.221  0.1658  0.1697 -0.4196
 4718SOL     OW18637   6.356   3.602   5.381  0.2591 -0.2044 -0.0608
 4718SOL    HW218638   6.332   3.692   5.400 -0.9855 -0.8346  1.6230
 4718SOL    HW318639   6.450   3.597   5.400  0.5393  0.9021 -1.0282
 4718SOL    MW418640   6.365   3.613   5.386  0.1319 -0.1416  0.0337
 4719SOL     OW18641   5.172   0.053   6.076 -0.5082 -0.4146 -0.4006
 4719SOL    HW218642   5.237  -0.017   6.081 -0.0911  0.0117  0.4051
 4719SOL    HW318643   5.166   0.074   5.983  1.2577  0.1968 -0.4102
 4719SOL    MW418644   5.180   0.047   6.065 -0.2202 -0.2777 -0.2956
 4720SOL     OW18645   3.661   1.194   6.093  0.4590  0.3331  0.1571
 4720SOL    HW218646   3.704   1.270   6.053 -0.5986  0.3710 -0.9480
 4720SOL    HW318647   3.720   1.170   6.165  1.1004  1.8555  0.2006
 4720SOL    MW418648   3.675   1.201   6.097  0.4041  0.5390  0.0170
 4721SOL     OW18649   0.745   5.162   4.516 -0.2505  0.1716 -0.3734
 4721SOL    HW218650   0.832   5.144   4.552  0.8210  1.5444 -2.0840
 4721SOL    HW318651   0.691   5.182   4.592  1.8185  2.7311  0.5874
 4721SOL    MW418652   0.749   5.162   4.530  0.1639  0.6904 -0.4723
 4722SOL     OW18653   1.444   4.982   2.856  0.0186  0.2919 -0.3312
 4722SOL    HW218654   1.417   5.071   2.833 -0.3191  0.0474 -0.8946
 4722SOL    HW318655   1.540   4.985   2.851 -0.0287  0.0860 -2.5127
 4722SOL    MW418656   1.453   4.994   2.852 -0.0322  0.2325 -0.6934
 4723SOL     OW18657   1.739   0.424   4.328  0.1411  0.2811 -0.0453
 4723SOL    HW218658   1.675   0.490   4.300 -0.5893 -1.1459 -1.9001
 4723SOL    HW318659   1.724   0.349   4.271  0.4501 -1.8339  2.4666
 4723SOL    MW418660   1.729   0.423   4.317  0.0855 -0.1862  0.0414
 4724SOL     OW18661   6.114   1.802   0.622 -0.2527  0.4213 -0.5598
 4724SOL    HW218662   6.210   1.793   0.621 -0.3277 -0.5087 -1.9358
 4724SOL    HW318663   6.095   1.864   0.552 -0.6841  0.2008 -0.6399
 4724SOL    MW418664   6.124   1.809   0.613 -0.3195  0.2695 -0.7519
 4725SOL     OW18665   5.914   0.859   0.482 -0.5352 -0.0644 -0.6306
 4725SOL    HW218666   6.007   0.839   0.484 -0.6604 -0.6305  0.3976
 4725SOL    HW318667   5.908   0.945   0.439  0.4618  0.0488 -0.5596
 4725SOL    MW418668   5.925   0.868   0.477 -0.4202 -0.1241 -0.4855
 4726SOL     OW18669   4.451   3.532   3.629  0.3121 -0.1262  0.3408
 4726SOL    HW218670   4.463   3.485   3.546 -1.1712 -1.0430  0.6123
 4726SOL    HW318671   4.403   3.471   3.684 -0.1028  1.0719  1.3399
 4726SOL    MW418672   4.446   3.518   3.625  0.0617 -0.0891  0.5084
 4727SOL     OW18673   0.081   2.782   4.155  0.3189 -0.7856 -0.6284
 4727SOL    HW218674  -0.010   2.773   4.129  0.4564 -1.8158 -0.7947
 4727SOL    HW318675   0.109   2.693   4.176  1.3929 -0.5451 -0.9733
 4727SOL    MW418676   0.073   2.769   4.154  0.4788 -0.8898 -0.6958
 4728SOL     OW18677   5.198   5.382   3.887 -0.1060  0.2855  0.0494
 4728SOL    HW218678   5.196   5.377   3.792 -1.3089 -0.0550  0.0774
 4728SOL    HW318679   5.255   5.310   3.914 -0.2614  0.0000 -0.3811
 4728SOL    MW418680   5.205   5.372   3.878 -0.2852  0.2029 -0.0037
 4729SOL     OW18681   4.411   2.335   3.358  0.2709 -0.0740  0.5400
 4729SOL    HW218682   4.415   2.425   3.391 -0.0357  0.0637  0.2022
 4729SOL    HW318683   4.374   2.285   3.431  2.3104 -0.2956  1.4796
 4729SOL    MW418684   4.407   2.341   3.372  0.4995 -0.0851  0.6194
 4730SOL     OW18685   6.412   2.040   1.454 -0.5947  0.0729 -0.3312
 4730SOL    HW218686   6.362   1.958   1.455 -1.5576  0.6141  2.1044
 4730SOL    HW318687   6.405   2.074   1.543 -1.3094  3.4535 -1.5064
 4730SOL    MW418688   6.404   2.034   1.466 -0.8160  0.5903 -0.1649
 4731SOL     OW18689   0.164   0.195   6.161 -0.2718 -0.6205  1.0319
 4731SOL    HW218690   0.248   0.155   6.183  0.6250  0.8514  0.3435
 4731SOL    HW318691   0.152   0.264   6.227  0.4826  1.0919 -0.5507
 4731SOL    MW418692   0.173   0.198   6.173 -0.0539 -0.2004  0.7323
 4732SOL     OW18693   5.893   2.734   1.016 -0.7994 -0.2460 -0.0305
 4732SOL    HW218694   5.813   2.691   1.047 -0.1781 -0.5716  1.1423
 4732SOL    HW318695   5.863   2.789   0.944 -2.2247  0.2309  0.8801
 4732SOL    MW418696   5.878   2.735   1.010 -0.9055 -0.2260  0.2444
 4733SOL     OW18697   4.981   0.737   1.626 -0.1134 -0.3153  0.1861
 4733SOL    HW218698   5.067   0.777   1.616 -0.3725  0.2988  0.3593
 4733SOL    HW318699   4.930   0.801   1.676 -0.9617 -0.2378 -0.7464
 4733SOL    MW418700   4.986   0.751   1.631 -0.2595 -0.2240  0.0859
 4734SOL     OW18701   6.333   2.394   5.900  0.0706  0.2679 -0.5510
 4734SOL    HW218702   6.362   2.304   5.885 -1.5414  0.0728 -3.0326
 4734SOL    HW318703   6.407   2.448   5.870  1.3246 -0.1292  1.5934
 4734SOL    MW418704   6.347   2.390   5.894  0.0233  0.1898 -0.5955
 4735SOL     OW18705   5.872   3.913   1.331  0.2639  0.1756  0.0158
 4735SOL    HW218706   5.827   3.944   1.409  1.7659 -0.0797  1.0196
 4735SOL    HW318707   5.965   3.923   1.350  0.6773  0.7167 -2.0062
 4735SOL    MW418708   5.878   3.918   1.344  0.5166  0.2133 -0.1185
 4736SOL     OW18709   5.197   4.150   2.567  0.8957 -0.0845 -0.9021
 4736SOL    HW218710   5.151   4.193   2.494 -0.1415  0.1191 -0.1593
 4736SOL    HW318711   5.204   4.059   2.539 -0.4969 -0.2479 -0.8175
 4736SOL    MW418712   5.192   4.144   2.554  0.5751 -0.0792 -0.7930
 4737SOL     OW18713   3.351   3.696   2.270 -0.0280 -0.4969 -0.5706
 4737SOL    HW218714   3.373   3.611   2.232 -0.9914 -1.0140 -0.0128
 4737SOL    HW318715   3.378   3.759   2.204 -0.4009 -1.3042 -1.5199
 4737SOL    MW418716   3.357   3.693   2.256 -0.2043 -0.6717 -0.6223
 4738SOL     OW18717   4.564   4.393   0.892 -0.2339 -0.0179  0.7549
 4738SOL    HW218718   4.616   4.473   0.883 -0.5017 -0.0327 -1.8364
 4738SOL    HW318719   4.614   4.327   0.844 -2.7514  0.1226 -2.4599
 4738SOL    MW418720   4.577   4.395   0.884 -0.6014 -0.0013 -0.0111
 4739SOL     OW18721   0.584   2.540   5.255  0.0052  0.1655 -0.7347
 4739SOL    HW218722   0.637   2.534   5.175  1.7448 -0.5586  0.4024
 4739SOL    HW318723   0.611   2.464   5.306 -2.0801 -0.1461 -0.0098
 4739SOL    MW418724   0.595   2.529   5.251 -0.0404  0.0288 -0.4890
 4740SOL     OW18725   2.794   1.731   4.447 -0.2007  0.7482 -0.3297
 4740SOL    HW218726   2.829   1.797   4.387  1.0721  0.2901 -0.1265
 4740SOL    HW318727   2.818   1.762   4.534  1.7663 -0.6743 -0.2964
 4740SOL    MW418728   2.802   1.744   4.450  0.2267  0.5000 -0.2985
 4741SOL     OW18729   1.141   0.085   3.532  0.0126 -0.5860  0.3713
 4741SOL    HW218730   1.086   0.133   3.470 -1.2415  2.4223  3.4990
 4741SOL    HW318731   1.226   0.128   3.525 -0.2587  0.0797  0.9810
 4741SOL    MW418732   1.145   0.097   3.523 -0.1886 -0.1013  0.8644
 4742SOL     OW18733   5.079   4.779   4.857  0.5409 -0.5387 -0.2812
 4742SOL    HW218734   5.172   4.760   4.862  1.0094  1.7177  1.4915
 4742SOL    HW318735   5.068   4.830   4.777  0.8547 -0.7303 -0.4435
 4742SOL    MW418736   5.090   4.783   4.847  0.6441 -0.2663 -0.0687
 4743SOL     OW18737   2.048   3.088   2.118  0.0392 -0.0527  0.0949
 4743SOL    HW218738   2.127   3.034   2.106 -0.3023 -0.6739  0.5438
 4743SOL    HW318739   2.070   3.172   2.079  0.1302 -0.9223 -1.8610
 4743SOL    MW418740   2.061   3.092   2.111  0.0062 -0.2494 -0.1040
 4744SOL     OW18741   4.032   2.417   1.493  0.5511 -0.0463 -0.2087
 4744SOL    HW218742   3.970   2.393   1.562  0.4800  0.3679 -0.1257
 4744SOL    HW318743   4.017   2.353   1.423  0.5487 -0.4002  0.1157
 4744SOL    MW418744   4.022   2.405   1.493  0.5414 -0.0384 -0.1549
 4745SOL     OW18745   2.586   2.380   3.200  0.2861  0.2222  0.2777
 4745SOL    HW218746   2.512   2.340   3.155 -0.2673 -0.3890  1.6867
 4745SOL    HW318747   2.600   2.463   3.153 -1.1524  0.2610 -0.1446
 4745SOL    MW418748   2.578   2.386   3.188  0.0233  0.1467  0.4079
 4746SOL     OW18749   5.295   1.930   5.747  0.3408 -0.3146 -0.4836
 4746SOL    HW218750   5.230   1.859   5.745 -1.3962  1.2228 -1.9023
 4746SOL    HW318751   5.339   1.924   5.662 -0.1586  0.5796 -0.8142
 4746SOL    MW418752   5.293   1.920   5.736  0.0457  0.0062 -0.7144
 4747SOL     OW18753   0.177   5.688   4.613 -0.0699  0.1645 -0.2120
 4747SOL    HW218754   0.171   5.608   4.560  1.2068  0.9435 -1.6032
 4747SOL    HW318755   0.216   5.659   4.695 -1.2636 -0.9198  0.0077
 4747SOL    MW418756   0.181   5.674   4.617 -0.0590  0.1242 -0.3666
 4748SOL     OW18757   0.772   5.612   1.183  0.5017 -0.0987 -0.0799
 4748SOL    HW218758   0.761   5.701   1.149  0.8428  0.6954  1.7433
 4748SOL    HW318759   0.746   5.619   1.275  0.7394 -1.8548  0.1460
 4748SOL    MW418760   0.767   5.625   1.191  0.5781 -0.2256  0.1905
 4749SOL     OW18761   1.657   1.859   0.158 -0.2669  0.4042  0.1475
 4749SOL    HW218762   1.726   1.815   0.108 -0.1477  0.9874 -0.2059
 4749SOL    HW318763   1.672   1.831   0.248 -0.5859 -0.7938 -0.1439
 4749SOL    MW418764   1.668   1.849   0.163 -0.2933  0.3231  0.0624
 4750SOL     OW18765   2.690   0.540   1.896  0.0654  0.4530  0.3501
 4750SOL    HW218766   2.679   0.551   1.801  0.7006 -0.6530  0.1273
 4750SOL    HW318767   2.731   0.622   1.925 -0.1161  0.7913 -0.3236
 4750SOL    MW418768   2.694   0.552   1.887  0.1252  0.3517  0.2318
 4751SOL     OW18769   4.580   6.023   1.048  0.5986  0.5422 -0.0150
 4751SOL    HW218770   4.515   6.008   0.979  0.6860 -1.2882  0.2513
 4751SOL    HW318771   4.553   6.106   1.088 -2.6547 -0.8938  1.1594
 4751SOL    MW418772   4.568   6.032   1.044  0.1809  0.1112  0.1751
 4752SOL     OW18773   3.626   0.276   5.356 -0.3233  0.7191  0.7942
 4752SOL    HW218774   3.613   0.362   5.395 -0.5825  1.0614 -0.0184
 4752SOL    HW318775   3.540   0.252   5.322 -0.3895 -0.1319  1.5234
 4752SOL    MW418776   3.613   0.284   5.357 -0.3662  0.6520  0.7832
 4753SOL     OW18777   6.012   3.679   4.090 -0.1754  0.1455  0.7129
 4753SOL    HW218778   6.071   3.739   4.135 -1.6626  0.1514  2.8074
 4753SOL    HW318779   6.011   3.601   4.146 -0.3809 -0.7709 -0.5281
 4753SOL    MW418780   6.020   3.676   4.104 -0.3987  0.0253  0.8255
 4754SOL     OW18781   2.038   4.024   4.521  0.0237 -0.3112  0.0152
 4754SOL    HW218782   2.038   4.076   4.601 -1.9243 -2.0729  1.2747
 4754SOL    HW318783   2.129   4.024   4.492  0.3560  2.5226  0.7163
 4754SOL    MW418784   2.050   4.031   4.528 -0.1895 -0.1698  0.2739
 4755SOL     OW18785   4.822   5.664   1.609 -0.0528  0.5621 -0.4731
 4755SOL    HW218786   4.895   5.611   1.579 -1.4720  0.0549 -3.2997
 4755SOL    HW318787   4.756   5.601   1.638 -0.4700  0.8882 -0.6893
 4755SOL    MW418788   4.823   5.649   1.609 -0.2951  0.5382 -0.8745
 4756SOL     OW18789   1.566   1.033   4.098 -0.8401  0.2959 -0.1017
 4756SOL    HW218790   1.497   1.005   4.158 -0.3007  0.2944  0.5365
 4756SOL    HW318791   1.608   1.107   4.142 -1.0192  0.8810 -0.8991
 4756SOL    MW418792   1.563   1.039   4.112 -0.7926  0.3729 -0.1227
 4757SOL     OW18793   0.588   1.859   2.435  0.1392 -0.6654  0.3689
 4757SOL    HW218794   0.639   1.800   2.491 -1.8650 -0.4233  2.5792
 4757SOL    HW318795   0.501   1.819   2.431 -0.0681 -0.1041 -1.7463
 4757SOL    MW418796   0.583   1.846   2.442 -0.1526 -0.5594  0.3814
 4758SOL     OW18797   3.064   3.953   4.997  0.2918 -0.1419  0.2070
 4758SOL    HW218798   3.158   3.949   4.980  0.7790  2.1935  1.7467
 4758SOL    HW318799   3.039   3.863   5.019  1.7357 -1.1552 -2.0050
 4758SOL    MW418800   3.073   3.941   4.998  0.5466  0.0326  0.1183
 4759SOL     OW18801   3.904   2.153   0.077 -0.7154 -0.3609  0.4163
 4759SOL    HW218802   3.898   2.248   0.082 -2.3599 -0.4644  1.0120
 4759SOL    HW318803   3.924   2.134  -0.015 -0.5056  0.5451  0.2692
 4759SOL    MW418804   3.906   2.163   0.066 -0.9047 -0.2550  0.4755
 4760SOL     OW18805   3.159   4.687   2.972 -0.1691 -0.1721 -0.6397
 4760SOL    HW218806   3.224   4.623   2.942  1.0583  0.8247 -0.2262
 4760SOL    HW318807   3.153   4.672   3.067 -1.2177 -0.8279 -0.7947
 4760SOL    MW418808   3.167   4.677   2.981 -0.1455 -0.1271 -0.6056
 4761SOL     OW18809   4.310   0.430   4.681  0.8809 -0.5961  0.1816
 4761SOL    HW218810   4.254   0.505   4.701 -1.2970 -1.6756 -1.3816
 4761SOL    HW318811   4.319   0.384   4.765  0.3710  0.2226  0.6967
 4761SOL    MW418812   4.304   0.434   4.695  0.5263 -0.6305  0.0433
 4762SOL     OW18813   1.468   2.534   3.347 -0.0786  0.2322 -0.3694
 4762SOL    HW218814   1.442   2.616   3.305 -1.7954 -0.1571 -0.1714
 4762SOL    HW318815   1.463   2.552   3.441 -1.4789 -0.3322 -0.3023
 4762SOL    MW418816   1.464   2.547   3.354 -0.4899  0.1063 -0.3344
 4763SOL     OW18817   3.986   4.260   0.991 -0.2550  0.2285  0.4439
 4763SOL    HW218818   3.971   4.280   1.084 -1.5107 -2.6838  0.9844
 4763SOL    HW318819   3.932   4.324   0.944 -0.1041  1.3526  1.7220
 4763SOL    MW418820   3.977   4.271   0.997 -0.4008 -0.0074  0.6838
 4764SOL     OW18821   1.728   5.737   5.963 -0.0093  1.1269  0.5546
 4764SOL    HW218822   1.654   5.727   6.023 -1.3784  0.1994 -1.2100
 4764SOL    HW318823   1.692   5.719   5.876  2.0815  1.6207 -0.4871
 4764SOL    MW418824   1.714   5.733   5.959  0.0859  1.0697  0.1843
 4765SOL     OW18825   4.254   5.249   5.987 -0.0704  0.1284 -0.3959
 4765SOL    HW218826   4.189   5.185   6.019  1.0164 -1.6501 -1.5690
 4765SOL    HW318827   4.318   5.255   6.058 -0.2126 -0.0220 -0.2517
 4765SOL    MW418828   4.254   5.241   6.001  0.0542 -0.1261 -0.5316
 4766SOL     OW18829   4.699   3.912   1.037 -0.1948 -0.4759 -0.4060
 4766SOL    HW218830   4.633   3.932   1.104 -0.2672 -2.1843  0.0987
 4766SOL    HW318831   4.782   3.910   1.086 -0.3995 -3.0201 -0.0035
 4766SOL    MW418832   4.701   3.914   1.053 -0.2314 -1.0370 -0.2863
 4767SOL     OW18833   2.450   3.964   0.676  0.7734  0.1567  0.4286
 4767SOL    HW218834   2.386   4.035   0.671  0.2797 -0.2114  1.3741
 4767SOL    HW318835   2.518   3.997   0.736  0.1629 -0.4546  1.4664
 4767SOL    MW418836   2.451   3.978   0.683  0.6277  0.0275  0.6902
 4768SOL     OW18837   4.734   1.955   3.905 -0.0632 -0.0758  0.2397
 4768SOL    HW218838   4.791   1.881   3.927  0.6808  1.0363  2.2648
 4768SOL    HW318839   4.788   2.033   3.921 -0.9198  0.9566 -1.5666
 4768SOL    MW418840   4.749   1.956   3.910 -0.0780  0.2071  0.2686
 4769SOL     OW18841   5.420   1.202   5.205 -0.4379  0.2377  0.0211
 4769SOL    HW218842   5.327   1.222   5.212 -0.3220  0.2245  2.3855
 4769SOL    HW318843   5.464   1.280   5.239  0.3493 -0.3584  0.3972
 4769SOL    MW418844   5.413   1.215   5.211 -0.3187  0.1573  0.3827
 4770SOL     OW18845   0.349   4.995   4.005 -0.5910 -0.5266  0.3832
 4770SOL    HW218846   0.422   5.054   4.026  0.1377 -1.0197 -0.6694
 4770SOL    HW318847   0.387   4.931   3.944 -2.1648 -0.2105 -0.9907
 4770SOL    MW418848   0.364   4.994   4.000 -0.7025 -0.5500  0.0631
 4771SOL     OW18849   5.758   0.547   1.180  0.5181 -0.2162  0.3007
 4771SOL    HW218850   5.837   0.501   1.209  0.8315 -0.1839 -0.4717
 4771SOL    HW318851   5.736   0.606   1.252  1.0525 -0.4039  0.6220
 4771SOL    MW418852   5.765   0.548   1.193  0.6299 -0.2367  0.2412
 4772SOL     OW18853   0.642   2.927   0.331 -0.1223  0.0206  0.0299
 4772SOL    HW218854   0.689   2.868   0.273 -0.9988 -1.6582  0.9275
 4772SOL    HW318855   0.573   2.872   0.369 -1.5693  1.8699  0.2296
 4772SOL    MW418856   0.639   2.912   0.328 -0.4288  0.0431  0.1747
 4773SOL     OW18857   5.720   3.348   5.769 -0.3551  0.5440  0.6985
 4773SOL    HW218858   5.626   3.343   5.786 -0.2223 -2.2758  1.0567
 4773SOL    HW318859   5.761   3.332   5.854  0.4377  1.0807  0.4224
 4773SOL    MW418860   5.713   3.345   5.782 -0.2330  0.2428  0.7093
 4774SOL     OW18861   5.370   4.437   1.368  0.1291 -0.1250 -0.1886
 4774SOL    HW218862   5.399   4.376   1.435  0.5304 -0.2187 -0.4430
 4774SOL    HW318863   5.315   4.500   1.415  0.6606 -0.0066  0.2843
 4774SOL    MW418864   5.366   4.438   1.383  0.2522 -0.1218 -0.1598
 4775SOL     OW18865   3.335   4.894   1.557 -0.3385 -0.0578 -0.2588
 4775SOL    HW218866   3.278   4.858   1.489 -0.5755 -0.4519  0.1432
 4775SOL    HW318867   3.379   4.818   1.594 -0.9148  0.0361  0.6680
 4775SOL    MW418868   3.333   4.879   1.553 -0.4458 -0.0974 -0.0835
 4776SOL     OW18869   1.001   5.415   2.315 -0.0972 -0.3352 -0.3924
 4776SOL    HW218870   0.914   5.453   2.307 -0.8005 -1.5979  0.6569
 4776SOL    HW318871   1.004   5.380   2.405  0.3347 -2.9469 -1.3160
 4776SOL    MW418872   0.990   5.415   2.326 -0.1330 -0.8464 -0.3758
 4777SOL     OW18873   5.738   0.305   0.117 -0.4800  0.7037 -0.0178
 4777SOL    HW218874   5.828   0.340   0.123 -0.5102  0.7642  0.0953
 4777SOL    HW318875   5.695   0.339   0.195 -0.3396 -0.0903  0.4156
 4777SOL    MW418876   5.744   0.314   0.128 -0.4655  0.6069  0.0543
 4778SOL     OW18877   6.329   1.526   2.287 -0.1278  0.2418  0.1574
 4778SOL    HW218878   6.266   1.454   2.294  0.4357 -0.4395 -1.2396
 4778SOL    HW318879   6.358   1.523   2.196  2.6044 -0.0617  0.9500
 4778SOL    MW418880   6.324   1.516   2.276  0.3070  0.1119  0.0777
 4779SOL     OW18881   6.310   2.660   5.426 -0.3211  0.2239 -0.2622
 4779SOL    HW218882   6.374   2.592   5.406  0.6310  1.4026 -1.4348
 4779SOL    HW318883   6.340   2.698   5.508 -0.1915 -0.0107 -0.2009
 4779SOL    MW418884   6.323   2.656   5.434 -0.1783  0.3484 -0.4088
 4780SOL     OW18885   2.668   1.012   5.506  0.2428  0.2276 -0.2709
 4780SOL    HW218886   2.761   1.029   5.497  0.5714 -1.2768 -0.0536
 4780SOL    HW318887   2.663   0.932   5.558 -1.0753 -1.0144 -2.1385
 4780SOL    MW418888   2.679   1.004   5.512  0.1123 -0.1348 -0.4886
 4781SOL     OW18889   1.683   3.990   5.681 -0.6195  0.1765  0.2995
 4781SOL    HW218890   1.666   4.078   5.647 -1.2589 -0.5757 -1.4347
 4781SOL    HW318891   1.635   3.987   5.764 -0.2482  1.5784  0.5890
 4781SOL    MW418892   1.674   4.001   5.688 -0.6548  0.2622  0.1089
 4782SOL     OW18893   6.397   2.094   1.724 -0.3997 -0.4436  0.5224
 4782SOL    HW218894   6.445   2.070   1.803  0.1020 -0.3457  0.2508
 4782SOL    HW318895   6.308   2.064   1.740 -0.6553  0.8559  1.7210
 4782SOL    MW418896   6.392   2.087   1.736 -0.3672 -0.2592  0.6447
 4783SOL     OW18897   0.840   3.141   0.439  0.3874 -0.0532 -0.0744
 4783SOL    HW218898   0.832   3.231   0.471  0.2896 -0.3060  0.6255
 4783SOL    HW318899   0.753   3.103   0.450  0.9178 -0.8687  1.6161
 4783SOL    MW418900   0.827   3.148   0.445  0.4445 -0.1942  0.2410
 4784SOL     OW18901   0.957   6.275   4.511  0.2821 -0.1853  0.1267
 4784SOL    HW218902   0.907   6.195   4.494 -1.0945  0.5467  0.5970
 4784SOL    HW318903   0.899   6.346   4.484  1.1699  0.6987  0.4775
 4784SOL    MW418904   0.943   6.274   4.505  0.2176  0.0279  0.2350
 4785SOL     OW18905   6.009   5.826   2.897  0.2086 -0.4476  0.4563
 4785SOL    HW218906   6.021   5.880   2.819 -1.4242 -0.9314 -0.1742
 4785SOL    HW318907   6.007   5.736   2.865  1.9899 -0.8589  1.3880
 4785SOL    MW418908   6.010   5.821   2.882  0.2282 -0.5657  0.4960
 4786SOL     OW18909   1.159   5.826   2.323 -0.3575  0.2094 -0.0181
 4786SOL    HW218910   1.145   5.853   2.232  0.0481  2.6868  0.5770
 4786SOL    HW318911   1.249   5.852   2.343  0.3247 -2.2675  0.5246
 4786SOL    MW418912   1.169   5.833   2.314 -0.2139  0.2095  0.1320
 4787SOL     OW18913   0.570   5.442   1.224 -0.6318  0.2885 -0.2096
 4787SOL    HW218914   0.573   5.355   1.184 -1.3096 -0.2138  0.7838
 4787SOL    HW318915   0.642   5.490   1.183 -1.7723  0.0808 -2.5909
 4787SOL    MW418916   0.580   5.437   1.213 -0.8717  0.1948 -0.3927
 4788SOL     OW18917   6.091   4.285   2.263 -0.1799 -0.0134  0.3901
 4788SOL    HW218918   6.147   4.360   2.245 -1.0759  0.8175  1.0258
 4788SOL    HW318919   6.140   4.210   2.226  0.3440  0.9563 -0.9713
 4788SOL    MW418920   6.105   4.285   2.255 -0.2290  0.2242  0.2943
 4789SOL     OW18921   2.969   5.271   0.165 -0.1077 -0.0181 -0.4375
 4789SOL    HW218922   2.968   5.176   0.176 -0.1036  0.1987  2.2650
 4789SOL    HW318923   2.881   5.292   0.133 -0.8538 -0.8084  0.9733
 4789SOL    MW418924   2.957   5.261   0.162 -0.2056 -0.0937  0.1052
 4790SOL     OW18925   2.150   0.542   4.913  0.2401  0.0380  0.0651
 4790SOL    HW218926   2.133   0.623   4.865 -0.3374 -1.0688 -1.7323
 4790SOL    HW318927   2.188   0.570   4.996 -1.6451  2.2026  0.2700
 4790SOL    MW418928   2.153   0.556   4.917 -0.0848  0.1776 -0.1450
 4791SOL     OW18929   5.786   5.084   0.160 -0.5379  0.0140 -0.1430
 4791SOL    HW218930   5.818   5.024   0.093 -0.3483 -1.1686  0.9677
 4791SOL    HW318931   5.693   5.096   0.139 -0.9416 -1.8395  0.4251
 4791SOL    MW418932   5.778   5.078   0.149 -0.5661 -0.3866  0.0785
 4792SOL     OW18933   0.509   6.025   2.857  0.0610 -0.3324  0.2073
 4792SOL    HW218934   0.465   6.055   2.777 -0.3891  3.0464  1.5839
 4792SOL    HW318935   0.574   6.092   2.876  0.0139 -0.9013  2.7889
 4792SOL    MW418936   0.512   6.038   2.849 -0.0046  0.0383  0.7295
 4793SOL     OW18937   1.162   4.651   3.330 -0.7969 -0.5286  0.3161
 4793SOL    HW218938   1.208   4.681   3.251  0.5182 -1.8021  0.5439
 4793SOL    HW318939   1.231   4.647   3.397 -1.5571 -1.0680  1.0796
 4793SOL    MW418940   1.177   4.654   3.328 -0.7237 -0.7678  0.4469
 4794SOL     OW18941   3.255   0.810   2.420 -0.1340 -0.1388  0.3819
 4794SOL    HW218942   3.230   0.784   2.331 -3.9210  2.3943  0.5188
 4794SOL    HW318943   3.244   0.730   2.472  1.7380 -1.5465 -1.2009
 4794SOL    MW418944   3.250   0.796   2.415 -0.3866  0.0097  0.1911
 4795SOL     OW18945   2.269   5.400   1.987 -0.1577  0.2991 -0.1061
 4795SOL    HW218946   2.241   5.442   2.068 -1.8792  3.9910 -2.3628
 4795SOL    HW318947   2.218   5.319   1.983 -0.3105  0.2230  2.2540
 4795SOL    MW418948   2.258   5.395   1.997 -0.4050  0.7761 -0.0924
 4796SOL     OW18949   0.567   1.320   2.936 -0.2007  0.4730 -0.3190
 4796SOL    HW218950   0.520   1.251   2.983  1.6889 -0.9980 -0.4682
 4796SOL    HW318951   0.535   1.314   2.846 -0.4106  0.1323 -0.2236
 4796SOL    MW418952   0.557   1.311   2.930  0.0209  0.2340 -0.3261
 4797SOL     OW18953   3.351   1.630   3.335 -0.6636 -0.2749 -0.6613
 4797SOL    HW218954   3.281   1.623   3.400 -0.9473 -0.7662 -1.0166
 4797SOL    HW318955   3.410   1.697   3.371  0.2226 -1.8683  1.1136
 4797SOL    MW418956   3.350   1.638   3.349 -0.5841 -0.5499 -0.4740
 4798SOL     OW18957   0.222   4.379   2.389  0.5502  0.2138  0.4132
 4798SOL    HW218958   0.303   4.337   2.362 -0.1908 -1.0967  0.1598
 4798SOL    HW318959   0.192   4.426   2.312  1.8574  2.0766  0.9576
 4798SOL    MW418960   0.229   4.380   2.375  0.6249  0.2867  0.4516
 4799SOL     OW18961   3.245   6.401   2.579 -0.0243  0.5368 -0.8898
 4799SOL    HW218962   3.231   6.479   2.525  1.1790  2.5047  1.4393
 4799SOL    HW318963   3.338   6.382   2.571  0.1292  0.7227  0.2733
 4799SOL    MW418964   3.255   6.409   2.571  0.1547  0.8210 -0.4291
 4800SOL     OW18965   1.437   0.504   2.756  0.2402 -0.4578 -0.4314
 4800SOL    HW218966   1.439   0.498   2.852  2.5725 -2.7182 -0.5323
 4800SOL    HW318967   1.521   0.541   2.732 -0.3341  0.1186 -1.6506
 4800SOL    MW418968   1.448   0.508   2.766  0.4721 -0.6800 -0.6056
 4801SOL     OW18969   0.240   4.660   0.275  0.1662  0.2945  0.0607
 4801SOL    HW218970   0.176   4.629   0.339  1.4416  1.8711  2.2542
 4801SOL    HW318971   0.224   4.754   0.268  0.9369  0.3763 -0.9271
 4801SOL    MW418972   0.229   4.668   0.283  0.4361  0.5133  0.2198
 4802SOL     OW18973   4.962   2.295   3.367  0.5984 -0.0555 -0.0495
 4802SOL    HW218974   4.878   2.326   3.334  1.1912  0.3926 -1.1923
 4802SOL    HW318975   4.976   2.211   3.322  0.5614 -0.3584  0.4895
 4802SOL    MW418976   4.953   2.288   3.357  0.6717 -0.0363 -0.1292
 4803SOL     OW18977   6.148   1.105   5.649 -0.4658 -0.1753  0.8092
 4803SOL    HW218978   6.180   1.019   5.621 -1.8345 -0.6443  0.6152
 4803SOL    HW318979   6.145   1.158   5.570  0.7138  0.1746  0.9870
 4803SOL    MW418980   6.152   1.101   5.635 -0.4907 -0.1910  0.8071
 4804SOL     OW18981   4.874   4.181   4.571  0.2366 -0.6444 -0.1406
 4804SOL    HW218982   4.863   4.186   4.666  0.1383 -0.5553 -0.1557
 4804SOL    HW318983   4.814   4.112   4.543 -0.4883  0.0052 -0.2506
 4804SOL    MW418984   4.865   4.173   4.580  0.1280 -0.5469 -0.1571
 4805SOL     OW18985   5.704   6.326   1.309 -0.0176 -0.7020  0.3111
 4805SOL    HW218986   5.739   6.298   1.225  1.4799  0.6431  0.4310
 4805SOL    HW318987   5.735   6.260   1.371  0.7278 -0.5534  0.1111
 4805SOL    MW418988   5.713   6.314   1.306  0.2783 -0.5050  0.3005
 4806SOL     OW18989   4.977   5.670   2.207 -0.4316  0.1136  0.0842
 4806SOL    HW218990   4.954   5.637   2.294 -2.6300 -0.3242 -0.5917
 4806SOL    HW318991   5.001   5.591   2.158  1.5639  0.4410  0.4432
 4806SOL    MW418992   4.977   5.655   2.212 -0.4584  0.0990  0.0424
 4807SOL     OW18993   0.566   0.818   3.358  0.1233 -0.0425  0.4220
 4807SOL    HW218994   0.516   0.900   3.361  2.2859  1.3179  2.5114
 4807SOL    HW318995   0.646   0.841   3.311  0.4610 -1.1748  0.4162
 4807SOL    MW418996   0.570   0.832   3.352  0.4532 -0.0124  0.6969
 4808SOL     OW18997   0.205   4.595   6.033 -0.0224 -0.0791  0.1022
 4808SOL    HW218998   0.286   4.636   6.002  0.0195  1.4988  2.1222
 4808SOL    HW318999   0.148   4.596   5.956  1.2692  0.3766 -0.8976
 4808SOL    MW419000   0.209   4.601   6.019  0.1535  0.1892  0.2368
 4809SOL     OW19001   4.101   1.716   4.697  0.0338  0.9950  0.2580
 4809SOL    HW219002   4.038   1.667   4.644 -0.4831  0.9214  0.9309
 4809SOL    HW319003   4.057   1.797   4.719  0.2404  1.0164  0.5969
 4809SOL    MW419004   4.087   1.720   4.693 -0.0072  0.9881  0.3915
 4810SOL     OW19005   3.995   4.227   3.509  0.2896  0.4020  0.3433
 4810SOL    HW219006   3.942   4.166   3.562 -0.3070  1.3460  0.8630
 4810SOL    HW319007   3.969   4.314   3.539  1.5800  0.9157  0.0414
 4810SOL    MW419008   3.984   4.230   3.520  0.3811  0.5943  0.3720
 4811SOL     OW19009   0.220   4.396   2.811 -0.7956  0.0494  0.0767
 4811SOL    HW219010   0.287   4.338   2.774 -0.9398 -0.1130  0.0691
 4811SOL    HW319011   0.184   4.347   2.885 -0.7937  0.2042  0.1803
 4811SOL    MW419012   0.224   4.382   2.816 -0.8144  0.0484  0.0894
 4812SOL     OW19013   2.688   5.186   2.352 -0.2297 -0.4143 -0.4238
 4812SOL    HW219014   2.757   5.197   2.418 -0.3312  1.1236 -0.5320
 4812SOL    HW319015   2.731   5.141   2.280 -0.1444 -2.2345  0.7115
 4812SOL    MW419016   2.703   5.182   2.351 -0.2319 -0.4515 -0.2883
 4813SOL     OW19017   4.627   4.585   2.824 -0.1648 -0.3423 -0.3207
 4813SOL    HW219018   4.721   4.591   2.806 -0.6553  1.1499 -2.9108
 4813SOL    HW319019   4.618   4.608   2.916  1.8485  1.6099 -0.5296
 4813SOL    MW419020   4.638   4.589   2.833  0.0361  0.1122 -0.6900
 4814SOL     OW19021   3.297   6.029   5.686  0.1196 -0.0494 -0.0300
 4814SOL    HW219022   3.311   5.934   5.689  0.8003 -0.0538 -2.0588
 4814SOL    HW319023   3.292   6.054   5.778  3.0313 -1.6350  0.7056
 4814SOL    MW419024   3.298   6.019   5.699  0.5936 -0.2592 -0.2007
 4815SOL     OW19025   3.018   3.146   0.935 -0.4168  0.4594  0.2561
 4815SOL    HW219026   2.923   3.141   0.942 -0.3811 -1.8600  0.1019
 4815SOL    HW319027   3.034   3.163   0.842 -0.7024 -0.3520  0.0465
 4815SOL    MW419028   3.008   3.147   0.924 -0.4498  0.0463  0.2081
 4816SOL     OW19029   1.034   6.221   3.847  0.1209 -0.0986 -0.3627
 4816SOL    HW219030   1.119   6.189   3.878 -0.1288 -0.1283  0.2991
 4816SOL    HW319031   0.987   6.246   3.926  0.0102  1.1886 -0.8059
 4816SOL    MW419032   1.039   6.220   3.861  0.0733  0.0673 -0.3339
 4817SOL     OW19033   2.332   2.575   5.278 -0.0588 -0.1619  0.3928
 4817SOL    HW219034   2.427   2.571   5.263 -0.0928  1.1739 -0.4102
 4817SOL    HW319035   2.315   2.668   5.295 -1.1020 -0.5427  1.5060
 4817SOL    MW419036   2.342   2.587   5.278 -0.2009 -0.0359  0.4337
 4818SOL     OW19037   2.947   1.225   4.795  0.2737 -0.2194  0.1727
 4818SOL    HW219038   3.004   1.199   4.722 -0.0661  0.3226 -0.2871
 4818SOL    HW319039   3.007   1.249   4.865  0.6075 -1.6727  0.4173
 4818SOL    MW419040   2.962   1.225   4.795  0.2729 -0.3396  0.1443
 4819SOL     OW19041   4.315   5.544   3.046 -0.1553 -0.3107  0.4540
 4819SOL    HW219042   4.351   5.624   3.084 -2.8908  2.0418 -1.4338
 4819SOL    HW319043   4.227   5.537   3.085 -0.9541 -0.8535 -1.3571
 4819SOL    MW419044   4.308   5.553   3.056 -0.6216 -0.0719 -0.0340
 4820SOL     OW19045   5.553   1.699   4.965 -0.0520 -0.0278  0.5025
 4820SOL    HW219046   5.499   1.775   4.946  0.6448  0.3417 -0.0460
 4820SOL    HW319047   5.539   1.640   4.891 -0.1547 -0.1935  0.6508
 4820SOL    MW419048   5.544   1.701   4.953  0.0264 -0.0009  0.4497
 4821SOL     OW19049   3.945   4.208   4.825 -0.3069  0.2829  0.0260
 4821SOL    HW219050   4.018   4.165   4.780  0.6943  0.2338  1.6212
 4821SOL    HW319051   3.941   4.296   4.788  0.4482  0.2224 -0.1994
 4821SOL    MW419052   3.954   4.214   4.814 -0.0752  0.2684  0.2067
 4822SOL     OW19053   0.999   3.792   3.232  0.5669  0.0480 -0.5347
 4822SOL    HW219054   1.088   3.773   3.201  0.6904 -1.0900  0.4731
 4822SOL    HW319055   0.990   3.742   3.312 -0.9990  0.1664 -0.6085
 4822SOL    MW419056   1.010   3.783   3.238  0.3766 -0.0865 -0.4115
 4823SOL     OW19057   0.904   5.454   0.774 -0.3412  0.5888 -0.2809
 4823SOL    HW219058   0.967   5.475   0.706  0.5195  2.3853  0.9962
 4823SOL    HW319059   0.948   5.477   0.856 -1.6872 -0.5952  0.8349
 4823SOL    MW419060   0.918   5.460   0.776 -0.4052  0.6696  0.0348
 4824SOL     OW19061   3.436   2.789   2.393  0.3554  0.3582  0.1083
 4824SOL    HW219062   3.467   2.707   2.431 -1.3081  0.1898  1.1881
 4824SOL    HW319063   3.502   2.853   2.417  1.9761 -0.7337 -1.2311
 4824SOL    MW419064   3.449   2.786   2.401  0.3497  0.1919  0.0740
 4825SOL     OW19065   0.680   1.720   4.125  0.4629  0.4927 -0.1200
 4825SOL    HW219066   0.598   1.672   4.122  1.0857 -0.5967 -0.0874
 4825SOL    HW319067   0.657   1.808   4.095 -0.5698 -0.0069 -0.8682
 4825SOL    MW419068   0.666   1.725   4.121  0.4088  0.2831 -0.2144
 4826SOL     OW19069   0.236   5.719   6.164 -0.6985  0.0420  0.2965
 4826SOL    HW219070   0.262   5.748   6.252 -1.9804 -0.2371  0.7873
 4826SOL    HW319071   0.170   5.653   6.179  0.4864 -1.4831 -0.8720
 4826SOL    MW419072   0.231   5.714   6.178 -0.7113 -0.1960  0.2071
 4827SOL     OW19073   3.190   1.884   2.835  0.1440 -0.0336 -0.0818
 4827SOL    HW219074   3.237   1.844   2.907  1.8189  1.9261  0.0018
 4827SOL    HW319075   3.222   1.840   2.757  1.5775  0.7355  0.0478
 4827SOL    MW419076   3.200   1.873   2.834  0.5541  0.3264 -0.0537
 4828SOL     OW19077   3.115   4.794   1.077 -0.1758  0.0243  0.1186
 4828SOL    HW219078   3.210   4.793   1.066 -0.1567 -2.0413  0.1873
 4828SOL    HW319079   3.102   4.815   1.170  0.1885  0.5255  0.0618
 4828SOL    MW419080   3.126   4.797   1.088 -0.1252 -0.1821  0.1201
 4829SOL     OW19081   5.330   0.536   5.215  0.3048 -0.2634 -0.5174
 4829SOL    HW219082   5.237   0.538   5.191  0.3002 -1.0290 -0.5798
 4829SOL    HW319083   5.374   0.587   5.147 -0.0146 -0.3109 -0.7618
 4829SOL    MW419084   5.324   0.543   5.203  0.2621 -0.3707 -0.5579
 4830SOL     OW19085   1.317   5.053   0.177 -0.1505 -0.1815 -0.2219
 4830SOL    HW219086   1.264   5.080   0.252 -1.6580  1.7554 -1.8774
 4830SOL    HW319087   1.365   5.132   0.152  0.1280 -0.7164 -1.4446
 4830SOL    MW419088   1.317   5.067   0.184 -0.3126  0.0035 -0.6016
 4831SOL     OW19089   0.621   5.393   6.276 -0.3967 -0.1183 -0.5573
 4831SOL    HW219090   0.707   5.432   6.262 -0.7328  0.4615 -1.0456
 4831SOL    HW319091   0.571   5.461   6.320 -0.4906 -0.5970  0.0897
 4831SOL    MW419092   0.626   5.407   6.280 -0.4534 -0.1050 -0.5364
 4832SOL     OW19093   6.231   5.660   2.748 -0.2124  0.0118  0.0193
 4832SOL    HW219094   6.200   5.736   2.700 -1.4254 -0.4974 -0.0289
 4832SOL    HW319095   6.244   5.593   2.681 -1.8808 -0.6924  0.3542
 4832SOL    MW419096   6.229   5.661   2.733 -0.5926 -0.1483  0.0571
 4833SOL     OW19097   5.302   1.865   5.025  0.0358 -0.1848  0.2305
 4833SOL    HW219098   5.292   1.928   5.097  2.9558  0.0399  0.5447
 4833SOL    HW319099   5.285   1.917   4.946  0.4601  0.5109  0.5844
 4833SOL    MW419100   5.298   1.880   5.024  0.4770 -0.0634  0.3186
 4834SOL     OW19101   1.496   0.882   3.634 -0.6545 -0.3488 -0.4651
 4834SOL    HW219102   1.403   0.876   3.614 -0.2062 -0.9777 -2.6443
 4834SOL    HW319103   1.539   0.846   3.556  1.3484 -2.5078  1.4777
 4834SOL    MW419104   1.490   0.876   3.621 -0.3311 -0.7166 -0.4963
 4835SOL     OW19105   1.759   1.182   1.414  0.4268  0.3193  0.4971
 4835SOL    HW219106   1.687   1.224   1.462 -0.6087 -0.2007 -0.5431
 4835SOL    HW319107   1.766   1.232   1.332 -0.1151 -0.8413 -0.2895
 4835SOL    MW419108   1.750   1.194   1.409  0.2187  0.0975  0.2561
 4836SOL     OW19109   5.243   4.670   4.549  0.3029  0.0945 -0.2594
 4836SOL    HW219110   5.164   4.644   4.598  0.7008 -0.4493  0.1069
 4836SOL    HW319111   5.309   4.685   4.616  0.7647 -0.3416 -0.6087
 4836SOL    MW419112   5.241   4.669   4.564  0.4164 -0.0348 -0.2572
 4837SOL     OW19113   6.156   1.816   0.183  0.6566  0.0078 -0.0410
 4837SOL    HW219114   6.220   1.848   0.247 -0.1695  2.9007 -0.5000
 4837SOL    HW319115   6.077   1.801   0.234  0.6036  0.2479 -0.0502
 4837SOL    MW419116   6.154   1.818   0.198  0.5406  0.4212 -0.1028
 4838SOL     OW19117   0.966   3.172   5.346  0.1967 -0.6323  0.2026
 4838SOL    HW219118   0.918   3.245   5.309 -1.0376 -0.9099  1.1866
 4838SOL    HW319119   1.059   3.196   5.337 -0.1797  0.9339  0.2967
 4838SOL    MW419120   0.972   3.185   5.340 -0.0158 -0.4623  0.3448
 4839SOL     OW19121   1.742   3.106   1.345 -0.8096 -0.5931  0.3630
 4839SOL    HW219122   1.719   3.144   1.261 -0.4854 -0.9716  0.0979
 4839SOL    HW319123   1.783   3.022   1.323  0.2031 -0.2350  0.8427
 4839SOL    MW419124   1.744   3.100   1.331 -0.6332 -0.5958  0.3913
 4840SOL     OW19125   2.847   1.922   5.555  0.2251  0.0075 -0.4905
 4840SOL    HW219126   2.804   1.979   5.618 -0.0874 -1.4549  0.7014
 4840SOL    HW319127   2.786   1.849   5.543  0.2053  0.3291 -2.6540
 4840SOL    MW419128   2.834   1.920   5.562  0.1812 -0.1430 -0.6187
 4841SOL     OW19129   2.838   2.200   0.909  0.2346  0.0528 -0.2678
 4841SOL    HW219130   2.897   2.252   0.964  1.9215 -2.0794  0.0795
 4841SOL    HW319131   2.787   2.148   0.971 -3.4578  3.0812 -0.4535
 4841SOL    MW419132   2.839   2.200   0.925 -0.0300  0.1710 -0.2465
 4842SOL     OW19133   5.404   5.834   2.151 -0.5393  0.4202  0.0848
 4842SOL    HW219134   5.408   5.921   2.111 -0.1390  0.5576  0.4166
 4842SOL    HW319135   5.331   5.839   2.212 -0.9050  0.3311 -0.3417
 4842SOL    MW419136   5.395   5.846   2.154 -0.5347  0.4266  0.0723
 4843SOL     OW19137   5.886   4.972   0.808 -0.3520 -0.4095 -0.7904
 4843SOL    HW219138   5.815   5.031   0.783 -1.6138 -1.4448  0.1499
 4843SOL    HW319139   5.959   4.995   0.751 -0.9534  1.7014 -0.7880
 4843SOL    MW419140   5.886   4.982   0.797 -0.5978 -0.2676 -0.6661
 4844SOL     OW19141   1.482   0.492   3.798 -0.2682  0.0278  0.0430
 4844SOL    HW219142   1.550   0.559   3.799  0.9329 -1.1485 -0.2804
 4844SOL    HW319143   1.497   0.441   3.877  0.4046 -1.3499 -0.9399
 4844SOL    MW419144   1.493   0.494   3.808 -0.0210 -0.3091 -0.1294
 4845SOL     OW19145   5.530   1.627   0.984  0.1365  0.2658 -0.1581
 4845SOL    HW219146   5.583   1.613   1.062 -0.0118 -0.6804 -0.2164
 4845SOL    HW319147   5.459   1.684   1.013  0.4733  0.5001  0.2169
 4845SOL    MW419148   5.528   1.633   0.998  0.1614  0.1719 -0.1163
 4846SOL     OW19149   1.913   0.166   0.375  0.7763  0.0198  0.7414
 4846SOL    HW219150   1.867   0.119   0.445  0.5221 -0.0716  0.5190
 4846SOL    HW319151   2.004   0.139   0.384  0.6616 -0.3868  0.7248
 4846SOL    MW419152   1.919   0.156   0.385  0.7277 -0.0459  0.7099
 4847SOL     OW19153   1.089   6.385   2.508 -0.1349  0.2781 -0.3877
 4847SOL    HW219154   1.135   6.414   2.430  0.9960  0.4864  0.3274
 4847SOL    HW319155   1.099   6.289   2.507  0.5048  0.3355 -0.1375
 4847SOL    MW419156   1.097   6.376   2.498  0.0987  0.3132 -0.2604
 4848SOL     OW19157   0.480   1.710   0.103 -0.5456  0.0131  0.6106
 4848SOL    HW219158   0.499   1.672   0.189  0.2467  0.7976  0.7951
 4848SOL    HW319159   0.394   1.674   0.080  0.3136 -2.2135  0.5812
 4848SOL    MW419160   0.471   1.700   0.112 -0.3277 -0.1771  0.6310
 4849SOL     OW19161   4.363   3.312   0.523 -0.9473  0.3168  0.3495
 4849SOL    HW219162   4.308   3.380   0.484 -2.2337 -0.1713  1.2570
 4849SOL    HW319163   4.439   3.360   0.556 -0.7395  0.9876 -1.0202
 4849SOL    MW419164   4.366   3.328   0.522 -1.0896  0.3409  0.2885
 4850SOL     OW19165   5.135   0.042   4.471 -0.8173 -0.5896  0.3541
 4850SOL    HW219166   5.213   0.047   4.526 -0.3834 -0.4914 -0.2600
 4850SOL    HW319167   5.163  -0.009   4.395 -1.5337 -1.1019  0.4226
 4850SOL    MW419168   5.149   0.036   4.468 -0.8545 -0.6443  0.2821
 4851SOL     OW19169   5.676   0.653   0.692 -0.7139  0.1680 -0.0452
 4851SOL    HW219170   5.754   0.598   0.697 -0.7654  0.1414  0.5452
 4851SOL    HW319171   5.682   0.710   0.769 -0.8372  0.7538 -0.4624
 4851SOL    MW419172   5.687   0.654   0.703 -0.7369  0.2418 -0.0223
 4852SOL     OW19173   3.287   4.358   4.692 -0.0684  0.0962  0.2127
 4852SOL    HW219174   3.340   4.432   4.662 -0.6971 -0.0228 -1.2487
 4852SOL    HW319175   3.280   4.300   4.617 -1.9296 -0.0745  0.4523
 4852SOL    MW419176   3.293   4.360   4.678 -0.3969  0.0580  0.0515
 4853SOL     OW19177   1.367   2.281   0.285  0.7270  0.7534  0.4908
 4853SOL    HW219178   1.405   2.276   0.373  0.1222  0.6631  0.7476
 4853SOL    HW319179   1.431   2.235   0.229  0.4283 -0.4485  1.1096
 4853SOL    MW419180   1.381   2.274   0.289  0.6078  0.5829  0.6063
 4854SOL     OW19181   1.710   3.776   3.151  0.0439  0.0665 -0.3414
 4854SOL    HW219182   1.713   3.829   3.231 -2.6607  0.0524 -0.1390
 4854SOL    HW319183   1.681   3.837   3.083  0.6364 -0.3257 -0.9670
 4854SOL    MW419184   1.707   3.791   3.153 -0.2347  0.0129 -0.3973
 4855SOL     OW19185   1.984   4.492   1.170  0.1183  0.3770 -0.5284
 4855SOL    HW219186   1.970   4.408   1.127  2.4413 -0.2391 -0.2045
 4855SOL    HW319187   2.007   4.469   1.260 -1.2773  1.4958  0.1557
 4855SOL    MW419188   1.985   4.478   1.176  0.2407  0.4433 -0.3954
 4856SOL     OW19189   3.935   2.770   5.036 -0.2528  0.1726 -0.5740
 4856SOL    HW219190   3.932   2.758   4.941 -0.4709  0.8201 -0.6578
 4856SOL    HW319191   3.843   2.766   5.064 -0.1884 -0.0253 -0.3908
 4856SOL    MW419192   3.922   2.768   5.027 -0.2730  0.2319 -0.5609
 4857SOL     OW19193   6.264   0.548   0.969  0.2760 -0.2457  0.0025
 4857SOL    HW219194   6.208   0.473   0.987 -1.0412  0.6136 -0.3702
 4857SOL    HW319195   6.345   0.511   0.934  0.4675 -1.5946  1.7111
 4857SOL    MW419196   6.268   0.534   0.967  0.1275 -0.3103  0.1788
 4858SOL     OW19197   3.026   3.956   4.156 -0.0057 -0.3436  0.6404
 4858SOL    HW219198   3.072   3.995   4.082 -0.3513 -0.8381  0.1609
 4858SOL    HW319199   2.933   3.966   4.134 -0.1509  0.5843  1.5643
 4858SOL    MW419200   3.020   3.963   4.144 -0.0705 -0.2864  0.6991
 4859SOL     OW19201   2.489   0.164   3.895 -0.1031 -0.5286 -0.0540
 4859SOL    HW219202   2.415   0.151   3.955 -1.6591 -1.8743 -2.1103
 4859SOL    HW319203   2.543   0.231   3.937 -1.8676 -0.3580  2.1074
 4859SOL    MW419204   2.486   0.171   3.909 -0.5412 -0.6837 -0.0402
 4860SOL     OW19205   1.955   1.971   1.966  0.2456 -0.3864  0.6083
 4860SOL    HW219206   1.989   1.972   2.056 -0.7349  0.4645  0.9891
 4860SOL    HW319207   1.957   2.063   1.939  0.2456 -0.6003 -0.1306
 4860SOL    MW419208   1.960   1.984   1.974  0.1162 -0.3023  0.5611
 4861SOL     OW19209   0.210   2.352   3.213 -0.1458 -0.7713  0.1287
 4861SOL    HW219210   0.255   2.295   3.276  0.1498 -2.5543 -1.5851
 4861SOL    HW319211   0.205   2.300   3.133  1.1794  2.0560 -1.9669
 4861SOL    MW419212   0.215   2.337   3.211  0.0681 -0.6335 -0.3739
 4862SOL     OW19213   3.843   3.601   6.131 -0.7777  0.0246 -0.1281
 4862SOL    HW219214   3.895   3.533   6.088  0.3940 -0.0145  1.2715
 4862SOL    HW319215   3.906   3.670   6.151 -2.1485  2.1874 -2.6537
 4862SOL    MW419216   3.858   3.601   6.128 -0.8040  0.3048 -0.2767
 4863SOL     OW19217   5.059   3.583   2.877 -0.3604 -0.0177  0.0140
 4863SOL    HW219218   5.047   3.602   2.970  1.9792  0.7990  0.2145
 4863SOL    HW319219   5.025   3.661   2.832 -0.0907  0.2503  0.2702
 4863SOL    MW419220   5.053   3.596   2.883 -0.0161  0.1254  0.0742
 4864SOL     OW19221   0.291   2.994   1.906  0.2149 -0.3521  0.0863
 4864SOL    HW219222   0.255   3.066   1.855  1.8988  0.6660  0.2647
 4864SOL    HW319223   0.324   3.035   1.985  0.6679 -1.4175  0.4664
 4864SOL    MW419224   0.291   3.009   1.910  0.4968 -0.3583  0.1600
 4865SOL     OW19225   0.469   3.156   3.715  0.1057 -0.3485 -0.6412
 4865SOL    HW219226   0.415   3.144   3.793  0.2254 -1.0471 -0.6643
 4865SOL    HW319227   0.455   3.248   3.690  0.3109 -0.0200  0.3898
 4865SOL    MW419228   0.460   3.167   3.722  0.1485 -0.3974 -0.5082
 4866SOL     OW19229   5.563   1.634   1.275  0.3920 -0.0813  0.5086
 4866SOL    HW219230   5.469   1.647   1.278  0.3842 -0.2355  1.0900
 4866SOL    HW319231   5.600   1.723   1.281  0.2807  0.0017 -0.0503
 4866SOL    MW419232   5.556   1.647   1.276  0.3762 -0.0907  0.5116
 4867SOL     OW19233   3.221   0.795   0.366  0.6598 -0.3118 -0.5966
 4867SOL    HW219234   3.165   0.728   0.326  0.2069 -0.7358  0.7008
 4867SOL    HW319235   3.192   0.877   0.326 -2.1779 -0.2691  1.2877
 4867SOL    MW419236   3.210   0.797   0.355  0.2257 -0.3621 -0.1768
 4868SOL     OW19237   6.362   4.378   4.620 -0.3996 -0.3123 -0.1331
 4868SOL    HW219238   6.394   4.461   4.585 -1.1701 -0.2219 -0.6461
 4868SOL    HW319239   6.441   4.329   4.641  0.0664  0.4642 -0.0238
 4868SOL    MW419240   6.377   4.383   4.619 -0.4398 -0.1979 -0.1864
 4869SOL     OW19241   0.738   6.074   5.805  0.1496  0.1504  0.4558
 4869SOL    HW219242   0.656   6.030   5.784  0.3352  0.4001 -0.8880
 4869SOL    HW319243   0.736   6.085   5.900 -0.8541 -0.8485  0.5737
 4869SOL    MW419244   0.727   6.069   5.815  0.0416  0.0516  0.2941
 4870SOL     OW19245   2.356   0.018   2.525  0.4081 -0.5538 -0.1253
 4870SOL    HW219246   2.422   0.070   2.570 -0.1114  1.0804 -1.1339
 4870SOL    HW319247   2.275   0.033   2.574  0.2454 -0.3470 -0.4501
 4870SOL    MW419248   2.354   0.027   2.537  0.3181 -0.3109 -0.3012
 4871SOL     OW19249   2.387   5.047   3.191 -0.3756 -0.2890 -0.0025
 4871SOL    HW219250   2.469   5.069   3.235 -1.0531  1.0165  0.6677
 4871SOL    HW319251   2.404   5.060   3.098  0.1780 -0.0506  0.1296
 4871SOL    MW419252   2.400   5.051   3.185 -0.3920 -0.0853  0.1033
 4872SOL     OW19253   4.051   2.479   4.888 -0.1646  0.1862  0.2458
 4872SOL    HW219254   4.131   2.529   4.871 -0.3080 -0.0679 -1.2487
 4872SOL    HW319255   4.036   2.491   4.982  0.3027  2.1818  0.1141
 4872SOL    MW419256   4.060   2.487   4.898 -0.1218  0.4160  0.0312
 4873SOL     OW19257   3.217   6.120   6.340  0.1496  0.3741 -0.2495
 4873SOL    HW219258   3.282   6.104   6.408 -0.5705  0.7391  0.5560
 4873SOL    HW319259   3.261   6.175   6.276  1.0350 -0.4917 -0.4129
 4873SOL    MW419260   3.231   6.125   6.340  0.1714  0.3080 -0.1648
 4874SOL     OW19261   5.218   2.878   1.282 -0.3250 -0.0582 -0.1692
 4874SOL    HW219262   5.128   2.883   1.314 -0.4141 -0.7683 -0.2794
 4874SOL    HW319263   5.272   2.893   1.359 -0.5299  0.8571 -0.1929
 4874SOL    MW419264   5.214   2.881   1.296 -0.3638 -0.0311 -0.1869
 4875SOL     OW19265   5.415   2.472   0.222  0.0416 -0.0695  0.3504
 4875SOL    HW219266   5.493   2.423   0.194  0.2636 -0.0788  0.9817
 4875SOL    HW319267   5.342   2.420   0.188  0.2917 -0.4704  0.4111
 4875SOL    MW419268   5.416   2.458   0.214  0.1038 -0.1236  0.4417
 4876SOL     OW19269   1.379   5.193   3.164 -0.0475 -0.5429 -0.6294
 4876SOL    HW219270   1.454   5.246   3.137 -0.5952  0.1945 -0.7557
 4876SOL    HW319271   1.340   5.243   3.236  0.4361 -1.6583  0.4379
 4876SOL    MW419272   1.384   5.207   3.170 -0.0560 -0.5928 -0.5052
 4877SOL     OW19273   1.531   2.343   5.692 -0.1841 -0.4599 -0.1790
 4877SOL    HW219274   1.543   2.386   5.776  0.3595 -1.0426  0.0539
 4877SOL    HW319275   1.519   2.251   5.713  0.3679 -0.6751 -0.7544
 4877SOL    MW419276   1.531   2.337   5.706 -0.0396 -0.5652 -0.2242
 4878SOL     OW19277   3.250   5.917   3.887  0.4744  0.3276  0.2688
 4878SOL    HW219278   3.289   5.831   3.876  1.0960  0.4720  1.1902
 4878SOL    HW319279   3.241   5.952   3.798 -0.7876 -1.0968 -0.1999
 4878SOL    MW419280   3.254   5.910   3.874  0.3899  0.1587  0.3285
 4879SOL     OW19281   3.288   6.159   5.411  0.0272  0.0790  0.1256
 4879SOL    HW219282   3.355   6.221   5.382 -0.4203  1.2553  1.4221
 4879SOL    HW319283   3.308   6.145   5.504  0.4398 -2.2043 -0.2636
 4879SOL    MW419284   3.300   6.166   5.420  0.0226 -0.0671  0.2453
 4880SOL     OW19285   1.850   2.958   1.982  0.2709 -0.3796 -0.4215
 4880SOL    HW219286   1.852   2.982   1.890  0.9929  1.1430 -0.0489
 4880SOL    HW319287   1.917   3.013   2.022  0.6978 -1.7516  0.8524
 4880SOL    MW419288   1.859   2.968   1.975  0.4225 -0.3598 -0.2042
 4881SOL     OW19289   5.400   2.903   4.347  0.1259 -0.4442  0.1025
 4881SOL    HW219290   5.310   2.872   4.345  0.2485 -0.9357  1.3599
 4881SOL    HW319291   5.397   2.980   4.404  0.5497 -0.6748  0.4432
 4881SOL    MW419292   5.388   2.909   4.354  0.1980 -0.5395  0.3133
 4882SOL     OW19293   3.844   4.107   5.194  0.3573 -0.4427 -0.1355
 4882SOL    HW219294   3.780   4.072   5.132 -0.6925 -3.3200  2.3590
 4882SOL    HW319295   3.887   4.178   5.146 -3.4582  0.5379 -2.5594
 4882SOL    MW419296   3.841   4.112   5.179 -0.2846 -0.6929 -0.1262
 4883SOL     OW19297   4.936   5.566   2.471  0.8908 -0.0018 -0.5103
 4883SOL    HW219298   4.912   5.484   2.428 -1.0954 -0.0282  0.5220
 4883SOL    HW319299   5.000   5.541   2.537 -0.6474 -0.9930  0.6754
 4883SOL    MW419300   4.941   5.552   2.474  0.4258 -0.1360 -0.2177
 4884SOL     OW19301   5.254   1.993   1.790 -0.3354 -0.1531  0.2438
 4884SOL    HW219302   5.192   2.043   1.737  0.2432  0.4196  0.0905
 4884SOL    HW319303   5.210   1.983   1.875 -0.9009 -0.3163 -0.0645
 4884SOL    MW419304   5.240   1.998   1.794 -0.3337 -0.0991  0.1829
 4885SOL     OW19305   3.417   3.364   5.776 -0.0345  0.1378 -0.6894
 4885SOL    HW219306   3.437   3.379   5.868 -0.1780 -3.5594  0.1006
 4885SOL    HW319307   3.339   3.417   5.759  0.0923  1.0238  1.2430
 4885SOL    MW419308   3.410   3.373   5.786 -0.0367 -0.2331 -0.3302
 4886SOL     OW19309   4.127   2.079   4.076 -0.0754  0.2114 -0.6115
 4886SOL    HW219310   4.137   2.141   4.148  0.5595  1.7628 -1.9743
 4886SOL    HW319311   4.035   2.054   4.078 -0.2295  0.8106  0.2845
 4886SOL    MW419312   4.116   2.084   4.086 -0.0119  0.4951 -0.6731
 4887SOL     OW19313   6.069   6.160   0.373  0.4932  0.2680 -0.7016
 4887SOL    HW219314   5.990   6.123   0.412  0.6667 -0.7511 -1.2864
 4887SOL    HW319315   6.129   6.087   0.364  0.9754  0.7478 -1.5769
 4887SOL    MW419316   6.066   6.146   0.377  0.5797  0.1969 -0.8942
 4888SOL     OW19317   5.289   3.582   6.107  0.5783 -0.8679  0.0428
 4888SOL    HW219318   5.340   3.514   6.152 -1.0812 -1.6941  0.7683
 4888SOL    HW319319   5.256   3.638   6.178  0.7478 -0.1403 -0.4393
 4888SOL    MW419320   5.291   3.580   6.122  0.3817 -0.8809  0.0749
 4889SOL     OW19321   1.920   1.952   1.639  0.3698 -0.0995  0.0450
 4889SOL    HW219322   2.011   1.972   1.615  0.5964 -0.7707  0.3115
 4889SOL    HW319323   1.889   1.894   1.570  0.1210  0.1579 -0.0657
 4889SOL    MW419324   1.928   1.947   1.627  0.3669 -0.1541  0.0655
 4890SOL     OW19325   3.738   5.434   3.100 -0.3206  0.2292 -0.0757
 4890SOL    HW219326   3.732   5.425   3.005 -0.3613  0.8228 -0.1338
 4890SOL    HW319327   3.687   5.512   3.120  0.0537  0.3595  0.3853
 4890SOL    MW419328   3.730   5.443   3.090 -0.2766  0.3247 -0.0225
 4891SOL     OW19329   1.218   0.341   1.744  0.2105 -0.3585 -0.2735
 4891SOL    HW219330   1.256   0.386   1.820 -0.1898  0.4502 -0.5302
 4891SOL    HW319331   1.291   0.293   1.705  1.0983  1.4642 -0.9758
 4891SOL    MW419332   1.232   0.341   1.749  0.2749 -0.0113 -0.4001
 4892SOL     OW19333   4.778   0.225   3.894 -0.0334  0.2194 -0.2050
 4892SOL    HW219334   4.803   0.181   3.813  0.1525 -1.3850  0.6845
 4892SOL    HW319335   4.826   0.308   3.892  0.0244  0.1746 -1.6851
 4892SOL    MW419336   4.788   0.230   3.883 -0.0013  0.0018 -0.2830
 4893SOL     OW19337   4.040   0.140   0.813  0.5337 -0.3751 -0.0326
 4893SOL    HW219338   4.082   0.058   0.786  1.2467 -0.2220  0.5830
 4893SOL    HW319339   4.014   0.182   0.731  0.7940 -0.8878 -0.3807
 4893SOL    MW419340   4.042   0.135   0.798  0.6621 -0.4225  0.0027
 4894SOL     OW19341   6.273   3.497   4.678  0.5796 -0.4808  0.5083
 4894SOL    HW219342   6.227   3.477   4.759  0.5012  0.8365  0.8078
 4894SOL    HW319343   6.224   3.569   4.639  1.2984 -0.3027 -0.1003
 4894SOL    MW419344   6.261   3.504   4.683  0.6641 -0.2835  0.4675
 4895SOL     OW19345   5.241   6.278   5.561  0.8581  0.2937 -0.2537
 4895SOL    HW219346   5.329   6.296   5.526  1.2477 -1.9602 -0.6009
 4895SOL    HW319347   5.246   6.304   5.653  2.3270 -0.9741  0.0659
 4895SOL    MW419348   5.253   6.284   5.568  1.1033 -0.1709 -0.2574
 4896SOL     OW19349   2.869   2.506   6.361 -0.6535  0.1576 -0.2020
 4896SOL    HW219350   2.945   2.521   6.416 -0.2024  0.3197 -0.8624
 4896SOL    HW319351   2.853   2.412   6.366 -0.4156  0.1255 -0.0612
 4896SOL    MW419352   2.877   2.496   6.369 -0.5626  0.1747 -0.2706
 4897SOL     OW19353   5.120   3.380   0.497 -0.9034 -0.1677  0.2965
 4897SOL    HW219354   5.043   3.407   0.448 -0.7023 -2.2358 -1.2896
 4897SOL    HW319355   5.192   3.388   0.434  0.0925  0.9107  1.4942
 4897SOL    MW419356   5.120   3.385   0.482 -0.7455 -0.2983  0.2453
 4898SOL     OW19357   2.759   1.965   1.690 -0.4704  0.5202  0.0591
 4898SOL    HW219358   2.825   2.027   1.721  0.7313 -0.8089  0.2664
 4898SOL    HW319359   2.676   2.013   1.695  0.4811  2.2936 -0.3630
 4898SOL    MW419360   2.757   1.979   1.694 -0.1863  0.5788  0.0308
 4899SOL     OW19361   2.288   5.304   3.256  0.5276 -0.4861 -0.0764
 4899SOL    HW219362   2.322   5.215   3.249  1.4175 -0.2412  0.8596
 4899SOL    HW319363   2.210   5.295   3.311  1.0780 -0.5982  0.7096
 4899SOL    MW419364   2.282   5.291   3.263  0.7176 -0.4686  0.1508
 4900SOL     OW19365   2.152   2.111   3.626  0.4224  0.5052 -0.3464
 4900SOL    HW219366   2.091   2.170   3.581 -0.0493 -0.1659 -0.5987
 4900SOL    HW319367   2.236   2.125   3.583  0.1826  0.5615 -0.8022
 4900SOL    MW419368   2.155   2.121   3.615  0.3285  0.4241 -0.4398
 4901SOL     OW19369   1.969   5.710   4.985  0.3713 -0.0323  0.0906
 4901SOL    HW219370   1.991   5.753   4.902  1.9754 -1.6061 -0.3669
 4901SOL    HW319371   2.045   5.727   5.041 -0.4734  0.5698  1.0789
 4901SOL    MW419372   1.982   5.718   4.981  0.4715 -0.1605  0.1606
 4902SOL     OW19373   6.215   5.001   2.429 -0.1759  0.0597  0.1319
 4902SOL    HW219374   6.182   4.947   2.500 -0.8228  0.5872  0.2403
 4902SOL    HW319375   6.310   4.999   2.439 -0.1927 -1.0587  0.1283
 4902SOL    MW419376   6.223   4.994   2.439 -0.2635 -0.0183  0.1457
 4903SOL     OW19377   3.729   4.946   4.952 -0.9830  0.2777 -0.0263
 4903SOL    HW219378   3.711   4.946   5.046 -1.2643 -1.0797 -0.0591
 4903SOL    HW319379   3.804   5.005   4.942  0.4277 -1.1794  1.3507
 4903SOL    MW419380   3.736   4.953   4.963 -0.8340 -0.0936  0.1511
 4904SOL     OW19381   4.703   5.116   3.833  0.6015  0.5183  0.6224
 4904SOL    HW219382   4.737   5.083   3.749  0.9455 -0.6962  1.2129
 4904SOL    HW319383   4.778   5.110   3.892  0.0296  0.1881  1.3238
 4904SOL    MW419384   4.718   5.111   3.830  0.5715  0.3145  0.7929
 4905SOL     OW19385   1.330   2.885   0.112 -0.2422  0.4637 -1.0662
 4905SOL    HW219386   1.314   2.818   0.045  0.3769 -0.4200 -0.3635
 4905SOL    HW319387   1.408   2.930   0.082 -1.0459  1.3456 -1.8880
 4905SOL    MW419388   1.338   2.882   0.099 -0.2666  0.4635 -1.0819
 4906SOL     OW19389   4.810   1.368   3.801  0.5575 -0.1783 -0.2101
 4906SOL    HW219390   4.858   1.349   3.720  0.0288 -0.7757 -0.3859
 4906SOL    HW319391   4.783   1.459   3.792  0.8832 -0.1103 -0.5119
 4906SOL    MW419392   4.813   1.377   3.789  0.5307 -0.2481 -0.2731
 4907SOL     OW19393   2.121   0.788   0.295  0.1803  0.5270  0.3746
 4907SOL    HW219394   2.152   0.875   0.318  0.3047  0.6912 -0.3825
 4907SOL    HW319395   2.026   0.793   0.304  0.2420  0.5173  1.0570
 4907SOL    MW419396   2.112   0.800   0.299  0.2049  0.5474  0.3647
 4908SOL     OW19397   2.425   0.262   6.050  0.5630  0.0936 -0.1592
 4908SOL    HW219398   2.422   0.166   6.042  0.9353  0.0983 -0.4291
 4908SOL    HW319399   2.505   0.279   6.099  0.1309  0.2417  0.5102
 4908SOL    MW419400   2.435   0.252   6.055  0.5551  0.1138 -0.1065
 4909SOL     OW19401   2.464   2.578   0.494  0.4164 -0.5201  0.8128
 4909SOL    HW219402   2.376   2.541   0.484 -0.0480  0.5468  0.8067
 4909SOL    HW319403   2.523   2.504   0.478 -0.4770 -1.3385  1.1696
 4909SOL    MW419404   2.460   2.563   0.491  0.2373 -0.4873  0.8590
 4910SOL     OW19405   5.122   3.442   0.767 -0.5159  0.0161  0.3564
 4910SOL    HW219406   5.083   3.529   0.760 -1.7462 -0.5777 -0.4376
 4910SOL    HW319407   5.124   3.408   0.678 -1.1506 -1.2201  0.7781
 4910SOL    MW419408   5.117   3.449   0.754 -0.7620 -0.2253  0.3073
 4911SOL     OW19409   2.472   4.179   0.882  0.2938  0.0467  0.2121
 4911SOL    HW219410   2.423   4.255   0.850 -0.1811 -1.1139 -1.9500
 4911SOL    HW319411   2.405   4.120   0.917  0.5544  0.1059  0.8264
 4911SOL    MW419412   2.457   4.181   0.883  0.2655 -0.0986  0.0079
 4912SOL     OW19413   3.189   4.082   3.153  0.3041  0.6450 -0.0795
 4912SOL    HW219414   3.156   4.050   3.069  0.5435 -1.3560  0.5475
 4912SOL    HW319415   3.248   4.154   3.130 -0.5790  0.9478 -1.5235
 4912SOL    MW419416   3.192   4.087   3.139  0.2192  0.4209 -0.1873
 4913SOL     OW19417   1.735   5.911   0.336 -0.1630  0.0498 -0.1381
 4913SOL    HW219418   1.801   5.912   0.266  0.1495 -0.8814  0.1202
 4913SOL    HW319419   1.730   5.819   0.362 -0.8205  0.2733  0.5573
 4913SOL    MW419420   1.743   5.899   0.330 -0.2085 -0.0435 -0.0123
 4914SOL     OW19421   4.173   5.132   4.337 -0.3814 -0.0908  0.5259
 4914SOL    HW219422   4.162   5.038   4.353 -1.3358 -0.1924 -0.6198
 4914SOL    HW319423   4.211   5.138   4.250 -1.0657  0.6014  0.2652
 4914SOL    MW419424   4.177   5.120   4.328 -0.5976 -0.0129  0.3403
 4915SOL     OW19425   3.671   6.157   5.054  0.2170 -0.0028 -0.2240
 4915SOL    HW219426   3.577   6.138   5.058  0.1584  0.2504 -0.3484
 4915SOL    HW319427   3.707   6.121   5.135 -0.3102  1.6603  0.8104
 4915SOL    MW419428   3.663   6.150   5.065  0.1397  0.2500 -0.1039
 4916SOL     OW19429   1.024   0.172   5.844 -0.3125  0.2536  0.2926
 4916SOL    HW219430   1.104   0.225   5.848 -0.0546 -0.1729  2.6078
 4916SOL    HW319431   1.054   0.083   5.825 -0.0206 -0.1610  2.4548
 4916SOL    MW419432   1.038   0.167   5.842 -0.2400  0.1426  0.8834
 4917SOL     OW19433   0.859   3.804   4.593  0.6744 -0.0884 -0.6246
 4917SOL    HW219434   0.853   3.820   4.498  2.3475  1.8395 -0.4748
 4917SOL    HW319435   0.768   3.802   4.622  0.1409 -0.0434 -2.1828
 4917SOL    MW419436   0.846   3.806   4.584  0.8248  0.1719 -0.8104
 4918SOL     OW19437   5.828   2.542   4.145  0.3212 -0.9182  0.4325
 4918SOL    HW219438   5.877   2.593   4.210  1.7259 -1.8165  0.1218
 4918SOL    HW319439   5.880   2.463   4.131 -0.7706 -1.5016 -0.6027
 4918SOL    MW419440   5.841   2.538   4.151  0.3625 -1.1137  0.2549
 4919SOL     OW19441   5.105   1.898   2.629 -0.4118 -0.1890 -0.7138
 4919SOL    HW219442   5.156   1.818   2.623  1.2691  0.7386  0.2141
 4919SOL    HW319443   5.020   1.870   2.662  0.3440 -1.5345  0.1939
 4919SOL    MW419444   5.100   1.884   2.633 -0.0903 -0.2441 -0.4716
 4920SOL     OW19445   6.280   3.301   3.281  0.9479  0.4386 -0.0709
 4920SOL    HW219446   6.346   3.360   3.318 -0.1870  0.7074  1.5859
 4920SOL    HW319447   6.331   3.244   3.222  1.9437  3.6788 -2.6570
 4920SOL    MW419448   6.296   3.301   3.278  0.9295  0.9015 -0.1935
 4921SOL     OW19449   5.704   2.126   4.193  0.2655  0.0758 -0.3837
 4921SOL    HW219450   5.617   2.165   4.204 -0.0568 -0.9271  0.9339
 4921SOL    HW319451   5.743   2.176   4.122 -0.7380  1.6992  0.1224
 4921SOL    MW419452   5.697   2.138   4.185  0.0906  0.1577 -0.1431
 4922SOL     OW19453   5.517   4.427   4.667  0.2794 -0.2470 -0.1849
 4922SOL    HW219454   5.466   4.374   4.606  1.0587 -0.4498 -0.6753
 4922SOL    HW319455   5.574   4.479   4.612 -1.0206  1.7284  0.2447
 4922SOL    MW419456   5.518   4.427   4.652  0.2107 -0.0131 -0.1929
 4923SOL     OW19457   2.532   1.619   4.495  0.4574 -0.1673 -0.1899
 4923SOL    HW219458   2.551   1.631   4.588  2.1183 -0.2288 -0.4778
 4923SOL    HW319459   2.599   1.671   4.450  0.9112 -1.6771 -1.3563
 4923SOL    MW419460   2.544   1.628   4.501  0.7364 -0.3746 -0.3818
 4924SOL     OW19461   0.893   0.632   1.635 -0.4564 -0.3002  0.3856
 4924SOL    HW219462   0.848   0.565   1.584 -0.4908  0.1815 -0.2276
 4924SOL    HW319463   0.986   0.614   1.622 -0.4638 -0.6727  0.8223
 4924SOL    MW419464   0.900   0.620   1.627 -0.4619 -0.2858  0.3623
 4925SOL     OW19465   1.556   3.751   6.367  0.1768  0.4820 -0.0624
 4925SOL    HW219466   1.462   3.768   6.357  0.5512  1.6165 -2.0790
 4925SOL    HW319467   1.572   3.673   6.313  0.2352 -0.4047  1.1865
 4925SOL    MW419468   1.546   3.743   6.359  0.2339  0.5147 -0.1637
 4926SOL     OW19469   1.418   1.508   2.245 -0.0714 -0.0913  0.1562
 4926SOL    HW219470   1.446   1.595   2.272  0.2308 -0.8316  2.4100
 4926SOL    HW319471   1.495   1.469   2.204 -0.3498  0.8174 -1.3345
 4926SOL    MW419472   1.432   1.515   2.243 -0.0682 -0.0691  0.2569
 4927SOL     OW19473   0.973   2.655   4.514 -0.2921 -0.3627  0.4514
 4927SOL    HW219474   0.991   2.650   4.420 -0.7658  0.5600  0.2985
 4927SOL    HW319475   0.888   2.698   4.520 -0.0725 -0.0134  1.3145
 4927SOL    MW419476   0.964   2.660   4.502 -0.3256 -0.1949  0.5451
 4928SOL     OW19477   6.143   1.749   3.277 -0.0910 -0.1633  0.2980
 4928SOL    HW219478   6.176   1.755   3.366 -0.7223 -0.1391  0.5302
 4928SOL    HW319479   6.170   1.831   3.236 -0.1610  0.0062  0.5890
 4928SOL    MW419480   6.151   1.760   3.283 -0.1835 -0.1377  0.3670
 4929SOL     OW19481   0.369   4.809   6.288 -0.4902 -0.3828  0.0832
 4929SOL    HW219482   0.295   4.869   6.303  1.0105  1.5139  0.3419
 4929SOL    HW319483   0.356   4.738   6.351 -1.2223  0.7770  1.2998
 4929SOL    MW419484   0.357   4.808   6.298 -0.3888  0.0205  0.2778
 4930SOL     OW19485   0.796   2.257   6.336 -0.6211 -0.3019 -0.6010
 4930SOL    HW219486   0.890   2.236   6.331 -0.3010  0.9033 -0.0310
 4930SOL    HW319487   0.761   2.227   6.253  0.5318  0.4349 -1.3834
 4930SOL    MW419488   0.804   2.250   6.325 -0.4267 -0.0457 -0.6290
 4931SOL     OW19489   3.877   2.210   6.205 -0.3776  0.1731  0.2378
 4931SOL    HW219490   3.792   2.235   6.168 -1.4164 -1.6136  1.2391
 4931SOL    HW319491   3.935   2.283   6.184 -1.6441  0.5858 -2.2180
 4931SOL    MW419492   3.873   2.223   6.198 -0.6818 -0.0082  0.0459
 4932SOL     OW19493   4.357   3.982   4.074  0.1863  0.1745 -0.3835
 4932SOL    HW219494   4.297   4.001   4.146  0.0204  0.1486 -0.5139
 4932SOL    HW319495   4.303   3.991   3.995  0.2504 -0.2514 -0.4803
 4932SOL    MW419496   4.342   3.986   4.073  0.1729  0.1149 -0.4135
 4933SOL     OW19497   2.330   1.459   4.914 -0.3847  0.2694 -0.6953
 4933SOL    HW219498   2.325   1.375   4.868 -0.9005  0.8895 -1.8170
 4933SOL    HW319499   2.341   1.435   5.006 -0.3850 -1.0202 -1.0060
 4933SOL    MW419500   2.331   1.445   4.920 -0.4528  0.1810 -0.8843
 4934SOL     OW19501   5.803   5.840   1.176  0.1499  0.2022 -0.2512
 4934SOL    HW219502   5.767   5.770   1.230 -0.5567  1.1913  0.6089
 4934SOL    HW319503   5.796   5.808   1.087 -0.6133 -0.6270  0.0971
 4934SOL    MW419504   5.797   5.827   1.172 -0.0441  0.2233 -0.0917
 4935SOL     OW19505   5.722   2.377   5.481 -0.0046 -0.1837 -0.2449
 4935SOL    HW219506   5.760   2.314   5.420  1.9421  0.0790  0.5855
 4935SOL    HW319507   5.690   2.323   5.554 -0.1383 -0.3501 -0.4276
 4935SOL    MW419508   5.723   2.361   5.483  0.2346 -0.1710 -0.1594
 4936SOL     OW19509   1.083   5.911   2.088 -0.2900  0.5824 -0.0479
 4936SOL    HW219510   1.106   5.832   2.040  1.2247 -0.0100  1.5198
 4936SOL    HW319511   1.147   5.976   2.058 -0.6236  0.7984 -0.2941
 4936SOL    MW419512   1.095   5.909   2.078 -0.1342  0.5328  0.1264
 4937SOL     OW19513   2.761   3.489   5.407  0.1027  0.2143 -0.3110
 4937SOL    HW219514   2.728   3.471   5.496  1.6197  0.7376  0.3953
 4937SOL    HW319515   2.688   3.530   5.362 -0.2080  1.4512  1.2338
 4937SOL    MW419516   2.747   3.492   5.413  0.2618  0.4465 -0.0140
 4938SOL     OW19517   1.653   4.755   3.162 -0.0426  0.0155 -0.2968
 4938SOL    HW219518   1.562   4.784   3.158 -0.1357 -0.3458 -1.1008
 4938SOL    HW319519   1.697   4.806   3.094  0.5756  0.8838  0.7259
 4938SOL    MW419520   1.647   4.766   3.153  0.0267  0.0824 -0.2679
 4939SOL     OW19521   6.210   4.177   0.412  0.0017  0.1600  0.2308
 4939SOL    HW219522   6.298   4.177   0.449  0.1207 -0.2549 -0.0351
 4939SOL    HW319523   6.184   4.085   0.413 -0.0151  0.1410 -0.6399
 4939SOL    MW419524   6.218   4.165   0.417  0.0152  0.1028  0.0809
 4940SOL     OW19525   0.426   5.068   1.557  0.3272  0.1333 -0.4369
 4940SOL    HW219526   0.486   4.994   1.559 -1.8766 -1.7210  0.8369
 4940SOL    HW319527   0.411   5.084   1.464  3.8266  1.6889 -0.9179
 4940SOL    MW419528   0.432   5.061   1.545  0.4982  0.0939 -0.3323
 4941SOL     OW19529   4.831   1.583   4.962 -0.2081 -0.1634 -0.3201
 4941SOL    HW219530   4.858   1.604   4.873 -1.5195  1.0938 -0.4726
 4941SOL    HW319531   4.872   1.650   5.016 -0.1660 -0.3624 -0.1027
 4941SOL    MW419532   4.840   1.595   4.957 -0.3755 -0.0238 -0.3116
 4942SOL     OW19533   2.395   5.265   5.934  0.3031 -0.0334 -0.6040
 4942SOL    HW219534   2.479   5.266   5.889  1.0463  1.4023  0.7173
 4942SOL    HW319535   2.339   5.210   5.880  2.6802 -2.8472 -0.4224
 4942SOL    MW419536   2.399   5.258   5.921  0.7148 -0.2152 -0.4057
 4943SOL     OW19537   1.795   3.037   5.565  0.4151 -0.6313 -0.1022
 4943SOL    HW219538   1.772   3.075   5.650 -0.1392  0.5332 -0.7389
 4943SOL    HW319539   1.863   3.096   5.531  0.6118 -1.0724 -0.4786
 4943SOL    MW419540   1.801   3.050   5.572  0.3679 -0.5359 -0.2359
 4944SOL     OW19541   5.965   6.423   6.076  0.2149  0.1973  0.1978
 4944SOL    HW219542   5.952   6.463   5.990  0.9907  0.4269  0.1731
 4944SOL    HW319543   6.019   6.346   6.059 -0.5453 -0.3722  0.3532
 4944SOL    MW419544   5.971   6.418   6.063  0.2169  0.1524  0.2151
 4945SOL     OW19545   4.181   4.374   2.520  0.1631  0.3819 -0.0742
 4945SOL    HW219546   4.217   4.297   2.563  0.0991  0.4621  0.1237
 4945SOL    HW319547   4.243   4.393   2.450  0.0873  0.0451 -0.2360
 4945SOL    MW419548   4.194   4.366   2.516  0.1446  0.3480 -0.0694
 4946SOL     OW19549   5.966   0.426   5.344 -0.3073 -0.2318 -0.3046
 4946SOL    HW219550   5.899   0.447   5.279 -0.2009 -0.3280 -0.4462
 4946SOL    HW319551   5.936   0.344   5.384 -0.8680  0.3350  0.4469
 4946SOL    MW419552   5.954   0.418   5.340 -0.3672 -0.1697 -0.2241
 4947SOL     OW19553   0.454   4.429   1.601  0.2593 -0.1721 -0.3187
 4947SOL    HW219554   0.546   4.417   1.576  0.4082 -1.3004  0.6653
 4947SOL    HW319555   0.418   4.485   1.532  1.6566  0.2428 -0.7660
 4947SOL    MW419556   0.462   4.435   1.589  0.4633 -0.2662 -0.2479
 4948SOL     OW19557   6.137   5.944   4.241 -0.0476  0.4089  0.0071
 4948SOL    HW219558   6.045   5.970   4.237  0.3666  2.2350  1.0905
 4948SOL    HW319559   6.140   5.881   4.313 -0.1994  1.7843  1.2836
 4948SOL    MW419560   6.125   5.939   4.250 -0.0130  0.8313  0.3185
 4949SOL     OW19561   6.392   5.599   5.608  0.3963  0.1916 -0.5609
 4949SOL    HW219562   6.442   5.680   5.620 -1.9285  1.5199  1.2578
 4949SOL    HW319563   6.387   5.561   5.696  0.3757 -1.2686 -1.1659
 4949SOL    MW419564   6.398   5.605   5.621  0.0868  0.1742 -0.4008
 4950SOL     OW19565   1.637   5.261   2.267  0.2704  0.6605  0.1436
 4950SOL    HW219566   1.624   5.354   2.252  1.2721  0.7148 -0.4782
 4950SOL    HW319567   1.670   5.255   2.357  1.6411  1.0562 -0.3146
 4950SOL    MW419568   1.640   5.272   2.277  0.5834  0.7199  0.0011
 4951SOL     OW19569   6.395   3.778   4.741 -0.2362  0.4276  0.0746
 4951SOL    HW219570   6.429   3.777   4.830  0.8212 -0.8902 -0.3187
 4951SOL    HW319571   6.337   3.854   4.738  2.1660  2.4084  0.9661
 4951SOL    MW419572   6.392   3.788   4.752  0.2202  0.5151  0.1403
 4952SOL     OW19573   1.332   4.655   2.526 -0.4410  0.3047 -0.1391
 4952SOL    HW219574   1.339   4.750   2.532  2.0519  0.1170  1.4075
 4952SOL    HW319575   1.246   4.634   2.562  0.2483  1.8132  2.6311
 4952SOL    MW419576   1.322   4.664   2.531 -0.0211  0.4790  0.4305
 4953SOL     OW19577   0.537   0.590   1.555 -0.2170  0.4808  1.0928
 4953SOL    HW219578   0.545   0.653   1.483  0.3128  0.9554  1.5560
 4953SOL    HW319579   0.469   0.626   1.611 -0.0729  0.5294  1.2388
 4953SOL    MW419580   0.529   0.603   1.553 -0.1281  0.5498  1.1732
 4954SOL     OW19581   4.802   4.553   6.242 -0.2179 -0.2201  0.0919
 4954SOL    HW219582   4.804   4.545   6.337  0.1824 -1.5854 -0.0200
 4954SOL    HW319583   4.708   4.550   6.220 -0.6690  3.8425  0.6672
 4954SOL    MW419584   4.790   4.552   6.251 -0.2246  0.1358  0.1530
 4955SOL     OW19585   6.115   5.402   4.999 -0.1901  0.1303 -0.6960
 4955SOL    HW219586   6.157   5.479   5.039  1.3252 -0.6835 -0.6420
 4955SOL    HW319587   6.057   5.439   4.932  1.0557  1.3092 -1.1836
 4955SOL    MW419588   6.113   5.417   4.996  0.1742  0.1785 -0.7532
 4956SOL     OW19589   3.199   2.497   2.808 -0.0787 -0.0881  0.6878
 4956SOL    HW219590   3.229   2.410   2.835 -0.2042 -0.0805  0.8493
 4956SOL    HW319591   3.134   2.522   2.873 -0.9367 -0.3961 -0.0275
 4956SOL    MW419592   3.194   2.489   2.820 -0.2084 -0.1277  0.6147
 4957SOL     OW19593   2.068   2.095   0.703  0.2458  0.4950 -0.6143
 4957SOL    HW219594   2.114   2.057   0.777 -1.6310 -0.5151  0.1076
 4957SOL    HW319595   2.043   2.020   0.649 -0.4742  1.0038 -1.0079
 4957SOL    MW419596   2.071   2.080   0.706 -0.0968  0.4289 -0.5710
 4958SOL     OW19597   5.642   4.346   3.550 -0.1860 -0.4333  0.5308
 4958SOL    HW219598   5.655   4.288   3.625 -1.9503 -1.2065  0.2996
 4958SOL    HW319599   5.646   4.287   3.474  1.7579  0.3655 -0.0539
 4958SOL    MW419600   5.644   4.330   3.550 -0.1623 -0.4299  0.4232
 4959SOL     OW19601   1.241   1.655   1.458  0.2195  0.2885 -0.0988
 4959SOL    HW219602   1.188   1.687   1.532  1.2738  0.4373  0.6170
 4959SOL    HW319603   1.259   1.734   1.407  1.5256  0.6341  0.8322
 4959SOL    MW419604   1.236   1.670   1.461  0.5309  0.3538  0.1185
 4960SOL     OW19605   1.081   2.317   4.797  0.0156  0.6270  0.2713
 4960SOL    HW219606   1.058   2.243   4.854 -0.3702  0.3778 -0.2016
 4960SOL    HW319607   0.999   2.364   4.786 -0.0713  0.2802 -0.6421
 4960SOL    MW419608   1.067   2.313   4.803 -0.0468  0.5483  0.0884
 4961SOL     OW19609   3.456   2.204   0.981 -0.6486 -0.5124  0.1282
 4961SOL    HW219610   3.453   2.117   0.940 -0.1766 -0.6370  0.3526
 4961SOL    HW319611   3.543   2.209   1.020 -0.3887  0.3675 -0.5322
 4961SOL    MW419612   3.467   2.193   0.981 -0.5521 -0.4127  0.0707
 4962SOL     OW19613   2.019   6.298   5.943  0.0264 -0.1238 -0.2016
 4962SOL    HW219614   2.100   6.262   5.907 -0.7870 -1.1630 -1.0461
 4962SOL    HW319615   2.020   6.271   6.035  0.3178 -0.7049 -0.3718
 4962SOL    MW419616   2.030   6.290   5.950 -0.0425 -0.3375 -0.3355
 4963SOL     OW19617   4.065   1.532   4.935  0.5025 -0.3366  0.1476
 4963SOL    HW219618   4.145   1.490   4.965  0.3771  0.0781  1.0787
 4963SOL    HW319619   4.093   1.593   4.867  1.3017  1.4563  1.9988
 4963SOL    MW419620   4.079   1.534   4.930  0.5914 -0.0453  0.5147
 4964SOL     OW19621   5.286   2.833   3.442 -0.9093 -0.1734 -0.8780
 4964SOL    HW219622   5.366   2.807   3.397 -0.3210  0.4906 -0.2314
 4964SOL    HW319623   5.252   2.906   3.390 -1.0263 -0.3772 -1.0855
 4964SOL    MW419624   5.292   2.839   3.429 -0.8471 -0.1127 -0.8201
 4965SOL     OW19625   2.230   4.985   2.747 -0.5243 -0.4058  0.3215
 4965SOL    HW219626   2.181   5.037   2.812 -1.0720 -0.5409  0.0185
 4965SOL    HW319627   2.237   4.898   2.787 -0.2974 -0.3141  0.4823
 4965SOL    MW419628   2.225   4.980   2.761 -0.5667 -0.4116  0.3027
 4966SOL     OW19629   2.780   2.574   4.167  0.0396 -0.3464  0.3747
 4966SOL    HW219630   2.795   2.645   4.104 -0.0488 -0.1590  0.5628
 4966SOL    HW319631   2.780   2.618   4.252 -0.6001 -0.4880  0.4525
 4966SOL    MW419632   2.782   2.589   4.169 -0.0564 -0.3404  0.4098
 4967SOL     OW19633   5.190   0.591   1.204  0.3378 -0.1120  0.4950
 4967SOL    HW219634   5.153   0.531   1.269  0.5119  0.4742  1.1527
 4967SOL    HW319635   5.250   0.646   1.254 -0.5950  1.3016  0.1405
 4967SOL    MW419636   5.193   0.590   1.219  0.2377  0.1518  0.5350
 4968SOL     OW19637   3.090   4.369   0.522  0.1398 -0.0668 -0.1830
 4968SOL    HW219638   3.172   4.320   0.510  0.1802 -0.4538  1.4347
 4968SOL    HW319639   3.021   4.306   0.499  0.1964 -0.9205  1.7937
 4968SOL    MW419640   3.092   4.354   0.517  0.1526 -0.2305  0.2913
 4969SOL     OW19641   3.675   3.914   1.762 -0.0722 -0.0626  0.3184
 4969SOL    HW219642   3.620   3.877   1.693  0.0428  0.0117  0.1867
 4969SOL    HW319643   3.731   3.977   1.717  0.7382 -0.7843  0.3067
 4969SOL    MW419644   3.675   3.917   1.747  0.0499 -0.1480  0.2995
 4970SOL     OW19645   4.016   3.947   4.128  0.3828 -0.4272 -0.4584
 4970SOL    HW219646   4.087   3.907   4.078  1.7405 -0.1811  1.2003
 4970SOL    HW319647   4.040   4.039   4.136 -0.6414 -0.1181 -0.7259
 4970SOL    MW419648   4.028   3.954   4.123  0.4268 -0.3540 -0.2749
 4971SOL     OW19649   3.021   4.925   2.276 -0.3741 -0.2731  0.2892
 4971SOL    HW219650   3.092   4.923   2.340 -0.7969 -1.2735  0.7524
 4971SOL    HW319651   3.014   5.017   2.251  1.0796 -0.1458  0.2248
 4971SOL    MW419652   3.030   4.937   2.281 -0.2381 -0.3883  0.3418
 4972SOL     OW19653   5.652   0.574   6.284  0.1199  0.2376  0.3757
 4972SOL    HW219654   5.697   0.495   6.252  1.0769  0.5189  1.0081
 4972SOL    HW319655   5.559   0.552   6.276  0.3536 -0.5146 -0.5530
 4972SOL    MW419656   5.645   0.561   6.278  0.2770  0.1755  0.3366
 4973SOL     OW19657   6.319   5.331   3.269 -0.4511 -0.0159  0.3068
 4973SOL    HW219658   6.371   5.388   3.326 -0.3068 -1.7671  2.0085
 4973SOL    HW319659   6.362   5.337   3.184  2.2958 -0.9932  1.5237
 4973SOL    MW419660   6.332   5.340   3.265 -0.0696 -0.3759  0.6919
 4974SOL     OW19661   3.263   1.097   2.183  0.0952 -0.3144  0.2588
 4974SOL    HW219662   3.232   1.136   2.102 -3.0812  1.3529  2.0572
 4974SOL    HW319663   3.323   1.162   2.220  0.5865 -0.5239 -0.1638
 4974SOL    MW419664   3.267   1.111   2.177 -0.2590 -0.1221  0.4403
 4975SOL     OW19665   0.525   0.625   0.395 -0.3857 -0.0909 -0.1709
 4975SOL    HW219666   0.593   0.683   0.360  1.0741 -1.4900  0.1786
 4975SOL    HW319667   0.443   0.671   0.379  0.6776  1.9852 -0.0200
 4975SOL    MW419668   0.523   0.639   0.388 -0.0528 -0.0016 -0.1049
 4976SOL     OW19669   4.108   1.951   5.041 -0.1656 -0.2754 -0.8435
 4976SOL    HW219670   4.200   1.976   5.041 -0.7282  2.0680 -1.1507
 4976SOL    HW319671   4.061   2.033   5.056 -2.2097 -1.4246 -0.5576
 4976SOL    MW419672   4.114   1.965   5.043 -0.5095 -0.1179 -0.8463
 4977SOL     OW19673   1.568   2.202   4.805  0.2306  0.3804  0.3535
 4977SOL    HW219674   1.637   2.185   4.741  0.7156 -0.2429  1.0268
 4977SOL    HW319675   1.502   2.251   4.756  1.3489  1.4068 -0.1926
 4977SOL    MW419676   1.568   2.206   4.790  0.4421  0.4336  0.3703
 4978SOL     OW19677   4.118   3.535   3.256  0.1294 -0.2162 -0.6964
 4978SOL    HW219678   4.092   3.618   3.216  2.4195  0.8616 -0.1092
 4978SOL    HW319679   4.049   3.516   3.319 -0.8185  0.8385 -1.3838
 4978SOL    MW419680   4.106   3.544   3.259  0.3065  0.0652 -0.7096
 4979SOL     OW19681   2.528   4.172   1.156  0.3113 -0.3280 -0.0263
 4979SOL    HW219682   2.620   4.150   1.172 -0.0221 -2.0897 -0.3946
 4979SOL    HW319683   2.520   4.171   1.060 -0.2347 -0.7968  0.0240
 4979SOL    MW419684   2.539   4.169   1.145  0.1953 -0.6223 -0.0683
 4980SOL     OW19685   3.384   2.749   6.047 -0.2742 -0.1086  0.1198
 4980SOL    HW219686   3.436   2.792   5.979  0.0351  0.0651  0.4585
 4980SOL    HW319687   3.418   2.660   6.050 -0.4026 -0.1638 -0.0692
 4980SOL    MW419688   3.395   2.743   6.039 -0.2503 -0.0930  0.1395
 4981SOL     OW19689   0.241   4.821   1.931  0.4554 -0.1738 -0.0814
 4981SOL    HW219690   0.297   4.893   1.901 -1.1317  1.8694  1.4906
 4981SOL    HW319691   0.260   4.813   2.025 -1.3443  0.1471  0.3565
 4981SOL    MW419692   0.251   4.830   1.940  0.0085  0.1381  0.1838
 4982SOL     OW19693   3.888   4.321   2.060 -0.0811 -0.0263  0.0555
 4982SOL    HW219694   3.956   4.348   2.000 -1.7374  0.3994 -1.7293
 4982SOL    HW319695   3.849   4.402   2.091  0.2158 -0.2622  1.0818
 4982SOL    MW419696   3.891   4.335   2.056 -0.2604 -0.0013 -0.0446
 4983SOL     OW19697   5.151   3.052   5.839  0.1730  0.2797 -0.3571
 4983SOL    HW219698   5.212   3.001   5.892 -0.4979 -0.9291 -0.7232
 4983SOL    HW319699   5.101   3.103   5.902 -1.2160 -1.7859  0.3101
 4983SOL    MW419700   5.152   3.052   5.854 -0.0988 -0.1523 -0.3174
 4984SOL     OW19701   2.407   4.731   5.866 -0.1697  0.2950 -0.0358
 4984SOL    HW219702   2.434   4.725   5.958 -0.2415  0.7210  0.0157
 4984SOL    HW319703   2.359   4.814   5.860  0.4807  0.6497 -0.6138
 4984SOL    MW419704   2.404   4.741   5.877 -0.0934  0.3980 -0.1053
 4985SOL     OW19705   4.322   0.998   5.364  0.0233  0.2867 -0.0425
 4985SOL    HW219706   4.402   0.994   5.311  0.4405  3.1896  0.1529
 4985SOL    HW319707   4.256   1.033   5.304 -1.1123 -1.8481 -0.1318
 4985SOL    MW419708   4.324   1.002   5.349 -0.0715  0.3880 -0.0285
 4986SOL     OW19709   5.982   2.699   5.068 -0.0945  0.4212  0.0325
 4986SOL    HW219710   6.018   2.656   5.146  0.3882  0.3367 -0.2347
 4986SOL    HW319711   6.054   2.752   5.035 -1.0185  2.4384  1.0621
 4986SOL    MW419712   5.996   2.700   5.074 -0.1527  0.6762  0.1331
 4987SOL     OW19713   3.264   2.706   5.530  0.1550 -0.0993  0.3325
 4987SOL    HW219714   3.206   2.751   5.591 -0.9758 -0.9887 -0.0529
 4987SOL    HW319715   3.208   2.684   5.455  0.6605 -2.0723  0.4740
 4987SOL    MW419716   3.249   2.709   5.528  0.0725 -0.4770  0.3003
 4988SOL     OW19717   0.894   1.789   2.736  0.3680 -0.6321  0.4600
 4988SOL    HW219718   0.827   1.750   2.679  0.8985 -0.7377 -0.1082
 4988SOL    HW319719   0.860   1.777   2.824  0.4849 -2.3294  0.3050
 4988SOL    MW419720   0.881   1.782   2.740  0.4534 -0.8699  0.3646
 4989SOL     OW19721   3.840   5.169   5.868 -0.0238 -0.0934 -0.6021
 4989SOL    HW219722   3.858   5.186   5.775  0.3668  0.5879 -0.4071
 4989SOL    HW319723   3.761   5.114   5.867 -0.8157  1.0076 -1.2913
 4989SOL    MW419724   3.832   5.164   5.855 -0.0768  0.1418 -0.6673
 4990SOL     OW19725   6.058   2.674   2.763 -0.5793 -0.0043 -0.0905
 4990SOL    HW219726   5.981   2.647   2.712 -0.1890 -0.0395 -0.6781
 4990SOL    HW319727   6.124   2.607   2.743 -0.3830  0.0480  0.3768
 4990SOL    MW419728   6.057   2.661   2.753 -0.5019 -0.0020 -0.1064
 4991SOL     OW19729   6.343   5.227   1.123  0.1781  0.1985 -0.1751
 4991SOL    HW219730   6.385   5.141   1.121 -1.3051 -0.5607 -2.2481
 4991SOL    HW319731   6.351   5.260   1.034 -0.8020  1.4114  0.1593
 4991SOL    MW419732   6.349   5.220   1.111 -0.1469  0.2583 -0.4045
 4992SOL     OW19733   3.105   4.997   1.710  0.5782 -0.1304  0.7199
 4992SOL    HW219734   3.188   4.983   1.664  0.2942  0.4717 -0.0101
 4992SOL    HW319735   3.117   4.957   1.796  1.5239 -0.2948  0.5174
 4992SOL    MW419736   3.117   4.990   1.715  0.6655 -0.0727  0.5969
 4993SOL     OW19737   0.617   5.434   5.410  0.4423 -0.0849 -0.4236
 4993SOL    HW219738   0.555   5.458   5.479  1.1646 -0.5928  0.4128
 4993SOL    HW319739   0.701   5.427   5.454  0.9894 -0.0531 -1.4319
 4993SOL    MW419740   0.620   5.436   5.425  0.6098 -0.1477 -0.4462
 4994SOL     OW19741   6.378   3.542   2.264  0.2075  0.7093  0.3933
 4994SOL    HW219742   6.463   3.526   2.306  0.6045 -0.3623 -0.7539
 4994SOL    HW319743   6.316   3.489   2.314  0.3624  0.8044  0.6915
 4994SOL    MW419744   6.381   3.533   2.276  0.2804  0.5805  0.2813
 4995SOL     OW19745   1.199   3.930   4.875 -0.7722 -0.3534  0.2492
 4995SOL    HW219746   1.125   3.915   4.935 -1.2505  2.7102  0.5936
 4995SOL    HW319747   1.170   3.893   4.792 -2.3986  0.0568  0.5918
 4995SOL    MW419748   1.185   3.924   4.872 -1.0499  0.1049  0.3399
 4996SOL     OW19749   4.302   6.175   5.399  0.6256  0.3615  0.2786
 4996SOL    HW219750   4.342   6.088   5.398  0.1874  0.1252  1.5653
 4996SOL    HW319751   4.348   6.223   5.330  0.5371 -1.0214 -0.7964
 4996SOL    MW419752   4.313   6.169   5.389  0.5561  0.1479  0.3065
 4997SOL     OW19753   3.856   4.532   5.877 -0.3278  0.3379 -0.3004
 4997SOL    HW219754   3.910   4.453   5.880 -0.2351  0.3327 -1.5336
 4997SOL    HW319755   3.911   4.597   5.834 -0.8699  0.6961 -0.4599
 4997SOL    MW419756   3.870   4.530   5.872 -0.3871  0.3845 -0.4842
 4998SOL     OW19757   0.131   2.455   1.506  0.1664 -0.6163  0.5538
 4998SOL    HW219758   0.103   2.435   1.595  0.9645 -2.1377  0.5021
 4998SOL    HW319759   0.227   2.450   1.509  0.1674 -1.8971 -0.6351
 4998SOL    MW419760   0.140   2.452   1.518  0.2718 -0.9860  0.3901
 4999SOL     OW19761   5.325   2.248   2.114 -0.4546 -0.3241  0.7790
 4999SOL    HW219762   5.346   2.230   2.022  0.0603  0.3374  0.7641
 4999SOL    HW319763   5.401   2.217   2.163 -0.2267  0.3762  0.8792
 4999SOL    MW419764   5.338   2.241   2.108 -0.3566 -0.1445  0.7902
 5000SOL     OW19765   1.554   5.792   1.619 -0.1261  0.1323  0.4391
 5000SOL    HW219766   1.617   5.731   1.659  0.1767 -0.7970 -1.3368
 5000SOL    HW319767   1.518   5.744   1.545  0.7503  2.3858 -1.5677
 5000SOL    MW419768   1.558   5.778   1.615  0.0295  0.3070 -0.0599
 5001SOL     OW19769   6.238   1.092   0.860  0.0418  0.2631 -0.7830
 5001SOL    HW219770   6.153   1.057   0.886  0.5946  0.1232  0.9304
 5001SOL    HW319771   6.226   1.187   0.860 -0.7049  0.2272 -2.7956
 5001SOL    MW419772   6.225   1.100   0.863  0.0162  0.2399 -0.8225
 5002SOL     OW19773   1.599   3.161   4.005 -0.0847 -0.3074 -0.0548
 5002SOL    HW219774   1.645   3.197   4.081 -1.9605  1.0812  0.5204
 5002SOL    HW319775   1.654   3.184   3.931  0.4397  0.8164  0.6447
 5002SOL    MW419776   1.612   3.169   4.006 -0.2630  0.0241  0.1134
 5003SOL     OW19777   2.096   2.629   2.782  0.8803 -0.7139  0.2041
 5003SOL    HW219778   2.095   2.582   2.699  2.0149  1.7199 -1.2942
 5003SOL    HW319779   2.073   2.719   2.759 -0.4806 -0.2836  2.8138
 5003SOL    MW419780   2.093   2.635   2.768  0.8505 -0.3361  0.3508
 5004SOL     OW19781   0.930   3.742   5.350 -0.1407 -0.2036 -0.2620
 5004SOL    HW219782   0.866   3.728   5.280 -1.0594  2.4731 -0.0747
 5004SOL    HW319783   0.877   3.750   5.430  0.3949  1.4341 -0.0196
 5004SOL    MW419784   0.914   3.741   5.351 -0.1913  0.3656 -0.2053
 5005SOL     OW19785   0.752   4.989   4.274  0.1737 -0.9732  0.2465
 5005SOL    HW219786   0.701   5.032   4.205  1.4308  1.3286  0.6581
 5005SOL    HW319787   0.742   5.046   4.350  2.7781 -0.7898  0.5156
 5005SOL    MW419788   0.744   5.003   4.275  0.6831 -0.6453  0.3363
 5006SOL     OW19789   3.439   4.912   2.218  0.1989 -0.2201 -0.1288
 5006SOL    HW219790   3.468   4.997   2.186  1.7390 -0.1446  1.2858
 5006SOL    HW319791   3.481   4.904   2.304 -0.9199 -1.8722  0.3059
 5006SOL    MW419792   3.448   4.922   2.225  0.2545 -0.4281  0.1152
 5007SOL     OW19793   2.077   0.640   5.841  0.3145 -0.4057  0.4391
 5007SOL    HW219794   2.161   0.639   5.887  0.4598  1.3430  0.2791
 5007SOL    HW319795   2.075   0.725   5.796 -1.8159 -0.1228  0.9675
 5007SOL    MW419796   2.088   0.651   5.841  0.0526 -0.1377  0.4877
 5008SOL     OW19797   2.116   1.377   6.226 -0.1871 -0.5684 -0.2786
 5008SOL    HW219798   2.149   1.307   6.283 -1.4138 -0.3934  0.6766
 5008SOL    HW319799   2.143   1.350   6.138 -0.6360 -2.2537  0.0671
 5008SOL    MW419800   2.124   1.364   6.222 -0.4082 -0.7677 -0.1070
 5009SOL     OW19801   5.634   3.579   1.007 -0.2453 -0.2774 -0.5132
 5009SOL    HW219802   5.661   3.488   1.004 -0.2475 -0.2441 -2.0485
 5009SOL    HW319803   5.709   3.626   1.043 -0.9129 -1.0747  2.1978
 5009SOL    MW419804   5.647   3.573   1.012 -0.3336 -0.3782 -0.3581
 5010SOL     OW19805   1.490   0.036   3.173  0.9357  0.0530  0.5144
 5010SOL    HW219806   1.496   0.084   3.091  0.9253 -1.2612 -0.2919
 5010SOL    HW319807   1.477  -0.055   3.146 -0.2362 -0.2521  1.9811
 5010SOL    MW419808   1.489   0.030   3.159  0.7797 -0.1607  0.6015
 5011SOL     OW19809   0.325   2.908   3.589 -0.0228  0.0215 -0.0663
 5011SOL    HW219810   0.319   2.899   3.494 -0.3466 -2.9669  0.1713
 5011SOL    HW319811   0.404   2.961   3.602  1.0758 -1.0445 -1.9552
 5011SOL    MW419812   0.335   2.914   3.578  0.0794 -0.5135 -0.2842
 5012SOL     OW19813   4.431   6.252   4.812  0.3691  0.2439 -0.0889
 5012SOL    HW219814   4.396   6.340   4.797  0.5806  0.5937  1.3060
 5012SOL    HW319815   4.361   6.206   4.859 -0.2535 -0.7770 -1.9390
 5012SOL    MW419816   4.417   6.257   4.816  0.3148  0.1553 -0.1489
 5013SOL     OW19817   0.884   4.357   4.615  0.6475  0.5279  0.9996
 5013SOL    HW219818   0.859   4.339   4.706 -1.6407  0.8368  0.4880
 5013SOL    HW319819   0.828   4.430   4.589  0.3899 -0.3229 -1.0117
 5013SOL    MW419820   0.873   4.364   4.624  0.3116  0.4564  0.6667
 5014SOL     OW19821   0.592   5.384   5.770  0.1393 -0.6411 -0.7129
 5014SOL    HW219822   0.531   5.438   5.720  0.1941 -1.9744 -2.3302
 5014SOL    HW319823   0.668   5.439   5.783 -0.6654  0.4109 -0.3499
 5014SOL    MW419824   0.594   5.398   5.765  0.0403 -0.6782 -0.8784
 5015SOL     OW19825   5.725   2.488   2.516  0.3047  0.4774  0.5091
 5015SOL    HW219826   5.698   2.531   2.435 -1.0567  1.2345  1.3319
 5015SOL    HW319827   5.756   2.559   2.572  1.1751 -0.0346  0.6963
 5015SOL    MW419828   5.726   2.503   2.513  0.2399  0.5098  0.6423
 5016SOL     OW19829   2.907   5.757   0.823 -0.1196  0.7103  0.0982
 5016SOL    HW219830   2.823   5.754   0.778 -0.6848 -1.6306  1.1413
 5016SOL    HW319831   2.888   5.797   0.908  0.2893  2.1039 -0.4350
 5016SOL    MW419832   2.894   5.762   0.829 -0.1402  0.5853  0.1655
 5017SOL     OW19833   3.863   5.820   2.982  0.2055  0.1581  0.1064
 5017SOL    HW219834   3.893   5.786   3.066 -0.2277  0.4050  0.3644
 5017SOL    HW319835   3.769   5.804   2.981  0.3654 -0.8706 -0.8168
 5017SOL    MW419836   3.855   5.813   2.993  0.1694  0.0550  0.0186
 5018SOL     OW19837   6.162   2.743   0.687  0.0168  0.0153  0.4920
 5018SOL    HW219838   6.255   2.738   0.710  0.0431 -0.1651  0.3583
 5018SOL    HW319839   6.162   2.773   0.596 -0.0556  0.0154  0.4921
 5018SOL    MW419840   6.175   2.746   0.678  0.0107 -0.0085  0.4744
 5019SOL     OW19841   3.402   5.055   1.897 -0.1504 -0.1500  0.5442
 5019SOL    HW219842   3.469   5.007   1.850 -0.1115 -2.1198  2.4902
 5019SOL    HW319843   3.435   5.145   1.902  1.6926 -0.7899  0.3109
 5019SOL    MW419844   3.415   5.061   1.891  0.0979 -0.4943  0.7701
 5020SOL     OW19845   1.067   2.881   3.778 -0.1913 -0.0507 -0.1557
 5020SOL    HW219846   0.973   2.892   3.791 -0.2007 -1.4010  1.1257
 5020SOL    HW319847   1.107   2.923   3.854  0.1485 -0.9767  0.1907
 5020SOL    MW419848   1.060   2.888   3.790 -0.1478 -0.3510  0.0591
 5021SOL     OW19849   1.306   0.340   2.160 -0.2015  0.6038 -0.1292
 5021SOL    HW219850   1.233   0.386   2.118  0.1167  1.4682  0.2380
 5021SOL    HW319851   1.330   0.396   2.234  0.0340 -0.2902  0.4925
 5021SOL    MW419852   1.299   0.353   2.164 -0.1285  0.5999  0.0012
 5022SOL     OW19853   4.822   3.196   5.052  0.2407 -0.1901 -0.0470
 5022SOL    HW219854   4.914   3.172   5.063 -0.1153 -1.2171  0.8778
 5022SOL    HW319855   4.776   3.152   5.124 -0.5120  3.2372  1.8031
 5022SOL    MW419856   4.828   3.187   5.062  0.0945  0.1266  0.3191
 5023SOL     OW19857   3.374   4.256   4.955 -0.2439  0.1581 -0.1219
 5023SOL    HW219858   3.461   4.247   4.915  0.0053 -0.6261  0.5765
 5023SOL    HW319859   3.321   4.296   4.886  1.1560  2.6098  0.1137
 5023SOL    MW419860   3.379   4.260   4.940 -0.0263  0.3781  0.0013
 5024SOL     OW19861   0.095   4.217   6.171 -0.0021  0.4484  0.0751
 5024SOL    HW219862   0.159   4.274   6.212 -0.0431  0.0272  0.7325
 5024SOL    HW319863   0.043   4.182   6.244 -0.8043  0.5783 -0.4213
 5024SOL    MW419864   0.096   4.220   6.186 -0.1134  0.4100  0.0963
 5025SOL     OW19865   6.272   0.139   3.938 -0.2975  0.5566 -0.2278
 5025SOL    HW219866   6.230   0.201   3.878 -1.7133 -0.8662 -0.7772
 5025SOL    HW319867   6.218   0.142   4.017  0.2075  0.7199  0.1196
 5025SOL    MW419868   6.259   0.148   3.940 -0.4176  0.3904 -0.2545
 5026SOL     OW19869   5.171   0.262   2.140  0.3163  0.7437 -0.3766
 5026SOL    HW219870   5.112   0.271   2.065  0.0896  1.7205 -0.1026
 5026SOL    HW319871   5.244   0.320   2.120  0.6204  0.4294 -0.1797
 5026SOL    MW419872   5.173   0.271   2.128  0.3265  0.8311 -0.3145
 5027SOL     OW19873   5.500   6.406   2.078  0.0430  0.9566  0.0784
 5027SOL    HW219874   5.530   6.381   1.991 -1.0386 -2.8014  0.6134
 5027SOL    HW319875   5.581   6.419   2.128  0.6634  1.9487 -1.1140
 5027SOL    MW419876   5.515   6.405   2.073 -0.0178  0.5917 -0.0084
 5028SOL     OW19877   4.351   1.727   5.992  0.1949 -0.0170 -0.0880
 5028SOL    HW219878   4.262   1.759   5.973  0.5345  1.5307  0.7729
 5028SOL    HW319879   4.348   1.704   6.086  0.8709  0.6451  0.0966
 5028SOL    MW419880   4.339   1.728   6.002  0.3289  0.2746  0.0499
 5029SOL     OW19881   4.236   0.836   4.222  0.1304  0.9472 -0.4891
 5029SOL    HW219882   4.301   0.766   4.213 -0.5607  0.3685 -1.2087
 5029SOL    HW319883   4.238   0.860   4.314 -1.3174 -1.7142  0.3140
 5029SOL    MW419884   4.245   0.830   4.233 -0.1518  0.5197 -0.4781
 5030SOL     OW19885   1.531   0.984   3.232 -0.1078 -0.1210  0.1360
 5030SOL    HW219886   1.604   1.042   3.212 -0.4107  0.2219  0.0023
 5030SOL    HW319887   1.482   0.978   3.150  0.7489 -1.7935 -0.2843
 5030SOL    MW419888   1.534   0.991   3.219 -0.0347 -0.2964  0.0629
 5031SOL     OW19889   3.940   2.887   3.778 -0.3678  0.2350 -0.5864
 5031SOL    HW219890   3.917   2.919   3.691 -0.5237 -0.9066 -0.9876
 5031SOL    HW319891   3.905   2.798   3.781 -0.5318  0.3235  0.7214
 5031SOL    MW419892   3.933   2.879   3.767 -0.4100  0.0960 -0.4668
 5032SOL     OW19893   2.280   3.990   0.952  0.2475 -0.8026  0.6419
 5032SOL    HW219894   2.247   3.908   0.990 -1.3416  0.7765  2.9233
 5032SOL    HW319895   2.208   4.023   0.899  1.0610 -1.0595 -0.6787
 5032SOL    MW419896   2.266   3.983   0.950  0.1452 -0.6281  0.7687
 5033SOL     OW19897   0.941   0.114   4.961 -0.0144  0.0520  0.4834
 5033SOL    HW219898   0.940   0.079   5.050  1.7172  0.6841  0.8060
 5033SOL    HW319899   0.986   0.199   4.969 -0.3289  0.3859 -0.9047
 5033SOL    MW419900   0.947   0.121   4.974  0.1726  0.1794  0.3428
 5034SOL     OW19901   3.076   0.463   5.956 -0.0113  0.1432  0.1830
 5034SOL    HW219902   3.098   0.478   5.865  1.4872 -0.7548  0.3667
 5034SOL    HW319903   3.087   0.548   5.998  1.8714  0.0293 -0.0051
 5034SOL    MW419904   3.080   0.476   5.950  0.4348  0.0097  0.1824
 5035SOL     OW19905   5.148   4.268   4.956 -0.7217 -0.3218  0.2832
 5035SOL    HW219906   5.151   4.185   4.908 -0.6097 -0.8372  1.1664
 5035SOL    HW319907   5.205   4.254   5.031  0.6142  1.1191 -0.4134
 5035SOL    MW419908   5.156   4.255   4.960 -0.5307 -0.1997  0.3078
 5036SOL     OW19909   3.894   4.138   2.281 -0.3830 -0.6935  0.0473
 5036SOL    HW219910   3.903   4.192   2.202  0.2674 -1.9739 -0.7984
 5036SOL    HW319911   3.851   4.194   2.344  2.3817  1.6659  0.0388
 5036SOL    MW419912   3.890   4.152   2.279  0.0676 -0.5511 -0.0654
 5037SOL     OW19913   5.700   5.222   4.170 -0.1819  0.3774 -0.2580
 5037SOL    HW219914   5.670   5.141   4.213  0.4476  1.2643  1.9831
 5037SOL    HW319915   5.632   5.286   4.189 -0.5956  0.4709 -1.8803
 5037SOL    MW419916   5.687   5.219   4.178 -0.1534  0.5068 -0.1764
 5038SOL     OW19917   0.965   3.902   3.678  0.2336  0.2526 -0.1181
 5038SOL    HW219918   0.924   3.980   3.714 -1.5132  0.0008 -1.3742
 5038SOL    HW319919   1.047   3.932   3.640  1.6855  0.6665  3.1173
 5038SOL    MW419920   0.970   3.916   3.677  0.1947  0.2739  0.1431
 5039SOL     OW19921   1.646   1.364   3.451 -0.1202 -0.0960  0.7903
 5039SOL    HW219922   1.618   1.280   3.487 -2.1934 -0.0247 -0.4965
 5039SOL    HW319923   1.644   1.424   3.526 -0.5383 -0.7664  1.3291
 5039SOL    MW419924   1.642   1.361   3.466 -0.4489 -0.1751  0.6916
 5040SOL     OW19925   1.083   1.874   3.160  0.2737 -0.5659  0.3765
 5040SOL    HW219926   1.128   1.838   3.237  3.6915  0.7971 -0.7837
 5040SOL    HW319927   1.138   1.847   3.087 -0.8868  1.2141 -1.2177
 5040SOL    MW419928   1.096   1.865   3.161  0.5716 -0.1512  0.0131
 5041SOL     OW19929   3.972   5.158   4.937  0.0965  0.6915 -0.3174
 5041SOL    HW219930   4.016   5.188   5.017 -1.5210 -3.4606  2.4684
 5041SOL    HW319931   4.037   5.103   4.894 -0.2547 -0.2328  0.3107
 5041SOL    MW419932   3.987   5.155   4.942 -0.1633  0.0217  0.1330
 5042SOL     OW19933   5.743   5.914   2.894  0.6866  0.3898 -0.1473
 5042SOL    HW219934   5.832   5.879   2.890  0.9194  0.9506 -0.0327
 5042SOL    HW319935   5.687   5.837   2.891  1.2016 -0.0936  1.4309
 5042SOL    MW419936   5.748   5.900   2.893  0.7853  0.4000  0.0761
 5043SOL     OW19937   2.349   0.593   3.537  0.1783 -0.1806  0.1038
 5043SOL    HW219938   2.356   0.566   3.629 -3.0224  1.3065  0.9204
 5043SOL    HW319939   2.255   0.597   3.521  0.6495  1.0152 -2.8429
 5043SOL    MW419940   2.337   0.590   3.547 -0.1818  0.1734 -0.1772
 5044SOL     OW19941   5.345   2.212   4.964 -0.3353 -0.2367  0.3389
 5044SOL    HW219942   5.320   2.254   5.047 -1.2961 -0.5782  0.2345
 5044SOL    HW319943   5.263   2.178   4.929  0.3441 -1.8430  0.2107
 5044SOL    MW419944   5.331   2.213   4.970 -0.3724 -0.4937  0.3082
 5045SOL     OW19945   2.929   2.999   2.581 -0.1003  0.2276 -0.0650
 5045SOL    HW219946   2.920   3.006   2.486  0.6463 -1.1541 -0.2747
 5045SOL    HW319947   3.006   2.943   2.593  0.4528  1.2302  1.3779
 5045SOL    MW419948   2.938   2.992   2.570  0.0712  0.1776  0.0977
 5046SOL     OW19949   3.180   2.085   3.452  0.1944 -0.0422  0.2890
 5046SOL    HW219950   3.126   2.141   3.396  0.8354 -0.4430 -0.7441
 5046SOL    HW319951   3.142   1.998   3.443 -0.4338  0.0850  1.4344
 5046SOL    MW419952   3.168   2.081   3.443  0.1961 -0.0783  0.3038
 5047SOL     OW19953   5.041   3.539   2.516 -0.1617 -0.0948 -0.0650
 5047SOL    HW219954   4.965   3.517   2.461 -1.0970 -0.0048  1.1574
 5047SOL    HW319955   5.060   3.458   2.563 -2.1092  0.8748  2.6580
 5047SOL    MW419956   5.033   3.526   2.515 -0.5420  0.0450  0.4555
 5048SOL     OW19957   5.640   1.360   2.006  0.7724  0.1286 -0.1085
 5048SOL    HW219958   5.616   1.421   2.076  1.5322  0.7760 -0.3965
 5048SOL    HW319959   5.561   1.309   1.990  0.0889  1.1085  0.0739
 5048SOL    MW419960   5.627   1.361   2.013  0.7825  0.3433 -0.1224
 5049SOL     OW19961   5.896   5.841   2.275  0.0375 -0.0102 -0.1667
 5049SOL    HW219962   5.892   5.820   2.368  3.3610  0.3526  0.1811
 5049SOL    HW319963   5.815   5.805   2.238 -0.3756 -2.0672  2.4771
 5049SOL    MW419964   5.885   5.833   2.282  0.4215 -0.2337  0.2280
 5050SOL     OW19965   0.581   1.132   0.895 -0.1772 -0.2260 -0.0608
 5050SOL    HW219966   0.512   1.130   0.961  1.7745 -0.5217  2.0744
 5050SOL    HW319967   0.546   1.078   0.823 -1.6092 -1.5447  1.5191
 5050SOL    MW419968   0.567   1.124   0.894 -0.1087 -0.4390  0.4294
 5051SOL     OW19969   0.550   4.824   6.084 -0.5102 -0.1515  0.0866
 5051SOL    HW219970   0.506   4.770   6.019  0.7491 -0.3387 -0.6340
 5051SOL    HW319971   0.483   4.838   6.152 -0.8376 -2.7629  0.4157
 5051SOL    MW419972   0.535   4.819   6.084 -0.3873 -0.5208  0.0349
 5052SOL     OW19973   4.771   0.526   3.643  0.4154 -0.2605  0.1369
 5052SOL    HW219974   4.857   0.497   3.672  0.7223  0.5579  0.0778
 5052SOL    HW319975   4.741   0.458   3.583  1.8368  0.3321 -1.3164
 5052SOL    MW419976   4.778   0.513   3.639  0.6435 -0.0743 -0.0626
 5053SOL     OW19977   5.376   1.528   6.373 -0.2148 -0.2329 -0.1342
 5053SOL    HW219978   5.382   1.485   6.458  0.0563  0.4999  0.2254
 5053SOL    HW319979   5.373   1.621   6.393 -2.3625 -0.0863 -0.8077
 5053SOL    MW419980   5.376   1.534   6.387 -0.4624 -0.1169 -0.1756
 5054SOL     OW19981   0.387   0.805   0.781 -0.6636 -0.7260 -0.3219
 5054SOL    HW219982   0.420   0.726   0.738 -2.3837 -0.9670 -1.3104
 5054SOL    HW319983   0.360   0.775   0.868 -1.5261 -1.3180 -0.7701
 5054SOL    MW419984   0.388   0.790   0.787 -1.0043 -0.8359 -0.5114
 5055SOL     OW19985   4.302   4.631   3.130 -0.4952  0.2369  0.5871
 5055SOL    HW219986   4.393   4.604   3.118 -1.5191 -3.2763 -0.4738
 5055SOL    HW319987   4.276   4.665   3.045 -0.7031 -0.8026  0.2113
 5055SOL    MW419988   4.311   4.632   3.118 -0.6577 -0.3638  0.3976
 5056SOL     OW19989   5.413   3.755   3.361  0.1506  0.1153  0.3548
 5056SOL    HW219990   5.388   3.730   3.273 -0.6986 -0.2813  0.7011
 5056SOL    HW319991   5.404   3.675   3.413 -0.0138  0.5033  0.9337
 5056SOL    MW419992   5.408   3.741   3.356  0.0168  0.1142  0.4769
 5057SOL     OW19993   3.885   5.568   2.019  0.8594 -0.0798  0.0227
 5057SOL    HW219994   3.815   5.614   2.065 -1.4666 -1.3401 -1.9565
 5057SOL    HW319995   3.965   5.598   2.060 -0.7677  2.2313  1.7987
 5057SOL    MW419996   3.886   5.578   2.030  0.3378  0.0589 -0.0041
 5058SOL     OW19997   4.995   0.331   1.253 -0.0609 -0.1345  0.3400
 5058SOL    HW219998   5.033   0.307   1.338  0.8545  0.7139  0.1765
 5058SOL    HW319999   5.065   0.317   1.190  0.1684  1.8745  0.0885
 5058SOL    MW420000   5.009   0.326   1.256  0.0901  0.2425  0.2852
 5059SOL     OW20001   0.547   5.509   0.478 -0.0957 -0.1119  0.3035
 5059SOL    HW220002   0.582   5.434   0.428 -0.5131 -0.4668  0.5412
 5059SOL    HW320003   0.492   5.556   0.415 -0.2228 -0.2790  0.2896
 5059SOL    MW420004   0.545   5.505   0.463 -0.1676 -0.1808  0.3330
 5060SOL     OW20005   0.182   4.937   0.309 -0.1287  0.0006 -0.2339
 5060SOL    HW220006   0.273   4.936   0.278  0.0383 -0.1776  0.2503
 5060SOL    HW320007   0.129   4.937   0.229  0.2985  0.4642 -0.5218
 5060SOL    MW420008   0.187   4.937   0.294 -0.0503  0.0382 -0.2080
 5061SOL     OW20009   2.523   5.430   3.998 -0.2695  0.4145  0.3416
 5061SOL    HW220010   2.584   5.406   3.928 -1.1657  1.2741 -0.7920
 5061SOL    HW320011   2.439   5.393   3.970 -1.3888  3.4854 -0.7732
 5061SOL    MW420012   2.520   5.422   3.985 -0.5354  0.9331  0.0450
 5062SOL     OW20013   2.229   2.187   0.115  0.2576 -0.1281  0.2768
 5062SOL    HW220014   2.315   2.199   0.157 -0.3687 -0.5221  1.7275
 5062SOL    HW320015   2.201   2.276   0.093  1.1493 -0.0167 -0.4988
 5062SOL    MW420016   2.237   2.200   0.117  0.2926 -0.1654  0.3659
 5063SOL     OW20017   6.179   2.081   0.889  0.3438 -0.0889 -0.3275
 5063SOL    HW220018   6.263   2.125   0.904  0.6004 -1.3717  2.7923
 5063SOL    HW320019   6.203   1.996   0.853  0.5973 -0.9002  1.5891
 5063SOL    MW420020   6.193   2.075   0.887  0.4111 -0.3652  0.3370
 5064SOL     OW20021   1.252   2.807   5.703 -0.1107  0.1874  0.3871
 5064SOL    HW220022   1.162   2.811   5.670 -0.4972 -1.6499  1.0965
 5064SOL    HW320023   1.274   2.714   5.700  2.3274  0.7271 -1.1614
 5064SOL    MW420024   1.243   2.795   5.698  0.1600  0.0162  0.2764
 5065SOL     OW20025   2.449   6.322   1.210 -0.0926 -0.7471  0.0409
 5065SOL    HW220026   2.510   6.337   1.282 -1.8035  1.8439  1.1038
 5065SOL    HW320027   2.476   6.384   1.142 -1.5816  0.6230  0.6276
 5065SOL    MW420028   2.461   6.332   1.210 -0.5148 -0.2245  0.2585
 5066SOL     OW20029   0.546   4.542   1.834 -0.6233 -0.2808 -0.0922
 5066SOL    HW220030   0.513   4.519   1.748 -1.5348 -0.2444  0.2369
 5066SOL    HW320031   0.579   4.632   1.825 -2.0017  0.2512 -0.0760
 5066SOL    MW420032   0.546   4.551   1.822 -0.9254 -0.2058 -0.0466
 5067SOL     OW20033   2.031   4.875   3.055  0.5501  0.0130 -0.2210
 5067SOL    HW220034   2.116   4.830   3.048 -0.6723 -3.0002  2.1210
 5067SOL    HW320035   2.032   4.914   3.142  1.0608  3.8180 -1.7400
 5067SOL    MW420036   2.042   4.874   3.065  0.4562  0.1175 -0.1124
 5068SOL     OW20037   6.182   1.246   5.389 -0.1234  0.3605  0.3571
 5068SOL    HW220038   6.202   1.331   5.427  2.3109 -0.2191  0.6087
 5068SOL    HW320039   6.133   1.265   5.309 -0.2224  1.9453  0.7741
 5068SOL    MW420040   6.178   1.260   5.383  0.1847  0.4931  0.4453
 5069SOL     OW20041   2.503   2.807   6.021  0.9876 -0.4815 -0.1746
 5069SOL    HW220042   2.507   2.838   5.930  0.2719  0.1105 -0.0174
 5069SOL    HW320043   2.527   2.714   6.016  4.2690  0.2676 -0.5200
 5069SOL    MW420044   2.507   2.799   6.008  1.3261 -0.3046 -0.1994
 5070SOL     OW20045   2.047   1.173   2.842  0.1336 -0.3051 -0.8244
 5070SOL    HW220046   1.977   1.234   2.863  0.2215 -0.2951 -0.5429
 5070SOL    HW320047   2.103   1.221   2.780  1.1530  0.5885  0.7001
 5070SOL    MW420048   2.045   1.188   2.837  0.2797 -0.1859 -0.5861
 5071SOL     OW20049   4.178   5.361   2.568 -0.1350 -0.3051 -0.2452
 5071SOL    HW220050   4.229   5.286   2.536  0.1376  0.5743 -2.0555
 5071SOL    HW320051   4.208   5.373   2.658  0.5947 -1.7028 -0.2579
 5071SOL    MW420052   4.189   5.353   2.575 -0.0028 -0.3735 -0.4857
 5072SOL     OW20053   2.468   6.096   4.786 -0.3697 -0.3110 -0.7068
 5072SOL    HW220054   2.421   6.014   4.797  0.4049 -0.6061  0.5324
 5072SOL    HW320055   2.538   6.077   4.723  1.2465 -1.2573  1.2816
 5072SOL    MW420056   2.471   6.083   4.779 -0.0543 -0.4748 -0.2810
 5073SOL     OW20057   5.111   0.664   4.246  0.6200  0.3799  0.3123
 5073SOL    HW220058   5.034   0.720   4.234  0.3772  0.7510  3.0150
 5073SOL    HW320059   5.155   0.700   4.322  1.1882 -2.3125  1.3665
 5073SOL    MW420060   5.106   0.676   4.254  0.6630  0.0736  0.8080
 5074SOL     OW20061   0.408   1.026   5.100 -0.2259 -0.0091  0.3584
 5074SOL    HW220062   0.379   1.058   5.186 -0.2085  0.4764  0.1884
 5074SOL    HW320063   0.376   0.936   5.095 -1.1296  0.2996  0.4486
 5074SOL    MW420064   0.400   1.018   5.111 -0.3428  0.0957  0.3479
 5075SOL     OW20065   3.960   1.414   2.195 -0.1068  0.0236 -0.2752
 5075SOL    HW220066   3.984   1.336   2.145  0.3439 -0.2709  0.3879
 5075SOL    HW320067   3.871   1.396   2.226  0.4620 -0.8033  0.9516
 5075SOL    MW420068   3.951   1.401   2.193  0.0277 -0.1243 -0.0258
 5076SOL     OW20069   2.904   2.911   3.714  0.2436  0.0495  0.0169
 5076SOL    HW220070   2.958   2.987   3.693 -0.2079  0.4683  0.3409
 5076SOL    HW320071   2.872   2.929   3.802  0.6892 -0.8458  0.3767
 5076SOL    MW420072   2.907   2.923   3.723  0.2428 -0.0134  0.1071
 5077SOL     OW20073   5.288   1.321   4.199 -0.0439 -0.3988 -0.2481
 5077SOL    HW220074   5.217   1.363   4.151  1.6808  1.0276 -1.6834
 5077SOL    HW320075   5.339   1.393   4.236  2.2655 -1.1421 -1.6922
 5077SOL    MW420076   5.286   1.336   4.197  0.4884 -0.3087 -0.6280
 5078SOL     OW20077   3.475   1.954   0.237  0.2270  0.1590  0.0205
 5078SOL    HW220078   3.568   1.964   0.217  0.6702 -1.7887  0.8431
 5078SOL    HW320079   3.446   2.042   0.262  1.7530  0.8612 -0.5409
 5078SOL    MW420080   3.484   1.967   0.237  0.4868 -0.0053  0.0550
 5079SOL     OW20081   5.446   4.889   1.804  0.0247 -0.3988 -0.2593
 5079SOL    HW220082   5.373   4.887   1.743 -0.0466  0.2218 -0.1959
 5079SOL    HW320083   5.461   4.797   1.827 -1.4315 -0.4531  0.5656
 5079SOL    MW420084   5.439   4.877   1.799 -0.1769 -0.3241 -0.1421
 5080SOL     OW20085   3.347   0.084   5.524 -0.0341  0.4104  0.0521
 5080SOL    HW220086   3.418   0.020   5.520 -1.2150 -1.0126  0.7990
 5080SOL    HW320087   3.288   0.050   5.592 -1.7027  1.2534 -0.9103
 5080SOL    MW420088   3.348   0.071   5.533 -0.4100  0.3338  0.0236
 5081SOL     OW20089   1.049   2.164   5.452 -0.0176 -0.4369  0.2310
 5081SOL    HW220090   1.016   2.228   5.389 -0.6490 -0.6637  0.3138
 5081SOL    HW320091   1.135   2.196   5.477  0.7057 -0.8959 -1.5489
 5081SOL    MW420092   1.056   2.177   5.447 -0.0055 -0.5274  0.0071
 5082SOL     OW20093   4.576   2.505   3.799 -0.2283  0.0283  0.6351
 5082SOL    HW220094   4.624   2.472   3.723  0.7140 -0.3943  1.3977
 5082SOL    HW320095   4.602   2.447   3.871  0.5636  1.7013  1.7527
 5082SOL    MW420096   4.586   2.493   3.798  0.0005  0.1933  0.8831
 5083SOL     OW20097   0.618   5.101   6.338  0.0719 -0.0092  0.5138
 5083SOL    HW220098   0.692   5.051   6.303 -0.3285  0.1368 -0.5809
 5083SOL    HW320099   0.647   5.193   6.330  0.0791  0.0146  0.8117
 5083SOL    MW420100   0.632   5.107   6.332  0.0200  0.0132  0.4087
 5084SOL     OW20101   1.186   1.836   4.917  0.3094  0.2987  0.0591
 5084SOL    HW220102   1.169   1.774   4.846  0.0989  0.2477  0.1529
 5084SOL    HW320103   1.207   1.780   4.992 -0.9174  0.3041  0.4185
 5084SOL    MW420104   1.187   1.820   4.917  0.1198  0.2926  0.1189
 5085SOL     OW20105   4.202   2.684   3.255 -0.0558  0.1856 -0.2043
 5085SOL    HW220106   4.228   2.629   3.181 -0.2381 -1.4861  0.8974
 5085SOL    HW320107   4.275   2.678   3.316  0.2723  1.8787 -0.3898
 5085SOL    MW420108   4.215   2.676   3.254 -0.0366  0.1884 -0.0834
 5086SOL     OW20109   5.780   4.860   3.639 -0.3853  0.0453 -0.3511
 5086SOL    HW220110   5.861   4.899   3.672 -0.4939 -0.6028  0.7227
 5086SOL    HW320111   5.761   4.909   3.559  0.9129  0.4045 -0.4726
 5086SOL    MW420112   5.788   4.871   3.633 -0.2284  0.0072 -0.2255
 5087SOL     OW20113   6.215   0.220   2.027 -0.1778  0.0244  0.4805
 5087SOL    HW220114   6.154   0.259   2.090 -0.4419 -0.4030  0.4867
 5087SOL    HW320115   6.186   0.130   2.018  1.2241 -0.5519  1.4500
 5087SOL    MW420116   6.203   0.214   2.034 -0.0277 -0.1081  0.6092
 5088SOL     OW20117   3.872   3.315   2.176 -0.4187 -0.3199 -0.3691
 5088SOL    HW220118   3.920   3.232   2.184  0.2735  0.1155  0.1127
 5088SOL    HW320119   3.866   3.330   2.082 -1.8736 -1.6556 -0.5377
 5088SOL    MW420120   3.878   3.306   2.165 -0.5193 -0.4387 -0.3278
 5089SOL     OW20121   3.667   0.387   4.115  0.0875  0.1341 -0.1104
 5089SOL    HW220122   3.608   0.337   4.172  2.2400 -2.2529  0.2449
 5089SOL    HW320123   3.707   0.320   4.059  2.0471  1.6879 -0.6632
 5089SOL    MW420124   3.664   0.372   4.115  0.6300  0.0241 -0.1365
 5090SOL     OW20125   4.902   2.342   5.249 -0.1944 -0.0716  0.0323
 5090SOL    HW220126   4.939   2.398   5.181 -0.1385 -1.1397 -0.8481
 5090SOL    HW320127   4.864   2.268   5.201  0.2325 -1.0706  1.1805
 5090SOL    MW420128   4.902   2.339   5.233 -0.1307 -0.3443  0.0676
 5091SOL     OW20129   1.129   0.556   0.892 -0.0448 -0.3513  0.0594
 5091SOL    HW220130   1.216   0.554   0.933  0.0914  0.3534 -0.1725
 5091SOL    HW320131   1.094   0.468   0.905  1.0646 -0.9288 -0.6048
 5091SOL    MW420132   1.136   0.544   0.899  0.1195 -0.3345 -0.0588
 5092SOL     OW20133   1.270   6.215   4.526  0.2694  0.3872  0.0684
 5092SOL    HW220134   1.295   6.249   4.611 -2.3798 -1.4336  1.7340
 5092SOL    HW320135   1.213   6.281   4.488 -0.7422  0.0669  0.9876
 5092SOL    MW420136   1.266   6.228   4.532 -0.2136  0.1047  0.4094
 5093SOL     OW20137   2.868   1.916   5.927  0.3830 -0.7260 -0.5626
 5093SOL    HW220138   2.875   1.882   6.016  0.7284 -0.2762 -0.4149
 5093SOL    HW320139   2.907   1.848   5.872 -1.0470 -1.6152 -0.5236
 5093SOL    MW420140   2.874   1.902   5.931  0.2399 -0.7840 -0.5380
 5094SOL     OW20141   1.061   5.530   4.860  0.2469 -0.0956  0.0459
 5094SOL    HW220142   1.061   5.463   4.929  0.5070 -0.7882 -0.6151
 5094SOL    HW320143   1.153   5.539   4.835  0.0544 -0.4938 -0.8228
 5094SOL    MW420144   1.073   5.522   4.866  0.2558 -0.2395 -0.1559
 5095SOL     OW20145   0.597   0.893   1.109 -0.0108 -0.0296 -0.5332
 5095SOL    HW220146   0.680   0.941   1.106  0.7662 -1.3677 -1.2345
 5095SOL    HW320147   0.532   0.954   1.076  0.5964  1.2074  0.4759
 5095SOL    MW420148   0.600   0.907   1.104  0.1718 -0.0430 -0.4926
 5096SOL     OW20149   2.334   0.704   1.805  0.1561  0.6845  0.6297
 5096SOL    HW220150   2.379   0.675   1.885  0.1243  0.4676  0.5688
 5096SOL    HW320151   2.258   0.752   1.838  0.3802  0.9695  0.7316
 5096SOL    MW420152   2.330   0.706   1.820  0.1815  0.6935  0.6351
 5097SOL     OW20153   0.661   5.245   0.445  0.1202  0.9098  0.6425
 5097SOL    HW220154   0.714   5.244   0.524  1.0509  0.5301  0.0350
 5097SOL    HW320155   0.724   5.259   0.374 -0.0841 -2.5211 -0.4153
 5097SOL    MW420156   0.676   5.247   0.446  0.2160  0.4070  0.4228
 5098SOL     OW20157   4.003   1.437   1.546 -0.1825 -0.0129  0.4177
 5098SOL    HW220158   4.090   1.419   1.512 -0.9849 -1.4686 -1.0325
 5098SOL    HW320159   4.016   1.505   1.612  2.1562 -0.8978  0.9673
 5098SOL    MW420160   4.016   1.444   1.550  0.0202 -0.3217  0.2989
 5099SOL     OW20161   3.919   4.695   4.429 -0.3043  0.3135  0.0116
 5099SOL    HW220162   3.950   4.756   4.496  1.0815  0.4284 -0.6930
 5099SOL    HW320163   3.833   4.668   4.459 -0.4113  1.6396  0.9933
 5099SOL    MW420164   3.912   4.700   4.442 -0.1356  0.5036  0.0482
 5100SOL     OW20165   1.732   3.134   5.828 -0.5773  0.1017 -0.0762
 5100SOL    HW220166   1.636   3.135   5.836 -0.5820 -0.4767 -0.0345
 5100SOL    HW320167   1.761   3.079   5.901 -0.2005  0.4316  0.0224
 5100SOL    MW420168   1.723   3.127   5.838 -0.5282  0.0689 -0.0577
 5101SOL     OW20169   1.678   3.883   4.964  0.2408 -0.1992  0.0732
 5101SOL    HW220170   1.701   3.975   4.950  2.4691 -0.8153 -0.7829
 5101SOL    HW320171   1.588   3.876   4.934 -0.8296  2.1473  2.3051
 5101SOL    MW420172   1.669   3.894   4.959  0.3936  0.0291  0.2548
 5102SOL     OW20173   4.605   3.006   6.377  0.4811 -0.5417 -0.4520
 5102SOL    HW220174   4.601   3.092   6.334  1.4549 -0.3969 -0.2765
 5102SOL    HW320175   4.665   3.019   6.450  0.6813 -1.3885 -0.4610
 5102SOL    MW420176   4.613   3.019   6.381  0.6360 -0.6343 -0.4300
 5103SOL     OW20177   2.468   1.918   2.071  0.1080 -0.1509  0.3936
 5103SOL    HW220178   2.442   1.991   2.016  0.1116 -0.0054  0.5849
 5103SOL    HW320179   2.526   1.956   2.137 -0.3368 -0.2244  0.8323
 5103SOL    MW420180   2.472   1.932   2.072  0.0498 -0.1414  0.4767
 5104SOL     OW20181   0.184   1.962   5.745 -0.2229 -0.2581  0.2551
 5104SOL    HW220182   0.275   1.977   5.770  0.1310  2.8204 -2.2490
 5104SOL    HW320183   0.133   2.023   5.798 -0.4252  0.2191 -0.4648
 5104SOL    MW420184   0.189   1.972   5.755 -0.2029  0.2110 -0.1703
 5105SOL     OW20185   0.309   3.288   3.367  0.6008 -0.0299 -0.6068
 5105SOL    HW220186   0.295   3.367   3.314 -0.1261 -0.0792 -0.5004
 5105SOL    HW320187   0.244   3.296   3.438  0.3133 -0.8745 -0.7702
 5105SOL    MW420188   0.298   3.300   3.370  0.4670 -0.1478 -0.6144
 5106SOL     OW20189   0.996   4.538   2.602 -0.2527 -0.6748 -0.2329
 5106SOL    HW220190   1.047   4.541   2.683  0.8410 -0.8450 -0.8938
 5106SOL    HW320191   0.905   4.529   2.631  0.0355  0.1423  0.9855
 5106SOL    MW420192   0.991   4.537   2.617 -0.0704 -0.5895 -0.1593
 5107SOL     OW20193   3.747   0.928   0.810 -0.3467 -0.4297 -0.1308
 5107SOL    HW220194   3.722   1.000   0.868  0.6630 -0.5943  0.5297
 5107SOL    HW320195   3.730   0.962   0.722  1.3351  1.1660  0.0905
 5107SOL    MW420196   3.742   0.942   0.806  0.0084 -0.2409 -0.0145
 5108SOL     OW20197   4.063   0.297   2.814 -0.0025 -0.5524  0.5522
 5108SOL    HW220198   4.025   0.287   2.727 -1.2321 -0.2041  1.0291
 5108SOL    HW320199   4.153   0.328   2.798 -0.8519  1.5364 -0.5667
 5108SOL    MW420200   4.070   0.300   2.800 -0.2768 -0.2308  0.4675
 5109SOL     OW20201   2.045   5.237   4.843  0.5910  0.5670 -0.0613
 5109SOL    HW220202   2.034   5.169   4.910  0.8203  0.1500 -0.4410
 5109SOL    HW320203   2.125   5.283   4.868  0.4739  0.6525  0.1590
 5109SOL    MW420204   2.054   5.234   4.855  0.6058  0.5233 -0.0823
 5110SOL     OW20205   1.314   4.766   1.880 -0.2114  0.1653  0.0543
 5110SOL    HW220206   1.392   4.711   1.894 -0.7914 -1.1237 -1.4313
 5110SOL    HW320207   1.349   4.852   1.859  0.8967 -0.6228 -1.5818
 5110SOL    MW420208   1.329   4.770   1.879 -0.1417 -0.1087 -0.3576
 5111SOL     OW20209   5.618   1.000   2.091 -0.3781  0.0800  0.2288
 5111SOL    HW220210   5.556   1.064   2.056 -1.7741 -1.1396  0.3910
 5111SOL    HW320211   5.594   0.990   2.183 -2.4711 -3.0697 -0.4819
 5111SOL    MW420212   5.607   1.007   2.098 -0.8384 -0.4965  0.1565
 5112SOL     OW20213   3.874   3.894   2.964 -0.0202 -0.0411  0.0900
 5112SOL    HW220214   3.852   3.891   2.870 -0.2213 -0.7787  0.1580
 5112SOL    HW320215   3.907   3.983   2.977 -0.3034  0.1811 -0.6140
 5112SOL    MW420216   3.875   3.906   2.953 -0.0841 -0.1091  0.0061
 5113SOL     OW20217   3.986   3.609   1.925 -0.3912 -0.6725  0.4037
 5113SOL    HW220218   3.984   3.705   1.925  1.5662 -0.5957 -0.2462
 5113SOL    HW320219   4.032   3.586   2.006 -0.6574 -1.0705  0.4460
 5113SOL    MW420220   3.992   3.619   1.936 -0.1681 -0.7148  0.3235
 5114SOL     OW20221   4.058   5.239   5.200 -0.0609 -0.3432 -0.4706
 5114SOL    HW220222   4.131   5.185   5.230 -1.5838 -1.4183  1.4997
 5114SOL    HW320223   4.100   5.316   5.161  2.1286 -0.4688  1.4199
 5114SOL    MW420224   4.073   5.242   5.199  0.0271 -0.5016  0.0388
 5115SOL     OW20225   1.610   2.680   1.929 -0.3685 -0.0713  0.7802
 5115SOL    HW220226   1.554   2.606   1.901 -0.7909 -0.2406  2.0108
 5115SOL    HW320227   1.619   2.668   2.023 -0.4449  1.4663  0.9980
 5115SOL    MW420228   1.603   2.668   1.938 -0.4343  0.1092  0.9713
 5116SOL     OW20229   5.537   0.426   0.652 -0.2982 -0.1293  0.0339
 5116SOL    HW220230   5.587   0.505   0.672  1.1944 -0.6107 -1.4973
 5116SOL    HW320231   5.448   0.456   0.637  0.1089  1.1810  0.1393
 5116SOL    MW420232   5.532   0.440   0.652 -0.0476 -0.0200 -0.1542
 5117SOL     OW20233   5.010   0.719   4.928  0.2007  0.0398  0.2652
 5117SOL    HW220234   5.011   0.669   5.009 -1.2794 -0.5787 -0.0651
 5117SOL    HW320235   5.062   0.797   4.947 -0.8600  0.3560  2.1122
 5117SOL    MW420236   5.017   0.723   4.941 -0.1346 -0.0001  0.4653
 5118SOL     OW20237   0.242   4.711   3.670 -0.0634 -0.7703  0.0655
 5118SOL    HW220238   0.165   4.732   3.724 -1.1570 -0.3898 -1.5593
 5118SOL    HW320239   0.210   4.717   3.580  0.9264 -4.2758 -0.6537
 5118SOL    MW420240   0.227   4.715   3.666 -0.0771 -1.1826 -0.2438
 5119SOL     OW20241   0.849   6.112   2.756 -0.5485 -0.1826  0.2399
 5119SOL    HW220242   0.785   6.175   2.788  1.3567  2.3216 -0.5401
 5119SOL    HW320243   0.809   6.073   2.678 -0.9184  1.8628 -0.6591
 5119SOL    MW420244   0.835   6.115   2.750 -0.3460  0.4176  0.0184
 5120SOL     OW20245   6.315   4.619   2.464  0.0330 -0.2904 -0.4379
 5120SOL    HW220246   6.320   4.538   2.515 -1.7950  1.1176  2.2413
 5120SOL    HW320247   6.273   4.594   2.382  0.9187 -2.2744 -0.3353
 5120SOL    MW420248   6.310   4.605   2.460 -0.0913 -0.3664 -0.0708
 5121SOL     OW20249   2.052   1.740   4.592 -0.4054 -0.0471  0.1096
 5121SOL    HW220250   2.086   1.713   4.677 -0.7182  1.3282  0.7047
 5121SOL    HW320251   2.113   1.703   4.528  0.5783  0.0087  1.0041
 5121SOL    MW420252   2.064   1.732   4.595 -0.3169  0.1418  0.3061
 5122SOL     OW20253   2.324   6.190   0.143 -0.6295 -0.5955 -0.3538
 5122SOL    HW220254   2.229   6.183   0.141 -0.8382  1.5813 -1.7852
 5122SOL    HW320255   2.355   6.125   0.080 -1.2635 -0.3940 -0.8806
 5122SOL    MW420256   2.316   6.181   0.134 -0.7407 -0.2817 -0.6122
 5123SOL     OW20257   3.222   0.657   1.160  0.4356 -0.3105 -0.0679
 5123SOL    HW220258   3.270   0.635   1.080  1.0024  1.6741 -0.3224
 5123SOL    HW320259   3.132   0.672   1.130  0.3781 -0.7580 -0.1272
 5123SOL    MW420260   3.216   0.656   1.145  0.5028 -0.1077 -0.1093
 5124SOL     OW20261   0.659   2.726   1.132 -0.0756 -0.6773 -0.2970
 5124SOL    HW220262   0.601   2.727   1.208 -0.2041  0.3537 -0.3956
 5124SOL    HW320263   0.624   2.794   1.075  3.3545  2.6867  1.2469
 5124SOL    MW420264   0.647   2.735   1.134  0.3600 -0.0974 -0.1063
 5125SOL     OW20265   3.495   4.540   3.496 -0.0618 -0.0002 -0.0836
 5125SOL    HW220266   3.579   4.496   3.482  0.9003  1.5512  0.4472
 5125SOL    HW320267   3.439   4.508   3.426  1.0132 -0.9884 -0.5304
 5125SOL    MW420268   3.499   4.530   3.485  0.2069  0.0741 -0.0725
 5126SOL     OW20269   2.722   0.797   1.138  0.0902 -0.1871  0.0266
 5126SOL    HW220270   2.682   0.716   1.169 -0.0458 -0.5200 -0.9642
 5126SOL    HW320271   2.793   0.814   1.200  0.5475 -1.4343 -0.1148
 5126SOL    MW420272   2.726   0.789   1.150  0.1326 -0.3956 -0.1228
 5127SOL     OW20273   5.728   4.814   5.612 -0.4333  0.0025  0.2608
 5127SOL    HW220274   5.762   4.725   5.623  1.6927  0.5985 -0.8984
 5127SOL    HW320275   5.676   4.810   5.532  1.1223  0.1271 -0.8013
 5127SOL    MW420276   5.726   4.802   5.603  0.0525  0.0976 -0.0322
 5128SOL     OW20277   1.274   3.939   5.172  0.0586 -0.0269 -0.0886
 5128SOL    HW220278   1.280   3.949   5.077 -0.7937  0.6911 -0.0730
 5128SOL    HW320279   1.306   3.851   5.189 -0.3715 -0.3848 -1.1026
 5128SOL    MW420280   1.279   3.929   5.162 -0.1106  0.0206 -0.2203
 5129SOL     OW20281   1.999   3.265   3.884 -0.2815 -0.4187 -0.1292
 5129SOL    HW220282   2.092   3.264   3.906 -0.0595 -0.7467 -1.0450
 5129SOL    HW320283   1.978   3.358   3.873  0.4117 -0.4322 -1.7854
 5129SOL    MW420284   2.008   3.277   3.885 -0.1607 -0.4638 -0.4686
 5130SOL     OW20285   5.743   5.957   2.613  0.1856 -0.0021  0.1586
 5130SOL    HW220286   5.737   5.936   2.706  0.1884 -1.9531 -0.2375
 5130SOL    HW320287   5.653   5.946   2.581  0.0430  1.3575  0.0371
 5130SOL    MW420288   5.730   5.953   2.621  0.1672 -0.0801  0.0903
 5131SOL     OW20289   4.984   5.987   2.818 -0.0063 -0.0388  0.4633
 5131SOL    HW220290   5.029   6.060   2.862 -0.0292  0.3641 -0.1626
 5131SOL    HW320291   4.935   6.029   2.748 -0.2581 -0.6337  0.2817
 5131SOL    MW420292   4.984   6.002   2.814 -0.0426 -0.0642  0.3568
 5132SOL     OW20293   1.036   0.151   4.356  0.2872 -0.4081  0.4573
 5132SOL    HW220294   0.949   0.110   4.358  0.9227 -1.7704  2.4392
 5132SOL    HW320295   1.051   0.181   4.445  2.8140 -2.3917  0.8139
 5132SOL    MW420296   1.026   0.150   4.368  0.7044 -0.8496  0.7658
 5133SOL     OW20297   5.014   5.969   1.677 -0.1032 -0.4455 -0.2895
 5133SOL    HW220298   4.930   5.926   1.690 -0.6364  0.6789  0.1613
 5133SOL    HW320299   4.991   6.060   1.656  1.0032  0.5052  2.2519
 5133SOL    MW420300   5.000   5.976   1.676 -0.0276 -0.1717  0.1053
 5134SOL     OW20301   3.180   2.377   3.107  0.1243 -0.0799  0.8208
 5134SOL    HW220302   3.089   2.407   3.110  0.6073  1.3896  1.4691
 5134SOL    HW320303   3.173   2.282   3.095 -1.4591  0.2772 -1.7877
 5134SOL    MW420304   3.167   2.368   3.106 -0.0209  0.1611  0.5622
 5135SOL     OW20305   4.073   5.012   5.817  0.3820  0.4040 -0.1710
 5135SOL    HW220306   4.008   5.066   5.861  0.3362  0.4539 -0.3006
 5135SOL    HW320307   4.037   4.923   5.821  0.4389  0.3895  0.0072
 5135SOL    MW420308   4.060   5.007   5.823  0.3835  0.4086 -0.1646
 5136SOL     OW20309   1.174   5.898   5.207 -0.0089 -0.1359 -0.0761
 5136SOL    HW220310   1.204   5.879   5.118 -2.0396 -2.1033 -0.4314
 5136SOL    HW320311   1.122   5.978   5.199  0.6293  0.2451 -0.4657
 5136SOL    MW420312   1.171   5.906   5.194 -0.1926 -0.3452 -0.1744
 5137SOL     OW20313   0.908   1.983   6.033  0.0566  0.6964  0.2805
 5137SOL    HW220314   0.923   1.892   6.006  3.5272  1.1866 -0.0162
 5137SOL    HW320315   0.926   1.983   6.127  0.6769  1.1291  0.1731
 5137SOL    MW420316   0.913   1.971   6.042  0.5963  0.8181  0.2272
 5138SOL     OW20317   2.485   4.825   2.130 -0.1421 -0.2487  0.3397
 5138SOL    HW220318   2.496   4.760   2.061 -2.6297 -2.4262  1.8213
 5138SOL    HW320319   2.572   4.835   2.168  0.6985 -1.1517 -1.2694
 5138SOL    MW420320   2.498   4.818   2.126 -0.3594 -0.6552  0.3229
 5139SOL     OW20321   4.081   3.032   1.579 -0.1173 -0.5106  0.0505
 5139SOL    HW220322   4.170   3.012   1.550  0.0656 -0.6075  0.6676
 5139SOL    HW320323   4.032   2.951   1.563  0.0528 -0.6617  0.3002
 5139SOL    MW420324   4.086   3.019   1.573 -0.0708 -0.5434  0.1648
 5140SOL     OW20325   1.381   1.940   2.362  0.4361 -0.2935  0.2047
 5140SOL    HW220326   1.359   1.971   2.274 -0.6200  2.1957  1.2380
 5140SOL    HW320327   1.458   1.992   2.387  0.3247 -0.5012  1.0012
 5140SOL    MW420328   1.389   1.951   2.353  0.2821  0.0075  0.4461
 5141SOL     OW20329   2.691   2.531   0.156 -0.0442  0.0634  0.0919
 5141SOL    HW220330   2.752   2.538   0.083 -0.5033  0.8335 -0.2400
 5141SOL    HW320331   2.656   2.443   0.151  1.5280 -0.6373  0.7027
 5141SOL    MW420332   2.695   2.521   0.146  0.1027  0.0726  0.1287
 5142SOL     OW20333   3.797   0.981   5.963  0.2702  0.1080 -0.0544
 5142SOL    HW220334   3.892   0.973   5.972  0.3691  1.1211 -0.0760
 5142SOL    HW320335   3.775   1.060   6.011 -0.4706  0.2860 -0.6622
 5142SOL    MW420336   3.807   0.990   5.971  0.1855  0.2651 -0.1375
 5143SOL     OW20337   0.088   0.919   3.831 -0.2161  0.3175  0.3585
 5143SOL    HW220338   0.164   0.942   3.779 -1.5630  2.0453 -0.9721
 5143SOL    HW320339   0.097   0.971   3.911 -1.0053  2.2034 -0.7202
 5143SOL    MW420340   0.099   0.929   3.835 -0.4979  0.7943  0.0406
 5144SOL     OW20341   6.200   2.911   2.813  0.4063 -0.1272  0.7199
 5144SOL    HW220342   6.137   2.933   2.882 -0.2413 -1.1310  0.4662
 5144SOL    HW320343   6.176   2.822   2.787  2.1688 -0.6716  0.8660
 5144SOL    MW420344   6.188   2.902   2.819  0.5534 -0.3315  0.7057
 5145SOL     OW20345   5.558   3.400   5.526 -0.3385 -0.1299 -0.2427
 5145SOL    HW220346   5.629   3.361   5.475 -0.7959 -0.2599 -0.7955
 5145SOL    HW320347   5.485   3.339   5.516 -0.3468 -0.3141  0.8367
 5145SOL    MW420348   5.558   3.387   5.518 -0.3999 -0.1714 -0.1732
 5146SOL     OW20349   1.015   5.341   5.112  0.4145  0.1274 -0.0016
 5146SOL    HW220350   1.074   5.330   5.187 -1.2222  0.2507  1.3710
 5146SOL    HW320351   0.963   5.418   5.134  0.3760  0.5821 -1.6198
 5146SOL    MW420352   1.016   5.349   5.125  0.1935  0.2037 -0.0340
 5147SOL     OW20353   0.492   0.167   3.259  0.3671 -0.0945 -0.7360
 5147SOL    HW220354   0.419   0.131   3.311  1.0385  0.0374  0.3222
 5147SOL    HW320355   0.491   0.115   3.178 -0.1324 -0.9334 -0.2104
 5147SOL    MW420356   0.482   0.155   3.255  0.3898 -0.1877 -0.5270
 5148SOL     OW20357   6.065   2.554   5.297  0.2047  0.1833 -0.1695
 5148SOL    HW220358   6.155   2.585   5.301  0.6962 -1.2745  1.6161
 5148SOL    HW320359   6.030   2.571   5.384 -0.2102 -2.0508  0.1613
 5148SOL    MW420360   6.072   2.560   5.309  0.2148 -0.3038  0.1098
 5149SOL     OW20361   6.117   6.026   3.096 -0.2468  0.5794  0.3823
 5149SOL    HW220362   6.086   5.960   3.033  0.8758 -0.1127  0.5141
 5149SOL    HW320363   6.207   5.999   3.115 -0.1157  1.5799  1.2343
 5149SOL    MW420364   6.125   6.013   3.090 -0.0814  0.6201  0.5121
 5150SOL     OW20365   5.532   5.938   1.152 -0.5019  0.5447  0.0252
 5150SOL    HW220366   5.619   5.908   1.178  0.0863  2.3700  0.3381
 5150SOL    HW320367   5.500   5.870   1.094  1.7795  0.5063 -1.3367
 5150SOL    MW420368   5.540   5.925   1.148 -0.1233  0.7805 -0.1132
 5151SOL     OW20369   3.289   2.384   6.208 -0.4517  0.3208 -0.5327
 5151SOL    HW220370   3.340   2.339   6.141 -1.4850 -0.9385 -0.5166
 5151SOL    HW320371   3.268   2.316   6.272 -2.2556  0.7391 -0.6211
 5151SOL    MW420372   3.293   2.369   6.208 -0.8260  0.2098 -0.5423
 5152SOL     OW20373   1.948   0.830   4.115 -0.1021  0.2441 -0.2131
 5152SOL    HW220374   2.037   0.796   4.122 -1.0905 -2.3029  1.2360
 5152SOL    HW320375   1.960   0.923   4.093  2.8552 -0.1763 -0.8350
 5152SOL    MW420376   1.962   0.838   4.113  0.1577 -0.1474 -0.1040
 5153SOL     OW20377   0.963   0.632   3.982 -0.1175 -0.0972 -0.0572
 5153SOL    HW220378   0.937   0.709   3.931 -0.4123 -0.2084 -0.0768
 5153SOL    HW320379   0.882   0.600   4.020  0.2317  0.6433  1.4079
 5153SOL    MW420380   0.949   0.638   3.981 -0.1103 -0.0142  0.1335
 5154SOL     OW20381   2.133   0.669   1.166  0.5992 -0.1784 -0.3637
 5154SOL    HW220382   2.060   0.649   1.225  0.6356 -0.1694 -0.3153
 5154SOL    HW320383   2.141   0.764   1.171 -0.3827 -0.0124 -1.5537
 5154SOL    MW420384   2.124   0.679   1.175  0.4744 -0.1553 -0.5143
 5155SOL     OW20385   4.851   4.284   1.514  0.2624 -0.4719 -0.3799
 5155SOL    HW220386   4.935   4.258   1.553  0.5374  0.3365 -0.3948
 5155SOL    HW320387   4.800   4.204   1.509 -0.1584 -0.5168  2.5211
 5155SOL    MW420388   4.856   4.270   1.519  0.2431 -0.3712  0.0008
 5156SOL     OW20389   6.293   1.708   2.503  0.3191 -0.7614  0.1462
 5156SOL    HW220390   6.331   1.684   2.418 -0.9897 -1.1539 -0.3453
 5156SOL    HW320391   6.353   1.774   2.538  0.7297 -0.3906 -1.2048
 5156SOL    MW420392   6.306   1.713   2.496  0.2006 -0.7643 -0.0969
 5157SOL     OW20393   2.885   2.115   0.661 -0.0152 -0.1216 -0.2687
 5157SOL    HW220394   2.871   2.129   0.755  0.1049 -1.9604  0.0514
 5157SOL    HW320395   2.970   2.071   0.656  0.4912  0.9039 -1.3509
 5157SOL    MW420396   2.895   2.111   0.673  0.0675 -0.2289 -0.3692
 5158SOL     OW20397   5.944   4.676   2.135 -0.1099  0.6221  0.1452
 5158SOL    HW220398   5.944   4.767   2.165 -0.9101  0.6192  0.1725
 5158SOL    HW320399   5.916   4.680   2.044  1.4069  0.5395 -0.3558
 5158SOL    MW420400   5.940   4.689   2.127 -0.0153  0.6109  0.0827
 5159SOL     OW20401   3.255   0.161   0.988  0.2480 -0.1172  0.0773
 5159SOL    HW220402   3.320   0.231   0.981 -0.0741  0.1987  0.1451
 5159SOL    HW320403   3.176   0.206   1.019  1.0054 -1.0831  3.7843
 5159SOL    MW420404   3.253   0.176   0.991  0.3054 -0.2030  0.5754
 5160SOL     OW20405   0.097   3.001   1.521 -0.4493  0.4608  0.7274
 5160SOL    HW220406   0.020   3.014   1.466  0.1217  0.4740 -0.0920
 5160SOL    HW320407   0.168   2.985   1.459  0.0592 -0.3649  1.4965
 5160SOL    MW420408   0.096   3.001   1.505 -0.3069  0.3536  0.7208
 5161SOL     OW20409   3.585   1.163   1.786 -0.1995 -0.4302  0.0555
 5161SOL    HW220410   3.642   1.225   1.741 -2.0215  0.7492 -0.7411
 5161SOL    HW320411   3.583   1.193   1.877 -1.1513  0.8109 -0.3432
 5161SOL    MW420412   3.592   1.175   1.792 -0.5654 -0.1108 -0.1022
 5162SOL     OW20413   1.299   2.438   1.356 -0.3795 -0.0289 -0.8202
 5162SOL    HW220414   1.266   2.364   1.304  0.1832 -0.0388 -1.1730
 5162SOL    HW320415   1.329   2.502   1.291  0.4633 -0.0988 -0.5125
 5162SOL    MW420416   1.298   2.437   1.340 -0.1941 -0.0394 -0.8262
 5163SOL     OW20417   4.977   0.139   1.474 -0.2484 -1.0534  0.7371
 5163SOL    HW220418   5.012   0.054   1.446 -0.5930 -0.9992  0.1290
 5163SOL    HW320419   4.902   0.154   1.416  0.8478  0.4817 -0.3827
 5163SOL    MW420420   4.972   0.130   1.462 -0.1492 -0.8437  0.5091
 5164SOL     OW20421   6.126   3.504   4.930  0.0937 -0.6426 -0.0652
 5164SOL    HW220422   6.196   3.522   4.992 -1.4262 -0.4593  1.6633
 5164SOL    HW320423   6.102   3.413   4.947 -0.1203 -0.6918 -0.6131
 5164SOL    MW420424   6.132   3.494   4.940 -0.1351 -0.6249  0.0906
 5165SOL     OW20425   3.706   1.648   2.431  0.4321  0.3153 -0.2914
 5165SOL    HW220426   3.773   1.716   2.437  1.5170 -0.7303 -0.3662
 5165SOL    HW320427   3.647   1.666   2.505  1.8058  0.1949  0.8631
 5165SOL    MW420428   3.707   1.659   2.442  0.7565  0.1615 -0.1489
 5166SOL     OW20429   1.826   2.226   3.902  0.4528 -0.3409 -0.5411
 5166SOL    HW220430   1.777   2.302   3.871 -0.5956 -0.1444  1.4183
 5166SOL    HW320431   1.831   2.168   3.827  1.4558  1.7086 -2.1591
 5166SOL    MW420432   1.820   2.229   3.888  0.4468 -0.0445 -0.4961
 5167SOL     OW20433   2.328   3.310   3.127  0.4142  0.1034  0.4212
 5167SOL    HW220434   2.322   3.235   3.069 -0.9358  0.3066  0.2417
 5167SOL    HW320435   2.396   3.365   3.089 -1.0351  0.6658 -1.5560
 5167SOL    MW420436   2.336   3.308   3.114  0.0449  0.2044  0.1366
 5168SOL     OW20437   3.323   1.217   1.685 -0.2613 -0.3665  0.1540
 5168SOL    HW220438   3.334   1.312   1.685  0.8704 -0.4723  1.0299
 5168SOL    HW320439   3.407   1.183   1.718 -1.2131 -1.5904  1.4160
 5168SOL    MW420440   3.336   1.225   1.689 -0.2376 -0.5419  0.4361
 5169SOL     OW20441   4.265   3.554   4.480  0.2588 -0.8882 -0.3130
 5169SOL    HW220442   4.279   3.630   4.423 -2.4398 -0.7688 -0.9321
 5169SOL    HW320443   4.239   3.591   4.564 -1.8305 -1.0362 -0.8328
 5169SOL    MW420444   4.263   3.569   4.484 -0.3729 -0.8920 -0.4633
 5170SOL     OW20445   4.895   1.547   4.671 -0.4349 -0.4210 -0.2362
 5170SOL    HW220446   4.827   1.563   4.605 -1.4753 -1.0478  0.6522
 5170SOL    HW320447   4.950   1.625   4.668  0.3574 -0.9496 -2.7561
 5170SOL    MW420448   4.893   1.559   4.662 -0.4676 -0.5734 -0.4515
 5171SOL     OW20449   0.640   1.387   3.342 -0.4703 -0.3981 -0.0072
 5171SOL    HW220450   0.719   1.345   3.308 -0.4668 -1.1067  0.8451
 5171SOL    HW320451   0.624   1.460   3.282  1.5273  0.5394  0.5167
 5171SOL    MW420452   0.648   1.391   3.330 -0.2063 -0.3679  0.1744
 5172SOL     OW20453   1.843   1.253   2.476  0.6207 -0.0158  0.3484
 5172SOL    HW220454   1.817   1.341   2.503  0.6256  0.0675  0.0912
 5172SOL    HW320455   1.764   1.200   2.484  0.8877 -0.2485  1.5787
 5172SOL    MW420456   1.829   1.258   2.480  0.6566 -0.0355  0.4768
 5173SOL     OW20457   1.932   1.365   0.452  0.7163  0.0645 -0.2712
 5173SOL    HW220458   1.891   1.424   0.389  0.6512  0.2975 -0.0147
 5173SOL    HW320459   1.910   1.277   0.421 -0.4939  0.1869  0.1914
 5173SOL    MW420460   1.923   1.361   0.440  0.5481  0.1114 -0.1764
 5174SOL     OW20461   2.693   4.004   6.429  0.4054 -0.6702 -0.2606
 5174SOL    HW220462   2.637   4.058   6.485 -0.2439  0.4098 -1.8883
 5174SOL    HW320463   2.695   3.919   6.473 -0.6011 -0.0645  1.0480
 5174SOL    MW420464   2.686   4.000   6.442  0.1869 -0.4478 -0.3027
 5175SOL     OW20465   1.940   1.009   3.570 -0.4118 -0.5109 -0.2651
 5175SOL    HW220466   1.930   1.009   3.474 -2.8752 -1.9488 -0.0879
 5175SOL    HW320467   1.889   1.084   3.599  1.0400  0.4323 -0.1005
 5175SOL    MW420468   1.932   1.019   3.561 -0.5453 -0.5762 -0.2200
 5176SOL     OW20469   1.284   1.626   3.283  0.5652 -0.6702 -0.7962
 5176SOL    HW220470   1.271   1.707   3.333 -0.5427 -0.7083 -0.9985
 5176SOL    HW320471   1.230   1.561   3.329  1.1358 -1.2032 -0.8676
 5176SOL    MW420472   1.275   1.628   3.296  0.4943 -0.7455 -0.8323
 5177SOL     OW20473   5.594   0.202   4.054 -0.1437  0.4409  0.3555
 5177SOL    HW220474   5.584   0.107   4.048  1.2662  0.2796  0.0404
 5177SOL    HW320475   5.673   0.220   4.002 -0.1362  1.7219  0.7932
 5177SOL    MW420476   5.603   0.192   4.047  0.0433  0.5887  0.3717
 5178SOL     OW20477   4.637   1.008   3.808 -0.0265 -0.2475  0.2349
 5178SOL    HW220478   4.662   0.950   3.880  0.3228  0.2673  0.5397
 5178SOL    HW320479   4.589   0.952   3.748 -0.0452 -0.7608  0.7146
 5178SOL    MW420480   4.634   0.993   3.810  0.0171 -0.2473  0.3384
 5179SOL     OW20481   6.077   1.641   6.397  0.2128  0.3158  0.0616
 5179SOL    HW220482   6.090   1.548   6.382 -0.6083  0.1233  0.4936
 5179SOL    HW320483   6.116   1.658   6.482 -0.5749  0.1368  0.4700
 5179SOL    MW420484   6.084   1.631   6.406  0.0005  0.2668  0.1725
 5180SOL     OW20485   0.157   3.475   2.649  0.4376 -0.7202  0.4874
 5180SOL    HW220486   0.143   3.407   2.715  1.6333 -0.2656  1.2349
 5180SOL    HW320487   0.200   3.546   2.696 -3.2037  1.8159  0.4347
 5180SOL    MW420488   0.161   3.475   2.664  0.1150 -0.3256  0.5790
 5181SOL     OW20489   4.802   1.719   1.524 -0.8941 -0.2286  0.1860
 5181SOL    HW220490   4.767   1.654   1.463 -2.9534 -0.2157  1.2941
 5181SOL    HW320491   4.837   1.668   1.597 -0.8753 -0.1587  0.2259
 5181SOL    MW420492   4.802   1.704   1.525 -1.1633 -0.2177  0.3374
 5182SOL     OW20493   3.880   1.274   1.026 -0.1990 -0.8666  0.0050
 5182SOL    HW220494   3.929   1.219   1.087  0.0287  0.2310  0.8554
 5182SOL    HW320495   3.904   1.364   1.050 -0.5989 -0.3848 -1.2972
 5182SOL    MW420496   3.889   1.279   1.038 -0.2217 -0.6582 -0.0546
 5183SOL     OW20497   0.099   5.746   1.403 -0.0460 -0.3378  0.5172
 5183SOL    HW220498   0.156   5.738   1.479 -1.1278  0.4501  1.4357
 5183SOL    HW320499   0.012   5.764   1.439 -0.5488  0.2459 -0.8968
 5183SOL    MW420500   0.095   5.748   1.418 -0.2551 -0.1569  0.4519
 5184SOL     OW20501   3.381   3.269   4.966  0.5411  0.1438  0.3573
 5184SOL    HW220502   3.423   3.275   5.052 -1.5951 -0.3751  1.5294
 5184SOL    HW320503   3.420   3.192   4.926  1.4107  0.2585  0.9487
 5184SOL    MW420504   3.392   3.260   4.972  0.3740  0.0905  0.5900
 5185SOL     OW20505   2.583   6.345   0.132 -0.2311  0.6079  0.2731
 5185SOL    HW220506   2.507   6.303   0.092  0.8883 -1.2547  0.0323
 5185SOL    HW320507   2.631   6.384   0.059  1.0253 -1.5244 -0.1300
 5185SOL    MW420508   2.579   6.345   0.117  0.0824  0.0809  0.1882
 5186SOL     OW20509   3.718   3.169   4.653  0.5203 -0.2937 -0.1423
 5186SOL    HW220510   3.802   3.152   4.695  0.6784 -1.3950 -0.8565
 5186SOL    HW320511   3.720   3.116   4.573  0.0968  1.4700 -1.3823
 5186SOL    MW420512   3.729   3.160   4.648  0.4853 -0.2063 -0.4001
 5187SOL     OW20513   2.301   3.712   3.024 -0.1665  0.2716 -0.2924
 5187SOL    HW220514   2.225   3.748   2.978 -1.0247 -1.2113 -0.1090
 5187SOL    HW320515   2.369   3.706   2.957  0.7664  4.0086  0.0654
 5187SOL    MW420516   2.300   3.716   3.009 -0.1566  0.5690 -0.2210
 5188SOL     OW20517   5.444   5.169   6.035 -0.3604  0.3795 -0.1122
 5188SOL    HW220518   5.513   5.206   6.090 -0.2319  0.3905 -0.2772
 5188SOL    HW320519   5.367   5.223   6.051 -0.1078  0.8687 -0.5342
 5188SOL    MW420520   5.443   5.181   6.044 -0.3101  0.4455 -0.1896
 5189SOL     OW20521   3.314   1.012   2.835 -0.3958  0.3345  0.2500
 5189SOL    HW220522   3.307   0.979   2.746 -1.4591  0.8192  0.1344
 5189SOL    HW320523   3.268   1.096   2.833 -1.4044 -0.1452  1.4972
 5189SOL    MW420524   3.307   1.019   2.823 -0.6692  0.3352  0.3993
 5190SOL     OW20525   0.245   4.232   5.939  0.2919 -0.3777 -0.1500
 5190SOL    HW220526   0.195   4.221   6.020  0.2298 -1.8719 -0.3540
 5190SOL    HW320527   0.274   4.143   5.917  0.1672 -0.0351 -1.8511
 5190SOL    MW420528   0.242   4.219   5.947  0.2673 -0.5297 -0.4014
 5191SOL     OW20529   4.712   0.241   2.020 -0.2584 -0.2061  0.6025
 5191SOL    HW220530   4.727   0.290   2.101  1.4939 -1.5458  1.1471
 5191SOL    HW320531   4.708   0.308   1.952 -0.4354  0.8484  1.6215
 5191SOL    MW420532   4.714   0.256   2.022 -0.0505 -0.2437  0.8088
 5192SOL     OW20533   2.920   4.534   2.954  0.4207 -0.8797 -0.1715
 5192SOL    HW220534   3.004   4.580   2.948  1.3905 -2.5450 -0.0723
 5192SOL    HW320535   2.900   4.532   3.048 -0.0010 -0.0611 -0.2330
 5192SOL    MW420536   2.928   4.540   2.966  0.4930 -0.9914 -0.1665
 5193SOL     OW20537   3.627   0.075   5.722 -0.2367 -0.0430  0.2932
 5193SOL    HW220538   3.573   0.083   5.800 -0.3517  1.4037  0.1058
 5193SOL    HW320539   3.700   0.136   5.737 -1.0721  1.4656 -1.3283
 5193SOL    MW420540   3.629   0.084   5.734 -0.3621  0.3469  0.0545
 5194SOL     OW20541   2.299   0.408   3.048 -0.4947  0.3286 -0.0658
 5194SOL    HW220542   2.269   0.400   3.139 -1.1038 -0.9162 -0.3496
 5194SOL    HW320543   2.243   0.475   3.010 -0.9218  0.1251  0.2027
 5194SOL    MW420544   2.288   0.416   3.055 -0.6314  0.1375 -0.0678
 5195SOL     OW20545   4.160   0.776   5.292 -0.4955  0.5318  0.1506
 5195SOL    HW220546   4.224   0.837   5.327  0.1171  0.1087 -0.2210
 5195SOL    HW320547   4.190   0.756   5.204 -0.9775  0.1021  0.0742
 5195SOL    MW420548   4.172   0.781   5.285 -0.4783  0.4193  0.0915
 5196SOL     OW20549   0.757   2.685   2.222  0.5695 -0.0948 -0.1098
 5196SOL    HW220550   0.817   2.736   2.167 -1.0246  2.1245  0.0778
 5196SOL    HW320551   0.809   2.663   2.299  0.8725  2.9926  0.7051
 5196SOL    MW420552   0.772   2.689   2.224  0.3992  0.6054  0.0225
 5197SOL     OW20553   3.865   3.383   3.448 -0.5206  0.0638 -0.1334
 5197SOL    HW220554   3.858   3.322   3.375 -0.2406  0.2476 -0.3154
 5197SOL    HW320555   3.865   3.327   3.526  1.0604 -0.2817 -0.3475
 5197SOL    MW420556   3.864   3.368   3.449 -0.2751  0.0425 -0.1856
 5198SOL     OW20557   4.006   0.918   0.781 -0.0424 -0.3600 -0.7304
 5198SOL    HW220558   3.913   0.901   0.790  0.2858 -1.9399  0.1270
 5198SOL    HW320559   4.043   0.834   0.751  0.9807  0.5131 -2.0627
 5198SOL    MW420560   3.999   0.905   0.778  0.1359 -0.4533 -0.7930
 5199SOL     OW20561   6.098   4.440   0.385  0.0334  0.1930  0.8247
 5199SOL    HW220562   6.134   4.352   0.392 -1.9755 -0.6084  1.8883
 5199SOL    HW320563   6.069   4.447   0.294  1.2434  0.2309  0.4200
 5199SOL    MW420564   6.099   4.429   0.374 -0.0720  0.0923  0.9117
 5200SOL     OW20565   0.748   2.856   4.569  0.2763 -0.0431 -0.3811
 5200SOL    HW220566   0.718   2.943   4.595 -1.6146 -0.7807  0.0864
 5200SOL    HW320567   0.687   2.829   4.499 -0.4944 -1.7687  0.8752
 5200SOL    MW420568   0.736   2.864   4.563 -0.0749 -0.3681 -0.1537
 5201SOL     OW20569   1.407   4.160   5.313 -0.0610  0.2730  0.3126
 5201SOL    HW220570   1.382   4.069   5.328 -0.0248  0.4623  1.6151
 5201SOL    HW320571   1.502   4.158   5.308 -0.0838  0.1811 -0.1246
 5201SOL    MW420572   1.416   4.148   5.314 -0.0592  0.2858  0.4268
 5202SOL     OW20573   3.078   2.716   0.241 -0.0515  0.0004  0.9382
 5202SOL    HW220574   3.160   2.757   0.212 -1.2825  1.9853  0.1185
 5202SOL    HW320575   3.059   2.756   0.325 -0.8198  0.5105  0.5326
 5202SOL    MW420576   3.087   2.726   0.248 -0.3153  0.3296  0.7766
 5203SOL     OW20577   1.015   2.604   5.764 -0.1211  0.0238 -0.2897
 5203SOL    HW220578   0.962   2.596   5.685 -0.8875 -3.2858  0.3855
 5203SOL    HW320579   0.961   2.657   5.823 -0.5193  0.6873 -1.2277
 5203SOL    MW420580   1.001   2.610   5.762 -0.2747 -0.3254 -0.3244
 5204SOL     OW20581   5.966   5.599   5.387 -0.3911  0.0886 -0.2244
 5204SOL    HW220582   5.947   5.521   5.441 -3.6339 -0.2411 -1.6587
 5204SOL    HW320583   5.951   5.673   5.446  1.3260 -0.2512  0.7351
 5204SOL    MW420584   5.962   5.598   5.402 -0.5924  0.0003 -0.2871
 5205SOL     OW20585   2.931   1.591   0.376  0.4603  1.0806  0.1781
 5205SOL    HW220586   2.948   1.640   0.296 -0.7599  0.1305 -0.6979
 5205SOL    HW320587   2.847   1.623   0.407  0.6833  1.0731  0.8061
 5205SOL    MW420588   2.922   1.601   0.369  0.3287  0.9543  0.1454
 5206SOL     OW20589   4.040   0.993   1.561  0.0048 -0.2432 -0.6331
 5206SOL    HW220590   3.993   1.052   1.502  0.3716  0.3564 -0.3346
 5206SOL    HW320591   4.060   0.916   1.507  0.1377  0.1971 -1.2227
 5206SOL    MW420592   4.036   0.990   1.546  0.0707 -0.1060 -0.6715
 5207SOL     OW20593   5.543   2.804   3.751  0.4092 -0.3127  0.5010
 5207SOL    HW220594   5.625   2.841   3.783  0.8959  0.7681 -1.7636
 5207SOL    HW320595   5.566   2.715   3.723  0.4426 -0.5485  1.2681
 5207SOL    MW420596   5.557   2.797   3.751  0.4778 -0.2012  0.3034
 5208SOL     OW20597   6.125   3.717   3.233  0.5027 -0.5625  0.0930
 5208SOL    HW220598   6.209   3.687   3.199  0.1309  0.7503 -2.1588
 5208SOL    HW320599   6.062   3.651   3.205  0.7076 -1.4643  1.6448
 5208SOL    MW420600   6.128   3.705   3.225  0.4806 -0.5083  0.0006
 5209SOL     OW20601   4.296   2.703   5.103  0.0696  0.9595 -0.3187
 5209SOL    HW220602   4.303   2.643   5.029  0.9598  0.4612  0.1570
 5209SOL    HW320603   4.207   2.689   5.136  0.2499 -0.0675 -0.2410
 5209SOL    MW420604   4.285   2.693   5.098  0.2109  0.7582 -0.2457
 5210SOL     OW20605   0.037   6.357   4.057 -0.2566 -0.0627  0.1221
 5210SOL    HW220606   0.067   6.347   4.148 -0.4854 -1.2216  0.0785
 5210SOL    HW320607   0.025   6.452   4.047  2.6776  0.4275  0.3752
 5210SOL    MW420608   0.040   6.368   4.068  0.1003 -0.1509  0.1498
 5211SOL     OW20609   3.939   3.469   4.960 -0.0327 -0.5375 -0.3416
 5211SOL    HW220610   4.000   3.537   4.989 -2.1231  0.8993  1.0076
 5211SOL    HW320611   3.951   3.465   4.865  0.7691  1.1236 -0.3547
 5211SOL    MW420612   3.948   3.477   4.952 -0.2027 -0.1288 -0.1653
 5212SOL     OW20613   3.534   4.031   4.563  0.6791  0.3381  0.0687
 5212SOL    HW220614   3.553   3.954   4.509 -2.4283  0.3339 -1.2169
 5212SOL    HW320615   3.523   4.102   4.500  0.4119  1.1258  0.9920
 5212SOL    MW420616   3.535   4.030   4.547  0.2339  0.4415  0.0209
 5213SOL     OW20617   5.529   1.000   4.062  0.0435 -0.7034 -0.6302
 5213SOL    HW220618   5.571   1.051   4.132  1.2701 -0.3842 -1.5745
 5213SOL    HW320619   5.450   0.963   4.104 -0.7321  1.6725  0.1911
 5213SOL    MW420620   5.524   1.002   4.077  0.1030 -0.3478 -0.6465
 5214SOL     OW20621   3.225   5.392   0.606  0.2109  0.1027  0.2311
 5214SOL    HW220622   3.261   5.465   0.556  1.0163 -1.5318 -1.7469
 5214SOL    HW320623   3.160   5.352   0.547 -1.0102 -0.1474  1.6919
 5214SOL    MW420624   3.221   5.396   0.591  0.1560 -0.1460  0.1628
 5215SOL     OW20625   3.890   3.362   1.875 -0.8157  0.2126  0.4216
 5215SOL    HW220626   3.931   3.449   1.879  0.6043 -0.3949 -0.4168
 5215SOL    HW320627   3.803   3.380   1.839 -0.3104  1.2269 -0.3621
 5215SOL    MW420628   3.884   3.376   1.871 -0.5617  0.2663  0.2076
 5216SOL     OW20629   5.932   1.048   3.838 -0.2730  0.6180  0.4919
 5216SOL    HW220630   5.984   1.067   3.917 -1.6916 -1.2209  1.9781
 5216SOL    HW320631   5.997   1.025   3.772  0.9521  1.8735  1.1937
 5216SOL    MW420632   5.947   1.047   3.840 -0.2985  0.5410  0.7806
 5217SOL     OW20633   2.768   2.157   5.067  0.2939  0.4579 -0.4780
 5217SOL    HW220634   2.857   2.133   5.042 -0.0342  0.4999 -1.7050
 5217SOL    HW320635   2.770   2.157   5.163  2.5505  3.7634 -0.3459
 5217SOL    MW420636   2.780   2.154   5.077  0.5484  0.8995 -0.6224
 5218SOL     OW20637   5.233   0.632   0.147  0.4557 -0.5988  0.4227
 5218SOL    HW220638   5.289   0.598   0.217  0.2753  0.4623  1.1213
 5218SOL    HW320639   5.270   0.597   0.066  2.4889  0.4914  0.7996
 5218SOL    MW420640   5.245   0.623   0.146  0.7002 -0.3149  0.5646
 5219SOL     OW20641   0.692   1.809   2.967 -0.4193  0.0203 -0.0610
 5219SOL    HW220642   0.664   1.871   2.900 -3.3717  0.7040  1.6241
 5219SOL    HW320643   0.673   1.723   2.930  0.0428  0.2836 -0.9217
 5219SOL    MW420644   0.686   1.805   2.953 -0.7479  0.1452  0.0478
 5220SOL     OW20645   1.133   5.213   0.456  0.1048  0.5000  0.2229
 5220SOL    HW220646   1.218   5.175   0.474  0.1282  0.6372  0.3981
 5220SOL    HW320647   1.151   5.283   0.393 -0.1483 -0.9299 -1.5440
 5220SOL    MW420648   1.146   5.217   0.450  0.0745  0.3295  0.0129
 5221SOL     OW20649   1.508   4.713   3.461  0.3663 -0.1226  0.1300
 5221SOL    HW220650   1.525   4.794   3.412 -0.3177  0.7641  1.3091
 5221SOL    HW320651   1.418   4.722   3.492  0.5407 -1.0022  0.9305
 5221SOL    MW420652   1.498   4.725   3.458  0.2991 -0.1217  0.3912
 5222SOL     OW20653   0.753   4.824   2.714 -0.1912 -0.3378  0.7604
 5222SOL    HW220654   0.787   4.852   2.800  3.3977 -0.8741 -0.3237
 5222SOL    HW320655   0.782   4.734   2.705 -0.3260 -0.2343 -1.0873
 5222SOL    MW420656   0.761   4.816   2.725  0.2645 -0.3949  0.3736
 5223SOL     OW20657   0.440   1.552   0.618 -0.3395  0.4253  0.2480
 5223SOL    HW220658   0.485   1.622   0.666 -1.8767  0.9424  1.0047
 5223SOL    HW320659   0.490   1.474   0.638  1.7978  1.3727 -1.1249
 5223SOL    MW420660   0.452   1.551   0.627 -0.2603  0.6185  0.1667
 5224SOL     OW20661   5.269   3.722   0.632  0.3104 -0.0218 -0.1222
 5224SOL    HW220662   5.262   3.751   0.723 -3.0599 -0.8719  0.0300
 5224SOL    HW320663   5.241   3.797   0.580 -0.4781 -0.3807 -0.2371
 5224SOL    MW420664   5.264   3.735   0.637 -0.2383 -0.1813 -0.1173
 5225SOL     OW20665   6.037   6.168   0.071  0.1216 -0.0462 -0.7699
 5225SOL    HW220666   5.970   6.105   0.043 -1.1369  1.2392 -0.7342
 5225SOL    HW320667   6.046   6.154   0.165  0.1192 -0.3939 -0.8179
 5225SOL    MW420668   6.030   6.158   0.080 -0.0448  0.0775 -0.7715
 5226SOL     OW20669   6.171   3.955   1.372 -0.6670  0.1121  0.1331
 5226SOL    HW220670   6.245   3.894   1.385 -1.9651 -1.5772  0.0028
 5226SOL    HW320671   6.212   4.040   1.357  1.3522 -1.1037 -1.9022
 5226SOL    MW420672   6.186   3.958   1.372 -0.5718 -0.2712 -0.1526
 5227SOL     OW20673   5.774   0.409   0.931 -0.0310 -0.1204  0.0539
 5227SOL    HW220674   5.772   0.469   1.006  1.0406  0.3901 -0.3045
 5227SOL    HW320675   5.837   0.447   0.871 -1.7955  0.1567 -1.7291
 5227SOL    MW420676   5.782   0.422   0.933 -0.1224 -0.0165 -0.2287
 5228SOL     OW20677   6.306   5.457   3.902 -0.1189  0.2142 -0.6084
 5228SOL    HW220678   6.218   5.419   3.906  0.1720 -0.5049 -0.9927
 5228SOL    HW320679   6.335   5.461   3.993  0.8232 -2.8102 -0.6800
 5228SOL    MW420680   6.298   5.453   3.915  0.0438 -0.2797 -0.6686
 5229SOL     OW20681   4.793   5.565   1.938  0.2706  0.3865  0.1629
 5229SOL    HW220682   4.765   5.513   1.862  0.9406  1.4607 -0.8471
 5229SOL    HW320683   4.716   5.567   1.995 -0.1497 -0.6852 -0.3401
 5229SOL    MW420684   4.779   5.558   1.936  0.3035  0.3868 -0.0367
 5230SOL     OW20685   0.208   3.948   1.600 -0.2806  0.3178 -0.1084
 5230SOL    HW220686   0.173   3.939   1.689  0.8609 -0.0126  0.3312
 5230SOL    HW320687   0.231   3.858   1.575  0.6952  0.5680 -0.1695
 5230SOL    MW420688   0.207   3.935   1.609 -0.0013  0.3073 -0.0584
 5231SOL     OW20689   5.958   0.125   5.183  0.4052 -0.0713 -0.4890
 5231SOL    HW220690   6.050   0.140   5.164 -0.1589  2.6809 -1.4055
 5231SOL    HW320691   5.911   0.187   5.127 -1.9210 -0.0087  1.3738
 5231SOL    MW420692   5.964   0.135   5.173  0.0238  0.3001 -0.3641
 5232SOL     OW20693   1.320   2.303   4.674  0.2623 -0.3332  0.5241
 5232SOL    HW220694   1.227   2.303   4.693  0.1111  2.3353  0.1682
 5232SOL    HW320695   1.334   2.226   4.619 -1.7866 -0.5515  0.2563
 5232SOL    MW420696   1.310   2.293   4.670 -0.0280 -0.0100  0.4418
 5233SOL     OW20697   6.169   5.162   3.651  0.5929 -0.2584 -0.1175
 5233SOL    HW220698   6.249   5.134   3.694  0.0830 -0.4874  0.7115
 5233SOL    HW320699   6.141   5.240   3.700  0.2780 -0.2143 -0.3590
 5233SOL    MW420700   6.176   5.169   3.663  0.4841 -0.2828 -0.0400
 5234SOL     OW20701   0.379   1.932   5.291 -0.2013 -0.6324  0.4726
 5234SOL    HW220702   0.329   2.014   5.292 -1.2383 -1.2427  1.9079
 5234SOL    HW320703   0.377   1.902   5.382 -0.0764 -2.3841 -0.0791
 5234SOL    MW420704   0.372   1.939   5.303 -0.3217 -0.9441  0.5892
 5235SOL     OW20705   0.041   1.687   3.321 -0.1833  0.0094 -0.3988
 5235SOL    HW220706   0.113   1.750   3.325  0.3116 -0.5947  1.2988
 5235SOL    HW320707  -0.007   1.702   3.402  0.8012 -2.7288  0.8052
 5235SOL    MW420708   0.044   1.698   3.332  0.0119 -0.4316 -0.0160
 5236SOL     OW20709   4.915   1.340   4.407  0.0991 -0.1960 -0.2398
 5236SOL    HW220710   4.909   1.263   4.351 -1.1223  0.5314 -1.1648
 5236SOL    HW320711   4.836   1.337   4.461  0.9400 -0.5380  0.9881
 5236SOL    MW420712   4.903   1.330   4.407  0.0489 -0.1452 -0.1999
 5237SOL     OW20713   2.497   4.625   4.770 -0.0378 -0.4838  0.4973
 5237SOL    HW220714   2.586   4.611   4.802  0.4242  0.3863 -0.3450
 5237SOL    HW320715   2.487   4.565   4.696 -0.8946 -2.0545  1.8093
 5237SOL    MW420716   2.507   4.616   4.765 -0.0899 -0.5763  0.5593
 5238SOL     OW20717   0.899   3.457   5.845 -0.3247 -0.6260 -0.0612
 5238SOL    HW220718   0.850   3.390   5.798 -0.2107 -0.7044 -0.0697
 5238SOL    HW320719   0.833   3.517   5.878 -0.4810 -1.1806  0.6450
 5238SOL    MW420720   0.884   3.456   5.843 -0.3303 -0.7095  0.0309
 5239SOL     OW20721   3.627   4.406   3.114  0.0837  0.9085 -0.4266
 5239SOL    HW220722   3.698   4.407   3.050 -1.1504  1.2262 -1.8369
 5239SOL    HW320723   3.628   4.493   3.152  0.0723  1.1073 -0.8749
 5239SOL    MW420724   3.637   4.417   3.111 -0.0806  0.9766 -0.6718
 5240SOL     OW20725   5.096   0.763   3.175 -0.1496  0.1314 -0.4800
 5240SOL    HW220726   5.039   0.836   3.202  0.7501  0.5779  0.2682
 5240SOL    HW320727   5.161   0.804   3.119  0.6009 -0.0170  0.2676
 5240SOL    MW420728   5.097   0.778   3.171  0.0681  0.1708 -0.2827
 5241SOL     OW20729   5.177   5.255   5.104  0.5787 -0.2951  0.1172
 5241SOL    HW220730   5.263   5.215   5.114  0.9557  0.5042  0.1436
 5241SOL    HW320731   5.157   5.289   5.192  1.2250  1.4537 -0.3801
 5241SOL    MW420732   5.185   5.254   5.117  0.7137  0.0411  0.0550
 5242SOL     OW20733   3.454   1.666   3.738  0.3375 -0.0489 -1.0204
 5242SOL    HW220734   3.365   1.697   3.726  0.1224 -0.8509 -1.6208
 5242SOL    HW320735   3.459   1.587   3.684  0.4786 -1.7955  1.3584
 5242SOL    MW420736   3.443   1.659   3.729  0.3277 -0.3851 -0.7857
 5243SOL     OW20737   0.200   1.121   1.731 -0.1250 -0.5085  0.3727
 5243SOL    HW220738   0.236   1.089   1.813 -1.0795  0.8899  1.3801
 5243SOL    HW320739   0.139   1.052   1.703  1.9933 -2.1337 -0.5132
 5243SOL    MW420740   0.197   1.108   1.738  0.0285 -0.5384  0.3887
 5244SOL     OW20741   5.548   5.587   1.770 -0.1723 -0.0524 -0.0564
 5244SOL    HW220742   5.477   5.526   1.751 -0.5215  0.5148 -0.6304
 5244SOL    HW320743   5.511   5.674   1.753  0.1173  0.3731  1.3622
 5244SOL    MW420744   5.534   5.590   1.765 -0.1802  0.0786  0.0550
 5245SOL     OW20745   2.747   0.526   3.527 -0.1630 -0.2731  0.1117
 5245SOL    HW220746   2.764   0.604   3.473  2.7413 -0.5525  0.4477
 5245SOL    HW320747   2.732   0.561   3.614 -0.6741 -0.0197 -0.0734
 5245SOL    MW420748   2.748   0.541   3.531  0.1528 -0.2765  0.1317
 5246SOL     OW20749   1.111   3.361   2.381  0.1427 -0.1185  0.6811
 5246SOL    HW220750   1.193   3.403   2.354 -0.0264 -0.7973 -1.0238
 5246SOL    HW320751   1.051   3.433   2.397  0.4715  0.3476 -0.1153
 5246SOL    MW420752   1.114   3.376   2.380  0.1638 -0.1465  0.3511
 5247SOL     OW20753   5.571   1.702   3.268  0.7279  0.2941 -0.1211
 5247SOL    HW220754   5.580   1.649   3.347 -0.7229  0.1717 -0.0116
 5247SOL    HW320755   5.610   1.649   3.199 -0.6677 -0.9378 -0.0060
 5247SOL    MW420756   5.578   1.688   3.270  0.3524  0.1155 -0.0914
 5248SOL     OW20757   2.086   2.732   3.694  0.0772 -0.5509 -0.1243
 5248SOL    HW220758   2.092   2.784   3.774 -0.1639 -1.6228  0.6063
 5248SOL    HW320759   2.158   2.670   3.699  0.6171 -0.0488 -1.1912
 5248SOL    MW420760   2.096   2.731   3.705  0.1166 -0.6261 -0.1687
 5249SOL     OW20761   2.862   5.190   3.903  0.1838 -0.0052  0.6687
 5249SOL    HW220762   2.930   5.254   3.926  0.0113  0.0939  0.9023
 5249SOL    HW320763   2.908   5.106   3.906  0.7478  0.2040 -0.9425
 5249SOL    MW420764   2.877   5.187   3.906  0.2354  0.0355  0.4869
 5250SOL     OW20765   3.861   1.380   0.350 -0.0043  0.4022 -0.1909
 5250SOL    HW220766   3.794   1.325   0.391  1.1581 -0.5992  0.4418
 5250SOL    HW320767   3.943   1.356   0.394  0.8887  1.1548 -1.3490
 5250SOL    MW420768   3.863   1.370   0.361  0.2669  0.3694 -0.2602
 5251SOL     OW20769   3.039   0.315   1.791  0.0469 -0.0221  0.1192
 5251SOL    HW220770   2.965   0.320   1.852 -0.1189  0.6314 -0.1199
 5251SOL    HW320771   3.113   0.288   1.845 -0.4171 -0.9381  0.3156
 5251SOL    MW420772   3.039   0.312   1.806 -0.0362 -0.0567  0.1136
 5252SOL     OW20773   1.607   5.893   5.096 -0.3152 -0.1497  0.4655
 5252SOL    HW220774   1.623   5.875   5.003  0.6889  0.6927  0.4570
 5252SOL    HW320775   1.652   5.975   5.112 -1.1274  0.1056  1.5327
 5252SOL    MW420776   1.615   5.901   5.085 -0.2898 -0.0048  0.6052
 5253SOL     OW20777   1.925   1.510   1.344 -0.1427  0.0669 -0.6082
 5253SOL    HW220778   1.944   1.531   1.436  0.2394 -1.0392 -0.4204
 5253SOL    HW320779   1.830   1.508   1.339 -0.1674 -0.5968 -0.0528
 5253SOL    MW420780   1.915   1.513   1.355 -0.0955 -0.1666 -0.5102
 5254SOL     OW20781   5.221   0.512   3.237 -0.7544  0.2506  0.3155
 5254SOL    HW220782   5.174   0.590   3.207  0.2848 -0.1430 -2.5700
 5254SOL    HW320783   5.313   0.532   3.224 -0.4512 -2.7542 -4.6755
 5254SOL    MW420784   5.227   0.525   3.232 -0.5773 -0.1977 -0.7237
 5255SOL     OW20785   5.026   3.933   0.200  0.1507 -0.0124 -0.0870
 5255SOL    HW220786   4.933   3.916   0.191  0.2527 -1.4817  1.2180
 5255SOL    HW320787   5.040   4.015   0.153 -1.5980 -0.2910 -1.1822
 5255SOL    MW420788   5.016   3.942   0.193 -0.0666 -0.2430 -0.0594
 5256SOL     OW20789   0.935   1.601   3.100  0.6040  0.1216 -0.7523
 5256SOL    HW220790   0.987   1.523   3.121  0.3995  0.0302 -0.5840
 5256SOL    HW320791   0.999   1.672   3.101  0.6876  0.0432 -0.3180
 5256SOL    MW420792   0.951   1.600   3.103  0.5880  0.0992 -0.6728
 5257SOL     OW20793   0.768   2.965   1.881 -0.6239  0.3665 -0.2129
 5257SOL    HW220794   0.810   2.922   1.807  0.3229 -0.7626  0.9334
 5257SOL    HW320795   0.702   2.903   1.911 -1.5495  1.1540 -0.5857
 5257SOL    MW420796   0.765   2.952   1.875 -0.6211  0.3214 -0.1108
 5258SOL     OW20797   4.905   6.055   6.226  0.5209 -0.0466 -0.0596
 5258SOL    HW220798   4.966   6.004   6.172  0.1144 -1.1171  0.4536
 5258SOL    HW320799   4.880   6.128   6.171  1.0541 -0.4544 -0.8681
 5258SOL    MW420800   4.910   6.058   6.212  0.5376 -0.2416 -0.0985
 5259SOL     OW20801   2.339   5.501   3.578  0.3043 -0.8832 -0.2652
 5259SOL    HW220802   2.331   5.548   3.495 -0.0284 -0.1469  0.1756
 5259SOL    HW320803   2.379   5.564   3.638 -0.5403 -1.0079  0.4512
 5259SOL    MW420804   2.344   5.515   3.575  0.1490 -0.8025 -0.1125
 5260SOL     OW20805   1.507   6.265   6.285 -0.2326  0.2369  0.0762
 5260SOL    HW220806   1.456   6.314   6.220  0.9625  2.7909  0.9264
 5260SOL    HW320807   1.598   6.290   6.267  0.1854  0.4852  2.2539
 5260SOL    MW420808   1.513   6.275   6.274 -0.0198  0.6066  0.4757
 5261SOL     OW20809   2.901   0.613   1.403  0.2655 -0.2523 -0.1373
 5261SOL    HW220810   2.912   0.667   1.481 -0.6876  1.9253 -1.4334
 5261SOL    HW320811   2.808   0.619   1.382  0.5921 -0.2899 -1.7721
 5261SOL    MW420812   2.890   0.621   1.410  0.1828  0.0301 -0.5240
 5262SOL     OW20813   2.359   0.511   1.305  0.2836  0.0070  0.4121
 5262SOL    HW220814   2.330   0.433   1.258 -0.2308 -1.1431  2.5236
 5262SOL    HW320815   2.325   0.584   1.253 -0.7238 -1.1873 -0.6849
 5262SOL    MW420816   2.351   0.510   1.292  0.0828 -0.3023  0.5460
 5263SOL     OW20817   1.105   3.761   1.932 -0.7691 -0.4199  0.3803
 5263SOL    HW220818   1.169   3.736   1.998 -0.0017 -0.9013 -0.5248
 5263SOL    HW320819   1.152   3.754   1.849 -1.5176  0.8110 -0.1732
 5263SOL    MW420820   1.119   3.757   1.930 -0.7666 -0.3210  0.1878
 5264SOL     OW20821   2.762   0.039   1.179  0.1961 -0.3405 -0.4282
 5264SOL    HW220822   2.740  -0.001   1.263  0.4073  1.5672  0.5749
 5264SOL    HW320823   2.705  -0.006   1.116 -0.4704 -1.3118  0.8164
 5264SOL    MW420824   2.752   0.028   1.181  0.1360 -0.2169 -0.1316
 5265SOL     OW20825   1.126   4.221   4.935  0.0038  0.3688 -0.1191
 5265SOL    HW220826   1.152   4.135   4.904  2.4428  0.2463  1.9635
 5265SOL    HW320827   1.125   4.214   5.031 -2.7083  1.9050  0.0854
 5265SOL    MW420828   1.129   4.209   4.944 -0.0322  0.5553  0.1826
 5266SOL     OW20829   2.802   0.249   2.787  0.2249 -0.0757 -0.1111
 5266SOL    HW220830   2.743   0.272   2.859  1.1853 -0.3132  0.7798
 5266SOL    HW320831   2.806   0.328   2.733 -0.6186  0.0592  0.0048
 5266SOL    MW420832   2.794   0.263   2.789  0.2403 -0.0893  0.0217
 5267SOL     OW20833   5.775   1.526   5.215  0.1448  0.3924 -0.0983
 5267SOL    HW220834   5.680   1.519   5.218  0.2720 -1.1687  1.5738
 5267SOL    HW320835   5.792   1.596   5.152 -2.0721  0.0964 -1.1118
 5267SOL    MW420836   5.765   1.534   5.207 -0.1309  0.1474 -0.0114
 5268SOL     OW20837   2.530   5.692   0.501  1.0244 -0.1466  0.4865
 5268SOL    HW220838   2.569   5.757   0.442  1.3170  1.0638  1.9324
 5268SOL    HW320839   2.548   5.608   0.461  0.3333  0.6702 -1.6539
 5268SOL    MW420840   2.537   5.690   0.488  0.9718  0.1208  0.3949
 5269SOL     OW20841   2.167   6.124   4.280  0.0271 -0.4655 -0.0106
 5269SOL    HW220842   2.116   6.204   4.278 -0.3434 -0.6309  1.3758
 5269SOL    HW320843   2.244   6.142   4.227 -0.4126  0.5494 -0.3124
 5269SOL    MW420844   2.170   6.137   4.273 -0.0798 -0.3534  0.1325
 5270SOL     OW20845   4.156   5.969   1.097  0.1839  0.7517  0.5496
 5270SOL    HW220846   4.178   6.044   1.042 -1.3665  1.0910  0.3451
 5270SOL    HW320847   4.102   5.914   1.040 -2.5835  1.7375  2.0387
 5270SOL    MW420848   4.152   5.972   1.082 -0.3858  0.9265  0.7190
 5271SOL     OW20849   0.121   0.394   4.203 -1.3337  0.0098 -0.3782
 5271SOL    HW220850   0.113   0.338   4.281  0.7259  0.0517 -0.0966
 5271SOL    HW320851   0.128   0.332   4.130  2.1894 -0.2922  0.0415
 5271SOL    MW420852   0.120   0.378   4.204 -0.5971 -0.0245 -0.2857
 5272SOL     OW20853   1.212   3.489   0.756 -0.3619  0.0041 -0.1308
 5272SOL    HW220854   1.157   3.428   0.805 -1.0371  0.4878 -0.2682
 5272SOL    HW320855   1.298   3.448   0.755 -0.9089 -1.2067 -0.6552
 5272SOL    MW420856   1.216   3.475   0.762 -0.5232 -0.0918 -0.2181
 5273SOL     OW20857   0.229   4.288   1.449  0.1762  0.2638  0.5634
 5273SOL    HW220858   0.155   4.228   1.448  0.1267  0.3235 -0.5646
 5273SOL    HW320859   0.212   4.347   1.523 -0.7677  0.1186  0.4646
 5273SOL    MW420860   0.217   4.288   1.459  0.0451  0.2525  0.4015
 5274SOL     OW20861   4.399   2.441   1.967  0.0394  0.4178  0.1296
 5274SOL    HW220862   4.396   2.387   2.046  0.4746 -0.4999 -0.4592
 5274SOL    HW320863   4.418   2.379   1.897  0.2519  1.3052 -0.6170
 5274SOL    MW420864   4.401   2.426   1.968  0.1249  0.4138 -0.0466
 5275SOL     OW20865   5.628   5.941   1.539 -0.4364  0.3239 -0.0966
 5275SOL    HW220866   5.645   5.870   1.478  1.2930  0.1064  0.5777
 5275SOL    HW320867   5.590   5.897   1.616 -2.1963  0.5410 -0.8183
 5275SOL    MW420868   5.625   5.926   1.541 -0.4404  0.3239 -0.1029
 5276SOL     OW20869   3.884   6.347   1.939 -0.1830 -0.2198 -0.0721
 5276SOL    HW220870   3.817   6.414   1.953 -1.7327 -1.0886 -2.7064
 5276SOL    HW320871   3.861   6.277   2.000 -0.6425  0.1740  0.2118
 5276SOL    MW420872   3.872   6.347   1.949 -0.4481 -0.2825 -0.3822
 5277SOL     OW20873   4.509   1.022   2.278 -0.1312  0.5845 -0.2344
 5277SOL    HW220874   4.466   1.107   2.289 -0.0435  0.5315  0.5557
 5277SOL    HW320875   4.476   0.989   2.195  1.3121  2.2811 -1.5535
 5277SOL    MW420876   4.499   1.029   2.269  0.0708  0.8014 -0.3042
 5278SOL     OW20877   0.569   1.255   0.423 -0.4251 -0.3667 -0.0687
 5278SOL    HW220878   0.488   1.285   0.381  0.9401  0.0234 -2.6039
 5278SOL    HW320879   0.561   1.160   0.425 -1.3471 -0.2855  0.6196
 5278SOL    MW420880   0.557   1.246   0.418 -0.3666 -0.3045 -0.3124
 5279SOL     OW20881   5.031   3.460   6.133  0.0058  0.3879  0.0328
 5279SOL    HW220882   4.975   3.507   6.072 -0.6292 -0.3316  0.0414
 5279SOL    HW320883   5.120   3.487   6.110 -0.2919  0.9366 -0.5010
 5279SOL    MW420884   5.035   3.470   6.122 -0.1173  0.3654 -0.0365
 5280SOL     OW20885   1.221   1.555   5.566  0.8845 -0.6622  0.1240
 5280SOL    HW220886   1.191   1.466   5.548 -1.0864  0.1043 -0.6284
 5280SOL    HW320887   1.314   1.554   5.542  1.5191 -3.0547  2.2403
 5280SOL    MW420888   1.229   1.543   5.561  0.7082 -0.8767  0.3039
 5281SOL     OW20889   1.115   2.587   5.138  0.9271  0.4577  0.3828
 5281SOL    HW220890   1.074   2.658   5.090 -1.3788 -0.0389  1.4834
 5281SOL    HW320891   1.152   2.629   5.216 -0.8040  0.4768  1.2499
 5281SOL    MW420892   1.114   2.602   5.142  0.3945  0.3947  0.6424
 5282SOL     OW20893   4.455   0.121   2.005 -0.0304 -0.1817 -0.0560
 5282SOL    HW220894   4.417   0.163   1.928  0.5357  0.0493 -0.2160
 5282SOL    HW320895   4.541   0.163   2.015 -0.0387 -0.3147  0.6128
 5282SOL    MW420896   4.461   0.132   1.996  0.0432 -0.1688  0.0111
 5283SOL     OW20897   2.007   6.418   1.184 -0.5028  0.3235  0.0131
 5283SOL    HW220898   1.993   6.326   1.203 -0.8324  0.6022  1.2169
 5283SOL    HW320899   2.078   6.444   1.243 -1.3250  1.1389  0.6818
 5283SOL    MW420900   2.014   6.410   1.194 -0.6547  0.4679  0.2601
 5284SOL     OW20901   0.676   0.352   3.846 -0.3805  0.1036 -0.2776
 5284SOL    HW220902   0.690   0.417   3.777 -1.2925  0.3693 -0.2190
 5284SOL    HW320903   0.736   0.280   3.824  0.6100  0.9331 -0.3628
 5284SOL    MW420904   0.686   0.351   3.834 -0.3702  0.2481 -0.2811
 5285SOL     OW20905   3.920   4.455   4.703 -0.4027 -0.2608  0.4167
 5285SOL    HW220906   3.832   4.453   4.664  0.1731 -0.3575 -0.9448
 5285SOL    HW320907   3.968   4.517   4.649  0.6704 -1.0201  0.4790
 5285SOL    MW420908   3.914   4.463   4.691 -0.1851 -0.3738  0.2453
 5286SOL     OW20909   1.126   2.551   0.705 -1.0204 -0.4039 -1.1835
 5286SOL    HW220910   1.109   2.645   0.714  0.6427 -0.1532 -0.1854
 5286SOL    HW320911   1.192   2.545   0.636  0.2975 -0.6208  0.0411
 5286SOL    MW420912   1.133   2.562   0.697 -0.6271 -0.3995 -0.8902
 5287SOL     OW20913   4.800   1.101   2.162  0.2673  0.0718 -0.3343
 5287SOL    HW220914   4.758   1.183   2.188 -1.0179 -0.5548 -0.3728
 5287SOL    HW320915   4.766   1.036   2.223 -2.6727 -1.4163 -3.2058
 5287SOL    MW420916   4.790   1.103   2.173 -0.2901 -0.2072 -0.7183
 5288SOL     OW20917   3.110   1.357   5.776  0.6127  0.5471  0.1226
 5288SOL    HW220918   3.026   1.364   5.821  0.2555 -2.1350 -0.0056
 5288SOL    HW320919   3.091   1.384   5.686 -0.0895  0.1021  0.1329
 5288SOL    MW420920   3.097   1.362   5.770  0.4729  0.1345  0.1071
 5289SOL     OW20921   5.173   1.160   2.588 -0.4040  0.2350  0.7011
 5289SOL    HW220922   5.205   1.095   2.526 -0.9606  1.6212 -1.1062
 5289SOL    HW320923   5.246   1.173   2.648  0.7866  0.0570 -0.6524
 5289SOL    MW420924   5.187   1.153   2.588 -0.3204  0.3944  0.2840
 5290SOL     OW20925   1.261   1.602   3.761  0.1781  0.4790  0.5654
 5290SOL    HW220926   1.260   1.694   3.737  0.1691  0.4125  0.3078
 5290SOL    HW320927   1.174   1.585   3.797  0.2011  0.5854  0.6699
 5290SOL    MW420928   1.249   1.612   3.762  0.1800  0.4843  0.5452
 5291SOL     OW20929   6.379   4.792   3.725 -0.0796 -0.6742  0.5622
 5291SOL    HW220930   6.321   4.722   3.756  0.5269 -1.5381 -0.2201
 5291SOL    HW320931   6.400   4.768   3.635 -1.3607  1.5173 -0.3993
 5291SOL    MW420932   6.374   4.779   3.718 -0.1686 -0.4990  0.3321
 5292SOL     OW20933   1.780   3.726   4.709 -0.6273  0.0637  0.4031
 5292SOL    HW220934   1.833   3.732   4.788  0.0322 -1.2977  0.0920
 5292SOL    HW320935   1.742   3.814   4.699 -0.2782  0.4170  1.9010
 5292SOL    MW420936   1.782   3.739   4.718 -0.4943 -0.0693  0.5596
 5293SOL     OW20937   3.786   0.452   1.544 -0.5072 -0.3436 -0.8291
 5293SOL    HW220938   3.777   0.429   1.451 -0.6075 -1.3000 -0.5854
 5293SOL    HW320939   3.744   0.380   1.591  0.6269 -0.4663  0.0145
 5293SOL    MW420940   3.779   0.440   1.538 -0.3708 -0.4860 -0.6856
 5294SOL     OW20941   3.145   4.847   2.687 -0.4022 -0.1652 -0.3985
 5294SOL    HW220942   3.232   4.854   2.727 -0.8486  1.4737  0.3814
 5294SOL    HW320943   3.160   4.864   2.594 -0.1710  3.0200  0.1092
 5294SOL    MW420944   3.159   4.851   2.680 -0.4306  0.4713 -0.2286
 5295SOL     OW20945   3.578   3.532   0.737 -0.2736 -0.2417  0.1880
 5295SOL    HW220946   3.587   3.570   0.650  2.1810 -0.8188  0.1222
 5295SOL    HW320947   3.502   3.474   0.730 -0.3904  0.0629 -1.4244
 5295SOL    MW420948   3.569   3.529   0.725  0.0348 -0.2776 -0.0334
 5296SOL     OW20949   5.850   3.913   2.185  0.1315 -0.0607 -0.6540
 5296SOL    HW220950   5.926   3.885   2.135 -0.8507  1.2857 -3.0707
 5296SOL    HW320951   5.789   3.946   2.120 -1.3658  1.6117  1.4372
 5296SOL    MW420952   5.852   3.914   2.170 -0.1956  0.3376 -0.6970
 5297SOL     OW20953   2.550   3.431   3.028  0.4709 -0.4517  0.3060
 5297SOL    HW220954   2.574   3.473   2.946  1.6039 -0.6751  0.5116
 5297SOL    HW320955   2.581   3.341   3.019 -2.4693 -1.5155 -0.3930
 5297SOL    MW420956   2.557   3.424   3.016  0.2325 -0.6216  0.2409
 5298SOL     OW20957   6.358   6.166   2.546  0.1888 -0.0534  0.0710
 5298SOL    HW220958   6.399   6.155   2.461  2.8864  0.1693  1.2310
 5298SOL    HW320959   6.364   6.260   2.564  1.4979 -0.3230  1.2786
 5298SOL    MW420960   6.364   6.177   2.537  0.7174 -0.0596  0.3834
 5299SOL     OW20961   1.396   2.843   1.837 -0.4655  0.2437  0.6205
 5299SOL    HW220962   1.435   2.929   1.851  0.4454 -0.3599  1.9469
 5299SOL    HW320963   1.463   2.781   1.864 -0.1992 -1.0114 -2.5071
 5299SOL    MW420964   1.410   2.846   1.843 -0.3101 -0.0015  0.3829
 5300SOL     OW20965   6.168   1.283   0.398 -0.0942  0.2160  0.2359
 5300SOL    HW220966   6.203   1.233   0.472  1.9467 -0.3334 -1.0175
 5300SOL    HW320967   6.231   1.354   0.385 -0.3661  0.2473 -1.0202
 5300SOL    MW420968   6.181   1.286   0.406  0.1392  0.1476 -0.0952
 5301SOL     OW20969   0.274   0.726   1.040  0.0621  0.2496 -0.0010
 5301SOL    HW220970   0.201   0.677   1.002 -0.3269  0.8561 -0.0513
 5301SOL    HW320971   0.305   0.670   1.111 -0.4055 -0.0536 -0.0260
 5301SOL    MW420972   0.268   0.712   1.044 -0.0509  0.2897 -0.0109
 5302SOL     OW20973   4.807   4.776   5.957  0.2387 -0.1177 -0.0527
 5302SOL    HW220974   4.808   4.695   6.008 -2.1615  0.6124  1.3206
 5302SOL    HW320975   4.870   4.833   6.001  1.3691 -0.9370 -0.5623
 5302SOL    MW420976   4.815   4.773   5.969  0.0712 -0.1295  0.0613
 5303SOL     OW20977   5.288   1.788   1.025 -0.0103  0.8382  0.3816
 5303SOL    HW220978   5.265   1.744   1.106 -2.0774  2.3356  0.6790
 5303SOL    HW320979   5.324   1.873   1.052  0.1105  0.9977 -0.2497
 5303SOL    MW420980   5.290   1.793   1.039 -0.2671  1.0568  0.3376
 5304SOL     OW20981   3.666   1.825   0.741  0.5058 -0.7189 -0.3956
 5304SOL    HW220982   3.583   1.848   0.783 -0.3458 -0.5988 -2.0417
 5304SOL    HW320983   3.679   1.733   0.764  0.5181 -0.4283  0.8067
 5304SOL    MW420984   3.656   1.816   0.749  0.3951 -0.6647 -0.4542
 5305SOL     OW20985   0.728   0.030   0.417 -0.4261 -0.1083  0.1490
 5305SOL    HW220986   0.700   0.048   0.327 -0.0408 -0.4164 -0.0406
 5305SOL    HW320987   0.647   0.014   0.465 -0.6406  0.1225 -0.1297
 5305SOL    MW420988   0.714   0.030   0.411 -0.4035 -0.1185  0.0872
 5306SOL     OW20989   1.093   1.032   4.631 -0.1852 -0.0960  0.1163
 5306SOL    HW220990   1.014   0.980   4.650 -0.5620  0.3346 -0.2745
 5306SOL    HW320991   1.060   1.113   4.594  0.5122 -0.9022 -2.4531
 5306SOL    MW420992   1.078   1.036   4.629 -0.1429 -0.1456 -0.2742
 5307SOL     OW20993   4.279   2.657   0.799 -0.1273  0.2142 -0.1696
 5307SOL    HW220994   4.186   2.641   0.816  0.0684 -1.4621 -0.5452
 5307SOL    HW320995   4.279   2.722   0.728 -0.9769  1.2535  0.7390
 5307SOL    MW420996   4.267   2.664   0.792 -0.2136  0.1302 -0.0993
 5308SOL     OW20997   3.217   3.651   0.806 -0.4987  0.1801  0.1329
 5308SOL    HW220998   3.151   3.719   0.824  0.3631  1.1150 -0.1292
 5308SOL    HW320999   3.280   3.694   0.748 -0.1887 -1.0081 -0.4436
 5308SOL    MW421000   3.216   3.666   0.801 -0.3441  0.1467  0.0223
 5309SOL     OW21001   6.319   5.558   2.983  0.1109 -0.5166 -0.2439
 5309SOL    HW221002   6.249   5.594   3.036  0.6419  1.1502 -0.6352
 5309SOL    HW321003   6.302   5.590   2.895  0.0147 -2.1163 -0.8413
 5309SOL    MW421004   6.308   5.567   2.978  0.1683 -0.5078 -0.3743
 5310SOL     OW21005   0.188   6.186   4.950  0.0605  0.2547 -0.3814
 5310SOL    HW221006   0.157   6.157   4.864  0.0287 -0.0877 -0.2558
 5310SOL    HW321007   0.256   6.251   4.931  0.2761 -0.0539 -0.6706
 5310SOL    MW421008   0.193   6.191   4.936  0.0848  0.1688 -0.4030
 5311SOL     OW21009   5.494   5.715   5.697  0.7824 -0.1961 -0.1919
 5311SOL    HW221010   5.516   5.629   5.730  1.5729  0.4160  0.9341
 5311SOL    HW321011   5.541   5.722   5.614  0.7999 -0.8073 -0.2329
 5311SOL    MW421012   5.503   5.705   5.690  0.8890 -0.1960 -0.0487
 5312SOL     OW21013   4.421   3.978   5.943 -0.0903 -0.0421  0.1056
 5312SOL    HW221014   4.500   3.927   5.926 -1.2721 -1.6618 -0.7729
 5312SOL    HW321015   4.349   3.920   5.920 -1.5379  1.9212 -0.6307
 5312SOL    MW421016   4.422   3.964   5.938 -0.4372  0.0032 -0.1075
 5313SOL     OW21017   3.153   2.824   4.533  0.4877  0.1149  0.4359
 5313SOL    HW221018   3.111   2.818   4.448  0.1436 -1.8961  0.7037
 5313SOL    HW321019   3.084   2.803   4.596  1.3425 -0.9837  1.0274
 5313SOL    MW421020   3.139   2.821   4.530  0.5551 -0.2954  0.5493
 5314SOL     OW21021   1.417   1.108   3.875 -0.4141 -0.0019  0.1049
 5314SOL    HW221022   1.374   1.027   3.849  0.4446 -0.7484  0.9334
 5314SOL    HW321023   1.472   1.084   3.949  0.3090  1.2184  0.0021
 5314SOL    MW421024   1.419   1.094   3.881 -0.2054  0.0606  0.2007
 5315SOL     OW21025   0.850   5.792   0.524  0.3322  0.1260  0.4445
 5315SOL    HW221026   0.889   5.763   0.606  0.4735 -0.3764  0.1995
 5315SOL    HW321027   0.762   5.822   0.549 -0.5900 -2.3616  0.4314
 5315SOL    MW421028   0.843   5.792   0.538  0.2291 -0.2685  0.4104
 5316SOL     OW21029   1.841   3.557   6.110  0.1733 -0.3933 -0.4026
 5316SOL    HW221030   1.846   3.469   6.073 -1.0528 -1.4121  1.7115
 5316SOL    HW321031   1.748   3.574   6.122  0.4100  1.0328 -0.3710
 5316SOL    MW421032   1.830   3.548   6.107  0.0428 -0.3396 -0.1195
 5317SOL     OW21033   2.712   2.450   1.106  0.1499  0.3725  0.1919
 5317SOL    HW221034   2.738   2.509   1.177 -0.1207  0.1507  0.4787
 5317SOL    HW321035   2.718   2.504   1.027 -0.7549  0.9920  0.5251
 5317SOL    MW421036   2.716   2.465   1.105 -0.0052  0.4250  0.2737
 5318SOL     OW21037   0.032   4.746   3.459 -0.1045 -0.0777  0.2497
 5318SOL    HW221038  -0.019   4.817   3.418  1.3527  1.1317  0.4403
 5318SOL    HW321039  -0.006   4.666   3.423 -2.2653  0.7341  0.5237
 5318SOL    MW421040   0.020   4.745   3.449 -0.1973  0.1889  0.3110
 5319SOL     OW21041   6.082   0.188   5.676  0.1199  0.1743  0.3910
 5319SOL    HW221042   6.119   0.197   5.588  1.3354 -2.6730  0.4749
 5319SOL    HW321043   6.158   0.188   5.734 -0.3607 -1.1706  1.0720
 5319SOL    MW421044   6.097   0.189   5.672  0.2168 -0.3788  0.4919
 5320SOL     OW21045   6.242   0.611   3.118 -0.3907 -0.5726 -0.4173
 5320SOL    HW221046   6.168   0.648   3.069 -1.7650 -1.9813  0.4853
 5320SOL    HW321047   6.308   0.593   3.051 -2.6165 -3.4585 -2.0828
 5320SOL    MW421048   6.241   0.613   3.103 -0.8657 -1.1392 -0.5180
 5321SOL     OW21049   0.721   1.835   5.534 -0.7867 -0.0681 -0.0350
 5321SOL    HW221050   0.724   1.822   5.439  0.1872  0.6034 -0.1095
 5321SOL    HW321051   0.758   1.755   5.570  0.7888  0.5007 -0.3170
 5321SOL    MW421052   0.726   1.823   5.526 -0.4503  0.0955 -0.0821
 5322SOL     OW21053   0.229   1.249   0.712 -0.5135  0.3418  0.2317
 5322SOL    HW221054   0.171   1.193   0.764  0.0917  1.3888  2.1419
 5322SOL    HW321055   0.170   1.301   0.657 -1.2851  0.2802  0.9820
 5322SOL    MW421056   0.214   1.248   0.711 -0.5354  0.4718  0.5827
 5323SOL     OW21057   0.280   5.096   4.745 -0.1351 -0.0756  0.0487
 5323SOL    HW221058   0.364   5.138   4.734 -0.1100 -0.1050  0.1251
 5323SOL    HW321059   0.296   5.004   4.725 -0.3851  0.1009 -0.9988
 5323SOL    MW421060   0.293   5.089   4.741 -0.1648 -0.0562 -0.0794
 5324SOL     OW21061   2.114   2.302   5.997  0.2692 -0.6876  0.4965
 5324SOL    HW221062   2.180   2.250   5.951 -0.4782 -1.0667 -0.1722
 5324SOL    HW321063   2.154   2.322   6.082  0.6725 -2.1666  0.6893
 5324SOL    MW421064   2.128   2.298   6.003  0.2238 -0.9327  0.4337
 5325SOL     OW21065   4.959   5.486   1.216  0.2647  0.2722  0.1454
 5325SOL    HW221066   5.028   5.433   1.177  0.5768  1.7911 -1.4899
 5325SOL    HW321067   4.988   5.501   1.306  1.8887  0.5578 -0.3957
 5325SOL    MW421068   4.972   5.481   1.223  0.5201  0.5103 -0.1418
 5326SOL     OW21069   3.803   3.846   1.402 -0.3176  0.1681 -0.0490
 5326SOL    HW221070   3.779   3.929   1.360 -0.0441 -0.0454 -0.6392
 5326SOL    HW321071   3.898   3.842   1.395 -0.3726 -0.4546 -0.5346
 5326SOL    MW421072   3.812   3.856   1.396 -0.2888  0.0578 -0.1910
 5327SOL     OW21073   3.669   0.178   6.129 -0.1250 -1.2195  0.6618
 5327SOL    HW221074   3.625   0.183   6.214 -0.0960 -1.5032  0.6921
 5327SOL    HW321075   3.601   0.149   6.068 -0.5411  0.4046  0.3014
 5327SOL    MW421076   3.654   0.175   6.132 -0.1761 -1.0427  0.6182
 5328SOL     OW21077   4.467   2.398   6.193 -0.1388 -0.0656 -0.5000
 5328SOL    HW221078   4.407   2.406   6.119 -0.7434  1.2735  0.1013
 5328SOL    HW321079   4.410   2.387   6.269  0.3994  0.2615 -0.0381
 5328SOL    MW421080   4.451   2.398   6.193 -0.1476  0.1542 -0.3597
 5329SOL     OW21081   2.770   4.875   4.559 -0.4904  0.1083 -0.3814
 5329SOL    HW221082   2.768   4.862   4.465 -1.1966  1.2073 -0.5371
 5329SOL    HW321083   2.681   4.852   4.588  0.1714 -1.8760  0.2912
 5329SOL    MW421084   2.758   4.870   4.551 -0.4962 -0.0085 -0.3132
 5330SOL     OW21085   4.829   3.895   3.938  0.5140  0.0227 -0.5047
 5330SOL    HW221086   4.891   3.892   3.866  0.9471 -0.4001 -0.1236
 5330SOL    HW321087   4.809   3.803   3.957  1.2111  0.0672  0.5776
 5330SOL    MW421088   4.835   3.882   3.931  0.6631 -0.0272 -0.3116
 5331SOL     OW21089   5.588   5.701   0.353  0.2187 -0.0124 -0.0699
 5331SOL    HW221090   5.586   5.631   0.288  1.1604 -0.4517  0.3542
 5331SOL    HW321091   5.628   5.775   0.308  1.8424 -0.6344  0.2770
 5331SOL    MW421092   5.593   5.702   0.339  0.5572 -0.1525  0.0319
 5332SOL     OW21093   4.852   2.035   4.518  0.0607 -0.2644  0.4275
 5332SOL    HW221094   4.867   2.004   4.429 -0.7454  0.7814 -0.0866
 5332SOL    HW321095   4.883   1.963   4.574  2.8232  0.0077 -0.6022
 5332SOL    MW421096   4.858   2.021   4.514  0.3188 -0.0905  0.2238
 5333SOL     OW21097   5.707   2.997   1.295 -0.2171 -0.3270  0.9311
 5333SOL    HW221098   5.678   3.073   1.346  0.7249 -0.2181  1.3224
 5333SOL    HW321099   5.710   3.029   1.205  0.1463  0.0971  1.0894
 5333SOL    MW421100   5.704   3.011   1.290 -0.0449 -0.2567  1.0036
 5334SOL     OW21101   6.345   3.505   5.113 -0.1748  0.0773 -0.4996
 5334SOL    HW221102   6.344   3.534   5.204 -3.2118 -0.5095 -0.2342
 5334SOL    HW321103   6.422   3.448   5.106  0.7215  0.9805  1.3672
 5334SOL    MW421104   6.355   3.501   5.124 -0.4573  0.1190 -0.2183
 5335SOL     OW21105   3.325   4.406   4.275 -0.0154  0.3711  0.7036
 5335SOL    HW221106   3.233   4.385   4.290 -1.1561  2.2548 -2.5812
 5335SOL    HW321107   3.337   4.491   4.316  0.3501  0.0248  1.3253
 5335SOL    MW421108   3.315   4.414   4.282 -0.1176  0.5739  0.3522
 5336SOL     OW21109   6.029   5.318   3.116  0.0721  0.4586  0.0387
 5336SOL    HW221110   6.003   5.242   3.168 -1.7486 -0.7921 -2.5138
 5336SOL    HW321111   6.119   5.300   3.090  0.7548  0.7550  2.0518
 5336SOL    MW421112   6.037   5.306   3.119 -0.0780  0.3327 -0.0325
 5337SOL     OW21113   3.802   5.534   6.257  0.4366 -0.4077 -0.3305
 5337SOL    HW221114   3.807   5.504   6.166  0.9386  1.0263 -0.8008
 5337SOL    HW321115   3.720   5.582   6.262 -0.0812 -1.3182  0.2634
 5337SOL    MW421116   3.792   5.536   6.246  0.4345 -0.3386 -0.3142
 5338SOL     OW21117   6.233   3.518   6.123 -0.3726 -0.7072  0.1644
 5338SOL    HW221118   6.220   3.440   6.177  0.2174 -0.7763  0.2151
 5338SOL    HW321119   6.328   3.524   6.113 -0.4641 -0.6630 -0.8121
 5338SOL    MW421120   6.244   3.508   6.129 -0.3069 -0.7105  0.0423
 5339SOL     OW21121   3.075   5.978   4.083  0.3027  0.1934 -0.2531
 5339SOL    HW221122   3.142   5.951   4.021  0.3635  0.2052 -0.1931
 5339SOL    HW321123   2.993   5.943   4.047 -0.0182  2.1118 -1.5272
 5339SOL    MW421124   3.073   5.970   4.070  0.2684  0.4480 -0.4133
 5340SOL     OW21125   4.005   1.726   2.528  0.2628 -0.4819  0.1206
 5340SOL    HW221126   4.002   1.818   2.501 -1.4423 -0.1314  1.3171
 5340SOL    HW321127   3.991   1.677   2.447 -0.1630  0.3715 -0.3382
 5340SOL    MW421128   4.003   1.731   2.513 -0.0184 -0.3231  0.2179
 5341SOL     OW21129   2.968   1.749   0.112 -0.1746 -0.8292 -0.1007
 5341SOL    HW221130   3.009   1.725   0.029  0.7604  1.1092 -0.2538
 5341SOL    HW321131   2.883   1.786   0.087 -1.0230 -2.5730  0.0407
 5341SOL    MW421132   2.962   1.751   0.097 -0.1631 -0.8035 -0.1022
 5342SOL     OW21133   2.831   5.815   1.720 -0.1168 -0.1853 -0.2160
 5342SOL    HW221134   2.759   5.758   1.693  1.0189 -1.3227 -0.9292
 5342SOL    HW321135   2.906   5.756   1.729  0.6222  0.8900  1.0239
 5342SOL    MW421136   2.831   5.800   1.718  0.1306 -0.1935 -0.1465
 5343SOL     OW21137   4.978   6.330   0.072  0.2632  0.1383 -0.2799
 5343SOL    HW221138   4.954   6.238   0.062  1.1800 -0.0033 -1.3155
 5343SOL    HW321139   5.041   6.331   0.143  0.0081  0.0159 -0.0499
 5343SOL    MW421140   4.983   6.318   0.080  0.3505  0.1035 -0.3862
 5344SOL     OW21141   3.458   4.527   0.062 -0.2450  0.3129  0.2657
 5344SOL    HW221142   3.438   4.598   0.002 -0.8291 -0.7955 -0.9165
 5344SOL    HW321143   3.466   4.450   0.006  2.6210 -0.1948  1.2436
 5344SOL    MW421144   3.456   4.526   0.047  0.0561  0.0997  0.2387
 5345SOL     OW21145   2.574   1.360   5.810  0.4370 -0.3989 -0.4313
 5345SOL    HW221146   2.658   1.314   5.817  0.1284 -0.9914 -0.5965
 5345SOL    HW321147   2.523   1.308   5.749 -0.0097  0.0323 -0.4320
 5345SOL    MW421148   2.578   1.347   5.803  0.3373 -0.4202 -0.4532
 5346SOL     OW21149   4.301   5.871   5.365  0.1484 -0.4438 -0.1195
 5346SOL    HW221150   4.290   5.805   5.433 -0.3386 -0.3626 -0.1193
 5346SOL    HW321151   4.296   5.822   5.282 -0.9317 -0.3172 -0.1415
 5346SOL    MW421152   4.299   5.856   5.363 -0.0584 -0.4164 -0.1223
 5347SOL     OW21153   0.969   3.247   1.341  0.7408 -0.4606  0.2838
 5347SOL    HW221154   1.062   3.270   1.340  0.3174  1.3740  0.2103
 5347SOL    HW321155   0.957   3.197   1.422  1.6334  0.0063  0.7150
 5347SOL    MW421156   0.979   3.243   1.352  0.8027 -0.1569  0.3310
 5348SOL     OW21157   1.389   0.045   4.898 -0.8015  0.1238  0.3987
 5348SOL    HW221158   1.453   0.116   4.890 -0.4934 -0.2405 -0.4478
 5348SOL    HW321159   1.343   0.064   4.980 -1.5498  1.9516 -0.3947
 5348SOL    MW421160   1.392   0.057   4.908 -0.8596  0.3169  0.1823
 5349SOL     OW21161   2.518   0.968   6.422  0.4716  0.3456  0.3941
 5349SOL    HW221162   2.521   1.045   6.365  0.7737  0.0711  0.0315
 5349SOL    HW321163   2.435   0.926   6.401  0.8416 -0.0676 -0.2662
 5349SOL    MW421164   2.507   0.973   6.412  0.5603  0.2549  0.2591
 5350SOL     OW21165   1.741   5.633   0.323  0.2440  0.2924  0.1381
 5350SOL    HW221166   1.722   5.595   0.237  3.0264 -1.6135  0.2634
 5350SOL    HW321167   1.668   5.607   0.378  0.7141 -2.6529 -0.5029
 5350SOL    MW421168   1.729   5.625   0.319  0.6731 -0.3477  0.0701
 5351SOL     OW21169   3.901   3.315   5.706  0.9099 -0.1143  0.3629
 5351SOL    HW221170   3.820   3.282   5.743  0.5575  0.4429  0.1042
 5351SOL    HW321171   3.875   3.392   5.655  1.7742  0.9799  1.4895
 5351SOL    MW421172   3.887   3.321   5.704  0.9775  0.1035  0.4774
 5352SOL     OW21173   4.836   1.966   1.634 -0.4002 -0.5646 -0.0784
 5352SOL    HW221174   4.833   1.888   1.579 -1.6191 -0.0256 -0.8133
 5352SOL    HW321175   4.811   1.935   1.721 -0.5862 -1.0333 -0.2957
 5352SOL    MW421176   4.833   1.952   1.638 -0.5856 -0.5554 -0.2040
 5353SOL     OW21177   4.729   2.301   5.534 -0.3748  0.8019  0.6229
 5353SOL    HW221178   4.772   2.358   5.471 -2.1205  1.2480 -0.2294
 5353SOL    HW321179   4.645   2.344   5.553 -0.9887 -0.5979  1.2993
 5353SOL    MW421180   4.723   2.314   5.528 -0.6861  0.6761  0.5997
 5354SOL     OW21181   0.632   4.951   0.436  0.1590  0.2380  0.0074
 5354SOL    HW221182   0.620   4.911   0.522 -0.1649 -1.6752 -0.8725
 5354SOL    HW321183   0.644   5.044   0.454 -3.5419  0.5174  1.8807
 5354SOL    MW421184   0.632   4.958   0.449 -0.3720  0.0224  0.1385
 5355SOL     OW21185   2.996   4.284   1.873 -0.2828 -0.5811  0.0721
 5355SOL    HW221186   2.987   4.378   1.860 -1.7494 -0.7155 -0.0472
 5355SOL    HW321187   3.078   4.261   1.829 -1.6626  0.0854 -3.1118
 5355SOL    MW421188   3.005   4.293   1.866 -0.6583 -0.5109 -0.3637
 5356SOL     OW21189   0.142   1.432   2.858  0.1090  0.0138  0.4869
 5356SOL    HW221190   0.067   1.490   2.868 -1.0388 -0.9463 -1.8317
 5356SOL    HW321191   0.157   1.396   2.946  0.3329  3.0503  1.8173
 5356SOL    MW421192   0.134   1.435   2.871 -0.0129  0.2878  0.3565
 5357SOL     OW21193   1.589   4.229   5.597 -0.3901  0.1059  0.5131
 5357SOL    HW221194   1.667   4.274   5.566 -0.4043  0.5466  1.1138
 5357SOL    HW321195   1.530   4.229   5.522 -0.4978  1.3270  0.5756
 5357SOL    MW421196   1.591   4.235   5.583 -0.4062  0.3251  0.6006
 5358SOL     OW21197   1.868   0.137   0.030 -0.7974  0.5426 -0.0610
 5358SOL    HW221198   1.786   0.187   0.028 -0.9013  0.3515 -0.7874
 5358SOL    HW321199   1.893   0.136   0.123 -1.8276  0.2478  0.2203
 5358SOL    MW421200   1.861   0.144   0.042 -0.9470  0.4785 -0.1197
 5359SOL     OW21201   3.023   1.370   4.184  0.0738 -0.3547 -0.1547
 5359SOL    HW221202   3.058   1.451   4.220  1.0035 -0.9193  0.2486
 5359SOL    HW321203   2.978   1.328   4.257 -1.2202  0.2041 -0.5858
 5359SOL    MW421204   3.022   1.375   4.198  0.0257 -0.3554 -0.1584
 5360SOL     OW21205   2.964   3.354   3.454 -0.0055 -0.0908 -0.3621
 5360SOL    HW221206   2.977   3.327   3.363 -0.2937  2.4461 -1.2239
 5360SOL    HW321207   3.031   3.421   3.469 -0.0503 -0.3619  1.2873
 5360SOL    MW421208   2.975   3.359   3.444 -0.0494  0.2082 -0.2582
 5361SOL     OW21209   4.540   6.103   5.236 -0.2859  0.1968 -0.9813
 5361SOL    HW221210   4.506   6.032   5.182 -1.1355  0.5390 -0.9173
 5361SOL    HW321211   4.581   6.163   5.173 -0.7544  0.3045 -1.1912
 5361SOL    MW421212   4.541   6.102   5.221 -0.4598  0.2562 -1.0006
 5362SOL     OW21213   5.303   0.074   5.370 -0.1151 -0.0056  0.4665
 5362SOL    HW221214   5.393   0.072   5.403 -0.2042  1.6111  0.9098
 5362SOL    HW321215   5.309   0.128   5.291 -0.9237  1.4434  1.3576
 5362SOL    MW421216   5.316   0.081   5.364 -0.2335  0.3989  0.6426
 5363SOL     OW21217   6.416   6.281   0.062 -0.1434  0.0710  0.2574
 5363SOL    HW221218   6.433   6.228   0.140  2.6291 -0.0629 -0.3302
 5363SOL    HW321219   6.386   6.218  -0.003  3.0139 -0.9303 -0.4007
 5363SOL    MW421220   6.414   6.266   0.064  0.6390 -0.0788  0.0930
 5364SOL     OW21221   4.243   3.348   0.786 -0.0823  0.7696  0.3899
 5364SOL    HW221222   4.219   3.440   0.770 -0.2779  0.5059 -1.0143
 5364SOL    HW321223   4.258   3.312   0.698 -0.7554 -0.7397  0.8630
 5364SOL    MW421224   4.242   3.356   0.772 -0.1969  0.5357  0.2670
 5365SOL     OW21225   3.951   5.345   4.077 -0.4477  0.6105  0.2881
 5365SOL    HW221226   3.917   5.310   4.160 -1.3240  1.2989  0.2371
 5365SOL    HW321227   4.033   5.388   4.101 -1.1357  1.5875  0.9753
 5365SOL    MW421228   3.957   5.346   4.091 -0.6541  0.8302  0.3720
 5366SOL     OW21229   5.145   2.995   1.701  0.2487  0.1539 -0.5075
 5366SOL    HW221230   5.063   2.946   1.705  0.4096 -0.0419  1.0296
 5366SOL    HW321231   5.127   3.076   1.749  0.6907  0.5451 -0.9800
 5366SOL    MW421232   5.132   2.999   1.708  0.3282  0.1797 -0.3670
 5367SOL     OW21233   1.477   4.657   4.095  0.2815  0.5447  0.1874
 5367SOL    HW221234   1.450   4.613   4.176  0.8094 -0.2549 -0.0607
 5367SOL    HW321235   1.407   4.638   4.033  0.4074  0.2336  0.1408
 5367SOL    MW421236   1.464   4.649   4.098  0.3678  0.3982  0.1485
 5368SOL     OW21237   5.052   0.498   6.131 -0.6898  0.4819  0.0242
 5368SOL    HW221238   5.137   0.455   6.140 -1.5921 -1.4503  0.0541
 5368SOL    HW321239   5.053   0.536   6.044 -0.2666 -0.6915 -0.5042
 5368SOL    MW421240   5.063   0.497   6.121 -0.7530  0.0722 -0.0416
 5369SOL     OW21241   5.256   6.401   3.575  0.4690  0.3389  0.3520
 5369SOL    HW221242   5.218   6.342   3.640  0.8981 -1.0292 -0.5978
 5369SOL    HW321243   5.222   6.487   3.598 -2.0842 -0.6039  0.3760
 5369SOL    MW421244   5.247   6.405   3.587  0.1887  0.0340  0.2299
 5370SOL     OW21245   1.477   5.485   1.150 -0.2087 -0.1641  0.3468
 5370SOL    HW221246   1.533   5.425   1.102 -0.2537 -1.0876  1.4069
 5370SOL    HW321247   1.390   5.447   1.145 -0.7327  1.1296 -1.0717
 5370SOL    MW421248   1.473   5.472   1.143 -0.2838 -0.1153  0.2995
 5371SOL     OW21249   4.466   5.636   1.187  0.2903  0.1020  0.7882
 5371SOL    HW221250   4.423   5.722   1.187  0.9409  0.4367  0.8107
 5371SOL    HW321251   4.464   5.609   1.095 -1.7264 -0.8050  1.0548
 5371SOL    MW421252   4.460   5.644   1.175  0.1100  0.0265  0.8264
 5372SOL     OW21253   1.390   0.302   1.137  0.0189  0.3273 -0.2154
 5372SOL    HW221254   1.306   0.324   1.176 -0.2608  0.6193 -0.9458
 5372SOL    HW321255   1.412   0.379   1.084  1.5520  0.9480  1.2527
 5372SOL    MW421256   1.382   0.315   1.135  0.1843  0.4477 -0.1181
 5373SOL     OW21257   5.519   1.446   5.292  0.0566 -0.1691 -0.3044
 5373SOL    HW221258   5.528   1.510   5.363 -0.6903 -0.3449 -0.0470
 5373SOL    HW321259   5.438   1.470   5.247  1.0803  0.6190 -1.8034
 5373SOL    MW421260   5.510   1.457   5.295  0.0931 -0.0883 -0.4682
 5374SOL     OW21261   5.756   2.563   1.215 -0.0122  0.6595  0.1786
 5374SOL    HW221262   5.776   2.480   1.259 -0.6752  0.2575 -0.2605
 5374SOL    HW321263   5.684   2.600   1.265 -1.1556 -0.0747 -0.8739
 5374SOL    MW421264   5.749   2.557   1.228 -0.2506  0.5096 -0.0182
 5375SOL     OW21265   0.991   2.060   3.908  0.2604 -0.2262 -0.1204
 5375SOL    HW221266   1.055   2.074   3.978  0.7760  0.1518 -0.6571
 5375SOL    HW321267   0.964   1.969   3.918  0.5347 -0.2576  0.3918
 5375SOL    MW421268   0.996   2.050   3.919  0.3646 -0.1805 -0.1236
 5376SOL     OW21269   0.095   5.768   2.396  0.0478 -0.0206  0.3339
 5376SOL    HW221270   0.057   5.738   2.314  0.5534  1.7127 -0.5804
 5376SOL    HW321271   0.122   5.688   2.441  1.5477 -0.9886 -2.0630
 5376SOL    MW421272   0.094   5.753   2.391  0.3124  0.0804 -0.1030
 5377SOL     OW21273   1.012   0.782   1.959  0.6031 -0.1034  0.5389
 5377SOL    HW221274   1.093   0.764   1.910  0.8682 -0.0038  0.9408
 5377SOL    HW321275   1.037   0.845   2.026 -0.0041  0.6227  0.1026
 5377SOL    MW421276   1.026   0.788   1.961  0.5579  0.0055  0.5343
 5378SOL     OW21277   1.462   4.149   3.201  0.3176  0.7218 -1.0131
 5378SOL    HW221278   1.507   4.152   3.285 -0.8101  1.0144 -0.4070
 5378SOL    HW321279   1.374   4.119   3.222  0.5152 -0.9124 -2.3128
 5378SOL    MW421280   1.456   4.145   3.215  0.1949  0.5448 -1.1046
 5379SOL     OW21281   5.778   0.280   3.862  0.2613  0.3160  0.1755
 5379SOL    HW221282   5.845   0.214   3.846  1.2415  1.5473 -1.1736
 5379SOL    HW321283   5.733   0.290   3.778 -2.4468 -1.2610  1.3105
 5379SOL    MW421284   5.781   0.273   3.849  0.0334  0.2704  0.1472
 5380SOL     OW21285   1.087   1.706   6.230 -0.1999 -0.1858 -0.0306
 5380SOL    HW221286   1.156   1.642   6.247 -0.2196 -0.9754 -2.5691
 5380SOL    HW321287   1.013   1.654   6.198 -1.0189  0.9176 -0.0059
 5380SOL    MW421288   1.086   1.690   6.228 -0.3105 -0.1444 -0.3623
 5381SOL     OW21289   1.107   3.025   1.791 -0.3167 -0.3697 -0.3940
 5381SOL    HW221290   1.171   3.077   1.742  0.5086 -0.9207  0.0801
 5381SOL    HW321291   1.063   3.088   1.847 -0.2927  0.0384 -0.8237
 5381SOL    MW421292   1.110   3.040   1.792 -0.2047 -0.3885 -0.3881
 5382SOL     OW21293   4.094   4.216   4.155 -0.1824 -0.0933 -0.5020
 5382SOL    HW221294   4.126   4.206   4.245 -2.3581  0.5138  0.3905
 5382SOL    HW321295   4.135   4.297   4.125 -0.7778  0.6391  0.5866
 5382SOL    MW421296   4.104   4.225   4.163 -0.5480  0.0835 -0.2406
 5383SOL     OW21297   5.218   4.009   3.343 -0.5261 -1.2034  0.0135
 5383SOL    HW221298   5.208   3.952   3.267  0.4674 -0.1861 -0.9121
 5383SOL    HW321299   5.300   3.982   3.383  0.7817  0.4988 -1.3273
 5383SOL    MW421300   5.227   3.998   3.338 -0.2225 -0.8446 -0.2855
 5384SOL     OW21301   2.260   5.006   3.566 -0.2551 -0.2813  0.3733
 5384SOL    HW221302   2.355   5.000   3.563 -0.2249 -0.0360  0.6928
 5384SOL    HW321303   2.234   4.940   3.630 -0.4121 -1.3152 -0.7438
 5384SOL    MW421304   2.269   4.997   3.574 -0.2718 -0.3853  0.2680
 5385SOL     OW21305   1.070   6.376   3.006  0.4463  0.1196  0.3428
 5385SOL    HW221306   1.026   6.313   3.063  1.4509  2.1775  3.6582
 5385SOL    HW321307   1.000   6.412   2.952 -0.1893 -3.5167 -1.6211
 5385SOL    MW421308   1.055   6.372   3.006  0.4950 -0.0887  0.5211
 5386SOL     OW21309   0.106   5.619   3.172 -0.3388 -0.2931 -0.0007
 5386SOL    HW221310   0.039   5.588   3.112  1.4992 -0.8085 -1.9346
 5386SOL    HW321311   0.172   5.550   3.172 -0.0566 -0.1175  2.3610
 5386SOL    MW421312   0.106   5.606   3.164 -0.0591 -0.3379  0.0558
 5387SOL     OW21313   6.383   3.802   0.547  0.9853  0.3545 -0.1228
 5387SOL    HW221314   6.420   3.837   0.628  1.5926  1.3526 -0.7947
 5387SOL    HW321315   6.446   3.827   0.479 -0.3869  1.1703 -1.1593
 5387SOL    MW421316   6.396   3.810   0.549  0.8844  0.5938 -0.3482
 5388SOL     OW21317   2.967   0.056   0.110 -0.3421  0.1421 -0.4342
 5388SOL    HW221318   2.890   0.076   0.058 -0.6363 -1.9371 -0.8692
 5388SOL    HW321319   2.950  -0.031   0.148  1.7019 -0.3283 -0.4441
 5388SOL    MW421320   2.955   0.047   0.108 -0.1112 -0.1943 -0.4929
 5389SOL     OW21321   4.376   1.266   2.304 -0.2362 -0.4388  0.3199
 5389SOL    HW221322   4.286   1.254   2.335  0.1899 -2.0129  1.0704
 5389SOL    HW321323   4.367   1.302   2.216 -1.5817  0.2429  0.7150
 5389SOL    MW421324   4.363   1.269   2.297 -0.3575 -0.5565  0.4711
 5390SOL     OW21325   1.557   2.084   4.306  0.3347 -0.1962  0.3344
 5390SOL    HW221326   1.614   2.143   4.258  2.3232 -2.0940  0.2355
 5390SOL    HW321327   1.616   2.028   4.355 -1.4069 -2.6297 -0.1770
 5390SOL    MW421328   1.572   2.085   4.306  0.3673 -0.7676  0.2539
 5391SOL     OW21329   4.869   2.527   4.105  0.4947 -0.5025 -0.3449
 5391SOL    HW221330   4.933   2.567   4.046 -0.7171  0.9290 -0.7478
 5391SOL    HW321331   4.807   2.597   4.125 -1.3603 -1.9937 -0.5380
 5391SOL    MW421332   4.869   2.542   4.100  0.0901 -0.5103 -0.4235
 5392SOL     OW21333   1.106   4.908   5.073  0.4562  0.0829 -0.6171
 5392SOL    HW221334   1.060   4.880   5.152 -0.4150 -1.5282 -1.6364
 5392SOL    HW321335   1.197   4.880   5.087  1.2223  3.1473  1.3400
 5392SOL    MW421336   1.112   4.900   5.085  0.4423  0.2747 -0.4933
 5393SOL     OW21337   5.500   0.426   6.008  0.1955  0.0852  0.3042
 5393SOL    HW221338   5.564   0.355   6.014  0.3756  0.3703  2.7947
 5393SOL    HW321339   5.544   0.494   5.956  0.9730 -0.6221  0.0115
 5393SOL    MW421340   5.514   0.425   6.002  0.3219  0.0295  0.5942
 5394SOL     OW21341   3.570   1.972   2.118 -0.1040 -0.6495  0.4491
 5394SOL    HW221342   3.643   1.988   2.058 -0.5512  0.6169  0.2244
 5394SOL    HW321343   3.593   2.021   2.197 -0.4797 -0.6599  0.5644
 5394SOL    MW421344   3.583   1.981   2.120 -0.2126 -0.4838  0.4346
 5395SOL     OW21345   6.422   2.227   0.921  0.0170  0.7576 -0.1979
 5395SOL    HW221346   6.468   2.218   1.005  1.2345 -0.4506 -0.9641
 5395SOL    HW321347   6.453   2.311   0.886  0.4764  0.6667 -0.0131
 5395SOL    MW421348   6.432   2.237   0.928  0.2382  0.5862 -0.2746
 5396SOL     OW21349   4.900   1.314   5.678 -0.1432 -0.2703  0.2416
 5396SOL    HW221350   4.992   1.292   5.689 -0.2700 -0.0846  1.9123
 5396SOL    HW321351   4.854   1.260   5.742 -1.0922  0.3338  0.0892
 5396SOL    MW421352   4.906   1.304   5.688 -0.2851 -0.1661  0.4419
 5397SOL     OW21353   0.600   2.275   2.496  0.3142 -0.0485 -0.6355
 5397SOL    HW221354   0.584   2.265   2.590 -1.8072 -1.1416 -1.0618
 5397SOL    HW321355   0.661   2.349   2.490  1.7826 -0.9729  1.6665
 5397SOL    MW421356   0.606   2.284   2.508  0.2281 -0.3147 -0.3881
 5398SOL     OW21357   4.945   0.795   5.707  0.1530 -0.1731  0.6065
 5398SOL    HW221358   4.856   0.828   5.699 -0.8389 -2.6139  0.6842
 5398SOL    HW321359   4.983   0.847   5.778 -1.2773  0.7190  0.7754
 5398SOL    MW421360   4.938   0.806   5.715 -0.1665 -0.3774  0.6390
 5399SOL     OW21361   3.709   2.293   5.073  0.3116 -0.3336  0.3851
 5399SOL    HW221362   3.695   2.305   5.167  0.7031  1.1860  0.2734
 5399SOL    HW321363   3.665   2.368   5.033  0.8811 -0.5068 -0.5935
 5399SOL    MW421364   3.701   2.304   5.080  0.4384 -0.1559  0.2413
 5400SOL     OW21365   3.433   2.133   5.299 -0.0367 -0.1037 -0.8065
 5400SOL    HW221366   3.486   2.084   5.362 -0.0399 -1.0279 -1.5069
 5400SOL    HW321367   3.484   2.211   5.280 -0.6724  0.9453  1.4253
 5400SOL    MW421368   3.447   2.137   5.305 -0.1210 -0.0872 -0.6045
 5401SOL     OW21369   6.332   2.918   2.383  0.0812 -0.3852 -0.1328
 5401SOL    HW221370   6.328   2.994   2.441  0.7252  0.4819 -1.1864
 5401SOL    HW321371   6.425   2.898   2.376 -0.0362 -0.8538 -0.3982
 5401SOL    MW421372   6.344   2.926   2.390  0.1507 -0.3327 -0.3068
 5402SOL     OW21373   4.292   5.502   2.778 -0.0092 -0.1799  0.0178
 5402SOL    HW221374   4.288   5.503   2.874  0.2111  0.8152  0.0285
 5402SOL    HW321375   4.233   5.572   2.752 -0.5371 -0.8417 -0.6079
 5402SOL    MW421376   4.283   5.511   2.788 -0.0498 -0.1359 -0.0633
 5403SOL     OW21377   2.366   1.844   0.281  0.3980  0.2881 -0.0852
 5403SOL    HW221378   2.327   1.773   0.229  0.3691 -0.0390  0.3693
 5403SOL    HW321379   2.296   1.907   0.292  0.7123  0.8833 -1.3547
 5403SOL    MW421380   2.352   1.843   0.276  0.4357  0.3235 -0.1927
 5404SOL     OW21381   2.090   0.828   1.929 -0.2175  0.6062 -0.0265
 5404SOL    HW221382   2.034   0.761   1.889  0.7793 -0.5992  0.5100
 5404SOL    HW321383   2.065   0.909   1.887 -1.7190 -0.0532 -0.4568
 5404SOL    MW421384   2.080   0.830   1.918 -0.2841  0.3602 -0.0125
 5405SOL     OW21385   0.626   2.144   5.118 -0.0799  0.4471 -0.0561
 5405SOL    HW221386   0.678   2.067   5.094 -0.8102 -0.1797  0.3355
 5405SOL    HW321387   0.674   2.183   5.190  0.2929  0.3581 -0.2519
 5405SOL    MW421388   0.639   2.139   5.124 -0.1270  0.3527 -0.0303
 5406SOL     OW21389   2.052   6.394   4.232 -0.0352 -0.0072  0.2443
 5406SOL    HW221390   1.963   6.365   4.212  0.7733 -0.4342 -3.4738
 5406SOL    HW321391   2.076   6.449   4.157  3.1220 -0.5910  0.7017
 5406SOL    MW421392   2.043   6.398   4.220  0.4880 -0.1406 -0.1859
 5407SOL     OW21393   3.321   4.202   2.812  0.1096 -0.1717  0.2056
 5407SOL    HW221394   3.401   4.150   2.811 -0.1936 -0.7128 -2.3247
 5407SOL    HW321395   3.252   4.140   2.833 -0.0686 -0.5502 -1.3690
 5407SOL    MW421396   3.323   4.187   2.815  0.0461 -0.2930 -0.3359
 5408SOL     OW21397   1.420   3.697   3.510  0.2116 -0.1904  0.3585
 5408SOL    HW221398   1.410   3.671   3.418 -0.0683  1.1505 -0.0163
 5408SOL    HW321399   1.347   3.654   3.555  0.2514 -0.7207 -0.0740
 5408SOL    MW421400   1.409   3.688   3.504  0.1799 -0.0834  0.2520
 5409SOL     OW21401   3.163   1.499   2.047 -0.5187 -0.6397 -0.0880
 5409SOL    HW221402   3.250   1.533   2.068  0.2370 -1.0547 -2.3248
 5409SOL    HW321403   3.179   1.417   2.001 -2.1084 -0.8427 -0.3592
 5409SOL    MW421404   3.176   1.492   2.044 -0.6287 -0.7213 -0.4189
 5410SOL     OW21405   6.171   2.987   2.170  0.1773 -0.1885  0.4113
 5410SOL    HW221406   6.214   2.953   2.091  1.1026  0.3271  0.6834
 5410SOL    HW321407   6.234   2.972   2.240 -0.4937 -0.3083  1.0018
 5410SOL    MW421408   6.185   2.981   2.169  0.2109 -0.1363  0.5251
 5411SOL     OW21409   0.717   0.526   4.064  0.4248  0.7869  0.2847
 5411SOL    HW221410   0.690   0.467   3.994  2.6894  0.5389 -0.4683
 5411SOL    HW321411   0.670   0.494   4.141 -2.0821  1.0356 -1.0263
 5411SOL    MW421412   0.707   0.514   4.065  0.3928  0.7870  0.0124
 5412SOL     OW21413   2.551   1.620   0.155 -0.3500 -0.0663  0.0117
 5412SOL    HW221414   2.568   1.540   0.205  2.0978  0.0574 -0.4981
 5412SOL    HW321415   2.515   1.589   0.072  1.4634 -0.7825 -0.5648
 5412SOL    MW421416   2.549   1.605   0.150  0.2122 -0.1445 -0.1316
 5413SOL     OW21417   5.461   3.314   5.839 -0.1368  0.3470 -0.1210
 5413SOL    HW221418   5.400   3.290   5.770 -0.1633  1.5903 -0.5625
 5413SOL    HW321419   5.447   3.250   5.908 -1.0092 -0.1543 -0.7545
 5413SOL    MW421420   5.451   3.302   5.839 -0.2554  0.4449 -0.2628
 5414SOL     OW21421   0.181   0.781   2.846  0.2629 -0.4396  0.4391
 5414SOL    HW221422   0.155   0.777   2.754  1.6652 -0.7808  0.0198
 5414SOL    HW321423   0.153   0.697   2.882 -0.0065 -0.4377  0.2387
 5414SOL    MW421424   0.174   0.769   2.838  0.4124 -0.4844  0.3573
 5415SOL     OW21425   0.387   2.811   0.815 -0.6982  0.2592 -0.0656
 5415SOL    HW221426   0.343   2.857   0.887 -0.7317  2.4494 -1.3799
 5415SOL    HW321427   0.341   2.840   0.736  0.1167 -1.1142 -1.0955
 5415SOL    MW421428   0.375   2.821   0.814 -0.5951  0.3670 -0.3749
 5416SOL     OW21429   6.073   5.740   4.053  0.4371  0.0099  0.1958
 5416SOL    HW221430   6.150   5.685   4.038 -0.1010 -0.3830 -1.2809
 5416SOL    HW321431   6.107   5.815   4.101  2.2111  0.9603 -2.3363
 5416SOL    MW421432   6.088   5.742   4.057  0.6002  0.0834 -0.3331
 5417SOL     OW21433   1.934   4.982   4.372  0.3884 -0.7960 -0.0275
 5417SOL    HW221434   2.019   4.937   4.367  1.4883  1.2011 -0.2010
 5417SOL    HW321435   1.912   4.981   4.465  0.9439 -0.7554  0.1102
 5417SOL    MW421436   1.942   4.976   4.383  0.6068 -0.5271 -0.0322
 5418SOL     OW21437   4.434   3.048   2.443  0.1121  0.2814 -0.2928
 5418SOL    HW221438   4.387   2.972   2.409  0.0978 -0.2629  0.8724
 5418SOL    HW321439   4.366   3.113   2.460  0.2928  1.3277 -3.0322
 5418SOL    MW421440   4.419   3.047   2.441  0.1341  0.3477 -0.5005
 5419SOL     OW21441   3.918   1.305   6.037  0.0862 -0.4707  0.4709
 5419SOL    HW221442   3.989   1.366   6.018 -2.7406  2.7287 -0.6560
 5419SOL    HW321443   3.899   1.318   6.130 -1.1539  1.2364  0.0186
 5419SOL    MW421444   3.925   1.315   6.047 -0.4504  0.1766  0.2625
 5420SOL     OW21445   5.192   0.635   3.822 -0.2285 -0.1161 -0.1654
 5420SOL    HW221446   5.268   0.674   3.778  1.8946 -1.8040  1.7557
 5420SOL    HW321447   5.139   0.710   3.849  0.0439  1.0740 -2.5955
 5420SOL    MW421448   5.195   0.650   3.820  0.0875 -0.1818 -0.2325
 5421SOL     OW21449   3.219   4.144   1.781 -0.2612 -0.5214  0.0922
 5421SOL    HW221450   3.302   4.160   1.826 -0.1078 -0.1046 -0.3253
 5421SOL    HW321451   3.177   4.075   1.831 -0.7901  0.9674  1.8005
 5421SOL    MW421452   3.225   4.137   1.793 -0.3108 -0.2700  0.2625
 5422SOL     OW21453   1.221   1.444   2.071 -0.0886 -0.0226  0.1292
 5422SOL    HW221454   1.291   1.460   2.135 -1.5324  0.1930  1.7118
 5422SOL    HW321455   1.171   1.525   2.068 -0.5716 -0.3355 -0.6419
 5422SOL    MW421456   1.224   1.456   2.079 -0.3428 -0.0355  0.2363
 5423SOL     OW21457   3.591   5.700   6.240 -0.1471 -0.1888  0.9683
 5423SOL    HW221458   3.503   5.674   6.215  0.5514 -0.0561 -1.9287
 5423SOL    HW321459   3.578   5.772   6.302 -2.0104 -1.5788  2.3232
 5423SOL    MW421460   3.578   5.706   6.245 -0.3008 -0.3547  0.7648
 5424SOL     OW21461   6.377   4.466   6.331  0.0380  0.2611  0.1239
 5424SOL    HW221462   6.423   4.541   6.295  1.3088 -0.1220  0.8787
 5424SOL    HW321463   6.354   4.412   6.256 -0.6126  1.2444 -0.3939
 5424SOL    MW421464   6.380   4.469   6.317  0.1199  0.3403  0.1551
 5425SOL     OW21465   3.741   4.809   1.542  0.1762  0.4873 -0.0498
 5425SOL    HW221466   3.720   4.855   1.623 -3.0898  0.3999 -0.7191
 5425SOL    HW321467   3.767   4.879   1.481  0.3001  0.8299  0.3893
 5425SOL    MW421468   3.742   4.825   1.545 -0.2384  0.5209 -0.0802
 5426SOL     OW21469   1.124   0.892   2.794  0.5804 -0.1937  0.0566
 5426SOL    HW221470   1.038   0.902   2.752 -0.5426 -1.7081  1.8592
 5426SOL    HW321471   1.163   0.818   2.748 -0.9062 -2.2586  1.9109
 5426SOL    MW421472   1.117   0.884   2.782  0.2361 -0.6659  0.5391
 5427SOL     OW21473   4.266   3.777   5.722 -0.1876  0.5944  0.6016
 5427SOL    HW221474   4.227   3.780   5.810 -2.0120  0.0275 -0.1582
 5427SOL    HW321475   4.206   3.724   5.670  0.4950  1.4851 -1.1820
 5427SOL    MW421476   4.253   3.771   5.727 -0.3382  0.6371  0.2660
 5428SOL     OW21477   5.136   2.329   6.257 -0.4807  0.6839 -0.6753
 5428SOL    HW221478   5.083   2.338   6.179  1.0697 -0.3083 -1.9165
 5428SOL    HW321479   5.146   2.418   6.291 -0.8316  1.1792 -1.8534
 5428SOL    MW421480   5.131   2.342   6.251 -0.3224  0.6183 -0.9945
 5429SOL     OW21481   2.568   1.839   6.179  0.3837 -0.1228 -0.0205
 5429SOL    HW221482   2.601   1.799   6.099 -0.2769  0.6016 -0.6759
 5429SOL    HW321483   2.625   1.914   6.194  0.3753 -0.1339  0.0661
 5429SOL    MW421484   2.580   1.844   6.170  0.2954 -0.0287 -0.0955
 5430SOL     OW21485   0.431   3.941   2.397  0.0420  0.0138 -0.9071
 5430SOL    HW221486   0.351   3.974   2.354  0.0549 -1.5759 -2.2370
 5430SOL    HW321487   0.501   3.997   2.364 -0.2733  0.3014 -1.0944
 5430SOL    MW421488   0.429   3.953   2.387  0.0021 -0.1580 -1.1073
 5431SOL     OW21489   2.244   4.505   0.409  0.1370  0.0743 -0.3208
 5431SOL    HW221490   2.192   4.555   0.347  0.1077 -0.5109 -0.7712
 5431SOL    HW321491   2.184   4.440   0.445  0.1564  0.3933  0.3175
 5431SOL    MW421492   2.229   4.503   0.406  0.1357  0.0392 -0.2960
 5432SOL     OW21493   2.167   5.807   4.134 -0.4451 -0.1597  0.1806
 5432SOL    HW221494   2.249   5.799   4.182 -1.4649 -0.3177  2.0045
 5432SOL    HW321495   2.172   5.740   4.067  0.0131 -1.7637  1.7286
 5432SOL    MW421496   2.178   5.797   4.132 -0.5192 -0.3922  0.6255
 5433SOL     OW21497   4.309   3.295   0.098  0.7433  0.5022  0.3096
 5433SOL    HW221498   4.313   3.287   0.003  1.3729  0.0237  0.3723
 5433SOL    HW321499   4.359   3.220   0.131  0.8694  0.8850  1.0073
 5433SOL    MW421500   4.316   3.284   0.090  0.8430  0.4896  0.4099
 5434SOL     OW21501   2.328   0.464   2.586 -0.5547 -0.7665  0.1310
 5434SOL    HW221502   2.405   0.509   2.621  0.8705 -3.7533  1.2471
 5434SOL    HW321503   2.333   0.479   2.491  0.2694  0.7198  0.3858
 5434SOL    MW421504   2.339   0.472   2.578 -0.2580 -0.9644  0.3119
 5435SOL     OW21505   5.484   2.124   3.941 -0.6064  0.1247  0.2872
 5435SOL    HW221506   5.456   2.130   3.850 -0.8124 -1.0321  0.2580
 5435SOL    HW321507   5.536   2.203   3.956 -0.8937  0.5136 -0.7119
 5435SOL    MW421508   5.487   2.135   3.931 -0.6715  0.0234  0.1515
 5436SOL     OW21509   0.697   4.835   5.429  0.1101  0.3591 -0.3519
 5436SOL    HW221510   0.614   4.834   5.380  1.3297 -0.3418 -2.5853
 5436SOL    HW321511   0.710   4.927   5.453 -1.0593  0.5630 -0.4547
 5436SOL    MW421512   0.688   4.847   5.426  0.1167  0.2935 -0.6601
 5437SOL     OW21513   0.289   6.280   1.983 -0.6132  0.5410  0.1387
 5437SOL    HW221514   0.339   6.241   1.911 -2.0248 -0.7848 -0.2030
 5437SOL    HW321515   0.321   6.235   2.061  0.9237  1.9841  0.3944
 5437SOL    MW421516   0.300   6.269   1.984 -0.5967  0.5565  0.1273
 5438SOL     OW21517   0.578   3.712   1.650  0.1109 -0.3027 -0.4150
 5438SOL    HW221518   0.514   3.667   1.705  1.0104 -3.2350 -1.5871
 5438SOL    HW321519   0.649   3.734   1.710  0.4679 -2.2179 -0.0506
 5438SOL    MW421520   0.579   3.709   1.665  0.2767 -0.9423 -0.5216
 5439SOL     OW21521   2.034   3.678   0.424  0.0390 -0.1020  0.1197
 5439SOL    HW221522   1.993   3.724   0.351 -1.5011 -0.1166  0.9349
 5439SOL    HW321523   2.008   3.586   0.414 -0.7815  0.0101  1.0539
 5439SOL    MW421524   2.026   3.672   0.413 -0.2725 -0.0891  0.3505
 5440SOL     OW21525   5.543   5.562   3.205 -0.4860 -0.3374  0.4510
 5440SOL    HW221526   5.560   5.616   3.282  2.3014 -0.4302  0.0110
 5440SOL    HW321527   5.612   5.496   3.206  1.3750  1.1965 -3.4031
 5440SOL    MW421528   5.555   5.561   3.215  0.1273 -0.1473 -0.1156
 5441SOL     OW21529   2.778   5.270   5.318 -0.3146 -0.1432 -0.0229
 5441SOL    HW221530   2.706   5.300   5.375 -0.8210 -0.4308 -0.4997
 5441SOL    HW321531   2.844   5.338   5.326 -0.6838  0.1827  0.3437
 5441SOL    MW421532   2.777   5.283   5.327 -0.4301 -0.1382 -0.0374
 5442SOL     OW21533   1.503   5.481   2.850  0.2784 -0.6514  0.0704
 5442SOL    HW221534   1.457   5.513   2.927 -1.1632 -0.9375 -0.6361
 5442SOL    HW321535   1.442   5.497   2.777  0.4302 -2.8720 -0.6238
 5442SOL    MW421536   1.489   5.487   2.851  0.1083 -0.9821 -0.1144
 5443SOL     OW21537   2.918   3.705   5.659 -0.7597  0.7941 -0.2058
 5443SOL    HW221538   3.013   3.701   5.648 -0.6256  1.8403  0.4670
 5443SOL    HW321539   2.890   3.778   5.604 -0.9767  1.4553  0.7597
 5443SOL    MW421540   2.926   3.714   5.650 -0.7706  1.0194  0.0103
 5444SOL     OW21541   4.521   5.004   2.228 -0.9575  0.1258 -0.3857
 5444SOL    HW221542   4.575   4.975   2.301 -0.7825 -2.8685 -1.5578
 5444SOL    HW321543   4.549   5.094   2.211  1.4079 -0.2617  1.0436
 5444SOL    MW421544   4.531   5.012   2.236 -0.6223 -0.3204 -0.3518
 5445SOL     OW21545   2.225   4.178   3.357 -0.3487  0.1489 -0.3007
 5445SOL    HW221546   2.263   4.233   3.288 -0.6773  0.9136  0.1108
 5445SOL    HW321547   2.219   4.236   3.433 -3.6240  0.5404 -0.7188
 5445SOL    MW421548   2.229   4.193   3.358 -0.8242  0.3015 -0.3016
 5446SOL     OW21549   2.979   1.513   2.272 -0.4496  0.1011 -0.6558
 5446SOL    HW221550   2.990   1.428   2.313  1.5614  0.5317 -0.2159
 5446SOL    HW321551   3.050   1.519   2.208  1.2248  2.4893  1.2303
 5446SOL    MW421552   2.990   1.503   2.269  0.0367  0.4730 -0.3489
 5447SOL     OW21553   3.980   3.059   4.738  0.2006 -0.4730  0.1416
 5447SOL    HW221554   4.069   3.093   4.741  0.0604 -0.0199 -0.5650
 5447SOL    HW321555   3.988   2.967   4.763  0.8952 -0.4876 -0.1224
 5447SOL    MW421556   3.993   3.051   4.742  0.2737 -0.4152  0.0135
 5448SOL     OW21557   2.682   5.530   3.339  0.4278 -0.0849  0.3074
 5448SOL    HW221558   2.657   5.459   3.399  0.3261  1.1835  1.8340
 5448SOL    HW321559   2.628   5.604   3.366 -0.0413  0.3976 -1.7733
 5448SOL    MW421560   2.671   5.530   3.350  0.3525  0.1461  0.2343
 5449SOL     OW21561   5.161   2.339   1.809  0.5620  0.5700 -0.2722
 5449SOL    HW221562   5.243   2.352   1.762  0.4786  2.9290  0.1203
 5449SOL    HW321563   5.129   2.427   1.827 -2.3493 -0.2485 -0.8616
 5449SOL    MW421564   5.167   2.352   1.805  0.1669  0.7733 -0.2982
 5450SOL     OW21565   4.518   0.150   1.400 -0.6597 -0.1960 -0.1791
 5450SOL    HW221566   4.591   0.147   1.338 -0.9075  0.5901 -0.5172
 5450SOL    HW321567   4.541   0.085   1.467  1.4535  1.5700  0.9363
 5450SOL    MW421568   4.530   0.141   1.401 -0.4136  0.1407 -0.0766
 5451SOL     OW21569   0.626   3.105   5.484  0.1664  0.1685  0.0122
 5451SOL    HW221570   0.714   3.123   5.516  0.4359  0.6803 -0.9600
 5451SOL    HW321571   0.602   3.022   5.523  0.6646  0.5283  1.1149
 5451SOL    MW421572   0.634   3.097   5.493  0.2677  0.2835  0.0294
 5452SOL     OW21573   0.091   1.443   0.181 -0.4438 -0.1617  0.0486
 5452SOL    HW221574   0.165   1.387   0.205  0.0174  0.5467  0.3287
 5452SOL    HW321575   0.039   1.390   0.121 -0.8293 -1.4595  1.4504
 5452SOL    MW421576   0.094   1.429   0.176 -0.4338 -0.2395  0.2705
 5453SOL     OW21577   4.475   5.850   6.111  0.2936 -0.9480 -0.1142
 5453SOL    HW221578   4.570   5.839   6.112  0.5170  0.4885 -1.3317
 5453SOL    HW321579   4.459   5.927   6.167 -0.1730 -1.2824  0.2181
 5453SOL    MW421580   4.485   5.859   6.119  0.2615 -0.8026 -0.2310
 5454SOL     OW21581   1.830   2.465   1.850 -0.1197  0.6294 -0.0398
 5454SOL    HW221582   1.913   2.510   1.837 -0.3787  0.9260 -0.7614
 5454SOL    HW321583   1.775   2.529   1.895  0.4393 -0.0237  1.6321
 5454SOL    MW421584   1.834   2.480   1.854 -0.0801  0.5824  0.0856
 5455SOL     OW21585   2.092   4.295   2.635 -0.3982 -0.6302  0.0493
 5455SOL    HW221586   2.152   4.360   2.673 -1.3590  1.2279 -1.3997
 5455SOL    HW321587   2.131   4.211   2.656  2.0737  0.4599  0.2072
 5455SOL    MW421588   2.105   4.293   2.643 -0.1988 -0.2413 -0.1210
 5456SOL     OW21589   4.384   0.520   1.962 -0.1357  0.2718  0.0581
 5456SOL    HW221590   4.313   0.576   1.929  0.8419  0.9511 -0.9847
 5456SOL    HW321591   4.446   0.582   2.000  0.7710 -0.1205 -0.7499
 5456SOL    MW421592   4.383   0.536   1.963  0.1129  0.3097 -0.1861
 5457SOL     OW21593   2.749   5.115   1.078 -0.2165 -0.0917  0.1854
 5457SOL    HW221594   2.684   5.176   1.042  1.2767  1.5026  0.0538
 5457SOL    HW321595   2.828   5.168   1.088  1.0405 -1.9392  0.4595
 5457SOL    MW421596   2.751   5.130   1.075  0.1463 -0.1251  0.2042
 5458SOL     OW21597   1.916   2.098   1.269  0.3167  0.2526 -0.4026
 5458SOL    HW221598   1.982   2.030   1.283 -0.9533 -0.3933  3.6321
 5458SOL    HW321599   1.960   2.179   1.296 -0.2254 -0.0702  1.5646
 5458SOL    MW421600   1.931   2.100   1.274  0.0776  0.1248  0.3893
 5459SOL     OW21601   1.853   1.354   3.260 -0.0993  0.0655 -0.1600
 5459SOL    HW221602   1.803   1.379   3.338 -0.1465  0.6478 -0.3705
 5459SOL    HW321603   1.933   1.313   3.294 -0.6578 -0.7647  0.1819
 5459SOL    MW421604   1.857   1.352   3.275 -0.1792  0.0328 -0.1427
 5460SOL     OW21605   3.894   0.401   4.267  0.2553 -0.4889  0.2942
 5460SOL    HW221606   3.822   0.404   4.204 -0.3022 -0.0936  0.9320
 5460SOL    HW321607   3.874   0.326   4.323  0.6604 -0.7388  0.1079
 5460SOL    MW421608   3.882   0.391   4.266  0.2352 -0.4697  0.3538
 5461SOL     OW21609   1.337   4.960   4.391 -0.2067 -0.2298 -0.1641
 5461SOL    HW221610   1.285   5.018   4.447  0.5074 -0.7507  1.1015
 5461SOL    HW321611   1.322   4.873   4.428 -0.3496 -0.7005 -1.3141
 5461SOL    MW421612   1.328   4.956   4.403 -0.1313 -0.3606 -0.1488
 5462SOL     OW21613   2.917   1.931   2.837  0.1081  0.0148  0.0291
 5462SOL    HW221614   2.894   1.990   2.765  1.3940 -2.1565 -2.3256
 5462SOL    HW321615   3.011   1.941   2.847  0.4100 -1.8061 -0.6527
 5462SOL    MW421616   2.926   1.940   2.829  0.3176 -0.5119 -0.3715
 5463SOL     OW21617   1.154   4.148   1.109 -0.0432 -0.1679 -0.8091
 5463SOL    HW221618   1.190   4.237   1.113  5.1545 -1.9076 -0.6839
 5463SOL    HW321619   1.185   4.114   1.024 -1.6918 -1.9646 -0.7549
 5463SOL    MW421620   1.163   4.155   1.098  0.4250 -0.6345 -0.7854
 5464SOL     OW21621   0.770   0.870   1.506 -0.4974 -0.0345  0.0292
 5464SOL    HW221622   0.836   0.801   1.514  0.2542  0.7115  0.4204
 5464SOL    HW321623   0.805   0.928   1.438 -2.0235 -1.0046 -1.6795
 5464SOL    MW421624   0.784   0.868   1.498 -0.5996 -0.0640 -0.1446
 5465SOL     OW21625   4.340   1.549   4.179  0.1985  0.5984 -0.0461
 5465SOL    HW221626   4.264   1.597   4.146 -0.5650 -1.9753 -2.5154
 5465SOL    HW321627   4.405   1.559   4.110  0.7678 -0.1321  0.3766
 5465SOL    MW421628   4.338   1.556   4.165  0.1729  0.1624 -0.3162
 5466SOL     OW21629   4.459   2.662   1.640 -0.4800  0.6220  0.2777
 5466SOL    HW221630   4.391   2.597   1.624 -1.2395  0.6897  2.7467
 5466SOL    HW321631   4.459   2.673   1.736  0.4178  3.3877  0.0416
 5466SOL    MW421632   4.450   2.655   1.651 -0.4618  0.9959  0.5723
 5467SOL     OW21633   0.896   1.492   5.405  0.0638  0.5359  0.1408
 5467SOL    HW221634   0.936   1.560   5.458  0.2061 -0.5574  1.4875
 5467SOL    HW321635   0.954   1.416   5.415 -0.7366 -0.1595 -0.3443
 5467SOL    MW421636   0.909   1.491   5.413 -0.0230  0.2999  0.2545
 5468SOL     OW21637   2.047   3.775   2.932  0.0230 -0.0557 -0.0802
 5468SOL    HW221638   2.046   3.869   2.946 -1.7173  0.1178 -1.0570
 5468SOL    HW321639   2.005   3.738   3.009 -0.0122  0.0399 -0.0539
 5468SOL    MW421640   2.041   3.783   2.944 -0.2113 -0.0202 -0.2056
 5469SOL     OW21641   4.367   0.860   1.315  0.7398 -0.5478  0.2106
 5469SOL    HW221642   4.356   0.947   1.277  0.9014 -0.2691  0.7807
 5469SOL    HW321643   4.455   0.834   1.289  0.1506 -1.1912 -1.2224
 5469SOL    MW421644   4.377   0.868   1.307  0.6834 -0.5959  0.0967
 5470SOL     OW21645   5.477   3.004   1.921  0.5044  0.5164  0.0171
 5470SOL    HW221646   5.414   2.932   1.924  1.0855 -0.0049 -0.1773
 5470SOL    HW321647   5.424   3.081   1.899 -0.0456  0.0581 -0.2896
 5470SOL    MW421648   5.462   3.005   1.919  0.5085  0.3871 -0.0490
 5471SOL     OW21649   0.352   2.330   5.896  0.3792 -0.4245  0.1009
 5471SOL    HW221650   0.418   2.320   5.965  0.6724  1.8748  0.2114
 5471SOL    HW321651   0.403   2.338   5.815  0.0511 -2.4296 -0.3757
 5471SOL    MW421652   0.368   2.330   5.894  0.3746 -0.3857  0.0526
 5472SOL     OW21653   3.665   0.196   0.615  0.3244 -0.3406  0.6585
 5472SOL    HW221654   3.701   0.248   0.543 -1.3488  0.0504  0.0506
 5472SOL    HW321655   3.695   0.240   0.694 -0.2461  0.9987  0.1619
 5472SOL    MW421656   3.673   0.208   0.616  0.0284 -0.1123  0.5128
 5473SOL     OW21657   0.718   4.414   5.445 -0.0527  0.4475  0.3053
 5473SOL    HW221658   0.635   4.433   5.489 -0.4532  0.1595 -0.3202
 5473SOL    HW321659   0.741   4.326   5.474 -1.5584 -0.7573 -1.9050
 5473SOL    MW421660   0.710   4.405   5.455 -0.3042  0.2506 -0.0689
 5474SOL     OW21661   5.984   3.119   1.299 -0.2784  0.1494 -0.0897
 5474SOL    HW221662   6.036   3.138   1.221 -0.7407  1.5650 -0.0761
 5474SOL    HW321663   5.927   3.047   1.272  1.0581 -0.8309 -0.3718
 5474SOL    MW421664   5.983   3.112   1.285 -0.1631  0.2069 -0.1251
 5475SOL     OW21665   1.793   1.702   1.856 -0.2504  1.0187 -0.2119
 5475SOL    HW221666   1.835   1.669   1.776  1.6829 -0.6849  1.4009
 5475SOL    HW321667   1.824   1.792   1.864  0.8472  0.6916 -0.5765
 5475SOL    MW421668   1.803   1.710   1.846  0.1495  0.7508 -0.0472
 5476SOL     OW21669   1.809   5.446   0.703  0.3728 -0.1418  0.1072
 5476SOL    HW221670   1.831   5.535   0.731 -0.2239 -0.5854  2.1276
 5476SOL    HW321671   1.886   5.394   0.727  1.2176 -0.0504 -2.1241
 5476SOL    MW421672   1.822   5.451   0.710  0.4055 -0.1883  0.0794
 5477SOL     OW21673   5.832   5.135   6.093  0.3172  0.0614  0.3894
 5477SOL    HW221674   5.772   5.205   6.120  1.1830  0.7643  0.5522
 5477SOL    HW321675   5.775   5.067   6.058 -0.7667 -0.3215  2.6995
 5477SOL    MW421676   5.817   5.136   6.092  0.2884  0.1036  0.7157
 5478SOL     OW21677   2.072   0.887   5.718 -0.2675  0.0747  0.1047
 5478SOL    HW221678   1.995   0.902   5.664 -0.2074 -2.2889 -0.7638
 5478SOL    HW321679   2.146   0.906   5.660 -0.2025  0.1173  0.2020
 5478SOL    MW421680   2.072   0.891   5.703 -0.2510 -0.2315  0.0030
 5479SOL     OW21681   1.744   1.750   1.178 -0.6054  0.1506  0.1337
 5479SOL    HW221682   1.662   1.702   1.177 -1.4557  1.4834  1.6072
 5479SOL    HW321683   1.777   1.740   1.267  0.5222  0.1569 -0.2669
 5479SOL    MW421684   1.738   1.743   1.189 -0.5688  0.3273  0.2753
 5480SOL     OW21685   5.899   4.701   0.225 -0.0460 -0.1101  0.0863
 5480SOL    HW221686   5.898   4.700   0.320 -0.3671 -0.4250  0.0800
 5480SOL    HW321687   5.975   4.755   0.202 -0.7683  1.1524  0.5285
 5480SOL    MW421688   5.908   4.708   0.234 -0.1836  0.0149  0.1439
 5481SOL     OW21689   4.548   4.771   5.155 -0.0207 -0.5893  0.4251
 5481SOL    HW221690   4.503   4.791   5.237 -1.3048 -4.2021  0.8069
 5481SOL    HW321691   4.482   4.784   5.087  0.8269  1.6737 -0.0668
 5481SOL    MW421692   4.534   4.775   5.157 -0.0783 -0.7674  0.4106
 5482SOL     OW21693   2.916   3.020   2.300  0.3093 -0.0645  0.1821
 5482SOL    HW221694   2.829   3.020   2.259  0.2649 -1.2123  0.2300
 5482SOL    HW321695   2.970   2.969   2.239  0.4722 -0.9918  1.0740
 5482SOL    MW421696   2.912   3.013   2.286  0.3250 -0.3383  0.3061
 5483SOL     OW21697   3.141   1.012   4.705  0.5831 -0.1253  0.1511
 5483SOL    HW221698   3.163   0.938   4.761  2.3914  0.6867  0.5699
 5483SOL    HW321699   3.100   0.972   4.627  0.9310 -1.4929  0.6463
 5483SOL    MW421700   3.138   0.997   4.702  0.8676 -0.1986  0.2717
 5484SOL     OW21701   1.897   5.017   2.646  0.0447 -0.4829 -0.2737
 5484SOL    HW221702   1.870   5.100   2.607  0.7684  0.7196  1.6269
 5484SOL    HW321703   1.969   5.040   2.704 -1.3353 -1.9638  2.2404
 5484SOL    MW421704   1.903   5.031   2.649 -0.0419 -0.5196  0.3088
 5485SOL     OW21705   3.026   0.086   4.087 -0.5981 -1.1253  0.1357
 5485SOL    HW221706   2.983   0.103   4.171 -0.2716 -0.1993  0.1278
 5485SOL    HW321707   3.061  -0.003   4.096 -1.6162 -1.4960  0.5187
 5485SOL    MW421708   3.025   0.077   4.099 -0.6893 -1.0521  0.1852
 5486SOL     OW21709   4.403   4.369   2.321  0.3330  0.0152  0.1383
 5486SOL    HW221710   4.415   4.333   2.233 -1.7017  0.8616 -0.5502
 5486SOL    HW321711   4.398   4.464   2.307 -0.5916  0.1221  1.0857
 5486SOL    MW421712   4.404   4.377   2.307 -0.0575  0.1410  0.1724
 5487SOL     OW21713   5.311   4.421   3.021  0.1531 -0.1936  0.3050
 5487SOL    HW221714   5.317   4.496   3.080 -2.4821  0.0798  0.3444
 5487SOL    HW321715   5.299   4.459   2.934 -1.8372 -0.4766  0.4027
 5487SOL    MW421716   5.310   4.436   3.017 -0.4572 -0.1948  0.3231
 5488SOL     OW21717   4.860   1.613   4.264  0.1379  0.2555 -0.0546
 5488SOL    HW221718   4.866   1.523   4.296  1.0212  0.9972  2.0340
 5488SOL    HW321719   4.948   1.648   4.274 -0.3014  1.5014 -0.4200
 5488SOL    MW421720   4.872   1.605   4.270  0.1965  0.5177  0.1728
 5489SOL     OW21721   6.198   4.629   5.990 -1.0697  0.2976 -0.3106
 5489SOL    HW221722   6.110   4.596   6.006 -0.0245 -1.8249  1.8461
 5489SOL    HW321723   6.255   4.555   6.011  1.2919  2.0777 -0.0250
 5489SOL    MW421724   6.194   4.615   5.995 -0.6202  0.2524  0.0117
 5490SOL     OW21725   0.660   1.305   2.275  0.5250  0.1768  0.3519
 5490SOL    HW221726   0.755   1.319   2.275  0.4399  1.0863  2.2829
 5490SOL    HW321727   0.629   1.358   2.202  1.5704 -0.9959 -1.0100
 5490SOL    MW421728   0.669   1.314   2.265  0.6517  0.1421  0.4270
 5491SOL     OW21729   0.488   2.587   2.464 -0.1395 -0.6771 -0.1841
 5491SOL    HW221730   0.407   2.568   2.417 -1.1018  1.5021  0.4827
 5491SOL    HW321731   0.463   2.586   2.556  0.5048  0.3450  0.0145
 5491SOL    MW421732   0.474   2.584   2.470 -0.1814 -0.2547 -0.0699
 5492SOL     OW21733   4.585   1.034   4.266  0.0916 -0.3254  0.3813
 5492SOL    HW221734   4.555   1.100   4.330  0.1343 -0.2208  0.2936
 5492SOL    HW321735   4.541   1.058   4.185 -0.0014 -0.4900  0.3845
 5492SOL    MW421736   4.575   1.046   4.264  0.0850 -0.3333  0.3701
 5493SOL     OW21737   4.448   4.344   3.143 -0.0908  0.3236  0.5130
 5493SOL    HW221738   4.531   4.338   3.096 -1.0932  1.0871 -1.4442
 5493SOL    HW321739   4.436   4.257   3.181  2.5060  0.7258  2.5484
 5493SOL    MW421740   4.458   4.332   3.142  0.1196  0.4774  0.5233
 5494SOL     OW21741   4.994   6.271   3.382  0.5071 -0.5111 -0.3388
 5494SOL    HW221742   5.025   6.360   3.362 -0.8572  0.3903  1.2995
 5494SOL    HW321743   4.945   6.245   3.304 -0.1098  0.6983 -0.3857
 5494SOL    MW421744   4.991   6.280   3.369  0.2457 -0.2326 -0.1288
 5495SOL     OW21745   4.762   5.359   1.052  0.0775  0.8865 -0.1670
 5495SOL    HW221746   4.698   5.428   1.034 -0.2185  0.2147 -1.9723
 5495SOL    HW321747   4.820   5.397   1.118 -0.5146  2.5814 -0.5564
 5495SOL    MW421748   4.761   5.373   1.058 -0.0397  1.0215 -0.4566
 5496SOL     OW21749   2.552   1.411   3.843  0.5176 -0.1050 -0.4274
 5496SOL    HW221750   2.515   1.473   3.780  0.2035  0.7464  0.5467
 5496SOL    HW321751   2.480   1.394   3.904  0.9018 -0.6657 -0.1280
 5496SOL    MW421752   2.538   1.417   3.843  0.5269 -0.0666 -0.2593
 5497SOL     OW21753   0.335   1.104   2.710  0.0351 -0.5091  0.1640
 5497SOL    HW221754   0.375   1.017   2.702 -1.4970 -1.2011 -0.2953
 5497SOL    HW321755   0.276   1.096   2.785  0.1776  0.2700  0.3689
 5497SOL    MW421756   0.332   1.092   2.719 -0.1483 -0.4976  0.1304
 5498SOL     OW21757   3.729   5.773   1.009 -0.7553  0.4101 -0.3791
 5498SOL    HW221758   3.668   5.708   1.045 -0.0188  0.2760  0.6495
 5498SOL    HW321759   3.808   5.724   0.989  0.3259  1.1645  1.7092
 5498SOL    MW421760   3.731   5.758   1.011 -0.5155  0.4920  0.0322
 5499SOL     OW21761   5.857   1.420   4.817  0.0457 -0.0767  0.2498
 5499SOL    HW221762   5.819   1.367   4.888  1.2570 -2.0913 -0.5380
 5499SOL    HW321763   5.876   1.357   4.748  0.1229  1.6543 -1.3801
 5499SOL    MW421764   5.854   1.405   4.818  0.2157 -0.1141 -0.0692
 5500SOL     OW21765   3.518   5.011   4.022 -0.1915 -0.3936 -0.0611
 5500SOL    HW221766   3.562   5.091   4.051  1.0101 -1.1037  0.1229
 5500SOL    HW321767   3.520   5.016   3.927  0.9204 -0.7453 -0.0644
 5500SOL    MW421768   3.524   5.023   4.014  0.1137 -0.5337 -0.0372
 5501SOL     OW21769   2.853   2.158   2.664 -0.2303  0.2132 -0.1387
 5501SOL    HW221770   2.922   2.210   2.624 -0.0141  1.4429  1.7076
 5501SOL    HW321771   2.810   2.218   2.725 -3.0490 -0.4739 -1.3119
 5501SOL    MW421772   2.857   2.173   2.667 -0.5737  0.2847 -0.0499
 5502SOL     OW21773   3.885   6.080   2.888 -0.0680  0.0076 -0.0014
 5502SOL    HW221774   3.809   6.078   2.829  0.5783 -1.0281 -0.8241
 5502SOL    HW321775   3.889   5.992   2.924  0.7523  0.0586  0.0340
 5502SOL    MW421776   3.875   6.068   2.885  0.1255 -0.1224 -0.1052
 5503SOL     OW21777   4.170   0.015   5.979 -0.1219 -0.1781  0.1303
 5503SOL    HW221778   4.239   0.000   5.915  0.9142 -2.6633  1.6680
 5503SOL    HW321779   4.157   0.109   5.979  1.1469  0.0854 -2.3372
 5503SOL    MW421780   4.177   0.025   5.970  0.1822 -0.4712  0.0076
 5504SOL     OW21781   1.627   6.015   3.570  0.0537 -0.0970  0.3541
 5504SOL    HW221782   1.652   6.018   3.663  1.2006 -0.0493  0.0640
 5504SOL    HW321783   1.629   6.106   3.543  0.6760 -0.1922  0.0567
 5504SOL    MW421784   1.631   6.027   3.579  0.2871 -0.1032  0.2766
 5505SOL     OW21785   1.861   0.817   4.377 -0.7706 -0.0142  0.0265
 5505SOL    HW221786   1.909   0.754   4.429  0.1473  1.3601  0.9210
 5505SOL    HW321787   1.905   0.818   4.292  0.4507  0.7787  0.6375
 5505SOL    MW421788   1.873   0.809   4.373 -0.4884  0.2718  0.2251
 5506SOL     OW21789   5.642   4.526   2.778 -0.1060  0.3109 -0.1623
 5506SOL    HW221790   5.723   4.555   2.735  0.0049 -0.7727 -0.7109
 5506SOL    HW321791   5.665   4.442   2.818  0.2274  1.8991  3.3353
 5506SOL    MW421792   5.656   4.519   2.777 -0.0474  0.3775  0.2268
 5507SOL     OW21793   1.672   4.218   2.900 -0.2517 -1.1561 -0.1437
 5507SOL    HW221794   1.602   4.270   2.938  0.2670 -1.0649  0.7126
 5507SOL    HW321795   1.747   4.277   2.896 -0.3452 -1.1089 -1.5080
 5507SOL    MW421796   1.673   4.233   2.904 -0.1956 -1.1379 -0.2107
 5508SOL     OW21797   4.178   4.376   6.267 -0.5860  0.2862  0.3774
 5508SOL    HW221798   4.205   4.360   6.177 -0.4962  0.7446  0.3232
 5508SOL    HW321799   4.092   4.334   6.274 -0.6682  0.3968  0.0341
 5508SOL    MW421800   4.170   4.368   6.256 -0.5850  0.3612  0.3249
 5509SOL     OW21801   2.437   0.800   2.638 -0.1342 -0.0131  0.1745
 5509SOL    HW221802   2.500   0.871   2.636 -0.9461  0.7203 -1.6908
 5509SOL    HW321803   2.488   0.723   2.662  1.7121  0.3975 -2.0445
 5509SOL    MW421804   2.452   0.799   2.641  0.0022  0.1378 -0.3644
 5510SOL     OW21805   4.397   3.043   0.145  0.2094  0.7544  0.4662
 5510SOL    HW221806   4.465   3.006   0.088  0.7087  2.5729 -0.1840
 5510SOL    HW321807   4.321   2.987   0.130  1.4435 -1.1472  0.9755
 5510SOL    MW421808   4.396   3.030   0.135  0.4381  0.7435  0.4476
 5511SOL     OW21809   3.122   3.646   5.957 -0.3216  0.2409  0.0078
 5511SOL    HW221810   3.041   3.697   5.957  0.1512  1.0022 -0.1011
 5511SOL    HW321811   3.190   3.708   5.930 -0.3592 -1.4879 -5.1449
 5511SOL    MW421812   3.120   3.661   5.954 -0.2642  0.1133 -0.6864
 5512SOL     OW21813   1.445   1.341   1.138 -0.8548 -0.2038 -0.3056
 5512SOL    HW221814   1.434   1.253   1.176  0.5034  0.3714  1.5564
 5512SOL    HW321815   1.416   1.400   1.207  0.0856  0.8644 -0.8113
 5512SOL    MW421816   1.439   1.337   1.152 -0.5516  0.0131 -0.1267
 5513SOL     OW21817   5.586   1.666   5.442  0.2893  0.2154  0.3434
 5513SOL    HW221818   5.636   1.675   5.523  0.5451  1.3153  0.0776
 5513SOL    HW321819   5.645   1.698   5.374  0.1026 -0.7612 -0.3020
 5513SOL    MW421820   5.601   1.671   5.444  0.2984  0.2316  0.2232
 5514SOL     OW21821   3.475   6.007   4.654 -0.3872  0.2361  0.1929
 5514SOL    HW221822   3.400   6.014   4.712 -0.6988  2.6368 -0.4115
 5514SOL    HW321823   3.484   6.093   4.614 -0.0703 -1.1807 -3.1939
 5514SOL    MW421824   3.466   6.019   4.656 -0.3865  0.3659 -0.3337
 5515SOL     OW21825   4.761   3.006   4.824 -0.0949 -0.6527 -0.0447
 5515SOL    HW221826   4.758   3.101   4.823  0.3213 -0.6426 -0.6114
 5515SOL    HW321827   4.819   2.982   4.751  0.5968 -1.3115  0.6978
 5515SOL    MW421828   4.768   3.015   4.814  0.0513 -0.7383 -0.0215
 5516SOL     OW21829   3.729   2.638   6.043 -0.2485  0.1277 -0.2316
 5516SOL    HW221830   3.681   2.658   6.124 -0.4372 -0.8494 -0.0942
 5516SOL    HW321831   3.689   2.557   6.011  0.9098 -0.3805 -0.4332
 5516SOL    MW421832   3.717   2.630   6.050 -0.1205 -0.0683 -0.2401
 5517SOL     OW21833   3.345   4.102   6.086  0.0113  0.2204 -0.7278
 5517SOL    HW221834   3.333   4.017   6.045  1.6083 -0.1629 -0.4722
 5517SOL    HW321835   3.362   4.162   6.013  2.9467 -0.4772 -0.7386
 5517SOL    MW421836   3.346   4.099   6.071  0.6093  0.0778 -0.6955
 5518SOL     OW21837   5.527   2.776   4.577 -0.0055  0.3790 -0.0056
 5518SOL    HW221838   5.537   2.686   4.546 -0.7219  0.4918 -0.6147
 5518SOL    HW321839   5.486   2.822   4.503  0.2787  1.1857  0.3271
 5518SOL    MW421840   5.523   2.770   4.563 -0.0625  0.5003 -0.0420
 5519SOL     OW21841   0.220   2.730   3.068 -0.1869  0.2421  0.1441
 5519SOL    HW221842   0.126   2.721   3.050  0.0816  0.0141 -1.2907
 5519SOL    HW321843   0.254   2.781   2.995  0.7232  0.8286  0.9545
 5519SOL    MW421844   0.212   2.735   3.056 -0.0314  0.2894  0.0617
 5520SOL     OW21845   3.359   5.736   4.416 -0.4031  0.5769  0.1021
 5520SOL    HW221846   3.311   5.711   4.337 -1.0824  0.6570  0.4855
 5520SOL    HW321847   3.447   5.700   4.402 -1.1762 -1.5712  0.3891
 5520SOL    MW421848   3.364   5.728   4.404 -0.5947  0.3041  0.1906
 5521SOL     OW21849   6.079   5.604   3.187  0.5390  0.0293  0.8611
 5521SOL    HW221850   6.004   5.642   3.231  0.8876  0.1100  1.3977
 5521SOL    HW321851   6.052   5.514   3.166  0.3763 -0.0168  1.2642
 5521SOL    MW421852   6.066   5.597   3.190  0.5636  0.0339  0.9851
 5522SOL     OW21853   6.141   0.652   5.033 -0.0934 -0.1870 -0.3121
 5522SOL    HW221854   6.172   0.586   5.094  0.3213 -0.0854 -0.4110
 5522SOL    HW321855   6.118   0.727   5.088 -1.0526 -0.5834 -0.1483
 5522SOL    MW421856   6.142   0.653   5.048 -0.1652 -0.2259 -0.3036
 5523SOL     OW21857   2.180   5.830   2.174 -0.4378 -0.2998  0.0608
 5523SOL    HW221858   2.169   5.800   2.264 -0.2853 -1.2184 -0.2229
 5523SOL    HW321859   2.243   5.902   2.180 -0.6095 -0.2025  0.7121
 5523SOL    MW421860   2.186   5.836   2.186 -0.4404 -0.4082  0.1093
 5524SOL     OW21861   6.097   1.363   2.369  0.2041 -0.3300  0.1994
 5524SOL    HW221862   6.105   1.386   2.462 -0.1424 -0.7359  0.3310
 5524SOL    HW321863   6.092   1.268   2.369  0.6172 -0.3548 -0.2700
 5524SOL    MW421864   6.097   1.354   2.382  0.2129 -0.3868  0.1548
 5525SOL     OW21865   2.337   0.019   2.254  0.5440  0.5388  0.1030
 5525SOL    HW221866   2.301  -0.052   2.201  0.9099 -0.3252  0.9876
 5525SOL    HW321867   2.316  -0.004   2.344 -2.0806  3.1197  0.3096
 5525SOL    MW421868   2.330   0.007   2.259  0.2460  0.7653  0.2469
 5526SOL     OW21869   0.739   5.897   0.829 -0.0315  0.2266  0.1066
 5526SOL    HW221870   0.789   5.880   0.909  1.2594  2.8402 -0.0233
 5526SOL    HW321871   0.720   5.811   0.793  0.5744 -0.9817  2.4810
 5526SOL    MW421872   0.743   5.884   0.835  0.2187  0.4120  0.4027
 5527SOL     OW21873   5.015   0.266   5.491  0.8587  0.0921  1.0149
 5527SOL    HW221874   5.016   0.284   5.397  0.7267  0.2109  1.0346
 5527SOL    HW321875   5.026   0.352   5.532 -0.6124  0.2568  1.1182
 5527SOL    MW421876   5.016   0.280   5.484  0.6472  0.1295  1.0311
 5528SOL     OW21877   1.831   0.104   4.486  0.0007 -0.7323 -0.3979
 5528SOL    HW221878   1.805   0.030   4.541  2.5061 -1.0713  0.4529
 5528SOL    HW321879   1.926   0.105   4.491  0.0681  2.4908 -0.5325
 5528SOL    MW421880   1.840   0.094   4.494  0.3401 -0.3518 -0.3034
 5529SOL     OW21881   0.907   5.354   6.032  0.2966 -0.3419  0.2281
 5529SOL    HW221882   1.002   5.352   6.024  0.3839  2.9251 -1.5259
 5529SOL    HW321883   0.891   5.411   6.108 -0.2294 -0.2445  0.0488
 5529SOL    MW421884   0.917   5.362   6.041  0.2387  0.1020 -0.0270
 5530SOL     OW21885   4.168   3.210   3.522 -0.0845 -0.5163  0.5936
 5530SOL    HW221886   4.231   3.140   3.509  1.2640  0.8783 -0.7955
 5530SOL    HW321887   4.104   3.200   3.451  0.1812 -0.2788  0.3181
 5530SOL    MW421888   4.168   3.200   3.511  0.1285 -0.3010  0.3740
 5531SOL     OW21889   5.986   1.932   6.381  0.6872 -0.3113 -0.4796
 5531SOL    HW221890   5.941   1.894   6.306  2.9323 -0.9400 -1.6111
 5531SOL    HW321891   6.068   1.883   6.387  1.6042  1.2719  0.9274
 5531SOL    MW421892   5.991   1.921   6.372  1.1044 -0.1853 -0.4433
 5532SOL     OW21893   0.506   5.584   0.906 -0.1093 -0.1265  0.0672
 5532SOL    HW221894   0.573   5.597   0.839  1.3520 -0.9914  1.3010
 5532SOL    HW321895   0.487   5.490   0.901  0.6342 -0.3680  1.3884
 5532SOL    MW421896   0.512   5.573   0.896  0.1816 -0.2725  0.4043
 5533SOL     OW21897   2.818   2.762   3.943 -0.1249  0.4258 -0.1426
 5533SOL    HW221898   2.752   2.723   3.886  0.3130 -1.3060  0.4500
 5533SOL    HW321899   2.781   2.846   3.970 -0.7923  0.8063 -2.0978
 5533SOL    MW421900   2.804   2.768   3.939 -0.1552  0.2475 -0.3223
 5534SOL     OW21901   2.195   1.137   3.974 -0.0955  0.1885  0.2188
 5534SOL    HW221902   2.253   1.073   4.015 -2.0349 -1.5034  0.4503
 5534SOL    HW321903   2.188   1.109   3.883 -0.5399  0.4001  0.1869
 5534SOL    MW421904   2.202   1.125   3.968 -0.4100 -0.0068  0.2452
 5535SOL     OW21905   3.063   1.640   3.059  0.1778 -0.0332 -0.5726
 5535SOL    HW221906   3.092   1.553   3.035  0.4325 -0.4941  1.2417
 5535SOL    HW321907   3.142   1.694   3.057  0.2798 -0.1741 -0.3058
 5535SOL    MW421908   3.077   1.636   3.056  0.2249 -0.1126 -0.2980
 5536SOL     OW21909   0.588   4.399   5.016  0.0611  0.0010  0.0577
 5536SOL    HW221910   0.533   4.476   5.032  0.5578  0.3558  0.0691
 5536SOL    HW321911   0.528   4.335   4.977 -0.4336  0.2663  0.3729
 5536SOL    MW421912   0.573   4.401   5.013  0.0614  0.0828  0.1008
 5537SOL     OW21913   4.264   5.265   2.182  0.4438  0.7266  0.3704
 5537SOL    HW221914   4.172   5.288   2.175  0.1324 -0.6185 -0.2110
 5537SOL    HW321915   4.290   5.241   2.093  1.3237  0.9526  0.5549
 5537SOL    MW421916   4.255   5.265   2.169  0.5188  0.5790  0.3180
 5538SOL     OW21917   4.464   5.238   6.176  0.0824  1.0457  0.2643
 5538SOL    HW221918   4.411   5.163   6.205  1.6491  0.0506  0.6609
 5538SOL    HW321919   4.490   5.282   6.257  1.0426  0.6696  0.1767
 5538SOL    MW421920   4.460   5.234   6.190  0.4158  0.8648  0.3051
 5539SOL     OW21921   1.210   3.550   4.703  0.2487 -0.8488  0.2624
 5539SOL    HW221922   1.270   3.563   4.777 -1.7148 -1.3440  2.0517
 5539SOL    HW321923   1.267   3.533   4.628  2.3547  0.2659  1.5165
 5539SOL    MW421924   1.225   3.550   4.703  0.2675 -0.7670  0.6639
 5540SOL     OW21925   1.126   4.554   2.856 -0.4212  0.0981 -0.1076
 5540SOL    HW221926   1.188   4.569   2.927 -1.2532  0.0409  0.6466
 5540SOL    HW321927   1.069   4.485   2.888 -0.4326 -0.3518 -1.0856
 5540SOL    MW421928   1.127   4.547   2.870 -0.5324  0.0312 -0.1371
 5541SOL     OW21929   6.390   3.619   3.217 -0.1208 -0.2782 -0.3654
 5541SOL    HW221930   6.418   3.700   3.176  1.7265 -1.7393 -2.1858
 5541SOL    HW321931   6.361   3.564   3.145 -0.6216 -1.5386  0.7467
 5541SOL    MW421932   6.390   3.622   3.202  0.0568 -0.6373 -0.4588
 5542SOL     OW21933   6.058   5.615   1.226  0.1880 -0.3223 -0.5143
 5542SOL    HW221934   6.045   5.659   1.310  1.7405  0.5849 -0.7264
 5542SOL    HW321935   6.137   5.563   1.238  0.1070 -0.6217 -1.2424
 5542SOL    MW421936   6.067   5.614   1.239  0.3821 -0.2421 -0.6383
 5543SOL     OW21937   3.041   2.316   2.504  0.0111 -0.4364 -0.2871
 5543SOL    HW221938   2.998   2.401   2.502 -0.4252 -0.6521 -1.6925
 5543SOL    HW321939   3.135   2.336   2.508 -0.0746  0.1331 -0.8837
 5543SOL    MW421940   3.048   2.330   2.504 -0.0578 -0.3897 -0.5513
 5544SOL     OW21941   4.337   3.782   2.489  0.2687 -0.1564  0.2759
 5544SOL    HW221942   4.331   3.784   2.584  0.3693  4.1901  0.3797
 5544SOL    HW321943   4.246   3.774   2.460  0.2223 -1.2983  0.6724
 5544SOL    MW421944   4.324   3.781   2.497  0.2759  0.2664  0.3419
 5545SOL     OW21945   0.840   1.378   4.811  0.9754 -0.0204 -0.3662
 5545SOL    HW221946   0.927   1.352   4.780  0.3178  0.4928 -2.8713
 5545SOL    HW321947   0.829   1.467   4.778 -0.3855  0.0233  0.1743
 5545SOL    MW421948   0.850   1.386   4.802  0.7091  0.0530 -0.6254
 5546SOL     OW21949   3.169   1.004   2.563 -0.0076 -0.1959  0.2777
 5546SOL    HW221950   3.192   0.936   2.499 -1.6865  0.8021 -1.5206
 5546SOL    HW321951   3.075   0.994   2.575  0.0326  0.6437  1.4327
 5546SOL    MW421952   3.160   0.994   2.556 -0.2238  0.0465  0.1928
 5547SOL     OW21953   5.657   3.490   4.583  0.1798 -0.3567  0.1863
 5547SOL    HW221954   5.630   3.494   4.492  0.0104 -1.3705  0.1814
 5547SOL    HW321955   5.587   3.536   4.631  1.1720  1.8321 -0.3400
 5547SOL    MW421956   5.644   3.496   4.578  0.2884 -0.2016  0.1162
 5548SOL     OW21957   2.860   4.918   3.442  0.7575 -0.0617 -0.2583
 5548SOL    HW221958   2.827   4.865   3.515  0.8678 -0.4435 -0.4794
 5548SOL    HW321959   2.860   5.007   3.475  2.7077 -0.4329  0.9419
 5548SOL    MW421960   2.856   4.922   3.456  1.0294 -0.1611 -0.1291
 5549SOL     OW21961   5.098   3.180   1.404 -0.2158  0.1169 -0.6105
 5549SOL    HW221962   5.154   3.209   1.476  0.4165 -0.1140 -1.0003
 5549SOL    HW321963   5.122   3.088   1.391 -2.0832 -0.5856  0.5146
 5549SOL    MW421964   5.108   3.172   1.411 -0.3788 -0.0063 -0.5135
 5550SOL     OW21965   3.909   3.218   0.860  0.1979  0.3213  0.3693
 5550SOL    HW221966   3.994   3.175   0.868  0.7564  1.6141  1.8294
 5550SOL    HW321967   3.897   3.230   0.765  0.7963 -1.4192  0.0347
 5550SOL    MW421968   3.918   3.214   0.848  0.3506  0.2622  0.5178
 5551SOL     OW21969   3.983   3.188   3.286 -0.1730  0.5494 -0.3679
 5551SOL    HW221970   4.039   3.256   3.248  0.1688  0.2469 -0.4131
 5551SOL    HW321971   4.005   3.108   3.237  0.4364  0.1027  0.6039
 5551SOL    MW421972   3.993   3.186   3.275 -0.0475  0.4506 -0.2457
 5552SOL     OW21973   0.220   1.609   5.899 -0.5347 -0.4015  0.1823
 5552SOL    HW221974   0.260   1.619   5.813  0.2664 -0.4882  0.5334
 5552SOL    HW321975   0.144   1.667   5.897 -0.9287 -0.9221 -0.8200
 5552SOL    MW421976   0.215   1.618   5.887 -0.4810 -0.4816  0.0964
 5553SOL     OW21977   5.458   4.697   4.332  0.1071  0.2709 -0.2131
 5553SOL    HW221978   5.540   4.694   4.382  0.9234  1.2970 -1.4241
 5553SOL    HW321979   5.390   4.696   4.398  1.1527  3.3385  1.1248
 5553SOL    MW421980   5.460   4.697   4.347  0.3528  0.8110 -0.1963
 5554SOL     OW21981   4.819   0.726   2.067  0.3412 -0.1773  0.0503
 5554SOL    HW221982   4.857   0.641   2.091 -0.4686 -0.4127  0.5104
 5554SOL    HW321983   4.870   0.790   2.118  1.3707 -0.3185 -0.7699
 5554SOL    MW421984   4.831   0.723   2.077  0.3702 -0.2270  0.0028
 5555SOL     OW21985   3.742   5.904   0.220  0.6638  0.6010 -0.5170
 5555SOL    HW221986   3.808   5.859   0.167 -1.0082 -0.4696 -1.7840
 5555SOL    HW321987   3.777   5.993   0.230  3.2264 -0.4222  0.5793
 5555SOL    MW421988   3.755   5.910   0.214  0.7813  0.3247 -0.5395
 5556SOL     OW21989   1.325   0.519   5.142 -0.7437 -0.3346  0.5153
 5556SOL    HW221990   1.417   0.502   5.160 -0.7487 -1.6359 -0.5493
 5556SOL    HW321991   1.320   0.613   5.125  0.4745 -0.3439  0.0627
 5556SOL    MW421992   1.336   0.529   5.142 -0.5837 -0.5075  0.3151
 5557SOL     OW21993   5.506   1.481   1.507  0.4084 -0.5300 -0.5760
 5557SOL    HW221994   5.529   1.544   1.439  0.2231  0.9015  0.6279
 5557SOL    HW321995   5.588   1.466   1.555 -0.1424  1.2295  1.0373
 5557SOL    MW421996   5.520   1.487   1.505  0.3113 -0.1090 -0.2043
 5558SOL     OW21997   0.740   3.090   4.978  0.7937 -0.0909 -1.2324
 5558SOL    HW221998   0.679   3.017   4.968  0.0634  0.2946  0.1644
 5558SOL    HW321999   0.816   3.051   5.021  0.1908  0.0408 -0.0001
 5558SOL    MW422000   0.742   3.075   4.982  0.6178 -0.0227 -0.8855
 5559SOL     OW22001   2.140   0.378   0.106  0.0736  0.2436 -0.0486
 5559SOL    HW222002   2.056   0.367   0.151  1.5500  0.0159  2.9099
 5559SOL    HW322003   2.118   0.428   0.027 -3.0348 -1.1749 -0.2629
 5559SOL    MW422004   2.126   0.383   0.101 -0.1417  0.0264  0.3135
 5560SOL     OW22005   2.083   4.062   1.190 -0.1080  0.5251 -0.8120
 5560SOL    HW222006   2.140   4.029   1.120  0.5024  0.1584 -0.1539
 5560SOL    HW322007   2.144   4.101   1.253 -0.3857 -1.5747  0.8403
 5560SOL    MW422008   2.099   4.063   1.189 -0.0641  0.1997 -0.5072
 5561SOL     OW22009   0.911   3.461   1.077 -0.1197  0.3877  0.4687
 5561SOL    HW222010   1.004   3.483   1.072  0.2480 -1.2283 -0.4063
 5561SOL    HW322011   0.891   3.462   1.171  0.5325  1.6452  0.6150
 5561SOL    MW422012   0.921   3.464   1.089  0.0149  0.3404  0.3725
 5562SOL     OW22013   0.342   5.455   1.462  0.0120  0.4796  0.1302
 5562SOL    HW222014   0.426   5.408   1.468 -0.0980  0.4272  1.5813
 5562SOL    HW322015   0.353   5.513   1.387  0.1835 -1.7762 -1.7091
 5562SOL    MW422016   0.355   5.456   1.453  0.0201  0.1751  0.0790
 5563SOL     OW22017   4.138   5.146   0.492 -0.0255  0.0358  0.3469
 5563SOL    HW222018   4.168   5.168   0.580 -1.9984  1.9170  0.6383
 5563SOL    HW322019   4.133   5.050   0.492  0.7553 -0.0400  2.0235
 5563SOL    MW422020   4.141   5.136   0.504 -0.1828  0.2740  0.6066
 5564SOL     OW22021   5.963   1.551   0.561  0.1850  0.4301 -0.1487
 5564SOL    HW222022   5.998   1.477   0.611  1.8462  0.0590 -1.7679
 5564SOL    HW322023   6.026   1.622   0.575 -0.1319  0.7916 -0.5188
 5564SOL    MW422024   5.976   1.551   0.569  0.3624  0.4289 -0.4112
 5565SOL     OW22025   4.846   0.090   3.642  0.2351  0.6363  0.0607
 5565SOL    HW222026   4.804   0.093   3.556 -0.4205 -1.2776  0.2841
 5565SOL    HW322027   4.872  -0.001   3.654  2.8421  1.3616  0.7435
 5565SOL    MW422028   4.844   0.079   3.632  0.4925  0.4795  0.1802
 5566SOL     OW22029   5.375   5.023   0.350 -0.2857  0.9537  0.0787
 5566SOL    HW222030   5.462   4.982   0.353  0.0509  1.4856 -1.6437
 5566SOL    HW322031   5.380   5.094   0.414  0.9552  1.6958 -0.8004
 5566SOL    MW422032   5.387   5.027   0.359 -0.0776  1.1218 -0.2645
 5567SOL     OW22033   2.993   2.790   0.925  0.2526  0.2967 -0.5754
 5567SOL    HW222034   2.973   2.821   1.014  0.9528  1.4721 -0.8085
 5567SOL    HW322035   3.073   2.837   0.901 -0.3235  0.5584 -2.1116
 5567SOL    MW422036   3.001   2.800   0.934  0.2690  0.4863 -0.8088
 5568SOL     OW22037   1.116   4.940   3.230 -0.1538  0.2002  0.1410
 5568SOL    HW222038   1.201   4.949   3.188 -0.0009 -0.1416  0.3722
 5568SOL    HW322039   1.136   4.923   3.322 -0.4665  0.0019  0.1747
 5568SOL    MW422040   1.130   4.939   3.236 -0.1749  0.1289  0.1760
 5569SOL     OW22041   5.647   0.496   5.640 -0.5280  0.1476 -0.5706
 5569SOL    HW222042   5.642   0.404   5.614 -0.5075  0.4019 -1.4885
 5569SOL    HW322043   5.625   0.545   5.561  1.6386  1.0000 -0.7142
 5569SOL    MW422044   5.643   0.490   5.626 -0.2394  0.2937 -0.7107
 5570SOL     OW22045   2.083   5.977   2.839 -0.1677 -0.1776  0.1683
 5570SOL    HW222046   2.080   5.982   2.934  1.4505 -1.7411  0.3455
 5570SOL    HW322047   2.037   5.896   2.818 -0.9883  0.4359 -0.4300
 5570SOL    MW422048   2.077   5.967   2.849 -0.0625 -0.3029  0.1128
 5571SOL     OW22049   0.593   1.119   1.918  0.3087  0.1899  0.7371
 5571SOL    HW222050   0.651   1.070   1.977  0.1002 -0.5281  0.3600
 5571SOL    HW322051   0.572   1.056   1.848 -0.3030  0.6910  0.4663
 5571SOL    MW422052   0.598   1.104   1.916  0.2005  0.1613  0.6516
 5572SOL     OW22053   2.509   1.610   0.596 -0.5155 -0.2466 -0.4417
 5572SOL    HW222054   2.414   1.624   0.596 -0.4058  0.5201 -0.3944
 5572SOL    HW322055   2.532   1.604   0.689 -0.4397  0.1074 -0.4379
 5572SOL    MW422056   2.499   1.611   0.609 -0.4910 -0.0987 -0.4350
 5573SOL     OW22057   2.665   0.953   2.642  0.2412  0.6465 -0.1478
 5573SOL    HW222058   2.751   0.921   2.613 -0.6144 -2.0458  0.0087
 5573SOL    HW322059   2.680   0.986   2.730  1.1314  0.2094 -0.1232
 5573SOL    MW422060   2.679   0.953   2.649  0.2457  0.2336 -0.1239
 5574SOL     OW22061   1.447   3.268   0.235  0.2707  0.2957  0.2119
 5574SOL    HW222062   1.518   3.300   0.291  0.3412 -1.1138  0.9916
 5574SOL    HW322063   1.384   3.230   0.297 -0.4404  0.1862 -0.5651
 5574SOL    MW422064   1.448   3.267   0.251  0.1862  0.0953  0.2123
 5575SOL     OW22065   4.983   5.907   0.284 -0.1377  0.1199 -0.0412
 5575SOL    HW222066   5.034   5.950   0.353  0.8955 -1.5353  0.3082
 5575SOL    HW322067   4.966   5.975   0.220  0.2551  1.3355  1.1124
 5575SOL    MW422068   4.988   5.921   0.284  0.0504  0.0619  0.1571
 5576SOL     OW22069   2.370   2.147   3.465  0.0233  0.3179 -0.2356
 5576SOL    HW222070   2.410   2.227   3.501 -0.1432  0.2086  0.1979
 5576SOL    HW322071   2.415   2.076   3.511  0.7348  0.1252 -1.1913
 5576SOL    MW422072   2.381   2.148   3.476  0.0952  0.2781 -0.3045
 5577SOL     OW22073   5.731   4.894   4.025 -0.2842 -0.9941  0.3869
 5577SOL    HW222074   5.684   4.892   4.108 -0.7871  1.1900  0.2091
 5577SOL    HW322075   5.665   4.918   3.961  0.8376  1.3388  0.0060
 5577SOL    MW422076   5.716   4.897   4.028 -0.2026 -0.3982  0.3132
 5578SOL     OW22077   5.181   4.640   1.483 -0.0689  0.1167 -0.1109
 5578SOL    HW222078   5.088   4.615   1.481  0.0123 -0.2782  0.7379
 5578SOL    HW322079   5.217   4.591   1.557  0.9660 -0.2466 -0.8351
 5578SOL    MW422080   5.173   4.630   1.492  0.0783  0.0167 -0.0945
 5579SOL     OW22081   5.978   3.529   6.338 -0.2442  0.2205  0.5484
 5579SOL    HW222082   5.893   3.574   6.325 -0.2075 -0.1667 -1.3692
 5579SOL    HW322083   6.003   3.502   6.250  1.2018 -0.9422  1.2943
 5579SOL    MW422084   5.970   3.532   6.324 -0.0486  0.0160  0.3938
 5580SOL     OW22085   0.936   3.735   2.154 -0.0970  0.2613  0.1556
 5580SOL    HW222086   0.966   3.721   2.064 -0.0439 -2.0644  0.4600
 5580SOL    HW322087   0.858   3.789   2.145  1.2895  2.1900 -1.0464
 5580SOL    MW422088   0.930   3.740   2.141  0.0930  0.2089  0.0372
 5581SOL     OW22089   1.796   6.423   4.946  0.0031 -0.0273  0.6860
 5581SOL    HW222090   1.737   6.412   4.872 -0.4945 -0.8522  1.1812
 5581SOL    HW322091   1.859   6.351   4.938  0.9776  0.8728  0.1398
 5581SOL    MW422092   1.797   6.412   4.935  0.0660 -0.0174  0.6793
 5582SOL     OW22093   1.630   4.576   3.892 -0.0541 -0.1155 -0.4486
 5582SOL    HW222094   1.719   4.595   3.920  0.1513  0.3290 -1.3473
 5582SOL    HW322095   1.577   4.581   3.972  0.7261 -0.3896  0.0899
 5582SOL    MW422096   1.635   4.579   3.906  0.0760 -0.0930 -0.4961
 5583SOL     OW22097   3.719   0.367   2.989 -0.1946 -0.4269 -0.1849
 5583SOL    HW222098   3.764   0.441   3.030  1.0087 -0.4613 -1.3987
 5583SOL    HW322099   3.632   0.367   3.029  1.3973 -1.5642  3.7386
 5583SOL    MW422100   3.713   0.377   3.000  0.1742 -0.5815  0.1726
 5584SOL     OW22101   3.626   0.702   0.924  0.3315 -0.0814 -0.7815
 5584SOL    HW222102   3.673   0.774   0.882  0.8281 -0.4312 -0.8360
 5584SOL    HW322103   3.617   0.636   0.854  2.3219 -1.2259 -0.0409
 5584SOL    MW422104   3.631   0.703   0.909  0.6596 -0.2786 -0.6909
 5585SOL     OW22105   3.937   2.889   0.677  0.2881 -0.0444 -0.1125
 5585SOL    HW222106   3.956   2.805   0.718 -1.4064  0.0747  1.0430
 5585SOL    HW322107   3.856   2.919   0.720  0.3310  1.7296 -1.1529
 5585SOL    MW422108   3.929   2.882   0.688  0.0702  0.2054 -0.0973
 5586SOL     OW22109   0.866   2.869   2.579  0.2916 -0.0669  0.3694
 5586SOL    HW222110   0.771   2.881   2.569  0.5152  1.7702  0.1685
 5586SOL    HW322111   0.879   2.775   2.566 -1.4878 -0.3461  0.3119
 5586SOL    MW422112   0.855   2.858   2.576  0.0863  0.1387  0.3353
 5587SOL     OW22113   6.213   2.417   2.202  0.5233  0.1974  0.1798
 5587SOL    HW222114   6.212   2.322   2.218 -0.5629  0.4733  1.9808
 5587SOL    HW322115   6.185   2.456   2.285  0.2549  2.0866 -0.7467
 5587SOL    MW422116   6.209   2.409   2.215  0.3446  0.4831  0.2951
 5588SOL     OW22117   4.774   5.630   4.595 -0.1411 -0.4000 -0.1753
 5588SOL    HW222118   4.793   5.661   4.506 -1.3180  0.7368 -0.0653
 5588SOL    HW322119   4.830   5.682   4.652  1.5573 -2.0078 -0.2899
 5588SOL    MW422120   4.784   5.641   4.591 -0.0723 -0.4622 -0.1759
 5589SOL     OW22121   1.648   5.999   3.871  0.0242 -0.7529  0.2852
 5589SOL    HW222122   1.731   5.953   3.880 -0.0740 -1.2245 -1.0850
 5589SOL    HW322123   1.582   5.929   3.872 -0.0985 -0.7747 -2.2960
 5589SOL    MW422124   1.650   5.984   3.872 -0.0049 -0.8180 -0.2361
 5590SOL     OW22125   1.503   2.738   4.226  0.3274 -0.0622 -0.0762
 5590SOL    HW222126   1.579   2.712   4.279 -0.9050  0.5235  2.0925
 5590SOL    HW322127   1.517   2.831   4.208 -0.0029  0.1154  0.5689
 5590SOL    MW422128   1.515   2.747   4.231  0.1212  0.0385  0.2951
 5591SOL     OW22129   2.846   0.319   3.099 -0.0849 -0.2723 -0.2735
 5591SOL    HW222130   2.818   0.256   3.166 -0.6981 -2.9393 -2.7809
 5591SOL    HW322131   2.767   0.370   3.079 -0.2005 -0.2426  0.2648
 5591SOL    MW422132   2.832   0.317   3.105 -0.1810 -0.6203 -0.5333
 5592SOL     OW22133   5.180   1.232   5.726  0.3111 -0.2032  0.1846
 5592SOL    HW222134   5.172   1.220   5.821 -0.1754 -0.2463  0.1403
 5592SOL    HW322135   5.243   1.166   5.698  0.0846 -0.5115  0.4053
 5592SOL    MW422136   5.187   1.222   5.735  0.2171 -0.2496  0.2079
 5593SOL     OW22137   0.366   2.406   4.589  0.1851 -0.1964  0.6201
 5593SOL    HW222138   0.349   2.500   4.583 -0.8386 -0.1922  2.6175
 5593SOL    HW322139   0.459   2.400   4.608  0.3342  0.3911  0.1166
 5593SOL    MW422140   0.376   2.418   4.591  0.0697 -0.1183  0.8172
 5594SOL     OW22141   0.601   1.606   2.790  0.0682 -0.7177  0.1078
 5594SOL    HW222142   0.623   1.514   2.809 -1.5177 -1.4594 -1.3672
 5594SOL    HW322143   0.637   1.622   2.703 -0.4179 -0.2055 -0.0027
 5594SOL    MW422144   0.609   1.596   2.781 -0.2051 -0.7480 -0.1014
 5595SOL     OW22145   6.188   6.272   4.098  0.0717 -0.2688 -0.3045
 5595SOL    HW222146   6.275   6.269   4.060 -0.1356  0.3267 -0.8446
 5595SOL    HW322147   6.144   6.195   4.063  0.9051 -1.5290  1.3153
 5595SOL    MW422148   6.194   6.262   4.088  0.1543 -0.3565 -0.1621
 5596SOL     OW22149   0.898   2.224   4.497  0.1724  0.6071  0.0019
 5596SOL    HW222150   0.844   2.207   4.575  0.1672 -0.9216 -0.3182
 5596SOL    HW322151   0.844   2.282   4.443 -3.2067 -4.1104 -2.3165
 5596SOL    MW422152   0.884   2.230   4.500 -0.2741 -0.2170 -0.3462
 5597SOL     OW22153   0.826   1.698   2.120 -0.0337 -0.9171 -0.0726
 5597SOL    HW222154   0.860   1.699   2.210 -0.7247 -1.0356  0.1907
 5597SOL    HW322155   0.840   1.787   2.088 -0.3590 -0.7024  0.3719
 5597SOL    MW422156   0.833   1.709   2.128 -0.1678 -0.9044  0.0208
 5598SOL     OW22157   3.326   1.425   4.659  0.0117  0.1458 -0.4034
 5598SOL    HW222158   3.363   1.451   4.575 -0.0550 -0.8411 -0.7535
 5598SOL    HW322159   3.358   1.491   4.721 -0.4542  1.2456 -1.2965
 5598SOL    MW422160   3.335   1.437   4.656 -0.0586  0.1607 -0.5674
 5599SOL     OW22161   1.284   5.084   4.142 -0.3535 -0.0379 -0.9641
 5599SOL    HW222162   1.309   5.052   4.228  1.4506  1.8154 -0.7454
 5599SOL    HW322163   1.191   5.107   4.152 -0.3590 -0.4942  0.2577
 5599SOL    MW422164   1.275   5.082   4.155 -0.1162  0.1465 -0.7741
 5600SOL     OW22165   0.868   1.697   5.900 -0.1468 -0.0364 -0.0712
 5600SOL    HW222166   0.822   1.652   5.830 -0.3207  0.5559 -0.3468
 5600SOL    HW322167   0.936   1.748   5.856 -0.5438  0.6932  0.1389
 5600SOL    MW422168   0.871   1.698   5.885 -0.2222  0.1380 -0.0798
 5601SOL     OW22169   2.243   4.758   2.897 -0.3222 -0.0411 -0.1638
 5601SOL    HW222170   2.326   4.712   2.913 -0.5681 -0.4125  0.0772
 5601SOL    HW322171   2.185   4.690   2.863 -0.1084  0.5293 -1.7446
 5601SOL    MW422172   2.247   4.743   2.895 -0.3264 -0.0148 -0.3406
 5602SOL     OW22173   4.942   4.757   5.383  0.4034  0.1414  0.1648
 5602SOL    HW222174   4.881   4.705   5.437  0.2436  0.1951  0.0364
 5602SOL    HW322175   4.905   4.845   5.384  1.3998  0.5820  1.5066
 5602SOL    MW422176   4.929   4.762   5.391  0.5138  0.2066  0.3249
 5603SOL     OW22177   6.199   0.450   5.203 -0.2521 -0.2643 -0.3603
 5603SOL    HW222178   6.212   0.367   5.158  1.7148 -0.7939  1.0466
 5603SOL    HW322179   6.130   0.432   5.268  2.3600 -1.9037  2.2135
 5603SOL    MW422180   6.191   0.436   5.206  0.3521 -0.5505  0.1649
 5604SOL     OW22181   1.952   3.542   1.337  0.0753  0.0009  0.2356
 5604SOL    HW222182   1.904   3.507   1.412 -0.7917  0.6964  0.0206
 5604SOL    HW322183   2.014   3.473   1.314  0.9255  0.0880  2.0881
 5604SOL    MW422184   1.954   3.528   1.344  0.0731  0.1042  0.4516
 5605SOL     OW22185   5.106   0.255   3.087  0.2761 -0.0766 -0.8243
 5605SOL    HW222186   5.172   0.226   3.024  1.8456 -0.5583  0.9427
 5605SOL    HW322187   5.142   0.335   3.124 -1.2999  1.0062 -1.4828
 5605SOL    MW422188   5.119   0.261   3.083  0.2753  0.0027 -0.6780
 5606SOL     OW22189   1.280   4.639   3.605 -0.2923  0.2864 -0.4487
 5606SOL    HW222190   1.327   4.556   3.617  0.6999  0.8087 -0.6393
 5606SOL    HW322191   1.279   4.679   3.692  0.5546  0.7480 -0.6339
 5606SOL    MW422192   1.286   4.633   3.618 -0.0496  0.4162 -0.4983
 5607SOL     OW22193   3.589   0.999   1.203 -0.4135 -0.1525 -0.4201
 5607SOL    HW222194   3.496   0.977   1.200 -0.3286 -0.5504 -0.2607
 5607SOL    HW322195   3.602   1.061   1.132 -1.1658  1.3124  0.6560
 5607SOL    MW422196   3.579   1.004   1.194 -0.5015 -0.0118 -0.2571
 5608SOL     OW22197   0.918   1.382   6.255 -0.1583 -0.3002  0.0501
 5608SOL    HW222198   0.867   1.405   6.333  0.1009  1.0749 -0.1553
 5608SOL    HW322199   0.886   1.442   6.188  1.5987  0.5020 -0.1221
 5608SOL    MW422200   0.907   1.393   6.257  0.1077 -0.0129  0.0003
 5609SOL     OW22201   5.954   6.270   5.210 -0.0737  0.2002 -0.8769
 5609SOL    HW222202   6.045   6.253   5.186  0.0341  1.2223 -1.2364
 5609SOL    HW322203   5.945   6.365   5.205 -0.7707  0.2475  0.5942
 5609SOL    MW422204   5.965   6.280   5.206 -0.1514  0.3413 -0.7302
 5610SOL     OW22205   3.557   0.245   6.391 -0.4535  0.2659  0.6749
 5610SOL    HW222206   3.611   0.315   6.428  2.5238 -0.6929 -1.3950
 5610SOL    HW322207   3.573   0.170   6.448 -0.4522  0.2787  0.6914
 5610SOL    MW422208   3.567   0.244   6.403 -0.0605  0.1411  0.4040
 5611SOL     OW22209   4.322   2.203   0.258  0.1433  0.3180  0.0989
 5611SOL    HW222210   4.334   2.271   0.325 -0.0282  0.1235  0.3286
 5611SOL    HW322211   4.397   2.146   0.268  1.3824  1.5675 -1.4256
 5611SOL    MW422212   4.333   2.205   0.268  0.2842  0.4572 -0.0719
 5612SOL     OW22213   1.309   2.151   5.994  0.0809  0.2356 -0.1992
 5612SOL    HW222214   1.282   2.077   6.048 -2.2347  0.7472 -0.5591
 5612SOL    HW322215   1.297   2.227   6.050  1.3358  0.4678 -0.2177
 5612SOL    MW422216   1.304   2.151   6.008 -0.0590  0.3337 -0.2491
 5613SOL     OW22217   0.470   4.510   5.529  0.2398  0.2277 -0.5567
 5613SOL    HW222218   0.421   4.592   5.535  1.0960  0.8140 -1.3314
 5613SOL    HW322219   0.465   4.472   5.617 -0.1459  1.1146 -0.1880
 5613SOL    MW422220   0.462   4.516   5.541  0.3018  0.4221 -0.6103
 5614SOL     OW22221   3.164   6.022   2.506  0.2092  0.1240 -0.5148
 5614SOL    HW222222   3.196   6.033   2.416  0.4904  1.3391 -0.2862
 5614SOL    HW322223   3.225   6.073   2.559  0.5070 -1.2162  0.4800
 5614SOL    MW422224   3.177   6.030   2.501  0.2856  0.1075 -0.3534
 5615SOL     OW22225   5.127   2.785   4.335  0.0092  0.2864 -0.2725
 5615SOL    HW222226   5.074   2.838   4.275 -1.0596  0.0562  0.4448
 5615SOL    HW322227   5.137   2.701   4.290  1.3209  0.9116 -1.2077
 5615SOL    MW422228   5.121   2.781   4.321  0.0412  0.3385 -0.3012
 5616SOL     OW22229   2.238   3.453   4.320  0.9502  0.2181  0.2069
 5616SOL    HW222230   2.331   3.434   4.307  0.8750 -1.9118  2.1677
 5616SOL    HW322231   2.233   3.549   4.322  2.8990  0.4050 -0.9638
 5616SOL    MW422232   2.249   3.463   4.319  1.1974 -0.0382  0.3111
 5617SOL     OW22233   4.485   4.828   3.321 -0.4314 -0.0332  0.1015
 5617SOL    HW222234   4.518   4.817   3.410 -0.7765  1.2819  0.4136
 5617SOL    HW322235   4.391   4.812   3.328 -0.4140 -0.2313 -0.0976
 5617SOL    MW422236   4.477   4.824   3.334 -0.4746  0.1142  0.1164
 5618SOL     OW22237   0.645   2.171   1.576 -0.1603  0.0804 -0.4036
 5618SOL    HW222238   0.699   2.097   1.603  1.6478  1.5856  0.3328
 5618SOL    HW322239   0.556   2.146   1.602  0.5433 -1.3824  0.7798
 5618SOL    MW422240   0.640   2.158   1.583  0.1711  0.0860 -0.1503
 5619SOL     OW22241   4.425   3.835   5.520 -0.3740 -0.3977  0.0702
 5619SOL    HW222242   4.344   3.865   5.480 -1.2930 -1.3739  1.1387
 5619SOL    HW322243   4.400   3.805   5.607  1.1706 -0.5529  0.4997
 5619SOL    MW422244   4.411   3.835   5.526 -0.2914 -0.5470  0.2678
 5620SOL     OW22245   2.274   4.348   5.363  0.2891 -0.6277  0.5397
 5620SOL    HW222246   2.348   4.343   5.424 -0.6198 -1.0663  1.6325
 5620SOL    HW322247   2.282   4.434   5.323  0.4546 -0.0020  1.8697
 5620SOL    MW422248   2.285   4.359   5.366  0.1910 -0.6030  0.8593
 5621SOL     OW22249   6.081   5.090   1.074 -0.7542  0.0569  0.4303
 5621SOL    HW222250   6.102   5.030   1.002 -2.4482  0.8103 -0.7634
 5621SOL    HW322251   6.154   5.151   1.077 -0.6770  0.0390 -0.7034
 5621SOL    MW422252   6.093   5.090   1.065 -0.9675  0.1539  0.1232
 5622SOL     OW22253   5.641   1.552   3.505  0.3725 -0.4978 -0.2534
 5622SOL    HW222254   5.649   1.456   3.501  0.9034 -0.4497 -0.3665
 5622SOL    HW322255   5.629   1.571   3.598 -4.0300 -0.9944 -0.5064
 5622SOL    MW422256   5.640   1.542   3.516 -0.1383 -0.5570 -0.3017
 5623SOL     OW22257   5.917   4.378   2.482 -0.2786  0.2691  0.1642
 5623SOL    HW222258   5.862   4.434   2.427  0.4723  0.3786 -0.4861
 5623SOL    HW322259   5.987   4.348   2.424  0.4339  0.2526  1.0169
 5623SOL    MW422260   5.919   4.382   2.467 -0.0855  0.2814  0.1909
 5624SOL     OW22261   5.621   5.139   0.585 -0.2365 -0.0938 -0.4130
 5624SOL    HW222262   5.573   5.201   0.531 -0.7712  1.0206  1.2749
 5624SOL    HW322263   5.557   5.105   0.647  0.3264 -1.4542 -0.5326
 5624SOL    MW422264   5.606   5.142   0.586 -0.2328 -0.1263 -0.2061
 5625SOL     OW22265   6.121   3.219   5.058 -0.4088  0.4144  0.0449
 5625SOL    HW222266   6.210   3.231   5.027 -0.5419  1.6657  0.1081
 5625SOL    HW322267   6.075   3.181   4.983  0.4613 -1.5479  0.4479
 5625SOL    MW422268   6.126   3.215   5.044 -0.3116  0.3206  0.1064
 5626SOL     OW22269   2.733   1.204   3.777  0.0133  0.1031 -0.1767
 5626SOL    HW222270   2.679   1.126   3.772  0.7038 -0.3375 -0.9141
 5626SOL    HW322271   2.673   1.274   3.802 -1.3828  0.0926 -3.1218
 5626SOL    MW422272   2.718   1.203   3.780 -0.0798  0.0436 -0.6626
 5627SOL     OW22273   5.420   5.593   1.439  0.1720 -0.3611 -0.4257
 5627SOL    HW222274   5.354   5.616   1.374 -0.7955 -0.2072  0.5780
 5627SOL    HW322275   5.449   5.505   1.414 -1.8423 -1.2697  0.1904
 5627SOL    MW422276   5.415   5.585   1.427 -0.2214 -0.4607 -0.2120
 5628SOL     OW22277   1.144   1.094   4.919  0.5090 -0.1225 -0.3340
 5628SOL    HW222278   1.119   1.076   4.829 -0.2047 -0.1007 -0.1470
 5628SOL    HW322279   1.061   1.099   4.967  0.8323  0.7409  0.1652
 5628SOL    MW422280   1.129   1.092   4.914  0.4575 -0.0057 -0.2435
 5629SOL     OW22281   3.013   5.546   1.432 -0.2240  0.1198  0.2057
 5629SOL    HW222282   3.058   5.582   1.356  0.1160 -0.9696 -0.1407
 5629SOL    HW322283   3.007   5.452   1.413  0.3776 -0.2619  1.7794
 5629SOL    MW422284   3.018   5.538   1.420 -0.0998 -0.0743  0.3676
 5630SOL     OW22285   6.294   5.717   3.323 -0.2063  0.1896  0.3567
 5630SOL    HW222286   6.365   5.660   3.293  0.0015  1.2569 -1.2882
 5630SOL    HW322287   6.217   5.686   3.275 -0.2473  0.8074  0.0196
 5630SOL    MW422288   6.293   5.705   3.313 -0.1843  0.4119  0.0952
 5631SOL     OW22289   1.023   4.506   3.608 -0.1811 -0.7734  0.2603
 5631SOL    HW222290   1.046   4.430   3.554  0.2927 -0.6935  0.3527
 5631SOL    HW322291   1.102   4.559   3.610 -0.7843  0.1916 -0.5765
 5631SOL    MW422292   1.036   4.503   3.601 -0.1982 -0.6355  0.1621
 5632SOL     OW22293   4.825   5.229   0.802 -0.2743  0.7489 -0.5891
 5632SOL    HW222294   4.737   5.241   0.768 -0.0144  3.7235 -0.4584
 5632SOL    HW322295   4.825   5.273   0.886  1.1986  0.3088 -0.3251
 5632SOL    MW422296   4.814   5.236   0.808 -0.0457  1.0833 -0.5370
 5633SOL     OW22297   5.977   4.844   5.956  0.1724 -0.0863 -0.0440
 5633SOL    HW222298   5.961   4.894   5.876 -0.8241  0.6465  0.5779
 5633SOL    HW322299   5.987   4.753   5.927  2.4662  0.4827 -1.2536
 5633SOL    MW422300   5.976   4.839   5.942  0.3436  0.0854 -0.1216
 5634SOL     OW22301   2.485   3.067   0.447  0.0386 -0.6150  0.4046
 5634SOL    HW222302   2.420   3.080   0.516 -0.6562  1.3338 -0.5149
 5634SOL    HW322303   2.551   3.134   0.463 -0.3788  0.2013 -1.0251
 5634SOL    MW422304   2.485   3.078   0.458 -0.1081 -0.2502  0.0946
 5635SOL     OW22305   5.861   6.273   4.243  0.5537  0.3909 -0.0222
 5635SOL    HW222306   5.936   6.306   4.193 -0.1773 -0.9373 -2.1663
 5635SOL    HW322307   5.880   6.180   4.255  1.1519  0.8168  3.1877
 5635SOL    MW422308   5.873   6.265   4.238  0.5362  0.2719  0.1184
 5636SOL     OW22309   5.687   1.917   3.923  0.8626 -0.1439  0.2042
 5636SOL    HW222310   5.627   1.991   3.937  1.4376  0.2098  0.8999
 5636SOL    HW322311   5.650   1.846   3.975  1.6541  0.4269  1.6004
 5636SOL    MW422312   5.675   1.918   3.932  1.0429 -0.0219  0.4802
 5637SOL     OW22313   0.535   0.594   2.593 -0.1088  0.8608 -0.1777
 5637SOL    HW222314   0.580   0.511   2.579 -1.0682  0.1536  0.7643
 5637SOL    HW322315   0.551   0.644   2.513  1.3876  0.2065 -0.3206
 5637SOL    MW422316   0.543   0.590   2.581 -0.0379  0.6812 -0.0723
 5638SOL     OW22317   6.185   1.799   2.149 -0.0053 -0.3040  0.0104
 5638SOL    HW222318   6.171   1.769   2.060 -1.1357  1.0773 -0.3119
 5638SOL    HW322319   6.181   1.720   2.202 -1.2049 -0.9261 -0.9702
 5638SOL    MW422320   6.183   1.785   2.145 -0.3128 -0.2038 -0.1615
 5639SOL     OW22321   1.807   3.885   0.916  0.6924 -0.0113  0.0851
 5639SOL    HW222322   1.790   3.971   0.877  0.3570  0.1034  0.4806
 5639SOL    HW322323   1.902   3.884   0.928  0.9513 -0.4839 -1.7233
 5639SOL    MW422324   1.818   3.897   0.912  0.6823 -0.0585 -0.1013
 5640SOL     OW22325   1.525   1.174   5.889  0.4314 -0.1616  0.1881
 5640SOL    HW222326   1.465   1.154   5.961 -0.3049  0.1157 -0.3366
 5640SOL    HW322327   1.609   1.194   5.932  0.2198 -0.7904  0.9156
 5640SOL    MW422328   1.528   1.174   5.904  0.3064 -0.2079  0.2148
 5641SOL     OW22329   1.337   5.297   4.787  0.1713  0.0580 -0.3514
 5641SOL    HW222330   1.251   5.280   4.825 -0.4004 -1.1059 -2.0510
 5641SOL    HW322331   1.331   5.386   4.753  0.0869  0.4427  0.6295
 5641SOL    MW422332   1.325   5.306   4.788  0.0847 -0.0448 -0.4463
 5642SOL     OW22333   1.141   4.121   6.069 -0.0586  0.6628  0.5664
 5642SOL    HW222334   1.054   4.116   6.029  0.0831  1.4409  0.1298
 5642SOL    HW322335   1.198   4.150   5.998  0.6034 -0.0600  0.7920
 5642SOL    MW422336   1.137   4.124   6.054  0.0475  0.6701  0.5386
 5643SOL     OW22337   2.874   0.172   1.580  0.0917 -0.2329  0.3574
 5643SOL    HW222338   2.931   0.211   1.646 -0.0560  0.3667  0.1365
 5643SOL    HW322339   2.918   0.188   1.497 -0.1952 -0.1279  0.2218
 5643SOL    MW422340   2.887   0.179   1.578  0.0343 -0.1399  0.3104
 5644SOL     OW22341   2.210   1.068   0.385 -0.1431 -0.2718  0.3680
 5644SOL    HW222342   2.176   1.140   0.331 -2.2970 -0.2749  1.5858
 5644SOL    HW322343   2.179   1.089   0.473  1.2440 -1.4989  1.1900
 5644SOL    MW422344   2.201   1.080   0.389 -0.2443 -0.4341  0.6371
 5645SOL     OW22345   1.483   4.804   0.134 -0.2309  0.4747  0.0631
 5645SOL    HW222346   1.570   4.827   0.167 -0.2343 -1.8759  1.9189
 5645SOL    HW322347   1.429   4.880   0.156  0.9724  1.2603  0.4443
 5645SOL    MW422348   1.487   4.817   0.141 -0.0726  0.2682  0.3583
 5646SOL     OW22349   5.533   1.425   3.805  0.0645  0.3912 -0.0596
 5646SOL    HW222350   5.486   1.351   3.843 -1.3369  0.8856 -0.7617
 5646SOL    HW322351   5.616   1.429   3.853 -0.7935 -0.2351  1.5314
 5646SOL    MW422352   5.538   1.416   3.816 -0.2336  0.3738  0.0577
 5647SOL     OW22353   4.731   1.281   2.709  0.5737  0.0560 -0.4609
 5647SOL    HW222354   4.774   1.227   2.643  0.5047  0.3989 -0.7920
 5647SOL    HW322355   4.642   1.291   2.677  0.5779  0.3404 -0.3846
 5647SOL    MW422356   4.725   1.275   2.696  0.5652  0.1388 -0.4945
 5648SOL     OW22357   4.069   5.686   2.771  0.0533  0.1722 -0.2526
 5648SOL    HW222358   4.016   5.757   2.808  1.4358  1.1314 -0.0065
 5648SOL    HW322359   4.010   5.612   2.764 -1.1653  1.0427  0.5104
 5648SOL    MW422360   4.055   5.686   2.775  0.0749  0.4136 -0.1194
 5649SOL     OW22361   4.752   2.671   2.717 -0.1527 -0.1371 -0.0015
 5649SOL    HW222362   4.811   2.617   2.663 -0.6625 -0.7794  0.0733
 5649SOL    HW322363   4.805   2.695   2.793  0.2666 -0.0373 -0.3192
 5649SOL    MW422364   4.767   2.667   2.720 -0.1647 -0.2087 -0.0336
 5650SOL     OW22365   0.918   4.882   4.869  0.2851  0.1994  0.3267
 5650SOL    HW222366   0.983   4.895   4.938  0.4359  1.2159  0.0207
 5650SOL    HW322367   0.843   4.934   4.897  0.9404  1.9926 -1.0125
 5650SOL    MW422368   0.917   4.891   4.882  0.3915  0.5701  0.1096
 5651SOL     OW22369   0.605   6.315   1.322  0.2068  0.3233 -0.5071
 5651SOL    HW222370   0.628   6.247   1.386  0.4921  0.2876 -0.6463
 5651SOL    HW322371   0.513   6.335   1.340  0.1478 -0.0366 -0.4089
 5651SOL    MW422372   0.596   6.309   1.333  0.2366  0.2711 -0.5125
 5652SOL     OW22373   6.310   0.504   4.224  0.7644 -0.5493 -0.3005
 5652SOL    HW222374   6.397   0.464   4.214 -0.0683 -3.0095  1.4375
 5652SOL    HW322375   6.306   0.529   4.316 -0.4633 -0.6966 -0.3023
 5652SOL    MW422376   6.321   0.502   4.235  0.4926 -0.8933 -0.0714
 5653SOL     OW22377   1.645   5.106   0.324 -0.5445  0.6254 -0.0905
 5653SOL    HW222378   1.596   5.173   0.275  0.3034  0.2086 -1.5805
 5653SOL    HW322379   1.734   5.142   0.331 -0.9469  1.3104  2.4494
 5653SOL    MW422380   1.651   5.120   0.318 -0.4857  0.6608  0.0480
 5654SOL     OW22381   6.275   2.057   6.109 -0.0924 -0.4779 -0.3115
 5654SOL    HW222382   6.274   1.973   6.155  1.4265 -0.2926  0.1238
 5654SOL    HW322383   6.193   2.099   6.135 -1.2351 -2.0868 -1.1050
 5654SOL    MW422384   6.264   2.051   6.119 -0.0428 -0.6657 -0.3588
 5655SOL     OW22385   1.941   3.521   2.697 -0.0434  0.1291  0.4657
 5655SOL    HW222386   2.006   3.505   2.765 -1.7377 -0.8920  1.9502
 5655SOL    HW322387   1.869   3.565   2.743 -0.9171  0.1162 -0.8368
 5655SOL    MW422388   1.940   3.524   2.712 -0.3822 -0.0073  0.4897
 5656SOL     OW22389   2.389   4.590   5.252  0.9053 -0.2831 -0.1017
 5656SOL    HW222390   2.339   4.670   5.237  2.2016  0.5263 -0.2370
 5656SOL    HW322391   2.420   4.597   5.342 -1.7820 -2.2767  1.1259
 5656SOL    MW422392   2.386   4.601   5.262  0.7218 -0.4394  0.0424
 5657SOL     OW22393   1.554   2.011   3.703  0.7950  0.4494 -0.3791
 5657SOL    HW222394   1.567   1.959   3.782 -1.4787 -1.0961 -0.9282
 5657SOL    HW322395   1.585   1.954   3.632 -2.1079 -0.4576 -1.0262
 5657SOL    MW422396   1.560   1.997   3.704  0.1120  0.1258 -0.5369
 5658SOL     OW22397   2.183   3.987   3.946 -0.5910  0.4684  0.0565
 5658SOL    HW222398   2.124   3.954   4.014  0.2492 -3.4404 -0.8633
 5658SOL    HW322399   2.271   3.974   3.981 -0.1788  0.5294 -0.9190
 5658SOL    MW422400   2.186   3.981   3.960 -0.4258 -0.0393 -0.1936
 5659SOL     OW22401   3.983   1.788   3.937 -0.1378  0.8519  0.1804
 5659SOL    HW222402   3.918   1.837   3.887  0.3703  1.8037  0.4186
 5659SOL    HW322403   4.043   1.753   3.872 -0.4486  0.6276  0.0135
 5659SOL    MW422404   3.982   1.790   3.922 -0.1118  0.9479  0.1898
 5660SOL     OW22405   3.544   1.720   5.385 -0.0877  0.6036  0.0563
 5660SOL    HW222406   3.638   1.718   5.404 -0.4198  1.3860  2.0727
 5660SOL    HW322407   3.510   1.638   5.421 -0.4515  1.2365  1.2078
 5660SOL    MW422408   3.552   1.709   5.392 -0.1795  0.7904  0.4742
 5661SOL     OW22409   5.984   0.416   0.130 -0.0919 -0.2016  0.2544
 5661SOL    HW222410   6.056   0.446   0.186 -0.0043 -1.9462  1.1595
 5661SOL    HW322411   6.028   0.372   0.057 -0.1905 -1.2776  0.8131
 5661SOL    MW422412   6.000   0.414   0.128 -0.0934 -0.5737  0.4475
 5662SOL     OW22413   6.296   4.874   2.179 -0.3090 -0.6202 -0.1334
 5662SOL    HW222414   6.388   4.903   2.175 -0.0868 -1.2921  0.0150
 5662SOL    HW322415   6.257   4.930   2.246 -0.1499  0.0425 -0.5825
 5662SOL    MW422416   6.303   4.885   2.187 -0.2587 -0.6214 -0.1731
 5663SOL     OW22417   5.032   0.942   2.780  0.4547  0.4504  0.0241
 5663SOL    HW222418   5.072   1.014   2.731 -0.0699 -0.1283 -1.3133
 5663SOL    HW322419   4.960   0.912   2.724  1.2142 -1.6976  0.1019
 5663SOL    MW422420   5.027   0.948   2.766  0.4857  0.0906 -0.1421
 5664SOL     OW22421   3.196   1.369   3.069 -0.0114 -0.0687 -0.0926
 5664SOL    HW222422   3.270   1.352   3.128 -0.2480  0.9423  0.5147
 5664SOL    HW322423   3.216   1.317   2.991  0.0246 -1.9042  1.0648
 5664SOL    MW422424   3.209   1.360   3.066 -0.0378 -0.1775  0.1402
 5665SOL     OW22425   2.528   3.469   5.945 -0.1832 -0.2858  0.0581
 5665SOL    HW222426   2.463   3.400   5.935 -1.3696  0.4260  2.2970
 5665SOL    HW322427   2.552   3.467   6.038  2.5965 -0.1414 -0.5754
 5665SOL    MW422428   2.523   3.460   5.956  0.0270 -0.1729  0.2699
 5666SOL     OW22429   1.946   2.244   1.600 -0.3946  0.8679  0.3158
 5666SOL    HW222430   1.931   2.149   1.604 -1.0879  0.7308 -3.0023
 5666SOL    HW322431   2.026   2.254   1.549  0.1859  2.1172  1.3980
 5666SOL    MW422432   1.954   2.233   1.594 -0.4094  1.0146  0.0208
 5667SOL     OW22433   0.331   2.195   4.782 -0.4637  0.1062  0.1112
 5667SOL    HW222434   0.384   2.123   4.749 -2.2934 -0.9948 -0.5716
 5667SOL    HW322435   0.356   2.270   4.729 -0.2856 -0.6277 -0.8608
 5667SOL    MW422436   0.341   2.196   4.771 -0.6816 -0.1359 -0.1071
 5668SOL     OW22437   3.584   1.873   4.218  0.1721 -0.0422 -0.1286
 5668SOL    HW222438   3.586   1.910   4.129 -2.4313 -1.0661 -0.7077
 5668SOL    HW322439   3.497   1.836   4.226  0.5070 -0.4097  2.7385
 5668SOL    MW422440   3.573   1.873   4.207 -0.1272 -0.2258  0.1732
 5669SOL     OW22441   1.425   0.945   2.232  0.0030 -0.7047  0.0775
 5669SOL    HW222442   1.364   1.012   2.203  1.3606  0.1332 -0.9652
 5669SOL    HW322443   1.408   0.936   2.326 -2.3262 -1.1918 -0.3214
 5669SOL    MW422444   1.415   0.953   2.241 -0.1252 -0.6584 -0.1127
 5670SOL     OW22445   1.178   4.906   3.713  0.6044  0.6029  0.3907
 5670SOL    HW222446   1.254   4.915   3.770  1.1787  3.3990 -0.6402
 5670SOL    HW322447   1.104   4.935   3.766  0.8299  1.2483  0.3661
 5670SOL    MW422448   1.178   4.911   3.728  0.7100  1.0570  0.2514
 5671SOL     OW22449   5.094   0.245   0.621 -0.0453  0.2483 -0.2308
 5671SOL    HW222450   5.019   0.252   0.562 -1.4949  1.7220  1.6623
 5671SOL    HW322451   5.146   0.323   0.602  0.2420 -0.0071 -0.5092
 5671SOL    MW422452   5.091   0.256   0.610 -0.1987  0.4091 -0.0178
 5672SOL     OW22453   5.855   4.200   1.617 -0.2228 -0.3500  0.1729
 5672SOL    HW222454   5.871   4.279   1.669 -1.2986 -0.3176  0.4725
 5672SOL    HW322455   5.851   4.231   1.526  1.0246 -0.3172  0.1094
 5672SOL    MW422456   5.857   4.214   1.612 -0.2001 -0.3414  0.2041
 5673SOL     OW22457   1.673   1.024   1.855 -0.2383  0.9728 -0.1631
 5673SOL    HW222458   1.715   1.011   1.940  0.8731 -0.1370 -0.8601
 5673SOL    HW322459   1.715   0.961   1.797 -3.4439 -0.9038 -0.7241
 5673SOL    MW422460   1.684   1.014   1.859 -0.5146  0.5788 -0.3291
 5674SOL     OW22461   5.808   6.143   1.500 -0.0578  0.5847 -0.2975
 5674SOL    HW222462   5.758   6.065   1.524  0.0710 -0.2128 -2.4187
 5674SOL    HW322463   5.898   6.112   1.488 -0.0708  0.9759 -1.4919
 5674SOL    MW422464   5.813   6.129   1.502 -0.0425  0.5311 -0.7349
 5675SOL     OW22465   3.928   2.779   4.755  0.0530 -0.3562  0.1390
 5675SOL    HW222466   3.846   2.796   4.708  0.0309  0.1083  0.3334
 5675SOL    HW322467   3.976   2.719   4.700 -1.5674 -2.8185  1.2294
 5675SOL    MW422468   3.923   2.774   4.742 -0.1637 -0.6198  0.3085
 5676SOL     OW22469   4.105   5.931   3.345 -0.4791 -0.5991 -0.3699
 5676SOL    HW222470   4.054   5.985   3.406  0.6198  0.8094 -0.6309
 5676SOL    HW322471   4.163   5.880   3.401  0.5168  0.6795 -0.1793
 5676SOL    MW422472   4.106   5.932   3.361 -0.2027 -0.2446 -0.3792
 5677SOL     OW22473   0.976   5.122   0.238  0.1930  0.4943  0.5168
 5677SOL    HW222474   0.935   5.035   0.241  0.6637  0.3053  2.4255
 5677SOL    HW322475   1.018   5.132   0.323  0.8497  2.2771  0.0252
 5677SOL    MW422476   0.976   5.112   0.249  0.3417  0.7046  0.7038
 5678SOL     OW22477   6.353   5.129   5.020  0.0180 -0.1051  0.2080
 5678SOL    HW222478   6.443   5.162   5.017 -0.3277  0.8224 -1.0938
 5678SOL    HW322479   6.328   5.136   5.112  0.6555  1.4112  0.2953
 5678SOL    MW422480   6.362   5.134   5.032  0.0565  0.2173  0.0478
 5679SOL     OW22481   4.521   5.773   0.132  0.1378  0.1834 -0.4764
 5679SOL    HW222482   4.529   5.702   0.069 -0.6833 -1.2735  1.0011
 5679SOL    HW322483   4.452   5.829   0.097  0.7167  0.2388 -1.5921
 5679SOL    MW422484   4.513   5.771   0.119  0.1058 -0.0015 -0.4286
 5680SOL     OW22485   3.640   4.509   1.704 -0.2183  0.9240  0.5771
 5680SOL    HW222486   3.574   4.578   1.700 -1.3163 -0.1305 -0.3482
 5680SOL    HW322487   3.599   4.434   1.661  1.6033  0.2392 -0.0895
 5680SOL    MW422488   3.626   4.508   1.698 -0.1228  0.6945  0.3670
 5681SOL     OW22489   2.877   5.195   2.549 -0.3981  0.0927  0.6304
 5681SOL    HW222490   2.919   5.252   2.613  0.1514  1.0570 -0.5395
 5681SOL    HW322491   2.937   5.121   2.540 -0.8242 -0.4042  1.7217
 5681SOL    MW422492   2.891   5.193   2.556 -0.3818  0.1543  0.6201
 5682SOL     OW22493   2.829   5.819   1.075  0.4116 -0.4366 -0.0904
 5682SOL    HW222494   2.905   5.802   1.131 -1.6969  0.6278  3.3653
 5682SOL    HW322495   2.810   5.912   1.088  0.3154  0.1304 -3.4472
 5682SOL    MW422496   2.837   5.829   1.084  0.1207 -0.2214 -0.0774
 5683SOL     OW22497   4.825   5.178   0.108 -0.1684  0.5119 -0.5698
 5683SOL    HW222498   4.875   5.250   0.069  0.2966  0.0624 -0.8178
 5683SOL    HW322499   4.829   5.108   0.043 -0.7579  0.3187 -0.4003
 5683SOL    MW422500   4.832   5.178   0.094 -0.1849  0.4271 -0.5802
 5684SOL     OW22501   1.734   1.286   1.138 -0.2228  0.0502  0.3420
 5684SOL    HW222502   1.801   1.329   1.085 -1.4599  0.0679 -1.2879
 5684SOL    HW322503   1.657   1.342   1.128 -1.1946 -1.2955  0.0968
 5684SOL    MW422504   1.733   1.299   1.130 -0.5142 -0.1250  0.0946
 5685SOL     OW22505   2.555   5.018   6.259  0.2617  0.1599 -0.0954
 5685SOL    HW222506   2.497   5.093   6.240  0.7812  0.3922 -0.8057
 5685SOL    HW322507   2.566   4.975   6.174  2.6159  1.1986 -0.4027
 5685SOL    MW422508   2.549   5.022   6.245  0.6408  0.3276 -0.2296
 5686SOL     OW22509   4.453   0.979   4.905  0.5155  0.1155  0.0911
 5686SOL    HW222510   4.493   0.924   4.838 -0.9271  1.0858 -1.6219
 5686SOL    HW322511   4.372   0.934   4.928 -0.0111  0.8187 -0.3505
 5686SOL    MW422512   4.448   0.966   4.899  0.2557  0.3363 -0.1931
 5687SOL     OW22513   0.042   0.735   4.100 -0.2231 -0.6645 -0.4305
 5687SOL    HW222514   0.108   0.678   4.060  0.7213 -0.5318  0.8848
 5687SOL    HW322515  -0.018   0.675   4.145  0.2730 -0.6787  0.2216
 5687SOL    MW422516   0.043   0.719   4.101 -0.0331 -0.6488 -0.1709
 5688SOL     OW22517   1.043   4.229   5.239 -0.1700  0.3047 -0.2651
 5688SOL    HW222518   1.039   4.142   5.279 -1.0508  1.1058  1.4911
 5688SOL    HW322519   0.952   4.259   5.237  0.0643  0.9792 -1.3380
 5688SOL    MW422520   1.031   4.221   5.244 -0.2553  0.4994 -0.1750
 5689SOL     OW22521   0.134   0.596   5.191 -0.8165  0.1103 -0.8595
 5689SOL    HW222522   0.060   0.551   5.151 -1.0298 -0.0657 -0.2792
 5689SOL    HW322523   0.095   0.646   5.262 -0.3525 -0.1441 -0.4218
 5689SOL    MW422524   0.119   0.597   5.195 -0.7834  0.0535 -0.7252
 5690SOL     OW22525   4.678   3.874   4.933 -0.4660 -0.1692 -0.7834
 5690SOL    HW222526   4.714   3.889   4.846 -1.8115 -1.2055 -1.5441
 5690SOL    HW322527   4.592   3.915   4.931  0.5504  2.3537  1.0505
 5690SOL    MW422528   4.671   3.881   4.921 -0.5094  0.0270 -0.6418
 5691SOL     OW22529   1.693   5.238   3.465  0.3673  0.9160  0.6574
 5691SOL    HW222530   1.712   5.311   3.406  1.5732 -0.4246 -0.7011
 5691SOL    HW322531   1.769   5.233   3.523  1.1825 -0.3869 -0.4812
 5691SOL    MW422532   1.705   5.247   3.465  0.6340  0.5672  0.3279
 5692SOL     OW22533   6.210   0.511   1.329 -0.1063 -0.3239 -0.4082
 5692SOL    HW222534   6.268   0.436   1.315 -1.3583 -0.9507 -2.7675
 5692SOL    HW322535   6.263   0.587   1.305  0.6927 -0.5806  0.5005
 5692SOL    MW422536   6.224   0.511   1.324 -0.1661 -0.4405 -0.5996
 5693SOL     OW22537   2.469   6.174   0.393  0.1120  0.3701 -0.3257
 5693SOL    HW222538   2.547   6.146   0.346 -0.0681  0.8607 -0.9377
 5693SOL    HW322539   2.404   6.190   0.324 -1.2788 -2.1954  0.2595
 5693SOL    MW422540   2.470   6.173   0.378 -0.0953  0.0963 -0.3293
 5694SOL     OW22541   6.359   1.404   1.133 -0.2887  0.6906  0.0840
 5694SOL    HW222542   6.398   1.444   1.211  0.2992 -1.7489  1.1710
 5694SOL    HW322543   6.278   1.365   1.165 -0.8806  1.0610 -0.9342
 5694SOL    MW422544   6.353   1.404   1.148 -0.2892  0.4176  0.0931
 5695SOL     OW22545   2.618   5.837   2.582 -0.4178  0.2608  0.1482
 5695SOL    HW222546   2.626   5.895   2.658 -0.6720 -0.4936  0.7580
 5695SOL    HW322547   2.702   5.847   2.536 -0.2965  0.7925  0.4719
 5695SOL    MW422548   2.630   5.846   2.586 -0.4353  0.2314  0.2714
 5696SOL     OW22549   0.279   3.778   2.610 -0.1704 -0.1598  0.6083
 5696SOL    HW222550   0.322   3.824   2.538  0.8121  1.6359  2.2706
 5696SOL    HW322551   0.186   3.781   2.588 -0.0018  1.4397 -0.0222
 5696SOL    MW422552   0.272   3.784   2.597 -0.0185  0.2881  0.7444
 5697SOL     OW22553   3.077   1.440   3.889  0.0193  0.0385  0.1384
 5697SOL    HW222554   3.127   1.458   3.969 -0.6762 -1.4191  0.9307
 5697SOL    HW322555   2.991   1.479   3.905 -1.0342 -2.5714  1.2929
 5697SOL    MW422556   3.072   1.448   3.901 -0.2114 -0.4981  0.3952
 5698SOL     OW22557   4.706   1.909   5.653  0.1432  1.0115 -0.0767
 5698SOL    HW222558   4.699   1.902   5.749 -0.2894  1.7613 -0.0471
 5698SOL    HW322559   4.707   1.818   5.623 -2.6735  0.7279  0.4324
 5698SOL    MW422560   4.705   1.896   5.662 -0.2855  1.0730 -0.0056
 5699SOL     OW22561   5.457   1.934   2.080 -0.2921 -0.4058 -0.3475
 5699SOL    HW222562   5.501   2.013   2.112 -1.2056  0.3478 -0.9086
 5699SOL    HW322563   5.370   1.938   2.119 -1.3725  0.4356 -2.6532
 5699SOL    MW422564   5.451   1.945   2.090 -0.5552 -0.1954 -0.7257
 5700SOL     OW22565   5.461   2.628   4.843  0.2649  0.1054 -0.2679
 5700SOL    HW222566   5.479   2.719   4.820 -0.2576  0.5416  0.9629
 5700SOL    HW322567   5.415   2.633   4.927 -1.2809 -1.2074 -0.9875
 5700SOL    MW422568   5.458   2.640   4.851 -0.0079 -0.0103 -0.2004
 5701SOL     OW22569   3.018   6.294   5.390  0.1560 -0.6750 -0.1176
 5701SOL    HW222570   3.098   6.241   5.387 -1.0153 -2.5271 -1.5792
 5701SOL    HW322571   2.948   6.231   5.373 -1.5047  1.1152 -0.2280
 5701SOL    MW422572   3.019   6.278   5.387 -0.2176 -0.6832 -0.3250
 5702SOL     OW22573   3.378   1.133   0.306  0.3181  0.3165 -0.0898
 5702SOL    HW222574   3.386   1.133   0.402  1.2050  3.8582 -0.0168
 5702SOL    HW322575   3.285   1.117   0.290  0.1003 -0.0689  1.3458
 5702SOL    MW422576   3.367   1.131   0.317  0.4064  0.7329  0.1093
 5703SOL     OW22577   1.297   5.912   4.920 -0.4711  0.3049 -0.0970
 5703SOL    HW222578   1.383   5.955   4.914  0.2875 -1.0460  0.5389
 5703SOL    HW322579   1.260   5.922   4.832  0.9463 -0.2652 -0.8035
 5703SOL    MW422580   1.304   5.919   4.907 -0.1840  0.0515 -0.1063
 5704SOL     OW22581   3.970   5.655   0.968  0.4516  0.1359  0.0866
 5704SOL    HW222582   4.015   5.727   0.923 -1.4824  0.8977 -0.7364
 5704SOL    HW322583   3.970   5.583   0.906  0.5913  0.1156  0.1105
 5704SOL    MW422584   3.976   5.655   0.954  0.2149  0.2338 -0.0188
 5705SOL     OW22585   1.399   1.011   0.841 -0.3949 -0.8736  0.0380
 5705SOL    HW222586   1.314   0.979   0.811  0.6217 -0.8329 -3.3322
 5705SOL    HW322587   1.390   1.107   0.842 -0.2847 -0.8494 -0.7615
 5705SOL    MW422588   1.386   1.020   0.837 -0.2462 -0.8650 -0.5122
 5706SOL     OW22589   4.534   1.448   4.998 -0.8943  0.3212  0.7194
 5706SOL    HW222590   4.606   1.466   5.058  0.0211 -1.2371  0.1506
 5706SOL    HW322591   4.566   1.477   4.912  0.5615 -3.4090 -0.1916
 5706SOL    MW422592   4.548   1.454   4.994 -0.5815 -0.3765  0.5242
 5707SOL     OW22593   2.622   0.313   4.301  0.2803 -0.0583 -0.1618
 5707SOL    HW222594   2.557   0.262   4.252  0.4181  0.7975 -1.2956
 5707SOL    HW322595   2.632   0.267   4.384 -0.5639 -1.1190 -0.6260
 5707SOL    MW422596   2.614   0.300   4.306  0.1871 -0.0853 -0.3726
 5708SOL     OW22597   5.082   2.643   5.599  0.0045 -0.1201 -0.0269
 5708SOL    HW222598   4.992   2.647   5.631  0.0990  1.2984  0.1062
 5708SOL    HW322599   5.081   2.694   5.518  1.1132  1.7293  1.0631
 5708SOL    MW422600   5.070   2.650   5.593  0.1633  0.3110  0.1345
 5709SOL     OW22601   3.920   1.425   4.298 -0.2299  0.4516 -0.5167
 5709SOL    HW222602   3.904   1.454   4.208  0.0957  0.3709 -0.6008
 5709SOL    HW322603   3.832   1.409   4.334 -0.4665  2.1566 -0.2610
 5709SOL    MW422604   3.906   1.427   4.291 -0.2182  0.6659 -0.4941
 5710SOL     OW22605   4.369   3.072   5.297  0.7697  0.3389  0.1372
 5710SOL    HW222606   4.361   3.022   5.216  0.6080 -1.6530  1.3208
 5710SOL    HW322607   4.362   3.164   5.270  1.6315 -0.2252 -2.1862
 5710SOL    MW422608   4.367   3.078   5.283  0.8621  0.0017 -0.0132
 5711SOL     OW22609   1.147   5.836   3.686 -0.5721  0.2647 -0.3887
 5711SOL    HW222610   1.139   5.829   3.781 -1.3804 -1.3329 -0.5221
 5711SOL    HW322611   1.228   5.885   3.671 -0.6503  0.8927  1.1121
 5711SOL    MW422612   1.156   5.841   3.697 -0.6891  0.1367 -0.2083
 5712SOL     OW22613   2.492   0.095   5.700  0.3770 -0.2794 -0.3797
 5712SOL    HW222614   2.404   0.128   5.718  0.5518 -0.1541  0.2940
 5712SOL    HW322615   2.480   0.001   5.686  0.0723 -0.1809 -0.8072
 5712SOL    MW422616   2.479   0.087   5.701  0.3599 -0.2499 -0.3472
 5713SOL     OW22617   2.640   3.987   2.493  0.2020  0.3812 -0.6090
 5713SOL    HW222618   2.724   4.032   2.484 -1.0105  2.3834 -3.1010
 5713SOL    HW322619   2.643   3.916   2.430  0.6740 -0.7847  0.6656
 5713SOL    MW422620   2.651   3.984   2.484  0.1043  0.4916 -0.7696
 5714SOL     OW22621   2.845   3.694   4.483  0.1727  0.0633 -0.5862
 5714SOL    HW222622   2.871   3.617   4.433  0.5639 -0.8223  0.9210
 5714SOL    HW322623   2.839   3.764   4.417  1.4273 -0.8547 -1.7492
 5714SOL    MW422624   2.848   3.693   4.467  0.3898 -0.1747 -0.5408
 5715SOL     OW22625   5.387   6.057   4.515 -0.7736  0.0644  0.3679
 5715SOL    HW222626   5.409   6.133   4.570  0.1215  1.4722 -1.7713
 5715SOL    HW322627   5.294   6.068   4.496 -0.5151  1.0678 -0.4539
 5715SOL    MW422628   5.378   6.069   4.520 -0.6214  0.3825 -0.0228
 5716SOL     OW22629   1.612   6.276   5.754 -0.3099 -0.6553 -0.1932
 5716SOL    HW222630   1.708   6.271   5.755 -0.3371 -1.4737 -0.7399
 5716SOL    HW322631   1.584   6.189   5.726 -1.2432 -0.6931  0.7855
 5716SOL    MW422632   1.621   6.264   5.750 -0.4366 -0.7683 -0.1362
 5717SOL     OW22633   2.423   5.969   5.247  0.2418 -0.2858  0.0914
 5717SOL    HW222634   2.510   5.941   5.218  0.9714  1.1605  0.7309
 5717SOL    HW322635   2.376   5.990   5.166  0.5159 -1.0109 -0.2582
 5717SOL    MW422636   2.428   5.968   5.233  0.3742 -0.1906  0.1297
 5718SOL     OW22637   1.490   5.950   0.928 -0.0699 -0.0572  0.0759
 5718SOL    HW222638   1.512   5.883   0.864  0.5231  0.2210 -0.0137
 5718SOL    HW322639   1.479   5.903   1.010  1.4149 -0.1471  0.2487
 5718SOL    MW422640   1.491   5.935   0.930  0.2042 -0.0324  0.0869
 5719SOL     OW22641   5.109   2.266   0.422  0.1061  0.1236 -0.3388
 5719SOL    HW222642   5.200   2.245   0.444  0.0900 -0.5520 -0.8672
 5719SOL    HW322643   5.075   2.185   0.383 -1.4850 -0.4865  2.1405
 5719SOL    MW422644   5.117   2.252   0.419 -0.1059 -0.0461 -0.0814
 5720SOL     OW22645   2.165   0.095   0.439  0.1020  0.7189 -0.0995
 5720SOL    HW222646   2.203   0.070   0.524 -0.4442 -0.1504 -0.1045
 5720SOL    HW322647   2.216   0.172   0.413  0.5849  0.7276  0.7977
 5720SOL    MW422648   2.177   0.102   0.447  0.0937  0.6054  0.0182
 5721SOL     OW22649   4.773   3.243   0.415 -0.0650 -0.0789  0.1102
 5721SOL    HW222650   4.727   3.276   0.491 -0.9769 -0.3284 -0.3196
 5721SOL    HW322651   4.740   3.154   0.403 -1.2073  0.5153 -1.5401
 5721SOL    MW422652   4.763   3.236   0.423 -0.3360 -0.0334 -0.1642
 5722SOL     OW22653   3.993   3.411   2.635 -0.1916  0.0846 -0.1222
 5722SOL    HW222654   4.005   3.317   2.652  1.2664 -0.1439 -2.0188
 5722SOL    HW322655   3.940   3.414   2.556  1.2131  0.7776 -1.0819
 5722SOL    MW422656   3.988   3.399   2.627  0.1861  0.1459 -0.4990
 5723SOL     OW22657   2.237   2.837   0.493  0.2197 -0.6213 -0.3499
 5723SOL    HW222658   2.201   2.774   0.555 -1.0516 -0.4264 -0.8565
 5723SOL    HW322659   2.305   2.789   0.446 -1.0853 -1.7941 -1.0946
 5723SOL    MW422660   2.242   2.822   0.495 -0.1202 -0.7503 -0.5150
 5724SOL     OW22661   3.644   4.933   1.780 -0.4129  0.3445  0.1566
 5724SOL    HW222662   3.660   5.024   1.803  1.8902  0.0424 -0.0330
 5724SOL    HW322663   3.673   4.883   1.856  2.3483 -0.3870 -1.2612
 5724SOL    MW422664   3.650   4.938   1.793  0.2553  0.2082 -0.0555
 5725SOL     OW22665   1.755   3.640   5.047 -0.2311  0.2775  0.5524
 5725SOL    HW222666   1.737   3.586   4.970 -1.6784  0.3219  0.8434
 5725SOL    HW322667   1.717   3.725   5.027  4.0278  2.1445 -0.9088
 5725SOL    MW422668   1.748   3.644   5.034  0.1399  0.5297  0.3980
 5726SOL     OW22669   6.149   4.891   1.955 -0.4462 -0.2672  0.6366
 5726SOL    HW222670   6.227   4.840   1.935 -0.6989 -0.7536  0.8903
 5726SOL    HW322671   6.161   4.917   2.046  0.1499  0.9652  0.2305
 5726SOL    MW422672   6.161   4.888   1.964 -0.4009 -0.1688  0.6165
 5727SOL     OW22673   4.393   0.390   3.075 -0.2177 -0.6125  0.5641
 5727SOL    HW222674   4.336   0.319   3.105  0.8073 -0.6574  2.5907
 5727SOL    HW322675   4.481   0.353   3.079  0.2688  0.5393  1.0060
 5727SOL    MW422676   4.397   0.376   3.080 -0.0183 -0.4664  0.8898
 5728SOL     OW22677   2.674   0.970   1.899 -0.2051 -0.3286 -0.3027
 5728SOL    HW222678   2.635   0.928   1.822  0.7319 -1.6681 -0.0874
 5728SOL    HW322679   2.612   0.953   1.969 -0.7556  0.3473 -0.6110
 5728SOL    MW422680   2.661   0.962   1.898 -0.1541 -0.4161 -0.3150
 5729SOL     OW22681   5.690   5.006   5.148 -0.7977  0.2634  0.8050
 5729SOL    HW222682   5.707   4.953   5.226  1.0060 -0.1113  0.2171
 5729SOL    HW322683   5.749   5.081   5.157 -1.5912  0.9446  0.4686
 5729SOL    MW422684   5.700   5.009   5.159 -0.6644  0.3039  0.6830
 5730SOL     OW22685   6.309   5.001   5.810 -0.1850 -0.7021 -0.2397
 5730SOL    HW222686   6.267   5.083   5.836  1.3370 -0.0943  0.3929
 5730SOL    HW322687   6.318   5.007   5.715  2.0296  0.9735 -0.0041
 5730SOL    MW422688   6.305   5.013   5.801  0.3080 -0.4009 -0.1252
 5731SOL     OW22689   4.716   3.895   1.984  0.0037  0.2482 -1.0222
 5731SOL    HW222690   4.740   3.814   1.938 -0.7388 -0.3089 -0.4529
 5731SOL    HW322691   4.768   3.893   2.064 -0.8074 -0.2257 -0.4895
 5731SOL    MW422692   4.726   3.884   1.988 -0.2013  0.1122 -0.8768
 5732SOL     OW22693   6.146   4.804   2.616  0.3285 -0.3018 -0.2053
 5732SOL    HW222694   6.220   4.746   2.598 -0.0436 -1.1361  0.8317
 5732SOL    HW322695   6.151   4.822   2.710  0.1032  0.8887 -0.4124
 5732SOL    MW422696   6.156   4.799   2.626  0.2497 -0.2548 -0.0958
 5733SOL     OW22697   3.761   2.944   3.492 -0.0560 -0.0760 -0.3118
 5733SOL    HW222698   3.826   2.883   3.456 -1.0855 -0.7614 -1.0608
 5733SOL    HW322699   3.732   2.995   3.416  0.2541  0.8577  0.1797
 5733SOL    MW422700   3.766   2.943   3.477 -0.1509 -0.0432 -0.3458
 5734SOL     OW22701   5.644   3.709   2.274 -0.3299  0.0487 -0.4367
 5734SOL    HW222702   5.603   3.739   2.355  0.5937 -1.3642  0.5816
 5734SOL    HW322703   5.710   3.776   2.255  1.2265 -0.8898  1.4223
 5734SOL    MW422704   5.647   3.722   2.282 -0.0027 -0.2615 -0.0571
 5735SOL     OW22705   5.028   4.210   4.237 -0.1404 -0.3830 -0.1886
 5735SOL    HW222706   5.030   4.222   4.332 -2.1207  0.2170 -0.1791
 5735SOL    HW322707   5.096   4.268   4.203  0.3163 -0.3150  0.8270
 5735SOL    MW422708   5.038   4.219   4.245 -0.3414 -0.2949 -0.0533
 5736SOL     OW22709   2.030   3.375   4.872 -0.2156  0.1169 -0.4377
 5736SOL    HW222710   1.953   3.333   4.910 -0.3380  0.7542  0.0272
 5736SOL    HW322711   2.051   3.446   4.932  0.3038  0.4003 -0.9422
 5736SOL    MW422712   2.023   3.379   4.885 -0.1632  0.2384 -0.4430
 5737SOL     OW22713   2.084   2.368   3.844  0.1327  0.1050 -0.2262
 5737SOL    HW222714   2.017   2.306   3.872  0.5446  0.1462  0.9135
 5737SOL    HW322715   2.167   2.320   3.853  0.3292  0.3307 -0.7876
 5737SOL    MW422716   2.086   2.353   3.849  0.2129  0.1402 -0.1499
 5738SOL     OW22717   4.177   4.650   4.612  0.1917  0.0849  0.0336
 5738SOL    HW222718   4.186   4.562   4.648  0.2971 -0.2671 -0.8403
 5738SOL    HW322719   4.245   4.701   4.656 -1.0838  0.2357  2.0016
 5738SOL    MW422720   4.187   4.645   4.623  0.0373  0.0583  0.1780
 5739SOL     OW22721   3.159   5.646   2.029  0.0280  0.1626 -0.1184
 5739SOL    HW222722   3.169   5.734   1.994 -0.9768  0.4123  0.1728
 5739SOL    HW322723   3.070   5.644   2.065 -0.2227 -1.1836 -0.7260
 5739SOL    MW422724   3.148   5.657   2.029 -0.1377  0.0180 -0.1601
 5740SOL     OW22725   1.939   5.432   5.049 -0.1127 -0.3833 -0.1345
 5740SOL    HW222726   1.979   5.506   5.002  0.1246  0.7260  1.6838
 5740SOL    HW322727   1.921   5.367   4.982  2.5417  0.0532 -1.4113
 5740SOL    MW422728   1.942   5.433   5.034  0.2688 -0.1793 -0.0630
 5741SOL     OW22729   0.929   2.318   3.860 -0.5196 -0.0665 -0.0528
 5741SOL    HW222730   0.996   2.348   3.798 -1.4595  1.0158 -0.5754
 5741SOL    HW322731   0.946   2.224   3.870  1.0971  0.1921 -0.1381
 5741SOL    MW422732   0.940   2.309   3.853 -0.4303  0.1104 -0.1330
 5742SOL     OW22733   4.867   4.925   0.300  0.1987  0.0332  0.0186
 5742SOL    HW222734   4.849   5.013   0.333  1.2737  0.5356 -0.6636
 5742SOL    HW322735   4.955   4.906   0.332  1.1026  0.3605 -2.1109
 5742SOL    MW422736   4.876   4.934   0.309  0.4598  0.1426 -0.3523
 5743SOL     OW22737   6.043   3.722   5.445  0.0875  0.7884 -0.2496
 5743SOL    HW222738   5.994   3.679   5.515 -1.3138  0.8306 -1.1700
 5743SOL    HW322739   5.997   3.805   5.430 -0.0894  0.4436 -1.7218
 5743SOL    MW422740   6.030   3.728   5.452 -0.1207  0.7485 -0.5653
 5744SOL     OW22741   0.763   0.950   2.109 -0.5519  0.2065  0.0501
 5744SOL    HW222742   0.849   0.989   2.095 -0.6210 -0.0930 -1.3991
 5744SOL    HW322743   0.779   0.856   2.115 -0.6430  0.2475  1.1791
 5744SOL    MW422744   0.776   0.943   2.108 -0.5730  0.1724  0.0078
 5745SOL     OW22745   3.860   2.023   4.130  0.4333  0.3240  0.2397
 5745SOL    HW222746   3.871   1.949   4.189  2.6292 -0.1746 -0.6649
 5745SOL    HW322747   3.846   1.984   4.044  0.3569  0.9642 -0.0489
 5745SOL    MW422748   3.860   2.008   4.126  0.7129  0.3427  0.0822
 5746SOL     OW22749   0.315   1.654   2.787 -0.3212 -0.2158 -0.0873
 5746SOL    HW222750   0.404   1.626   2.764  0.0813  1.6190 -0.9819
 5746SOL    HW322751   0.271   1.574   2.817  1.1280 -1.4703 -1.1723
 5746SOL    MW422752   0.321   1.640   2.788 -0.0769 -0.1393 -0.3485
 5747SOL     OW22753   0.481   2.793   4.445 -0.1870 -0.0226 -0.5784
 5747SOL    HW222754   0.490   2.709   4.401  0.5082 -0.0436 -0.4100
 5747SOL    HW322755   0.428   2.775   4.523  1.6887 -0.7542  0.6007
 5747SOL    MW422756   0.475   2.780   4.450  0.1522 -0.1219 -0.4006
 5748SOL     OW22757   3.255   0.175   2.357  0.2007  0.3677 -0.3770
 5748SOL    HW222758   3.285   0.264   2.374  1.9550 -0.1564 -0.5851
 5748SOL    HW322759   3.275   0.159   2.265  1.0577 -0.6418 -0.0429
 5748SOL    MW422760   3.262   0.184   2.347  0.5452  0.1653 -0.3604
 5749SOL     OW22761   1.663   4.525   5.218 -0.5393 -0.1893  0.3540
 5749SOL    HW222762   1.691   4.616   5.204 -1.1777  0.0781  0.7693
 5749SOL    HW322763   1.691   4.479   5.139 -0.7443  0.4936 -0.1241
 5749SOL    MW422764   1.671   4.531   5.206 -0.6506 -0.0639  0.3457
 5750SOL     OW22765   0.172   5.145   4.503 -0.0176 -0.6997 -0.7340
 5750SOL    HW222766   0.250   5.133   4.450 -0.3565  2.2359 -2.0596
 5750SOL    HW322767   0.203   5.138   4.594  1.6470 -0.2401 -1.2465
 5750SOL    MW422768   0.186   5.142   4.508  0.1573 -0.2517 -0.9765
 5751SOL     OW22769   2.901   1.912   0.383 -0.1958 -0.4672  0.0371
 5751SOL    HW222770   2.810   1.889   0.402 -0.4431 -0.6011 -1.2259
 5751SOL    HW322771   2.896   2.001   0.348  0.1544 -0.4808 -0.0532
 5751SOL    MW422772   2.888   1.921   0.381 -0.1822 -0.4867 -0.1414
 5752SOL     OW22773   1.036   5.798   1.313  0.2923  0.2080  0.0069
 5752SOL    HW222774   0.963   5.842   1.357 -0.0386  0.5256 -0.8349
 5752SOL    HW322775   1.111   5.857   1.326  0.1769  0.3417  0.0681
 5752SOL    MW422776   1.036   5.811   1.321  0.2334  0.2675 -0.0961
 5753SOL     OW22777   2.808   0.980   0.773  0.3047  0.4245  0.1801
 5753SOL    HW222778   2.779   1.010   0.687  1.4014 -0.3358 -0.4873
 5753SOL    HW322779   2.767   0.895   0.784 -0.3205  0.7833  0.6967
 5753SOL    MW422780   2.799   0.973   0.763  0.3669  0.3715  0.1602
 5754SOL     OW22781   2.927   4.259   0.172  0.2466 -0.4736 -0.1705
 5754SOL    HW222782   2.913   4.165   0.181  1.5936 -0.5886  1.2730
 5754SOL    HW322783   2.892   4.297   0.253 -1.0852  0.3900 -1.1220
 5754SOL    MW422784   2.921   4.252   0.184  0.2486 -0.3748 -0.1056
 5755SOL     OW22785   3.797   3.446   0.964 -0.1015  0.2241 -0.7041
 5755SOL    HW222786   3.734   3.478   0.900 -0.9388 -2.5579 -1.4336
 5755SOL    HW322787   3.840   3.372   0.920  0.7635 -0.4873  1.2094
 5755SOL    MW422788   3.795   3.440   0.949 -0.0979 -0.2368 -0.5479
 5756SOL     OW22789   3.734   5.362   5.186  0.0341 -0.2494 -0.3797
 5756SOL    HW222790   3.806   5.402   5.234  0.9036 -1.6085 -0.4817
 5756SOL    HW322791   3.657   5.374   5.242  0.3353  1.1962 -0.2595
 5756SOL    MW422792   3.733   5.369   5.200  0.1886 -0.2380 -0.3773
 5757SOL     OW22793   0.966   3.283   0.853 -0.4768  0.0164 -0.7586
 5757SOL    HW222794   1.000   3.195   0.865 -0.3651 -0.0350 -1.4201
 5757SOL    HW322795   0.939   3.311   0.941  0.3303 -0.3297 -0.3962
 5757SOL    MW422796   0.967   3.275   0.866 -0.3555 -0.0361 -0.7981
 5758SOL     OW22797   4.636   5.944   2.532  0.8501  0.0691  0.0694
 5758SOL    HW222798   4.665   5.855   2.550 -0.0885 -0.6179 -1.6967
 5758SOL    HW322799   4.593   5.972   2.613  1.0748 -1.0890  0.6055
 5758SOL    MW422800   4.634   5.936   2.545  0.7559 -0.1743 -0.0929
 5759SOL     OW22801   4.567   5.308   0.047  0.1412 -0.4781 -0.2633
 5759SOL    HW222802   4.658   5.278   0.049  0.2553 -0.1725  1.6919
 5759SOL    HW322803   4.525   5.261   0.120 -0.9360  0.3372 -0.3343
 5759SOL    MW422804   4.573   5.297   0.057  0.0141 -0.3302 -0.0147
 5760SOL     OW22805   3.668   2.186   5.772  0.0077  0.5621 -0.5108
 5760SOL    HW222806   3.715   2.126   5.829 -1.0496  0.3208  0.1218
 5760SOL    HW322807   3.722   2.190   5.693  0.0244 -1.3522 -0.6516
 5760SOL    MW422808   3.681   2.179   5.769 -0.1296  0.2777 -0.4459
 5761SOL     OW22809   5.442   4.736   0.498 -0.5521  0.1835  0.3147
 5761SOL    HW222810   5.359   4.692   0.478 -0.8527  1.1531 -0.6276
 5761SOL    HW322811   5.470   4.774   0.415  0.2115  0.9257  0.8990
 5761SOL    MW422812   5.435   4.735   0.485 -0.4910  0.4094  0.2675
 5762SOL     OW22813   1.632   2.447   5.942  0.3658  0.3325  0.0976
 5762SOL    HW222814   1.697   2.377   5.942  1.7542  1.5731 -0.2625
 5762SOL    HW322815   1.615   2.464   6.035 -0.8783 -1.2343  0.1963
 5762SOL    MW422816   1.639   2.440   5.954  0.3848  0.2894  0.0631
 5763SOL     OW22817   3.401   5.766   1.212  0.1446 -0.5253 -0.0985
 5763SOL    HW222818   3.344   5.747   1.287 -1.3468 -2.8426 -1.7139
 5763SOL    HW322819   3.488   5.737   1.240  0.7533  2.9632  2.3657
 5763SOL    MW422820   3.405   5.760   1.226  0.0282 -0.3708  0.0135
 5764SOL     OW22821   1.786   4.663   1.313  0.5863  0.4183  0.1694
 5764SOL    HW222822   1.762   4.599   1.381 -0.5069 -1.0474 -1.5041
 5764SOL    HW322823   1.843   4.613   1.253 -1.1348  0.6462 -1.7412
 5764SOL    MW422824   1.791   4.648   1.314  0.2150  0.2550 -0.3035
 5765SOL     OW22825   2.087   2.446   0.163  0.3867 -0.1866  0.2766
 5765SOL    HW222826   2.043   2.376   0.116  1.5913 -0.1350 -0.9797
 5765SOL    HW322827   2.092   2.518   0.100 -0.0489  0.7269  1.2607
 5765SOL    MW422828   2.082   2.447   0.149  0.4881 -0.0592  0.2407
 5766SOL     OW22829   0.244   0.378   2.734 -0.2743  0.3098 -0.5714
 5766SOL    HW222830   0.192   0.300   2.715 -0.5326 -0.1469  1.6989
 5766SOL    HW322831   0.248   0.425   2.651 -1.9925 -1.0050 -1.4688
 5766SOL    MW422832   0.237   0.374   2.720 -0.5350  0.0761 -0.3903
 5767SOL     OW22833   3.326   6.424   5.075 -0.3755 -0.2258 -0.1592
 5767SOL    HW222834   3.266   6.360   5.038 -0.7418 -0.1748  0.3422
 5767SOL    HW322835   3.280   6.459   5.151  0.2442 -0.1170  0.1717
 5767SOL    MW422836   3.312   6.420   5.080 -0.3421 -0.2047 -0.0494
 5768SOL     OW22837   0.193   4.426   5.380 -0.0132 -0.0346  0.0784
 5768SOL    HW222838   0.135   4.377   5.438  1.0907 -0.5393  0.7986
 5768SOL    HW322839   0.275   4.432   5.429  1.0125 -0.6235 -1.4858
 5768SOL    MW422840   0.196   4.420   5.394  0.2677 -0.1789 -0.0330
 5769SOL     OW22841   1.566   4.498   2.599 -0.0009 -0.2869 -0.5738
 5769SOL    HW222842   1.524   4.412   2.587 -2.1122  0.4786  0.9114
 5769SOL    HW322843   1.495   4.561   2.589  0.7097  1.0789  2.2116
 5769SOL    MW422844   1.551   4.495   2.596 -0.1857 -0.0057 -0.0103
 5770SOL     OW22845   4.039   0.661   3.141 -0.0141  0.1485  0.3817
 5770SOL    HW222846   4.074   0.750   3.139 -1.1120  0.6335  1.5079
 5770SOL    HW322847   4.040   0.633   3.049  0.2415  1.3476 -0.0017
 5770SOL    MW422848   4.044   0.669   3.128 -0.1252  0.3707  0.4797
 5771SOL     OW22849   5.967   2.272   3.729  0.1506 -0.2207  0.0981
 5771SOL    HW222850   5.977   2.367   3.715  0.6118  0.0052  1.8046
 5771SOL    HW322851   6.031   2.232   3.671 -0.8708  0.4207 -1.5609
 5771SOL    MW422852   5.977   2.280   3.719  0.0767 -0.1062  0.1044
 5772SOL     OW22853   5.491   6.274   2.871 -0.2030  0.0826 -0.6459
 5772SOL    HW222854   5.583   6.292   2.891  0.2486 -0.4546 -2.1396
 5772SOL    HW322855   5.451   6.259   2.957  1.5225 -1.6239 -0.0649
 5772SOL    MW422856   5.498   6.275   2.885  0.0843 -0.2135 -0.7663
 5773SOL     OW22857   2.540   3.114   2.437 -0.0328  0.5836 -0.3701
 5773SOL    HW222858   2.556   3.088   2.346 -2.3409  0.0818 -0.6969
 5773SOL    HW322859   2.536   3.031   2.485 -0.6542  0.7277 -0.1659
 5773SOL    MW422860   2.541   3.099   2.432 -0.4193  0.5364 -0.3863
 5774SOL     OW22861   3.856   6.157   4.416  0.1086 -0.1021  0.8321
 5774SOL    HW222862   3.901   6.170   4.333 -1.2241  0.7909  0.2190
 5774SOL    HW322863   3.805   6.077   4.404 -1.5313  0.9831  0.0630
 5774SOL    MW422864   3.855   6.148   4.404 -0.2836  0.1589  0.6497
 5775SOL     OW22865   0.233   3.834   5.591 -1.0595  0.4508  0.0311
 5775SOL    HW222866   0.326   3.814   5.601 -0.8843 -0.9016 -2.9864
 5775SOL    HW322867   0.206   3.870   5.675  2.4692  2.1004  0.6261
 5775SOL    MW422868   0.241   3.836   5.603 -0.5708  0.4901 -0.2885
 5776SOL     OW22869   2.344   3.729   2.564 -0.0163  0.1713  0.0894
 5776SOL    HW222870   2.395   3.651   2.587  1.1990  0.6720 -0.8206
 5776SOL    HW322871   2.260   3.694   2.534  0.0174 -0.7052  0.9430
 5776SOL    MW422872   2.339   3.714   2.563  0.1485  0.1217  0.0820
 5777SOL     OW22873   1.204   0.959   5.929  0.5453 -0.4630  0.0469
 5777SOL    HW222874   1.215   0.874   5.886 -0.2949 -0.1379 -0.8425
 5777SOL    HW322875   1.133   1.001   5.881  0.3809  0.4053  1.0184
 5777SOL    MW422876   1.196   0.953   5.917  0.4127 -0.3055  0.0578
 5778SOL     OW22877   3.170   3.486   5.742 -0.4506 -0.2693 -0.7807
 5778SOL    HW222878   3.154   3.533   5.824  0.7355 -0.6308 -0.3081
 5778SOL    HW322879   3.187   3.555   5.678 -1.0242  0.0104 -0.6364
 5778SOL    MW422880   3.170   3.501   5.745 -0.3698 -0.2801 -0.6993
 5779SOL     OW22881   2.273   0.598   5.168  0.0128  0.3695 -0.2887
 5779SOL    HW222882   2.307   0.517   5.205 -1.4248 -0.4283 -0.6434
 5779SOL    HW322883   2.344   0.630   5.111  0.5236 -0.7245 -0.2816
 5779SOL    MW422884   2.287   0.592   5.165 -0.1095  0.1199 -0.3345
 5780SOL     OW22885   3.556   1.045   5.514 -0.2038  0.0174  0.8602
 5780SOL    HW222886   3.594   1.089   5.438  0.5782 -1.1526  0.5451
 5780SOL    HW322887   3.600   1.085   5.589  0.4764 -0.1862  0.5822
 5780SOL    MW422888   3.567   1.056   5.514 -0.0109 -0.1639  0.7820
 5781SOL     OW22889   3.860   6.326   3.057 -0.4216  0.4676 -0.0759
 5781SOL    HW222890   3.833   6.386   2.987 -0.7983 -0.1368 -0.4544
 5781SOL    HW322891   3.891   6.248   3.011  1.0701  0.7575  0.3752
 5781SOL    MW422892   3.861   6.324   3.042 -0.2745  0.4261 -0.0663
 5782SOL     OW22893   3.218   3.093   4.656  0.2401 -0.7478  0.8717
 5782SOL    HW222894   3.135   3.137   4.639 -0.3066 -1.9474  0.2873
 5782SOL    HW322895   3.197   3.000   4.650  1.7433 -1.0701  0.1053
 5782SOL    MW422896   3.204   3.087   4.653  0.3663 -0.9486  0.6935
 5783SOL     OW22897   0.888   4.044   0.773  0.0540  0.1811  0.2947
 5783SOL    HW222898   0.964   3.985   0.772  0.1632  0.3338 -0.3606
 5783SOL    HW322899   0.868   4.054   0.866  1.4660  0.9527  0.5399
 5783SOL    MW422900   0.895   4.037   0.785  0.2547  0.3030  0.2406
 5784SOL     OW22901   6.284   4.242   1.804 -0.5012  0.0491  0.3893
 5784SOL    HW222902   6.290   4.337   1.795 -3.4117  0.3178  0.5010
 5784SOL    HW322903   6.239   4.213   1.725  0.3603 -1.2831  0.3564
 5784SOL    MW422904   6.279   4.251   1.793 -0.7715 -0.0913  0.3997
 5785SOL     OW22905   6.336   5.200   2.220 -0.0771  0.1221  0.2996
 5785SOL    HW222906   6.244   5.200   2.247  0.3277  1.2315  1.7592
 5785SOL    HW322907   6.368   5.286   2.245  1.7785 -0.8072  1.2811
 5785SOL    MW422908   6.328   5.212   2.227  0.2211  0.1459  0.6217
 5786SOL     OW22909   4.224   6.145   2.903 -0.0922 -0.8565 -0.4438
 5786SOL    HW222910   4.254   6.075   2.961  1.9166 -0.6944 -1.1853
 5786SOL    HW322911   4.183   6.100   2.830 -1.6048 -1.1035  0.5159
 5786SOL    MW422912   4.223   6.130   2.901 -0.0267 -0.8677 -0.4150
 5787SOL     OW22913   5.486   4.391   6.239  0.0208  0.6030 -0.0658
 5787SOL    HW222914   5.441   4.430   6.314 -0.3523 -0.9957  0.5971
 5787SOL    HW322915   5.501   4.300   6.265  2.0249  0.5986 -0.9893
 5787SOL    MW422916   5.482   4.384   6.253  0.2360  0.3915 -0.1002
 5788SOL     OW22917   1.547   2.955   4.840 -0.3422  0.2847 -0.0619
 5788SOL    HW222918   1.467   2.958   4.894 -0.6922 -0.6884 -0.5088
 5788SOL    HW322919   1.519   2.988   4.755  0.6446  3.7013  0.7860
 5788SOL    MW422920   1.533   2.960   4.836 -0.2582  0.6071 -0.0090
 5789SOL     OW22921   1.971   4.190   3.668 -0.8360 -0.1435  0.3827
 5789SOL    HW222922   1.919   4.192   3.749 -1.0904 -0.0497  0.2190
 5789SOL    HW322923   1.928   4.253   3.610 -0.4637  0.0252  0.2866
 5789SOL    MW422924   1.958   4.198   3.671 -0.8205 -0.1089  0.3484
 5790SOL     OW22925   3.882   4.602   1.759  0.2153 -0.7764  0.4419
 5790SOL    HW222926   3.923   4.618   1.674  0.1883 -0.8538  0.4142
 5790SOL    HW322927   3.797   4.564   1.738 -1.2517  2.2746  0.3950
 5790SOL    MW422928   3.876   4.599   1.745  0.0182 -0.3841  0.4320
 5791SOL     OW22929   3.560   4.069   4.136 -0.1531  0.7100  0.1765
 5791SOL    HW222930   3.561   4.019   4.054  1.2066  0.1083  0.5237
 5791SOL    HW322931   3.648   4.108   4.140  0.9121 -1.6298  2.7143
 5791SOL    MW422932   3.572   4.068   4.126  0.1668  0.3219  0.5571
 5792SOL     OW22933   2.224   3.697   1.625 -0.1534 -0.2120 -0.4155
 5792SOL    HW222934   2.271   3.615   1.637  1.0494  0.0059 -2.8534
 5792SOL    HW322935   2.293   3.763   1.621 -0.9745  0.6780 -0.1958
 5792SOL    MW422936   2.239   3.695   1.626 -0.1030 -0.0658 -0.7082
 5793SOL     OW22937   3.888   4.769   0.785  0.2035 -0.1905 -0.0610
 5793SOL    HW222938   3.815   4.807   0.737 -0.0192  0.5521  0.8254
 5793SOL    HW322939   3.966   4.790   0.733  0.0241  1.0469  0.1539
 5793SOL    MW422940   3.889   4.777   0.772  0.1504  0.0707  0.0843
 5794SOL     OW22941   4.504   5.519   2.358  0.1101  0.1763  0.2736
 5794SOL    HW222942   4.411   5.539   2.350  0.7089  3.0244 -0.3688
 5794SOL    HW322943   4.523   5.531   2.451 -0.1265 -0.3979  0.4036
 5794SOL    MW422944   4.494   5.523   2.369  0.1579  0.4763  0.2060
 5795SOL     OW22945   1.903   6.397   3.614 -0.5829  0.0970  0.2028
 5795SOL    HW222946   1.943   6.336   3.551  0.7799  0.6662  0.4704
 5795SOL    HW322947   1.817   6.359   3.633 -0.1537 -1.2370 -0.3603
 5795SOL    MW422948   1.897   6.384   3.608 -0.3465 -0.0039  0.1638
 5796SOL     OW22949   6.264   1.064   3.781  0.2563  0.4583  0.1438
 5796SOL    HW222950   6.357   1.052   3.800  0.1825 -0.8537 -0.2511
 5796SOL    HW322951   6.242   1.146   3.825  1.3444  0.2393  1.1647
 5796SOL    MW422952   6.273   1.073   3.789  0.3901  0.2563  0.2264
 5797SOL     OW22953   4.685   0.516   4.678  0.2050  0.0677 -0.0270
 5797SOL    HW222954   4.661   0.457   4.605  0.9438  1.6509 -1.6223
 5797SOL    HW322955   4.636   0.596   4.661  0.9923  0.7438  0.7898
 5797SOL    MW422956   4.675   0.518   4.666  0.4063  0.3658 -0.1297
 5798SOL     OW22957   3.965   5.909   2.104  0.1907 -0.0444 -0.1786
 5798SOL    HW222958   4.050   5.949   2.125  0.0561  0.6183 -0.8362
 5798SOL    HW322959   3.946   5.852   2.178  0.0592  1.6761  1.1908
 5798SOL    MW422960   3.974   5.907   2.117  0.1556  0.2700 -0.0847
 5799SOL     OW22961   2.554   4.748   6.392  0.4211 -0.1895  0.2775
 5799SOL    HW222962   2.515   4.678   6.339 -1.0792  0.3102  0.6856
 5799SOL    HW322963   2.537   4.827   6.342 -2.0035  0.4429  1.9442
 5799SOL    MW422964   2.547   4.749   6.378 -0.0968 -0.0401  0.5513
 5800SOL     OW22965   4.083   1.071   5.938 -0.4390  0.0427  0.1766
 5800SOL    HW222966   4.042   1.157   5.951 -0.0389  0.9215 -3.4133
 5800SOL    HW322967   4.174   1.091   5.916 -0.2241 -1.3114 -0.2469
 5800SOL    MW422968   4.089   1.085   5.937 -0.3579 -0.0200 -0.3530
 5801SOL     OW22969   2.730   4.877   1.231 -0.9633 -0.2234 -0.1349
 5801SOL    HW222970   2.722   4.947   1.167 -0.2290  0.8065  0.8630
 5801SOL    HW322971   2.765   4.803   1.181 -1.0347  0.3567 -1.0563
 5801SOL    MW422972   2.734   4.876   1.216 -0.8758 -0.0110 -0.1248
 5802SOL     OW22973   5.406   1.036   1.596  0.8361 -0.0384 -0.1882
 5802SOL    HW222974   5.403   1.051   1.691  2.1615 -0.5336 -0.0515
 5802SOL    HW322975   5.361   1.112   1.559  1.4730  0.8342  0.7735
 5802SOL    MW422976   5.399   1.048   1.604  1.0950  0.0114 -0.0433
 5803SOL     OW22977   1.292   0.285   6.108  0.0208 -0.3048 -0.2604
 5803SOL    HW222978   1.227   0.332   6.160  1.5225  0.9411  0.5834
 5803SOL    HW322979   1.274   0.310   6.018  1.5040  2.9938  0.2367
 5803SOL    MW422980   1.281   0.294   6.103  0.4146  0.2948 -0.0835
 5804SOL     OW22981   3.313   2.261   5.518  0.3622  0.1906 -0.4568
 5804SOL    HW222982   3.275   2.210   5.590 -0.7290  2.6427  0.7996
 5804SOL    HW322983   3.363   2.196   5.468 -0.2173 -1.9381  1.5151
 5804SOL    MW422984   3.315   2.245   5.521  0.1417  0.2333 -0.0308
 5805SOL     OW22985   5.970   5.234   0.584  0.4643 -0.0437  0.2738
 5805SOL    HW222986   5.921   5.171   0.531 -0.6687  0.1669  1.0377
 5805SOL    HW322987   5.912   5.310   0.591  1.5316  0.8257 -0.0626
 5805SOL    MW422988   5.956   5.236   0.578  0.4556  0.0988  0.3302
 5806SOL     OW22989   1.584   2.351   5.424 -0.3755  0.0837  0.1040
 5806SOL    HW222990   1.567   2.390   5.510 -1.1761 -0.3432  0.1531
 5806SOL    HW322991   1.587   2.424   5.363  0.1181  0.3832  0.4816
 5806SOL    MW422992   1.582   2.366   5.428 -0.4160  0.0669  0.1603
 5807SOL     OW22993   5.323   1.986   2.397 -1.4030  0.1281  0.8164
 5807SOL    HW222994   5.394   2.042   2.429  0.2220 -0.1459 -2.0095
 5807SOL    HW322995   5.280   1.954   2.477  1.4262  0.5933  2.6630
 5807SOL    MW422996   5.327   1.989   2.412 -0.8153  0.1533  0.6872
 5808SOL     OW22997   1.091   5.019   2.699 -0.2275  0.3174 -0.1808
 5808SOL    HW222998   1.070   4.941   2.749 -0.1797 -0.4218 -1.2729
 5808SOL    HW322999   1.171   4.996   2.651 -2.0949 -0.3150 -3.2558
 5808SOL    MW423000   1.099   5.006   2.699 -0.4676  0.1364 -0.7306
 5809SOL     OW23001   5.210   2.104   4.206 -0.0186 -0.1763  0.0986
 5809SOL    HW223002   5.227   2.021   4.162 -0.6628  0.4478 -1.3890
 5809SOL    HW323003   5.298   2.139   4.225  0.2558 -1.0201  0.4100
 5809SOL    MW423004   5.224   2.098   4.202 -0.0674 -0.2053 -0.0566
 5810SOL     OW23005   3.646   1.024   2.189  0.5043  0.2099  0.1749
 5810SOL    HW223006   3.604   1.102   2.154 -1.7191 -0.9094  0.1645
 5810SOL    HW323007   3.661   0.968   2.113 -1.4008 -0.8914  0.5471
 5810SOL    MW423008   3.642   1.027   2.175 -0.0404 -0.0831  0.2227
 5811SOL     OW23009   6.222   3.560   0.988 -0.3526 -0.1814 -0.0125
 5811SOL    HW223010   6.153   3.617   0.953 -0.1349 -0.7838 -1.4924
 5811SOL    HW323011   6.213   3.478   0.938  1.3771 -0.3034 -0.1981
 5811SOL    MW423012   6.212   3.556   0.977 -0.0956 -0.2770 -0.2322
 5812SOL     OW23013   1.788   1.738   1.489  0.0733 -0.8724  0.6270
 5812SOL    HW223014   1.711   1.757   1.543  0.2320  0.9488  0.2744
 5812SOL    HW323015   1.839   1.677   1.542 -1.7121 -2.3639  0.7412
 5812SOL    MW423016   1.784   1.732   1.503 -0.1413 -0.8289  0.5955
 5813SOL     OW23017   1.063   1.243   0.926 -0.0744  0.4836  0.6176
 5813SOL    HW223018   1.008   1.268   1.001  1.1076  0.3674  1.5441
 5813SOL    HW323019   1.000   1.217   0.859 -1.2534  2.5644  0.8185
 5813SOL    MW423020   1.047   1.243   0.927 -0.0740  0.7428  0.7663
 5814SOL     OW23021   1.874   2.514   0.494 -0.0377  0.4065  0.0383
 5814SOL    HW223022   1.802   2.486   0.438 -0.1603 -1.7385  1.1748
 5814SOL    HW323023   1.920   2.580   0.442 -1.3908  0.0699 -1.6868
 5814SOL    MW423024   1.871   2.519   0.480 -0.2324  0.0791 -0.0394
 5815SOL     OW23025   4.266   2.320   3.117 -0.1239  0.1849  0.4923
 5815SOL    HW223026   4.313   2.328   3.200 -1.1811  1.6805  0.9777
 5815SOL    HW323027   4.269   2.408   3.079 -0.3467 -0.2924 -0.6776
 5815SOL    MW423028   4.273   2.333   3.123 -0.2928  0.3193  0.4020
 5816SOL     OW23029   2.192   0.218   5.302  0.3083 -0.0957  0.2284
 5816SOL    HW223030   2.220   0.234   5.212  1.6770  1.1413  0.8306
 5816SOL    HW323031   2.265   0.172   5.342  0.8809  1.7219  1.3955
 5816SOL    MW423032   2.205   0.214   5.295  0.5644  0.3073  0.4618
 5817SOL     OW23033   3.245   1.181   4.293 -0.0275  0.0023  0.4178
 5817SOL    HW223034   3.185   1.239   4.246  1.1818  0.5437 -0.5280
 5817SOL    HW323035   3.207   1.173   4.381 -0.5285  1.8071  0.4190
 5817SOL    MW423036   3.232   1.188   4.299  0.0659  0.3118  0.2932
 5818SOL     OW23037   5.894   6.128   2.125 -0.1545  0.0885  0.6590
 5818SOL    HW223038   5.877   6.055   2.185  1.0277 -0.5092  0.3079
 5818SOL    HW323039   5.967   6.098   2.071 -0.1075  1.2684  0.0238
 5818SOL    MW423040   5.901   6.114   2.126  0.0077  0.1653  0.5288
 5819SOL     OW23041   1.619   0.530   1.307 -0.2291 -0.5151  0.0453
 5819SOL    HW223042   1.627   0.486   1.222 -1.0778 -0.8335  0.1174
 5819SOL    HW323043   1.555   0.478   1.355  0.1049 -0.2311  0.8176
 5819SOL    MW423044   1.612   0.517   1.302 -0.2970 -0.5196  0.1567
 5820SOL     OW23045   6.384   1.074   4.631  0.0432 -0.3251 -0.3000
 5820SOL    HW223046   6.409   1.010   4.565  3.7520 -0.3076  0.8758
 5820SOL    HW323047   6.316   1.127   4.588  1.7241 -0.7575 -3.8256
 5820SOL    MW423048   6.378   1.073   4.617  0.7543 -0.3799 -0.6100
 5821SOL     OW23049   0.763   2.500   5.045 -0.0547  0.1572  0.4686
 5821SOL    HW223050   0.756   2.421   4.992  2.5470 -1.1428  1.9140
 5821SOL    HW323051   0.765   2.571   4.980 -0.2324 -1.1124 -0.9895
 5821SOL    MW423052   0.762   2.499   5.029  0.2651 -0.1819  0.4669
 5822SOL     OW23053   1.070   4.391   3.276  0.2286  0.6626  0.1724
 5822SOL    HW223054   1.031   4.359   3.195 -1.0992  1.0770  0.6216
 5822SOL    HW323055   1.080   4.485   3.262 -0.8454  0.8889  0.7906
 5822SOL    MW423056   1.066   4.399   3.263 -0.0883  0.7471  0.3132
 5823SOL     OW23057   0.616   2.594   0.681 -0.1666 -0.0350 -0.5394
 5823SOL    HW223058   0.608   2.543   0.762 -0.5383 -0.3741 -0.7868
 5823SOL    HW323059   0.681   2.546   0.629  0.2645  0.3237 -0.3409
 5823SOL    MW423060   0.624   2.581   0.685 -0.1587 -0.0324 -0.5458
 5824SOL     OW23061   1.158   2.676   2.532  0.1552 -0.4747 -0.0482
 5824SOL    HW223062   1.198   2.612   2.473 -1.3821 -0.9115 -0.6367
 5824SOL    HW323063   1.167   2.637   2.619 -0.6745 -1.4468 -0.3915
 5824SOL    MW423064   1.165   2.663   2.536 -0.1571 -0.6606 -0.1711
 5825SOL     OW23065   2.441   5.858   4.545 -0.4081  0.2591  0.1158
 5825SOL    HW223066   2.500   5.934   4.550 -0.6792  0.4208  0.9077
 5825SOL    HW323067   2.394   5.859   4.628 -0.4404 -0.7679  0.1143
 5825SOL    MW423068   2.443   5.868   4.556 -0.4482  0.1450  0.2201
 5826SOL     OW23069   3.797   5.556   3.432  0.6289  0.3384 -0.0896
 5826SOL    HW223070   3.864   5.488   3.444  0.0212 -0.5105 -1.2913
 5826SOL    HW323071   3.841   5.623   3.378  0.8437  0.3187  0.0585
 5826SOL    MW423072   3.812   5.556   3.426  0.5771  0.2238 -0.2286
 5827SOL     OW23073   0.193   4.245   5.651  0.0143  0.1579 -0.0336
 5827SOL    HW223074   0.278   4.208   5.627 -0.3465 -3.2377  2.9592
 5827SOL    HW323075   0.203   4.271   5.742 -1.8528  0.7695  0.0474
 5827SOL    MW423076   0.206   4.243   5.660 -0.2797 -0.2095  0.3719
 5828SOL     OW23077   1.726   2.347   2.243  0.0679 -0.5135  0.4572
 5828SOL    HW223078   1.652   2.299   2.207  1.4563 -0.3780 -2.9691
 5828SOL    HW323079   1.706   2.439   2.227  0.7526 -0.4512 -0.0956
 5828SOL    MW423080   1.714   2.353   2.236  0.3414 -0.4875 -0.0678
 5829SOL     OW23081   0.426   5.030   5.915  0.0474  0.0225  0.0043
 5829SOL    HW223082   0.444   5.113   5.960 -0.4651  1.1913 -1.8362
 5829SOL    HW323083   0.452   4.962   5.978  2.0927  1.5623  0.9345
 5829SOL    MW423084   0.432   5.032   5.930  0.2496  0.3798 -0.1158
 5830SOL     OW23085   3.490   5.368   0.449  0.1416 -0.0547 -0.3338
 5830SOL    HW223086   3.443   5.446   0.419 -0.1799  0.4178  1.3022
 5830SOL    HW323087   3.447   5.296   0.403 -0.1379  0.6439 -1.2052
 5830SOL    MW423088   3.478   5.369   0.439  0.0623  0.0998 -0.2329
 5831SOL     OW23089   1.427   3.000   3.762 -0.3962 -0.4009  0.3721
 5831SOL    HW223090   1.415   3.014   3.856  2.0694 -1.9110  1.0148
 5831SOL    HW323091   1.435   2.905   3.752 -0.6741 -0.2807 -1.3789
 5831SOL    MW423092   1.427   2.989   3.773 -0.1076 -0.5843  0.2259
 5832SOL     OW23093   3.701   2.642   5.642  0.1576  0.0721  0.4411
 5832SOL    HW223094   3.671   2.594   5.719  1.7546 -2.0331 -0.1370
 5832SOL    HW323095   3.638   2.620   5.573 -0.7416  1.1927  0.8915
 5832SOL    MW423096   3.689   2.633   5.643  0.2497 -0.0578  0.4242
 5833SOL     OW23097   1.892   3.130   3.509 -0.2683  0.1695 -0.0069
 5833SOL    HW223098   1.969   3.184   3.490  0.0191  0.4194  1.6837
 5833SOL    HW323099   1.924   3.040   3.503 -0.5340  0.1712 -1.9662
 5833SOL    MW423100   1.906   3.125   3.506 -0.2654  0.2027 -0.0424
 5834SOL     OW23101   3.186   2.550   0.554  0.1134 -0.3539 -0.2048
 5834SOL    HW223102   3.201   2.482   0.488  0.9701  0.1433 -0.5303
 5834SOL    HW323103   3.273   2.582   0.576 -0.2598  0.4070  0.1990
 5834SOL    MW423104   3.200   2.545   0.548  0.1772 -0.1879 -0.1945
 5835SOL     OW23105   2.561   5.348   3.506 -0.1147 -0.5501  0.7854
 5835SOL    HW223106   2.488   5.405   3.529  2.0037  2.6750  0.2194
 5835SOL    HW323107   2.607   5.333   3.588  0.3387  0.1117  0.6544
 5835SOL    MW423108   2.557   5.353   3.520  0.2246 -0.0373  0.6934
 5836SOL     OW23109   5.267   1.558   3.789 -0.5555 -0.4779  0.9154
 5836SOL    HW223110   5.352   1.515   3.792 -0.9005 -1.2444  0.2501
 5836SOL    HW323111   5.266   1.602   3.704 -0.5866  0.0479  1.1841
 5836SOL    MW423112   5.278   1.558   3.778 -0.6051 -0.5096  0.8630
 5837SOL     OW23113   1.797   1.827   4.733  0.5957  0.3231  0.4097
 5837SOL    HW223114   1.863   1.772   4.690 -0.8667 -1.0111 -0.2725
 5837SOL    HW323115   1.754   1.872   4.660  0.3912  0.7443  0.7942
 5837SOL    MW423116   1.800   1.826   4.717  0.3757  0.2026  0.3704
 5838SOL     OW23117   0.559   1.464   2.474 -0.2028  0.0447  0.5815
 5838SOL    HW223118   0.584   1.407   2.401 -1.7848 -0.1556  0.1407
 5838SOL    HW323119   0.563   1.407   2.551  2.0606  0.4125  0.7939
 5838SOL    MW423120   0.563   1.449   2.474 -0.1129  0.0668  0.5513
 5839SOL     OW23121   5.609   1.223   4.637  0.1567  0.0408  0.0803
 5839SOL    HW223122   5.554   1.173   4.577  1.6346 -0.2104 -1.1204
 5839SOL    HW323123   5.549   1.251   4.706 -1.7321  0.7079 -1.7016
 5839SOL    MW423124   5.593   1.220   4.638  0.1025  0.0957 -0.3132
 5840SOL     OW23125   1.525   6.005   2.607  0.0753 -0.4449 -0.8639
 5840SOL    HW223126   1.585   6.079   2.614 -1.1995  0.4913  1.1470
 5840SOL    HW323127   1.565   5.936   2.659  0.0242 -0.2519 -0.5647
 5840SOL    MW423128   1.538   6.006   2.615 -0.0996 -0.2959 -0.5591
 5841SOL     OW23129   0.579   0.262   0.049  0.1627  0.1784 -0.2109
 5841SOL    HW223130   0.604   0.327  -0.016 -1.7551  2.2463  0.9664
 5841SOL    HW323131   0.583   0.308   0.133 -0.7710 -1.3722  0.7588
 5841SOL    MW423132   0.583   0.276   0.052 -0.2135  0.2467  0.0723
 5842SOL     OW23133   3.476   1.419   0.305  0.3889 -0.1712 -0.1536
 5842SOL    HW223134   3.413   1.484   0.337 -1.2498 -1.0190 -1.4912
 5842SOL    HW323135   3.429   1.336   0.311  0.8605 -0.6690 -2.4373
 5842SOL    MW423136   3.462   1.417   0.310  0.2349 -0.3488 -0.6314
 5843SOL     OW23137   4.261   5.343   4.515 -0.2400 -0.6064 -0.2061
 5843SOL    HW223138   4.191   5.406   4.531 -0.5737 -1.2407  0.9410
 5843SOL    HW323139   4.221   5.278   4.456  0.2651  0.4831 -1.8194
 5843SOL    MW423140   4.247   5.343   4.509 -0.2174 -0.5464 -0.2676
 5844SOL     OW23141   4.628   0.271   0.330  0.2108 -0.0028  0.4893
 5844SOL    HW223142   4.717   0.247   0.355 -0.5023 -0.6096  2.6644
 5844SOL    HW323143   4.638   0.357   0.288  1.6150  1.1560  2.9440
 5844SOL    MW423144   4.641   0.279   0.328  0.3020  0.0700  1.1001
 5845SOL     OW23145   0.207   0.891   4.332  0.5351  0.3045  0.5384
 5845SOL    HW223146   0.253   0.931   4.406  0.0340 -0.7304  1.4424
 5845SOL    HW323147   0.124   0.862   4.369 -0.3219  1.0351 -0.7837
 5845SOL    MW423148   0.202   0.892   4.347  0.3560  0.2643  0.4833
 5846SOL     OW23149   3.296   0.469   0.552 -0.1992  0.0330  0.0779
 5846SOL    HW223150   3.269   0.377   0.555  0.5912 -0.1805  2.0078
 5846SOL    HW323151   3.310   0.493   0.644  1.3700  1.5508 -0.5089
 5846SOL    MW423152   3.294   0.460   0.565  0.1121  0.2050  0.2551
 5847SOL     OW23153   5.253   4.094   3.701 -0.1386  0.2329  0.2323
 5847SOL    HW223154   5.272   4.080   3.794  0.4144  0.0166  0.0918
 5847SOL    HW323155   5.327   4.055   3.655 -0.1887  0.7290 -0.2863
 5847SOL    MW423156   5.265   4.087   3.707 -0.0723  0.2698  0.1453
 5848SOL     OW23157   5.967   1.462   1.341  0.5155 -0.1495 -0.5181
 5848SOL    HW223158   6.018   1.403   1.285  4.1922  1.6861  0.6024
 5848SOL    HW323159   5.981   1.549   1.303 -0.6678  0.6196  0.6933
 5848SOL    MW423160   5.976   1.466   1.328  0.8445  0.1942 -0.2105
 5849SOL     OW23161   5.739   3.954   1.078 -0.1388 -0.2178 -0.1473
 5849SOL    HW223162   5.797   3.943   1.154 -0.0042 -2.4332 -0.5028
 5849SOL    HW323163   5.799   3.962   1.003 -0.2926  0.3815 -0.2141
 5849SOL    MW423164   5.755   3.954   1.078 -0.1413 -0.4311 -0.2030
 5850SOL     OW23165   5.705   4.378   5.420  0.1125  0.0292 -0.9508
 5850SOL    HW223166   5.793   4.410   5.398  0.9485  0.7957  2.7674
 5850SOL    HW323167   5.714   4.283   5.423  1.0653  0.1301  0.1071
 5850SOL    MW423168   5.718   4.370   5.418  0.3485  0.1437 -0.3206
 5851SOL     OW23169   3.116   6.116   0.252  0.1140 -0.0843  0.4431
 5851SOL    HW223170   3.047   6.177   0.280  1.0288  0.4953  1.5264
 5851SOL    HW323171   3.069   6.047   0.205 -1.0195  1.1066 -0.2290
 5851SOL    MW423172   3.101   6.115   0.250  0.0852  0.1493  0.4974
 5852SOL     OW23173   0.119   4.178   4.328  0.2589 -0.2940  0.2307
 5852SOL    HW223174   0.050   4.133   4.377 -1.0871  0.5880 -0.7616
 5852SOL    HW323175   0.079   4.197   4.243  1.1571  1.7205  0.1983
 5852SOL    MW423176   0.104   4.174   4.323  0.1998  0.0882  0.0955
 5853SOL     OW23177   1.824   0.859   1.146 -0.0341  0.0931  0.3427
 5853SOL    HW223178   1.798   0.834   1.234  1.5679 -2.5245  0.1915
 5853SOL    HW323179   1.757   0.921   1.118 -2.1160 -1.0353  2.4157
 5853SOL    MW423180   1.812   0.864   1.154 -0.0974 -0.4011  0.5963
 5854SOL     OW23181   4.079   3.178   2.027  0.7901  0.8577 -0.4072
 5854SOL    HW223182   4.057   3.226   1.947 -0.4701  0.7904 -0.1222
 5854SOL    HW323183   4.049   3.089   2.011  0.7460  0.7852  0.0505
 5854SOL    MW423184   4.072   3.173   2.014  0.6180  0.8392 -0.3092
 5855SOL     OW23185   5.288   6.236   1.341 -0.4208 -0.0956  0.0665
 5855SOL    HW223186   5.343   6.277   1.274  1.2136 -1.9421  0.1869
 5855SOL    HW323187   5.308   6.143   1.334 -2.6977 -0.7192  0.9517
 5855SOL    MW423188   5.298   6.229   1.331 -0.5055 -0.4215  0.1992
 5856SOL     OW23189   5.287   5.412   2.890  0.5935  0.5347  0.5466
 5856SOL    HW223190   5.380   5.392   2.888  0.5938  0.4009  1.5088
 5856SOL    HW323191   5.275   5.464   2.970 -0.1283  0.7013  0.3394
 5856SOL    MW423192   5.298   5.416   2.900  0.4983  0.5390  0.6462
 5857SOL     OW23193   3.923   3.552   0.685 -0.7041 -0.6445  0.7027
 5857SOL    HW223194   3.902   3.464   0.656 -0.2764 -0.8019  0.8559
 5857SOL    HW323195   3.918   3.606   0.606 -0.1870 -0.9532  0.4501
 5857SOL    MW423196   3.920   3.548   0.671 -0.5794 -0.7060  0.6896
 5858SOL     OW23197   4.392   0.142   2.713  0.5615  0.0576  0.2452
 5858SOL    HW223198   4.379   0.090   2.793 -0.1716 -1.0273 -0.5464
 5858SOL    HW323199   4.381   0.233   2.741 -2.2040 -0.3964  0.9550
 5858SOL    MW423200   4.389   0.147   2.727  0.0999 -0.1454  0.2344
 5859SOL     OW23201   0.318   4.248   3.900  0.6236  0.0498  0.6196
 5859SOL    HW223202   0.245   4.196   3.865  0.1470  0.4950  0.9293
 5859SOL    HW323203   0.296   4.338   3.876  1.8101  0.0523 -0.5689
 5859SOL    MW423204   0.305   4.253   3.892  0.7173  0.1089  0.5036
 5860SOL     OW23205   1.228   3.673   3.122 -0.0274  0.2682  0.0480
 5860SOL    HW223206   1.320   3.680   3.147 -0.1616  1.6418  0.2286
 5860SOL    HW323207   1.229   3.638   3.033  0.7821  2.2634 -0.7809
 5860SOL    MW423208   1.240   3.669   3.114  0.0617  0.7127 -0.0376
 5861SOL     OW23209   2.334   5.836   4.816  0.2449 -0.2213 -0.3247
 5861SOL    HW223210   2.287   5.754   4.807  2.3223 -1.6021  0.6621
 5861SOL    HW323211   2.291   5.881   4.889 -1.0416 -0.2806 -1.0174
 5861SOL    MW423212   2.322   5.831   4.824  0.3492 -0.4113 -0.2859
 5862SOL     OW23213   0.400   5.003   5.041 -0.2292  0.2005  0.0856
 5862SOL    HW223214   0.347   5.078   5.015 -1.6963 -0.2676  1.5402
 5862SOL    HW323215   0.345   4.927   5.021  1.2899 -0.5450 -1.5035
 5862SOL    MW423216   0.386   5.003   5.035 -0.2224  0.0404  0.0678
 5863SOL     OW23217   3.476   1.655   0.563 -0.7175  0.9427 -0.1328
 5863SOL    HW223218   3.530   1.723   0.604 -1.8383  1.1644  1.0877
 5863SOL    HW323219   3.500   1.574   0.608  0.9942  0.3854 -1.9513
 5863SOL    MW423220   3.486   1.653   0.574 -0.6396  0.8984 -0.2117
 5864SOL     OW23221   3.405   6.098   5.101  0.2160 -0.1218  0.0361
 5864SOL    HW223222   3.400   6.008   5.133  2.3578 -0.3058  0.0104
 5864SOL    HW323223   3.319   6.115   5.062 -0.9497 -1.4111  1.9016
 5864SOL    MW423224   3.393   6.088   5.100  0.3448 -0.3162  0.2789
 5865SOL     OW23225   4.339   3.888   1.710 -0.3614  0.1989 -0.3162
 5865SOL    HW223226   4.409   3.829   1.681  1.4874  1.0727  1.9895
 5865SOL    HW323227   4.321   3.860   1.800  0.3029  2.7872  0.7124
 5865SOL    MW423228   4.346   3.876   1.718 -0.0298  0.6557  0.1237
 5866SOL     OW23229   3.820   4.930   2.276  0.3668  0.3125 -0.1802
 5866SOL    HW223230   3.868   4.929   2.193 -0.5967 -1.4348 -0.7895
 5866SOL    HW323231   3.864   4.864   2.329  1.0523  1.5109  0.7752
 5866SOL    MW423232   3.832   4.921   2.272  0.3301  0.2401 -0.1345
 5867SOL     OW23233   2.252   2.537   4.723  0.1740 -0.0508 -0.2363
 5867SOL    HW223234   2.335   2.563   4.763 -0.2775  2.1268 -0.5778
 5867SOL    HW323235   2.275   2.518   4.632  0.6320 -1.6876  0.1847
 5867SOL    MW423236   2.266   2.538   4.716  0.1749  0.0206 -0.2258
 5868SOL     OW23237   5.338   2.860   5.955  0.0321  0.1610  1.0632
 5868SOL    HW223238   5.347   2.811   5.873 -0.6279  2.3982 -0.4539
 5868SOL    HW323239   5.428   2.877   5.982  0.2624 -0.3545  0.6401
 5868SOL    MW423240   5.351   2.856   5.947 -0.0246  0.3881  0.8072
 5869SOL     OW23241   0.609   2.330   0.839  0.2625  0.1966  0.0866
 5869SOL    HW223242   0.646   2.382   0.910  0.1634 -0.2338  0.4591
 5869SOL    HW323243   0.678   2.267   0.818  0.7655  1.0915 -1.0252
 5869SOL    MW423244   0.623   2.328   0.846  0.3158  0.2579 -0.0110
 5870SOL     OW23245   5.755   2.229   0.382  0.1037 -0.4835 -0.1917
 5870SOL    HW223246   5.677   2.207   0.330  0.7494  0.8556 -1.7976
 5870SOL    HW323247   5.722   2.284   0.454 -0.6823 -1.6646  0.3872
 5870SOL    MW423248   5.740   2.233   0.385  0.0852 -0.4627 -0.3272
 5871SOL     OW23249   4.220   4.160   5.842 -0.0727 -0.4022  0.6383
 5871SOL    HW223250   4.297   4.108   5.864  1.4039  1.0284 -0.8743
 5871SOL    HW323251   4.202   4.138   5.751 -1.4335 -0.6425  0.9452
 5871SOL    MW423252   4.228   4.150   5.833 -0.0574 -0.2451  0.4793
 5872SOL     OW23253   5.600   3.219   4.245  0.3313 -0.2333 -0.1020
 5872SOL    HW223254   5.526   3.211   4.184  0.6452  0.1696 -0.5425
 5872SOL    HW323255   5.562   3.198   4.330 -0.3021 -0.0180 -0.3203
 5872SOL    MW423256   5.585   3.215   4.248  0.2891 -0.1518 -0.1889
 5873SOL     OW23257   4.099   4.868   0.375 -0.4807  0.1593  0.3851
 5873SOL    HW223258   4.102   4.804   0.446 -1.0449  0.5417  0.7627
 5873SOL    HW323259   4.190   4.876   0.346 -0.0098  0.9804  1.9702
 5873SOL    MW423260   4.111   4.861   0.381 -0.4930  0.3181  0.6441
 5874SOL     OW23261   4.063   2.398   6.194  0.4136  0.4540  0.2450
 5874SOL    HW223262   4.010   2.473   6.218  1.4572  1.8093 -1.3852
 5874SOL    HW323263   4.126   2.388   6.266  1.0689  1.9843 -0.0777
 5874SOL    MW423264   4.064   2.406   6.206  0.6377  0.8347 -0.0127
 5875SOL     OW23265   6.103   5.912   0.774  0.2093  0.8168  0.2092
 5875SOL    HW223266   6.095   5.864   0.857 -1.8244 -0.2230 -0.5207
 5875SOL    HW323267   6.106   6.004   0.799  1.2235  0.4582  1.5065
 5875SOL    MW423268   6.102   5.917   0.788  0.0748  0.6323  0.2841
 5876SOL     OW23269   0.020   0.631   0.618 -0.0121  0.3056 -0.0274
 5876SOL    HW223270   0.103   0.583   0.613 -1.2200 -2.0534  0.9768
 5876SOL    HW323271  -0.047   0.562   0.616 -1.8649  1.9536  1.6496
 5876SOL    MW423272   0.022   0.615   0.617 -0.4159  0.2118  0.3263
 5877SOL     OW23273   2.343   2.943   4.165 -0.4701  0.7046 -0.5428
 5877SOL    HW223274   2.257   2.912   4.194 -0.6802 -1.1432 -2.8733
 5877SOL    HW323275   2.405   2.889   4.213 -0.6676  0.5920 -0.4102
 5877SOL    MW423276   2.340   2.932   4.175 -0.5239  0.4460 -0.8328
 5878SOL     OW23277   2.008   2.976   1.504  0.2032  0.2974 -0.3599
 5878SOL    HW223278   2.033   2.883   1.509 -0.4152  0.0685 -1.2658
 5878SOL    HW323279   2.044   3.006   1.421  0.7023  0.9814  0.0879
 5878SOL    MW423280   2.016   2.968   1.494  0.1874  0.3575 -0.4204
 5879SOL     OW23281   5.459   3.622   5.346  0.0563  0.0290 -0.1430
 5879SOL    HW223282   5.484   3.537   5.382 -1.9797 -0.6824 -0.2295
 5879SOL    HW323283   5.535   3.678   5.359  1.0165 -1.4782  1.0209
 5879SOL    MW423284   5.472   3.618   5.352 -0.0856 -0.2637 -0.0009
 5880SOL     OW23285   4.280   3.830   1.995 -0.3944  0.1396 -0.5581
 5880SOL    HW223286   4.191   3.860   1.982 -2.1375 -3.6065  1.2785
 5880SOL    HW323287   4.272   3.740   2.026  4.0828 -0.7368 -1.1497
 5880SOL    MW423288   4.267   3.822   1.998 -0.0336 -0.4703 -0.3939
 5881SOL     OW23289   1.647   3.291   1.110 -0.0259  0.1366 -0.0212
 5881SOL    HW223290   1.679   3.362   1.166 -2.0832 -0.2801  1.8362
 5881SOL    HW323291   1.552   3.307   1.104 -0.2380 -1.3578 -1.2082
 5881SOL    MW423292   1.638   3.303   1.117 -0.3253 -0.1155  0.0673
 5882SOL     OW23293   0.981   1.987   0.142  0.1365 -0.2249  0.0754
 5882SOL    HW223294   0.906   2.031   0.182 -0.1796  0.0532 -0.7970
 5882SOL    HW323295   0.952   1.967   0.053  0.7871 -0.9223  0.0174
 5882SOL    MW423296   0.967   1.990   0.136  0.1806 -0.2802 -0.0474
 5883SOL     OW23297   3.079   1.639   1.387  0.6329 -0.3540 -0.1414
 5883SOL    HW223298   3.111   1.725   1.413  2.4367 -1.0793  0.2005
 5883SOL    HW323299   3.016   1.615   1.455 -1.3546  1.4635 -1.2642
 5883SOL    MW423300   3.075   1.647   1.399  0.6087 -0.2099 -0.2445
 5884SOL     OW23301   2.192   1.036   3.701  0.3662  0.6095 -0.3038
 5884SOL    HW223302   2.209   0.947   3.733  2.4700  0.5650 -1.3283
 5884SOL    HW323303   2.109   1.029   3.654 -0.7770 -0.1976  1.7002
 5884SOL    MW423304   2.183   1.023   3.699  0.4930  0.4971 -0.1746
 5885SOL     OW23305   1.143   1.211   4.077 -0.2810  0.1910  0.3295
 5885SOL    HW223306   1.059   1.230   4.119  0.2271 -0.2849  1.6270
 5885SOL    HW323307   1.124   1.211   3.983 -1.6176  0.5830  0.5796
 5885SOL    MW423308   1.130   1.213   4.070 -0.3903  0.1799  0.5337
 5886SOL     OW23309   5.349   5.955   1.360  0.2846  0.5255  0.2083
 5886SOL    HW223310   5.413   5.957   1.431  0.0370  0.4119  0.4379
 5886SOL    HW323311   5.401   5.941   1.281  0.3825 -2.2991  0.6488
 5886SOL    MW423312   5.364   5.953   1.359  0.2648  0.1378  0.2967
 5887SOL     OW23313   3.881   2.079   1.097 -0.2810 -0.4197  0.4887
 5887SOL    HW223314   3.971   2.063   1.124  0.0448  0.7925  0.1783
 5887SOL    HW323315   3.887   2.098   1.003 -0.9634 -1.1356  0.2891
 5887SOL    MW423316   3.894   2.079   1.088 -0.3281 -0.3542  0.4214
 5888SOL     OW23317   5.778   4.596   1.499  0.3823  0.3476  0.3081
 5888SOL    HW223318   5.729   4.574   1.420 -1.3433  0.2997  1.3334
 5888SOL    HW323319   5.782   4.691   1.499  0.2400  0.3540  0.2445
 5888SOL    MW423320   5.772   4.605   1.488  0.1358  0.3421  0.4350
 5889SOL     OW23321   4.942   2.363   3.800 -0.6612  0.3030 -0.2537
 5889SOL    HW223322   4.982   2.443   3.836 -0.8309  0.5031 -0.5052
 5889SOL    HW323323   4.964   2.295   3.863 -0.1212  0.4570 -0.2702
 5889SOL    MW423324   4.950   2.365   3.813 -0.6124  0.3497 -0.2891
 5890SOL     OW23325   3.323   3.198   2.263 -0.1885 -0.8197 -0.1557
 5890SOL    HW223326   3.406   3.221   2.221 -0.8329  1.0460 -0.5226
 5890SOL    HW323327   3.347   3.146   2.339  1.3609  0.3095  0.1569
 5890SOL    MW423328   3.337   3.194   2.267 -0.0691 -0.4245 -0.1628
 5891SOL     OW23329   1.931   6.143   1.278  0.0896  0.2766  0.2220
 5891SOL    HW223330   2.003   6.079   1.286 -0.8941 -0.7710  1.0394
 5891SOL    HW323331   1.884   6.115   1.199 -0.4138 -0.0820  0.6499
 5891SOL    MW423332   1.934   6.131   1.268 -0.1066  0.0911  0.3863
 5892SOL     OW23333   4.876   0.579   0.138 -0.3941  0.2147 -0.7109
 5892SOL    HW223334   4.911   0.600   0.225  0.1714  2.0333 -1.3240
 5892SOL    HW323335   4.790   0.542   0.155  0.3234 -0.9329  0.6805
 5892SOL    MW423336   4.870   0.577   0.151 -0.2248  0.3032 -0.6082
 5893SOL     OW23337   0.614   1.043   3.621  0.2775 -0.5740 -0.4154
 5893SOL    HW223338   0.632   1.123   3.670  0.3317 -0.6478 -0.3134
 5893SOL    HW323339   0.563   0.989   3.682  1.0598 -1.0108 -0.1360
 5893SOL    MW423340   0.610   1.046   3.636  0.3879 -0.6414 -0.3651
 5894SOL     OW23341   3.118   5.748   4.758  0.0771  0.2155  0.3241
 5894SOL    HW223342   3.186   5.687   4.729 -0.5441  0.1156 -1.0323
 5894SOL    HW323343   3.057   5.694   4.808 -1.2021 -0.6650 -2.0209
 5894SOL    MW423344   3.119   5.733   4.761 -0.1736  0.0861 -0.1642
 5895SOL     OW23345   4.817   1.570   0.692 -0.1972  0.5669  0.0392
 5895SOL    HW223346   4.778   1.491   0.729 -0.5583  0.9234  0.4384
 5895SOL    HW323347   4.768   1.585   0.611  0.3219  0.0110 -0.3838
 5895SOL    MW423348   4.805   1.562   0.686 -0.1764  0.5406  0.0360
 5896SOL     OW23349   1.992   4.850   2.431  0.1334 -0.1776  0.7144
 5896SOL    HW223350   1.966   4.876   2.519 -1.2543 -1.5184  0.7397
 5896SOL    HW323351   2.018   4.758   2.440  1.4028  0.0810 -0.0226
 5896SOL    MW423352   1.992   4.841   2.443  0.1178 -0.3204  0.6205
 5897SOL     OW23353   1.350   1.923   0.021  0.1045 -0.2193 -0.5485
 5897SOL    HW223354   1.316   1.876   0.096 -1.3421 -0.4717 -1.3312
 5897SOL    HW323355   1.404   1.993   0.059 -0.1802 -0.6512  0.6912
 5897SOL    MW423356   1.353   1.926   0.036 -0.1239 -0.3096 -0.4882
 5898SOL     OW23357   0.388   5.663   0.291  0.1872  0.5394  0.0941
 5898SOL    HW223358   0.320   5.619   0.240  0.2638  0.2926  0.2003
 5898SOL    HW323359   0.347   5.683   0.375  0.0269  1.0478 -0.1036
 5898SOL    MW423360   0.374   5.660   0.295  0.1761  0.5739  0.0820
 5899SOL     OW23361   5.562   5.377   4.470 -0.1633 -0.0985 -0.3432
 5899SOL    HW223362   5.654   5.357   4.489 -0.2729  0.1533  0.5201
 5899SOL    HW323363   5.563   5.466   4.436  0.1413 -0.8898 -2.5364
 5899SOL    MW423364   5.575   5.386   4.468 -0.1376 -0.1697 -0.5186
 5900SOL     OW23365   5.747   2.828   4.721  0.6229  0.3055  0.3150
 5900SOL    HW223366   5.776   2.745   4.759  0.2037 -0.5158 -1.0875
 5900SOL    HW323367   5.679   2.803   4.658 -0.6828  1.8568  1.0096
 5900SOL    MW423368   5.742   2.814   4.718  0.3953  0.4018  0.2216
 5901SOL     OW23369   3.055   3.497   2.356  0.0204 -0.1153  0.1478
 5901SOL    HW223370   3.001   3.575   2.365  1.4329  0.8232  0.9294
 5901SOL    HW323371   3.090   3.481   2.444 -0.2695 -1.6630  0.0126
 5901SOL    MW423372   3.053   3.505   2.368  0.1685 -0.1957  0.2331
 5902SOL     OW23373   2.068   2.517   3.396 -0.2220  0.0733  0.5881
 5902SOL    HW223374   2.141   2.578   3.388 -0.1377  0.1516  1.7475
 5902SOL    HW323375   1.990   2.570   3.381 -0.0615  0.0538 -0.3467
 5902SOL    MW423376   2.068   2.532   3.393 -0.1897  0.0811  0.6177
 5903SOL     OW23377   3.847   5.494   1.759 -0.3974 -0.4044  0.4837
 5903SOL    HW223378   3.858   5.530   1.847  1.2981  0.1922  0.0664
 5903SOL    HW323379   3.931   5.452   1.740 -0.6531 -0.3039 -0.9446
 5903SOL    MW423380   3.859   5.493   1.768 -0.2074 -0.3125  0.2402
 5904SOL     OW23381   4.310   0.277   5.250 -1.0388 -0.8900  0.0907
 5904SOL    HW223382   4.218   0.270   5.273 -1.6364 -2.3980 -2.4442
 5904SOL    HW323383   4.349   0.196   5.283 -0.2590  0.2683  2.2485
 5904SOL    MW423384   4.303   0.266   5.258 -1.0147 -0.9362  0.0410
 5905SOL     OW23385   3.168   0.966   0.678 -0.6753 -0.1896 -0.5011
 5905SOL    HW223386   3.144   0.875   0.658  0.3091 -0.7778  0.8005
 5905SOL    HW323387   3.137   0.979   0.768 -1.6297  1.0869 -0.9964
 5905SOL    MW423388   3.161   0.956   0.687 -0.6714 -0.0988 -0.3947
 5906SOL     OW23389   1.951   5.999   5.438  0.0104  0.1774 -0.1427
 5906SOL    HW223390   1.866   5.972   5.474  0.3438  0.1118  0.6277
 5906SOL    HW323391   1.989   6.054   5.506  0.6189  0.1455 -0.4502
 5906SOL    MW423392   1.945   6.003   5.452  0.1346  0.1646 -0.0816
 5907SOL     OW23393   6.433   6.290   3.567 -1.1393 -0.2625 -0.2227
 5907SOL    HW223394   6.440   6.384   3.580 -1.0909 -0.0944 -1.3690
 5907SOL    HW323395   6.378   6.280   3.490 -3.5445 -1.2750  1.5035
 5907SOL    MW423396   6.427   6.301   3.559 -1.4503 -0.3739 -0.1462
 5908SOL     OW23397   3.368   1.252   5.748  0.2596 -0.5380 -0.3851
 5908SOL    HW223398   3.418   1.298   5.816  0.3507 -0.2461 -0.6499
 5908SOL    HW323399   3.277   1.275   5.765  0.3147 -0.1724 -0.5834
 5908SOL    MW423400   3.362   1.261   5.759  0.2789 -0.4512 -0.4462
 5909SOL     OW23401   3.364   0.376   2.660 -0.3739 -0.0877 -0.0752
 5909SOL    HW223402   3.337   0.300   2.712 -0.9323 -0.3194 -0.6829
 5909SOL    HW323403   3.459   0.381   2.672 -0.2534 -1.2218 -0.4745
 5909SOL    MW423404   3.373   0.366   2.669 -0.4317 -0.2679 -0.2081
 5910SOL     OW23405   4.786   1.383   5.222  0.3412 -0.4894 -0.5852
 5910SOL    HW223406   4.835   1.355   5.144 -1.3089 -1.7316 -1.2348
 5910SOL    HW323407   4.764   1.301   5.267 -1.1773  0.0180 -0.3688
 5910SOL    MW423408   4.790   1.368   5.217 -0.0769 -0.5863 -0.6424
 5911SOL     OW23409   2.425   1.046   4.633 -0.3515  0.2319 -0.2458
 5911SOL    HW223410   2.410   1.094   4.552  0.7524 -0.1242 -0.6844
 5911SOL    HW323411   2.519   1.029   4.634 -0.7775 -2.9069 -0.6945
 5911SOL    MW423412   2.435   1.050   4.623 -0.2621 -0.2292 -0.3629
 5912SOL     OW23413   4.962   2.049   0.347 -0.6517  0.6279  0.7007
 5912SOL    HW223414   4.889   2.086   0.297 -0.4132  0.5853  0.3162
 5912SOL    HW323415   4.926   2.036   0.435 -1.6358 -0.9622  0.1101
 5912SOL    MW423416   4.947   2.052   0.352 -0.7500  0.4125  0.5721
 5913SOL     OW23417   4.605   0.326   6.179  0.3256  0.5375 -0.9056
 5913SOL    HW223418   4.698   0.348   6.180  0.2040  1.0390 -0.1087
 5913SOL    HW323419   4.603   0.230   6.178  0.8747  0.3902  2.1582
 5913SOL    MW423420   4.617   0.316   6.179  0.3820  0.5842 -0.3963
 5914SOL     OW23421   5.883   2.256   1.968  0.6395  0.2579 -0.3658
 5914SOL    HW223422   5.976   2.268   1.951  0.5702  1.0394 -0.2066
 5914SOL    HW323423   5.878   2.234   2.061  0.7381 -0.8060 -0.5899
 5914SOL    MW423424   5.895   2.255   1.978  0.6434  0.2206 -0.3744
 5915SOL     OW23425   3.362   6.199   0.168  0.5654 -0.3497  0.1573
 5915SOL    HW223426   3.270   6.174   0.175  0.2624  0.4773 -0.6291
 5915SOL    HW323427   3.409   6.134   0.220 -0.4462 -0.8807  0.4290
 5915SOL    MW423428   3.356   6.187   0.176  0.3920 -0.3107  0.0894
 5916SOL     OW23429   3.729   3.785   3.513  0.0563  0.4726  1.0214
 5916SOL    HW223430   3.804   3.818   3.463 -0.9285  1.0447 -0.1198
 5916SOL    HW323431   3.688   3.720   3.456  0.1892 -0.5141  2.0112
 5916SOL    MW423432   3.734   3.781   3.499 -0.0561  0.4179  1.0014
 5917SOL     OW23433   5.302   5.501   5.135  0.5856  0.1011  0.0745
 5917SOL    HW223434   5.280   5.409   5.119 -0.4132  0.6987 -2.4176
 5917SOL    HW323435   5.266   5.548   5.060  0.9335  2.5788  1.3540
 5917SOL    MW423436   5.294   5.495   5.123  0.4997  0.5068 -0.0855
 5918SOL     OW23437   0.854   2.200   0.762  0.2918  0.2261  0.1259
 5918SOL    HW223438   0.928   2.181   0.820  1.6761  0.5447 -1.4648
 5918SOL    HW323439   0.894   2.234   0.682 -1.5308 -0.4884 -1.1582
 5918SOL    MW423440   0.869   2.202   0.759  0.2340  0.1739 -0.2534
 5919SOL     OW23441   1.231   3.060   2.336 -0.1778  0.4840 -0.6991
 5919SOL    HW223442   1.237   3.107   2.252  0.6929 -0.4042 -1.1610
 5919SOL    HW323443   1.281   2.979   2.321  0.2096  0.4292  0.7622
 5919SOL    MW423444   1.239   3.056   2.323 -0.0118  0.3596 -0.5673
 5920SOL     OW23445   3.030   0.688   0.654 -0.0356  0.1435  0.1171
 5920SOL    HW223446   3.010   0.649   0.569 -0.4166  1.1057 -0.2500
 5920SOL    HW323447   2.978   0.638   0.717 -1.0680  0.4944 -0.4331
 5920SOL    MW423448   3.020   0.677   0.651 -0.2220  0.3167 -0.0039
 5921SOL     OW23449   1.362   2.869   0.790 -0.6330 -0.2342 -0.2978
 5921SOL    HW223450   1.442   2.838   0.833 -0.7248  0.4079  0.3557
 5921SOL    HW323451   1.393   2.920   0.715 -0.4602 -0.7174 -0.5645
 5921SOL    MW423452   1.377   2.871   0.786 -0.6223 -0.2133 -0.2467
 5922SOL     OW23453   1.373   5.094   1.705  0.2289  0.0216  0.2474
 5922SOL    HW223454   1.313   5.132   1.768  1.6302 -0.1075  1.7429
 5922SOL    HW323455   1.348   5.132   1.621 -0.8242  1.2754  1.0914
 5922SOL    MW423456   1.362   5.104   1.702  0.2748  0.1700  0.5560
 5923SOL     OW23457   5.630   2.379   0.983 -0.5387  0.1824  0.2001
 5923SOL    HW223458   5.669   2.383   1.071  0.7189 -1.7692 -0.2054
 5923SOL    HW323459   5.560   2.445   0.985  1.0317  1.9274  1.8537
 5923SOL    MW423460   5.626   2.388   0.995 -0.1656  0.1551  0.3648
 5924SOL     OW23461   4.026   5.397   2.239 -0.2696  0.5102 -0.8055
 5924SOL    HW223462   4.084   5.460   2.282 -1.6945  0.9866  0.5375
 5924SOL    HW323463   3.962   5.374   2.306 -0.5033 -1.4867 -1.6400
 5924SOL    MW423464   4.025   5.402   2.254 -0.4884  0.3096 -0.7385
 5925SOL     OW23465   3.528   1.419   1.435 -0.1129  0.1119  0.2787
 5925SOL    HW223466   3.579   1.391   1.359  0.3735  0.2804  0.5366
 5925SOL    HW323467   3.437   1.400   1.411  0.2234 -2.3659  0.7002
 5925SOL    MW423468   3.523   1.413   1.422 -0.0044 -0.1928  0.3683
 5926SOL     OW23469   0.691   0.192   5.077 -0.1784  0.6861  0.1060
 5926SOL    HW223470   0.752   0.223   5.144 -0.1991 -1.3099  1.1454
 5926SOL    HW323471   0.748   0.167   5.003  0.0129  1.2283  0.0672
 5926SOL    MW423472   0.707   0.193   5.076 -0.1559  0.4943  0.2380
 5927SOL     OW23473   0.830   1.656   4.754 -0.1770 -0.2427 -0.2624
 5927SOL    HW223474   0.923   1.673   4.739  0.3926 -2.4421  0.3808
 5927SOL    HW323475   0.785   1.732   4.717  1.9512  1.9390  1.3443
 5927SOL    MW423476   0.836   1.668   4.747  0.1790 -0.2451  0.0345
 5928SOL     OW23477   1.275   5.072   0.871 -0.5728  0.2340  0.2955
 5928SOL    HW223478   1.359   5.068   0.824 -1.8115  1.9214 -2.3027
 5928SOL    HW323479   1.283   5.150   0.926  0.0135 -0.3703  1.0872
 5928SOL    MW423480   1.287   5.082   0.872 -0.6589  0.3769  0.0572
 5929SOL     OW23481   4.813   0.059   2.217  0.0099 -0.2178  0.5319
 5929SOL    HW223482   4.836  -0.025   2.178 -0.6336 -0.0862 -0.1454
 5929SOL    HW323483   4.806   0.120   2.143 -0.5980  0.1799  0.9051
 5929SOL    MW423484   4.815   0.056   2.202 -0.1552 -0.1480  0.4918
 5930SOL     OW23485   4.027   3.399   5.287 -0.7098  0.1983  0.3279
 5930SOL    HW223486   3.973   3.341   5.234 -0.2418  0.9769 -1.0489
 5930SOL    HW323487   4.046   3.349   5.366  0.4390 -1.8729 -1.1937
 5930SOL    MW423488   4.022   3.385   5.291 -0.4965  0.0277 -0.0545
 5931SOL     OW23489   0.407   6.192   5.969 -0.1264  0.1812  0.1382
 5931SOL    HW223490   0.428   6.105   5.934  0.6518  0.9615 -1.4746
 5931SOL    HW323491   0.333   6.177   6.027 -1.0873 -1.3380 -1.3670
 5931SOL    MW423492   0.400   6.178   5.972 -0.1505  0.0837 -0.2732
 5932SOL     OW23493   2.186   1.881   1.831 -0.3656 -0.1811 -1.1755
 5932SOL    HW223494   2.191   1.785   1.832  1.5239 -0.1373  0.9801
 5932SOL    HW323495   2.105   1.902   1.878 -0.5733 -0.7095 -1.2946
 5932SOL    MW423496   2.176   1.871   1.837 -0.1437 -0.2450 -0.9068
 5933SOL     OW23497   2.843   0.445   4.459  0.1912 -0.2114  0.1435
 5933SOL    HW223498   2.768   0.427   4.403 -0.1717 -1.2919  0.9396
 5933SOL    HW323499   2.914   0.465   4.399 -0.3165 -0.8534 -0.6897
 5933SOL    MW423500   2.842   0.445   4.444  0.0763 -0.4386  0.1386
 5934SOL     OW23501   5.892   3.940   5.779  0.0570  0.1392  0.6506
 5934SOL    HW223502   5.882   4.035   5.786 -0.1727  0.0176  2.2688
 5934SOL    HW323503   5.879   3.907   5.868 -1.1496 -1.5326 -0.0775
 5934SOL    MW423504   5.889   3.948   5.792 -0.1325 -0.0974  0.7681
 5935SOL     OW23505   0.638   5.385   4.047  0.3054  0.0739  0.5571
 5935SOL    HW223506   0.733   5.381   4.039  0.4186  0.3508  1.6264
 5935SOL    HW323507   0.606   5.359   3.961  1.3535  1.0475 -0.1534
 5935SOL    MW423508   0.646   5.381   4.035  0.4586  0.2389  0.6044
 5936SOL     OW23509   3.241   1.623   0.345  0.0419 -0.5348 -0.2820
 5936SOL    HW223510   3.159   1.574   0.349  0.7224 -1.6526  0.4385
 5936SOL    HW323511   3.228   1.697   0.404  0.3770 -2.0652  1.8480
 5936SOL    MW423512   3.229   1.626   0.353  0.1759 -0.8842  0.0941
 5937SOL     OW23513   0.510   0.416   4.254  0.0067 -0.2641  0.5461
 5937SOL    HW223514   0.476   0.505   4.263 -1.1681 -0.7620  1.3901
 5937SOL    HW323515   0.466   0.381   4.177  2.3638  0.6614 -1.3220
 5937SOL    MW423516   0.499   0.423   4.245  0.1627 -0.2077  0.4109
 5938SOL     OW23517   0.520   2.841   2.217  0.2713  0.5286  0.0712
 5938SOL    HW223518   0.438   2.804   2.248 -0.0932  0.3601 -1.0659
 5938SOL    HW323519   0.587   2.783   2.252 -0.1140  0.4237  0.6487
 5938SOL    MW423520   0.518   2.829   2.225  0.1724  0.4926 -0.0026
 5939SOL     OW23521   6.086   1.055   2.946  0.3503  0.2826  0.5468
 5939SOL    HW223522   6.153   1.067   2.879  0.2406  0.8772  0.5430
 5939SOL    HW323523   6.012   1.107   2.916  0.1946  0.3159  0.9850
 5939SOL    MW423524   6.085   1.063   2.933  0.3153  0.3655  0.6041
 5940SOL     OW23525   5.783   5.103   3.133 -0.6163  0.0855 -0.8515
 5940SOL    HW223526   5.828   5.035   3.183 -0.0595  0.6852 -0.5312
 5940SOL    HW323527   5.790   5.182   3.186  0.7118  0.9418 -2.2121
 5940SOL    MW423528   5.790   5.104   3.147 -0.3676  0.2776 -0.9887
 5941SOL     OW23529   1.163   4.675   4.868 -0.1440 -0.3174  0.2737
 5941SOL    HW223530   1.094   4.666   4.934  1.0114  0.4981  1.6131
 5941SOL    HW323531   1.180   4.768   4.863  1.0514 -0.5341  0.1440
 5941SOL    MW423532   1.156   4.686   4.876  0.1662 -0.2384  0.4333
 5942SOL     OW23533   0.830   3.798   6.085 -0.0836  0.9272  0.2142
 5942SOL    HW223534   0.791   3.761   6.165 -1.4469  0.4015 -0.6624
 5942SOL    HW323535   0.788   3.884   6.076 -0.4160  0.7195 -0.2687
 5942SOL    MW423536   0.819   3.805   6.095 -0.3073  0.8304  0.0348
 5943SOL     OW23537   2.570   4.453   2.497  0.1126  0.4993  0.2001
 5943SOL    HW223538   2.606   4.541   2.486 -1.4014  0.8873 -2.4738
 5943SOL    HW323539   2.599   4.405   2.419 -0.9139 -0.7046  0.5195
 5943SOL    MW423540   2.579   4.458   2.485 -0.2226  0.3917 -0.1105
 5944SOL     OW23541   3.382   4.791   1.070  0.2944  0.0341  0.4046
 5944SOL    HW223542   3.440   4.785   1.146 -0.4316  1.5088  1.1074
 5944SOL    HW323543   3.426   4.853   1.012  0.4654 -0.5009 -0.0469
 5944SOL    MW423544   3.396   4.799   1.072  0.2212  0.1581  0.4378
 5945SOL     OW23545   1.245   2.503   2.333 -0.4958  0.1525 -0.2114
 5945SOL    HW223546   1.260   2.478   2.242  0.4991 -0.8271  0.2001
 5945SOL    HW323547   1.298   2.442   2.384 -1.8212  0.0154  1.0851
 5945SOL    MW423548   1.254   2.492   2.328 -0.5394  0.0052  0.0139
 5946SOL     OW23549   3.266   5.051   3.357  0.4005 -0.0645  0.0427
 5946SOL    HW223550   3.185   5.093   3.329  1.2484  0.2661 -2.1014
 5946SOL    HW323551   3.292   5.099   3.436 -1.4021 -0.1450  0.7442
 5946SOL    MW423552   3.259   5.063   3.364  0.2745 -0.0315 -0.1476
 5947SOL     OW23553   2.191   1.298   5.970 -0.5702  0.2394 -0.6810
 5947SOL    HW223554   2.218   1.295   5.879 -1.0544 -0.1051 -0.8175
 5947SOL    HW323555   2.141   1.217   5.984  0.3099 -0.1791  0.1550
 5947SOL    MW423556   2.188   1.287   5.960 -0.5180  0.1388 -0.5887
 5948SOL     OW23557   6.081   0.277   1.507  0.3179 -0.6714 -0.3741
 5948SOL    HW223558   6.079   0.237   1.594 -0.2590  0.0556 -0.0407
 5948SOL    HW323559   6.172   0.306   1.496 -0.1116  1.4330  1.0386
 5948SOL    MW423560   6.093   0.276   1.517  0.1851 -0.2978 -0.1437
 5949SOL     OW23561   3.363   1.140   4.612 -0.3460 -0.7421  0.5461
 5949SOL    HW223562   3.281   1.104   4.645 -1.8014  0.2217 -1.7656
 5949SOL    HW323563   3.353   1.235   4.620  0.7151 -0.6183  0.5747
 5949SOL    MW423564   3.351   1.147   4.618 -0.3980 -0.5986  0.2448
 5950SOL     OW23565   5.432   3.373   2.543  0.1810  0.4833  0.1056
 5950SOL    HW223566   5.421   3.431   2.618 -0.8548  2.6130 -1.5693
 5950SOL    HW323567   5.526   3.374   2.525  0.5602 -0.7635  1.8452
 5950SOL    MW423568   5.443   3.381   2.550  0.0944  0.5998  0.1141
 5951SOL     OW23569   1.891   5.788   2.513 -0.3013  0.2481  0.5158
 5951SOL    HW223570   1.974   5.780   2.465 -0.1124 -0.0132  0.8802
 5951SOL    HW323571   1.886   5.707   2.565 -1.2480 -0.1995 -0.2320
 5951SOL    MW423572   1.901   5.776   2.513 -0.4013  0.1546  0.4652
 5952SOL     OW23573   3.110   1.598   3.474 -0.8173 -0.1104  0.3017
 5952SOL    HW223574   3.043   1.667   3.479  0.3644  1.0916  0.1986
 5952SOL    HW323575   3.069   1.529   3.422 -1.7985  0.8242 -0.2177
 5952SOL    MW423576   3.096   1.598   3.468 -0.7909  0.1715  0.2196
 5953SOL     OW23577   4.273   2.289   5.736  0.3685  0.6038  0.4140
 5953SOL    HW223578   4.190   2.302   5.690 -0.2567 -1.6089  0.7767
 5953SOL    HW323579   4.261   2.334   5.820 -0.6167  0.0579  0.5871
 5953SOL    MW423580   4.260   2.296   5.741  0.1560  0.2398  0.4847
 5954SOL     OW23581   4.203   0.870   4.983 -0.2585 -0.2153 -0.0246
 5954SOL    HW223582   4.170   0.894   4.896 -1.7212 -1.4006  0.1575
 5954SOL    HW323583   4.197   0.950   5.034  0.4604  0.4578 -0.9516
 5954SOL    MW423584   4.198   0.884   4.978 -0.3566 -0.2829 -0.1229
 5955SOL     OW23585   6.030   5.738   0.988 -0.3404 -0.1257 -0.2124
 5955SOL    HW223586   5.980   5.669   0.943  0.1206  1.1050 -2.7510
 5955SOL    HW323587   6.030   5.710   1.080 -2.5453 -2.0482 -0.6865
 5955SOL    MW423588   6.023   5.725   0.995 -0.5705 -0.2170 -0.6099
 5956SOL     OW23589   0.021   4.407   0.218 -0.2094  0.1411 -0.4347
 5956SOL    HW223590  -0.021   4.422   0.134 -0.2866  1.5249 -0.1742
 5956SOL    HW323591  -0.031   4.459   0.280  0.3046 -0.2436  0.3274
 5956SOL    MW423592   0.009   4.416   0.215 -0.1518  0.2729 -0.2998
 5957SOL     OW23593   3.987   0.529   5.283  0.2181  0.0652  0.3842
 5957SOL    HW223594   4.042   0.605   5.263 -0.2471  0.6246  1.1764
 5957SOL    HW323595   3.910   0.540   5.228 -1.2768  1.8512  2.6294
 5957SOL    MW423596   3.984   0.540   5.273 -0.0405  0.3747  0.7849
 5958SOL     OW23597   0.154   2.625   0.234 -0.3162 -0.6721 -0.2030
 5958SOL    HW223598   0.082   2.655   0.178 -1.7549  1.1210  2.4149
 5958SOL    HW323599   0.121   2.632   0.323  2.0282 -2.9842  0.9896
 5958SOL    MW423600   0.140   2.630   0.238 -0.1967 -0.7406  0.2998
 5959SOL     OW23601   4.827   5.004   5.317 -0.1825 -0.8082 -0.1431
 5959SOL    HW223602   4.840   4.952   5.238 -1.5870 -0.6862 -0.4713
 5959SOL    HW323603   4.814   5.094   5.286  2.9455 -0.0230  0.4514
 5959SOL    MW423604   4.827   5.009   5.303  0.0449 -0.6885 -0.1080
 5960SOL     OW23605   4.223   2.785   5.707 -0.1434 -0.1267  0.3724
 5960SOL    HW223606   4.284   2.807   5.636  0.6523 -2.0906  0.3903
 5960SOL    HW323607   4.224   2.862   5.763 -0.1246  1.1319 -1.2715
 5960SOL    MW423608   4.232   2.798   5.705 -0.0359 -0.2198  0.1579
 5961SOL     OW23609   4.207   5.043   3.241 -0.2870 -0.1726 -0.0106
 5961SOL    HW223610   4.214   4.967   3.300  1.5717  0.8912  1.2718
 5961SOL    HW323611   4.252   5.015   3.161 -2.1819 -1.3802 -0.7107
 5961SOL    MW423612   4.214   5.029   3.238 -0.2918 -0.1916  0.0662
 5962SOL     OW23613   3.999   3.442   0.062 -0.2139 -0.2180  0.4480
 5962SOL    HW223614   4.018   3.368   0.121 -0.2310 -0.5139  0.0869
 5962SOL    HW323615   3.940   3.498   0.113 -0.0274 -0.3432  0.8055
 5962SOL    MW423616   3.994   3.439   0.077 -0.1916 -0.2736  0.4475
 5963SOL     OW23617   2.970   5.007   2.809 -0.2759  0.8781  0.4074
 5963SOL    HW223618   3.009   5.021   2.895  1.5163 -0.9123 -0.0429
 5963SOL    HW323619   3.031   4.948   2.764 -2.3272 -0.0923 -1.2584
 5963SOL    MW423620   2.983   5.001   2.814 -0.3101  0.5139  0.1282
 5964SOL     OW23621   5.847   0.270   4.989  0.2391  0.0466  0.0460
 5964SOL    HW223622   5.825   0.361   5.010  0.4949  0.7014 -2.2125
 5964SOL    HW323623   5.768   0.236   4.946  0.1754 -0.7937  0.8056
 5964SOL    MW423624   5.834   0.278   4.986  0.2644  0.0221 -0.1517
 5965SOL     OW23625   3.855   1.999   2.024  0.0449 -0.0526  0.2180
 5965SOL    HW223626   3.881   1.952   2.103 -1.1980  0.0064  0.6784
 5965SOL    HW323627   3.877   2.091   2.042 -1.5951  0.1974  1.1309
 5965SOL    MW423628   3.861   2.005   2.037 -0.3354 -0.0119  0.3992
 5966SOL     OW23629   5.407   1.019   1.877  0.6781 -0.1322  0.7872
 5966SOL    HW223630   5.376   1.101   1.916  0.4731 -0.2278  0.8237
 5966SOL    HW323631   5.339   0.955   1.897  0.7104 -0.2497  0.5241
 5966SOL    MW423632   5.394   1.021   1.885  0.6553 -0.1604  0.7573
 5967SOL     OW23633   4.868   4.404   4.118  0.0437  0.3533 -0.1665
 5967SOL    HW223634   4.908   4.325   4.156  0.4775  0.4863 -0.3330
 5967SOL    HW323635   4.869   4.387   4.023 -0.0298  0.4796 -0.1888
 5967SOL    MW423636   4.874   4.391   4.110  0.0912  0.3875 -0.1914
 5968SOL     OW23637   0.900   2.180   3.338 -0.2821  0.4364  0.3617
 5968SOL    HW223638   0.805   2.166   3.337  0.0498 -2.1593 -0.1408
 5968SOL    HW323639   0.935   2.105   3.386  1.5785  1.0179  0.0008
 5968SOL    MW423640   0.892   2.169   3.345  0.0071  0.1707  0.2478
 5969SOL     OW23641   0.795   3.886   4.349 -0.4052 -0.7207  0.2604
 5969SOL    HW223642   0.705   3.863   4.324 -0.3513  1.2898 -2.1459
 5969SOL    HW323643   0.786   3.966   4.401  0.0269  0.6467 -1.6743
 5969SOL    MW423644   0.782   3.893   4.353 -0.3411 -0.2750 -0.3124
 5970SOL     OW23645   4.910   5.089   4.035  0.2523 -0.3160 -0.1846
 5970SOL    HW223646   4.887   5.177   4.068  0.9516 -0.6853  1.4200
 5970SOL    HW323647   4.973   5.106   3.965  0.6349  0.4652  0.3268
 5970SOL    MW423648   4.915   5.103   4.030  0.3951 -0.2616  0.0946
 5971SOL     OW23649   3.261   1.144   5.490  0.4072  0.1495  0.0158
 5971SOL    HW223650   3.286   1.235   5.479  0.9698 -0.0291 -0.2462
 5971SOL    HW323651   3.343   1.100   5.514  0.0767 -0.2289  0.4544
 5971SOL    MW423652   3.275   1.150   5.492  0.4378  0.0760  0.0391
 5972SOL     OW23653   4.370   3.696   6.160  0.1102 -0.4283 -0.4631
 5972SOL    HW223654   4.286   3.665   6.191  1.0230 -0.8889  1.7562
 5972SOL    HW323655   4.429   3.684   6.235  1.6425  1.9750 -1.1668
 5972SOL    MW423656   4.367   3.691   6.174  0.4328 -0.1720 -0.2631
 5973SOL     OW23657   6.336   1.063   2.276 -0.0892  0.6204  0.1946
 5973SOL    HW223658   6.305   1.131   2.216  0.2330 -1.7762 -2.9455
 5973SOL    HW323659   6.428   1.083   2.291 -0.1842  1.2612 -0.0635
 5973SOL    MW423660   6.344   1.075   2.270 -0.0592  0.3887 -0.2538
 5974SOL     OW23661   2.585   2.263   5.351  0.3841 -0.4007 -0.2457
 5974SOL    HW223662   2.664   2.213   5.333  1.1834  0.3201  1.0404
 5974SOL    HW323663   2.572   2.253   5.446 -0.7598 -0.0666 -0.3549
 5974SOL    MW423664   2.594   2.255   5.361  0.3386 -0.2615 -0.0904
 5975SOL     OW23665   2.003   5.989   5.126  0.8761 -0.2192 -0.3323
 5975SOL    HW223666   1.993   6.016   5.217  1.6079 -0.6753 -0.1055
 5975SOL    HW323667   1.959   5.904   5.121 -1.5941  1.0189 -1.0904
 5975SOL    MW423668   1.996   5.981   5.137  0.6467 -0.1160 -0.4024
 5976SOL     OW23669   2.246   5.811   5.631 -1.3374 -0.7455 -0.0143
 5976SOL    HW223670   2.271   5.883   5.573  1.7135 -0.5169  1.3872
 5976SOL    HW323671   2.257   5.732   5.578  0.1652 -0.4581 -0.1679
 5976SOL    MW423672   2.251   5.810   5.617 -0.7366 -0.6774  0.1503
 5977SOL     OW23673   2.135   6.379   2.765 -0.0902  0.7380  0.1680
 5977SOL    HW223674   2.096   6.466   2.760  0.3981  0.9703  0.3536
 5977SOL    HW323675   2.066   6.320   2.733 -0.4432  1.1822  0.0987
 5977SOL    MW423676   2.120   6.383   2.760 -0.0724  0.8273  0.1833
 5978SOL     OW23677   0.089   2.493   5.087  0.5177 -0.5155 -0.1131
 5978SOL    HW223678   0.181   2.503   5.063  0.0480  1.8586 -1.2253
 5978SOL    HW323679   0.066   2.406   5.055  2.4203 -1.3036  0.4793
 5978SOL    MW423680   0.098   2.483   5.080  0.7068 -0.3063 -0.1816
 5979SOL     OW23681   2.566   2.851   6.340 -0.9231  0.4462 -0.3645
 5979SOL    HW223682   2.583   2.877   6.431 -2.5849  0.0051  0.1115
 5979SOL    HW323683   2.594   2.927   6.289  0.9720  0.3147  0.4132
 5979SOL    MW423684   2.572   2.865   6.345 -0.8923  0.3707 -0.1991
 5980SOL     OW23685   5.877   2.802   1.476 -0.2581 -0.2982  0.0257
 5980SOL    HW223686   5.816   2.773   1.544  0.1801  0.1805  0.6317
 5980SOL    HW323687   5.828   2.867   1.426 -0.4645 -0.3945  0.1003
 5980SOL    MW423688   5.862   2.807   1.478 -0.2275 -0.2478  0.1155
 5981SOL     OW23689   5.178   3.329   4.159  0.1963  0.0048  0.1491
 5981SOL    HW223690   5.193   3.361   4.070  0.3866 -1.6069 -0.4183
 5981SOL    HW323691   5.241   3.257   4.170 -0.8629 -0.8138  1.0318
 5981SOL    MW423692   5.189   3.324   4.149  0.0816 -0.3158  0.1907
 5982SOL     OW23693   1.577   2.666   5.729  0.6613 -0.4907  0.2854
 5982SOL    HW223694   1.500   2.621   5.695 -0.0892  0.9815 -0.0300
 5982SOL    HW323695   1.585   2.635   5.819 -1.5083  0.7756  0.9916
 5982SOL    MW423696   1.568   2.656   5.737  0.2760 -0.1294  0.3370
 5983SOL     OW23697   3.735   4.403   3.414  0.0804  0.0509 -0.9075
 5983SOL    HW223698   3.809   4.424   3.357  0.5952 -1.2482 -0.7569
 5983SOL    HW323699   3.770   4.408   3.502 -0.6939  1.9718 -0.6556
 5983SOL    MW423700   3.749   4.406   3.418  0.0462  0.1329 -0.8544
 5984SOL     OW23701   2.455   4.601   5.524 -0.3435  0.2565 -0.0123
 5984SOL    HW223702   2.536   4.625   5.569  0.0226 -0.4201 -0.2737
 5984SOL    HW323703   2.455   4.505   5.526 -1.1236  0.2520 -0.0495
 5984SOL    MW423704   2.466   4.591   5.530 -0.3981  0.1666 -0.0517
 5985SOL     OW23705   2.987   4.930   3.938 -0.3266  0.6730  0.0948
 5985SOL    HW223706   3.061   4.914   3.878  1.0694  0.8411  1.6948
 5985SOL    HW323707   2.951   4.843   3.955 -0.3790  0.5654 -0.5321
 5985SOL    MW423708   2.992   4.917   3.932 -0.1493  0.6810  0.2232
 5986SOL     OW23709   2.633   5.493   2.687  0.1594 -0.1317  0.1384
 5986SOL    HW223710   2.617   5.405   2.721 -0.9206  0.7476  2.0789
 5986SOL    HW323711   2.547   5.534   2.684  0.6638  0.9215 -0.6066
 5986SOL    MW423712   2.620   5.486   2.691  0.0835  0.1233  0.2961
 5987SOL     OW23713   4.361   1.109   5.904  0.7121  0.8071 -0.4379
 5987SOL    HW223714   4.359   1.205   5.897  3.7460  0.9804  0.0438
 5987SOL    HW323715   4.424   1.091   5.973 -0.9703 -1.5790  0.6088
 5987SOL    MW423716   4.369   1.119   5.912  0.8904  0.5151 -0.2362
 5988SOL     OW23717   1.847   5.631   2.733  0.1631  0.1318  0.0935
 5988SOL    HW223718   1.814   5.542   2.744 -0.3508  0.3064 -0.0205
 5988SOL    HW323719   1.926   5.634   2.786  0.6836 -0.6630 -0.6051
 5988SOL    MW423720   1.853   5.620   2.741  0.1640  0.0500 -0.0137
 5989SOL     OW23721   1.170   1.555   4.184 -0.5493  0.2910 -0.0572
 5989SOL    HW223722   1.248   1.610   4.178 -0.2749 -0.1899 -1.5025
 5989SOL    HW323723   1.203   1.465   4.181 -1.0335  0.0250  1.6201
 5989SOL    MW423724   1.184   1.550   4.183 -0.5769  0.1925 -0.0266
 5990SOL     OW23725   0.475   0.303   1.535 -0.0934  0.7344  0.1171
 5990SOL    HW223726   0.469   0.300   1.440  2.5581  0.9293 -0.1305
 5990SOL    HW323727   0.511   0.390   1.554 -2.1281  1.3409  1.4572
 5990SOL    MW423728   0.479   0.314   1.525 -0.0120  0.8402  0.2612
 5991SOL     OW23729   2.766   5.678   1.377 -0.2960  0.5233 -0.0886
 5991SOL    HW223730   2.727   5.662   1.463 -0.5069 -0.3877 -0.3399
 5991SOL    HW323731   2.854   5.642   1.384  0.9655  3.5008  0.8133
 5991SOL    MW423732   2.772   5.671   1.390 -0.1574  0.7960 -0.0027
 5992SOL     OW23733   3.016   4.984   6.309  0.6397  0.4319  0.4373
 5992SOL    HW223734   3.012   4.988   6.405  0.8766 -0.4487  0.4870
 5992SOL    HW323735   2.969   4.904   6.286  1.5008  0.0749 -0.1223
 5992SOL    MW423736   3.009   4.974   6.319  0.7846  0.2686  0.3700
 5993SOL     OW23737   3.496   2.267   0.017  0.0998 -0.0482  0.3392
 5993SOL    HW223738   3.497   2.172   0.008  1.8995 -0.0474  0.0944
 5993SOL    HW323739   3.488   2.283   0.112 -0.8751 -0.4079  0.3266
 5993SOL    MW423740   3.495   2.257   0.029  0.2086 -0.0955  0.3053
 5994SOL     OW23741   2.334   3.485   3.756  0.3179 -0.0328  0.0458
 5994SOL    HW223742   2.306   3.552   3.693  1.4505  1.3040  0.8799
 5994SOL    HW323743   2.347   3.406   3.703 -4.1428 -0.6430 -0.5269
 5994SOL    MW423744   2.332   3.484   3.740 -0.1212  0.0631  0.0803
 5995SOL     OW23745   3.636   3.271   3.187  0.0886 -0.1998 -0.2445
 5995SOL    HW223746   3.621   3.365   3.186 -2.9778 -0.5717 -1.6138
 5995SOL    HW323747   3.705   3.257   3.123 -0.5933  1.0071 -1.2952
 5995SOL    MW423748   3.643   3.281   3.178 -0.4060 -0.0897 -0.5638
 5996SOL     OW23749   0.405   4.243   5.262 -0.0010  0.5482  0.6297
 5996SOL    HW223750   0.355   4.323   5.246  0.5343  0.4940 -1.5416
 5996SOL    HW323751   0.366   4.178   5.204  1.1931 -0.0613  0.4708
 5996SOL    MW423752   0.393   4.245   5.252  0.2271  0.4607  0.3222
 5997SOL     OW23753   4.913   3.856   1.398 -0.0534 -0.3923  0.5585
 5997SOL    HW223754   4.851   3.921   1.431  1.7809  1.1641  1.1237
 5997SOL    HW323755   4.991   3.866   1.453  0.6264 -2.4754  0.0773
 5997SOL    MW423756   4.915   3.866   1.409  0.2783 -0.4618  0.5696
 5998SOL     OW23757   2.699   4.700   2.812  0.5258 -0.0029 -0.1045
 5998SOL    HW223758   2.615   4.660   2.836  1.1454 -0.5950  1.1780
 5998SOL    HW323759   2.764   4.633   2.835  1.4097  0.7894 -0.2735
 5998SOL    MW423760   2.697   4.686   2.818  0.7242  0.0235  0.0424
 5999SOL     OW23761   6.375   2.555   3.667 -0.3478  0.2106  0.4508
 5999SOL    HW223762   6.309   2.601   3.615  0.7155  0.0962 -1.0758
 5999SOL    HW323763   6.379   2.603   3.749 -1.8114  0.6452  0.2948
 5999SOL    MW423764   6.367   2.568   3.671 -0.4006  0.2529  0.2288
 6000SOL     OW23765   5.099   4.932   2.595  0.1480 -0.2176  0.5616
 6000SOL    HW223766   5.152   4.852   2.603 -0.6282 -0.6645  1.4262
 6000SOL    HW323767   5.016   4.910   2.638 -0.4137  0.7636  0.0159
 6000SOL    MW423768   5.095   4.918   2.601 -0.0285 -0.1471  0.6036
 6001SOL     OW23769   1.525   3.404   2.890 -0.0594 -0.0639  0.2972
 6001SOL    HW223770   1.447   3.451   2.919  1.6517  3.3806 -0.1468
 6001SOL    HW323771   1.582   3.403   2.967  0.5761  0.0531 -0.1696
 6001SOL    MW423772   1.522   3.410   2.904  0.2502  0.4060  0.1770
 6002SOL     OW23773   0.432   6.186   1.754 -0.8136  0.1448  0.0829
 6002SOL    HW223774   0.427   6.102   1.709  0.2079 -1.0197  1.9639
 6002SOL    HW323775   0.524   6.192   1.783 -0.4753  2.6353 -1.2593
 6002SOL    MW423776   0.444   6.175   1.752 -0.6342  0.3197  0.1540
 6003SOL     OW23777   0.799   3.366   5.211  0.2709 -0.4177 -0.0815
 6003SOL    HW223778   0.801   3.407   5.298  1.0396 -1.2829  0.3247
 6003SOL    HW323779   0.714   3.323   5.206 -0.6537  1.3741 -0.6061
 6003SOL    MW423780   0.788   3.366   5.222  0.2503 -0.2955 -0.0971
 6004SOL     OW23781   4.329   4.784   4.953 -0.1428  0.2083 -0.6888
 6004SOL    HW223782   4.274   4.856   4.921 -0.3293  0.9925  1.2853
 6004SOL    HW323783   4.278   4.705   4.933 -1.5560  0.8547  0.1742
 6004SOL    MW423784   4.315   4.783   4.946 -0.3538  0.3970 -0.3144
 6005SOL     OW23785   3.095   1.839   4.693 -0.1870  0.2169 -0.2051
 6005SOL    HW223786   3.103   1.758   4.643 -0.9613 -1.7858  2.6349
 6005SOL    HW323787   3.161   1.832   4.762 -0.6225  1.7701  0.4239
 6005SOL    MW423788   3.104   1.827   4.696 -0.3466  0.1576  0.2526
 6006SOL     OW23789   6.414   0.886   5.124 -0.4301  0.1492  0.4461
 6006SOL    HW223790   6.329   0.878   5.167  0.4269 -1.2125  2.0180
 6006SOL    HW323791   6.454   0.964   5.162 -0.4772  0.0754  0.6469
 6006SOL    MW423792   6.408   0.895   5.135 -0.3232 -0.0402  0.6800
 6007SOL     OW23793   1.096   5.160   4.902  0.4541  0.0830  0.5461
 6007SOL    HW223794   1.077   5.190   4.991  0.4570  1.1257  0.2088
 6007SOL    HW323795   1.146   5.080   4.914  1.8056  1.0356  1.5212
 6007SOL    MW423796   1.100   5.154   4.915  0.6328  0.3462  0.6303
 6008SOL     OW23797   0.731   6.161   1.088 -0.0889 -0.2561 -0.7689
 6008SOL    HW223798   0.691   6.207   1.162 -0.8530 -3.1238  0.7591
 6008SOL    HW323799   0.825   6.167   1.105 -0.0992  1.4331 -1.1212
 6008SOL    MW423800   0.738   6.168   1.100 -0.1911 -0.4116 -0.6138
 6009SOL     OW23801   3.839   1.573   0.817 -0.3973  0.3858  0.1498
 6009SOL    HW223802   3.935   1.573   0.822 -0.3989  1.5947  0.5181
 6009SOL    HW323803   3.820   1.557   0.725  0.1546  0.2731  0.0480
 6009SOL    MW423804   3.849   1.571   0.805 -0.3247  0.5304  0.1849
 6010SOL     OW23805   0.380   5.094   4.358 -0.5897 -0.0736 -0.3487
 6010SOL    HW223806   0.347   5.094   4.268 -1.2088  0.0377 -0.1257
 6010SOL    HW323807   0.447   5.163   4.359 -2.5550  1.9685 -0.0350
 6010SOL    MW423808   0.385   5.103   4.346 -0.9307  0.2105 -0.2779
 6011SOL     OW23809   5.307   1.390   6.139 -0.6772 -0.2320  0.9048
 6011SOL    HW223810   5.320   1.404   6.233  0.6446 -1.6022  0.9766
 6011SOL    HW323811   5.377   1.329   6.115  0.6222  2.0249 -1.4952
 6011SOL    MW423812   5.318   1.384   6.148 -0.3313 -0.1150  0.5976
 6012SOL     OW23813   6.419   2.246   2.965  0.3180 -0.2669  0.5343
 6012SOL    HW223814   6.358   2.309   3.005  0.3124 -0.6548  1.1395
 6012SOL    HW323815   6.368   2.204   2.896 -0.1223 -0.6290  1.0748
 6012SOL    MW423816   6.404   2.249   2.961  0.2591 -0.3659  0.6855
 6013SOL     OW23817   1.385   4.083   0.554  0.0781  0.5717 -0.1571
 6013SOL    HW223818   1.395   4.069   0.648  0.0474  0.9723 -0.0940
 6013SOL    HW323819   1.446   4.154   0.533  0.9252 -0.2742 -0.6459
 6013SOL    MW423820   1.394   4.091   0.564  0.1858  0.5129 -0.2133
 6014SOL     OW23821   6.314   0.054   6.115  0.4092  0.2943 -0.9673
 6014SOL    HW223822   6.387   0.095   6.162 -0.5057  2.9876 -1.7110
 6014SOL    HW323823   6.246   0.044   6.182  1.4441 -2.4992 -0.2020
 6014SOL    MW423824   6.314   0.058   6.130  0.4251  0.2811 -0.9644
 6015SOL     OW23825   0.541   5.981   6.246 -0.1388  0.0220 -0.1283
 6015SOL    HW223826   0.467   6.041   6.261  0.1651 -0.0448  1.8827
 6015SOL    HW323827   0.610   6.037   6.212 -0.3690  0.5328  0.2250
 6015SOL    MW423828   0.540   5.996   6.244 -0.1291  0.0806  0.1837
 6016SOL     OW23829   3.335   4.842   4.136 -0.5946 -0.1084 -0.7288
 6016SOL    HW223830   3.252   4.887   4.150  0.0782  0.6005  1.2823
 6016SOL    HW323831   3.397   4.911   4.112  0.8734  0.6071  4.1197
 6016SOL    MW423832   3.332   4.857   4.134 -0.3122  0.0795  0.1762
 6017SOL     OW23833   1.118   4.198   3.632 -0.5468 -0.4380 -0.1967
 6017SOL    HW223834   1.175   4.269   3.661 -1.0380  0.9247 -2.2993
 6017SOL    HW323835   1.038   4.208   3.684  0.2185 -0.8999  1.1086
 6017SOL    MW423836   1.115   4.209   3.643 -0.5106 -0.3192 -0.3019
 6018SOL     OW23837   2.207   5.554   1.724 -0.4899  0.3293 -0.6344
 6018SOL    HW223838   2.120   5.573   1.688 -0.2819 -1.0483 -2.0164
 6018SOL    HW323839   2.195   5.476   1.777  0.4297 -2.4116 -4.0344
 6018SOL    MW423840   2.194   5.546   1.726 -0.3411 -0.2141 -1.2653
 6019SOL     OW23841   0.463   0.918   5.453 -0.3147  0.0917  0.2115
 6019SOL    HW223842   0.413   0.986   5.409  0.8324  0.6819 -0.2285
 6019SOL    HW323843   0.553   0.951   5.453  0.1893 -1.2258  0.3762
 6019SOL    MW423844   0.468   0.931   5.447 -0.0968 -0.0042  0.1752
 6020SOL     OW23845   4.168   3.737   4.001 -0.1210 -0.4734 -0.6904
 6020SOL    HW223846   4.117   3.664   3.965  1.6483 -1.3067 -1.6290
 6020SOL    HW323847   4.242   3.747   3.941  0.7426  0.7980  0.5123
 6020SOL    MW423848   4.171   3.729   3.988  0.2264 -0.4156 -0.6555
 6021SOL     OW23849   3.162   3.221   1.961  0.4928 -0.4684 -0.1401
 6021SOL    HW223850   3.152   3.140   2.012  1.1430  0.0564  0.8515
 6021SOL    HW323851   3.079   3.267   1.972 -0.3617 -1.5284 -1.7209
 6021SOL    MW423852   3.150   3.216   1.969  0.4658 -0.5390 -0.2178
 6022SOL     OW23853   1.934   1.980   0.018 -0.1434 -0.2522  0.0365
 6022SOL    HW223854   1.956   1.902   0.069  2.4028 -0.0374 -0.5964
 6022SOL    HW323855   1.897   1.946  -0.063 -1.8513 -0.6615  0.9464
 6022SOL    MW423856   1.932   1.965   0.014 -0.0328 -0.2778  0.0731
 6023SOL     OW23857   5.346   0.103   0.027 -0.3197  0.3430  0.2233
 6023SOL    HW223858   5.359   0.141  -0.060 -1.4757 -0.7364 -0.4506
 6023SOL    HW323859   5.297   0.023   0.011  0.0020 -0.2119  1.8274
 6023SOL    MW423860   5.341   0.097   0.014 -0.4298  0.1274  0.3460
 6024SOL     OW23861   1.525   4.223   2.173 -0.9506 -0.0005  0.5370
 6024SOL    HW223862   1.595   4.284   2.150 -0.9565  0.3971  1.5375
 6024SOL    HW323863   1.563   4.167   2.241 -1.1671 -0.6939  0.1068
 6024SOL    MW423864   1.539   4.224   2.179 -0.9800 -0.0395  0.6122
 6025SOL     OW23865   3.350   6.258   2.912  0.3064 -0.4429 -0.1508
 6025SOL    HW223866   3.421   6.286   2.854  0.0360 -0.4494 -0.4820
 6025SOL    HW323867   3.396   6.225   2.990  0.7304 -1.5321 -0.8267
 6025SOL    MW423868   3.366   6.257   2.915  0.3267 -0.5875 -0.2837
 6026SOL     OW23869   1.711   4.447   4.956  0.0400 -0.4866  0.1832
 6026SOL    HW223870   1.692   4.353   4.964 -1.3794 -0.0480  3.4192
 6026SOL    HW323871   1.625   4.489   4.956  0.7015  0.9234  0.8061
 6026SOL    MW423872   1.698   4.440   4.957 -0.0600 -0.2427  0.6923
 6027SOL     OW23873   3.162   4.356   2.097 -0.5815 -0.0984 -0.2805
 6027SOL    HW223874   3.095   4.328   2.034 -1.2140  1.3660 -0.2939
 6027SOL    HW323875   3.142   4.448   2.114 -0.4129 -0.4160  2.0273
 6027SOL    MW423876   3.150   4.365   2.091 -0.6427  0.0529  0.0222
 6028SOL     OW23877   2.714   1.056   4.102 -0.2982 -0.3520  0.2442
 6028SOL    HW223878   2.779   1.088   4.039 -2.0799  2.1363 -0.4712
 6028SOL    HW323879   2.744   1.090   4.187 -0.3703  0.3179  0.0039
 6028SOL    MW423880   2.727   1.064   4.105 -0.5428  0.0647  0.1181
 6029SOL     OW23881   1.453   1.667   1.141 -0.1054 -0.2216  0.1969
 6029SOL    HW223882   1.429   1.741   1.197 -0.7371  1.4814 -2.1671
 6029SOL    HW323883   1.370   1.623   1.124 -0.0831 -0.0831 -0.2688
 6029SOL    MW423884   1.439   1.671   1.146 -0.1858  0.0214 -0.1764
 6030SOL     OW23885   3.005   5.687   3.554  0.4359  0.0049  0.3188
 6030SOL    HW223886   2.996   5.687   3.459 -1.2754 -0.7420  0.4339
 6030SOL    HW323887   3.019   5.778   3.577  0.8585  0.1976 -0.6509
 6030SOL    MW423888   3.006   5.699   3.544  0.2659 -0.0682  0.2060
 6031SOL     OW23889   3.524   3.011   5.225  0.3267  0.1399  0.1368
 6031SOL    HW223890   3.576   2.987   5.302  0.7729 -0.3220 -0.2917
 6031SOL    HW323891   3.542   3.104   5.212 -1.0916  0.6478  1.5769
 6031SOL    MW423892   3.533   3.020   5.233  0.1984  0.1460  0.2702
 6032SOL     OW23893   0.625   1.831   5.930 -0.4394  0.2145 -0.2005
 6032SOL    HW223894   0.566   1.775   5.981  1.3018 -0.2941  1.3699
 6032SOL    HW323895   0.711   1.788   5.937 -0.1611 -0.2485 -4.1816
 6032SOL    MW423896   0.629   1.818   5.938 -0.1730  0.0863 -0.5186
 6033SOL     OW23897   5.910   0.022   3.844 -0.7582  0.0557  0.2629
 6033SOL    HW223898   5.826  -0.019   3.864 -0.8443  0.4793  0.7943
 6033SOL    HW323899   5.948   0.041   3.930  0.3055 -0.9781  0.0468
 6033SOL    MW423900   5.904   0.019   3.858 -0.6292 -0.0248  0.3045
 6034SOL     OW23901   0.488   6.014   4.051  0.2601 -0.4205  0.5717
 6034SOL    HW223902   0.464   6.068   4.126 -0.3147 -1.6880  1.3361
 6034SOL    HW323903   0.474   6.071   3.975 -2.7126 -0.2087  1.1591
 6034SOL    MW423904   0.483   6.029   4.051 -0.2079 -0.5598  0.7500
 6035SOL     OW23905   5.552   2.738   1.289  0.0046 -0.3263 -0.0188
 6035SOL    HW223906   5.492   2.751   1.363 -0.0847 -0.2958 -0.0970
 6035SOL    HW323907   5.584   2.826   1.269 -2.0744  0.1042 -1.8060
 6035SOL    MW423908   5.548   2.752   1.296 -0.2815 -0.2655 -0.2649
 6036SOL     OW23909   3.911   1.590   5.675  0.0115 -0.4513  0.0374
 6036SOL    HW223910   3.977   1.623   5.736  1.3130 -2.6603 -0.0418
 6036SOL    HW323911   3.856   1.533   5.728  0.9085 -2.0730 -0.6880
 6036SOL    MW423912   3.912   1.587   5.690  0.3016 -0.9567 -0.0688
 6037SOL     OW23913   3.971   5.479   0.768 -0.3367  0.5292 -0.0918
 6037SOL    HW223914   3.950   5.478   0.674  0.8448 -0.2706 -0.3661
 6037SOL    HW323915   3.894   5.439   0.810 -0.4046 -0.1344 -0.8275
 6037SOL    MW423916   3.958   5.474   0.761 -0.1897  0.3361 -0.2251
 6038SOL     OW23917   4.914   4.831   2.764  0.5407  0.3151 -0.4105
 6038SOL    HW223918   4.867   4.861   2.841  0.5251 -0.1092 -0.2499
 6038SOL    HW323919   4.898   4.736   2.762  1.4934  0.1399 -0.2761
 6038SOL    MW423920   4.905   4.822   2.774  0.6644  0.2360 -0.3716
 6039SOL     OW23921   0.037   0.844   0.388  0.3046 -0.7349 -0.3721
 6039SOL    HW223922   0.012   0.858   0.297  0.0027  0.8531 -0.0808
 6039SOL    HW323923  -0.047   0.843   0.435  0.4935 -0.9051 -0.0361
 6039SOL    MW423924   0.022   0.846   0.383  0.2897 -0.5478 -0.2893
 6040SOL     OW23925   1.695   4.516   1.560  0.1041 -0.3816  0.2308
 6040SOL    HW223926   1.732   4.512   1.648 -0.8113  1.2453  0.7324
 6040SOL    HW323927   1.657   4.430   1.546  2.4597 -1.5242  0.3801
 6040SOL    MW423928   1.695   4.504   1.570  0.2941 -0.3177  0.3167
 6041SOL     OW23929   2.093   2.576   1.773 -0.4843 -0.2990 -0.3291
 6041SOL    HW223930   2.159   2.510   1.749 -1.9084 -1.6051 -0.8360
 6041SOL    HW323931   2.069   2.616   1.690  0.1892  0.7238 -0.0495
 6041SOL    MW423932   2.099   2.572   1.759 -0.5833 -0.3364 -0.3591
 6042SOL     OW23933   3.493   5.186   2.198 -0.0366 -0.0061 -0.2625
 6042SOL    HW223934   3.527   5.239   2.126  0.3706  1.9658  1.3091
 6042SOL    HW323935   3.406   5.221   2.215  0.1755  0.0894  0.6987
 6042SOL    MW423936   3.486   5.198   2.191  0.0451  0.2667  0.0717
 6043SOL     OW23937   4.267   4.430   4.058  0.1467  0.1297 -0.1064
 6043SOL    HW223938   4.246   4.517   4.091 -0.4186  0.4956 -1.3900
 6043SOL    HW323939   4.280   4.442   3.964  1.2679 -0.9610 -0.1209
 6043SOL    MW423940   4.266   4.443   4.050  0.2201  0.0341 -0.2777
 6044SOL     OW23941   3.686   4.162   5.901 -0.0532  0.5496 -0.0470
 6044SOL    HW223942   3.679   4.177   5.807  0.5622  2.5948  0.1741
 6044SOL    HW323943   3.776   4.131   5.914 -0.5407 -1.0226 -0.2372
 6044SOL    MW423944   3.697   4.160   5.891 -0.0363  0.6120 -0.0429
 6045SOL     OW23945   2.677   1.106   0.219  0.2127 -0.3916  0.5980
 6045SOL    HW223946   2.674   1.068   0.307 -1.0013 -0.0385  0.7310
 6045SOL    HW323947   2.620   1.051   0.166 -0.3682  0.3475  0.4359
 6045SOL    MW423948   2.669   1.094   0.224 -0.0242 -0.2475  0.5941
 6046SOL     OW23949   3.244   4.590   1.379  0.2774 -0.2234  0.2072
 6046SOL    HW223950   3.332   4.626   1.387  0.5541 -1.1238  1.5525
 6046SOL    HW323951   3.254   4.512   1.324  0.3372 -0.3685  0.4228
 6046SOL    MW423952   3.257   4.584   1.373  0.3218 -0.3613  0.4131
 6047SOL     OW23953   3.587   4.098   2.838 -0.4985 -0.0618 -0.0981
 6047SOL    HW223954   3.590   4.062   2.926 -0.1076  0.1632 -0.0165
 6047SOL    HW323955   3.605   4.023   2.781 -2.6235 -0.6138 -0.1087
 6047SOL    MW423956   3.590   4.083   2.842 -0.7273 -0.1050 -0.0887
 6048SOL     OW23957   6.395   2.835   5.644  0.1619 -0.3366 -0.0211
 6048SOL    HW223958   6.488   2.830   5.667  0.4535  2.1832 -0.3223
 6048SOL    HW323959   6.349   2.798   5.719  1.3783 -0.4527  0.6853
 6048SOL    MW423960   6.401   2.830   5.657  0.3608 -0.0195  0.0324
 6049SOL     OW23961   3.011   5.333   2.742 -0.1823 -0.2236  0.0950
 6049SOL    HW223962   2.989   5.421   2.711  1.4368  0.3601  0.5210
 6049SOL    HW323963   3.098   5.342   2.779  0.9067 -2.4255 -1.6684
 6049SOL    MW423964   3.020   5.346   2.742  0.1750 -0.4371 -0.0814
 6050SOL     OW23965   5.228   4.969   0.027  0.5007 -0.2034 -0.2667
 6050SOL    HW223966   5.237   5.000  -0.064  3.8437 -0.4575 -0.1222
 6050SOL    HW323967   5.179   5.039   0.070 -0.4425  0.3214 -2.0603
 6050SOL    MW423968   5.223   4.983   0.020  0.8173 -0.1677 -0.4843
 6051SOL     OW23969   2.041   5.089   0.471  0.6008 -0.2563 -0.2984
 6051SOL    HW223970   1.991   5.129   0.399  1.3267 -0.7938 -1.1182
 6051SOL    HW323971   2.034   4.995   0.456 -0.0205 -0.4257  0.8915
 6051SOL    MW423972   2.033   5.082   0.459  0.6146 -0.3496 -0.2496
 6052SOL     OW23973   0.755   0.474   5.335 -0.3047  0.1401  0.6157
 6052SOL    HW223974   0.832   0.439   5.290 -0.4901  0.3194  0.1478
 6052SOL    HW323975   0.790   0.527   5.406  0.0371  0.9848 -0.1621
 6052SOL    MW423976   0.769   0.477   5.338 -0.2841  0.2752  0.4514
 6053SOL     OW23977   1.785   3.718   5.890 -0.3452  0.0359 -0.9219
 6053SOL    HW223978   1.698   3.690   5.861 -0.5594 -0.2499 -0.0367
 6053SOL    HW323979   1.805   3.659   5.963 -0.9493  2.3524  1.2788
 6053SOL    MW423980   1.776   3.706   5.896 -0.4532  0.3038 -0.5147
 6054SOL     OW23981   5.301   4.147   2.943  0.6638 -0.6253 -0.0395
 6054SOL    HW223982   5.303   4.235   2.981  3.6656  0.0640 -1.5219
 6054SOL    HW323983   5.215   4.141   2.901 -0.6697  0.5057  2.3099
 6054SOL    MW423984   5.290   4.157   2.942  0.8839 -0.3851  0.0749
 6055SOL     OW23985   2.493   4.418   1.826 -0.3240  0.4886 -0.7153
 6055SOL    HW223986   2.530   4.385   1.744  1.1196  0.2362  0.0029
 6055SOL    HW323987   2.403   4.386   1.826  0.6920 -2.6625 -0.5221
 6055SOL    MW423988   2.486   4.409   1.815  0.0005  0.0395 -0.5951
 6056SOL     OW23989   0.543   0.643   5.498 -0.1804  0.0279 -0.3337
 6056SOL    HW223990   0.531   0.735   5.477 -0.1108 -0.3169 -1.9977
 6056SOL    HW323991   0.607   0.643   5.569 -2.8257  1.4077  2.2809
 6056SOL    MW423992   0.550   0.655   5.505 -0.5202  0.1644 -0.2083
 6057SOL     OW23993   4.282   5.844   4.871  0.7014 -0.0333 -0.1697
 6057SOL    HW223994   4.294   5.769   4.813 -1.0663 -0.3546 -0.1579
 6057SOL    HW323995   4.190   5.841   4.896  0.5449  2.2118 -0.2715
 6057SOL    MW423996   4.271   5.834   4.866  0.4475  0.2205 -0.1816
 6058SOL     OW23997   1.960   0.208   0.777  0.1321 -0.1299 -0.0869
 6058SOL    HW223998   2.045   0.247   0.758  0.0911  0.0618  0.1191
 6058SOL    HW323999   1.903   0.237   0.705  0.7148 -1.8528 -1.3116
 6058SOL    MW424000   1.963   0.217   0.765  0.2036 -0.3319 -0.2213
 6059SOL     OW24001   2.081   4.511   5.511 -0.5447 -0.4973 -0.2929
 6059SOL    HW224002   2.058   4.480   5.598  2.1520 -0.7081  0.4552
 6059SOL    HW324003   2.129   4.438   5.471  1.7004  0.9000 -0.3530
 6059SOL    MW424004   2.084   4.497   5.517  0.1073 -0.3408 -0.2021
 6060SOL     OW24005   0.957   4.594   5.091 -0.0591  0.2324 -0.0189
 6060SOL    HW224006   0.903   4.522   5.126  2.5550 -1.8852 -0.0055
 6060SOL    HW324007   0.923   4.672   5.133 -2.2591 -1.1436  0.9411
 6060SOL    MW424008   0.945   4.595   5.101 -0.0044 -0.2285  0.1095
 6061SOL     OW24009   0.454   1.839   5.557 -0.2468 -0.1791 -0.5062
 6061SOL    HW224010   0.436   1.890   5.635  1.2709  0.4023 -0.5102
 6061SOL    HW324011   0.547   1.854   5.538 -0.0554 -1.9287 -1.2377
 6061SOL    MW424012   0.464   1.847   5.564 -0.0213 -0.3332 -0.6032
 6062SOL     OW24013   4.699   0.902   5.682  0.2662 -0.0238  0.7612
 6062SOL    HW224014   4.640   0.877   5.611  0.3973  0.3731  0.5063
 6062SOL    HW324015   4.695   0.998   5.684  1.5318  0.0546  0.1900
 6062SOL    MW424016   4.691   0.911   5.673  0.4505  0.0389  0.6522
 6063SOL     OW24017   2.804   4.961   1.649  0.1497  0.4087  0.2569
 6063SOL    HW224018   2.900   4.970   1.647  0.4076 -1.7995  0.4223
 6063SOL    HW324019   2.789   4.878   1.693 -1.9060  1.0906  0.9503
 6063SOL    MW424020   2.815   4.951   1.655 -0.0875  0.2073  0.3702
 6064SOL     OW24021   3.653   0.906   4.663  0.3545  0.2289  0.6946
 6064SOL    HW224022   3.731   0.872   4.706  0.3077  0.8861  1.3279
 6064SOL    HW324023   3.671   1.000   4.653 -0.2358  0.3323  0.5891
 6064SOL    MW424024   3.666   0.914   4.667  0.2705  0.3293  0.7643
 6065SOL     OW24025   1.723   2.985   5.273  0.2507  0.0351  0.5120
 6065SOL    HW224026   1.796   3.008   5.331 -1.1256  1.4650  1.7451
 6065SOL    HW324027   1.705   3.065   5.225 -1.6253  0.2626  1.5146
 6065SOL    MW424028   1.731   2.999   5.275 -0.1784  0.2538  0.8070
 6066SOL     OW24029   1.742   5.492   3.329  0.0987 -0.2307  0.1466
 6066SOL    HW224030   1.796   5.522   3.256 -0.1601 -1.0671 -0.4061
 6066SOL    HW324031   1.711   5.572   3.372  2.7922  0.3346  1.2584
 6066SOL    MW424032   1.745   5.506   3.325  0.4199 -0.2665  0.2204
 6067SOL     OW24033   4.882   3.172   5.440 -0.4938 -0.2126 -0.0227
 6067SOL    HW224034   4.845   3.256   5.468 -1.2703 -1.3141  2.5223
 6067SOL    HW324035   4.899   3.124   5.521  0.8390 -2.1703 -1.3553
 6067SOL    MW424036   4.879   3.177   5.454 -0.4204 -0.6162  0.1373
 6068SOL     OW24037   0.854   5.550   6.219 -0.4593 -0.5247 -0.7538
 6068SOL    HW224038   0.894   5.577   6.302 -0.9648 -2.9471  0.3610
 6068SOL    HW324039   0.871   5.623   6.159 -0.1591  1.3399  1.4840
 6068SOL    MW424040   0.862   5.563   6.222 -0.4864 -0.5983 -0.3115
 6069SOL     OW24041   0.133   1.605   0.976 -0.2536 -0.3414 -0.3826
 6069SOL    HW224042   0.181   1.525   0.999  0.1609 -0.2369 -0.8671
 6069SOL    HW324043   0.041   1.582   0.986 -0.1305 -0.8367 -0.3798
 6069SOL    MW424044   0.128   1.592   0.981 -0.1827 -0.3929 -0.4461
 6070SOL     OW24045   1.192   0.660   1.261  0.2375  0.0642  0.3888
 6070SOL    HW224046   1.186   0.566   1.277 -0.1085  0.1823  0.9867
 6070SOL    HW324047   1.286   0.678   1.256  0.2982 -0.3752 -0.1444
 6070SOL    MW424048   1.204   0.650   1.263  0.1998  0.0218  0.3973
 6071SOL     OW24049   6.075   0.991   4.778 -0.1256 -0.0533  0.0797
 6071SOL    HW224050   6.112   1.073   4.811 -0.9660 -0.4564  2.1547
 6071SOL    HW324051   6.148   0.930   4.777  0.3554  0.5203 -0.8220
 6071SOL    MW424052   6.089   0.994   4.782 -0.1730 -0.0308  0.2345
 6072SOL     OW24053   4.707   0.074   3.399  0.0091 -0.0029  0.4036
 6072SOL    HW224054   4.614   0.057   3.383  0.2869 -0.8097 -0.4801
 6072SOL    HW324055   4.752   0.012   3.341  1.0947  0.4501  0.7515
 6072SOL    MW424056   4.700   0.063   3.389  0.1890 -0.0496  0.3329
 6073SOL     OW24057   0.869   1.396   1.098  0.0855 -0.0607  0.4012
 6073SOL    HW224058   0.845   1.445   1.019 -0.7739  1.5472  1.5900
 6073SOL    HW324059   0.918   1.460   1.150  0.8723 -1.1816  1.0695
 6073SOL    MW424060   0.872   1.411   1.094  0.0759  0.0036  0.6463
 6074SOL     OW24061   3.278   2.151   3.850 -0.3066 -0.1295 -0.4469
 6074SOL    HW224062   3.324   2.201   3.784 -1.7294  1.5864 -0.2032
 6074SOL    HW324063   3.345   2.129   3.915  0.7070 -0.2035 -1.4875
 6074SOL    MW424064   3.293   2.154   3.850 -0.3606  0.0871 -0.5521
 6075SOL     OW24065   5.184   3.632   5.395 -0.1713 -0.0045  0.6553
 6075SOL    HW224066   5.186   3.581   5.476  0.0369  0.4139  0.9154
 6075SOL    HW324067   5.271   3.618   5.356  0.1946  0.8086  1.1442
 6075SOL    MW424068   5.196   3.623   5.400 -0.0955  0.1580  0.7541
 6076SOL     OW24069   2.826   4.065   3.860  0.1341 -0.0991 -0.2195
 6076SOL    HW224070   2.919   4.083   3.842 -0.0831  0.5798 -0.7366
 6076SOL    HW324071   2.780   4.135   3.813 -0.5768  0.3950  1.1813
 6076SOL    MW424072   2.833   4.077   3.851  0.0117  0.0557 -0.1029
 6077SOL     OW24073   2.563   1.335   4.556 -0.2066  0.3066  0.0254
 6077SOL    HW224074   2.544   1.425   4.528 -0.3181  0.5404  0.8488
 6077SOL    HW324075   2.628   1.345   4.625 -0.2361 -0.2545  0.1348
 6077SOL    MW424076   2.569   1.348   4.561 -0.2252  0.2634  0.1485
 6078SOL     OW24077   0.182   2.357   0.160 -0.7817  0.2010 -0.5350
 6078SOL    HW224078   0.133   2.338   0.080  0.8299  0.2805 -1.5835
 6078SOL    HW324079   0.157   2.446   0.183 -3.2902 -0.7008  0.6300
 6078SOL    MW424080   0.172   2.366   0.152 -0.9000  0.0925 -0.5196
 6079SOL     OW24081   6.414   0.837   4.481  0.2173  0.0488 -0.6359
 6079SOL    HW224082   6.422   0.746   4.508  1.7580 -0.2973 -2.0901
 6079SOL    HW324083   6.331   0.840   4.433 -0.2858 -0.3507  0.1790
 6079SOL    MW424084   6.404   0.826   4.478  0.3542 -0.0496 -0.7203
 6080SOL     OW24085   0.562   3.841   0.772  0.2978  0.1455  0.8965
 6080SOL    HW224086   0.640   3.808   0.816  0.8954  0.4981  0.1129
 6080SOL    HW324087   0.491   3.824   0.835  1.0575  0.2283  1.8053
 6080SOL    MW424088   0.563   3.834   0.786  0.4769  0.2029  0.9130
 6081SOL     OW24089   6.116   2.942   0.882  0.0456  0.5431 -0.1737
 6081SOL    HW224090   6.110   2.890   0.962  1.2170  0.6579  0.0090
 6081SOL    HW324091   6.147   2.880   0.816  0.4779  0.7689 -0.1891
 6081SOL    MW424092   6.120   2.927   0.884  0.2572  0.5880 -0.1516
 6082SOL     OW24093   6.170   3.671   5.730  0.4245 -0.4309 -0.1283
 6082SOL    HW224094   6.161   3.750   5.677 -0.0956  0.1710  0.8377
 6082SOL    HW324095   6.094   3.672   5.788  1.9115 -0.0996  1.9018
 6082SOL    MW424096   6.159   3.682   5.730  0.5521 -0.3078  0.2670
 6083SOL     OW24097   3.859   3.933   6.014 -0.2667  0.1245 -0.4411
 6083SOL    HW224098   3.781   3.924   6.070  0.1911 -1.1123  0.0347
 6083SOL    HW324099   3.837   3.884   5.935 -0.4643  0.8817 -0.8592
 6083SOL    MW424100   3.845   3.925   6.011 -0.2323  0.0613 -0.4335
 6084SOL     OW24101   5.590   2.530   3.660 -0.2560  0.6606 -0.1298
 6084SOL    HW224102   5.639   2.538   3.579 -0.2703  1.7305 -0.0438
 6084SOL    HW324103   5.656   2.509   3.726 -0.3561 -1.0679 -0.5413
 6084SOL    MW424104   5.605   2.528   3.658 -0.2710  0.5737 -0.1728
 6085SOL     OW24105   4.770   4.496   0.095 -0.1394  0.0815  0.6044
 6085SOL    HW224106   4.827   4.422   0.119  1.0239  0.6512 -0.3218
 6085SOL    HW324107   4.682   4.458   0.094  0.4834 -1.4609 -0.4271
 6085SOL    MW424108   4.766   4.481   0.098  0.0963 -0.0468  0.3461
 6086SOL     OW24109   2.120   1.078   0.661  0.1620  0.3941  0.1998
 6086SOL    HW224110   2.162   1.049   0.742 -1.2665 -0.4694  0.6661
 6086SOL    HW324111   2.053   1.140   0.690 -0.8896 -0.5156 -0.2254
 6086SOL    MW424112   2.117   1.083   0.676 -0.1652  0.1601  0.2052
 6087SOL     OW24113   5.238   3.044   4.755 -0.0748 -0.1016 -0.2367
 6087SOL    HW224114   5.201   3.113   4.700  1.4499  1.9129  1.0788
 6087SOL    HW324115   5.234   2.965   4.701  0.7057  1.5921 -2.9975
 6087SOL    MW424116   5.233   3.043   4.740  0.2293  0.3876 -0.4274
 6088SOL     OW24117   3.475   5.127   1.459  0.4085 -0.1772 -0.9369
 6088SOL    HW224118   3.410   5.195   1.474  0.6273  0.1255 -1.3320
 6088SOL    HW324119   3.434   5.046   1.489  0.3357  0.2013  0.0150
 6088SOL    MW424120   3.461   5.125   1.465  0.4278 -0.0874 -0.8635
 6089SOL     OW24121   1.261   5.419   3.319  0.9452  0.2530 -0.0519
 6089SOL    HW224122   1.263   5.492   3.381 -0.5983  1.5841 -1.4717
 6089SOL    HW324123   1.180   5.432   3.269  1.2891 -1.7084 -1.2225
 6089SOL    MW424124   1.251   5.431   3.320  0.7869  0.1698 -0.3936
 6090SOL     OW24125   2.659   6.274   3.455  0.2851  0.0589 -0.2659
 6090SOL    HW224126   2.622   6.201   3.406 -0.2241  0.2880 -0.2324
 6090SOL    HW324127   2.601   6.348   3.435  1.0632  0.5628 -0.6661
 6090SOL    MW424128   2.646   6.274   3.446  0.3206  0.1556 -0.3143
 6091SOL     OW24129   0.396   1.249   3.290 -0.3954 -0.2373  0.4177
 6091SOL    HW224130   0.484   1.283   3.309  0.6782 -2.4271 -0.3255
 6091SOL    HW324131   0.337   1.316   3.324  1.5459  1.0755  1.3990
 6091SOL    MW424132   0.400   1.262   3.297  0.0024 -0.3530  0.4491
 6092SOL     OW24133   6.059   1.900   4.748  0.2094  0.4610  0.1755
 6092SOL    HW224134   6.085   1.810   4.771  3.2865  1.4721  1.1994
 6092SOL    HW324135   6.015   1.933   4.827 -0.6746 -0.0168 -0.1025
 6092SOL    MW424136   6.057   1.892   4.761  0.4988  0.5313  0.2739
 6093SOL     OW24137   1.314   0.161   3.891  0.1413  0.0673  0.0021
 6093SOL    HW224138   1.368   0.214   3.833  1.2245 -1.5591 -0.5492
 6093SOL    HW324139   1.231   0.150   3.843  1.4864 -2.3857 -2.0030
 6093SOL    MW424140   1.310   0.166   3.877  0.4617 -0.4709 -0.3352
 6094SOL     OW24141   5.379   3.695   3.089  0.0282 -0.3854 -0.3200
 6094SOL    HW224142   5.287   3.720   3.096 -0.2462 -1.4143 -0.0810
 6094SOL    HW324143   5.419   3.763   3.036 -0.9717 -0.1658 -0.7992
 6094SOL    MW424144   5.372   3.707   3.083 -0.1400 -0.4922 -0.3517
 6095SOL     OW24145   0.814   3.600   3.720 -0.0622  0.2184 -0.0065
 6095SOL    HW224146   0.812   3.518   3.671  1.5093  0.4338 -0.4943
 6095SOL    HW324147   0.827   3.667   3.654  1.7800  0.5427  0.6214
 6095SOL    MW424148   0.816   3.598   3.705  0.3882  0.2896  0.0120
 6096SOL     OW24149   1.364   0.881   4.846 -0.1687 -0.9720  0.1208
 6096SOL    HW224150   1.426   0.945   4.812  0.0095 -0.7286  0.8940
 6096SOL    HW324151   1.280   0.926   4.846 -0.4295 -1.4000 -1.2173
 6096SOL    MW424152   1.361   0.895   4.841 -0.1796 -0.9963  0.0463
 6097SOL     OW24153   3.850   1.445   6.263  0.0091 -0.4632  0.4838
 6097SOL    HW224154   3.851   1.540   6.277 -0.0969 -0.4681  0.5255
 6097SOL    HW324155   3.904   1.410   6.335 -0.5079 -0.4857  0.8646
 6097SOL    MW424156   3.858   1.453   6.274 -0.0731 -0.4668  0.5396
 6098SOL     OW24157   0.545   4.097   1.938 -0.1934  0.4063 -0.4070
 6098SOL    HW224158   0.590   4.163   1.990  0.8192  0.7913 -1.6958
 6098SOL    HW324159   0.532   4.139   1.853 -1.7017 -0.2261 -0.5154
 6098SOL    MW424160   0.550   4.111   1.933 -0.2588  0.3736 -0.5913
 6099SOL     OW24161   2.921   2.348   0.503 -0.1468 -0.4622  0.0653
 6099SOL    HW224162   2.906   2.281   0.571 -1.2791  0.4081  0.7067
 6099SOL    HW324163   2.834   2.381   0.482  0.3807  0.7433 -0.3145
 6099SOL    MW424164   2.908   2.343   0.509 -0.2266 -0.1883  0.0998
 6100SOL     OW24165   0.362   2.600   5.087  0.2538 -0.2340 -0.2029
 6100SOL    HW224166   0.344   2.693   5.096 -0.4933 -0.4529  0.7223
 6100SOL    HW324167   0.430   2.582   5.152 -1.1679 -0.7325  1.2223
 6100SOL    MW424168   0.369   2.610   5.097 -0.0323 -0.3287  0.1072
 6101SOL     OW24169   1.188   1.153   1.721 -0.2046  0.5041  0.2260
 6101SOL    HW224170   1.263   1.094   1.734  0.1060  1.3789  3.0426
 6101SOL    HW324171   1.113   1.094   1.714  0.1659 -0.3471  2.4601
 6101SOL    MW424172   1.188   1.137   1.722 -0.1147  0.5072  0.8924
 6102SOL     OW24173   2.889   5.816   5.764 -0.2030 -0.1301 -0.0307
 6102SOL    HW224174   2.859   5.885   5.823  0.2940  0.1262 -0.0704
 6102SOL    HW324175   2.938   5.863   5.696  1.1465 -0.6116  0.5779
 6102SOL    MW424176   2.892   5.831   5.763  0.0406 -0.1598  0.0444
 6103SOL     OW24177   2.962   6.117   1.347  1.0472 -0.3100 -0.9413
 6103SOL    HW224178   3.023   6.091   1.279  0.6883  3.0898 -2.7790
 6103SOL    HW324179   2.991   6.205   1.373 -1.6024  0.4090 -0.1218
 6103SOL    MW424180   2.974   6.126   1.341  0.6502  0.2334 -1.0756
 6104SOL     OW24181   1.827   2.279   5.606 -0.5244 -0.7725 -0.1812
 6104SOL    HW224182   1.860   2.322   5.527  0.2964  1.3263  1.2133
 6104SOL    HW324183   1.734   2.300   5.608  0.0029  1.8197  0.8951
 6104SOL    MW424184   1.819   2.287   5.596 -0.3466 -0.1536  0.1448
 6105SOL     OW24185   4.884   3.201   4.474 -0.6337  0.0229 -0.2823
 6105SOL    HW224186   4.801   3.159   4.451 -0.9891  1.4333 -1.8098
 6105SOL    HW324187   4.929   3.213   4.390  0.9537 -0.3390  0.4788
 6105SOL    MW424188   4.879   3.197   4.460 -0.4711  0.1613 -0.3834
 6106SOL     OW24189   5.907   1.613   4.539 -0.5245 -0.3939  0.1357
 6106SOL    HW224190   5.976   1.624   4.604  0.1884 -1.0786 -0.4725
 6106SOL    HW324191   5.954   1.607   4.455 -1.4192  0.5562 -0.4593
 6106SOL    MW424192   5.923   1.613   4.536 -0.5485 -0.3589 -0.0231
 6107SOL     OW24193   1.758   4.400   5.453 -0.1894 -0.3149 -0.2539
 6107SOL    HW224194   1.774   4.476   5.509 -0.0335  0.2212 -1.0124
 6107SOL    HW324195   1.729   4.437   5.370 -2.6292 -1.1541  0.1280
 6107SOL    MW424196   1.756   4.415   5.450 -0.4907 -0.3549 -0.3036
 6108SOL     OW24197   5.856   4.264   1.332  0.5206  0.1353  0.1913
 6108SOL    HW224198   5.868   4.355   1.305 -0.1056  0.2708  0.3388
 6108SOL    HW324199   5.769   4.241   1.298  1.2419 -0.8728 -1.0953
 6108SOL    MW424200   5.846   4.273   1.324  0.5331  0.0202  0.0410
 6109SOL     OW24201   0.346   0.818   4.749 -0.8289 -0.1227 -0.8378
 6109SOL    HW224202   0.351   0.734   4.705  0.4056 -1.3811  1.5022
 6109SOL    HW324203   0.289   0.803   4.825 -1.9812  1.6421 -1.2758
 6109SOL    MW424204   0.339   0.805   4.753 -0.8180 -0.0559 -0.5868
 6110SOL     OW24205   3.474   4.199   3.789  0.3191 -0.0460 -0.7288
 6110SOL    HW224206   3.449   4.287   3.760  1.3188  0.0346 -1.4250
 6110SOL    HW324207   3.433   4.189   3.875 -1.9445  0.0922 -1.7248
 6110SOL    MW424208   3.466   4.209   3.796  0.1524 -0.0172 -0.9521
 6111SOL     OW24209   5.979   0.684   1.503 -0.6418  0.2747 -0.0039
 6111SOL    HW224210   6.056   0.650   1.458 -0.3789  0.8242  0.0248
 6111SOL    HW324211   6.004   0.772   1.529 -0.8051 -0.0148  1.1754
 6111SOL    MW424212   5.993   0.691   1.500 -0.6286  0.3090  0.1555
 6112SOL     OW24213   4.209   2.331   0.627  0.0951 -0.2591  0.3762
 6112SOL    HW224214   4.219   2.241   0.597  2.7016 -0.0066  0.2664
 6112SOL    HW324215   4.256   2.334   0.710 -0.9544  0.7321  0.9509
 6112SOL    MW424216   4.217   2.320   0.634  0.3005 -0.0950  0.4375
 6113SOL     OW24217   0.379   1.522   1.747  0.6582  0.2302 -0.4269
 6113SOL    HW224218   0.382   1.459   1.819 -0.3065  1.8162  1.1049
 6113SOL    HW324219   0.452   1.497   1.690  1.2020 -1.3588  0.8731
 6113SOL    MW424220   0.389   1.510   1.749  0.6027  0.2298 -0.0533
 6114SOL     OW24221   2.533   3.889   1.190 -0.2633 -0.3462 -0.3448
 6114SOL    HW224222   2.492   3.975   1.180 -1.6215 -0.9130  0.1189
 6114SOL    HW324223   2.460   3.827   1.186  0.4153 -1.3377  1.4557
 6114SOL    MW424224   2.518   3.892   1.188 -0.3529 -0.5518 -0.0461
 6115SOL     OW24225   1.909   3.614   3.107 -0.4943  0.2622 -0.3992
 6115SOL    HW224226   1.966   3.605   3.184  1.2189  1.1332 -1.4969
 6115SOL    HW324227   1.851   3.687   3.129  0.2953  0.8175 -0.0899
 6115SOL    MW424228   1.909   3.622   3.120 -0.1641  0.4504 -0.5032
 6116SOL     OW24229   5.512   3.303   2.874 -0.0141  0.1427 -0.0727
 6116SOL    HW224230   5.459   3.379   2.851  0.1010  0.3311  0.2675
 6116SOL    HW324231   5.565   3.286   2.796 -2.0260 -1.3448 -1.2174
 6116SOL    MW424232   5.512   3.311   2.861 -0.2644 -0.0287 -0.1788
 6117SOL     OW24233   3.507   4.199   1.201 -0.1996  0.3539  0.3857
 6117SOL    HW224234   3.501   4.123   1.144 -0.4002  2.8304 -3.2517
 6117SOL    HW324235   3.417   4.226   1.216 -0.0908  1.4196 -0.7319
 6117SOL    MW424236   3.495   4.193   1.196 -0.2117  0.8212 -0.2416
 6118SOL     OW24237   0.400   2.749   0.155 -0.1729  0.4521 -0.2732
 6118SOL    HW224238   0.469   2.691   0.187  1.7544  1.7650 -1.8211
 6118SOL    HW324239   0.319   2.700   0.170  1.2359 -2.0304 -0.2475
 6118SOL    MW424240   0.398   2.735   0.161  0.2672  0.2978 -0.4740
 6119SOL     OW24241   4.011   0.466   3.402  0.3396  0.0236  0.1867
 6119SOL    HW224242   4.006   0.539   3.341 -2.3436  1.2553  1.7070
 6119SOL    HW324243   3.943   0.405   3.373  1.1349 -0.9032  0.1844
 6119SOL    MW424244   4.001   0.467   3.391  0.0905  0.0638  0.3870
 6120SOL     OW24245   2.411   6.378   4.409  0.4180  0.0169  0.3728
 6120SOL    HW224246   2.506   6.364   4.415  0.6078  0.7405 -0.7468
 6120SOL    HW324247   2.378   6.353   4.496  1.5075 -1.1030  0.4911
 6120SOL    MW424248   2.419   6.373   4.422  0.5868 -0.0354  0.2407
 6121SOL     OW24249   1.253   2.342   6.175 -0.1368  0.3672 -0.1447
 6121SOL    HW224250   1.193   2.291   6.229  1.0013 -0.4137  0.4397
 6121SOL    HW324251   1.210   2.426   6.162 -1.4729 -0.2787 -0.0113
 6121SOL    MW424252   1.240   2.347   6.180 -0.1629  0.1789 -0.0500
 6122SOL     OW24253   0.728   1.025   0.043 -0.2073  0.0221  0.1652
 6122SOL    HW224254   0.677   0.953   0.006  2.0111 -2.0750  0.8712
 6122SOL    HW324255   0.804   1.033  -0.015 -0.2739  1.6496  0.2562
 6122SOL    MW424256   0.732   1.016   0.031  0.0766 -0.0398  0.2704
 6123SOL     OW24257   2.895   2.001   3.103  0.2302  0.4336 -0.0260
 6123SOL    HW224258   2.883   1.970   3.013 -0.5549 -0.0115  0.2190
 6123SOL    HW324259   2.860   1.930   3.157  3.1043 -0.5107  0.7583
 6123SOL    MW424260   2.889   1.987   3.098  0.5058  0.2503  0.1098
 6124SOL     OW24261   1.926   4.980   4.670  0.4498  0.0233  0.1967
 6124SOL    HW224262   1.866   5.029   4.726  0.4857  2.1965 -1.5155
 6124SOL    HW324263   2.007   5.032   4.670  0.6594 -0.2589 -1.3100
 6124SOL    MW424264   1.929   4.994   4.677  0.4822  0.2728 -0.2280
 6125SOL     OW24265   2.871   0.122   4.319 -0.8432 -0.0407 -0.4839
 6125SOL    HW224266   2.819   0.197   4.290 -0.0834  0.3223 -0.9440
 6125SOL    HW324267   2.904   0.148   4.405 -0.3719  0.2694 -0.7525
 6125SOL    MW424268   2.869   0.135   4.327 -0.6807  0.0481 -0.5800
 6126SOL     OW24269   1.041   2.863   5.508  0.0697  0.1256  0.0856
 6126SOL    HW224270   1.104   2.844   5.438  0.4015 -1.0266  0.6632
 6126SOL    HW324271   0.960   2.821   5.479  0.3569 -0.8324  0.6177
 6126SOL    MW424272   1.039   2.855   5.494  0.1514 -0.1528  0.2320
 6127SOL     OW24273   4.860   3.588   1.398 -0.1083  0.6645 -0.1445
 6127SOL    HW224274   4.897   3.669   1.433 -1.1260  1.4335 -0.7840
 6127SOL    HW324275   4.919   3.562   1.328 -0.0501  1.1402 -0.2730
 6127SOL    MW424276   4.872   3.595   1.393 -0.2349  0.8287 -0.2458
 6128SOL     OW24277   2.203   0.342   3.359  0.3440 -0.0758 -0.4159
 6128SOL    HW224278   2.251   0.259   3.361 -1.1911 -1.1536 -3.2897
 6128SOL    HW324279   2.158   0.346   3.443  1.3188 -1.5920  0.2148
 6128SOL    MW424280   2.204   0.332   3.370  0.2701 -0.4181 -0.7119
 6129SOL     OW24281   3.617   2.050   0.553  0.3483  0.1079 -0.6038
 6129SOL    HW224282   3.652   2.054   0.464  2.4390 -1.1446  0.0716
 6129SOL    HW324283   3.624   1.957   0.576 -0.7152  0.3219  0.6525
 6129SOL    MW424284   3.623   2.038   0.544  0.4838 -0.0291 -0.3489
 6130SOL     OW24285   1.879   1.316   2.214 -0.4516 -0.0514  0.5123
 6130SOL    HW224286   1.851   1.288   2.301  0.3905 -0.4122  0.6840
 6130SOL    HW324287   1.801   1.354   2.174 -0.3614  2.1057  2.2018
 6130SOL    MW424288   1.865   1.317   2.220 -0.3286  0.1856  0.7579
 6131SOL     OW24289   4.283   5.758   0.849 -0.1019 -0.2768 -0.7685
 6131SOL    HW224290   4.316   5.847   0.838 -0.0783 -0.2780 -0.7066
 6131SOL    HW324291   4.361   5.703   0.849 -0.0696 -0.2372 -0.1591
 6131SOL    MW424292   4.297   5.763   0.847 -0.0945 -0.2717 -0.6799
 6132SOL     OW24293   3.348   3.995   5.593 -0.1762 -0.4029  0.1877
 6132SOL    HW224294   3.356   4.071   5.650  0.4561 -1.2287  1.2551
 6132SOL    HW324295   3.434   3.954   5.596  0.0226 -0.2251 -1.7748
 6132SOL    MW424296   3.360   3.999   5.601 -0.0665 -0.4884  0.0696
 6133SOL     OW24297   4.369   2.944   3.473  0.2249  0.4265 -0.0685
 6133SOL    HW224298   4.363   2.848   3.471  0.3583  0.2932  2.5430
 6133SOL    HW324299   4.339   2.971   3.386  1.3243 -2.0034 -1.3143
 6133SOL    MW424300   4.364   2.935   3.461  0.3876  0.0883  0.1117
 6134SOL     OW24301   0.664   3.524   0.286 -0.2057  0.5101  0.0197
 6134SOL    HW224302   0.699   3.457   0.227 -0.3565  0.0035  0.4988
 6134SOL    HW324303   0.591   3.481   0.330 -1.3789  1.5061 -0.8798
 6134SOL    MW424304   0.659   3.509   0.284 -0.3804  0.5747 -0.0358
 6135SOL     OW24305   5.286   4.166   6.278  0.0767 -0.4701 -0.0997
 6135SOL    HW224306   5.360   4.106   6.289  0.4257 -0.0487 -0.1228
 6135SOL    HW324307   5.303   4.211   6.196 -0.5875 -0.8915 -0.4808
 6135SOL    MW424308   5.298   4.164   6.269  0.0351 -0.4701 -0.1530
 6136SOL     OW24309   5.321   1.576   5.139 -1.0626  0.0383 -0.5655
 6136SOL    HW224310   5.267   1.543   5.067 -0.5856 -0.4382 -0.7107
 6136SOL    HW324311   5.368   1.651   5.103 -0.9793 -0.0743 -0.6926
 6136SOL    MW424312   5.320   1.581   5.125 -0.9887 -0.0394 -0.6014
 6137SOL     OW24313   0.740   2.322   5.341 -0.4516  0.1296  0.2855
 6137SOL    HW224314   0.831   2.333   5.311  0.5976  0.2901  3.1702
 6137SOL    HW324315   0.744   2.248   5.401 -2.9459 -1.9208 -1.8645
 6137SOL    MW424316   0.753   2.314   5.345 -0.6423 -0.1197  0.3824
 6138SOL     OW24317   5.016   5.436   2.073  0.4760 -0.3009 -0.2350
 6138SOL    HW224318   4.944   5.445   2.010  0.1496  0.0251  0.1708
 6138SOL    HW324319   5.095   5.457   2.024  0.1433  0.7669 -0.3417
 6138SOL    MW424320   5.017   5.440   2.058  0.3891 -0.1170 -0.1955
 6139SOL     OW24321   0.688   4.605   4.436  0.9701  0.2688 -0.7247
 6139SOL    HW224322   0.693   4.560   4.351 -1.1614  0.4823 -1.0049
 6139SOL    HW324323   0.625   4.554   4.486  3.2710 -0.7487  1.3736
 6139SOL    MW424324   0.681   4.592   4.431  0.9924  0.1627 -0.4849
 6140SOL     OW24325   1.503   4.488   0.703 -0.2990  0.2769  0.4417
 6140SOL    HW224326   1.583   4.441   0.727 -1.6325 -1.6478  1.4276
 6140SOL    HW324327   1.531   4.551   0.637  1.9859 -0.4358  0.6357
 6140SOL    MW424328   1.517   4.490   0.698 -0.1735 -0.0711  0.5974
 6141SOL     OW24329   6.411   3.114   3.137 -0.0219  0.1078  0.3288
 6141SOL    HW224330   6.505   3.099   3.125 -0.3028 -1.2268 -0.3451
 6141SOL    HW324331   6.374   3.107   3.049 -0.8210  0.1604  0.6490
 6141SOL    MW424332   6.418   3.111   3.124 -0.1644 -0.0614  0.2821
 6142SOL     OW24333   1.597   4.324   3.757  0.1399  0.0315  0.7636
 6142SOL    HW224334   1.672   4.286   3.802  1.6756  1.4417 -0.4617
 6142SOL    HW324335   1.602   4.417   3.777 -1.3217  0.1412  0.6830
 6142SOL    MW424336   1.608   4.331   3.765  0.1497  0.2320  0.5913
 6143SOL     OW24337   1.635   2.489   4.369  0.2812 -0.1601  0.2824
 6143SOL    HW224338   1.674   2.476   4.455 -0.5767 -0.1279  0.6900
 6143SOL    HW324339   1.551   2.531   4.387  0.3143  0.3111 -0.6074
 6143SOL    MW424340   1.629   2.493   4.383  0.1724 -0.0937  0.2188
 6144SOL     OW24341   4.604   2.692   2.403 -0.6827  0.4278  0.1158
 6144SOL    HW224342   4.637   2.609   2.369 -1.4274  0.1352  0.0744
 6144SOL    HW324343   4.564   2.668   2.487 -1.2167  0.6790 -0.0640
 6144SOL    MW424344   4.603   2.678   2.410 -0.8514  0.4224  0.0866
 6145SOL     OW24345   5.782   5.734   6.152 -0.2516  0.9385 -0.2019
 6145SOL    HW224346   5.877   5.718   6.148 -0.2838 -0.1584  1.9756
 6145SOL    HW324347   5.772   5.825   6.126  1.0946  0.4309 -2.8995
 6145SOL    MW424348   5.793   5.744   6.148 -0.0782  0.7268 -0.2705
 6146SOL     OW24349   4.515   4.949   2.525 -0.1948  0.0798  0.3563
 6146SOL    HW224350   4.483   4.908   2.606  0.4386  0.3325  0.7370
 6146SOL    HW324351   4.436   4.986   2.486 -0.6574 -0.7952  0.4090
 6146SOL    MW424352   4.500   4.948   2.531 -0.1723 -0.0023  0.4135
 6147SOL     OW24353   1.206   6.278   6.409 -0.4172 -0.2359 -0.1137
 6147SOL    HW224354   1.285   6.310   6.453 -1.4660  1.8379  0.4085
 6147SOL    HW324355   1.189   6.343   6.341 -0.7472 -1.5721 -1.3587
 6147SOL    MW424356   1.214   6.291   6.406 -0.5991 -0.1386 -0.2090
 6148SOL     OW24357   1.281   2.763   2.072  0.3566 -0.5391  0.1691
 6148SOL    HW224358   1.316   2.769   1.983 -0.0929  0.2826  0.0342
 6148SOL    HW324359   1.191   2.793   2.064 -0.0730 -1.6101  0.6964
 6148SOL    MW424360   1.274   2.768   2.059  0.2406 -0.5720  0.2208
 6149SOL     OW24361   5.416   3.265   4.863 -0.3232 -0.3570 -0.3641
 6149SOL    HW224362   5.497   3.240   4.820 -0.7813 -0.1932 -1.3387
 6149SOL    HW324363   5.358   3.190   4.852  0.2404 -1.2265  1.9034
 6149SOL    MW424364   5.419   3.252   4.856 -0.3093 -0.4501 -0.1935
 6150SOL     OW24365   1.071   3.183   4.168  0.4529  0.2179  0.2291
 6150SOL    HW224366   0.992   3.167   4.220  1.3396 -0.2525  1.4958
 6150SOL    HW324367   1.039   3.219   4.085 -1.0923 -0.1959  0.6174
 6150SOL    MW424368   1.056   3.186   4.164  0.3660  0.1013  0.4474
 6151SOL     OW24369   3.800   0.558   4.666 -0.1959 -0.1989 -0.4887
 6151SOL    HW224370   3.739   0.555   4.739  1.0379 -0.7283  0.5603
 6151SOL    HW324371   3.855   0.480   4.677  1.6297  1.0143 -0.5226
 6151SOL    MW424372   3.799   0.547   4.677  0.2078 -0.1087 -0.3548
 6152SOL     OW24373   0.032   1.344   1.683  0.4785  0.3665 -0.0311
 6152SOL    HW224374   0.092   1.275   1.712  0.8952 -0.4046 -2.4488
 6152SOL    HW324375  -0.055   1.306   1.694  0.7104 -0.7006 -1.4969
 6152SOL    MW424376   0.029   1.330   1.688  0.5641  0.1240 -0.5435
 6153SOL     OW24377   2.461   5.683   3.786 -0.3037  0.2288 -0.0992
 6153SOL    HW224378   2.428   5.772   3.779 -2.5494 -0.5419 -0.2168
 6153SOL    HW324379   2.507   5.680   3.870 -1.6877  1.0773  0.7195
 6153SOL    MW424380   2.463   5.694   3.796 -0.7826  0.2390 -0.0067
 6154SOL     OW24381   2.068   2.793   4.772  0.0164  0.0589 -0.1902
 6154SOL    HW224382   2.093   2.763   4.685  0.1658  0.1457 -0.1789
 6154SOL    HW324383   2.149   2.786   4.823  0.3863  1.6327 -0.4987
 6154SOL    MW424384   2.082   2.789   4.767  0.0849  0.2780 -0.2294
 6155SOL     OW24385   5.947   2.942   4.582  0.9102  0.2077 -0.2933
 6155SOL    HW224386   5.923   2.947   4.490  1.2920  2.4963 -0.3401
 6155SOL    HW324387   5.879   2.887   4.622 -1.1315  1.7671 -1.4090
 6155SOL    MW424388   5.935   2.936   4.575  0.6912  0.7154 -0.4467
 6156SOL     OW24389   5.417   5.835   1.710  0.2972  0.0647 -0.3142
 6156SOL    HW224390   5.358   5.794   1.646  0.9854  0.9874 -1.5683
 6156SOL    HW324391   5.358   5.869   1.777 -0.4155 -1.2159 -0.2539
 6156SOL    MW424392   5.401   5.834   1.710  0.2939  0.0175 -0.4717
 6157SOL     OW24393   0.495   0.450   5.925 -0.2823 -0.1324 -0.7106
 6157SOL    HW224394   0.400   0.449   5.923 -0.2834 -0.0073 -0.7461
 6157SOL    HW324395   0.518   0.542   5.914 -0.1531 -0.1822 -0.8588
 6157SOL    MW424396   0.486   0.462   5.923 -0.2654 -0.1225 -0.7349
 6158SOL     OW24397   2.184   6.347   0.968  0.6026 -0.2482  0.5917
 6158SOL    HW224398   2.225   6.266   0.999 -0.2248 -0.4153  1.2836
 6158SOL    HW324399   2.109   6.360   1.026 -0.0238  0.3267 -0.3119
 6158SOL    MW424400   2.180   6.338   0.980  0.4108 -0.1944  0.5638
 6159SOL     OW24401   4.740   5.833   1.392  0.1493 -0.2540  0.3640
 6159SOL    HW224402   4.759   5.769   1.461 -1.9918  0.4358  1.6779
 6159SOL    HW324403   4.736   5.780   1.312  0.3416 -1.4616  1.1176
 6159SOL    MW424404   4.742   5.817   1.391 -0.1078 -0.3223  0.6368
 6160SOL     OW24405   3.090   5.273   0.409  0.0719  0.4698  0.0943
 6160SOL    HW224406   3.029   5.214   0.453  0.9923 -0.1715  0.5195
 6160SOL    HW324407   3.041   5.306   0.333 -1.0065  0.4301  0.7603
 6160SOL    MW424408   3.075   5.270   0.404  0.0511  0.3799  0.2383
 6161SOL     OW24409   5.324   2.588   2.584 -0.9646 -0.2132 -0.4688
 6161SOL    HW224410   5.280   2.653   2.639 -2.5027 -2.3802  0.9990
 6161SOL    HW324411   5.256   2.557   2.524 -0.5288 -1.1558 -0.4945
 6161SOL    MW424412   5.310   2.593   2.583 -1.1100 -0.6235 -0.2785
 6162SOL     OW24413   5.775   2.644   3.877 -0.2382 -0.1431 -0.0142
 6162SOL    HW224414   5.766   2.736   3.898  0.0615  0.2456 -1.4796
 6162SOL    HW324415   5.780   2.600   3.962 -1.2733  1.0812  0.7121
 6162SOL    MW424416   5.775   2.650   3.891 -0.3353  0.0697 -0.1117
 6163SOL     OW24417   4.253   6.243   2.050 -0.8921 -0.0595 -0.1007
 6163SOL    HW224418   4.199   6.318   2.028 -0.0205  0.5019 -0.3891
 6163SOL    HW324419   4.333   6.281   2.086 -0.7742 -0.8739  0.5317
 6163SOL    MW424420   4.256   6.258   2.052 -0.7615 -0.0928 -0.0553
 6164SOL     OW24421   3.322   0.497   2.972  0.3038  0.3028 -0.3221
 6164SOL    HW224422   3.341   0.497   2.878  2.6534 -0.5175  0.0764
 6164SOL    HW324423   3.228   0.485   2.978  0.1497  0.0366 -2.5669
 6164SOL    MW424424   3.312   0.495   2.961  0.5935  0.1594 -0.5657
 6165SOL     OW24425   3.800   0.182   4.766  0.6063 -0.0934 -0.3803
 6165SOL    HW224426   3.862   0.228   4.710  0.1978 -0.3264 -1.0324
 6165SOL    HW324427   3.801   0.092   4.733  2.1850 -0.8409  1.5351
 6165SOL    MW424428   3.809   0.176   4.754  0.7607 -0.2228 -0.2136
 6166SOL     OW24429   0.629   3.732   1.200 -0.3253 -0.1195 -0.0521
 6166SOL    HW224430   0.581   3.702   1.277 -1.2625 -0.0456 -0.5998
 6166SOL    HW324431   0.638   3.654   1.146  0.9877 -0.3417  0.4505
 6166SOL    MW424432   0.624   3.718   1.203 -0.2757 -0.1391 -0.0581
 6167SOL     OW24433   1.962   5.466   0.422 -0.6262 -0.2601 -0.4482
 6167SOL    HW224434   1.934   5.463   0.514 -1.2052  0.4732 -0.5888
 6167SOL    HW324435   1.900   5.525   0.380  0.5657  0.6859 -0.9764
 6167SOL    MW424436   1.950   5.474   0.429 -0.5454 -0.0385 -0.5365
 6168SOL     OW24437   1.853   1.651   3.202 -0.0838  0.2038  0.1320
 6168SOL    HW224438   1.796   1.574   3.196  1.2548 -0.9272  1.3067
 6168SOL    HW324439   1.793   1.725   3.194 -1.8393 -0.9118  1.9390
 6168SOL    MW424440   1.837   1.650   3.200 -0.1388 -0.0926  0.5254
 6169SOL     OW24441   1.218   3.558   0.031 -0.0942 -0.2589 -0.0742
 6169SOL    HW224442   1.257   3.472   0.013  0.6931 -0.0074  0.4055
 6169SOL    HW324443   1.130   3.538   0.062 -0.1359 -0.8657 -0.5623
 6169SOL    MW424444   1.212   3.544   0.033  0.0042 -0.3057 -0.0753
 6170SOL     OW24445   5.718   0.557   2.156  0.1726 -0.8130  0.5819
 6170SOL    HW224446   5.671   0.496   2.212  1.7292 -1.7246  0.9411
 6170SOL    HW324447   5.766   0.614   2.216 -0.1763 -0.1020  0.2125
 6170SOL    MW424448   5.718   0.557   2.171  0.3319 -0.8395  0.5806
 6171SOL     OW24449   2.654   5.950   1.456 -0.1804  0.2984 -0.0661
 6171SOL    HW224450   2.580   5.900   1.490  0.0396 -0.0735 -0.1269
 6171SOL    HW324451   2.703   5.887   1.403  0.4016  0.4345  0.2985
 6171SOL    MW424452   2.650   5.935   1.453 -0.0746  0.2673 -0.0260
 6172SOL     OW24453   0.669   0.954   4.621 -0.5111 -0.0306 -0.2277
 6172SOL    HW224454   0.638   0.882   4.675  0.4059  0.3332  0.8026
 6172SOL    HW324455   0.621   1.030   4.653 -0.7591  0.0021 -0.6648
 6172SOL    MW424456   0.658   0.954   4.632 -0.4229  0.0217 -0.1494
 6173SOL     OW24457   5.948   2.947   4.284  0.1949 -0.2838  0.4353
 6173SOL    HW224458   5.984   3.036   4.289  0.3132 -0.3313  0.4178
 6173SOL    HW324459   5.861   2.960   4.246 -0.9167  0.1497  2.9034
 6173SOL    MW424460   5.941   2.961   4.280  0.0638 -0.2329  0.7586
 6174SOL     OW24461   4.307   1.610   5.251 -0.1869 -0.3591 -0.2384
 6174SOL    HW224462   4.395   1.596   5.287  1.1552  2.2637 -2.0666
 6174SOL    HW324463   4.251   1.621   5.327  1.1895 -1.5023  0.9954
 6174SOL    MW424464   4.311   1.610   5.266  0.1718 -0.1639 -0.3168
 6175SOL     OW24465   0.617   4.950   5.706  0.0165  0.1159 -0.0980
 6175SOL    HW224466   0.684   4.903   5.756  0.4930  0.4329 -0.4295
 6175SOL    HW324467   0.564   4.994   5.773  0.4249  0.2416  0.1493
 6175SOL    MW424468   0.619   4.950   5.722  0.1333  0.1743 -0.1091
 6176SOL     OW24469   4.982   4.527   3.042  0.3643 -0.0425 -0.2058
 6176SOL    HW224470   4.901   4.513   3.091  0.0920 -0.2383 -0.7025
 6176SOL    HW324471   5.007   4.617   3.063 -0.1805  0.1445 -0.3337
 6176SOL    MW424472   4.975   4.537   3.052  0.2565 -0.0436 -0.2882
 6177SOL     OW24473   4.674   4.906   4.918 -0.2032  0.8040  0.2879
 6177SOL    HW224474   4.628   4.873   4.841 -1.6775 -2.1476  2.2437
 6177SOL    HW324475   4.640   4.994   4.931 -2.4166  0.1458 -0.5767
 6177SOL    MW424476   4.664   4.913   4.910 -0.6898  0.3277  0.4319
 6178SOL     OW24477   6.163   3.001   5.530  0.0005 -0.0692 -0.0940
 6178SOL    HW224478   6.127   2.915   5.550 -0.1460  0.2917  1.3057
 6178SOL    HW324479   6.197   3.033   5.614 -0.7419  1.6107 -0.3917
 6178SOL    MW424480   6.163   2.994   5.544 -0.1168  0.2001  0.0514
 6179SOL     OW24481   5.098   2.397   2.122  0.2624 -0.0649 -0.2042
 6179SOL    HW224482   5.106   2.465   2.055  0.8197  2.2834  2.0531
 6179SOL    HW324483   5.170   2.337   2.104  1.5726  1.5495 -0.6335
 6179SOL    MW424484   5.108   2.398   2.111  0.5088  0.4580  0.0370
 6180SOL     OW24485   0.609   2.774   1.968  0.6456  0.1042  0.2067
 6180SOL    HW224486   0.568   2.777   2.054 -0.1504  0.4812 -0.1699
 6180SOL    HW324487   0.609   2.681   1.944 -0.3999  0.1397  0.0324
 6180SOL    MW424488   0.604   2.762   1.976  0.4027  0.1586  0.1340
 6181SOL     OW24489   2.141   4.805   4.290 -0.6130  0.0764 -0.2491
 6181SOL    HW224490   2.208   4.870   4.271  0.2667 -1.0595 -1.1693
 6181SOL    HW324491   2.137   4.751   4.212  0.4889 -2.5243  1.3746
 6181SOL    MW424492   2.149   4.807   4.277 -0.3515 -0.4166 -0.1563
 6182SOL     OW24493   0.976   4.957   1.098  0.2380  0.0029  0.4206
 6182SOL    HW224494   0.945   4.879   1.144  1.1227 -1.0745 -0.7304
 6182SOL    HW324495   0.941   4.948   1.010  1.6231  0.0733 -0.1660
 6182SOL    MW424496   0.967   4.945   1.093  0.5374 -0.1300  0.1914
 6183SOL     OW24497   2.579   1.685   3.445 -0.1089  0.0363 -0.3933
 6183SOL    HW224498   2.648   1.750   3.449  0.1012 -0.0556 -2.0063
 6183SOL    HW324499   2.618   1.611   3.398  0.0413 -1.7973  2.3562
 6183SOL    MW424500   2.593   1.684   3.439 -0.0613 -0.2177 -0.2433
 6184SOL     OW24501   5.882   1.133   5.741  0.1272 -0.0301  0.4552
 6184SOL    HW224502   5.846   1.205   5.689 -1.2655 -1.6718 -0.9465
 6184SOL    HW324503   5.975   1.132   5.718 -0.0634  0.5778 -0.4084
 6184SOL    MW424504   5.890   1.142   5.731 -0.0817 -0.1665  0.1564
 6185SOL     OW24505   1.074   3.498   6.074  0.5352 -0.9299 -0.0804
 6185SOL    HW224506   1.020   3.489   6.152  0.6943 -0.4815  0.0803
 6185SOL    HW324507   1.015   3.477   6.001 -0.1705  0.6534 -0.0018
 6185SOL    MW424508   1.059   3.494   6.075  0.4631 -0.6619 -0.0488
 6186SOL     OW24509   2.401   1.406   3.355  0.5370  0.0277  0.7291
 6186SOL    HW224510   2.397   1.379   3.263  0.4416 -0.0138  0.7461
 6186SOL    HW324511   2.361   1.333   3.403 -2.0756  1.2657  0.5814
 6186SOL    MW424512   2.395   1.393   3.349  0.1797  0.1855  0.7118
 6187SOL     OW24513   5.729   2.694   5.928  0.8036 -0.2062 -0.0004
 6187SOL    HW224514   5.669   2.769   5.923 -0.0114 -0.8262  0.2171
 6187SOL    HW324515   5.755   2.679   5.838  1.1564  0.4767 -0.0225
 6187SOL    MW424516   5.724   2.702   5.915  0.7426 -0.1979  0.0254
 6188SOL     OW24517   5.569   3.754   0.312  0.1712 -0.0366 -0.2622
 6188SOL    HW224518   5.611   3.794   0.388  0.1685  0.6926 -0.6370
 6188SOL    HW324519   5.632   3.768   0.240 -0.5651  0.7933 -0.7635
 6188SOL    MW424520   5.583   3.761   0.312  0.0737  0.1691 -0.3778
 6189SOL     OW24521   2.361   4.711   2.473 -0.0769 -0.5944  0.0661
 6189SOL    HW224522   2.420   4.786   2.470 -3.5647  2.4123 -2.1739
 6189SOL    HW324523   2.303   4.729   2.548 -2.8455  0.8160 -2.2241
 6189SOL    MW424524   2.361   4.723   2.483 -0.9024 -0.0116 -0.5316
 6190SOL     OW24525   3.609   5.285   5.684  0.3146  1.2804 -0.2503
 6190SOL    HW224526   3.694   5.320   5.712  1.8527  0.1558 -3.1585
 6190SOL    HW324527   3.601   5.310   5.592 -1.2492 -0.9437 -0.7982
 6190SOL    MW424528   3.619   5.293   5.676  0.3112  0.8386 -0.7063
 6191SOL     OW24529   6.045   3.481   5.262 -0.3444 -0.1872  0.0916
 6191SOL    HW224530   6.049   3.554   5.324  0.9518 -0.6564  0.5829
 6191SOL    HW324531   6.112   3.420   5.292  0.1831 -0.5263 -1.6580
 6191SOL    MW424532   6.054   3.483   5.274 -0.1038 -0.2938 -0.0744
 6192SOL     OW24533   2.961   5.501   4.884  0.2758  0.0769  0.5842
 6192SOL    HW224534   3.038   5.454   4.913  0.2347 -0.6284 -0.3954
 6192SOL    HW324535   2.910   5.515   4.963 -0.6947 -3.3497  0.7182
 6192SOL    MW424536   2.964   5.497   4.898  0.1423 -0.4683  0.4726
 6193SOL     OW24537   0.858   3.114   4.318 -0.1202 -0.0183 -0.9091
 6193SOL    HW224538   0.874   3.068   4.401  0.3803 -0.6144 -1.3309
 6193SOL    HW324539   0.797   3.184   4.342  2.1763  1.6341  0.5418
 6193SOL    MW424540   0.852   3.117   4.332  0.2488  0.1211 -0.7733
 6194SOL     OW24541   2.168   5.622   6.065  0.0531  0.8320 -0.3184
 6194SOL    HW224542   2.167   5.573   5.982 -1.2279  2.5362 -1.3685
 6194SOL    HW324543   2.112   5.698   6.049 -1.1261  0.6552  2.4887
 6194SOL    MW424544   2.161   5.626   6.052 -0.2715  1.0335 -0.0866
 6195SOL     OW24545   3.232   3.358   4.502 -0.0357  0.0990 -0.0369
 6195SOL    HW224546   3.262   3.434   4.553  1.8324 -0.2963 -0.4544
 6195SOL    HW324547   3.260   3.378   4.412 -0.6067 -0.5509 -0.3620
 6195SOL    MW424548   3.240   3.371   4.496  0.1355 -0.0389 -0.1349
 6196SOL     OW24549   5.792   6.097   0.470 -0.0162  0.5060  0.1264
 6196SOL    HW224550   5.733   6.142   0.530 -1.3167 -1.0848  0.1102
 6196SOL    HW324551   5.834   6.029   0.523  0.5376  0.5309 -0.2602
 6196SOL    MW424552   5.790   6.094   0.485 -0.1147  0.2994  0.0733
 6197SOL     OW24553   3.342   2.364   4.559 -0.1789 -0.0529  0.2383
 6197SOL    HW224554   3.416   2.375   4.499 -0.6417  0.6121 -0.2327
 6197SOL    HW324555   3.340   2.446   4.610  0.4084 -0.7425  1.4037
 6197SOL    MW424556   3.351   2.376   4.558 -0.1625 -0.0561  0.3300
 6198SOL     OW24557   1.321   3.101   5.606 -0.3400 -0.2014  0.0636
 6198SOL    HW224558   1.256   3.046   5.563  0.0473  0.0965 -0.9562
 6198SOL    HW324559   1.385   3.040   5.642 -2.1831 -0.6001  2.8671
 6198SOL    MW424560   1.321   3.086   5.605 -0.5321 -0.2147  0.2989
 6199SOL     OW24561   4.161   0.109   2.440  0.3690  0.6584 -0.1209
 6199SOL    HW224562   4.227   0.100   2.371  0.1728 -1.3116 -0.1157
 6199SOL    HW324563   4.192   0.050   2.510 -2.3885 -2.0602 -0.9746
 6199SOL    MW424564   4.174   0.100   2.440 -0.0207  0.0398 -0.2329
 6200SOL     OW24565   2.582   0.141   0.782  0.4120  0.9212  0.2876
 6200SOL    HW224566   2.577   0.230   0.746  2.0994  0.6637 -0.6947
 6200SOL    HW324567   2.577   0.085   0.705 -1.5224  0.0906  0.9693
 6200SOL    MW424568   2.581   0.146   0.767  0.3794  0.7777  0.2479
 6201SOL     OW24569   6.149   4.632   3.751  0.1591 -0.0536  0.5019
 6201SOL    HW224570   6.141   4.625   3.656  0.7198  1.3663  0.3348
 6201SOL    HW324571   6.106   4.714   3.773  0.8696  0.1032  1.3585
 6201SOL    MW424572   6.143   4.642   3.741  0.3268  0.1544  0.5928
 6202SOL     OW24573   4.373   0.281   1.778 -0.2482  0.7391 -0.7092
 6202SOL    HW224574   4.282   0.269   1.751 -0.2162  0.3745 -0.6642
 6202SOL    HW324575   4.373   0.364   1.827 -1.1316 -0.5978  1.7515
 6202SOL    MW424576   4.361   0.291   1.781 -0.3605  0.5146 -0.3786
 6203SOL     OW24577   3.696   3.584   5.078 -0.1846  0.0110 -0.5133
 6203SOL    HW224578   3.625   3.595   5.015 -1.7567 -1.3736  0.8831
 6203SOL    HW324579   3.762   3.532   5.031 -1.1776 -0.7236 -1.1430
 6203SOL    MW424580   3.695   3.578   5.064 -0.5231 -0.2686 -0.4121
 6204SOL     OW24581   4.269   5.906   0.110  0.0525 -0.7309  0.7335
 6204SOL    HW224582   4.268   5.953   0.027  1.5808  0.2887  1.2472
 6204SOL    HW324583   4.261   5.974   0.177 -1.3798 -1.5531  1.4495
 6204SOL    MW424584   4.268   5.921   0.108  0.0652 -0.7048  0.8957
 6205SOL     OW24585   3.300   5.720   5.370 -0.1951 -0.4379 -0.7250
 6205SOL    HW224586   3.347   5.720   5.286  0.2361  0.8980 -0.5120
 6205SOL    HW324587   3.209   5.735   5.346 -0.4019 -2.0495 -1.0721
 6205SOL    MW424588   3.295   5.722   5.355 -0.1655 -0.4743 -0.7427
 6206SOL     OW24589   3.001   1.434   1.622 -0.1836 -0.3776 -0.1598
 6206SOL    HW224590   3.023   1.396   1.536  0.4695 -0.9906  0.2678
 6206SOL    HW324591   3.070   1.498   1.638 -1.2270  0.9699 -0.8340
 6206SOL    MW424592   3.013   1.438   1.612 -0.2351 -0.2807 -0.1924
 6207SOL     OW24593   2.896   4.459   2.524  0.1106  0.3996  0.3187
 6207SOL    HW224594   2.954   4.501   2.588  0.7891 -0.2183  0.1164
 6207SOL    HW324595   2.814   4.508   2.531  0.7061  1.4006  0.4855
 6207SOL    MW424596   2.893   4.471   2.534  0.2787  0.4501  0.3140
 6208SOL     OW24597   0.825   0.206   5.409  0.4185  0.1150  0.0494
 6208SOL    HW224598   0.783   0.288   5.383  1.1956 -0.4001 -3.3506
 6208SOL    HW324599   0.917   0.228   5.421  0.3319  0.0280  0.9773
 6208SOL    MW424600   0.831   0.220   5.407  0.5096  0.0356 -0.2768
 6209SOL     OW24601   3.767   5.829   5.095 -0.0766  0.1596  0.2486
 6209SOL    HW224602   3.697   5.854   5.036  0.2314 -1.7383 -0.9979
 6209SOL    HW324603   3.847   5.860   5.052  0.0364  0.0576  0.3832
 6209SOL    MW424604   3.768   5.836   5.082 -0.0211 -0.1043  0.1019
 6210SOL     OW24605   3.095   0.481   2.239 -0.0529  0.5557 -0.2649
 6210SOL    HW224606   3.181   0.474   2.280 -1.0712  0.9883  2.1226
 6210SOL    HW324607   3.109   0.536   2.162  1.9824 -0.3211 -0.5915
 6210SOL    MW424608   3.108   0.487   2.234  0.0812  0.4971  0.0070
 6211SOL     OW24609   0.272   6.038   3.036 -0.0446  0.2395 -0.5483
 6211SOL    HW224610   0.362   6.029   3.004 -0.1121 -2.4062 -0.2337
 6211SOL    HW324611   0.232   6.102   2.976  1.2696 -0.6409 -2.4854
 6211SOL    MW424612   0.278   6.045   3.024  0.1199 -0.2257 -0.7624
 6212SOL     OW24613   5.894   4.074   2.801  0.0797  0.5910 -0.5461
 6212SOL    HW224614   5.936   3.988   2.800 -2.2285 -0.5992 -0.0667
 6212SOL    HW324615   5.959   4.131   2.843  1.3227 -1.0948 -0.0748
 6212SOL    MW424616   5.908   4.070   2.807 -0.0608  0.2116 -0.4207
 6213SOL     OW24617   2.176   3.477   2.886  0.9363  0.2143 -0.2164
 6213SOL    HW224618   2.200   3.559   2.930 -2.8291  1.7431 -0.6483
 6213SOL    HW324619   2.110   3.438   2.943 -1.1834  0.2515 -2.4719
 6213SOL    MW424620   2.170   3.483   2.900  0.1598  0.4209 -0.5710
 6214SOL     OW24621   5.946   4.705   2.942  0.1253  0.2173  0.0538
 6214SOL    HW224622   5.949   4.800   2.949 -0.2551  0.2511 -0.2249
 6214SOL    HW324623   5.915   4.689   2.853 -0.6058 -0.1694  0.3722
 6214SOL    MW424624   5.943   4.715   2.931 -0.0214  0.1707  0.0591
 6215SOL     OW24625   2.324   3.732   0.799 -0.3382  0.3616  0.0770
 6215SOL    HW224626   2.312   3.818   0.758 -0.2434 -0.7027 -2.4110
 6215SOL    HW324627   2.417   3.713   0.787 -0.8218 -1.1344 -1.8392
 6215SOL    MW424628   2.334   3.741   0.792 -0.3895  0.0238 -0.5041
 6216SOL     OW24629   2.639   4.207   3.131 -0.1811  0.3282 -0.2109
 6216SOL    HW224630   2.612   4.160   3.211  1.3530  1.1845  0.8694
 6216SOL    HW324631   2.727   4.174   3.112  0.0448  1.1715 -0.6993
 6216SOL    MW424632   2.647   4.196   3.139  0.0511  0.5524 -0.1328
 6217SOL     OW24633   0.594   1.660   1.253 -0.3978  0.2325 -0.2693
 6217SOL    HW224634   0.607   1.572   1.217 -1.2716  1.2085 -3.2731
 6217SOL    HW324635   0.499   1.673   1.249 -0.3391  1.0372  0.8678
 6217SOL    MW424636   0.583   1.650   1.247 -0.5053  0.4675 -0.5156
 6218SOL     OW24637   5.566   3.877   4.960 -0.3642 -0.2429 -0.3393
 6218SOL    HW224638   5.525   3.804   5.007  0.1542  0.6483  1.5757
 6218SOL    HW324639   5.657   3.850   4.950 -0.3977 -0.2828 -0.5399
 6218SOL    MW424640   5.572   3.864   4.965 -0.3003 -0.1306 -0.1131
 6219SOL     OW24641   1.973   1.011   0.111  0.0883  0.8334 -0.0638
 6219SOL    HW224642   1.934   1.042   0.193  0.0280  0.3244  0.1022
 6219SOL    HW324643   1.905   0.959   0.070  0.4592  0.2517  0.0464
 6219SOL    MW424644   1.959   1.008   0.116  0.1293  0.6895 -0.0274
 6220SOL     OW24645   6.435   5.277   5.475  0.8040  0.4610  0.0148
 6220SOL    HW224646   6.357   5.307   5.521  0.6273  0.5400 -0.3393
 6220SOL    HW324647   6.461   5.198   5.522  0.3661  0.2930 -0.0240
 6220SOL    MW424648   6.428   5.271   5.488  0.7229  0.4492 -0.0370
 6221SOL     OW24649   1.420   1.366   4.094 -1.2167  0.2446 -0.1008
 6221SOL    HW224650   1.344   1.309   4.085 -0.7793 -0.4488  0.4745
 6221SOL    HW324651   1.478   1.320   4.155 -0.9781  1.4385  0.6196
 6221SOL    MW424652   1.418   1.352   4.101 -1.1275  0.3106  0.0702
 6222SOL     OW24653   5.392   1.864   5.472  1.0878 -0.4122  0.4652
 6222SOL    HW224654   5.454   1.792   5.477  1.5186 -0.2053 -1.1794
 6222SOL    HW324655   5.433   1.926   5.411 -0.0852  0.3814  0.4544
 6222SOL    MW424656   5.406   1.863   5.464  0.9899 -0.2802  0.2468
 6223SOL     OW24657   1.214   0.884   3.850  0.1829  0.6760 -0.7300
 6223SOL    HW224658   1.197   0.798   3.811 -0.0009  0.9340 -1.2226
 6223SOL    HW324659   1.221   0.866   3.944 -0.4147  0.2010 -0.7653
 6223SOL    MW424660   1.212   0.870   3.858  0.0798  0.6474 -0.7996
 6224SOL     OW24661   5.156   4.628   0.750 -0.7345 -0.4080 -0.2470
 6224SOL    HW224662   5.077   4.585   0.783  0.3471 -1.5312  0.9847
 6224SOL    HW324663   5.210   4.556   0.716 -0.3878  0.3893 -1.4684
 6224SOL    MW424664   5.152   4.613   0.750 -0.5461 -0.4510 -0.2456
 6225SOL     OW24665   4.403   2.971   6.112  0.0432  0.0718  0.0352
 6225SOL    HW224666   4.444   2.908   6.172  1.4515  0.5866 -0.3514
 6225SOL    HW324667   4.357   3.032   6.170  1.8439  0.8910  0.6904
 6225SOL    MW424668   4.402   2.971   6.128  0.4666  0.2478  0.0706
 6226SOL     OW24669   5.160   3.284   2.628 -0.2560  0.5792  0.1589
 6226SOL    HW224670   5.158   3.291   2.723  0.3158  3.5688  0.0652
 6226SOL    HW324671   5.252   3.296   2.604 -0.4081  0.0255 -0.7756
 6226SOL    MW424672   5.172   3.287   2.637 -0.2006  0.9006  0.0232
 6227SOL     OW24673   6.400   6.036   4.273  0.0810  0.0657  0.0624
 6227SOL    HW224674   6.448   5.998   4.200 -0.6980  1.2322 -1.0916
 6227SOL    HW324675   6.308   6.018   4.254 -0.0724 -0.8324  1.4848
 6227SOL    MW424676   6.394   6.028   4.261 -0.0420  0.1011  0.0978
 6228SOL     OW24677   6.278   1.225   2.052 -0.3292 -0.5074  0.1761
 6228SOL    HW224678   6.229   1.305   2.071  1.3053  0.1684  1.9281
 6228SOL    HW324679   6.370   1.254   2.048  0.3947 -2.3721  1.6547
 6228SOL    MW424680   6.284   1.239   2.054 -0.0181 -0.6643  0.6023
 6229SOL     OW24681   0.345   1.584   4.051  0.8397  0.3584  0.7866
 6229SOL    HW224682   0.294   1.632   4.117  0.0248  1.1892 -0.4037
 6229SOL    HW324683   0.280   1.537   3.999  1.3499  0.6774 -0.1647
 6229SOL    MW424684   0.330   1.584   4.053  0.7995  0.5101  0.5040
 6230SOL     OW24685   6.165   0.184   2.473  0.1093  0.1762 -0.2270
 6230SOL    HW224686   6.098   0.211   2.536 -0.8018 -0.8561 -0.7017
 6230SOL    HW324687   6.210   0.265   2.449 -1.3836  1.0222 -0.3375
 6230SOL    MW424688   6.162   0.198   2.478 -0.2079  0.1516 -0.3042
 6231SOL     OW24689   0.177   1.145   2.300 -0.1115 -0.0318 -0.2578
 6231SOL    HW224690   0.194   1.191   2.383 -0.0004  1.5063 -1.1150
 6231SOL    HW324691   0.257   1.093   2.286 -0.5958 -1.2491  1.1605
 6231SOL    MW424692   0.190   1.144   2.309 -0.1608  0.0105 -0.1838
 6232SOL     OW24693   3.023   3.102   0.244 -0.6785 -0.2991 -0.3339
 6232SOL    HW224694   3.107   3.075   0.205 -0.7555 -1.3215  0.1709
 6232SOL    HW324695   2.972   3.021   0.249 -1.9536  0.4231 -1.2291
 6232SOL    MW424696   3.027   3.088   0.239 -0.8569 -0.3387 -0.3854
 6233SOL     OW24697   1.890   6.157   2.048  0.3484 -0.1276  0.0251
 6233SOL    HW224698   1.795   6.143   2.050  0.3992 -0.6024 -0.5649
 6233SOL    HW324699   1.920   6.106   1.973  0.9560  0.7751 -0.3685
 6233SOL    MW424700   1.881   6.148   2.039  0.4353 -0.0712 -0.1047
 6234SOL     OW24701   3.647   3.500   6.294  0.4944  0.4433 -0.8335
 6234SOL    HW224702   3.611   3.585   6.317  1.1001  0.4129  0.3028
 6234SOL    HW324703   3.712   3.518   6.226  1.7621  1.1099  0.5145
 6234SOL    MW424704   3.651   3.513   6.288  0.7416  0.5272 -0.5057
 6235SOL     OW24705   3.587   4.864   1.257  0.0386 -0.8050 -0.2165
 6235SOL    HW224706   3.596   4.793   1.321 -1.1553 -1.7636 -1.0583
 6235SOL    HW324707   3.670   4.863   1.209  0.4536 -0.9118  0.4999
 6235SOL    MW424708   3.599   4.854   1.259 -0.0642 -0.9456 -0.2331
 6236SOL     OW24709   4.591   5.010   0.527 -0.2370  0.2307  0.3461
 6236SOL    HW224710   4.669   5.065   0.518 -1.0478  1.0989 -2.1241
 6236SOL    HW324711   4.538   5.053   0.594  0.3594  0.9435  0.3715
 6236SOL    MW424712   4.594   5.023   0.535 -0.2653  0.4393  0.0235
 6237SOL     OW24713   2.178   5.935   1.331  0.5666 -0.4904 -0.1191
 6237SOL    HW224714   2.165   5.899   1.419  0.7136  0.3677  0.2662
 6237SOL    HW324715   2.268   5.970   1.333  0.1940  0.5119 -0.2450
 6237SOL    MW424716   2.188   5.935   1.343  0.5369 -0.2450 -0.0849
 6238SOL     OW24717   2.590   3.368   0.768 -0.1761 -0.2331  0.3471
 6238SOL    HW224718   2.651   3.342   0.837  0.1455  1.5802  0.8020
 6238SOL    HW324719   2.603   3.463   0.759 -0.6032 -0.3308 -1.8414
 6238SOL    MW424720   2.600   3.377   0.776 -0.1900 -0.0067  0.1184
 6239SOL     OW24721   5.679   2.538   4.466 -0.4617  0.4149 -0.5015
 6239SOL    HW224722   5.766   2.578   4.454  0.5748 -2.1578 -2.5200
 6239SOL    HW324723   5.694   2.464   4.524 -1.8883  1.4513  1.2779
 6239SOL    MW424724   5.693   2.534   4.472 -0.5132  0.2122 -0.5331
 6240SOL     OW24725   4.590   0.803   1.210  0.6542 -0.1159 -0.1877
 6240SOL    HW224726   4.616   0.891   1.182  1.3658 -0.7997 -1.7508
 6240SOL    HW324727   4.667   0.769   1.255  0.1992  0.2229  0.8912
 6240SOL    MW424728   4.604   0.810   1.213  0.6881 -0.1614 -0.2516
 6241SOL     OW24729   5.849   5.547   0.886 -0.0224  0.0713  0.0035
 6241SOL    HW224730   5.885   5.462   0.913  0.3050  0.4183  0.6919
 6241SOL    HW324731   5.845   5.542   0.791 -2.5552 -1.7633  0.0798
 6241SOL    MW424732   5.853   5.535   0.877 -0.3134 -0.1250  0.1044
 6242SOL     OW24733   0.249   3.367   0.312 -0.0125 -0.1780  0.4482
 6242SOL    HW224734   0.215   3.304   0.375 -0.4780  0.0903  0.4682
 6242SOL    HW324735   0.232   3.326   0.227 -0.3065 -0.0903  0.4616
 6242SOL    MW424736   0.242   3.353   0.309 -0.1127 -0.1310  0.4526
 6243SOL     OW24737   2.471   2.390   1.850 -0.1521 -0.0042 -0.4678
 6243SOL    HW224738   2.402   2.396   1.784  0.5162  0.0392 -1.1877
 6243SOL    HW324739   2.479   2.296   1.868  0.0065 -0.0667 -0.8398
 6243SOL    MW424740   2.463   2.378   1.844 -0.0430 -0.0067 -0.6119
 6244SOL     OW24741   5.196   6.138   4.833 -0.0275 -0.2003  0.3394
 6244SOL    HW224742   5.126   6.126   4.769  0.0913  0.4962  0.0656
 6244SOL    HW324743   5.169   6.215   4.884  0.7663  0.3771 -0.0907
 6244SOL    MW424744   5.183   6.147   4.831  0.0929 -0.0322  0.2465
 6245SOL     OW24745   1.303   6.378   1.065 -0.4383  0.1005 -0.3100
 6245SOL    HW224746   1.357   6.455   1.048  2.7442 -2.2735 -1.9874
 6245SOL    HW324747   1.299   6.372   1.161  0.3639  1.5993 -0.1568
 6245SOL    MW424748   1.310   6.387   1.076  0.0874 -0.0150 -0.5111
 6246SOL     OW24749   4.130   3.690   4.695  0.4123  1.0970 -0.6595
 6246SOL    HW224750   4.061   3.757   4.704  0.1529  0.6221  1.3386
 6246SOL    HW324751   4.211   3.738   4.710  0.3261  1.2101 -0.5478
 6246SOL    MW424752   4.132   3.705   4.698  0.3667  1.0493 -0.3812
 6247SOL     OW24753   4.616   5.537   5.878 -0.0639  0.6020 -0.1285
 6247SOL    HW224754   4.560   5.614   5.868 -1.2519 -0.2378 -0.1573
 6247SOL    HW324755   4.585   5.476   5.811  0.2188 -0.2674  0.5208
 6247SOL    MW424756   4.604   5.539   5.868 -0.1834  0.3765 -0.0466
 6248SOL     OW24757   1.740   3.252   3.769  0.0201  0.4566  0.1608
 6248SOL    HW224758   1.830   3.247   3.800 -1.0543 -2.8262  3.5044
 6248SOL    HW324759   1.744   3.215   3.681  2.0673  2.0108 -0.4901
 6248SOL    MW424760   1.753   3.246   3.761  0.1484  0.2285  0.5161
 6249SOL     OW24761   4.336   2.765   0.339  0.3755 -0.2138 -0.7650
 6249SOL    HW224762   4.332   2.678   0.378 -0.5643  0.4959  0.8068
 6249SOL    HW324763   4.266   2.764   0.273 -0.6657 -0.1859  0.3027
 6249SOL    MW424764   4.326   2.753   0.335  0.1142 -0.1165 -0.4167
 6250SOL     OW24765   4.467   1.632   3.324  0.4106  0.2159  0.1225
 6250SOL    HW224766   4.514   1.553   3.350 -0.0926 -0.4245 -0.8364
 6250SOL    HW324767   4.520   1.704   3.358  1.0312 -0.5255  0.7629
 6250SOL    MW424768   4.480   1.631   3.332  0.4261  0.0336  0.0805
 6251SOL     OW24769   1.675   1.675   4.289  0.0859 -0.2088 -0.0732
 6251SOL    HW224770   1.669   1.611   4.360 -0.1561  0.1121  0.2065
 6251SOL    HW324771   1.586   1.680   4.254 -0.2347  0.9536  0.8099
 6251SOL    MW424772   1.662   1.668   4.294  0.0117 -0.0131  0.0802
 6252SOL     OW24773   1.904   3.431   4.599  0.3661  1.1085 -0.2207
 6252SOL    HW224774   1.955   3.396   4.526  0.5627 -0.2428  0.5430
 6252SOL    HW324775   1.960   3.421   4.676 -0.4361  1.0555  0.3715
 6252SOL    MW424776   1.918   3.426   4.599  0.2862  0.9232 -0.0418
 6253SOL     OW24777   6.390   2.143   5.324  0.3099 -0.1174 -0.0483
 6253SOL    HW224778   6.395   2.083   5.397  1.6419  2.2306  1.9442
 6253SOL    HW324779   6.324   2.208   5.350 -0.8333 -0.4184 -1.9550
 6253SOL    MW424780   6.382   2.144   5.337  0.3348  0.1527 -0.0370
 6254SOL     OW24781   4.362   0.031   2.244 -0.1253  0.0289 -1.0885
 6254SOL    HW224782   4.430   0.004   2.306 -0.6239  2.0189  0.4153
 6254SOL    HW324783   4.410   0.053   2.164  1.2730  2.6564  0.3435
 6254SOL    MW424784   4.377   0.031   2.242 -0.0066  0.6381 -0.7012
 6255SOL     OW24785   4.288   4.508   1.061  0.3368 -0.2096  0.1605
 6255SOL    HW224786   4.343   4.567   1.009  0.6193 -0.7168 -0.1147
 6255SOL    HW324787   4.336   4.426   1.064  0.5678 -0.0386  1.6725
 6255SOL    MW424788   4.301   4.505   1.054  0.4045 -0.2540  0.3237
 6256SOL     OW24789   5.559   3.992   4.705 -0.1192 -0.3245  0.4175
 6256SOL    HW224790   5.598   4.074   4.736  1.5206 -0.7570 -0.4039
 6256SOL    HW324791   5.550   3.939   4.784 -2.4581  1.0604  1.1961
 6256SOL    MW424792   5.563   3.996   4.720 -0.2114 -0.1989  0.4119
 6257SOL     OW24793   4.654   6.161   3.632 -0.8390 -0.2391  0.1296
 6257SOL    HW224794   4.596   6.217   3.684 -3.3523 -1.3362 -1.3165
 6257SOL    HW324795   4.653   6.077   3.677  1.3797  0.2310  1.2155
 6257SOL    MW424796   4.647   6.158   3.645 -0.8779 -0.3218  0.0821
 6258SOL     OW24797   2.087   6.060   0.211  0.4470  0.0887 -0.2269
 6258SOL    HW224798   2.014   6.076   0.152 -0.7368 -1.9175  0.6062
 6258SOL    HW324799   2.063   6.106   0.292 -0.2133 -1.0198  0.2343
 6258SOL    MW424800   2.074   6.068   0.214  0.2037 -0.3222 -0.0561
 6259SOL     OW24801   4.670   4.752   4.078  0.5161 -0.1350  0.3479
 6259SOL    HW224802   4.741   4.753   4.014  0.8792 -1.2044  0.7128
 6259SOL    HW324803   4.675   4.665   4.118  1.3636  1.0088  2.9913
 6259SOL    MW424804   4.680   4.741   4.075  0.6758 -0.1252  0.7448
 6260SOL     OW24805   3.588   5.544   1.069  0.4760 -0.7410 -0.5678
 6260SOL    HW224806   3.539   5.492   1.133  0.8780 -2.0944 -1.3168
 6260SOL    HW324807   3.666   5.492   1.051  2.0406  1.1568  0.2911
 6260SOL    MW424808   3.592   5.530   1.075  0.7355 -0.6692 -0.5533
 6261SOL     OW24809   5.396   1.293   3.351  0.2200 -0.4622 -0.0293
 6261SOL    HW224810   5.481   1.326   3.321  0.3309  0.2188  0.9716
 6261SOL    HW324811   5.403   1.198   3.342  0.4438 -0.3338 -1.5673
 6261SOL    MW424812   5.408   1.285   3.346  0.2642 -0.3554 -0.1001
 6262SOL     OW24813   5.360   1.187   6.375  0.0663 -0.8250  0.3758
 6262SOL    HW224814   5.315   1.166   6.293  1.7307  1.4990 -1.2661
 6262SOL    HW324815   5.406   1.106   6.398 -0.5436 -1.5717 -0.9054
 6262SOL    MW424816   5.361   1.174   6.367  0.2054 -0.6169 -0.0099
 6263SOL     OW24817   0.815   0.469   2.686 -0.2614 -0.2402  0.1361
 6263SOL    HW224818   0.821   0.390   2.633  0.8705 -1.0306  1.3849
 6263SOL    HW324819   0.779   0.439   2.770  0.0598  0.5803  0.5803
 6263SOL    MW424820   0.811   0.454   2.690 -0.0697 -0.2362  0.3595
 6264SOL     OW24821   5.503   0.462   2.590  0.0623 -0.4043 -0.1737
 6264SOL    HW224822   5.464   0.543   2.557 -0.1940 -1.3648 -2.4365
 6264SOL    HW324823   5.431   0.399   2.587  0.0577 -0.6219  2.2627
 6264SOL    MW424824   5.488   0.464   2.585  0.0279 -0.5598 -0.1508
 6265SOL     OW24825   0.280   5.946   4.307  0.2209 -0.6705 -0.3517
 6265SOL    HW224826   0.371   5.919   4.318  0.7372  0.9002 -0.5452
 6265SOL    HW324827   0.283   6.042   4.307 -1.7956 -0.4976  2.6441
 6265SOL    MW424828   0.293   5.955   4.308  0.0230 -0.4404  0.0180
 6266SOL     OW24829   5.483   2.553   5.464  0.3422 -0.3927  0.4796
 6266SOL    HW224830   5.571   2.522   5.445  0.3148  0.1262 -0.5657
 6266SOL    HW324831   5.489   2.648   5.458 -0.5139 -0.3960 -0.6612
 6266SOL    MW424832   5.495   2.562   5.461  0.2256 -0.3247  0.1912
 6267SOL     OW24833   1.520   5.908   0.130 -0.1354 -0.0639 -0.2946
 6267SOL    HW224834   1.611   5.928   0.153 -0.4945  0.1621  1.0127
 6267SOL    HW324835   1.490   5.849   0.199 -0.8493 -0.5127 -0.9722
 6267SOL    MW424836   1.528   5.903   0.142 -0.2770 -0.0933 -0.2115
 6268SOL     OW24837   5.109   5.165   0.180 -0.3381 -0.1882  0.3283
 6268SOL    HW224838   5.127   5.212   0.262 -0.9713 -0.5459  0.6863
 6268SOL    HW324839   5.014   5.150   0.182 -0.3894 -0.0460 -0.5581
 6268SOL    MW424840   5.099   5.169   0.191 -0.4284 -0.2166  0.2586
 6269SOL     OW24841   2.652   2.594   6.210  0.3538  0.5090 -0.4483
 6269SOL    HW224842   2.725   2.564   6.264  0.3075  0.3587 -0.4697
 6269SOL    HW324843   2.633   2.682   6.243 -0.6796 -0.1504  0.8211
 6269SOL    MW424844   2.659   2.602   6.222  0.2114  0.4021 -0.2836
 6270SOL     OW24845   2.915   1.424   5.275 -0.2311  0.1647  0.2669
 6270SOL    HW224846   2.900   1.331   5.259 -0.2487  0.1428  0.4044
 6270SOL    HW324847   2.834   1.455   5.317 -0.0040  0.1097  0.7534
 6270SOL    MW424848   2.902   1.416   5.279 -0.2034  0.1546  0.3492
 6271SOL     OW24849   2.018   3.193   5.473  0.3827 -0.0295 -0.6298
 6271SOL    HW224850   1.991   3.278   5.439  1.1377  0.6214  0.3444
 6271SOL    HW324851   2.068   3.154   5.401 -0.0186  0.3238 -1.1075
 6271SOL    MW424852   2.021   3.199   5.459  0.4294  0.1030 -0.5643
 6272SOL     OW24853   0.029   2.734   1.085  0.0789  0.4463  0.2853
 6272SOL    HW224854   0.057   2.659   1.137  0.0956  0.6231  0.5358
 6272SOL    HW324855  -0.048   2.768   1.131 -1.4669 -0.8964 -1.1734
 6272SOL    MW424856   0.023   2.729   1.098 -0.1229  0.2925  0.1259
 6273SOL     OW24857   2.069   2.680   1.506 -0.3117 -0.0623 -0.2790
 6273SOL    HW224858   2.143   2.623   1.488  0.5079  0.7380  0.4143
 6273SOL    HW324859   2.001   2.653   1.445  1.5806  1.1755 -3.1341
 6273SOL    MW424860   2.069   2.669   1.496  0.0461  0.2066 -0.5642
 6274SOL     OW24861   2.915   2.495   5.584 -0.5025 -0.6928  0.7378
 6274SOL    HW224862   2.832   2.483   5.630  0.0545  0.4067  2.0992
 6274SOL    HW324863   2.981   2.500   5.653  0.4681  0.2380 -0.2058
 6274SOL    MW424864   2.913   2.494   5.599 -0.3010 -0.4249  0.7929
 6275SOL     OW24865   2.266   0.237   5.755  0.3606  0.3114  0.2921
 6275SOL    HW224866   2.318   0.316   5.772  1.2020  0.4747 -2.6140
 6275SOL    HW324867   2.233   0.212   5.842  1.5342  2.7984  1.5780
 6275SOL    MW424868   2.269   0.244   5.769  0.6264  0.6610  0.0783
 6276SOL     OW24869   4.261   2.825   0.589  0.0458  0.2047  0.0406
 6276SOL    HW224870   4.306   2.832   0.505 -0.5531  1.5138 -0.1983
 6276SOL    HW324871   4.228   2.913   0.606  0.2834  0.0099  1.7304
 6276SOL    MW424872   4.263   2.838   0.580 -0.0018  0.3517  0.2320
 6277SOL     OW24873   1.216   4.122   0.846  0.0797 -0.1071 -0.1345
 6277SOL    HW224874   1.174   4.038   0.827 -1.6321  0.4999  0.7525
 6277SOL    HW324875   1.309   4.101   0.855 -0.4447 -2.1628  1.3670
 6277SOL    MW424876   1.222   4.108   0.845 -0.2153 -0.2982  0.1807
 6278SOL     OW24877   0.102   2.435   0.750  0.5355 -0.0740  0.0741
 6278SOL    HW224878   0.192   2.463   0.768  0.2556  0.9680 -0.0603
 6278SOL    HW324879   0.106   2.395   0.664  0.5475  1.7721 -0.8430
 6278SOL    MW424880   0.114   2.434   0.741  0.5002  0.3071 -0.0647
 6279SOL     OW24881   4.381   2.620   5.463 -0.3658  0.5398 -0.1450
 6279SOL    HW224882   4.402   2.537   5.506  1.4483 -0.9509 -3.5691
 6279SOL    HW324883   4.285   2.618   5.453 -0.4810 -0.4833  0.9726
 6279SOL    MW424884   4.371   2.609   5.467 -0.1417  0.2081 -0.4493
 6280SOL     OW24885   5.281   5.774   3.789 -0.4190 -0.0151  0.2997
 6280SOL    HW224886   5.350   5.819   3.741  0.4682 -1.0627  0.5558
 6280SOL    HW324887   5.327   5.709   3.842 -1.5522 -0.2973  0.9751
 6280SOL    MW424888   5.296   5.772   3.790 -0.4515 -0.1906  0.4226
 6281SOL     OW24889   2.126   1.844   5.300 -0.7290 -0.0915 -0.2513
 6281SOL    HW224890   2.133   1.857   5.205  0.0843  0.9478 -0.0719
 6281SOL    HW324891   2.119   1.933   5.335 -1.2802 -0.4820  0.6485
 6281SOL    MW424892   2.126   1.858   5.292 -0.6944 -0.0059 -0.1089
 6282SOL     OW24893   1.028   4.822   4.299  0.3067 -0.1545  0.1158
 6282SOL    HW224894   0.939   4.840   4.270  0.4049 -2.8507 -2.3579
 6282SOL    HW324895   1.024   4.828   4.395 -2.2663  0.7313  0.0326
 6282SOL    MW424896   1.016   4.825   4.308 -0.0198 -0.3934 -0.2216
 6283SOL     OW24897   0.023   1.915   2.597 -0.1257  0.8965  0.4961
 6283SOL    HW224898   0.092   1.934   2.534  0.0393  0.3464  0.5079
 6283SOL    HW324899   0.068   1.904   2.681 -0.2215  0.5490  0.5068
 6283SOL    MW424900   0.038   1.916   2.600 -0.1166  0.7780  0.4991
 6284SOL     OW24901   3.911   6.064   3.507 -0.2045  0.1684 -0.0397
 6284SOL    HW224902   3.921   6.128   3.578 -2.3001  0.1799  0.2928
 6284SOL    HW324903   3.884   6.116   3.432  1.8902  0.1376 -0.8980
 6284SOL    MW424904   3.909   6.079   3.507 -0.2046  0.1659 -0.1091
 6285SOL     OW24905   1.071   3.662   0.401  0.9046 -0.5225  0.0604
 6285SOL    HW224906   1.001   3.681   0.464 -0.4894  0.8179 -1.7795
 6285SOL    HW324907   1.122   3.592   0.442 -0.8558 -0.7738  1.9757
 6285SOL    MW424908   1.068   3.655   0.415  0.4884 -0.3788  0.0703
 6286SOL     OW24909   1.350   0.673   3.143 -0.2198 -0.0955 -0.0397
 6286SOL    HW224910   1.364   0.606   3.076 -2.1432 -0.2465 -0.3337
 6286SOL    HW324911   1.368   0.627   3.226  0.6803 -0.3261 -0.3477
 6286SOL    MW424912   1.354   0.658   3.145 -0.3548 -0.1459 -0.1192
 6287SOL     OW24913   5.796   0.939   0.723 -0.5454  0.6020  0.4302
 6287SOL    HW224914   5.720   0.993   0.702  0.6527  1.8146 -1.1261
 6287SOL    HW324915   5.825   0.905   0.638  1.4860  1.3893  0.7480
 6287SOL    MW424916   5.790   0.942   0.709 -0.1193  0.8659  0.2668
 6288SOL     OW24917   5.773   0.211   2.996 -0.1779 -0.9402  0.4261
 6288SOL    HW224918   5.712   0.253   2.936  0.2929 -1.8613 -0.7431
 6288SOL    HW324919   5.732   0.220   3.082 -0.2071  1.6417  0.2063
 6288SOL    MW424920   5.760   0.218   3.000 -0.1197 -0.7211  0.2428
 6289SOL     OW24921   2.738   1.138   1.689  0.4010  0.7204 -0.0879
 6289SOL    HW224922   2.708   1.090   1.765  0.0117 -2.6840 -2.2081
 6289SOL    HW324923   2.668   1.200   1.670 -0.5023  0.0654  1.0043
 6289SOL    MW424924   2.725   1.140   1.696  0.2305  0.1848 -0.2235
 6290SOL     OW24925   3.452   2.779   4.817  0.5788 -0.0431  0.5022
 6290SOL    HW224926   3.454   2.874   4.810 -0.6549 -0.0983 -1.1713
 6290SOL    HW324927   3.425   2.762   4.907 -2.5230  1.3105 -0.0217
 6290SOL    MW424928   3.449   2.789   4.828  0.0068  0.1282  0.2123
 6291SOL     OW24929   2.009   1.915   5.977 -0.3865 -0.9804 -0.2242
 6291SOL    HW224930   2.052   1.835   5.947  1.3537 -0.1564 -0.0638
 6291SOL    HW324931   1.957   1.944   5.903 -0.1594 -1.6609 -0.6636
 6291SOL    MW424932   2.008   1.908   5.964 -0.1270 -0.9614 -0.2610
 6292SOL     OW24933   3.329   3.764   2.918 -0.4834  0.1220  0.2642
 6292SOL    HW224934   3.410   3.770   2.969 -0.0873  1.3471 -0.4594
 6292SOL    HW324935   3.348   3.701   2.849 -0.1113  0.4856  0.0343
 6292SOL    MW424936   3.342   3.757   2.916 -0.3820  0.3316  0.1384
 6293SOL     OW24937   3.116   3.892   3.700 -0.7919 -0.5993 -0.9051
 6293SOL    HW224938   3.086   3.883   3.610 -0.3034  0.6552 -1.2206
 6293SOL    HW324939   3.212   3.896   3.693 -0.6013 -2.6047 -0.1080
 6293SOL    MW424940   3.125   3.891   3.688 -0.7023 -0.6984 -0.8416
 6294SOL     OW24941   2.624   1.527   5.294  0.5049 -0.3528 -0.2363
 6294SOL    HW224942   2.628   1.621   5.279 -0.7409 -0.3100 -0.4093
 6294SOL    HW324943   2.636   1.516   5.388 -1.5999  0.1811  0.1377
 6294SOL    MW424944   2.626   1.538   5.304  0.0629 -0.2767 -0.2097
 6295SOL     OW24945   0.396   3.545   1.764 -0.0166  0.2905 -0.9179
 6295SOL    HW224946   0.404   3.457   1.726  5.2880  1.1108 -2.5899
 6295SOL    HW324947   0.326   3.586   1.713 -3.1139 -2.9386  0.3388
 6295SOL    MW424948   0.388   3.539   1.752  0.2746 -0.0273 -0.9727
 6296SOL     OW24949   3.112   5.914   1.967 -0.0022  0.9014 -0.1107
 6296SOL    HW224950   3.018   5.919   1.983  0.0337  0.7169  0.1780
 6296SOL    HW324951   3.128   5.976   1.896 -0.6099 -0.3127 -1.3521
 6296SOL    MW424952   3.102   5.923   1.960 -0.0777  0.7169 -0.2364
 6297SOL     OW24953   4.884   3.622   5.370  0.0689 -0.1271 -0.5565
 6297SOL    HW224954   4.873   3.574   5.287  0.7444 -0.6245 -0.3716
 6297SOL    HW324955   4.979   3.636   5.376  0.0754 -0.5473  0.3846
 6297SOL    MW424956   4.895   3.617   5.360  0.1589 -0.2482 -0.4079
 6298SOL     OW24957   1.860   4.315   3.282  0.2169 -0.2559 -0.2084
 6298SOL    HW224958   1.790   4.257   3.311  0.7329 -0.1295  1.3942
 6298SOL    HW324959   1.819   4.372   3.216 -1.4450  0.4040  1.3326
 6298SOL    MW424960   1.846   4.315   3.277  0.0657 -0.1521  0.2064
 6299SOL     OW24961   4.509   1.110   2.576 -0.2073  0.4598 -0.0654
 6299SOL    HW224962   4.559   1.081   2.499  0.0754  0.4032  0.1399
 6299SOL    HW324963   4.434   1.050   2.580  1.1010 -1.1900  1.1810
 6299SOL    MW424964   4.505   1.098   2.566  0.0026  0.2346  0.1261
 6300SOL     OW24965   4.798   5.558   4.112  0.4669  0.4803  0.0629
 6300SOL    HW224966   4.800   5.610   4.193  2.4327 -0.5108  0.7305
 6300SOL    HW324967   4.863   5.490   4.126 -0.4316 -0.8193 -1.6808
 6300SOL    MW424968   4.807   5.556   4.125  0.6078  0.1781 -0.0791
 6301SOL     OW24969   4.666   3.856   3.329  0.4595 -0.0869 -0.1035
 6301SOL    HW224970   4.663   3.902   3.412 -0.6411  0.0732 -0.2260
 6301SOL    HW324971   4.675   3.763   3.353 -1.1546 -0.1742  0.2382
 6301SOL    MW424972   4.667   3.850   3.343  0.1014 -0.0773 -0.0746
 6302SOL     OW24973   0.081   3.358   0.982  0.5761 -0.1184 -0.2609
 6302SOL    HW224974   0.169   3.393   0.971  0.2804  0.4588 -0.8185
 6302SOL    HW324975   0.056   3.328   0.895 -0.0156  0.2851 -0.2363
 6302SOL    MW424976   0.089   3.358   0.969  0.4590  0.0110 -0.3312
 6303SOL     OW24977   0.687   4.802   3.170 -0.6613 -0.5248  0.2065
 6303SOL    HW224978   0.733   4.801   3.254 -0.6193 -1.1457  0.1858
 6303SOL    HW324979   0.640   4.885   3.169  0.8442  0.3500  0.0065
 6303SOL    MW424980   0.687   4.813   3.181 -0.4571 -0.4913  0.1774
 6304SOL     OW24981   1.673   6.048   5.924  0.0093 -0.2019 -0.0501
 6304SOL    HW224982   1.740   6.088   5.869 -1.3935 -0.0348 -1.7227
 6304SOL    HW324983   1.705   5.959   5.940  0.8852  0.0507 -0.3293
 6304SOL    MW424984   1.686   6.042   5.919 -0.0602 -0.1466 -0.3077
 6305SOL     OW24985   2.322   2.211   4.275 -0.1407  0.4106 -0.0063
 6305SOL    HW224986   2.228   2.191   4.281  0.0937 -0.7339  0.0389
 6305SOL    HW324987   2.330   2.264   4.196 -0.7921  0.2682 -0.1729
 6305SOL    MW424988   2.310   2.215   4.265 -0.1957  0.2409 -0.0223
 6306SOL     OW24989   0.962   3.587   0.160  0.5252 -0.1335  0.2361
 6306SOL    HW224990   0.976   3.673   0.121 -0.4981 -0.5228 -1.0803
 6306SOL    HW324991   0.977   3.600   0.254 -0.6836  1.7506  0.2355
 6306SOL    MW424992   0.966   3.600   0.167  0.2307  0.0637  0.0623
 6307SOL     OW24993   2.511   0.346   6.421  0.2657 -0.1097  0.0485
 6307SOL    HW224994   2.558   0.376   6.499  0.5933  1.3692 -0.6796
 6307SOL    HW324995   2.514   0.421   6.361 -1.7386 -0.5129 -0.6112
 6307SOL    MW424996   2.518   0.360   6.423  0.0445  0.0322 -0.1346
 6308SOL     OW24997   3.501   0.212   4.260  0.1176 -0.0378  0.5415
 6308SOL    HW224998   3.493   0.279   4.328 -1.8059 -3.8674  4.5639
 6308SOL    HW324999   3.414   0.209   4.220 -0.1706 -0.8520  1.2078
 6308SOL    MW425000   3.488   0.221   4.264 -0.1742 -0.6505  1.1602
 6309SOL     OW25001   2.281   1.234   4.777 -0.1411 -0.3874 -0.1055
 6309SOL    HW225002   2.235   1.293   4.716  1.7351  0.2741 -0.9426
 6309SOL    HW325003   2.337   1.181   4.720  1.8738  0.4359  1.0480
 6309SOL    MW425004   2.282   1.234   4.761  0.3722 -0.1915 -0.0637
 6310SOL     OW25005   0.804   4.546   0.614 -0.1451  0.0846  0.1676
 6310SOL    HW225006   0.879   4.575   0.562  1.4880 -1.9953  1.2010
 6310SOL    HW325007   0.747   4.502   0.551  0.6382 -0.3187 -0.2800
 6310SOL    MW425008   0.806   4.544   0.599  0.1737 -0.2430  0.2449
 6311SOL     OW25009   1.711   3.980   4.617  0.4852  0.2496  0.3382
 6311SOL    HW225010   1.635   4.037   4.612  0.4774  0.3253  1.2073
 6311SOL    HW325011   1.786   4.038   4.607  0.4703  0.3722  0.9567
 6311SOL    MW425012   1.711   3.995   4.615  0.4822  0.2758  0.5345
 6312SOL     OW25013   2.551   5.487   4.345  0.2637 -0.1265 -0.3716
 6312SOL    HW225014   2.493   5.433   4.292  2.4999 -1.8697 -1.1940
 6312SOL    HW325015   2.628   5.433   4.360  1.8183  2.1410  0.4824
 6312SOL    MW425016   2.553   5.473   4.340  0.7639 -0.0573 -0.3674
 6313SOL     OW25017   3.443   4.413   5.212  0.1769  0.2035  0.4861
 6313SOL    HW225018   3.421   4.358   5.137 -0.8545  0.8159  0.3279
 6313SOL    HW325019   3.495   4.356   5.269  0.6400 -0.3881 -0.4955
 6313SOL    MW425020   3.447   4.399   5.209  0.1019  0.2063  0.3357
 6314SOL     OW25021   3.668   4.900   5.912 -0.3581 -0.0527 -0.1820
 6314SOL    HW225022   3.687   4.878   5.820  0.5757  2.1568 -0.5666
 6314SOL    HW325023   3.574   4.884   5.921 -1.0240  2.0919 -2.3081
 6314SOL    MW425024   3.658   4.895   5.901 -0.3227  0.5217 -0.5133
 6315SOL     OW25025   0.261   0.260   0.524 -0.1811 -0.5311 -0.2765
 6315SOL    HW225026   0.256   0.329   0.589  0.5200  0.1640 -0.9356
 6315SOL    HW325027   0.264   0.306   0.440  2.2049 -1.2310 -0.6661
 6315SOL    MW425028   0.261   0.275   0.521  0.2262 -0.5317 -0.4148
 6316SOL     OW25029   3.088   0.461   4.322  0.1866 -0.3362  0.0773
 6316SOL    HW225030   3.146   0.395   4.283 -0.8795 -0.8590 -0.6445
 6316SOL    HW325031   3.045   0.503   4.247  0.4282  0.8100  0.5547
 6316SOL    MW425032   3.090   0.458   4.307  0.0778 -0.2539  0.0450
 6317SOL     OW25033   5.430   5.237   1.707  0.8946  0.2343 -0.4918
 6317SOL    HW225034   5.394   5.181   1.776  0.1091  0.3331 -0.8028
 6317SOL    HW325035   5.505   5.188   1.673 -0.7269 -1.4556 -1.8537
 6317SOL    MW425036   5.435   5.223   1.712  0.5770  0.0243 -0.7125
 6318SOL     OW25037   0.127   2.752   2.715  0.1533 -0.2462  0.2154
 6318SOL    HW225038   0.062   2.759   2.784  1.4271  0.3513  1.4187
 6318SOL    HW325039   0.140   2.658   2.703 -0.7477 -0.3636  0.1205
 6318SOL    MW425040   0.120   2.741   2.722  0.2025 -0.1828  0.3616
 6319SOL     OW25041   2.690   4.429   5.729  0.0412 -0.1499  0.1594
 6319SOL    HW225042   2.732   4.353   5.769 -0.2581 -0.1142  0.5371
 6319SOL    HW325043   2.747   4.450   5.654  0.0989 -0.7658  0.0262
 6319SOL    MW425044   2.703   4.422   5.724  0.0093 -0.2265  0.1917
 6320SOL     OW25045   2.656   2.059   1.064 -0.1400  0.2194  0.0558
 6320SOL    HW225046   2.607   2.130   1.105 -0.6132 -0.1088  0.0685
 6320SOL    HW325047   2.657   1.989   1.130  2.6541  1.1536  1.1318
 6320SOL    MW425048   2.649   2.059   1.078  0.1662  0.2994  0.1995
 6321SOL     OW25049   0.812   3.275   6.109 -0.4624 -0.0106 -0.3038
 6321SOL    HW225050   0.836   3.229   6.028  1.5818 -0.5589  0.5740
 6321SOL    HW325051   0.738   3.225   6.143 -0.0168 -1.0194 -0.7679
 6321SOL    MW425052   0.805   3.262   6.103 -0.1339 -0.2160 -0.2492
 6322SOL     OW25053   3.996   0.565   2.885 -0.2694 -0.1157  0.2348
 6322SOL    HW225054   3.983   0.473   2.863 -0.6032  0.1388 -0.6476
 6322SOL    HW325055   4.080   0.588   2.847 -0.1952 -0.0491  0.4364
 6322SOL    MW425056   4.005   0.556   2.877 -0.3037 -0.0733  0.1450
 6323SOL     OW25057   2.365   5.251   6.210  0.3775  0.3461 -0.0261
 6323SOL    HW225058   2.280   5.219   6.239  1.1378 -0.5217  1.3988
 6323SOL    HW325059   2.357   5.259   6.115 -0.3362 -2.8189 -0.3336
 6323SOL    MW425060   2.353   5.248   6.201  0.3836 -0.1860  0.1213
 6324SOL     OW25061   2.491   4.149   5.037  0.1810  0.0244 -0.8154
 6324SOL    HW225062   2.548   4.077   5.011 -1.2170 -1.1511 -0.7515
 6324SOL    HW325063   2.406   4.128   4.998 -0.9970  0.1484  1.5112
 6324SOL    MW425064   2.487   4.137   5.029 -0.1589 -0.1144 -0.5000
 6325SOL     OW25065   4.549   5.936   4.154  0.2740  0.1870 -0.3786
 6325SOL    HW225066   4.554   5.886   4.073  1.2454 -0.6571  0.1873
 6325SOL    HW325067   4.512   5.875   4.218  1.2845  0.2312  0.2672
 6325SOL    MW425068   4.545   5.921   4.151  0.5355  0.0814 -0.2187
 6326SOL     OW25069   2.534   5.051   1.978 -0.1047  0.0494 -0.0947
 6326SOL    HW225070   2.466   5.055   1.911 -0.3387  0.4797  0.1661
 6326SOL    HW325071   2.526   4.963   2.014 -1.7718  0.6723  1.2003
 6326SOL    MW425072   2.524   5.040   1.974 -0.3555  0.1883  0.1106
 6327SOL     OW25073   2.950   0.588   5.449  0.2100  0.2486 -0.1773
 6327SOL    HW225074   3.025   0.539   5.417 -1.0435  0.2478 -3.4931
 6327SOL    HW325075   2.975   0.680   5.438 -0.2953  0.2491 -1.5502
 6327SOL    MW425076   2.963   0.594   5.443 -0.0221  0.2485 -0.7959
 6328SOL     OW25077   2.495   1.773   2.482 -0.1109 -0.2492 -0.3161
 6328SOL    HW225078   2.414   1.824   2.480  0.1521  0.2026  0.3477
 6328SOL    HW325079   2.547   1.812   2.552 -0.6553 -2.5321  1.5052
 6328SOL    MW425080   2.491   1.785   2.491 -0.1480 -0.4908  0.0118
 6329SOL     OW25081   5.846   3.622   5.646 -0.7710  0.0565 -0.3133
 6329SOL    HW225082   5.806   3.535   5.644 -0.9275  0.1274 -1.9517
 6329SOL    HW325083   5.783   3.679   5.601 -0.5495  0.9655  0.4970
 6329SOL    MW425084   5.832   3.618   5.640 -0.7624  0.1858 -0.4226
 6330SOL     OW25085   1.633   4.326   1.272  0.3875 -0.4610 -0.3088
 6330SOL    HW225086   1.554   4.373   1.300 -1.0047 -2.3591 -0.8736
 6330SOL    HW325087   1.689   4.326   1.350  0.4398  1.9928 -0.2546
 6330SOL    MW425088   1.630   4.332   1.286  0.2107 -0.3877 -0.3762
 6331SOL     OW25089   0.678   5.643   0.720 -0.0166 -0.4643 -0.1736
 6331SOL    HW225090   0.642   5.614   0.636  0.6179  0.1582 -0.6659
 6331SOL    HW325091   0.749   5.582   0.737  0.0462 -0.4083 -0.2351
 6331SOL    MW425092   0.682   5.631   0.711  0.0754 -0.3748 -0.2466
 6332SOL     OW25093   0.746   2.821   4.231  0.2660 -0.5989 -0.7391
 6332SOL    HW225094   0.752   2.916   4.218  0.9036 -0.4719  0.3967
 6332SOL    HW325095   0.674   2.793   4.173 -1.3093  0.8687  0.4187
 6332SOL    MW425096   0.737   2.830   4.222  0.1422 -0.3885 -0.4365
 6333SOL     OW25097   5.187   0.748   0.708  0.7729  0.5938  0.4586
 6333SOL    HW225098   5.241   0.824   0.732  2.7787 -1.0821  1.6959
 6333SOL    HW325099   5.189   0.693   0.786 -0.9304 -0.5861 -0.2761
 6333SOL    MW425100   5.195   0.751   0.722  0.8128  0.2170  0.5249
 6334SOL     OW25101   4.083   1.717   4.189 -0.8793 -0.4424  0.0736
 6334SOL    HW225102   4.056   1.735   4.099  0.7799  1.8213 -0.0286
 6334SOL    HW325103   4.001   1.719   4.239 -1.5886  0.2339 -1.0744
 6334SOL    MW425104   4.068   1.719   4.184 -0.7540 -0.0545 -0.0914
 6335SOL     OW25105   3.075   4.604   2.115  0.2147  0.1402  0.2967
 6335SOL    HW225106   2.985   4.629   2.094  0.0647  1.4175  2.2034
 6335SOL    HW325107   3.076   4.598   2.211  1.6455 -1.9861  0.2300
 6335SOL    MW425108   3.063   4.606   2.125  0.3837  0.0282  0.5395
 6336SOL     OW25109   1.596   0.125   5.244 -0.3725  0.3551 -0.8156
 6336SOL    HW225110   1.648   0.066   5.299 -0.2747  0.1776 -1.0914
 6336SOL    HW325111   1.540   0.066   5.193 -0.9608  0.5510 -0.4109
 6336SOL    MW425112   1.595   0.109   5.244 -0.4372  0.3575 -0.7986
 6337SOL     OW25113   0.738   1.647   2.539 -0.5971  0.6695  0.1112
 6337SOL    HW225114   0.811   1.664   2.480 -0.0138 -1.0910  0.2631
 6337SOL    HW325115   0.682   1.585   2.493  0.0766 -1.0577  1.4922
 6337SOL    MW425116   0.740   1.641   2.525 -0.4313  0.2093  0.3134
 6338SOL     OW25117   0.579   3.164   5.219 -0.0080 -0.3016  0.0462
 6338SOL    HW225118   0.650   3.125   5.169 -0.3379 -0.3138 -0.4142
 6338SOL    HW325119   0.594   3.135   5.309  1.9456  1.5928  0.4232
 6338SOL    MW425120   0.590   3.155   5.224  0.2062 -0.0533  0.0352
 6339SOL     OW25121   5.571   6.283   0.058  0.3898  0.2462 -0.2444
 6339SOL    HW225122   5.491   6.335   0.060  0.1588  0.0038 -1.8104
 6339SOL    HW325123   5.640   6.345   0.079 -0.0619  0.7726 -0.2757
 6339SOL    MW425124   5.569   6.298   0.061  0.2997  0.2837 -0.4552
 6340SOL     OW25125   2.045   0.484   0.539  0.3232 -0.3131 -0.5327
 6340SOL    HW225126   2.138   0.500   0.525  0.4785 -0.3978  0.3418
 6340SOL    HW325127   2.026   0.529   0.622 -0.6223  0.4884 -1.1682
 6340SOL    MW425128   2.055   0.492   0.548  0.2190 -0.2185 -0.5012
 6341SOL     OW25129   1.001   1.552   3.953  0.4370  0.3081  0.1011
 6341SOL    HW225130   1.048   1.545   4.036  0.8364 -0.1681 -0.1642
 6341SOL    HW325131   0.910   1.529   3.974  0.0535  2.2844  0.8434
 6341SOL    MW425132   0.995   1.548   3.967  0.4391  0.5060  0.1641
 6342SOL     OW25133   1.510   5.175   4.997 -0.0306  0.1069  0.4761
 6342SOL    HW225134   1.448   5.194   4.927  0.6291  0.4897 -0.0077
 6342SOL    HW325135   1.539   5.261   5.028 -0.3281 -0.0580  1.2303
 6342SOL    MW425136   1.506   5.189   4.992  0.0172  0.1356  0.5118
 6343SOL     OW25137   1.798   5.620   4.019  0.0656 -0.2415 -0.1131
 6343SOL    HW225138   1.784   5.583   3.932  0.5531  0.1162 -0.3527
 6343SOL    HW325139   1.813   5.544   4.075  3.0756 -0.4125 -0.9779
 6343SOL    MW425140   1.798   5.605   4.015  0.5271 -0.2168 -0.2588
 6344SOL     OW25141   0.846   3.566   3.155 -0.0036  0.4395  0.1746
 6344SOL    HW225142   0.787   3.544   3.227 -2.0988  1.9004 -0.9709
 6344SOL    HW325143   0.886   3.648   3.182  0.3381  0.2272  0.3092
 6344SOL    MW425144   0.843   3.574   3.168 -0.2349  0.6042  0.0412
 6345SOL     OW25145   0.333   6.237   5.707 -0.4108 -0.0732 -0.1930
 6345SOL    HW225146   0.423   6.249   5.677 -0.1524  0.9951  0.9557
 6345SOL    HW325147   0.340   6.216   5.800 -1.3365 -0.2589 -0.1510
 6345SOL    MW425148   0.346   6.235   5.715 -0.4988  0.0433 -0.0359
 6346SOL     OW25149   3.696   0.018   1.358  0.1061 -0.6224  0.3202
 6346SOL    HW225150   3.621  -0.041   1.373 -0.5201  0.6140  2.4015
 6346SOL    HW325151   3.773  -0.037   1.369 -0.4783 -1.2588  1.3073
 6346SOL    MW425152   3.696   0.003   1.361 -0.0537 -0.5433  0.7250
 6347SOL     OW25153   0.357   2.479   3.524  0.4529  0.0413 -0.2410
 6347SOL    HW225154   0.434   2.528   3.494  1.7843 -1.5812  0.3868
 6347SOL    HW325155   0.393   2.409   3.579 -1.5545 -0.1501  0.9232
 6347SOL    MW425156   0.372   2.476   3.527  0.3637 -0.1981 -0.0046
 6348SOL     OW25157   0.507   2.915   4.918 -0.6997  0.1670 -0.1014
 6348SOL    HW225158   0.533   2.838   4.868 -1.4601 -1.1330  1.4127
 6348SOL    HW325159   0.485   2.981   4.852  0.3901 -0.7388 -1.4221
 6348SOL    MW425160   0.508   2.914   4.903 -0.6562 -0.1240 -0.0758
 6349SOL     OW25161   4.581   2.074   6.329 -0.4042  0.4145  0.1344
 6349SOL    HW225162   4.541   2.079   6.243 -0.5731  0.6023  0.2235
 6349SOL    HW325163   4.562   1.985   6.360 -0.7706  0.5120  0.1855
 6349SOL    MW425164   4.574   2.063   6.322 -0.4748  0.4521  0.1529
 6350SOL     OW25165   1.945   5.141   5.645 -0.4522 -0.0429  0.1532
 6350SOL    HW225166   1.886   5.091   5.590 -0.6922  1.8278 -1.4049
 6350SOL    HW325167   1.891   5.170   5.719 -1.3627  1.0599 -0.8969
 6350SOL    MW425168   1.930   5.138   5.648 -0.6040  0.3494 -0.1909
 6351SOL     OW25169   1.381   6.345   6.037  0.4083  0.0986 -0.0364
 6351SOL    HW225170   1.345   6.259   6.017  1.5311 -0.2116 -0.8299
 6351SOL    HW325171   1.353   6.400   5.964  0.3265  0.2069  0.0781
 6351SOL    MW425172   1.373   6.341   6.024  0.5456  0.0720 -0.1260
 6352SOL     OW25173   5.425   2.838   0.913 -0.2615  0.8666  0.0376
 6352SOL    HW225174   5.337   2.828   0.948  0.2303  1.5402  1.5370
 6352SOL    HW325175   5.424   2.788   0.831 -1.1194 -1.7854  1.5546
 6352SOL    MW425176   5.413   2.830   0.907 -0.3098  0.6056  0.4355
 6353SOL     OW25177   3.504   3.247   3.447 -0.2178 -0.4839 -0.2411
 6353SOL    HW225178   3.544   3.275   3.364  2.0196  1.6549  1.4113
 6353SOL    HW325179   3.491   3.328   3.496 -0.2562 -1.7666  2.0112
 6353SOL    MW425180   3.508   3.261   3.443  0.0723 -0.3709  0.2740
 6354SOL     OW25181   2.825   4.090   1.131 -0.4059  0.1661  0.4789
 6354SOL    HW225182   2.886   4.024   1.166 -0.3703 -0.1249 -0.1190
 6354SOL    HW325183   2.864   4.116   1.048 -0.3340  1.0718  0.7868
 6354SOL    MW425184   2.838   4.084   1.125 -0.3917  0.2472  0.4406
 6355SOL     OW25185   4.572   5.359   0.720 -0.8407  0.3170 -0.1667
 6355SOL    HW225186   4.557   5.396   0.633  0.3027  0.7449 -0.1957
 6355SOL    HW325187   4.495   5.305   0.736 -1.4591  0.8932 -1.0915
 6355SOL    MW425188   4.560   5.356   0.711 -0.7714  0.4495 -0.2925
 6356SOL     OW25189   5.076   4.709   1.952  0.7308  0.3058  0.5050
 6356SOL    HW225190   5.166   4.732   1.975  0.7455  1.5334 -0.5920
 6356SOL    HW325191   5.022   4.743   2.024  1.1202 -0.2205  1.0471
 6356SOL    MW425192   5.080   4.717   1.964  0.7841  0.3983  0.4318
 6357SOL     OW25193   2.985   4.003   5.636 -0.5060  0.2018 -0.2321
 6357SOL    HW225194   3.044   4.045   5.699  1.6252  0.5905 -2.3383
 6357SOL    HW325195   2.906   3.983   5.687 -0.0151  2.9637  1.8839
 6357SOL    MW425196   2.982   4.006   5.651 -0.1600  0.6175 -0.2308
 6358SOL     OW25197   5.726   2.711   5.651 -0.4937 -0.3308  0.2833
 6358SOL    HW225198   5.765   2.633   5.611 -0.2241  0.2104 -0.5379
 6358SOL    HW325199   5.735   2.779   5.584  0.3952  0.7327  1.4329
 6358SOL    MW425200   5.732   2.710   5.637 -0.3409 -0.1191  0.3266
 6359SOL     OW25201   2.460   4.582   6.204  0.0582 -0.0871 -0.3793
 6359SOL    HW225202   2.499   4.563   6.118  0.1704 -2.2173  0.0869
 6359SOL    HW325203   2.408   4.504   6.225 -1.3769  1.1169  0.7363
 6359SOL    MW425204   2.459   4.569   6.196 -0.1164 -0.2093 -0.1706
 6360SOL     OW25205   5.900   0.175   0.456 -0.4498  0.0631  0.8081
 6360SOL    HW225206   5.820   0.219   0.428 -1.0913 -2.4091 -1.7136
 6360SOL    HW325207   5.872   0.119   0.529 -0.9606 -0.4915  0.1986
 6360SOL    MW425208   5.886   0.173   0.462 -0.6018 -0.3362  0.3950
 6361SOL     OW25209   5.707   3.630   6.346 -0.0484 -0.3496 -0.7545
 6361SOL    HW225210   5.710   3.535   6.344  0.4046 -0.4515  1.8841
 6361SOL    HW325211   5.615   3.652   6.331 -0.2367 -1.2003 -0.8940
 6361SOL    MW425212   5.696   3.620   6.344 -0.0135 -0.4753 -0.4248
 6362SOL     OW25213   2.243   4.052   4.913 -0.2972  0.2893 -0.0531
 6362SOL    HW225214   2.186   4.062   4.989 -0.6171  0.2626 -0.2885
 6362SOL    HW325215   2.192   4.086   4.840 -0.6488 -1.2127 -0.5425
 6362SOL    MW425216   2.228   4.058   4.913 -0.3858  0.0876 -0.1488
 6363SOL     OW25217   0.019   6.359   5.473  0.3772  0.1163 -0.1018
 6363SOL    HW225218   0.023   6.349   5.568 -0.4194  1.7766  0.1388
 6363SOL    HW325219   0.090   6.419   5.452  0.7152 -0.4451 -0.6156
 6363SOL    MW425220   0.029   6.365   5.483  0.3167  0.2613 -0.1378
 6364SOL     OW25221   3.389   2.123   5.784  0.2791  0.0262  0.0075
 6364SOL    HW225222   3.482   2.123   5.761  0.4672 -2.2567  0.5371
 6364SOL    HW325223   3.387   2.158   5.874  0.8867 -1.7053  0.7269
 6364SOL    MW425224   3.401   2.128   5.793  0.3841 -0.5035  0.1723
 6365SOL     OW25225   4.326   2.854   3.956  0.1304  0.5125 -0.1505
 6365SOL    HW225226   4.368   2.940   3.958  1.3942 -0.0844  1.4224
 6365SOL    HW325227   4.367   2.806   4.028 -2.8246 -0.3621  1.0784
 6365SOL    MW425228   4.337   2.859   3.966 -0.0927  0.3184  0.2192
 6366SOL     OW25229   3.046   5.033   0.946  0.2268 -0.5310  0.0443
 6366SOL    HW225230   3.081   4.950   0.980 -0.3206 -1.4766 -1.6184
 6366SOL    HW325231   2.988   5.008   0.874  0.0512  1.3067 -0.5162
 6366SOL    MW425232   3.043   5.019   0.941  0.1314 -0.4133 -0.2490
 6367SOL     OW25233   1.247   5.318   5.302  0.3580 -0.2377 -0.2764
 6367SOL    HW225234   1.211   5.346   5.386  1.3919 -1.2291  0.5439
 6367SOL    HW325235   1.304   5.389   5.275  2.4517 -1.1348  1.4557
 6367SOL    MW425236   1.250   5.331   5.310  0.7706 -0.4868  0.0603
 6368SOL     OW25237   1.643   1.420   2.108  0.0741  0.1976 -0.1330
 6368SOL    HW225238   1.671   1.506   2.077 -2.2800  0.7546 -0.8931
 6368SOL    HW325239   1.627   1.370   2.028  1.7604 -1.1401  0.2902
 6368SOL    MW425240   1.645   1.425   2.093 -0.0140  0.0946 -0.1774
 6369SOL     OW25241   4.004   1.229   3.786  0.2115  0.0403  0.6778
 6369SOL    HW225242   3.962   1.207   3.869 -0.1072 -1.1691  0.2151
 6369SOL    HW325243   4.086   1.180   3.786  0.0949 -0.1630  0.1785
 6369SOL    MW425244   4.009   1.220   3.797  0.1541 -0.1461  0.5508
 6370SOL     OW25245   3.590   2.507   4.526 -0.8449 -0.4029 -0.7673
 6370SOL    HW225246   3.553   2.594   4.515 -0.6048  0.1052  1.7562
 6370SOL    HW325247   3.671   2.509   4.475  0.3578  1.7445  1.0118
 6370SOL    MW425248   3.596   2.519   4.518 -0.6545 -0.0525 -0.1996
 6371SOL     OW25249   4.052   2.552   5.180  0.3178 -0.1645  0.3165
 6371SOL    HW225250   3.990   2.604   5.129 -0.8221 -2.1088 -0.3853
 6371SOL    HW325251   4.053   2.594   5.266 -1.1375  0.5442  0.0234
 6371SOL    MW425252   4.044   2.565   5.185 -0.0246 -0.3275  0.1853
 6372SOL     OW25253   2.876   1.825   5.110 -0.0424 -0.2067 -0.2237
 6372SOL    HW225254   2.929   1.752   5.076  0.2472 -0.5537  0.9380
 6372SOL    HW325255   2.912   1.903   5.067  1.2540 -0.4736  0.3328
 6372SOL    MW425256   2.888   1.826   5.100  0.1668 -0.2877  0.0030
 6373SOL     OW25257   4.435   6.386   5.851  0.9016 -0.2679  0.3629
 6373SOL    HW225258   4.486   6.464   5.872 -0.2969  0.4428  0.7095
 6373SOL    HW325259   4.470   6.319   5.909 -0.8445  1.1000  3.2415
 6373SOL    MW425260   4.446   6.387   5.861  0.5131  0.0063  0.7884
 6374SOL     OW25261   0.679   0.013   2.024 -0.6437  0.2661 -0.0609
 6374SOL    HW225262   0.752   0.025   1.962 -0.6638  0.8640  0.0207
 6374SOL    HW325263   0.656  -0.079   2.016  1.4697 -0.4702  1.3881
 6374SOL    MW425264   0.686   0.002   2.014 -0.3675  0.2478  0.1410
 6375SOL     OW25265   5.455   2.159   1.872 -0.2625  0.0760 -0.1912
 6375SOL    HW225266   5.391   2.088   1.874  0.9858 -1.0916 -0.1370
 6375SOL    HW325267   5.436   2.206   1.791 -0.9000 -0.5085 -0.3891
 6375SOL    MW425268   5.444   2.156   1.862 -0.1819 -0.1552 -0.2102
 6376SOL     OW25269   4.056   5.685   1.443  0.4431  0.2230  0.4021
 6376SOL    HW225270   4.009   5.715   1.521  1.4674 -0.6412  1.3890
 6376SOL    HW325271   4.140   5.732   1.446  0.3831  0.3919 -0.3363
 6376SOL    MW425272   4.061   5.695   1.454  0.5703  0.1313  0.4349
 6377SOL     OW25273   1.735   3.651   0.819  0.1371 -0.0919  0.3406
 6377SOL    HW225274   1.761   3.733   0.861 -0.5765  0.0197  0.5940
 6377SOL    HW325275   1.672   3.613   0.880  1.3158 -1.4085  0.7842
 6377SOL    MW425276   1.730   3.657   0.833  0.1984 -0.2509  0.4326
 6378SOL     OW25277   2.711   5.619   1.978  0.3165  0.4005 -0.0613
 6378SOL    HW225278   2.735   5.704   1.941  0.8198  0.0984 -0.4430
 6378SOL    HW325279   2.768   5.556   1.933  0.2492 -0.0890  0.5187
 6378SOL    MW425280   2.722   5.622   1.967  0.3740  0.2960 -0.0351
 6379SOL     OW25281   1.057   2.996   0.135  0.2098 -0.7510 -0.5708
 6379SOL    HW225282   1.065   3.033   0.223  1.9743 -1.0395 -0.5818
 6379SOL    HW325283   1.146   2.975   0.109 -0.4235 -2.1409 -1.8045
 6379SOL    MW425284   1.070   2.998   0.143  0.3591 -0.9724 -0.7351
 6380SOL     OW25285   4.216   1.850   0.042 -0.0100 -0.2193  0.6448
 6380SOL    HW225286   4.309   1.827   0.050 -0.3911 -1.7125  1.2469
 6380SOL    HW325287   4.215   1.943   0.022  1.6539 -0.4179 -0.5426
 6380SOL    MW425288   4.228   1.859   0.040  0.1593 -0.4425  0.5676
 6381SOL     OW25289   3.907   0.988   2.883  0.2885  0.0063  0.3095
 6381SOL    HW225290   3.860   0.905   2.879 -0.9959  0.6473  1.1981
 6381SOL    HW325291   3.865   1.043   2.817 -0.5133  0.7077  1.3676
 6381SOL    MW425292   3.895   0.985   2.874  0.0132  0.1834  0.5663
 6382SOL     OW25293   0.653   4.050   5.280  0.0819 -0.1140 -0.0034
 6382SOL    HW225294   0.708   4.071   5.356 -0.2852  2.2248 -0.3141
 6382SOL    HW325295   0.584   4.116   5.282 -1.3333 -1.4904 -1.0384
 6382SOL    MW425296   0.652   4.061   5.291 -0.1532  0.0130 -0.1810
 6383SOL     OW25297   3.421   0.716   4.355  0.2866  0.0812 -0.3335
 6383SOL    HW225298   3.458   0.695   4.269  2.5087  1.8366  0.1197
 6383SOL    HW325299   3.350   0.778   4.336 -0.9110 -1.4219 -1.0220
 6383SOL    MW425300   3.416   0.721   4.341  0.4218  0.1145 -0.3645
 6384SOL     OW25301   2.379   1.001   5.005 -0.0352 -0.5935  0.4600
 6384SOL    HW225302   2.348   0.991   4.915  0.2352 -1.8062  0.4915
 6384SOL    HW325303   2.432   1.080   5.004 -3.9173  2.3310  0.6334
 6384SOL    MW425304   2.382   1.010   4.993 -0.5117 -0.3676  0.4870
 6385SOL     OW25305   4.317   1.779   3.590 -0.7108 -0.3614  0.4806
 6385SOL    HW225306   4.318   1.692   3.551 -0.5573 -1.3921  2.5991
 6385SOL    HW325307   4.405   1.789   3.628 -0.3832  1.1645 -0.5801
 6385SOL    MW425308   4.329   1.769   3.590 -0.6473 -0.2961  0.6201
 6386SOL     OW25309   1.931   0.176   5.236  0.4535 -0.2819 -0.1936
 6386SOL    HW225310   1.889   0.251   5.194  0.5801 -0.5220 -0.7652
 6386SOL    HW325311   2.021   0.205   5.252  0.1080  0.2136  0.9831
 6386SOL    MW425312   1.937   0.190   5.232  0.4246 -0.2482 -0.1137
 6387SOL     OW25313   5.437   0.655   1.784 -0.1968  0.4277  0.1225
 6387SOL    HW225314   5.508   0.617   1.733 -0.8141  0.0268 -0.4601
 6387SOL    HW325315   5.478   0.681   1.867  0.2966 -1.3045  0.4565
 6387SOL    MW425316   5.452   0.654   1.788 -0.2131  0.1462  0.0897
 6388SOL     OW25317   2.972   3.607   0.078  0.1071  0.3687  0.1120
 6388SOL    HW225318   3.051   3.622   0.129 -0.0662 -0.7720  0.7289
 6388SOL    HW325319   2.982   3.519   0.042 -1.7769 -0.6578  1.9075
 6388SOL    MW425320   2.984   3.598   0.080 -0.1643  0.0828  0.4303
 6389SOL     OW25321   4.089   4.663   0.575  0.8626 -0.1629  0.3283
 6389SOL    HW225322   4.048   4.616   0.502 -1.0057  2.0136 -0.1526
 6389SOL    HW325323   4.074   4.606   0.651 -1.1415 -0.5101 -0.2504
 6389SOL    MW425324   4.082   4.649   0.576  0.3517  0.0785  0.1885
 6390SOL     OW25325   5.699   2.043   1.938 -0.0055 -0.5620 -0.3333
 6390SOL    HW225326   5.614   2.078   1.910  0.0099 -0.6863 -0.5408
 6390SOL    HW325327   5.758   2.118   1.937  0.2119 -0.7233 -1.5211
 6390SOL    MW425328   5.695   2.057   1.934  0.0252 -0.5997 -0.5174
 6391SOL     OW25329   1.862   2.997   0.601  0.1723 -0.3656  0.0431
 6391SOL    HW225330   1.936   3.019   0.543 -0.6282  0.7856 -0.5902
 6391SOL    HW325331   1.798   2.955   0.544  0.0534 -0.7249  0.4394
 6391SOL    MW425332   1.863   2.995   0.586  0.0510 -0.2611  0.0118
 6392SOL     OW25333   0.367   1.866   3.805  0.4677  0.5297 -0.0507
 6392SOL    HW225334   0.331   1.915   3.878  0.4271 -0.3549  0.5375
 6392SOL    HW325335   0.461   1.867   3.819  0.3739 -0.9521  0.8978
 6392SOL    MW425336   0.375   1.872   3.816  0.4500  0.2175  0.1521
 6393SOL     OW25337   6.282   2.631   4.809 -0.3759  0.1985 -0.4179
 6393SOL    HW225338   6.288   2.687   4.732  0.5051  0.8073  0.0758
 6393SOL    HW325339   6.273   2.691   4.882  3.0985 -0.0747  0.3928
 6393SOL    MW425340   6.282   2.646   4.808  0.1987  0.2428 -0.2458
 6394SOL     OW25341   4.943   1.335   3.545 -0.5041 -0.1956  0.1283
 6394SOL    HW225342   5.037   1.353   3.544 -0.7749  1.3894 -0.5280
 6394SOL    HW325343   4.916   1.347   3.454 -1.6012  1.1023  0.5843
 6394SOL    MW425344   4.952   1.339   3.533 -0.6846  0.1848  0.1019
 6395SOL     OW25345   5.442   6.005   0.694 -0.0718 -0.7850 -0.2943
 6395SOL    HW225346   5.452   5.918   0.655  0.7287 -0.4685 -0.8369
 6395SOL    HW325347   5.349   6.013   0.712 -0.4094 -1.1266 -1.7475
 6395SOL    MW425348   5.431   5.995   0.691 -0.0107 -0.7883 -0.5576
 6396SOL     OW25349   4.823   5.160   6.063 -0.2022 -0.9125 -0.6847
 6396SOL    HW225350   4.740   5.160   6.015  0.0210 -0.7066 -1.0803
 6396SOL    HW325351   4.802   5.122   6.148 -1.1146  0.7687 -0.0988
 6396SOL    MW425352   4.809   5.155   6.068 -0.2931 -0.6635 -0.6596
 6397SOL     OW25353   2.265   4.093   5.956  0.5405 -0.1627  0.2587
 6397SOL    HW225354   2.237   4.183   5.946  1.1521  0.0802  0.6356
 6397SOL    HW325355   2.225   4.046   5.882 -1.2858  0.0340  1.0841
 6397SOL    MW425356   2.256   4.099   5.945  0.3803 -0.1047  0.4174
 6398SOL     OW25357   5.200   4.594   5.957 -0.0150  0.0892 -0.1286
 6398SOL    HW225358   5.108   4.569   5.962 -0.2254  1.0363  3.6312
 6398SOL    HW325359   5.205   4.652   5.881 -1.9815 -1.6768 -1.7313
 6398SOL    MW425360   5.189   4.598   5.948 -0.3022 -0.0188  0.1560
 6399SOL     OW25361   5.366   5.151   0.909 -0.7411 -0.5185 -0.2035
 6399SOL    HW225362   5.318   5.230   0.883  0.0128 -0.2672 -0.8603
 6399SOL    HW325363   5.357   5.092   0.834  2.2023  0.5473 -1.5174
 6399SOL    MW425364   5.358   5.154   0.896 -0.2533 -0.3447 -0.4635
 6400SOL     OW25365   6.146   2.194   6.321 -0.3468 -0.1767 -0.2678
 6400SOL    HW225366   6.203   2.134   6.369 -0.5523  1.2584  1.9160
 6400SOL    HW325367   6.067   2.201   6.375 -0.9066  0.9737 -1.1718
 6400SOL    MW425368   6.143   2.187   6.335 -0.4478  0.1644 -0.0989
 6401SOL     OW25369   5.385   3.902   5.873  0.1770 -0.0403 -0.1674
 6401SOL    HW225370   5.333   3.857   5.807 -0.5110  1.1621 -0.4703
 6401SOL    HW325371   5.435   3.833   5.916 -0.5951 -1.0342 -0.8419
 6401SOL    MW425372   5.385   3.887   5.870 -0.0157 -0.0128 -0.2963
 6402SOL     OW25373   5.622   3.483   0.426 -0.0517  0.1513  0.2070
 6402SOL    HW225374   5.594   3.510   0.514 -0.8578  0.4720 -0.1436
 6402SOL    HW325375   5.619   3.564   0.374 -0.3381 -0.1937 -0.3142
 6402SOL    MW425376   5.618   3.498   0.431 -0.1958  0.1481  0.0920
 6403SOL     OW25377   1.533   4.458   3.353  0.5919 -0.4234  0.5423
 6403SOL    HW225378   1.600   4.453   3.286 -1.7601 -0.4809 -1.9629
 6403SOL    HW325379   1.534   4.549   3.382  0.9854 -0.1596 -0.2891
 6403SOL    MW425380   1.542   4.469   3.348  0.3335 -0.3962  0.1020
 6404SOL     OW25381   2.893   4.417   3.630  0.4641 -0.1526  0.2227
 6404SOL    HW225382   2.847   4.498   3.609  0.2459 -0.4865 -0.6059
 6404SOL    HW325383   2.910   4.376   3.545 -1.2948 -2.0105  0.6745
 6404SOL    MW425384   2.889   4.422   3.616  0.2032 -0.4418  0.1730
 6405SOL     OW25385   0.440   5.392   3.565  0.1506 -0.5335 -0.8082
 6405SOL    HW225386   0.491   5.412   3.487  2.0755 -1.0445  0.2453
 6405SOL    HW325387   0.402   5.306   3.547 -0.9672  0.1434 -1.8731
 6405SOL    MW425388   0.442   5.383   3.552  0.2571 -0.5116 -0.8097
 6406SOL     OW25389   0.216   1.026   5.772 -0.4475  0.0675 -0.5226
 6406SOL    HW225390   0.174   1.091   5.715 -2.8307 -0.6564  0.2767
 6406SOL    HW325391   0.218   0.946   5.720  0.8684  0.3155 -0.8841
 6406SOL    MW425392   0.211   1.024   5.758 -0.5883  0.0047 -0.4648
 6407SOL     OW25393   0.430   0.351   5.283  0.6651  0.3916  0.0329
 6407SOL    HW225394   0.460   0.436   5.253 -0.1322  1.0114  0.9173
 6407SOL    HW325395   0.377   0.370   5.361 -2.3934 -0.5177 -1.6339
 6407SOL    MW425396   0.427   0.364   5.290  0.1564  0.3534 -0.0704
 6408SOL     OW25397   1.110   2.821   0.674  0.0127 -0.5748  0.2357
 6408SOL    HW225398   1.034   2.868   0.709 -1.1966 -1.3447 -1.2048
 6408SOL    HW325399   1.185   2.860   0.718 -1.1872  0.4600  1.4650
 6408SOL    MW425400   1.110   2.832   0.685 -0.3052 -0.5398  0.2078
 6409SOL     OW25401   3.579   3.262   2.217  0.1380  0.5414 -0.2479
 6409SOL    HW225402   3.668   3.292   2.200  0.7909 -1.8158 -1.4765
 6409SOL    HW325403   3.560   3.201   2.145 -1.7956 -0.3427  0.9199
 6409SOL    MW425404   3.588   3.258   2.205 -0.0310  0.1137 -0.2559
 6410SOL     OW25405   5.257   2.323   3.354  0.4184 -0.2095 -0.1153
 6410SOL    HW225406   5.162   2.328   3.352  0.4185  0.0463 -3.1647
 6410SOL    HW325407   5.282   2.373   3.432 -1.8972 -0.4754  0.8820
 6410SOL    MW425408   5.248   2.330   3.364  0.1129 -0.2108 -0.3861
 6411SOL     OW25409   4.693   3.581   4.946 -0.3310  0.3980  0.0179
 6411SOL    HW225410   4.673   3.673   4.931  2.7465  1.0199 -1.0294
 6411SOL    HW325411   4.711   3.545   4.859  0.9596 -0.5208  0.6283
 6411SOL    MW425412   4.693   3.588   4.932  0.2454  0.3588 -0.0397
 6412SOL     OW25413   1.258   4.406   0.872  0.6389  0.1110 -0.4320
 6412SOL    HW225414   1.304   4.411   0.789  0.8286 -1.8311 -0.4931
 6412SOL    HW325415   1.233   4.314   0.880 -1.4037  0.6928  0.5859
 6412SOL    MW425416   1.260   4.395   0.862  0.3944 -0.0685 -0.3058
 6413SOL     OW25417   2.689   1.400   4.184 -0.4646  0.9349 -0.6949
 6413SOL    HW225418   2.622   1.469   4.188 -0.0435  1.3985 -1.4886
 6413SOL    HW325419   2.760   1.438   4.133  0.2094  0.2707 -0.2725
 6413SOL    MW425420   2.689   1.414   4.178 -0.3201  0.9085 -0.7439
 6414SOL     OW25421   1.761   1.483   2.604  0.5856 -0.2898  0.1086
 6414SOL    HW225422   1.673   1.453   2.582  1.8270 -3.1668 -1.5877
 6414SOL    HW325423   1.770   1.461   2.697 -0.5286  0.2200  0.3513
 6414SOL    MW425424   1.751   1.476   2.614  0.6024 -0.6021 -0.0832
 6415SOL     OW25425   4.061   0.694   5.935 -0.3236  0.0318 -0.7016
 6415SOL    HW225426   3.973   0.697   5.899  0.7661  2.1917 -3.5993
 6415SOL    HW325427   4.099   0.613   5.899 -0.4869  0.1874 -1.2418
 6415SOL    MW425428   4.055   0.684   5.925 -0.2014  0.3373 -1.1552
 6416SOL     OW25429   4.053   4.092   0.664  0.3535  0.3075 -0.3586
 6416SOL    HW225430   3.978   4.034   0.676 -0.6518  1.5056 -0.6606
 6416SOL    HW325431   4.015   4.175   0.635  1.8105  0.9007 -0.6632
 6416SOL    MW425432   4.038   4.095   0.661  0.4131  0.5438 -0.4386
 6417SOL     OW25433   4.009   0.682   5.025 -0.3758  0.3134 -0.5993
 6417SOL    HW225434   3.941   0.731   5.071 -1.0785 -0.8382 -0.3773
 6417SOL    HW325435   4.083   0.743   5.020 -1.0976  1.2609 -0.0175
 6417SOL    MW425436   4.010   0.697   5.031 -0.5638  0.2865 -0.4932
 6418SOL     OW25437   5.236   0.878   2.956 -0.4596 -0.0043 -0.1670
 6418SOL    HW225438   5.244   0.784   2.942  1.6174  0.4176 -2.7592
 6418SOL    HW325439   5.167   0.906   2.895 -1.0221  0.1702  0.5427
 6418SOL    MW425440   5.228   0.870   2.946 -0.2598  0.0744 -0.4154
 6419SOL     OW25441   5.948   1.991   5.962 -0.3123  0.3286 -0.3205
 6419SOL    HW225442   6.032   1.960   5.925 -1.0745  0.2126 -2.0768
 6419SOL    HW325443   5.931   1.932   6.035  1.6492  1.0337  0.7855
 6419SOL    MW425444   5.957   1.979   5.966 -0.1540  0.4063 -0.4063
 6420SOL     OW25445   3.805   2.176   4.507  0.1289  0.0269  0.2297
 6420SOL    HW225446   3.829   2.203   4.595  0.5917 -1.8910  0.7451
 6420SOL    HW325447   3.717   2.211   4.493  0.1691  0.5848  1.3351
 6420SOL    MW425448   3.797   2.184   4.517  0.1953 -0.1525  0.4435
 6421SOL     OW25449   0.339   4.335   4.206  0.5333  0.2361 -0.3880
 6421SOL    HW225450   0.324   4.283   4.128 -0.6913  1.7042 -1.1723
 6421SOL    HW325451   0.344   4.271   4.277  0.7872 -1.0507 -1.5353
 6421SOL    MW425452   0.338   4.320   4.205  0.4052  0.2600 -0.6429
 6422SOL     OW25453   4.521   3.074   4.073 -0.2853 -0.0901 -0.0072
 6422SOL    HW225454   4.494   3.044   4.160 -0.4146 -0.5825 -0.2133
 6422SOL    HW325455   4.447   3.126   4.042 -0.3423 -0.1224  0.0746
 6422SOL    MW425456   4.508   3.077   4.080 -0.3099 -0.1593 -0.0236
 6423SOL     OW25457   2.224   5.348   0.521  0.0237 -0.0984  0.2046
 6423SOL    HW225458   2.154   5.381   0.465 -0.1332 -1.7510 -0.6314
 6423SOL    HW325459   2.231   5.255   0.499 -1.2073 -1.3054  4.1327
 6423SOL    MW425460   2.216   5.340   0.510 -0.1594 -0.4757  0.6125
 6424SOL     OW25461   2.378   3.021   4.899  0.8622  0.6882 -0.4315
 6424SOL    HW225462   2.299   3.075   4.902  0.7823  0.5760 -0.5404
 6424SOL    HW325463   2.382   2.988   4.809  0.0251 -0.8152  0.0530
 6424SOL    MW425464   2.368   3.024   4.887  0.7412  0.4750 -0.3819
 6425SOL     OW25465   4.282   6.348   1.310 -0.3301  0.0496 -0.3114
 6425SOL    HW225466   4.299   6.255   1.324 -0.1275  0.0768 -0.3829
 6425SOL    HW325467   4.236   6.375   1.390 -2.3075 -0.5932 -1.1639
 6425SOL    MW425468   4.278   6.339   1.322 -0.5642 -0.0316 -0.4333
 6426SOL     OW25469   3.296   3.582   4.663 -0.2669 -0.1019  0.5728
 6426SOL    HW225470   3.216   3.607   4.707 -1.0733 -0.6381 -0.5411
 6426SOL    HW325471   3.322   3.660   4.613 -0.8394 -0.3501 -0.1210
 6426SOL    MW425472   3.289   3.595   4.662 -0.4488 -0.2054  0.3343
 6427SOL     OW25473   0.909   2.561   5.495  0.3302  0.3883  0.5957
 6427SOL    HW225474   0.869   2.483   5.457  0.2224 -0.1560  1.7771
 6427SOL    HW325475   1.003   2.551   5.477  0.2148  0.4845 -0.0996
 6427SOL    MW425476   0.916   2.549   5.488  0.3008  0.3291  0.6599
 6428SOL     OW25477   3.046   0.963   1.502  0.3748  0.5975 -0.0413
 6428SOL    HW225478   3.138   0.961   1.476  0.1820 -0.7633 -0.6935
 6428SOL    HW325479   2.998   0.935   1.425 -0.6655  1.9015  0.0942
 6428SOL    MW425480   3.052   0.959   1.489  0.2121  0.5900 -0.1095
 6429SOL     OW25481   0.756   0.062   0.903  0.1649 -0.3061 -0.3550
 6429SOL    HW225482   0.684  -0.001   0.897  0.0660 -0.1174 -1.2885
 6429SOL    HW325483   0.753   0.093   0.994 -1.4061  0.2608 -0.5752
 6429SOL    MW425484   0.746   0.058   0.914 -0.0554 -0.2064 -0.5072
 6430SOL     OW25485   4.035   3.643   0.950  0.1180  0.2685  0.5213
 6430SOL    HW225486   3.982   3.723   0.950  0.3678  0.4396  1.0661
 6430SOL    HW325487   3.973   3.573   0.933  0.1492  0.7163 -1.9053
 6430SOL    MW425488   4.020   3.645   0.948  0.1551  0.3501  0.2730
 6431SOL     OW25489   6.136   0.881   5.289  0.0009  0.6679 -0.0453
 6431SOL    HW225490   6.042   0.869   5.299  0.2343  0.3586  3.0216
 6431SOL    HW325491   6.174   0.811   5.343  2.1983 -1.8626 -4.3682
 6431SOL    MW425492   6.129   0.870   5.298  0.3216  0.2932 -0.2110
 6432SOL     OW25493   2.754   4.807   0.182  0.5533 -0.1755 -0.2887
 6432SOL    HW225494   2.728   4.887   0.230  0.8195  0.7301 -1.6078
 6432SOL    HW325495   2.678   4.787   0.127  0.3275 -1.0960  0.3395
 6432SOL    MW425496   2.741   4.815   0.181  0.5587 -0.1775 -0.3799
 6433SOL     OW25497   1.002   2.098   2.295 -0.7939 -0.0093 -0.1831
 6433SOL    HW225498   0.913   2.114   2.328 -0.9004 -0.8655 -0.0341
 6433SOL    HW325499   1.052   2.070   2.372 -0.1352  1.4095 -0.0716
 6433SOL    MW425500   0.997   2.096   2.309 -0.7210  0.0649 -0.1487
 6434SOL     OW25501   0.377   3.726   4.510 -0.0804 -0.3259 -0.1741
 6434SOL    HW225502   0.406   3.772   4.432  1.2159 -0.6007  0.1237
 6434SOL    HW325503   0.442   3.750   4.577  0.3717 -2.2004  0.1066
 6434SOL    MW425504   0.390   3.735   4.509  0.1503 -0.6095 -0.0978
 6435SOL     OW25505   4.587   1.145   6.065 -0.0354  0.5669  0.0708
 6435SOL    HW225506   4.669   1.192   6.077 -0.2531  0.5700  1.8638
 6435SOL    HW325507   4.607   1.055   6.092 -0.7532  0.7216  1.2052
 6435SOL    MW425508   4.601   1.139   6.070 -0.1588  0.5878  0.4571
 6436SOL     OW25509   4.580   6.266   2.150 -0.5687 -0.1300  0.0854
 6436SOL    HW225510   4.576   6.170   2.154 -0.8256 -0.0950  1.0700
 6436SOL    HW325511   4.595   6.286   2.058 -0.0975 -1.1308 -0.0671
 6436SOL    MW425512   4.581   6.256   2.138 -0.5404 -0.2575  0.1952
 6437SOL     OW25513   0.918   0.464   6.043 -0.1046 -0.2644 -0.7881
 6437SOL    HW225514   0.900   0.496   6.131 -0.0959  0.6067 -1.0881
 6437SOL    HW325515   0.904   0.370   6.047  1.1720 -0.4263  0.4691
 6437SOL    MW425516   0.914   0.456   6.055  0.0650 -0.1708 -0.6618
 6438SOL     OW25517   6.198   3.612   0.062 -0.8284  0.0427 -0.2440
 6438SOL    HW225518   6.186   3.611   0.157  1.3425  1.2597  0.1058
 6438SOL    HW325519   6.123   3.563   0.028 -0.8827 -1.7206  2.1584
 6438SOL    MW425520   6.187   3.605   0.070 -0.5491 -0.0294  0.1191
 6439SOL     OW25521   1.062   3.285   3.466 -0.1960 -0.0034  0.0654
 6439SOL    HW225522   1.025   3.236   3.392 -2.2098  1.0713  0.2818
 6439SOL    HW325523   1.131   3.229   3.500 -1.4268 -2.0341 -0.5876
 6439SOL    MW425524   1.066   3.271   3.460 -0.6241 -0.1295  0.0078
 6440SOL     OW25525   2.160   0.917   6.179  0.5478 -0.3526 -0.4391
 6440SOL    HW225526   2.151   0.917   6.274 -0.0574 -1.7965 -0.4727
 6440SOL    HW325527   2.070   0.913   6.146  0.7141  0.9324 -1.1034
 6440SOL    MW425528   2.147   0.916   6.187  0.4899 -0.3736 -0.5311
 6441SOL     OW25529   3.051   1.268   0.991  0.2752 -0.1831 -0.3889
 6441SOL    HW225530   3.059   1.346   1.045  1.0574 -1.6990  1.7832
 6441SOL    HW325531   3.069   1.300   0.902  2.0742  1.8495  0.5881
 6441SOL    MW425532   3.054   1.283   0.986  0.6157 -0.1149  0.0266
 6442SOL     OW25533   4.678   0.323   1.591 -0.1133  0.3257 -0.4777
 6442SOL    HW225534   4.636   0.274   1.520 -0.0064 -0.7149  0.1572
 6442SOL    HW325535   4.627   0.404   1.598 -1.5326 -0.5527 -0.2540
 6442SOL    MW425536   4.666   0.327   1.583 -0.2865  0.0725 -0.3644
 6443SOL     OW25537   4.604   3.560   1.339  0.7376 -0.3499 -0.0973
 6443SOL    HW225538   4.586   3.591   1.250 -0.5053  2.0209  0.8876
 6443SOL    HW325539   4.699   3.572   1.349  0.8138 -0.1782 -0.9287
 6443SOL    MW425540   4.614   3.566   1.329  0.5837 -0.0144 -0.0771
 6444SOL     OW25541   0.060   0.945   5.975 -0.1331  0.1863 -0.4018
 6444SOL    HW225542   0.106   0.969   5.895  0.5014 -0.9663 -0.4155
 6444SOL    HW325543  -0.014   0.891   5.946 -0.3128  0.3550 -0.2577
 6444SOL    MW425544   0.057   0.941   5.961 -0.0731  0.0565 -0.3846
 6445SOL     OW25545   5.058   2.628   1.506 -0.4625  0.1936  0.3954
 6445SOL    HW225546   5.080   2.608   1.415 -0.2005  0.5677  0.3766
 6445SOL    HW325547   4.982   2.573   1.525 -0.4905  0.0845 -0.0341
 6445SOL    MW425548   5.051   2.618   1.497 -0.4316  0.2286  0.3362
 6446SOL     OW25549   6.086   0.321   0.592  0.2337  0.4903  0.1429
 6446SOL    HW225550   6.083   0.280   0.679  1.2113 -1.0337 -0.5126
 6446SOL    HW325551   6.023   0.271   0.540 -0.5534  1.5769  0.0109
 6446SOL    MW425552   6.077   0.309   0.597  0.2588  0.4326  0.0390
 6447SOL     OW25553   4.868   5.726   4.346 -0.1679 -0.0451 -0.6680
 6447SOL    HW225554   4.951   5.717   4.300 -0.3888 -0.7859 -0.9305
 6447SOL    HW325555   4.833   5.810   4.317  0.3293  0.1118 -0.8175
 6447SOL    MW425556   4.875   5.736   4.336 -0.1315 -0.1222 -0.7224
 6448SOL     OW25557   0.357   6.383   1.542 -0.4560  0.5431 -0.2764
 6448SOL    HW225558   0.345   6.449   1.611 -0.4290 -1.7018  2.0145
 6448SOL    HW325559   0.365   6.300   1.589  0.4548 -1.0271 -2.9819
 6448SOL    MW425560   0.356   6.381   1.557 -0.3323  0.0397 -0.3311
 6449SOL     OW25561   5.936   3.935   2.457  0.0237  0.4265 -0.3971
 6449SOL    HW225562   5.888   4.012   2.487  0.6276  0.6719 -0.0437
 6449SOL    HW325563   5.905   3.921   2.368 -4.0578 -2.1058  1.1444
 6449SOL    MW425564   5.925   3.943   2.449 -0.4351  0.1248 -0.1471
 6450SOL     OW25565   4.529   1.595   4.738 -0.2647 -0.1832  0.6162
 6450SOL    HW225566   4.567   1.612   4.651  0.1007  1.1644  1.0087
 6450SOL    HW325567   4.536   1.679   4.783  0.1869 -1.0414  2.2077
 6450SOL    MW425568   4.535   1.609   4.732 -0.1569 -0.1186  0.8780
 6451SOL     OW25569   0.428   3.855   4.056 -0.1778  0.1668  0.1682
 6451SOL    HW225570   0.342   3.848   4.015 -0.5533  1.7630  0.6392
 6451SOL    HW325571   0.489   3.833   3.986 -0.9268 -0.4477 -0.3187
 6451SOL    MW425572   0.425   3.851   4.042 -0.3262  0.2964  0.1661
 6452SOL     OW25573   3.802   1.522   4.028 -0.1862 -0.1080  0.0812
 6452SOL    HW225574   3.709   1.545   4.023 -0.3671 -1.0344 -1.1311
 6452SOL    HW325575   3.847   1.597   3.990 -0.2326  1.3073  2.5956
 6452SOL    MW425576   3.795   1.535   4.022 -0.2162 -0.0435  0.2530
 6453SOL     OW25577   6.086   5.657   2.161 -0.0824 -0.5630 -0.9022
 6453SOL    HW225578   6.059   5.568   2.182 -2.1061  0.0443 -0.7893
 6453SOL    HW325579   6.014   5.713   2.191  2.6937  1.5799  2.6342
 6453SOL    MW425580   6.073   5.653   2.168  0.0169 -0.2001 -0.4207
 6454SOL     OW25581   4.867   2.864   5.914  0.0344  0.5772 -0.1065
 6454SOL    HW225582   4.936   2.931   5.917 -1.6972  2.4128  2.3792
 6454SOL    HW325583   4.827   2.866   6.001 -2.2268 -1.4490 -0.9838
 6454SOL    MW425584   4.871   2.873   5.926 -0.4924  0.5521  0.1057
 6455SOL     OW25585   5.923   1.917   2.218 -0.4373  0.0600 -0.0821
 6455SOL    HW225586   5.851   1.870   2.176 -0.3847 -0.1370  0.0427
 6455SOL    HW325587   5.997   1.907   2.159  0.8205 -3.6828  1.7950
 6455SOL    MW425588   5.923   1.909   2.205 -0.2644 -0.4598  0.1820
 6456SOL     OW25589   3.604   6.125   6.221  0.0610  0.4243 -0.1788
 6456SOL    HW225590   3.665   6.109   6.149  1.6043 -0.2681  1.1984
 6456SOL    HW325591   3.591   6.038   6.260 -1.0805  0.7177  0.1154
 6456SOL    MW425592   3.611   6.111   6.217  0.1140  0.3717  0.0417
 6457SOL     OW25593   4.450   5.797   3.122  0.0101  0.5837 -0.0684
 6457SOL    HW225594   4.405   5.881   3.132 -2.7299 -0.8322  0.5836
 6457SOL    HW325595   4.507   5.791   3.198  1.9171  2.6813 -1.1928
 6457SOL    MW425596   4.451   5.807   3.133 -0.0998  0.6737 -0.1307
 6458SOL     OW25597   6.421   2.706   0.801  0.0713 -0.0778  0.1959
 6458SOL    HW225598   6.424   2.703   0.897  0.4100 -0.6622  0.1732
 6458SOL    HW325599   6.456   2.621   0.773 -0.8826 -0.2825 -0.4375
 6458SOL    MW425600   6.426   2.694   0.810 -0.0099 -0.1819  0.1094
 6459SOL     OW25601   2.225   2.016   6.328 -0.0820  0.1015  0.3586
 6459SOL    HW225602   2.235   2.084   6.396 -1.5494  0.9915 -0.2744
 6459SOL    HW325603   2.131   1.999   6.325  0.0290 -0.3440 -1.0627
 6459SOL    MW425604   2.214   2.023   6.337 -0.2609  0.1602  0.0876
 6460SOL     OW25605   0.805   6.132   2.179 -0.1588 -0.4530  0.5128
 6460SOL    HW225606   0.839   6.169   2.097  1.2741 -0.0741  1.2357
 6460SOL    HW325607   0.711   6.147   2.175  0.2194  2.3064  0.2534
 6460SOL    MW425608   0.797   6.139   2.168  0.0801 -0.0390  0.5740
 6461SOL     OW25609   3.787   0.034   2.367  0.3987 -0.6838  0.0118
 6461SOL    HW225610   3.741   0.105   2.413  1.8380  2.1069 -2.4673
 6461SOL    HW325611   3.717  -0.018   2.328 -0.8412  1.7079 -1.2315
 6461SOL    MW425612   3.772   0.037   2.368  0.4250 -0.0000 -0.4793
 6462SOL     OW25613   2.016   3.741   4.535 -0.1228 -0.1744 -0.2110
 6462SOL    HW225614   1.931   3.736   4.579 -0.8345 -0.3092 -1.5639
 6462SOL    HW325615   2.025   3.833   4.511 -0.1576 -0.2704 -0.5905
 6462SOL    MW425616   2.006   3.752   4.538 -0.2213 -0.2049 -0.4396
 6463SOL     OW25617   0.887   2.453   0.274  0.6693  0.4049 -0.4813
 6463SOL    HW225618   0.937   2.528   0.304 -0.0853  0.5925  0.3555
 6463SOL    HW325619   0.953   2.390   0.245  1.3491  0.9121 -0.0666
 6463SOL    MW425620   0.902   2.455   0.274  0.6594  0.4966 -0.3162
 6464SOL     OW25621   3.314   3.199   1.266  0.5495  0.1398  0.4831
 6464SOL    HW225622   3.317   3.104   1.276 -0.9292  0.0307  0.1925
 6464SOL    HW325623   3.221   3.218   1.251  0.8173  1.6350  0.5805
 6464SOL    MW425624   3.302   3.189   1.266  0.3898  0.3226  0.4576
 6465SOL     OW25625   4.128   0.251   1.653  0.5665  0.2835 -0.2512
 6465SOL    HW225626   4.103   0.339   1.626 -0.1656 -0.0933 -0.8668
 6465SOL    HW325627   4.048   0.213   1.689  1.3176  0.4632  1.6931
 6465SOL    MW425628   4.114   0.258   1.654  0.5690  0.2575 -0.0759
 6466SOL     OW25629   3.149   4.048   5.237 -0.0335  0.0531 -0.7705
 6466SOL    HW225630   3.100   3.996   5.300  0.0236  1.2858  0.3487
 6466SOL    HW325631   3.101   4.039   5.155 -1.1402 -0.1674 -0.1138
 6466SOL    MW425632   3.136   4.040   5.235 -0.1720  0.1867 -0.5362
 6467SOL     OW25633   4.993   5.319   3.453  0.5042  0.2915 -0.9297
 6467SOL    HW225634   4.969   5.411   3.464  0.3947  0.1403  0.1618
 6467SOL    HW325635   5.058   5.319   3.383 -0.0702  1.1058 -1.4792
 6467SOL    MW425636   4.998   5.331   3.445  0.4140  0.3790 -0.8582
 6468SOL     OW25637   1.874   1.438   4.846 -0.2346  0.2819 -0.4291
 6468SOL    HW225638   1.961   1.455   4.808 -0.8811  1.0704 -1.6054
 6468SOL    HW325639   1.878   1.346   4.873  0.6274  0.0174 -1.3921
 6468SOL    MW425640   1.886   1.428   4.845 -0.2061  0.3510 -0.7113
 6469SOL     OW25641   2.297   5.394   0.111 -0.3563 -0.0330  0.2399
 6469SOL    HW225642   2.327   5.332   0.177 -1.0659 -0.9658 -0.2986
 6469SOL    HW325643   2.373   5.408   0.055 -0.2250 -0.4983  0.3002
 6469SOL    MW425644   2.311   5.388   0.112 -0.4326 -0.2175  0.1768
 6470SOL     OW25645   5.470   5.753   0.605 -0.4904 -0.1428  0.4711
 6470SOL    HW225646   5.391   5.733   0.554 -1.1026  0.0367  1.3283
 6470SOL    HW325647   5.541   5.755   0.540 -1.3155  0.5033 -0.4331
 6470SOL    MW425648   5.469   5.751   0.589 -0.6801 -0.0339  0.4649
 6471SOL     OW25649   0.943   0.935   6.064 -0.0604  0.0461  0.4325
 6471SOL    HW225650   1.031   0.948   6.030 -0.4895 -0.0559 -0.7864
 6471SOL    HW325651   0.910   1.023   6.081 -0.9907  0.3759 -2.5747
 6471SOL    MW425652   0.950   0.948   6.062 -0.2397  0.0762 -0.1251
 6472SOL     OW25653   0.944   6.295   0.815  0.6632  0.0432  0.8892
 6472SOL    HW225654   0.899   6.374   0.848  2.2656  1.1467  0.5523
 6472SOL    HW325655   0.873   6.235   0.793 -0.7227  2.0448 -0.4801
 6472SOL    MW425656   0.929   6.298   0.817  0.6918  0.4529  0.6641
 6473SOL     OW25657   6.211   6.390   5.332 -0.0334 -0.5631  0.1827
 6473SOL    HW225658   6.290   6.393   5.384 -1.3560 -2.4013  2.4924
 6473SOL    HW325659   6.191   6.297   5.324 -2.4761 -0.1376  0.5739
 6473SOL    MW425660   6.219   6.378   5.338 -0.5302 -0.7495  0.5390
 6474SOL     OW25661   0.813   6.157   3.638 -0.8568 -0.0744  0.5642
 6474SOL    HW225662   0.856   6.182   3.719 -0.6717  1.0353  0.1397
 6474SOL    HW325663   0.863   6.082   3.606  0.2700  0.6945  0.4851
 6474SOL    MW425664   0.825   6.150   3.644 -0.6837  0.1734  0.4977
 6475SOL     OW25665   5.833   0.372   1.982 -0.3994  0.1016  0.2506
 6475SOL    HW225666   5.898   0.346   2.047 -1.5695 -0.9615  1.0327
 6475SOL    HW325667   5.796   0.453   2.017  2.2394  2.2612 -1.4861
 6475SOL    MW425668   5.837   0.380   1.995 -0.2056  0.2463  0.1247
 6476SOL     OW25669   3.232   0.266   4.159  0.6189  0.0001  0.5767
 6476SOL    HW225670   3.254   0.321   4.084  1.2984 -0.7747  0.1919
 6476SOL    HW325671   3.188   0.190   4.120  0.9121 -0.3706  0.9592
 6476SOL    MW425672   3.229   0.263   4.144  0.7472 -0.1510  0.5764
 6477SOL     OW25673   1.516   3.585   0.972  0.2224  0.3722 -0.0214
 6477SOL    HW225674   1.549   3.548   1.054  0.3054  0.5175  0.0108
 6477SOL    HW325675   1.511   3.679   0.988 -2.7105  0.1672  0.8776
 6477SOL    MW425676   1.520   3.593   0.984 -0.1536  0.3643  0.1015
 6478SOL     OW25677   0.998   3.862   0.059 -0.4160  0.1518  0.7594
 6478SOL    HW225678   1.026   3.932   0.001 -2.2390 -0.1199 -0.5533
 6478SOL    HW325679   0.977   3.906   0.142 -0.5907  1.0008  0.2722
 6478SOL    MW425680   0.999   3.877   0.062 -0.6795  0.2280  0.5219
 6479SOL     OW25681   0.186   3.567   5.476  0.0150 -0.2539 -0.2133
 6479SOL    HW225682   0.272   3.567   5.433  0.9699 -0.8696  1.5701
 6479SOL    HW325683   0.191   3.640   5.537 -1.3372  0.6516 -1.1395
 6479SOL    MW425684   0.198   3.576   5.478 -0.0374 -0.2157 -0.1002
 6480SOL     OW25685   5.293   0.904   4.785  0.0438 -0.3365 -0.6105
 6480SOL    HW225686   5.387   0.901   4.765  0.3622 -1.4910  0.8874
 6480SOL    HW325687   5.258   0.822   4.749 -0.3613 -0.0199 -0.9537
 6480SOL    MW425688   5.301   0.893   4.777  0.0324 -0.4471 -0.4582
 6481SOL     OW25689   3.383   5.102   0.057 -0.1362 -0.2058  0.6360
 6481SOL    HW225690   3.373   5.121   0.150 -2.0896  0.4724  0.3362
 6481SOL    HW325691   3.320   5.032   0.040 -2.0309  1.6913 -0.7043
 6481SOL    MW425692   3.373   5.095   0.067 -0.6439  0.1340  0.4196
 6482SOL     OW25693   6.019   1.745   2.419 -0.7186  0.1779 -0.7595
 6482SOL    HW225694   6.002   1.806   2.347 -2.0107 -0.1738 -0.7751
 6482SOL    HW325695   6.113   1.731   2.417 -0.7165  0.2970 -2.2752
 6482SOL    MW425696   6.029   1.751   2.409 -0.8888  0.1472 -0.9615
 6483SOL     OW25697   0.240   0.515   2.469  0.4245 -0.0737  0.0544
 6483SOL    HW225698   0.335   0.515   2.470  0.4266 -1.4779  1.7014
 6483SOL    HW325699   0.217   0.453   2.400  0.5966  2.7116 -2.7633
 6483SOL    MW425700   0.249   0.507   2.460  0.4475  0.1085 -0.1001
 6484SOL     OW25701   0.048   1.875   1.079  0.3803 -0.0120  0.2600
 6484SOL    HW225702  -0.026   1.843   1.028  0.2621 -2.1939  1.6726
 6484SOL    HW325703   0.122   1.822   1.051  0.1798 -1.7225  2.6605
 6484SOL    MW425704   0.048   1.864   1.069  0.3383 -0.5255  0.7631
 6485SOL     OW25705   1.258   1.129   2.716  0.2324  0.2676 -0.3006
 6485SOL    HW225706   1.203   1.206   2.707  1.4356  1.6961  3.1009
 6485SOL    HW325707   1.197   1.057   2.732 -0.8495  0.6073 -2.5442
 6485SOL    MW425708   1.243   1.130   2.717  0.2484  0.5009 -0.1478
 6486SOL     OW25709   4.439   0.923   2.016  0.9577  0.2396  0.4845
 6486SOL    HW225710   4.509   0.972   1.973  1.1300 -1.1119 -0.8459
 6486SOL    HW325711   4.476   0.837   2.032 -0.4897 -0.6376 -0.6132
 6486SOL    MW425712   4.453   0.918   2.012  0.7895 -0.0545  0.1642
 6487SOL     OW25713   2.809   1.909   2.435  0.2004 -0.3841  0.3034
 6487SOL    HW225714   2.887   1.963   2.422 -0.7318  0.3040 -4.0920
 6487SOL    HW325715   2.781   1.928   2.525  3.5308  1.3779  1.1177
 6487SOL    MW425716   2.816   1.919   2.445  0.5168 -0.0608 -0.1691
 6488SOL     OW25717   3.315   1.028   1.472  0.0494  0.3822 -0.2053
 6488SOL    HW225718   3.313   1.100   1.536 -1.3983  0.3269 -0.1403
 6488SOL    HW325719   3.330   0.950   1.525 -1.9925  0.2306  0.2441
 6488SOL    MW425720   3.316   1.027   1.488 -0.4110  0.3549 -0.1374
 6489SOL     OW25721   2.920   2.588   2.463  0.0201 -0.3234 -0.3129
 6489SOL    HW225722   3.004   2.627   2.438 -0.5015  1.6477  0.8137
 6489SOL    HW325723   2.907   2.615   2.553 -0.0329 -3.8970  0.9231
 6489SOL    MW425724   2.930   2.597   2.471 -0.0557 -0.5348 -0.0012
 6490SOL     OW25725   0.911   2.411   2.242 -0.1617  0.1499  0.0616
 6490SOL    HW225726   0.951   2.338   2.289  0.2481  0.2427 -0.1362
 6490SOL    HW325727   0.912   2.484   2.304  0.3880  0.2750 -0.0831
 6490SOL    MW425728   0.917   2.411   2.256 -0.0351  0.1787  0.0164
 6491SOL     OW25729   5.549   2.902   2.320  0.1788  0.2769 -0.1058
 6491SOL    HW225730   5.603   2.942   2.252  0.0415  0.6166 -0.0149
 6491SOL    HW325731   5.593   2.924   2.402  1.0365 -1.1614 -0.1279
 6491SOL    MW425732   5.562   2.910   2.322  0.2738  0.1320 -0.0967
 6492SOL     OW25733   1.460   2.103   1.093 -0.1762  0.4800 -0.0198
 6492SOL    HW225734   1.385   2.138   1.141  0.8210  0.4608  1.5906
 6492SOL    HW325735   1.532   2.104   1.155  1.1050  0.1772 -1.4327
 6492SOL    MW425736   1.459   2.108   1.107  0.1244  0.4376  0.0062
 6493SOL     OW25737   3.337   5.493   0.122 -0.0712 -0.3703 -0.5113
 6493SOL    HW225738   3.304   5.576   0.085  0.8635 -0.5444 -1.7742
 6493SOL    HW325739   3.299   5.426   0.066 -0.0820 -0.7518 -0.0477
 6493SOL    MW425740   3.327   5.495   0.110  0.0507 -0.4436 -0.6168
 6494SOL     OW25741   2.078   4.331   6.052 -0.0523 -0.0508  0.1686
 6494SOL    HW225742   2.031   4.248   6.053 -0.3017  0.0843 -0.0592
 6494SOL    HW325743   2.028   4.385   5.990  1.6190 -0.6213 -1.7718
 6494SOL    MW425744   2.065   4.327   6.044  0.1353 -0.1082 -0.1175
 6495SOL     OW25745   1.027   2.825   4.981 -0.3829  0.0763 -0.5492
 6495SOL    HW225746   0.992   2.854   5.065  2.0527 -2.3611  1.4980
 6495SOL    HW325747   1.112   2.869   4.974 -0.4748  0.1131 -1.6645
 6495SOL    MW425748   1.034   2.835   4.991 -0.0737 -0.2404 -0.4263
 6496SOL     OW25749   1.055   6.146   4.903 -0.4327 -0.1657  0.5692
 6496SOL    HW225750   1.055   6.059   4.862 -1.1818  0.3557 -0.5990
 6496SOL    HW325751   1.007   6.201   4.841 -1.4668  0.7121  2.1055
 6496SOL    MW425752   1.049   6.142   4.889 -0.6680  0.0189  0.6177
 6497SOL     OW25753   5.468   0.360   4.984 -0.1231 -0.0804  0.2812
 6497SOL    HW225754   5.424   0.300   4.923 -0.0114  0.3126 -0.1876
 6497SOL    HW325755   5.486   0.306   5.061 -0.2542 -0.5867 -0.0365
 6497SOL    MW425756   5.465   0.345   4.986 -0.1257 -0.0953  0.1774
 6498SOL     OW25757   1.494   4.950   0.721  0.4125  0.4528  0.2616
 6498SOL    HW225758   1.489   4.864   0.761  1.1500  0.5412  0.5466
 6498SOL    HW325759   1.548   5.002   0.780  1.5923  0.5656 -0.8695
 6498SOL    MW425760   1.500   4.946   0.734  0.6655  0.4793  0.1500
 6499SOL     OW25761   0.574   2.262   4.144  0.1413  0.2721 -0.1284
 6499SOL    HW225762   0.491   2.262   4.193  1.4276  0.5815  2.1809
 6499SOL    HW325763   0.559   2.325   4.073 -0.8662  2.2009  1.6760
 6499SOL    MW425764   0.561   2.270   4.141  0.1781  0.5674  0.4143
 6500SOL     OW25765   2.157   6.339   5.114  0.3526  0.2123 -0.5101
 6500SOL    HW225766   2.064   6.339   5.136  0.2217 -1.7329 -0.9147
 6500SOL    HW325767   2.201   6.305   5.192  0.5892 -0.1184 -0.7831
 6500SOL    MW425768   2.151   6.334   5.127  0.3665 -0.0880 -0.5995
 6501SOL     OW25769   4.000   4.637   2.359 -0.0933 -0.2292  0.8421
 6501SOL    HW225770   4.092   4.642   2.332 -0.1384  1.8276  0.8854
 6501SOL    HW325771   4.003   4.607   2.449  0.7364  1.7940  1.5473
 6501SOL    MW425772   4.012   4.634   2.367  0.0102  0.3091  0.9408
 6502SOL     OW25773   6.144   4.625   3.122 -0.1329  0.1979  0.2475
 6502SOL    HW225774   6.212   4.571   3.081  0.0050  1.2046 -0.9379
 6502SOL    HW325775   6.082   4.644   3.051 -1.8342 -0.9160  1.3589
 6502SOL    MW425776   6.145   4.621   3.107 -0.3392  0.1838  0.2377
 6503SOL     OW25777   2.536   5.555   5.038 -0.9406 -0.5806 -0.5947
 6503SOL    HW225778   2.551   5.591   5.125 -0.8054  0.7880 -1.1491
 6503SOL    HW325779   2.594   5.480   5.032  0.2240  0.2452 -0.0443
 6503SOL    MW425780   2.545   5.550   5.049 -0.7691 -0.2911 -0.5952
 6504SOL     OW25781   1.719   3.540   1.204  0.1520  0.6338  0.3095
 6504SOL    HW225782   1.808   3.534   1.238  0.3296 -0.4967 -0.2881
 6504SOL    HW325783   1.663   3.542   1.282  0.5947 -0.9721  0.7159
 6504SOL    MW425784   1.723   3.539   1.219  0.2338  0.2727  0.2843
 6505SOL     OW25785   4.609   1.841   3.124  0.2796 -0.0412  0.1177
 6505SOL    HW225786   4.591   1.747   3.134 -1.0763  0.1853 -0.0627
 6505SOL    HW325787   4.614   1.855   3.030  3.1988 -0.3786  0.1285
 6505SOL    MW425788   4.608   1.831   3.113  0.4858 -0.0558  0.0953
 6506SOL     OW25789   1.592   3.703   4.121  0.1462 -0.5251  0.0390
 6506SOL    HW225790   1.500   3.715   4.095  0.5307 -1.2658 -1.8054
 6506SOL    HW325791   1.607   3.771   4.186 -1.0196  1.2912 -1.4841
 6506SOL    MW425792   1.582   3.714   4.126  0.0431 -0.3831 -0.4053
 6507SOL     OW25793   3.051   3.245   5.670 -0.2139 -0.8310 -0.1994
 6507SOL    HW225794   3.090   3.327   5.699  0.6224 -1.6605  1.1706
 6507SOL    HW325795   2.957   3.263   5.666 -0.0086  0.2946 -0.3124
 6507SOL    MW425796   3.044   3.258   5.673 -0.0765 -0.7920 -0.0336
 6508SOL     OW25797   4.021   1.969   6.122 -0.4074  0.0013 -0.0072
 6508SOL    HW225798   3.940   2.019   6.113 -0.8026 -0.5291  0.5478
 6508SOL    HW325799   4.090   2.033   6.108 -0.8696  0.9935  1.9918
 6508SOL    MW425800   4.019   1.984   6.119 -0.5205  0.0622  0.3298
 6509SOL     OW25801   0.066   6.088   5.627 -0.1765  0.3811  0.2882
 6509SOL    HW225802   0.085   6.177   5.658  1.7107  0.1933 -0.2230
 6509SOL    HW325803   0.088   6.090   5.534 -0.5643 -0.5210  0.1648
 6509SOL    MW425804   0.071   6.100   5.619  0.0213  0.2373  0.2045
 6510SOL     OW25805   3.746   1.592   0.510 -0.1337 -0.2932 -0.2175
 6510SOL    HW225806   3.788   1.520   0.463  0.1036  0.3104 -0.9550
 6510SOL    HW325807   3.654   1.588   0.484 -0.0310 -0.0523 -0.6369
 6510SOL    MW425808   3.739   1.582   0.501 -0.0888 -0.1818 -0.3702
 6511SOL     OW25809   3.873   5.922   4.676 -0.7893  0.4986 -0.8478
 6511SOL    HW225810   3.792   5.874   4.663 -0.5314  0.2503 -1.5914
 6511SOL    HW325811   3.845   6.010   4.701 -1.2858  0.4447 -1.2091
 6511SOL    MW425812   3.859   5.927   4.678 -0.8208  0.4587 -0.9936
 6512SOL     OW25813   1.704   1.899   4.457 -0.1582 -0.7074 -0.1582
 6512SOL    HW225814   1.625   1.868   4.499 -1.8461  1.2286 -1.6937
 6512SOL    HW325815   1.723   1.834   4.389 -0.2849 -1.2760  0.3429
 6512SOL    MW425816   1.696   1.886   4.454 -0.3976 -0.5270 -0.2947
 6513SOL     OW25817   2.338   4.494   4.993  0.2885  0.4381 -0.9123
 6513SOL    HW225818   2.404   4.501   4.924  1.8840 -0.3233  0.4563
 6513SOL    HW325819   2.387   4.507   5.074 -1.7338  2.5706  0.0781
 6513SOL    MW425820   2.354   4.496   4.994  0.2322  0.6190 -0.6011
 6514SOL     OW25821   1.479   3.495   1.371 -0.3078 -0.0316  0.0464
 6514SOL    HW225822   1.494   3.456   1.457 -0.7121  2.4846  1.3505
 6514SOL    HW325823   1.415   3.565   1.387 -0.8092  0.1664 -2.4148
 6514SOL    MW425824   1.472   3.499   1.385 -0.4273  0.3265 -0.1062
 6515SOL     OW25825   0.311   3.673   4.980  0.0919  0.0445  0.3537
 6515SOL    HW225826   0.261   3.622   4.917 -1.4369  2.3083 -0.4094
 6515SOL    HW325827   0.399   3.636   4.978 -0.9731 -2.6763  0.1191
 6515SOL    MW425828   0.316   3.661   4.972 -0.2503 -0.0157  0.2220
 6516SOL     OW25829   4.921   5.814   5.634  0.1598  0.4422 -0.3664
 6516SOL    HW225830   4.883   5.735   5.672  1.1674 -0.3228 -0.9126
 6516SOL    HW325831   4.887   5.816   5.545  0.3459  0.4852 -0.4361
 6516SOL    MW425832   4.912   5.804   5.628  0.3173  0.3470 -0.4477
 6517SOL     OW25833   5.782   4.773   1.030 -0.5958 -0.3450  0.0711
 6517SOL    HW225834   5.823   4.826   0.961  0.7653 -0.4256  0.7896
 6517SOL    HW325835   5.829   4.797   1.109 -1.9508 -0.4700  0.9385
 6517SOL    MW425836   5.794   4.783   1.031 -0.5950 -0.3721  0.2803
 6518SOL     OW25837   4.006   5.329   6.311  0.0636 -0.0852 -0.3224
 6518SOL    HW225838   3.946   5.402   6.297  1.2592  1.2468  1.1584
 6518SOL    HW325839   4.077   5.366   6.362  2.2730 -1.5506 -2.1437
 6518SOL    MW425840   4.007   5.344   6.316  0.5129 -0.1028 -0.3673
 6519SOL     OW25841   4.345   4.592   5.585 -0.4694  0.0593  0.4467
 6519SOL    HW225842   4.394   4.510   5.575 -0.6505 -0.1275  1.0585
 6519SOL    HW325843   4.255   4.568   5.562 -0.2494  0.4624 -0.9367
 6519SOL    MW425844   4.339   4.578   5.581 -0.4643  0.0878  0.3449
 6520SOL     OW25845   6.066   2.454   5.817  0.0250  0.0658  0.8501
 6520SOL    HW225846   6.154   2.421   5.837  0.6102  1.8499  1.4704
 6520SOL    HW325847   6.013   2.429   5.892  0.6981  1.2684  1.7839
 6520SOL    MW425848   6.071   2.447   5.829  0.1910  0.4599  1.0551
 6521SOL     OW25849   5.011   1.382   2.538 -0.1506 -0.5892  0.3707
 6521SOL    HW225850   4.947   1.357   2.471  0.5011  2.3147 -1.5525
 6521SOL    HW325851   5.075   1.312   2.538 -0.7284 -1.1761 -1.3212
 6521SOL    MW425852   5.011   1.370   2.529 -0.1408 -0.2835 -0.1063
 6522SOL     OW25853   5.666   1.680   5.700  0.5060  0.4831 -0.5542
 6522SOL    HW225854   5.598   1.645   5.756  1.3697  0.3258  0.4192
 6522SOL    HW325855   5.673   1.772   5.725  0.9507  0.3931 -0.3483
 6522SOL    MW425856   5.658   1.687   5.710  0.6786  0.4505 -0.3986
 6523SOL     OW25857   2.546   4.480   3.847 -0.0344  0.2693  0.1121
 6523SOL    HW225858   2.451   4.485   3.851 -0.1159 -0.3678 -0.8023
 6523SOL    HW325859   2.575   4.572   3.847 -0.7677  0.5521 -1.7692
 6523SOL    MW425860   2.537   4.493   3.848 -0.1419  0.2226 -0.2568
 6524SOL     OW25861   2.139   5.704   2.431 -0.1318  0.1445  0.4817
 6524SOL    HW225862   2.220   5.726   2.476 -0.8713  0.2140  1.8115
 6524SOL    HW325863   2.155   5.616   2.395  0.8653  0.5557 -0.1211
 6524SOL    MW425864   2.152   5.695   2.432 -0.0978  0.2079  0.5776
 6525SOL     OW25865   1.554   1.327   0.628 -0.4521 -0.7273 -0.2124
 6525SOL    HW225866   1.565   1.235   0.603  0.0851 -0.7065 -0.0692
 6525SOL    HW325867   1.518   1.324   0.717  0.2169 -0.8069  0.0639
 6525SOL    MW425868   1.551   1.314   0.637 -0.2929 -0.7351 -0.1571
 6526SOL     OW25869   5.072   1.730   0.589  0.4641 -0.7158 -0.2624
 6526SOL    HW225870   4.993   1.695   0.630 -2.6093  4.4073 -0.8844
 6526SOL    HW325871   5.103   1.796   0.651  0.9962  1.0574 -2.3149
 6526SOL    MW425872   5.066   1.734   0.602  0.1288  0.1941 -0.6152
 6527SOL     OW25873   0.255   5.809   5.917 -0.1683 -0.2184  0.0222
 6527SOL    HW225874   0.344   5.843   5.904 -0.3892  0.4737  0.2887
 6527SOL    HW325875   0.251   5.785   6.009 -0.6252  0.8477  0.2868
 6527SOL    MW425876   0.266   5.810   5.927 -0.2577  0.0136  0.0923
 6528SOL     OW25877   4.594   3.237   2.692  0.0309  0.0319 -0.5249
 6528SOL    HW225878   4.653   3.195   2.754  1.0092  1.5899 -0.3480
 6528SOL    HW325879   4.639   3.232   2.608  0.4281  1.1924 -0.3967
 6528SOL    MW425880   4.608   3.231   2.689  0.2124  0.3905 -0.4846
 6529SOL     OW25881   4.666   3.666   1.759 -0.0984  0.6007  0.7840
 6529SOL    HW225882   4.756   3.666   1.724  0.0713 -1.1247  1.1548
 6529SOL    HW325883   4.611   3.677   1.681  0.3610 -1.1756  0.1455
 6529SOL    MW425884   4.671   3.667   1.744 -0.0154  0.1387  0.7487
 6530SOL     OW25885   2.543   1.045   3.408 -0.1991  0.2032  0.6595
 6530SOL    HW225886   2.634   1.073   3.415  0.5547 -2.0649  0.9539
 6530SOL    HW325887   2.527   1.039   3.314  0.4963 -0.8448  0.5840
 6530SOL    MW425888   2.553   1.048   3.397 -0.0079 -0.2343  0.6884
 6531SOL     OW25889   2.817   4.631   0.371 -0.9024  0.0554  0.3719
 6531SOL    HW225890   2.913   4.631   0.374 -0.9083 -0.6424  0.7664
 6531SOL    HW325891   2.795   4.684   0.294 -0.2089  0.4559  0.4432
 6531SOL    MW425892   2.827   4.638   0.362 -0.8117  0.0162  0.4334
 6532SOL     OW25893   2.927   0.855   2.598 -0.1728 -0.6286  0.4018
 6532SOL    HW225894   2.926   0.789   2.529 -0.2725 -0.4744  0.2523
 6532SOL    HW325895   2.887   0.813   2.674 -1.6521 -0.2650 -0.1388
 6532SOL    MW425896   2.922   0.841   2.599 -0.3811 -0.5603  0.3108
 6533SOL     OW25897   4.217   0.573   3.979  1.0881 -0.1135  0.2375
 6533SOL    HW225898   4.224   0.662   3.945  0.6914 -0.2005 -0.0792
 6533SOL    HW325899   4.219   0.518   3.901 -0.5375 -0.2822  0.2821
 6533SOL    MW425900   4.218   0.578   3.964  0.8213 -0.1473  0.2016
 6534SOL     OW25901   6.096   0.888   3.642 -0.1585 -0.0937  0.0678
 6534SOL    HW225902   6.171   0.941   3.668  0.0634 -0.6231  0.5318
 6534SOL    HW325903   6.116   0.800   3.675 -1.5120  0.0022  1.2659
 6534SOL    MW425904   6.109   0.884   3.650 -0.3078 -0.1509  0.2871
 6535SOL     OW25905   1.569   3.982   3.001 -0.3050  0.4382 -0.4970
 6535SOL    HW225906   1.524   4.035   3.066  1.7664  0.8726  0.6833
 6535SOL    HW325907   1.631   4.043   2.960 -0.0981 -0.3368 -1.3659
 6535SOL    MW425908   1.572   3.997   3.004 -0.0044  0.3932 -0.4559
 6536SOL     OW25909   3.019   2.227   1.661  0.2975  0.2166 -0.2296
 6536SOL    HW225910   3.106   2.264   1.681  0.1037  1.4845 -1.5956
 6536SOL    HW325911   3.022   2.205   1.568 -0.1227 -1.8872  0.2020
 6536SOL    MW425912   3.031   2.229   1.652  0.2165  0.1063 -0.3529
 6537SOL     OW25913   3.385   4.272   3.065  0.3876 -0.0474  0.6183
 6537SOL    HW225914   3.472   4.312   3.070  0.3308 -0.0355  1.6273
 6537SOL    HW325915   3.376   4.246   2.973  1.0321  0.8964  0.2705
 6537SOL    MW425916   3.395   4.274   3.053  0.4651  0.0787  0.7056
 6538SOL     OW25917   5.171   1.565   2.377  0.0523  0.3964  0.2407
 6538SOL    HW225918   5.098   1.525   2.424  0.1692 -2.4138 -1.7245
 6538SOL    HW325919   5.130   1.628   2.318 -0.5556  0.5139  0.7844
 6538SOL    MW425920   5.156   1.568   2.375 -0.0125  0.0412  0.0532
 6539SOL     OW25921   4.925   2.939   3.119  0.2383  0.9211 -0.1158
 6539SOL    HW225922   5.006   2.963   3.164  0.6583 -2.0773  0.9367
 6539SOL    HW325923   4.856   2.964   3.180  0.7643 -2.2298  1.9730
 6539SOL    MW425924   4.926   2.946   3.133  0.3631  0.1098  0.2987
 6540SOL     OW25925   0.023   4.478   4.345  0.3943 -0.0528 -0.6432
 6540SOL    HW225926   0.019   4.392   4.304 -2.1055  0.7469 -2.2630
 6540SOL    HW325927   0.027   4.540   4.273 -0.3988  1.2737  0.3897
 6540SOL    MW425928   0.023   4.475   4.330 -0.0402  0.2277 -0.7206
 6541SOL     OW25929   2.120   2.628   6.366  0.3153  0.3044  0.8125
 6541SOL    HW225930   2.055   2.681   6.320 -0.2911 -1.8156 -0.9826
 6541SOL    HW325931   2.204   2.657   6.332  0.0090  0.2819  0.0254
 6541SOL    MW425932   2.123   2.639   6.356  0.1949  0.0218  0.4718
 6542SOL     OW25933   0.686   1.678   1.523  0.3804 -0.6939 -0.0855
 6542SOL    HW225934   0.661   1.691   1.432 -1.7245 -1.0036  0.3754
 6542SOL    HW325935   0.720   1.763   1.551 -1.9484  0.4062 -0.3397
 6542SOL    MW425936   0.687   1.691   1.515 -0.2046 -0.5896 -0.0582
 6543SOL     OW25937   0.597   6.010   3.629  0.3493  0.5110  0.6330
 6543SOL    HW225938   0.672   6.067   3.645 -0.2575  1.3592  0.5062
 6543SOL    HW325939   0.527   6.047   3.681 -0.1215  0.0228  0.3546
 6543SOL    MW425940   0.598   6.022   3.638  0.2071  0.5585  0.5796
 6544SOL     OW25941   0.462   2.877   2.797  0.2486  0.1964  0.4131
 6544SOL    HW225942   0.505   2.870   2.712 -1.1452  0.1880 -0.3287
 6544SOL    HW325943   0.531   2.905   2.857  1.1886  0.5352 -0.7838
 6544SOL    MW425944   0.477   2.880   2.794  0.1887  0.2400  0.1573
 6545SOL     OW25945   1.292   2.800   1.536 -0.1422 -0.0083 -0.2068
 6545SOL    HW225946   1.314   2.774   1.626 -1.4388  1.4274  0.5592
 6545SOL    HW325947   1.209   2.756   1.518 -0.8947  1.2767  0.0479
 6545SOL    MW425948   1.284   2.790   1.545 -0.4126  0.3507 -0.0721
 6546SOL     OW25949   2.831   5.964   1.983 -0.1146 -0.5226 -0.3066
 6546SOL    HW225950   2.822   5.942   1.890  0.4651 -0.9126 -0.2724
 6546SOL    HW325951   2.839   6.059   1.985  1.8966 -0.6358 -0.8345
 6546SOL    MW425952   2.830   5.974   1.971  0.2272 -0.5890 -0.3718
 6547SOL     OW25953   5.400   1.151   2.740 -0.2477  0.3769 -0.8934
 6547SOL    HW225954   5.359   1.142   2.826  0.9669  0.4270 -0.2837
 6547SOL    HW325955   5.437   1.240   2.740  0.7889 -0.0425 -0.9914
 6547SOL    MW425956   5.399   1.162   2.751  0.0493  0.3282 -0.8259
 6548SOL     OW25957   3.953   3.909   5.340 -0.5725  0.8125 -0.0117
 6548SOL    HW225958   3.913   3.984   5.296 -2.0755  0.7009  1.0770
 6548SOL    HW325959   3.905   3.834   5.304  0.9692  0.3198 -1.1527
 6548SOL    MW425960   3.941   3.909   5.329 -0.5674  0.7328 -0.0186
 6549SOL     OW25961   2.239   4.331   1.753  0.7429 -0.5001  0.3319
 6549SOL    HW225962   2.270   4.258   1.699  2.7409 -0.0609  0.8093
 6549SOL    HW325963   2.203   4.290   1.832  1.5790 -1.0004  0.4616
 6549SOL    MW425964   2.238   4.316   1.756  1.1169 -0.5081  0.4120
 6550SOL     OW25965   2.930   5.076   0.511 -0.1667  0.1345  0.0623
 6550SOL    HW225966   2.890   5.098   0.595  0.3360  0.0710  0.3270
 6550SOL    HW325967   2.970   4.990   0.526 -4.3397 -2.4182 -1.6878
 6550SOL    MW425968   2.930   5.067   0.524 -0.6510 -0.2107 -0.1336
 6551SOL     OW25969   5.863   1.807   6.151  0.7076  0.0043 -0.6605
 6551SOL    HW225970   5.773   1.775   6.158  1.1887 -1.0425  1.8410
 6551SOL    HW325971   5.913   1.730   6.126  1.0221  0.3765 -1.1764
 6551SOL    MW425972   5.857   1.792   6.149  0.8126 -0.0847 -0.3985
 6552SOL     OW25973   3.495   3.396   1.367  0.2212 -0.1449  0.3074
 6552SOL    HW225974   3.445   3.315   1.356 -0.3100  0.0883  0.8956
 6552SOL    HW325975   3.519   3.396   1.460  0.7578  0.0700  0.1725
 6552SOL    MW425976   3.491   3.385   1.378  0.2219 -0.0858  0.3672
 6553SOL     OW25977   1.082   5.308   2.722 -0.1294  0.0075 -0.5766
 6553SOL    HW225978   1.071   5.214   2.736 -0.1431  0.0654 -0.1750
 6553SOL    HW325979   1.167   5.328   2.762 -0.0260  0.1283 -0.8538
 6553SOL    MW425980   1.092   5.298   2.729 -0.1175  0.0311 -0.5602
 6554SOL     OW25981   4.930   0.621   4.617 -0.1045  0.1997 -0.9607
 6554SOL    HW225982   4.918   0.701   4.668  1.5931 -1.0966  1.6604
 6554SOL    HW325983   4.851   0.570   4.635 -0.4561  0.5902 -1.3524
 6554SOL    MW425984   4.918   0.625   4.626  0.0731  0.0802 -0.6665
 6555SOL     OW25985   2.019   6.122   2.383 -0.1655  0.3059 -0.4557
 6555SOL    HW225986   1.980   6.112   2.470 -1.3770 -0.1519 -1.0285
 6555SOL    HW325987   2.023   6.216   2.369 -1.5197  0.3626 -0.5611
 6555SOL    MW425988   2.014   6.133   2.392 -0.5040  0.2530 -0.5452
 6556SOL     OW25989   4.903   1.572   1.734  0.3076  0.5423  1.0729
 6556SOL    HW225990   4.905   1.576   1.830  1.6085  1.3546  1.0309
 6556SOL    HW325991   4.817   1.535   1.714 -0.2805  1.0296  2.5323
 6556SOL    MW425992   4.892   1.567   1.744  0.4017  0.7138  1.2599
 6557SOL     OW25993   4.272   0.253   1.413 -0.3185  0.2302  0.4096
 6557SOL    HW225994   4.354   0.205   1.413 -0.9392 -0.8616  0.5440
 6557SOL    HW325995   4.232   0.234   1.498 -0.6660  0.8195  0.3834
 6557SOL    MW425996   4.277   0.244   1.424 -0.4463  0.1639  0.4239
 6558SOL     OW25997   0.841   4.162   3.714  0.1005 -0.6177  0.1351
 6558SOL    HW225998   0.770   4.149   3.651 -0.2064  1.0136  0.1100
 6558SOL    HW325999   0.804   4.133   3.797 -0.9029  0.9326  0.2647
 6558SOL    MW426000   0.826   4.156   3.717 -0.0724 -0.1980  0.1489
 6559SOL     OW26001   5.991   3.977   5.303  0.4459  0.0868 -0.4676
 6559SOL    HW226002   6.001   4.008   5.213  1.4558  2.2548  0.3293
 6559SOL    HW326003   6.028   4.046   5.357 -2.1622 -0.1173  1.7971
 6559SOL    MW426004   5.997   3.990   5.298  0.2351  0.3459 -0.0637
 6560SOL     OW26005   1.986   4.259   1.016  0.6870 -0.1066  0.1675
 6560SOL    HW226006   2.049   4.269   0.945  0.4972  1.5358  0.1813
 6560SOL    HW326007   2.022   4.189   1.071  1.7819 -0.1302 -0.5532
 6560SOL    MW426008   1.999   4.251   1.014  0.8064  0.1070  0.0742
 6561SOL     OW26009   5.308   6.199   0.409  0.6276 -0.1907 -0.6929
 6561SOL    HW226010   5.261   6.122   0.439  1.8881 -0.7811 -0.1399
 6561SOL    HW326011   5.359   6.227   0.485  2.1186 -0.3485 -1.5792
 6561SOL    MW426012   5.309   6.192   0.423  0.9906 -0.2894 -0.7368
 6562SOL     OW26013   1.571   4.554   4.683 -0.5622 -0.3315  0.1131
 6562SOL    HW226014   1.588   4.462   4.705  1.3182 -0.2527 -0.7950
 6562SOL    HW326015   1.590   4.602   4.763  1.9846 -0.4531 -0.3297
 6562SOL    MW426016   1.576   4.548   4.696  0.0219 -0.3371 -0.0652
 6563SOL     OW26017   4.748   5.692   2.616 -0.1359 -0.6822  0.2505
 6563SOL    HW226018   4.798   5.660   2.541 -0.9476  0.4300 -0.8004
 6563SOL    HW326019   4.672   5.634   2.621 -1.2958  0.6230 -1.2802
 6563SOL    MW426020   4.745   5.680   2.607 -0.3961 -0.3632 -0.0901
 6564SOL     OW26021   5.581   4.837   0.273  0.1161  0.0449 -0.0830
 6564SOL    HW226022   5.541   4.816   0.188 -0.0789 -0.9110  0.2326
 6564SOL    HW326023   5.669   4.868   0.251 -0.3434  0.9592 -0.7031
 6564SOL    MW426024   5.588   4.838   0.259  0.0298  0.0394 -0.1232
 6565SOL     OW26025   6.267   5.129   5.312 -0.5006  0.2989 -0.7214
 6565SOL    HW226026   6.346   5.166   5.353  0.5709 -1.6202 -0.9377
 6565SOL    HW326027   6.220   5.088   5.385  1.8429 -3.8895 -1.2651
 6565SOL    MW426028   6.272   5.129   5.327 -0.0500 -0.5069 -0.8216
 6566SOL     OW26029   4.880   3.960   5.294  0.3632 -0.6282 -0.5434
 6566SOL    HW226030   4.880   3.877   5.248 -0.4356 -1.6749  1.2353
 6566SOL    HW326031   4.835   3.942   5.377 -1.8500  2.0740 -1.0121
 6566SOL    MW426032   4.874   3.947   5.299 -0.0342 -0.4098 -0.3706
 6567SOL     OW26033   1.961   1.506   1.973  0.2511  0.3752 -0.0447
 6567SOL    HW226034   1.938   1.425   1.927  0.4107  0.7462 -0.7956
 6567SOL    HW326035   1.895   1.570   1.945  0.5278  0.6864  0.0047
 6567SOL    MW426036   1.949   1.504   1.963  0.3087  0.4652 -0.1372
 6568SOL     OW26037   4.364   5.848   2.836 -0.9399 -0.2220 -0.6128
 6568SOL    HW226038   4.272   5.870   2.847 -1.1089 -0.9300 -0.5478
 6568SOL    HW326039   4.392   5.816   2.922 -0.6353 -0.0265 -0.6363
 6568SOL    MW426040   4.356   5.847   2.849 -0.9220 -0.2896 -0.6073
 6569SOL     OW26041   5.883   3.672   5.092 -0.1544  0.7540 -0.3466
 6569SOL    HW226042   5.931   3.727   5.030 -0.7211 -0.1436 -1.6407
 6569SOL    HW326043   5.943   3.599   5.110 -0.0543  0.9312  0.0510
 6569SOL    MW426044   5.897   3.669   5.086 -0.2160  0.6590 -0.4649
 6570SOL     OW26045   1.756   4.687   6.345 -0.1873 -0.4972  0.0377
 6570SOL    HW226046   1.728   4.778   6.331  0.9086 -0.1632 -0.0950
 6570SOL    HW326047   1.689   4.634   6.301 -0.9590  0.2323  0.3138
 6570SOL    MW426048   1.743   4.692   6.337 -0.1445 -0.3569  0.0566
 6571SOL     OW26049   4.579   5.497   4.741 -1.0480  0.3474 -0.4675
 6571SOL    HW226050   4.641   5.537   4.681 -1.0118  1.5616  0.3190
 6571SOL    HW326051   4.627   5.425   4.782 -0.9060 -0.1451 -1.4687
 6571SOL    MW426052   4.593   5.493   4.739 -1.0245  0.4427 -0.4958
 6572SOL     OW26053   4.476   0.565   0.440 -0.1241 -0.4735  0.8812
 6572SOL    HW226054   4.565   0.538   0.419  0.3601  0.0294  2.1507
 6572SOL    HW326055   4.474   0.658   0.421 -0.9686 -0.8246 -0.9160
 6572SOL    MW426056   4.487   0.574   0.435 -0.1716 -0.4535  0.8115
 6573SOL     OW26057   5.952   5.003   2.925  0.1816 -0.4635 -0.2607
 6573SOL    HW226058   5.873   4.995   2.872  0.7133  0.5428 -1.2353
 6573SOL    HW326059   5.924   5.047   3.005 -0.5874 -1.8199  0.2548
 6573SOL    MW426060   5.938   5.007   2.929  0.1503 -0.5097 -0.3213
 6574SOL     OW26061   5.900   1.552   5.806 -0.3006  0.6046 -0.3068
 6574SOL    HW226062   5.837   1.511   5.865 -0.5830  0.5254 -0.6570
 6574SOL    HW326063   5.845   1.600   5.743 -0.0019  0.7623 -0.4477
 6574SOL    MW426064   5.884   1.553   5.806 -0.2984  0.6150 -0.3716
 6575SOL     OW26065   0.373   3.313   2.534  0.0407 -0.3515 -0.0016
 6575SOL    HW226066   0.425   3.376   2.584  0.5379 -0.2510 -0.6224
 6575SOL    HW326067   0.282   3.338   2.550  0.2462  1.0472 -0.8700
 6575SOL    MW426068   0.368   3.325   2.543  0.1334 -0.1537 -0.1981
 6576SOL     OW26069   1.115   6.225   2.221 -0.4694  0.1640 -0.2544
 6576SOL    HW226070   1.197   6.225   2.270  0.3935 -0.9841 -1.6044
 6576SOL    HW326071   1.063   6.154   2.259  0.1680 -0.6783 -0.9212
 6576SOL    MW426072   1.119   6.216   2.232 -0.2715 -0.0986 -0.5205
 6577SOL     OW26073   2.446   6.024   5.946  0.0441  0.4029  0.2310
 6577SOL    HW226074   2.352   6.015   5.931 -0.0920  0.9564  0.6989
 6577SOL    HW326075   2.486   5.990   5.867 -0.5589  0.4373 -0.0977
 6577SOL    MW426076   2.439   6.018   5.934 -0.0534  0.4805  0.2494
 6578SOL     OW26077   3.006   3.624   5.343  0.0154  0.1237  0.1923
 6578SOL    HW226078   2.976   3.715   5.344  0.3167  0.2447 -0.9341
 6578SOL    HW326079   2.926   3.572   5.353 -0.5087  0.4637 -1.7882
 6578SOL    MW426080   2.992   3.629   5.345 -0.0140  0.1845 -0.2176
 6579SOL     OW26081   3.554   1.433   0.700 -0.0437 -0.4361  0.3582
 6579SOL    HW226082   3.492   1.377   0.746  0.3350 -0.2541  1.0989
 6579SOL    HW326083   3.624   1.375   0.672 -1.1006 -0.8725 -1.5551
 6579SOL    MW426084   3.555   1.418   0.702 -0.1332 -0.4697  0.2035
 6580SOL     OW26085   3.832   0.591   6.360  0.1721  0.1271  0.2468
 6580SOL    HW226086   3.831   0.532   6.284  2.8193  1.3964 -0.8942
 6580SOL    HW326087   3.845   0.533   6.435  1.6593 -0.8837 -0.7266
 6580SOL    MW426088   3.834   0.575   6.360  0.7176  0.1612 -0.0322
 6581SOL     OW26089   2.456   3.853   1.458  0.1340  0.6930 -0.3745
 6581SOL    HW226090   2.502   3.923   1.503  1.1861  0.4564 -1.0609
 6581SOL    HW326091   2.488   3.856   1.368 -1.9017  1.1261 -1.1414
 6581SOL    MW426092   2.466   3.862   1.452  0.0042  0.7190 -0.5662
 6582SOL     OW26093   1.664   6.178   5.129 -0.3215 -0.4076  0.2175
 6582SOL    HW226094   1.652   6.225   5.047 -0.1897  2.4398  1.6747
 6582SOL    HW326095   1.744   6.215   5.166 -0.8861 -0.8984  2.0387
 6582SOL    MW426096   1.673   6.189   5.123 -0.3786 -0.0967  0.6501
 6583SOL     OW26097   1.928   1.713   2.292  0.5928 -0.2134  0.0920
 6583SOL    HW226098   1.992   1.642   2.291 -0.0445 -0.8470  1.4986
 6583SOL    HW326099   1.914   1.732   2.385 -0.8798  0.2538 -0.1993
 6583SOL    MW426100   1.934   1.706   2.304  0.3144 -0.2354  0.2391
 6584SOL     OW26101   5.128   0.922   5.878  0.0843  0.2552  0.0360
 6584SOL    HW226102   5.109   1.003   5.926  0.7397  0.5403 -0.1803
 6584SOL    HW326103   5.199   0.945   5.818  2.2385 -1.1326  1.8641
 6584SOL    MW426104   5.135   0.936   5.877  0.4550  0.1097  0.2487
 6585SOL     OW26105   1.309   0.195   0.810 -0.0449 -0.1994 -0.6694
 6585SOL    HW226106   1.294   0.122   0.750  1.1655 -1.9078  0.9923
 6585SOL    HW326107   1.404   0.198   0.821 -0.1406  1.0298  0.0234
 6585SOL    MW426108   1.319   0.185   0.804  0.1022 -0.2626 -0.3587
 6586SOL     OW26109   5.515   2.237   6.291 -0.1250 -0.3648  0.1575
 6586SOL    HW226110   5.517   2.144   6.271 -0.5577 -0.5033  0.7467
 6586SOL    HW326111   5.476   2.278   6.213 -0.5484 -0.7465  0.1689
 6586SOL    MW426112   5.510   2.230   6.278 -0.2380 -0.4334  0.2368
 6587SOL     OW26113   1.898   4.729   3.287  0.1538 -0.3016  0.1934
 6587SOL    HW226114   1.937   4.719   3.201  1.4851 -0.7373  0.8141
 6587SOL    HW326115   1.805   4.743   3.270  0.5672  0.8537 -1.3523
 6587SOL    MW426116   1.891   4.730   3.274  0.3840 -0.2066  0.0714
 6588SOL     OW26117   0.971   2.494   1.144 -0.0437  0.3816 -0.9721
 6588SOL    HW226118   0.903   2.457   1.088 -0.7660  0.3475 -0.0923
 6588SOL    HW326119   1.050   2.494   1.090 -0.8100  0.7250 -2.1193
 6588SOL    MW426120   0.973   2.489   1.130 -0.2401  0.4224 -1.0074
 6589SOL     OW26121   4.476   0.843   0.517  0.6396 -0.4053 -0.5658
 6589SOL    HW226122   4.454   0.828   0.609 -0.0862  0.4098 -0.5991
 6589SOL    HW326123   4.571   0.853   0.516  0.8373 -1.9280 -0.1298
 6589SOL    MW426124   4.486   0.842   0.529  0.5699 -0.4987 -0.5127
 6590SOL     OW26125   5.842   1.074   1.196 -0.0091  0.1502  0.0416
 6590SOL    HW226126   5.828   1.156   1.148 -0.0500  1.3845  2.0059
 6590SOL    HW326127   5.773   1.074   1.263  1.7711  0.0514  1.9698
 6590SOL    MW426128   5.831   1.085   1.199  0.2204  0.3000  0.5552
 6591SOL     OW26129   6.021   4.889   5.026 -0.5777  0.5058  0.2638
 6591SOL    HW226130   5.992   4.981   5.028  0.2452  0.7582  1.3398
 6591SOL    HW326131   6.098   4.887   5.082  1.0646 -0.3102 -1.8901
 6591SOL    MW426132   6.027   4.901   5.034 -0.2524  0.4315  0.1216
 6592SOL     OW26133   6.397   0.895   2.002  0.0948 -0.3238  0.1647
 6592SOL    HW226134   6.378   0.970   2.057 -0.2627  0.0295 -0.4349
 6592SOL    HW326135   6.479   0.918   1.957 -2.1151  1.6242 -3.2726
 6592SOL    MW426136   6.406   0.908   2.003 -0.2440 -0.0202 -0.3679
 6593SOL     OW26137   4.579   5.598   2.106 -0.4140 -0.4265  0.0277
 6593SOL    HW226138   4.555   5.565   2.193  1.4987  1.0640  1.2045
 6593SOL    HW326139   4.537   5.684   2.102 -0.4157 -0.4530 -0.4903
 6593SOL    MW426140   4.570   5.605   2.117 -0.1619 -0.2333  0.1147
 6594SOL     OW26141   0.798   1.599   6.146 -0.3439  0.1425  0.6148
 6594SOL    HW226142   0.717   1.644   6.170 -0.3977  0.4505 -0.1245
 6594SOL    HW326143   0.802   1.605   6.051 -0.1730 -1.1130  0.5160
 6594SOL    MW426144   0.788   1.606   6.137 -0.3285  0.0175  0.5042
 6595SOL     OW26145   0.970   4.218   1.552  0.2821  0.2989  0.1660
 6595SOL    HW226146   0.885   4.187   1.520 -0.7371  3.2290 -0.2579
 6595SOL    HW326147   1.030   4.203   1.479 -0.5109  0.7394 -0.5903
 6595SOL    MW426148   0.967   4.212   1.538  0.0430  0.7436  0.0103
 6596SOL     OW26149   2.493   5.635   2.220 -0.5643  0.1439 -0.2535
 6596SOL    HW226150   2.421   5.614   2.159  0.5291 -0.4218 -1.3922
 6596SOL    HW326151   2.552   5.690   2.168  0.5125 -0.5582  0.2216
 6596SOL    MW426152   2.491   5.639   2.205 -0.2780 -0.0234 -0.3410
 6597SOL     OW26153   5.897   5.162   2.623 -0.2185  0.3724  0.0644
 6597SOL    HW226154   5.860   5.085   2.581  0.1710  0.9095 -1.3281
 6597SOL    HW326155   5.836   5.233   2.600 -1.0647  0.3482  2.0735
 6597SOL    MW426156   5.884   5.161   2.614 -0.2788  0.4401  0.1458
 6598SOL     OW26157   3.828   1.076   6.273  0.1432 -0.9138  0.1796
 6598SOL    HW226158   3.913   1.034   6.287 -0.1372 -1.5945 -0.0877
 6598SOL    HW326159   3.765   1.016   6.313 -0.1619 -0.0874  0.9697
 6598SOL    MW426160   3.831   1.062   6.280  0.0659 -0.8945  0.2486
 6599SOL     OW26161   2.317   5.259   1.101 -0.3528  0.0856  0.2035
 6599SOL    HW226162   2.260   5.324   1.062  1.6269  2.0728  0.4086
 6599SOL    HW326163   2.371   5.227   1.029  0.1760  0.3257  0.4869
 6599SOL    MW426164   2.317   5.263   1.087 -0.0218  0.3794  0.2679
 6600SOL     OW26165   4.719   2.801   5.237  0.1397 -0.1320 -0.6526
 6600SOL    HW226166   4.686   2.889   5.254 -0.1010 -0.6963  2.5208
 6600SOL    HW326167   4.811   2.813   5.214  0.5748  0.9305  1.3970
 6600SOL    MW426168   4.727   2.814   5.236  0.1653 -0.0663  0.0365
 6601SOL     OW26169   3.105   1.802   2.385 -0.0514 -0.0912 -0.1392
 6601SOL    HW226170   3.123   1.882   2.336 -0.6722  0.0939 -0.0764
 6601SOL    HW326171   3.140   1.732   2.330  0.0955  0.1880 -0.4051
 6601SOL    MW426172   3.112   1.803   2.371 -0.1140 -0.0299 -0.1660
 6602SOL     OW26173   3.066   4.843   0.571  0.0036 -0.2821  0.0727
 6602SOL    HW226174   3.077   4.780   0.499 -1.1636 -0.2248 -0.1810
 6602SOL    HW326175   3.155   4.861   0.601  0.6448  0.5897 -2.1477
 6602SOL    MW426176   3.079   4.837   0.565 -0.0658 -0.1595 -0.2537
 6603SOL     OW26177   2.649   1.691   5.950  0.1064 -0.3193  0.6072
 6603SOL    HW226178   2.639   1.672   5.857  4.0713 -1.3622  0.1867
 6603SOL    HW326179   2.583   1.636   5.993  0.8324 -3.0696 -1.4782
 6603SOL    MW426180   2.639   1.681   5.943  0.7253 -0.8198  0.2766
 6604SOL     OW26181   1.952   2.381   4.574  0.5654  0.3968 -0.1037
 6604SOL    HW226182   2.013   2.370   4.647  1.0220  1.4916 -0.2934
 6604SOL    HW326183   1.878   2.430   4.611  0.0304 -0.4778  0.0034
 6604SOL    MW426184   1.950   2.386   4.588  0.5550  0.4259 -0.1146
 6605SOL     OW26185   2.702   4.015   4.901 -0.1699 -0.2764  0.4348
 6605SOL    HW226186   2.797   4.000   4.905  0.3757  1.0893 -3.3091
 6605SOL    HW326187   2.670   3.946   4.843 -1.0629  0.6016 -0.1439
 6605SOL    MW426188   2.710   4.004   4.894 -0.2157  0.0196 -0.1355
 6606SOL     OW26189   2.486   2.832   5.756  0.0804  0.0596 -0.1285
 6606SOL    HW226190   2.558   2.796   5.705  0.5523  2.0751 -0.9965
 6606SOL    HW326191   2.409   2.780   5.731  1.0909 -1.7733  0.4212
 6606SOL    MW426192   2.485   2.821   5.746  0.2760  0.0837 -0.1705
 6607SOL     OW26193   1.558   4.905   4.666  0.7218 -0.1634 -0.5654
 6607SOL    HW226194   1.620   4.859   4.722 -0.2822 -0.6012  0.2151
 6607SOL    HW326195   1.591   4.995   4.663  1.3336 -0.3638 -0.0688
 6607SOL    MW426196   1.571   4.911   4.673  0.6701 -0.2476 -0.3969
 6608SOL     OW26197   3.698   3.460   3.837 -0.1646  0.3904 -0.0550
 6608SOL    HW226198   3.708   3.366   3.856  0.8118  0.2775 -1.0127
 6608SOL    HW326199   3.608   3.467   3.803 -0.4483 -0.0951  0.5744
 6608SOL    MW426200   3.687   3.448   3.835 -0.0732  0.3115 -0.0983
 6609SOL     OW26201   3.680   0.826   4.406 -0.1567  0.0326  0.3414
 6609SOL    HW226202   3.595   0.785   4.387 -1.8407  2.0422  2.8997
 6609SOL    HW326203   3.676   0.848   4.499  1.5966  3.7142 -0.2836
 6609SOL    MW426204   3.668   0.823   4.416 -0.1476  0.7835  0.5965
 6610SOL     OW26205   5.131   6.405   1.946 -0.2657  0.0600 -0.1684
 6610SOL    HW226206   5.198   6.472   1.934 -0.5507  0.7169  1.6826
 6610SOL    HW326207   5.052   6.443   1.908 -0.2766  0.5088  0.2988
 6610SOL    MW426208   5.130   6.418   1.939 -0.3047  0.2059  0.1375
 6611SOL     OW26209   6.307   4.846   3.098  0.0504  0.0933 -0.2595
 6611SOL    HW226210   6.246   4.776   3.121 -0.4028  0.7127  0.4774
 6611SOL    HW326211   6.320   4.894   3.180  2.1652 -0.4952 -0.2002
 6611SOL    MW426212   6.300   4.843   3.112  0.2696  0.0974 -0.1545
 6612SOL     OW26213   3.675   4.301   0.788 -0.1731 -0.0048 -0.3975
 6612SOL    HW226214   3.636   4.214   0.793  1.7292 -0.8459  0.6541
 6612SOL    HW326215   3.673   4.334   0.877  3.1083 -0.8713  0.1050
 6612SOL    MW426216   3.670   4.294   0.800  0.5108 -0.2301 -0.1925
 6613SOL     OW26217   6.351   1.685   1.263  0.2435 -0.1605  0.6567
 6613SOL    HW226218   6.418   1.739   1.223  0.2518 -0.4421  0.2755
 6613SOL    HW326219   6.398   1.630   1.326 -0.0903  1.9810  2.9127
 6613SOL    MW426220   6.366   1.685   1.266  0.2006  0.0849  0.9041
 6614SOL     OW26221   1.212   5.733   4.484  0.0951  0.0128  0.1486
 6614SOL    HW226222   1.252   5.806   4.436 -0.3920  1.0809  1.3087
 6614SOL    HW326223   1.285   5.674   4.503  0.8449  1.1283  0.8268
 6614SOL    MW426224   1.227   5.735   4.480  0.1297  0.3009  0.3912
 6615SOL     OW26225   6.424   3.783   4.449 -0.0151 -0.1397  0.6145
 6615SOL    HW226226   6.396   3.696   4.421 -1.4858  0.3220  0.6007
 6615SOL    HW326227   6.419   3.780   4.545  0.4146 -0.2247  0.6350
 6615SOL    MW426228   6.420   3.771   4.458 -0.1524 -0.0900  0.6154
 6616SOL     OW26229   3.663   0.071   0.157 -0.2444  0.0503 -0.5133
 6616SOL    HW226230   3.709   0.009   0.100 -0.4811 -0.0648 -0.5808
 6616SOL    HW326231   3.644   0.021   0.236  0.6455  0.3907 -0.0660
 6616SOL    MW426232   3.667   0.056   0.160 -0.1582  0.0800 -0.4632
 6617SOL     OW26233   0.058   3.383   3.509 -0.3001  0.4188  0.2797
 6617SOL    HW226234   0.038   3.475   3.529  0.1675  0.4858  0.4564
 6617SOL    HW326235  -0.014   3.334   3.548 -1.3138  0.7993 -1.0513
 6617SOL    MW426236   0.046   3.389   3.517 -0.3721  0.4779  0.1274
 6618SOL     OW26237   4.639   0.365   3.457 -0.9063 -0.0099 -0.6802
 6618SOL    HW226238   4.545   0.357   3.472 -0.4582 -1.6338  2.0139
 6618SOL    HW326239   4.665   0.278   3.426 -0.2463  0.4283 -1.4086
 6618SOL    MW426240   4.630   0.352   3.455 -0.7601 -0.1663 -0.4208
 6619SOL     OW26241   1.632   5.649   4.916 -0.1355 -0.6191 -0.3265
 6619SOL    HW226242   1.717   5.642   4.959  0.0205 -0.2441 -0.5648
 6619SOL    HW326243   1.643   5.605   4.832 -0.0015 -0.0814 -0.6001
 6619SOL    MW426244   1.645   5.642   4.910 -0.0972 -0.4987 -0.3940
 6620SOL     OW26245   5.423   3.905   6.400 -0.0899  0.1784 -0.3732
 6620SOL    HW226246   5.488   3.899   6.331  0.5542 -1.4620  0.3144
 6620SOL    HW326247   5.352   3.847   6.372 -0.0624 -0.0839  0.0808
 6620SOL    MW426248   5.422   3.896   6.387 -0.0013 -0.0726 -0.2226
 6621SOL     OW26249   4.587   5.549   1.731 -0.3398 -0.2479  0.0214
 6621SOL    HW226250   4.551   5.638   1.730  2.0129  0.8302  1.6072
 6621SOL    HW326251   4.531   5.501   1.793  0.2990  1.1223  1.7447
 6621SOL    MW426252   4.575   5.554   1.739  0.0549  0.0751  0.4580
 6622SOL     OW26253   0.442   0.893   2.551  0.8703 -0.1564 -0.0576
 6622SOL    HW226254   0.365   0.837   2.565  0.0231  0.6307 -1.3052
 6622SOL    HW326255   0.488   0.853   2.477  0.0047  0.9863 -1.2689
 6622SOL    MW426256   0.438   0.880   2.543  0.6443  0.0982 -0.3820
 6623SOL     OW26257   2.757   3.252   5.712 -0.0613  0.2712 -0.5867
 6623SOL    HW226258   2.731   3.344   5.715 -1.0394 -0.0179  0.3984
 6623SOL    HW326259   2.677   3.205   5.690  0.5792 -0.3011 -1.7734
 6623SOL    MW426260   2.743   3.258   5.710 -0.1059  0.1576 -0.6133
 6624SOL     OW26261   5.971   2.196   5.135  0.3920 -0.4714 -0.2105
 6624SOL    HW226262   6.021   2.194   5.217 -0.1987  0.1204  0.1691
 6624SOL    HW326263   5.976   2.106   5.102  1.1319 -0.5805  0.1682
 6624SOL    MW426264   5.978   2.184   5.141  0.4116 -0.4077 -0.1104
 6625SOL     OW26265   1.580   4.699   5.629 -0.4678 -0.3250 -0.2266
 6625SOL    HW226266   1.560   4.786   5.663  1.0606 -0.1753  0.3302
 6625SOL    HW326267   1.525   4.692   5.551 -1.5650  0.6218  0.4213
 6625SOL    MW426268   1.570   4.710   5.623 -0.4109 -0.1803 -0.0676
 6626SOL     OW26269   5.692   2.727   5.107  0.2781  0.3023  0.7189
 6626SOL    HW226270   5.785   2.746   5.115  0.2732 -0.1237  2.3215
 6626SOL    HW326271   5.654   2.806   5.068  1.4775 -0.0633 -1.2770
 6626SOL    MW426272   5.699   2.740   5.103  0.4357  0.1978  0.6670
 6627SOL     OW26273   0.817   1.066   1.020 -0.1364 -0.4980  0.0439
 6627SOL    HW226274   0.742   1.099   0.969  0.3025  0.6619  0.1121
 6627SOL    HW326275   0.850   0.993   0.969 -1.9585 -1.7363  0.5451
 6627SOL    MW426276   0.811   1.061   1.006 -0.3189 -0.5083  0.1190
 6628SOL     OW26277   1.604   0.574   6.295  0.5288 -0.2239 -0.2624
 6628SOL    HW226278   1.579   0.505   6.234  1.2707 -0.2186 -0.5818
 6628SOL    HW326279   1.525   0.591   6.346 -0.4784  0.5867 -1.9956
 6628SOL    MW426280   1.590   0.567   6.293  0.4938 -0.1162 -0.5332
 6629SOL     OW26281   1.764   2.083   0.994  0.7283  0.3792 -0.3506
 6629SOL    HW226282   1.780   2.087   1.088 -0.3254 -1.5797 -0.0272
 6629SOL    HW326283   1.694   2.146   0.979  0.2428  0.0216  0.3673
 6629SOL    MW426284   1.757   2.092   1.004  0.5252  0.0736 -0.2132
 6630SOL     OW26285   6.242   0.643   6.402 -0.0184 -0.4407 -0.3106
 6630SOL    HW226286   6.315   0.617   6.345  0.3963  0.3874 -0.1664
 6630SOL    HW326287   6.181   0.687   6.342  0.1409 -0.1047 -0.2299
 6630SOL    MW426288   6.243   0.646   6.386  0.0573 -0.2871 -0.2809
 6631SOL     OW26289   0.936   3.933   1.380 -0.3546 -0.0864  0.1698
 6631SOL    HW226290   1.018   3.983   1.380 -0.3029 -0.1713  0.2898
 6631SOL    HW326291   0.946   3.871   1.452 -1.1388  0.9043  1.1509
 6631SOL    MW426292   0.948   3.931   1.389 -0.4512  0.0331  0.3151
 6632SOL     OW26293   4.681   2.151   4.856  0.3198  0.1060 -0.1467
 6632SOL    HW226294   4.727   2.233   4.839 -1.0795  0.4422 -2.7560
 6632SOL    HW326295   4.646   2.125   4.771 -0.4214 -2.5142  0.8723
 6632SOL    MW426296   4.682   2.158   4.843  0.0374 -0.1954 -0.3565
 6633SOL     OW26297   1.564   5.990   4.810  0.4551  0.0162 -0.1374
 6633SOL    HW226298   1.526   5.925   4.751 -0.5337 -1.0217  1.5375
 6633SOL    HW326299   1.509   6.068   4.799 -0.7840 -0.7111  0.5578
 6633SOL    MW426300   1.552   5.992   4.801  0.1612 -0.2167  0.1753
 6634SOL     OW26301   5.214   4.504   3.795  0.0145 -0.0815 -0.5000
 6634SOL    HW226302   5.194   4.436   3.730 -1.9999  0.9830 -1.0897
 6634SOL    HW326303   5.178   4.470   3.877 -3.9635  1.4254 -1.3808
 6634SOL    MW426304   5.206   4.491   3.797 -0.7761  0.2578 -0.6940
 6635SOL     OW26305   1.535   4.439   5.781  0.0015  0.2977 -1.0164
 6635SOL    HW226306   1.555   4.358   5.735 -0.7982  0.2585 -1.3056
 6635SOL    HW326307   1.479   4.487   5.720  2.2726  2.1032 -1.8656
 6635SOL    MW426308   1.530   4.435   5.767  0.1956  0.5307 -1.1666
 6636SOL     OW26309   3.443   4.305   5.931 -0.0016 -0.4448  0.5714
 6636SOL    HW226310   3.440   4.389   5.977 -0.2203 -0.1766  0.0815
 6636SOL    HW326311   3.534   4.278   5.937  0.0467 -0.2269  0.8349
 6636SOL    MW426312   3.455   4.313   5.938 -0.0240 -0.3807  0.5416
 6637SOL     OW26313   1.289   4.680   0.580  0.2333 -0.6699  0.2009
 6637SOL    HW226314   1.349   4.692   0.507  2.4276 -1.6135  1.7650
 6637SOL    HW326315   1.277   4.586   0.587  1.1605 -0.7002  1.8602
 6637SOL    MW426316   1.295   4.669   0.572  0.6451 -0.7984  0.6262
 6638SOL     OW26317   5.916   5.526   4.809  0.2124  0.3497  0.1301
 6638SOL    HW226318   5.843   5.513   4.869  1.1765  0.5285  1.3954
 6638SOL    HW326319   5.915   5.620   4.790 -0.4986  0.1894 -0.7085
 6638SOL    MW426320   5.906   5.537   4.814  0.2458  0.3521  0.1864
 6639SOL     OW26321   4.173   2.235   4.839  0.3418  0.0353  0.6630
 6639SOL    HW226322   4.132   2.317   4.867  0.5216  1.0194 -1.7368
 6639SOL    HW326323   4.263   2.242   4.870 -0.0230  0.0541  1.7607
 6639SOL    MW426324   4.179   2.247   4.847  0.3174  0.1676  0.4912
 6640SOL     OW26325   1.496   5.745   0.739 -0.0814 -0.3216  0.0345
 6640SOL    HW226326   1.445   5.714   0.813  1.5338  0.7153  1.6491
 6640SOL    HW326327   1.438   5.807   0.694 -0.4339  0.5236  1.5912
 6640SOL    MW426328   1.482   5.749   0.743  0.0852 -0.0733  0.4529
 6641SOL     OW26329   3.946   4.808   5.243  0.0357  0.4001 -0.6557
 6641SOL    HW226330   3.908   4.733   5.289  0.1721  0.7421  0.0254
 6641SOL    HW326331   4.040   4.791   5.242  0.1906  1.0745  0.4773
 6641SOL    MW426332   3.953   4.796   5.249  0.0741  0.5342 -0.4163
 6642SOL     OW26333   0.447   2.062   6.260  0.0800  0.0374  0.1563
 6642SOL    HW226334   0.529   2.069   6.212  0.0438  1.2837  0.2406
 6642SOL    HW326335   0.472   2.058   6.352  0.0364  0.9505  0.2133
 6642SOL    MW426336   0.461   2.062   6.265  0.0695  0.3223  0.1749
 6643SOL     OW26337   6.046   1.328   3.125 -0.4554  0.0359  0.1069
 6643SOL    HW226338   6.094   1.247   3.106 -0.6547 -0.0080 -0.2307
 6643SOL    HW326339   5.976   1.330   3.059 -1.4963 -0.3780  1.1605
 6643SOL    MW426340   6.043   1.318   3.114 -0.6190 -0.0245  0.2013
 6644SOL     OW26341   0.096   6.164   2.302 -0.1643 -0.0765 -0.3011
 6644SOL    HW226342   0.081   6.088   2.245  2.8443  0.5378 -2.1021
 6644SOL    HW326343   0.054   6.237   2.256  0.4959  0.0536 -0.7088
 6644SOL    MW426344   0.088   6.163   2.288  0.3198  0.0217 -0.5925
 6645SOL     OW26345   3.896   3.726   5.805  0.4363  0.3202  0.0483
 6645SOL    HW226346   3.888   3.665   5.732  1.4414  2.0769 -1.6350
 6645SOL    HW326347   3.952   3.681   5.868  1.0111 -0.5734 -1.0674
 6645SOL    MW426348   3.902   3.712   5.803  0.6448  0.4341 -0.3210
 6646SOL     OW26349   3.482   4.100   1.843  0.2708  0.3092 -0.3064
 6646SOL    HW226350   3.554   4.042   1.819  1.7044  1.9769 -0.2264
 6646SOL    HW326351   3.524   4.172   1.891 -1.4242  1.4481 -0.4411
 6646SOL    MW426352   3.497   4.102   1.846  0.2363  0.6795 -0.3137
 6647SOL     OW26353   3.604   2.417   3.215 -0.3627  0.3547 -0.0076
 6647SOL    HW226354   3.635   2.440   3.302 -0.9252  0.0191  0.2882
 6647SOL    HW326355   3.544   2.487   3.191 -1.7793 -0.5602  0.7341
 6647SOL    MW426356   3.600   2.429   3.223 -0.6238  0.1897  0.1293
 6648SOL     OW26357   0.891   0.860   0.841  0.4318  0.2687  0.6833
 6648SOL    HW226358   0.935   0.812   0.911 -1.1960 -0.6356  1.1372
 6648SOL    HW326359   0.962   0.903   0.794  1.6559  0.1523  2.3140
 6648SOL    MW426360   0.906   0.859   0.844  0.3785  0.1340  0.9584
 6649SOL     OW26361   5.840   2.582   1.982 -0.5829  0.3081  0.7037
 6649SOL    HW226362   5.797   2.506   1.944  0.1984 -0.8723  2.0617
 6649SOL    HW326363   5.932   2.573   1.956 -0.3070  0.2391  1.6571
 6649SOL    MW426364   5.846   2.571   1.974 -0.4434  0.1432  1.0087
 6650SOL     OW26365   5.817   4.070   0.512  0.4732  0.4967  0.1451
 6650SOL    HW226366   5.859   3.990   0.481  0.9407  0.8866 -0.2543
 6650SOL    HW326367   5.883   4.112   0.567  0.3704  0.7963  0.0429
 6650SOL    MW426368   5.831   4.065   0.515  0.5213  0.5876  0.0790
 6651SOL     OW26369   3.758   4.405   6.272  0.7035  0.3404  0.2710
 6651SOL    HW226370   3.674   4.360   6.269  0.1678  1.0282  2.6709
 6651SOL    HW326371   3.747   4.481   6.216  0.2847 -0.3979 -0.6726
 6651SOL    MW426372   3.746   4.409   6.265  0.5775  0.3338  0.4631
 6652SOL     OW26373   4.006   4.698   1.517  0.8704  0.1256  0.2970
 6652SOL    HW226374   3.922   4.744   1.517  1.8586  2.0744 -1.7042
 6652SOL    HW326375   3.997   4.634   1.446  1.4271  1.1256 -0.7061
 6652SOL    MW426376   3.993   4.695   1.508  1.0742  0.5147 -0.0993
 6653SOL     OW26377   6.359   5.365   0.473  0.3127 -0.3324  0.0588
 6653SOL    HW226378   6.367   5.270   0.479  0.0454 -0.3065  0.9131
 6653SOL    HW326379   6.300   5.389   0.544  1.0711  0.5668  0.4049
 6653SOL    MW426380   6.352   5.355   0.483  0.3775 -0.2104  0.2172
 6654SOL     OW26381   4.054   0.079   3.857 -0.5444 -0.1694  0.1888
 6654SOL    HW226382   3.983   0.127   3.899  0.1571 -1.5848  3.2091
 6654SOL    HW326383   4.134   0.116   3.895  0.2477 -0.3384 -1.2430
 6654SOL    MW426384   4.055   0.090   3.867 -0.3473 -0.3785  0.3984
 6655SOL     OW26385   2.294   5.339   4.885 -0.6229 -0.4275 -0.5547
 6655SOL    HW226386   2.327   5.322   4.973 -0.8431  0.1397 -0.3594
 6655SOL    HW326387   2.371   5.334   4.828 -0.5089 -0.9683 -0.3557
 6655SOL    MW426388   2.308   5.336   4.889 -0.6369 -0.4240 -0.5027
 6656SOL     OW26389   2.305   0.932   5.555 -0.7541 -0.0825 -0.0106
 6656SOL    HW226390   2.361   0.908   5.481 -2.5810 -0.8303 -1.2250
 6656SOL    HW326391   2.343   1.014   5.588  0.8283 -0.3764 -0.9849
 6656SOL    MW426392   2.317   0.940   5.549 -0.7863 -0.2200 -0.2994
 6657SOL     OW26393   0.986   4.711   5.965 -0.0100  0.3743  0.1161
 6657SOL    HW226394   0.961   4.622   5.990  0.1847  1.2439  3.9932
 6657SOL    HW326395   0.903   4.758   5.957 -0.0231  0.4745  0.8329
 6657SOL    MW426396   0.972   4.706   5.967  0.0139  0.5023  0.7222
 6658SOL     OW26397   0.525   4.457   1.214 -0.8011  0.1289 -0.8690
 6658SOL    HW226398   0.465   4.382   1.212 -1.2140  0.4485 -0.6473
 6658SOL    HW326399   0.492   4.512   1.285 -0.9791  0.9057 -1.5413
 6658SOL    MW426400   0.512   4.454   1.223 -0.8791  0.2736 -0.9284
 6659SOL     OW26401   4.729   4.558   5.063  0.1988 -0.0869  0.2764
 6659SOL    HW226402   4.686   4.637   5.093  0.1765 -0.5565  1.5373
 6659SOL    HW326403   4.823   4.575   5.075  0.1454 -0.9208  2.4598
 6659SOL    MW426404   4.736   4.570   5.068  0.1888 -0.2589  0.7308
 6660SOL     OW26405   4.000   6.089   2.467  0.0340 -0.2103 -0.3548
 6660SOL    HW226406   3.968   6.019   2.410  2.3838 -1.2448 -0.4935
 6660SOL    HW326407   4.036   6.154   2.407 -0.7863  0.4612 -0.1513
 6660SOL    MW426408   4.000   6.088   2.451  0.2358 -0.2582 -0.3463
 6661SOL     OW26409   4.148   0.649   4.707  0.4836  0.7965  0.4646
 6661SOL    HW226410   4.090   0.660   4.632 -0.6402  0.4602  1.2561
 6661SOL    HW326411   4.174   0.738   4.731  1.1825  0.8808 -0.5606
 6661SOL    MW426412   4.144   0.662   4.700  0.4275  0.7633  0.4338
 6662SOL     OW26413   2.475   3.729   2.806 -0.4069 -0.1979  0.4099
 6662SOL    HW226414   2.548   3.791   2.803 -1.1968  0.7392  0.2183
 6662SOL    HW326415   2.416   3.756   2.736 -0.1039 -2.0460 -0.6347
 6662SOL    MW426416   2.477   3.740   2.796 -0.4712 -0.3181  0.2468
 6663SOL     OW26417   4.380   4.298   0.691  0.2120  0.2525 -0.8303
 6663SOL    HW226418   4.441   4.321   0.762  0.0853 -0.1751 -0.5795
 6663SOL    HW326419   4.354   4.208   0.711 -3.4430  1.5837  1.2280
 6663SOL    MW426420   4.385   4.289   0.703 -0.2869  0.3718 -0.5256
 6664SOL     OW26421   5.923   2.300   2.501  0.1625  0.8578 -0.4384
 6664SOL    HW226422   6.000   2.350   2.474  0.0072  0.5006 -1.5735
 6664SOL    HW326423   5.853   2.365   2.505  0.1735  0.9075 -0.9730
 6664SOL    MW426424   5.924   2.315   2.498  0.1435  0.8172 -0.6587
 6665SOL     OW26425   1.659   3.494   5.252 -0.5887  0.3928 -0.1069
 6665SOL    HW226426   1.675   3.540   5.169 -2.3468  0.6959 -0.3114
 6665SOL    HW326427   1.665   3.402   5.229  0.3637  0.4815 -0.2530
 6665SOL    MW426428   1.662   3.488   5.238 -0.6950  0.4445 -0.1532
 6666SOL     OW26429   4.934   3.620   1.702 -0.1779  0.3095  0.0336
 6666SOL    HW226430   5.011   3.639   1.649  0.8350 -0.6382  1.0969
 6666SOL    HW326431   4.965   3.626   1.793 -1.3409 -0.1559  0.4897
 6666SOL    MW426432   4.948   3.624   1.707 -0.1977  0.1231  0.2341
 6667SOL     OW26433   5.008   2.628   3.892 -0.5803 -0.1176  0.9923
 6667SOL    HW226434   5.083   2.686   3.879 -0.5807 -0.2604  0.2920
 6667SOL    HW326435   4.948   2.650   3.821 -0.6555 -0.8532  0.8159
 6667SOL    MW426436   5.010   2.638   3.881 -0.5902 -0.2335  0.8766
 6668SOL     OW26437   4.744   2.806   4.438 -0.3188 -0.2360 -0.1759
 6668SOL    HW226438   4.764   2.721   4.477 -1.2038 -1.0727 -1.4833
 6668SOL    HW326439   4.665   2.835   4.484 -1.8428 -1.5996 -1.8035
 6668SOL    MW426440   4.736   2.799   4.449 -0.6366 -0.5263 -0.5631
 6669SOL     OW26441   3.751   1.792   3.626  0.4005  0.6197  0.1018
 6669SOL    HW226442   3.744   1.703   3.662  0.8450  0.7362  0.4977
 6669SOL    HW326443   3.821   1.786   3.561  0.0810  0.5667 -0.2369
 6669SOL    MW426444   3.759   1.779   3.622  0.4170  0.6281  0.1094
 6670SOL     OW26445   2.000   3.841   6.024  0.2807 -0.3384 -0.0433
 6670SOL    HW226446   1.920   3.799   5.992  0.2736 -1.1377  0.9755
 6670SOL    HW326447   2.008   3.813   6.115  1.4699  0.1172  0.0197
 6670SOL    MW426448   1.990   3.832   6.032  0.4367 -0.3837  0.0994
 6671SOL     OW26449   1.235   2.207   1.228 -0.0571 -0.3076  0.4706
 6671SOL    HW226450   1.173   2.199   1.156  1.2503 -1.1043 -0.6208
 6671SOL    HW326451   1.204   2.145   1.294 -1.2387  0.3929  0.5929
 6671SOL    MW426452   1.223   2.198   1.227 -0.0405 -0.3203  0.3427
 6672SOL     OW26453   6.397   0.818   2.371 -0.3659 -0.3081  0.4449
 6672SOL    HW226454   6.352   0.795   2.452  1.0495 -1.4806  0.9392
 6672SOL    HW326455   6.357   0.900   2.343 -0.7845  0.1930  2.4095
 6672SOL    MW426456   6.386   0.825   2.378 -0.2344 -0.3967  0.7693
 6673SOL     OW26457   0.555   3.705   0.107  0.0484  0.6027 -0.5852
 6673SOL    HW226458   0.624   3.698   0.041  0.0399 -0.2147 -0.5209
 6673SOL    HW326459   0.573   3.633   0.168 -1.5171 -0.3664 -1.1960
 6673SOL    MW426460   0.566   3.694   0.106 -0.1592  0.3670 -0.6573
 6674SOL     OW26461   4.138   4.295   0.207 -0.0311 -0.1013  0.0961
 6674SOL    HW226462   4.208   4.358   0.224  0.0409 -0.1152 -0.1466
 6674SOL    HW326463   4.172   4.212   0.238  0.5556 -0.3500 -1.1314
 6674SOL    MW426464   4.152   4.293   0.213  0.0558 -0.1359 -0.0979
 6675SOL     OW26465   0.558   0.811   6.344  0.0132 -0.3626 -0.2472
 6675SOL    HW226466   0.518   0.728   6.316 -0.0927 -0.2416 -0.4603
 6675SOL    HW326467   0.510   0.878   6.295  0.4713 -0.2148 -0.4982
 6675SOL    MW426468   0.546   0.809   6.334  0.0597 -0.3271 -0.3084
 6676SOL     OW26469   2.670   2.559   1.884 -0.1452 -0.3978 -0.2093
 6676SOL    HW226470   2.623   2.616   1.945  0.0793 -2.8079  2.4290
 6676SOL    HW326471   2.606   2.494   1.858  0.2577 -0.4296 -1.1552
 6676SOL    MW426472   2.655   2.558   1.889 -0.0624 -0.7200  0.0140
 6677SOL     OW26473   0.177   4.943   0.593 -0.1139  0.1410 -0.1708
 6677SOL    HW226474   0.176   4.914   0.502  2.6216  1.4569 -0.7070
 6677SOL    HW326475   0.249   4.893   0.633  0.0522  1.0595  0.7139
 6677SOL    MW426476   0.186   4.932   0.586  0.2689  0.4358 -0.1248
 6678SOL     OW26477   0.640   1.190   4.800 -0.3814  0.0990 -0.2326
 6678SOL    HW226478   0.724   1.236   4.796 -0.5601  0.4238 -0.2906
 6678SOL    HW326479   0.589   1.225   4.727  0.2285 -1.7207 -1.6039
 6678SOL    MW426480   0.644   1.201   4.790 -0.3245 -0.0982 -0.4212
 6679SOL     OW26481   3.462   6.117   3.829  0.6304  0.5042  0.0860
 6679SOL    HW226482   3.453   6.212   3.832  3.3356  0.8221  2.7506
 6679SOL    HW326483   3.412   6.085   3.904  3.0792  0.3268  1.7531
 6679SOL    MW426484   3.454   6.125   3.839  1.3104  0.5228  0.6575
 6680SOL     OW26485   4.239   3.937   5.324  0.5663 -0.0741 -0.4177
 6680SOL    HW226486   4.143   3.930   5.320  0.5289  0.8552 -2.2261
 6680SOL    HW326487   4.261   3.998   5.254  2.4287  0.5185  0.6232
 6680SOL    MW426488   4.229   3.944   5.314  0.8071  0.1267 -0.5190
 6681SOL     OW26489   0.516   4.169   0.643  0.1989  0.2220  0.2066
 6681SOL    HW226490   0.541   4.086   0.602  0.1876 -0.3291  1.2686
 6681SOL    HW326491   0.504   4.147   0.736 -1.4200  1.0517  0.2362
 6681SOL    MW426492   0.517   4.155   0.650 -0.0162  0.2588  0.3506
 6682SOL     OW26493   0.210   4.804   4.997  0.4994 -0.2486 -0.1629
 6682SOL    HW226494   0.146   4.759   4.940  0.0220 -0.7226  0.7267
 6682SOL    HW326495   0.165   4.811   5.081  1.9987 -1.5570  0.7955
 6682SOL    MW426496   0.195   4.799   5.000  0.6342 -0.4838  0.0809
 6683SOL     OW26497   1.876   2.274   0.641 -0.2016  0.1807 -0.4655
 6683SOL    HW226498   1.893   2.340   0.575  0.2136  1.1957  0.6082
 6683SOL    HW326499   1.956   2.223   0.646  0.4435  1.2287  0.4590
 6683SOL    MW426500   1.889   2.276   0.633 -0.0617  0.4529 -0.2019
 6684SOL     OW26501   5.466   0.746   2.473 -0.5010 -0.3167 -0.1437
 6684SOL    HW226502   5.477   0.827   2.424 -2.0058 -0.3558 -0.5871
 6684SOL    HW326503   5.430   0.774   2.557  0.3115 -0.4247  0.2575
 6684SOL    MW426504   5.463   0.760   2.478 -0.5924 -0.3361 -0.1493
 6685SOL     OW26505   3.492   1.706   5.845  0.8246 -0.0924  0.1006
 6685SOL    HW226506   3.560   1.732   5.907  1.0747 -0.0605 -0.1861
 6685SOL    HW326507   3.416   1.687   5.900  0.7634  0.8105  0.3596
 6685SOL    MW426508   3.491   1.707   5.861  0.8495  0.0309  0.0969
 6686SOL     OW26509   5.577   4.987   4.272 -0.1996  0.7511  0.0369
 6686SOL    HW226510   5.558   4.895   4.291  3.5713 -0.3258 -0.4499
 6686SOL    HW326511   5.558   5.033   4.354 -1.0968 -0.6607  0.6532
 6686SOL    MW426512   5.572   4.981   4.285  0.1795  0.4227  0.0540
 6687SOL     OW26513   2.500   5.824   5.752  0.1163  0.3726 -0.0466
 6687SOL    HW226514   2.501   5.806   5.846  0.0368  1.6684  0.2200
 6687SOL    HW326515   2.410   5.804   5.725  0.2802 -0.5052  0.0400
 6687SOL    MW426516   2.488   5.819   5.761  0.1275  0.4278  0.0000
 6688SOL     OW26517   4.873   6.069   5.704 -0.1553  0.2678  0.7428
 6688SOL    HW226518   4.798   6.044   5.759 -0.3921 -2.6293 -0.6796
 6688SOL    HW326519   4.914   5.986   5.680  2.4948  1.6665  0.0073
 6688SOL    MW426520   4.868   6.055   5.708  0.1631  0.0701  0.4581
 6689SOL     OW26521   3.844   3.613   5.314 -0.0354  0.3200 -0.2154
 6689SOL    HW226522   3.783   3.588   5.244 -0.5702 -0.2477  0.4397
 6689SOL    HW326523   3.909   3.542   5.316  0.3579  0.6669 -0.5705
 6689SOL    MW426524   3.845   3.600   5.305 -0.0541  0.2909 -0.1758
 6690SOL     OW26525   1.943   1.214   5.203 -0.0688  0.5678 -0.9649
 6690SOL    HW226526   1.907   1.303   5.200  0.5560  0.8123 -3.5716
 6690SOL    HW326527   1.949   1.187   5.112 -1.0429 -2.5308 -0.2498
 6690SOL    MW426528   1.939   1.222   5.191 -0.1149  0.1913 -1.2144
 6691SOL     OW26529   0.240   2.534   4.227 -0.2136 -0.0418 -0.0974
 6691SOL    HW226530   0.220   2.453   4.180  1.8660 -2.0048  2.1341
 6691SOL    HW326531   0.334   2.528   4.246 -0.5820  1.5074  2.6326
 6691SOL    MW426532   0.250   2.523   4.223  0.0121 -0.0964  0.5572
 6692SOL     OW26533   4.785   5.926   3.012 -0.1453  0.0613  0.2956
 6692SOL    HW226534   4.850   5.954   2.948 -0.2912 -1.4642 -0.5840
 6692SOL    HW326535   4.799   5.832   3.020 -1.6589 -0.1569  0.7440
 6692SOL    MW426536   4.796   5.917   3.004 -0.3642 -0.1687  0.2387
 6693SOL     OW26537   3.452   5.074   2.607 -0.1295  0.1940  0.1464
 6693SOL    HW226538   3.515   5.064   2.536  0.7143 -0.3314  0.9420
 6693SOL    HW326539   3.502   5.114   2.678 -0.9882  0.8355  0.4091
 6693SOL    MW426540   3.467   5.078   2.607 -0.1315  0.2094  0.2860
 6694SOL     OW26541   1.088   4.793   0.100 -0.6265  0.1255  0.1733
 6694SOL    HW226542   1.029   4.837   0.161  0.5912  0.2942  1.2594
 6694SOL    HW326543   1.082   4.700   0.123  0.1464  0.2349  0.8462
 6694SOL    MW426544   1.079   4.787   0.111 -0.3638  0.1622  0.4054
 6695SOL     OW26545   3.069   5.637   0.328  0.6637  0.4560 -0.0079
 6695SOL    HW226546   3.156   5.598   0.333  0.2116 -0.5098  0.6522
 6695SOL    HW326547   3.046   5.656   0.419  0.0073  0.2940 -0.1346
 6695SOL    MW426548   3.077   5.634   0.341  0.5175  0.3072  0.0625
 6696SOL     OW26549   4.108   2.313   3.915  0.0383  0.3951 -0.0859
 6696SOL    HW226550   4.051   2.270   3.852 -0.5394  0.0807  0.6371
 6696SOL    HW326551   4.143   2.242   3.969 -0.9063  0.7847  1.1003
 6696SOL    MW426552   4.105   2.298   3.914 -0.1625  0.4050  0.1660
 6697SOL     OW26553   0.150   0.647   3.744  0.4302  0.0376 -0.0313
 6697SOL    HW226554   0.104   0.726   3.771 -0.2954  0.0587 -1.2274
 6697SOL    HW326555   0.131   0.640   3.650  0.3438 -1.6378  0.0834
 6697SOL    MW426556   0.141   0.656   3.735  0.3231 -0.1807 -0.1739
 6698SOL     OW26557   3.596   3.861   2.656 -0.8554  0.2171 -0.6924
 6698SOL    HW226558   3.518   3.862   2.601  0.3002  0.5724 -2.4047
 6698SOL    HW326559   3.668   3.876   2.595  0.4630  0.9954  0.9904
 6698SOL    MW426560   3.595   3.863   2.640 -0.5290  0.3667 -0.6963
 6699SOL     OW26561   5.889   3.586   1.489 -0.6350  0.1723 -0.2253
 6699SOL    HW226562   5.888   3.491   1.481 -1.1095  0.1955 -0.5032
 6699SOL    HW326563   5.981   3.610   1.486 -0.5578 -0.1996 -1.2558
 6699SOL    MW426564   5.901   3.577   1.488 -0.6874  0.1263 -0.3979
 6700SOL     OW26565   4.424   2.238   4.117 -0.3287 -0.1353 -0.2974
 6700SOL    HW226566   4.401   2.305   4.181  1.8459 -0.5347  0.9936
 6700SOL    HW326567   4.441   2.160   4.169  1.3905 -0.5000 -1.3518
 6700SOL    MW426568   4.423   2.237   4.132  0.1850 -0.2362 -0.2662
 6701SOL     OW26569   4.240   2.135   6.048 -0.2343  0.1744  0.2833
 6701SOL    HW226570   4.334   2.118   6.044  0.1068  1.5037  1.7806
 6701SOL    HW326571   4.232   2.230   6.051 -1.5634  0.0580  1.2600
 6701SOL    MW426572   4.251   2.145   6.048 -0.3647  0.3344  0.6097
 6702SOL     OW26573   5.316   0.918   0.112 -0.1455  0.3667 -0.1276
 6702SOL    HW226574   5.348   0.952   0.195  1.1882 -0.9973 -0.0324
 6702SOL    HW326575   5.294   0.826   0.130  0.4380 -0.0380 -1.3195
 6702SOL    MW426576   5.317   0.910   0.125  0.1075  0.1334 -0.2723
 6703SOL     OW26577   4.519   6.297   1.157 -0.0383  0.3868  0.1484
 6703SOL    HW226578   4.468   6.352   1.216  0.0221  0.2180  0.3589
 6703SOL    HW326579   4.607   6.297   1.194 -0.1182 -0.1389  0.3477
 6703SOL    MW426580   4.524   6.304   1.169 -0.0409  0.2951  0.2024
 6704SOL     OW26581   5.946   5.298   0.922 -0.1337 -0.0686  0.4101
 6704SOL    HW226582   5.867   5.253   0.894 -0.1288  0.1849 -0.0138
 6704SOL    HW326583   5.983   5.241   0.990 -0.0160 -0.8166 -0.2708
 6704SOL    MW426584   5.941   5.284   0.928 -0.1175 -0.1338  0.2643
 6705SOL     OW26585   0.163   1.088   2.924  0.2572 -0.2803  0.0757
 6705SOL    HW226586   0.172   0.996   2.949 -1.1133 -0.6210 -0.6404
 6705SOL    HW326587   0.172   1.135   3.007  0.9380 -1.0383  0.4551
 6705SOL    MW426588   0.166   1.082   2.939  0.1662 -0.4252  0.0313
 6706SOL     OW26589   3.515   5.908   6.425 -0.5311 -0.0944 -0.0716
 6706SOL    HW226590   3.436   5.858   6.446 -0.3497 -0.2850  0.1500
 6706SOL    HW326591   3.562   5.915   6.508  1.1234 -2.4517 -0.7335
 6706SOL    MW426592   3.511   5.902   6.439 -0.2889 -0.4306 -0.1297
 6707SOL     OW26593   5.758   3.568   4.006 -0.5757 -0.2102  0.9844
 6707SOL    HW226594   5.834   3.607   4.050 -0.6909 -0.2464  1.2179
 6707SOL    HW326595   5.769   3.591   3.914  1.3622 -2.8310  0.4466
 6707SOL    MW426596   5.769   3.576   4.000 -0.3352 -0.5608  0.9443
 6708SOL     OW26597   5.339   2.725   2.243 -0.5617  0.4187 -0.2581
 6708SOL    HW226598   5.262   2.713   2.299 -0.6216 -2.3766 -0.7942
 6708SOL    HW326599   5.387   2.797   2.284 -1.5976 -0.2006  2.2584
 6708SOL    MW426600   5.335   2.733   2.256 -0.7063 -0.0318  0.0032
 6709SOL     OW26601   6.259   2.076   2.453 -0.0935 -0.1817 -0.3066
 6709SOL    HW226602   6.311   2.003   2.488  0.4546 -0.4180 -1.5739
 6709SOL    HW326603   6.168   2.052   2.474  0.0795 -1.2182 -0.6840
 6709SOL    MW426604   6.254   2.063   2.461  0.0016 -0.3496 -0.5236
 6710SOL     OW26605   4.362   2.097   1.301  0.8034 -0.4157 -0.3578
 6710SOL    HW226606   4.359   2.088   1.396  1.1698 -0.2172 -0.3283
 6710SOL    HW326607   4.454   2.081   1.278  0.7034 -0.5341 -0.6845
 6710SOL    MW426608   4.374   2.093   1.310  0.8385 -0.4051 -0.3970
 6711SOL     OW26609   4.849   6.275   6.066  0.0281  0.2011 -0.0872
 6711SOL    HW226610   4.922   6.236   6.018 -0.8631 -2.2774  0.3699
 6711SOL    HW326611   4.885   6.354   6.106  2.4495 -0.8929  0.0545
 6711SOL    MW426612   4.863   6.280   6.065  0.2300 -0.2703 -0.0082
 6712SOL     OW26613   1.016   0.844   6.314 -0.0393  0.3144 -0.0649
 6712SOL    HW226614   1.100   0.802   6.300 -0.6976 -0.9504 -0.3843
 6712SOL    HW326615   0.994   0.883   6.230  0.0953  0.3831 -0.0669
 6712SOL    MW426616   1.024   0.844   6.301 -0.1084  0.1566 -0.1073
 6713SOL     OW26617   0.611   3.020   4.029 -0.2489  0.4977  0.1577
 6713SOL    HW226618   0.649   3.082   3.967 -0.8125  1.8087  1.0739
 6713SOL    HW326619   0.533   2.986   3.985 -1.2362  2.2090  0.5111
 6713SOL    MW426620   0.606   3.023   4.015 -0.4535  0.8965  0.3252
 6714SOL     OW26621   1.275   3.171   0.440  0.4534 -0.7266 -0.2498
 6714SOL    HW226622   1.227   3.252   0.457  0.4163 -0.6229 -0.8363
 6714SOL    HW326623   1.208   3.102   0.442 -0.1577 -0.3526 -3.2571
 6714SOL    MW426624   1.260   3.172   0.443  0.3679 -0.6636 -0.7240
 6715SOL     OW26625   5.442   0.042   1.227 -0.6889 -0.2676  0.1162
 6715SOL    HW226626   5.524   0.002   1.256 -0.0305 -0.2999 -1.6818
 6715SOL    HW326627   5.464   0.134   1.214 -0.4386 -0.5898 -2.0119
 6715SOL    MW426628   5.456   0.049   1.229 -0.5690 -0.3143 -0.4018
 6716SOL     OW26629   2.029   4.621   4.492 -0.2125 -0.5804  0.5697
 6716SOL    HW226630   1.956   4.572   4.454  0.5245 -1.5330  0.3626
 6716SOL    HW326631   2.047   4.691   4.429 -0.9531 -0.3184  0.6365
 6716SOL    MW426632   2.022   4.624   4.479 -0.2130 -0.6715  0.5512
 6717SOL     OW26633   0.850   4.984   6.276  0.4184 -0.2870 -0.0926
 6717SOL    HW226634   0.925   4.994   6.335 -0.3899  1.1037  0.7376
 6717SOL    HW326635   0.875   5.030   6.196  0.8625 -0.7696 -0.2405
 6717SOL    MW426636   0.863   4.991   6.273  0.3704 -0.1672 -0.0026
 6718SOL     OW26637   6.321   1.906   3.727 -0.5621  0.3659 -0.2147
 6718SOL    HW226638   6.356   1.917   3.816 -1.2878  1.4756 -0.0463
 6718SOL    HW326639   6.387   1.945   3.670 -0.5767  0.6044 -0.0698
 6718SOL    MW426640   6.334   1.912   3.732 -0.6598  0.5438 -0.1734
 6719SOL     OW26641   2.649   3.174   2.972 -0.9478 -0.3506 -0.2201
 6719SOL    HW226642   2.704   3.173   2.894  1.3972  0.9888  1.3179
 6719SOL    HW326643   2.646   3.082   3.000 -1.5812 -0.7990 -1.6604
 6719SOL    MW426644   2.656   3.162   2.965 -0.7220 -0.2331 -0.2072
 6720SOL     OW26645   3.419   3.136   5.519  0.4397  0.3731  0.7472
 6720SOL    HW226646   3.357   3.178   5.459  0.4127  2.0724  1.8793
 6720SOL    HW326647   3.494   3.196   5.522  2.2415 -1.6703 -0.6566
 6720SOL    MW426648   3.421   3.150   5.512  0.6738  0.3277  0.7114
 6721SOL     OW26649   4.580   0.601   1.608 -0.3188  0.3246 -0.3714
 6721SOL    HW226650   4.496   0.585   1.565 -0.1127 -0.5191 -0.4952
 6721SOL    HW326651   4.640   0.621   1.536  0.1073 -1.4385 -0.5633
 6721SOL    MW426652   4.577   0.601   1.592 -0.2354 -0.0194 -0.4130
 6722SOL     OW26653   4.390   3.288   3.792  0.2241  0.6395  0.3212
 6722SOL    HW226654   4.380   3.343   3.870 -2.2807  0.4722  0.2174
 6722SOL    HW326655   4.341   3.208   3.813  0.2636  0.2238 -1.0778
 6722SOL    MW426656   4.382   3.285   3.805 -0.1012  0.5626  0.1229
 6723SOL     OW26657   5.934   3.543   3.111 -0.7017  0.5037 -0.3239
 6723SOL    HW226658   5.863   3.549   3.175  0.0363  1.6393  0.4395
 6723SOL    HW326659   5.900   3.587   3.033 -1.3021 -0.1385 -0.4369
 6723SOL    MW426660   5.920   3.549   3.110 -0.6835  0.5688 -0.2381
 6724SOL     OW26661   1.040   0.169   1.331  0.5947 -0.5395  0.1146
 6724SOL    HW226662   1.027   0.116   1.252 -2.1546 -1.4950  1.0958
 6724SOL    HW326663   1.073   0.107   1.396  0.2172 -0.3914  0.4525
 6724SOL    MW426664   1.043   0.154   1.329  0.1822 -0.6460  0.2887
 6725SOL     OW26665   4.986   5.604   3.443  0.7277 -0.5468  0.7292
 6725SOL    HW226666   4.973   5.649   3.526 -2.5745 -0.4391  0.2987
 6725SOL    HW326667   5.008   5.674   3.381 -1.3058  0.1063  0.6800
 6725SOL    MW426668   4.987   5.619   3.446  0.0237 -0.4464  0.6659
 6726SOL     OW26669   2.130   3.233   6.008 -0.3255 -0.7059  0.4556
 6726SOL    HW226670   2.122   3.243   6.103 -1.9372 -0.7488  0.3615
 6726SOL    HW326671   2.132   3.138   5.994 -1.6748 -0.7506  0.3865
 6726SOL    MW426672   2.129   3.221   6.019 -0.7161 -0.7174  0.4341
 6727SOL     OW26673   3.327   0.404   3.925  0.1638  0.9025 -0.4381
 6727SOL    HW226674   3.383   0.345   3.875 -1.2355  0.0801 -1.1008
 6727SOL    HW326675   3.387   0.467   3.964  1.7751 -1.0931  0.5000
 6727SOL    MW426676   3.342   0.404   3.924  0.1918  0.5307 -0.4018
 6728SOL     OW26677   3.826   1.985   3.796 -0.2113  0.5202 -0.0535
 6728SOL    HW226678   3.833   1.921   3.726  0.8760  0.7889 -0.2129
 6728SOL    HW326679   3.736   1.977   3.828 -0.4377 -0.2435 -0.8592
 6728SOL    MW426680   3.815   1.976   3.791 -0.0977  0.4549 -0.1808
 6729SOL     OW26681   3.130   1.722   6.309 -0.1765  0.0431  0.3033
 6729SOL    HW226682   3.129   1.628   6.293 -0.5271  0.2469 -1.0290
 6729SOL    HW326683   3.211   1.738   6.358  2.0091 -0.4640 -2.8665
 6729SOL    MW426684   3.140   1.712   6.314  0.0656  0.0031 -0.2907
 6730SOL     OW26685   0.488   5.612   6.414 -0.0359 -0.3929 -0.1395
 6730SOL    HW226686   0.399   5.645   6.421  0.3438  0.6596 -0.1948
 6730SOL    HW326687   0.505   5.573   6.500 -0.0126  0.7833  0.4010
 6730SOL    MW426688   0.478   5.611   6.427  0.0172 -0.0989 -0.0755
 6731SOL     OW26689   1.754   5.184   5.244  0.4504 -0.0326  0.4776
 6731SOL    HW226690   1.755   5.151   5.334  1.6931  0.1581  0.5568
 6731SOL    HW326691   1.821   5.133   5.199 -1.6730 -1.7366 -0.9879
 6731SOL    MW426692   1.763   5.173   5.250  0.3342 -0.2322  0.2947
 6732SOL     OW26693   2.716   6.377   3.766  0.1219  0.2070  0.0310
 6732SOL    HW226694   2.664   6.409   3.692  1.7289  1.3575 -0.6611
 6732SOL    HW326695   2.660   6.313   3.809 -1.7863  1.2506 -0.7742
 6732SOL    MW426696   2.702   6.373   3.762  0.0821  0.4965 -0.1665
 6733SOL     OW26697   6.114   5.337   0.331  0.0738  0.1567 -0.3075
 6733SOL    HW226698   6.203   5.332   0.366  0.1391 -0.3063 -0.5265
 6733SOL    HW326699   6.058   5.339   0.409  0.0599 -3.5347 -0.0350
 6733SOL    MW426700   6.119   5.337   0.346  0.0806 -0.3914 -0.3005
 6734SOL     OW26701   2.151   2.010   0.310 -0.0896  0.3103 -1.2213
 6734SOL    HW226702   2.152   2.062   0.230 -1.5293  2.0381 -0.1768
 6734SOL    HW326703   2.167   2.073   0.380 -2.5416 -0.4665  0.1458
 6734SOL    MW426704   2.153   2.025   0.309 -0.6030  0.4358 -0.9031
 6735SOL     OW26705   5.725   0.477   5.184  0.3026  0.0533 -0.1676
 6735SOL    HW226706   5.650   0.423   5.160  1.3036 -2.0642  1.2018
 6735SOL    HW326707   5.692   0.535   5.253 -0.5030  0.4305 -0.8515
 6735SOL    MW426708   5.711   0.478   5.190  0.3284 -0.1763 -0.0772
 6736SOL     OW26709   1.803   3.529   4.225  0.0787 -0.7535  0.2340
 6736SOL    HW226710   1.726   3.571   4.185  1.0027  0.3551 -0.4718
 6736SOL    HW326711   1.803   3.440   4.191 -1.3925 -1.0578  0.9745
 6736SOL    MW426712   1.793   3.523   4.215  0.0065 -0.6474  0.2386
 6737SOL     OW26713   6.284   4.643   0.322 -0.3320 -0.0124  0.0714
 6737SOL    HW226714   6.229   4.568   0.344  1.5756 -1.0442  1.8018
 6737SOL    HW326715   6.262   4.709   0.388  1.4438 -1.0157  1.8113
 6737SOL    MW426716   6.274   4.642   0.334  0.1540 -0.2809  0.5293
 6738SOL     OW26717   0.516   2.555   4.294 -0.0285  0.0830  0.6343
 6738SOL    HW226718   0.544   2.591   4.209 -0.3290  1.0375  0.9268
 6738SOL    HW326719   0.573   2.480   4.308  0.8222  0.6201  0.1335
 6738SOL    MW426720   0.527   2.550   4.285  0.0441  0.2798  0.6068
 6739SOL     OW26721   2.451   0.961   5.301  0.4827  0.2991  0.2680
 6739SOL    HW226722   2.546   0.947   5.301  0.8250  2.2953  0.6453
 6739SOL    HW326723   2.426   0.954   5.209  0.8223 -1.0809  0.2525
 6739SOL    MW426724   2.461   0.958   5.289  0.5726  0.3804  0.3157
 6740SOL     OW26725   5.900   4.736   0.490  0.0132 -0.2085 -0.3152
 6740SOL    HW226726   5.891   4.828   0.464  0.6568 -0.8306 -3.0679
 6740SOL    HW326727   5.810   4.706   0.502 -0.2176  0.7050  0.3885
 6740SOL    MW426728   5.887   4.744   0.488  0.0676 -0.1700 -0.5855
 6741SOL     OW26729   3.881   0.097   1.696  0.7409  0.1305 -0.0263
 6741SOL    HW226730   3.848   0.041   1.625  0.6978  1.4317 -1.0539
 6741SOL    HW326731   3.811   0.159   1.712  1.4028  0.8725  0.0323
 6741SOL    MW426732   3.867   0.098   1.689  0.8225  0.4001 -0.1541
 6742SOL     OW26733   1.828   3.350   1.498 -0.2560  0.1860  0.2755
 6742SOL    HW226734   1.738   3.362   1.529 -0.5898  0.0411 -0.6031
 6742SOL    HW326735   1.823   3.273   1.441  0.1743  0.9079 -0.7458
 6742SOL    MW426736   1.815   3.341   1.495 -0.2433  0.2622  0.0248
 6743SOL     OW26737   0.641   3.117   4.640 -0.1666 -0.3384  0.6472
 6743SOL    HW226738   0.558   3.128   4.687  0.5678  0.7167  1.7779
 6743SOL    HW326739   0.624   3.152   4.553 -0.4561  1.5624  1.4126
 6743SOL    MW426740   0.628   3.123   4.635 -0.1079  0.0516  0.8974
 6744SOL     OW26741   0.247   5.110   5.294  0.5410  0.0282  0.0981
 6744SOL    HW226742   0.218   5.043   5.232 -1.4850  0.9210  0.0090
 6744SOL    HW326743   0.225   5.074   5.380  1.2312 -0.2060  0.1916
 6744SOL    MW426744   0.241   5.096   5.297  0.3648  0.1151  0.0987
 6745SOL     OW26745   5.978   2.163   0.120 -0.7647  0.0535  0.0119
 6745SOL    HW226746   5.976   2.078   0.077 -2.1484 -0.4402  1.0110
 6745SOL    HW326747   5.888   2.195   0.115 -0.7135  0.4990  1.4911
 6745SOL    MW426748   5.966   2.156   0.114 -0.9405  0.0471  0.3389
 6746SOL     OW26749   5.307   3.601   0.384 -0.3118 -0.4599 -0.1520
 6746SOL    HW226750   5.286   3.619   0.475 -2.3138 -0.6053 -0.5362
 6746SOL    HW326751   5.394   3.639   0.371 -0.5310  0.6884  1.4718
 6746SOL    MW426752   5.316   3.608   0.394 -0.6049 -0.3276  0.0115
 6747SOL     OW26753   0.065   5.570   0.354 -0.1413  0.0500  0.6511
 6747SOL    HW226754  -0.000   5.635   0.327  0.7726 -0.0162 -2.0902
 6747SOL    HW326755   0.014   5.504   0.402 -2.0048  0.3673 -0.7461
 6747SOL    MW426756   0.050   5.570   0.356 -0.2666  0.0832  0.1051
 6748SOL     OW26757   1.458   0.760   1.245  0.4924 -0.3505 -0.3904
 6748SOL    HW226758   1.444   0.841   1.196 -0.0094 -0.6531 -0.7573
 6748SOL    HW326759   1.538   0.776   1.295 -1.3260  1.6422  2.1671
 6748SOL    MW426760   1.466   0.773   1.245  0.1863 -0.1275 -0.1013
 6749SOL     OW26761   4.940   4.770   1.056 -0.0418  0.0866 -0.1945
 6749SOL    HW226762   4.937   4.769   0.961  1.1933  1.9799 -0.3035
 6749SOL    HW326763   5.027   4.734   1.078  0.4258  1.3387  0.0994
 6749SOL    MW426764   4.951   4.765   1.047  0.1828  0.5016 -0.1701
 6750SOL     OW26765   1.741   4.813   0.595 -0.5268  0.3795 -0.5687
 6750SOL    HW226766   1.781   4.892   0.633 -1.6870 -0.0285  1.6571
 6750SOL    HW326767   1.648   4.822   0.616 -0.5961 -1.8434  0.2935
 6750SOL    MW426768   1.734   4.825   0.603 -0.6890  0.0324 -0.1613
 6751SOL     OW26769   3.294   3.128   3.693 -0.4674  0.3995  0.5141
 6751SOL    HW226770   3.305   3.104   3.786 -0.4436  0.3345  0.4947
 6751SOL    HW326771   3.339   3.058   3.645 -2.2244 -0.6724  0.3689
 6751SOL    MW426772   3.302   3.115   3.699 -0.6961  0.2495  0.4924
 6752SOL     OW26773   3.778   0.742   2.838 -0.0455 -0.4406 -0.8023
 6752SOL    HW226774   3.840   0.675   2.866  2.9969  2.5970  0.3268
 6752SOL    HW326775   3.719   0.753   2.913  1.9666  0.8382  0.6737
 6752SOL    MW426776   3.778   0.734   2.852  0.6214  0.1289 -0.4586
 6753SOL     OW26777   4.890   5.506   0.696  0.9814  0.1110 -0.1911
 6753SOL    HW226778   4.831   5.577   0.721  0.3085  0.0818 -1.5905
 6753SOL    HW326779   4.867   5.433   0.754  0.4126  0.4541  0.0133
 6753SOL    MW426780   4.879   5.506   0.707  0.8175  0.1524 -0.3488
 6754SOL     OW26781   1.155   0.726   4.477 -0.0999 -0.7739 -0.3019
 6754SOL    HW226782   1.149   0.648   4.422 -2.4738 -2.1217  1.6871
 6754SOL    HW326783   1.085   0.783   4.445 -1.2493 -1.4049  1.0144
 6754SOL    MW426784   1.145   0.723   4.465 -0.5648 -1.0349  0.1342
 6755SOL     OW26785   3.957   0.304   6.395 -0.3706 -0.5705 -0.2258
 6755SOL    HW226786   3.929   0.281   6.484  1.7487 -0.3608  0.5442
 6755SOL    HW326787   3.962   0.220   6.349 -1.5376 -0.6748 -0.2064
 6755SOL    MW426788   3.954   0.290   6.401 -0.2449 -0.5566 -0.1216
 6756SOL     OW26789   5.018   1.911   6.394  0.5512 -0.2047 -0.3028
 6756SOL    HW226790   5.086   1.957   6.345  0.8625 -2.2155 -1.8971
 6756SOL    HW326791   4.937   1.930   6.346  0.1586  1.1502  0.8497
 6756SOL    MW426792   5.016   1.919   6.381  0.5404 -0.2913 -0.3611
 6757SOL     OW26793   4.365   3.914   3.512  0.1495 -0.0169 -0.6273
 6757SOL    HW226794   4.421   3.866   3.571 -0.9805 -0.7804 -0.1369
 6757SOL    HW326795   4.356   3.857   3.435  0.6435  0.4375 -1.0307
 6757SOL    MW426796   4.371   3.900   3.509  0.0656 -0.0577 -0.6158
 6758SOL     OW26797   3.016   5.453   5.321  0.3623  0.1407 -0.2746
 6758SOL    HW226798   3.095   5.465   5.269 -0.1271 -1.6666 -1.5006
 6758SOL    HW326799   3.048   5.416   5.404  1.0041  1.8138  0.2830
 6758SOL    MW426800   3.031   5.450   5.325  0.3824  0.1230 -0.3628
 6759SOL     OW26801   4.883   5.934   3.504  0.0578 -0.3768  0.0707
 6759SOL    HW226802   4.968   5.967   3.478  0.1862 -2.1485 -1.9839
 6759SOL    HW326803   4.821   5.975   3.444 -0.2002 -1.1341 -0.1941
 6759SOL    MW426804   4.886   5.944   3.493  0.0407 -0.7104 -0.2353
 6760SOL     OW26805   3.007   4.166   0.923 -0.2662  0.2761 -0.2411
 6760SOL    HW226806   2.999   4.072   0.911 -3.6984  0.2190  1.1804
 6760SOL    HW326807   2.960   4.204   0.849  1.0688  0.8998 -0.7904
 6760SOL    MW426808   3.000   4.159   0.912 -0.5429  0.3509 -0.1260
 6761SOL     OW26809   4.916   0.177   5.801  0.3174 -0.1112  0.5863
 6761SOL    HW226810   4.897   0.216   5.887  0.9490  0.9298  0.2630
 6761SOL    HW326811   4.864   0.097   5.800  0.7040 -0.4305  2.1679
 6761SOL    MW426812   4.907   0.171   5.812  0.4518 -0.0160  0.7523
 6762SOL     OW26813   3.171   2.129   5.209 -0.6956  0.7426  0.3500
 6762SOL    HW226814   3.143   2.199   5.267  2.1723  1.4860  1.0059
 6762SOL    HW326815   3.266   2.126   5.219 -0.4003 -1.2071 -1.9922
 6762SOL    MW426816   3.180   2.138   5.218 -0.2783  0.5834  0.1275
 6763SOL     OW26817   2.141   3.046   3.206 -0.1039 -0.1349  0.4599
 6763SOL    HW226818   2.197   3.003   3.270  0.6514 -0.4481 -0.3975
 6763SOL    HW326819   2.100   2.974   3.158  0.1561  0.1043 -0.1181
 6763SOL    MW426820   2.143   3.031   3.208  0.0301 -0.1447  0.2705
 6764SOL     OW26821   0.493   4.621   3.222 -0.5192  0.0315 -0.5941
 6764SOL    HW226822   0.580   4.661   3.223  0.2117 -1.4847  1.0116
 6764SOL    HW326823   0.433   4.695   3.223  0.7389  1.1094 -1.3936
 6764SOL    MW426824   0.497   4.636   3.222 -0.2568 -0.0263 -0.4877
 6765SOL     OW26825   2.011   4.629   6.246  0.6131  0.2504 -0.0545
 6765SOL    HW226826   2.026   4.552   6.302 -1.3130  0.1313  0.3492
 6765SOL    HW326827   1.934   4.672   6.284  0.3023  1.1401 -1.6084
 6765SOL    MW426828   2.003   4.625   6.259  0.3179  0.3521 -0.2063
 6766SOL     OW26829   2.054   2.907   2.749  0.1647 -0.1094 -0.4254
 6766SOL    HW226830   2.105   2.966   2.694 -1.5552 -0.3592 -2.3972
 6766SOL    HW326831   1.965   2.943   2.747 -0.1113 -0.4987  1.7129
 6766SOL    MW426832   2.049   2.920   2.742 -0.0986 -0.1937 -0.4034
 6767SOL     OW26833   4.517   4.376   5.590  0.1067 -0.7088  0.0009
 6767SOL    HW226834   4.498   4.347   5.501  1.9703  0.5329 -0.8620
 6767SOL    HW326835   4.587   4.318   5.620  0.6673 -0.0365  0.0074
 6767SOL    MW426836   4.524   4.364   5.582  0.4265 -0.4563 -0.1121
 6768SOL     OW26837   5.315   1.283   1.500 -0.1173 -0.2496  0.4452
 6768SOL    HW226838   5.262   1.315   1.572  0.2611 -0.9238  1.0305
 6768SOL    HW326839   5.385   1.348   1.490 -0.0743 -0.2437  0.7968
 6768SOL    MW426840   5.317   1.296   1.508 -0.0617 -0.3378  0.5688
 6769SOL     OW26841   4.620   3.174   4.364 -0.8686  0.3906 -0.0723
 6769SOL    HW226842   4.595   3.219   4.444 -1.8898  0.2834 -0.3162
 6769SOL    HW326843   4.607   3.238   4.295  0.6001  0.6816 -0.1032
 6769SOL    MW426844   4.615   3.188   4.366 -0.8096  0.4148 -0.1085
 6770SOL     OW26845   0.328   6.078   2.610 -0.2468  0.5276 -0.5783
 6770SOL    HW226846   0.234   6.079   2.628 -0.4590 -0.8269 -1.4859
 6770SOL    HW326847   0.338   6.130   2.530 -0.3616 -0.0335 -0.9692
 6770SOL    MW426848   0.317   6.085   2.602 -0.2900  0.2749 -0.7496
 6771SOL     OW26849   5.500   6.092   2.054  0.1068  0.2509 -0.0888
 6771SOL    HW226850   5.426   6.122   2.000  0.0277 -1.0433 -0.7439
 6771SOL    HW326851   5.568   6.071   1.990  0.7582  0.6466  0.4663
 6771SOL    MW426852   5.499   6.093   2.038  0.1823  0.1323 -0.1020
 6772SOL     OW26853   1.446   3.816   4.823 -0.7105 -0.2846 -0.3780
 6772SOL    HW226854   1.455   3.815   4.727 -1.6486  0.0901 -0.4774
 6772SOL    HW326855   1.368   3.869   4.839 -0.4685 -0.2153  0.6083
 6772SOL    MW426856   1.437   3.823   4.812 -0.8024 -0.2260 -0.2610
 6773SOL     OW26857   0.511   0.285   5.708  0.0138 -0.0452  0.0364
 6773SOL    HW226858   0.603   0.258   5.700  0.5665  1.3960  1.1330
 6773SOL    HW326859   0.507   0.331   5.792 -1.2647  1.6529 -0.8981
 6773SOL    MW426860   0.523   0.288   5.718 -0.0820  0.3690  0.0578
 6774SOL     OW26861   4.015   3.518   1.270  0.4316 -0.4860 -0.0509
 6774SOL    HW226862   4.068   3.496   1.347  2.2272 -0.2459 -1.1660
 6774SOL    HW326863   4.029   3.612   1.257  0.4425 -0.5893 -0.8680
 6774SOL    MW426864   4.024   3.527   1.278  0.6700 -0.4680 -0.3058
 6775SOL     OW26865   6.324   4.819   4.200 -0.0249  0.1533 -0.0495
 6775SOL    HW226866   6.368   4.879   4.261 -0.1275  0.9573 -0.7312
 6775SOL    HW326867   6.285   4.877   4.135 -1.9314 -0.5615  0.4149
 6775SOL    MW426868   6.325   4.835   4.199 -0.2900  0.1651 -0.0781
 6776SOL     OW26869   1.759   2.170   4.600  0.0503  0.5823  0.3628
 6776SOL    HW226870   1.792   2.094   4.551 -0.6818 -1.7955  3.2825
 6776SOL    HW326871   1.831   2.234   4.596  1.4474 -0.9678 -0.6946
 6776SOL    MW426872   1.773   2.169   4.593  0.1381  0.0641  0.6085
 6777SOL     OW26873   1.830   2.605   5.648  0.1286  0.2037  0.0715
 6777SOL    HW226874   1.824   2.662   5.572 -0.6990  0.4609  0.3213
 6777SOL    HW326875   1.742   2.606   5.687  0.3961 -0.3439  0.7232
 6777SOL    MW426876   1.818   2.613   5.643  0.0547  0.1654  0.1904
 6778SOL     OW26877   0.080   0.316   1.980  0.2847 -0.0236  0.5578
 6778SOL    HW226878   0.080   0.313   1.885 -0.0980  1.2606  0.4896
 6778SOL    HW326879  -0.011   0.300   2.005 -0.4981  3.4023  0.4533
 6778SOL    MW426880   0.068   0.314   1.971  0.1309  0.5978  0.5350
 6779SOL     OW26881   3.059   3.606   4.819  0.2709  0.8657 -0.2227
 6779SOL    HW226882   3.002   3.529   4.817  1.3454  0.0455 -0.2947
 6779SOL    HW326883   3.047   3.642   4.907 -1.9051  1.9507 -0.8911
 6779SOL    MW426884   3.050   3.600   4.830  0.1255  0.9006 -0.3204
 6780SOL     OW26885   5.562   0.610   5.397 -0.4142  0.2474  0.5649
 6780SOL    HW226886   5.475   0.606   5.358 -0.1383  2.0363 -0.3206
 6780SOL    HW326887   5.572   0.702   5.424  0.5062 -0.3195  2.3169
 6780SOL    MW426888   5.552   0.622   5.396 -0.2563  0.4086  0.6792
 6781SOL     OW26889   0.037   1.587   2.039  0.7138  0.2947 -0.4927
 6781SOL    HW226890   0.075   1.500   2.037 -1.8367 -0.9769  1.0357
 6781SOL    HW326891  -0.010   1.595   1.956  0.9129  0.2146 -0.6134
 6781SOL    MW426892   0.036   1.577   2.028  0.4036  0.1164 -0.3069
 6782SOL     OW26893   0.151   1.448   4.930  0.1203 -0.3244 -0.0771
 6782SOL    HW226894   0.230   1.497   4.908  0.5627 -0.0243  2.0241
 6782SOL    HW326895   0.180   1.357   4.937  0.0783 -0.3497 -0.2233
 6782SOL    MW426896   0.165   1.443   4.928  0.1732 -0.2881  0.1808
 6783SOL     OW26897   4.164   4.490   0.783  0.0347  0.8533  0.1509
 6783SOL    HW226898   4.165   4.496   0.879 -1.1712  0.1415  0.2258
 6783SOL    HW326899   4.218   4.413   0.763 -0.2470  0.6163  0.2993
 6783SOL    MW426900   4.171   4.481   0.793 -0.1616  0.7281  0.1804
 6784SOL     OW26901   5.347   0.176   2.343 -0.0245  0.4143  0.4936
 6784SOL    HW226902   5.349   0.082   2.361  1.5363  0.3989  0.3808
 6784SOL    HW326903   5.270   0.188   2.287 -0.3383 -0.7614  0.6417
 6784SOL    MW426904   5.337   0.165   2.338  0.1400  0.2572  0.4982
 6785SOL     OW26905   3.013   5.106   5.131  0.1240 -0.0712  0.2428
 6785SOL    HW226906   3.070   5.169   5.088  1.2656 -0.3688  1.2647
 6785SOL    HW326907   2.925   5.143   5.123  0.4472  0.4260 -1.3020
 6785SOL    MW426908   3.009   5.119   5.124  0.3173 -0.0449  0.1739
 6786SOL     OW26909   2.180   1.634   5.981 -0.0772 -0.2466 -0.4004
 6786SOL    HW226910   2.148   1.646   6.071  0.9655 -0.8438  0.0706
 6786SOL    HW326911   2.112   1.580   5.940 -1.0211  0.8061 -0.2692
 6786SOL    MW426912   2.167   1.628   5.988 -0.0641 -0.1865 -0.3210
 6787SOL     OW26913   2.635   0.373   5.701  0.3581 -0.3574  0.5405
 6787SOL    HW226914   2.590   0.292   5.675 -2.1289  0.9532  0.4149
 6787SOL    HW326915   2.654   0.417   5.618 -0.4637  0.2352  0.6506
 6787SOL    MW426916   2.632   0.368   5.686 -0.0785 -0.1063  0.5385
 6788SOL     OW26917   1.645   5.435   5.440 -0.3742 -0.2001 -0.7461
 6788SOL    HW226918   1.645   5.490   5.518 -3.8787 -0.6305 -0.2850
 6788SOL    HW326919   1.655   5.497   5.367 -0.3709  0.5954 -0.0847
 6788SOL    MW426920   1.646   5.451   5.440 -0.8362 -0.1519 -0.5980
 6789SOL     OW26921   5.243   6.036   6.010 -0.5772 -0.1247 -0.4047
 6789SOL    HW226922   5.219   5.945   5.994 -0.2793 -0.0506 -1.3557
 6789SOL    HW326923   5.172   6.087   5.971 -0.8179  0.0596  0.2549
 6789SOL    MW426924   5.231   6.031   6.003 -0.5696 -0.0906 -0.4432
 6790SOL     OW26925   5.974   6.001   3.332 -0.0410  0.4826  0.1029
 6790SOL    HW226926   6.032   6.023   3.259 -1.2276 -0.4251 -1.1722
 6790SOL    HW326927   6.013   6.045   3.408  2.1705  0.0834 -0.7257
 6790SOL    MW426928   5.987   6.010   3.332  0.0942  0.3102 -0.1746
 6791SOL     OW26929   6.019   2.805   5.688  0.2808  0.2924  0.4235
 6791SOL    HW226930   6.085   2.758   5.739  1.6105  0.5623 -0.9495
 6791SOL    HW326931   5.974   2.736   5.638  1.2248  0.3003 -0.4772
 6791SOL    MW426932   6.022   2.789   5.688  0.5808  0.3291  0.1235
 6792SOL     OW26933   4.745   0.085   2.490 -0.0027  0.2391  0.1132
 6792SOL    HW226934   4.770   0.093   2.398 -0.0849  1.1217  0.1627
 6792SOL    HW326935   4.695   0.164   2.509 -2.1772 -1.1129  0.2544
 6792SOL    MW426936   4.742   0.097   2.481 -0.3004  0.1772  0.1384
 6793SOL     OW26937   0.399   0.226   2.913 -0.1210  0.0645  0.0317
 6793SOL    HW226938   0.322   0.188   2.954 -0.8887 -1.9369 -2.9484
 6793SOL    HW326939   0.365   0.288   2.849  0.9627  1.8809  1.1224
 6793SOL    MW426940   0.385   0.229   2.910 -0.0793  0.0401 -0.2176
 6794SOL     OW26941   0.560   4.124   5.720  0.6085  0.2085  0.2861
 6794SOL    HW226942   0.511   4.130   5.638  1.0887  0.3293  0.0047
 6794SOL    HW326943   0.550   4.210   5.761 -0.6735 -0.2265  0.9720
 6794SOL    MW426944   0.552   4.136   5.715  0.5027  0.1670  0.3394
 6795SOL     OW26945   4.214   6.003   0.500  0.1669 -0.7945  0.2010
 6795SOL    HW226946   4.253   5.917   0.512  1.0682 -0.4849 -0.4248
 6795SOL    HW326947   4.120   5.988   0.508  0.2861 -1.9154 -0.3020
 6795SOL    MW426948   4.207   5.990   0.502  0.3015 -0.9015  0.0521
 6796SOL     OW26949   0.053   2.827   6.000  0.1999  0.0522  0.6541
 6796SOL    HW226950   0.084   2.784   6.080  0.1810 -1.3653 -0.0655
 6796SOL    HW326951   0.061   2.920   6.018 -0.4080 -0.2336  2.5426
 6796SOL    MW426952   0.058   2.834   6.013  0.1172 -0.1725  0.8083
 6797SOL     OW26953   3.644   5.788   4.588  0.0636  0.0609 -0.6829
 6797SOL    HW226954   3.618   5.705   4.627  1.6250  0.3992  1.2464
 6797SOL    HW326955   3.568   5.845   4.600 -0.3266 -0.5384 -0.2724
 6797SOL    MW426956   3.631   5.785   4.595  0.2181  0.0265 -0.3742
 6798SOL     OW26957   2.854   5.611   5.126  0.7805  0.4278 -0.5231
 6798SOL    HW226958   2.907   5.689   5.110  0.2826  0.9761  0.3886
 6798SOL    HW326959   2.916   5.548   5.164  1.2890  0.1970 -1.7078
 6798SOL    MW426960   2.869   5.613   5.129  0.7819  0.4697 -0.5591
 6799SOL     OW26961   3.262   0.235   4.608  0.1210  0.0517 -0.7505
 6799SOL    HW226962   3.281   0.326   4.583  0.2181  0.9279  2.2184
 6799SOL    HW326963   3.311   0.221   4.688 -1.3790 -2.0179 -0.1143
 6799SOL    MW426964   3.271   0.245   4.615 -0.0641 -0.1058 -0.2749
 6800SOL     OW26965   1.107   0.697   0.661  0.0683 -0.0370  0.3409
 6800SOL    HW226966   1.097   0.642   0.739 -0.0045 -1.1190 -0.4101
 6800SOL    HW326967   1.042   0.664   0.600 -1.0924  1.9528  0.4227
 6800SOL    MW426968   1.097   0.685   0.664 -0.0944  0.0827  0.2526
 6801SOL     OW26969   1.304   5.942   1.340 -0.3929 -0.2372 -0.3227
 6801SOL    HW226970   1.345   5.892   1.270 -1.6041 -0.3279 -0.9833
 6801SOL    HW326971   1.263   6.017   1.296 -1.2282 -0.3294  0.2693
 6801SOL    MW426972   1.304   5.946   1.325 -0.6629 -0.2614 -0.3317
 6802SOL     OW26973   4.710   2.730   1.539 -0.3131  0.1721  0.7084
 6802SOL    HW226974   4.620   2.714   1.567  0.1586 -0.0028  2.2105
 6802SOL    HW326975   4.748   2.784   1.608  0.9704 -0.4351  0.5143
 6802SOL    MW426976   4.704   2.735   1.551 -0.0815  0.0689  0.8810
 6803SOL     OW26977   1.483   4.019   0.827 -0.2119  0.2688  0.1942
 6803SOL    HW226978   1.477   3.969   0.908  1.6503 -0.0498  0.1696
 6803SOL    HW326979   1.576   4.038   0.816 -0.6171  1.8823 -0.9360
 6803SOL    MW426980   1.495   4.015   0.836 -0.0197  0.4396  0.0419
 6804SOL     OW26981   2.026   5.938   6.297 -0.0478 -0.3061  0.3403
 6804SOL    HW226982   2.116   5.905   6.300  0.5888  1.3065  2.9577
 6804SOL    HW326983   1.985   5.904   6.377 -0.7077  1.5485  0.8461
 6804SOL    MW426984   2.033   5.929   6.308 -0.0509  0.1514  0.7523
 6805SOL     OW26985   1.781   4.238   5.943 -0.3047  0.2921  0.1568
 6805SOL    HW226986   1.700   4.188   5.935  0.2255 -0.3343 -1.6572
 6805SOL    HW326987   1.818   4.209   6.027 -0.7538 -1.2488 -0.1438
 6805SOL    MW426988   1.775   4.227   5.953 -0.2940  0.0062 -0.1222
 6806SOL     OW26989   4.755   2.552   5.374 -0.1689 -0.4932 -0.2158
 6806SOL    HW226990   4.790   2.489   5.311 -2.3706  0.7566 -2.9077
 6806SOL    HW326991   4.762   2.637   5.330  1.7149  1.1600  2.8403
 6806SOL    MW426992   4.761   2.555   5.360 -0.2108 -0.1102 -0.1678
 6807SOL     OW26993   0.873   0.907   3.826  0.0502 -0.4518 -0.1332
 6807SOL    HW226994   0.810   0.936   3.892  0.1431 -2.5503  0.9764
 6807SOL    HW326995   0.920   0.986   3.802 -0.1510  0.4639  2.1607
 6807SOL    MW426996   0.871   0.921   3.832  0.0359 -0.6079  0.3158
 6808SOL     OW26997   3.503   5.075   5.165  0.2933  0.2644 -0.6213
 6808SOL    HW226998   3.595   5.073   5.192  0.5346 -1.1807 -1.4297
 6808SOL    HW326999   3.455   5.041   5.241  0.4339  0.8877 -0.2497
 6808SOL    MW427000   3.509   5.070   5.179  0.3437  0.1559 -0.6789
 6809SOL     OW27001   5.253   2.011   0.154  0.1655 -0.2318 -0.2825
 6809SOL    HW227002   5.265   2.097   0.114 -1.3120 -0.3350 -1.0239
 6809SOL    HW327003   5.320   2.006   0.222  1.7750  0.5789 -1.7160
 6809SOL    MW427004   5.264   2.022   0.158  0.1830 -0.1384 -0.5695
 6810SOL     OW27005   5.687   5.306   1.123 -0.1542  0.5828  0.8302
 6810SOL    HW227006   5.760   5.350   1.168 -0.8453  1.2328  1.3353
 6810SOL    HW327007   5.721   5.288   1.035  1.0827 -0.3429  1.4621
 6810SOL    MW427008   5.701   5.310   1.117 -0.0822  0.5464  0.9802
 6811SOL     OW27009   0.850   2.409   2.662 -0.3811 -0.3567  0.1885
 6811SOL    HW227010   0.885   2.322   2.683  2.3506  0.7556  0.5467
 6811SOL    HW327011   0.814   2.440   2.746 -1.6209 -1.1788  0.0004
 6811SOL    MW427012   0.850   2.402   2.676 -0.1842 -0.3184  0.2109
 6812SOL     OW27013   5.506   4.328   1.031  0.6268  0.1799 -0.9244
 6812SOL    HW227014   5.432   4.301   0.978  1.5036 -1.4328 -1.3896
 6812SOL    HW327015   5.498   4.423   1.037 -0.6648  0.1788 -2.1622
 6812SOL    MW427016   5.495   4.337   1.025  0.5721 -0.0331 -1.1491
 6813SOL     OW27017   2.552   0.128   1.972 -0.1180  0.6423 -0.4326
 6813SOL    HW227018   2.628   0.170   1.931  0.5199  0.5087  0.5714
 6813SOL    HW327019   2.536   0.179   2.052 -1.3804  0.9440 -0.8515
 6813SOL    MW427020   2.560   0.140   1.977 -0.2004  0.6645 -0.3554
 6814SOL     OW27021   2.836   3.191   2.746  0.4343  0.6927  0.2917
 6814SOL    HW227022   2.810   3.260   2.685  0.7756 -0.1388 -0.8455
 6814SOL    HW327023   2.881   3.127   2.691  0.7608 -0.0938  1.4368
 6814SOL    MW427024   2.838   3.192   2.730  0.5224  0.4792  0.2927
 6815SOL     OW27025   1.811   1.622   6.240  0.3194 -0.4692  0.3062
 6815SOL    HW227026   1.906   1.631   6.249  0.2479 -0.7197  1.4029
 6815SOL    HW327027   1.778   1.712   6.247  0.4604 -0.4006  0.0967
 6815SOL    MW427028   1.819   1.635   6.242  0.3286 -0.4932  0.4233
 6816SOL     OW27029   4.692   5.906   0.336 -0.1707 -0.0664 -0.1624
 6816SOL    HW227030   4.647   5.861   0.264 -0.0441 -1.9342  0.8525
 6816SOL    HW327031   4.784   5.907   0.311 -0.3029  0.5635 -0.6444
 6816SOL    MW427032   4.698   5.900   0.324 -0.1714 -0.2297 -0.0921
 6817SOL     OW27033   4.536   4.793   6.362  0.2791  0.4553  0.0531
 6817SOL    HW227034   4.557   4.834   6.278  0.1422  1.4103  0.4784
 6817SOL    HW327035   4.534   4.699   6.343  1.9542  0.5299 -0.6569
 6817SOL    MW427036   4.539   4.786   6.348  0.4821  0.5911  0.0155
 6818SOL     OW27037   5.221   5.191   0.549  0.1565  0.1420 -0.5307
 6818SOL    HW227038   5.180   5.244   0.618  0.1619 -0.2201 -0.2447
 6818SOL    HW327039   5.187   5.102   0.564  0.8229 -0.1057 -0.4670
 6818SOL    MW427040   5.211   5.186   0.560  0.2452  0.0615 -0.4846
 6819SOL     OW27041   2.965   0.703   1.039 -0.6178 -0.3300  0.4043
 6819SOL    HW227042   2.887   0.730   1.087 -0.3181  1.2473  0.0480
 6819SOL    HW327043   3.001   0.784   1.002 -0.1597 -1.3133 -1.4767
 6819SOL    MW427044   2.959   0.717   1.040 -0.5178 -0.2516  0.1091
 6820SOL     OW27045   3.113   4.154   2.618  0.4125  0.6338 -0.2807
 6820SOL    HW227046   3.178   4.210   2.575  1.9055 -0.1739  0.8708
 6820SOL    HW327047   3.097   4.197   2.702  1.0784 -0.2910  0.3331
 6820SOL    MW427048   3.119   4.167   2.623  0.6973  0.4052 -0.0478
 6821SOL     OW27049   2.395   3.434   1.954 -0.3810 -0.8780 -0.3406
 6821SOL    HW227050   2.421   3.347   1.985  0.1233 -0.9497 -0.9387
 6821SOL    HW327051   2.375   3.421   1.861 -1.7550 -0.6480 -0.1049
 6821SOL    MW427052   2.396   3.420   1.946 -0.4958 -0.8571 -0.3884
 6822SOL     OW27053   4.434   4.747   3.936 -0.3413 -0.6776  0.2350
 6822SOL    HW227054   4.360   4.735   3.996 -0.1839 -0.8984  0.3854
 6822SOL    HW327055   4.511   4.747   3.992 -0.2942  0.6664  0.1964
 6822SOL    MW427056   4.434   4.745   3.951 -0.3143 -0.5294  0.2497
 6823SOL     OW27057   1.725   4.152   4.937  0.4352 -0.6586 -0.3383
 6823SOL    HW227058   1.810   4.167   4.980 -1.3969  0.4130  3.2887
 6823SOL    HW327059   1.740   4.180   4.846  3.5832  0.9144  0.5025
 6823SOL    MW427060   1.738   4.158   4.930  0.6089 -0.3097  0.2512
 6824SOL     OW27061   1.933   2.998   4.348 -0.3359  0.0776  0.2975
 6824SOL    HW227062   1.997   2.957   4.290 -1.0248 -0.5025 -0.0598
 6824SOL    HW327063   1.985   3.061   4.399  0.5677 -0.5997  0.2377
 6824SOL    MW427064   1.948   3.001   4.347 -0.3076 -0.0883  0.2424
 6825SOL     OW27065   3.092   2.763   5.022 -0.3432  0.2922  0.1646
 6825SOL    HW227066   3.003   2.777   5.055  0.1782  1.2070  1.2777
 6825SOL    HW327067   3.115   2.845   4.979  0.2520  0.3608  0.6014
 6825SOL    MW427068   3.083   2.775   5.021 -0.1959  0.4219  0.3691
 6826SOL     OW27069   5.176   0.070   3.922  0.0626 -0.7935  0.4115
 6826SOL    HW227070   5.119   0.026   3.985 -0.1886  1.1771  1.6360
 6826SOL    HW327071   5.226   0.132   3.975  1.8247 -0.9771 -0.9584
 6826SOL    MW427072   5.175   0.072   3.938  0.2620 -0.5577  0.3923
 6827SOL     OW27073   1.518   1.691   1.821  0.0764 -0.0789  0.0794
 6827SOL    HW227074   1.608   1.670   1.846  0.6354  0.4943 -1.3417
 6827SOL    HW327075   1.471   1.609   1.832  1.7645 -1.7454 -3.3910
 6827SOL    MW427076   1.524   1.677   1.825  0.3728 -0.2231 -0.5659
 6828SOL     OW27077   6.250   1.378   0.863  0.4413  0.2478 -0.2141
 6828SOL    HW227078   6.302   1.353   0.939 -0.4644 -0.4157  0.2082
 6828SOL    HW327079   6.314   1.405   0.797  1.3898 -1.4011 -0.0153
 6828SOL    MW427080   6.265   1.378   0.864  0.4469 -0.0573 -0.1322
 6829SOL     OW27081   1.796   1.991   5.823  0.0987  0.5876  0.0527
 6829SOL    HW227082   1.840   2.076   5.828  1.0450  0.0715  0.7551
 6829SOL    HW327083   1.797   1.968   5.731  0.1335  1.1770 -0.1003
 6829SOL    MW427084   1.802   1.999   5.812  0.2281  0.5973  0.1252
 6830SOL     OW27085   5.545   4.076   4.025 -0.3474 -0.2858 -0.6883
 6830SOL    HW227086   5.563   3.983   4.012 -1.4980 -0.6973  0.5001
 6830SOL    HW327087   5.450   4.083   4.020 -0.2782  0.8357 -0.7386
 6830SOL    MW427088   5.535   4.065   4.022 -0.4901 -0.1921 -0.5382
 6831SOL     OW27089   6.023   4.937   3.768 -0.1374  0.0865 -0.0885
 6831SOL    HW227090   5.987   4.983   3.844  1.1264 -1.9237  1.8633
 6831SOL    HW327091   6.077   5.002   3.724  2.4583  0.3837  3.1572
 6831SOL    MW427092   6.025   4.952   3.772  0.3718 -0.1395  0.5973
 6832SOL     OW27093   3.024   6.011   5.606 -0.1105 -0.1861  0.3497
 6832SOL    HW227094   3.117   6.011   5.628  0.2676  1.8899 -0.9669
 6832SOL    HW327095   2.994   6.100   5.627 -1.6391 -0.5999  0.0750
 6832SOL    MW427096   3.032   6.023   5.612 -0.2623  0.0332  0.1397
 6833SOL     OW27097   1.496   2.539   2.671  0.3271  0.5837  0.2124
 6833SOL    HW227098   1.475   2.478   2.742 -0.4341  0.8806  0.2546
 6833SOL    HW327099   1.568   2.593   2.706  1.6785 -0.8941 -0.1834
 6833SOL    MW427100   1.503   2.538   2.685  0.4050  0.4279  0.1657
 6834SOL     OW27101   4.659   3.442   1.931 -0.0405 -0.8558 -0.2392
 6834SOL    HW227102   4.565   3.462   1.940  0.0464 -0.4842 -0.1492
 6834SOL    HW327103   4.689   3.499   1.861  0.6815  0.9625  1.4409
 6834SOL    MW427104   4.650   3.452   1.923  0.0662 -0.5669 -0.0056
 6835SOL     OW27105   3.659   6.245   4.114  0.1579 -0.2395  0.3170
 6835SOL    HW227106   3.624   6.159   4.093 -0.6420  0.1011  0.2161
 6835SOL    HW327107   3.747   6.228   4.149 -0.0440 -1.0985  0.4215
 6835SOL    MW427108   3.666   6.231   4.116  0.0257 -0.3079  0.3175
 6836SOL     OW27109   5.111   5.255   5.379  0.3300  0.0883 -0.0778
 6836SOL    HW227110   5.133   5.171   5.339  0.8523  0.6952 -1.0986
 6836SOL    HW327111   5.114   5.238   5.473  2.6551 -0.5127 -0.1969
 6836SOL    MW427112   5.114   5.242   5.386  0.7057  0.0891 -0.2282
 6837SOL     OW27113   6.321   4.111   4.503 -0.1927 -0.0298  0.4982
 6837SOL    HW227114   6.304   4.065   4.585  0.7434  0.9600  1.2743
 6837SOL    HW327115   6.344   4.200   4.530  1.0808  0.0562 -0.7775
 6837SOL    MW427116   6.322   4.117   4.518  0.0988  0.1121  0.4323
 6838SOL     OW27117   5.651   2.178   2.821  0.4004 -0.0681 -0.0910
 6838SOL    HW227118   5.573   2.212   2.778  0.4913 -0.4200 -0.5392
 6838SOL    HW327119   5.620   2.101   2.869  0.3814  0.0779  0.1359
 6838SOL    MW427120   5.636   2.172   2.822  0.4099 -0.0953 -0.1202
 6839SOL     OW27121   4.718   3.153   2.440  0.4153 -0.5309 -0.3199
 6839SOL    HW227122   4.760   3.069   2.459  1.3688 -0.2984 -1.3167
 6839SOL    HW327123   4.627   3.129   2.418  0.6256 -1.2879 -0.4128
 6839SOL    MW427124   4.711   3.139   2.439  0.5689 -0.6001 -0.4636
 6840SOL     OW27125   0.293   5.796   0.531 -0.0096 -0.5030  0.7132
 6840SOL    HW227126   0.284   5.875   0.583 -0.0020 -0.1467  0.1850
 6840SOL    HW327127   0.223   5.738   0.563 -0.8219  0.2009  0.2656
 6840SOL    MW427128   0.283   5.798   0.542 -0.1157 -0.3631  0.5845
 6841SOL     OW27129   4.571   0.226   5.903  0.2997  0.2983 -0.1260
 6841SOL    HW227130   4.510   0.267   5.840  2.0032  0.4368 -1.7796
 6841SOL    HW327131   4.607   0.300   5.952  0.1886  0.3594 -0.1356
 6841SOL    MW427132   4.567   0.241   5.901  0.5098  0.3247 -0.3455
 6842SOL     OW27133   1.102   6.147   1.390  0.7169 -0.4044 -0.1582
 6842SOL    HW227134   1.161   6.212   1.428 -0.0688 -0.1128  0.5954
 6842SOL    HW327135   1.019   6.159   1.437  0.4510 -1.7275 -0.2473
 6842SOL    MW427136   1.098   6.157   1.401  0.5782 -0.5405 -0.0705
 6843SOL     OW27137   0.727   4.040   4.994  0.0349 -1.0355  0.4927
 6843SOL    HW227138   0.700   4.032   5.085 -2.4530  1.4260  0.1069
 6843SOL    HW327139   0.757   4.130   4.985 -0.7497 -0.8996 -1.3093
 6843SOL    MW427140   0.727   4.051   5.005 -0.3969 -0.6928  0.2041
 6844SOL     OW27141   5.485   5.848   6.066  0.4279 -0.3549  0.0495
 6844SOL    HW227142   5.466   5.876   6.155  0.6877 -0.6136  0.1883
 6844SOL    HW327143   5.435   5.908   6.010  0.4408 -0.0532  0.3615
 6844SOL    MW427144   5.476   5.860   6.070  0.4639 -0.3492  0.1090
 6845SOL     OW27145   3.651   6.153   1.203 -0.1967  0.0857  0.0638
 6845SOL    HW227146   3.687   6.083   1.258  0.0843  0.6070  0.5535
 6845SOL    HW327147   3.716   6.165   1.134 -0.9123 -1.0996 -0.8450
 6845SOL    MW427148   3.665   6.145   1.201 -0.2540 -0.0019  0.0085
 6846SOL     OW27149   2.858   0.691   4.894  0.1614 -0.0263  0.3158
 6846SOL    HW227150   2.855   0.786   4.905 -0.0225  0.0086 -0.0342
 6846SOL    HW327151   2.945   0.665   4.925 -0.3259  0.0728  1.8708
 6846SOL    MW427152   2.869   0.700   4.900  0.0729 -0.0086  0.4748
 6847SOL     OW27153   5.982   6.273   3.073 -0.2774 -0.7442  0.2478
 6847SOL    HW227154   6.024   6.188   3.063  0.0440 -0.8018  1.8006
 6847SOL    HW327155   5.993   6.295   3.166  0.1639  1.2635 -0.2162
 6847SOL    MW427156   5.989   6.265   3.084 -0.1768 -0.4869  0.3914
 6848SOL     OW27157   2.756   0.786   0.096  0.2210 -0.3753  0.5529
 6848SOL    HW227158   2.811   0.779   0.017  0.2997 -2.1826  0.7165
 6848SOL    HW327159   2.678   0.832   0.066  0.4447 -0.6336 -0.4875
 6848SOL    MW427160   2.753   0.791   0.081  0.2609 -0.6479  0.4372
 6849SOL     OW27161   1.270   0.057   5.617 -0.0849  0.4015 -0.4409
 6849SOL    HW227162   1.313   0.021   5.539 -1.9897 -1.3886 -0.7392
 6849SOL    HW327163   1.339   0.056   5.684  0.8508 -0.6640 -1.3614
 6849SOL    MW427164   1.285   0.052   5.616 -0.2128  0.0247 -0.6017
 6850SOL     OW27165   2.384   2.358   3.756  0.0252 -0.5322  0.2842
 6850SOL    HW227166   2.477   2.347   3.733 -0.1619  0.0442 -0.8277
 6850SOL    HW327167   2.373   2.453   3.764 -0.9809 -0.4109 -1.9927
 6850SOL    MW427168   2.395   2.369   3.754 -0.1322 -0.4402 -0.1629
 6851SOL     OW27169   4.177   6.039   3.844 -0.0648 -0.0243 -0.0935
 6851SOL    HW227170   4.137   6.126   3.852  1.6031  0.9405 -1.5173
 6851SOL    HW327171   4.111   5.987   3.797 -0.2252  1.1296 -1.1970
 6851SOL    MW427172   4.163   6.044   3.839  0.1341  0.2552 -0.4270
 6852SOL     OW27173   2.959   3.275   3.182 -0.1759  0.0534 -0.3217
 6852SOL    HW227174   2.974   3.245   3.093 -0.7048  1.2704 -0.8380
 6852SOL    HW327175   2.899   3.348   3.173 -0.8486 -0.2936  1.1060
 6852SOL    MW427176   2.953   3.280   3.169 -0.3344  0.1681 -0.2015
 6853SOL     OW27177   6.039   0.668   5.463  0.2740  0.3434 -0.2561
 6853SOL    HW227178   6.018   0.588   5.415  0.9460  0.1622 -0.2584
 6853SOL    HW327179   5.987   0.662   5.543  1.1086 -0.6233  0.2433
 6853SOL    MW427180   6.030   0.656   5.467  0.4728  0.1920 -0.1905
 6854SOL     OW27181   1.348   6.363   5.383 -0.1360  0.0211  0.6488
 6854SOL    HW227182   1.340   6.412   5.300  0.4392  0.4326  0.8315
 6854SOL    HW327183   1.432   6.319   5.377 -1.5216 -2.6634 -0.4004
 6854SOL    MW427184   1.358   6.364   5.371 -0.2429 -0.2788  0.5345
 6855SOL     OW27185   3.078   4.913   5.981 -0.0915  0.1657  0.1908
 6855SOL    HW227186   3.045   4.872   5.902  1.8009 -1.2702  0.0703
 6855SOL    HW327187   3.023   4.990   5.993 -1.4371 -0.4439 -1.6140
 6855SOL    MW427188   3.066   4.918   5.972 -0.0194 -0.1042 -0.0633
 6856SOL     OW27189   5.840   1.894   0.741 -0.3933  0.0972  0.0012
 6856SOL    HW227190   5.929   1.872   0.713 -0.3364 -1.0926  1.0293
 6856SOL    HW327191   5.851   1.939   0.824 -0.7330  0.4630 -0.1468
 6856SOL    MW427192   5.853   1.897   0.748 -0.4306 -0.0115  0.1173
 6857SOL     OW27193   0.555   3.397   6.059 -0.0931  0.0753  0.7084
 6857SOL    HW227194   0.535   3.371   6.149  0.6566  0.9310  1.1247
 6857SOL    HW327195   0.632   3.345   6.036 -1.5669 -1.8501 -0.2677
 6857SOL    MW427196   0.562   3.387   6.068 -0.1886 -0.0659  0.6346
 6858SOL     OW27197   5.955   4.716   1.881  0.2663 -0.9936  0.0514
 6858SOL    HW227198   6.022   4.784   1.888  1.3835 -2.0288 -0.2152
 6858SOL    HW327199   5.872   4.764   1.878  1.0113  0.3396  0.0012
 6858SOL    MW427200   5.953   4.732   1.881  0.5120 -0.9543  0.0096
 6859SOL     OW27201   6.342   4.519   3.371  0.1616  0.1632 -0.4672
 6859SOL    HW227202   6.262   4.490   3.329  0.1443 -1.2746  0.4636
 6859SOL    HW327203   6.411   4.468   3.328  0.3792  0.2363 -0.2083
 6859SOL    MW427204   6.341   4.508   3.360  0.1880 -0.0169 -0.3102
 6860SOL     OW27205   0.381   6.341   3.593 -0.5380 -0.0554 -0.1777
 6860SOL    HW227206   0.344   6.396   3.662  0.4150  1.3834 -0.7586
 6860SOL    HW327207   0.339   6.371   3.513 -0.2959 -0.4557 -0.4602
 6860SOL    MW427208   0.370   6.352   3.592 -0.3803  0.0816 -0.2916
 6861SOL     OW27209   2.535   4.976   3.549 -0.0152  0.1219  0.0371
 6861SOL    HW227210   2.530   4.897   3.494  0.7735  0.4744 -0.5761
 6861SOL    HW327211   2.560   5.045   3.488 -4.0192  1.6490 -0.1479
 6861SOL    MW427212   2.538   4.974   3.533 -0.4394  0.3699 -0.0682
 6862SOL     OW27213   1.879   5.987   0.575  0.6741  0.1033  0.1634
 6862SOL    HW227214   1.844   5.978   0.486  0.4613  2.0298  0.0148
 6862SOL    HW327215   1.875   5.898   0.611  2.6462 -1.1513 -2.4014
 6862SOL    MW427216   1.874   5.974   0.568  0.9062  0.1919 -0.1946
 6863SOL     OW27217   5.965   3.128   0.446  0.1253  0.1820 -1.1616
 6863SOL    HW227218   6.037   3.170   0.493 -0.3853  2.3118 -2.1618
 6863SOL    HW327219   5.904   3.100   0.514  1.0297  0.0133 -0.4047
 6863SOL    MW427220   5.966   3.130   0.461  0.1772  0.4407 -1.1937
 6864SOL     OW27221   6.114   5.580   4.607 -0.2786 -0.1099 -0.2016
 6864SOL    HW227222   6.196   5.600   4.652 -0.1509  2.7764 -1.5014
 6864SOL    HW327223   6.048   5.586   4.675  0.2938  0.5704  0.3134
 6864SOL    MW427224   6.116   5.583   4.622 -0.1862  0.3607 -0.3052
 6865SOL     OW27225   0.538   0.785   1.361  0.3896 -0.3511 -0.2249
 6865SOL    HW227226   0.537   0.829   1.276 -0.8886 -0.2964 -0.1968
 6865SOL    HW327227   0.611   0.825   1.408 -0.1157  1.0298 -0.5686
 6865SOL    MW427228   0.548   0.796   1.356  0.1543 -0.1617 -0.2666
 6866SOL     OW27229   2.098   5.716   4.379 -0.6176 -0.0292 -0.1901
 6866SOL    HW227230   2.109   5.733   4.285 -0.2769  0.7409 -0.0215
 6866SOL    HW327231   2.130   5.795   4.421 -2.5309  0.4388  0.5184
 6866SOL    MW427232   2.103   5.729   4.372 -0.8251  0.1342 -0.0744
 6867SOL     OW27233   0.205   4.867   4.208 -0.7746  0.6324 -0.1459
 6867SOL    HW227234   0.263   4.910   4.145  0.0674  1.8684  1.3799
 6867SOL    HW327235   0.247   4.783   4.226  0.1134  1.1412  0.2643
 6867SOL    MW427236   0.219   4.862   4.202 -0.5464  0.8626  0.1096
 6868SOL     OW27237   1.241   4.321   1.825  0.2304 -0.3015  0.6634
 6868SOL    HW227238   1.335   4.340   1.828  0.3041 -0.4432 -0.4132
 6868SOL    HW327239   1.203   4.377   1.893  0.6152  2.7058 -1.4026
 6868SOL    MW427240   1.249   4.331   1.835  0.2909  0.0766  0.2487
 6869SOL     OW27241   1.749   4.802   5.108 -0.1577  0.1686  0.1079
 6869SOL    HW227242   1.824   4.761   5.152  1.4979  0.0815 -2.5796
 6869SOL    HW327243   1.698   4.841   5.179  1.8801 -0.6622  2.1420
 6869SOL    MW427244   1.752   4.802   5.123  0.3296  0.0475  0.0217
 6870SOL     OW27245   3.413   4.683   5.434 -0.0285 -0.2417 -0.5205
 6870SOL    HW227246   3.495   4.701   5.481  0.0666  0.7970 -1.0592
 6870SOL    HW327247   3.345   4.718   5.491  0.0372  0.3979 -0.8221
 6870SOL    MW427248   3.415   4.690   5.448 -0.0073 -0.0203 -0.6314
 6871SOL     OW27249   5.297   4.809   2.045  0.2611  0.7832 -0.6269
 6871SOL    HW227250   5.378   4.772   2.008 -0.6063  0.3158 -2.1356
 6871SOL    HW327251   5.301   4.788   2.138  1.6584  0.3562 -0.7603
 6871SOL    MW427252   5.309   4.802   2.052  0.3310  0.6652 -0.8436
 6872SOL     OW27253   0.031   4.213   0.500  0.1755  0.0835  0.0012
 6872SOL    HW227254   0.041   4.306   0.522 -1.6344  0.2897  0.1251
 6872SOL    HW327255   0.120   4.181   0.487  0.8183  1.9031 -0.3016
 6872SOL    MW427256   0.044   4.221   0.501  0.0215  0.3507 -0.0224
 6873SOL     OW27257   5.684   5.752   2.098 -0.3076 -0.2945 -0.5434
 6873SOL    HW227258   5.597   5.787   2.119  0.2964  0.7012  0.3294
 6873SOL    HW327259   5.673   5.657   2.106 -0.1954 -0.1499  4.4027
 6873SOL    MW427260   5.671   5.744   2.102 -0.2131 -0.1440  0.2244
 6874SOL     OW27261   3.490   2.862   5.501 -0.2464 -0.1661 -0.0111
 6874SOL    HW227262   3.401   2.829   5.500 -0.1680 -0.3731 -0.4701
 6874SOL    HW327263   3.481   2.957   5.514 -0.4747 -0.3472  1.1925
 6874SOL    MW427264   3.477   2.870   5.502 -0.2662 -0.2173  0.0871
 6875SOL     OW27265   6.280   0.825   5.583 -0.3026 -0.0014  0.0168
 6875SOL    HW227266   6.277   0.816   5.678  0.0099 -3.2790 -0.1616
 6875SOL    HW327267   6.217   0.760   5.551  2.5354 -2.0322 -1.9932
 6875SOL    MW427268   6.272   0.815   5.591  0.1131 -0.7018 -0.2719
 6876SOL     OW27269   0.688   6.330   2.391 -0.2898  0.3244  0.1213
 6876SOL    HW227270   0.657   6.415   2.360  1.4707  1.5475  1.4952
 6876SOL    HW327271   0.743   6.297   2.321 -0.2361  0.7703 -0.0473
 6876SOL    MW427272   0.691   6.337   2.378 -0.0505  0.5446  0.2803
 6877SOL     OW27273   0.742   0.242   0.687 -0.0873 -0.2472 -0.7327
 6877SOL    HW227274   0.751   0.167   0.745  0.4733  0.7759  0.5344
 6877SOL    HW327275   0.664   0.222   0.634 -1.4992 -0.5887  1.3446
 6877SOL    MW427276   0.733   0.230   0.688 -0.1996 -0.1573 -0.2915
 6878SOL     OW27277   2.224   2.876   2.151 -0.1135 -0.1726 -0.9508
 6878SOL    HW227278   2.300   2.913   2.107  1.5301 -1.6807  0.4550
 6878SOL    HW327279   2.198   2.802   2.096  2.5056 -2.6324  0.7927
 6878SOL    MW427280   2.231   2.871   2.138  0.4489 -0.6961 -0.5353
 6879SOL     OW27281   6.115   2.255   5.393 -0.2520 -0.1781  0.5117
 6879SOL    HW227282   6.086   2.345   5.380 -1.0129 -0.4996 -0.0593
 6879SOL    HW327283   6.158   2.256   5.479 -0.4142  0.6833  0.5916
 6879SOL    MW427284   6.117   2.267   5.403 -0.3738 -0.1069  0.4469
 6880SOL     OW27285   5.917   3.807   0.430 -0.2632 -0.5823 -0.5172
 6880SOL    HW227286   5.903   3.730   0.485 -1.5811 -0.2899 -0.4166
 6880SOL    HW327287   6.006   3.835   0.450 -0.9548 -0.0184  2.0788
 6880SOL    MW427288   5.927   3.800   0.440 -0.5284 -0.4693 -0.1614
 6881SOL     OW27289   5.431   5.554   3.904  0.4445 -0.2488 -0.2069
 6881SOL    HW227290   5.450   5.586   3.992 -1.8267 -0.5529  0.4442
 6881SOL    HW327291   5.355   5.497   3.914  0.2897 -0.5195 -2.3341
 6881SOL    MW427292   5.424   5.550   3.917  0.1245 -0.3247 -0.4017
 6882SOL     OW27293   1.724   3.614   2.820  0.1375 -0.4120  0.3835
 6882SOL    HW227294   1.701   3.666   2.897 -1.2045 -0.6885  0.1915
 6882SOL    HW327295   1.674   3.533   2.829 -0.2989 -0.3160 -0.9289
 6882SOL    MW427296   1.714   3.610   2.832 -0.0971 -0.4358  0.1850
 6883SOL     OW27297   3.311   3.028   2.500 -0.3575  0.4954  0.2236
 6883SOL    HW227298   3.269   2.957   2.549  1.2468 -0.0261  0.9169
 6883SOL    HW327299   3.403   3.022   2.524  0.5135  0.3073 -2.7712
 6883SOL    MW427300   3.318   3.018   2.510 -0.0309  0.4018 -0.0801
 6884SOL     OW27301   4.139   0.492   4.220 -0.1781 -0.2609  0.1910
 6884SOL    HW227302   4.152   0.530   4.133 -0.7961 -1.4028 -0.4177
 6884SOL    HW327303   4.047   0.467   4.222  0.1278 -1.4109  0.6791
 6884SOL    MW427304   4.129   0.494   4.208 -0.2192 -0.5633  0.1751
 6885SOL     OW27305   1.366   6.195   2.320 -0.1864 -0.5184 -0.0669
 6885SOL    HW227306   1.405   6.243   2.394 -0.7195  1.4961 -1.0298
 6885SOL    HW327307   1.398   6.106   2.331  0.5607 -0.0653  2.0364
 6885SOL    MW427308   1.375   6.190   2.331 -0.1582 -0.1928  0.0836
 6886SOL     OW27309   1.452   5.770   5.935 -0.2911  0.4686 -0.0703
 6886SOL    HW227310   1.419   5.858   5.918 -0.6276  0.3812  0.1298
 6886SOL    HW327311   1.402   5.713   5.877 -1.3778  0.1837  1.1123
 6886SOL    MW427312   1.441   5.774   5.925 -0.4789  0.4195  0.1121
 6887SOL     OW27313   3.529   4.073   0.814  0.4910  0.3264 -0.6577
 6887SOL    HW227314   3.549   3.981   0.799 -0.4846  0.0804 -0.5500
 6887SOL    HW327315   3.439   4.083   0.782  0.0578  0.8913  0.6880
 6887SOL    MW427316   3.520   4.062   0.808  0.3051  0.3685 -0.4660
 6888SOL     OW27317   1.495   5.598   3.722  0.5490  0.4788  1.0607
 6888SOL    HW227318   1.587   5.573   3.727  0.2222 -1.7187 -1.6696
 6888SOL    HW327319   1.448   5.522   3.758 -0.2497  0.5441  0.1807
 6888SOL    MW427320   1.501   5.585   3.727  0.4005  0.1975  0.5844
 6889SOL     OW27321   2.965   1.657   2.780  0.3910 -0.4741 -0.4827
 6889SOL    HW227322   2.948   1.750   2.790 -0.5998 -0.5968 -0.9794
 6889SOL    HW327323   3.009   1.632   2.862 -0.8467  0.0865  0.3902
 6889SOL    MW427324   2.969   1.666   2.792  0.0970 -0.4163 -0.4330
 6890SOL     OW27325   6.120   4.672   4.593 -0.5768  0.3655  0.5795
 6890SOL    HW227326   6.114   4.651   4.500 -0.4304 -0.9773  0.8520
 6890SOL    HW327327   6.090   4.762   4.599 -2.2781 -0.0823 -0.5416
 6890SOL    MW427328   6.115   4.681   4.582 -0.7820  0.1292  0.4676
 6891SOL     OW27329   5.870   4.432   3.107 -0.1705  0.1897  0.1540
 6891SOL    HW227330   5.795   4.408   3.162  0.2255 -0.1587  0.5532
 6891SOL    HW327331   5.851   4.521   3.078  0.0026  0.7117  1.5494
 6891SOL    MW427332   5.858   4.441   3.110 -0.0954  0.2126  0.3907
 6892SOL     OW27333   5.494   4.496   5.765  0.9746 -0.2873  0.2165
 6892SOL    HW227334   5.484   4.545   5.847 -1.5266 -2.3868  1.3455
 6892SOL    HW327335   5.520   4.408   5.793  2.2374 -0.5002 -1.4723
 6892SOL    MW427336   5.496   4.491   5.780  0.8112 -0.5924  0.1426
 6893SOL     OW27337   4.982   3.711   0.990 -0.5238 -0.9185  1.0034
 6893SOL    HW227338   4.987   3.636   1.051 -1.2447 -2.0893 -0.3191
 6893SOL    HW327339   4.944   3.674   0.911  0.5602  0.5292 -0.2415
 6893SOL    MW427340   4.978   3.696   0.988 -0.4759 -0.8820  0.6647
 6894SOL     OW27341   5.970   3.651   2.500  0.2141  0.0378  0.0630
 6894SOL    HW227342   5.937   3.740   2.494  1.3604  0.3724 -2.0827
 6894SOL    HW327343   5.901   3.597   2.461 -0.4661 -0.0550  1.3344
 6894SOL    MW427344   5.957   3.655   2.494  0.2756  0.0697 -0.0524
 6895SOL     OW27345   3.775   4.722   3.788 -0.5875  0.4058  0.2517
 6895SOL    HW227346   3.819   4.764   3.714 -1.5551 -1.6438 -1.6295
 6895SOL    HW327347   3.839   4.725   3.859  1.6236 -0.1819 -1.5932
 6895SOL    MW427348   3.789   4.728   3.787 -0.4234  0.0579 -0.2399
 6896SOL     OW27349   3.615   4.237   5.350 -0.3441  0.4615 -0.4481
 6896SOL    HW227350   3.542   4.176   5.336  0.6180 -1.6340  2.6061
 6896SOL    HW327351   3.689   4.195   5.306 -0.1348  0.4811 -0.1163
 6896SOL    MW427352   3.615   4.223   5.342 -0.1896  0.1876 -0.0014
 6897SOL     OW27353   3.065   2.535   4.150  0.2476  0.3035  0.9409
 6897SOL    HW227354   3.101   2.504   4.067  0.7954  0.4560  1.1160
 6897SOL    HW327355   2.970   2.526   4.140  0.3511 -0.5556  0.6497
 6897SOL    MW427356   3.057   2.530   4.138  0.3336  0.2103  0.9256
 6898SOL     OW27357   0.288   4.528   3.881 -0.2633 -0.0126  0.0851
 6898SOL    HW227358   0.277   4.566   3.794 -2.3800  0.3822  0.4588
 6898SOL    HW327359   0.202   4.539   3.922  0.8932  0.5517  2.5192
 6898SOL    MW427360   0.275   4.534   3.875 -0.3900  0.1139  0.4555
 6899SOL     OW27361   2.778   3.116   3.363 -0.1946 -0.3815 -0.5154
 6899SOL    HW227362   2.688   3.144   3.375 -0.1145  0.7074 -2.1703
 6899SOL    HW327363   2.803   3.150   3.277  1.8568 -0.5082 -0.0219
 6899SOL    MW427364   2.770   3.124   3.353  0.0866 -0.2545 -0.6686
 6900SOL     OW27365   0.016   1.368   5.204  0.3621  0.3573 -0.2863
 6900SOL    HW227366  -0.079   1.377   5.196 -0.0773  0.1215  3.0908
 6900SOL    HW327367   0.052   1.428   5.139 -2.1631  3.0797  0.6476
 6900SOL    MW427368   0.008   1.377   5.195 -0.0291  0.6854  0.2825
 6901SOL     OW27369   6.107   6.328   5.577  0.2831 -0.3166  0.0341
 6901SOL    HW227370   6.078   6.406   5.624 -0.0008 -0.8226  0.7152
 6901SOL    HW327371   6.148   6.361   5.497  2.5996  0.7052  1.5338
 6901SOL    MW427372   6.109   6.342   5.573  0.5513 -0.2485  0.3219
 6902SOL     OW27373   6.113   6.404   2.839 -0.2351  0.1672 -0.1330
 6902SOL    HW227374   6.047   6.411   2.770  0.3589 -0.4231 -0.7864
 6902SOL    HW327375   6.067   6.367   2.914 -1.2737  2.2768  0.3530
 6902SOL    MW427376   6.098   6.400   2.839 -0.2938  0.3677 -0.1551
 6903SOL     OW27377   3.965   4.508   3.915  0.2235  0.5076 -0.2287
 6903SOL    HW227378   3.962   4.542   4.004  2.5712 -0.2931  0.2177
 6903SOL    HW327379   3.906   4.432   3.917 -0.0484  0.7217  0.5092
 6903SOL    MW427380   3.957   4.502   3.927  0.4974  0.4302 -0.0724
 6904SOL     OW27381   3.284   0.805   2.123 -0.0269 -0.1748  0.0486
 6904SOL    HW227382   3.218   0.745   2.088  0.1972 -1.1065  1.1355
 6904SOL    HW327383   3.238   0.887   2.137 -1.6306 -1.4081  2.8594
 6904SOL    MW427384   3.269   0.808   2.120 -0.2089 -0.4604  0.5628
 6905SOL     OW27385   3.987   4.492   0.357 -0.4831 -0.5262 -0.3082
 6905SOL    HW227386   3.947   4.436   0.424  0.1793 -0.4198  0.1845
 6905SOL    HW327387   4.039   4.433   0.303 -2.2269 -0.8700 -1.7130
 6905SOL    MW427388   3.988   4.477   0.359 -0.6258 -0.5575 -0.4286
 6906SOL     OW27389   4.206   3.420   1.088  0.1031  0.5917  0.4367
 6906SOL    HW227390   4.167   3.416   1.000 -0.3643  2.3800  0.5197
 6906SOL    HW327391   4.137   3.459   1.142  1.3079  2.0263  0.9981
 6906SOL    MW427392   4.192   3.425   1.083  0.2004  1.0169  0.5217
 6907SOL     OW27393   2.233   0.314   0.770  0.2295 -0.3920 -0.2357
 6907SOL    HW227394   2.323   0.341   0.753  0.3002 -0.3803  0.1471
 6907SOL    HW327395   2.197   0.383   0.826 -0.1311 -0.2122 -0.6799
 6907SOL    MW427396   2.240   0.327   0.775  0.1913 -0.3667 -0.2438
 6908SOL     OW27397   1.274   5.600   5.676  1.0658 -0.1695 -0.5660
 6908SOL    HW227398   1.206   5.549   5.632  0.4971  1.2136 -1.3631
 6908SOL    HW327399   1.319   5.646   5.605  0.2390  1.9905  0.2372
 6908SOL    MW427400   1.271   5.599   5.661  0.8816  0.2980 -0.5652
 6909SOL     OW27401   3.597   5.698   2.562 -0.1583  0.4688 -0.2343
 6909SOL    HW227402   3.598   5.619   2.508  0.5234  0.3764 -0.0892
 6909SOL    HW327403   3.504   5.721   2.569 -0.4523 -0.8558  0.5157
 6909SOL    MW427404   3.585   5.691   2.556 -0.1071  0.2818 -0.1162
 6910SOL     OW27405   2.071   6.351   3.293 -0.1229  0.0405 -0.1871
 6910SOL    HW227406   2.051   6.434   3.249  1.7354 -0.1377 -1.4921
 6910SOL    HW327407   2.162   6.361   3.322 -1.4184  0.3988  4.3918
 6910SOL    MW427408   2.080   6.363   3.291 -0.0486  0.0642  0.2449
 6911SOL     OW27409   0.915   6.314   3.332 -0.1689 -0.1548  0.8217
 6911SOL    HW227410   0.941   6.243   3.274  0.5321 -0.3214  1.3285
 6911SOL    HW327411   0.925   6.279   3.420  1.5786  1.0084  1.1323
 6911SOL    MW427412   0.920   6.300   3.336  0.1542 -0.0233  0.9296
 6912SOL     OW27413   1.753   4.915   1.633 -0.0719  0.2251 -0.1569
 6912SOL    HW227414   1.839   4.945   1.663 -0.2713 -0.4053  1.1171
 6912SOL    HW327415   1.765   4.898   1.539  0.4606  2.6896 -0.6176
 6912SOL    MW427416   1.766   4.917   1.624 -0.0280  0.4671 -0.0496
 6913SOL     OW27417   5.246   4.699   2.660 -0.1211  0.1417 -0.6828
 6913SOL    HW227418   5.296   4.737   2.732 -1.2233  2.0420 -0.8539
 6913SOL    HW327419   5.288   4.615   2.643  0.4420 -0.1687  1.8747
 6913SOL    MW427420   5.258   4.693   2.667 -0.1922  0.3515 -0.3680
 6914SOL     OW27421   2.392   3.218   5.959  0.4732 -0.2025  0.2467
 6914SOL    HW227422   2.300   3.237   5.977 -0.2609 -1.4884 -1.8265
 6914SOL    HW327423   2.418   3.156   6.028 -0.9983 -1.7565 -0.5131
 6914SOL    MW427424   2.383   3.212   5.970  0.1822 -0.5772 -0.1271
 6915SOL     OW27425   4.420   0.060   0.331  0.0921  0.1397  0.7818
 6915SOL    HW227426   4.338   0.101   0.302  0.1501  0.2702  0.8011
 6915SOL    HW327427   4.482   0.133   0.338  0.1203  0.0909  1.0844
 6915SOL    MW427428   4.417   0.075   0.328  0.1035  0.1505  0.8242
 6916SOL     OW27429   1.814   5.244   1.469 -0.5357  0.1986 -0.2127
 6916SOL    HW227430   1.734   5.271   1.424 -0.1497 -1.0127 -1.7089
 6916SOL    HW327431   1.785   5.181   1.535 -0.9708  1.1132  0.5093
 6916SOL    MW427432   1.800   5.240   1.472 -0.5422  0.1595 -0.3148
 6917SOL     OW27433   2.102   2.944   5.979  0.1832 -0.0392 -0.1180
 6917SOL    HW227434   2.087   2.941   5.884 -1.1024  0.4927  0.0563
 6917SOL    HW327435   2.023   2.984   6.015  0.4070 -0.7702  1.2492
 6917SOL    MW427436   2.090   2.949   5.971  0.0431 -0.0654  0.0854
 6918SOL     OW27437   5.229   2.380   4.518  0.0589 -0.0997 -0.0406
 6918SOL    HW227438   5.144   2.337   4.508  0.3129 -0.2368 -1.8484
 6918SOL    HW327439   5.224   2.423   4.603 -2.2369  0.8334 -0.5817
 6918SOL    MW427440   5.217   2.380   4.528 -0.2105  0.0053 -0.3505
 6919SOL     OW27441   1.646   2.564   1.032  0.0270  0.0351 -0.2894
 6919SOL    HW227442   1.742   2.559   1.034  0.1025  1.2231  0.4827
 6919SOL    HW327443   1.617   2.476   1.010  1.3382  0.0872 -2.5473
 6919SOL    MW427444   1.655   2.552   1.030  0.2100  0.1987 -0.4855
 6920SOL     OW27445   5.685   5.146   1.655 -0.2303  0.0278 -0.4482
 6920SOL    HW227446   5.728   5.095   1.586  0.2840 -1.5574  0.9762
 6920SOL    HW327447   5.748   5.149   1.727 -1.4698 -0.0413  0.6919
 6920SOL    MW427448   5.699   5.140   1.655 -0.3260 -0.1904 -0.1098
 6921SOL     OW27449   3.153   4.554   2.382 -0.4448 -0.1280 -0.1335
 6921SOL    HW227450   3.068   4.552   2.427 -0.5376  3.3791  0.1847
 6921SOL    HW327451   3.213   4.591   2.448 -0.0315  2.8078 -1.9802
 6921SOL    MW427452   3.150   4.559   2.397 -0.4025  0.7221 -0.3352
 6922SOL     OW27453   5.635   1.603   0.223  0.8636 -0.3031  0.2377
 6922SOL    HW227454   5.653   1.604   0.317  1.5071 -0.0145  0.1151
 6922SOL    HW327455   5.591   1.686   0.206  0.7222 -0.3674  0.2842
 6922SOL    MW427456   5.632   1.614   0.233  0.9298 -0.2735  0.2276
 6923SOL     OW27457   4.211   1.042   0.921 -0.0873  0.0903  0.1464
 6923SOL    HW227458   4.136   0.995   0.883 -0.4195  0.3269  0.5009
 6923SOL    HW327459   4.240   1.101   0.851 -1.1470  1.0390  0.4811
 6923SOL    MW427460   4.205   1.044   0.907 -0.2709  0.2467  0.2373
 6924SOL     OW27461   3.108   5.985   0.822  0.2024 -0.6163 -0.5941
 6924SOL    HW227462   3.190   5.935   0.817  0.5808  0.0117 -0.7359
 6924SOL    HW327463   3.094   5.997   0.916  0.4162 -0.4902 -0.5775
 6924SOL    MW427464   3.117   5.980   0.834  0.2805 -0.5168 -0.6106
 6925SOL     OW27465   1.191   5.113   2.976  0.7264 -0.4806 -0.1723
 6925SOL    HW227466   1.243   5.113   2.895  0.4943 -1.7833 -0.3502
 6925SOL    HW327467   1.254   5.131   3.045  1.6355 -2.8483 -0.2961
 6925SOL    MW427468   1.206   5.115   2.974  0.8157 -0.9648 -0.2121
 6926SOL     OW27469   1.887   5.205   4.020 -0.2924 -0.3626  0.2976
 6926SOL    HW227470   1.971   5.195   4.064  0.5256  0.8756 -0.9118
 6926SOL    HW327471   1.839   5.124   4.041  0.8722 -0.7437  1.6426
 6926SOL    MW427472   1.892   5.193   4.029 -0.0308 -0.2495  0.3155
 6927SOL     OW27473   6.311   4.960   3.344  0.0321 -0.1804  0.0908
 6927SOL    HW227474   6.236   5.019   3.353  0.2288 -0.2256  2.4905
 6927SOL    HW327475   6.386   5.018   3.331 -0.1029 -0.0314 -0.0256
 6927SOL    MW427476   6.311   4.975   3.343  0.0402 -0.1667  0.3921
 6928SOL     OW27477   1.773   2.792   4.442  0.1804 -0.1720  0.1613
 6928SOL    HW227478   1.855   2.832   4.413  0.2082 -0.0487  0.4003
 6928SOL    HW327479   1.791   2.767   4.533  0.7245 -2.2342 -0.4654
 6928SOL    MW427480   1.787   2.794   4.451  0.2559 -0.4278  0.1101
 6929SOL     OW27481   2.586   0.125   0.313 -0.6832  0.3728 -0.5909
 6929SOL    HW227482   2.582   0.051   0.253  1.2879  0.6496 -1.1473
 6929SOL    HW327483   2.504   0.171   0.300 -0.7542 -0.1632 -2.3129
 6929SOL    MW427484   2.575   0.121   0.304 -0.4325  0.3386 -0.8915
 6930SOL     OW27485   3.169   4.967   5.530 -0.2806 -0.4807  0.1201
 6930SOL    HW227486   3.173   5.062   5.518 -0.3541 -0.4354  0.4362
 6930SOL    HW327487   3.172   4.931   5.441  0.8342 -0.2320  0.0510
 6930SOL    MW427488   3.170   4.975   5.516 -0.1432 -0.4419  0.1527
 6931SOL     OW27489   0.288   3.133   3.969  0.0345 -0.1077  0.3372
 6931SOL    HW227490   0.338   3.152   4.048 -0.2272 -0.5951  0.6217
 6931SOL    HW327491   0.281   3.038   3.966 -1.3706 -0.0448  0.6250
 6931SOL    MW427492   0.294   3.123   3.979 -0.1854 -0.1637  0.4127
 6932SOL     OW27493   3.498   1.994   4.442 -0.0353 -0.0521  0.4422
 6932SOL    HW227494   3.532   1.967   4.357 -1.7859  0.8729 -0.6020
 6932SOL    HW327495   3.514   1.919   4.499  1.0887 -0.7183 -0.6950
 6932SOL    MW427496   3.505   1.981   4.438 -0.1180 -0.0179  0.1544
 6933SOL     OW27497   0.706   3.633   5.918  0.4509 -0.0324 -0.2002
 6933SOL    HW227498   0.769   3.685   5.967  2.0991 -2.1979  0.1425
 6933SOL    HW327499   0.636   3.614   5.980  1.0612 -0.2628  0.4260
 6933SOL    MW427500   0.705   3.637   5.932  0.7489 -0.3485 -0.0724
 6934SOL     OW27501   2.875   5.811   4.570  0.0269  0.8934  0.7850
 6934SOL    HW227502   2.825   5.730   4.576 -1.6877  1.9371  1.0354
 6934SOL    HW327503   2.937   5.806   4.643  2.4054 -1.7170 -1.1764
 6934SOL    MW427504   2.877   5.800   4.580  0.1145  0.6867  0.5593
 6935SOL     OW27505   4.906   0.328   5.230 -0.1983 -0.4337  0.4133
 6935SOL    HW227506   4.861   0.292   5.153  0.4583 -0.0671 -0.1557
 6935SOL    HW327507   4.839   0.332   5.298 -0.8200 -0.6442 -0.1803
 6935SOL    MW427508   4.891   0.324   5.229 -0.1937 -0.4131  0.2599
 6936SOL     OW27509   2.697   1.512   5.027 -0.4313  0.5031  0.4328
 6936SOL    HW227510   2.654   1.596   5.011  0.7930  1.1489  0.4246
 6936SOL    HW327511   2.684   1.497   5.121 -0.7116  0.6679  0.4231
 6936SOL    MW427512   2.690   1.521   5.037 -0.3067  0.6100  0.4305
 6937SOL     OW27513   0.152   3.782   3.429 -0.0155  0.4472 -0.1752
 6937SOL    HW227514   0.071   3.830   3.407 -0.2367 -0.7355 -2.1813
 6937SOL    HW327515   0.221   3.848   3.421 -0.5005  0.8572 -1.2303
 6937SOL    MW427516   0.150   3.797   3.425 -0.1087  0.3453 -0.5791
 6938SOL     OW27517   1.357   5.226   2.769 -0.0988 -0.4411  0.4231
 6938SOL    HW227518   1.406   5.303   2.800  0.8959 -1.3577  1.1948
 6938SOL    HW327519   1.349   5.239   2.675  0.5068  0.3652  0.4732
 6938SOL    MW427520   1.362   5.238   2.761  0.1123 -0.4557  0.5316
 6939SOL     OW27521   0.410   2.539   3.135 -0.2295  0.0548 -0.4100
 6939SOL    HW227522   0.382   2.465   3.190  0.1604 -0.7891 -1.3200
 6939SOL    HW327523   0.328   2.581   3.109 -0.3884  1.5944  2.2507
 6939SOL    MW427524   0.395   2.535   3.139 -0.1990  0.1466 -0.1790
 6940SOL     OW27525   1.667   4.583   5.992  0.6246  0.3292  0.1495
 6940SOL    HW227526   1.636   4.667   5.960 -2.3042  0.5401  3.0897
 6940SOL    HW327527   1.641   4.520   5.924  0.5042  1.4435 -0.8660
 6940SOL    MW427528   1.660   4.586   5.978  0.2223  0.5040  0.4034
 6941SOL     OW27529   2.221   2.488   4.428  0.0321 -0.2660 -0.0916
 6941SOL    HW227530   2.283   2.462   4.360 -0.4087 -1.6370 -0.0027
 6941SOL    HW327531   2.145   2.432   4.415 -0.5426  0.2709  0.7974
 6941SOL    MW427532   2.219   2.477   4.418 -0.1018 -0.3760  0.0374
 6942SOL     OW27533   4.578   1.450   3.033 -0.2669  0.1161  0.2233
 6942SOL    HW227534   4.639   1.389   2.992  0.7766  0.7172  0.8395
 6942SOL    HW327535   4.564   1.519   2.968  1.0452  0.8441  0.6751
 6942SOL    MW427536   4.584   1.451   3.019  0.0439  0.2914  0.3642
 6943SOL     OW27537   0.732   3.497   0.741 -0.3495 -0.3817 -0.4999
 6943SOL    HW227538   0.644   3.533   0.729 -0.6637 -0.9239  0.1323
 6943SOL    HW327539   0.720   3.402   0.742 -0.3377 -0.4873  3.3809
 6943SOL    MW427540   0.719   3.489   0.739 -0.3894 -0.4672  0.0955
 6944SOL     OW27541   5.163   2.839   0.088 -0.3161 -0.5469 -0.0499
 6944SOL    HW227542   5.124   2.897   0.154  0.6270 -1.5644  1.4581
 6944SOL    HW327543   5.243   2.806   0.129  1.1621 -0.0128 -2.3273
 6944SOL    MW427544   5.168   2.843   0.102  0.0034 -0.6107 -0.1514
 6945SOL     OW27545   3.434   3.400   3.746 -0.7081 -0.3532  0.7547
 6945SOL    HW227546   3.393   3.467   3.691 -1.2791 -0.5955  0.8725
 6945SOL    HW327547   3.372   3.327   3.743  0.9914 -1.8285 -1.3158
 6945SOL    MW427548   3.420   3.399   3.738 -0.5592 -0.5798  0.4971
 6946SOL     OW27549   3.859   2.233   0.491 -0.0076  0.2523 -0.0410
 6946SOL    HW227550   3.798   2.187   0.549  0.3987  1.1780  1.1679
 6946SOL    HW327551   3.841   2.197   0.404 -1.2631 -0.5369  0.5100
 6946SOL    MW427552   3.848   2.222   0.487 -0.1197  0.2703  0.1912
 6947SOL     OW27553   1.834   6.012   4.667 -0.1714  0.4180 -0.2070
 6947SOL    HW227554   1.879   6.064   4.734 -0.2421  0.3327 -0.0913
 6947SOL    HW327555   1.748   5.993   4.705  0.1728 -0.5356  0.1397
 6947SOL    MW427556   1.829   6.016   4.681 -0.1353  0.2809 -0.1460
 6948SOL     OW27557   3.220   1.831   4.958  0.0791  0.1294 -0.5976
 6948SOL    HW227558   3.313   1.852   4.949 -0.3782  2.1950 -0.8670
 6948SOL    HW327559   3.193   1.871   5.040 -0.8933  0.8388 -1.2388
 6948SOL    MW427560   3.229   1.839   4.967 -0.1096  0.4955 -0.7178
 6949SOL     OW27561   3.006   3.704   5.078  0.1543 -0.2722 -0.0258
 6949SOL    HW227562   3.026   3.662   5.161 -0.9622  1.7367  1.3557
 6949SOL    HW327563   2.910   3.709   5.076  0.0998 -1.0640 -1.8894
 6949SOL    MW427564   2.996   3.699   5.089 -0.0002 -0.1116 -0.0894
 6950SOL     OW27565   1.249   2.885   3.999  0.2403  0.3233 -0.2805
 6950SOL    HW227566   1.209   2.801   4.019 -0.0706  0.4451 -0.3902
 6950SOL    HW327567   1.263   2.926   4.084  1.1958 -0.2046 -0.1697
 6950SOL    MW427568   1.246   2.880   4.013  0.3254  0.2697 -0.2804
 6951SOL     OW27569   6.416   5.716   3.812  0.2572 -0.4031 -0.4384
 6951SOL    HW227570   6.382   5.631   3.841  0.9960 -1.4629 -2.4690
 6951SOL    HW327571   6.496   5.695   3.764 -0.2920  1.2729 -2.2428
 6951SOL    MW427572   6.422   5.702   3.809  0.2822 -0.3218 -0.9444
 6952SOL     OW27573   3.112   0.462   5.686 -0.1536  0.1790  0.0582
 6952SOL    HW227574   3.043   0.397   5.672 -0.0988  0.2938 -0.7764
 6952SOL    HW327575   3.183   0.436   5.627  0.2335  0.4707  0.3849
 6952SOL    MW427576   3.112   0.450   5.676 -0.0953  0.2326 -0.0088
 6953SOL     OW27577   0.167   5.657   4.293  0.6157 -0.6576  0.0445
 6953SOL    HW227578   0.145   5.750   4.297  1.5087 -0.4377 -0.0621
 6953SOL    HW327579   0.258   5.652   4.323  0.9778 -1.3429 -1.1030
 6953SOL    MW427580   0.176   5.668   4.298  0.7813 -0.7190 -0.1209
 6954SOL     OW27581   0.415   4.961   1.025 -0.3376  0.3154  0.2313
 6954SOL    HW227582   0.332   4.917   1.004 -0.1908 -0.5485  1.3565
 6954SOL    HW327583   0.435   5.012   0.946 -1.8328  0.3957 -0.1365
 6954SOL    MW427584   0.406   4.962   1.012 -0.5155  0.2120  0.3313
 6955SOL     OW27585   1.697   3.213   0.704  0.1233 -0.2424  0.3254
 6955SOL    HW227586   1.725   3.182   0.790  0.5236  0.0563  0.3073
 6955SOL    HW327587   1.750   3.163   0.642 -0.0528 -0.3447  0.2571
 6955SOL    MW427588   1.708   3.203   0.707  0.1528 -0.2165  0.3140
 6956SOL     OW27589   6.097   6.168   6.016 -0.1800 -0.1728  0.4876
 6956SOL    HW227590   6.022   6.114   5.991 -0.3500  0.8825 -1.4201
 6956SOL    HW327591   6.163   6.149   5.950  0.1448  1.1428  0.4151
 6956SOL    MW427592   6.096   6.158   6.004 -0.1596  0.1400  0.2264
 6957SOL     OW27593   5.223   4.060   1.205 -0.4387 -0.5646 -0.1657
 6957SOL    HW227594   5.145   4.011   1.179 -0.5791 -0.8206  0.6925
 6957SOL    HW327595   5.266   4.003   1.270  0.5256 -0.4819 -0.7160
 6957SOL    MW427596   5.219   4.046   1.210 -0.3300 -0.5874 -0.1250
 6958SOL     OW27597   1.556   0.203   0.346 -0.2456 -0.6242 -0.1183
 6958SOL    HW227598   1.568   0.258   0.269 -0.0159 -1.3370 -0.6006
 6958SOL    HW327599   1.537   0.116   0.311 -1.0884 -0.7536  0.6321
 6958SOL    MW427600   1.555   0.198   0.331 -0.3265 -0.7353 -0.0829
 6959SOL     OW27601   6.431   2.745   1.709 -0.2089 -0.2057 -0.2316
 6959SOL    HW227602   6.380   2.804   1.764  1.5630  1.6221 -0.4215
 6959SOL    HW327603   6.522   2.755   1.739  0.5806 -0.4332 -2.3177
 6959SOL    MW427604   6.437   2.754   1.720  0.1290  0.0054 -0.5319
 6960SOL     OW27605   0.378   3.021   1.271 -0.1689  0.3150  0.1950
 6960SOL    HW227606   0.317   3.091   1.246  0.6591  0.4817 -1.5468
 6960SOL    HW327607   0.462   3.049   1.235  0.5499 -0.7874  0.9479
 6960SOL    MW427608   0.381   3.034   1.263  0.0352  0.1916  0.0646
 6961SOL     OW27609   1.499   0.115   5.776  0.1797  0.1449 -0.8734
 6961SOL    HW227610   1.514   0.178   5.706 -0.6267 -1.1603 -2.2751
 6961SOL    HW327611   1.541   0.035   5.745 -1.2207 -0.7973 -0.4355
 6961SOL    MW427612   1.507   0.113   5.763 -0.1115 -0.1516 -1.0006
 6962SOL     OW27613   4.151   0.922   4.713 -0.5746  0.2011  0.0792
 6962SOL    HW227614   4.169   0.939   4.620  0.7247  0.4429  0.3631
 6962SOL    HW327615   4.058   0.896   4.715 -0.6050  0.1484 -1.2854
 6962SOL    MW427616   4.141   0.921   4.701 -0.4072  0.2261 -0.0634
 6963SOL     OW27617   4.483   3.272   0.964 -0.7717  0.3005  0.1783
 6963SOL    HW227618   4.500   3.184   0.931 -1.0946  0.0695  0.6283
 6963SOL    HW327619   4.401   3.298   0.921  0.2974  1.1360 -1.4372
 6963SOL    MW427620   4.474   3.264   0.954 -0.6732  0.3803  0.0245
 6964SOL     OW27621   3.028   4.923   1.338 -0.1701 -0.5588 -0.2270
 6964SOL    HW227622   3.076   5.000   1.308 -0.6090  0.3203  1.2572
 6964SOL    HW327623   2.936   4.943   1.321 -0.3016 -0.6554  0.3474
 6964SOL    MW427624   3.023   4.936   1.332 -0.2454 -0.4556  0.0446
 6965SOL     OW27625   0.848   4.411   0.169 -0.0357  0.2746  0.3690
 6965SOL    HW227626   0.874   4.400   0.078 -2.0452 -0.5013 -0.1754
 6965SOL    HW327627   0.792   4.489   0.169  1.7878  1.6816  1.4261
 6965SOL    MW427628   0.844   4.420   0.157 -0.0602  0.3579  0.4366
 6966SOL     OW27629   5.570   4.257   1.872  0.3909  0.5541 -0.4158
 6966SOL    HW227630   5.537   4.346   1.886 -0.8903 -0.0823  0.8900
 6966SOL    HW327631   5.648   4.251   1.928 -0.1999  0.5065  0.4230
 6966SOL    MW427632   5.576   4.268   1.881  0.1439  0.4639 -0.1329
 6967SOL     OW27633   0.801   2.051   3.013  0.2651 -0.1792 -0.1048
 6967SOL    HW227634   0.778   1.958   3.021  0.9484 -0.4503 -1.0661
 6967SOL    HW327635   0.873   2.063   3.074 -0.7054  0.0664  1.0340
 6967SOL    MW427636   0.807   2.040   3.022  0.2272 -0.1826 -0.0814
 6968SOL     OW27637   2.967   3.228   4.559 -0.0292  0.5593 -0.1803
 6968SOL    HW227638   2.919   3.202   4.481 -1.8467  1.4734  0.5600
 6968SOL    HW327639   3.033   3.290   4.527 -1.3775  1.6723 -0.9241
 6968SOL    MW427640   2.970   3.233   4.544 -0.4469  0.8267 -0.1808
 6969SOL     OW27641   5.837   1.914   3.537  0.0811  0.2709 -0.9143
 6969SOL    HW227642   5.846   1.980   3.468 -0.8767 -0.1690 -1.4789
 6969SOL    HW327643   5.870   1.833   3.498  1.6988  0.4756 -0.0667
 6969SOL    MW427644   5.842   1.912   3.523  0.1682  0.2399 -0.8770
 6970SOL     OW27645   5.827   6.109   5.928  0.4778 -0.0434 -0.1198
 6970SOL    HW227646   5.766   6.153   5.986  0.7645  0.5805 -0.2752
 6970SOL    HW327647   5.781   6.030   5.899 -0.2623  0.4208 -0.2483
 6970SOL    MW427648   5.813   6.104   5.932  0.4180  0.1002 -0.1573
 6971SOL     OW27649   3.085   4.508   3.818 -0.3577 -0.0179  0.5977
 6971SOL    HW227650   3.159   4.485   3.761  0.4561  4.1324 -0.3121
 6971SOL    HW327651   3.008   4.477   3.770  0.5359  0.0736 -0.9837
 6971SOL    MW427652   3.085   4.501   3.804 -0.1324  0.5418  0.2690
 6972SOL     OW27653   3.944   2.129   1.420  0.2701 -0.2208 -0.5795
 6972SOL    HW227654   3.893   2.049   1.409 -1.7501  0.8183  0.8001
 6972SOL    HW327655   3.920   2.162   1.506  1.5184  1.5715 -0.8635
 6972SOL    MW427656   3.934   2.123   1.430  0.1682  0.1528 -0.4350
 6973SOL     OW27657   5.806   3.596   2.867  0.1775 -0.1337  0.1176
 6973SOL    HW227658   5.875   3.651   2.830  1.8436 -1.8143  0.5184
 6973SOL    HW327659   5.811   3.515   2.816  1.0050 -1.6471  2.4351
 6973SOL    MW427660   5.816   3.592   2.855  0.5065 -0.5551  0.4762
 6974SOL     OW27661   5.631   3.283   5.170  0.4444  0.9506  0.1213
 6974SOL    HW227662   5.585   3.227   5.233  1.2541  0.3462  0.1916
 6974SOL    HW327663   5.709   3.313   5.217  0.7965  0.9024 -0.4164
 6974SOL    MW427664   5.635   3.279   5.185  0.5977  0.8645  0.0596
 6975SOL     OW27665   2.044   3.678   4.273  0.5103  0.5770  0.0751
 6975SOL    HW227666   2.027   3.676   4.367  0.0346  1.0309  0.0021
 6975SOL    HW327667   1.971   3.631   4.234  0.1196  1.3414 -0.1405
 6975SOL    MW427668   2.032   3.672   4.280  0.3960  0.7377  0.0370
 6976SOL     OW27669   0.894   5.086   3.178  0.3463 -0.1552  0.3053
 6976SOL    HW227670   0.976   5.045   3.206  0.7339  0.0208 -0.5139
 6976SOL    HW327671   0.922   5.155   3.117 -0.2825  1.4672  1.7867
 6976SOL    MW427672   0.909   5.089   3.173  0.3145  0.0821  0.3927
 6977SOL     OW27673   3.478   5.024   0.912 -0.1536  0.6500 -0.2587
 6977SOL    HW227674   3.456   5.050   1.002 -0.2447 -0.4489  0.0491
 6977SOL    HW327675   3.417   5.074   0.857 -2.0636 -0.7564  0.4652
 6977SOL    MW427676   3.467   5.034   0.917 -0.4176  0.3195 -0.1226
 6978SOL     OW27677   6.187   5.358   5.538 -0.1213  0.4890  0.2317
 6978SOL    HW227678   6.231   5.442   5.554  0.8418 -0.0660  0.5686
 6978SOL    HW327679   6.172   5.356   5.444  0.5482  0.7072  0.1185
 6978SOL    MW427680   6.190   5.369   5.528  0.0941  0.4446  0.2612
 6979SOL     OW27681   2.192   0.817   3.271  0.3920 -0.1621 -0.5957
 6979SOL    HW227682   2.279   0.795   3.240 -0.0366  0.5023 -2.3970
 6979SOL    HW327683   2.167   0.743   3.326  1.1316 -1.5629 -2.0462
 6979SOL    MW427684   2.200   0.805   3.274  0.4331 -0.2593 -1.0247
 6980SOL     OW27685   1.670   5.786   3.428 -0.5107  0.4600 -0.2957
 6980SOL    HW227686   1.641   5.865   3.473 -0.9384 -0.4477  1.1066
 6980SOL    HW327687   1.623   5.788   3.344 -1.1105  1.2919  0.0436
 6980SOL    MW427688   1.660   5.797   3.423 -0.6462  0.4500 -0.0659
 6981SOL     OW27689   1.248   4.432   4.789 -0.3581 -0.1479 -0.0707
 6981SOL    HW227690   1.198   4.363   4.832 -0.4071  1.0899  1.9976
 6981SOL    HW327691   1.214   4.513   4.827  1.9064  0.8361 -0.0229
 6981SOL    MW427692   1.237   4.434   4.800 -0.0658  0.1453  0.2085
 6982SOL     OW27693   0.037   2.315   6.326  0.1212  0.1381  0.5499
 6982SOL    HW227694  -0.042   2.355   6.289  1.0045  1.8659  0.4554
 6982SOL    HW327695   0.065   2.253   6.259  1.2347  2.6288 -1.4646
 6982SOL    MW427696   0.030   2.312   6.312  0.3847  0.6947  0.2716
 6983SOL     OW27697   1.491   3.098   1.925  0.1169 -0.0048 -0.6388
 6983SOL    HW227698   1.561   3.160   1.946  0.9476 -1.1699  0.1982
 6983SOL    HW327699   1.494   3.034   1.996 -2.4164  0.3728 -0.0881
 6983SOL    MW427700   1.501   3.098   1.937 -0.1077 -0.1087 -0.4557
 6984SOL     OW27701   4.390   3.384   2.252 -0.1464  0.2390 -0.1498
 6984SOL    HW227702   4.321   3.352   2.309  0.2877  0.9620  0.8062
 6984SOL    HW327703   4.443   3.442   2.307  0.2185  1.0588 -1.3017
 6984SOL    MW427704   4.388   3.388   2.267 -0.0410  0.4426 -0.1757
 6985SOL     OW27705   0.218   1.661   0.020  0.4170  0.3208 -0.0917
 6985SOL    HW227706   0.163   1.608   0.079 -0.2983 -0.7177 -1.6231
 6985SOL    HW327707   0.208   1.750   0.053 -2.3543  0.2096 -0.3706
 6985SOL    MW427708   0.209   1.666   0.032 -0.0430  0.1691 -0.3305
 6986SOL     OW27709   6.072   2.466   4.739 -0.4029  0.6218  0.1953
 6986SOL    HW227710   6.139   2.526   4.773 -0.2694  0.3323  0.4442
 6986SOL    HW327711   5.989   2.504   4.769 -0.2078 -0.6428  2.5058
 6986SOL    MW427712   6.070   2.479   4.747 -0.3596  0.4168  0.5330
 6987SOL     OW27713   0.448   4.244   3.594 -0.0996 -0.4381  0.4190
 6987SOL    HW227714   0.492   4.297   3.660  1.6213 -1.4781  0.1744
 6987SOL    HW327715   0.380   4.301   3.559  0.4966  0.9512  1.4257
 6987SOL    MW427716   0.445   4.258   3.598  0.2061 -0.3920  0.5196
 6988SOL     OW27717   3.427   5.880   6.032  0.2845  0.2902 -0.0191
 6988SOL    HW227718   3.511   5.896   5.988  0.7238  0.7981  0.9859
 6988SOL    HW327719   3.381   5.964   6.027  1.0589  0.8985  1.9780
 6988SOL    MW427720   3.432   5.893   6.025  0.4447  0.4375  0.3770
 6989SOL     OW27721   0.053   0.286   5.693 -0.0298 -0.3961  0.0787
 6989SOL    HW227722   0.120   0.219   5.681 -1.2357 -1.6188 -0.0542
 6989SOL    HW327723  -0.013   0.244   5.749 -0.5991  0.8401  0.3697
 6989SOL    MW427724   0.053   0.272   5.699 -0.2640 -0.3943  0.0995
 6990SOL     OW27725   5.042   0.599   0.351 -0.8843 -0.0689 -0.3357
 6990SOL    HW227726   5.043   0.689   0.383 -1.1209  1.2198 -3.5168
 6990SOL    HW327727   5.121   0.592   0.297 -1.9663 -1.0208 -1.8762
 6990SOL    MW427728   5.052   0.610   0.348 -1.0583 -0.0245 -0.9586
 6991SOL     OW27729   0.411   5.369   0.157 -0.0427  0.7686 -0.1234
 6991SOL    HW227730   0.325   5.396   0.123 -0.6046 -0.7676  0.0004
 6991SOL    HW327731   0.391   5.321   0.237  0.8858 -0.1102 -0.3985
 6991SOL    MW427732   0.397   5.366   0.163  0.0057  0.4500 -0.1434
 6992SOL     OW27733   5.199   2.043   6.223  0.3617 -0.4548 -0.2094
 6992SOL    HW227734   5.162   2.025   6.137 -0.5125  0.4594 -0.0427
 6992SOL    HW327735   5.199   2.138   6.230  0.1954 -0.5236  0.9010
 6992SOL    MW427736   5.194   2.053   6.213  0.2245 -0.3432 -0.0409
 6993SOL     OW27737   2.391   0.775   2.351 -0.3046 -0.0097 -0.2022
 6993SOL    HW227738   2.331   0.847   2.370 -0.9253  0.1228 -2.3967
 6993SOL    HW327739   2.436   0.759   2.434  0.0540  3.0611  0.3387
 6993SOL    MW427740   2.389   0.783   2.364 -0.3392  0.4129 -0.4204
 6994SOL     OW27741   4.646   5.174   1.933  0.4957 -0.3782 -0.3077
 6994SOL    HW227742   4.659   5.080   1.926  2.3697 -0.1322 -0.6443
 6994SOL    HW327743   4.699   5.211   1.862 -0.2097  0.9339 -0.1858
 6994SOL    MW427744   4.654   5.167   1.923  0.6499 -0.1726 -0.3360
 6995SOL     OW27745   6.419   0.222   2.293 -0.2906 -0.0527 -0.0174
 6995SOL    HW227746   6.497   0.263   2.256  0.0915 -0.7296  0.0043
 6995SOL    HW327747   6.352   0.290   2.292 -0.1728  0.0804 -1.5612
 6995SOL    MW427748   6.420   0.236   2.288 -0.2246 -0.1244 -0.2182
 6996SOL     OW27749   2.823   5.026   5.642  0.2355 -0.4996 -0.0694
 6996SOL    HW227750   2.879   4.956   5.675 -1.2758 -1.2724  0.9736
 6996SOL    HW327751   2.872   5.106   5.659  0.2885 -0.9995  2.5595
 6996SOL    MW427752   2.837   5.027   5.649  0.0431 -0.6675  0.4151
 6997SOL     OW27753   6.211   6.136   5.753  0.0620  0.1131 -0.1416
 6997SOL    HW227754   6.168   6.202   5.699 -1.3464 -1.6104 -1.2359
 6997SOL    HW327755   6.296   6.122   5.711  1.1763  2.4347  1.1462
 6997SOL    MW427756   6.216   6.143   5.740  0.0232  0.1920 -0.1161
 6998SOL     OW27757   1.735   0.413   1.686 -0.0548  0.4608 -0.1962
 6998SOL    HW227758   1.750   0.379   1.774 -0.6300 -0.2710 -0.3599
 6998SOL    HW327759   1.664   0.476   1.697 -0.9793 -0.5238 -0.2895
 6998SOL    MW427760   1.728   0.417   1.699 -0.2526  0.2344 -0.2301
 6999SOL     OW27761   3.617   5.337   4.445 -0.0495  0.2619  0.1489
 6999SOL    HW227762   3.525   5.309   4.444  0.0659 -0.1088 -0.5063
 6999SOL    HW327763   3.667   5.256   4.442  0.2930  0.5048 -0.9583
 6999SOL    MW427764   3.611   5.323   4.445  0.0109  0.2451 -0.0836
 7000SOL     OW27765   2.860   1.851   1.417 -0.3975 -0.3792  0.0141
 7000SOL    HW227766   2.780   1.840   1.366 -0.7134  1.3258  0.0873
 7000SOL    HW327767   2.831   1.890   1.499  0.5851  1.1639 -0.3302
 7000SOL    MW427768   2.846   1.855   1.421 -0.3095  0.0493 -0.0217
 7001SOL     OW27769   1.905   2.991   3.919 -0.8285 -0.5657  0.1011
 7001SOL    HW227770   1.849   2.999   3.996 -0.3926  0.2121  0.3443
 7001SOL    HW327771   1.930   3.081   3.898  0.0903 -0.8828 -0.1810
 7001SOL    MW427772   1.901   3.004   3.926 -0.6498 -0.5049  0.0960
 7002SOL     OW27773   5.159   1.776   3.932  0.1280 -0.2042 -0.1026
 7002SOL    HW227774   5.206   1.704   3.890 -1.0276 -2.4922  2.2611
 7002SOL    HW327775   5.222   1.813   3.994  0.3429  0.0866 -0.4854
 7002SOL    MW427776   5.174   1.772   3.935  0.0039 -0.4677  0.1587
 7003SOL     OW27777   3.224   3.563   0.200 -0.0360  0.4024  0.0666
 7003SOL    HW227778   3.253   3.486   0.250  1.7946  0.1780 -1.2196
 7003SOL    HW327779   3.203   3.628   0.267  0.6187 -0.4666  1.1637
 7003SOL    MW427780   3.225   3.561   0.215  0.2919  0.2582  0.0417
 7004SOL     OW27781   6.140   1.476   2.049  0.4092  0.0810  0.4820
 7004SOL    HW227782   6.065   1.426   2.081 -0.4703 -0.0309 -1.5859
 7004SOL    HW327783   6.102   1.539   1.988  2.0499 -0.4206 -1.1347
 7004SOL    MW427784   6.125   1.478   2.045  0.5096  0.0001 -0.0041
 7005SOL     OW27785   2.910   5.933   3.320 -0.1170 -0.1842  0.1256
 7005SOL    HW227786   2.925   6.024   3.295 -1.2110  0.1759  0.7135
 7005SOL    HW327787   2.873   5.892   3.242 -0.0038 -0.0246 -0.0131
 7005SOL    MW427788   2.907   5.939   3.306 -0.2464 -0.1156  0.1849
 7006SOL     OW27789   4.122   0.461   5.776 -0.0413 -0.2809 -0.2060
 7006SOL    HW227790   4.112   0.388   5.837  0.8512 -0.9334 -0.8180
 7006SOL    HW327791   4.216   0.471   5.765 -0.1663 -0.5974 -1.9498
 7006SOL    MW427792   4.133   0.453   5.782  0.0599 -0.4087 -0.5168
 7007SOL     OW27793   2.355   2.279   3.086  0.0809  0.3425 -0.2238
 7007SOL    HW227794   2.261   2.268   3.098  0.2243  1.2261  2.3086
 7007SOL    HW327795   2.365   2.310   2.996 -2.0421  0.3192 -0.5029
 7007SOL    MW427796   2.344   2.282   3.076 -0.1803  0.4560  0.0735
 7008SOL     OW27797   3.104   5.172   1.247 -0.0500  0.9479 -0.1532
 7008SOL    HW227798   3.047   5.198   1.320 -3.2592 -3.5813 -0.6207
 7008SOL    HW327799   3.061   5.208   1.170 -1.1284 -0.5935 -0.3154
 7008SOL    MW427800   3.091   5.180   1.247 -0.6157  0.1470 -0.2363
 7009SOL     OW27801   3.876   5.521   0.500 -0.1937  0.3468 -0.0726
 7009SOL    HW227802   3.822   5.442   0.494  1.0589 -0.5607  0.2736
 7009SOL    HW327803   3.822   5.582   0.550 -0.3941 -1.0295  1.4959
 7009SOL    MW427804   3.862   5.519   0.506 -0.0549  0.0455  0.1801
 7010SOL     OW27805   4.612   5.258   2.216  0.2236  0.0551 -0.1359
 7010SOL    HW227806   4.616   5.265   2.121  1.8660  1.7452 -0.0028
 7010SOL    HW327807   4.540   5.317   2.241  0.6525  0.6442 -0.2686
 7010SOL    MW427808   4.603   5.267   2.207  0.4969  0.3558 -0.1358
 7011SOL     OW27809   2.430   1.117   1.862 -0.1378 -0.5334  0.1820
 7011SOL    HW227810   2.424   1.139   1.769 -0.8226  0.1917  0.3851
 7011SOL    HW327811   2.498   1.050   1.867 -0.2132 -0.6968 -0.8617
 7011SOL    MW427812   2.438   1.111   1.850 -0.2381 -0.4593  0.0711
 7012SOL     OW27813   6.201   2.716   2.063  0.0076  0.4415  0.4082
 7012SOL    HW227814   6.114   2.750   2.082 -0.1934 -0.5596  1.3577
 7012SOL    HW327815   6.186   2.625   2.038  0.7437  0.3744  0.1928
 7012SOL    MW427816   6.188   2.709   2.062  0.0782  0.3006  0.5050
 7013SOL     OW27817   2.816   4.046   3.478 -0.6474  0.3647  0.6007
 7013SOL    HW227818   2.739   4.012   3.434 -0.7888  0.9978  0.3491
 7013SOL    HW327819   2.802   4.026   3.571 -0.4016 -0.8618  0.3870
 7013SOL    MW427820   2.804   4.039   3.484 -0.6337  0.2864  0.5393
 7014SOL     OW27821   0.026   5.962   2.136  0.1070  1.1924  0.0926
 7014SOL    HW227822   0.072   5.974   2.052  0.8326  0.7280  0.4166
 7014SOL    HW327823  -0.028   5.884   2.123 -0.4394  1.6159 -0.2193
 7014SOL    MW427824   0.025   5.954   2.123  0.1307  1.1870  0.0942
 7015SOL     OW27825   3.222   0.845   6.399  0.3928  0.2957  0.2041
 7015SOL    HW227826   3.279   0.783   6.445  0.3973  0.0257 -0.1616
 7015SOL    HW327827   3.283   0.906   6.356  0.4047  0.1107 -0.0439
 7015SOL    MW427828   3.238   0.845   6.399  0.3950  0.2357  0.1231
 7016SOL     OW27829   6.254   4.732   5.751 -0.6583  0.4277 -0.1448
 7016SOL    HW227830   6.251   4.826   5.768 -2.1869  0.1729  1.2098
 7016SOL    HW327831   6.224   4.692   5.832 -0.2821 -1.2400 -0.7839
 7016SOL    MW427832   6.250   4.739   5.764 -0.8104  0.1741 -0.0504
 7017SOL     OW27833   5.936   5.655   0.446  0.0019 -0.3323  0.1058
 7017SOL    HW227834   6.024   5.646   0.484  0.2285  0.0742 -0.3105
 7017SOL    HW327835   5.892   5.718   0.503  0.5786  0.8263 -0.6791
 7017SOL    MW427836   5.942   5.662   0.458  0.1079 -0.1258 -0.0527
 7018SOL     OW27837   4.460   5.975   0.791 -0.0157 -0.4444  0.4297
 7018SOL    HW227838   4.421   6.054   0.752 -4.3073 -2.4001  0.2655
 7018SOL    HW327839   4.491   5.925   0.716  0.8179  0.1217  0.3808
 7018SOL    MW427840   4.459   5.979   0.776 -0.4719 -0.6277  0.4016
 7019SOL     OW27841   0.596   2.548   5.949 -0.4829 -0.1439  0.0422
 7019SOL    HW227842   0.554   2.547   5.863  2.6439  1.8048 -1.7428
 7019SOL    HW327843   0.535   2.596   6.006 -1.6267  0.6306 -1.7482
 7019SOL    MW427844   0.583   2.554   5.945 -0.2213  0.2154 -0.4295
 7020SOL     OW27845   3.968   5.673   4.388 -0.1844  0.4865 -0.5977
 7020SOL    HW227846   3.997   5.762   4.408  0.5684  0.1306 -0.0987
 7020SOL    HW327847   4.043   5.632   4.345 -0.3851 -0.0347 -0.4584
 7020SOL    MW427848   3.981   5.679   4.385 -0.1116  0.3708 -0.5135
 7021SOL     OW27849   5.298   2.439   3.884 -0.0366 -0.0684  0.2877
 7021SOL    HW227850   5.296   2.419   3.791 -0.0268 -0.3807  0.3513
 7021SOL    HW327851   5.295   2.534   3.889  0.6771 -0.0222 -0.0534
 7021SOL    MW427852   5.297   2.449   3.873  0.0588 -0.1035  0.2510
 7022SOL     OW27853   1.153   3.492   5.689  0.4384  0.0641  0.3952
 7022SOL    HW227854   1.060   3.512   5.701  0.2153 -1.1112  0.6960
 7022SOL    HW327855   1.168   3.502   5.595 -0.2804 -0.9160  0.1706
 7022SOL    MW427856   1.143   3.496   5.678  0.3141 -0.2203  0.4052
 7023SOL     OW27857   1.597   4.912   2.073  0.0910 -0.6115 -0.5917
 7023SOL    HW227858   1.502   4.923   2.082  0.1933 -1.0592  1.3983
 7023SOL    HW327859   1.629   4.999   2.049 -0.5816  0.1543  1.1433
 7023SOL    MW427860   1.589   4.925   2.071  0.0158 -0.5696 -0.1002
 7024SOL     OW27861   4.436   2.907   2.678  0.5521  0.7536 -0.8923
 7024SOL    HW227862   4.424   2.823   2.633 -0.3457  1.7037 -2.5590
 7024SOL    HW327863   4.438   2.972   2.607  3.0376  2.0064  0.2180
 7024SOL    MW427864   4.434   2.905   2.663  0.7616  1.0442 -0.9657
 7025SOL     OW27865   5.558   2.251   0.148  0.3845  0.5306 -0.1037
 7025SOL    HW227866   5.548   2.245   0.053  0.4612 -0.2788 -0.0675
 7025SOL    HW327867   5.522   2.169   0.182  1.5438  0.2260  0.4674
 7025SOL    MW427868   5.552   2.240   0.140  0.5476  0.3836 -0.0236
 7026SOL     OW27869   6.361   4.372   0.915  0.4852 -0.0999  0.2184
 7026SOL    HW227870   6.434   4.342   0.969 -0.8524 -2.4138  0.9087
 7026SOL    HW327871   6.335   4.294   0.865 -2.3257  0.2166  1.0027
 7026SOL    MW427872   6.367   4.357   0.915 -0.0622 -0.3635  0.4130
 7027SOL     OW27873   3.951   6.290   1.456  0.2444 -0.1229  0.4643
 7027SOL    HW227874   3.970   6.218   1.396  0.1469 -0.4210  0.7896
 7027SOL    HW327875   4.032   6.302   1.505  0.1986 -0.1387  0.5438
 7027SOL    MW427876   3.964   6.282   1.454  0.2255 -0.1643  0.5177
 7028SOL     OW27877   1.979   4.627   5.235  0.8338  0.1082  0.2822
 7028SOL    HW227878   1.994   4.584   5.319 -1.7473 -0.4498  0.5360
 7028SOL    HW327879   1.991   4.558   5.170 -0.8298 -0.4275  0.5071
 7028SOL    MW427880   1.983   4.612   5.237  0.2738 -0.0361  0.3453
 7029SOL     OW27881   5.043   6.187   5.888  0.0602 -0.2237 -0.1449
 7029SOL    HW227882   4.995   6.151   5.813 -0.2177 -1.1549  0.4512
 7029SOL    HW327883   5.071   6.274   5.860  0.2239 -0.6719 -1.4376
 7029SOL    MW427884   5.040   6.193   5.875  0.0451 -0.4057 -0.2368
 7030SOL     OW27885   1.299   2.047   5.086 -0.3433 -0.0188  0.0807
 7030SOL    HW227886   1.343   2.128   5.113  0.9619 -0.9412  0.8722
 7030SOL    HW327887   1.365   1.979   5.101 -1.3605 -1.2109 -0.7094
 7030SOL    MW427888   1.314   2.049   5.092 -0.3053 -0.2978  0.0809
 7031SOL     OW27889   4.239   5.029   1.720  0.3169  0.0368 -0.3136
 7031SOL    HW227890   4.219   5.043   1.628  0.0785 -1.7365 -0.5653
 7031SOL    HW327891   4.159   4.991   1.757  0.3553  0.8566  0.6636
 7031SOL    MW427892   4.226   5.026   1.713  0.2905 -0.0890 -0.2179
 7032SOL     OW27893   1.344   6.377   1.973  0.0333 -0.5614  0.1763
 7032SOL    HW227894   1.410   6.446   1.962  2.5140 -2.7821  0.1491
 7032SOL    HW327895   1.280   6.394   1.904  1.5848  0.6239 -1.0579
 7032SOL    MW427896   1.345   6.389   1.963  0.5653 -0.6980  0.0099
 7033SOL     OW27897   5.510   0.618   4.218 -0.4855  0.2768 -0.6232
 7033SOL    HW227898   5.478   0.688   4.275 -0.5955  0.3980 -0.8353
 7033SOL    HW327899   5.605   0.629   4.220 -0.4666  0.0524 -0.1700
 7033SOL    MW427900   5.518   0.629   4.226 -0.4975  0.2632 -0.5914
 7034SOL     OW27901   5.233   5.319   6.149  0.3408 -0.9283 -0.0254
 7034SOL    HW227902   5.235   5.321   6.244 -1.5485  0.1014  0.0427
 7034SOL    HW327903   5.140   5.316   6.127  0.7499 -1.9402 -1.8394
 7034SOL    MW427904   5.221   5.319   6.158  0.1455 -0.9260 -0.2558
 7035SOL     OW27905   1.585   4.913   4.098 -0.1413  0.0067  0.0724
 7035SOL    HW227906   1.555   4.935   4.010 -1.8400  1.3484  0.9185
 7035SOL    HW327907   1.541   4.831   4.118 -1.4016  0.7480  0.4112
 7035SOL    MW427908   1.575   4.905   4.089 -0.5317  0.2815  0.2287
 7036SOL     OW27909   1.114   3.231   2.885 -0.5464 -0.4688 -0.6266
 7036SOL    HW227910   1.031   3.273   2.906 -0.3078  0.0977 -0.7853
 7036SOL    HW327911   1.143   3.274   2.804 -0.8811 -1.7899 -1.4839
 7036SOL    MW427912   1.107   3.242   2.877 -0.5591 -0.5684 -0.7606
 7037SOL     OW27913   0.571   5.852   0.535 -0.1988  0.4148  0.2089
 7037SOL    HW227914   0.479   5.831   0.553  0.0049 -0.4200  0.3273
 7037SOL    HW327915   0.574   5.864   0.440 -0.9022  2.9617  0.4250
 7037SOL    MW427916   0.559   5.851   0.525 -0.2647  0.6407  0.2531
 7038SOL     OW27917   5.130   5.812   5.231  0.1709  0.0876 -0.7433
 7038SOL    HW227918   5.065   5.874   5.197  1.0421  0.2832 -2.1465
 7038SOL    HW327919   5.128   5.739   5.170  1.7335  0.4066 -1.2374
 7038SOL    MW427920   5.122   5.811   5.219  0.4920  0.1555 -0.9936
 7039SOL     OW27921   1.239   4.867   5.354 -0.6179  0.4310 -0.2337
 7039SOL    HW227922   1.289   4.915   5.289  0.9713  0.8340  1.2115
 7039SOL    HW327923   1.215   4.932   5.419 -0.5005 -0.2910  0.5576
 7039SOL    MW427924   1.242   4.882   5.354 -0.3927  0.3889  0.0614
 7040SOL     OW27925   2.068   6.175   0.485  0.4034  0.0388 -0.2868
 7040SOL    HW227926   2.074   6.239   0.556  2.2177 -0.0665 -0.2966
 7040SOL    HW327927   2.012   6.105   0.520 -0.5841  1.0339  0.1754
 7040SOL    MW427928   2.061   6.174   0.499  0.5125  0.1562 -0.2271
 7041SOL     OW27929   4.975   0.891   2.384 -0.5158  0.0102 -0.2313
 7041SOL    HW227930   5.051   0.938   2.416 -2.6015  2.8392  1.0471
 7041SOL    HW327931   5.007   0.803   2.364  2.6149  0.4758  2.0319
 7041SOL    MW427932   4.989   0.885   2.385 -0.3780  0.4449  0.2360
 7042SOL     OW27933   6.026   0.509   4.153 -0.1093 -0.0310 -0.1590
 7042SOL    HW227934   6.034   0.418   4.180  1.5752  0.5214  1.4354
 7042SOL    HW327935   6.117   0.540   4.146 -0.6416  1.7909  0.4321
 7042SOL    MW427936   6.039   0.501   4.156  0.0427  0.2823  0.1294
 7043SOL     OW27937   5.689   3.508   4.985  1.0111  0.0776  0.1978
 7043SOL    HW227938   5.750   3.569   5.027  0.3140  1.6498 -1.0203
 7043SOL    HW327939   5.668   3.444   5.054  0.3106  2.2584  2.1161
 7043SOL    MW427940   5.694   3.507   5.000  0.8267  0.5728  0.2902
 7044SOL     OW27941   1.537   4.988   2.381  0.3232  0.2727  0.0854
 7044SOL    HW227942   1.595   4.915   2.359 -0.2672 -0.2494  0.2159
 7044SOL    HW327943   1.559   5.056   2.318 -0.5539 -0.7798 -1.4595
 7044SOL    MW427944   1.547   4.987   2.369  0.1296  0.0649 -0.1012
 7045SOL     OW27945   2.401   4.830   1.121  0.2034  0.2802  0.0983
 7045SOL    HW227946   2.376   4.763   1.184  1.5374 -1.7467 -1.4307
 7045SOL    HW327947   2.335   4.825   1.052  0.8404 -0.1894 -0.4963
 7045SOL    MW427948   2.389   4.821   1.120  0.4635 -0.0492 -0.1819
 7046SOL     OW27949   0.732   0.627   3.001 -0.7441  0.4784 -0.5910
 7046SOL    HW227950   0.714   0.543   2.959  3.1497 -0.6929 -0.3706
 7046SOL    HW327951   0.719   0.692   2.933 -1.1074 -0.6325 -1.6113
 7046SOL    MW427952   0.728   0.625   2.987 -0.2783  0.1773 -0.6965
 7047SOL     OW27953   2.659   0.635   5.086  0.3915 -0.1687  0.4795
 7047SOL    HW227954   2.571   0.658   5.056  1.0536  1.5701 -0.2754
 7047SOL    HW327955   2.714   0.646   5.008  0.9885 -3.7731  0.1919
 7047SOL    MW427956   2.654   0.639   5.072  0.5576 -0.4148  0.3420
 7048SOL     OW27957   6.048   5.388   3.776  0.1165  0.0079  0.5567
 7048SOL    HW227958   6.012   5.463   3.822  0.3428  0.8758 -0.6297
 7048SOL    HW327959   6.104   5.426   3.708  2.5004 -1.2463  1.6922
 7048SOL    MW427960   6.051   5.403   3.773  0.4609 -0.0431  0.5500
 7049SOL     OW27961   2.860   5.406   1.874 -0.0900 -0.2443 -0.1214
 7049SOL    HW227962   2.912   5.430   1.798  0.5194 -0.4497  0.2228
 7049SOL    HW327963   2.809   5.330   1.845 -1.1737  0.7442 -0.8568
 7049SOL    MW427964   2.860   5.399   1.860 -0.1525 -0.1410 -0.1730
 7050SOL     OW27965   5.156   3.665   0.157 -0.5075  0.0191 -0.1934
 7050SOL    HW227966   5.124   3.752   0.184 -0.9279 -0.1270 -0.2205
 7050SOL    HW327967   5.184   3.624   0.238  3.4078  1.6185 -0.4916
 7050SOL    MW427968   5.155   3.671   0.171 -0.0464  0.2108 -0.2363
 7051SOL     OW27969   4.684   2.430   2.347 -0.3784  0.1325 -0.2756
 7051SOL    HW227970   4.734   2.358   2.310 -1.2311 -0.5597 -0.0881
 7051SOL    HW327971   4.630   2.390   2.416 -0.6145  0.9963  0.0583
 7051SOL    MW427972   4.684   2.416   2.351 -0.5221  0.1551 -0.2068
 7052SOL     OW27973   2.874   3.442   5.132  0.0553  0.4338 -0.0531
 7052SOL    HW227974   2.851   3.443   5.225  0.1315  0.2926 -0.0319
 7052SOL    HW327975   2.968   3.460   5.131 -0.0754  1.1520 -0.1476
 7052SOL    MW427976   2.884   3.445   5.144  0.0481  0.5099 -0.0627
 7053SOL     OW27977   4.839   3.062   1.971  0.4299  0.4712 -0.3481
 7053SOL    HW227978   4.865   3.110   2.050 -1.0416  1.2449 -0.2936
 7053SOL    HW327979   4.759   3.106   1.942  0.5524 -0.2552 -1.8737
 7053SOL    MW427980   4.832   3.074   1.978  0.2519  0.4774 -0.5422
 7054SOL     OW27981   5.207   3.202   2.141 -0.0850 -0.0190  0.5045
 7054SOL    HW227982   5.267   3.264   2.100  0.2880  0.1051  1.2217
 7054SOL    HW327983   5.249   3.178   2.223  0.5669 -2.4516 -0.4360
 7054SOL    MW427984   5.220   3.207   2.146  0.0502 -0.3236  0.4750
 7055SOL     OW27985   6.224   2.471   0.319 -0.3613  0.3440 -0.1325
 7055SOL    HW227986   6.131   2.483   0.339 -0.7120 -1.5151 -0.4693
 7055SOL    HW327987   6.224   2.421   0.238  0.8749 -1.5489  0.9706
 7055SOL    MW427988   6.212   2.466   0.311 -0.2445 -0.1510 -0.0314
 7056SOL     OW27989   1.315   2.287   5.404  0.2907  0.2961 -0.2566
 7056SOL    HW227990   1.311   2.288   5.309 -2.1292 -0.4344 -0.2154
 7056SOL    HW327991   1.409   2.296   5.424  1.1351 -1.8585 -2.7321
 7056SOL    MW427992   1.327   2.288   5.394  0.0829 -0.0846 -0.5778
 7057SOL     OW27993   4.775   6.029   4.914 -0.7109  0.2035  0.0364
 7057SOL    HW227994   4.707   5.974   4.953 -0.0229  0.8574  2.3113
 7057SOL    HW327995   4.750   6.119   4.937 -0.0102  0.5903 -0.6590
 7057SOL    MW427996   4.763   6.034   4.922 -0.5277  0.3408  0.2448
 7058SOL     OW27997   0.270   0.706   0.323  0.0979  0.5413 -0.0095
 7058SOL    HW227998   0.188   0.736   0.361  0.0226  0.1667  0.1266
 7058SOL    HW327999   0.268   0.738   0.233  0.0534  1.0087  0.1584
 7058SOL    MW428000   0.259   0.714   0.316  0.0821  0.5536  0.0306
 7059SOL     OW28001   6.361   5.499   5.886 -0.3616  1.1093  0.2144
 7059SOL    HW228002   6.349   5.580   5.936  1.3908  0.8524  1.1493
 7059SOL    HW328003   6.456   5.484   5.889 -0.5232 -0.3316 -0.9852
 7059SOL    MW428004   6.372   5.508   5.893 -0.1517  0.8853  0.1795
 7060SOL     OW28005   5.179   4.638   0.456 -0.2339 -0.3397 -0.3267
 7060SOL    HW228006   5.164   4.636   0.550  1.9857 -0.6588  0.0587
 7060SOL    HW328007   5.110   4.582   0.420 -0.8300 -0.5864  1.1314
 7060SOL    MW428008   5.168   4.630   0.463 -0.0197 -0.4143 -0.0835
 7061SOL     OW28009   2.220   2.341   0.855  0.0570 -0.3598 -0.0067
 7061SOL    HW228010   2.137   2.316   0.896  0.3425 -0.2740  0.6398
 7061SOL    HW328011   2.194   2.393   0.779 -0.4921 -0.8798 -0.1763
 7061SOL    MW428012   2.206   2.345   0.851  0.0222 -0.4171  0.0562
 7062SOL     OW28013   4.485   3.324   4.566 -0.5964  0.4536 -0.1539
 7062SOL    HW228014   4.503   3.411   4.531 -0.8787  0.9276  0.8507
 7062SOL    HW328015   4.408   3.294   4.517 -1.1832  1.2347  0.2648
 7062SOL    MW428016   4.477   3.332   4.555 -0.7111  0.6192  0.0339
 7063SOL     OW28017   1.643   6.177   0.290 -0.1284 -0.3697  0.1579
 7063SOL    HW228018   1.719   6.184   0.232  0.2889 -0.8983  0.6260
 7063SOL    HW328019   1.646   6.087   0.323  0.8673  0.4725  2.6380
 7063SOL    MW428020   1.653   6.166   0.287  0.0580 -0.3283  0.5469
 7064SOL     OW28021   6.238   5.825   1.429 -0.2609 -0.0257  0.6460
 7064SOL    HW228022   6.160   5.877   1.449 -0.4068 -0.0112  0.0579
 7064SOL    HW328023   6.260   5.849   1.339  1.1565  0.8931  1.2038
 7064SOL    MW428024   6.230   5.835   1.420 -0.0932  0.0974  0.6420
 7065SOL     OW28025   5.509   6.392   5.088 -0.3821 -0.2538  0.6538
 7065SOL    HW228026   5.451   6.331   5.043  1.2962 -1.0560 -0.5228
 7065SOL    HW328027   5.586   6.340   5.110  0.7950  1.2552  0.2780
 7065SOL    MW428028   5.512   6.377   5.085 -0.0054 -0.1606  0.4490
 7066SOL     OW28029   4.080   1.126   0.086 -0.0289 -0.4384 -0.4685
 7066SOL    HW228030   4.045   1.215   0.091 -1.6164 -1.0524  0.2350
 7066SOL    HW328031   4.091   1.109  -0.007 -0.3388  0.2698 -0.6368
 7066SOL    MW428032   4.077   1.136   0.075 -0.2792 -0.4260 -0.3979
 7067SOL     OW28033   0.559   4.872   2.053 -0.3546  0.4260 -0.6575
 7067SOL    HW228034   0.553   4.801   2.117 -2.7057 -0.2957 -1.5570
 7067SOL    HW328035   0.496   4.937   2.084  1.3818  1.9649 -0.1441
 7067SOL    MW428036   0.550   4.872   2.066 -0.4357  0.5338 -0.7085
 7068SOL     OW28037   3.812   2.749   0.468 -0.0061 -0.2486  0.7374
 7068SOL    HW228038   3.853   2.786   0.546  2.8168  0.1893 -0.8210
 7068SOL    HW328039   3.850   2.662   0.459 -0.4437 -0.3710 -0.0241
 7068SOL    MW428040   3.822   2.743   0.477  0.3086 -0.2070  0.4314
 7069SOL     OW28041   6.398   5.911   1.666 -0.0688 -0.0433  0.5629
 7069SOL    HW228042   6.349   5.973   1.721 -0.0452  0.9828 -0.5471
 7069SOL    HW328043   6.344   5.899   1.588  0.0079 -1.3107  0.6802
 7069SOL    MW428044   6.384   5.917   1.663 -0.0556 -0.0751  0.4319
 7070SOL     OW28045   1.636   6.391   4.678 -0.4444 -0.3072 -0.5509
 7070SOL    HW228046   1.653   6.324   4.612  0.2778 -0.3775 -0.3016
 7070SOL    HW328047   1.583   6.456   4.632  0.4850 -0.0947 -1.3708
 7070SOL    MW428048   1.632   6.391   4.663 -0.2265 -0.2885 -0.6262
 7071SOL     OW28049   5.517   5.095   1.150  0.1788  0.2014  0.0021
 7071SOL    HW228050   5.581   5.166   1.144  1.1216 -0.7205 -2.9245
 7071SOL    HW328051   5.449   5.119   1.087 -1.1174 -0.0288  1.2703
 7071SOL    MW428052   5.517   5.107   1.141  0.1321  0.0494 -0.2167
 7072SOL     OW28053   0.971   3.462   4.993 -0.0013  0.6008 -0.0669
 7072SOL    HW228054   0.888   3.426   5.023 -1.1140  2.2382 -1.0278
 7072SOL    HW328055   0.958   3.477   4.899  1.5485  0.4775 -0.3297
 7072SOL    MW428056   0.958   3.459   4.985  0.0564  0.8005 -0.2284
 7073SOL     OW28057   3.887   2.421   0.741 -0.0510 -0.1963  0.1526
 7073SOL    HW228058   3.800   2.459   0.725 -0.9196 -2.4540 -0.9646
 7073SOL    HW328059   3.928   2.419   0.654  0.5630 -0.3890  0.4449
 7073SOL    MW428060   3.881   2.425   0.727 -0.0846 -0.5196  0.0438
 7074SOL     OW28061   6.063   4.363   3.298  0.3991 -0.0364 -0.2949
 7074SOL    HW228062   6.018   4.397   3.221  0.4019  1.6853  0.4152
 7074SOL    HW328063   6.023   4.410   3.372  0.5950 -1.4259  0.7390
 7074SOL    MW428064   6.052   4.373   3.298  0.4254  0.0074 -0.0648
 7075SOL     OW28065   0.750   2.152   0.172  0.3504  0.0372  0.7994
 7075SOL    HW228066   0.688   2.087   0.140 -0.9796  0.7265  1.8613
 7075SOL    HW328067   0.770   2.206   0.095 -1.3110  0.5184  0.6739
 7075SOL    MW428068   0.745   2.151   0.157 -0.0443  0.1916  0.9230
 7076SOL     OW28069   2.967   2.760   3.507  0.2111  0.2299 -0.2930
 7076SOL    HW228070   2.989   2.787   3.596 -1.0307 -1.8453  0.7034
 7076SOL    HW328071   3.000   2.671   3.499 -2.5069 -0.8561 -0.7014
 7076SOL    MW428072   2.974   2.752   3.518 -0.3113 -0.1872 -0.2154
 7077SOL     OW28073   3.221   4.107   2.196  0.1072  0.0896 -0.1273
 7077SOL    HW228074   3.199   4.181   2.138  0.1132 -0.2916 -0.6272
 7077SOL    HW328075   3.137   4.069   2.219  0.1280 -0.0096 -0.2170
 7077SOL    MW428076   3.207   4.112   2.191  0.1107  0.0262 -0.2051
 7078SOL     OW28077   1.096   0.230   5.447 -0.2201  0.0989 -0.2026
 7078SOL    HW228078   1.143   0.171   5.506 -1.3741 -0.8550 -0.2115
 7078SOL    HW328079   1.165   0.268   5.392  0.6911 -0.1864  0.7225
 7078SOL    MW428080   1.112   0.227   5.447 -0.2521 -0.0646 -0.0817
 7079SOL     OW28081   4.543   2.087   6.056  0.2014 -0.1913  0.0854
 7079SOL    HW228082   4.599   2.141   6.000  2.4083  0.0838  2.3359
 7079SOL    HW328083   4.573   1.997   6.040  1.5916 -0.0222  1.4776
 7079SOL    MW428084   4.555   2.082   6.047  0.6760 -0.1327  0.5660
 7080SOL     OW28085   2.350   1.848   0.736  0.0346 -0.4894  0.2084
 7080SOL    HW228086   2.290   1.879   0.804 -0.1349 -0.5728  0.0987
 7080SOL    HW328087   2.297   1.787   0.684  0.4930 -1.3461  0.7212
 7080SOL    MW428088   2.335   1.844   0.738  0.0727 -0.6135  0.2616
 7081SOL     OW28089   5.694   1.425   5.955 -0.1959  0.3399 -0.0171
 7081SOL    HW228090   5.634   1.455   5.886  1.1075  0.9025 -0.9398
 7081SOL    HW328091   5.676   1.484   6.028 -0.9079  0.3753 -0.2089
 7081SOL    MW428092   5.683   1.437   5.955 -0.1178  0.4188 -0.1642
 7082SOL     OW28093   6.133   1.220   4.510 -0.3585 -0.3457  0.1601
 7082SOL    HW228094   6.062   1.256   4.563 -0.1661 -0.3642  0.4317
 7082SOL    HW328095   6.142   1.280   4.437  0.7899  0.8609  1.2398
 7082SOL    MW428096   6.125   1.232   4.508 -0.1816 -0.1890  0.3384
 7083SOL     OW28097   2.850   0.964   4.882  0.8354 -0.0661  0.7056
 7083SOL    HW228098   2.806   0.974   4.967  2.9246  0.9669  1.7415
 7083SOL    HW328099   2.882   1.052   4.862 -0.6881  0.0184 -1.8497
 7083SOL    MW428100   2.848   0.977   4.891  0.9100  0.0813  0.5051
 7084SOL     OW28101   3.267   5.288   4.202  0.5750 -0.2693  0.3228
 7084SOL    HW228102   3.280   5.378   4.172 -1.0611  0.2756  1.1329
 7084SOL    HW328103   3.324   5.280   4.279  1.3944 -0.2418 -0.2601
 7084SOL    MW428104   3.277   5.299   4.209  0.4673 -0.1938  0.3527
 7085SOL     OW28105   6.077   4.435   4.743  0.5558  0.4617 -0.2460
 7085SOL    HW228106   6.064   4.504   4.678  0.9995  0.2109 -0.6045
 7085SOL    HW328107   6.172   4.429   4.753  0.5332 -0.2425 -0.3779
 7085SOL    MW428108   6.088   4.443   4.736  0.6113  0.3357 -0.3107
 7086SOL     OW28109   3.933   4.512   3.203 -0.5372 -0.1609 -0.6030
 7086SOL    HW228110   4.020   4.482   3.229  0.8287  0.0456 -4.2654
 7086SOL    HW328111   3.935   4.607   3.217 -0.2816 -0.1917 -0.4320
 7086SOL    MW428112   3.945   4.520   3.208 -0.3233 -0.1377 -1.0637
 7087SOL     OW28113   2.464   5.717   5.990 -0.0044 -0.1993  0.3915
 7087SOL    HW228114   2.511   5.742   6.069  0.0024 -0.0213  0.3299
 7087SOL    HW328115   2.387   5.669   6.021 -1.0750  1.5788  0.5900
 7087SOL    MW428116   2.460   5.714   6.004 -0.1448  0.0588  0.4096
 7088SOL     OW28117   6.267   5.841   4.927 -0.0318 -0.0576 -0.1200
 7088SOL    HW228118   6.232   5.783   4.995  0.4297 -1.4646 -1.0290
 7088SOL    HW328119   6.295   5.781   4.857  1.4418  1.1981 -0.6589
 7088SOL    MW428120   6.266   5.825   4.927  0.2235 -0.0776 -0.3110
 7089SOL     OW28121   3.879   1.941   5.371 -0.4139 -0.1208 -0.5974
 7089SOL    HW228122   3.974   1.936   5.361 -0.3773 -2.0571  0.1528
 7089SOL    HW328123   3.845   1.922   5.283 -0.1452  1.2504 -1.0248
 7089SOL    MW428124   3.887   1.938   5.358 -0.3736 -0.1954 -0.5548
 7090SOL     OW28125   0.680   5.584   1.458 -0.3148  0.8752  0.0693
 7090SOL    HW228126   0.620   5.610   1.529  0.1794 -0.2503  0.9319
 7090SOL    HW328127   0.637   5.509   1.417  0.2777  0.3281  0.4221
 7090SOL    MW428128   0.666   5.578   1.462 -0.1714  0.6545  0.2296
 7091SOL     OW28129   6.047   1.482   3.603  0.2955 -0.1637  0.0447
 7091SOL    HW228130   5.989   1.525   3.541  1.5990  1.7759  0.0654
 7091SOL    HW328131   5.991   1.420   3.650 -1.4034  0.5852 -0.8960
 7091SOL    MW428132   6.032   1.479   3.601  0.2433  0.1910 -0.0767
 7092SOL     OW28133   6.095   1.706   1.186  0.1727 -0.7074 -0.7945
 7092SOL    HW228134   6.103   1.645   1.113  0.4968 -2.6909  0.8374
 7092SOL    HW328135   6.183   1.713   1.221 -0.3741 -1.6932  0.8656
 7092SOL    MW428136   6.108   1.699   1.181  0.1433 -1.0992 -0.3602
 7093SOL     OW28137   5.318   5.586   2.451  0.7780 -0.0512 -0.3789
 7093SOL    HW228138   5.304   5.506   2.400  1.5810  0.3215 -1.2075
 7093SOL    HW328139   5.278   5.655   2.399  1.6304  0.3390 -0.5368
 7093SOL    MW428140   5.311   5.585   2.438  0.9964  0.0494 -0.5091
 7094SOL     OW28141   0.283   3.720   3.851  0.3145 -0.1207  0.2677
 7094SOL    HW228142   0.246   3.633   3.864  1.1862 -0.3995  0.9030
 7094SOL    HW328143   0.349   3.708   3.783  0.0704  0.1538 -0.0239
 7094SOL    MW428144   0.287   3.707   3.843  0.3973 -0.1213  0.3130
 7095SOL     OW28145   1.666   5.550   4.630  0.0083  0.1983 -0.2497
 7095SOL    HW228146   1.691   5.584   4.544 -0.8881  0.2828 -0.4818
 7095SOL    HW328147   1.741   5.496   4.657 -0.0098 -0.4323 -1.4042
 7095SOL    MW428148   1.679   5.548   4.622 -0.1124  0.1263 -0.4327
 7096SOL     OW28149   2.755   0.735   0.473 -0.3610  0.0019 -0.1087
 7096SOL    HW228150   2.688   0.668   0.462 -1.9652  1.3238  1.0472
 7096SOL    HW328151   2.831   0.702   0.425 -1.9005 -1.4470 -1.6861
 7096SOL    MW428152   2.756   0.722   0.465 -0.7758 -0.0148 -0.1643
 7097SOL     OW28153   4.375   0.134   3.602 -0.3527 -0.5529 -0.2002
 7097SOL    HW228154   4.289   0.092   3.604  0.1684 -1.6359 -0.2920
 7097SOL    HW328155   4.402   0.129   3.511 -0.0950 -0.4100 -0.1311
 7097SOL    MW428156   4.367   0.128   3.590 -0.2500 -0.6769 -0.2032
 7098SOL     OW28157   2.653   4.779   5.719 -0.4557  0.1337 -0.2200
 7098SOL    HW228158   2.578   4.748   5.769  0.1841 -1.0796  0.0200
 7098SOL    HW328159   2.640   4.874   5.713 -2.8893 -0.2207 -1.6513
 7098SOL    MW428160   2.642   4.788   5.725 -0.6923 -0.0731 -0.3771
 7099SOL     OW28161   5.189   6.171   3.750  0.0855  0.1492  0.0374
 7099SOL    HW228162   5.101   6.144   3.776  0.0379 -0.7383 -1.0006
 7099SOL    HW328163   5.235   6.186   3.833 -1.5630  2.4933  0.6093
 7099SOL    MW428164   5.184   6.170   3.765 -0.1383  0.3414 -0.0241
 7100SOL     OW28165   5.987   0.706   1.828 -0.3292  1.0612  0.7246
 7100SOL    HW228166   6.076   0.672   1.835 -1.0738 -0.9166  1.3063
 7100SOL    HW328167   5.957   0.675   1.742 -1.1598 -0.2134  1.4361
 7100SOL    MW428168   5.994   0.697   1.817 -0.5370  0.6321  0.8953
 7101SOL     OW28169   3.900   3.105   4.203  0.2984 -0.3345 -0.5104
 7101SOL    HW228170   3.943   3.119   4.119  0.3891 -1.6148 -0.7038
 7101SOL    HW328171   3.827   3.167   4.204 -0.2287 -0.8917 -1.9298
 7101SOL    MW428172   3.896   3.115   4.192  0.2408 -0.5769 -0.7232
 7102SOL     OW28173   0.188   4.875   4.486  0.4316 -0.2864  0.0199
 7102SOL    HW228174   0.179   4.886   4.392  2.9570 -0.2658 -0.2676
 7102SOL    HW328175   0.168   4.961   4.522  0.5700  0.0061 -0.5968
 7102SOL    MW428176   0.184   4.888   4.479  0.7830 -0.2451 -0.0994
 7103SOL     OW28177   1.743   0.799   2.856 -0.0749  0.6630 -0.2088
 7103SOL    HW228178   1.819   0.855   2.839 -0.4871  0.8667 -1.4244
 7103SOL    HW328179   1.715   0.824   2.944  2.3886 -0.7406  1.1057
 7103SOL    MW428180   1.749   0.809   2.866  0.1957  0.5047 -0.1957
 7104SOL     OW28181   3.402   2.623   3.147 -0.1440 -0.2867  0.1612
 7104SOL    HW228182   3.336   2.564   3.110  2.0955 -1.4894 -2.2527
 7104SOL    HW328183   3.381   2.709   3.111 -0.1214 -0.7620 -1.0211
 7104SOL    MW428184   3.391   2.627   3.138  0.1544 -0.5081 -0.3133
 7105SOL     OW28185   6.426   3.492   1.240  0.5474  0.2034 -0.1370
 7105SOL    HW228186   6.512   3.479   1.280  0.7843  0.4386 -0.5506
 7105SOL    HW328187   6.439   3.468   1.148  0.5383  1.5273 -0.5106
 7105SOL    MW428188   6.439   3.487   1.233  0.5775  0.4091 -0.2409
 7106SOL     OW28189   5.093   2.585   6.386  0.0470  0.7821  0.1760
 7106SOL    HW228190   5.015   2.595   6.332 -1.7725  0.1217  2.5066
 7106SOL    HW328191   5.111   2.673   6.418 -0.6738  0.7275  0.7746
 7106SOL    MW428192   5.085   2.598   6.383 -0.2881  0.6877  0.5624
 7107SOL     OW28193   5.020   4.961   1.776 -0.0344  0.4047  0.5635
 7107SOL    HW228194   5.032   4.893   1.842  0.3752 -1.2951 -1.1914
 7107SOL    HW328195   4.951   4.927   1.719 -0.1706  1.7044 -0.0850
 7107SOL    MW428196   5.012   4.948   1.777  0.0017  0.3519  0.2464
 7108SOL     OW28197   4.000   2.277   3.221 -0.1912 -0.3067 -0.3639
 7108SOL    HW228198   4.009   2.272   3.316 -1.1258 -0.5536 -0.2761
 7108SOL    HW328199   4.088   2.294   3.189  0.2245 -0.7592  0.5143
 7108SOL    MW428200   4.012   2.278   3.229 -0.2597 -0.3989 -0.2365
 7109SOL     OW28201   1.815   5.604   4.383 -0.4144 -0.0506 -0.3789
 7109SOL    HW228202   1.905   5.638   4.387 -0.8257  1.0385 -0.2766
 7109SOL    HW328203   1.817   5.543   4.309  0.4332 -0.1156 -0.3206
 7109SOL    MW428204   1.827   5.600   4.374 -0.3568  0.0845 -0.3577
 7110SOL     OW28205   1.360   0.606   6.417 -0.4212  0.1979 -0.2373
 7110SOL    HW228206   1.336   0.658   6.494 -1.7675  0.7572 -1.0038
 7110SOL    HW328207   1.311   0.525   6.426 -1.2513  0.6082 -0.9027
 7110SOL    MW428208   1.351   0.602   6.428 -0.7084  0.3258 -0.4263
 7111SOL     OW28209   1.559   0.965   5.714  0.2588  0.5243 -0.3920
 7111SOL    HW228210   1.579   1.037   5.773 -1.5758  0.6434  0.1483
 7111SOL    HW328211   1.557   0.888   5.771  0.3462  0.3406 -0.6356
 7111SOL    MW428212   1.562   0.964   5.729  0.0283  0.5158 -0.3529
 7112SOL     OW28213   0.680   6.068   2.518 -0.1767 -0.1048  0.4076
 7112SOL    HW228214   0.596   6.088   2.560 -1.4779 -0.6264 -1.7592
 7112SOL    HW328215   0.715   6.153   2.492 -0.0307  0.1153  1.3034
 7112SOL    MW428216   0.673   6.082   2.520 -0.3291 -0.1446  0.2399
 7113SOL     OW28217   4.192   0.986   4.444 -0.4008  0.1472 -0.1532
 7113SOL    HW228218   4.259   1.053   4.427 -0.9318  0.3544 -1.5092
 7113SOL    HW328219   4.111   1.035   4.456 -0.1491  0.0125  2.9514
 7113SOL    MW428220   4.190   1.001   4.443 -0.4377  0.1568  0.0775
 7114SOL     OW28221   6.229   1.950   4.420 -0.4575  0.1095 -0.2111
 7114SOL    HW228222   6.214   2.033   4.375 -0.7865  0.2319  0.1236
 7114SOL    HW328223   6.267   1.975   4.504 -0.6333 -0.0744 -0.0763
 7114SOL    MW428224   6.232   1.964   4.425 -0.5241  0.1014 -0.1492
 7115SOL     OW28225   5.341   5.581   5.428  0.1386  0.0387 -0.1708
 7115SOL    HW228226   5.275   5.647   5.450  1.7610  1.5583  0.4333
 7115SOL    HW328227   5.313   5.547   5.343 -2.4150 -0.7786  0.8972
 7115SOL    MW428228   5.328   5.586   5.419  0.0158  0.1314  0.0498
 7116SOL     OW28229   4.958   5.400   6.099 -0.0416  0.6369 -0.7202
 7116SOL    HW228230   4.890   5.460   6.128  0.7643  0.7118  1.1348
 7116SOL    HW328231   4.910   5.322   6.070 -0.9280  0.3611  1.3333
 7116SOL    MW428232   4.943   5.397   6.099 -0.0522  0.6104 -0.2045
 7117SOL     OW28233   0.331   1.978   4.117  0.6878  0.2955 -0.0253
 7117SOL    HW228234   0.332   2.074   4.121 -0.8793  0.3517 -0.4013
 7117SOL    HW328235   0.421   1.954   4.098  1.5995  1.5786  2.2523
 7117SOL    MW428236   0.343   1.987   4.115  0.6013  0.4722  0.2256
 7118SOL     OW28237   1.712   4.827   0.328 -0.5437 -0.4238 -0.4521
 7118SOL    HW228238   1.729   4.811   0.421  0.9142  0.9994 -0.4304
 7118SOL    HW328239   1.684   4.919   0.324 -0.5547 -0.4582 -1.4111
 7118SOL    MW428240   1.711   4.837   0.340 -0.3528 -0.2405 -0.5758
 7119SOL     OW28241   2.182   5.936   3.524  0.4004 -0.7032  0.0836
 7119SOL    HW228242   2.090   5.949   3.499  0.3722  1.1970  0.9782
 7119SOL    HW328243   2.232   5.970   3.450  0.3874 -1.5014 -0.2957
 7119SOL    MW428244   2.177   5.943   3.511  0.3950 -0.5578  0.1516
 7120SOL     OW28245   1.384   2.632   2.962 -0.5816 -0.3546  0.4666
 7120SOL    HW228246   1.297   2.648   2.926  0.0565 -1.5316 -1.8069
 7120SOL    HW328247   1.410   2.547   2.926  2.4825  1.0194 -0.9793
 7120SOL    MW428248   1.376   2.623   2.952 -0.0931 -0.3286 -0.0241
 7121SOL     OW28249   1.422   5.769   1.138  0.0932 -0.3394 -0.5799
 7121SOL    HW228250   1.359   5.713   1.092  0.0584 -1.3461  0.6250
 7121SOL    HW328251   1.493   5.709   1.163  1.1328  0.6068 -1.1658
 7121SOL    MW428252   1.423   5.753   1.135  0.2258 -0.3474 -0.4983
 7122SOL     OW28253   0.553   1.524   3.102 -0.3089 -0.3357 -0.1858
 7122SOL    HW228254   0.542   1.449   3.044 -0.4416 -1.1975  0.9176
 7122SOL    HW328255   0.468   1.568   3.100 -0.5973 -0.8718  0.0413
 7122SOL    MW428256   0.541   1.520   3.094 -0.3645 -0.5201 -0.0103
 7123SOL     OW28257   3.713   0.846   1.519  0.3502 -0.3659  0.0523
 7123SOL    HW228258   3.703   0.941   1.518  2.4121 -0.0804 -1.2842
 7123SOL    HW328259   3.727   0.823   1.427 -0.5979 -2.0419  0.3024
 7123SOL    MW428260   3.714   0.856   1.506  0.4971 -0.5494 -0.0910
 7124SOL     OW28261   0.176   1.041   4.079 -0.2737 -0.3292 -0.8599
 7124SOL    HW228262   0.122   1.117   4.102 -0.3527 -0.3500 -0.9716
 7124SOL    HW328263   0.152   0.974   4.144  0.1894 -0.0862 -0.4315
 7124SOL    MW428264   0.166   1.042   4.091 -0.2230 -0.2999 -0.8181
 7125SOL     OW28265   5.944   1.763   1.708 -0.0273  0.2687 -0.8938
 7125SOL    HW228266   5.882   1.697   1.739  0.3863  0.0473 -0.5210
 7125SOL    HW328267   5.925   1.771   1.614 -0.7871  0.3986 -0.7347
 7125SOL    MW428268   5.933   1.755   1.700 -0.0730  0.2566 -0.8236
 7126SOL     OW28269   0.425   6.206   4.269  0.6563  0.3370  0.1282
 7126SOL    HW228270   0.440   6.175   4.359  0.0757 -0.8940 -0.1832
 7126SOL    HW328271   0.346   6.260   4.275  1.3541  1.3603  0.5687
 7126SOL    MW428272   0.417   6.209   4.282  0.6718  0.3096  0.1452
 7127SOL     OW28273   4.232   0.112   4.273  0.5865 -0.5899  0.0646
 7127SOL    HW228274   4.291   0.139   4.202  3.4029 -0.3123  2.3012
 7127SOL    HW328275   4.226   0.188   4.330 -2.1268 -0.5971 -0.0824
 7127SOL    MW428276   4.239   0.125   4.271  0.6001 -0.5542  0.3403
 7128SOL     OW28277   1.417   2.745   5.411  0.3593  0.2945  0.1443
 7128SOL    HW228278   1.382   2.812   5.353  2.5329  1.2875 -0.1227
 7128SOL    HW328279   1.432   2.790   5.494 -0.4368 -0.5089  0.7497
 7128SOL    MW428280   1.415   2.760   5.414  0.5410  0.3195  0.1889
 7129SOL     OW28281   2.497   2.754   4.530  0.5137  0.1470 -0.0787
 7129SOL    HW228282   2.510   2.678   4.587 -1.9948  1.5546  2.6657
 7129SOL    HW328283   2.579   2.804   4.537  1.2235 -1.0145  0.1399
 7129SOL    MW428284   2.510   2.751   4.539  0.2764  0.1795  0.3123
 7130SOL     OW28285   4.433   2.405   0.783  0.2796  0.3664  0.2333
 7130SOL    HW228286   4.422   2.387   0.877  1.6482  1.1753  0.5744
 7130SOL    HW328287   4.389   2.489   0.770 -0.3700  0.0020  0.0241
 7130SOL    MW428288   4.426   2.414   0.794  0.3745  0.4250  0.2507
 7131SOL     OW28289   3.579   1.705   2.949 -0.9309  0.0529  0.1017
 7131SOL    HW228290   3.627   1.753   3.016 -0.0458 -2.0205  1.0362
 7131SOL    HW328291   3.498   1.677   2.993 -2.1439  1.8646 -0.8771
 7131SOL    MW428292   3.574   1.707   2.964 -0.9742  0.0184  0.0958
 7132SOL     OW28293   2.268   5.677   0.123 -0.2120  0.4245  0.7431
 7132SOL    HW228294   2.299   5.586   0.124 -0.4395  0.3411  0.5537
 7132SOL    HW328295   2.193   5.677   0.183 -0.7340  0.2880  0.1069
 7132SOL    MW428296   2.262   5.665   0.131 -0.3109  0.3955  0.6341
 7133SOL     OW28297   1.843   4.189   2.520 -0.0348  0.4441  0.1405
 7133SOL    HW228298   1.822   4.111   2.572  1.1448 -1.0982 -1.5353
 7133SOL    HW328299   1.918   4.228   2.564 -0.4323  0.4436  0.8209
 7133SOL    MW428300   1.850   4.184   2.532  0.0684  0.2406  0.0092
 7134SOL     OW28301   2.783   3.843   1.339  0.0719  0.0006 -0.2425
 7134SOL    HW228302   2.722   3.823   1.268 -0.8558  0.1292  0.4995
 7134SOL    HW328303   2.870   3.837   1.298 -0.2989 -2.2558 -0.8500
 7134SOL    MW428304   2.787   3.839   1.324 -0.0994 -0.2802 -0.2247
 7135SOL     OW28305   5.975   5.228   5.866 -0.6224 -0.4550  0.0259
 7135SOL    HW228306   5.931   5.187   5.940 -0.1974 -0.6073  0.1943
 7135SOL    HW328307   5.939   5.317   5.863  0.1707 -0.0759  1.1102
 7135SOL    MW428308   5.964   5.234   5.875 -0.4617 -0.4250  0.1912
 7136SOL     OW28309   4.231   2.116   4.576  0.1143  0.0001 -0.0552
 7136SOL    HW228310   4.201   2.135   4.664  0.5389 -0.2936  0.1581
 7136SOL    HW328311   4.231   2.020   4.571 -1.0786  0.0111 -0.7862
 7136SOL    MW428312   4.227   2.106   4.587  0.0129 -0.0372 -0.1235
 7137SOL     OW28313   1.617   2.664   4.997 -0.0148  0.0805  0.2847
 7137SOL    HW228314   1.558   2.650   4.923  1.0783  0.0646 -0.6176
 7137SOL    HW328315   1.702   2.684   4.957  0.0740  2.6136  1.5141
 7137SOL    MW428316   1.621   2.665   4.982  0.1412  0.4126  0.3278
 7138SOL     OW28317   5.696   1.613   0.491 -0.2419 -0.4887  0.1739
 7138SOL    HW228318   5.786   1.594   0.517  0.5090  1.0106 -1.1321
 7138SOL    HW328319   5.660   1.665   0.563 -0.1491 -1.2428  0.7782
 7138SOL    MW428320   5.703   1.617   0.504 -0.1306 -0.3903  0.0813
 7139SOL     OW28321   6.056   0.149   4.802 -0.0490  0.0112 -0.2735
 7139SOL    HW228322   5.997   0.186   4.868  0.5020 -0.0102  0.2364
 7139SOL    HW328323   6.048   0.054   4.814  0.0213  0.0066 -0.2651
 7139SOL    MW428324   6.047   0.141   4.812  0.0330  0.0077 -0.2051
 7140SOL     OW28325   4.236   5.974   2.164 -0.0082  0.6141  0.7091
 7140SOL    HW228326   4.245   5.978   2.259  1.2303  0.7940  0.6112
 7140SOL    HW328327   4.241   6.066   2.136 -0.0574  0.5400  0.4567
 7140SOL    MW428328   4.238   5.987   2.172  0.1487  0.6281  0.6629
 7141SOL     OW28329   4.554   4.348   0.451  0.2129 -0.2260 -0.4288
 7141SOL    HW228330   4.522   4.334   0.361  0.7415 -0.0155 -0.6495
 7141SOL    HW328331   4.476   4.335   0.505 -0.1334 -0.2679 -0.9230
 7141SOL    MW428332   4.539   4.344   0.446  0.2369 -0.2038 -0.5231
 7142SOL     OW28333   1.306   4.538   5.623 -0.3154 -0.2145 -0.4969
 7142SOL    HW228334   1.340   4.585   5.547  0.6336 -1.3910 -0.8376
 7142SOL    HW328335   1.235   4.593   5.656 -0.1014  0.7905 -1.6484
 7142SOL    MW428336   1.301   4.551   5.617 -0.1620 -0.2371 -0.6938
 7143SOL     OW28337   1.942   3.067   2.432  0.5813  0.5744  0.6416
 7143SOL    HW228338   1.887   3.129   2.480  0.3236  0.3212  0.6761
 7143SOL    HW328339   1.962   3.112   2.350 -1.6583 -0.2368 -0.4361
 7143SOL    MW428340   1.938   3.082   2.427  0.2518  0.4339  0.5039
 7144SOL     OW28341   6.290   0.777   4.808 -0.0289  0.2775 -0.1999
 7144SOL    HW228342   6.383   0.753   4.814 -0.5576 -2.5706 -1.6105
 7144SOL    HW328343   6.248   0.727   4.878 -0.6230  0.6735 -0.2754
 7144SOL    MW428344   6.297   0.767   4.818 -0.1770 -0.0460 -0.3960
 7145SOL     OW28345   5.093   2.598   1.911  0.2916 -0.4707 -0.3978
 7145SOL    HW228346   5.161   2.657   1.876 -0.0182  1.3983  1.8928
 7145SOL    HW328347   5.024   2.657   1.942 -1.6201 -2.2589 -1.0425
 7145SOL    MW428348   5.093   2.614   1.910 -0.0015 -0.4601 -0.1806
 7146SOL     OW28349   3.096   1.621   4.260 -0.1142 -0.1710  0.1234
 7146SOL    HW228350   3.107   1.609   4.354  0.3474 -2.7067 -0.1892
 7146SOL    HW328351   3.024   1.684   4.253 -0.9709 -0.8150  2.1779
 7146SOL    MW428352   3.088   1.628   4.272 -0.1663 -0.5905  0.3532
 7147SOL     OW28353   1.402   1.304   0.849  0.1334 -0.8352  0.1491
 7147SOL    HW228354   1.317   1.348   0.838  1.0988  0.9768 -0.4851
 7147SOL    HW328355   1.424   1.318   0.941  1.0725  1.3531 -0.3473
 7147SOL    MW428356   1.393   1.312   0.859  0.3847 -0.3074 -0.0001
 7148SOL     OW28357   6.179   2.545   4.308  0.3695 -0.7819  0.0785
 7148SOL    HW228358   6.130   2.476   4.354  0.7671 -1.4020 -0.4136
 7148SOL    HW328359   6.258   2.557   4.361 -0.2321  0.1311  0.8044
 7148SOL    MW428360   6.183   2.537   4.321  0.3426 -0.7432  0.1093
 7149SOL     OW28361   4.724   2.076   1.430  0.3017 -1.0774  0.1716
 7149SOL    HW228362   4.777   2.049   1.505  1.7952 -1.3260 -0.9222
 7149SOL    HW328363   4.730   2.171   1.429  0.3835 -1.0810  0.3032
 7149SOL    MW428364   4.732   2.085   1.440  0.5095 -1.1107  0.0446
 7150SOL     OW28365   2.181   5.050   1.027 -0.2645  0.0484  0.0787
 7150SOL    HW228366   2.214   5.034   0.939  0.7529 -0.7178  0.5723
 7150SOL    HW328367   2.219   5.134   1.052  0.0537 -0.0807  0.0435
 7150SOL    MW428368   2.190   5.059   1.019 -0.0883 -0.0697  0.1391
 7151SOL     OW28369   2.966   4.033   2.215  0.5473  0.0314  0.3190
 7151SOL    HW228370   2.927   4.092   2.279  0.5387 -0.4032  0.7185
 7151SOL    HW328371   2.952   3.946   2.251  0.0158 -0.2583 -0.5595
 7151SOL    MW428372   2.959   4.029   2.228  0.4760 -0.0641  0.2558
 7152SOL     OW28373   5.371   5.177   3.917 -0.3931  0.4685 -0.3131
 7152SOL    HW228374   5.339   5.094   3.881 -0.9620  0.2031  0.7536
 7152SOL    HW328375   5.454   5.192   3.872 -0.3882 -0.5686 -0.6800
 7152SOL    MW428376   5.378   5.168   3.906 -0.4675  0.2966 -0.2208
 7153SOL     OW28377   2.747   6.218   5.558 -0.2627  0.1121  0.0561
 7153SOL    HW228378   2.744   6.309   5.530 -0.6289  0.1187  0.1148
 7153SOL    HW328379   2.772   6.170   5.479  1.7852  0.4403  0.4469
 7153SOL    MW428380   2.750   6.224   5.544 -0.0408  0.1563  0.1154
 7154SOL     OW28381   2.819   1.603   6.290  0.1518 -0.2031 -0.4482
 7154SOL    HW228382   2.726   1.583   6.274 -0.3847  1.6930  0.0428
 7154SOL    HW328383   2.831   1.691   6.255  1.6432 -0.2064  0.0012
 7154SOL    MW428384   2.808   1.612   6.283  0.2778  0.0466 -0.3241
 7155SOL     OW28385   3.631   0.776   6.007  0.5770 -0.8491 -0.2545
 7155SOL    HW228386   3.596   0.761   5.919  0.1049 -2.2461  0.1364
 7155SOL    HW328387   3.701   0.840   5.995 -1.8543  1.8582 -1.1160
 7155SOL    MW428388   3.635   0.782   5.994  0.1940 -0.6762 -0.3166
 7156SOL     OW28389   4.939   4.730   0.113  0.0861  1.3344  0.4680
 7156SOL    HW228390   4.900   4.804   0.159  1.9541  1.0754  2.6180
 7156SOL    HW328391   4.889   4.654   0.144 -1.3226  1.5303 -1.1533
 7156SOL    MW428392   4.927   4.729   0.123  0.1467  1.3261  0.5377
 7157SOL     OW28393   4.908   0.269   0.875  0.0036 -0.3487 -0.0882
 7157SOL    HW228394   4.964   0.233   0.805 -1.6104 -0.1892 -1.5484
 7157SOL    HW328395   4.863   0.342   0.833  0.3823  0.9818  1.7311
 7157SOL    MW428396   4.910   0.274   0.860 -0.1593 -0.1521 -0.0408
 7158SOL     OW28397   0.397   3.134   4.755 -0.2515 -0.6301  0.1592
 7158SOL    HW228398   0.336   3.144   4.682 -1.6653 -2.1926  1.0530
 7158SOL    HW328399   0.405   3.222   4.791  0.9280  0.2968 -2.1523
 7158SOL    MW428400   0.390   3.147   4.750 -0.2824 -0.7140 -0.0279
 7159SOL     OW28401   3.553   5.653   3.528 -0.3642 -0.5915 -0.1994
 7159SOL    HW228402   3.568   5.742   3.559  0.8434 -1.2562  1.2132
 7159SOL    HW328403   3.637   5.625   3.493 -0.5268 -1.4519  0.0876
 7159SOL    MW428404   3.566   5.661   3.527 -0.2263 -0.7927  0.0248
 7160SOL     OW28405   1.326   3.404   4.036  0.0805  0.0884 -0.1995
 7160SOL    HW228406   1.250   3.358   4.072  3.1333 -3.4885  2.5033
 7160SOL    HW328407   1.343   3.362   3.952  0.2310 -0.5451  0.1472
 7160SOL    MW428408   1.318   3.393   4.030  0.5031 -0.4671  0.2028
 7161SOL     OW28409   2.475   6.090   3.672 -0.4714  0.1881 -0.6146
 7161SOL    HW228410   2.412   6.035   3.719 -1.3444  1.1976 -0.5790
 7161SOL    HW328411   2.539   6.028   3.638 -0.5410 -0.7033  0.7849
 7161SOL    MW428412   2.475   6.074   3.674 -0.5958  0.2037 -0.4252
 7162SOL     OW28413   4.495   5.339   3.074  0.9503  0.6819  0.0939
 7162SOL    HW228414   4.464   5.291   3.151  1.6416  0.9824  0.5655
 7162SOL    HW328415   4.432   5.410   3.062  0.5534  0.3291  0.0649
 7162SOL    MW428416   4.483   5.342   3.082  0.9892  0.6750  0.1523
 7163SOL     OW28417   3.712   3.973   6.327  0.2478 -0.5889  0.3271
 7163SOL    HW228418   3.806   3.986   6.316  0.0330  2.2468  1.1612
 7163SOL    HW328419   3.704   3.933   6.414  0.6414  0.0613  0.6698
 7163SOL    MW428420   3.724   3.969   6.337  0.2714 -0.1290  0.4824
 7164SOL     OW28421   1.798   0.721   4.797  0.0282  0.3358  0.4119
 7164SOL    HW228422   1.760   0.734   4.883 -0.3445  1.0550  0.1492
 7164SOL    HW328423   1.781   0.629   4.777 -0.4059  0.3133  0.8611
 7164SOL    MW428424   1.790   0.711   4.805 -0.0783  0.4278  0.4365
 7165SOL     OW28425   0.778   5.894   4.681 -0.4249 -0.6335  0.4581
 7165SOL    HW228426   0.836   5.845   4.623  0.4222 -1.1278  1.6677
 7165SOL    HW328427   0.702   5.838   4.693 -0.0503 -1.0746  0.7899
 7165SOL    MW428428   0.776   5.880   4.675 -0.2637 -0.7569  0.6615
 7166SOL     OW28429   1.538   4.579   0.413 -0.0335  0.7484  0.7453
 7166SOL    HW228430   1.455   4.598   0.368  0.8948  0.9980 -0.9166
 7166SOL    HW328431   1.600   4.561   0.343  0.7351 -2.0478  2.0288
 7166SOL    MW428432   1.535   4.579   0.398  0.1904  0.4124  0.6954
 7167SOL     OW28433   5.273   5.811   5.812 -0.2626 -0.1129  0.4762
 7167SOL    HW228434   5.353   5.764   5.789 -2.3925 -3.1276 -1.4592
 7167SOL    HW328435   5.276   5.891   5.759 -0.0774 -1.8818 -2.3738
 7167SOL    MW428436   5.284   5.816   5.802 -0.5192 -0.7440 -0.1552
 7168SOL     OW28437   2.644   5.837   3.622 -0.0095  0.7239  0.0364
 7168SOL    HW228438   2.726   5.877   3.652  1.3576 -1.5727 -0.4348
 7168SOL    HW328439   2.640   5.754   3.668 -0.0151 -0.9996 -2.8354
 7168SOL    MW428440   2.654   5.832   3.632  0.1701  0.1935 -0.4047
 7169SOL     OW28441   6.098   1.997   1.139  0.2561 -0.4353 -0.1369
 7169SOL    HW228442   6.099   1.907   1.106 -0.2503  0.1505 -1.8762
 7169SOL    HW328443   6.152   2.046   1.077 -1.0950  0.8057 -0.3901
 7169SOL    MW428444   6.105   1.991   1.126  0.0110 -0.1942 -0.3998
 7170SOL     OW28445   3.189   3.570   6.204  0.1226 -0.3470 -0.5340
 7170SOL    HW228446   3.196   3.608   6.116  1.2469 -0.1360 -0.3659
 7170SOL    HW328447   3.107   3.521   6.202  0.6409 -1.2194 -2.0385
 7170SOL    MW428448   3.179   3.569   6.192  0.3393 -0.4342 -0.7103
 7171SOL     OW28449   2.359   5.264   5.136  0.2306  0.5424  0.4831
 7171SOL    HW228450   2.454   5.278   5.144  0.3149  0.4470 -0.2632
 7171SOL    HW328451   2.351   5.182   5.088 -0.2394  0.2101  1.1235
 7171SOL    MW428452   2.371   5.255   5.131  0.1797  0.4860  0.4692
 7172SOL     OW28453   0.643   2.091   3.750 -0.3265 -0.2681 -0.3135
 7172SOL    HW228454   0.647   2.178   3.711  2.0083 -0.5241 -0.7648
 7172SOL    HW328455   0.685   2.033   3.686  0.3370 -1.3090  1.0095
 7172SOL    MW428456   0.649   2.095   3.736  0.0691 -0.4392 -0.1985
 7173SOL     OW28457   1.625   0.299   6.423  0.7575  0.0168 -0.2287
 7173SOL    HW228458   1.627   0.379   6.475 -1.4468 -0.9577  1.5147
 7173SOL    HW328459   1.612   0.329   6.333 -0.2447  1.6267  0.4108
 7173SOL    MW428460   1.623   0.313   6.418  0.3344  0.1007  0.0857
 7174SOL     OW28461   1.204   0.389   1.312  0.3200 -0.8358  0.2039
 7174SOL    HW228462   1.151   0.309   1.318 -0.2815 -0.7153 -2.2858
 7174SOL    HW328463   1.264   0.384   1.386 -0.2985 -3.1596  0.6216
 7174SOL    MW428464   1.205   0.378   1.322  0.1590 -1.1265 -0.0695
 7175SOL     OW28465   5.609   1.069   1.397 -0.2279 -0.6245 -0.6320
 7175SOL    HW228466   5.555   1.058   1.475 -0.2245  0.1359 -0.5182
 7175SOL    HW328467   5.556   1.033   1.326 -1.5818  1.4663 -0.7871
 7175SOL    MW428468   5.595   1.063   1.398 -0.4061 -0.2483 -0.6374
 7176SOL     OW28469   4.616   2.549   5.826  0.0153 -0.6149  0.3103
 7176SOL    HW228470   4.685   2.599   5.782 -0.0028 -0.6535  0.2372
 7176SOL    HW328471   4.664   2.483   5.876  0.0239 -0.7887  0.0768
 7176SOL    MW428472   4.632   2.547   5.827  0.0140 -0.6429  0.2699
 7177SOL     OW28473   2.778   1.193   5.217  0.1650  0.1070  0.0720
 7177SOL    HW228474   2.814   1.109   5.246 -0.2624  0.2726  1.1047
 7177SOL    HW328475   2.708   1.168   5.156  0.2398 -0.2845  0.1401
 7177SOL    MW428476   2.773   1.178   5.213  0.1185  0.0772  0.2172
 7178SOL     OW28477   0.746   4.468   1.562 -0.4054  0.4394  0.1249
 7178SOL    HW228478   0.782   4.426   1.483 -3.0098  0.4049 -1.1550
 7178SOL    HW328479   0.752   4.562   1.544 -1.3612  0.4280 -0.3558
 7178SOL    MW428480   0.751   4.475   1.549 -0.8752  0.4334 -0.1074
 7179SOL     OW28481   5.233   4.679   0.047 -0.0736  0.7912 -0.2053
 7179SOL    HW228482   5.148   4.679   0.091  0.9389 -0.9119  1.9967
 7179SOL    HW328483   5.262   4.770   0.052 -0.6414  0.9256  1.4700
 7179SOL    MW428484   5.226   4.691   0.054 -0.0149  0.5843  0.3062
 7180SOL     OW28485   0.270   0.809   5.629  0.1515  0.4776 -0.0369
 7180SOL    HW228486   0.348   0.826   5.576 -0.0987  0.6800 -0.3400
 7180SOL    HW328487   0.201   0.791   5.566 -0.1691  0.8015  0.2181
 7180SOL    MW428488   0.271   0.809   5.614  0.0762  0.5471 -0.0433
 7181SOL     OW28489   2.249   2.756   6.123  0.1080 -0.1290 -0.5168
 7181SOL    HW228490   2.178   2.806   6.082  0.1579  0.7796  0.4774
 7181SOL    HW328491   2.329   2.791   6.085  0.2171  1.4426  1.0620
 7181SOL    MW428492   2.250   2.767   6.112  0.1290  0.1982 -0.1773
 7182SOL     OW28493   3.027   6.276   2.418 -0.1071 -0.0025  0.9379
 7182SOL    HW228494   3.083   6.270   2.495 -1.5282 -0.5344  1.9650
 7182SOL    HW328495   2.983   6.191   2.413  0.8117 -0.4388 -1.1706
 7182SOL    MW428496   3.029   6.264   2.427 -0.1734 -0.1302  0.7952
 7183SOL     OW28497   4.957   0.340   3.453 -0.1466  0.5936  0.1702
 7183SOL    HW228498   4.926   0.394   3.381 -1.6344  0.9151  0.9923
 7183SOL    HW328499   4.970   0.253   3.415 -2.6049  0.3095 -0.2004
 7183SOL    MW428500   4.954   0.335   3.439 -0.6672  0.5985  0.2298
 7184SOL     OW28501   2.715   5.875   5.161 -0.0376  0.2839 -0.3071
 7184SOL    HW228502   2.686   5.785   5.174 -0.2605  0.4207  0.1985
 7184SOL    HW328503   2.742   5.879   5.069 -2.2117  0.3048 -1.0018
 7184SOL    MW428504   2.714   5.864   5.151 -0.3539  0.3047 -0.3321
 7185SOL     OW28505   5.891   1.304   3.449  0.5859  0.4073 -0.4870
 7185SOL    HW228506   5.908   1.213   3.424 -1.1550  0.3619 -1.6507
 7185SOL    HW328507   5.855   1.298   3.538 -0.8211 -0.2073 -1.0692
 7185SOL    MW428508   5.889   1.291   3.458  0.1706  0.3202 -0.7174
 7186SOL     OW28509   2.373   3.123   2.905  0.1076 -0.2971  0.1105
 7186SOL    HW228510   2.464   3.152   2.900 -0.3730  1.4573  0.6195
 7186SOL    HW328511   2.377   3.029   2.922  1.8047 -0.2994 -0.2038
 7186SOL    MW428512   2.385   3.115   2.906  0.2681 -0.0660  0.1362
 7187SOL     OW28513   0.420   6.390   2.786 -0.2448  0.1540  0.6446
 7187SOL    HW228514   0.433   6.466   2.842 -0.0642 -0.3765  1.3298
 7187SOL    HW328515   0.389   6.427   2.703  1.0710  1.0978  0.5255
 7187SOL    MW428516   0.418   6.405   2.782 -0.0473  0.2085  0.7193
 7188SOL     OW28517   5.732   6.097   6.314  0.5037  0.1004 -0.7061
 7188SOL    HW228518   5.646   6.056   6.318  0.3259  0.4334 -1.0796
 7188SOL    HW328519   5.729   6.166   6.381  0.5368  0.0128 -0.6136
 7188SOL    MW428520   5.721   6.101   6.324  0.4846  0.1328 -0.7432
 7189SOL     OW28521   2.787   5.073   4.954  0.6010 -0.4789  0.1055
 7189SOL    HW228522   2.867   5.019   4.955  1.2187  0.3521 -1.2060
 7189SOL    HW328523   2.771   5.090   4.862  0.5435  1.7330  0.4706
 7189SOL    MW428524   2.796   5.068   4.942  0.6749 -0.0774 -0.0194
 7190SOL     OW28525   5.019   4.332   3.662 -0.3340 -0.2618 -0.5050
 7190SOL    HW228526   5.039   4.240   3.645  2.4804  0.2983 -0.7472
 7190SOL    HW328527   5.063   4.380   3.592  1.5568  1.4434  1.6700
 7190SOL    MW428528   5.028   4.326   3.651  0.2868  0.0371 -0.2500
 7191SOL     OW28529   1.826   4.609   5.675 -0.0492 -0.1888 -0.1963
 7191SOL    HW228530   1.744   4.652   5.653  1.0587  1.3539 -1.5316
 7191SOL    HW328531   1.866   4.666   5.741  0.9386  0.3236 -1.1920
 7191SOL    MW428532   1.821   4.622   5.681  0.2273  0.0824 -0.5039
 7192SOL     OW28533   0.605   2.409   1.846  0.2010 -0.0314  0.5115
 7192SOL    HW228534   0.691   2.379   1.876 -0.3827 -0.9923  1.2679
 7192SOL    HW328535   0.552   2.415   1.926 -0.9949 -1.3161 -0.1439
 7192SOL    MW428536   0.609   2.406   1.860 -0.0338 -0.3277  0.5248
 7193SOL     OW28537   4.761   2.408   2.797  0.3833 -0.3714  0.4967
 7193SOL    HW228538   4.747   2.503   2.798  0.4714 -0.3601  0.6980
 7193SOL    HW328539   4.848   2.396   2.835  0.4492 -0.5213  0.3006
 7193SOL    MW428540   4.771   2.419   2.802  0.4036 -0.3897  0.4974
 7194SOL     OW28541   0.603   1.485   4.425 -0.0458  0.3715 -0.2698
 7194SOL    HW228542   0.696   1.485   4.446  0.0286  0.4996 -0.5937
 7194SOL    HW328543   0.596   1.431   4.347 -0.3219 -0.1137  0.0895
 7194SOL    MW428544   0.614   1.478   4.418 -0.0724  0.3244 -0.2652
 7195SOL     OW28545   4.997   0.532   5.856 -0.7740 -0.2121 -0.3059
 7195SOL    HW228546   4.921   0.494   5.813 -1.2953  0.6374 -0.1650
 7195SOL    HW328547   5.020   0.608   5.802 -0.9505  0.4042  0.4557
 7195SOL    MW428548   4.990   0.537   5.844 -0.8660 -0.0187 -0.1868
 7196SOL     OW28549   1.048   4.282   4.382  0.4648  0.0822  0.0275
 7196SOL    HW228550   1.008   4.309   4.465 -0.3789  1.6341 -0.8483
 7196SOL    HW328551   1.105   4.209   4.406 -1.7274 -1.2467  1.5666
 7196SOL    MW428552   1.050   4.276   4.396  0.0642  0.1116  0.1150
 7197SOL     OW28553   4.379   0.083   4.718  0.0280 -0.2585  0.1806
 7197SOL    HW228554   4.444   0.075   4.648  0.1767 -0.0771  0.2982
 7197SOL    HW328555   4.427   0.121   4.791 -0.3356  0.3819  0.0930
 7197SOL    MW428556   4.394   0.087   4.718 -0.0004 -0.1501  0.1846
 7198SOL     OW28557   0.038   1.896   3.980 -0.0264  0.6494  0.5495
 7198SOL    HW228558   0.040   1.973   4.037  0.6153 -0.0496  1.5071
 7198SOL    HW328559   0.009   1.825   4.038 -0.1679  0.0825 -0.2084
 7198SOL    MW428560   0.034   1.897   3.995  0.0396  0.4824  0.5759
 7199SOL     OW28561   3.624   4.769   2.035 -0.5141  0.4163 -0.8246
 7199SOL    HW228562   3.671   4.706   2.090 -3.5924 -1.8107 -0.4897
 7199SOL    HW328563   3.569   4.818   2.096  2.1481  4.0023 -1.0144
 7199SOL    MW428564   3.623   4.767   2.050 -0.5690  0.5956 -0.8054
 7200SOL     OW28565   5.188   3.537   5.649  0.0960 -0.0983 -0.2675
 7200SOL    HW228566   5.273   3.580   5.657  0.5330 -1.0634  0.4051
 7200SOL    HW328567   5.209   3.444   5.640 -0.9274 -0.5202  1.3438
 7200SOL    MW428568   5.202   3.530   5.649  0.0186 -0.2813  0.0338
 7201SOL     OW28569   3.282   3.871   5.905 -0.3833 -0.6154 -0.3584
 7201SOL    HW228570   3.374   3.883   5.880 -0.5288 -0.5779 -0.8971
 7201SOL    HW328571   3.239   3.951   5.875 -1.2513 -2.0569 -3.3840
 7201SOL    MW428572   3.288   3.883   5.897 -0.5170 -0.8007 -0.8287
 7202SOL     OW28573   3.563   1.434   2.709  0.4575 -0.5473 -1.1087
 7202SOL    HW228574   3.569   1.385   2.791  0.1937 -0.8848 -1.2907
 7202SOL    HW328575   3.590   1.523   2.733  0.8148 -0.7484 -0.7536
 7202SOL    MW428576   3.567   1.439   2.723  0.4698 -0.6184 -1.0858
 7203SOL     OW28577   1.570   1.455   5.782  0.6491 -0.1684  0.1727
 7203SOL    HW228578   1.580   1.370   5.826  3.1773 -1.0982 -1.9453
 7203SOL    HW328579   1.583   1.519   5.852  2.8835 -1.5570  1.1518
 7203SOL    MW428580   1.573   1.452   5.797  1.2775 -0.4743  0.0225
 7204SOL     OW28581   0.920   5.549   5.392 -0.2260  0.3591 -0.0458
 7204SOL    HW228582   0.888   5.556   5.302 -1.8472  0.7992  0.5345
 7204SOL    HW328583   0.987   5.618   5.399  0.7699 -0.4380 -1.2185
 7204SOL    MW428584   0.925   5.559   5.381 -0.3085  0.3120 -0.1239
 7205SOL     OW28585   5.515   1.929   4.409  0.1057 -0.1971  0.3126
 7205SOL    HW228586   5.567   1.888   4.478 -1.6564 -1.4879  0.9353
 7205SOL    HW328587   5.483   2.010   4.449 -0.4039 -0.6398  0.8340
 7205SOL    MW428588   5.517   1.934   4.424 -0.1941 -0.4258  0.4636
 7206SOL     OW28589   2.898   5.056   2.009 -0.1591  0.4455 -0.1027
 7206SOL    HW228590   2.992   5.046   1.992 -0.0768 -0.0777  0.5944
 7206SOL    HW328591   2.865   5.107   1.935  0.6570  0.5499 -0.4038
 7206SOL    MW428592   2.906   5.062   1.997 -0.0406  0.3903 -0.0504
 7207SOL     OW28593   4.827   5.844   1.874 -0.1222 -0.1072 -0.1967
 7207SOL    HW228594   4.737   5.861   1.848  0.3667 -0.1475 -2.0886
 7207SOL    HW328595   4.832   5.748   1.882 -0.4676 -0.0524  0.9322
 7207SOL    MW428596   4.816   5.833   1.872 -0.1033 -0.1053 -0.2973
 7208SOL     OW28597   2.790   5.616   0.229  0.2751 -0.6725  0.2382
 7208SOL    HW228598   2.765   5.686   0.168  1.3184 -1.9195 -1.7186
 7208SOL    HW328599   2.885   5.612   0.224  0.2244 -2.5185 -0.0624
 7208SOL    MW428600   2.799   5.625   0.220  0.4060 -1.0806 -0.0596
 7209SOL     OW28601   4.908   2.347   6.084 -0.1606 -0.1212  0.1253
 7209SOL    HW228602   4.932   2.402   6.009 -0.6820 -0.9546 -0.6724
 7209SOL    HW328603   4.878   2.409   6.150 -0.9380  0.5495 -0.8219
 7209SOL    MW428604   4.907   2.363   6.083 -0.3319 -0.1427 -0.1049
 7210SOL     OW28605   3.172   3.990   2.894  0.5327 -0.1021  0.1555
 7210SOL    HW228606   3.097   3.959   2.844  1.6531  0.6528 -2.1008
 7210SOL    HW328607   3.231   3.915   2.898  0.3938 -0.1965  0.4646
 7210SOL    MW428608   3.170   3.976   2.888  0.6622 -0.0150 -0.1014
 7211SOL     OW28609   2.077   4.025   2.226  0.4806  0.0003  0.1313
 7211SOL    HW228610   2.068   4.120   2.236 -0.0102  0.0578 -0.7663
 7211SOL    HW328611   2.125   4.014   2.143 -1.4380 -0.5579 -0.9720
 7211SOL    MW428612   2.082   4.036   2.216  0.1627 -0.0658 -0.1327
 7212SOL     OW28613   2.321   6.229   3.480 -0.5582 -0.2719  0.3264
 7212SOL    HW228614   2.370   6.197   3.556  1.7821  3.8074  0.8177
 7212SOL    HW328615   2.257   6.291   3.517 -0.5186  0.5349 -0.9009
 7212SOL    MW428616   2.319   6.233   3.495 -0.2442  0.3728  0.2293
 7213SOL     OW28617   6.284   4.180   1.242 -0.4920  0.3119  0.5139
 7213SOL    HW228618   6.325   4.257   1.281 -1.4589  0.0356  2.1533
 7213SOL    HW328619   6.349   4.148   1.180  1.0186  0.9506  1.6928
 7213SOL    MW428620   6.298   4.186   1.239 -0.4203  0.3597  0.8857
 7214SOL     OW28621   1.676   1.049   1.031  0.3359  0.4268 -0.2201
 7214SOL    HW228622   1.671   1.079   0.940 -0.8182 -0.9227 -0.6261
 7214SOL    HW328623   1.681   1.130   1.082 -2.0489  1.3550 -1.3034
 7214SOL    MW428624   1.676   1.064   1.025 -0.1310  0.3712 -0.4166
 7215SOL     OW28625   5.004   1.810   1.115  0.1715 -0.0081 -0.4661
 7215SOL    HW228626   5.006   1.818   1.210  0.6786  1.5615 -0.5745
 7215SOL    HW328627   5.095   1.824   1.089 -0.1856  0.9932 -1.2510
 7215SOL    MW428628   5.017   1.813   1.124  0.1913  0.3311 -0.5839
 7216SOL     OW28629   2.594   2.027   0.207 -0.4688 -0.0626  0.0527
 7216SOL    HW228630   2.528   1.958   0.215  0.2380 -0.8552 -0.7649
 7216SOL    HW328631   2.631   2.035   0.295 -0.9963 -0.2696  0.3009
 7216SOL    MW428632   2.590   2.019   0.220 -0.4451 -0.1945 -0.0224
 7217SOL     OW28633   6.181   2.566   6.400  0.5563  0.1949  0.2115
 7217SOL    HW228634   6.099   2.545   6.444  2.8399 -3.1729  3.4551
 7217SOL    HW328635   6.185   2.507   6.325  1.0050 -1.4864  1.5064
 7217SOL    MW428636   6.171   2.556   6.396  0.9168 -0.4712  0.8103
 7218SOL     OW28637   1.305   3.716   1.428 -0.3410  0.1367 -0.6287
 7218SOL    HW228638   1.259   3.720   1.344  2.9352 -0.4016 -2.6473
 7218SOL    HW328639   1.352   3.799   1.433 -1.2139  0.5618  1.2209
 7218SOL    MW428640   1.305   3.727   1.417 -0.0239  0.1218 -0.6510
 7219SOL     OW28641   3.666   3.249   5.517 -0.2782 -0.4863 -0.1659
 7219SOL    HW228642   3.692   3.176   5.461 -0.2572 -0.6324  0.0339
 7219SOL    HW328643   3.676   3.215   5.606  1.2531  0.2636 -0.0228
 7219SOL    MW428644   3.671   3.235   5.521 -0.0734 -0.4067 -0.1207
 7220SOL     OW28645   5.952   5.351   1.791 -0.4428 -0.6795 -0.2502
 7220SOL    HW228646   6.026   5.376   1.846  0.7106 -3.8921 -0.1352
 7220SOL    HW328647   5.941   5.258   1.806 -3.9860 -0.5300 -0.9866
 7220SOL    MW428648   5.960   5.342   1.800 -0.7581 -1.0836 -0.3322
 7221SOL     OW28649   0.658   3.362   4.077 -0.0378  0.0239 -0.5623
 7221SOL    HW228650   0.679   3.385   4.167 -0.5908 -0.5540 -0.2728
 7221SOL    HW328651   0.597   3.430   4.048 -0.5895 -0.2971 -0.1779
 7221SOL    MW428652   0.653   3.374   4.085 -0.1836 -0.0947 -0.4734
 7222SOL     OW28653   5.179   1.462   5.363  0.8350  0.6200  0.2559
 7222SOL    HW228654   5.089   1.469   5.396 -0.5157 -1.0982 -2.7140
 7222SOL    HW328655   5.192   1.540   5.310 -0.2103 -0.6538 -1.9906
 7222SOL    MW428656   5.169   1.473   5.361  0.5189  0.2252 -0.4324
 7223SOL     OW28657   2.181   1.096   3.084  0.4557 -0.2807  0.5181
 7223SOL    HW228658   2.236   1.174   3.091 -0.8056  0.7453 -0.3882
 7223SOL    HW328659   2.136   1.107   3.000 -0.0966 -1.7575  0.6013
 7223SOL    MW428660   2.182   1.108   3.073  0.2164 -0.3402  0.4095
 7224SOL     OW28661   0.911   2.669   2.954  0.1551  0.5078 -0.1891
 7224SOL    HW228662   0.968   2.656   3.031  0.7234  0.0520 -0.6759
 7224SOL    HW328663   0.917   2.763   2.936  1.0423  0.4071 -0.4511
 7224SOL    MW428664   0.920   2.680   2.962  0.3471  0.4344 -0.2879
 7225SOL     OW28665   1.979   0.553   3.073  0.8939 -0.0443 -0.2970
 7225SOL    HW228666   1.924   0.497   3.019  2.3066 -2.3064  0.4788
 7225SOL    HW328667   2.039   0.595   3.011  0.5421 -0.2343 -0.7724
 7225SOL    MW428668   1.980   0.551   3.058  1.0339 -0.3678 -0.2573
 7226SOL     OW28669   2.079   2.029   2.498  0.3900  0.1339 -0.2331
 7226SOL    HW228670   2.016   1.988   2.556 -0.7576 -0.0548 -1.5537
 7226SOL    HW328671   2.034   2.107   2.465  1.2751  0.6121 -0.3428
 7226SOL    MW428672   2.065   2.034   2.501  0.3553  0.1721 -0.4218
 7227SOL     OW28673   4.822   3.134   2.841 -0.1878  0.1419 -0.1281
 7227SOL    HW228674   4.871   3.114   2.921  0.9357 -1.0955 -1.0657
 7227SOL    HW328675   4.827   3.230   2.833  0.9178  0.1626  0.5444
 7227SOL    MW428676   4.829   3.144   2.850  0.1063 -0.0186 -0.1631
 7228SOL     OW28677   3.083   0.724   6.091  0.1925 -0.2374  0.1011
 7228SOL    HW228678   3.158   0.767   6.132  0.3495 -0.6834  0.2818
 7228SOL    HW328679   3.047   0.791   6.033  0.3249  0.2003  0.5146
 7228SOL    MW428680   3.088   0.738   6.089  0.2307 -0.2385  0.1795
 7229SOL     OW28681   1.728   4.673   2.746 -0.2316 -0.3188  0.4707
 7229SOL    HW228682   1.679   4.597   2.716  1.3531 -0.3976 -2.2800
 7229SOL    HW328683   1.691   4.747   2.698 -0.7308  0.4222  1.9452
 7229SOL    MW428684   1.717   4.673   2.736 -0.0884 -0.2314  0.3024
 7230SOL     OW28685   6.180   3.287   2.627 -0.0644  0.5028 -0.3340
 7230SOL    HW228686   6.250   3.223   2.615 -0.3902  0.1348 -0.2858
 7230SOL    HW328687   6.223   3.363   2.666  0.5243  0.7207 -1.3677
 7230SOL    MW428688   6.195   3.288   2.630 -0.0297  0.4830 -0.4640
 7231SOL     OW28689   4.979   1.836   4.657  0.0152  0.2569  0.0947
 7231SOL    HW228690   5.070   1.864   4.660 -0.3304  1.3431  1.0562
 7231SOL    HW328691   4.939   1.877   4.734 -1.6701  1.2134 -1.2384
 7231SOL    MW428692   4.986   1.845   4.668 -0.2528  0.5264  0.0457
 7232SOL     OW28693   3.507   1.056   4.273 -0.1995  0.0608  0.5807
 7232SOL    HW228694   3.437   1.121   4.275 -0.8407 -0.5836 -0.0732
 7232SOL    HW328695   3.549   1.063   4.359  0.1594  1.7519  0.2962
 7232SOL    MW428696   3.503   1.065   4.285 -0.2368  0.1989  0.4569
 7233SOL     OW28697   5.263   4.136   2.144 -0.0699 -0.1834  0.2133
 7233SOL    HW228698   5.335   4.194   2.168 -0.6167  0.2184  0.9320
 7233SOL    HW328699   5.199   4.146   2.215 -1.1141 -0.0415 -0.7160
 7233SOL    MW428700   5.264   4.145   2.157 -0.2798 -0.1117  0.1856
 7234SOL     OW28701   4.040   3.789   3.159 -0.6068 -0.2286 -0.4546
 7234SOL    HW228702   3.967   3.810   3.100 -0.4999 -1.3893 -1.0311
 7234SOL    HW328703   4.117   3.826   3.116 -1.0366  3.0234  1.2404
 7234SOL    MW428704   4.040   3.796   3.145 -0.6494  0.0473 -0.3071
 7235SOL     OW28705   1.689   3.416   3.105  0.0143 -0.3600  0.3975
 7235SOL    HW228706   1.775   3.459   3.107 -0.1937  0.0543  0.4345
 7235SOL    HW328707   1.697   3.344   3.167 -0.3083  0.8920  1.9344
 7235SOL    MW428708   1.701   3.412   3.113 -0.0557 -0.1402  0.6051
 7236SOL     OW28709   1.108   1.622   2.680  0.5100 -0.1696 -0.2199
 7236SOL    HW228710   1.125   1.628   2.586 -1.3202 -0.7846 -0.6298
 7236SOL    HW328711   1.037   1.684   2.695  1.1402  0.3113  0.8778
 7236SOL    MW428712   1.101   1.631   2.670  0.3517 -0.1873 -0.1291
 7237SOL     OW28713   5.805   3.342   5.358  0.0363  0.4940 -0.0611
 7237SOL    HW228714   5.884   3.389   5.329 -0.2878 -0.2905 -2.4398
 7237SOL    HW328715   5.838   3.269   5.410  0.9555 -0.0631 -1.3678
 7237SOL    MW428716   5.820   3.339   5.361  0.1148  0.3170 -0.5474
 7238SOL     OW28717   5.726   1.948   5.771 -0.2715 -0.5246 -0.3939
 7238SOL    HW228718   5.720   2.029   5.721  3.2325 -0.7297 -1.4297
 7238SOL    HW328719   5.809   1.955   5.818 -1.9681 -1.6837  3.1008
 7238SOL    MW428720   5.736   1.959   5.770 -0.0330 -0.7046 -0.0695
 7239SOL     OW28721   1.133   0.040   1.776  0.0868 -0.0201 -0.6677
 7239SOL    HW228722   1.111   0.133   1.773  1.2770  0.2541 -1.3682
 7239SOL    HW328723   1.050  -0.003   1.798 -0.3544  1.2346  0.2822
 7239SOL    MW428724   1.119   0.047   1.779  0.1856  0.1816 -0.6348
 7240SOL     OW28725   1.554   4.991   3.384  0.1712  0.2165 -0.3338
 7240SOL    HW228726   1.592   5.075   3.357 -0.8018  0.4013 -1.1915
 7240SOL    HW328727   1.467   5.014   3.418 -0.2795 -0.4662 -0.9795
 7240SOL    MW428728   1.547   5.005   3.385 -0.0166  0.1508 -0.5321
 7241SOL     OW28729   1.349   5.329   5.765 -0.2599  0.1844  0.3289
 7241SOL    HW228730   1.293   5.398   5.730 -1.9139 -1.0094  0.4773
 7241SOL    HW328731   1.428   5.374   5.794 -0.4619  1.7352 -1.3407
 7241SOL    MW428732   1.352   5.344   5.764 -0.5047  0.2315  0.1282
 7242SOL     OW28733   5.142   3.161   3.739 -0.3033  0.5434 -0.0679
 7242SOL    HW228734   5.221   3.110   3.724 -0.7308 -0.9516  2.3187
 7242SOL    HW328735   5.074   3.115   3.689 -0.1564  0.3582 -0.0975
 7242SOL    MW428736   5.143   3.149   3.730 -0.3403  0.3217  0.2431
 7243SOL     OW28737   0.764   1.493   3.559 -0.5191  0.0406  0.4164
 7243SOL    HW228738   0.831   1.424   3.561  0.0098  0.5734  1.3274
 7243SOL    HW328739   0.708   1.469   3.485  1.5735  0.4296 -1.3927
 7243SOL    MW428740   0.765   1.481   3.549 -0.1732  0.1622  0.2979
 7244SOL     OW28741   0.132   4.508   5.106 -0.0608 -0.7575 -0.1177
 7244SOL    HW228742   0.218   4.495   5.067  0.5707 -0.5290  1.1258
 7244SOL    HW328743   0.143   4.482   5.198 -1.4543 -1.2156 -0.0516
 7244SOL    MW428744   0.145   4.503   5.113 -0.1614 -0.7878  0.0551
 7245SOL     OW28745   6.228   6.298   4.396  0.9117 -0.4080 -0.4172
 7245SOL    HW228746   6.213   6.288   4.302 -0.6058 -1.1817 -0.1303
 7245SOL    HW328747   6.253   6.390   4.407  0.5194 -0.1604 -1.5076
 7245SOL    MW428748   6.229   6.309   4.385  0.6597 -0.4774 -0.5232
 7246SOL     OW28749   6.230   2.450   1.304  0.3410 -0.4053 -0.7067
 7246SOL    HW228750   6.200   2.404   1.225 -0.5861 -1.2684  0.1214
 7246SOL    HW328751   6.164   2.518   1.318  0.7008 -0.0212 -0.8781
 7246SOL    MW428752   6.217   2.453   1.295  0.2661 -0.4685 -0.6201
 7247SOL     OW28753   0.711   2.141   0.446  0.3735 -0.0911 -0.6154
 7247SOL    HW228754   0.733   2.137   0.353 -0.1068  0.7460 -0.7752
 7247SOL    HW328755   0.649   2.069   0.459  0.6709 -0.3972 -0.8729
 7247SOL    MW428756   0.706   2.131   0.436  0.3494 -0.0210 -0.6705
 7248SOL     OW28757   1.976   2.086   3.263  0.0575 -0.4393  0.1651
 7248SOL    HW228758   1.905   2.077   3.326  0.3403 -0.7543  0.4417
 7248SOL    HW328759   2.046   2.030   3.297  0.2572 -0.5194 -0.3623
 7248SOL    MW428760   1.976   2.077   3.276  0.1212 -0.4915  0.1320
 7249SOL     OW28761   4.391   2.730   1.308 -0.0801 -0.3359  0.3115
 7249SOL    HW228762   4.478   2.769   1.313  1.1565 -2.5759 -1.4620
 7249SOL    HW328763   4.364   2.743   1.217 -0.7391 -1.2915  0.3449
 7249SOL    MW428764   4.399   2.737   1.296 -0.0039 -0.7575  0.0819
 7250SOL     OW28765   2.203   5.217   5.705  0.3571  0.0748 -0.3911
 7250SOL    HW228766   2.239   5.189   5.621  0.1084  1.2814 -0.9093
 7250SOL    HW328767   2.109   5.202   5.698  0.4692 -0.9875  0.1471
 7250SOL    MW428768   2.196   5.211   5.693  0.3391  0.0938 -0.3885
 7251SOL     OW28769   0.384   0.946   3.808 -0.2213  0.3577 -0.2809
 7251SOL    HW228770   0.366   0.884   3.738 -0.9624 -0.2012  0.3860
 7251SOL    HW328771   0.417   0.891   3.880  0.9550  0.9674 -0.3283
 7251SOL    MW428772   0.386   0.931   3.808 -0.1639  0.3644 -0.1991
 7252SOL     OW28773   1.080   1.825   4.289  0.4780 -0.4459  0.1603
 7252SOL    HW228774   1.117   1.738   4.272  0.7516 -0.5848  1.3688
 7252SOL    HW328775   0.986   1.810   4.297  0.3280 -0.3616 -1.2283
 7252SOL    MW428776   1.072   1.811   4.288  0.4944 -0.4531  0.1365
 7253SOL     OW28777   4.862   3.654   6.020  0.5424 -0.7826  0.3165
 7253SOL    HW228778   4.900   3.661   5.932  0.3672  1.3687  0.3591
 7253SOL    HW328779   4.905   3.723   6.070 -0.2951 -1.1461  1.5667
 7253SOL    MW428780   4.873   3.664   6.015  0.4088 -0.5467  0.4871
 7254SOL     OW28781   2.809   4.680   2.071  0.4556  0.4160 -0.0237
 7254SOL    HW228782   2.728   4.629   2.070  0.5144  0.3257 -0.4837
 7254SOL    HW328783   2.786   4.761   2.117  0.1964  0.2438  0.1520
 7254SOL    MW428784   2.795   4.684   2.077  0.4291  0.3814 -0.0612
 7255SOL     OW28785   3.733   5.186   1.868  0.0966 -0.1672 -0.1223
 7255SOL    HW228786   3.780   5.217   1.791  0.3297  0.3197  0.2100
 7255SOL    HW328787   3.780   5.224   1.942 -0.7426  0.2452  0.2208
 7255SOL    MW428788   3.745   5.195   1.867  0.0166 -0.0485 -0.0332
 7256SOL     OW28789   1.759   5.151   4.869 -0.3853  0.3411 -0.1705
 7256SOL    HW228790   1.698   5.144   4.943 -1.2003  1.0054 -0.7559
 7256SOL    HW328791   1.705   5.182   4.796  0.3619 -0.5214 -1.1137
 7256SOL    MW428792   1.744   5.154   4.869 -0.3942  0.3150 -0.3722
 7257SOL     OW28793   0.137   3.544   0.708  0.3654 -0.6615  0.1405
 7257SOL    HW228794   0.197   3.567   0.637  0.1442 -0.6026 -0.0294
 7257SOL    HW328795   0.070   3.490   0.666  0.6786 -1.3122  0.4672
 7257SOL    MW428796   0.136   3.540   0.693  0.3775 -0.7396  0.1612
 7258SOL     OW28797   4.853   6.114   2.593 -0.1107 -0.0280  0.2835
 7258SOL    HW228798   4.837   6.198   2.636 -3.2319 -0.8443  1.0090
 7258SOL    HW328799   4.773   6.098   2.542  1.3139 -1.5790 -1.6441
 7258SOL    MW428800   4.840   6.123   2.592 -0.3345 -0.3404  0.1249
 7259SOL     OW28801   2.675   2.591   3.060 -0.0419 -0.0989 -0.0341
 7259SOL    HW228802   2.669   2.686   3.046 -1.5863 -0.2261 -0.3699
 7259SOL    HW328803   2.689   2.555   2.973 -0.7017 -0.2637 -0.0733
 7259SOL    MW428804   2.676   2.599   3.047 -0.3327 -0.1374 -0.0836
 7260SOL     OW28805   4.726   2.657   3.170 -0.1647  0.2601 -0.0645
 7260SOL    HW228806   4.658   2.724   3.168  0.7469  1.2143 -0.3718
 7260SOL    HW328807   4.778   2.673   3.092  0.6532 -0.1788  0.3703
 7260SOL    MW428808   4.724   2.668   3.160  0.0635  0.3281 -0.0476
 7261SOL     OW28809   5.616   5.888   5.148  0.3694  0.4838 -0.2472
 7261SOL    HW228810   5.593   5.858   5.060 -1.3184 -1.2603  0.7057
 7261SOL    HW328811   5.535   5.925   5.183  0.9230  0.8592  0.6831
 7261SOL    MW428812   5.602   5.889   5.141  0.2197  0.3032  0.0013
 7262SOL     OW28813   3.735   1.979   3.045  0.1213  0.4790 -0.4358
 7262SOL    HW228814   3.754   1.978   2.951  1.1513 -1.7618 -0.2856
 7262SOL    HW328815   3.821   1.973   3.087 -0.2374  2.6414  0.7393
 7262SOL    MW428816   3.749   1.978   3.038  0.2099  0.4686 -0.2610
 7263SOL     OW28817   2.864   4.856   3.170 -0.8595  0.6042 -0.1874
 7263SOL    HW228818   2.840   4.878   3.260 -0.8073  0.4003 -0.1212
 7263SOL    HW328819   2.781   4.846   3.124 -0.9548 -1.0773  0.2805
 7263SOL    MW428820   2.850   4.857   3.176 -0.8652  0.3555 -0.1169
 7264SOL     OW28821   2.406   3.601   5.048 -0.1073  0.7800 -0.0444
 7264SOL    HW228822   2.423   3.545   4.972 -0.8734  0.6835 -0.1597
 7264SOL    HW328823   2.384   3.686   5.011 -2.1728  0.3154 -0.0663
 7264SOL    MW428824   2.405   3.605   5.033 -0.4809  0.7060 -0.0625
 7265SOL     OW28825   4.010   4.026   6.325  0.0017 -0.2451  0.2002
 7265SOL    HW228826   3.987   4.046   6.415 -0.7577 -2.6130  0.6036
 7265SOL    HW328827   4.007   4.111   6.280  0.6408  1.0252  2.3996
 7265SOL    MW428828   4.007   4.040   6.331 -0.0142 -0.3899  0.5436
 7266SOL     OW28829   4.062   5.957   5.588 -0.5877  0.0588 -0.4339
 7266SOL    HW228830   4.048   5.893   5.658 -0.1414 -0.9062 -1.2007
 7266SOL    HW328831   4.134   6.011   5.620 -3.3293  2.7146  1.9075
 7266SOL    MW428832   4.070   5.956   5.602 -0.8906  0.2819 -0.2261
 7267SOL     OW28833   4.917   3.478   0.340 -0.0222 -0.3249  0.1757
 7267SOL    HW228834   4.899   3.515   0.253  1.1648 -0.2350 -0.0580
 7267SOL    HW328835   4.855   3.406   0.350 -0.2215 -0.2831 -0.7104
 7267SOL    MW428836   4.907   3.474   0.330  0.1081 -0.3075  0.0279
 7268SOL     OW28837   5.792   0.161   1.343  0.3367  0.5085 -0.4713
 7268SOL    HW228838   5.762   0.071   1.332 -1.3355  1.0230 -0.3683
 7268SOL    HW328839   5.757   0.188   1.428  0.4800  1.3950 -0.6785
 7268SOL    MW428840   5.784   0.153   1.353  0.1350  0.6933 -0.4850
 7269SOL     OW28841   1.429   5.079   1.269  0.2352  0.0940 -0.0125
 7269SOL    HW228842   1.372   5.093   1.345 -0.6976  2.1783 -1.0039
 7269SOL    HW328843   1.388   5.007   1.221 -2.4455  2.2996 -1.3422
 7269SOL    MW428844   1.416   5.072   1.273 -0.2416  0.6600 -0.3187
 7270SOL     OW28845   0.528   5.806   5.530 -0.0145  0.5957  0.0054
 7270SOL    HW228846   0.619   5.797   5.504 -0.0926 -0.0106 -0.0637
 7270SOL    HW328847   0.487   5.852   5.456  0.0998  0.2909 -0.2491
 7270SOL    MW428848   0.534   5.811   5.516 -0.0097  0.4755 -0.0373
 7271SOL     OW28849   3.492   1.229   5.258  0.0813  0.4914  0.3266
 7271SOL    HW228850   3.477   1.274   5.175  2.1422 -0.5064 -0.6633
 7271SOL    HW328851   3.573   1.268   5.292  0.1153 -0.2014  1.0592
 7271SOL    MW428852   3.501   1.240   5.251  0.3577  0.2683  0.2927
 7272SOL     OW28853   5.456   5.552   2.139  0.3551 -0.1245 -0.3279
 7272SOL    HW228854   5.437   5.643   2.163 -1.8980 -0.9172  1.2870
 7272SOL    HW328855   5.396   5.534   2.066  0.4317 -0.4761 -0.3047
 7272SOL    MW428856   5.445   5.562   2.132  0.0679 -0.2755 -0.1118
 7273SOL     OW28857   1.040   3.250   6.430  0.2425 -0.3301 -0.1319
 7273SOL    HW228858   1.115   3.263   6.372  0.1499 -0.1523 -0.2107
 7273SOL    HW328859   1.031   3.155   6.435 -1.2451 -0.3977 -2.3765
 7273SOL    MW428860   1.049   3.239   6.423  0.0340 -0.3156 -0.4385
 7274SOL     OW28861   4.034   2.014   2.461 -0.5851 -0.4514  0.0206
 7274SOL    HW228862   4.130   2.022   2.465 -0.2416 -1.9688 -2.5819
 7274SOL    HW328863   4.003   2.104   2.462  1.1880  0.3158 -2.7185
 7274SOL    MW428864   4.043   2.027   2.462 -0.3058 -0.5504 -0.6841
 7275SOL     OW28865   0.364   5.075   1.843  0.1812 -0.1533 -0.3939
 7275SOL    HW228866   0.304   5.146   1.822 -0.3313 -0.2235  0.7241
 7275SOL    HW328867   0.415   5.060   1.763 -2.6992 -1.5155 -2.1068
 7275SOL    MW428868   0.363   5.082   1.830 -0.2665 -0.3423 -0.4724
 7276SOL     OW28869   4.252   4.265   3.615  0.0812 -0.8942 -0.7775
 7276SOL    HW228870   4.318   4.258   3.546 -1.1738 -0.6854 -2.0490
 7276SOL    HW328871   4.170   4.242   3.572 -0.6270 -1.6718  0.8869
 7276SOL    MW428872   4.250   4.261   3.600 -0.1778 -0.9692 -0.7257
 7277SOL     OW28873   4.330   1.427   5.835  0.6117 -0.3441  0.3068
 7277SOL    HW228874   4.351   1.433   5.928 -0.0775  0.5744  0.4073
 7277SOL    HW328875   4.356   1.511   5.798 -1.9270  0.4943  0.2527
 7277SOL    MW428876   4.336   1.439   5.842  0.1858 -0.1123  0.3129
 7278SOL     OW28877   4.686   2.733   0.555 -0.3680 -0.2257  0.1107
 7278SOL    HW228878   4.642   2.815   0.575 -2.2469 -0.9478 -0.8116
 7278SOL    HW328879   4.717   2.701   0.639 -1.5497  0.3640  0.7880
 7278SOL    MW428880   4.684   2.740   0.568 -0.7718 -0.2432  0.0784
 7279SOL     OW28881   2.443   5.634   1.908  0.4120  0.3714  0.3934
 7279SOL    HW228882   2.528   5.605   1.939  1.0392  1.2086 -0.4687
 7279SOL    HW328883   2.403   5.555   1.870  0.4399 -0.2098  1.5382
 7279SOL    MW428884   2.449   5.620   1.907  0.4984  0.4052  0.4307
 7280SOL     OW28885   0.378   3.402   0.902  0.2554  0.1786 -0.4329
 7280SOL    HW228886   0.383   3.448   0.818  1.7158  0.3142 -0.2969
 7280SOL    HW328887   0.451   3.438   0.952 -0.2531 -0.3293  0.6860
 7280SOL    MW428888   0.389   3.413   0.897  0.3810  0.1295 -0.2673
 7281SOL     OW28889   5.934   5.759   5.622 -0.3935 -0.3266 -0.3205
 7281SOL    HW228890   6.015   5.808   5.631 -0.1588 -0.7297 -0.2271
 7281SOL    HW328891   5.865   5.822   5.644 -0.1187  0.0662 -0.5914
 7281SOL    MW428892   5.935   5.774   5.626 -0.3263 -0.3279 -0.3439
 7282SOL     OW28893   0.697   0.393   0.953  0.2484 -0.1817  0.7028
 7282SOL    HW228894   0.751   0.373   0.877 -1.3109 -0.1666 -0.4656
 7282SOL    HW328895   0.701   0.488   0.960 -1.4931  0.0866 -0.9207
 7282SOL    MW428896   0.704   0.403   0.944 -0.1871 -0.1443  0.3345
 7283SOL     OW28897   1.968   0.556   4.479  0.3392  0.1984  0.4367
 7283SOL    HW228898   1.959   0.502   4.557  0.9016 -1.0158 -0.3111
 7283SOL    HW328899   1.894   0.532   4.424  1.2837 -0.7982 -0.4493
 7283SOL    MW428900   1.957   0.546   4.482  0.5380 -0.0933  0.2211
 7284SOL     OW28901   5.260   1.679   2.617  0.1500  0.0967  0.1985
 7284SOL    HW228902   5.225   1.603   2.665  0.1956 -1.1533 -1.6363
 7284SOL    HW328903   5.238   1.662   2.526  1.3478  1.6584 -0.4331
 7284SOL    MW428904   5.253   1.667   2.612  0.3140  0.1378 -0.1269
 7285SOL     OW28905   3.053   5.276   1.657 -1.3383  0.0632 -0.5124
 7285SOL    HW228906   3.083   5.189   1.685 -1.4451 -0.5018 -2.0676
 7285SOL    HW328907   3.131   5.316   1.619 -1.0353  1.0717  1.0896
 7285SOL    MW428908   3.067   5.269   1.656 -1.3124  0.1217 -0.5062
 7286SOL     OW28909   2.484   2.027   1.656  0.6032 -0.3156  0.3233
 7286SOL    HW228910   2.478   2.110   1.608  0.4909 -0.4586  0.0928
 7286SOL    HW328911   2.431   2.041   1.735 -0.4283 -0.5855 -0.3037
 7286SOL    MW428912   2.476   2.040   1.660  0.4523 -0.3701  0.2102
 7287SOL     OW28913   1.722   0.235   0.581  0.1979  0.0413  0.0289
 7287SOL    HW228914   1.728   0.329   0.598 -2.0506  0.0739  1.0057
 7287SOL    HW328915   1.680   0.228   0.495  1.7222 -0.1247 -0.7440
 7287SOL    MW428916   1.718   0.246   0.572  0.1023  0.0237  0.0558
 7288SOL     OW28917   5.173   3.685   1.592 -0.1000  0.0752  0.7293
 7288SOL    HW228918   5.209   3.721   1.512  1.1735 -0.0664  1.2086
 7288SOL    HW328919   5.239   3.704   1.659 -0.0923 -1.7731  1.2963
 7288SOL    MW428920   5.186   3.692   1.591  0.0690 -0.1873  0.8673
 7289SOL     OW28921   4.931   4.478   1.896 -0.2796  0.3690 -0.0197
 7289SOL    HW228922   4.995   4.408   1.885  0.9729  1.7308 -2.3141
 7289SOL    HW328923   4.983   4.554   1.921 -1.3391  0.9428  0.5123
 7289SOL    MW428924   4.946   4.479   1.898 -0.2541  0.6244 -0.2522
 7290SOL     OW28925   1.906   5.000   3.453  0.1505  0.1220  0.7840
 7290SOL    HW228926   1.951   4.980   3.535  0.2583 -2.9749  0.0857
 7290SOL    HW328927   1.814   5.009   3.478  0.5060  2.0842  1.5830
 7290SOL    MW428928   1.900   4.999   3.467  0.2116 -0.0277  0.7973
 7291SOL     OW28929   2.852   2.836   5.859  0.3866  0.1472  0.4400
 7291SOL    HW228930   2.835   2.746   5.887  0.5851 -0.3287 -0.8743
 7291SOL    HW328931   2.947   2.842   5.851  0.3504  0.3343  0.1079
 7291SOL    MW428932   2.862   2.825   5.861  0.4080  0.1091  0.2228
 7292SOL     OW28933   5.162   5.766   5.506 -0.0171 -0.2192 -0.1702
 7292SOL    HW228934   5.123   5.762   5.419 -0.1103 -0.9447 -0.0981
 7292SOL    HW328935   5.087   5.769   5.566  0.0224  1.7110 -0.1454
 7292SOL    MW428936   5.147   5.766   5.502 -0.0242 -0.0603 -0.1574
 7293SOL     OW28937   0.196   6.414   0.406  0.2086  0.0376  0.0891
 7293SOL    HW228938   0.253   6.348   0.447 -0.4005 -0.3271  0.3588
 7293SOL    HW328939   0.222   6.497   0.446  2.4934  0.3493 -1.7877
 7293SOL    MW428940   0.207   6.416   0.417  0.4297  0.0306 -0.1230
 7294SOL     OW28941   2.132   5.194   5.316  0.0806  0.5751  0.4255
 7294SOL    HW228942   2.215   5.213   5.273  0.0125 -1.5415 -0.7810
 7294SOL    HW328943   2.100   5.279   5.346  2.3649  1.5145  0.3831
 7294SOL    MW428944   2.138   5.208   5.314  0.3730  0.4198  0.2607
 7295SOL     OW28945   4.239   4.662   2.028  0.6216  0.9824  0.4299
 7295SOL    HW228946   4.330   4.639   2.010  0.7252  0.2332  1.7769
 7295SOL    HW328947   4.245   4.721   2.104 -0.1532 -1.7322  2.7574
 7295SOL    MW428948   4.252   4.667   2.036  0.5331  0.5254  0.9147
 7296SOL     OW28949   3.595   2.992   3.248  0.0604 -0.4081 -0.0679
 7296SOL    HW228950   3.506   3.000   3.282  0.7865  0.7534  1.7064
 7296SOL    HW328951   3.622   3.083   3.229  1.4334 -0.5410  1.0590
 7296SOL    MW428952   3.587   3.005   3.250  0.3373 -0.2724  0.3149
 7297SOL     OW28953   0.058   0.277   1.701 -0.2582 -0.0310  0.5282
 7297SOL    HW228954   0.011   0.196   1.681 -0.6112  0.1435  0.6415
 7297SOL    HW328955   0.023   0.341   1.638 -1.3095  0.5005  1.6166
 7297SOL    MW428956   0.047   0.275   1.690 -0.4435  0.0622  0.6867
 7298SOL     OW28957   5.439   3.392   2.146 -0.1459 -0.2271 -0.0583
 7298SOL    HW228958   5.489   3.454   2.094 -0.0170 -0.4168 -0.1646
 7298SOL    HW328959   5.406   3.442   2.220 -2.6705  0.7585 -1.7017
 7298SOL    MW428960   5.441   3.407   2.149 -0.4620 -0.1221 -0.2891
 7299SOL     OW28961   5.167   0.815   1.917  0.2437 -0.5570 -0.0588
 7299SOL    HW228962   5.104   0.882   1.943 -1.0286 -2.3536  1.8151
 7299SOL    HW328963   5.148   0.800   1.824  0.1962  1.2506 -0.3772
 7299SOL    MW428964   5.156   0.822   1.908  0.0696 -0.5555  0.1464
 7300SOL     OW28965   4.480   4.327   1.167 -0.2640  0.1963 -0.4988
 7300SOL    HW228966   4.529   4.334   1.086 -1.8923  0.3831 -1.5124
 7300SOL    HW328967   4.530   4.378   1.231  0.0156  1.7565 -1.9051
 7300SOL    MW428968   4.493   4.335   1.165 -0.4419  0.4268 -0.8181
 7301SOL     OW28969   3.067   3.245   0.679 -0.4338 -0.4237 -0.3609
 7301SOL    HW228970   3.149   3.284   0.710  0.1073 -0.3029 -1.8518
 7301SOL    HW328971   3.061   3.273   0.587 -1.7430 -1.1004 -0.4977
 7301SOL    MW428972   3.077   3.254   0.671 -0.5351 -0.4970 -0.5757
 7302SOL     OW28973   2.986   1.437   3.297  0.4298 -0.6412 -0.1561
 7302SOL    HW228974   2.898   1.456   3.265  0.1738  1.2878  1.5466
 7302SOL    HW328975   3.044   1.485   3.238  0.4334 -2.1053 -1.4270
 7302SOL    MW428976   2.982   1.446   3.285  0.3965 -0.5799 -0.0991
 7303SOL     OW28977   5.278   6.362   0.754 -0.2973 -0.3118 -0.5638
 7303SOL    HW228978   5.322   6.426   0.698  2.3754 -0.6662  1.0024
 7303SOL    HW328979   5.288   6.396   0.843  0.7653 -2.6155  0.2631
 7303SOL    MW428980   5.285   6.375   0.758  0.1955 -0.6625 -0.2480
 7304SOL     OW28981   0.025   5.516   5.105 -0.7170  0.9563  0.1317
 7304SOL    HW228982  -0.034   5.538   5.177 -0.0223  2.1553  0.3582
 7304SOL    HW328983   0.063   5.599   5.079 -1.7295  0.7479 -2.3491
 7304SOL    MW428984   0.022   5.529   5.111 -0.7589  1.0870 -0.1657
 7305SOL     OW28985   3.460   1.134   3.376 -0.0516 -0.3141  0.1938
 7305SOL    HW228986   3.434   1.101   3.462  0.5890  0.2225  0.5930
 7305SOL    HW328987   3.541   1.087   3.356 -0.3249 -0.6163 -0.2344
 7305SOL    MW428988   3.467   1.123   3.385 -0.0031 -0.2831  0.1899
 7306SOL     OW28989   0.267   5.572   4.851 -0.2994  0.3015 -0.1971
 7306SOL    HW228990   0.361   5.590   4.852 -0.1168 -0.4950 -1.3630
 7306SOL    HW328991   0.235   5.609   4.934  1.1732 -0.1743  0.6235
 7306SOL    MW428992   0.275   5.579   4.862 -0.0810  0.1336 -0.2427
 7307SOL     OW28993   4.269   2.422   4.556  0.1934  0.4162 -0.3688
 7307SOL    HW228994   4.331   2.486   4.592  0.4626  1.4460 -2.5179
 7307SOL    HW328995   4.288   2.341   4.603  0.9971  1.4820  1.2495
 7307SOL    MW428996   4.279   2.420   4.567  0.3349  0.6927 -0.4389
 7308SOL     OW28997   6.230   5.284   4.192 -0.2070  0.2184  0.0702
 7308SOL    HW228998   6.275   5.367   4.207  0.6196 -0.5009  1.8060
 7308SOL    HW328999   6.283   5.220   4.238 -1.1827 -1.1936 -0.7183
 7308SOL    MW429000   6.243   5.287   4.200 -0.2267 -0.0628  0.1952
 7309SOL     OW29001   5.918   0.566   5.961  0.1095 -0.1718  0.0614
 7309SOL    HW229002   5.867   0.641   5.994  1.2754  0.5702  0.2199
 7309SOL    HW329003   5.911   0.573   5.866  0.0018 -0.0154  0.0790
 7309SOL    MW429004   5.910   0.577   5.953  0.2491 -0.0533  0.0846
 7310SOL     OW29005   6.145   2.000   1.783  0.0582 -0.3697  0.1541
 7310SOL    HW229006   6.078   2.016   1.716  0.2393 -1.3370 -0.2711
 7310SOL    HW329007   6.139   1.907   1.802 -0.6442  0.0424  2.2277
 7310SOL    MW429008   6.135   1.990   1.776 -0.0106 -0.4430  0.3716
 7311SOL     OW29009   3.024   0.876   4.504  0.3349  0.7212 -0.0665
 7311SOL    HW229010   3.097   0.871   4.442 -0.9279 -1.6216 -1.4966
 7311SOL    HW329011   3.047   0.812   4.572 -1.0778 -1.4118 -1.4581
 7311SOL    MW429012   3.037   0.867   4.505 -0.0181  0.1307 -0.4388
 7312SOL     OW29013   5.131   5.300   5.840  0.3609 -0.1221 -0.0493
 7312SOL    HW229014   5.096   5.211   5.831 -1.9528  0.7817 -0.7032
 7312SOL    HW329015   5.173   5.318   5.756  0.2618 -0.3703 -0.1533
 7312SOL    MW429016   5.132   5.291   5.828  0.0426 -0.0356 -0.1493
 7313SOL     OW29017   2.322   2.105   1.892  0.1966 -0.1538 -0.5194
 7313SOL    HW229018   2.264   2.181   1.895  0.6061  0.1982 -1.4274
 7313SOL    HW329019   2.262   2.030   1.887 -0.2804 -0.0649  2.0702
 7313SOL    MW429020   2.306   2.105   1.892  0.1877 -0.0956 -0.2975
 7314SOL     OW29021   6.143   0.584   4.683  0.5418 -0.3747 -0.0127
 7314SOL    HW229022   6.066   0.615   4.636 -0.7722 -2.1537  0.8334
 7314SOL    HW329023   6.187   0.663   4.712  0.1607  0.7342 -2.2371
 7314SOL    MW429024   6.139   0.598   4.680  0.3182 -0.4631 -0.1946
 7315SOL     OW29025   4.793   2.323   1.821  0.1726 -0.0046 -0.7166
 7315SOL    HW229026   4.879   2.302   1.858  0.3363  0.1205 -1.0260
 7315SOL    HW329027   4.776   2.413   1.850 -0.1350 -0.2465 -0.1320
 7315SOL    MW429028   4.802   2.332   1.829  0.1536 -0.0201 -0.6803
 7316SOL     OW29029   6.059   4.002   4.037  0.4928 -0.3307  0.0672
 7316SOL    HW229030   6.106   4.078   4.002 -1.0197  1.0636  0.9373
 7316SOL    HW329031   6.013   3.965   3.962  1.7542 -0.8136 -0.4932
 7316SOL    MW429032   6.060   4.007   4.023  0.4596 -0.2104  0.1081
 7317SOL     OW29033   3.331   5.053   2.971 -0.2258  0.3682 -0.0719
 7317SOL    HW229034   3.369   4.994   2.907 -0.0270  0.3772  0.0349
 7317SOL    HW329035   3.406   5.100   3.008 -0.1105 -1.0524  1.5995
 7317SOL    MW429036   3.346   5.052   2.968 -0.1844  0.1819  0.1627
 7318SOL     OW29037   5.778   0.141   4.595 -0.0930 -0.8008  0.3707
 7318SOL    HW229038   5.843   0.078   4.566  0.4249  0.2599 -0.8901
 7318SOL    HW329039   5.706   0.133   4.532 -0.3583 -0.6668  0.6543
 7318SOL    MW429040   5.777   0.132   4.583 -0.0597 -0.6432  0.2418
 7319SOL     OW29041   1.186   5.827   1.598 -0.6298  0.6151 -0.2712
 7319SOL    HW229042   1.259   5.838   1.658 -0.6977  0.9169 -0.2417
 7319SOL    HW329043   1.191   5.904   1.541 -1.8269  1.4435  0.6886
 7319SOL    MW429044   1.196   5.839   1.598 -0.7967  0.7642 -0.1407
 7320SOL     OW29045   1.042   5.730   5.797 -0.5084  0.3766 -0.6489
 7320SOL    HW229046   1.004   5.810   5.763 -0.0967  0.4903 -0.8477
 7320SOL    HW329047   1.128   5.724   5.754 -0.1462  0.3187  0.0728
 7320SOL    MW429048   1.049   5.739   5.787 -0.4063  0.3840 -0.5799
 7321SOL     OW29049   5.521   4.831   6.417  0.9256  0.2798 -0.2160
 7321SOL    HW229050   5.610   4.805   6.395  0.7907 -0.8040  0.4262
 7321SOL    HW329051   5.479   4.847   6.332  0.9313 -2.0280 -0.7298
 7321SOL    MW429052   5.527   4.830   6.403  0.9086 -0.1677 -0.1990
 7322SOL     OW29053   4.631   2.599   1.043  0.2190 -0.1122  0.3366
 7322SOL    HW229054   4.665   2.625   0.957  0.1954  0.2420  0.4326
 7322SOL    HW329055   4.640   2.504   1.044 -0.1109 -0.1555 -0.2002
 7322SOL    MW429056   4.636   2.590   1.032  0.1724 -0.0712  0.2785
 7323SOL     OW29057   3.983   3.573   1.652  0.6921 -0.6310 -0.6965
 7323SOL    HW229058   4.003   3.572   1.746 -0.0021  2.6075 -0.3814
 7323SOL    HW329059   3.893   3.541   1.646  1.6176 -3.4596 -0.6655
 7323SOL    MW429060   3.974   3.569   1.664  0.7226 -0.5769 -0.6508
 7324SOL     OW29061   1.142   0.180   2.657  0.2359  0.5438  0.1554
 7324SOL    HW229062   1.182   0.246   2.600  2.5735 -0.7250  0.2102
 7324SOL    HW329063   1.126   0.105   2.599  0.5137  0.0685  0.6737
 7324SOL    MW429064   1.145   0.179   2.642  0.5810  0.3137  0.2310
 7325SOL     OW29065   4.137   5.495   6.046  0.2329  0.1954 -0.4552
 7325SOL    HW229066   4.162   5.403   6.036 -0.1640  0.0380  0.0006
 7325SOL    HW329067   4.195   5.528   6.115 -2.3120 -0.7852  2.3350
 7325SOL    MW429068   4.148   5.487   6.053 -0.1552  0.0453 -0.0269
 7326SOL     OW29069   2.824   5.383   2.152 -0.2923 -0.6240  0.1760
 7326SOL    HW229070   2.888   5.319   2.184  1.6896  0.9259 -0.4524
 7326SOL    HW329071   2.829   5.376   2.056  0.6802  1.0407  0.0574
 7326SOL    MW429072   2.833   5.373   2.143  0.0975 -0.1999  0.0774
 7327SOL     OW29073   4.284   1.418   4.746 -0.0154 -0.2119  0.2622
 7327SOL    HW229074   4.339   1.495   4.759 -0.0867  0.1928 -1.5313
 7327SOL    HW329075   4.345   1.345   4.740  0.3264  0.1537 -1.1135
 7327SOL    MW429076   4.299   1.419   4.747  0.0203 -0.1102 -0.1559
 7328SOL     OW29077   1.168   4.088   1.372 -0.0110 -0.1490 -0.3189
 7328SOL    HW229078   1.258   4.066   1.394  0.0151  0.1971 -0.0727
 7328SOL    HW329079   1.172   4.120   1.282  0.4318  1.7839  0.3556
 7328SOL    MW429080   1.180   4.089   1.363  0.0509  0.1517 -0.1974
 7329SOL     OW29081   1.949   1.552   3.821  0.2989 -0.3751 -0.3420
 7329SOL    HW229082   2.035   1.568   3.780 -0.5537  0.1838 -2.0081
 7329SOL    HW329083   1.931   1.633   3.869 -0.5403  0.7306 -2.3909
 7329SOL    MW429084   1.958   1.565   3.822  0.0757 -0.1555 -0.8322
 7330SOL     OW29085   3.321   6.377   3.912 -0.0287 -0.1788 -0.0756
 7330SOL    HW229086   3.274   6.433   3.850 -0.4291  1.2386  1.4198
 7330SOL    HW329087   3.397   6.429   3.938  1.2331 -1.5676 -0.8315
 7330SOL    MW429088   3.325   6.391   3.907  0.0849 -0.1750  0.0220
 7331SOL     OW29089   0.553   0.544   3.288  0.3077  0.0197 -0.0787
 7331SOL    HW229090   0.625   0.491   3.322  1.1617  0.4442 -1.1830
 7331SOL    HW329091   0.576   0.634   3.311 -0.0013  0.1358 -0.2112
 7331SOL    MW429092   0.565   0.549   3.296  0.3796  0.0910 -0.2419
 7332SOL     OW29093   1.994   3.287   3.027  0.4761 -0.4616 -0.1164
 7332SOL    HW229094   1.933   3.244   2.967 -1.5912 -0.3667  1.7794
 7332SOL    HW329095   2.058   3.219   3.048 -1.7988 -2.2473  1.5693
 7332SOL    MW429096   1.995   3.272   3.022 -0.0968 -0.6847  0.3561
 7333SOL     OW29097   1.753   4.002   2.721  0.5819 -0.1363 -0.4356
 7333SOL    HW229098   1.679   3.942   2.711 -0.2683  1.1722 -2.7997
 7333SOL    HW329099   1.720   4.070   2.780  1.3213 -1.5234  1.7009
 7333SOL    MW429100   1.739   4.003   2.727  0.5673 -0.1467 -0.4656
 7334SOL     OW29101   0.871   2.778   1.301  0.0061  0.0279 -0.2343
 7334SOL    HW229102   0.809   2.759   1.231  0.8261  0.2350 -1.0373
 7334SOL    HW329103   0.827   2.749   1.381 -1.8253  1.7215 -0.5578
 7334SOL    MW429104   0.857   2.772   1.302 -0.1273  0.2787 -0.3830
 7335SOL     OW29105   2.427   0.733   5.799 -0.0657 -0.2828 -0.0634
 7335SOL    HW229106   2.366   0.747   5.727  0.4707 -0.9822 -0.6605
 7335SOL    HW329107   2.415   0.641   5.823  0.2770 -0.2463  0.2570
 7335SOL    MW429108   2.417   0.722   5.793  0.0503 -0.3703 -0.0999
 7336SOL     OW29109   2.357   0.244   3.661 -0.5390  0.3202 -0.1531
 7336SOL    HW229110   2.321   0.327   3.692  1.8733  1.6288 -0.5867
 7336SOL    HW329111   2.394   0.203   3.740 -0.5165  0.3182 -0.1646
 7336SOL    MW429112   2.357   0.249   3.676 -0.2178  0.4926 -0.2118
 7337SOL     OW29113   4.608   4.493   4.181 -0.0608 -0.6388 -0.2271
 7337SOL    HW229114   4.558   4.488   4.100  1.0933  1.9423 -1.2110
 7337SOL    HW329115   4.692   4.451   4.160 -0.1452 -0.9138 -0.0218
 7337SOL    MW429116   4.613   4.487   4.168  0.0803 -0.3345 -0.3298
 7338SOL     OW29117   6.076   0.291   6.325  0.5318  0.0643  0.0911
 7338SOL    HW229118   6.097   0.197   6.321  1.9422  0.3617 -0.0622
 7338SOL    HW329119   6.149   0.333   6.278 -0.2356  1.2162 -0.0927
 7338SOL    MW429120   6.089   0.284   6.318  0.6166  0.2555  0.0466
 7339SOL     OW29121   3.786   6.201   3.297  0.1850  0.3184  0.6327
 7339SOL    HW229122   3.726   6.247   3.355 -0.0863  0.7554  0.0242
 7339SOL    HW329123   3.791   6.257   3.219 -0.9800 -1.1624 -0.5822
 7339SOL    MW429124   3.779   6.214   3.294 -0.0045  0.1806  0.3921
 7340SOL     OW29125   2.098   4.813   1.895  0.4345 -0.3298 -0.0307
 7340SOL    HW229126   2.057   4.737   1.853 -1.8602  2.4558 -3.4294
 7340SOL    HW329127   2.048   4.825   1.976 -2.9334  0.4671 -2.0298
 7340SOL    MW429128   2.086   4.804   1.900 -0.3126  0.1429 -0.7428
 7341SOL     OW29129   1.793   0.029   2.851 -0.5730 -0.4756  0.5825
 7341SOL    HW229130   1.842   0.039   2.769  0.9832  0.0551  1.5315
 7341SOL    HW329131   1.840  -0.040   2.899 -1.3975 -0.7066  1.0841
 7341SOL    MW429132   1.806   0.021   2.847 -0.4765 -0.4361  0.7739
 7342SOL     OW29133   4.256   5.047   6.257 -0.7737 -0.3926 -0.2240
 7342SOL    HW229134   4.180   5.069   6.203 -1.1529 -0.1064  0.4142
 7342SOL    HW329135   4.223   5.052   6.347  0.6221  2.3619  0.2502
 7342SOL    MW429136   4.242   5.051   6.262 -0.6396  0.0086 -0.0772
 7343SOL     OW29137   1.802   5.540   3.749 -0.2156 -0.1534 -0.3234
 7343SOL    HW229138   1.830   5.449   3.752 -0.2678 -0.1471  0.7921
 7343SOL    HW329139   1.883   5.590   3.736  0.1207 -0.2455  1.1806
 7343SOL    MW429140   1.817   5.535   3.748 -0.1781 -0.1647  0.0222
 7344SOL     OW29141   1.023   3.590   3.911  0.0658 -0.0010  0.3877
 7344SOL    HW229142   1.097   3.618   3.857 -1.2967  2.1081 -0.5600
 7344SOL    HW329143   0.948   3.593   3.852 -1.6037  2.9158  2.3858
 7344SOL    MW429144   1.023   3.594   3.896 -0.3343  0.6621  0.5263
 7345SOL     OW29145   1.691   1.451   6.404  0.3080  0.1632 -0.2467
 7345SOL    HW229146   1.716   1.527   6.351 -3.4669  2.6980  1.1848
 7345SOL    HW329147   1.726   1.470   6.491 -2.0888  1.2740  0.5439
 7345SOL    MW429148   1.699   1.464   6.409 -0.5063  0.6442  0.0465
 7346SOL     OW29149   3.405   5.173   6.096  0.1545 -0.1126  0.5039
 7346SOL    HW229150   3.450   5.187   6.180 -1.6139 -0.5015  1.5767
 7346SOL    HW329151   3.444   5.092   6.062  1.2176  0.2956  0.7113
 7346SOL    MW429152   3.416   5.164   6.103  0.0614 -0.1101  0.6728
 7347SOL     OW29153   3.991   1.994   3.179  0.2056 -0.3528 -1.0177
 7347SOL    HW229154   4.074   1.951   3.201 -0.1750 -0.5949 -0.0012
 7347SOL    HW329155   4.007   2.087   3.194 -0.6308 -0.6537  2.4812
 7347SOL    MW429156   4.004   2.000   3.184  0.0450 -0.4244 -0.4219
 7348SOL     OW29157   0.419   1.164   5.862  0.2323 -0.1668  0.9281
 7348SOL    HW229158   0.346   1.109   5.834 -0.6755  0.2551  2.3671
 7348SOL    HW329159   0.480   1.103   5.904  1.1898 -0.6639 -1.0679
 7348SOL    MW429160   0.417   1.148   5.864  0.2389 -0.1767  0.8546
 7349SOL     OW29161   5.542   5.070   2.301  0.1613  0.5118  1.0748
 7349SOL    HW229162   5.449   5.093   2.306  0.0554  0.6508 -0.8257
 7349SOL    HW329163   5.578   5.130   2.236  1.0017 -1.2363 -0.1599
 7349SOL    MW429164   5.535   5.081   2.293  0.2582  0.2995  0.6611
 7350SOL     OW29165   0.660   5.411   2.947 -0.2637  0.9233 -0.3091
 7350SOL    HW229166   0.697   5.498   2.963  0.2366  0.6841 -0.1333
 7350SOL    HW329167   0.652   5.406   2.852 -0.0978  1.0867 -0.3333
 7350SOL    MW429168   0.664   5.422   2.936 -0.1758  0.9133 -0.2891
 7351SOL     OW29169   3.842   1.209   2.690  0.1662  0.8053 -0.2274
 7351SOL    HW229170   3.912   1.225   2.626  1.3791  0.8200  1.0527
 7351SOL    HW329171   3.839   1.289   2.742 -0.4616  0.5915  0.0698
 7351SOL    MW429172   3.851   1.222   2.688  0.2434  0.7791 -0.0193
 7352SOL     OW29173   4.576   0.348   5.225 -0.1188 -0.6804 -0.2568
 7352SOL    HW229174   4.484   0.336   5.247 -0.3354  1.7373  0.4988
 7352SOL    HW329175   4.617   0.376   5.307  0.8298  0.2668 -1.0137
 7352SOL    MW429176   4.570   0.350   5.238 -0.0222 -0.2365 -0.2569
 7353SOL     OW29177   6.087   0.978   1.226  0.2789  0.3645  0.7205
 7353SOL    HW229178   6.113   0.915   1.160  1.0457  0.5751  0.8172
 7353SOL    HW329179   6.003   1.012   1.195  1.4480  1.7707 -1.1012
 7353SOL    MW429180   6.079   0.974   1.213  0.5343  0.5778  0.4929
 7354SOL     OW29181   3.081   5.689   1.196 -0.2437  0.1137 -0.3655
 7354SOL    HW229182   3.142   5.760   1.173 -1.5532  1.2871 -0.3088
 7354SOL    HW329183   3.121   5.611   1.157  0.3668  1.1424 -1.9319
 7354SOL    MW429184   3.095   5.688   1.188 -0.3359  0.4042 -0.5647
 7355SOL     OW29185   3.751   0.494   5.143  0.5801  0.3645 -0.1923
 7355SOL    HW229186   3.681   0.476   5.206 -1.6041  0.0539 -2.5714
 7355SOL    HW329187   3.786   0.408   5.120  0.6912  0.3961 -0.1417
 7355SOL    MW429188   3.747   0.480   5.148  0.3066  0.3277 -0.4995
 7356SOL     OW29189   5.020   0.103   2.560 -0.4205  0.0802 -0.2290
 7356SOL    HW229190   5.051   0.029   2.508 -0.2159  0.0151 -0.0167
 7356SOL    HW329191   4.925   0.106   2.544 -0.4539 -0.3313 -0.1103
 7356SOL    MW429192   5.011   0.094   2.551 -0.3979  0.0173 -0.1853
 7357SOL     OW29193   0.198   6.048   5.352  0.8286  0.1132 -0.2284
 7357SOL    HW229194   0.141   6.046   5.275  1.2299  1.1375 -0.5770
 7357SOL    HW329195   0.283   6.077   5.318  0.7666  1.5254  0.7238
 7357SOL    MW429196   0.202   6.052   5.337  0.8734  0.4347 -0.1488
 7358SOL     OW29197   4.919   0.106   6.230  0.2927  0.1315  0.7300
 7358SOL    HW229198   5.015   0.102   6.226  0.2577 -0.0086 -1.5048
 7358SOL    HW329199   4.900   0.131   6.320  2.4535  0.9292  1.0372
 7358SOL    MW429200   4.929   0.108   6.241  0.5732  0.2183  0.4757
 7359SOL     OW29201   4.122   5.776   2.506  0.1028  0.5109  0.0421
 7359SOL    HW229202   4.110   5.752   2.598  0.7453 -2.1181 -0.4841
 7359SOL    HW329203   4.194   5.840   2.507  0.2436  0.3568  1.3451
 7359SOL    MW429204   4.130   5.781   2.519  0.2061  0.1437  0.1446
 7360SOL     OW29205   0.892   1.707   0.105 -0.7492 -0.1824  0.1660
 7360SOL    HW229206   0.844   1.722   0.186  0.2751 -0.2055  0.7886
 7360SOL    HW329207   0.927   1.793   0.081  0.1860 -0.4363  0.5617
 7360SOL    MW429208   0.890   1.720   0.112 -0.4907 -0.2190  0.3003
 7361SOL     OW29209   3.113   2.530   4.866  0.0175 -0.1227  0.1485
 7361SOL    HW229210   3.157   2.560   4.787 -0.0651 -2.9579 -1.0762
 7361SOL    HW329211   3.100   2.610   4.917 -0.6761  2.0011 -3.0264
 7361SOL    MW429212   3.117   2.545   4.862 -0.0849 -0.2165 -0.4320
 7362SOL     OW29213   4.360   3.723   3.812 -0.1112  0.2304  0.3683
 7362SOL    HW229214   4.403   3.672   3.743  0.4137  3.0125 -1.5096
 7362SOL    HW329215   4.408   3.806   3.813 -3.5224  2.3716  0.2405
 7362SOL    MW429216   4.372   3.727   3.803 -0.4920  0.8800  0.1037
 7363SOL     OW29217   3.496   4.099   0.306  0.3419  0.1717  0.1739
 7363SOL    HW229218   3.449   4.099   0.223  1.2875 -0.0187 -0.3786
 7363SOL    HW329219   3.550   4.178   0.303  0.8035 -0.1302  0.3559
 7363SOL    MW429220   3.497   4.110   0.295  0.5275  0.1068  0.1250
 7364SOL     OW29221   5.799   0.473   2.660 -0.4029  0.1538  0.5387
 7364SOL    HW229222   5.705   0.455   2.654 -0.3537  0.1268 -0.4355
 7364SOL    HW329223   5.805   0.548   2.718 -0.9442 -0.4639  1.4124
 7364SOL    MW429224   5.787   0.481   2.667 -0.4679  0.0688  0.5255
 7365SOL     OW29225   6.263   0.338   4.800 -0.4182 -0.0148 -0.6007
 7365SOL    HW229226   6.190   0.276   4.803 -0.2096 -0.2280  1.0101
 7365SOL    HW329227   6.223   0.420   4.771 -1.1361 -0.3579 -0.6182
 7365SOL    MW429228   6.248   0.340   4.797 -0.4854 -0.0882 -0.3905
 7366SOL     OW29229   1.244   3.696   1.689  0.0781  0.4199 -0.0761
 7366SOL    HW229230   1.269   3.707   1.597 -0.5272  0.6927 -0.2129
 7366SOL    HW329231   1.296   3.621   1.719 -0.4730 -0.3331 -0.9392
 7366SOL    MW429232   1.254   3.688   1.681 -0.0745  0.3565 -0.2080
 7367SOL     OW29233   1.282   3.784   2.721 -0.2462 -0.0728 -0.7523
 7367SOL    HW229234   1.256   3.845   2.790  0.7231  0.2343 -0.6401
 7367SOL    HW329235   1.317   3.840   2.652  1.5785 -0.5110 -0.2436
 7367SOL    MW429236   1.284   3.799   2.721  0.1225 -0.0901 -0.6703
 7368SOL     OW29237   0.565   4.828   1.555 -0.5751  0.3207 -0.4250
 7368SOL    HW229238   0.603   4.801   1.639 -0.4305 -1.2475 -0.9734
 7368SOL    HW329239   0.636   4.875   1.512  0.0232 -0.6007 -0.4831
 7368SOL    MW429240   0.580   4.831   1.561 -0.4771 -0.0078 -0.5050
 7369SOL     OW29241   0.280   4.416   6.228  0.3724  0.1452  0.3992
 7369SOL    HW229242   0.330   4.454   6.301 -1.3822  1.2371  1.1221
 7369SOL    HW329243   0.256   4.491   6.174  1.2915 -0.6125 -1.0924
 7369SOL    MW429244   0.283   4.431   6.231  0.2621  0.1893  0.2978
 7370SOL     OW29245   2.157   4.034   2.697  0.2341 -0.3760  0.4235
 7370SOL    HW229246   2.226   4.010   2.636 -1.0407  2.8021 -2.5992
 7370SOL    HW329247   2.090   3.966   2.685  0.6841 -0.6610 -0.5918
 7370SOL    MW429248   2.157   4.022   2.687  0.1253  0.0057 -0.1092
 7371SOL     OW29249   4.340   2.901   2.052 -0.1925 -0.5813  0.3994
 7371SOL    HW229250   4.246   2.898   2.034 -0.2289 -1.5660  0.6933
 7371SOL    HW329251   4.358   2.993   2.068 -0.7691 -0.1068 -1.4099
 7371SOL    MW429252   4.330   2.912   2.051 -0.2734 -0.6486  0.1994
 7372SOL     OW29253   4.473   3.511   5.981  0.5026  0.1169  0.1456
 7372SOL    HW229254   4.429   3.578   6.034  1.8723  0.3275  1.0430
 7372SOL    HW329255   4.405   3.483   5.919 -0.5443  1.2742  0.7061
 7372SOL    MW429256   4.458   3.516   5.980  0.5452  0.2973  0.3380
 7373SOL     OW29257   3.078   0.583   5.039 -0.2567  0.2876  0.2990
 7373SOL    HW229258   3.126   0.501   5.029 -1.6114 -0.3508 -1.4474
 7373SOL    HW329259   3.130   0.633   5.103  1.2629 -1.3988  0.4790
 7373SOL    MW429260   3.091   0.579   5.046 -0.2350 -0.0191  0.0923
 7374SOL     OW29261   5.144   0.314   1.030 -0.2970 -0.1865  0.5720
 7374SOL    HW229262   5.064   0.283   0.986 -0.4258 -0.0877  0.7337
 7374SOL    HW329263   5.157   0.402   0.995  0.3555 -0.6052 -0.2700
 7374SOL    MW429264   5.135   0.322   1.020 -0.2279 -0.2287  0.4823
 7375SOL     OW29265   1.388   3.446   4.507  0.5810 -0.2062  0.4812
 7375SOL    HW229266   1.476   3.483   4.503  1.2557 -1.5353  1.9614
 7375SOL    HW329267   1.370   3.416   4.418  0.3046  2.8635 -0.5968
 7375SOL    MW429268   1.397   3.447   4.495  0.6336  0.0235  0.5342
 7376SOL     OW29269   1.212   0.029   4.713 -0.2589  0.9772 -0.0973
 7376SOL    HW229270   1.146   0.098   4.723 -1.0724  0.2007  0.0644
 7376SOL    HW329271   1.270   0.041   4.789 -0.3426  1.5216 -0.1093
 7376SOL    MW429272   1.211   0.040   4.725 -0.3773  0.9466 -0.0775
 7377SOL     OW29273   3.299   1.458   1.054  0.1463 -0.1189  0.6914
 7377SOL    HW229274   3.251   1.536   1.024  1.4401  0.7068  0.6693
 7377SOL    HW329275   3.281   1.454   1.148  0.5216  0.5489  0.7975
 7377SOL    MW429276   3.290   1.468   1.062  0.3665  0.0782  0.7024
 7378SOL     OW29277   3.195   5.941   3.314  0.8642  0.5825  0.1671
 7378SOL    HW229278   3.218   5.849   3.324  0.3636  0.4401  0.0079
 7378SOL    HW329279   3.100   5.944   3.321  0.8507  1.0444 -0.1394
 7378SOL    MW429280   3.186   5.930   3.316  0.7964  0.6247  0.1056
 7379SOL     OW29281   5.527   5.713   2.938  0.3779 -0.0825 -0.0985
 7379SOL    HW229282   5.540   5.633   2.988 -2.2406 -1.3347 -1.2078
 7379SOL    HW329283   5.433   5.730   2.945  0.5079  1.6505 -1.7263
 7379SOL    MW429284   5.516   5.705   2.945  0.0496 -0.0190 -0.4596
 7380SOL     OW29285   0.525   2.437   3.920 -0.5423  0.2106  0.0845
 7380SOL    HW229286   0.574   2.393   3.850  0.6170 -0.8587  1.5129
 7380SOL    HW329287   0.433   2.423   3.897 -0.1914  0.0747 -1.3336
 7380SOL    MW429288   0.519   2.429   3.907 -0.3431  0.0516  0.0859
 7381SOL     OW29289   5.794   1.848   4.224 -0.8690 -0.1793 -0.1489
 7381SOL    HW229290   5.755   1.935   4.225  0.3745  0.4197 -1.3989
 7381SOL    HW329291   5.842   1.842   4.307 -0.5416  0.5322 -0.2831
 7381SOL    MW429292   5.795   1.858   4.235 -0.6617 -0.0064 -0.3315
 7382SOL     OW29293   4.230   5.197   5.639 -0.2381  0.3497 -0.3268
 7382SOL    HW229294   4.283   5.135   5.589 -0.6798  0.1872 -0.5999
 7382SOL    HW329295   4.217   5.155   5.724 -0.5886  0.0436 -0.5333
 7382SOL    MW429296   4.236   5.184   5.644 -0.3426  0.2878 -0.3901
 7383SOL     OW29297   2.639   4.288   2.252  0.2423 -0.5959  0.0571
 7383SOL    HW229298   2.690   4.281   2.172 -0.4137  0.2568 -0.4509
 7383SOL    HW329299   2.574   4.218   2.246 -1.5683  1.0846 -1.5017
 7383SOL    MW429300   2.637   4.278   2.241 -0.0832 -0.2617 -0.2156
 7384SOL     OW29301   1.198   1.371   6.059  0.6038 -0.1596  0.2079
 7384SOL    HW229302   1.105   1.365   6.036  1.1266 -1.6130 -1.7336
 7384SOL    HW329303   1.238   1.422   5.989  1.3366  0.3404  0.9585
 7384SOL    MW429304   1.191   1.377   6.047  0.7694 -0.2854  0.0508
 7385SOL     OW29305   4.994   1.163   5.961  0.2223 -0.1296 -0.1223
 7385SOL    HW229306   4.916   1.127   6.002 -0.9218  1.0926 -1.1284
 7385SOL    HW329307   5.013   1.242   6.012  0.6049 -0.2274 -0.1054
 7385SOL    MW429308   4.986   1.169   5.973  0.1218  0.0187 -0.2528
 7386SOL     OW29309   1.285   2.498   2.066 -0.1714 -0.1200 -0.5584
 7386SOL    HW229310   1.290   2.588   2.098  0.0820  0.2628 -1.6253
 7386SOL    HW329311   1.193   2.485   2.044  0.0523  0.4498 -1.9293
 7386SOL    MW429312   1.274   2.508   2.067 -0.1084  0.0057 -0.8800
 7387SOL     OW29313   5.053   2.499   5.056  0.4919 -0.5607  0.2440
 7387SOL    HW229314   5.117   2.547   5.109  0.2324 -1.8072  1.7841
 7387SOL    HW329315   5.008   2.566   5.005  1.8929  0.5101  0.3685
 7387SOL    MW429316   5.056   2.514   5.056  0.6425 -0.5839  0.4636
 7388SOL     OW29317   6.411   4.126   2.495  0.1130  0.4600  0.0908
 7388SOL    HW229318   6.424   4.210   2.540 -1.1327  0.5999  0.2206
 7388SOL    HW329319   6.495   4.109   2.452  0.0561  2.3390 -0.8770
 7388SOL    MW429320   6.424   4.135   2.495 -0.0589  0.7264 -0.0198
 7389SOL     OW29321   0.596   5.703   4.594  0.0679  0.0881 -0.5773
 7389SOL    HW229322   0.554   5.690   4.680 -1.7683 -1.8049 -1.6721
 7389SOL    HW329323   0.672   5.646   4.596 -0.3082 -0.4166 -0.4103
 7389SOL    MW429324   0.600   5.694   4.606 -0.2240 -0.2283 -0.6997
 7390SOL     OW29325   4.128   3.573   5.608  0.2161  0.5665  0.3520
 7390SOL    HW229326   4.172   3.549   5.526  1.0193  1.0824  0.6150
 7390SOL    HW329327   4.157   3.506   5.670  0.3864  0.7243  0.4455
 7390SOL    MW429328   4.138   3.561   5.605  0.3445  0.6554  0.3991
 7391SOL     OW29329   6.410   4.206   5.457 -0.7497 -0.7242  0.1161
 7391SOL    HW229330   6.438   4.134   5.401  0.5809  0.1657 -0.4142
 7391SOL    HW329331   6.463   4.198   5.536 -1.0963 -0.7302  0.3494
 7391SOL    MW429332   6.421   4.196   5.460 -0.6199 -0.6076  0.0769
 7392SOL     OW29333   0.888   4.869   5.215 -0.7228 -0.0384 -0.2609
 7392SOL    HW229334   0.818   4.842   5.274  0.6136 -0.8018  1.0593
 7392SOL    HW329335   0.893   4.964   5.225 -0.3779 -0.1805  1.0613
 7392SOL    MW429336   0.879   4.878   5.224 -0.5010 -0.1579  0.0877
 7393SOL     OW29337   5.699   0.970   3.334 -0.3040 -0.0898  0.1550
 7393SOL    HW229338   5.635   0.986   3.265 -0.9970  0.2685  0.8727
 7393SOL    HW329339   5.654   0.992   3.415  0.5606 -0.3266  0.7173
 7393SOL    MW429340   5.685   0.975   3.335 -0.2814 -0.0738  0.3239
 7394SOL     OW29341   6.245   0.147   5.107 -0.1285  0.1884  0.0086
 7394SOL    HW229342   6.236   0.070   5.163 -1.5372  0.3086 -0.0132
 7394SOL    HW329343   6.303   0.118   5.036 -1.5310 -1.2488 -0.6241
 7394SOL    MW429344   6.251   0.133   5.105 -0.4994  0.0146 -0.0778
 7395SOL     OW29345   3.475   5.184   3.210  0.7887 -0.2271  0.3137
 7395SOL    HW229346   3.397   5.150   3.255  1.7091 -0.6625  1.6190
 7395SOL    HW329347   3.450   5.273   3.185 -0.4390 -0.6536 -0.0864
 7395SOL    MW429348   3.461   5.191   3.213  0.7481 -0.3408  0.4331
 7396SOL     OW29349   6.415   0.420   0.313  0.2415  0.7044 -0.5593
 7396SOL    HW229350   6.511   0.425   0.317  0.6102 -1.3574 -3.5917
 7396SOL    HW329351   6.396   0.379   0.229 -3.2721 -0.5258  0.6370
 7396SOL    MW429352   6.425   0.415   0.303 -0.1735  0.2701 -0.8016
 7397SOL     OW29353   4.391   1.944   5.708 -0.1278 -0.0613  0.9383
 7397SOL    HW229354   4.443   1.994   5.771  0.3591  3.0227 -1.6582
 7397SOL    HW329355   4.304   1.940   5.747  0.7188 -0.5551  2.9003
 7397SOL    MW429356   4.386   1.950   5.722  0.0481  0.2804  0.8546
 7398SOL     OW29357   2.238   3.863   5.485  0.1843 -0.1862 -0.8825
 7398SOL    HW229358   2.245   3.913   5.404  0.0731 -0.8570 -1.3116
 7398SOL    HW329359   2.213   3.775   5.457  0.7311 -0.5784 -0.1645
 7398SOL    MW429360   2.235   3.858   5.471  0.2418 -0.3265 -0.8444
 7399SOL     OW29361   0.973   4.016   1.783 -0.5384  0.3430 -0.2358
 7399SOL    HW229362   1.064   4.004   1.810 -0.3525 -0.5396 -1.2107
 7399SOL    HW329363   0.978   4.072   1.706 -0.9574  1.5515  0.5746
 7399SOL    MW429364   0.985   4.022   1.777 -0.5692  0.3860 -0.2575
 7400SOL     OW29365   6.201   6.323   1.456 -0.0435 -0.1060 -0.4914
 7400SOL    HW229366   6.188   6.360   1.543  1.7890  1.6474 -0.8796
 7400SOL    HW329367   6.177   6.394   1.396  1.5962 -0.1808 -1.3143
 7400SOL    MW429368   6.196   6.337   1.459  0.4146  0.1155 -0.6512
 7401SOL     OW29369   6.019   4.124   1.109 -0.0719 -0.0359 -0.6161
 7401SOL    HW229370   5.986   4.164   1.189 -0.2934 -3.0294  0.9401
 7401SOL    HW329371   6.115   4.126   1.119 -0.1066 -0.8061 -0.0013
 7401SOL    MW429372   6.028   4.130   1.121 -0.1057 -0.5325 -0.3297
 7402SOL     OW29373   3.672   5.420   2.107 -0.3858  0.4136 -0.1372
 7402SOL    HW229374   3.665   5.457   2.195 -0.0786  0.8697 -0.3031
 7402SOL    HW329375   3.764   5.434   2.083  0.0099 -1.3396  0.1897
 7402SOL    MW429376   3.683   5.426   2.116 -0.2931  0.2424 -0.1160
 7403SOL     OW29377   6.179   2.333   0.583 -0.0474 -0.1776  0.3567
 7403SOL    HW229378   6.092   2.308   0.614 -0.9036  1.2943 -0.7080
 7403SOL    HW329379   6.163   2.372   0.497  1.4885  1.3087  0.6950
 7403SOL    MW429380   6.165   2.335   0.576  0.0423  0.2127  0.2608
 7404SOL     OW29381   1.685   2.157   3.147 -0.0188  1.0981  0.2997
 7404SOL    HW229382   1.695   2.168   3.052 -1.1269 -0.1829  0.0159
 7404SOL    HW329383   1.688   2.246   3.181  1.7295  1.5086 -0.7814
 7404SOL    MW429384   1.687   2.170   3.139  0.0657  0.9832  0.1196
 7405SOL     OW29385   5.934   2.685   4.371  0.7665  0.4897  1.4646
 7405SOL    HW229386   6.025   2.657   4.358 -0.0304 -1.2687 -1.2878
 7405SOL    HW329387   5.932   2.775   4.339  1.5694  0.6468  1.8218
 7405SOL    MW429388   5.945   2.693   4.365  0.7673  0.2784  1.1486
 7406SOL     OW29389   1.550   4.622   1.963 -0.0679 -0.1268 -0.5615
 7406SOL    HW229390   1.591   4.705   1.985  1.0736 -0.8224  0.0478
 7406SOL    HW329391   1.527   4.583   2.047 -1.2863 -0.1035 -0.8660
 7406SOL    MW429392   1.552   4.628   1.977 -0.0780 -0.2155 -0.5213
 7407SOL     OW29393   1.428   2.320   2.482 -0.2952 -0.6927 -0.5209
 7407SOL    HW229394   1.484   2.394   2.508 -0.2291 -0.5548 -1.0416
 7407SOL    HW329395   1.487   2.245   2.479 -0.6209 -1.1025  1.4280
 7407SOL    MW429396   1.443   2.320   2.485 -0.3295 -0.7286 -0.3325
 7408SOL     OW29397   2.855   0.027   0.751 -0.0236  0.5892 -0.5348
 7408SOL    HW229398   2.784   0.054   0.809  0.1035 -0.8048  0.3136
 7408SOL    HW329399   2.849  -0.069   0.749  0.0787  0.5743 -2.7027
 7408SOL    MW429400   2.845   0.018   0.758  0.0067  0.4033 -0.7089
 7409SOL     OW29401   4.522   1.749   5.146  0.3010 -0.3766  0.5876
 7409SOL    HW229402   4.444   1.703   5.175 -0.4490  0.1987 -0.4621
 7409SOL    HW329403   4.554   1.700   5.071  0.4523 -0.1198  0.4800
 7409SOL    MW429404   4.516   1.737   5.140  0.2220 -0.2668  0.4349
 7410SOL     OW29405   1.061   1.790   1.677  0.0775 -0.1832 -0.2988
 7410SOL    HW229406   1.027   1.720   1.732  0.2566 -0.0235  0.0257
 7410SOL    HW329407   1.111   1.845   1.738 -1.6322  1.2955 -0.1424
 7410SOL    MW429408   1.063   1.788   1.692 -0.1245  0.0330 -0.2354
 7411SOL     OW29409   0.973   2.954   3.518 -0.0275  0.0075  0.4458
 7411SOL    HW229410   1.033   2.966   3.592 -0.8630  3.2599  0.7224
 7411SOL    HW329411   0.886   2.954   3.557 -0.4009 -1.5723 -0.2809
 7411SOL    MW429412   0.969   2.955   3.533 -0.1870  0.2282  0.3864
 7412SOL     OW29413   0.073   5.369   1.495 -0.4493 -0.9096 -0.9637
 7412SOL    HW229414   0.147   5.408   1.448 -1.1346 -0.5708 -1.8150
 7412SOL    HW329415   0.049   5.435   1.560 -0.4546 -0.6971 -1.1777
 7412SOL    MW429416   0.079   5.383   1.497 -0.5404 -0.8369 -1.1043
 7413SOL     OW29417   6.011   5.333   6.260  0.3371 -0.6392 -0.3469
 7413SOL    HW229418   6.029   5.243   6.234 -0.1671 -1.6308  2.3713
 7413SOL    HW329419   6.023   5.384   6.180 -0.2975 -3.2138 -2.2186
 7413SOL    MW429420   6.015   5.328   6.246  0.1868 -1.1097 -0.2352
 7414SOL     OW29421   4.638   4.059   3.533 -0.0073  0.9420 -0.1580
 7414SOL    HW229422   4.543   4.065   3.527  0.0834  1.2080 -1.7217
 7414SOL    HW329423   4.654   4.007   3.612 -1.4006  1.8718  0.7946
 7414SOL    MW429424   4.628   4.053   3.543 -0.1792  1.0998 -0.2386
 7415SOL     OW29425   2.096   0.295   1.716 -0.0151 -0.3182  0.0986
 7415SOL    HW229426   2.161   0.270   1.781  0.4342  0.0400 -0.2082
 7415SOL    HW329427   2.143   0.350   1.654 -0.8930  0.9924  0.5403
 7415SOL    MW429428   2.111   0.299   1.716 -0.0717 -0.0980  0.1164
 7416SOL     OW29429   1.910   6.249   3.017  0.5976 -0.1252 -0.1788
 7416SOL    HW229430   1.977   6.181   3.026  0.4175 -0.6865 -2.3986
 7416SOL    HW329431   1.828   6.204   3.034  0.6656  0.4425  2.0026
 7416SOL    MW429432   1.908   6.234   3.021  0.5828 -0.1243 -0.1839
 7417SOL     OW29433   5.148   2.549   1.257  0.1171 -0.3373 -0.0015
 7417SOL    HW229434   5.234   2.582   1.232  0.0034 -0.1858 -0.1948
 7417SOL    HW329435   5.090   2.575   1.185  0.6670 -4.0712 -1.9995
 7417SOL    MW429436   5.151   2.557   1.245  0.1747 -0.8100 -0.2906
 7418SOL     OW29437   1.096   1.966   2.555  0.2294  0.3382 -0.2227
 7418SOL    HW229438   1.175   1.998   2.600  0.0671 -1.2074  1.2496
 7418SOL    HW329439   1.031   1.959   2.624 -0.1545 -1.7648 -0.7418
 7418SOL    MW429440   1.098   1.969   2.570  0.1573 -0.1432 -0.0969
 7419SOL     OW29441   0.710   4.663   6.276  0.0773 -0.1657  0.0931
 7419SOL    HW229442   0.662   4.718   6.214  0.0375  0.4598  0.6650
 7419SOL    HW329443   0.802   4.685   6.261  0.0842 -0.2114  0.0691
 7419SOL    MW429444   0.716   4.673   6.266  0.0730 -0.0892  0.1654
 7420SOL     OW29445   5.797   1.392   5.467 -0.5806  0.3709 -0.3124
 7420SOL    HW229446   5.879   1.400   5.515 -0.6153 -1.6894  0.1749
 7420SOL    HW329447   5.810   1.446   5.389  1.7521 -0.8586 -0.8721
 7420SOL    MW429448   5.810   1.400   5.463 -0.2774 -0.0632 -0.3219
 7421SOL     OW29449   1.090   4.682   5.706 -0.2944  0.0595 -0.2181
 7421SOL    HW229450   1.047   4.686   5.792  1.6072  1.1370  0.7374
 7421SOL    HW329451   1.023   4.710   5.644 -0.6308  3.0775  1.3673
 7421SOL    MW429452   1.075   4.686   5.709 -0.0879  0.5999  0.1171
 7422SOL     OW29453   4.140   3.387   1.492 -0.3823 -0.0652  0.1561
 7422SOL    HW229454   4.227   3.347   1.491 -1.2063 -1.9482 -0.1797
 7422SOL    HW329455   4.153   3.469   1.540  1.6734 -0.0075 -0.3669
 7422SOL    MW429456   4.154   3.393   1.498 -0.2198 -0.3060  0.0428
 7423SOL     OW29457   2.184   0.142   1.376 -0.0243 -0.6368  0.0528
 7423SOL    HW229458   2.277   0.137   1.396 -0.2814  1.0675  2.1055
 7423SOL    HW329459   2.141   0.109   1.455 -1.1110  1.3300  0.3612
 7423SOL    MW429460   2.190   0.137   1.389 -0.2016 -0.1525  0.3643
 7424SOL     OW29461   4.727   3.001   1.115 -0.8958  0.7976 -0.2891
 7424SOL    HW229462   4.701   3.081   1.159 -0.8896  0.0029  1.2366
 7424SOL    HW329463   4.693   2.931   1.171 -2.3746 -0.3176 -2.4221
 7424SOL    MW429464   4.719   3.002   1.128 -1.0901  0.5456 -0.3692
 7425SOL     OW29465   4.780   0.022   5.249  0.0348  0.2509  0.1040
 7425SOL    HW229466   4.824   0.066   5.322  0.7186 -0.6555  0.2721
 7425SOL    HW329467   4.810  -0.069   5.256 -1.9313 -0.4243  0.2453
 7425SOL    MW429468   4.790   0.016   5.260 -0.1344  0.0422  0.1448
 7426SOL     OW29469   5.652   3.057   3.022  0.2797  0.1077 -0.4723
 7426SOL    HW229470   5.607   3.125   2.973 -1.6702 -0.9188 -0.2332
 7426SOL    HW329471   5.582   2.997   3.049  1.8590 -1.8541 -0.4615
 7426SOL    MW429472   5.637   3.058   3.019  0.2308 -0.2865 -0.4394
 7427SOL     OW29473   4.828   1.127   4.227 -0.1531 -0.4212  0.3779
 7427SOL    HW229474   4.801   1.208   4.184  0.4597  0.3620  1.4004
 7427SOL    HW329475   4.746   1.082   4.248 -0.4731 -0.4706 -0.9229
 7427SOL    MW429476   4.813   1.132   4.224 -0.1145 -0.3244  0.3412
 7428SOL     OW29477   0.115   5.019   5.549  0.0174  0.4163  0.4136
 7428SOL    HW229478   0.099   4.942   5.495  0.3831  1.1010 -0.7057
 7428SOL    HW329479   0.167   4.987   5.623 -0.6113 -0.5614  0.4465
 7428SOL    MW429480   0.120   5.005   5.552 -0.0173  0.3776  0.2703
 7429SOL     OW29481   1.088   4.536   0.191 -0.1383 -0.1486 -0.4523
 7429SOL    HW229482   1.000   4.500   0.198  0.1866 -0.7913  0.6036
 7429SOL    HW329483   1.144   4.459   0.177  0.2221  0.2972 -1.6230
 7429SOL    MW429484   1.084   4.521   0.190 -0.0479 -0.1746 -0.4674
 7430SOL     OW29485   0.087   5.831   5.680 -1.1310  0.3388  0.4609
 7430SOL    HW229486   0.075   5.924   5.660 -1.3378  0.2978  0.3973
 7430SOL    HW329487   0.153   5.830   5.750 -0.4574  0.4818 -0.1629
 7430SOL    MW429488   0.094   5.843   5.687 -1.0694  0.3522  0.3702
 7431SOL     OW29489   5.129   1.219   5.250  0.4645 -0.6027 -0.1063
 7431SOL    HW229490   5.151   1.304   5.289 -2.8395  0.4356 -0.2390
 7431SOL    HW329491   5.068   1.240   5.180 -0.9513 -3.1333  0.2741
 7431SOL    MW429492   5.124   1.233   5.246 -0.1582 -0.7996 -0.0736
 7432SOL     OW29493   4.139   0.016   1.900 -0.1421  0.0038  0.5948
 7432SOL    HW229494   4.150   0.100   1.945 -1.3857  0.5097 -0.0040
 7432SOL    HW329495   4.046  -0.002   1.905  0.0080 -0.9885  0.0811
 7432SOL    MW429496   4.128   0.025   1.906 -0.2864 -0.0604  0.4480
 7433SOL     OW29497   0.800   2.710   4.869  0.2145  0.2607 -0.1003
 7433SOL    HW229498   0.788   2.756   4.786  2.0453  0.1534 -0.4706
 7433SOL    HW329499   0.879   2.750   4.906 -0.3518  0.0261  1.4049
 7433SOL    MW429500   0.809   2.722   4.863  0.3813  0.2156  0.0494
 7434SOL     OW29501   5.528   2.911   6.195  0.3933 -0.3546 -0.0625
 7434SOL    HW229502   5.535   2.997   6.153  1.7677 -1.0656 -1.3724
 7434SOL    HW329503   5.612   2.899   6.240 -0.9707  0.3144  2.9036
 7434SOL    MW429504   5.540   2.921   6.195  0.3947 -0.3602  0.1560
 7435SOL     OW29505   3.823   5.426   3.845  0.4485  0.5421 -0.0743
 7435SOL    HW229506   3.813   5.341   3.803 -0.8053  1.0794 -0.9363
 7435SOL    HW329507   3.863   5.407   3.930 -0.3406 -0.9519 -0.0049
 7435SOL    MW429508   3.827   5.413   3.850  0.1790  0.4159 -0.1789
 7436SOL     OW29509   5.181   5.843   1.893  0.0720  0.3307  0.2979
 7436SOL    HW229510   5.112   5.873   1.833  0.7945  1.0805 -0.1796
 7436SOL    HW329511   5.172   5.900   1.970  2.0179  2.5336 -0.9686
 7436SOL    MW429512   5.170   5.855   1.895  0.4240  0.7203  0.0678
 7437SOL     OW29513   3.957   4.901   4.638  0.1184  0.1885 -0.1346
 7437SOL    HW229514   3.896   4.966   4.603 -0.9941  0.6477  2.3912
 7437SOL    HW329515   3.900   4.833   4.674  1.0866  0.2958  1.6999
 7437SOL    MW429516   3.941   4.900   4.638  0.0994  0.2632  0.4407
 7438SOL     OW29517   2.324   1.705   1.418  0.4363 -0.1691  0.1107
 7438SOL    HW229518   2.384   1.773   1.449 -1.5663  1.9584 -0.3685
 7438SOL    HW329519   2.373   1.658   1.351  1.1420  2.4474 -1.3207
 7438SOL    MW429520   2.338   1.708   1.413  0.2652  0.4568 -0.1414
 7439SOL     OW29521   2.553   5.814   3.357  0.4211  0.3176 -0.0746
 7439SOL    HW229522   2.552   5.822   3.453  0.2343 -0.9506  0.0493
 7439SOL    HW329523   2.566   5.903   3.326  0.8062  0.7138  1.1440
 7439SOL    MW429524   2.554   5.827   3.366  0.4472  0.2025  0.1025
 7440SOL     OW29525   3.477   4.112   2.425  0.0270  0.0542  0.1181
 7440SOL    HW229526   3.450   4.024   2.449 -0.7867  0.3036  0.1387
 7440SOL    HW329527   3.397   4.164   2.426  0.4663  0.7640 -0.0517
 7440SOL    MW429528   3.463   4.107   2.429 -0.0224  0.1808  0.0984
 7441SOL     OW29529   1.582   5.427   1.630 -0.0670 -0.0716 -0.2938
 7441SOL    HW229530   1.551   5.385   1.550 -0.9651 -1.3972  0.6968
 7441SOL    HW329531   1.504   5.466   1.669  0.4077  0.8008 -0.1686
 7441SOL    MW429532   1.568   5.427   1.625 -0.1229 -0.1314 -0.1466
 7442SOL     OW29533   0.148   2.473   5.365 -0.2205  0.7526  0.1967
 7442SOL    HW229534   0.115   2.447   5.278 -3.8267  0.5669  1.4235
 7442SOL    HW329535   0.176   2.391   5.405  0.0346  0.6083 -0.2711
 7442SOL    MW429536   0.147   2.458   5.359 -0.6626  0.7091  0.2968
 7443SOL     OW29537   5.369   4.593   5.525  0.6000 -0.5124 -0.3012
 7443SOL    HW229538   5.395   4.560   5.611 -0.4205  1.1085  0.6887
 7443SOL    HW329539   5.290   4.646   5.542  0.1825 -0.4096 -2.2818
 7443SOL    MW429540   5.362   4.596   5.539  0.4103 -0.2849 -0.4320
 7444SOL     OW29541   3.123   4.835   3.489 -0.8222 -0.2013 -0.8172
 7444SOL    HW229542   3.175   4.907   3.452  0.6156 -1.1192 -0.6463
 7444SOL    HW329543   3.032   4.864   3.480 -0.2630  2.6811  1.3253
 7444SOL    MW429544   3.118   4.849   3.483 -0.5587  0.0579 -0.5119
 7445SOL     OW29545   1.247   2.088   0.697 -0.3436 -0.5991 -0.2875
 7445SOL    HW229546   1.342   2.087   0.710 -0.3174 -0.3844 -0.4429
 7445SOL    HW329547   1.217   2.001   0.724  0.3116 -1.8932 -3.3382
 7445SOL    MW429548   1.255   2.077   0.702 -0.2537 -0.7415 -0.7105
 7446SOL     OW29549   4.793   5.118   3.419  0.1543 -0.5830  0.0876
 7446SOL    HW229550   4.814   5.047   3.480 -0.1272 -0.2206  0.6129
 7446SOL    HW329551   4.861   5.183   3.435  1.3580 -1.3709 -1.4992
 7446SOL    MW429552   4.805   5.117   3.429  0.2760 -0.6392 -0.0525
 7447SOL     OW29553   6.089   3.353   1.724  0.3070 -0.6346 -0.9351
 7447SOL    HW229554   6.130   3.439   1.732  0.3796 -0.7209 -0.2386
 7447SOL    HW329555   6.053   3.350   1.636  0.2384  0.1398 -0.9355
 7447SOL    MW429556   6.090   3.364   1.714  0.3075 -0.5438 -0.8432
 7448SOL     OW29557   0.385   3.037   2.489 -0.7953 -0.1229 -0.6765
 7448SOL    HW229558   0.359   3.107   2.548 -0.8333  0.5769 -1.5085
 7448SOL    HW329559   0.305   3.013   2.443 -0.9461 -1.2462  0.1313
 7448SOL    MW429560   0.371   3.043   2.491 -0.8202 -0.1787 -0.6797
 7449SOL     OW29561   1.921   2.611   0.970 -0.0301  0.0058  0.6159
 7449SOL    HW229562   1.972   2.533   0.950  1.1189  0.8517  0.1278
 7449SOL    HW329563   1.885   2.638   0.885  0.7827  0.8049  0.5017
 7449SOL    MW429564   1.923   2.605   0.956  0.2287  0.2228  0.5364
 7450SOL     OW29565   1.094   0.454   5.597 -0.0933  0.2757 -0.7618
 7450SOL    HW229566   1.009   0.457   5.640  0.1199  1.4741 -0.3942
 7450SOL    HW329567   1.093   0.372   5.547 -0.4011 -1.1225  1.4072
 7450SOL    MW429568   1.083   0.443   5.596 -0.1058  0.2493 -0.4271
 7451SOL     OW29569   4.241   0.037   0.582  0.1049  0.3127 -0.3925
 7451SOL    HW229570   4.300   0.061   0.511  0.9989  1.9614  0.8350
 7451SOL    HW329571   4.265  -0.053   0.604  2.6369  1.1298  0.4653
 7451SOL    MW429572   4.252   0.028   0.576  0.5569  0.6380 -0.1174
 7452SOL     OW29573   2.227   2.866   0.160 -0.4081  0.2319  0.6695
 7452SOL    HW229574   2.306   2.818   0.182 -0.3359 -0.2264 -0.5250
 7452SOL    HW329575   2.246   2.956   0.188  1.9296  0.9266 -2.5698
 7452SOL    MW429576   2.240   2.872   0.167 -0.0902  0.2631  0.0846
 7453SOL     OW29577   4.939   0.632   2.861  0.2770 -0.6852  0.2991
 7453SOL    HW229578   4.931   0.685   2.941  0.4297 -0.3353  0.0862
 7453SOL    HW329579   4.849   0.609   2.839  0.3123 -1.9093  1.3124
 7453SOL    MW429580   4.926   0.636   2.869  0.3018 -0.8005  0.4047
 7454SOL     OW29581   0.034   4.567   2.063 -0.2612 -0.1614  0.2851
 7454SOL    HW229582   0.038   4.472   2.057  0.6109 -0.0488 -1.5320
 7454SOL    HW329583   0.126   4.595   2.059 -0.5422  0.7894  0.1606
 7454SOL    MW429584   0.047   4.558   2.062 -0.1832 -0.0211  0.0289
 7455SOL     OW29585   5.037   5.819   6.096  0.4209 -0.2833  0.0408
 7455SOL    HW229586   5.079   5.787   6.176  0.4534 -0.1659  0.0720
 7455SOL    HW329587   5.056   5.752   6.030  1.7665  0.3567 -0.2789
 7455SOL    MW429588   5.045   5.806   6.098  0.6027 -0.1834  0.0028
 7456SOL     OW29589   0.250   5.506   5.421  0.2276 -0.0124  0.1216
 7456SOL    HW229590   0.174   5.450   5.403  0.4714 -0.6352  0.9755
 7456SOL    HW329591   0.224   5.593   5.390 -0.9130 -0.1801  0.5649
 7456SOL    MW429592   0.237   5.510   5.415  0.1093 -0.1167  0.2927
 7457SOL     OW29593   1.707   3.530   2.386 -0.0413 -0.0315  0.2409
 7457SOL    HW229594   1.680   3.504   2.474 -2.3557  0.4554 -0.2609
 7457SOL    HW329595   1.761   3.607   2.399  0.5814 -0.6281  1.2813
 7457SOL    MW429596   1.711   3.537   2.399 -0.2645 -0.0460  0.3119
 7458SOL     OW29597   6.101   5.722   1.837  0.1167 -0.0672 -0.3433
 7458SOL    HW229598   6.007   5.702   1.837 -0.3558  1.9313 -0.2980
 7458SOL    HW329599   6.132   5.692   1.752 -0.4773 -1.0150 -0.2454
 7458SOL    MW429600   6.093   5.716   1.826 -0.0240  0.0714 -0.3244
 7459SOL     OW29601   1.119   5.825   3.961 -0.4797 -0.1090  0.1040
 7459SOL    HW229602   1.099   5.898   4.020 -0.8671  1.0970 -1.4371
 7459SOL    HW329603   1.215   5.819   3.963 -0.4540  0.3355  0.3780
 7459SOL    MW429604   1.129   5.834   3.969 -0.5274  0.1088 -0.0632
 7460SOL     OW29605   3.296   2.621   4.664 -0.1302  0.0962  0.8531
 7460SOL    HW229606   3.366   2.668   4.709  0.4500 -0.2821  0.3697
 7460SOL    HW329607   3.281   2.671   4.583  0.3617 -0.4205  0.4269
 7460SOL    MW429608   3.303   2.634   4.659  0.0113 -0.0219  0.7331
 7461SOL     OW29609   5.492   2.966   5.654 -0.7349  0.5609  0.4116
 7461SOL    HW229610   5.526   2.978   5.743  1.1156 -0.1065 -0.1447
 7461SOL    HW329611   5.446   2.883   5.656  0.2076  0.0310  0.5198
 7461SOL    MW429612   5.491   2.957   5.666 -0.3664  0.4030  0.3525
 7462SOL     OW29613   1.424   5.926   2.351 -0.0850  0.7887 -0.1346
 7462SOL    HW229614   1.500   5.911   2.295  0.4180 -0.4898  0.8275
 7462SOL    HW329615   1.460   5.921   2.440 -1.5554 -1.7604  0.4050
 7462SOL    MW429616   1.439   5.924   2.356 -0.2126  0.2837  0.0635
 7463SOL     OW29617   0.948   5.733   2.706 -0.3943  0.2472 -0.1018
 7463SOL    HW229618   0.864   5.767   2.738  0.7666  2.0186  1.2250
 7463SOL    HW329619   0.934   5.723   2.611 -1.5530  2.2703 -0.2032
 7463SOL    MW429620   0.935   5.736   2.698 -0.3940  0.7478  0.0599
 7464SOL     OW29621   3.833   3.929   5.606 -0.1639  0.0337 -0.1043
 7464SOL    HW229622   3.880   3.901   5.527  1.7329 -1.0757  1.3390
 7464SOL    HW329623   3.867   3.873   5.675 -2.1562  0.6259  1.4384
 7464SOL    MW429624   3.844   3.918   5.604 -0.1765 -0.0345  0.2897
 7465SOL     OW29625   5.585   4.895   4.922 -0.5821 -0.7259 -0.3477
 7465SOL    HW229626   5.580   4.972   4.866 -0.5953 -2.2969 -2.6240
 7465SOL    HW329627   5.627   4.926   5.002  0.6041  1.3461 -1.7072
 7465SOL    MW429628   5.590   4.909   4.925 -0.4274 -0.6598 -0.8274
 7466SOL     OW29629   3.387   3.527   1.890  0.2480 -0.4824  0.0509
 7466SOL    HW229630   3.359   3.470   1.961  0.0493 -0.2097  0.1951
 7466SOL    HW329631   3.377   3.474   1.811 -0.5866 -0.4262  0.1090
 7466SOL    MW429632   3.382   3.513   1.889  0.1117 -0.4390  0.0776
 7467SOL     OW29633   3.433   4.567   6.043 -0.0837  0.1831  0.2613
 7467SOL    HW229634   3.352   4.602   6.080  0.9353  0.5650  2.2719
 7467SOL    HW329635   3.500   4.589   6.107  1.1379 -2.7496  0.1656
 7467SOL    MW429636   3.431   4.574   6.056  0.2119 -0.1535  0.5140
 7468SOL     OW29637   4.930   2.242   0.080  0.0068  0.7314 -0.3261
 7468SOL    HW229638   4.850   2.192   0.095  0.3020 -0.4687 -2.3128
 7468SOL    HW329639   4.940   2.241  -0.016  1.6385  2.0747 -0.2014
 7468SOL    MW429640   4.920   2.236   0.069  0.2610  0.7503 -0.5717
 7469SOL     OW29641   1.106   6.111   2.610 -0.2974  0.2777  0.1427
 7469SOL    HW229642   1.067   6.079   2.529 -0.3409 -2.3369  1.1152
 7469SOL    HW329643   1.040   6.093   2.678  1.2999 -1.3611  1.3451
 7469SOL    MW429644   1.092   6.105   2.609 -0.0924 -0.2835  0.4296
 7470SOL     OW29645   6.064   5.222   4.536  0.8218  0.0576  0.6034
 7470SOL    HW229646   6.027   5.235   4.449 -1.6704  1.1912  1.7293
 7470SOL    HW329647   6.155   5.252   4.529  0.6373  0.2435 -1.5229
 7470SOL    MW429648   6.071   5.227   4.524  0.4687  0.2317  0.4714
 7471SOL     OW29649   6.197   4.016   4.724  0.1642  0.2674 -0.2123
 7471SOL    HW229650   6.125   4.066   4.686  0.9243  0.8663 -0.9106
 7471SOL    HW329651   6.207   4.051   4.813 -1.4081 -0.9071  0.4619
 7471SOL    MW429652   6.189   4.027   4.731  0.0570  0.1915 -0.2154
 7472SOL     OW29653   2.966   0.177   1.322  0.1358 -0.3964  0.0824
 7472SOL    HW229654   2.906   0.141   1.257 -1.8164  1.5998  0.6198
 7472SOL    HW329655   2.999   0.257   1.281 -0.9173  0.7432  1.3471
 7472SOL    MW429656   2.962   0.183   1.308 -0.2607  0.0173  0.3202
 7473SOL     OW29657   6.377   5.987   3.702  0.0159  0.4922 -0.6818
 7473SOL    HW229658   6.456   6.009   3.652  0.9185  0.4448  0.6838
 7473SOL    HW329659   6.397   5.902   3.741 -1.2173 -0.1158 -1.3073
 7473SOL    MW429660   6.390   5.979   3.701 -0.0277  0.4057 -0.5842
 7474SOL     OW29661   2.965   0.936   5.168  0.5549  0.1574  0.4545
 7474SOL    HW229662   3.032   0.868   5.161  0.7417  0.1893  1.6970
 7474SOL    HW329663   3.013   1.015   5.193  0.2827  0.6653 -0.5603
 7474SOL    MW429664   2.980   0.937   5.170  0.5436  0.2286  0.4846
 7475SOL     OW29665   0.530   3.145   1.842 -0.0452  0.0174 -0.5952
 7475SOL    HW229666   0.605   3.089   1.825 -1.0040 -2.0244  1.3898
 7475SOL    HW329667   0.456   3.085   1.850 -1.2716  1.6117  0.9192
 7475SOL    MW429668   0.530   3.130   1.841 -0.3335 -0.0416 -0.1335
 7476SOL     OW29669   0.860   1.964   5.100  0.4583  0.4759  0.2818
 7476SOL    HW229670   0.885   1.932   5.187  1.0003 -0.7300 -0.3005
 7476SOL    HW329671   0.803   1.895   5.064 -0.4880  1.3632  0.0097
 7476SOL    MW429672   0.856   1.951   5.107  0.4050  0.4339  0.1691
 7477SOL     OW29673   2.881   4.264   4.784  0.1529  0.2771  0.2413
 7477SOL    HW229674   2.910   4.342   4.736 -0.7018  0.1538 -0.4821
 7477SOL    HW329675   2.941   4.195   4.757  0.9901  0.6942  0.9738
 7477SOL    MW429676   2.893   4.265   4.774  0.1506  0.3159  0.2425
 7478SOL     OW29677   1.791   1.771   0.402 -0.1627 -0.2484  0.1311
 7478SOL    HW229678   1.855   1.793   0.471  2.2570 -2.2472 -1.2931
 7478SOL    HW329679   1.746   1.694   0.436 -0.6935  0.2119  0.4758
 7478SOL    MW429680   1.794   1.764   0.416  0.0865 -0.4514 -0.0113
 7479SOL     OW29681   5.748   3.344   2.712  0.0668 -0.5553  0.7551
 7479SOL    HW229682   5.814   3.278   2.732  1.6928  0.9082  0.4532
 7479SOL    HW329683   5.738   3.341   2.617 -0.5706 -0.9866  0.8257
 7479SOL    MW429684   5.755   3.335   2.702  0.1973 -0.4191  0.7245
 7480SOL     OW29685   0.801   3.269   0.156  0.7213 -0.4098 -0.0818
 7480SOL    HW229686   0.825   3.210   0.227  1.4840 -0.5164 -0.4197
 7480SOL    HW329687   0.875   3.266   0.096  0.4102  0.2550 -0.5138
 7480SOL    MW429688   0.814   3.261   0.158  0.7809 -0.3361 -0.1834
 7481SOL     OW29689   2.926   3.357   1.391 -0.0744 -0.1526  0.4626
 7481SOL    HW229690   2.850   3.416   1.392 -1.0128 -1.1357  4.1526
 7481SOL    HW329691   3.000   3.414   1.413 -0.2132  0.3408 -0.3148
 7481SOL    MW429692   2.926   3.372   1.394 -0.2165 -0.2172  0.8469
 7482SOL     OW29693   2.068   1.081   2.188 -0.7436 -0.1127  0.1494
 7482SOL    HW229694   2.124   1.064   2.112  0.7795  1.8367  0.7710
 7482SOL    HW329695   2.033   1.169   2.173  0.2042  0.6269  2.0446
 7482SOL    MW429696   2.071   1.090   2.176 -0.4176  0.2421  0.4814
 7483SOL     OW29697   5.837   4.604   3.767  0.2080  0.1146 -0.1393
 7483SOL    HW229698   5.886   4.582   3.688 -2.8723 -1.1658 -1.8596
 7483SOL    HW329699   5.785   4.681   3.742 -0.3108  0.1041  0.8595
 7483SOL    MW429700   5.836   4.611   3.753 -0.2668 -0.0557 -0.2345
 7484SOL     OW29701   5.063   5.796   3.232 -0.0570  0.1525 -0.4230
 7484SOL    HW229702   5.028   5.885   3.227 -0.2230  0.0439 -1.5167
 7484SOL    HW329703   5.005   5.744   3.176  0.5797 -0.4584 -0.5377
 7484SOL    MW429704   5.051   5.801   3.224  0.0051  0.0575 -0.5824
 7485SOL     OW29705   0.033   1.088   5.366  0.1357 -0.0966 -0.0698
 7485SOL    HW229706  -0.056   1.112   5.338  0.4238 -0.0871 -1.0279
 7485SOL    HW329707   0.038   1.118   5.456 -0.7304  0.1988 -0.1049
 7485SOL    MW429708   0.022   1.095   5.374  0.0594 -0.0563 -0.2009
 7486SOL     OW29709   4.882   3.598   0.094 -0.2946 -0.1168  0.3454
 7486SOL    HW229710   4.974   3.623   0.101 -0.6404  1.3493  0.1550
 7486SOL    HW329711   4.880   3.527   0.030  0.6601  0.1015  0.0675
 7486SOL    MW429712   4.894   3.592   0.086 -0.2142  0.1054  0.2836
 7487SOL     OW29713   0.450   0.348   0.882  0.2912  0.9258  1.1168
 7487SOL    HW229714   0.446   0.253   0.868 -1.0845  0.9963  0.9004
 7487SOL    HW329715   0.542   0.365   0.902  0.8780 -0.2293 -0.3806
 7487SOL    MW429716   0.462   0.338   0.883  0.1871  0.7827  0.8907
 7488SOL     OW29717   1.925   2.146   5.141 -0.4337  0.2668  0.0146
 7488SOL    HW229718   1.832   2.144   5.165  0.1337 -0.3867  2.5118
 7488SOL    HW329719   1.947   2.239   5.139 -1.0090  0.4062 -0.0050
 7488SOL    MW429720   1.916   2.158   5.144 -0.4347  0.1990  0.3415
 7489SOL     OW29721   0.689   3.269   5.762 -0.0488 -0.2039  0.2623
 7489SOL    HW229722   0.601   3.234   5.772 -1.4245  1.8275 -2.9860
 7489SOL    HW329723   0.742   3.195   5.734 -1.1300 -1.1193  0.5983
 7489SOL    MW429724   0.685   3.255   5.759 -0.3730 -0.0567 -0.1219
 7490SOL     OW29725   5.818   0.685   4.241  0.6356 -0.2857  0.5435
 7490SOL    HW229726   5.842   0.771   4.208  0.0529 -0.6463 -0.8903
 7490SOL    HW329727   5.888   0.628   4.211  1.3670 -0.2294  2.0572
 7490SOL    MW429728   5.830   0.689   4.233  0.6552 -0.3259  0.5540
 7491SOL     OW29729   2.683   1.971   3.353 -0.6915  0.0553 -0.1679
 7491SOL    HW229730   2.605   1.985   3.300 -0.2276  2.1658 -0.3694
 7491SOL    HW329731   2.666   2.021   3.434 -0.8414 -2.0486  1.1864
 7491SOL    MW429732   2.670   1.980   3.357 -0.6500  0.0562 -0.0158
 7492SOL     OW29733   2.861   3.707   1.607 -0.4896  0.6424  0.0186
 7492SOL    HW229734   2.944   3.671   1.638 -0.0143  1.0612 -0.7282
 7492SOL    HW329735   2.837   3.772   1.673 -1.5186 -1.1745  1.5472
 7492SOL    MW429736   2.869   3.711   1.620 -0.5626  0.4579  0.1217
 7493SOL     OW29737   1.588   5.315   1.344  0.2978 -0.1580 -0.2057
 7493SOL    HW229738   1.540   5.240   1.310 -0.6565  0.2425  0.2170
 7493SOL    HW329739   1.571   5.385   1.281  1.0757 -0.2482 -0.5292
 7493SOL    MW429740   1.579   5.315   1.332  0.2746 -0.1171 -0.1926
 7494SOL     OW29741   4.109   2.693   5.427  0.3343 -0.0705  0.0182
 7494SOL    HW229742   4.065   2.665   5.507  1.4137 -0.2136  0.5678
 7494SOL    HW329743   4.093   2.787   5.422  1.6762  0.2505  1.3062
 7494SOL    MW429744   4.101   2.701   5.437  0.6538 -0.0470  0.2606
 7495SOL     OW29745   4.539   0.020   1.672  0.1188 -0.1742 -0.1462
 7495SOL    HW229746   4.491   0.098   1.701  0.2059  0.4581 -1.5857
 7495SOL    HW329747   4.485  -0.053   1.701 -1.0018  0.4870 -0.4878
 7495SOL    MW429748   4.525   0.021   1.679 -0.0176 -0.0035 -0.3812
 7496SOL     OW29749   3.756   5.656   5.782 -0.0609 -0.4932  0.3537
 7496SOL    HW229750   3.741   5.685   5.872  1.2322 -0.1475  0.4826
 7496SOL    HW329751   3.722   5.727   5.728  0.1422 -0.2069  0.5986
 7496SOL    MW429752   3.750   5.669   5.787  0.1365 -0.4098  0.4030
 7497SOL     OW29753   0.510   2.643   1.665  0.3841  0.3151 -0.3371
 7497SOL    HW229754   0.549   2.578   1.723  0.1220 -0.9918 -1.5704
 7497SOL    HW329755   0.424   2.661   1.703 -0.0641 -1.0397 -0.6634
 7497SOL    MW429756   0.504   2.637   1.677  0.2904 -0.0361 -0.5429
 7498SOL     OW29757   6.320   2.370   5.584 -0.0863  0.0678 -0.2775
 7498SOL    HW229758   6.411   2.375   5.554 -0.1799  2.0861 -0.3901
 7498SOL    HW329759   6.324   2.315   5.663  1.1978 -0.0088 -0.3779
 7498SOL    MW429760   6.333   2.363   5.591  0.0708  0.3240 -0.3056
 7499SOL     OW29761   5.156   3.740   3.924 -0.1274 -0.4027  0.1589
 7499SOL    HW229762   5.114   3.811   3.875 -1.5351 -0.9148  0.5600
 7499SOL    HW329763   5.186   3.781   4.005  2.3290  0.4779 -1.0961
 7499SOL    MW429764   5.154   3.755   3.928  0.0110 -0.3541  0.0462
 7500SOL     OW29765   2.860   2.820   5.151 -0.3948 -0.3632  1.4226
 7500SOL    HW229766   2.867   2.747   5.211  1.3244 -1.8307 -0.4222
 7500SOL    HW329767   2.768   2.820   5.123 -0.1659 -2.7512  0.4484
 7500SOL    MW429768   2.849   2.811   5.155 -0.1378 -0.8719  1.0507
 7501SOL     OW29769   2.745   0.976   5.974  0.2659 -0.1425  0.2326
 7501SOL    HW229770   2.787   1.017   6.050  0.6990 -1.2263  0.6019
 7501SOL    HW329771   2.659   0.947   6.007 -0.2798  0.9499 -0.1829
 7501SOL    MW429772   2.739   0.978   5.988  0.2511 -0.1414  0.2265
 7502SOL     OW29773   0.808   0.598   4.377  0.1415  0.5419  0.0206
 7502SOL    HW229774   0.821   0.549   4.458  0.7619 -0.3175 -0.5777
 7502SOL    HW329775   0.842   0.540   4.308 -0.3306  1.2719 -0.8468
 7502SOL    MW429776   0.814   0.584   4.378  0.1611  0.5248 -0.1728
 7503SOL     OW29777   2.241   3.894   6.417 -0.1847  0.4597  0.9176
 7503SOL    HW229778   2.301   3.825   6.444 -0.3527 -0.9158 -1.8715
 7503SOL    HW329779   2.295   3.954   6.366 -0.8169  0.1757 -0.0976
 7503SOL    MW429780   2.256   3.892   6.414 -0.2903  0.2407  0.4157
 7504SOL     OW29781   3.226   1.615   0.677 -0.2943 -0.3612  0.9495
 7504SOL    HW229782   3.304   1.611   0.622  0.4856 -1.7968  2.0866
 7504SOL    HW329783   3.169   1.679   0.634  1.3624  0.4876 -0.0783
 7504SOL    MW429784   3.229   1.623   0.664  0.0272 -0.4386  0.9639
 7505SOL     OW29785   1.517   5.813   3.190  0.3113  0.4002 -0.2746
 7505SOL    HW229786   1.488   5.722   3.183  0.2246  0.3981  0.0740
 7505SOL    HW329787   1.600   5.816   3.143  0.1543  0.2163 -0.5674
 7505SOL    MW429788   1.524   5.802   3.183  0.2792  0.3757 -0.2672
 7506SOL     OW29789   2.340   1.409   1.037 -0.0929  0.1390  0.3482
 7506SOL    HW229790   2.342   1.435   0.945 -0.9853 -2.0035 -0.3473
 7506SOL    HW329791   2.264   1.453   1.073  0.4220  1.2156  0.1521
 7506SOL    MW429792   2.330   1.418   1.029 -0.1427 -0.0016  0.2305
 7507SOL     OW29793   4.303   2.443   1.581  0.2536  0.9055 -0.4865
 7507SOL    HW229794   4.345   2.428   1.496 -0.0709 -0.2292 -0.4663
 7507SOL    HW329795   4.209   2.449   1.560  0.1383  0.2613 -0.1691
 7507SOL    MW429796   4.296   2.442   1.567  0.1955  0.6708 -0.4419
 7508SOL     OW29797   5.542   4.896   3.804  0.3538  0.0007 -0.4245
 7508SOL    HW229798   5.609   4.867   3.743  1.3161  1.2344  0.0027
 7508SOL    HW329799   5.491   4.961   3.755 -1.2010 -1.6175 -1.0725
 7508SOL    MW429800   5.544   4.901   3.790  0.2757 -0.0500 -0.4536
 7509SOL     OW29801   2.756   4.534   1.494  0.1539  0.5319  0.1241
 7509SOL    HW229802   2.843   4.572   1.504  0.0785  0.6815  0.2197
 7509SOL    HW329803   2.696   4.609   1.504  0.0696  0.7396 -1.6408
 7509SOL    MW429804   2.760   4.549   1.497  0.1328  0.5791 -0.0962
 7510SOL     OW29805   2.427   3.659   6.368  0.3110 -0.0361 -0.5269
 7510SOL    HW229806   2.451   3.670   6.460  0.6042 -0.0614 -0.5981
 7510SOL    HW329807   2.510   3.664   6.321  0.1403  0.1901 -0.8103
 7510SOL    MW429808   2.441   3.661   6.374  0.3272 -0.0096 -0.5737
 7511SOL     OW29809   1.285   4.147   5.833  0.2333 -0.2506 -0.1905
 7511SOL    HW229810   1.288   4.222   5.774  0.8655  0.1762  0.3707
 7511SOL    HW329811   1.278   4.071   5.775 -0.9863  0.2634 -0.7483
 7511SOL    MW429812   1.285   4.147   5.818  0.1558 -0.1264 -0.1901
 7512SOL     OW29813   5.144   0.923   5.067 -0.5769  0.2591  0.6676
 7512SOL    HW229814   5.062   0.960   5.101 -0.1399  0.2958  1.7154
 7512SOL    HW329815   5.168   0.982   4.995 -0.2712  1.6259  1.8365
 7512SOL    MW429816   5.136   0.936   5.062 -0.4789  0.4443  0.9601
 7513SOL     OW29817   3.485   2.077   4.027  0.3135 -0.3555 -0.5652
 7513SOL    HW229818   3.564   2.130   4.020  0.3766 -0.5379 -1.3797
 7513SOL    HW329819   3.439   2.110   4.104  0.3076  0.9364 -1.1058
 7513SOL    MW429820   3.489   2.088   4.036  0.3210 -0.2091 -0.7440
 7514SOL     OW29821   2.179   0.914   4.554  0.8823  0.3572 -0.0516
 7514SOL    HW229822   2.263   0.959   4.565  1.3310 -0.4093 -0.2919
 7514SOL    HW329823   2.199   0.838   4.500 -0.2049  0.8542 -1.2172
 7514SOL    MW429824   2.193   0.910   4.548  0.7981  0.3217 -0.2371
 7515SOL     OW29825   5.724   1.580   3.056  0.7486  0.2809  0.2027
 7515SOL    HW229826   5.688   1.612   2.974  1.1448 -1.9451 -0.9124
 7515SOL    HW329827   5.817   1.605   3.054  0.6125  0.8259  0.3311
 7515SOL    MW429828   5.731   1.588   3.045  0.7829  0.0591  0.0725
 7516SOL     OW29829   2.811   1.538   3.936  0.1640  0.1082  0.1044
 7516SOL    HW229830   2.727   1.496   3.920 -0.4149  1.1165  0.4280
 7516SOL    HW329831   2.791   1.632   3.938  0.9111  0.2682  2.4518
 7516SOL    MW429832   2.797   1.545   3.934  0.1862  0.2624  0.4568
 7517SOL     OW29833   1.316   1.025   5.406 -0.2109 -0.3277  0.1722
 7517SOL    HW229834   1.310   0.933   5.432 -0.2712 -0.5221 -0.5256
 7517SOL    HW329835   1.231   1.044   5.367 -1.1348  0.7274  2.5058
 7517SOL    MW429836   1.304   1.015   5.404 -0.3408 -0.2141  0.3880
 7518SOL     OW29837   6.047   6.110   3.901 -0.1962 -0.5363 -0.2837
 7518SOL    HW229838   6.060   6.021   3.869  1.7846 -0.0807 -0.8735
 7518SOL    HW329839   6.102   6.164   3.845 -2.0083  1.2148 -0.5039
 7518SOL    MW429840   6.056   6.106   3.890 -0.1739 -0.2452 -0.3906
 7519SOL     OW29841   6.358   5.696   2.188  0.2128  0.4374 -0.4849
 7519SOL    HW229842   6.417   5.666   2.118  0.3102 -0.6701  0.0513
 7519SOL    HW329843   6.270   5.678   2.155  0.2948 -1.9956  0.4552
 7519SOL    MW429844   6.354   5.690   2.174  0.2365 -0.0298 -0.2902
 7520SOL     OW29845   4.010   6.257   4.882  0.1748 -0.5676 -0.2468
 7520SOL    HW229846   4.062   6.188   4.921 -0.2114 -0.6059  0.2171
 7520SOL    HW329847   3.935   6.212   4.843  0.9355 -0.6146 -1.7381
 7520SOL    MW429848   4.007   6.242   4.882  0.2242 -0.5788 -0.3824
 7521SOL     OW29849   2.385   0.622   0.028  0.4188  0.4975 -0.2560
 7521SOL    HW229850   2.305   0.577   0.000 -0.1316  2.3095 -1.7943
 7521SOL    HW329851   2.442   0.620  -0.049  1.4637  0.1667  0.4923
 7521SOL    MW429852   2.382   0.615   0.014  0.4840  0.6929 -0.3602
 7522SOL     OW29853   5.973   1.565   2.828 -0.0508  0.1417 -0.8285
 7522SOL    HW229854   5.888   1.606   2.811 -1.2317 -1.3384  1.1185
 7522SOL    HW329855   5.981   1.564   2.923  0.2679 -3.2699 -0.7518
 7522SOL    MW429856   5.963   1.570   2.838 -0.1646 -0.5037 -0.5615
 7523SOL     OW29857   4.409   0.679   2.774  0.0475  0.0614  0.2726
 7523SOL    HW229858   4.404   0.756   2.717 -1.0543 -1.4811 -1.8160
 7523SOL    HW329859   4.490   0.635   2.748 -1.1818 -1.4161 -1.1960
 7523SOL    MW429860   4.419   0.684   2.763 -0.2601 -0.3371 -0.1967
 7524SOL     OW29861   3.786   2.850   1.373 -0.0336  0.7030 -0.1566
 7524SOL    HW229862   3.844   2.926   1.383  0.7915 -0.0302  0.7040
 7524SOL    HW329863   3.807   2.816   1.286  0.7499  0.5132  0.1009
 7524SOL    MW429864   3.796   2.856   1.363  0.1787  0.5812 -0.0091
 7525SOL     OW29865   5.119   2.103   1.325 -0.1085 -0.3868  0.4283
 7525SOL    HW229866   5.073   2.023   1.301 -0.4341 -0.4345  1.1772
 7525SOL    HW329867   5.085   2.125   1.412 -0.6514  1.0144 -0.1043
 7525SOL    MW429868   5.108   2.096   1.333 -0.2231 -0.2082  0.4569
 7526SOL     OW29869   1.919   1.718   2.560  0.4831  0.0160 -0.3870
 7526SOL    HW229870   1.855   1.649   2.574 -0.3272  0.7488 -0.3578
 7526SOL    HW329871   1.879   1.796   2.599  2.4699  0.0006  1.8909
 7526SOL    MW429872   1.905   1.719   2.567  0.6383  0.1107 -0.0826
 7527SOL     OW29873   0.641   1.852   4.532 -1.0870  0.1064 -0.6442
 7527SOL    HW229874   0.571   1.805   4.486 -2.0243  2.1421 -1.4621
 7527SOL    HW329875   0.663   1.924   4.474  1.3569 -0.1513 -0.1315
 7527SOL    MW429876   0.634   1.855   4.518 -0.8882  0.3409 -0.6845
 7528SOL     OW29877   1.411   2.625   1.181 -0.2066 -0.4647  0.4285
 7528SOL    HW229878   1.485   2.591   1.130  1.2207 -0.5983  2.4663
 7528SOL    HW329879   1.452   2.679   1.248 -2.1129  0.8245  0.6187
 7528SOL    MW429880   1.427   2.627   1.183 -0.2698 -0.3122  0.7225
 7529SOL     OW29881   2.280   2.822   0.828 -0.6436 -0.1914  0.2492
 7529SOL    HW229882   2.270   2.858   0.916 -0.0735  0.1359  0.1878
 7529SOL    HW329883   2.345   2.753   0.837 -1.0992 -0.6323  0.2072
 7529SOL    MW429884   2.287   2.818   0.841 -0.6285 -0.2064  0.2356
 7530SOL     OW29885   3.941   0.243   2.239 -0.3693 -0.2448  0.3476
 7530SOL    HW229886   3.902   0.326   2.266  0.7741  0.1408  0.9103
 7530SOL    HW329887   3.885   0.176   2.278 -0.9416  0.2790  0.4301
 7530SOL    MW429888   3.929   0.245   2.248 -0.2940 -0.1248  0.4327
 7531SOL     OW29889   3.270   2.987   0.140  0.1630  0.0592 -0.0047
 7531SOL    HW229890   3.351   3.007   0.187  1.2468 -1.4473 -1.0875
 7531SOL    HW329891   3.299   2.965   0.051 -1.0832 -2.8822  0.1711
 7531SOL    MW429892   3.285   2.987   0.134  0.1416 -0.5276 -0.1244
 7532SOL     OW29893   3.296   3.850   4.502  0.0800 -0.5177 -0.6069
 7532SOL    HW229894   3.319   3.943   4.505  1.0520 -0.7824  1.3219
 7532SOL    HW329895   3.206   3.847   4.534  0.1316 -0.2560 -0.4302
 7532SOL    MW429896   3.287   3.862   4.507  0.2151 -0.5181 -0.3291
 7533SOL     OW29897   1.192   0.522   4.268 -0.0595  0.2967  0.3481
 7533SOL    HW229898   1.105   0.492   4.241  0.1652  2.1164 -2.8974
 7533SOL    HW329899   1.251   0.452   4.241 -0.2020  0.6643 -1.0166
 7533SOL    MW429900   1.189   0.509   4.261 -0.0487  0.5853 -0.2602
 7534SOL     OW29901   1.680   5.165   4.600 -0.0927 -0.5763  0.5196
 7534SOL    HW229902   1.671   5.131   4.511 -1.8734  2.1777 -0.4646
 7534SOL    HW329903   1.742   5.237   4.593  0.2202 -0.7103  1.6571
 7534SOL    MW429904   1.687   5.170   4.587 -0.2864 -0.2306  0.5398
 7535SOL     OW29905   5.412   2.692   0.075  0.2318  0.0232 -0.7618
 7535SOL    HW229906   5.471   2.750   0.122 -0.1660  1.2399 -1.7120
 7535SOL    HW329907   5.416   2.609   0.123  2.7165  0.0522 -0.8047
 7535SOL    MW429908   5.420   2.688   0.087  0.5072  0.1875 -0.8928
 7536SOL     OW29909   0.454   0.299   2.448 -0.1406  0.5028 -0.0363
 7536SOL    HW229910   0.391   0.302   2.376  0.6704 -1.4582 -0.9200
 7536SOL    HW329911   0.524   0.243   2.415  1.8671  2.2088  1.0719
 7536SOL    MW429912   0.455   0.292   2.434  0.2313  0.4691 -0.0067
 7537SOL     OW29913   5.360   2.691   1.571 -0.1847  0.4182 -0.0323
 7537SOL    HW229914   5.265   2.687   1.558 -0.2284  0.5637  0.2408
 7537SOL    HW329915   5.392   2.606   1.540 -0.6518 -0.5117  1.8739
 7537SOL    MW429916   5.352   2.679   1.565 -0.2521  0.3147  0.2552
 7538SOL     OW29917   0.647   6.257   2.883 -0.0140 -0.3527 -0.2710
 7538SOL    HW229918   0.669   6.306   2.962  2.3930  0.2839 -1.2454
 7538SOL    HW329919   0.585   6.314   2.836 -2.1506 -1.1078  1.4332
 7538SOL    MW429920   0.642   6.271   2.887  0.0217 -0.3684 -0.1747
 7539SOL     OW29921   5.710   6.329   5.684 -0.0307 -0.6323  0.2415
 7539SOL    HW229922   5.772   6.271   5.640  0.1331  0.3256 -0.8364
 7539SOL    HW329923   5.657   6.271   5.738  0.2434 -1.7584 -0.6565
 7539SOL    MW429924   5.711   6.314   5.685  0.0271 -0.6545 -0.0192
 7540SOL     OW29925   5.144   2.793   4.632 -0.2331  0.2934  0.1175
 7540SOL    HW229926   5.075   2.860   4.639  1.3840  2.1309 -0.6441
 7540SOL    HW329927   5.150   2.775   4.539  1.1242  1.1056  0.0196
 7540SOL    MW429928   5.135   2.800   4.621  0.1593  0.6430  0.0041
 7541SOL     OW29929   4.646   3.326   5.848 -0.4680 -0.7325 -0.0713
 7541SOL    HW229930   4.619   3.244   5.889  0.0475 -0.9259 -0.1040
 7541SOL    HW329931   4.576   3.388   5.868 -0.5027 -0.9796  0.6020
 7541SOL    MW429932   4.633   3.324   5.856 -0.4046 -0.7906  0.0132
 7542SOL     OW29933   0.132   5.430   0.115  0.1624  0.5528 -0.3621
 7542SOL    HW229934   0.115   5.484   0.038 -2.9444 -0.9399 -0.8700
 7542SOL    HW329935   0.088   5.476   0.186 -0.0355  0.1383 -0.2138
 7542SOL    MW429936   0.124   5.443   0.114 -0.2736  0.3012 -0.4095
 7543SOL     OW29937   0.657   4.854   1.153  0.4397 -0.5119  0.2434
 7543SOL    HW229938   0.595   4.889   1.090  1.3027  0.7519  0.0636
 7543SOL    HW329939   0.689   4.773   1.113  1.9005  0.8786 -1.5992
 7543SOL    MW429940   0.653   4.848   1.139  0.7463 -0.1617 -0.0234
 7544SOL     OW29941   0.529   5.844   4.370  0.6465 -0.0618 -0.1475
 7544SOL    HW229942   0.491   5.759   4.348  2.3704 -0.8473 -0.2779
 7544SOL    HW329943   0.558   5.835   4.461  1.3595  0.1523 -0.3398
 7544SOL    MW429944   0.528   5.832   4.379  0.9680 -0.1372 -0.1901
 7545SOL     OW29945   4.826   0.853   1.803  0.0992 -0.3601 -1.4599
 7545SOL    HW229946   4.763   0.921   1.824  2.0202  0.9901  0.3175
 7545SOL    HW329947   4.828   0.797   1.880  2.2893  0.6670 -0.6921
 7545SOL    MW429948   4.818   0.855   1.816  0.6416 -0.0464 -1.1241
 7546SOL     OW29949   5.575   5.725   5.412 -0.1452 -0.0898  0.2102
 7546SOL    HW229950   5.608   5.718   5.322 -0.2892  0.1340  0.1400
 7546SOL    HW329951   5.503   5.663   5.417  1.0394 -1.4897  0.7156
 7546SOL    MW429952   5.570   5.716   5.401 -0.0079 -0.2450  0.2676
 7547SOL     OW29953   2.304   3.434   1.699  0.0042  0.3916  0.5154
 7547SOL    HW229954   2.389   3.429   1.656  0.1180  3.7969  0.1190
 7547SOL    HW329955   2.246   3.379   1.646  1.6141 -0.8580 -0.0082
 7547SOL    MW429956   2.307   3.426   1.686  0.2316  0.6760  0.3940
 7548SOL     OW29957   6.004   3.925   3.092 -0.2114 -0.6035 -0.2034
 7548SOL    HW229958   6.041   3.848   3.135 -0.4252  0.5580  2.2153
 7548SOL    HW329959   6.075   3.990   3.093 -0.2895 -0.4573 -1.4924
 7548SOL    MW429960   6.018   3.924   3.098 -0.2499 -0.4310 -0.0544
 7549SOL     OW29961   1.212   3.361   2.637  0.1073 -0.2240 -0.2263
 7549SOL    HW229962   1.164   3.386   2.558  1.4140  0.7539 -0.7324
 7549SOL    HW329963   1.274   3.294   2.607  0.4860  0.0233  0.0119
 7549SOL    MW429964   1.214   3.355   2.623  0.3297 -0.0624 -0.2616
 7550SOL     OW29965   0.256   3.451   1.383 -0.4367  0.1290  0.7605
 7550SOL    HW229966   0.236   3.513   1.454  0.2878  1.3985 -0.1015
 7550SOL    HW329967   0.344   3.475   1.355 -0.6139 -0.5167 -0.4015
 7550SOL    MW429968   0.265   3.463   1.389 -0.3645  0.2113  0.4935
 7551SOL     OW29969   5.228   1.694   1.532  0.2207  0.4170 -0.0429
 7551SOL    HW229970   5.316   1.725   1.554 -0.5755  2.4063  0.6189
 7551SOL    HW329971   5.218   1.614   1.582  1.3870  0.5710  0.4853
 7551SOL    MW429972   5.238   1.688   1.542  0.2696  0.6998  0.1141
 7552SOL     OW29973   0.170   5.321   6.090 -0.4770 -0.4991  0.1048
 7552SOL    HW229974   0.235   5.281   6.148 -1.3190 -0.9742  0.7532
 7552SOL    HW329975   0.222   5.367   6.024  0.5759  1.3603  2.0843
 7552SOL    MW429976   0.186   5.322   6.089 -0.4492 -0.3165  0.4515
 7553SOL     OW29977   5.933   3.301   5.979  0.1992 -0.6592 -0.5875
 7553SOL    HW229978   5.976   3.258   5.905  1.9139 -0.0400  0.0067
 7553SOL    HW329979   5.956   3.393   5.972 -0.0010 -0.5089  0.4534
 7553SOL    MW429980   5.942   3.307   5.969  0.3990 -0.5577 -0.3718
 7554SOL     OW29981   6.243   1.117   4.240  0.0824 -0.0100 -0.2294
 7554SOL    HW229982   6.316   1.158   4.194 -0.9911  1.0079 -1.1034
 7554SOL    HW329983   6.243   1.026   4.210  2.7687 -0.8961  2.0682
 7554SOL    MW429984   6.252   1.111   4.230  0.2952  0.0074 -0.0416
 7555SOL     OW29985   2.473   4.990   3.823 -0.2002 -0.2034  0.2213
 7555SOL    HW229986   2.503   4.986   3.732  1.3370 -1.3037  0.7280
 7555SOL    HW329987   2.381   4.965   3.819 -0.1549 -0.2364 -1.0259
 7555SOL    MW429988   2.465   4.986   3.810  0.0086 -0.3529  0.1236
 7556SOL     OW29989   1.248   5.972   0.200  0.4137  0.0701 -0.7515
 7556SOL    HW229990   1.334   5.962   0.160 -0.0700  0.2668 -1.8670
 7556SOL    HW329991   1.191   5.999   0.129 -0.2676  1.4720  0.2677
 7556SOL    MW429992   1.252   5.974   0.186  0.2600  0.2810 -0.7642
 7557SOL     OW29993   5.173   5.808   2.345 -0.1854  0.3602  0.1036
 7557SOL    HW229994   5.111   5.800   2.273 -2.3156  1.8481  1.6393
 7557SOL    HW329995   5.155   5.894   2.382  1.8272  0.2288  1.5538
 7557SOL    MW429996   5.163   5.818   2.340 -0.2009  0.5392  0.4976
 7558SOL     OW29997   2.617   2.692   2.786  0.0690 -0.0760 -0.1490
 7558SOL    HW229998   2.526   2.677   2.814 -0.5578  2.9051 -0.2268
 7558SOL    HW329999   2.609   2.743   2.705  1.8134  0.2128 -0.1727
 7558SOL    MW430000   2.604   2.697   2.779  0.2165  0.3554 -0.1624
 7559SOL     OW30001   5.607   1.575   6.196 -0.2570  0.2235 -0.3987
 7559SOL    HW230002   5.525   1.554   6.241  0.2623 -1.2647 -0.0956
 7559SOL    HW330003   5.670   1.589   6.266 -0.0306  0.4267 -0.6432
 7559SOL    MW430004   5.604   1.574   6.211 -0.1586  0.0540 -0.3910
 7560SOL     OW30005   3.608   4.491   2.759 -0.3393 -0.2940 -0.1034
 7560SOL    HW230006   3.645   4.417   2.806 -1.8430 -1.6347 -0.9088
 7560SOL    HW330007   3.624   4.566   2.815  1.3119 -1.1949  0.7028
 7560SOL    MW430008   3.615   4.491   2.772 -0.3199 -0.5898 -0.1033
 7561SOL     OW30009   0.965   4.908   3.891  0.7042 -0.5830 -0.4657
 7561SOL    HW230010   1.039   4.897   3.951 -1.6402 -0.9779  2.6245
 7561SOL    HW330011   0.942   4.819   3.866  0.6984 -0.5181 -0.6919
 7561SOL    MW430012   0.972   4.895   3.895  0.3941 -0.6265 -0.0878
 7562SOL     OW30013   0.654   1.763   3.780  0.3967 -0.0815 -0.0227
 7562SOL    HW230014   0.649   1.788   3.688  0.1014  1.2266  0.3257
 7562SOL    HW330015   0.628   1.671   3.782  2.1730 -0.6618 -1.4490
 7562SOL    MW430016   0.650   1.754   3.768  0.5921  0.0145 -0.1649
 7563SOL     OW30017   4.283   0.355   4.973  0.2694 -0.2881  0.2001
 7563SOL    HW230018   4.298   0.321   5.062  1.2884  1.9077  0.9428
 7563SOL    HW330019   4.298   0.449   4.981 -0.0413  0.0238 -2.2409
 7563SOL    MW430020   4.287   0.363   4.986  0.3629  0.0427 -0.0240
 7564SOL     OW30021   0.231   0.689   6.056  0.2343 -0.2047  0.9976
 7564SOL    HW230022   0.213   0.601   6.022  0.4717  0.1294 -0.0478
 7564SOL    HW330023   0.279   0.733   5.985  0.2736  0.7135  1.5685
 7564SOL    MW430024   0.235   0.683   6.042  0.2708 -0.0395  0.9350
 7565SOL     OW30025   3.270   5.695   2.864 -0.0328 -0.0499  0.1126
 7565SOL    HW230026   3.241   5.732   2.781 -1.2050 -2.0267 -0.4177
 7565SOL    HW330027   3.194   5.646   2.897  1.7076 -2.9463  0.1416
 7565SOL    MW430028   3.256   5.693   2.857  0.0421 -0.6929  0.0464
 7566SOL     OW30029   6.241   5.937   0.407  0.2885 -0.5463  0.9585
 7566SOL    HW230030   6.266   5.889   0.328 -1.2584  0.9162 -0.5168
 7566SOL    HW330031   6.192   5.874   0.459 -1.2183 -0.8368 -0.6814
 7566SOL    MW430032   6.238   5.923   0.403 -0.1144 -0.3917  0.5475
 7567SOL     OW30033   4.047   3.023   4.446 -0.0423 -0.0807  0.3600
 7567SOL    HW230034   3.990   3.070   4.385  1.8012 -0.4386 -1.7556
 7567SOL    HW330035   4.000   3.026   4.529 -1.7381  2.1701 -0.5751
 7567SOL    MW430036   4.033   3.029   4.449 -0.0228  0.1690 -0.0425
 7568SOL     OW30037   2.150   3.539   0.824  0.2129 -0.3287  0.0560
 7568SOL    HW230038   2.217   3.607   0.820  0.7584 -0.8324  0.4043
 7568SOL    HW330039   2.076   3.574   0.774  0.3900  0.6145  0.4498
 7568SOL    MW430040   2.149   3.552   0.817  0.3082 -0.2707  0.1539
 7569SOL     OW30041   3.144   6.216   4.972  0.2192  0.0323 -0.1259
 7569SOL    HW230042   3.055   6.252   4.967 -0.1720 -0.7695  0.8161
 7569SOL    HW330043   3.150   6.157   4.896 -0.3290 -0.4954  0.2313
 7569SOL    MW430044   3.133   6.213   4.961  0.0953 -0.1431  0.0455
 7570SOL     OW30045   5.571   6.362   1.811 -0.7842  0.7833  0.3944
 7570SOL    HW230046   5.648   6.320   1.774  0.0440  1.8647  0.8460
 7570SOL    HW330047   5.501   6.345   1.748  0.2255  1.2792 -0.8924
 7570SOL    MW430048   5.572   6.354   1.798 -0.5417  0.9914  0.2842
 7571SOL     OW30049   6.303   2.880   4.346 -0.1522  0.2179 -0.5072
 7571SOL    HW230050   6.307   2.976   4.342  0.0542  0.2050 -0.6002
 7571SOL    HW330051   6.394   2.852   4.348 -0.2104  0.0655  0.5848
 7571SOL    MW430052   6.315   2.889   4.346 -0.1326  0.1961 -0.3754
 7572SOL     OW30053   2.117   3.950   3.664  0.3522 -0.1569 -0.5233
 7572SOL    HW230054   2.145   3.945   3.756  1.9596  0.2043 -0.9709
 7572SOL    HW330055   2.054   4.022   3.663 -2.0309 -2.0232  0.8033
 7572SOL    MW430056   2.112   3.959   3.676  0.2499 -0.3554 -0.4073
 7573SOL     OW30057   6.431   6.413   4.949  0.3675 -0.0549  0.6729
 7573SOL    HW230058   6.497   6.362   4.995 -0.2873 -0.8519  0.7644
 7573SOL    HW330059   6.354   6.356   4.947 -0.5709  1.1332  1.2708
 7573SOL    MW430060   6.429   6.399   4.955  0.1573 -0.0033  0.7639
 7574SOL     OW30061   0.973   1.059   0.285  0.1131 -0.0294 -0.2784
 7574SOL    HW230062   1.033   1.038   0.213  1.2516  0.4194  0.5137
 7574SOL    HW330063   0.909   1.119   0.246 -0.2848 -1.1006 -1.3254
 7574SOL    MW430064   0.972   1.064   0.270  0.2108 -0.1115 -0.3121
 7575SOL     OW30065   3.362   4.156   0.065 -0.0745 -0.2413 -0.1597
 7575SOL    HW230066   3.412   4.153  -0.016 -0.6012  2.6724 -0.7200
 7575SOL    HW330067   3.293   4.220   0.048 -1.3259 -0.8966  2.0200
 7575SOL    MW430068   3.359   4.164   0.052 -0.3091  0.0567  0.0540
 7576SOL     OW30069   2.922   4.795   5.775 -0.0989 -0.1644  0.4389
 7576SOL    HW230070   2.830   4.790   5.801 -0.0138 -0.2183  0.7329
 7576SOL    HW330071   2.942   4.708   5.741  0.0030 -0.3306  0.9179
 7576SOL    MW430072   2.913   4.783   5.774 -0.0742 -0.1935  0.5409
 7577SOL     OW30073   4.990   3.003   6.293  0.5736 -0.4981  0.2621
 7577SOL    HW230074   5.032   3.049   6.365  0.0529  0.6484 -0.1486
 7577SOL    HW330075   5.042   2.923   6.282  1.6389  0.0976  0.8356
 7577SOL    MW430076   5.002   2.998   6.301  0.6454 -0.2682  0.2836
 7578SOL     OW30077   6.324   1.450   4.794 -0.7141 -0.0582 -0.0914
 7578SOL    HW230078   6.392   1.459   4.861  0.0312 -0.3825 -0.7821
 7578SOL    HW330079   6.280   1.367   4.816 -0.0062 -0.5264 -0.3977
 7578SOL    MW430080   6.327   1.440   4.805 -0.5224 -0.1628 -0.2230
 7579SOL     OW30081   5.438   5.173   5.492  0.5891 -0.0102 -0.3805
 7579SOL    HW230082   5.385   5.240   5.536  1.0787 -0.1363  0.4085
 7579SOL    HW330083   5.381   5.096   5.488  0.2576  0.2479 -0.7042
 7579SOL    MW430084   5.423   5.172   5.497  0.6100  0.0072 -0.3191
 7580SOL     OW30085   3.618   0.480   1.207  0.0907 -0.3953  0.0390
 7580SOL    HW230086   3.647   0.571   1.200 -1.7311  0.0716 -3.1442
 7580SOL    HW330087   3.699   0.431   1.222  1.7898  1.3877 -2.4639
 7580SOL    MW430088   3.633   0.485   1.208  0.0745 -0.0984 -0.7112
 7581SOL     OW30089   3.884   1.038   2.362 -0.3015 -0.3876  0.1938
 7581SOL    HW230090   3.867   0.993   2.444 -2.1929 -1.1048 -0.5319
 7581SOL    HW330091   3.799   1.042   2.319  0.1384  2.2144 -0.6359
 7581SOL    MW430092   3.870   1.033   2.367 -0.4930 -0.1389 -0.0114
 7582SOL     OW30093   3.718   1.787   5.986 -0.2016 -0.1026  0.3071
 7582SOL    HW230094   3.759   1.753   6.066 -0.5564  1.1875  1.0708
 7582SOL    HW330095   3.788   1.834   5.941 -0.2290 -0.0464  0.3234
 7582SOL    MW430096   3.732   1.789   5.991 -0.2520  0.0750  0.4100
 7583SOL     OW30097   4.535   0.694   2.111 -0.1699 -0.2144 -0.1165
 7583SOL    HW230098   4.536   0.646   2.194 -2.2325 -2.5903 -1.3647
 7583SOL    HW330099   4.628   0.700   2.086  0.3077 -1.4951  1.2072
 7583SOL    MW430100   4.548   0.689   2.119 -0.3790 -0.6968 -0.1065
 7584SOL     OW30101   3.547   5.922   3.539  0.1249  0.0156  0.1863
 7584SOL    HW230102   3.588   5.951   3.621  1.2370  1.0915 -0.7294
 7584SOL    HW330103   3.458   5.959   3.543  0.3654  0.5650  0.6329
 7584SOL    MW430104   3.540   5.930   3.551  0.3033  0.2300  0.1244
 7585SOL     OW30105   6.127   2.195   1.383 -0.1602  0.0757 -0.2021
 7585SOL    HW230106   6.176   2.276   1.367 -1.4426  1.2350  1.3765
 7585SOL    HW330107   6.153   2.137   1.312  0.3458  2.0768 -1.7595
 7585SOL    MW430108   6.137   2.198   1.372 -0.2626  0.4927 -0.1993
 7586SOL     OW30109   0.922   3.950   0.322  0.0949 -0.5700  0.9079
 7586SOL    HW230110   1.015   3.966   0.339  0.5309 -1.4156 -0.4937
 7586SOL    HW330111   0.879   4.033   0.342  1.1605 -0.1419  1.4946
 7586SOL    MW430112   0.929   3.963   0.327  0.2930 -0.6251  0.8004
 7587SOL     OW30113   4.826   0.878   4.691  0.7214  0.1734  0.0812
 7587SOL    HW230114   4.832   0.949   4.755  0.7950  0.5880 -0.3737
 7587SOL    HW330115   4.889   0.904   4.623  0.6090 -0.2377 -0.1771
 7587SOL    MW430116   4.835   0.891   4.691  0.7163  0.1739 -0.0129
 7588SOL     OW30117   1.683   3.737   3.628  0.1687  0.6614 -0.4331
 7588SOL    HW230118   1.607   3.691   3.592 -0.5805  1.7186 -0.2565
 7588SOL    HW330119   1.646   3.795   3.695  1.1898  0.8458 -0.0076
 7588SOL    MW430120   1.668   3.739   3.632  0.2046  0.8252 -0.3536
 7589SOL     OW30121   3.296   4.666   3.930  0.1966 -0.0630  0.1068
 7589SOL    HW230122   3.280   4.703   4.017  0.3576  2.5072 -0.8735
 7589SOL    HW330123   3.221   4.609   3.914 -1.3335  1.6717  0.7883
 7589SOL    MW430124   3.284   4.663   3.940  0.0160  0.5050  0.0673
 7590SOL     OW30125   4.313   5.710   5.134 -0.1471  0.2445  0.8037
 7590SOL    HW230126   4.264   5.630   5.113 -1.5831  1.3389 -0.1639
 7590SOL    HW330127   4.304   5.765   5.057  1.3666  1.1103  1.2125
 7590SOL    MW430128   4.305   5.707   5.121 -0.1369  0.5031  0.7300
 7591SOL     OW30129   3.899   1.046   1.797 -0.1218 -0.0923 -0.0921
 7591SOL    HW230130   3.806   1.040   1.772  0.0433 -2.1273 -0.3487
 7591SOL    HW330131   3.946   1.036   1.715  0.3401 -0.3471  0.2031
 7591SOL    MW430132   3.893   1.044   1.783 -0.0391 -0.3944 -0.0870
 7592SOL     OW30133   0.195   0.106   5.335 -0.7321 -0.7339  0.5460
 7592SOL    HW230134   0.289   0.121   5.352 -0.2732 -2.1066 -0.6127
 7592SOL    HW330135   0.157   0.194   5.334  1.1250  0.1514 -2.0695
 7592SOL    MW430136   0.203   0.120   5.337 -0.4265 -0.7982  0.0481
 7593SOL     OW30137   5.064   3.984   0.793  0.5408  0.6472 -0.1700
 7593SOL    HW230138   5.159   3.990   0.803  0.3863  2.4549  0.5125
 7593SOL    HW330139   5.050   3.977   0.699  1.4070 -2.1812 -0.1874
 7593SOL    MW430140   5.075   3.984   0.782  0.6347  0.5125 -0.0823
 7594SOL     OW30141   5.358   3.253   0.321 -0.5145  0.5122 -0.4735
 7594SOL    HW230142   5.371   3.198   0.243  0.9047  0.8754 -0.5289
 7594SOL    HW330143   5.402   3.205   0.391  1.4156  1.8643 -0.6759
 7594SOL    MW430144   5.366   3.239   0.320 -0.0726  0.7385 -0.5075
 7595SOL     OW30145   3.112   3.084   5.437  0.0529  0.1772 -0.0185
 7595SOL    HW230146   3.020   3.072   5.413 -0.2576  0.0022  1.2033
 7595SOL    HW330147   3.119   3.175   5.464 -0.2044 -0.2545  1.6271
 7595SOL    MW430148   3.101   3.094   5.437 -0.0220  0.0972  0.3598
 7596SOL     OW30149   3.524   1.526   5.619 -0.4575  0.2796 -0.2401
 7596SOL    HW230150   3.457   1.464   5.588 -0.9366 -0.1907  1.6522
 7596SOL    HW330151   3.491   1.559   5.702  0.8453  1.4191 -0.1367
 7596SOL    MW430152   3.511   1.522   5.626 -0.3489  0.3679  0.0232
 7597SOL     OW30153   3.346   3.749   5.304 -0.2370  0.2967 -0.0430
 7597SOL    HW230154   3.436   3.781   5.292 -0.2042  0.7164  1.1542
 7597SOL    HW330155   3.314   3.733   5.215  0.3278  2.1117 -0.6277
 7597SOL    MW430156   3.354   3.751   5.290 -0.1582  0.5916  0.0378
 7598SOL     OW30157   3.265   0.246   1.919 -0.2362  0.1920 -0.1038
 7598SOL    HW230158   3.250   0.190   1.995 -0.5385  0.2537 -0.1175
 7598SOL    HW330159   3.323   0.315   1.951 -1.6793  1.1730  0.5243
 7598SOL    MW430160   3.271   0.248   1.933 -0.4665  0.3296 -0.0228
 7599SOL     OW30161   5.227   0.204   4.902 -0.2470  0.4392  0.8503
 7599SOL    HW230162   5.156   0.247   4.854 -0.9333 -0.2168  1.2383
 7599SOL    HW330163   5.214   0.229   4.993 -2.1848 -2.4374  1.5045
 7599SOL    MW430164   5.216   0.213   4.908 -0.5932 -0.0269  0.9878
 7600SOL     OW30165   6.162   4.077   2.067  0.0908  0.3780  0.1557
 7600SOL    HW230166   6.201   3.990   2.054 -2.4337 -0.6319 -1.2624
 7600SOL    HW330167   6.151   4.112   1.979  0.4605  1.8883  0.6861
 7600SOL    MW430168   6.166   4.070   2.054 -0.1935  0.4441  0.0386
 7601SOL     OW30169   0.777   4.150   5.526  0.0984  0.7876 -0.2939
 7601SOL    HW230170   0.724   4.127   5.601  0.9060 -0.4334 -0.0640
 7601SOL    HW330171   0.866   4.127   5.551  0.0180 -3.6128 -2.9810
 7601SOL    MW430172   0.782   4.144   5.539  0.1944  0.0459 -0.6181
 7602SOL     OW30173   3.189   3.310   1.678  0.1454  0.0662  0.2325
 7602SOL    HW230174   3.183   3.278   1.769  0.8189 -1.0695 -0.0990
 7602SOL    HW330175   3.144   3.243   1.627 -1.2284  1.2541 -0.1918
 7602SOL    MW430176   3.182   3.297   1.684  0.0530  0.0731  0.1328
 7603SOL     OW30177   0.396   4.914   2.852 -0.2841 -0.0113 -0.0539
 7603SOL    HW230178   0.380   4.822   2.872  2.4516 -0.8995 -1.4184
 7603SOL    HW330179   0.484   4.931   2.887 -0.9596  2.2947  0.6875
 7603SOL    MW430180   0.406   4.904   2.859 -0.0123  0.1757 -0.1361
 7604SOL     OW30181   6.112   2.484   2.447 -0.3373  0.1800 -0.4631
 7604SOL    HW230182   6.080   2.573   2.430  0.5186  0.4273 -0.8342
 7604SOL    HW330183   6.172   2.494   2.521  1.3001  0.2610 -1.7564
 7604SOL    MW430184   6.115   2.497   2.455 -0.0083  0.2233 -0.6827
 7605SOL     OW30185   5.875   6.182   5.505  0.2695  0.1411  0.3761
 7605SOL    HW230186   5.855   6.203   5.414  0.3003 -1.4895 -0.0326
 7605SOL    HW330187   5.953   6.235   5.525  0.1532  0.6514 -0.4718
 7605SOL    MW430188   5.883   6.192   5.495  0.2583 -0.0067  0.2103
 7606SOL     OW30189   4.953   4.475   6.001  0.0524  0.0287  0.2617
 7606SOL    HW230190   4.937   4.491   6.094  1.4140  0.3563  0.4659
 7606SOL    HW330191   4.970   4.381   5.995  1.8061  0.2953  0.6649
 7606SOL    MW430192   4.953   4.465   6.013  0.4634  0.1071  0.3418
 7607SOL     OW30193   3.233   4.121   4.526  0.1668  0.4706  0.0136
 7607SOL    HW230194   3.207   4.121   4.618  0.1876  1.6821  0.0341
 7607SOL    HW330195   3.152   4.140   4.478  0.2128  0.1194 -0.2113
 7607SOL    MW430196   3.219   4.123   4.531  0.1756  0.5841 -0.0134
 7608SOL     OW30197   4.249   1.181   3.563  0.3046 -0.4886  0.1244
 7608SOL    HW230198   4.296   1.265   3.566 -0.6943  0.1409 -1.0277
 7608SOL    HW330199   4.282   1.133   3.639  2.2962  0.1953 -0.2261
 7608SOL    MW430200   4.260   1.186   3.573  0.4356 -0.3153 -0.0739
 7609SOL     OW30201   2.527   4.097   0.243 -0.6916  0.2063  0.2446
 7609SOL    HW230202   2.478   4.166   0.287 -0.8527 -0.8644  1.8332
 7609SOL    HW330203   2.558   4.040   0.314  3.2272  0.9956 -0.5837
 7609SOL    MW430204   2.525   4.099   0.258 -0.1958  0.1691  0.3449
 7610SOL     OW30205   5.698   5.199   0.840  0.1773 -0.3459  0.2022
 7610SOL    HW230206   5.686   5.185   0.746  0.8341 -0.1793  0.0943
 7610SOL    HW330207   5.620   5.159   0.879  0.2499 -1.0640 -0.3556
 7610SOL    MW430208   5.686   5.192   0.833  0.2736 -0.4187  0.1143
 7611SOL     OW30209   2.706   1.785   3.940 -0.6980 -0.3534  0.2123
 7611SOL    HW230210   2.678   1.861   3.890 -0.4923  0.7563  1.6859
 7611SOL    HW330211   2.633   1.767   3.999 -0.2614 -0.4906  0.7281
 7611SOL    MW430212   2.693   1.793   3.941 -0.6133 -0.2251  0.4748
 7612SOL     OW30213   1.588   3.502   3.759  0.3596  0.5369 -0.0106
 7612SOL    HW230214   1.641   3.579   3.742  0.7754  0.5912  1.3608
 7612SOL    HW330215   1.652   3.432   3.773 -0.0043  0.0157 -0.8544
 7612SOL    MW430216   1.603   3.503   3.759  0.3665  0.4753  0.0590
 7613SOL     OW30217   2.385   3.814   4.896 -0.3030 -0.4222 -0.1744
 7613SOL    HW230218   2.336   3.890   4.929 -1.4224 -1.1088 -0.1971
 7613SOL    HW330219   2.329   3.778   4.827  1.9381  0.9511 -2.9028
 7613SOL    MW430220   2.371   3.820   4.891 -0.1550 -0.3316 -0.5374
 7614SOL     OW30221   1.412   5.973   5.298 -0.3665  0.0890 -0.1331
 7614SOL    HW230222   1.323   5.952   5.270 -0.6368  0.7445  0.2298
 7614SOL    HW330223   1.467   5.946   5.225 -0.5971 -2.6361  0.5683
 7614SOL    MW430224   1.408   5.967   5.285 -0.4326 -0.1840  0.0073
 7615SOL     OW30225   2.928   2.639   0.619 -0.3218 -0.4145  0.0931
 7615SOL    HW230226   2.880   2.633   0.537  0.1853 -0.6248 -0.1925
 7615SOL    HW330227   3.013   2.599   0.600  0.2381  0.6108  0.3773
 7615SOL    MW430228   2.933   2.633   0.606 -0.1811 -0.3070  0.0929
 7616SOL     OW30229   1.149   0.432   0.434 -0.6518 -0.1523 -0.1762
 7616SOL    HW230230   1.079   0.412   0.497 -1.1905 -2.8596 -1.4694
 7616SOL    HW330231   1.227   0.391   0.471 -0.5509 -0.1689 -0.4085
 7616SOL    MW430232   1.150   0.424   0.447 -0.7096 -0.5117 -0.3774
 7617SOL     OW30233   3.136   0.571   1.733 -0.0932  0.0847 -0.2457
 7617SOL    HW230234   3.119   0.488   1.778  1.8778  0.0632  0.5973
 7617SOL    HW330235   3.223   0.559   1.694  0.3791  1.8326  0.1638
 7617SOL    MW430236   3.145   0.558   1.734  0.2292  0.3125 -0.0804
 7618SOL     OW30237   3.134   1.928   3.923 -0.0421  0.5507  0.1387
 7618SOL    HW230238   3.163   1.846   3.882  2.9517  0.2592  2.5251
 7618SOL    HW330239   3.198   1.993   3.892 -0.0515  1.1170  1.2847
 7618SOL    MW430240   3.147   1.926   3.913  0.3516  0.5870  0.6047
 7619SOL     OW30241   2.340   2.633   3.805  0.7549 -0.4132 -0.1849
 7619SOL    HW230242   2.304   2.704   3.858  1.0126 -0.1629 -0.3465
 7619SOL    HW330243   2.434   2.634   3.824  1.1272  0.7774 -1.9359
 7619SOL    MW430244   2.348   2.642   3.815  0.8380 -0.2231 -0.4373
 7620SOL     OW30245   0.674   4.777   0.651  0.0319  0.2158  0.5532
 7620SOL    HW230246   0.732   4.828   0.707  1.0565 -1.6803  1.3207
 7620SOL    HW330247   0.722   4.695   0.635  0.1703  0.9266 -3.8232
 7620SOL    MW430248   0.688   4.773   0.656  0.1853  0.0594  0.0770
 7621SOL     OW30249   2.940   0.936   1.251  0.0160  0.0335  0.2964
 7621SOL    HW230250   3.006   0.944   1.182  0.2536  2.2104  0.6928
 7621SOL    HW330251   2.882   1.011   1.237 -0.3449  0.1096  1.9963
 7621SOL    MW430252   2.941   0.947   1.240 -0.0003  0.3308  0.5729
 7622SOL     OW30253   2.602   3.930   6.188 -0.1065  0.1805  0.3938
 7622SOL    HW230254   2.659   3.989   6.138 -0.2866  0.5753  0.6425
 7622SOL    HW330255   2.622   3.950   6.280 -1.8625  1.5953  0.5353
 7622SOL    MW430256   2.612   3.941   6.194 -0.3620  0.4192  0.4453
 7623SOL     OW30257   1.616   1.851   3.920 -0.2082  0.2992 -0.1666
 7623SOL    HW230258   1.564   1.904   3.979  0.4129  1.7533 -0.8637
 7623SOL    HW330259   1.564   1.772   3.905 -0.7645  0.3004  1.5837
 7623SOL    MW430260   1.602   1.847   3.926 -0.1996  0.4912 -0.0276
 7624SOL     OW30261   5.493   2.526   1.843 -0.1791 -0.0742  0.0348
 7624SOL    HW230262   5.472   2.494   1.931  0.4945  0.4925  0.4074
 7624SOL    HW330263   5.480   2.621   1.848 -2.8302 -0.2666 -1.2413
 7624SOL    MW430264   5.488   2.535   1.855 -0.4400 -0.0248 -0.0844
 7625SOL     OW30265   2.212   1.616   1.795  0.2873 -0.0887 -0.1743
 7625SOL    HW230266   2.218   1.568   1.878 -1.3297 -0.6107 -0.3241
 7625SOL    HW330267   2.279   1.577   1.740  1.8850  0.7458  1.0943
 7625SOL    MW430268   2.221   1.605   1.799  0.2848 -0.0475 -0.0267
 7626SOL     OW30269   4.055   2.282   3.498  1.1803 -0.1546  0.1120
 7626SOL    HW230270   4.102   2.353   3.542 -2.9701  3.3395 -0.3802
 7626SOL    HW330271   3.993   2.249   3.564  0.0915 -0.2006 -0.8967
 7626SOL    MW430272   4.053   2.287   3.512  0.4890  0.3003 -0.0860
 7627SOL     OW30273   4.899   2.708   2.958  0.3750 -0.0552 -0.3279
 7627SOL    HW230274   4.934   2.792   2.987  0.6165 -0.5723  0.9619
 7627SOL    HW330275   4.953   2.643   3.003 -1.5260 -0.8814  0.8515
 7627SOL    MW430276   4.911   2.711   2.968  0.1560 -0.2324 -0.0021
 7628SOL     OW30277   4.476   6.252   3.820 -0.1725  0.3094  0.1795
 7628SOL    HW230278   4.490   6.222   3.910  3.6347  1.9474  0.3320
 7628SOL    HW330279   4.487   6.347   3.824 -1.8828  0.6717 -1.7993
 7628SOL    MW430280   4.479   6.260   3.833  0.1042  0.5733 -0.0614
 7629SOL     OW30281   1.804   2.822   3.080 -0.3545  0.3037 -0.2303
 7629SOL    HW230282   1.807   2.752   3.145 -0.7100  0.0618 -0.4694
 7629SOL    HW330283   1.892   2.823   3.042  0.0926  0.9821  0.8007
 7629SOL    MW430284   1.816   2.813   3.083 -0.3424  0.3613 -0.1258
 7630SOL     OW30285   2.036   3.785   1.816 -0.9915  0.0960  0.6622
 7630SOL    HW230286   2.086   3.741   1.747 -0.1900  0.3294  1.0813
 7630SOL    HW330287   2.002   3.714   1.870  0.4160 -0.0499  1.4218
 7630SOL    MW430288   2.038   3.770   1.814 -0.7001  0.1075  0.8177
 7631SOL     OW30289   1.700   0.124   3.951 -0.4227 -0.2467  0.0473
 7631SOL    HW230290   1.774   0.169   3.908 -1.5740  1.3031 -0.4077
 7631SOL    HW330291   1.739   0.083   4.028  0.9678  0.3315 -0.3045
 7631SOL    MW430292   1.715   0.125   3.955 -0.3911  0.0341 -0.0592
 7632SOL     OW30293   0.756   4.826   5.903 -0.5449 -0.1682  0.4099
 7632SOL    HW230294   0.688   4.812   5.968  0.5865 -1.0542  1.4538
 7632SOL    HW330295   0.790   4.914   5.922 -0.4458 -0.2916  0.8139
 7632SOL    MW430296   0.752   4.836   5.914 -0.3825 -0.3014  0.6009
 7633SOL     OW30297   1.971   5.606   5.613  0.5376  0.2607 -0.0485
 7633SOL    HW230298   1.969   5.674   5.546  1.2589 -0.1091 -0.4581
 7633SOL    HW330299   1.957   5.525   5.566 -0.5621  0.1368  0.4757
 7633SOL    MW430300   1.969   5.605   5.598  0.4877  0.1956 -0.0333
 7634SOL     OW30301   4.369   0.525   0.998 -0.0622 -0.0934 -0.0825
 7634SOL    HW230302   4.390   0.511   1.091 -0.4321  1.6772  0.2952
 7634SOL    HW330303   4.293   0.468   0.982 -0.9685  0.7119  1.1410
 7634SOL    MW430304   4.361   0.516   1.009 -0.2306  0.2465  0.1287
 7635SOL     OW30305   4.671   0.285   3.088  0.7522 -0.0409 -0.1167
 7635SOL    HW230306   4.726   0.352   3.129  1.1401  0.0502 -0.7659
 7635SOL    HW330307   4.681   0.208   3.144  1.9331 -0.1754 -0.4727
 7635SOL    MW430308   4.680   0.284   3.101  0.9592 -0.0466 -0.2493
 7636SOL     OW30309   6.273   3.952   5.996  0.0210 -0.0742  0.1089
 7636SOL    HW230310   6.227   3.917   6.071  0.9363 -0.0515  0.6990
 7636SOL    HW330311   6.366   3.949   6.020  0.2410  1.3502 -0.4040
 7636SOL    MW430312   6.279   3.947   6.009  0.1708  0.1167  0.1191
 7637SOL     OW30313   6.293   3.108   0.432  0.0855  0.0726  0.4637
 7637SOL    HW230314   6.272   3.033   0.377 -1.4178  2.1293 -2.0006
 7637SOL    HW330315   6.248   3.090   0.515  0.2011 -1.9495  0.1303
 7637SOL    MW430316   6.284   3.096   0.436 -0.0976  0.0772  0.0946
 7638SOL     OW30317   2.474   1.116   1.336 -0.4024  0.3512  0.4480
 7638SOL    HW230318   2.429   1.153   1.260 -0.5976 -0.4036  0.1903
 7638SOL    HW330319   2.461   1.022   1.328 -0.5272  0.2765  1.4886
 7638SOL    MW430320   2.467   1.109   1.325 -0.4446  0.2417  0.5513
 7639SOL     OW30321   3.698   2.940   5.982  0.2129 -0.0372  0.3943
 7639SOL    HW230322   3.663   2.900   6.062 -1.4388  1.2266  0.3693
 7639SOL    HW330323   3.654   2.893   5.911  0.5476 -0.1531  0.2600
 7639SOL    MW430324   3.688   2.928   5.983  0.0392  0.1143  0.3733
 7640SOL     OW30325   3.399   1.292   0.874 -0.7547 -0.7081  0.1815
 7640SOL    HW230326   3.361   1.207   0.894  1.4266 -1.7018  0.3532
 7640SOL    HW330327   3.362   1.351   0.940 -3.2864 -1.1706 -0.7155
 7640SOL    MW430328   3.390   1.289   0.885 -0.8009 -0.9003  0.0858
 7641SOL     OW30329   2.310   6.338   4.665 -0.4335 -0.4777  0.4179
 7641SOL    HW230330   2.362   6.261   4.690 -0.3890 -0.7487 -0.4652
 7641SOL    HW330331   2.226   6.325   4.707 -0.1080 -0.5225  1.0683
 7641SOL    MW430332   2.306   6.326   4.674 -0.3847 -0.5194  0.3872
 7642SOL     OW30333   4.193   2.950   2.832  0.2576 -0.0514 -0.3423
 7642SOL    HW230334   4.154   2.863   2.824 -0.7170  0.3163  0.2368
 7642SOL    HW330335   4.274   2.945   2.782  1.2841 -1.9205  1.4231
 7642SOL    MW430336   4.198   2.938   2.824  0.2645 -0.2495 -0.0330
 7643SOL     OW30337   4.010   3.430   4.702  0.6156 -0.4800  0.5275
 7643SOL    HW230338   4.093   3.383   4.699  1.0176  0.2645 -1.4197
 7643SOL    HW330339   4.033   3.522   4.686 -0.6374 -0.4106 -1.1780
 7643SOL    MW430340   4.024   3.436   4.700  0.5033 -0.3726  0.0456
 7644SOL     OW30341   2.363   1.059   1.585 -0.3285  0.2994 -0.2236
 7644SOL    HW230342   2.404   1.093   1.506  1.1315  0.4352  0.5695
 7644SOL    HW330343   2.307   0.988   1.555  0.5638  0.0502 -1.3322
 7644SOL    MW430344   2.361   1.054   1.571 -0.0182  0.2844 -0.2653
 7645SOL     OW30345   3.638   1.128   1.453  0.1624 -0.5350 -0.0371
 7645SOL    HW230346   3.566   1.189   1.464 -0.7077 -1.6520  0.7972
 7645SOL    HW330347   3.636   1.104   1.360  1.1412  1.3879 -0.5992
 7645SOL    MW430348   3.628   1.133   1.442  0.1767 -0.4286 -0.0012
 7646SOL     OW30349   0.552   3.969   1.528  0.4432  0.5391 -0.0077
 7646SOL    HW230350   0.572   3.887   1.573  1.1101  0.2666 -0.7764
 7646SOL    HW330351   0.499   4.019   1.591 -0.3586 -0.6658  0.2885
 7646SOL    MW430352   0.548   3.965   1.543  0.4254  0.3442 -0.0700
 7647SOL     OW30353   0.466   1.626   6.038 -0.5061  0.2645  0.2872
 7647SOL    HW230354   0.494   1.539   6.009 -0.2973  1.0903 -2.1881
 7647SOL    HW330355   0.377   1.635   6.004 -0.7471  0.8322  1.0236
 7647SOL    MW430356   0.458   1.616   6.030 -0.5103  0.4484  0.0578
 7648SOL     OW30357   6.140   5.039   0.688  0.5968  0.3173 -0.0812
 7648SOL    HW230358   6.133   4.972   0.620  0.7319  0.5487 -0.3258
 7648SOL    HW330359   6.102   5.117   0.649 -1.0521 -0.0132  0.7669
 7648SOL    MW430360   6.134   5.040   0.674  0.3971  0.3042 -0.0016
 7649SOL     OW30361   2.307   4.109   1.612  0.0685 -0.4777  0.3544
 7649SOL    HW230362   2.222   4.067   1.597 -0.2258 -0.4610  1.7969
 7649SOL    HW330363   2.345   4.059   1.684  1.2231 -0.3685 -0.1583
 7649SOL    MW430364   2.301   4.097   1.619  0.1820 -0.4611  0.4771
 7650SOL     OW30365   4.927   0.006   0.501 -0.3411  0.1177 -0.0128
 7650SOL    HW230366   4.876  -0.073   0.482 -1.5803  1.5291 -3.3046
 7650SOL    HW330367   5.009  -0.006   0.454  0.6558 -0.2790  1.7309
 7650SOL    MW430368   4.931  -0.006   0.492 -0.3730  0.2516 -0.2171
 7651SOL     OW30369   4.070   3.821   1.256 -0.2667 -0.2377  0.1805
 7651SOL    HW230370   4.066   3.868   1.172 -1.9320 -1.3031 -0.3676
 7651SOL    HW330371   4.111   3.884   1.316  0.9895  0.5453 -1.4001
 7651SOL    MW430372   4.075   3.836   1.253 -0.3207 -0.2750 -0.1004
 7652SOL     OW30373   2.119   0.096   4.489  0.5513  0.1306  0.3864
 7652SOL    HW230374   2.177   0.048   4.548  0.0907 -0.4684  0.3587
 7652SOL    HW330375   2.104   0.036   4.416  1.6546  1.1134 -0.6959
 7652SOL    MW430376   2.125   0.082   4.487  0.6361  0.1813  0.2400
 7653SOL     OW30377   3.978   1.383   3.151 -0.1667  0.3304  0.3722
 7653SOL    HW230378   3.990   1.324   3.225 -1.0483  0.4856  0.6581
 7653SOL    HW330379   4.034   1.458   3.171  0.7478 -0.2804  0.1380
 7653SOL    MW430380   3.987   1.385   3.163 -0.1624  0.2703  0.3790
 7654SOL     OW30381   0.629   4.872   0.060  0.2701 -0.4015  0.4770
 7654SOL    HW230382   0.651   4.821  -0.018 -0.8850  0.1808 -0.2690
 7654SOL    HW330383   0.598   4.956   0.025 -0.5139 -0.2238  1.5559
 7654SOL    MW430384   0.628   4.877   0.045  0.0142 -0.3012  0.5209
 7655SOL     OW30385   6.011   2.970   0.196  0.0138  0.2996  0.3340
 7655SOL    HW230386   5.992   3.020   0.275  2.0881  0.9472  0.4915
 7655SOL    HW330387   6.092   2.924   0.215 -0.3854 -0.9428 -0.8093
 7655SOL    MW430388   6.019   2.971   0.209  0.2348  0.2212  0.2039
 7656SOL     OW30389   5.272   4.107   3.993  0.9769 -0.3441  0.2279
 7656SOL    HW230390   5.201   4.054   4.030  0.8329  0.3093  0.8959
 7656SOL    HW330391   5.241   4.197   4.001  1.7194 -0.0808  0.1666
 7656SOL    MW430392   5.258   4.112   3.999  1.0559 -0.2232  0.3080
 7657SOL     OW30393   4.513   4.286   4.885  0.0731 -0.3674 -0.1320
 7657SOL    HW230394   4.537   4.304   4.976 -0.0434  0.2734 -0.2260
 7657SOL    HW330395   4.565   4.348   4.834  0.7192 -1.2472 -0.5586
 7657SOL    MW430396   4.523   4.297   4.890  0.1430 -0.3989 -0.2007
 7658SOL     OW30397   6.230   0.424   2.337 -0.4623  0.0326 -0.8624
 7658SOL    HW230398   6.166   0.479   2.383  0.3070 -0.4725  0.9038
 7658SOL    HW330399   6.296   0.486   2.306 -0.4023  0.2735 -0.2641
 7658SOL    MW430400   6.230   0.440   2.339 -0.3529 -0.0022 -0.5504
 7659SOL     OW30401   0.407   0.951   6.166 -0.1615  0.1935  0.4663
 7659SOL    HW230402   0.395   0.919   6.076  1.4368  0.9510 -0.0409
 7659SOL    HW330403   0.349   1.027   6.173 -0.4460  0.0062  0.1486
 7659SOL    MW430404   0.398   0.957   6.155  0.0118  0.2687  0.3575
 7660SOL     OW30405   6.387   2.992   5.362  0.0617 -0.8065 -0.0075
 7660SOL    HW230406   6.310   3.003   5.417  0.1811 -1.9186  0.4204
 7660SOL    HW330407   6.418   2.903   5.382  0.5401 -0.9633 -1.3161
 7660SOL    MW430408   6.381   2.982   5.372  0.1406 -0.9739 -0.1237
 7661SOL     OW30409   2.423   1.883   5.195 -0.1949  0.1682  0.2235
 7661SOL    HW230410   2.383   1.823   5.258 -0.8000 -0.2907 -0.5799
 7661SOL    HW330411   2.412   1.969   5.234  0.2992 -0.1876  1.1917
 7661SOL    MW430412   2.416   1.886   5.208 -0.2095  0.0607  0.2452
 7662SOL     OW30413   4.496   4.219   2.522  0.2638 -0.0047 -0.2277
 7662SOL    HW230414   4.490   4.276   2.599 -3.0111 -0.6537  0.1333
 7662SOL    HW330415   4.471   4.275   2.449 -1.5042 -0.5411 -0.0746
 7662SOL    MW430416   4.492   4.234   2.523 -0.4016 -0.1611 -0.1599
 7663SOL     OW30417   0.020   5.513   3.501  0.3693 -0.3049  0.4565
 7663SOL    HW230418   0.042   5.473   3.585 -2.6813  0.1472  1.5986
 7663SOL    HW330419   0.042   5.606   3.512  1.0231 -0.4392  0.3224
 7663SOL    MW430420   0.026   5.520   3.514  0.0530 -0.2630  0.5895
 7664SOL     OW30421   5.021   3.032   2.667  0.3015 -0.6893 -0.6330
 7664SOL    HW230422   5.057   3.108   2.622 -0.4214  0.1018  0.0864
 7664SOL    HW330423   4.959   3.068   2.730  0.4987 -1.8249  0.2569
 7664SOL    MW430424   5.018   3.046   2.670  0.2321 -0.7347 -0.4207
 7665SOL     OW30425   3.102   5.642   2.450  0.1013 -0.2069  0.0660
 7665SOL    HW230426   3.022   5.624   2.499  0.3010 -0.9107  0.1487
 7665SOL    HW330427   3.072   5.675   2.365 -0.2495  1.9615  0.9628
 7665SOL    MW430428   3.087   5.644   2.445  0.0814 -0.0137  0.1953
 7666SOL     OW30429   5.092   4.307   1.281  0.0615  0.0689 -0.3870
 7666SOL    HW230430   5.005   4.297   1.242 -0.9296 -0.4004  1.8010
 7666SOL    HW330431   5.136   4.224   1.264 -0.8173 -0.6012  0.5017
 7666SOL    MW430432   5.086   4.295   1.274 -0.1852 -0.0814  0.0189
 7667SOL     OW30433   1.865   6.163   5.780  0.2616 -0.5638  0.1835
 7667SOL    HW230434   1.914   6.223   5.836 -2.1479 -0.2223  2.0952
 7667SOL    HW330435   1.925   6.090   5.764  2.1901  0.9166  0.3525
 7667SOL    MW430436   1.879   6.161   5.785  0.1981 -0.3234  0.4580
 7668SOL     OW30437   1.764   5.766   3.105  0.5779  0.1300  0.0741
 7668SOL    HW230438   1.766   5.750   3.011  0.2284 -0.8732  0.2222
 7668SOL    HW330439   1.845   5.813   3.123  0.7599  0.1234 -0.6925
 7668SOL    MW430440   1.775   5.770   3.095  0.5558 -0.0032 -0.0075
 7669SOL     OW30441   2.541   1.994   3.847 -0.0162 -0.0510 -0.2106
 7669SOL    HW230442   2.581   2.059   3.904  0.7899 -0.3721 -0.4004
 7669SOL    HW330443   2.452   1.983   3.882  0.4191 -0.1491  0.9146
 7669SOL    MW430444   2.534   2.001   3.860  0.1476 -0.1063 -0.0872
 7670SOL     OW30445   5.644   1.955   3.185  0.2994  0.1348  0.2022
 7670SOL    HW230446   5.637   1.865   3.217  2.3447  0.9405  3.3844
 7670SOL    HW330447   5.563   1.997   3.215 -0.6341 -0.5467 -1.2407
 7670SOL    MW430448   5.632   1.948   3.193  0.4461  0.1512  0.4317
 7671SOL     OW30449   1.274   3.864   3.831  0.0148 -0.3390 -0.0098
 7671SOL    HW230450   1.264   3.828   3.919 -4.0132 -1.5961 -0.8174
 7671SOL    HW330451   1.234   3.800   3.773 -0.7055  2.0708 -2.3888
 7671SOL    MW430452   1.268   3.851   3.835 -0.6117 -0.1869 -0.4303
 7672SOL     OW30453   6.327   6.211   3.283  0.3191  0.1911  0.8327
 7672SOL    HW230454   6.235   6.235   3.296  0.2863  1.3235 -0.9799
 7672SOL    HW330455   6.327   6.116   3.272 -0.8150  0.2803 -0.1534
 7672SOL    MW430456   6.315   6.202   3.283  0.1652  0.3523  0.4635
 7673SOL     OW30457   2.777   0.757   4.418 -0.5508  0.3766  0.6907
 7673SOL    HW230458   2.865   0.793   4.433 -0.6449  1.4094 -0.9089
 7673SOL    HW330459   2.766   0.691   4.486  1.4090  0.3247  1.0312
 7673SOL    MW430460   2.787   0.753   4.429 -0.3047  0.5060  0.5246
 7674SOL     OW30461   3.984   2.186   5.103  0.1975  0.4972 -0.1722
 7674SOL    HW230462   4.018   2.238   5.177  2.4151  0.4424 -1.0717
 7674SOL    HW330463   3.903   2.230   5.078  0.4841  1.7528  0.9703
 7674SOL    MW430464   3.978   2.199   5.110  0.5279  0.6557 -0.1401
 7675SOL     OW30465   5.905   5.713   2.575 -0.3055 -0.5487 -0.0928
 7675SOL    HW230466   5.831   5.773   2.578  0.9959  1.1323 -0.2834
 7675SOL    HW330467   5.982   5.768   2.589  0.8961 -2.3106  0.6123
 7675SOL    MW430468   5.905   5.728   2.577  0.0248 -0.5593 -0.0249
 7676SOL     OW30469   2.309   1.703   3.289 -0.4702  0.8233 -0.1273
 7676SOL    HW230470   2.289   1.611   3.271  0.5007  0.5619  0.0982
 7676SOL    HW330471   2.394   1.701   3.332 -1.3282  1.6752  1.7192
 7676SOL    MW430472   2.317   1.690   3.292 -0.4553  0.9012  0.1461
 7677SOL     OW30473   1.801   1.206   3.811  0.2224  0.0318 -0.0121
 7677SOL    HW230474   1.845   1.255   3.742 -0.9515 -1.1748 -1.7025
 7677SOL    HW330475   1.787   1.270   3.881  1.5202  1.2739 -0.8377
 7677SOL    MW430476   1.805   1.221   3.811  0.2388  0.0365 -0.3440
 7678SOL     OW30477   1.189   4.068   3.289  0.0906  0.1557  0.1030
 7678SOL    HW230478   1.145   3.994   3.330  0.6584  0.3080  0.9977
 7678SOL    HW330479   1.205   4.130   3.360  2.3810 -0.1837 -0.0230
 7678SOL    MW430480   1.185   4.067   3.303  0.4677  0.1310  0.2044
 7679SOL     OW30481   1.937   0.936   3.301  0.0865 -0.4121  0.2810
 7679SOL    HW230482   1.891   1.008   3.258  1.0115 -1.0509 -1.9286
 7679SOL    HW330483   2.025   0.937   3.263  0.7100 -1.5432  1.6021
 7679SOL    MW430484   1.943   0.945   3.290  0.2908 -0.6456  0.1638
 7680SOL     OW30485   3.433   0.729   3.401 -0.1946 -0.0688 -0.6576
 7680SOL    HW230486   3.367   0.726   3.471  1.3214 -0.1771  0.8241
 7680SOL    HW330487   3.487   0.652   3.417  0.8083  0.4878 -1.3264
 7680SOL    MW430488   3.431   0.718   3.413  0.1378 -0.0096 -0.5504
 7681SOL     OW30489   2.552   2.271   1.230  0.1362  0.0174  0.2912
 7681SOL    HW230490   2.597   2.344   1.187  0.2905 -0.6312 -0.6752
 7681SOL    HW330491   2.588   2.271   1.319 -1.2378  2.2671  0.9203
 7681SOL    MW430492   2.563   2.280   1.236 -0.0247  0.2287  0.2467
 7682SOL     OW30493   5.036   0.952   6.397 -1.1481 -0.3239  0.3776
 7682SOL    HW230494   5.019   0.858   6.387  0.3354 -0.5403 -0.3965
 7682SOL    HW330495   5.113   0.956   6.455 -0.9837  0.3895  0.1134
 7682SOL    MW430496   5.044   0.940   6.403 -0.9307 -0.2583  0.2406
 7683SOL     OW30497   3.518   6.037   2.231  0.5693  0.3444  0.0550
 7683SOL    HW230498   3.532   6.053   2.138 -0.0042  1.3492  0.1272
 7683SOL    HW330499   3.441   5.981   2.234 -0.9945  2.3964 -0.0131
 7683SOL    MW430500   3.510   6.031   2.219  0.2873  0.7477  0.0556
 7684SOL     OW30501   2.739   1.446   5.527  0.4489 -0.3625 -0.4148
 7684SOL    HW230502   2.711   1.379   5.589  0.0417 -0.8986 -1.1758
 7684SOL    HW330503   2.828   1.468   5.555  0.7529 -1.5249 -0.4160
 7684SOL    MW430504   2.747   1.440   5.539  0.4352 -0.5866 -0.5154
 7685SOL     OW30505   5.467   2.508   0.480  0.5028  0.7274  0.1895
 7685SOL    HW230506   5.464   2.491   0.386  0.0952 -0.6675  0.4420
 7685SOL    HW330507   5.559   2.498   0.504  0.7190  1.7379 -0.1534
 7685SOL    MW430508   5.478   2.505   0.471  0.4776  0.6767  0.1775
 7686SOL     OW30509   1.014   2.580   0.015 -0.0372  0.5955 -0.2988
 7686SOL    HW230510   0.990   2.508   0.074  0.6914 -0.8992 -1.7837
 7686SOL    HW330511   0.944   2.644   0.028 -0.8094 -0.4316  0.9190
 7686SOL    MW430512   1.001   2.579   0.025 -0.0429  0.2628 -0.3341
 7687SOL     OW30513   5.897   4.224   5.840 -0.0766  0.0960 -0.3440
 7687SOL    HW230514   5.963   4.261   5.782  0.3591 -0.0077  0.0726
 7687SOL    HW330515   5.935   4.233   5.928 -1.5051  1.9420  0.1446
 7687SOL    MW430516   5.911   4.230   5.844 -0.2076  0.3259 -0.2245
 7688SOL     OW30517   3.608   5.411   0.054 -0.5812 -0.1211 -0.3572
 7688SOL    HW230518   3.530   5.427   0.107 -0.7526  1.0428 -0.9343
 7688SOL    HW330519   3.615   5.487  -0.003  0.9839 -0.1916 -0.3144
 7688SOL    MW430520   3.599   5.423   0.054 -0.3973  0.0231 -0.4277
 7689SOL     OW30521   4.563   4.640   3.113 -0.1114  0.3807 -0.0739
 7689SOL    HW230522   4.540   4.710   3.175  2.5753 -0.7416  2.4220
 7689SOL    HW330523   4.603   4.572   3.167  1.1441 -1.3307 -2.9142
 7689SOL    MW430524   4.565   4.640   3.128  0.4087  0.0068 -0.1193
 7690SOL     OW30525   4.477   6.426   5.311 -0.0688 -0.6022  0.3381
 7690SOL    HW230526   4.564   6.454   5.281  0.0071 -1.0660  0.1143
 7690SOL    HW330527   4.492   6.392   5.399 -0.4961  1.9425  1.4921
 7690SOL    MW430528   4.490   6.425   5.318 -0.1151 -0.3276  0.4609
 7691SOL     OW30529   1.007   2.720   4.238 -0.5174 -0.2051  0.5758
 7691SOL    HW230530   0.917   2.753   4.228 -0.7052 -0.7803  0.2959
 7691SOL    HW330531   1.062   2.798   4.235 -1.0435  0.2129  1.3088
 7691SOL    MW430532   1.002   2.735   4.236 -0.6116 -0.2258  0.6356
 7692SOL     OW30533   2.658   0.553   1.251 -0.3269 -0.1134 -0.4747
 7692SOL    HW230534   2.580   0.533   1.302 -2.0304  0.5577 -2.6539
 7692SOL    HW330535   2.683   0.470   1.210 -0.2064 -0.2277 -0.1659
 7692SOL    MW430536   2.651   0.539   1.252 -0.5358 -0.0399 -0.7215
 7693SOL     OW30537   0.097   0.502   1.235 -0.8158 -0.1425  0.0329
 7693SOL    HW230538   0.100   0.569   1.303  1.4339  1.4967 -1.5445
 7693SOL    HW330539   0.182   0.507   1.191 -1.7544 -1.8415 -2.2177
 7693SOL    MW430540   0.108   0.511   1.238 -0.6428 -0.1504 -0.4721
 7694SOL     OW30541   1.616   6.317   3.603 -0.6234  0.5262  0.2203
 7694SOL    HW230542   1.553   6.364   3.657 -0.3161  1.7678 -0.4535
 7694SOL    HW330543   1.602   6.352   3.515 -0.2760 -0.5550 -0.2710
 7694SOL    MW430544   1.606   6.328   3.599 -0.5370  0.5473  0.0666
 7695SOL     OW30545   6.121   2.908   1.612  0.1575 -0.3333 -0.7113
 7695SOL    HW230546   6.082   2.826   1.582  1.1793 -0.4189 -1.8883
 7695SOL    HW330547   6.136   2.894   1.705 -3.7576  0.1952  0.1852
 7695SOL    MW430548   6.118   2.895   1.620 -0.2243 -0.2749 -0.7483
 7696SOL     OW30549   2.567   4.887   5.026  0.0287  0.1659 -0.5629
 7696SOL    HW230550   2.631   4.953   5.001 -0.0417 -0.5698 -2.8453
 7696SOL    HW330551   2.565   4.891   5.122  3.3590  0.3077 -0.3822
 7696SOL    MW430552   2.575   4.896   5.036  0.4588  0.0876 -0.8402
 7697SOL     OW30553   2.548   6.404   0.542 -0.4807 -0.1077  0.2796
 7697SOL    HW230554   2.560   6.453   0.461 -0.4890 -0.3443  0.1329
 7697SOL    HW330555   2.539   6.313   0.513 -1.0407 -0.1276  0.5079
 7697SOL    MW430556   2.549   6.398   0.527 -0.5557 -0.1415  0.2904
 7698SOL     OW30557   0.672   5.663   4.004 -0.2397 -0.0208 -0.4574
 7698SOL    HW230558   0.612   5.588   4.006 -0.1550 -0.1606 -2.0443
 7698SOL    HW330559   0.731   5.645   3.931  2.2416 -0.2271  1.4773
 7698SOL    MW430560   0.672   5.651   3.995  0.0989 -0.0665 -0.4115
 7699SOL     OW30561   1.166   0.571   6.023 -0.2251  0.3416 -0.3485
 7699SOL    HW230562   1.197   0.619   6.100 -0.2502 -0.2271  0.0228
 7699SOL    HW330563   1.073   0.554   6.041 -0.2536  0.2913 -0.5438
 7699SOL    MW430564   1.158   0.575   6.036 -0.2322  0.2599 -0.3253
 7700SOL     OW30565   2.413   3.284   6.413 -0.3183  1.1883 -0.6238
 7700SOL    HW230566   2.340   3.323   6.365 -1.4402  3.4274  2.5336
 7700SOL    HW330567   2.488   3.341   6.393 -0.7060  1.9198 -0.0674
 7700SOL    MW430568   2.413   3.297   6.404 -0.5175  1.5803 -0.1338
 7701SOL     OW30569   6.348   1.950   5.131  0.8087 -0.7479  0.0902
 7701SOL    HW230570   6.345   1.996   5.047 -0.3244 -1.3815 -0.2354
 7701SOL    HW330571   6.361   2.019   5.196 -0.5663  0.0138 -0.4187
 7701SOL    MW430572   6.350   1.965   5.129  0.4778 -0.7310 -0.0199
 7702SOL     OW30573   4.869   2.943   1.698 -0.0619 -0.4845  1.0679
 7702SOL    HW230574   4.834   3.007   1.637 -1.3060 -1.9484  0.1833
 7702SOL    HW330575   4.863   2.985   1.784  0.4884  1.0967  0.3542
 7702SOL    MW430576   4.864   2.957   1.701 -0.1534 -0.4690  0.8570
 7703SOL     OW30577   2.857   5.099   5.975  0.3767 -0.1225  0.5166
 7703SOL    HW230578   2.884   5.166   5.913  0.0340 -0.3596  0.1023
 7703SOL    HW330579   2.846   5.146   6.058  0.7325  0.2157  0.3731
 7703SOL    MW430580   2.859   5.114   5.978  0.3784 -0.1092  0.4430
 7704SOL     OW30581   3.913   2.556   3.574 -0.5733  0.2250  0.1104
 7704SOL    HW230582   3.836   2.508   3.541  0.7592 -1.4184 -0.7934
 7704SOL    HW330583   3.959   2.492   3.628  0.6407  0.8822 -0.1208
 7704SOL    MW430584   3.909   2.541   3.577 -0.2373  0.0949 -0.0394
 7705SOL     OW30585   1.044   0.414   3.826  0.2084  0.0673  0.0496
 7705SOL    HW230586   1.013   0.483   3.884  0.1487 -0.5868  0.8006
 7705SOL    HW330587   1.006   0.435   3.741  1.2003  1.6617 -0.0370
 7705SOL    MW430588   1.035   0.426   3.822  0.3314  0.1913  0.1373
 7706SOL     OW30589   3.895   5.734   2.338 -0.2999  0.1691 -0.2569
 7706SOL    HW230590   3.832   5.799   2.369  0.5339  1.5808 -1.4140
 7706SOL    HW330591   3.978   5.758   2.379  0.0645 -0.0234 -0.8640
 7706SOL    MW430592   3.898   5.746   2.348 -0.1418  0.3300 -0.4896
 7707SOL     OW30593   4.999   3.689   5.775  0.3831  0.3448  0.4378
 7707SOL    HW230594   5.028   3.773   5.741  1.1759 -0.2509 -0.3961
 7707SOL    HW330595   5.055   3.624   5.733  1.2057 -0.4823  2.6385
 7707SOL    MW430596   5.010   3.691   5.765  0.5962  0.1571  0.6181
 7708SOL     OW30597   0.785   2.671   3.659 -0.3069  0.4948 -0.1202
 7708SOL    HW230598   0.827   2.652   3.743  0.2536 -1.1062 -0.7202
 7708SOL    HW330599   0.858   2.671   3.596 -1.0138 -1.2009 -1.0090
 7708SOL    MW430600   0.800   2.668   3.662 -0.3262  0.0598 -0.3166
 7709SOL     OW30601   2.183   0.602   2.899  0.1703  0.2423 -0.5781
 7709SOL    HW230602   2.166   0.615   2.806  2.8361  0.4375 -1.1293
 7709SOL    HW330603   2.242   0.674   2.923  0.7365 -0.6468  0.8681
 7709SOL    MW430604   2.189   0.613   2.890  0.5967  0.1508 -0.4600
 7710SOL     OW30605   2.971   4.616   0.937  0.1080 -0.3209 -0.1146
 7710SOL    HW230606   2.899   4.608   0.999 -1.4257  1.1900 -1.5732
 7710SOL    HW330607   3.028   4.684   0.974 -1.5787  1.6590 -0.9643
 7710SOL    MW430608   2.969   4.624   0.950 -0.3169  0.1397 -0.4192
 7711SOL     OW30609   3.129   4.632   0.392 -0.0144  0.6349  0.0477
 7711SOL    HW230610   3.222   4.651   0.388 -0.0710  1.0118  0.4713
 7711SOL    HW330611   3.124   4.542   0.424  0.2389  0.0700 -1.4111
 7711SOL    MW430612   3.140   4.622   0.395  0.0116  0.6101 -0.0889
 7712SOL     OW30613   2.074   2.822   3.008  0.0132 -0.0811 -1.1999
 7712SOL    HW230614   2.053   2.731   2.986  0.0474  0.2430 -2.6636
 7712SOL    HW330615   2.061   2.870   2.926 -2.9856  1.7757  0.2044
 7712SOL    MW430616   2.069   2.816   2.994 -0.3779  0.2066 -1.2077
 7713SOL     OW30617   0.915   2.582   2.458 -0.0302  0.4201  0.2388
 7713SOL    HW230618   1.001   2.620   2.476  0.0417  0.2625  0.2227
 7713SOL    HW330619   0.897   2.526   2.533  1.1257 -1.7716 -1.0214
 7713SOL    MW430620   0.924   2.580   2.470  0.1318  0.1101  0.0704
 7714SOL     OW30621   3.677   1.160   0.202 -0.3387  0.2246 -0.0244
 7714SOL    HW230622   3.672   1.228   0.134 -2.0294 -0.7757 -0.9844
 7714SOL    HW330623   3.586   1.145   0.227  0.2171  0.1570  2.1060
 7714SOL    MW430624   3.664   1.167   0.196 -0.4884  0.0837  0.1300
 7715SOL     OW30625   2.259   2.782   2.438  0.5844 -0.0157  0.1158
 7715SOL    HW230626   2.273   2.850   2.504  0.4953 -0.2459  0.3746
 7715SOL    HW330627   2.260   2.829   2.355  2.4107  0.0779  0.1363
 7715SOL    MW430628   2.261   2.797   2.436  0.8136 -0.0337  0.1527
 7716SOL     OW30629   3.956   4.146   3.027 -0.2377  0.0246  0.0655
 7716SOL    HW230630   4.037   4.158   2.978 -0.2052  1.8024  0.4770
 7716SOL    HW330631   3.897   4.213   2.992 -0.6898  0.3714  1.4408
 7716SOL    MW430632   3.959   4.157   3.016 -0.2931  0.3049  0.3013
 7717SOL     OW30633   5.333   3.365   4.512  0.3212 -0.2456 -0.2439
 7717SOL    HW230634   5.256   3.337   4.560  0.7826  0.3650  0.8776
 7717SOL    HW330635   5.338   3.460   4.526 -0.2036  0.1746 -2.4828
 7717SOL    MW430636   5.324   3.374   4.520  0.3128 -0.1096 -0.3913
 7718SOL     OW30637   2.620   1.454   1.947 -0.4486 -0.3614  0.3472
 7718SOL    HW230638   2.704   1.411   1.962 -0.1171  0.2422  0.2484
 7718SOL    HW330639   2.626   1.537   1.995 -0.6194  0.1139 -0.4390
 7718SOL    MW430640   2.631   1.460   1.955 -0.4274 -0.2191  0.2304
 7719SOL     OW30641   2.826   2.910   0.227  0.3280 -0.1653 -0.0901
 7719SOL    HW230642   2.731   2.916   0.219  0.1894 -0.8785  0.8206
 7719SOL    HW330643   2.841   2.826   0.269  1.2404  0.7622  1.5580
 7719SOL    MW430644   2.815   2.900   0.232  0.4301 -0.1371  0.2475
 7720SOL     OW30645   1.268   3.189   2.066  0.2991 -0.2824 -0.3842
 7720SOL    HW230646   1.337   3.145   2.015  0.4339 -0.7446  0.1794
 7720SOL    HW330647   1.309   3.271   2.095 -0.3501  0.8422 -2.4545
 7720SOL    MW430648   1.283   3.194   2.063  0.2312 -0.1950 -0.5830
 7721SOL     OW30649   2.294   6.083   2.421 -0.4523  0.2020  0.0586
 7721SOL    HW230650   2.200   6.069   2.434 -0.4113 -0.4845 -0.3198
 7721SOL    HW330651   2.328   5.996   2.399  0.3894  0.3099  0.8730
 7721SOL    MW430652   2.286   6.070   2.420 -0.3358  0.1257  0.1161
 7722SOL     OW30653   3.552   6.289   1.688  0.4160  0.4631  0.2376
 7722SOL    HW230654   3.489   6.361   1.684  0.3004  0.4027  0.8459
 7722SOL    HW330655   3.555   6.254   1.599 -1.8454 -0.7873  0.5713
 7722SOL    MW430656   3.544   6.294   1.676  0.1023  0.2902  0.3619
 7723SOL     OW30657   2.100   0.591   2.636  0.5292 -0.1774 -0.3062
 7723SOL    HW230658   2.047   0.556   2.565  1.0654  2.6905 -2.3283
 7723SOL    HW330659   2.180   0.539   2.636  0.0581 -0.9088 -1.0751
 7723SOL    MW430660   2.104   0.580   2.627  0.5378  0.1045 -0.6745
 7724SOL     OW30661   0.806   0.841   3.177  0.3254  0.6078 -0.5559
 7724SOL    HW230662   0.773   0.765   3.129 -0.6510  0.7299 -0.1050
 7724SOL    HW330663   0.900   0.826   3.185  0.2818 -0.0981 -1.2660
 7724SOL    MW430664   0.814   0.829   3.171  0.1908  0.5308 -0.5901
 7725SOL     OW30665   2.947   5.644   2.210 -0.1748 -0.4795 -0.0253
 7725SOL    HW230666   2.860   5.678   2.191 -0.3768 -0.4633  0.9189
 7725SOL    HW330667   2.942   5.551   2.188 -0.6635 -0.6441  0.7656
 7725SOL    MW430668   2.935   5.636   2.204 -0.2659 -0.4991  0.2036
 7726SOL     OW30669   0.358   3.842   6.238 -0.5032 -0.3272 -0.3690
 7726SOL    HW230670   0.333   3.894   6.315 -1.0079 -0.7199 -0.2573
 7726SOL    HW330671   0.368   3.753   6.272  0.1105 -0.3499 -0.6030
 7726SOL    MW430672   0.356   3.837   6.253 -0.4888 -0.3820 -0.3852
 7727SOL     OW30673   3.526   0.852   2.394 -1.0288 -0.2621 -0.1023
 7727SOL    HW230674   3.433   0.832   2.385 -0.7442 -1.4907 -0.5387
 7727SOL    HW330675   3.542   0.921   2.330 -1.4098 -0.8677 -0.8712
 7727SOL    MW430676   3.516   0.858   2.385 -1.0415 -0.5041 -0.2613
 7728SOL     OW30677   4.933   3.213   4.217  0.0261 -0.5000 -0.0998
 7728SOL    HW230678   4.931   3.121   4.189 -0.0802 -0.7317  0.6256
 7728SOL    HW330679   5.018   3.245   4.187 -1.1013  0.0589 -2.9881
 7728SOL    MW430680   4.944   3.205   4.210 -0.1366 -0.4569 -0.3852
 7729SOL     OW30681   3.956   0.796   1.164  0.1804  0.4046  0.2663
 7729SOL    HW230682   3.966   0.889   1.144  0.4100  0.1775 -0.7452
 7729SOL    HW330683   4.029   0.754   1.118  0.4115 -0.2202  1.1724
 7729SOL    MW430684   3.967   0.803   1.155  0.2412  0.2922  0.2524
 7730SOL     OW30685   3.707   1.201   4.158  0.1736 -0.7185  0.4263
 7730SOL    HW230686   3.637   1.153   4.200  1.2512 -1.9003  0.9422
 7730SOL    HW330687   3.665   1.246   4.084 -1.2585 -0.6583  1.2400
 7730SOL    MW430688   3.693   1.201   4.154  0.1269 -0.8665  0.6017
 7731SOL     OW30689   4.120   2.210   1.217 -0.1564 -0.2084 -0.3279
 7731SOL    HW230690   4.056   2.184   1.283 -1.7345 -0.3047 -1.8252
 7731SOL    HW330691   4.203   2.175   1.249 -0.5904  0.8437  2.2250
 7731SOL    MW430692   4.123   2.202   1.230 -0.4219 -0.0823 -0.1887
 7732SOL     OW30693   2.578   4.531   2.070 -0.1948  0.0207  0.0312
 7732SOL    HW230694   2.508   4.500   2.014 -0.4443 -0.1352  0.4259
 7732SOL    HW330695   2.579   4.470   2.144 -0.6758  0.9327  0.8026
 7732SOL    MW430696   2.569   4.519   2.072 -0.2912  0.1204  0.1850
 7733SOL     OW30697   3.447   0.250   3.671  0.0299  0.0218 -0.5739
 7733SOL    HW230698   3.433   0.215   3.583 -2.3487 -2.0998  0.5119
 7733SOL    HW330699   3.539   0.275   3.673  0.1343  0.2419 -3.6658
 7733SOL    MW430700   3.457   0.248   3.660 -0.2702 -0.2291 -0.8386
 7734SOL     OW30701   2.603   5.699   4.037  0.7634 -0.6075  0.2170
 7734SOL    HW230702   2.583   5.605   4.037 -1.0340 -0.2649  0.4638
 7734SOL    HW330703   2.552   5.734   4.110 -0.5609  0.9134 -1.3452
 7734SOL    MW430704   2.594   5.691   4.047  0.3515 -0.3616  0.0435
 7735SOL     OW30705   2.819   2.523   1.519 -0.0053  0.1464 -0.2399
 7735SOL    HW230706   2.799   2.574   1.440 -0.3078 -0.4438 -0.5478
 7735SOL    HW330707   2.888   2.573   1.563  0.6431  0.1435 -1.2188
 7735SOL    MW430708   2.826   2.536   1.515  0.0403  0.0681 -0.4097
 7736SOL     OW30709   1.430   2.485   1.831 -0.4034 -0.2686 -0.0053
 7736SOL    HW230710   1.368   2.478   1.758  1.5695  1.9113 -2.0369
 7736SOL    HW330711   1.374   2.494   1.908 -2.6144 -0.1524 -1.5159
 7736SOL    MW430712   1.414   2.485   1.831 -0.4348  0.0344 -0.4727
 7737SOL     OW30713   0.208   3.955   6.429  0.3219  0.0267  0.3437
 7737SOL    HW230714   0.252   3.993   6.505  2.1620  0.0782 -0.6834
 7737SOL    HW330715   0.203   3.862   6.448  2.0427 -0.1625 -0.0425
 7737SOL    MW430716   0.213   3.948   6.441  0.7917  0.0086  0.1573
 7738SOL     OW30717   2.225   4.268   2.371 -0.2600 -0.5029 -0.5845
 7738SOL    HW230718   2.179   4.278   2.455  0.0444  2.2545 -0.6596
 7738SOL    HW330719   2.304   4.219   2.393  1.5138  2.8928  1.5858
 7738SOL    MW430720   2.229   4.263   2.385  0.0142  0.3089 -0.3081
 7739SOL     OW30721   0.141   3.815   0.334 -0.6165  0.0806  0.9052
 7739SOL    HW230722   0.076   3.819   0.264  0.5294  0.7515 -0.1646
 7739SOL    HW330723   0.169   3.906   0.346 -0.4732 -0.0898  1.9354
 7739SOL    MW430724   0.136   3.827   0.327 -0.4464  0.1467  0.9000
 7740SOL     OW30725   5.831   3.151   5.574  0.2429 -0.1415 -0.5190
 7740SOL    HW230726   5.923   3.140   5.600 -0.0652 -1.2054  0.1731
 7740SOL    HW330727   5.790   3.196   5.647 -0.1692 -1.2876 -0.0181
 7740SOL    MW430728   5.838   3.155   5.587  0.1478 -0.4330 -0.3616
 7741SOL     OW30729   5.156   3.008   4.001 -0.1959 -0.2092 -0.3230
 7741SOL    HW230730   5.127   3.071   3.936 -1.7158 -1.5065 -0.9533
 7741SOL    HW330731   5.188   2.933   3.950  1.0456 -0.2276  0.4173
 7741SOL    MW430732   5.157   3.006   3.986 -0.2326 -0.3828 -0.3085
 7742SOL     OW30733   3.904   5.569   1.231  0.1771 -0.0614 -0.5075
 7742SOL    HW230734   3.970   5.610   1.287  0.1237  0.5655 -0.8857
 7742SOL    HW330735   3.927   5.599   1.143 -0.0111 -0.6634 -0.7615
 7742SOL    MW430736   3.916   5.578   1.227  0.1452 -0.0581 -0.5909
 7743SOL     OW30737   5.537   2.783   3.351 -0.3326 -0.1691  0.4167
 7743SOL    HW230738   5.536   2.783   3.256 -1.4019 -2.0755  0.3723
 7743SOL    HW330739   5.589   2.706   3.374 -1.2926 -0.5676  1.3386
 7743SOL    MW430740   5.544   2.773   3.342 -0.6004 -0.4732  0.5324
 7744SOL     OW30741   2.528   4.541   0.731 -0.4167 -0.0088  0.1547
 7744SOL    HW230742   2.555   4.598   0.802  2.2511 -1.3092  0.3265
 7744SOL    HW330743   2.536   4.595   0.652  0.0803  0.4477  0.5094
 7744SOL    MW430744   2.533   4.555   0.730  0.0008 -0.1202  0.2241
 7745SOL     OW30745   2.864   3.491   0.704 -0.0719 -0.2318 -0.4939
 7745SOL    HW230746   2.841   3.497   0.797 -0.3676 -1.0647 -0.5081
 7745SOL    HW330747   2.951   3.450   0.704 -0.5678 -1.3351 -0.6122
 7745SOL    MW430748   2.873   3.486   0.716 -0.1764 -0.4873 -0.5114
 7746SOL     OW30749   5.283   0.940   0.903 -0.2930  0.5235 -0.4809
 7746SOL    HW230750   5.195   0.939   0.941 -0.9763 -2.1355 -1.9190
 7746SOL    HW330751   5.296   1.031   0.875 -1.8118  1.3732  1.3362
 7746SOL    MW430752   5.273   0.952   0.904 -0.5835  0.2848 -0.4309
 7747SOL     OW30753   6.340   4.575   0.717  0.2876  0.2475 -0.6005
 7747SOL    HW230754   6.248   4.590   0.698  0.1867 -0.4045 -0.6344
 7747SOL    HW330755   6.341   4.497   0.773  0.7766  0.5549 -0.1651
 7747SOL    MW430756   6.328   4.567   0.722  0.3388  0.2020 -0.5475
 7748SOL     OW30757   4.169   2.529   0.161  0.1251 -0.7450 -0.0490
 7748SOL    HW230758   4.228   2.516   0.235  1.3268  2.3807 -0.2735
 7748SOL    HW330759   4.085   2.495   0.190  1.3667 -2.8291  1.3389
 7748SOL    MW430760   4.166   2.523   0.174  0.4475 -0.6076  0.1045
 7749SOL     OW30761   0.515   0.244   1.914  0.0690 -0.3302  0.2261
 7749SOL    HW230762   0.562   0.174   1.960  1.0711 -0.6705 -1.2395
 7749SOL    HW330763   0.453   0.198   1.858 -0.5322  0.0387  0.5854
 7749SOL    MW430764   0.513   0.229   1.913  0.1219 -0.3264  0.0801
 7750SOL     OW30765   2.506   3.399   4.304  0.4278  0.0048 -0.7946
 7750SOL    HW230766   2.535   3.473   4.358  0.3569 -1.9373  2.1079
 7750SOL    HW330767   2.572   3.392   4.236  0.7250  2.3774 -0.8592
 7750SOL    MW430768   2.518   3.408   4.302  0.4576  0.0616 -0.4202
 7751SOL     OW30769   6.297   3.858   0.160 -0.9838 -0.0703  0.0407
 7751SOL    HW230770   6.261   3.774   0.133 -0.6926 -0.6931  1.4724
 7751SOL    HW330771   6.292   3.913   0.082 -0.2942 -1.7029 -1.2264
 7751SOL    MW430772   6.292   3.854   0.146 -0.8544 -0.3679  0.0624
 7752SOL     OW30773   2.863   3.051   0.563  0.2367  0.4249 -0.3421
 7752SOL    HW230774   2.915   3.106   0.621  0.9075  1.1772 -1.6221
 7752SOL    HW330775   2.811   2.996   0.622  2.0392  0.0487  0.9854
 7752SOL    MW430776   2.863   3.051   0.578  0.5630  0.4745 -0.3359
 7753SOL     OW30777   6.347   4.936   1.180 -0.0356 -0.6441 -0.1190
 7753SOL    HW230778   6.255   4.948   1.156  0.2920  2.6284 -0.2097
 7753SOL    HW330779   6.349   4.952   1.274  0.1958 -2.9528  0.3212
 7753SOL    MW430780   6.335   4.940   1.189  0.0382 -0.5169 -0.0729
 7754SOL     OW30781   1.383   4.831   5.056 -0.0217 -0.1426  0.5968
 7754SOL    HW230782   1.407   4.739   5.067 -0.5699 -0.3385  0.1685
 7754SOL    HW330783   1.457   4.880   5.094  0.6159 -0.7422  0.1384
 7754SOL    MW430784   1.396   4.826   5.063 -0.0099 -0.2475  0.4798
 7755SOL     OW30785   5.963   0.388   1.265 -0.1605  0.3845  0.8696
 7755SOL    HW230786   5.930   0.342   1.343  0.0506  1.1622  1.4263
 7755SOL    HW330787   6.045   0.428   1.293  0.1226  0.3458  0.1286
 7755SOL    MW430788   5.969   0.387   1.279 -0.0953  0.4820  0.8453
 7756SOL     OW30789   3.072   2.479   0.104 -0.2492 -0.1442  0.0542
 7756SOL    HW230790   3.084   2.568   0.139 -0.5212  0.6005 -1.6240
 7756SOL    HW330791   3.144   2.468   0.042 -1.4767 -0.1768 -1.4295
 7756SOL    MW430792   3.083   2.489   0.100 -0.4470 -0.0503 -0.3630
 7757SOL     OW30793   2.735   1.884   0.019  0.5722  0.3539  0.4853
 7757SOL    HW230794   2.697   1.933   0.091  2.0793  1.5185  0.5284
 7757SOL    HW330795   2.676   1.809   0.007 -0.6535  1.0787  1.7509
 7757SOL    MW430796   2.722   1.880   0.027  0.6093  0.6032  0.6580
 7758SOL     OW30797   1.188   2.260   5.770 -0.1076  0.1282 -0.0979
 7758SOL    HW230798   1.208   2.245   5.863 -0.2072  0.6566  0.0126
 7758SOL    HW330799   1.203   2.176   5.729 -0.3964 -0.2005  0.4603
 7758SOL    MW430800   1.193   2.247   5.777 -0.1588  0.1545 -0.0097
 7759SOL     OW30801   2.281   0.594   0.444  0.6355  0.1313 -0.4999
 7759SOL    HW230802   2.283   0.636   0.530 -2.4521 -0.1457 -0.1680
 7759SOL    HW330803   2.253   0.663   0.384 -1.4227 -0.6045 -0.4761
 7759SOL    MW430804   2.277   0.609   0.447 -0.0434 -0.0023 -0.4530
 7760SOL     OW30805   2.694   0.956   4.607 -0.0530 -0.4506  0.0794
 7760SOL    HW230806   2.710   0.885   4.545  0.4035 -0.8302  0.6196
 7760SOL    HW330807   2.737   0.927   4.688  1.3929  1.0795 -0.0947
 7760SOL    MW430808   2.701   0.943   4.610  0.1980 -0.2988  0.1277
 7761SOL     OW30809   3.858   6.177   1.008 -0.1910  0.3589 -0.0576
 7761SOL    HW230810   3.899   6.261   1.026  0.2718  0.0584  0.3146
 7761SOL    HW330811   3.861   6.169   0.913  0.5771  0.3627 -0.0407
 7761SOL    MW430812   3.864   6.187   0.998 -0.0286  0.3198 -0.0063
 7762SOL     OW30813   5.180   6.097   0.735 -0.4905  0.1368  0.3089
 7762SOL    HW230814   5.172   6.079   0.829  3.0146 -1.8594  0.4258
 7762SOL    HW330815   5.204   6.189   0.731  2.7167 -0.4589  1.8558
 7762SOL    MW430816   5.182   6.107   0.747  0.3951 -0.2051  0.5284
 7763SOL     OW30817   5.588   1.722   0.726  0.0911 -0.2553  0.1284
 7763SOL    HW230818   5.669   1.770   0.745 -1.1285  1.5065  1.0985
 7763SOL    HW330819   5.564   1.680   0.808  0.4045 -1.4497 -0.3631
 7763SOL    MW430820   5.596   1.723   0.739 -0.0284 -0.1804  0.1916
 7764SOL     OW30821   4.987   3.364   3.136 -0.0205  0.0561  0.4209
 7764SOL    HW230822   4.946   3.450   3.129 -0.4395 -0.2520 -1.5195
 7764SOL    HW330823   4.916   3.303   3.117  1.2537 -0.4853 -3.2962
 7764SOL    MW430824   4.972   3.367   3.133  0.0924 -0.0560 -0.3256
 7765SOL     OW30825   5.838   2.934   0.837 -0.2027  0.2876 -0.2420
 7765SOL    HW230826   5.932   2.947   0.853  0.2410 -2.2854 -0.3048
 7765SOL    HW330827   5.817   2.995   0.767  2.0717 -0.8034 -2.0191
 7765SOL    MW430828   5.848   2.943   0.830  0.1559 -0.1958 -0.4848
 7766SOL     OW30829   0.611   5.103   4.065  0.1698  0.6498 -0.3636
 7766SOL    HW230830   0.649   5.074   3.983  0.5602 -1.1598  0.4126
 7766SOL    HW330831   0.601   5.198   4.054 -1.6710  0.2307 -3.2127
 7766SOL    MW430832   0.615   5.112   4.053 -0.0215  0.3558 -0.6371
 7767SOL     OW30833   5.161   2.834   1.018  0.1436 -0.1566  0.3063
 7767SOL    HW230834   5.183   2.824   1.110  0.4530  2.7603  0.6319
 7767SOL    HW330835   5.106   2.912   1.015  0.9420  0.3823 -2.0866
 7767SOL    MW430836   5.156   2.843   1.030  0.2898  0.2993  0.0335
 7768SOL     OW30837   6.023   2.955   2.579 -0.1866 -0.0605 -0.5834
 7768SOL    HW230838   6.002   2.891   2.511 -0.1272  1.0326 -1.6651
 7768SOL    HW330839   6.083   2.909   2.638 -1.0517 -1.3614 -0.6794
 7768SOL    MW430840   6.028   2.940   2.578 -0.2929 -0.0879 -0.7388
 7769SOL     OW30841   3.574   2.458   5.856 -0.2678 -0.7626 -0.3015
 7769SOL    HW230842   3.494   2.482   5.808 -1.0437 -0.5195  1.0555
 7769SOL    HW330843   3.600   2.374   5.819 -1.1623 -0.8553 -0.7571
 7769SOL    MW430844   3.566   2.450   5.845 -0.4882 -0.7427 -0.1826
 7770SOL     OW30845   0.492   5.924   5.790 -0.1765  0.1453 -0.7773
 7770SOL    HW230846   0.469   5.913   5.697  2.9231  2.1446 -1.9440
 7770SOL    HW330847   0.559   5.858   5.806 -1.6624 -1.1314  0.5719
 7770SOL    MW430848   0.498   5.914   5.780  0.0364  0.2406 -0.7532
 7771SOL     OW30849   4.860   6.150   0.775  0.0719  0.7596  0.4934
 7771SOL    HW230850   4.840   6.139   0.682 -0.9018  1.5505  0.5897
 7771SOL    HW330851   4.927   6.217   0.779 -0.4588  1.3067  0.3908
 7771SOL    MW430852   4.866   6.157   0.763 -0.1266  0.9361  0.4926
 7772SOL     OW30853   3.669   2.395   0.303  0.2546 -0.2092  0.2624
 7772SOL    HW230854   3.636   2.405   0.392  1.2862  0.3118  0.6071
 7772SOL    HW330855   3.623   2.462   0.252  0.9547  0.7194  0.8023
 7772SOL    MW430856   3.659   2.405   0.308  0.4831 -0.0179  0.3791
 7773SOL     OW30857   1.212   6.060   4.116 -0.2750 -0.0678 -0.2981
 7773SOL    HW230858   1.259   6.099   4.042 -0.5788  0.3074 -0.2956
 7773SOL    HW330859   1.195   6.133   4.175  0.7645 -0.5130  0.5801
 7773SOL    MW430860   1.216   6.075   4.114 -0.1779 -0.0770 -0.1819
 7774SOL     OW30861   4.942   3.955   3.020  0.7551  0.1375 -0.3619
 7774SOL    HW230862   4.904   4.028   3.068  1.5722  1.1903 -1.2563
 7774SOL    HW330863   4.966   3.992   2.935 -0.2437 -1.5524 -1.4378
 7774SOL    MW430864   4.940   3.970   3.015  0.7311  0.0534 -0.6219
 7775SOL     OW30865   2.699   3.665   6.266 -0.1496  0.0244  0.0458
 7775SOL    HW230866   2.778   3.675   6.320 -0.2502 -0.0283  0.2032
 7775SOL    HW330867   2.691   3.748   6.219 -1.0169  0.7220  1.3829
 7775SOL    MW430868   2.709   3.677   6.267 -0.2773  0.1095  0.2430
 7776SOL     OW30869   3.654   4.848   0.224  0.3660  0.3653 -0.3766
 7776SOL    HW230870   3.659   4.897   0.142  1.5464 -1.4334 -1.4291
 7776SOL    HW330871   3.691   4.762   0.204 -1.2334 -0.8646  1.5007
 7776SOL    MW430872   3.660   4.843   0.211  0.3107 -0.0343 -0.2677
 7777SOL     OW30873   1.820   2.658   3.309 -0.7961  0.4571  0.2842
 7777SOL    HW230874   1.784   2.572   3.291 -0.5552  0.4494 -0.1740
 7777SOL    HW330875   1.752   2.703   3.359 -0.3405 -0.4918  1.8135
 7777SOL    MW430876   1.806   2.653   3.313 -0.7042  0.3309  0.4255
 7778SOL     OW30877   5.630   4.165   1.235 -0.1054 -0.1152  0.1657
 7778SOL    HW230878   5.570   4.219   1.184  0.7026  0.6558  0.0252
 7778SOL    HW330879   5.669   4.105   1.171  1.6995  1.5469 -0.3669
 7778SOL    MW430880   5.627   4.164   1.220  0.2393  0.2058  0.0769
 7779SOL     OW30881   4.839   2.466   1.577 -0.3506 -0.5758  0.1343
 7779SOL    HW230882   4.794   2.549   1.594 -2.9865 -1.9440  0.4262
 7779SOL    HW330883   4.810   2.408   1.647  1.0819 -1.8937 -0.3064
 7779SOL    MW430884   4.829   2.469   1.588 -0.5094 -0.9302  0.1147
 7780SOL     OW30885   3.173   4.460   5.204  0.6566 -0.6058  0.1635
 7780SOL    HW230886   3.267   4.449   5.215  0.7217 -0.4408 -0.2341
 7780SOL    HW330887   3.142   4.375   5.173  0.8320 -0.3528 -0.7286
 7780SOL    MW430888   3.181   4.447   5.202  0.6883 -0.5506 -0.0067
 7781SOL     OW30889   4.194   4.779   3.711  0.5042  0.2311 -0.2233
 7781SOL    HW230890   4.185   4.688   3.738 -0.7226  0.0911 -1.0403
 7781SOL    HW330891   4.270   4.811   3.761  1.5310 -1.4646 -0.6055
 7781SOL    MW430892   4.203   4.771   3.721  0.4778 -0.0111 -0.3815
 7782SOL     OW30893   5.162   4.929   3.467  0.3513 -0.3215  0.0906
 7782SOL    HW230894   5.150   4.887   3.382 -0.4265  1.4418 -0.7230
 7782SOL    HW330895   5.189   4.858   3.526 -0.7634 -1.9011 -1.2221
 7782SOL    MW430896   5.164   4.914   3.464  0.1016 -0.2973 -0.1899
 7783SOL     OW30897   4.271   4.883   2.249 -0.5777 -0.5146  0.0584
 7783SOL    HW230898   4.339   4.945   2.225 -0.8382 -0.6399 -1.0488
 7783SOL    HW330899   4.193   4.913   2.201 -0.8650 -1.3303 -0.0042
 7783SOL    MW430900   4.269   4.896   2.239 -0.6500 -0.6387 -0.0959
 7784SOL     OW30901   2.376   1.317   2.828  0.3150 -0.2473 -0.2905
 7784SOL    HW230902   2.368   1.408   2.798  1.6820  0.0017  0.0248
 7784SOL    HW330903   2.422   1.272   2.757  2.2167  0.0029  0.7172
 7784SOL    MW430904   2.381   1.323   2.815  0.7463 -0.1814 -0.1160
 7785SOL     OW30905   6.363   1.653   1.781 -0.0089 -0.1045  0.0438
 7785SOL    HW230906   6.456   1.664   1.763 -0.5183  2.0433 -1.6123
 7785SOL    HW330907   6.336   1.582   1.723  0.2956  0.3469 -0.6671
 7785SOL    MW430908   6.372   1.645   1.771 -0.0359  0.2384 -0.2685
 7786SOL     OW30909   1.439   1.841   0.938  0.2845 -0.2433  0.0712
 7786SOL    HW230910   1.447   1.787   1.017 -0.2148 -0.7542 -0.2235
 7786SOL    HW330911   1.449   1.931   0.970  1.5460 -0.5195  0.5029
 7786SOL    MW430912   1.441   1.846   0.953  0.3850 -0.3471  0.0893
 7787SOL     OW30913   4.945   3.828   3.356 -0.1012 -0.6594  0.3678
 7787SOL    HW230914   4.855   3.829   3.323 -0.7768  3.0431  1.8791
 7787SOL    HW330915   4.942   3.770   3.432 -0.4126 -2.8894 -1.2571
 7787SOL    MW430916   4.933   3.821   3.361 -0.2314 -0.4651  0.3528
 7788SOL     OW30917   3.027   1.281   2.420 -0.5436  0.2861  0.1204
 7788SOL    HW230918   3.043   1.188   2.400 -1.7178 -0.1385  1.0520
 7788SOL    HW330919   3.113   1.315   2.444 -0.3428 -1.0147  1.4393
 7788SOL    MW430920   3.041   1.273   2.421 -0.6720  0.0585  0.4173
 7789SOL     OW30921   3.758   4.151   3.702 -0.2963 -0.3036  0.3446
 7789SOL    HW230922   3.748   4.106   3.786 -0.9093 -1.1494 -0.1557
 7789SOL    HW330923   3.669   4.152   3.666 -0.0391  0.0531 -0.2869
 7789SOL    MW430924   3.745   4.145   3.708 -0.3432 -0.3682  0.1953
 7790SOL     OW30925   4.507   2.603   2.636 -0.1032  0.2015 -0.1935
 7790SOL    HW230926   4.593   2.626   2.672  0.7028 -0.0092 -1.8811
 7790SOL    HW330927   4.472   2.539   2.698  1.3084 -0.3008  0.1302
 7790SOL    MW430928   4.514   2.598   2.649  0.1894  0.1075 -0.3735
 7791SOL     OW30929   1.760   4.345   4.412  0.0290  0.2653  0.5106
 7791SOL    HW230930   1.667   4.341   4.391  0.3682 -0.4674 -0.9414
 7791SOL    HW330931   1.794   4.258   4.392  1.2533  0.8660 -0.1690
 7791SOL    MW430932   1.752   4.333   4.406  0.2353  0.2479  0.2294
 7792SOL     OW30933   3.453   1.556   1.994  0.3299  0.0253  0.3967
 7792SOL    HW230934   3.497   1.587   2.073  0.8574 -1.4474  0.7151
 7792SOL    HW330935   3.511   1.582   1.923 -0.3782  1.7816  0.4120
 7792SOL    MW430936   3.466   1.563   1.995  0.3060  0.0627  0.4407
 7793SOL     OW30937   2.669   2.680   3.516 -0.2515  0.8276 -0.2204
 7793SOL    HW230938   2.648   2.749   3.452 -1.9775 -0.9878 -1.7467
 7793SOL    HW330939   2.764   2.671   3.512 -0.3133  0.7311 -2.6345
 7793SOL    MW430940   2.679   2.688   3.507 -0.4874  0.5754 -0.7403
 7794SOL     OW30941   0.276   2.991   0.248  0.0396  0.6108 -0.1088
 7794SOL    HW230942   0.356   3.032   0.213 -0.9329  1.1212 -1.8715
 7794SOL    HW330943   0.267   2.911   0.196 -0.7045  0.6776 -0.0828
 7794SOL    MW430944   0.286   2.986   0.236 -0.1869  0.6869 -0.3379
 7795SOL     OW30945   6.174   4.848   0.930  0.3592  1.3363 -0.0288
 7795SOL    HW230946   6.246   4.882   0.877  1.3850 -0.1123  0.3898
 7795SOL    HW330947   6.118   4.802   0.867  0.4700  1.3846 -0.1626
 7795SOL    MW430948   6.176   4.846   0.915  0.5091  1.1515  0.0088
 7796SOL     OW30949   1.979   5.833   6.037 -0.2746 -0.4862  0.2429
 7796SOL    HW230950   1.961   5.879   6.119  0.7535  0.1361  0.1345
 7796SOL    HW330951   1.893   5.802   6.008 -0.8605  0.5772  0.7820
 7796SOL    MW430952   1.965   5.835   6.044 -0.2163 -0.2638  0.2997
 7797SOL     OW30953   2.527   4.709   1.829 -0.2005  0.6039  0.0461
 7797SOL    HW230954   2.509   4.615   1.822  0.4164  0.5268 -0.5009
 7797SOL    HW330955   2.620   4.717   1.812 -0.2623  1.3264  0.0410
 7797SOL    MW430956   2.537   4.698   1.826 -0.1273  0.6891 -0.0267
 7798SOL     OW30957   2.511   5.465   6.360 -0.6121 -0.0437 -0.3695
 7798SOL    HW230958   2.466   5.401   6.306 -1.3386 -1.3533  1.6679
 7798SOL    HW330959   2.588   5.418   6.394 -0.5859  0.4892  0.3274
 7798SOL    MW430960   2.515   5.450   6.357 -0.7045 -0.1461 -0.0087
 7799SOL     OW30961   3.650   0.917   6.413  0.5791 -0.2272 -0.1323
 7799SOL    HW230962   3.589   0.927   6.486  0.5180 -0.1117 -0.1988
 7799SOL    HW330963   3.629   0.830   6.377  0.3066 -0.0981 -0.2893
 7799SOL    MW430964   3.639   0.907   6.418  0.5351 -0.1950 -0.1618
 7800SOL     OW30965   6.166   2.268   3.105  0.1851 -0.4162  0.0099
 7800SOL    HW230966   6.074   2.278   3.130  0.2694  0.6969 -0.0769
 7800SOL    HW330967   6.170   2.183   3.062 -0.3593 -1.5445  2.0218
 7800SOL    MW430968   6.154   2.258   3.103  0.1244 -0.4182  0.2639
 7801SOL     OW30969   0.501   5.013   3.197  0.4327 -0.3647 -0.0269
 7801SOL    HW230970   0.467   5.100   3.175 -0.6760 -0.5845  0.7115
 7801SOL    HW330971   0.525   5.019   3.289  0.5222 -0.7852 -0.0218
 7801SOL    MW430972   0.500   5.025   3.206  0.2983 -0.4491  0.0712
 7802SOL     OW30973   4.843   5.662   3.079  0.1728 -0.0483  0.2060
 7802SOL    HW230974   4.788   5.592   3.115  2.7475 -0.5479  3.7363
 7802SOL    HW330975   4.871   5.628   2.994 -0.6077 -2.2644  0.7498
 7802SOL    MW430976   4.840   5.648   3.073  0.4095 -0.4066  0.7435
 7803SOL     OW30977   1.114   1.338   3.151  0.4791 -0.0654 -0.3391
 7803SOL    HW230978   1.152   1.252   3.136  2.5406  0.7208 -0.0274
 7803SOL    HW330979   1.159   1.370   3.229 -0.1563  1.3430 -0.5199
 7803SOL    MW430980   1.125   1.331   3.159  0.6673  0.2241 -0.3218
 7804SOL     OW30981   3.803   5.150   3.750  0.0755  0.2301 -0.2552
 7804SOL    HW230982   3.718   5.111   3.769  1.0806 -1.1436  1.7285
 7804SOL    HW330983   3.836   5.100   3.675 -0.2312 -0.2342 -0.0834
 7804SOL    MW430984   3.796   5.138   3.742  0.1676 -0.0124  0.0292
 7805SOL     OW30985   3.599   4.470   4.864  0.0573 -0.7207 -0.1918
 7805SOL    HW230986   3.594   4.387   4.818  1.9906  0.4281 -2.6860
 7805SOL    HW330987   3.664   4.457   4.932 -0.7139 -1.6196  0.3935
 7805SOL    MW430988   3.607   4.458   4.867  0.2106 -0.6877 -0.4436
 7806SOL     OW30989   6.304   3.507   4.403 -0.2673 -0.0354  0.6189
 7806SOL    HW230990   6.370   3.448   4.366  0.8594  0.3944  1.8820
 7806SOL    HW330991   6.325   3.511   4.497 -1.3708  1.0412  0.8473
 7806SOL    MW430992   6.315   3.499   4.411 -0.2643  0.1633  0.8157
 7807SOL     OW30993   0.525   1.379   4.179  0.0946  0.3647 -0.2931
 7807SOL    HW230994   0.459   1.418   4.121 -0.3390 -0.1324 -0.1427
 7807SOL    HW330995   0.516   1.285   4.165  0.5653  0.2789 -0.0345
 7807SOL    MW430996   0.515   1.372   4.169  0.0995  0.2878 -0.2392
 7808SOL     OW30997   0.067   5.920   4.035 -0.2464 -0.2365 -0.0006
 7808SOL    HW230998   0.124   5.974   3.981  0.3854 -0.2977  0.5965
 7808SOL    HW330999   0.026   5.860   3.973 -0.8123  0.7767 -0.6459
 7808SOL    MW431000   0.069   5.919   4.020 -0.2377 -0.1109 -0.0070
 7809SOL     OW31001   2.303   4.832   5.529 -0.5279 -0.0312  0.0216
 7809SOL    HW231002   2.219   4.816   5.487 -0.1645 -0.4280 -0.5819
 7809SOL    HW331003   2.339   4.744   5.545  0.5485  0.1222 -1.3692
 7809SOL    MW431004   2.297   4.818   5.525 -0.3379 -0.0633 -0.2415
 7810SOL     OW31005   2.661   6.095   0.714  1.0403 -0.4128  0.3697
 7810SOL    HW231006   2.580   6.125   0.755  0.9086 -0.9767  0.5280
 7810SOL    HW331007   2.731   6.136   0.766  0.8758 -1.0722  1.1274
 7810SOL    MW431008   2.660   6.104   0.726  1.0013 -0.5742  0.4906
 7811SOL     OW31009   0.959   4.727   1.225  0.7173 -0.3122 -0.1041
 7811SOL    HW231010   1.012   4.687   1.156 -0.4110 -0.0472 -1.1661
 7811SOL    HW331011   0.906   4.655   1.260 -1.7104  0.2207 -2.3862
 7811SOL    MW431012   0.959   4.712   1.220  0.2481 -0.2069 -0.5453
 7812SOL     OW31013   2.711   2.173   4.004 -0.2326 -0.1822 -0.0704
 7812SOL    HW231014   2.789   2.126   3.973 -0.4319  0.2881 -1.3424
 7812SOL    HW331015   2.718   2.170   4.099  0.2549 -1.9383 -0.1233
 7812SOL    MW431016   2.723   2.166   4.012 -0.1946 -0.3518 -0.2452
 7813SOL     OW31017   6.365   0.555   4.495  0.1603 -0.2829 -0.2213
 7813SOL    HW231018   6.289   0.529   4.548  0.3280 -0.6664 -0.1642
 7813SOL    HW331019   6.433   0.492   4.519  0.4893  0.0489 -0.2890
 7813SOL    MW431020   6.364   0.543   4.505  0.2258 -0.2897 -0.2227
 7814SOL     OW31021   3.973   1.477   2.673  0.2157  0.1164 -0.1852
 7814SOL    HW231022   3.966   1.570   2.647 -0.4123  0.2425  0.4171
 7814SOL    HW331023   3.928   1.472   2.757  0.4675 -0.6937 -0.0930
 7814SOL    MW431024   3.966   1.489   2.680  0.1661  0.0261 -0.0936
 7815SOL     OW31025   2.387   1.383   5.190 -0.2191 -0.1365 -0.7802
 7815SOL    HW231026   2.358   1.317   5.253 -1.5447  0.5902 -0.5814
 7815SOL    HW331027   2.464   1.422   5.230 -0.6501 -0.1458  0.0872
 7815SOL    MW431028   2.393   1.379   5.204 -0.4509 -0.0418 -0.6395
 7816SOL     OW31029   5.459   1.415   0.799 -0.3369 -0.2588 -0.4716
 7816SOL    HW231030   5.413   1.466   0.732 -0.4623  0.4260  0.1135
 7816SOL    HW331031   5.495   1.481   0.858  1.7862 -0.7455 -1.1254
 7816SOL    MW431032   5.457   1.430   0.798 -0.0733 -0.2327 -0.4806
 7817SOL     OW31033   5.389   3.134   0.776 -0.5248  0.1432  0.0793
 7817SOL    HW231034   5.403   3.229   0.784  2.0904 -0.2372  0.9407
 7817SOL    HW331035   5.460   3.095   0.827 -0.4859 -2.3105 -1.6899
 7817SOL    MW431036   5.400   3.142   0.784 -0.1747 -0.2307 -0.0405
 7818SOL     OW31037   3.185   4.664   3.284  0.1577  0.3215  0.2747
 7818SOL    HW231038   3.144   4.718   3.352  0.3751  0.3185  0.4086
 7818SOL    HW331039   3.259   4.716   3.253 -1.1233  1.2168 -1.4000
 7818SOL    MW431040   3.189   4.678   3.289  0.0174  0.4392  0.0714
 7819SOL     OW31041   3.349   0.084   3.038  0.6848 -0.1606  0.2695
 7819SOL    HW231042   3.283   0.072   3.107  0.1603 -0.2707 -0.2423
 7819SOL    HW331043   3.346   0.002   2.989  2.3220 -0.8014  1.1702
 7819SOL    MW431044   3.340   0.072   3.041  0.8316 -0.2597  0.3208
 7820SOL     OW31045   3.041   3.795   4.617 -0.4879 -0.4649  0.1011
 7820SOL    HW231046   2.969   3.766   4.561 -1.6682 -0.1548  1.3993
 7820SOL    HW331047   3.035   3.740   4.695  0.6560 -0.4011  0.2523
 7820SOL    MW431048   3.031   3.784   4.620 -0.4927 -0.4156  0.2923
 7821SOL     OW31049   0.024   0.780   0.864 -0.4209  0.3504  0.1054
 7821SOL    HW231050  -0.000   0.719   0.794  0.3563 -1.2552  1.1885
 7821SOL    HW331051   0.083   0.843   0.822 -0.4918 -0.1867 -0.8262
 7821SOL    MW431052   0.028   0.781   0.849 -0.3277  0.0677  0.1254
 7822SOL     OW31053   6.069   2.015   4.122 -0.0162  0.2272 -0.3018
 7822SOL    HW231054   6.096   1.926   4.099 -1.7753 -0.6897  0.9427
 7822SOL    HW331055   6.000   2.037   4.060 -0.3818  0.2585  0.1099
 7822SOL    MW431056   6.064   2.006   4.111 -0.2965  0.1103 -0.0833
 7823SOL     OW31057   1.136   4.718   1.661  1.1119 -0.1679 -0.4557
 7823SOL    HW231058   1.146   4.624   1.645  0.6483 -0.2397 -0.3433
 7823SOL    HW331059   1.183   4.734   1.743  1.8929 -0.1480 -0.9067
 7823SOL    MW431060   1.143   4.708   1.670  1.1538 -0.1748 -0.5004
 7824SOL     OW31061   4.391   0.798   0.805  0.1271  0.1822 -0.4199
 7824SOL    HW231062   4.394   0.704   0.787  1.2007 -0.0553  0.8645
 7824SOL    HW331063   4.324   0.808   0.872  0.2184  0.2949 -0.3459
 7824SOL    MW431064   4.383   0.787   0.811  0.2808  0.1657 -0.2407
 7825SOL     OW31065   1.777   1.424   5.504  0.0414  0.6391 -0.2118
 7825SOL    HW231066   1.805   1.440   5.414  0.3822 -1.4771 -0.5373
 7825SOL    HW331067   1.690   1.384   5.495  1.4264 -2.7658  0.0796
 7825SOL    MW431068   1.769   1.421   5.491  0.2691 -0.0893 -0.2163
 7826SOL     OW31069   0.864   4.674   3.796 -0.0153 -0.6926 -0.0265
 7826SOL    HW231070   0.930   4.607   3.778  0.5626 -0.2294  0.3364
 7826SOL    HW331071   0.833   4.654   3.885 -0.5409 -1.0475 -0.2816
 7826SOL    MW431072   0.868   4.662   3.806 -0.0084 -0.6783 -0.0123
 7827SOL     OW31073   4.265   6.094   5.745  0.3599  0.1532  0.4767
 7827SOL    HW231074   4.215   6.077   5.825 -1.0956  1.7246 -0.0582
 7827SOL    HW331075   4.242   6.183   5.720  2.8405  0.6708 -0.2759
 7827SOL    MW431076   4.255   6.103   5.753  0.4952  0.4288  0.3068
 7828SOL     OW31077   4.509   4.763   4.744  0.3390 -0.0752  0.2792
 7828SOL    HW231078   4.559   4.682   4.754  0.0471 -0.1749  1.0182
 7828SOL    HW331079   4.459   4.770   4.825  0.1612  0.7101  0.1095
 7828SOL    MW431080   4.509   4.753   4.756  0.2770  0.0153  0.3543
 7829SOL     OW31081   0.678   6.187   1.856 -0.9902  0.5870 -0.3262
 7829SOL    HW231082   0.712   6.115   1.908 -1.2987  2.5715  2.8729
 7829SOL    HW331083   0.740   6.196   1.783 -0.5063 -2.2693 -0.3725
 7829SOL    MW431084   0.690   6.179   1.853 -0.9670  0.4720  0.0898
 7830SOL     OW31085   2.059   3.784   0.990  0.4192 -0.0712 -0.1259
 7830SOL    HW231086   2.066   3.712   0.928  0.8021  1.3939 -1.8977
 7830SOL    HW331087   2.127   3.766   1.055  1.0405 -0.9191 -0.9688
 7830SOL    MW431088   2.069   3.772   0.990  0.5517  0.0102 -0.4709
 7831SOL     OW31089   1.272   1.343   0.466 -0.5895  0.2938  0.2021
 7831SOL    HW231090   1.278   1.389   0.382  0.8137 -1.2801 -0.6077
 7831SOL    HW331091   1.359   1.354   0.505 -0.4958 -0.9599  0.3629
 7831SOL    MW431092   1.284   1.351   0.460 -0.3920 -0.0793  0.1165
 7832SOL     OW31093   5.113   5.612   0.820  0.0290 -0.3797  0.2511
 7832SOL    HW231094   5.080   5.630   0.908  1.4354  0.8922  0.5710
 7832SOL    HW331095   5.036   5.589   0.769 -1.1771  1.3098  1.2209
 7832SOL    MW431096   5.098   5.611   0.825  0.0554  0.0110  0.4213
 7833SOL     OW31097   6.407   3.900   2.151 -0.1895 -0.6531 -1.0373
 7833SOL    HW231098   6.471   3.833   2.127  0.5041 -1.2782  2.1239
 7833SOL    HW331099   6.332   3.852   2.184  0.7579 -0.0648  2.3745
 7833SOL    MW431100   6.406   3.885   2.152  0.0270 -0.6579 -0.1701
 7834SOL     OW31101   3.542   5.700   2.841  0.2619 -0.3900  0.0213
 7834SOL    HW231102   3.574   5.713   2.752  0.6764 -0.4068  0.1646
 7834SOL    HW331103   3.447   5.699   2.833  0.3022 -0.6788 -0.4613
 7834SOL    MW431104   3.534   5.701   2.828  0.3219 -0.4303 -0.0235
 7835SOL     OW31105   4.224   0.194   5.647 -0.6564  0.0533  0.4781
 7835SOL    HW231106   4.141   0.213   5.692 -1.5404  0.7935 -1.3603
 7835SOL    HW331107   4.211   0.107   5.609  0.2467 -0.7564  1.9255
 7835SOL    MW431108   4.211   0.185   5.648 -0.6539  0.0441  0.4265
 7836SOL     OW31109   4.099   0.275   6.029  0.1166  0.0458  0.2447
 7836SOL    HW231110   4.133   0.323   6.105  2.5415  2.8567 -2.3558
 7836SOL    HW331111   4.006   0.297   6.027  0.4522  1.7369  1.2121
 7836SOL    MW431112   4.091   0.284   6.039  0.4808  0.6398  0.0292
 7837SOL     OW31113   1.288   4.072   0.133  0.5553 -0.4300 -0.9902
 7837SOL    HW231114   1.312   3.980   0.143 -0.2298 -0.5281  0.2379
 7837SOL    HW331115   1.226   4.073   0.060  0.9325 -0.7955 -1.3205
 7837SOL    MW431116   1.283   4.060   0.124  0.5015 -0.4911 -0.8717
 7838SOL     OW31117   2.601   5.821   0.756  0.4369  0.2585  0.1486
 7838SOL    HW231118   2.589   5.773   0.674  0.1819 -0.0913  0.3893
 7838SOL    HW331119   2.644   5.903   0.730  2.2590 -0.7369 -0.0868
 7838SOL    MW431120   2.605   5.826   0.741  0.6436  0.0810  0.1493
 7839SOL     OW31121   5.239   0.371   3.475  0.0987  0.5279  0.1117
 7839SOL    HW231122   5.220   0.402   3.386  0.4678 -1.7328 -0.8404
 7839SOL    HW331123   5.155   0.341   3.508  0.2897 -0.6148 -0.3654
 7839SOL    MW431124   5.226   0.371   3.467  0.1726  0.0789 -0.0768
 7840SOL     OW31125   2.248   0.857   0.030 -0.0192 -0.2056  0.3665
 7840SOL    HW231126   2.314   0.794   0.059  0.1167 -0.0662  0.3670
 7840SOL    HW331127   2.169   0.834   0.078 -0.2304 -0.9481 -0.3180
 7840SOL    MW431128   2.247   0.846   0.040 -0.0291 -0.2852  0.2762
 7841SOL     OW31129   3.716   2.914   2.969 -0.2572  0.2136  0.3807
 7841SOL    HW231130   3.665   2.932   3.048 -0.2687 -2.1688  0.9797
 7841SOL    HW331131   3.769   2.993   2.957 -3.9505  2.8387 -0.2871
 7841SOL    MW431132   3.716   2.927   2.978 -0.7460  0.2456  0.3716
 7842SOL     OW31133   2.461   4.583   2.895 -0.1622  0.1342  0.0954
 7842SOL    HW231134   2.508   4.532   2.961 -1.3144 -0.5804  0.3971
 7842SOL    HW331135   2.414   4.517   2.843 -1.7264  0.8540  0.5207
 7842SOL    MW431136   2.461   4.567   2.897 -0.5206  0.1349  0.1913
 7843SOL     OW31137   1.676   3.547   4.492 -0.1623 -0.5083 -0.4910
 7843SOL    HW231138   1.749   3.522   4.549 -0.5624 -0.9967 -0.1922
 7843SOL    HW331139   1.713   3.543   4.404 -0.1015 -1.7631 -0.4201
 7843SOL    MW431140   1.691   3.543   4.488 -0.2071 -0.7383 -0.4422
 7844SOL     OW31141   4.610   2.489   0.428  0.8004 -0.3231  0.1864
 7844SOL    HW231142   4.687   2.464   0.377  0.8008 -0.4349  0.2400
 7844SOL    HW331143   4.628   2.579   0.456  1.9362 -1.0670  2.0510
 7844SOL    MW431144   4.623   2.498   0.425  0.9503 -0.4360  0.4395
 7845SOL     OW31145   0.348   0.990   3.375 -0.1189  0.7016 -0.4160
 7845SOL    HW231146   0.355   1.084   3.362 -0.3022  0.6080 -1.2006
 7845SOL    HW331147   0.322   0.955   3.290 -1.0812  0.0530  0.1179
 7845SOL    MW431148   0.346   0.998   3.362 -0.2701  0.6036 -0.4491
 7846SOL     OW31149   3.559   6.132   1.955 -0.3393  0.3071  0.4273
 7846SOL    HW231150   3.649   6.102   1.947  0.1069  1.3144  1.5087
 7846SOL    HW331151   3.549   6.197   1.885  0.0544  0.8409  0.8610
 7846SOL    MW431152   3.569   6.137   1.945 -0.2285  0.5104  0.6272
 7847SOL     OW31153   0.494   1.495   5.015 -0.1813  0.0911  0.1370
 7847SOL    HW231154   0.449   1.523   5.095 -0.2733  1.1894 -0.2840
 7847SOL    HW331155   0.556   1.428   5.044 -0.0369  0.6594  1.1701
 7847SOL    MW431156   0.496   1.490   5.029 -0.1744  0.3110  0.2177
 7848SOL     OW31157   0.847   4.110   2.500 -0.1379 -0.2815 -0.0978
 7848SOL    HW231158   0.919   4.052   2.476  1.0202  1.2186 -0.3835
 7848SOL    HW331159   0.879   4.198   2.481 -1.5211  0.5349  1.1150
 7848SOL    MW431160   0.861   4.114   2.495 -0.1676  0.0242  0.0245
 7849SOL     OW31161   5.840   5.476   1.344  0.3561 -0.3193 -0.5034
 7849SOL    HW231162   5.895   5.454   1.419  0.8849  0.5285 -0.6201
 7849SOL    HW331163   5.902   5.512   1.280 -0.4235  1.3392 -0.3610
 7849SOL    MW431164   5.855   5.478   1.345  0.3230  0.0113 -0.5000
 7850SOL     OW31165   5.309   6.001   5.576  0.3599 -0.0027 -0.5470
 7850SOL    HW231166   5.272   5.919   5.542  4.0331 -3.0046  1.8587
 7850SOL    HW331167   5.241   6.067   5.559 -2.8479 -3.4525 -2.7125
 7850SOL    MW431168   5.295   5.999   5.569  0.4213 -0.8539 -0.5153
 7851SOL     OW31169   2.978   2.480   3.482  0.2499 -0.3164 -0.0368
 7851SOL    HW231170   2.928   2.474   3.401  1.3126 -1.1305 -0.6505
 7851SOL    HW331171   3.061   2.436   3.463  0.1997 -1.2911  1.7343
 7851SOL    MW431172   2.982   2.473   3.469  0.3835 -0.5524  0.1159
 7852SOL     OW31173   5.889   5.559   4.246 -0.1940  0.0541 -0.6307
 7852SOL    HW231174   5.959   5.603   4.198  0.6355  0.8545  1.2229
 7852SOL    HW331175   5.923   5.472   4.264  0.6938  0.6578  0.8639
 7852SOL    MW431176   5.903   5.554   4.242  0.0326  0.2393 -0.1889
 7853SOL     OW31177   0.984   5.965   3.520 -0.2593  0.0845  0.1352
 7853SOL    HW231178   1.011   5.892   3.575  0.3790 -1.5773 -2.2000
 7853SOL    HW331179   1.055   6.029   3.529 -0.3222 -0.0190  1.4425
 7853SOL    MW431180   0.997   5.964   3.528 -0.1834 -0.1484 -0.0004
 7854SOL     OW31181   2.755   3.774   2.019  0.6201 -0.1624  1.1741
 7854SOL    HW231182   2.839   3.806   1.987  0.0842 -0.1364 -0.3331
 7854SOL    HW331183   2.713   3.850   2.059  0.5219  0.3408  0.1479
 7854SOL    MW431184   2.760   3.788   2.020  0.5364 -0.0926  0.8399
 7855SOL     OW31185   1.291   6.081   1.998 -0.1769  0.3438 -0.0112
 7855SOL    HW231186   1.302   6.176   2.005 -1.6096  0.5867 -0.7472
 7855SOL    HW331187   1.299   6.063   1.904  0.4375 -0.3215  0.1575
 7855SOL    MW431188   1.294   6.091   1.986 -0.2848  0.2881 -0.0860
 7856SOL     OW31189   0.844   2.815   0.049 -0.3540  0.2474 -0.1915
 7856SOL    HW231190   0.906   2.888   0.050  1.0247 -0.7113 -3.6048
 7856SOL    HW331191   0.793   2.827  -0.031 -0.2429 -2.3464 -0.7568
 7856SOL    MW431192   0.845   2.826   0.039 -0.1575 -0.2213 -0.7164
 7857SOL     OW31193   0.330   3.157   2.931 -0.3512 -0.0165  0.0674
 7857SOL    HW231194   0.419   3.193   2.935  0.3427 -1.7655  2.3285
 7857SOL    HW331195   0.324   3.099   3.007 -2.6050 -1.8395 -1.3742
 7857SOL    MW431196   0.341   3.154   2.941 -0.5570 -0.4878  0.1755
 7858SOL     OW31197   0.418   3.830   1.888 -0.5303 -0.1196  0.2686
 7858SOL    HW231198   0.467   3.810   1.967  1.3263 -2.2936 -1.3073
 7858SOL    HW331199   0.438   3.922   1.871 -0.1705  0.1121  1.7734
 7858SOL    MW431200   0.427   3.839   1.896 -0.2379 -0.3759  0.2592
 7859SOL     OW31201   5.181   1.928   3.150 -1.0304 -0.0797 -0.5364
 7859SOL    HW231202   5.166   1.855   3.209 -2.1989  1.4840  1.2397
 7859SOL    HW331203   5.260   1.970   3.184  0.2434 -1.0198 -2.1660
 7859SOL    MW431204   5.190   1.924   3.162 -1.0165  0.0026 -0.5171
 7860SOL     OW31205   3.353   3.277   0.060  0.3845 -0.7336 -0.3391
 7860SOL    HW231206   3.309   3.196   0.035  1.0305 -0.6929 -1.6763
 7860SOL    HW331207   3.446   3.261   0.041  0.6145  0.0676  0.0668
 7860SOL    MW431208   3.360   3.264   0.055  0.5001 -0.6225 -0.4620
 7861SOL     OW31209   4.555   1.787   3.717  0.2713 -0.1015 -0.1518
 7861SOL    HW231210   4.586   1.869   3.755 -0.6683 -0.0117  0.4535
 7861SOL    HW331211   4.623   1.723   3.740  1.1030  0.5368 -0.8022
 7861SOL    MW431212   4.568   1.789   3.725  0.2571 -0.0054 -0.1577
 7862SOL     OW31213   3.699   1.786   5.678  0.0267 -0.7416 -0.0101
 7862SOL    HW231214   3.632   1.740   5.729  0.4807 -1.4127 -0.0151
 7862SOL    HW331215   3.771   1.724   5.672  0.4308 -0.2279 -0.4871
 7862SOL    MW431216   3.699   1.772   5.684  0.1399 -0.7624 -0.0737
 7863SOL     OW31217   5.704   6.390   3.574  0.4027 -0.4002  0.1183
 7863SOL    HW231218   5.618   6.391   3.616 -0.4361 -0.1975 -1.5180
 7863SOL    HW331219   5.761   6.436   3.635 -0.5293 -0.9454  1.4525
 7863SOL    MW431220   5.700   6.396   3.588  0.1691 -0.4454  0.0784
 7864SOL     OW31221   5.054   5.627   5.863 -0.1309  0.6315 -0.3449
 7864SOL    HW231222   5.078   5.539   5.892  0.0562  0.7510 -0.1253
 7864SOL    HW331223   5.136   5.665   5.832 -0.2686  0.6242 -0.7224
 7864SOL    MW431224   5.068   5.621   5.863 -0.1243  0.6463 -0.3657
 7865SOL     OW31225   1.552   1.268   1.570 -0.2983 -0.3091 -0.2571
 7865SOL    HW231226   1.458   1.273   1.553 -0.3890 -0.1564  0.2593
 7865SOL    HW331227   1.559   1.271   1.665  0.2359 -0.2440 -0.2944
 7865SOL    MW431228   1.541   1.269   1.580 -0.2397 -0.2804 -0.1939
 7866SOL     OW31229   5.721   3.456   4.276 -0.1285 -0.0309 -0.0966
 7866SOL    HW231230   5.670   3.375   4.263 -1.1902  0.4280  1.0058
 7866SOL    HW331231   5.707   3.506   4.195 -1.8715  0.2901  0.3618
 7866SOL    MW431232   5.712   3.452   4.263 -0.4985  0.0720  0.1093
 7867SOL     OW31233   4.025   5.066   1.229 -0.0157  0.2217 -0.0147
 7867SOL    HW231234   3.968   4.996   1.196 -1.0362  0.4904  1.1189
 7867SOL    HW331235   4.021   5.134   1.162 -2.3884  0.9353  0.7512
 7867SOL    MW431236   4.017   5.065   1.216 -0.4634  0.3513  0.2359
 7868SOL     OW31237   5.728   5.354   3.290 -0.2857  0.4034  0.1213
 7868SOL    HW231238   5.652   5.337   3.345  0.3928 -4.2617  0.0696
 7868SOL    HW331239   5.795   5.387   3.350 -0.8125 -0.6264  1.3205
 7868SOL    MW431240   5.727   5.356   3.305 -0.2657 -0.3480  0.2727
 7869SOL     OW31241   3.173   3.385   5.394  0.0698 -0.0045  0.6876
 7869SOL    HW231242   3.119   3.456   5.428 -0.7382 -0.5472  0.5749
 7869SOL    HW331243   3.262   3.417   5.400 -0.1515  0.3755  2.1838
 7869SOL    MW431244   3.177   3.398   5.399 -0.0660 -0.0260  0.8701
 7870SOL     OW31245   3.041   4.545   5.732  0.0676 -0.3497 -0.0317
 7870SOL    HW231246   3.075   4.503   5.811  0.5280  1.4594  0.7875
 7870SOL    HW331247   3.075   4.492   5.660  4.4381  1.0002  0.7318
 7870SOL    MW431248   3.050   4.533   5.733  0.7050  0.0671  0.1771
 7871SOL     OW31249   1.881   6.318   5.242  0.7774 -0.4164  0.1675
 7871SOL    HW231250   1.865   6.412   5.236 -0.7105 -0.7215 -1.4171
 7871SOL    HW331251   1.871   6.298   5.335  0.6539  0.9031  0.4592
 7871SOL    MW431252   1.878   6.328   5.253  0.5648 -0.2825 -0.0031
 7872SOL     OW31253   1.854   5.042   0.689  0.2013 -0.7165 -0.2824
 7872SOL    HW231254   1.868   5.078   0.777  1.1302 -3.4916  0.8341
 7872SOL    HW331255   1.912   5.093   0.633  1.1598 -0.2175  1.0998
 7872SOL    MW431256   1.863   5.053   0.693  0.4503 -1.0168  0.0473
 7873SOL     OW31257   3.387   5.750   2.225  0.7442 -0.4099  0.1992
 7873SOL    HW231258   3.302   5.771   2.263  0.3089 -2.4353  0.4419
 7873SOL    HW331259   3.381   5.779   2.134  0.1221  0.2559  0.4471
 7873SOL    MW431260   3.375   5.757   2.218  0.6047 -0.5893  0.2639
 7874SOL     OW31261   5.099   4.317   4.498 -0.0006  0.2562  0.1199
 7874SOL    HW231262   5.019   4.281   4.536  0.4119  0.0023  0.7600
 7874SOL    HW331263   5.071   4.401   4.461 -0.0852  1.4458  2.6497
 7874SOL    MW431264   5.084   4.323   4.498  0.0427  0.3797  0.5381
 7875SOL     OW31265   1.602   0.172   1.282 -0.3101 -0.1215 -0.6450
 7875SOL    HW231266   1.651   0.209   1.355 -0.7205 -0.0218 -0.4147
 7875SOL    HW331267   1.560   0.248   1.241 -1.3942 -0.3483  0.0056
 7875SOL    MW431268   1.603   0.187   1.286 -0.5073 -0.1383 -0.5287
 7876SOL     OW31269   2.793   3.087   5.950  0.3016  0.2121  0.3293
 7876SOL    HW231270   2.760   3.130   5.872 -2.6768  1.6624  2.2313
 7876SOL    HW331271   2.821   3.000   5.920 -2.2392  0.1201 -2.0876
 7876SOL    MW431272   2.792   3.081   5.936 -0.4266  0.3913  0.2613
 7877SOL     OW31273   5.909   4.993   6.308 -0.3743  0.3088 -0.1736
 7877SOL    HW231274   5.880   5.045   6.233 -1.5434  0.9757  0.7106
 7877SOL    HW331275   5.988   4.948   6.277 -0.9900  0.3386 -1.8890
 7877SOL    MW431276   5.916   4.994   6.294 -0.6098  0.4007 -0.2833
 7878SOL     OW31277   4.435   0.980   3.594  0.5479 -0.2257 -0.1041
 7878SOL    HW231278   4.373   0.914   3.563  0.8766  0.4599 -2.3934
 7878SOL    HW331279   4.497   0.990   3.521  1.1328  1.8430  0.6232
 7878SOL    MW431280   4.435   0.972   3.580  0.6684  0.1377 -0.3102
 7879SOL     OW31281   6.154   3.279   6.232 -0.0321 -0.1395 -0.1818
 7879SOL    HW231282   6.091   3.268   6.162  0.0205 -0.5090 -0.1709
 7879SOL    HW331283   6.105   3.262   6.312  0.0164 -0.1561 -0.1553
 7879SOL    MW431284   6.139   3.275   6.233 -0.0188 -0.1904 -0.1768
 7880SOL     OW31285   5.310   0.593   2.163  0.3810 -0.0855 -0.2834
 7880SOL    HW231286   5.399   0.619   2.137  0.4165 -1.1123 -1.2646
 7880SOL    HW331287   5.265   0.576   2.080 -0.3627 -0.7705  0.2458
 7880SOL    MW431288   5.316   0.595   2.148  0.2875 -0.3114 -0.3430
 7881SOL     OW31289   5.673   0.918   1.765 -0.4527 -0.4699  0.0351
 7881SOL    HW231290   5.646   0.827   1.752 -2.3373 -0.1488  1.3301
 7881SOL    HW331291   5.593   0.963   1.794  0.6016  1.4508  0.1340
 7881SOL    MW431292   5.659   0.912   1.767 -0.5622 -0.1741  0.2190
 7882SOL     OW31293   5.294   4.467   2.006 -0.5023  0.2615 -0.4252
 7882SOL    HW231294   5.247   4.449   1.924  0.8230 -0.5337 -1.0338
 7882SOL    HW331295   5.358   4.534   1.982  0.4260 -0.5463 -0.2469
 7882SOL    MW431296   5.296   4.473   1.992 -0.2050  0.0500 -0.4819
 7883SOL     OW31297   2.978   2.106   2.023  0.3139  0.4261 -0.0049
 7883SOL    HW231298   2.923   2.173   1.981 -0.2697 -1.0628 -1.7431
 7883SOL    HW331299   3.066   2.143   2.022 -0.1234  1.5169 -0.1084
 7883SOL    MW431300   2.982   2.120   2.018  0.1792  0.3736 -0.2479
 7884SOL     OW31301   1.784   0.819   1.693 -0.0117 -0.4480 -0.1572
 7884SOL    HW231302   1.815   0.750   1.751  0.0249 -0.3927 -0.1111
 7884SOL    HW331303   1.854   0.830   1.628  0.5389  0.4054  0.5608
 7884SOL    MW431304   1.798   0.812   1.692  0.0657 -0.3281 -0.0563
 7885SOL     OW31305   1.660   2.025   1.283  0.3132 -0.0512  0.4192
 7885SOL    HW231306   1.732   2.071   1.324  1.1776 -2.0013  1.1883
 7885SOL    HW331307   1.700   1.948   1.243 -1.1348 -0.4024 -0.4393
 7885SOL    MW431308   1.674   2.021   1.283  0.2362 -0.3549  0.4074
 7886SOL     OW31309   2.887   5.583   2.669 -0.3036 -0.2562 -0.1814
 7886SOL    HW231310   2.797   5.550   2.670 -1.1658  1.7393 -2.2566
 7886SOL    HW331311   2.894   5.636   2.749 -0.8343 -0.7098  0.1731
 7886SOL    MW431312   2.876   5.586   2.680 -0.4874 -0.0528 -0.4084
 7887SOL     OW31313   1.122   0.509   2.042 -0.6527  0.4434 -0.1482
 7887SOL    HW231314   1.044   0.455   2.050 -1.0282  0.9138 -0.6055
 7887SOL    HW331315   1.095   0.596   2.070  0.0706  0.3090  1.0404
 7887SOL    MW431316   1.108   0.513   2.047 -0.6068  0.4877 -0.0517
 7888SOL     OW31317   4.974   2.284   4.540 -0.5663 -0.2202  0.8269
 7888SOL    HW231318   4.931   2.198   4.545 -1.9270  0.2879 -0.9060
 7888SOL    HW331319   4.920   2.333   4.478 -0.8795  2.5320  3.0894
 7888SOL    MW431320   4.961   2.279   4.532 -0.7871  0.2099  0.8968
 7889SOL     OW31321   3.275   5.323   2.848 -0.3675 -0.7907 -0.5572
 7889SOL    HW231322   3.336   5.338   2.775  0.0435 -2.6690 -0.6318
 7889SOL    HW331323   3.293   5.234   2.877 -0.4338 -0.0501  1.9698
 7889SOL    MW431324   3.286   5.313   2.842 -0.3220 -0.9408 -0.2337
 7890SOL     OW31325   2.174   1.997   1.583  0.3125 -0.0762 -0.3579
 7890SOL    HW231326   2.230   2.074   1.591 -0.6972  0.5726  0.6289
 7890SOL    HW331327   2.189   1.949   1.665  1.7767 -1.5578 -1.4048
 7890SOL    MW431328   2.184   2.001   1.595  0.3725 -0.1861 -0.3658
 7891SOL     OW31329   2.872   4.165   2.443  0.1494  0.1134 -0.1205
 7891SOL    HW231330   2.837   4.253   2.451 -1.3458 -0.2587 -1.9672
 7891SOL    HW331331   2.952   4.166   2.496  0.3970  2.6794 -0.4300
 7891SOL    MW431332   2.878   4.177   2.451 -0.0152  0.4028 -0.4050
 7892SOL     OW31333   2.819   2.635   4.440 -0.3783 -0.4729  0.0531
 7892SOL    HW231334   2.757   2.588   4.496 -0.9078 -1.3886 -1.2674
 7892SOL    HW331335   2.898   2.581   4.441  0.0274  0.1152  0.8313
 7892SOL    MW431336   2.821   2.622   4.448 -0.3946 -0.5161 -0.0185
 7893SOL     OW31337   0.643   4.775   4.799  0.2203  0.5725 -0.1361
 7893SOL    HW231338   0.594   4.807   4.724  0.0833 -0.9510 -0.7192
 7893SOL    HW331339   0.695   4.850   4.827 -1.8557  2.0299  0.0601
 7893SOL    MW431340   0.644   4.789   4.793 -0.0717  0.5638 -0.1871
 7894SOL     OW31341   1.886   4.281   0.333 -0.3946 -0.1611 -0.2275
 7894SOL    HW231342   1.866   4.370   0.305  2.2515  0.0125 -1.9945
 7894SOL    HW331343   1.803   4.234   0.326 -1.6907  1.9654  0.0030
 7894SOL    MW431344   1.873   4.287   0.328 -0.2165  0.1424 -0.4302
 7895SOL     OW31345   1.428   3.884   1.797 -0.0686  0.5883  0.1701
 7895SOL    HW231346   1.377   3.823   1.744  0.0614  0.2320  0.4489
 7895SOL    HW331347   1.362   3.943   1.835 -0.4477 -0.6640  1.5738
 7895SOL    MW431348   1.412   3.884   1.795 -0.1015  0.3761  0.3921
 7896SOL     OW31349   0.805   3.492   4.287 -0.1640  0.2187 -0.9000
 7896SOL    HW231350   0.726   3.504   4.340 -0.7094 -1.7711 -1.1787
 7896SOL    HW331351   0.814   3.575   4.239 -2.2082  0.4399 -1.0252
 7896SOL    MW431352   0.795   3.505   4.288 -0.5057 -0.0146 -0.9533
 7897SOL     OW31353   1.581   1.475   4.482  0.1844 -0.5786 -0.4379
 7897SOL    HW231354   1.671   1.459   4.509 -0.0025 -1.2573 -0.2026
 7897SOL    HW331355   1.562   1.406   4.419 -0.1723 -0.4459 -0.4780
 7897SOL    MW431356   1.590   1.464   4.478  0.1127 -0.6506 -0.4122
 7898SOL     OW31357   0.818   3.660   2.895  0.2090 -0.3707 -0.0110
 7898SOL    HW231358   0.810   3.632   2.986  1.1590  0.1822  0.2548
 7898SOL    HW331359   0.731   3.691   2.871  0.5458  2.0916  1.6008
 7898SOL    MW431360   0.806   3.660   2.904  0.3788  0.0271  0.2367
 7899SOL     OW31361   4.292   0.132   3.123 -0.2703 -0.4385 -0.2905
 7899SOL    HW231362   4.320   0.078   3.050 -1.5320  0.2117 -1.2968
 7899SOL    HW331363   4.197   0.138   3.114 -0.6176 -1.2954  2.0922
 7899SOL    MW431364   4.284   0.126   3.113 -0.4826 -0.4658 -0.1089
 7900SOL     OW31365   5.897   5.918   5.149 -0.2256  0.0967 -0.0034
 7900SOL    HW231366   5.804   5.916   5.172 -0.1018 -1.5653  0.5297
 7900SOL    HW331367   5.922   5.826   5.143  1.4242  0.5077 -0.0233
 7900SOL    MW431368   5.888   5.906   5.152  0.0084 -0.0684  0.0643
 7901SOL     OW31369   0.821   5.940   1.946  0.7526 -0.0429 -0.0956
 7901SOL    HW231370   0.873   5.923   1.868  2.8863  0.3096  1.1906
 7901SOL    HW331371   0.885   5.957   2.015 -1.0516 -0.3817  1.7592
 7901SOL    MW431372   0.836   5.940   1.945  0.7961 -0.0411  0.3188
 7902SOL     OW31373   2.639   5.468   5.927 -0.7412 -0.1243  0.4338
 7902SOL    HW231374   2.696   5.455   6.003 -0.2815 -0.3147  0.0625
 7902SOL    HW331375   2.582   5.541   5.952  1.3935  1.8544 -0.1683
 7902SOL    MW431376   2.639   5.476   5.940 -0.3989  0.1117  0.3054
 7903SOL     OW31377   4.378   2.457   2.369 -0.5770  0.6593 -0.1201
 7903SOL    HW231378   4.394   2.551   2.382  0.8115  0.3726  0.3338
 7903SOL    HW331379   4.395   2.443   2.276  1.8430  0.3967  0.3069
 7903SOL    MW431380   4.382   2.468   2.358 -0.0745  0.5868 -0.0039
 7904SOL     OW31381   6.087   0.718   2.251 -0.6125 -0.3216 -0.7497
 7904SOL    HW231382   6.051   0.659   2.318 -1.7212 -1.0631 -1.9436
 7904SOL    HW331383   6.034   0.797   2.258 -0.5212 -0.2787 -0.5417
 7904SOL    MW431384   6.075   0.721   2.261 -0.7468 -0.4138 -0.8798
 7905SOL     OW31385   1.346   6.167   1.700 -0.9983 -0.0619 -0.4134
 7905SOL    HW231386   1.421   6.211   1.741 -2.3740  0.5482  1.6146
 7905SOL    HW331387   1.370   6.158   1.608  1.0170  1.2846 -0.0706
 7905SOL    MW431388   1.359   6.172   1.694 -0.9139  0.1963 -0.1006
 7906SOL     OW31389   3.173   1.585   5.283 -0.3690 -0.3706 -0.1236
 7906SOL    HW231390   3.104   1.532   5.243 -1.5236  1.1837 -0.3199
 7906SOL    HW331391   3.131   1.669   5.301  1.7142  0.9562 -1.0546
 7906SOL    MW431392   3.158   1.589   5.280 -0.2465  0.0095 -0.2723
 7907SOL     OW31393   3.026   0.960   0.930 -0.1196 -0.1842 -0.1777
 7907SOL    HW231394   3.075   1.042   0.933  0.8646 -0.5959 -2.5680
 7907SOL    HW331395   2.952   0.978   0.872 -0.5253 -0.6975  0.1660
 7907SOL    MW431396   3.023   0.973   0.922 -0.0433 -0.3063 -0.4477
 7908SOL     OW31397   3.025   0.027   6.218  0.4680  0.4243 -0.2425
 7908SOL    HW231398   3.111   0.060   6.193  0.4964  0.3134 -0.2954
 7908SOL    HW331399   2.980   0.102   6.257  0.2481  0.7311 -1.0626
 7908SOL    MW431400   3.030   0.041   6.220  0.4427  0.4501 -0.3577
 7909SOL     OW31401   4.815   3.108   6.122 -0.7974 -1.0435  0.0285
 7909SOL    HW231402   4.857   3.038   6.173 -2.8208 -2.7625 -0.5063
 7909SOL    HW331403   4.783   3.169   6.188  0.9228 -0.6052  0.5143
 7909SOL    MW431404   4.816   3.107   6.138 -0.8374 -1.2125  0.0221
 7910SOL     OW31405   1.711   1.056   0.724  0.5939 -0.4084 -0.6432
 7910SOL    HW231406   1.651   1.057   0.650  0.8319 -1.9780 -0.8916
 7910SOL    HW331407   1.773   0.986   0.704  1.2416 -0.2195  0.5919
 7910SOL    MW431408   1.712   1.047   0.712  0.7107 -0.5905 -0.5130
 7911SOL     OW31409   5.747   1.379   2.703  0.0444 -0.2151  0.0128
 7911SOL    HW231410   5.780   1.296   2.669  0.0963 -0.6936  1.2083
 7911SOL    HW331411   5.799   1.445   2.657  2.3508 -0.9404  1.4134
 7911SOL    MW431412   5.759   1.377   2.692  0.3556 -0.3739  0.3553
 7912SOL     OW31413   2.756   4.701   4.878 -0.2343 -0.2921 -0.1131
 7912SOL    HW231414   2.779   4.635   4.943 -0.2571 -1.2719 -1.0653
 7912SOL    HW331415   2.710   4.769   4.927  0.5706 -0.5499  1.0354
 7912SOL    MW431416   2.753   4.701   4.893 -0.1311 -0.4554 -0.0872
 7913SOL     OW31417   5.293   2.945   5.314 -0.1176  0.5368  0.1960
 7913SOL    HW231418   5.371   2.893   5.332  0.1035  1.0320  0.6714
 7913SOL    HW331419   5.270   2.922   5.223 -1.7614 -2.6422  1.2563
 7913SOL    MW431420   5.300   2.935   5.304 -0.3053  0.1827  0.3986
 7914SOL     OW31421   4.074   0.644   0.686  0.0502 -0.8053 -0.1497
 7914SOL    HW231422   4.157   0.596   0.684  1.6511  1.8327 -1.0295
 7914SOL    HW331423   4.068   0.685   0.600 -2.1007 -0.7873 -0.0285
 7914SOL    MW431424   4.084   0.643   0.674 -0.0223 -0.4549 -0.2498
 7915SOL     OW31425   3.075   0.429   3.237 -0.7158 -0.1091  0.1217
 7915SOL    HW231426   3.077   0.524   3.226 -1.2684 -0.1241 -0.1857
 7915SOL    HW331427   3.003   0.400   3.180  0.8696 -0.9638 -1.5642
 7915SOL    MW431428   3.065   0.437   3.228 -0.5795 -0.2238 -0.1413
 7916SOL     OW31429   1.528   0.593   4.220 -0.1051 -0.3047  0.0325
 7916SOL    HW231430   1.544   0.521   4.160  1.8824  0.0252  0.0922
 7916SOL    HW331431   1.566   0.669   4.176 -1.0657  0.4756  0.5175
 7916SOL    MW431432   1.535   0.594   4.206  0.0304 -0.1582  0.1043
 7917SOL     OW31433   0.607   1.836   3.503  0.5235 -0.1330 -0.0362
 7917SOL    HW231434   0.657   1.823   3.423 -1.6103 -0.7884 -1.3521
 7917SOL    HW331435   0.525   1.789   3.488 -0.1600  0.1383  2.3511
 7917SOL    MW431436   0.602   1.828   3.491  0.1518 -0.1837  0.1051
 7918SOL     OW31437   0.756   1.025   4.299 -0.1320  0.6366  0.8411
 7918SOL    HW231438   0.665   0.994   4.302 -0.0613  0.4466  1.0607
 7918SOL    HW331439   0.803   0.965   4.357 -0.2776  2.1287  2.5929
 7918SOL    MW431440   0.750   1.013   4.307 -0.1418  0.8084  1.1012
 7919SOL     OW31441   0.878   4.832   0.850  0.0976  0.0914  0.0876
 7919SOL    HW231442   0.854   4.740   0.859 -0.8731  0.1491 -1.4904
 7919SOL    HW331443   0.970   4.830   0.823  0.8485 -0.2805  2.4788
 7919SOL    MW431444   0.887   4.820   0.848  0.0686  0.0500  0.1949
 7920SOL     OW31445   0.879   0.287   3.070 -0.1374  0.0852 -0.1652
 7920SOL    HW231446   0.904   0.242   2.989  2.6413  0.9028  0.1451
 7920SOL    HW331447   0.936   0.363   3.074 -0.5514  0.3479  2.3177
 7920SOL    MW431448   0.890   0.291   3.060  0.1746  0.2277  0.2033
 7921SOL     OW31449   5.080   4.677   4.064  0.3520  0.3674  0.2182
 7921SOL    HW231450   5.079   4.724   4.147 -0.9798 -0.3940  0.6629
 7921SOL    HW331451   5.157   4.710   4.018 -0.0678  2.3574  0.8601
 7921SOL    MW431452   5.090   4.687   4.069  0.1209  0.5295  0.3615
 7922SOL     OW31453   5.116   3.845   2.245  0.7587 -0.6095 -0.0160
 7922SOL    HW231454   5.023   3.855   2.265  1.1383  0.6588  1.2496
 7922SOL    HW331455   5.119   3.777   2.178 -1.0943 -0.5146 -0.2357
 7922SOL    MW431456   5.104   3.838   2.239  0.5643 -0.4297  0.1220
 7923SOL     OW31457   4.389   6.142   2.613 -0.1202 -0.3090  0.2289
 7923SOL    HW231458   4.439   6.136   2.694  2.8834 -0.3402 -1.4859
 7923SOL    HW331459   4.432   6.213   2.564 -3.3731  1.3937 -0.4284
 7923SOL    MW431460   4.401   6.151   2.617 -0.1531 -0.0885 -0.0841
 7924SOL     OW31461   5.893   0.638   5.702  0.5086  0.0453 -0.6319
 7924SOL    HW231462   5.813   0.588   5.682  0.6463 -0.2521 -0.4533
 7924SOL    HW331463   5.863   0.711   5.755  0.5867 -1.1717  1.1723
 7924SOL    MW431464   5.878   0.641   5.706  0.5371 -0.1545 -0.3703
 7925SOL     OW31465   5.498   5.136   0.111  0.0724  0.1262  0.2289
 7925SOL    HW231466   5.482   5.047   0.080 -0.4227  0.3325 -0.1197
 7925SOL    HW331467   5.452   5.141   0.195  0.7765 -0.1959  0.6385
 7925SOL    MW431468   5.490   5.125   0.118  0.0999  0.1110  0.2369
 7926SOL     OW31469   0.329   5.554   2.069 -0.2060 -0.2083  0.4937
 7926SOL    HW231470   0.256   5.593   2.021  0.2089 -0.6178 -0.4841
 7926SOL    HW331471   0.291   5.528   2.153 -1.7472 -2.3275 -0.7480
 7926SOL    MW431472   0.314   5.556   2.074 -0.3546 -0.5419  0.2009
 7927SOL     OW31473   4.382   1.712   1.259 -0.1192 -0.1979 -0.2488
 7927SOL    HW231474   4.391   1.660   1.179 -0.1939  0.7704 -0.9082
 7927SOL    HW331475   4.453   1.776   1.254  0.1377 -0.3925  0.6831
 7927SOL    MW431476   4.392   1.714   1.248 -0.0952 -0.0958 -0.2128
 7928SOL     OW31477   1.971   3.838   2.670  0.4631  0.2584  0.0155
 7928SOL    HW231478   1.897   3.886   2.709 -0.0694 -1.5150  1.3510
 7928SOL    HW331479   2.005   3.786   2.743  2.7249  0.6402 -0.7227
 7928SOL    MW431480   1.965   3.838   2.685  0.6913  0.0748  0.0943
 7929SOL     OW31481   3.584   4.540   2.368 -0.0452  0.0082 -0.3399
 7929SOL    HW231482   3.620   4.467   2.418  0.6762  1.1917  0.9433
 7929SOL    HW331483   3.529   4.499   2.301  0.1328 -1.6828  0.5035
 7929SOL    MW431484   3.581   4.525   2.366  0.0735 -0.0588 -0.0593
 7930SOL     OW31485   2.011   2.717   0.358  0.3504 -0.5619  0.0425
 7930SOL    HW231486   2.098   2.755   0.365  0.8056 -1.2485 -1.4839
 7930SOL    HW331487   1.968   2.766   0.288  0.3837 -1.7531 -0.8565
 7930SOL    MW431488   2.017   2.728   0.349  0.4149 -0.8097 -0.2775
 7931SOL     OW31489   2.350   5.903   0.255  0.2160 -0.3310  0.0413
 7931SOL    HW231490   2.319   5.823   0.213  0.6661 -0.2427 -0.4739
 7931SOL    HW331491   2.294   5.972   0.219  1.0113 -0.1681 -0.9063
 7931SOL    MW431492   2.339   5.902   0.245  0.3803 -0.2978 -0.1517
 7932SOL     OW31493   4.922   0.047   1.763  0.7834 -0.2306 -0.3866
 7932SOL    HW231494   4.934  -0.015   1.691 -0.2965  0.0211 -0.7989
 7932SOL    HW331495   4.846   0.015   1.811  1.5786 -0.4820  0.7565
 7932SOL    MW431496   4.914   0.035   1.760  0.7458 -0.2306 -0.2902
 7933SOL     OW31497   5.013   5.768   3.690  0.3758  0.1663  0.3137
 7933SOL    HW231498   5.103   5.794   3.711  0.1349 -0.2048  1.9076
 7933SOL    HW331499   4.979   5.842   3.640  1.0711  1.0274  1.0614
 7933SOL    MW431500   5.021   5.781   3.686  0.4358  0.2309  0.6226
 7934SOL     OW31501   5.306   0.913   2.180 -0.4711 -0.1778 -0.1424
 7934SOL    HW231502   5.304   0.825   2.141  0.9745 -0.5266  0.5169
 7934SOL    HW331503   5.236   0.960   2.135 -1.2623 -1.6532 -0.5298
 7934SOL    MW431504   5.297   0.907   2.169 -0.3848 -0.4185 -0.1065
 7935SOL     OW31505   3.463   4.714   4.945 -0.3217 -0.3649  0.5354
 7935SOL    HW231506   3.504   4.638   4.903  0.1280  0.7896 -1.2336
 7935SOL    HW331507   3.498   4.712   5.034 -1.2013 -2.8343  0.9199
 7935SOL    MW431508   3.473   4.703   4.951 -0.3784 -0.5384  0.3527
 7936SOL     OW31509   2.702   2.147   3.581  0.3538  0.0821 -0.4321
 7936SOL    HW231510   2.676   2.236   3.606  0.1080 -0.2348  0.4652
 7936SOL    HW331511   2.745   2.112   3.659 -0.1940 -0.8428 -0.5390
 7936SOL    MW431512   2.704   2.154   3.594  0.2491 -0.0817 -0.3278
 7937SOL     OW31513   5.968   2.047   1.544  0.1754 -0.1682  0.0664
 7937SOL    HW231514   5.981   1.957   1.514  1.4498 -0.1767  0.5790
 7937SOL    HW331515   6.036   2.098   1.500  0.6823  0.1962  1.2065
 7937SOL    MW431516   5.978   2.042   1.535  0.4104 -0.1213  0.2845
 7938SOL     OW31517   4.446   3.338   3.424 -0.4145 -0.7157  0.4099
 7938SOL    HW231518   4.505   3.276   3.468 -0.3017 -4.3947 -4.1115
 7938SOL    HW331519   4.358   3.311   3.451 -0.2789 -0.3457  1.2573
 7938SOL    MW431520   4.442   3.326   3.433 -0.3817 -1.1523 -0.0748
 7939SOL     OW31521   2.935   0.357   0.637  0.8768 -0.3954  0.2363
 7939SOL    HW231522   2.924   0.406   0.556 -0.5820  1.3198  1.3953
 7939SOL    HW331523   2.990   0.412   0.692  2.1987 -1.7268  0.3178
 7939SOL    MW431524   2.941   0.370   0.633  0.8587 -0.3448  0.3999
 7940SOL     OW31525   4.838   2.201   0.914  0.2036 -0.6718  0.4866
 7940SOL    HW231526   4.858   2.108   0.913  0.2988 -0.6593 -1.5477
 7940SOL    HW331527   4.770   2.213   0.847  1.1746  0.8962 -0.2863
 7940SOL    MW431528   4.832   2.191   0.905  0.3443 -0.4633  0.1162
 7941SOL     OW31529   4.972   1.678   3.552 -0.2081  0.4103  0.6957
 7941SOL    HW231530   5.016   1.758   3.580 -0.8149  1.0564 -0.1718
 7941SOL    HW331531   4.957   1.690   3.458 -1.8791  0.0470  0.8878
 7941SOL    MW431532   4.976   1.690   3.543 -0.5087  0.4476  0.6066
 7942SOL     OW31533   4.891   1.738   0.241 -0.6246 -0.0601  0.6425
 7942SOL    HW231534   4.836   1.679   0.191 -1.7863  1.2359  0.3137
 7942SOL    HW331535   4.847   1.746   0.326  0.0975 -0.4834  1.0648
 7942SOL    MW431536   4.878   1.731   0.246 -0.6826  0.0551  0.6549
 7943SOL     OW31537   2.077   2.337   3.158  0.7552 -0.2329  0.1131
 7943SOL    HW231538   2.098   2.385   3.238  0.5336  0.8440 -0.4589
 7943SOL    HW331539   2.031   2.259   3.189  2.1253 -0.6726  1.1232
 7943SOL    MW431540   2.073   2.333   3.173  0.9067 -0.1488  0.1709
 7944SOL     OW31541   3.799   3.907   0.412 -0.2660 -0.5130 -0.3927
 7944SOL    HW231542   3.894   3.908   0.423  0.1264 -0.3020 -3.1094
 7944SOL    HW331543   3.767   3.975   0.471  1.6150  1.6321 -1.6731
 7944SOL    MW431544   3.808   3.916   0.421  0.0339 -0.2022 -0.9201
 7945SOL     OW31545   4.461   5.753   5.863  0.1313 -0.2939 -0.6507
 7945SOL    HW231546   4.425   5.818   5.802 -2.6076 -1.3520 -0.3008
 7945SOL    HW331547   4.456   5.796   5.948  2.3232  0.5231 -0.8537
 7945SOL    MW431548   4.456   5.767   5.866  0.0592 -0.3257 -0.6313
 7946SOL     OW31549   2.211   1.424   0.455  0.3366 -0.0373  0.2746
 7946SOL    HW231550   2.228   1.401   0.363  2.9837  0.0405  0.6737
 7946SOL    HW331551   2.117   1.412   0.465 -0.0947  0.2315 -2.5307
 7946SOL    MW431552   2.201   1.419   0.444  0.6290  0.0084 -0.0429
 7947SOL     OW31553   1.666   1.725   2.168 -0.0569 -0.0725 -0.0250
 7947SOL    HW231554   1.662   1.800   2.108  1.2408  2.3534  2.6759
 7947SOL    HW331555   1.760   1.708   2.178 -0.2538 -0.4756  1.2503
 7947SOL    MW431556   1.678   1.733   2.161  0.0883  0.1944  0.4996
 7948SOL     OW31557   1.717   4.780   2.298 -0.0680 -1.1692 -0.7583
 7948SOL    HW231558   1.692   4.821   2.215  0.2273 -0.8106 -0.6689
 7948SOL    HW331559   1.808   4.805   2.312 -0.9817  1.5601  1.2884
 7948SOL    MW431560   1.725   4.789   2.289 -0.1496 -0.7618 -0.4765
 7949SOL     OW31561   2.408   1.194   0.713 -0.2467  0.3342 -0.7928
 7949SOL    HW231562   2.327   1.243   0.726 -0.0766  0.9537 -1.9049
 7949SOL    HW331563   2.468   1.257   0.672  0.9065 -0.0214  0.2848
 7949SOL    MW431564   2.405   1.209   0.709 -0.0721  0.3690 -0.7974
 7950SOL     OW31565   4.860   0.029   4.529 -0.4511 -0.0770 -0.1427
 7950SOL    HW231566   4.840   0.117   4.496  0.6983  0.4439  0.4656
 7950SOL    HW331567   4.956   0.026   4.530 -0.4669 -0.7304  1.4354
 7950SOL    MW431568   4.870   0.040   4.525 -0.3015 -0.0945  0.1458
 7951SOL     OW31569   2.812   4.370   0.388  0.0763 -0.1903 -0.6721
 7951SOL    HW231570   2.804   4.465   0.384  0.2032 -0.1226  0.4032
 7951SOL    HW331571   2.754   4.344   0.460  1.9444 -0.6611  0.7327
 7951SOL    MW431572   2.803   4.379   0.397  0.3395 -0.2435 -0.3449
 7952SOL     OW31573   0.396   4.113   5.502  0.4642  0.2953 -0.3412
 7952SOL    HW231574   0.340   4.038   5.483 -0.2005  0.3613  1.2238
 7952SOL    HW331575   0.384   4.171   5.427 -2.0274  0.5515  0.1629
 7952SOL    MW431576   0.387   4.111   5.490  0.0478  0.3378 -0.0682
 7953SOL     OW31577   2.672   0.204   5.342  0.2006 -0.3172 -0.1234
 7953SOL    HW231578   2.690   0.296   5.324  0.0263 -0.1536  0.5164
 7953SOL    HW331579   2.712   0.157   5.268  0.6564  0.2372 -0.2361
 7953SOL    MW431580   2.679   0.210   5.330  0.2377 -0.2225 -0.0538
 7954SOL     OW31581   1.619   0.368   4.588  0.0102  0.0976 -0.0506
 7954SOL    HW231582   1.650   0.384   4.499  0.5218  0.9630  0.2695
 7954SOL    HW331583   1.592   0.454   4.620  2.8729  0.4611  1.7521
 7954SOL    MW431584   1.620   0.382   4.581  0.4554  0.2597  0.2295
 7955SOL     OW31585   5.871   3.641   4.458 -0.3033 -0.6947 -0.1946
 7955SOL    HW231586   5.913   3.575   4.402 -1.3590 -0.3483 -1.4365
 7955SOL    HW331587   5.798   3.594   4.499  0.5698 -0.9932  1.0544
 7955SOL    MW431588   5.867   3.626   4.456 -0.3274 -0.6884 -0.1937
 7956SOL     OW31589   1.580   1.695   4.887  0.3445 -0.7110  0.4376
 7956SOL    HW231590   1.521   1.761   4.850  0.9652 -0.9561 -1.0811
 7956SOL    HW331591   1.667   1.726   4.864  0.7902 -0.8193  1.8751
 7956SOL    MW431592   1.583   1.708   4.879  0.4852 -0.7577  0.4269
 7957SOL     OW31593   1.469   0.442   3.035 -0.0151  0.2050  0.5422
 7957SOL    HW231594   1.528   0.447   3.110  1.3082 -0.3563 -0.3953
 7957SOL    HW331595   1.485   0.355   2.998  1.9712  1.5982 -2.3260
 7957SOL    MW431596   1.479   0.431   3.040  0.4216  0.3147  0.0401
 7958SOL     OW31597   3.176   3.446   2.931 -0.0006  0.8564  0.2747
 7958SOL    HW231598   3.110   3.377   2.922  1.1490 -0.8225  3.0492
 7958SOL    HW331599   3.153   3.491   3.012  1.0207  1.6875  0.1299
 7958SOL    MW431600   3.165   3.443   2.941  0.2858  0.7446  0.6217
 7959SOL     OW31601   1.075   3.399   3.162  0.4276 -0.1474 -0.2877
 7959SOL    HW231602   1.014   3.473   3.167  0.8995  0.1861  2.7964
 7959SOL    HW331603   1.161   3.440   3.174  0.8269 -1.0338 -0.0769
 7959SOL    MW431604   1.079   3.414   3.165  0.5425 -0.2204  0.1470
 7960SOL     OW31605   3.511   6.034   0.346  0.9019 -0.3448 -0.3737
 7960SOL    HW231606   3.522   5.940   0.362  1.7120 -0.4793 -1.5782
 7960SOL    HW331607   3.430   6.057   0.391 -0.6992 -2.1442 -2.1552
 7960SOL    MW431608   3.502   6.024   0.354  0.7976 -0.5999 -0.7676
 7961SOL     OW31609   3.982   2.657   0.860  0.2830 -0.0516  0.0800
 7961SOL    HW231610   3.941   2.644   0.946 -1.9581 -2.3408 -1.2008
 7961SOL    HW331611   3.974   2.572   0.816  2.3406  0.7279 -2.0449
 7961SOL    MW431612   3.976   2.644   0.866  0.2588 -0.2508 -0.3693
 7962SOL     OW31613   3.459   5.450   3.677 -0.0644 -0.0110 -0.4257
 7962SOL    HW231614   3.499   5.527   3.634 -1.7338 -0.4334 -2.9245
 7962SOL    HW331615   3.366   5.458   3.659 -0.3754 -2.2281 -0.0463
 7962SOL    MW431616   3.452   5.462   3.669 -0.3257 -0.3593 -0.7053
 7963SOL     OW31617   1.802   2.949   1.690 -0.8498  0.2641 -0.0046
 7963SOL    HW231618   1.876   2.972   1.633 -0.7437  2.6178  0.9696
 7963SOL    HW331619   1.771   2.865   1.656  1.0771  0.1249 -1.6240
 7963SOL    MW431620   1.808   2.941   1.678 -0.5815  0.5563 -0.0898
 7964SOL     OW31621   3.624   0.397   4.520 -0.1365 -0.3329  0.2850
 7964SOL    HW231622   3.686   0.464   4.548  0.3768 -0.3236 -0.8332
 7964SOL    HW331623   3.675   0.338   4.465 -0.9319 -0.7965  0.0255
 7964SOL    MW431624   3.639   0.398   4.516 -0.1737 -0.3929  0.1032
 7965SOL     OW31625   3.726   4.294   2.451  0.1233  0.4176  1.0980
 7965SOL    HW231626   3.795   4.271   2.513  1.8409 -1.5512 -1.3445
 7965SOL    HW331627   3.656   4.231   2.469  1.2014 -1.0983  0.1782
 7965SOL    MW431628   3.726   4.283   2.462  0.4921 -0.0421  0.6544
 7966SOL     OW31629   4.415   2.882   5.528 -0.3142 -0.4018  0.1174
 7966SOL    HW231630   4.427   2.795   5.490 -0.5146  0.3048 -1.6576
 7966SOL    HW331631   4.388   2.937   5.454  0.0029  1.2167  1.1598
 7966SOL    MW431632   4.413   2.878   5.513 -0.2988 -0.0950  0.0207
 7967SOL     OW31633   0.567   1.426   1.559  0.1570  0.0387 -0.0512
 7967SOL    HW231634   0.612   1.509   1.542  1.8569 -0.7967  0.0879
 7967SOL    HW331635   0.630   1.359   1.532 -0.2932 -1.2474  1.8686
 7967SOL    MW431636   0.581   1.428   1.553  0.3219 -0.2412  0.2204
 7968SOL     OW31637   4.964   4.790   6.235  0.3778  0.7448 -0.2033
 7968SOL    HW231638   4.914   4.708   6.238  1.8973 -0.3507 -2.2599
 7968SOL    HW331639   5.001   4.798   6.323  0.8499 -1.2776 -0.1467
 7968SOL    MW431640   4.963   4.780   6.247  0.6405  0.3334 -0.4672
 7969SOL     OW31641   5.135   3.183   6.111  0.1411 -0.5664 -0.1175
 7969SOL    HW231642   5.091   3.263   6.083  0.9823 -0.4885 -1.3317
 7969SOL    HW331643   5.072   3.138   6.167 -0.2569  1.0516  0.7966
 7969SOL    MW431644   5.121   3.188   6.115  0.1996 -0.3427 -0.1571
 7970SOL     OW31645   4.627   2.269   2.578 -0.3100  0.1001 -0.6015
 7970SOL    HW231646   4.667   2.318   2.650 -1.6487  0.5440 -0.1397
 7970SOL    HW331647   4.575   2.201   2.621 -0.7033  0.0427 -1.1550
 7970SOL    MW431648   4.625   2.267   2.593 -0.5385  0.1511 -0.6136
 7971SOL     OW31649   0.674   2.273   5.883 -0.4001 -0.0470 -0.0150
 7971SOL    HW231650   0.681   2.367   5.898  0.9497  0.2417 -2.0378
 7971SOL    HW331651   0.764   2.243   5.869 -0.7724 -1.7183  0.8177
 7971SOL    MW431652   0.687   2.281   5.883 -0.2711 -0.2294 -0.1720
 7972SOL     OW31653   3.805   0.305   3.295 -0.4988 -0.2932  0.1596
 7972SOL    HW231654   3.750   0.375   3.261  0.6346  0.7709  0.4301
 7972SOL    HW331655   3.852   0.272   3.218  0.7846  0.9447  0.3695
 7972SOL    MW431656   3.804   0.310   3.280 -0.1799  0.0105  0.2230
 7973SOL     OW31657   3.767   5.365   0.951  0.0722 -0.0278 -0.1197
 7973SOL    HW231658   3.744   5.275   0.929  0.8010 -0.2518 -0.0018
 7973SOL    HW331659   3.853   5.359   0.993  0.2211  0.7438 -0.2850
 7973SOL    MW431660   3.776   5.353   0.954  0.1880  0.0444 -0.1259
 7974SOL     OW31661   1.873   2.250   5.865  0.1253 -0.3743  0.2179
 7974SOL    HW231662   1.960   2.269   5.900  1.1712 -3.2073 -0.6329
 7974SOL    HW331663   1.878   2.278   5.773  0.1005 -0.4533  0.1930
 7974SOL    MW431664   1.885   2.256   5.857  0.2600 -0.7585  0.1024
 7975SOL     OW31665   1.566   5.944   1.944 -0.1461  0.0110 -0.0265
 7975SOL    HW231666   1.494   5.895   1.905  0.3195 -1.4601  0.8876
 7975SOL    HW331667   1.528   6.030   1.964 -1.5253 -0.5881  0.0433
 7975SOL    MW431668   1.552   5.949   1.942 -0.2666 -0.2622  0.1033
 7976SOL     OW31669   4.175   1.307   4.359 -0.4249  0.2295  0.0496
 7976SOL    HW231670   4.094   1.357   4.343 -0.8362 -0.1294  0.9895
 7976SOL    HW331671   4.239   1.374   4.383 -1.0026  0.3220  1.4177
 7976SOL    MW431672   4.172   1.322   4.360 -0.5554  0.1943  0.3541
 7977SOL     OW31673   6.384   3.189   4.967  0.1090 -0.1409 -0.5350
 7977SOL    HW231674   6.406   3.164   4.877  1.3881  0.5269 -0.4303
 7977SOL    HW331675   6.398   3.108   5.017  0.5351 -0.2120 -0.7602
 7977SOL    MW431676   6.388   3.175   4.961  0.3340 -0.0622 -0.5509
 7978SOL     OW31677   2.727   5.838   0.075  0.4995 -0.2525  0.0957
 7978SOL    HW231678   2.716   5.931   0.057 -2.5223 -0.4067  0.5697
 7978SOL    HW331679   2.714   5.796  -0.010  0.6484 -0.2734  0.0843
 7978SOL    MW431680   2.724   5.844   0.061  0.1205 -0.2756  0.1567
 7979SOL     OW31681   0.428   3.992   5.926 -0.7886  0.7406  0.3497
 7979SOL    HW231682   0.474   3.984   6.009 -0.1241  0.6471 -0.0185
 7979SOL    HW331683   0.497   4.001   5.861 -1.3105  1.1935 -0.1563
 7979SOL    MW431684   0.443   3.992   5.928 -0.7698  0.7880  0.2343
 7980SOL     OW31685   0.781   3.483   2.694  0.4707 -0.0071 -0.1531
 7980SOL    HW231686   0.777   3.395   2.731 -1.2737  0.0752 -0.0629
 7980SOL    HW331687   0.819   3.537   2.763  0.1197 -0.4120  0.3599
 7980SOL    MW431688   0.785   3.478   2.708  0.1942 -0.0497 -0.0735
 7981SOL     OW31689   5.396   1.022   3.284  0.1779  0.3322 -0.1087
 7981SOL    HW231690   5.350   1.031   3.201  1.5949  2.9688 -0.7161
 7981SOL    HW331691   5.327   1.009   3.349 -0.9175 -2.9541 -1.7019
 7981SOL    MW431692   5.381   1.021   3.282  0.2203  0.2465 -0.3990
 7982SOL     OW31693   4.374   0.699   5.575 -0.4751  0.6474 -0.1691
 7982SOL    HW231694   4.351   0.759   5.646 -0.7510 -1.3410  1.5325
 7982SOL    HW331695   4.291   0.682   5.531 -0.6469  0.4815  0.2108
 7982SOL    MW431696   4.360   0.705   5.579 -0.5342  0.3632  0.1055
 7983SOL     OW31697   5.691   3.114   0.049  0.1946 -0.4372 -0.2006
 7983SOL    HW231698   5.759   3.053   0.021  0.2753  0.5519 -2.3104
 7983SOL    HW331699   5.734   3.168   0.117  1.0857 -0.6989 -0.5464
 7983SOL    MW431700   5.706   3.113   0.055  0.3228 -0.3412 -0.5246
 7984SOL     OW31701   3.247   3.434   0.991 -0.3878  0.2415  0.7074
 7984SOL    HW231702   3.215   3.520   0.964 -0.3159  0.3246  0.8863
 7984SOL    HW331703   3.192   3.410   1.065 -1.0187 -0.2805  0.0741
 7984SOL    MW431704   3.236   3.442   0.997 -0.4616  0.1836  0.6475
 7985SOL     OW31705   0.970   3.136   3.246 -0.3564 -0.1496 -0.2700
 7985SOL    HW231706   1.038   3.072   3.224  0.2333  0.7535 -1.0919
 7985SOL    HW331707   0.987   3.211   3.189  0.7059  1.9420  2.5498
 7985SOL    MW431708   0.981   3.137   3.236 -0.1384  0.2455 -0.0064
 7986SOL     OW31709   5.839   4.378   3.940 -0.2803  0.5148  0.3564
 7986SOL    HW231710   5.836   4.463   3.896 -0.5664  1.5132  2.1923
 7986SOL    HW331711   5.782   4.388   4.017  0.1163 -1.1603  0.9264
 7986SOL    MW431712   5.831   4.390   3.945 -0.2657  0.4255  0.6738
 7987SOL     OW31713   6.108   3.215   5.771 -0.0738  0.0327 -0.2454
 7987SOL    HW231714   6.193   3.180   5.797  0.1484  0.7757  0.0576
 7987SOL    HW331715   6.129   3.295   5.723 -0.4614 -1.2697 -2.7593
 7987SOL    MW431716   6.122   3.221   5.768 -0.0956 -0.0411 -0.5371
 7988SOL     OW31717   4.488   5.144   0.301  0.4026  0.5621 -0.2992
 7988SOL    HW231718   4.394   5.164   0.302  0.7710  2.5609 -0.8131
 7988SOL    HW331719   4.501   5.088   0.378 -1.5168 -1.4967 -1.3551
 7988SOL    MW431720   4.477   5.139   0.312  0.1980  0.5542 -0.5063
 7989SOL     OW31721   2.261   2.768   4.972 -0.2332 -0.7816  0.0283
 7989SOL    HW231722   2.282   2.860   4.989  0.3995 -0.9370  0.1053
 7989SOL    HW331723   2.198   2.745   5.040 -2.5963  0.3652 -1.6205
 7989SOL    MW431724   2.255   2.778   4.983 -0.4615 -0.6508 -0.1791
 7990SOL     OW31725   4.000   3.407   6.005 -0.1652  0.3585  0.5253
 7990SOL    HW231726   3.946   3.348   5.953  0.9914 -0.6019  0.3752
 7990SOL    HW331727   4.002   3.368   6.092  1.3238 -0.3602  0.2084
 7990SOL    MW431728   3.993   3.394   6.010  0.1839  0.1369  0.4637
 7991SOL     OW31729   6.250   6.408   0.674  0.0238  0.4453  0.2007
 7991SOL    HW231730   6.262   6.412   0.579 -1.7206  2.6878 -0.0229
 7991SOL    HW331731   6.338   6.419   0.710  0.5940  0.5365 -1.1664
 7991SOL    MW431732   6.263   6.410   0.667 -0.1311  0.7532 -0.0092
 7992SOL     OW31733   2.936   2.300   3.694  0.0871  0.5270  0.1506
 7992SOL    HW231734   2.955   2.356   3.620 -0.6682  2.0193  1.0320
 7992SOL    HW331735   2.999   2.326   3.761  2.3465 -2.3948 -0.5959
 7992SOL    MW431736   2.947   2.310   3.693  0.2856  0.3384  0.1684
 7993SOL     OW31737   6.159   1.483   2.634 -0.0049 -0.5529 -0.1040
 7993SOL    HW231738   6.106   1.527   2.701 -0.0145  1.6189 -1.4323
 7993SOL    HW331739   6.222   1.550   2.605  0.5656 -1.6924 -1.6598
 7993SOL    MW431740   6.161   1.498   2.639  0.0691 -0.4167 -0.4845
 7994SOL     OW31741   3.521   4.635   1.415 -0.4107 -0.1909 -0.3978
 7994SOL    HW231742   3.578   4.679   1.479 -0.8933  1.1079 -0.8314
 7994SOL    HW331743   3.575   4.566   1.379 -0.2327 -1.2039  1.6649
 7994SOL    MW431744   3.536   4.632   1.419 -0.4509 -0.1532 -0.1829
 7995SOL     OW31745   1.382   5.652   1.430 -0.0337 -0.2257  0.3285
 7995SOL    HW231746   1.312   5.713   1.452  1.1401  1.0011  0.7506
 7995SOL    HW331747   1.364   5.628   1.339 -0.3324  1.0132  0.0397
 7995SOL    MW431748   1.371   5.657   1.421  0.0818  0.0996  0.3461
 7996SOL     OW31749   0.348   3.959   4.895 -0.7284  0.3486  0.0079
 7996SOL    HW231750   0.337   3.870   4.928  0.5062  0.4383  0.7198
 7996SOL    HW331751   0.318   4.015   4.967 -3.4461  0.5490 -1.1698
 7996SOL    MW431752   0.342   3.955   4.909 -0.9241  0.3868 -0.0535
 7997SOL     OW31753   2.494   2.390   2.141  0.2126 -0.0944  0.3865
 7997SOL    HW231754   2.414   2.364   2.186 -0.3464 -2.0272 -1.5397
 7997SOL    HW331755   2.465   2.426   2.058  1.3091 -0.1924 -0.0610
 7997SOL    MW431756   2.480   2.391   2.136  0.2835 -0.3623  0.0733
 7998SOL     OW31757   2.387   6.403   6.030  0.4846 -0.1325 -0.5493
 7998SOL    HW231758   2.334   6.403   6.110 -0.6548 -1.3493 -1.2540
 7998SOL    HW331759   2.477   6.392   6.060  0.0943 -0.3660  0.5816
 7998SOL    MW431760   2.392   6.401   6.044  0.2828 -0.3238 -0.4930
 7999SOL     OW31761   5.412   1.771   0.049  0.2052 -0.1533  0.0740
 7999SOL    HW231762   5.351   1.844   0.058 -0.0705 -0.5586  1.7765
 7999SOL    HW331763   5.473   1.800  -0.019 -0.8898  0.9523 -0.4749
 7999SOL    MW431764   5.412   1.785   0.041  0.0243 -0.0609  0.2262
 8000SOL     OW31765   0.022   1.945   5.529 -0.3895  0.1080  0.0045
 8000SOL    HW231766   0.035   1.857   5.494 -1.3125  0.3927 -1.1117
 8000SOL    HW331767   0.069   1.945   5.612  0.2306 -1.2066 -0.3249
 8000SOL    MW431768   0.030   1.934   5.535 -0.4294 -0.0279 -0.1862
 8001SOL     OW31769   0.659   4.243   3.128  0.9577 -0.2014  0.6661
 8001SOL    HW231770   0.642   4.249   3.034  1.2136  0.1617  0.6415
 8001SOL    HW331771   0.702   4.325   3.150 -1.8982  1.1486  1.7111
 8001SOL    MW431772   0.663   4.254   3.118  0.6147  0.0246  0.8007
 8002SOL     OW31773   1.240   1.772   2.953 -0.6905 -0.1427  0.1458
 8002SOL    HW231774   1.256   1.791   2.860  0.9971  1.0458  0.6298
 8002SOL    HW331775   1.261   1.679   2.962  0.9816  0.1572 -0.3194
 8002SOL    MW431776   1.245   1.762   2.942 -0.2472  0.0537  0.1483
 8003SOL     OW31777   2.537   5.353   5.459 -0.0212 -0.9317 -0.3047
 8003SOL    HW231778   2.581   5.396   5.532 -1.7006 -2.1999  1.5529
 8003SOL    HW331779   2.536   5.260   5.483 -0.3491 -1.4317 -2.1002
 8003SOL    MW431780   2.543   5.346   5.472 -0.2860 -1.1650 -0.2965
 8004SOL     OW31781   4.314   0.471   3.427 -0.3591  0.4321 -0.8424
 8004SOL    HW231782   4.228   0.455   3.389 -0.9600  1.7153 -0.0969
 8004SOL    HW331783   4.363   0.515   3.357 -0.2248 -0.4783 -1.3337
 8004SOL    MW431784   4.309   0.475   3.413 -0.4207  0.4813 -0.8089
 8005SOL     OW31785   3.824   6.141   0.737  0.2674 -0.1453 -0.2319
 8005SOL    HW231786   3.812   6.149   0.643  4.8850 -1.3980 -1.1615
 8005SOL    HW331787   3.801   6.050   0.757  0.7575 -0.3162 -0.4503
 8005SOL    MW431788   3.820   6.130   0.727  0.9413 -0.3331 -0.3834
 8006SOL     OW31789   0.216   3.665   2.888  0.0307 -0.4792 -0.2730
 8006SOL    HW231790   0.258   3.600   2.945 -2.1898 -0.4331  1.5625
 8006SOL    HW331791   0.289   3.707   2.842  1.8187 -1.6374  1.3377
 8006SOL    MW431792   0.231   3.662   2.890 -0.0264 -0.6259  0.1817
 8007SOL     OW31793   0.980   3.839   5.792  0.2592  0.0336 -0.4423
 8007SOL    HW231794   1.038   3.899   5.746  0.7583  0.3833  0.5968
 8007SOL    HW331795   1.039   3.775   5.834 -0.2779 -1.4604 -1.8555
 8007SOL    MW431796   0.995   3.838   5.792  0.2542 -0.1174 -0.4916
 8008SOL     OW31797   4.545   2.191   1.866  0.0788  0.1494 -0.3943
 8008SOL    HW231798   4.523   2.146   1.784 -1.0723 -0.4641  0.2345
 8008SOL    HW331799   4.621   2.246   1.843 -1.4822  1.6287 -2.4193
 8008SOL    MW431800   4.552   2.192   1.852 -0.2790  0.2636 -0.5785
 8009SOL     OW31801   5.777   0.784   6.066  0.6448 -0.1250  0.2966
 8009SOL    HW231802   5.724   0.725   6.120  0.1904  0.5924  0.6551
 8009SOL    HW331803   5.856   0.799   6.117  1.3707 -1.4355 -0.3697
 8009SOL    MW431804   5.780   0.778   6.080  0.6806 -0.2033  0.2560
 8010SOL     OW31805   2.342   1.493   1.590  0.2371 -0.4438 -0.2784
 8010SOL    HW231806   2.276   1.432   1.557  0.8847  0.1137 -2.8214
 8010SOL    HW331807   2.347   1.561   1.524  2.5073  0.1573  0.4223
 8010SOL    MW431808   2.334   1.494   1.577  0.6221 -0.2910 -0.5215
 8011SOL     OW31809   5.354   5.994   5.223  0.3873 -0.0979 -0.7013
 8011SOL    HW231810   5.290   5.924   5.238 -0.0018  0.1350 -1.2523
 8011SOL    HW331811   5.313   6.072   5.261  1.6860 -0.5285  1.7695
 8011SOL    MW431812   5.340   5.995   5.230  0.5073 -0.1240 -0.4480
 8012SOL     OW31813   5.322   0.981   5.678 -0.3783  0.6731  0.0147
 8012SOL    HW231814   5.276   0.915   5.626  0.2569  0.2095  0.0254
 8012SOL    HW331815   5.384   1.021   5.616  0.0471  0.4497  0.2912
 8012SOL    MW431816   5.324   0.977   5.663 -0.2384  0.5825  0.0526
 8013SOL     OW31817   3.521   5.469   3.968 -0.5695 -0.0029  0.5793
 8013SOL    HW231818   3.593   5.528   3.945  0.0051 -0.7507  0.4265
 8013SOL    HW331819   3.492   5.433   3.884 -0.3288 -0.6035  0.7483
 8013SOL    MW431820   3.527   5.472   3.954 -0.4620 -0.1808  0.5814
 8014SOL     OW31821   5.080   0.304   4.529 -0.4661 -0.0265 -0.7121
 8014SOL    HW231822   5.096   0.361   4.454  0.3218 -1.0407 -1.3245
 8014SOL    HW331823   5.097   0.216   4.498 -0.6747 -0.5247  0.5069
 8014SOL    MW431824   5.084   0.300   4.515 -0.3896 -0.2261 -0.6321
 8015SOL     OW31825   0.343   4.616   4.233 -0.2766 -0.9590 -0.1336
 8015SOL    HW231826   0.423   4.654   4.197  0.4921 -0.7765  1.6619
 8015SOL    HW331827   0.346   4.524   4.208  1.5403 -1.4254  1.5321
 8015SOL    MW431828   0.354   4.609   4.225  0.0645 -0.9964  0.3231
 8016SOL     OW31829   1.243   3.308   1.404  0.2200 -0.2176  0.0327
 8016SOL    HW231830   1.259   3.226   1.452  1.4320 -0.5273 -0.8445
 8016SOL    HW331831   1.324   3.357   1.414  0.1984  0.0486 -1.0384
 8016SOL    MW431832   1.256   3.304   1.412  0.3771 -0.2233 -0.2243
 8017SOL     OW31833   6.372   3.116   5.683  0.1133  0.1221  0.0206
 8017SOL    HW231834   6.385   3.022   5.669  2.1206  0.4500 -0.6030
 8017SOL    HW331835   6.419   3.157   5.611  0.4403  1.6297  1.0606
 8017SOL    MW431836   6.380   3.109   5.672  0.4212  0.3643  0.0756
 8018SOL     OW31837   0.456   2.004   5.804  0.1812  0.0124  0.0644
 8018SOL    HW231838   0.474   2.087   5.849 -3.2650  0.2456  1.3189
 8018SOL    HW331839   0.521   1.943   5.840  0.7112  1.4106  1.6188
 8018SOL    MW431840   0.467   2.007   5.815 -0.2036  0.2276  0.4350
 8019SOL     OW31841   2.904   3.067   3.986 -0.0064  0.6700  0.3041
 8019SOL    HW231842   2.971   3.067   4.054  0.1311  0.5580  0.1694
 8019SOL    HW331843   2.924   3.144   3.933  0.1133  0.5446  0.1678
 8019SOL    MW431844   2.915   3.077   3.988  0.0275  0.6387  0.2683
 8020SOL     OW31845   4.541   6.324   2.439  0.0663 -0.3688  0.3989
 8020SOL    HW231846   4.608   6.390   2.457  0.4981 -0.7207  0.1086
 8020SOL    HW331847   4.555   6.300   2.348 -2.9883  2.4072 -1.0029
 8020SOL    MW431848   4.552   6.329   2.429 -0.2797 -0.0490  0.1757
 8021SOL     OW31849   2.413   4.285   0.410  0.0443 -0.5153 -0.1313
 8021SOL    HW231850   2.376   4.373   0.409  2.3223  0.6243  2.6666
 8021SOL    HW331851   2.338   4.228   0.428 -1.2034  1.0249 -0.2199
 8021SOL    MW431852   2.398   4.289   0.412  0.1803 -0.1617  0.2261
 8022SOL     OW31853   0.297   0.279   0.067  0.3875 -0.2501  0.7203
 8022SOL    HW231854   0.256   0.194   0.084  1.3270 -1.2399 -1.5392
 8022SOL    HW331855   0.384   0.257   0.035  0.8999  1.6124  0.7360
 8022SOL    MW431856   0.303   0.265   0.065  0.5791 -0.1350  0.4243
 8023SOL     OW31857   6.170   0.268   4.214 -0.4351  0.1465 -0.9972
 8023SOL    HW231858   6.218   0.351   4.217 -1.8408  0.9788  1.1166
 8023SOL    HW331859   6.200   0.220   4.291 -2.4995  0.4709  0.0938
 8023SOL    MW431860   6.180   0.273   4.225 -0.8929  0.2991 -0.5744
 8024SOL     OW31861   3.042   3.193   2.919  0.2150  0.0221 -0.5528
 8024SOL    HW231862   2.972   3.190   2.855  1.2962  0.5254 -1.8100
 8024SOL    HW331863   3.122   3.182   2.868  1.0383 -1.4214  0.9172
 8024SOL    MW431864   3.044   3.191   2.904  0.4662 -0.1019 -0.5247
 8025SOL     OW31865   1.921   2.418   5.141 -0.0789  0.2913 -0.1859
 8025SOL    HW231866   1.832   2.393   5.117 -0.2663 -1.0296  1.7103
 8025SOL    HW331867   1.918   2.434   5.235  1.7148 -0.0241 -0.0269
 8025SOL    MW431868   1.909   2.416   5.150  0.1331  0.0754  0.0853
 8026SOL     OW31869   4.230   5.631   5.471 -0.3927  0.1164  0.1134
 8026SOL    HW231870   4.244   5.611   5.564 -0.0960 -0.0138  0.0412
 8026SOL    HW331871   4.290   5.573   5.425 -0.1064  0.5955 -0.1308
 8026SOL    MW431872   4.240   5.621   5.477 -0.3158  0.1624  0.0717
 8027SOL     OW31873   5.666   4.786   3.335  0.1976 -0.2368 -0.0230
 8027SOL    HW231874   5.752   4.828   3.340 -0.3512  0.9322 -0.0352
 8027SOL    HW331875   5.660   4.755   3.245  1.4636 -2.2880  0.5310
 8027SOL    MW431876   5.677   4.788   3.324  0.2923 -0.3532  0.0485
 8028SOL     OW31877   0.990   0.787   5.109 -0.3022 -0.1886 -0.5655
 8028SOL    HW231878   0.977   0.744   5.025 -2.2490 -2.7932  0.8969
 8028SOL    HW331879   1.085   0.791   5.119  0.0208  1.2037 -3.2639
 8028SOL    MW431880   1.001   0.782   5.099 -0.5165 -0.3485 -0.7286
 8029SOL     OW31881   5.706   5.348   4.930  0.7427  0.1315  0.1728
 8029SOL    HW231882   5.630   5.405   4.919  0.2054 -0.5794  0.1259
 8029SOL    HW331883   5.710   5.331   5.024 -0.7283 -1.8932 -0.0652
 8029SOL    MW431884   5.696   5.353   4.941  0.4777 -0.2294  0.1352
 8030SOL     OW31885   5.421   5.608   4.202  0.0970  0.1531 -0.2095
 8030SOL    HW231886   5.451   5.518   4.185 -1.0335  0.0709 -1.9607
 8030SOL    HW331887   5.483   5.641   4.268 -0.6477 -2.5865  2.1056
 8030SOL    MW431888   5.433   5.600   4.209 -0.1504 -0.2192 -0.1351
 8031SOL     OW31889   3.395   0.443   6.253  0.5071 -0.1248  0.1070
 8031SOL    HW231890   3.454   0.518   6.265 -0.6404  0.7227  0.7570
 8031SOL    HW331891   3.440   0.370   6.295  0.9497  0.5739  0.8866
 8031SOL    MW431892   3.409   0.444   6.260  0.4141  0.0792  0.2956
 8032SOL     OW31893   2.381   3.485   1.067  0.2277 -0.4692  0.2139
 8032SOL    HW231894   2.386   3.413   1.129 -1.6245 -1.0383 -0.2140
 8032SOL    HW331895   2.338   3.447   0.990  0.2037  0.8221 -0.4379
 8032SOL    MW431896   2.376   3.470   1.065 -0.0199 -0.3739  0.0715
 8033SOL     OW31897   3.112   2.745   5.947 -0.5309  0.6093  0.0426
 8033SOL    HW231898   3.117   2.662   5.901 -1.2851  0.1256  0.7961
 8033SOL    HW331899   3.198   2.756   5.988 -0.0687  0.7382 -0.9460
 8033SOL    MW431900   3.124   2.736   5.946 -0.5695  0.5625  0.0116
 8034SOL     OW31901   3.246   4.349   1.249 -0.3332  0.2617 -0.0174
 8034SOL    HW231902   3.225   4.348   1.155  3.4417 -3.8509 -1.1442
 8034SOL    HW331903   3.208   4.267   1.282 -0.4079  0.9879  1.7761
 8034SOL    MW431904   3.238   4.338   1.241  0.1550 -0.1851  0.0705
 8035SOL     OW31905   0.939   5.778   4.500  0.4404 -0.6472  0.4104
 8035SOL    HW231906   0.901   5.725   4.430 -2.8169  1.5011  0.3759
 8035SOL    HW331907   1.034   5.769   4.487 -0.0009 -2.4269 -2.6013
 8035SOL    MW431908   0.947   5.770   4.489 -0.0476 -0.5985  0.0085
 8036SOL     OW31909   4.160   6.335   5.588  0.2667  0.2500  0.9303
 8036SOL    HW231910   4.075   6.320   5.547 -0.6670  1.9802  2.0942
 8036SOL    HW331911   4.222   6.286   5.534 -1.2192  0.3629 -0.9870
 8036SOL    MW431912   4.157   6.326   5.575 -0.0525  0.4932  0.8309
 8037SOL     OW31913   4.438   0.717   6.275  0.2359 -0.1213  0.5022
 8037SOL    HW231914   4.451   0.722   6.370 -0.7203  0.3575  0.6152
 8037SOL    HW331915   4.523   0.742   6.239  0.5764 -0.1844  1.2260
 8037SOL    MW431916   4.451   0.721   6.283  0.1547 -0.0664  0.6126
 8038SOL     OW31917   0.224   3.530   3.257 -0.1002 -0.0980  0.1696
 8038SOL    HW231918   0.269   3.576   3.328  0.1268  0.5701 -0.4028
 8038SOL    HW331919   0.137   3.569   3.253  0.5011  1.1920 -1.1374
 8038SOL    MW431920   0.219   3.541   3.266  0.0091  0.1604 -0.0784
 8039SOL     OW31921   2.603   2.234   2.590  0.2478 -0.0406  0.0268
 8039SOL    HW231922   2.598   2.311   2.534 -0.8224 -0.0879  0.0445
 8039SOL    HW331923   2.694   2.205   2.583  0.1724  0.0526 -1.5525
 8039SOL    MW431924   2.615   2.240   2.582  0.0966 -0.0345 -0.1792
 8040SOL     OW31925   3.813   4.906   6.142 -0.6515  0.5419 -0.0197
 8040SOL    HW231926   3.891   4.852   6.128 -0.3853  0.7051  0.7524
 8040SOL    HW331927   3.761   4.893   6.063 -1.1239 -1.7433  0.5836
 8040SOL    MW431928   3.817   4.897   6.130 -0.6787  0.2619  0.1617
 8041SOL     OW31929   2.317   4.384   0.789  0.7104 -0.3610  0.0959
 8041SOL    HW231930   2.386   4.441   0.755 -1.4397  1.2533 -1.8055
 8041SOL    HW331931   2.280   4.432   0.863  0.4874 -0.4206  0.0238
 8041SOL    MW431932   2.322   4.398   0.795  0.3973 -0.1559 -0.1645
 8042SOL     OW31933   0.799   4.092   2.769 -0.0124 -0.3001  0.2535
 8042SOL    HW231934   0.862   4.027   2.801 -0.1985  0.3732  2.0653
 8042SOL    HW331935   0.827   4.109   2.679  1.1474 -1.5189  0.3472
 8042SOL    MW431936   0.811   4.085   2.761  0.1161 -0.3720  0.5049
 8043SOL     OW31937   4.224   2.702   6.312  0.1148  0.1037 -0.0029
 8043SOL    HW231938   4.302   2.683   6.259 -0.3389 -0.5524 -0.4519
 8043SOL    HW331939   4.226   2.636   6.381  0.3605  0.5643  0.4380
 8043SOL    MW431940   4.235   2.691   6.314  0.0874  0.0779 -0.0040
 8044SOL     OW31941   5.133   2.331   4.086 -0.4356  0.4097  0.5575
 8044SOL    HW231942   5.195   2.348   4.015 -1.4466  0.3004 -0.3663
 8044SOL    HW331943   5.168   2.253   4.130 -0.3585 -0.1533 -0.4681
 8044SOL    MW431944   5.146   2.323   4.082 -0.5588  0.3210  0.3003
 8045SOL     OW31945   3.826   6.065   5.739 -0.2492  0.3328  0.9236
 8045SOL    HW231946   3.815   6.151   5.698 -0.1284 -0.0545  0.0633
 8045SOL    HW331947   3.907   6.030   5.702  0.2345  0.2427  2.0005
 8045SOL    MW431948   3.836   6.072   5.729 -0.1695  0.2698  0.9522
 8046SOL     OW31949   0.144   3.366   4.430  0.7397 -0.4417 -0.5424
 8046SOL    HW231950   0.149   3.437   4.494 -0.2729  0.4158 -1.3675
 8046SOL    HW331951   0.198   3.396   4.357 -0.7105  0.1430 -1.4443
 8046SOL    MW431952   0.151   3.380   4.429  0.4148 -0.2514 -0.7702
 8047SOL     OW31953   4.010   3.929   4.434  0.2256 -0.5175  0.7206
 8047SOL    HW231954   4.071   3.965   4.370 -0.4106 -0.6726  0.0044
 8047SOL    HW331955   3.987   3.843   4.399 -1.5402  0.1345  0.1893
 8047SOL    MW431956   4.015   3.922   4.421 -0.0913 -0.4520  0.5560
 8048SOL     OW31957   3.660   5.911   3.786  0.3878  0.1765  0.8676
 8048SOL    HW231958   3.664   5.839   3.848 -0.1622 -1.0891 -0.5129
 8048SOL    HW331959   3.598   5.973   3.824  1.7019  0.4972  2.6129
 8048SOL    MW431960   3.653   5.910   3.799  0.4886  0.0519  0.9157
 8049SOL     OW31961   0.196   0.405   5.922  0.0580  0.7666  1.3507
 8049SOL    HW231962   0.149   0.375   5.844 -0.6427  0.8885  1.7175
 8049SOL    HW331963   0.182   0.336   5.987  0.8868  0.5252  1.2837
 8049SOL    MW431964   0.188   0.392   5.920  0.0749  0.7508  1.3902
 8050SOL     OW31965   0.714   5.043   2.927 -0.0140  0.0085 -0.4281
 8050SOL    HW231966   0.679   5.132   2.922 -1.3477 -0.3894  0.9119
 8050SOL    HW331967   0.766   5.042   3.008  1.7179  0.1035 -1.5001
 8050SOL    MW431968   0.716   5.055   2.937  0.0386 -0.0315 -0.3928
 8051SOL     OW31969   5.424   5.813   4.647 -0.0634  0.3871 -0.1208
 8051SOL    HW231970   5.331   5.797   4.660 -0.3346  0.0492 -2.1108
 8051SOL    HW331971   5.428   5.894   4.596  0.7035  0.1798 -0.4096
 8051SOL    MW431972   5.412   5.822   4.642  0.0020  0.3151 -0.4214
 8052SOL     OW31973   0.113   1.726   5.414  0.2071 -0.1066 -0.3156
 8052SOL    HW231974   0.131   1.635   5.438  0.7999 -0.1364 -0.8434
 8052SOL    HW331975   0.083   1.721   5.324 -0.2073  0.1818 -0.1949
 8052SOL    MW431976   0.111   1.713   5.406  0.2307 -0.0725 -0.3693
 8053SOL     OW31977   5.508   3.849   4.446 -0.7464  0.0736 -0.3327
 8053SOL    HW231978   5.425   3.895   4.436 -1.1606 -0.8307 -1.1651
 8053SOL    HW331979   5.553   3.897   4.516  0.0769  3.5481 -2.9249
 8053SOL    MW431980   5.503   3.862   4.454 -0.6924  0.4127 -0.7845
 8054SOL     OW31981   5.889   3.925   4.563  0.2512  0.8587  0.5163
 8054SOL    HW231982   5.977   3.948   4.533  1.1352  0.5359  2.6759
 8054SOL    HW331983   5.866   3.847   4.513  0.8488  1.3721 -0.6066
 8054SOL    MW431984   5.897   3.918   4.553  0.4467  0.8839  0.6531
 8055SOL     OW31985   1.261   0.767   6.216 -0.0174  0.0211  0.8365
 8055SOL    HW231986   1.335   0.823   6.193 -0.1511 -0.1056  0.0853
 8055SOL    HW331987   1.292   0.717   6.292  0.3766  0.5409  1.0260
 8055SOL    MW431988   1.275   0.767   6.223  0.0169  0.0730  0.7624
 8056SOL     OW31989   2.615   5.149   3.334 -0.1168 -0.6458 -0.4069
 8056SOL    HW231990   2.612   5.223   3.395 -0.3575  0.1142 -1.3131
 8056SOL    HW331991   2.704   5.152   3.298 -0.1157 -0.8211 -0.4187
 8056SOL    MW431992   2.626   5.160   3.337 -0.1484 -0.5687 -0.5280
 8057SOL     OW31993   3.454   0.793   0.552  0.1928 -0.3280  0.6288
 8057SOL    HW231994   3.373   0.795   0.500  0.5684 -0.8181  0.0076
 8057SOL    HW331995   3.516   0.845   0.500 -0.1891  1.5110  1.9338
 8057SOL    MW431996   3.452   0.800   0.538  0.1920 -0.1500  0.7190
 8058SOL     OW31997   5.650   2.584   6.174  0.1163  0.4822  0.3353
 8058SOL    HW231998   5.558   2.609   6.170 -0.3317 -1.1088 -0.2312
 8058SOL    HW331999   5.688   2.617   6.092  0.2871  1.9348  0.9816
 8058SOL    MW432000   5.643   2.591   6.162  0.0797  0.4639  0.3459
 8059SOL     OW32001   3.427   2.395   3.798 -0.3288  0.8352  0.0712
 8059SOL    HW232002   3.374   2.453   3.853 -1.4669  0.0740 -0.1790
 8059SOL    HW332003   3.430   2.438   3.713 -0.1998  1.0775  0.1976
 8059SOL    MW432004   3.421   2.408   3.794 -0.4619  0.7667  0.0549
 8060SOL     OW32005   4.315   2.830   4.652  0.2880 -0.5172 -0.4524
 8060SOL    HW232006   4.293   2.909   4.701  1.1077 -0.7267  0.2878
 8060SOL    HW332007   4.271   2.841   4.568 -1.0327 -0.0822  0.2693
 8060SOL    MW432008   4.306   2.842   4.647  0.2219 -0.4874 -0.2596
 8061SOL     OW32009   1.319   0.147   2.353  0.2190  0.1368  0.1502
 8061SOL    HW232010   1.309   0.208   2.280  2.7562  1.2971  0.6769
 8061SOL    HW332011   1.339   0.203   2.428 -1.4374 -1.0990  1.5877
 8061SOL    MW432012   1.320   0.163   2.353  0.3352  0.1268  0.4093
 8062SOL     OW32013   1.565   3.118   2.873  0.3177 -0.4418  0.4023
 8062SOL    HW232014   1.481   3.074   2.886 -0.5545  0.9606 -0.1299
 8062SOL    HW332015   1.547   3.210   2.896  1.5901 -0.0387 -0.1264
 8062SOL    MW432016   1.552   3.125   2.878  0.3705 -0.2036  0.2623
 8063SOL     OW32017   1.835   3.763   2.430  0.1161  0.4554  0.4821
 8063SOL    HW232018   1.787   3.845   2.414  1.3448  1.2717  0.8245
 8063SOL    HW332019   1.892   3.783   2.504 -0.8108 -1.2738  1.7077
 8063SOL    MW432020   1.836   3.777   2.438  0.1559  0.3349  0.6890
 8064SOL     OW32021   5.346   3.041   1.518  0.0225 -0.0306  0.0461
 8064SOL    HW232022   5.271   3.028   1.577  0.7387 -2.8229  0.4751
 8064SOL    HW332023   5.423   3.030   1.574  0.7174 -0.4881 -0.9712
 8064SOL    MW432024   5.346   3.038   1.533  0.2086 -0.4594 -0.0315
 8065SOL     OW32025   2.205   2.373   6.241  0.1748  0.6250 -0.1499
 8065SOL    HW232026   2.290   2.349   6.277  0.8403  2.2805 -0.5470
 8065SOL    HW332027   2.176   2.447   6.295  0.0412  1.5301 -1.4225
 8065SOL    MW432028   2.212   2.379   6.253  0.2450  0.9629 -0.3702
 8066SOL     OW32029   1.440   3.059   1.280  0.0689  0.2563  0.4344
 8066SOL    HW232030   1.495   2.992   1.321  0.8747 -0.6801 -2.0293
 8066SOL    HW332031   1.350   3.034   1.303  0.4425 -0.7663  0.8351
 8066SOL    MW432032   1.435   3.047   1.289  0.2245 -0.0022  0.1622
 8067SOL     OW32033   1.612   6.270   5.412 -0.1099  0.2645 -0.0300
 8067SOL    HW232034   1.637   6.224   5.332  3.1021  1.1910  0.3057
 8067SOL    HW332035   1.588   6.200   5.473 -0.1299 -0.6168 -1.0250
 8067SOL    MW432036   1.612   6.254   5.409  0.3113  0.2704 -0.1170
 8068SOL     OW32037   3.122   0.481   3.737  0.3533  0.0341 -0.1473
 8068SOL    HW232038   3.196   0.456   3.792 -0.2323  1.1922  1.2223
 8068SOL    HW332039   3.063   0.406   3.741  0.3173  0.1001  0.8288
 8068SOL    MW432040   3.124   0.468   3.744  0.2713  0.1956  0.1622
 8069SOL     OW32041   1.147   3.537   5.402  0.5422 -0.0957  0.1441
 8069SOL    HW232042   1.075   3.599   5.391  2.2865  2.1276  0.7024
 8069SOL    HW332043   1.128   3.467   5.339 -1.3788  1.0807 -0.6676
 8069SOL    MW432044   1.135   3.536   5.392  0.5189  0.3528  0.1107
 8070SOL     OW32045   1.163   6.398   1.506 -0.1996  0.2611  0.3647
 8070SOL    HW232046   1.253   6.418   1.479  0.0673 -0.3678  0.7668
 8070SOL    HW332047   1.163   6.409   1.601 -0.3154 -0.6004  0.4714
 8070SOL    MW432048   1.175   6.402   1.515 -0.1797  0.0645  0.4318
 8071SOL     OW32049   1.696   1.892   3.184  0.1967  0.1550 -0.5064
 8071SOL    HW232050   1.632   1.876   3.115 -0.1761  3.9430 -1.2222
 8071SOL    HW332051   1.710   1.986   3.183  2.5280  0.0009  2.5871
 8071SOL    MW432052   1.690   1.902   3.175  0.4551  0.6345 -0.1927
 8072SOL     OW32053   6.031   3.200   4.265  0.0218 -0.5921 -0.1573
 8072SOL    HW232054   6.122   3.193   4.296  0.1953  0.5828 -0.3507
 8072SOL    HW332055   6.037   3.191   4.170 -0.2714 -2.0987 -0.0632
 8072SOL    MW432056   6.044   3.198   4.257  0.0060 -0.6358 -0.1704
 8073SOL     OW32057   0.261   3.932   5.332 -0.6725  0.1821 -0.2896
 8073SOL    HW232058   0.336   3.881   5.302 -0.5318  0.0511  0.2883
 8073SOL    HW332059   0.234   3.889   5.413 -1.0630  0.5322 -0.2354
 8073SOL    MW432060   0.267   3.919   5.339 -0.7054  0.2110 -0.2062
 8074SOL     OW32061   0.798   3.239   2.825 -0.2872 -0.4392 -0.0789
 8074SOL    HW232062   0.715   3.251   2.870 -0.5324  0.3220 -0.7195
 8074SOL    HW332063   0.774   3.200   2.741  0.2860 -3.3498  0.9817
 8074SOL    MW432064   0.784   3.235   2.820 -0.2439 -0.7228 -0.0235
 8075SOL     OW32065   5.349   0.344   5.448 -0.3092  0.2761  0.2291
 8075SOL    HW232066   5.335   0.401   5.372 -3.3272 -0.2652  0.2764
 8075SOL    HW332067   5.293   0.268   5.432  0.3898 -0.7225  2.1763
 8075SOL    MW432068   5.340   0.341   5.436 -0.6152  0.0729  0.4922
 8076SOL     OW32069   3.708   4.530   0.163  0.0022  0.2203 -0.5750
 8076SOL    HW232070   3.756   4.525   0.080  0.9611 -1.2759  0.0294
 8076SOL    HW332071   3.616   4.526   0.138  0.2442  0.7663 -1.6185
 8076SOL    MW432072   3.703   4.529   0.149  0.1606  0.0949 -0.6329
 8077SOL     OW32073   2.981   4.992   0.158  0.5088  0.1561 -0.1924
 8077SOL    HW232074   3.071   4.964   0.174  0.4456 -0.2381 -0.5055
 8077SOL    HW332075   2.931   4.910   0.152  1.0335 -0.1101 -5.8397
 8077SOL    MW432076   2.986   4.977   0.160  0.5697  0.0690 -0.9788
 8078SOL     OW32077   1.624   2.639   2.206 -0.5544 -0.2479  0.0661
 8078SOL    HW232078   1.692   2.701   2.179 -0.7074 -0.2673 -0.3729
 8078SOL    HW332079   1.552   2.695   2.236 -0.7987 -0.1998 -0.5894
 8078SOL    MW432080   1.623   2.655   2.206 -0.6068 -0.2441 -0.0783
 8079SOL     OW32081   4.367   6.229   1.770 -0.6292  0.0625 -0.0916
 8079SOL    HW232082   4.320   6.146   1.767 -1.5356  0.5139  1.0341
 8079SOL    HW332083   4.352   6.263   1.858 -1.0047  1.8438 -0.7983
 8079SOL    MW432084   4.359   6.223   1.781 -0.7983  0.3571 -0.0363
 8080SOL     OW32085   2.891   1.624   0.719 -0.4651  0.6880 -0.3747
 8080SOL    HW232086   2.926   1.655   0.636  3.0393 -1.4137  0.1054
 8080SOL    HW332087   2.884   1.529   0.708 -0.0289  0.3650  1.6366
 8080SOL    MW432088   2.895   1.615   0.707  0.0548  0.3681 -0.0460
 8081SOL     OW32089   0.911   3.466   6.283  0.1751  0.1286 -0.2908
 8081SOL    HW232090   0.935   3.427   6.367 -1.6113 -0.1790  0.1325
 8081SOL    HW332091   0.868   3.395   6.235 -0.0013  0.6515 -0.9263
 8081SOL    MW432092   0.908   3.451   6.287 -0.0838  0.1570 -0.3188
 8082SOL     OW32093   1.293   3.015   2.919 -0.1325 -0.2758  0.2341
 8082SOL    HW232094   1.215   3.069   2.906 -0.4370 -0.4398  1.2537
 8082SOL    HW332095   1.281   2.940   2.861  0.8785  1.2800 -2.1373
 8082SOL    MW432096   1.281   3.012   2.910 -0.0393 -0.0921  0.0557
 8083SOL     OW32097   3.909   2.434   0.149  0.5323  0.5108  0.2007
 8083SOL    HW232098   3.843   2.431   0.218 -0.7571 -1.7182 -0.9975
 8083SOL    HW332099   3.877   2.500   0.088 -1.0518 -1.0152 -0.7077
 8083SOL    MW432100   3.896   2.442   0.150  0.1532  0.0154 -0.0772
 8084SOL     OW32101   0.787   2.904   3.825  0.6746 -0.3700  0.7877
 8084SOL    HW232102   0.763   2.816   3.796 -2.2500  0.6443 -0.2698
 8084SOL    HW332103   0.728   2.922   3.898  0.1465  1.2243  0.0130
 8084SOL    MW432104   0.776   2.895   3.831  0.2191 -0.0259  0.5460
 8085SOL     OW32105   4.631   2.564   4.943 -0.1925 -0.7438 -0.6516
 8085SOL    HW232106   4.625   2.653   4.908 -0.0213 -0.6749 -0.5076
 8085SOL    HW332107   4.584   2.569   5.027  2.1176 -0.0945  0.6928
 8085SOL    MW432108   4.624   2.576   4.950  0.1348 -0.6491 -0.4552
 8086SOL     OW32109   0.124   0.214   3.043 -0.5720 -0.1732  0.0502
 8086SOL    HW232110   0.108   0.131   3.088 -0.3943 -0.5208 -0.5144
 8086SOL    HW332111   0.046   0.227   2.988 -0.3172 -0.2886 -0.3402
 8086SOL    MW432112   0.111   0.204   3.042 -0.5149 -0.2343 -0.0758
 8087SOL     OW32113   6.276   1.782   6.192 -0.1972 -0.0685  0.0769
 8087SOL    HW232114   6.317   1.775   6.106  0.0675  1.3962  0.0513
 8087SOL    HW332115   6.287   1.696   6.231  0.4543 -0.5017 -1.0203
 8087SOL    MW432116   6.283   1.770   6.186 -0.0763  0.0676 -0.0713
 8088SOL     OW32117   1.218   3.392   5.126 -0.4196  0.2525 -0.4335
 8088SOL    HW232118   1.263   3.476   5.118 -0.9457  0.6062  0.1719
 8088SOL    HW332119   1.138   3.403   5.074 -0.5867  0.2029 -0.1880
 8088SOL    MW432120   1.213   3.405   5.118 -0.5111  0.2926 -0.3213
 8089SOL     OW32121   2.552   1.683   4.161 -0.6725  0.1664 -0.1052
 8089SOL    HW232122   2.558   1.749   4.230 -1.4065  0.1801 -0.0544
 8089SOL    HW332123   2.459   1.680   4.138 -0.6050 -0.6471 -0.2991
 8089SOL    MW432124   2.541   1.691   4.167 -0.7605  0.0609 -0.1241
 8090SOL     OW32125   1.322   0.014   2.770 -0.1338  0.2603  0.4915
 8090SOL    HW232126   1.262  -0.034   2.826 -0.3581  1.0313  0.9246
 8090SOL    HW332127   1.270   0.087   2.736 -0.2454 -0.6533 -1.3971
 8090SOL    MW432128   1.308   0.017   2.773 -0.1781  0.2415  0.2995
 8091SOL     OW32129   5.401   6.163   1.045 -0.2358 -0.1209 -0.8354
 8091SOL    HW232130   5.454   6.102   1.096 -0.0658 -0.2465 -1.1643
 8091SOL    HW332131   5.315   6.122   1.041  0.1755 -0.9218 -2.0532
 8091SOL    MW432132   5.396   6.150   1.051 -0.1591 -0.2432 -1.0395
 8092SOL     OW32133   2.674   5.726   5.559 -0.1013 -0.1191  0.3475
 8092SOL    HW232134   2.705   5.777   5.634 -0.7193  1.2392 -0.2897
 8092SOL    HW332135   2.580   5.718   5.572 -0.1828 -0.0543 -0.1775
 8092SOL    MW432136   2.666   5.731   5.571 -0.1936  0.0687  0.1942
 8093SOL     OW32137   1.223   1.982   6.186  0.0201  0.2291 -0.4689
 8093SOL    HW232138   1.162   1.917   6.152  1.7389 -0.0844 -3.2549
 8093SOL    HW332139   1.240   1.955   6.277 -2.1051 -0.9996 -0.3862
 8093SOL    MW432140   1.218   1.970   6.194 -0.0335  0.0256 -0.8256
 8094SOL     OW32141   2.953   1.156   3.990 -0.1428 -0.6115 -0.2772
 8094SOL    HW232142   2.973   1.199   3.907 -1.0157  1.8018  0.6799
 8094SOL    HW332143   2.971   1.222   4.057 -0.6471 -2.0665  1.3804
 8094SOL    MW432144   2.958   1.170   3.988 -0.3245 -0.4851  0.0678
 8095SOL     OW32145   5.791   1.811   5.307 -0.0566  0.8097  0.0913
 8095SOL    HW232146   5.818   1.873   5.376  1.7040  1.6347 -1.2620
 8095SOL    HW332147   5.787   1.864   5.228  1.2158 -0.7354 -1.0651
 8095SOL    MW432148   5.794   1.826   5.306  0.3436  0.7147 -0.2398
 8096SOL     OW32149   0.914   1.952   2.066  0.0478  0.8358 -0.2477
 8096SOL    HW232150   0.950   1.998   2.142 -1.7658 -0.1359  1.2815
 8096SOL    HW332151   0.832   1.998   2.047 -2.4311 -2.1567  2.0493
 8096SOL    MW432152   0.908   1.964   2.074 -0.5185  0.3128  0.2571
 8097SOL     OW32153   1.861   2.279   6.170 -0.2098 -0.1422  0.0830
 8097SOL    HW232154   1.789   2.220   6.148 -0.4643 -0.0939  0.7443
 8097SOL    HW332155   1.907   2.294   6.088 -2.0775  1.3271 -0.7481
 8097SOL    MW432156   1.858   2.273   6.156 -0.4898  0.0580  0.0606
 8098SOL     OW32157   1.181   2.943   4.268 -0.0513 -0.6574 -0.8758
 8098SOL    HW232158   1.143   3.020   4.228 -1.5797 -1.9858 -2.1190
 8098SOL    HW332159   1.150   2.945   4.359 -0.2846  0.0412 -0.9685
 8098SOL    MW432160   1.172   2.953   4.275 -0.2837 -0.7405 -1.0521
 8099SOL     OW32161   1.720   2.403   3.290 -0.4341  0.1587 -0.0112
 8099SOL    HW232162   1.734   2.367   3.378  1.0258  0.9594  0.1141
 8099SOL    HW332163   1.631   2.439   3.293 -0.3431  0.3190  1.1996
 8099SOL    MW432164   1.710   2.403   3.302 -0.2295  0.2855  0.1651
 8100SOL     OW32165   1.576   0.751   3.407 -0.3689  0.0547 -0.3044
 8100SOL    HW232166   1.552   0.819   3.345  0.2089  1.7617  1.2610
 8100SOL    HW332167   1.657   0.715   3.373 -0.5552  0.3113 -1.0264
 8100SOL    MW432168   1.583   0.755   3.394 -0.3173  0.3138 -0.1931
 8101SOL     OW32169   1.326   2.116   4.465 -0.8239  0.3635  0.3098
 8101SOL    HW232170   1.277   2.178   4.411 -0.6684  0.7731  0.6315
 8101SOL    HW332171   1.406   2.098   4.415 -0.4768  1.0744  0.5820
 8101SOL    MW432172   1.330   2.122   4.451 -0.7576  0.5113  0.3882
 8102SOL     OW32173   2.987   0.041   2.824 -0.2254  0.3887 -0.3221
 8102SOL    HW232174   2.938   0.116   2.789  1.0907  2.1365  1.3550
 8102SOL    HW332175   3.076   0.053   2.791  0.3035  0.3204  1.0499
 8102SOL    MW432176   2.992   0.052   2.815  0.0181  0.6103  0.0802
 8103SOL     OW32177   0.691   4.755   3.602  0.8193  0.3617  0.7159
 8103SOL    HW232178   0.736   4.712   3.675  1.0262  0.2667  0.5318
 8103SOL    HW332179   0.640   4.685   3.562 -0.7256  0.7707  1.8566
 8103SOL    MW432180   0.690   4.740   3.607  0.6428  0.4031  0.8421
 8104SOL     OW32181   1.556   2.014   5.493 -0.6951  0.0153 -0.2296
 8104SOL    HW232182   1.624   1.949   5.510 -1.2007 -0.4454  0.0845
 8104SOL    HW332183   1.545   2.060   5.577 -1.1333 -0.2687 -0.1266
 8104SOL    MW432184   1.563   2.012   5.506 -0.8197 -0.0829 -0.1746
 8105SOL     OW32185   2.336   4.988   4.257  0.0770 -0.0020  0.3829
 8105SOL    HW232186   2.382   5.034   4.187  0.1907  1.5516  1.4273
 8105SOL    HW332187   2.383   5.013   4.337 -1.9221  0.8211  1.3707
 8105SOL    MW432188   2.348   4.997   4.259 -0.1717  0.3116  0.6510
 8106SOL     OW32189   6.083   0.078   1.290  0.2384 -0.1783  0.0241
 8106SOL    HW232190   6.018   0.096   1.222  1.2924 -0.2797 -1.0291
 8106SOL    HW332191   6.075   0.152   1.351 -0.3803  0.1553 -0.4500
 8106SOL    MW432192   6.073   0.090   1.289  0.2959 -0.1476 -0.1774
 8107SOL     OW32193   4.125   5.819   1.815  0.2624  0.0811 -0.4767
 8107SOL    HW232194   4.106   5.911   1.836 -3.9858 -0.7681  0.0947
 8107SOL    HW332195   4.131   5.776   1.900 -1.8327 -0.7731 -0.7070
 8107SOL    MW432196   4.124   5.826   1.829 -0.5745 -0.1437 -0.4317
 8108SOL     OW32197   2.252   3.426   4.642  0.2871  0.5089 -0.2721
 8108SOL    HW232198   2.270   3.427   4.548  0.7321  0.8612 -0.1867
 8108SOL    HW332199   2.190   3.353   4.654  0.8127 -0.0244 -0.7340
 8108SOL    MW432200   2.246   3.416   4.631  0.4152  0.4850 -0.3218
 8109SOL     OW32201   1.986   5.269   4.403  0.2565 -0.6700  0.0962
 8109SOL    HW232202   1.916   5.300   4.346 -1.6874 -0.2679  2.5427
 8109SOL    HW332203   1.984   5.174   4.396  1.0154 -0.5959 -1.5220
 8109SOL    MW432204   1.977   5.261   4.395  0.1002 -0.6072  0.2055
 8110SOL     OW32205   3.641   5.354   4.911  0.4109 -0.3953 -0.1586
 8110SOL    HW232206   3.605   5.274   4.874 -0.3227 -0.4264  0.5915
 8110SOL    HW332207   3.694   5.324   4.985 -1.1073 -0.1245  1.0944
 8110SOL    MW432208   3.643   5.340   4.916  0.1138 -0.3637  0.1057
 8111SOL     OW32209   4.395   2.653   3.451  0.1218 -0.7461 -0.4859
 8111SOL    HW232210   4.489   2.665   3.439  0.0623  0.1004 -0.1740
 8111SOL    HW332211   4.384   2.645   3.546 -0.2226  0.0931 -0.4509
 8111SOL    MW432212   4.406   2.653   3.462  0.0685 -0.5237 -0.4401
 8112SOL     OW32213   2.088   0.798   4.818  0.6516 -0.2220  0.3641
 8112SOL    HW232214   2.102   0.830   4.729 -0.9991 -0.1854  0.0857
 8112SOL    HW332215   2.005   0.752   4.814  1.0457 -1.1058  1.6740
 8112SOL    MW432216   2.079   0.796   4.806  0.4858 -0.3338  0.5002
 8113SOL     OW32217   4.344   4.746   0.642 -0.4461  0.3469 -0.1095
 8113SOL    HW232218   4.273   4.682   0.638  0.6162 -0.8086 -2.0146
 8113SOL    HW332219   4.423   4.695   0.627  0.6081  1.9098 -0.1027
 8113SOL    MW432220   4.345   4.731   0.640 -0.1669  0.4006 -0.3599
 8114SOL     OW32221   4.430   4.744   4.476  0.2617 -0.1953  0.2747
 8114SOL    HW232222   4.471   4.771   4.558  0.2161 -0.9337  0.5425
 8114SOL    HW332223   4.474   4.796   4.409  0.0461  0.6823  0.7947
 8114SOL    MW432224   4.441   4.754   4.478  0.2273 -0.1769  0.3786
 8115SOL     OW32225   4.337   1.072   3.323  0.0663 -0.2610 -0.1309
 8115SOL    HW232226   4.334   1.152   3.271 -0.6306 -0.6884 -0.7582
 8115SOL    HW332227   4.335   1.103   3.414 -0.3741  0.4249 -0.3651
 8115SOL    MW432228   4.336   1.087   3.328 -0.0838 -0.2269 -0.2445
 8116SOL     OW32229   0.646   5.858   4.981 -0.3613  0.1872  0.2076
 8116SOL    HW232230   0.658   5.887   5.072  0.0111 -1.3085  0.6692
 8116SOL    HW332231   0.730   5.821   4.956 -0.3012  1.0955 -0.9580
 8116SOL    MW432232   0.658   5.857   4.990 -0.3043  0.1097  0.1147
 8117SOL     OW32233   6.288   3.512   0.526 -0.9404  0.5089 -0.0153
 8117SOL    HW232234   6.315   3.596   0.564  2.2624 -0.1623 -0.4897
 8117SOL    HW332235   6.310   3.520   0.433 -1.8047 -0.4127 -0.3133
 8117SOL    MW432236   6.294   3.524   0.518 -0.6319  0.2987 -0.1172
 8118SOL     OW32237   2.842   3.517   0.999  0.0077  0.1371 -0.6667
 8118SOL    HW232238   2.803   3.605   1.002  0.2758  0.2382  0.1592
 8118SOL    HW332239   2.776   3.460   1.039 -1.6759 -0.6756 -4.2472
 8118SOL    MW432240   2.828   3.521   1.005 -0.1790  0.0432 -1.0302
 8119SOL     OW32241   0.353   6.211   0.478  0.2014  0.2147  0.6035
 8119SOL    HW232242   0.375   6.155   0.552  0.8866 -0.4545 -0.0903
 8119SOL    HW332243   0.383   6.163   0.401  0.2073  1.2368 -0.0581
 8119SOL    MW432244   0.360   6.198   0.478  0.2925  0.2612  0.4246
 8120SOL     OW32245   6.261   1.437   4.332  0.4075 -0.7645 -0.2086
 8120SOL    HW232246   6.309   1.467   4.410  1.3359  0.2636 -1.1220
 8120SOL    HW332247   6.322   1.379   4.287  0.1543 -0.7955 -0.5187
 8120SOL    MW432248   6.276   1.433   4.336  0.4966 -0.6329 -0.3701
 8121SOL     OW32249   1.391   4.730   6.292 -0.0840  0.0303 -0.3041
 8121SOL    HW232250   1.317   4.669   6.283 -0.5363  0.4921  0.2881
 8121SOL    HW332251   1.397   4.747   6.385  1.9221 -1.4004 -0.0960
 8121SOL    MW432252   1.382   4.724   6.303  0.1210 -0.0975 -0.1985
 8122SOL     OW32253   2.174   1.161   0.013 -0.3202 -0.0140  0.5551
 8122SOL    HW232254   2.090   1.123   0.040 -0.5207  1.3281  1.9957
 8122SOL    HW332255   2.240   1.098   0.041 -0.6756  0.4038  2.4752
 8122SOL    MW432256   2.172   1.148   0.020 -0.3935  0.2182  0.9985
 8123SOL     OW32257   2.818   0.310   4.935 -0.0391  0.1646  0.0220
 8123SOL    HW232258   2.842   0.341   5.022 -0.5573 -0.6253  0.4670
 8123SOL    HW332259   2.863   0.368   4.874  1.9042 -0.4385  0.8048
 8123SOL    MW432260   2.827   0.321   4.938  0.1489 -0.0192  0.1840
 8124SOL     OW32261   1.145   3.432   0.495  0.6805 -0.6963  0.1796
 8124SOL    HW232262   1.140   3.456   0.588 -0.3791  0.3856 -0.1304
 8124SOL    HW332263   1.053   3.426   0.467  0.9858 -1.5329 -0.6780
 8124SOL    MW432264   1.132   3.435   0.504  0.5810 -0.6640  0.0255
 8125SOL     OW32265   1.986   1.090   5.924  0.3874 -0.7047 -1.0300
 8125SOL    HW232266   1.922   1.153   5.892 -1.1822 -1.0097  1.2803
 8125SOL    HW332267   2.015   1.043   5.846 -0.9900  0.5161 -2.3415
 8125SOL    MW432268   1.982   1.092   5.910 -0.0014 -0.5839 -0.8982
 8126SOL     OW32269   5.892   2.990   5.861  0.8907 -0.1647 -0.2694
 8126SOL    HW232270   5.964   3.028   5.912  1.6423 -2.3209  0.4111
 8126SOL    HW332271   5.930   2.911   5.822 -0.6484 -0.4114 -1.3479
 8126SOL    MW432272   5.907   2.985   5.863  0.7868 -0.4817 -0.3219
 8127SOL     OW32273   3.731   2.842   2.687 -0.1028 -0.5153 -0.4397
 8127SOL    HW232274   3.739   2.746   2.683  1.7419 -0.5370  1.7136
 8127SOL    HW332275   3.697   2.860   2.774  1.0641  0.8071 -0.2110
 8127SOL    MW432276   3.728   2.831   2.698  0.2945 -0.3437 -0.1254
 8128SOL     OW32277   3.974   1.501   1.140  0.2925  0.1470 -0.2520
 8128SOL    HW232278   4.059   1.464   1.166 -0.3190 -0.2357  1.3175
 8128SOL    HW332279   3.993   1.549   1.060  1.6571 -1.3573 -0.8990
 8128SOL    MW432280   3.988   1.503   1.133  0.3919 -0.1020 -0.1303
 8129SOL     OW32281   2.934   4.397   4.024 -0.2693  0.3925  0.6932
 8129SOL    HW232282   2.978   4.372   4.105  0.3455 -0.4888  0.1071
 8129SOL    HW332283   3.005   4.409   3.960 -0.7969 -0.1710 -0.0304
 8129SOL    MW432284   2.949   4.395   4.026 -0.2578  0.2018  0.5204
 8130SOL     OW32285   4.592   4.900   0.972 -0.5820 -0.5137  0.2603
 8130SOL    HW232286   4.641   4.821   0.950 -1.4409 -0.6046 -1.4719
 8130SOL    HW332287   4.659   4.960   1.005  0.4754 -1.1218 -0.6898
 8130SOL    MW432288   4.608   4.897   0.973 -0.5558 -0.6059 -0.0936
 8131SOL     OW32289   2.426   4.102   2.193  0.0916 -0.0303 -0.6491
 8131SOL    HW232290   2.348   4.142   2.152 -0.6222 -0.0128  0.6760
 8131SOL    HW332291   2.398   4.014   2.216 -0.0418  0.4358  1.1397
 8131SOL    MW432292   2.412   4.096   2.190 -0.0201  0.0335 -0.2382
 8132SOL     OW32293   4.926   3.180   2.201  1.2289  0.0696 -0.3485
 8132SOL    HW232294   4.897   3.162   2.290  0.5282  1.3443 -0.2996
 8132SOL    HW332295   5.022   3.181   2.207  1.1888 -0.0071  0.3607
 8132SOL    MW432296   4.935   3.178   2.214  1.1311  0.2277 -0.2485
 8133SOL     OW32297   0.999   5.225   1.177 -0.1187  0.2342  0.0508
 8133SOL    HW232298   0.989   5.133   1.155 -0.6729  0.3444 -0.1651
 8133SOL    HW332299   0.973   5.232   1.268 -1.9255  0.4827 -0.4396
 8133SOL    MW432300   0.995   5.214   1.186 -0.4302  0.2815 -0.0424
 8134SOL     OW32301   5.989   2.167   0.716 -0.1944 -0.2566  0.4825
 8134SOL    HW232302   5.911   2.182   0.770  1.0620  1.5553  1.9064
 8134SOL    HW332303   6.054   2.133   0.778  0.9275  0.7521 -0.1185
 8134SOL    MW432304   5.987   2.165   0.731  0.1194  0.1155  0.5910
 8135SOL     OW32305   0.464   3.438   3.592 -0.1132 -0.1753 -0.0541
 8135SOL    HW232306   0.453   3.460   3.500 -2.2930 -1.3390 -0.1258
 8135SOL    HW332307   0.501   3.517   3.631 -0.8320  0.9714 -1.5924
 8135SOL    MW432308   0.468   3.451   3.585 -0.4957 -0.1775 -0.2665
 8136SOL     OW32309   5.217   5.255   3.284 -0.2327  0.1303 -0.6538
 8136SOL    HW232310   5.251   5.339   3.254  0.5572  0.0590 -0.0262
 8136SOL    HW332311   5.173   5.217   3.208  0.8087  0.4022 -1.4183
 8136SOL    MW432312   5.216   5.261   3.270  0.0089  0.1568 -0.6719
 8137SOL     OW32313   5.312   3.256   5.150 -0.5981  0.6804 -0.8028
 8137SOL    HW232314   5.251   3.327   5.127 -0.4913  0.5010 -1.7030
 8137SOL    HW332315   5.386   3.269   5.091 -1.2831 -1.1047 -2.1306
 8137SOL    MW432316   5.313   3.267   5.139 -0.6744  0.4212 -1.0967
 8138SOL     OW32317   5.449   4.616   3.441  0.2731 -0.4171  0.5980
 8138SOL    HW232318   5.524   4.673   3.422  0.4299 -0.4895  0.9871
 8138SOL    HW332319   5.486   4.544   3.493  0.0464 -0.7885  0.2506
 8138SOL    MW432320   5.464   4.614   3.445  0.2639 -0.4756  0.6035
 8139SOL     OW32321   0.182   6.268   2.887 -0.4719  0.8212 -0.2620
 8139SOL    HW232322   0.266   6.290   2.845  1.4341 -2.9166  1.1392
 8139SOL    HW332323   0.138   6.211   2.823  0.6609 -1.6638  1.0365
 8139SOL    MW432324   0.187   6.263   2.873 -0.0710  0.0002  0.0942
 8140SOL     OW32325   5.799   2.791   0.178 -0.1367 -0.5499 -0.0741
 8140SOL    HW232326   5.825   2.718   0.122  1.4282 -1.4113  1.7039
 8140SOL    HW332327   5.880   2.839   0.194 -0.9270  0.8904 -0.1822
 8140SOL    MW432328   5.813   2.788   0.172 -0.0345 -0.4735  0.1462
 8141SOL     OW32329   2.131   3.938   5.162 -0.0126  0.6320 -0.2794
 8141SOL    HW232330   2.202   3.978   5.212 -0.7076  0.1043  1.1576
 8141SOL    HW332331   2.129   3.847   5.191  1.4052 -0.5291 -3.3353
 8141SOL    MW432332   2.140   3.931   5.172  0.0827  0.4092 -0.4930
 8142SOL     OW32333   4.815   4.318   1.223 -0.2373  0.6658 -0.1638
 8142SOL    HW232334   4.829   4.412   1.210 -0.6437  0.9110  1.0560
 8142SOL    HW332335   4.817   4.307   1.318 -0.9216 -0.4500 -0.2692
 8142SOL    MW432336   4.817   4.329   1.234 -0.3812  0.5509 -0.0168
 8143SOL     OW32337   0.977   1.854   1.028  0.0097 -0.0581 -0.0015
 8143SOL    HW232338   0.891   1.858   0.986 -0.6732  0.5916  1.3951
 8143SOL    HW332339   0.983   1.934   1.079  1.9105  0.4139 -0.8721
 8143SOL    MW432340   0.966   1.865   1.029  0.1704  0.0899  0.0679
 8144SOL     OW32341   1.940   1.749   4.177 -0.5242 -0.6368 -0.2633
 8144SOL    HW232342   1.855   1.726   4.217 -0.1920 -0.6073  0.4885
 8144SOL    HW332343   1.970   1.825   4.227 -0.8076  0.3929 -1.6127
 8144SOL    MW432344   1.933   1.756   4.189 -0.5178 -0.4970 -0.3421
 8145SOL     OW32345   4.278   3.983   0.038 -0.1444 -0.3949 -0.1099
 8145SOL    HW232346   4.357   3.966  -0.013  1.1937 -0.5060  1.8740
 8145SOL    HW332347   4.207   3.982  -0.026  1.5686  0.8803 -2.1498
 8145SOL    MW432348   4.279   3.981   0.023  0.2582 -0.2413 -0.1173
 8146SOL     OW32349   0.351   5.624   1.241  0.2763  0.0830 -0.0337
 8146SOL    HW232350   0.262   5.591   1.230 -0.4793  1.8809  0.2822
 8146SOL    HW332351   0.406   5.560   1.197 -1.1365 -1.2337  0.0203
 8146SOL    MW432352   0.346   5.611   1.234 -0.0098  0.1465  0.0151
 8147SOL     OW32353   3.243   1.449   2.435 -0.1642 -0.0511 -0.0736
 8147SOL    HW232354   3.241   1.496   2.352  1.5870 -0.0296 -0.1502
 8147SOL    HW332355   3.303   1.376   2.420 -1.0953 -0.9942  0.7071
 8147SOL    MW432356   3.251   1.446   2.422 -0.0560 -0.1727  0.0193
 8148SOL     OW32357   0.416   0.762   5.868 -0.4450 -1.0445 -0.2777
 8148SOL    HW232358   0.383   0.765   5.778 -0.0485 -0.8442 -0.4195
 8148SOL    HW332359   0.492   0.820   5.867 -1.9651  1.0757  0.8431
 8148SOL    MW432360   0.422   0.770   5.856 -0.5933 -0.7384 -0.1485
 8149SOL     OW32361   3.657   2.602   0.768  0.3008 -0.0629  0.1466
 8149SOL    HW232362   3.608   2.585   0.848 -0.8908 -0.1226 -0.5770
 8149SOL    HW332363   3.687   2.693   0.777  0.5275 -0.2045  0.8343
 8149SOL    MW432364   3.655   2.612   0.779  0.1735 -0.0895  0.1418
 8150SOL     OW32365   5.030   3.029   0.245  0.5129  0.1081 -0.3322
 8150SOL    HW232366   5.082   3.087   0.189 -0.1317  1.1820  0.1521
 8150SOL    HW332367   5.054   3.054   0.334  0.6739 -0.7979 -0.1138
 8150SOL    MW432368   5.040   3.040   0.249  0.4491  0.1302 -0.2395
 8151SOL     OW32369   1.089   2.136   1.914 -0.5019 -0.2156 -0.4804
 8151SOL    HW232370   1.043   2.127   1.830 -0.1295 -2.1246 -0.5349
 8151SOL    HW332371   1.060   2.060   1.965 -1.0850  1.1795  1.3319
 8151SOL    MW432372   1.079   2.125   1.909 -0.5297 -0.2834 -0.2485
 8152SOL     OW32373   4.720   0.751   4.944 -0.5856  0.2334  0.3022
 8152SOL    HW232374   4.693   0.694   4.872 -0.3503 -2.4408  2.1830
 8152SOL    HW332375   4.815   0.746   4.944 -0.5974 -0.4009  1.1766
 8152SOL    MW432376   4.729   0.743   4.935 -0.5561 -0.2031  0.6657
 8153SOL     OW32377   3.570   1.076   2.911 -0.2588  0.2172  0.2656
 8153SOL    HW232378   3.614   1.030   2.840  0.2850  1.6845 -0.3770
 8153SOL    HW332379   3.479   1.046   2.906 -0.3891  0.7929 -1.4952
 8153SOL    MW432380   3.564   1.066   2.901 -0.2042  0.4867 -0.0515
 8154SOL     OW32381   4.551   5.517   2.626 -0.2008 -0.6826 -0.0742
 8154SOL    HW232382   4.479   5.542   2.684 -0.4093  2.2809 -1.4170
 8154SOL    HW332383   4.560   5.423   2.639 -1.9835 -0.6054  2.7202
 8154SOL    MW432384   4.542   5.508   2.635 -0.4635 -0.2814  0.1173
 8155SOL     OW32385   1.285   3.780   6.311  0.3702  0.8261 -0.0814
 8155SOL    HW232386   1.229   3.793   6.235 -0.0361  0.1752  0.1039
 8155SOL    HW332387   1.255   3.698   6.350 -0.0224  1.5971  1.2988
 8155SOL    MW432388   1.274   3.771   6.306  0.2648  0.8420  0.1252
 8156SOL     OW32389   3.491   5.923   5.416  0.7479 -0.2616  0.1318
 8156SOL    HW232390   3.573   5.889   5.380  0.4193  0.1948 -1.0977
 8156SOL    HW332391   3.427   5.854   5.400  0.6772 -0.2029  0.1609
 8156SOL    MW432392   3.494   5.909   5.409  0.6952 -0.1937 -0.0265
 8157SOL     OW32393   1.928   6.159   4.931 -0.6763 -0.2109  0.1866
 8157SOL    HW232394   1.992   6.137   4.863 -0.1764  0.7976  0.3124
 8157SOL    HW332395   1.953   6.105   5.006  0.0174  0.1476  0.2230
 8157SOL    MW432396   1.940   6.149   4.932 -0.5188 -0.0305  0.2080
 8158SOL     OW32397   3.767   4.148   1.655 -0.0153 -0.1871  0.7982
 8158SOL    HW232398   3.744   4.179   1.567  1.9804 -1.2356 -0.1477
 8158SOL    HW332399   3.714   4.202   1.714 -0.2534  1.6289 -0.9787
 8158SOL    MW432400   3.757   4.160   1.651  0.2166 -0.0858  0.4390
 8159SOL     OW32401   5.531   2.908   0.209  0.1276  0.1834 -0.4853
 8159SOL    HW232402   5.482   2.959   0.145  1.3049 -1.3682 -2.7340
 8159SOL    HW332403   5.623   2.915   0.182  0.6628 -0.6305  0.9565
 8159SOL    MW432404   5.537   2.916   0.197  0.3536 -0.1287 -0.5917
 8160SOL     OW32405   3.650   5.748   2.106 -0.5024  0.6059 -0.1065
 8160SOL    HW232406   3.600   5.793   2.038 -0.3986  0.0039 -0.5865
 8160SOL    HW332407   3.583   5.718   2.169 -0.5553  1.5587  0.3009
 8160SOL    MW432408   3.634   5.750   2.106 -0.4957  0.6522 -0.1160
 8161SOL     OW32409   5.305   4.411   0.661 -0.9237 -0.3380 -0.0354
 8161SOL    HW232410   5.377   4.352   0.637 -1.5322 -0.7844 -0.8072
 8161SOL    HW332411   5.282   4.386   0.751  0.7394  0.7002  0.7209
 8161SOL    MW432412   5.311   4.400   0.670 -0.7846 -0.2599 -0.0374
 8162SOL     OW32413   5.155   1.532   0.193 -0.0314 -0.2226 -0.2703
 8162SOL    HW232414   5.194   1.603   0.244  0.6528 -0.3710 -0.5705
 8162SOL    HW332415   5.135   1.572   0.108  1.7618 -0.7318 -0.9768
 8162SOL    MW432416   5.158   1.547   0.188  0.2954 -0.3094 -0.4031
 8163SOL     OW32417   4.075   2.141   4.369 -0.8973 -0.3218  0.4019
 8163SOL    HW232418   4.137   2.161   4.439 -0.1760  0.0315 -0.3189
 8163SOL    HW332419   3.989   2.164   4.405 -0.5942 -0.6811  1.3600
 8163SOL    MW432420   4.072   2.147   4.383 -0.7621 -0.3226  0.4332
 8164SOL     OW32421   0.361   1.619   4.798 -0.0377  0.1797  0.3163
 8164SOL    HW232422   0.302   1.686   4.830  0.6199  1.5172 -1.1543
 8164SOL    HW332423   0.408   1.589   4.876 -2.3246 -0.6575  1.4555
 8164SOL    MW432424   0.360   1.624   4.812 -0.2527  0.2457  0.2725
 8165SOL     OW32425   3.218   0.371   3.482  0.4325 -0.5073  0.3674
 8165SOL    HW232426   3.173   0.392   3.400  0.8388 -3.2626 -0.6734
 8165SOL    HW332427   3.160   0.404   3.551 -0.1619  1.4161 -0.9775
 8165SOL    MW432428   3.204   0.378   3.480  0.4077 -0.6171  0.0527
 8166SOL     OW32429   4.295   1.071   0.497 -0.0495  0.0429 -0.0795
 8166SOL    HW232430   4.289   1.086   0.591 -1.3344  0.1964 -0.1723
 8166SOL    HW332431   4.348   0.991   0.488  1.0664  0.6701  0.7065
 8166SOL    MW432432   4.301   1.062   0.508 -0.0718  0.1459  0.0120
 8167SOL     OW32433   2.714   0.774   4.139 -0.3187  0.3483  0.4203
 8167SOL    HW232434   2.717   0.779   4.234  2.2907  2.6421  0.3482
 8167SOL    HW332435   2.735   0.862   4.110  0.8946 -0.7198 -2.2728
 8167SOL    MW432436   2.717   0.786   4.148  0.1856  0.5100  0.0555
 8168SOL     OW32437   4.492   2.492   5.227  0.0167  0.3476 -0.7702
 8168SOL    HW232438   4.562   2.512   5.289 -0.1615  0.7921 -0.7028
 8168SOL    HW332439   4.430   2.565   5.237  0.1083  0.5600 -1.6479
 8168SOL    MW432440   4.493   2.504   5.236  0.0052  0.4343 -0.8771
 8169SOL     OW32441   0.540   0.597   0.677  0.0339  0.1721 -0.6424
 8169SOL    HW232442   0.534   0.599   0.581  0.6958 -3.2285 -0.8637
 8169SOL    HW332443   0.500   0.514   0.702 -1.6917  1.7081  2.2637
 8169SOL    MW432444   0.534   0.587   0.667 -0.1065 -0.0739 -0.2882
 8170SOL     OW32445   2.501   2.709   2.027 -0.2907 -0.0770 -0.2086
 8170SOL    HW232446   2.507   2.804   2.040  0.0809  0.0444 -1.1846
 8170SOL    HW332447   2.416   2.686   2.065 -0.2427  0.5953  0.3280
 8170SOL    MW432448   2.490   2.719   2.034 -0.2354  0.0277 -0.2666
 8171SOL     OW32449   0.390   6.383   4.863 -0.2184  0.5005 -0.8666
 8171SOL    HW232450   0.386   6.469   4.904  1.5707  1.0464 -1.7306
 8171SOL    HW332451   0.482   6.357   4.872 -0.4563 -0.7287 -1.7935
 8171SOL    MW432452   0.402   6.391   4.870 -0.0137  0.4104 -1.1029
 8172SOL     OW32453   5.451   3.158   5.427 -0.2691  0.8549 -0.2071
 8172SOL    HW232454   5.488   3.107   5.499 -0.0534  1.5947  0.2063
 8172SOL    HW332455   5.401   3.093   5.376  0.6659  0.0705 -0.1491
 8172SOL    MW432456   5.449   3.143   5.429 -0.1173  0.8490 -0.1449
 8173SOL     OW32457   6.259   5.825   2.489 -0.7147  0.0770 -0.2077
 8173SOL    HW232458   6.353   5.808   2.479 -0.9191  0.0768 -2.5097
 8173SOL    HW332459   6.236   5.880   2.414 -2.5196  0.3072  0.4629
 8173SOL    MW432460   6.269   5.830   2.478 -0.9798  0.1074 -0.4230
 8174SOL     OW32461   0.390   1.662   3.487 -0.1449 -0.5594 -0.2931
 8174SOL    HW232462   0.308   1.703   3.517  0.1517  0.3817 -0.7334
 8174SOL    HW332463   0.428   1.625   3.567 -0.6842 -0.4369  0.0291
 8174SOL    MW432464   0.384   1.663   3.502 -0.1769 -0.4191 -0.3087
 8175SOL     OW32465   1.921   5.996   1.585  0.2593  0.4084  0.0368
 8175SOL    HW232466   1.864   6.014   1.660  0.8966 -0.3938  0.7266
 8175SOL    HW332467   1.985   6.067   1.586  0.0125  0.6326 -0.0041
 8175SOL    MW432468   1.922   6.008   1.595  0.3108  0.3321  0.1224
 8176SOL     OW32469   0.537   5.476   3.314  0.4588 -0.0914  0.0788
 8176SOL    HW232470   0.625   5.440   3.312  0.9349  0.9218  1.5588
 8176SOL    HW332471   0.548   5.569   3.291 -0.1060  0.2190  1.0154
 8176SOL    MW432472   0.550   5.484   3.311  0.4471  0.0832  0.3976
 8177SOL     OW32473   4.551   6.415   0.099  0.2399  0.4559 -0.5783
 8177SOL    HW232474   4.631   6.467   0.111  3.3202 -3.6183 -1.1957
 8177SOL    HW332475   4.497   6.437   0.176  2.3042  2.7188  0.3784
 8177SOL    MW432476   4.555   6.425   0.111  0.9187  0.2169 -0.5335
 8178SOL     OW32477   4.279   1.670   6.253 -0.1467 -0.0376 -0.2797
 8178SOL    HW232478   4.220   1.734   6.292 -0.0564 -0.1039 -0.0275
 8178SOL    HW332479   4.268   1.592   6.307 -0.7750 -0.4674 -1.0085
 8178SOL    MW432480   4.270   1.668   6.266 -0.2177 -0.1030 -0.3426
 8179SOL     OW32481   3.027   1.235   4.479 -0.0984  1.0139  0.5660
 8179SOL    HW232482   2.997   1.324   4.497  0.2826  1.0117  1.2548
 8179SOL    HW332483   2.948   1.187   4.454 -0.2591  1.6127 -0.1178
 8179SOL    MW432484   3.012   1.240   4.478 -0.0693  1.0926  0.5667
 8180SOL     OW32485   1.325   3.183   3.575  0.0488  0.1198 -0.2866
 8180SOL    HW232486   1.363   3.101   3.607 -1.0611 -0.8560 -1.3790
 8180SOL    HW332487   1.381   3.208   3.501 -0.7261 -0.7118 -1.1781
 8180SOL    MW432488   1.337   3.175   3.569 -0.1999 -0.1186 -0.5484
 8181SOL     OW32489   5.896   5.791   4.744  0.0876  0.5352  0.7229
 8181SOL    HW232490   5.932   5.860   4.800  0.9723  0.9537 -0.3065
 8181SOL    HW332491   5.901   5.828   4.655  0.9006 -0.9705  0.1113
 8181SOL    MW432492   5.902   5.805   4.739  0.3116  0.3917  0.5064
 8182SOL     OW32493   2.520   3.615   1.596  0.3057 -0.0484  0.6504
 8182SOL    HW232494   2.480   3.699   1.572 -0.4890 -0.7687 -0.7217
 8182SOL    HW332495   2.548   3.626   1.686 -0.3558  1.4820  0.6983
 8182SOL    MW432496   2.519   3.628   1.605  0.1136  0.0585  0.4757
 8183SOL     OW32497   4.702   2.982   3.275 -0.5311 -0.4761 -0.1201
 8183SOL    HW232498   4.621   2.933   3.263 -1.3619  0.7475  0.2388
 8183SOL    HW332499   4.690   3.030   3.357 -0.1739  1.0506 -0.9166
 8183SOL    MW432500   4.690   2.982   3.284 -0.5936 -0.1132 -0.1779
 8184SOL     OW32501   3.153   4.969   4.811  0.4548 -0.7675  0.0530
 8184SOL    HW232502   3.105   4.891   4.839 -0.0448  0.2827  2.4394
 8184SOL    HW332503   3.112   4.994   4.728 -0.2627 -2.2744 -0.0884
 8184SOL    MW432504   3.141   4.962   4.804  0.2942 -0.8277  0.3492
 8185SOL     OW32505   1.615   0.960   4.390  0.0425 -0.1095 -0.3706
 8185SOL    HW232506   1.555   0.889   4.412  1.5779 -1.3016  0.1285
 8185SOL    HW332507   1.702   0.925   4.407  0.8594  1.9977  0.1636
 8185SOL    MW432508   1.619   0.946   4.395  0.3528  0.0112 -0.2343
 8186SOL     OW32509   0.173   0.424   6.304  0.1450  0.3209 -0.2330
 8186SOL    HW232510   0.233   0.499   6.311 -0.5168  0.7814  0.8878
 8186SOL    HW332511   0.192   0.371   6.381  0.0998 -0.2959 -0.6388
 8186SOL    MW432512   0.184   0.427   6.315  0.0517  0.3003 -0.1387
 8187SOL     OW32513   5.430   1.829   1.678 -0.4908  0.0806 -0.1044
 8187SOL    HW232514   5.441   1.763   1.746 -2.0995 -0.6031 -0.4684
 8187SOL    HW332515   5.371   1.894   1.717 -0.6880  0.1583 -0.5261
 8187SOL    MW432516   5.423   1.829   1.692 -0.7290  0.0006 -0.2080
 8188SOL     OW32517   4.451   4.881   1.418 -0.2657 -0.2819  0.2514
 8188SOL    HW232518   4.482   4.967   1.389  1.0534 -0.5345  0.8562
 8188SOL    HW332519   4.357   4.884   1.403 -0.5509  1.9488  1.9295
 8188SOL    MW432520   4.443   4.893   1.412 -0.1293 -0.0209  0.5526
 8189SOL     OW32521   5.348   4.324   3.557  0.1728  0.0623  0.1014
 8189SOL    HW232522   5.311   4.248   3.602  0.4175 -0.1255 -0.0107
 8189SOL    HW332523   5.443   4.313   3.566  0.2027  0.5275  0.3709
 8189SOL    MW432524   5.355   4.313   3.564  0.2091  0.0989  0.1222
 8190SOL     OW32525   2.511   0.417   3.413 -0.3090 -0.0598  0.0574
 8190SOL    HW232526   2.585   0.462   3.454  0.3216 -2.1313  1.3315
 8190SOL    HW332527   2.434   0.451   3.460  0.0157  0.5814  0.1449
 8190SOL    MW432528   2.510   0.428   3.425 -0.1829 -0.2485  0.2370
 8191SOL     OW32529   2.299   3.701   0.476 -0.3137 -0.0534 -0.0773
 8191SOL    HW232530   2.207   3.698   0.449 -0.5059  0.9791  0.4310
 8191SOL    HW332531   2.297   3.740   0.563  0.7581  2.0406 -0.9176
 8191SOL    MW432532   2.287   3.706   0.484 -0.1977  0.3591 -0.1211
 8192SOL     OW32533   5.283   3.750   0.925  0.2200 -0.3115  0.3724
 8192SOL    HW232534   5.197   3.754   0.966 -0.2545  0.3395 -0.6350
 8192SOL    HW332535   5.335   3.816   0.971  0.5037 -1.3592  1.6264
 8192SOL    MW432536   5.279   3.760   0.936  0.1949 -0.3639  0.4049
 8193SOL     OW32537   0.323   5.906   4.696  0.3809  0.0099  0.1276
 8193SOL    HW232538   0.233   5.923   4.724  0.4057  0.2863  0.0473
 8193SOL    HW332539   0.315   5.836   4.631  0.0848  0.8357 -0.7680
 8193SOL    MW432540   0.310   5.899   4.691  0.3451  0.1553 -0.0011
 8194SOL     OW32541   1.052   0.964   2.175 -0.0253  0.4622 -0.3452
 8194SOL    HW232542   1.063   0.930   2.263  1.2092 -0.2995 -0.7602
 8194SOL    HW332543   1.113   1.038   2.170 -1.1024  1.3852 -0.1379
 8194SOL    MW432544   1.062   0.970   2.186 -0.0045  0.4834 -0.3726
 8195SOL     OW32545   2.301   3.940   4.467  0.1914  0.3120 -0.2548
 8195SOL    HW232546   2.365   4.008   4.489 -1.2365  1.5955  0.1279
 8195SOL    HW332547   2.299   3.883   4.545  0.9057  0.2188 -0.2999
 8195SOL    MW432548   2.309   3.942   4.480  0.0973  0.4690 -0.2102
 8196SOL     OW32549   2.392   0.159   4.808  0.3025  0.1782 -0.0147
 8196SOL    HW232550   2.376   0.074   4.768  1.6889  0.0172 -0.2885
 8196SOL    HW332551   2.476   0.149   4.852  0.5827  1.4584 -0.2169
 8196SOL    MW432552   2.401   0.146   4.808  0.5224  0.3259 -0.0775
 8197SOL     OW32553   5.833   0.716   3.190  0.1327  0.1709  0.7113
 8197SOL    HW232554   5.753   0.748   3.148  0.2416 -0.6591 -0.1752
 8197SOL    HW332555   5.839   0.766   3.272 -1.5558 -0.1134  1.0505
 8197SOL    MW432556   5.823   0.727   3.195 -0.0757  0.0239  0.6391
 8198SOL     OW32557   1.841   1.871   0.804 -0.2493  0.1338  0.0727
 8198SOL    HW232558   1.803   1.949   0.845 -2.3549 -1.4531  1.3297
 8198SOL    HW332559   1.873   1.819   0.876  2.0731  0.2136 -0.8272
 8198SOL    MW432560   1.840   1.875   0.819 -0.2207 -0.0650  0.1198
 8199SOL     OW32561   3.276   1.760   2.601 -0.2776 -0.7215 -0.6596
 8199SOL    HW232562   3.291   1.670   2.631 -0.6267  0.2167  2.7379
 8199SOL    HW332563   3.202   1.752   2.541  1.9629 -3.0529 -3.4476
 8199SOL    MW432564   3.268   1.747   2.597 -0.0280 -0.9053 -0.5792
 8200SOL     OW32565   1.502   4.299   4.358 -0.5158  0.3671  0.0568
 8200SOL    HW232566   1.461   4.386   4.355  0.9382  1.0474 -1.6204
 8200SOL    HW332567   1.477   4.258   4.275  1.8649  0.6874 -0.8824
 8200SOL    MW432568   1.493   4.305   4.346 -0.0098  0.4991 -0.2884
 8201SOL     OW32569   3.062   1.446   6.247 -0.2581  0.3768  0.5089
 8201SOL    HW232570   2.984   1.489   6.281 -1.2337 -0.2355 -0.8594
 8201SOL    HW332571   3.094   1.392   6.319  1.1753  3.4924  2.3846
 8201SOL    MW432572   3.056   1.444   6.261 -0.1977  0.7071  0.5759
 8202SOL     OW32573   3.708   3.538   1.669 -0.3055  0.7475  0.1485
 8202SOL    HW232574   3.626   3.489   1.656 -0.4519  0.5996  1.4797
 8202SOL    HW332575   3.685   3.628   1.648 -0.5737  0.5696 -0.3455
 8202SOL    MW432576   3.694   3.543   1.664 -0.3602  0.7045  0.2590
 8203SOL     OW32577   6.254   2.882   1.857  0.1729 -1.0583  0.3175
 8203SOL    HW232578   6.237   2.799   1.902  0.9252 -1.1174  0.5032
 8203SOL    HW332579   6.306   2.933   1.920 -1.7696  0.2784  0.9398
 8203SOL    MW432580   6.259   2.878   1.871  0.0159 -0.8897  0.4241
 8204SOL     OW32581   3.048   3.636   1.142  0.5640 -0.6077  0.3630
 8204SOL    HW232582   3.053   3.597   1.229  1.5651 -1.7169 -0.1599
 8204SOL    HW332583   2.984   3.582   1.096  0.4717 -0.3886  0.2336
 8204SOL    MW432584   3.040   3.624   1.147  0.6839 -0.7251  0.2769
 8205SOL     OW32585   5.226   4.461   1.731  0.0709  0.4667  0.5900
 8205SOL    HW232586   5.188   4.395   1.673 -1.1274  2.0653 -0.5072
 8205SOL    HW332587   5.318   4.466   1.705 -0.9867  3.4749 -3.7253
 8205SOL    MW432588   5.233   4.453   1.720 -0.2267  1.0745 -0.1241
 8206SOL     OW32589   6.077   1.076   2.367  0.1615  0.7944  0.5210
 8206SOL    HW232590   6.012   1.043   2.305  0.9570 -0.5111  0.3511
 8206SOL    HW332591   6.161   1.050   2.330  0.6534 -0.2319  2.2433
 8206SOL    MW432592   6.079   1.068   2.354  0.3314  0.4867  0.7258
 8207SOL     OW32593   0.094   3.939   5.816 -0.1710 -0.2247 -0.1332
 8207SOL    HW232594   0.052   4.023   5.798 -1.2796 -0.6844  0.2407
 8207SOL    HW332595   0.141   3.954   5.898 -0.6433 -0.0606  0.1123
 8207SOL    MW432596   0.095   3.952   5.825 -0.3796 -0.2637 -0.0515
 8208SOL     OW32597   0.632   2.290   3.338 -0.1218  0.2272  0.1400
 8208SOL    HW232598   0.536   2.285   3.343 -0.2270  1.9264  0.4243
 8208SOL    HW332599   0.655   2.361   3.397  1.3421 -0.2187  0.1322
 8208SOL    MW432600   0.622   2.299   3.346  0.0575  0.3926  0.1765
 8209SOL     OW32601   5.439   4.628   1.634  0.2156  0.7578  0.0317
 8209SOL    HW232602   5.525   4.600   1.668  1.0496 -0.4133 -2.7428
 8209SOL    HW332603   5.460   4.692   1.567 -1.0198  0.0835 -1.0375
 8209SOL    MW432604   5.453   4.633   1.630  0.1626  0.5143 -0.4754
 8210SOL     OW32605   5.603   2.948   4.940  0.3262  0.8740 -0.1139
 8210SOL    HW232606   5.640   2.869   4.901  0.0433 -0.6628  2.4658
 8210SOL    HW332607   5.676   2.989   4.985 -0.0626  0.4198  0.9950
 8210SOL    MW432608   5.617   2.943   4.941  0.2376  0.6113  0.3727
 8211SOL     OW32609   2.826   2.250   5.997 -0.2908  0.5030  0.4409
 8211SOL    HW232610   2.888   2.246   5.925  0.0725  1.2668  0.7048
 8211SOL    HW332611   2.868   2.306   6.062 -1.2356  1.0215  0.6295
 8211SOL    MW432612   2.840   2.257   5.996 -0.3675  0.6722  0.5006
 8212SOL     OW32613   4.470   0.206   4.140 -0.2437  0.2218 -0.4428
 8212SOL    HW232614   4.437   0.179   4.055  2.1034 -0.5806 -1.1683
 8212SOL    HW332615   4.501   0.126   4.181  0.1742  0.8292  0.4721
 8212SOL    MW432616   4.470   0.192   4.134  0.1211  0.1960 -0.4178
 8213SOL     OW32617   0.055   5.526   6.271  0.0815 -0.7300  0.5322
 8213SOL    HW232618  -0.041   5.523   6.278  0.1575 -2.2530  1.4169
 8213SOL    HW332619   0.078   5.446   6.223  0.9179 -0.4877  0.5171
 8213SOL    MW432620   0.045   5.515   6.266  0.2019 -0.8990  0.6470
 8214SOL     OW32621   4.604   1.893   1.251  0.4688 -0.6372  0.0311
 8214SOL    HW232622   4.643   1.949   1.317  0.8851 -0.1118 -0.6469
 8214SOL    HW332623   4.623   1.937   1.168 -0.4606 -1.0358 -0.4026
 8214SOL    MW432624   4.612   1.906   1.249  0.4011 -0.6205 -0.1156
 8215SOL     OW32625   2.803   5.562   3.748 -0.0967  0.5482  0.0980
 8215SOL    HW232626   2.823   5.627   3.816  1.3548 -1.5181  1.7964
 8215SOL    HW332627   2.849   5.594   3.670 -0.5456  2.2186  0.4673
 8215SOL    MW432628   2.812   5.575   3.747  0.0356  0.4960  0.3708
 8216SOL     OW32629   3.486   6.225   1.415 -0.4796 -0.2917  0.2335
 8216SOL    HW232630   3.423   6.155   1.433 -0.2732 -0.6953 -0.5755
 8216SOL    HW332631   3.538   6.192   1.342  0.5806  0.0893  0.7910
 8216SOL    MW432632   3.485   6.211   1.408 -0.3125 -0.2947  0.2003
 8217SOL     OW32633   6.280   0.244   3.412  0.6739 -0.1797  0.1817
 8217SOL    HW232634   6.241   0.234   3.325  1.0963 -1.3412  0.1010
 8217SOL    HW332635   6.218   0.201   3.471  0.4490  0.4981  0.4446
 8217SOL    MW432636   6.266   0.237   3.408  0.7000 -0.2435  0.2057
 8218SOL     OW32637   0.580   5.310   4.304 -0.1251 -0.0820 -0.4044
 8218SOL    HW232638   0.665   5.284   4.339  0.4826 -0.0888 -1.7891
 8218SOL    HW332639   0.600   5.342   4.215 -1.5396  0.1312 -0.6728
 8218SOL    MW432640   0.594   5.311   4.297 -0.2316 -0.0547 -0.6225
 8219SOL     OW32641   5.602   5.210   2.055 -0.9042  0.2499  0.3738
 8219SOL    HW232642   5.518   5.198   2.012 -0.0020  0.6153 -1.6026
 8219SOL    HW332643   5.621   5.303   2.046  0.3790 -0.0751 -0.5827
 8219SOL    MW432644   5.594   5.221   2.048 -0.6159  0.2552 -0.0131
 8220SOL     OW32645   3.205   5.475   1.082  0.2827 -0.0300  0.1286
 8220SOL    HW232646   3.231   5.524   1.004 -1.4375  1.4906  0.4438
 8220SOL    HW332647   3.139   5.413   1.051 -0.2213  0.4049  0.3140
 8220SOL    MW432648   3.200   5.473   1.068 -0.0107  0.2280  0.1946
 8221SOL     OW32649   0.884   4.096   1.045 -0.1538 -0.3289  0.0372
 8221SOL    HW232650   0.975   4.124   1.045 -0.4898  0.8010  0.3876
 8221SOL    HW332651   0.835   4.170   1.081 -1.3060 -0.6037 -0.8777
 8221SOL    MW432652   0.889   4.109   1.050 -0.3502 -0.2161 -0.0373
 8222SOL     OW32653   5.237   4.342   0.915  0.0559  0.3566 -0.1874
 8222SOL    HW232654   5.241   4.247   0.926 -0.8229  0.3020 -0.2824
 8222SOL    HW332655   5.201   4.375   0.997  2.5961  0.8633  0.8337
 8222SOL    MW432656   5.233   4.334   0.927  0.2751  0.4163 -0.0652
 8223SOL     OW32657   0.140   2.136   4.429 -0.2578 -0.0051 -0.2030
 8223SOL    HW232658   0.134   2.200   4.501  0.8969 -0.4300  0.2859
 8223SOL    HW332659   0.169   2.055   4.471 -2.2803 -1.0603 -0.7202
 8223SOL    MW432660   0.143   2.134   4.444 -0.3723 -0.2004 -0.2067
 8224SOL     OW32661   1.523   2.395   6.235  0.8155 -0.6319  0.5093
 8224SOL    HW232662   1.524   2.491   6.242  0.0933 -0.3175 -2.3081
 8224SOL    HW332663   1.433   2.374   6.210  1.0941 -1.9940  0.5783
 8224SOL    MW432664   1.511   2.405   6.233  0.7569 -0.7701  0.1467
 8225SOL     OW32665   4.754   3.022   0.234 -0.2490  0.3640 -0.4500
 8225SOL    HW232666   4.844   2.990   0.241  0.1286  1.2275 -1.2131
 8225SOL    HW332667   4.701   2.942   0.229  0.3854 -0.1608  0.7904
 8225SOL    MW432668   4.759   3.007   0.234 -0.1155  0.4087 -0.3870
 8226SOL     OW32669   5.859   3.804   6.055 -0.0200  0.8301  0.4699
 8226SOL    HW232670   5.935   3.831   6.107  0.1671  0.9044  0.1653
 8226SOL    HW332671   5.783   3.836   6.104  0.1390  0.6347  0.8494
 8226SOL    MW432672   5.859   3.812   6.068  0.0256  0.8141  0.4798
 8227SOL     OW32673   2.037   3.942   3.355  0.2505 -0.0115  0.2768
 8227SOL    HW232674   2.032   3.947   3.260  0.4610 -1.0126  0.2028
 8227SOL    HW332675   2.081   4.024   3.381 -0.5753  0.6696 -0.4040
 8227SOL    MW432676   2.042   3.954   3.346  0.1693 -0.0537  0.1772
 8228SOL     OW32677   3.021   3.911   1.236 -0.3239 -0.2775 -0.2348
 8228SOL    HW232678   3.054   3.902   1.325  1.8498  1.2588 -0.7922
 8228SOL    HW332679   3.044   3.828   1.193  3.0466  0.6906 -0.5782
 8228SOL    MW432680   3.028   3.899   1.242  0.4076  0.0529 -0.3536
 8229SOL     OW32681   2.543   2.423   3.478  0.0011 -0.1118  0.4104
 8229SOL    HW232682   2.559   2.386   3.391  0.1507  0.2003  0.3051
 8229SOL    HW332683   2.583   2.509   3.475  2.1867 -1.0216  1.6073
 8229SOL    MW432684   2.550   2.429   3.466  0.3092 -0.1907  0.5544
 8230SOL     OW32685   2.090   5.775   1.038  0.5178  0.6347  0.3358
 8230SOL    HW232686   2.041   5.843   0.991  2.6792  1.7496 -0.4584
 8230SOL    HW332687   2.118   5.817   1.119  0.8789  0.2876  0.3929
 8230SOL    MW432688   2.087   5.790   1.042  0.8506  0.7360  0.2386
 8231SOL     OW32689   5.728   3.474   2.414  0.0667 -0.1556  0.4147
 8231SOL    HW232690   5.692   3.538   2.353  0.3099  0.2790  0.7183
 8231SOL    HW332691   5.727   3.391   2.366 -0.3149  0.0627  0.0421
 8231SOL    MW432692   5.723   3.472   2.400  0.0484 -0.0695  0.4056
 8232SOL     OW32693   2.176   3.596   5.626 -0.5505  0.0915 -0.5696
 8232SOL    HW232694   2.083   3.610   5.643 -0.6739  1.3266 -1.9893
 8232SOL    HW332695   2.178   3.536   5.552 -0.3451  2.1354 -2.3041
 8232SOL    MW432696   2.164   3.590   5.619 -0.5397  0.5241 -0.9858
 8233SOL     OW32697   0.936   3.038   1.154 -0.2613 -0.8126  0.5426
 8233SOL    HW232698   0.952   2.953   1.196 -0.2251 -1.1334 -0.1092
 8233SOL    HW332699   0.958   3.102   1.221 -2.7720 -1.3057  1.9583
 8233SOL    MW432700   0.941   3.035   1.168 -0.5878 -0.9199  0.6434
 8234SOL     OW32701   3.013   5.491   4.183 -0.1598  0.2486 -0.3058
 8234SOL    HW232702   3.085   5.548   4.209 -0.8484  0.6670  0.7562
 8234SOL    HW332703   2.948   5.551   4.146 -1.5094  0.4292  2.1355
 8234SOL    MW432704   3.014   5.507   4.181 -0.4288  0.3276  0.1564
 8235SOL     OW32705   0.875   0.738   5.504  0.3371  0.0062  0.4798
 8235SOL    HW232706   0.853   0.724   5.596 -0.4006  1.8152  0.6175
 8235SOL    HW332707   0.952   0.794   5.506  1.5382 -1.5643 -0.0354
 8235SOL    MW432708   0.882   0.743   5.517  0.3983  0.0377  0.4300
 8236SOL     OW32709   4.998   2.158   3.612 -0.1070  0.3379  0.5149
 8236SOL    HW232710   4.987   2.223   3.682  1.1823 -1.2753  2.3104
 8236SOL    HW332711   4.977   2.206   3.531 -0.6196  2.5564  1.8830
 8236SOL    MW432712   4.994   2.173   3.610 -0.0045  0.4178  0.9323
 8237SOL     OW32713   0.513   1.664   0.379  0.1059  0.1986 -0.5404
 8237SOL    HW232714   0.472   1.614   0.450  0.9004 -0.2467 -0.3916
 8237SOL    HW332715   0.607   1.651   0.391  0.3732  1.9984 -0.2901
 8237SOL    MW432716   0.520   1.656   0.390  0.2460  0.3773 -0.4877
 8238SOL     OW32717   3.673   4.934   0.685 -0.4369  0.3163 -0.6908
 8238SOL    HW232718   3.669   4.985   0.767 -0.4374  1.2237 -1.2346
 8238SOL    HW332719   3.619   4.857   0.702 -0.4657  0.5114  0.1561
 8238SOL    MW432720   3.665   4.931   0.698 -0.4408  0.4618 -0.6508
 8239SOL     OW32721   5.805   2.402   2.954 -0.6831 -0.1957  0.4883
 8239SOL    HW232722   5.733   2.466   2.957 -0.4697  0.0515  0.4034
 8239SOL    HW332723   5.767   2.326   2.911 -0.6490  0.2630 -0.3859
 8239SOL    MW432724   5.790   2.401   2.949 -0.6504 -0.1026  0.3618
 8240SOL     OW32725   0.599   2.739   3.196 -0.0701  0.6711  0.0001
 8240SOL    HW232726   0.615   2.803   3.127  0.1626 -0.0008 -0.5778
 8240SOL    HW332727   0.533   2.680   3.159 -1.5445  1.5318  1.1532
 8240SOL    MW432728   0.592   2.740   3.182 -0.2339  0.6960  0.0760
 8241SOL     OW32729   6.072   1.778   5.686  0.9308  0.6843 -0.1127
 8241SOL    HW232730   6.156   1.804   5.723  0.9860  0.7919 -0.3135
 8241SOL    HW332731   6.030   1.726   5.755  0.2199  2.4381  0.8665
 8241SOL    MW432732   6.077   1.775   5.700  0.8443  0.9299 -0.0100
 8242SOL     OW32733   2.675   2.852   2.544  0.6004 -0.0614  0.2399
 8242SOL    HW232734   2.697   2.778   2.488 -2.1210 -2.1763  1.7116
 8242SOL    HW332735   2.759   2.895   2.561  2.3861 -3.0252 -0.3670
 8242SOL    MW432736   2.689   2.848   2.539  0.4769 -0.7315  0.3540
 8243SOL     OW32737   0.870   2.087   1.151 -0.2491  0.1384 -0.1612
 8243SOL    HW232738   0.883   2.169   1.199  0.9602  0.1923 -0.5535
 8243SOL    HW332739   0.785   2.098   1.108 -0.6703  0.6793  0.7765
 8243SOL    MW432740   0.861   2.099   1.152 -0.1451  0.2169 -0.0892
 8244SOL     OW32741   0.390   5.393   4.671  0.0123 -0.6951 -0.0558
 8244SOL    HW232742   0.346   5.430   4.747 -0.9659 -1.2917 -0.3092
 8244SOL    HW332743   0.369   5.453   4.599  1.7743  0.4238  0.3163
 8244SOL    MW432744   0.381   5.406   4.671  0.1157 -0.6262 -0.0402
 8245SOL     OW32745   6.397   6.387   2.159  0.1066 -0.2656 -0.6672
 8245SOL    HW232746   6.399   6.465   2.215  1.1447  0.1082 -1.1910
 8245SOL    HW332747   6.460   6.406   2.089  1.2239 -2.0325 -0.1957
 8245SOL    MW432748   6.406   6.400   2.157  0.3910 -0.4494 -0.6741
 8246SOL     OW32749   5.490   0.335   1.204  0.1798 -0.3789 -0.4047
 8246SOL    HW232750   5.533   0.378   1.277  1.3569 -1.1064 -0.6430
 8246SOL    HW332751   5.402   0.373   1.202  0.3172  0.0714  1.0125
 8246SOL    MW432752   5.484   0.346   1.213  0.3533 -0.4155 -0.2491
 8247SOL     OW32753   2.594   0.367   4.787 -0.2219 -0.0155  0.1917
 8247SOL    HW232754   2.665   0.326   4.837  0.2755 -0.3525 -0.7612
 8247SOL    HW332755   2.514   0.332   4.826  0.0266  1.6547  2.4188
 8247SOL    MW432756   2.593   0.357   4.799 -0.1235  0.1604  0.3598
 8248SOL     OW32757   1.024   3.581   3.431  0.1520 -0.2593 -0.0969
 8248SOL    HW232758   1.110   3.564   3.393 -0.2291  0.0943 -1.1451
 8248SOL    HW332759   0.991   3.494   3.455  1.7022 -0.2377  2.4139
 8248SOL    MW432760   1.031   3.567   3.429  0.3062 -0.2098  0.0960
 8249SOL     OW32761   3.440   4.680   4.338  0.2420  0.1163 -0.1714
 8249SOL    HW232762   3.398   4.761   4.309 -1.6060  0.4270  2.9165
 8249SOL    HW332763   3.502   4.659   4.268 -1.3108  2.5493 -2.4874
 8249SOL    MW432764   3.443   4.688   4.325 -0.2067  0.4783 -0.0696
 8250SOL     OW32765   5.654   1.039   4.380  0.1663 -0.7766 -0.1638
 8250SOL    HW232766   5.750   1.033   4.386  0.3368 -0.5967 -2.0757
 8250SOL    HW332767   5.639   1.121   4.332 -0.9290 -0.9963 -0.2168
 8250SOL    MW432768   5.665   1.049   4.374  0.0443 -0.7818 -0.4230
 8251SOL     OW32769   0.047   6.356   5.739 -0.4191 -0.0898 -0.0334
 8251SOL    HW232770   0.134   6.394   5.728 -1.5356  2.5971 -0.4751
 8251SOL    HW332771   0.047   6.321   5.828  1.1138 -0.1756 -0.0472
 8251SOL    MW432772   0.058   6.357   5.749 -0.3642  0.2534 -0.0935
 8252SOL     OW32773   1.516   0.156   2.129 -0.2028 -0.6794 -0.3751
 8252SOL    HW232774   1.460   0.127   2.201  0.5858 -1.6234 -0.1277
 8252SOL    HW332775   1.591   0.097   2.132  0.3042 -0.0985 -1.3629
 8252SOL    MW432776   1.518   0.145   2.139 -0.0319 -0.7273 -0.4728
 8253SOL     OW32777   0.955   5.554   1.523 -0.0225  0.4454  0.2057
 8253SOL    HW232778   0.982   5.634   1.478  1.0780  0.2918  0.5483
 8253SOL    HW332779   0.860   5.551   1.513  0.1194  0.7184 -1.5889
 8253SOL    MW432780   0.946   5.564   1.516  0.1414  0.4612  0.0141
 8254SOL     OW32781   0.472   3.692   3.398  0.1701  0.2397  0.1910
 8254SOL    HW232782   0.538   3.623   3.397  0.4150  0.4776 -1.3604
 8254SOL    HW332783   0.485   3.741   3.317 -0.7378  1.4247  0.7138
 8254SOL    MW432784   0.482   3.690   3.387  0.0827  0.4274  0.0553
 8255SOL     OW32785   4.852   1.563   5.825 -0.4403  0.2523  0.1688
 8255SOL    HW232786   4.789   1.624   5.787 -0.4888 -0.1466 -0.4029
 8255SOL    HW332787   4.846   1.485   5.770 -2.3685 -1.3732  2.4958
 8255SOL    MW432788   4.843   1.561   5.812 -0.7011 -0.0148  0.4004
 8256SOL     OW32789   2.281   3.751   1.153 -0.7382 -0.0453 -0.2363
 8256SOL    HW232790   2.222   3.740   1.228  0.2942 -1.4695  0.4080
 8256SOL    HW332791   2.285   3.665   1.113 -1.6605  0.8073 -2.2800
 8256SOL    MW432792   2.274   3.739   1.158 -0.7237 -0.1207 -0.4209
 8257SOL     OW32793   0.225   2.290   4.111  0.2363  0.1345  0.6154
 8257SOL    HW232794   0.143   2.242   4.122  1.1299 -1.6717 -0.2188
 8257SOL    HW332795   0.228   2.311   4.018  1.4737 -1.3226  0.2893
 8257SOL    MW432796   0.214   2.287   4.100  0.5175 -0.2960  0.4623
 8258SOL     OW32797   3.448   2.642   0.591 -0.9155 -0.1681 -0.1444
 8258SOL    HW232798   3.437   2.730   0.627  0.8599  0.4843 -1.0890
 8258SOL    HW332799   3.514   2.601   0.647 -1.5005 -0.8066  0.0972
 8258SOL    MW432800   3.455   2.648   0.603 -0.7584 -0.1662 -0.2371
 8259SOL     OW32801   2.845   5.434   6.146  0.0672  0.4590 -0.5259
 8259SOL    HW232802   2.845   5.363   6.209  0.4990  0.5342 -0.4379
 8259SOL    HW332803   2.930   5.427   6.102 -0.5612 -0.1434 -1.7230
 8259SOL    MW432804   2.856   5.424   6.148  0.0412  0.3895 -0.6722
 8260SOL     OW32805   4.710   5.715   0.777 -0.1077  0.2769  0.2344
 8260SOL    HW232806   4.661   5.751   0.703  1.6928  0.6821 -0.8068
 8260SOL    HW332807   4.722   5.788   0.837 -0.3968  0.2780  0.2925
 8260SOL    MW432808   4.705   5.729   0.775  0.0917  0.3305  0.1047
 8261SOL     OW32809   0.157   0.392   4.536 -0.2388  0.3835  0.4819
 8261SOL    HW232810   0.157   0.301   4.507 -0.3605  0.7486 -0.7101
 8261SOL    HW332811   0.166   0.387   4.631 -1.2648 -0.8950  0.5267
 8261SOL    MW432812   0.158   0.380   4.545 -0.3902  0.2630  0.3305
 8262SOL     OW32813   5.933   5.151   4.855 -0.4342  0.7438  0.6176
 8262SOL    HW232814   5.866   5.212   4.886  1.0531  2.5203  0.5059
 8262SOL    HW332815   5.981   5.200   4.788  0.6827 -0.6222  0.3771
 8262SOL    MW432816   5.931   5.166   4.850 -0.0906  0.7980  0.5712
 8263SOL     OW32817   2.364   2.069   2.448  0.4058 -0.0901 -0.2738
 8263SOL    HW232818   2.275   2.056   2.479  0.7480  0.0933  0.7997
 8263SOL    HW332819   2.401   2.135   2.506  1.0644  0.2728 -1.0707
 8263SOL    MW432820   2.357   2.076   2.460  0.5378 -0.0180 -0.2373
 8264SOL     OW32821   3.339   0.058   2.125  0.4962 -0.1152 -0.0484
 8264SOL    HW232822   3.419   0.030   2.169  0.2339 -0.5738  0.1423
 8264SOL    HW332823   3.283  -0.020   2.124  0.5266 -0.1391 -1.2643
 8264SOL    MW432824   3.342   0.044   2.131  0.4656 -0.1789 -0.1837
 8265SOL     OW32825   1.397   4.279   2.570 -0.4903 -0.0645 -0.1795
 8265SOL    HW232826   1.363   4.300   2.657 -0.2658  0.8613 -0.3039
 8265SOL    HW332827   1.385   4.185   2.562 -0.7069 -0.1315  0.7732
 8265SOL    MW432828   1.391   4.270   2.580 -0.4892  0.0488 -0.0702
 8266SOL     OW32829   2.324   6.033   5.491  0.3174  0.1155 -0.6991
 8266SOL    HW232830   2.367   6.028   5.405  0.2517 -0.1027 -0.7204
 8266SOL    HW332831   2.269   6.111   5.485  1.4667  0.9895 -0.3185
 8266SOL    MW432832   2.322   6.043   5.479  0.4604  0.2020 -0.6517
 8267SOL     OW32833   1.801   4.540   0.244  0.5184  0.2690  0.0301
 8267SOL    HW232834   1.751   4.492   0.178  0.4390 -1.0513  1.0037
 8267SOL    HW332835   1.773   4.631   0.234  0.2054  0.0311 -1.4609
 8267SOL    MW432836   1.790   4.546   0.234  0.4666  0.0634 -0.0382
 8268SOL     OW32837   5.358   3.553   3.536  0.2044  0.4943  0.1470
 8268SOL    HW232838   5.388   3.601   3.613  0.4118 -0.1773  0.4928
 8268SOL    HW332839   5.420   3.480   3.527 -1.4075 -1.0664  1.0287
 8268SOL    MW432840   5.370   3.550   3.545  0.0191  0.1998  0.3089
 8269SOL     OW32841   1.745   4.774   4.823 -0.1490  0.2131 -0.2043
 8269SOL    HW232842   1.748   4.792   4.917 -0.7480 -0.9640  0.0582
 8269SOL    HW332843   1.837   4.769   4.797  0.0820 -1.9030  0.8396
 8269SOL    MW432844   1.757   4.776   4.832 -0.1976 -0.2214 -0.0319
 8270SOL     OW32845   4.924   3.244   5.891  0.1362 -0.3890 -0.7140
 8270SOL    HW232846   4.883   3.205   5.968 -0.8537 -0.6337 -1.3472
 8270SOL    HW332847   4.855   3.296   5.851  0.3802 -0.9494 -1.9021
 8270SOL    MW432848   4.910   3.246   5.896  0.0378 -0.4952 -0.9543
 8271SOL     OW32849   5.554   5.903   6.343  0.1722  0.6033 -0.1613
 8271SOL    HW232850   5.475   5.923   6.393  0.7153  0.5019  0.7595
 8271SOL    HW332851   5.576   5.813   6.370  1.5250  1.2115  0.8725
 8271SOL    MW432852   5.547   5.894   6.353  0.4224  0.6701  0.0966
 8272SOL     OW32853   0.050   5.080   6.095 -0.4180  0.4592  0.0065
 8272SOL    HW232854  -0.045   5.086   6.083 -0.3814  3.2502  0.5629
 8272SOL    HW332855   0.084   5.165   6.067  2.0747 -0.7920 -1.1014
 8272SOL    MW432856   0.042   5.092   6.090 -0.0843  0.6623 -0.0663
 8273SOL     OW32857   4.343   5.222   2.858  0.5633  0.2750 -0.0462
 8273SOL    HW232858   4.404   5.233   2.784 -0.4002  0.4868 -0.8292
 8273SOL    HW332859   4.388   5.263   2.932  1.4876  0.1869 -0.5385
 8273SOL    MW432860   4.357   5.229   2.858  0.5582  0.2913 -0.2145
 8274SOL     OW32861   0.551   5.177   4.704  0.2568 -0.2854 -0.0814
 8274SOL    HW232862   0.514   5.264   4.685 -0.9532 -0.8676 -0.4510
 8274SOL    HW332863   0.583   5.184   4.794 -0.8880  0.2089  0.3055
 8274SOL    MW432864   0.550   5.190   4.713 -0.0539 -0.2970 -0.0791
 8275SOL     OW32865   1.410   0.583   1.025  0.0718  0.2595  0.3114
 8275SOL    HW232866   1.449   0.624   0.948 -0.4551  0.5734  0.2056
 8275SOL    HW332867   1.449   0.628   1.099  0.3167  0.1978  0.2211
 8275SOL    MW432868   1.420   0.594   1.024  0.0346  0.2927  0.2855
 8276SOL     OW32869   5.546   3.344   1.679  0.3991  0.2784 -0.1863
 8276SOL    HW232870   5.628   3.307   1.711  0.6138  1.7146  1.0673
 8276SOL    HW332871   5.569   3.434   1.656 -0.8383  0.7580  0.3678
 8276SOL    MW432872   5.560   3.351   1.681  0.2642  0.5311  0.0522
 8277SOL     OW32873   3.411   2.877   0.737  0.2108  0.2691  0.4507
 8277SOL    HW232874   3.360   2.902   0.814 -0.5540  0.1005  0.0058
 8277SOL    HW332875   3.381   2.936   0.668  0.6869  0.2294  0.2039
 8277SOL    MW432876   3.400   2.888   0.738  0.1727  0.2416  0.3594
 8278SOL     OW32877   3.786   0.644   0.245  0.0760 -0.2609 -0.0118
 8278SOL    HW232878   3.865   0.613   0.287 -1.1825 -2.0518  1.1586
 8278SOL    HW332879   3.738   0.690   0.314 -0.0331  0.6151 -0.6491
 8278SOL    MW432880   3.790   0.646   0.259 -0.1044 -0.3816  0.0585
 8279SOL     OW32881   0.485   4.403   5.805 -0.3582 -0.5820  0.4573
 8279SOL    HW232882   0.434   4.350   5.866 -0.7047  0.2547  0.8990
 8279SOL    HW332883   0.576   4.391   5.833 -0.2433 -2.3106 -0.5105
 8279SOL    MW432884   0.491   4.394   5.817 -0.3888 -0.6997  0.3879
 8280SOL     OW32885   3.828   1.511   3.730 -0.2310 -0.2614 -0.4573
 8280SOL    HW232886   3.834   1.473   3.818 -1.3455 -0.2965 -0.3811
 8280SOL    HW332887   3.900   1.470   3.682 -0.9194 -1.9322 -0.1643
 8280SOL    MW432888   3.838   1.500   3.735 -0.4689 -0.4865 -0.4086
 8281SOL     OW32889   6.019   4.373   0.110 -0.1838 -0.2577 -0.2836
 8281SOL    HW232890   5.924   4.374   0.113 -0.3455 -0.5555 -2.8958
 8281SOL    HW332891   6.043   4.455   0.067  0.5040 -1.3480 -2.1227
 8281SOL    MW432892   6.010   4.384   0.104 -0.1144 -0.4408 -0.8709
 8282SOL     OW32893   0.769   0.393   3.395  0.7579  0.3275 -0.0276
 8282SOL    HW232894   0.708   0.327   3.426  0.3640  1.0559  0.7775
 8282SOL    HW332895   0.819   0.349   3.326  1.1891 -1.1240  1.1621
 8282SOL    MW432896   0.768   0.378   3.390  0.7628  0.2321  0.2356
 8283SOL     OW32897   4.905   2.790   2.027 -0.1220 -0.1848  0.3505
 8283SOL    HW232898   4.859   2.874   2.024 -0.0941 -0.0551  2.1505
 8283SOL    HW332899   4.997   2.813   2.043  0.2967 -0.5159 -1.3405
 8283SOL    MW432900   4.911   2.804   2.029 -0.0631 -0.2114  0.3649
 8284SOL     OW32901   1.968   0.472   4.131 -0.8490  0.2219 -0.0541
 8284SOL    HW232902   1.893   0.482   4.190 -0.5183 -0.9374  0.5981
 8284SOL    HW332903   2.033   0.424   4.183  0.5623  1.6038 -0.4369
 8284SOL    MW432904   1.967   0.467   4.146 -0.6191  0.2513 -0.0186
 8285SOL     OW32905   4.619   0.472   0.142 -0.5682  0.3885 -0.0279
 8285SOL    HW232906   4.594   0.565   0.146 -0.6787  0.3162  1.1363
 8285SOL    HW332907   4.579   0.440   0.061 -0.9527  1.2322 -0.1826
 8285SOL    MW432908   4.611   0.480   0.131 -0.6335  0.4903  0.1053
 8286SOL     OW32909   0.456   3.158   5.836  0.6490 -0.2742  1.0485
 8286SOL    HW232910   0.405   3.134   5.759  1.5428  1.2859 -0.0808
 8286SOL    HW332911   0.394   3.203   5.894  0.6354  1.3826 -0.1946
 8286SOL    MW432912   0.441   3.160   5.834  0.7651  0.1502  0.7355
 8287SOL     OW32913   1.528   2.299   3.741 -0.0898  0.1832 -0.6030
 8287SOL    HW232914   1.546   2.208   3.718 -0.6697  0.3665 -1.8295
 8287SOL    HW332915   1.601   2.348   3.703 -0.4733  0.3705 -1.1026
 8287SOL    MW432916   1.540   2.294   3.733 -0.2169  0.2321 -0.8307
 8288SOL     OW32917   0.761   2.080   2.435 -0.7254  0.1754  0.1653
 8288SOL    HW232918   0.705   2.154   2.455 -0.2220  0.2872  1.2223
 8288SOL    HW332919   0.704   2.003   2.444 -0.8163  0.3145  0.8480
 8288SOL    MW432920   0.746   2.079   2.439 -0.6710  0.2085  0.3948
 8289SOL     OW32921   1.641   0.592   2.414 -0.2429 -0.4370  0.7556
 8289SOL    HW232922   1.617   0.589   2.507 -3.3648  0.7590  0.1110
 8289SOL    HW332923   1.661   0.684   2.397 -0.9946 -0.3951  0.0125
 8289SOL    MW432924   1.641   0.604   2.424 -0.7540 -0.2737  0.5725
 8290SOL     OW32925   6.140   0.439   1.786 -0.6472  0.3222  0.7881
 8290SOL    HW232926   6.174   0.466   1.871  1.8216 -0.9311  0.2917
 8290SOL    HW332927   6.108   0.350   1.800 -1.1469  0.4651  0.5940
 8290SOL    MW432928   6.140   0.431   1.799 -0.3874  0.1757  0.6970
 8291SOL     OW32929   5.929   1.242   0.570 -0.5408 -0.0435 -0.1831
 8291SOL    HW232930   5.883   1.191   0.504 -1.5647 -0.1227  0.5647
 8291SOL    HW332931   6.012   1.196   0.582 -1.0022 -0.9258 -0.2823
 8291SOL    MW432932   5.934   1.229   0.563 -0.7368 -0.1704 -0.0975
 8292SOL     OW32933   5.789   3.180   3.258 -0.0526  0.1409 -0.0772
 8292SOL    HW232934   5.730   3.151   3.190  0.3787  0.0551 -0.4184
 8292SOL    HW332935   5.745   3.255   3.298 -0.5743 -0.1736 -0.0508
 8292SOL    MW432936   5.776   3.186   3.255 -0.0645  0.0881 -0.1187
 8293SOL     OW32937   3.640   1.213   3.715  0.0123  0.2492  0.5733
 8293SOL    HW232938   3.722   1.190   3.672  0.1990  0.4301  0.8319
 8293SOL    HW332939   3.581   1.141   3.693  0.2440  0.1076  0.4044
 8293SOL    MW432940   3.643   1.200   3.706  0.0675  0.2544  0.5851
 8294SOL     OW32941   0.905   5.675   0.060 -0.5854  0.4807 -0.4963
 8294SOL    HW232942   0.899   5.657   0.154 -0.6509  0.6875 -0.4601
 8294SOL    HW332943   0.833   5.736   0.043 -1.7301 -0.9279 -1.0136
 8294SOL    MW432944   0.894   5.680   0.070 -0.7451  0.3221 -0.5598
 8295SOL     OW32945   5.568   4.173   6.406 -0.4714 -0.6891 -0.1933
 8295SOL    HW232946   5.662   4.160   6.420 -0.1595  2.1988  1.0489
 8295SOL    HW332947   5.530   4.175   6.494 -1.7328 -1.6416 -0.6746
 8295SOL    MW432948   5.576   4.171   6.419 -0.5967 -0.4337 -0.0929
 8296SOL     OW32949   0.332   2.869   3.973 -0.0055  0.2409  0.6327
 8296SOL    HW232950   0.268   2.854   4.042  2.3195 -4.0584  2.2802
 8296SOL    HW332951   0.296   2.826   3.895 -0.6335  1.0238  0.4852
 8296SOL    MW432952   0.319   2.861   3.972  0.2184 -0.2231  0.8306
 8297SOL     OW32953   6.263   5.079   1.739 -0.2105 -0.4542  0.7013
 8297SOL    HW232954   6.256   5.119   1.652 -1.9108  0.5010  1.2295
 8297SOL    HW332955   6.209   5.000   1.733 -0.3996 -0.3418  0.9002
 8297SOL    MW432956   6.255   5.074   1.727 -0.4597 -0.3133  0.7973
 8298SOL     OW32957   3.297   4.991   4.472  0.0090 -0.5146  0.0042
 8298SOL    HW232958   3.341   4.928   4.529 -2.8355 -1.8078  0.9236
 8298SOL    HW332959   3.204   4.980   4.491 -0.7260  2.7282 -1.1422
 8298SOL    MW432960   3.290   4.981   4.482 -0.4632 -0.2574 -0.0257
 8299SOL     OW32961   0.313   4.824   3.236 -1.1805 -0.2086  0.5166
 8299SOL    HW232962   0.373   4.898   3.231 -0.8665 -0.5389 -0.9950
 8299SOL    HW332963   0.245   4.852   3.297 -0.6957  1.0463  0.5053
 8299SOL    MW432964   0.312   4.837   3.244 -1.0751 -0.0866  0.3157
 8300SOL     OW32965   2.799   3.742   3.301  0.4720  0.6307  0.1247
 8300SOL    HW232966   2.837   3.767   3.385  0.4363  0.8692  0.0701
 8300SOL    HW332967   2.859   3.777   3.236  1.1098 -0.5364  0.0583
 8300SOL    MW432968   2.812   3.750   3.304  0.5514  0.5082  0.1088
 8301SOL     OW32969   4.917   2.162   3.983  0.5535  0.5257 -0.1601
 8301SOL    HW232970   4.840   2.220   3.990  0.5195  0.6692 -1.5344
 8301SOL    HW332971   4.983   2.204   4.038 -0.9655 -0.7655  2.9739
 8301SOL    MW432972   4.915   2.175   3.991  0.3486  0.3742  0.0721
 8302SOL     OW32973   0.897   5.759   4.916  0.6254  0.0458  0.0743
 8302SOL    HW232974   0.968   5.695   4.904 -1.0274 -1.6136 -1.5870
 8302SOL    HW332975   0.890   5.804   4.831 -1.4610 -1.1657 -0.4790
 8302SOL    MW432976   0.905   5.756   4.903  0.1320 -0.3330 -0.2179
 8303SOL     OW32977   2.152   4.623   4.074  0.0092 -0.0536 -0.6493
 8303SOL    HW232978   2.198   4.657   3.997 -0.1375  1.3580 -0.1513
 8303SOL    HW332979   2.063   4.605   4.043 -0.0002  0.3464 -0.8660
 8303SOL    MW432980   2.146   4.625   4.060 -0.0114  0.1854 -0.6122
 8304SOL     OW32981   5.346   2.425   3.605  0.3433 -0.2851  0.3353
 8304SOL    HW232982   5.291   2.502   3.620 -1.1096 -1.5987  2.2644
 8304SOL    HW332983   5.435   2.455   3.624 -0.1347  0.9900  0.6749
 8304SOL    MW432984   5.350   2.439   3.609  0.0886 -0.2902  0.6347
 8305SOL     OW32985   1.839   3.013   6.066  0.0127 -0.4795 -0.0406
 8305SOL    HW232986   1.792   3.051   6.141 -2.3091  1.5416 -2.3387
 8305SOL    HW332987   1.793   2.931   6.049  0.4686 -0.8861  0.6355
 8305SOL    MW432988   1.827   3.007   6.074 -0.2335 -0.2665 -0.2546
 8306SOL     OW32989   4.419   4.258   2.057  0.1277 -0.5345 -0.6662
 8306SOL    HW232990   4.387   4.261   1.967 -0.7802 -0.2957 -0.3455
 8306SOL    HW332991   4.383   4.178   2.094  0.6529 -0.7315 -0.5638
 8306SOL    MW432992   4.410   4.248   2.050  0.0772 -0.5290 -0.6104
 8307SOL     OW32993   1.080   3.979   5.359  0.0815  0.3552 -0.1138
 8307SOL    HW232994   1.148   3.964   5.293  0.2809  2.8221 -0.5718
 8307SOL    HW332995   1.020   3.905   5.349  1.3527 -0.5519 -1.4309
 8307SOL    MW432996   1.081   3.967   5.349  0.2755  0.5610 -0.3480
 8308SOL     OW32997   5.269   4.247   5.233  0.6102  0.5414  0.1776
 8308SOL    HW232998   5.195   4.293   5.273  1.4198  1.3342  0.8125
 8308SOL    HW332999   5.344   4.302   5.253  1.6348 -1.0865  1.0187
 8308SOL    MW433000   5.269   4.260   5.241  0.8522  0.4312  0.3724
 8309SOL     OW33001   4.668   0.997   3.427 -0.2555  0.2829 -0.9157
 8309SOL    HW233002   4.678   0.904   3.448 -0.1231  0.5425  0.2876
 8309SOL    HW333003   4.728   1.041   3.488  0.5030  1.0954 -2.2108
 8309SOL    MW433004   4.677   0.991   3.438 -0.1380  0.4243 -0.9278
 8310SOL     OW33005   0.662   4.107   3.501 -0.7235 -0.2430 -0.1756
 8310SOL    HW233006   0.732   4.153   3.455 -1.4139  1.1465  0.1353
 8310SOL    HW333007   0.596   4.173   3.518 -1.2357 -1.0883  1.3464
 8310SOL    MW433008   0.662   4.121   3.497 -0.8822 -0.1712  0.0663
 8311SOL     OW33009   1.662   4.151   3.402  0.2597 -0.7950 -0.3563
 8311SOL    HW233010   1.604   4.188   3.470  1.0649  2.6409 -1.3487
 8311SOL    HW333011   1.686   4.065   3.436 -1.4706 -0.3126  2.4478
 8311SOL    MW433012   1.657   4.145   3.416  0.1377 -0.2780 -0.1173
 8312SOL     OW33013   1.473   1.379   2.507 -0.1921 -0.5676 -0.6152
 8312SOL    HW233014   1.481   1.425   2.424  0.8169  0.3565 -0.0159
 8312SOL    HW333015   1.440   1.445   2.568 -1.4976 -1.3852 -0.3794
 8312SOL    MW433016   1.470   1.394   2.504 -0.2312 -0.5536 -0.5050
 8313SOL     OW33017   1.932   1.169   4.933  0.9521  0.3520 -0.6320
 8313SOL    HW233018   2.019   1.147   4.899  0.5571 -1.5868 -0.5410
 8313SOL    HW333019   1.871   1.118   4.879  0.1169 -0.6752  1.1683
 8313SOL    MW433020   1.935   1.159   4.922  0.7898 -0.0393 -0.3825
 8314SOL     OW33021   1.407   4.970   6.157  0.2713  0.0954 -0.5018
 8314SOL    HW233022   1.322   5.008   6.135  0.4163 -0.4308 -2.0476
 8314SOL    HW333023   1.386   4.893   6.209 -0.0890  1.1416  0.9789
 8314SOL    MW433024   1.393   4.965   6.161  0.2429  0.1640 -0.5104
 8315SOL     OW33025   2.361   2.120   5.310  0.2503 -0.1429 -0.0531
 8315SOL    HW233026   2.336   2.106   5.402  3.4741 -0.1014  0.9295
 8315SOL    HW333027   2.432   2.183   5.314 -0.5501  1.0895 -2.7859
 8315SOL    MW433028   2.367   2.127   5.323  0.5701  0.0251 -0.2840
 8316SOL     OW33029   5.292   0.377   6.186  0.1646 -0.0695  0.0976
 8316SOL    HW233030   5.364   0.354   6.245  0.2527 -0.7734 -0.2711
 8316SOL    HW333031   5.336   0.407   6.106  0.0579 -0.8487 -0.2618
 8316SOL    MW433032   5.308   0.378   6.183  0.1621 -0.2652  0.0015
 8317SOL     OW33033   1.457   5.807   4.630 -0.3903 -1.3313  0.5680
 8317SOL    HW233034   1.520   5.835   4.563  0.8562  0.2974  2.3168
 8317SOL    HW333035   1.466   5.712   4.632  0.1866 -1.3365 -0.9632
 8317SOL    MW433036   1.467   5.798   4.621 -0.1497 -1.1171  0.5967
 8318SOL     OW33037   5.745   5.982   1.919 -0.0271 -0.2628 -0.0219
 8318SOL    HW233038   5.725   5.903   1.971  0.4749 -0.5192 -0.2196
 8318SOL    HW333039   5.802   6.034   1.976  0.5126 -0.5380 -0.3111
 8318SOL    MW433040   5.750   5.978   1.934  0.1103 -0.3330 -0.0861
 8319SOL     OW33041   0.543   1.000   0.361  0.3817 -0.3553 -0.2204
 8319SOL    HW233042   0.461   0.951   0.352  1.5122 -2.2635 -0.6999
 8319SOL    HW333043   0.611   0.935   0.344  2.1002  0.6457  2.3528
 8319SOL    MW433044   0.541   0.985   0.357  0.7576 -0.4750  0.0558
 8320SOL     OW33045   1.441   3.084   6.251  0.4147  0.4355  0.4298
 8320SOL    HW233046   1.358   3.039   6.233  0.7933  0.0783 -0.5193
 8320SOL    HW333047   1.462   3.128   6.169  0.7954  1.1349  0.9009
 8320SOL    MW433048   1.433   3.084   6.237  0.5149  0.4807  0.3667
 8321SOL     OW33049   2.909   2.225   4.434 -0.1079  0.4827  0.2426
 8321SOL    HW233050   2.943   2.314   4.435  1.3037 -0.0292  1.0055
 8321SOL    HW333051   2.967   2.176   4.493 -0.6701 -0.9999 -0.3711
 8321SOL    MW433052   2.921   2.230   4.442  0.0041  0.2196  0.2623
 8322SOL     OW33053   4.944   5.054   4.317  0.5077 -0.4397 -0.7320
 8322SOL    HW233054   5.012   5.115   4.344  1.4787 -2.0070  0.5197
 8322SOL    HW333055   4.937   5.067   4.222  2.5441 -0.2090 -0.9005
 8322SOL    MW433056   4.952   5.064   4.308  0.9045 -0.6161 -0.5890
 8323SOL     OW33057   3.949   1.378   0.086 -0.0337 -0.3562  0.1860
 8323SOL    HW233058   3.912   1.383   0.174  0.8821 -1.2255  0.6407
 8323SOL    HW333059   4.013   1.449   0.083 -0.0899 -0.3046  0.2056
 8323SOL    MW433060   3.952   1.388   0.097  0.0797 -0.4641  0.2486
 8324SOL     OW33061   1.548   2.737   3.895  0.4133  0.0063  0.2497
 8324SOL    HW233062   1.474   2.764   3.950 -0.8221  1.0179 -1.7719
 8324SOL    HW333063   1.582   2.658   3.937 -0.0318  1.0777  2.7758
 8324SOL    MW433064   1.542   2.730   3.907  0.1916  0.2811  0.3163
 8325SOL     OW33065   6.121   1.064   0.202 -0.4628 -0.9054 -0.6389
 8325SOL    HW233066   6.154   1.126   0.267 -1.4738 -1.8095  0.7940
 8325SOL    HW333067   6.195   1.005   0.187 -0.3804 -1.0107  0.1134
 8325SOL    MW433068   6.135   1.064   0.209 -0.5853 -1.0386 -0.3506
 8326SOL     OW33069   6.188   4.011   3.698 -1.2914  0.1798 -0.1615
 8326SOL    HW233070   6.115   3.948   3.702 -1.4765  0.4041 -0.0039
 8326SOL    HW333071   6.260   3.961   3.661 -1.3995 -0.1668  0.0885
 8326SOL    MW433072   6.188   3.996   3.694 -1.3301  0.1636 -0.1077
 8327SOL     OW33073   0.716   1.711   4.997 -0.1323  0.2993  0.2004
 8327SOL    HW233074   0.776   1.699   4.923 -0.3616 -1.4024  0.2329
 8327SOL    HW333075   0.644   1.650   4.980 -2.9406  3.6053 -0.8060
 8327SOL    MW433076   0.715   1.701   4.985 -0.5330  0.5109  0.0719
 8328SOL     OW33077   0.803   5.544   3.773 -0.2476  0.1346  0.8338
 8328SOL    HW233078   0.897   5.525   3.781 -0.3185  0.1051  1.7443
 8328SOL    HW333079   0.793   5.580   3.685  0.7445  0.8028  0.9719
 8328SOL    MW433080   0.814   5.547   3.763 -0.1260  0.2189  0.9722
 8329SOL     OW33081   4.819   4.290   5.670  0.0953 -0.2847  0.2584
 8329SOL    HW233082   4.808   4.309   5.576  1.0469  0.3935  0.2761
 8329SOL    HW333083   4.912   4.305   5.687 -0.3478  1.0459  1.6336
 8329SOL    MW433084   4.830   4.294   5.660  0.1624 -0.0197  0.4422
 8330SOL     OW33085   4.753   1.891   2.307  0.0028 -0.3939 -0.1834
 8330SOL    HW233086   4.775   1.961   2.369  0.9346  0.1207 -1.0825
 8330SOL    HW333087   4.750   1.934   2.222 -0.3010 -1.2852 -0.6322
 8330SOL    MW433088   4.755   1.906   2.304  0.0857 -0.4436 -0.3613
 8331SOL     OW33089   5.082   2.577   0.272  0.6462 -0.5254  0.2248
 8331SOL    HW233090   5.102   2.559   0.180  0.5149 -1.0653  0.3010
 8331SOL    HW333091   5.021   2.651   0.269  2.5290  1.1079 -0.0205
 8331SOL    MW433092   5.077   2.584   0.259  0.8773 -0.3812  0.2025
 8332SOL     OW33093   2.289   4.191   1.299  0.5953  0.5930  0.1393
 8332SOL    HW233094   2.371   4.176   1.252 -1.2803 -3.1847 -2.4255
 8332SOL    HW333095   2.306   4.159   1.388  2.1075  0.5994 -0.1252
 8332SOL    MW433096   2.302   4.185   1.305  0.5473  0.0954 -0.2340
 8333SOL     OW33097   2.278   5.786   6.277 -0.0964  0.0467 -0.0494
 8333SOL    HW233098   2.273   5.747   6.365 -0.3938  0.9781  0.3628
 8333SOL    HW333099   2.253   5.715   6.218  1.5559 -1.0217  0.4830
 8333SOL    MW433100   2.274   5.771   6.281  0.0824  0.0286  0.0752
 8334SOL     OW33101   5.709   5.071   3.448  0.0287  0.0905 -0.0139
 8334SOL    HW233102   5.725   5.154   3.492 -0.5658  1.5477 -2.3733
 8334SOL    HW333103   5.626   5.083   3.402 -0.3681 -2.0226  0.0328
 8334SOL    MW433104   5.700   5.084   3.448 -0.1021  0.0039 -0.3190
 8335SOL     OW33105   4.605   6.406   4.256 -0.0398  0.3246 -0.5183
 8335SOL    HW233106   4.612   6.434   4.348 -1.8786  2.3857 -0.9225
 8335SOL    HW333107   4.681   6.446   4.213  0.9442 -0.8166  0.0922
 8335SOL    MW433108   4.616   6.415   4.263 -0.1526  0.4459 -0.4911
 8336SOL     OW33109   4.232   3.275   3.129  0.6349 -0.0012  0.1639
 8336SOL    HW233110   4.211   3.362   3.163  1.9177  0.0216  1.0044
 8336SOL    HW333111   4.316   3.287   3.085 -0.1121 -0.4384 -1.4170
 8336SOL    MW433112   4.240   3.288   3.128  0.7056 -0.0559  0.0662
 8337SOL     OW33113   3.275   1.877   1.378  0.4335 -0.8166 -0.0051
 8337SOL    HW233114   3.310   1.965   1.369 -1.4139 -0.0807 -0.3176
 8337SOL    HW333115   3.337   1.821   1.331  0.0631  0.7269 -2.4716
 8337SOL    MW433116   3.288   1.881   1.370  0.1409 -0.5159 -0.3717
 8338SOL     OW33117   0.188   6.084   3.591 -0.4896  0.5520 -0.3897
 8338SOL    HW233118   0.276   6.090   3.555  0.6052  1.2049  2.1642
 8338SOL    HW333119   0.146   6.167   3.568  0.3466  1.1547  0.1871
 8338SOL    MW433120   0.194   6.096   3.583 -0.2348  0.7176  0.0233
 8339SOL     OW33121   5.165   3.185   0.014  0.4932 -0.2329 -0.2581
 8339SOL    HW233122   5.203   3.268   0.043 -2.5154  0.8148  1.1010
 8339SOL    HW333123   5.239   3.124   0.010  2.5335  2.0665  0.3607
 8339SOL    MW433124   5.180   3.188   0.017  0.3654  0.2087  0.0028
 8340SOL     OW33125   2.620   3.956   3.295 -0.2568  0.4375 -0.5176
 8340SOL    HW233126   2.666   3.873   3.285  1.4518  1.4680 -1.9420
 8340SOL    HW333127   2.531   3.938   3.265 -0.5757 -1.3502  1.2533
 8340SOL    MW433128   2.615   3.943   3.290 -0.0734  0.3376 -0.4719
 8341SOL     OW33129   3.379   6.010   1.571  0.2273  0.2911  0.1574
 8341SOL    HW233130   3.319   6.023   1.644  0.6958  1.5835  0.3486
 8341SOL    HW333131   3.464   5.994   1.613 -0.0057 -1.8713 -0.1038
 8341SOL    MW433132   3.382   6.010   1.586  0.2583  0.1763  0.1481
 8342SOL     OW33133   5.482   3.622   5.708  0.3783 -0.0119 -0.3550
 8342SOL    HW233134   5.526   3.539   5.689  0.3774  0.0607 -0.6841
 8342SOL    HW333135   5.526   3.685   5.651 -0.0348  0.0960 -0.5495
 8342SOL    MW433136   5.494   3.619   5.698  0.3237  0.0119 -0.4241
 8343SOL     OW33137   3.488   2.203   3.334 -0.2062 -0.6603  0.5214
 8343SOL    HW233138   3.540   2.270   3.290  0.8373 -2.2053 -0.7333
 8343SOL    HW333139   3.524   2.197   3.422  0.2495 -0.1626  0.3714
 8343SOL    MW433140   3.499   2.211   3.339 -0.0084 -0.7984  0.3361
 8344SOL     OW33141   1.892   3.419   0.689 -0.0656 -0.3520 -0.5368
 8344SOL    HW233142   1.851   3.489   0.740 -1.5844 -1.1177 -0.6613
 8344SOL    HW333143   1.826   3.350   0.685  1.1528 -1.5369 -0.9809
 8344SOL    MW433144   1.878   3.419   0.696 -0.1052 -0.6094 -0.6119
 8345SOL     OW33145   0.156   2.705   2.031 -0.6643 -0.1868 -0.8627
 8345SOL    HW233146   0.107   2.787   2.026 -0.6161 -0.0005  1.0393
 8345SOL    HW333147   0.091   2.636   2.022 -0.9526  0.0609 -0.6714
 8345SOL    MW433148   0.141   2.707   2.029 -0.6960 -0.1295 -0.5865
 8346SOL     OW33149   5.718   3.356   6.259 -0.1370 -0.8846 -0.3436
 8346SOL    HW233150   5.753   3.268   6.244  0.4544 -0.6640 -0.2871
 8346SOL    HW333151   5.720   3.398   6.173  0.9254 -0.4550 -0.1306
 8346SOL    MW433152   5.723   3.350   6.246  0.0812 -0.7988 -0.3081
 8347SOL     OW33153   1.400   2.779   2.326  0.0343  0.7283 -0.0807
 8347SOL    HW233154   1.357   2.793   2.241 -0.2628  0.8478  0.0883
 8347SOL    HW333155   1.346   2.714   2.370 -0.6554  1.7660  0.6175
 8347SOL    MW433156   1.388   2.772   2.320 -0.0959  0.8810  0.0338
 8348SOL     OW33157   1.624   4.043   4.026 -0.0220 -0.3787 -0.0655
 8348SOL    HW233158   1.544   4.060   4.076  0.1090 -0.6276  0.2360
 8348SOL    HW333159   1.594   4.026   3.937 -0.2954 -0.3649  0.0217
 8348SOL    MW433160   1.609   4.043   4.021 -0.0408 -0.4097 -0.0142
 8349SOL     OW33161   3.048   3.676   4.188  0.1975 -0.1043  0.2752
 8349SOL    HW233162   3.043   3.771   4.197 -0.4625 -0.1143  0.0893
 8349SOL    HW333163   3.066   3.661   4.096 -1.5767 -0.1857 -0.0970
 8349SOL    MW433164   3.049   3.686   4.177 -0.1237 -0.1164  0.2016
 8350SOL     OW33165   0.093   5.403   3.741 -0.4295 -0.1913  0.0737
 8350SOL    HW233166   0.017   5.408   3.798 -1.2403  0.4366 -1.0333
 8350SOL    HW333167   0.132   5.318   3.760 -1.9861 -0.9592 -0.0436
 8350SOL    MW433168   0.088   5.392   3.751 -0.7418 -0.2098 -0.0878
 8351SOL     OW33169   4.825   4.593   1.233  0.2430 -0.0918 -0.1197
 8351SOL    HW233170   4.731   4.610   1.230  0.3823  2.1434  3.1014
 8351SOL    HW333171   4.862   4.643   1.160 -0.8867  0.7320 -0.1463
 8351SOL    MW433172   4.818   4.602   1.223  0.1123  0.3118  0.3018
 8352SOL     OW33173   4.679   4.327   3.012 -0.2049  0.1544 -0.7173
 8352SOL    HW233174   4.742   4.282   3.068 -0.1199  0.2412 -0.7443
 8352SOL    HW333175   4.684   4.283   2.928  0.6107  0.8696 -1.0510
 8352SOL    MW433176   4.688   4.315   3.009 -0.0861  0.2602 -0.7649
 8353SOL     OW33177   1.606   5.297   0.607  0.3743 -0.2283  0.0109
 8353SOL    HW233178   1.663   5.351   0.661  0.5604 -1.2474  0.8771
 8353SOL    HW333179   1.656   5.216   0.593 -0.3451 -0.6324 -0.2951
 8353SOL    MW433180   1.620   5.293   0.612  0.3039 -0.4160  0.0848
 8354SOL     OW33181   3.786   4.558   2.185 -0.6438 -0.1329 -0.0033
 8354SOL    HW233182   3.861   4.592   2.233 -0.7727  1.2631 -0.7275
 8354SOL    HW333183   3.721   4.539   2.253  0.3057 -1.2390  0.6140
 8354SOL    MW433184   3.787   4.560   2.200 -0.5355 -0.0947 -0.0174
 8355SOL     OW33185   2.150   0.344   4.312  0.1523  0.1803  0.0253
 8355SOL    HW233186   2.227   0.396   4.334  0.5858 -0.8044  0.9357
 8355SOL    HW333187   2.135   0.289   4.389  0.0255 -1.4008 -1.0816
 8355SOL    MW433188   2.158   0.344   4.325  0.1928 -0.1582 -0.0006
 8356SOL     OW33189   5.330   1.137   3.011 -0.7403  0.6474 -0.8758
 8356SOL    HW233190   5.323   1.043   2.992 -1.7587  0.6203 -0.4002
 8356SOL    HW333191   5.240   1.167   3.019 -0.4666  1.9150 -2.1309
 8356SOL    MW433192   5.317   1.129   3.010 -0.8386  0.8111 -0.9786
 8357SOL     OW33193   1.744   3.075   6.327 -0.1124  0.2945 -0.0777
 8357SOL    HW233194   1.755   3.161   6.369 -0.0298 -0.1329  0.8131
 8357SOL    HW333195   1.650   3.062   6.323 -0.1588 -0.9251  2.7502
 8357SOL    MW433196   1.733   3.085   6.332 -0.1076  0.0772  0.4130
 8358SOL     OW33197   2.386   4.801   1.616  0.0176 -0.7066 -0.1019
 8358SOL    HW233198   2.448   4.770   1.682  0.3565  0.6368  0.2349
 8358SOL    HW333199   2.439   4.817   1.538 -0.1076 -0.7333 -0.1920
 8358SOL    MW433200   2.401   4.799   1.614  0.0458 -0.5329 -0.0693
 8359SOL     OW33201   5.329   1.946   3.525  0.2832 -0.0780 -0.0288
 8359SOL    HW233202   5.406   1.908   3.568  1.8172  1.9101 -0.8322
 8359SOL    HW333203   5.255   1.909   3.572  1.6360 -2.9747  0.0627
 8359SOL    MW433204   5.330   1.936   3.537  0.6641 -0.1979 -0.1227
 8360SOL     OW33205   5.038   4.117   2.790 -0.1698 -0.0276 -0.1063
 8360SOL    HW233206   4.969   4.183   2.787 -0.1584 -0.0503 -1.8072
 8360SOL    HW333207   5.084   4.127   2.707  0.8509 -1.1189  0.2966
 8360SOL    MW433208   5.035   4.127   2.779 -0.0336 -0.1746 -0.2776
 8361SOL     OW33209   3.748   5.096   4.555 -0.1366 -0.3734  0.2172
 8361SOL    HW233210   3.690   5.096   4.631 -0.5821 -0.1667 -0.1175
 8361SOL    HW333211   3.694   5.062   4.483  0.4677 -1.1942  0.1271
 8361SOL    MW433212   3.733   5.091   4.555 -0.1157 -0.4544  0.1611
 8362SOL     OW33213   0.366   0.624   3.089 -0.3881 -0.4506  0.9865
 8362SOL    HW233214   0.428   0.616   3.162 -0.2118 -0.3818  0.8471
 8362SOL    HW333215   0.422   0.624   3.011 -0.2647  2.5510  0.9437
 8362SOL    MW433216   0.382   0.623   3.088 -0.3485 -0.0455  0.9625
 8363SOL     OW33217   0.140   6.181   3.867  0.2732  0.6614  0.5072
 8363SOL    HW233218   0.121   6.249   3.932 -2.4187  0.2203  0.3152
 8363SOL    HW333219   0.068   6.187   3.804  1.3874 -0.6733 -0.9682
 8363SOL    MW433220   0.128   6.190   3.868  0.0651  0.4271  0.2872
 8364SOL     OW33221   3.692   5.886   0.757  0.3620 -0.0693  0.3203
 8364SOL    HW233222   3.710   5.861   0.848  2.7730  1.4189  0.3457
 8364SOL    HW333223   3.620   5.948   0.762  0.4287 -0.0546  1.2229
 8364SOL    MW433224   3.685   5.891   0.769  0.6889  0.1290  0.4427
 8365SOL     OW33225   2.030   1.943   5.648 -0.6833  0.3517 -0.0858
 8365SOL    HW233226   1.991   1.994   5.577  0.8094 -0.3739 -1.4867
 8365SOL    HW333227   1.987   1.858   5.642 -1.1478  0.5435  0.4354
 8365SOL    MW433228   2.019   1.939   5.638 -0.5476  0.2813 -0.2019
 8366SOL     OW33229   5.415   4.682   4.771 -0.4616  0.7969 -0.0310
 8366SOL    HW233230   5.470   4.736   4.828 -0.2533 -1.6148  2.2728
 8366SOL    HW333231   5.475   4.615   4.738 -1.7451 -1.4147  1.8883
 8366SOL    MW433232   5.430   4.680   4.774 -0.6035  0.1869  0.5262
 8367SOL     OW33233   1.592   5.097   0.919  0.1661 -0.1635  0.0741
 8367SOL    HW233234   1.627   5.051   0.996 -0.2002  0.5410  0.6664
 8367SOL    HW333235   1.620   5.188   0.931 -0.9097  0.1854 -0.0137
 8367SOL    MW433236   1.600   5.103   0.931 -0.0242 -0.0245  0.1407
 8368SOL     OW33237   3.469   3.065   4.784 -0.0915  0.1771 -0.0981
 8368SOL    HW233238   3.398   3.092   4.726  0.8322  0.2914 -1.2038
 8368SOL    HW333239   3.548   3.103   4.745  0.4225  1.3875  1.9485
 8368SOL    MW433240   3.470   3.073   4.771  0.0982  0.3519  0.0260
 8369SOL     OW33241   3.935   1.553   4.545  0.1722  0.5252 -0.1946
 8369SOL    HW233242   3.984   1.475   4.572 -1.9977 -0.6594  0.5203
 8369SOL    HW333243   3.942   1.554   4.449 -1.5207 -1.8108 -0.4008
 8369SOL    MW433244   3.943   1.543   4.536 -0.3375  0.0607 -0.1275
 8370SOL     OW33245   2.280   2.170   1.150 -0.4718  0.5116  0.1416
 8370SOL    HW233246   2.253   2.103   1.212 -2.6535  3.3880  2.5647
 8370SOL    HW333247   2.373   2.184   1.169  0.1107 -1.8191 -0.5835
 8370SOL    MW433248   2.288   2.163   1.160 -0.6828  0.5836  0.3656
 8371SOL     OW33249   3.717   4.622   6.133  0.0548  0.9537  0.2783
 8371SOL    HW233250   3.750   4.606   6.044 -2.7726  1.1287 -0.9192
 8371SOL    HW333251   3.730   4.716   6.146 -0.1965  1.0768 -0.2926
 8371SOL    MW433252   3.723   4.633   6.123 -0.3514  0.9930  0.0450
 8372SOL     OW33253   4.722   6.312   1.864 -0.8891  0.4020 -0.0461
 8372SOL    HW233254   4.733   6.224   1.827 -0.2821  0.6067 -0.3640
 8372SOL    HW333255   4.679   6.362   1.795 -1.3190  0.3294  0.1699
 8372SOL    MW433256   4.718   6.307   1.850 -0.8657  0.4194 -0.0595
 8373SOL     OW33257   1.669   5.363   0.990  0.2464  0.1740  0.2346
 8373SOL    HW233258   1.676   5.397   0.901 -0.3623  1.5952  0.7131
 8373SOL    HW333259   1.750   5.390   1.033 -0.8651  2.4072  1.0455
 8373SOL    MW433260   1.680   5.371   0.984  0.0195  0.6561  0.4047
 8374SOL     OW33261   3.576   2.645   1.500  0.1855 -0.0524  0.1226
 8374SOL    HW233262   3.616   2.721   1.458 -0.0584  0.7292  1.2511
 8374SOL    HW333263   3.558   2.585   1.428 -0.6557  1.4242 -0.9621
 8374SOL    MW433264   3.579   2.647   1.485  0.0424  0.2456  0.1284
 8375SOL     OW33265   6.261   2.833   0.334  0.2946  0.1940 -0.0746
 8375SOL    HW233266   6.335   2.822   0.394 -0.6832  2.0299  1.5936
 8375SOL    HW333267   6.259   2.752   0.283  1.9521 -0.9274  1.5253
 8375SOL    MW433268   6.271   2.821   0.335  0.3843  0.2883  0.3566
 8376SOL     OW33269   3.099   0.628   2.018 -0.3855  0.1669  0.3977
 8376SOL    HW233270   3.018   0.678   2.009 -1.1752 -1.0279  0.7213
 8376SOL    HW333271   3.131   0.618   1.928  0.0760  1.6679  0.3636
 8376SOL    MW433272   3.093   0.633   2.005 -0.4288  0.2073  0.4359
 8377SOL     OW33273   3.369   6.411   0.338  0.2899  0.1714  0.0980
 8377SOL    HW233274   3.345   6.347   0.271 -1.5728  0.0829  0.7849
 8377SOL    HW333275   3.407   6.358   0.409 -1.4080 -0.2533  0.7386
 8377SOL    MW433276   3.371   6.396   0.339 -0.1799  0.1037  0.2731
 8378SOL     OW33277   4.577   4.801   3.597 -0.4739  0.1357  0.0128
 8378SOL    HW233278   4.536   4.728   3.644 -2.0625  0.9568 -0.0564
 8378SOL    HW333279   4.530   4.879   3.626  0.6751  1.0651 -0.5127
 8378SOL    MW433280   4.566   4.802   3.608 -0.5319  0.3667 -0.0657
 8379SOL     OW33281   5.248   4.921   3.853  0.0001 -0.0305  0.2224
 8379SOL    HW233282   5.275   4.853   3.791 -0.3434 -1.7954  1.9042
 8379SOL    HW333283   5.284   4.891   3.937 -1.1820  1.2599  1.2213
 8379SOL    MW433284   5.257   4.908   3.856 -0.2012 -0.0931  0.5761
 8380SOL     OW33285   6.112   3.712   4.583 -0.5084  0.2756  0.2848
 8380SOL    HW233286   6.148   3.772   4.518  1.2081 -1.4165 -0.4326
 8380SOL    HW333287   6.027   3.686   4.549  0.1174 -0.1334 -1.0140
 8380SOL    MW433288   6.106   3.717   4.570 -0.1993 -0.0016  0.0188
 8381SOL     OW33289   4.398   3.556   2.023 -0.2710  0.2381  0.1716
 8381SOL    HW233290   4.371   3.489   2.086 -0.0896  0.1584  0.1647
 8381SOL    HW333291   4.457   3.613   2.072  0.4106 -0.2150 -0.1075
 8381SOL    MW433292   4.402   3.555   2.038 -0.1571  0.1678  0.1338
 8382SOL     OW33293   0.459   4.866   5.291  0.0268 -0.2404 -0.2975
 8382SOL    HW233294   0.469   4.919   5.212  1.2676  0.0251  0.0121
 8382SOL    HW333295   0.423   4.783   5.260  3.2877 -1.3249 -1.6787
 8382SOL    MW433296   0.456   4.862   5.277  0.6208 -0.3485 -0.4389
 8383SOL     OW33297   0.354   6.246   2.387 -0.1626 -0.1416  0.1041
 8383SOL    HW233298   0.266   6.242   2.350 -1.0117 -0.8786  2.1000
 8383SOL    HW333299   0.357   6.331   2.432  0.2656  0.0145 -0.2097
 8383SOL    MW433300   0.343   6.257   2.388 -0.2182 -0.2182  0.3261
 8384SOL     OW33301   5.395   2.674   6.205  0.3621 -0.0014  0.0980
 8384SOL    HW233302   5.436   2.758   6.183  4.7262 -1.8606  0.0637
 8384SOL    HW333303   5.394   2.674   6.301 -0.5842  0.4342  0.0993
 8384SOL    MW433304   5.401   2.685   6.215  0.8130 -0.1892  0.0936
 8385SOL     OW33305   0.026   4.271   4.964  0.0098 -0.3855 -0.3246
 8385SOL    HW233306   0.039   4.357   5.004 -1.1938 -0.0009 -0.7078
 8385SOL    HW333307   0.086   4.270   4.890 -0.8822  0.6703 -1.0977
 8385SOL    MW433308   0.036   4.282   4.960 -0.2667 -0.1954 -0.4771
 8386SOL     OW33309   4.419   5.702   3.998  0.4678  0.4577 -0.0196
 8386SOL    HW233310   4.468   5.621   3.984  0.3178  0.2241  0.7415
 8386SOL    HW333311   4.328   5.673   4.012  0.5073  0.7009  0.7985
 8386SOL    MW433312   4.413   5.687   3.998  0.4532  0.4589  0.1888
 8387SOL     OW33313   0.240   5.308   0.662  0.3002 -0.0105  0.5418
 8387SOL    HW233314   0.291   5.286   0.584 -0.8073 -2.6078  0.4314
 8387SOL    HW333315   0.165   5.248   0.659 -1.0932  1.4974  2.3381
 8387SOL    MW433316   0.237   5.297   0.651 -0.0297 -0.1543  0.7642
 8388SOL     OW33317   3.775   6.148   4.776  0.4435  0.3255  0.2661
 8388SOL    HW233318   3.728   6.170   4.857  0.7722 -0.3599  0.6532
 8388SOL    HW333319   3.750   6.217   4.714 -1.6608 -0.4036  0.2189
 8388SOL    MW433320   3.765   6.160   4.778  0.2092  0.1389  0.3109
 8389SOL     OW33321   6.068   6.370   3.331 -0.4451 -0.1311  0.4493
 8389SOL    HW233322   6.075   6.410   3.418 -0.4685 -0.9893  0.8577
 8389SOL    HW333323   6.099   6.437   3.271  2.5475 -0.5480  1.3760
 8389SOL    MW433324   6.073   6.384   3.335 -0.0534 -0.2993  0.6255
 8390SOL     OW33325   2.863   4.695   4.026 -0.3342 -0.6595 -0.4546
 8390SOL    HW233326   2.889   4.604   4.013 -1.0339 -0.9208 -0.0654
 8390SOL    HW333327   2.837   4.701   4.118 -0.9059 -0.2315 -0.6314
 8390SOL    MW433328   2.863   4.684   4.036 -0.5020 -0.6375 -0.4266
 8391SOL     OW33329   6.202   2.210   3.579 -0.6323  0.4651 -0.1613
 8391SOL    HW233330   6.244   2.223   3.494  0.7195 -1.4923  0.1345
 8391SOL    HW333331   6.269   2.236   3.642  0.3238 -2.7653  0.3287
 8391SOL    MW433332   6.217   2.215   3.576 -0.3278 -0.2194 -0.0576
 8392SOL     OW33333   2.482   0.921   0.981 -0.3864 -0.2673  0.5125
 8392SOL    HW233334   2.561   0.870   0.964 -0.6198  0.2667 -2.7992
 8392SOL    HW333335   2.508   1.012   0.967 -0.8683  0.2639  2.6760
 8392SOL    MW433336   2.496   0.926   0.977 -0.4808 -0.1267  0.3610
 8393SOL     OW33337   2.703   5.449   0.697 -0.4383 -0.2670  0.5116
 8393SOL    HW233338   2.746   5.459   0.782  0.8166  0.0235 -0.1286
 8393SOL    HW333339   2.610   5.452   0.717 -0.1679  0.9488  1.7526
 8393SOL    MW433340   2.697   5.451   0.711 -0.2370 -0.0683  0.5908
 8394SOL     OW33341   2.728   4.277   1.945 -0.3728  0.1144 -0.3121
 8394SOL    HW233342   2.685   4.351   1.903  1.2859 -0.0800 -2.5337
 8394SOL    HW333343   2.810   4.266   1.897  0.0199 -2.3918  0.7620
 8394SOL    MW433344   2.733   4.285   1.933 -0.1021 -0.2419 -0.4635
 8395SOL     OW33345   5.883   0.172   5.454 -0.1275  0.0813 -0.3570
 8395SOL    HW233346   5.789   0.191   5.459 -0.8998 -3.3507  1.6093
 8395SOL    HW333347   5.896   0.147   5.362 -1.5794 -1.0274 -0.3043
 8395SOL    MW433348   5.872   0.171   5.442 -0.4210 -0.5178 -0.0906
 8396SOL     OW33349   4.955   3.681   4.616 -0.0609  0.3308  0.0593
 8396SOL    HW233350   4.959   3.634   4.533 -0.4718  1.4777 -0.6217
 8396SOL    HW333351   4.935   3.613   4.681  0.6474 -0.6327 -0.7064
 8396SOL    MW433352   4.953   3.666   4.614 -0.0216  0.3550 -0.1315
 8397SOL     OW33353   4.993   2.710   3.267  0.3516 -0.2060 -0.1458
 8397SOL    HW233354   4.905   2.695   3.233  1.0972 -0.8050 -1.9107
 8397SOL    HW333355   5.014   2.799   3.241 -0.6984  0.9779  2.6466
 8397SOL    MW433356   4.984   2.720   3.259  0.3115 -0.1288 -0.0102
 8398SOL     OW33357   4.072   1.328   5.763 -0.2459  0.3194  0.0232
 8398SOL    HW233358   4.054   1.392   5.694  0.1782  1.3113  0.8087
 8398SOL    HW333359   4.149   1.363   5.809  1.1607 -1.6844 -0.6511
 8398SOL    MW433360   4.080   1.341   5.760 -0.0044  0.1859  0.0379
 8399SOL     OW33361   2.464   2.533   5.878  0.2142  0.3251  0.7886
 8399SOL    HW233362   2.488   2.446   5.910  1.4118 -0.0182 -0.8647
 8399SOL    HW333363   2.370   2.529   5.864  0.0439 -0.2511  1.9955
 8399SOL    MW433364   2.455   2.521   5.880  0.3497  0.2038  0.7297
 8400SOL     OW33365   1.465   5.296   0.240  0.8427 -0.3161 -0.0028
 8400SOL    HW233366   1.504   5.360   0.181  3.7133 -1.1946  0.7367
 8400SOL    HW333367   1.397   5.344   0.287 -0.8098  0.6957 -3.1190
 8400SOL    MW433368   1.461   5.311   0.238  1.0034 -0.2985 -0.3164
 8401SOL     OW33369   5.345   6.331   1.608  0.8393 -0.0563  0.3246
 8401SOL    HW233370   5.332   6.265   1.676  2.5501 -1.1246 -0.3188
 8401SOL    HW333371   5.348   6.280   1.527  1.3865  0.9164 -0.2690
 8401SOL    MW433372   5.343   6.315   1.606  1.1372 -0.0689  0.1614
 8402SOL     OW33373   1.161   4.422   1.583  0.3536  0.0407  0.6525
 8402SOL    HW233374   1.077   4.382   1.560  0.1632  0.6570  0.2607
 8402SOL    HW333375   1.192   4.371   1.658  0.4099 -1.2219 -0.2071
 8402SOL    MW433376   1.154   4.410   1.590  0.3359 -0.0446  0.4874
 8403SOL     OW33377   3.052   4.226   1.512  0.1116 -0.2867  0.4723
 8403SOL    HW233378   3.039   4.140   1.551  0.5869 -1.3254 -1.5218
 8403SOL    HW333379   2.964   4.254   1.486 -0.0176 -0.2410  0.9468
 8403SOL    MW433380   3.038   4.218   1.514  0.1573 -0.4177  0.2718
 8404SOL     OW33381   0.705   5.823   2.391  0.0385 -0.4277 -0.0077
 8404SOL    HW233382   0.637   5.831   2.324  0.3364 -0.5728 -0.3348
 8404SOL    HW333383   0.699   5.903   2.442 -0.9476 -0.8170  0.5127
 8404SOL    MW433384   0.696   5.834   2.389 -0.0523 -0.4982  0.0178
 8405SOL     OW33385   5.397   0.230   0.284 -0.2579 -0.6334  0.7808
 8405SOL    HW233386   5.395   0.202   0.192 -2.3948 -0.1824  0.6462
 8405SOL    HW333387   5.480   0.195   0.317  0.4132 -1.0946 -1.2144
 8405SOL    MW433388   5.408   0.221   0.276 -0.4513 -0.6348  0.4998
 8406SOL     OW33389   0.199   0.028   0.128 -0.0515  0.0377  0.5620
 8406SOL    HW233390   0.132  -0.034   0.100 -0.3658  0.6301 -0.0068
 8406SOL    HW333391   0.211   0.010   0.222 -1.0780  0.0053  0.6928
 8406SOL    MW433392   0.192   0.017   0.137 -0.2284  0.1116  0.5042
 8407SOL     OW33393   3.153   2.548   1.181  0.4238  0.3052  0.2775
 8407SOL    HW233394   3.172   2.537   1.274  1.6486  0.1456  0.0277
 8407SOL    HW333395   3.181   2.637   1.161  0.2735  0.3012  0.0408
 8407SOL    MW433396   3.159   2.558   1.191  0.5656  0.2836  0.2133
 8408SOL     OW33397   6.036   4.459   4.123  0.1764 -0.1340  0.0339
 8408SOL    HW233398   6.063   4.384   4.175 -0.2111 -0.6806 -0.5361
 8408SOL    HW333399   5.972   4.424   4.061 -3.0957  1.3725  2.3024
 8408SOL    MW433400   6.031   4.444   4.122 -0.3064 -0.0073  0.2580
 8409SOL     OW33401   2.058   0.221   6.221  0.3670  0.2356  0.3136
 8409SOL    HW233402   2.071   0.315   6.219 -1.7351  0.6004  1.0834
 8409SOL    HW333403   2.018   0.203   6.306  0.7561 -1.3511  0.2014
 8409SOL    MW433404   2.054   0.231   6.232  0.1410  0.0743  0.4004
 8410SOL     OW33405   2.430   1.030   4.121  0.4548  0.3728  0.6398
 8410SOL    HW233406   2.523   1.037   4.104  0.0665  0.9526 -1.5473
 8410SOL    HW333407   2.417   1.075   4.205  2.0679  0.4960  0.8475
 8410SOL    MW433408   2.440   1.037   4.130  0.6164  0.4655  0.3786
 8411SOL     OW33409   1.388   5.520   4.605 -0.9274 -0.3287 -0.2786
 8411SOL    HW233410   1.351   5.462   4.539  1.2980 -0.7259 -1.2946
 8411SOL    HW333411   1.482   5.498   4.606 -0.5213  1.1912  1.4614
 8411SOL    MW433412   1.396   5.510   4.597 -0.5802 -0.1806 -0.1831
 8412SOL     OW33413   0.572   3.518   4.477  0.2480  0.4334  0.1397
 8412SOL    HW233414   0.636   3.542   4.544 -0.4165  1.7710  0.3165
 8412SOL    HW333415   0.513   3.593   4.472  1.4421  1.3198 -3.3943
 8412SOL    MW433416   0.573   3.531   4.485  0.3178  0.7268 -0.3032
 8413SOL     OW33417   6.358   2.235   3.355 -0.4114 -0.6214  0.0778
 8413SOL    HW233418   6.380   2.325   3.332  1.7730 -0.7799  1.2753
 8413SOL    HW333419   6.308   2.203   3.280  0.0616  1.1232 -1.0536
 8413SOL    MW433420   6.355   2.243   3.342 -0.0608 -0.4121  0.0865
 8414SOL     OW33421   5.070   5.101   1.059  0.7565  0.4822  0.1462
 8414SOL    HW233422   5.100   5.088   0.969  2.6022 -2.3047  1.0414
 8414SOL    HW333423   5.112   5.182   1.087  1.0344  0.8056 -1.1584
 8414SOL    MW433424   5.079   5.110   1.051  1.0367  0.1572  0.0922
 8415SOL     OW33425   5.673   5.640   6.397  0.1697 -0.1938  0.3810
 8415SOL    HW233426   5.581   5.622   6.380  0.6356 -2.1985 -0.3235
 8415SOL    HW333427   5.708   5.668   6.312  0.4991 -0.8651  0.2876
 8415SOL    MW433428   5.666   5.642   6.383  0.2746 -0.5469  0.2757
 8416SOL     OW33429   3.969   5.094   3.060  0.0095  1.0184 -0.2492
 8416SOL    HW233430   3.891   5.115   3.112 -0.1362 -0.6746  0.2565
 8416SOL    HW333431   4.036   5.075   3.125  0.6852  1.8220 -0.6924
 8416SOL    MW433432   3.967   5.095   3.075  0.0794  0.9011 -0.2410
 8417SOL     OW33433   0.610   3.778   4.684  0.5487 -0.1891 -0.4122
 8417SOL    HW233434   0.606   3.743   4.773  3.8340  1.6803  0.6768
 8417SOL    HW333435   0.587   3.871   4.694  0.7233 -0.0087 -1.5527
 8417SOL    MW433436   0.607   3.786   4.697  1.0052  0.0813 -0.4190
 8418SOL     OW33437   3.431   4.558   0.951  0.7820  0.0422 -0.7803
 8418SOL    HW233438   3.350   4.512   0.972  1.3075 -0.5624  0.0126
 8418SOL    HW333439   3.430   4.636   1.006  1.8839 -1.2468  1.1957
 8418SOL    MW433440   3.420   4.563   0.961  0.9967 -0.2076 -0.4150
 8419SOL     OW33441   3.813   3.968   3.927 -0.0209  0.0214  0.4484
 8419SOL    HW233442   3.884   3.965   3.991  0.5467 -1.2919 -0.2182
 8419SOL    HW333443   3.812   3.881   3.887 -0.4339  0.7656 -1.2630
 8419SOL    MW433444   3.822   3.956   3.930 -0.0005 -0.0537  0.1346
 8420SOL     OW33445   4.232   1.408   2.597  0.1580 -0.2229  0.1405
 8420SOL    HW233446   4.149   1.435   2.636  0.1378 -0.6783  0.4183
 8420SOL    HW333447   4.219   1.316   2.575 -0.1010  0.2123 -1.6771
 8420SOL    MW433448   4.219   1.399   2.599  0.1211 -0.2256 -0.0626
 8421SOL     OW33449   3.893   0.055   6.230  0.2186  0.5304 -0.1011
 8421SOL    HW233450   3.942   0.032   6.151  2.8979 -0.9408  1.8199
 8421SOL    HW333451   3.818   0.106   6.198  1.1105 -0.0669 -3.5430
 8421SOL    MW433452   3.890   0.059   6.215  0.6898  0.2575 -0.3018
 8422SOL     OW33453   6.077   3.194   1.059 -0.0896  0.4524  0.0677
 8422SOL    HW233454   5.987   3.195   1.028 -0.3362  1.2973  0.7526
 8422SOL    HW333455   6.120   3.125   1.008 -1.0823  0.1353 -0.3598
 8422SOL    MW433456   6.071   3.185   1.048 -0.2531  0.5220  0.1017
 8423SOL     OW33457   0.559   5.736   3.743  0.5326 -0.0238  0.0902
 8423SOL    HW233458   0.565   5.825   3.710  0.8746 -0.0679  0.0305
 8423SOL    HW333459   0.565   5.746   3.838  2.7409 -0.1367  0.0141
 8423SOL    MW433460   0.561   5.749   3.752  0.8691 -0.0445  0.0723
 8424SOL     OW33461   4.451   0.205   1.047 -0.3135 -0.4161  0.3023
 8424SOL    HW233462   4.546   0.203   1.036 -0.3807  2.0447 -1.5490
 8424SOL    HW333463   4.437   0.268   1.118 -0.5697  0.5415 -0.5752
 8424SOL    MW433464   4.462   0.213   1.055 -0.3562  0.0349 -0.0577
 8425SOL     OW33465   2.564   4.809   3.105  0.3364  0.4341 -0.6559
 8425SOL    HW233466   2.539   4.739   3.045 -1.1809 -0.3206  0.7607
 8425SOL    HW333467   2.488   4.868   3.105  0.8064  1.0486 -0.3758
 8425SOL    MW433468   2.550   4.808   3.097  0.1982  0.4156 -0.4320
 8426SOL     OW33469   3.921   4.339   0.592 -0.2852  0.0581 -0.5911
 8426SOL    HW233470   3.830   4.309   0.590 -0.2157 -0.3291  0.9549
 8426SOL    HW333471   3.929   4.383   0.677  1.3820 -1.2639 -0.0163
 8426SOL    MW433472   3.910   4.341   0.603 -0.0561 -0.1674 -0.3113
 8427SOL     OW33473   1.555   0.271   4.887 -0.3189 -0.1660  1.4879
 8427SOL    HW233474   1.600   0.312   4.962 -0.7928  0.0420  1.6614
 8427SOL    HW333475   1.613   0.288   4.813 -1.2507  2.3245  1.2150
 8427SOL    MW433476   1.569   0.279   4.887 -0.5043  0.1900  1.4748
 8428SOL     OW33477   2.147   0.485   6.263 -0.0677  0.2177  0.1117
 8428SOL    HW233478   2.178   0.534   6.187  0.5134  1.6951  1.2416
 8428SOL    HW333479   2.058   0.517   6.277 -0.7537 -1.1815 -0.8177
 8428SOL    MW433480   2.139   0.496   6.255 -0.0815  0.2280  0.1382
 8429SOL     OW33481   1.283   3.932   5.677 -0.0754  0.5144  0.3564
 8429SOL    HW233482   1.294   3.851   5.728  0.5401  1.3279  1.5705
 8429SOL    HW333483   1.343   3.922   5.603  2.4538  1.1535  2.1876
 8429SOL    MW433484   1.292   3.920   5.674  0.3395  0.7060  0.7582
 8430SOL     OW33485   5.064   5.092   0.770 -0.2979 -0.6941  0.3312
 8430SOL    HW233486   4.990   5.150   0.787 -0.0195 -0.6128  1.2810
 8430SOL    HW333487   5.025   5.005   0.758 -0.5662 -0.5984  0.5196
 8430SOL    MW433488   5.049   5.088   0.770 -0.2966 -0.6707  0.4814
 8431SOL     OW33489   0.650   1.807   1.034  0.1859 -0.9292  0.3697
 8431SOL    HW233490   0.606   1.758   0.965  0.2829 -1.5266  0.7191
 8431SOL    HW333491   0.628   1.760   1.114 -1.2324  0.6478  0.9674
 8431SOL    MW433492   0.642   1.794   1.036  0.0116 -0.7999  0.4947
 8432SOL     OW33493   6.253   1.826   0.893  0.8250 -0.5643  0.6020
 8432SOL    HW233494   6.292   1.822   0.806 -1.2930  1.3732 -0.5634
 8432SOL    HW333495   6.187   1.757   0.892  0.9518 -0.6871  0.7549
 8432SOL    MW433496   6.249   1.816   0.881  0.5622 -0.3248  0.4684
 8433SOL     OW33497   0.528   5.632   1.709  0.4806 -0.1293 -0.2851
 8433SOL    HW233498   0.461   5.573   1.743 -0.3760  1.1224  0.2705
 8433SOL    HW333499   0.590   5.642   1.782 -0.6706  1.5286  0.5400
 8433SOL    MW433500   0.528   5.626   1.723  0.2157  0.2546 -0.1029
 8434SOL     OW33501   0.252   1.886   3.316  0.4397 -0.9373  0.0935
 8434SOL    HW233502   0.336   1.845   3.297  1.8802  1.7216  0.3151
 8434SOL    HW333503   0.218   1.912   3.230  1.3840  0.7159  0.1741
 8434SOL    MW433504   0.258   1.884   3.302  0.7544 -0.3684  0.1334
 8435SOL     OW33505   5.680   0.236   1.603  0.2412  0.0791 -0.1909
 8435SOL    HW233506   5.698   0.183   1.681 -0.3648 -0.6898 -0.5526
 8435SOL    HW333507   5.732   0.316   1.615  1.3926 -0.7110  0.2417
 8435SOL    MW433508   5.689   0.240   1.615  0.3131 -0.1266 -0.1815
 8436SOL     OW33509   6.267   0.524   3.402 -0.2944 -0.2337  0.4399
 8436SOL    HW233510   6.268   0.559   3.313 -0.8930 -0.8252  0.1927
 8436SOL    HW333511   6.281   0.430   3.392 -1.7723 -0.5231  0.8403
 8436SOL    MW433512   6.269   0.517   3.389 -0.5684 -0.3499  0.4601
 8437SOL     OW33513   4.446   5.833   2.045  0.0855  0.6078 -0.4295
 8437SOL    HW233514   4.362   5.868   2.074  0.4878  1.1382  0.1055
 8437SOL    HW333515   4.509   5.901   2.066  0.3989  1.1177 -2.7075
 8437SOL    MW433516   4.443   5.847   2.052  0.1799  0.7450 -0.6595
 8438SOL     OW33517   5.331   1.716   4.423  0.1164 -0.4827 -0.5809
 8438SOL    HW233518   5.384   1.795   4.416 -1.5183  0.6823 -0.6441
 8438SOL    HW333519   5.326   1.698   4.517 -0.9999  0.6260 -0.3951
 8438SOL    MW433520   5.337   1.724   4.435 -0.2466 -0.1827 -0.5647
 8439SOL     OW33521   2.067   5.114   3.233 -0.0228  0.0431  0.3241
 8439SOL    HW233522   1.998   5.102   3.297  0.7438 -0.8070  1.0093
 8439SOL    HW333523   2.132   5.048   3.254  1.8847  1.9708  0.8790
 8439SOL    MW433524   2.067   5.104   3.244  0.3300  0.1853  0.4877
 8440SOL     OW33525   5.484   5.326   3.435  0.4985 -0.0673  0.2160
 8440SOL    HW233526   5.470   5.396   3.499  0.4126  0.3263 -0.2302
 8440SOL    HW333527   5.400   5.318   3.389  0.9002  0.4470 -0.6299
 8440SOL    MW433528   5.471   5.334   3.438  0.5401  0.0525  0.0456
 8441SOL     OW33529   0.020   2.125   4.181 -0.2480  0.1950 -0.6331
 8441SOL    HW233530  -0.064   2.162   4.205 -0.2016 -0.0042 -0.1541
 8441SOL    HW333531   0.066   2.112   4.264 -0.2722 -0.9593 -0.7835
 8441SOL    MW433532   0.015   2.128   4.195 -0.2451  0.0164 -0.5898
 8442SOL     OW33533   4.354   3.477   3.997  0.1027  0.3359  0.0007
 8442SOL    HW233534   4.259   3.490   4.007  0.2151  0.6158  0.7843
 8442SOL    HW333535   4.386   3.561   3.965 -0.1337 -0.2900 -1.9991
 8442SOL    MW433536   4.345   3.490   3.994  0.0864  0.2903 -0.1597
 8443SOL     OW33537   3.554   2.262   4.353  0.4268  0.6060 -0.2335
 8443SOL    HW233538   3.532   2.177   4.391  0.1110 -0.1244 -1.9412
 8443SOL    HW333539   3.482   2.279   4.293  0.8489  1.7567 -0.4235
 8443SOL    MW433540   3.541   2.253   4.350  0.4408  0.6615 -0.4838
 8444SOL     OW33541   4.318   5.737   3.497 -0.5178 -0.2223 -0.0075
 8444SOL    HW233542   4.348   5.750   3.587 -3.0008 -0.5239  0.9402
 8444SOL    HW333543   4.273   5.653   3.499  0.6838 -0.9764 -1.9498
 8444SOL    MW433544   4.316   5.728   3.510 -0.6869 -0.3616 -0.1387
 8445SOL     OW33545   4.217   6.234   4.233  0.5547 -0.1578 -0.0157
 8445SOL    HW233546   4.292   6.194   4.189  0.5751 -0.2670  0.1164
 8445SOL    HW333547   4.244   6.324   4.250  0.0940  0.2441 -1.3120
 8445SOL    MW433548   4.231   6.241   4.230  0.4966 -0.1192 -0.1693
 8446SOL     OW33549   4.601   1.605   6.265  0.5700  0.0927  0.9961
 8446SOL    HW233550   4.541   1.555   6.210  1.9677 -0.1994 -0.3059
 8446SOL    HW333551   4.675   1.626   6.209  2.2464 -0.5416  2.8245
 8446SOL    MW433552   4.603   1.601   6.251  0.9756 -0.0295  1.0656
 8447SOL     OW33553   4.878   5.169   3.146 -0.2193 -0.0930 -0.2831
 8447SOL    HW233554   4.813   5.159   3.076 -1.7362  3.2511  0.4507
 8447SOL    HW333555   4.840   5.124   3.221 -0.9652  0.4985 -0.2964
 8447SOL    MW433556   4.864   5.161   3.147 -0.5178  0.4263 -0.1880
 8448SOL     OW33557   4.659   1.692   4.518 -0.1281  0.0293  0.2736
 8448SOL    HW233558   4.660   1.719   4.426 -0.1973  0.2063  0.3265
 8448SOL    HW333559   4.716   1.755   4.562  1.5696 -1.2287  0.0101
 8448SOL    MW433560   4.667   1.704   4.511  0.0868 -0.1133  0.2459
 8449SOL     OW33561   1.288   5.277   2.492 -0.2478 -0.4491 -0.0477
 8449SOL    HW233562   1.302   5.369   2.470 -0.9306 -0.0123  1.2011
 8449SOL    HW333563   1.289   5.231   2.408  0.5052  0.6369 -0.6574
 8449SOL    MW433564   1.290   5.283   2.478 -0.2385 -0.2482  0.0367
 8450SOL     OW33565   2.830   6.051   5.963  0.3265  0.2618  0.2364
 8450SOL    HW233566   2.901   6.013   6.015  2.0657  0.3159 -1.9788
 8450SOL    HW333567   2.873   6.101   5.894 -1.8858  1.2114 -0.5770
 8450SOL    MW433568   2.845   6.052   5.961  0.2641  0.3942 -0.1632
 8451SOL     OW33569   0.435   5.328   2.497 -0.1482  0.1411 -0.6463
 8451SOL    HW233570   0.511   5.349   2.551 -0.7798  0.6161  0.0792
 8451SOL    HW333571   0.363   5.318   2.559 -0.6778 -0.3298 -1.3151
 8451SOL    MW433572   0.436   5.330   2.512 -0.3014  0.1416 -0.6388
 8452SOL     OW33573   1.300   6.132   3.873  0.0987  0.3827  0.6080
 8452SOL    HW233574   1.367   6.200   3.880 -0.5281  1.0746  0.0516
 8452SOL    HW333575   1.330   6.074   3.803  0.3655  0.3951  0.7133
 8452SOL    MW433576   1.312   6.133   3.865  0.0512  0.4756  0.5485
 8453SOL     OW33577   3.969   4.507   3.588 -0.1267  0.2211  0.5486
 8453SOL    HW233578   4.021   4.510   3.668  1.7995  0.8393 -0.6323
 8453SOL    HW333579   3.976   4.595   3.552 -0.0542 -0.3148 -0.8163
 8453SOL    MW433580   3.977   4.519   3.594  0.1370  0.2320  0.2127
 8454SOL     OW33581   4.789   6.172   0.471 -0.2503 -0.6410 -0.5910
 8454SOL    HW233582   4.705   6.217   0.480 -0.3635 -0.7573 -1.0462
 8454SOL    HW333583   4.770   6.099   0.412 -0.0142 -1.1454 -0.0443
 8454SOL    MW433584   4.775   6.168   0.464 -0.2341 -0.7229 -0.5789
 8455SOL     OW33585   3.757   1.819   0.081  0.3881  0.5690  0.4170
 8455SOL    HW233586   3.827   1.818   0.147  2.8252 -0.7341 -1.9764
 8455SOL    HW333587   3.707   1.739   0.099  3.1676 -1.7444 -1.2072
 8455SOL    MW433588   3.760   1.808   0.092  1.0764  0.0919 -0.1130
 8456SOL     OW33589   4.211   5.454   1.182  0.0190 -0.0155 -0.2952
 8456SOL    HW233590   4.186   5.433   1.272 -0.1593  0.4882 -0.2236
 8456SOL    HW333591   4.263   5.534   1.189  0.3338 -0.1846 -0.6052
 8456SOL    MW433592   4.215   5.462   1.195  0.0370  0.0286 -0.3266
 8457SOL     OW33593   4.619   5.589   3.688 -0.3494  0.8839 -0.0136
 8457SOL    HW233594   4.696   5.612   3.740 -0.1652  0.8212 -0.2542
 8457SOL    HW333595   4.653   5.576   3.600 -0.1322 -1.8470  0.3721
 8457SOL    MW433596   4.634   5.590   3.683 -0.2964  0.5153  0.0055
 8458SOL     OW33597   1.992   3.549   0.090  0.1226 -0.3717  0.7764
 8458SOL    HW233598   2.070   3.506   0.126 -0.1456 -1.6318 -0.1087
 8458SOL    HW333599   2.026   3.612   0.027  0.4147 -1.4872 -0.2050
 8458SOL    MW433600   2.007   3.552   0.087  0.1258 -0.6851  0.5301
 8459SOL     OW33601   0.045   2.968   2.041 -0.0352  0.2490  0.2199
 8459SOL    HW233602   0.130   2.978   1.996  0.9787 -2.1204  1.4264
 8459SOL    HW333603   0.055   3.017   2.122  0.1481  0.1080  0.2854
 8459SOL    MW433604   0.058   2.976   2.045  0.1227 -0.0822  0.3877
 8460SOL     OW33605   5.639   3.229   2.218  0.2345  0.1277  0.1065
 8460SOL    HW233606   5.708   3.273   2.169 -0.4604  1.8398  0.6125
 8460SOL    HW333607   5.558   3.267   2.186 -0.4855 -1.4638 -0.0783
 8460SOL    MW433608   5.638   3.240   2.207  0.0478  0.1436  0.1488
 8461SOL     OW33609   4.313   4.127   1.103 -0.2067 -0.1145 -0.0410
 8461SOL    HW233610   4.368   4.206   1.108  1.1754 -0.7926 -2.6609
 8461SOL    HW333611   4.300   4.113   1.009 -1.3762 -2.3725  0.3903
 8461SOL    MW433612   4.319   4.136   1.091 -0.1786 -0.5019 -0.3298
 8462SOL     OW33613   6.251   4.908   1.461 -0.0676  0.1016  0.0296
 8462SOL    HW233614   6.171   4.907   1.514 -0.5778 -0.5527 -0.7375
 8462SOL    HW333615   6.279   4.817   1.458 -1.8637 -0.5073 -3.4467
 8462SOL    MW433616   6.244   4.896   1.468 -0.3719 -0.0651 -0.5303
 8463SOL     OW33617   4.681   3.085   5.263  0.4394 -0.5997 -0.2366
 8463SOL    HW233618   4.747   3.114   5.325  0.2734 -0.7471  0.0098
 8463SOL    HW333619   4.598   3.118   5.298  0.3223 -0.8485 -0.2724
 8463SOL    MW433620   4.679   3.093   5.276  0.4020 -0.6520 -0.2088
 8464SOL     OW33621   6.275   0.187   2.945 -0.0248 -0.0953 -0.1391
 8464SOL    HW233622   6.235   0.107   2.911 -0.3232  0.7173 -1.8130
 8464SOL    HW333623   6.211   0.256   2.925 -0.2097  0.4681  2.1140
 8464SOL    MW433624   6.261   0.186   2.938 -0.0886  0.0863 -0.0626
 8465SOL     OW33625   2.927   1.829   2.135  0.2436 -0.2176 -0.0189
 8465SOL    HW233626   2.924   1.804   2.043  3.4285  0.0998 -0.3089
 8465SOL    HW333627   2.962   1.918   2.135 -0.3580  0.0514  1.4828
 8465SOL    MW433628   2.931   1.837   2.123  0.5844 -0.1402  0.1409
 8466SOL     OW33629   1.804   4.675   0.966  0.2693 -0.5316 -0.5623
 8466SOL    HW233630   1.724   4.692   0.916  1.5829  1.1801 -2.2488
 8466SOL    HW333631   1.875   4.708   0.910  1.9331  0.6384  2.0148
 8466SOL    MW433632   1.803   4.682   0.952  0.6621 -0.1514 -0.4448
 8467SOL     OW33633   4.229   0.248   3.978  0.1420 -0.3131 -0.9524
 8467SOL    HW233634   4.277   0.295   3.910  0.6251 -0.0309 -0.4205
 8467SOL    HW333635   4.216   0.313   4.047 -1.7862 -0.1106 -1.4430
 8467SOL    MW433636   4.233   0.263   3.978 -0.0487 -0.2491 -0.9470
 8468SOL     OW33637   1.864   1.297   6.222  0.2993 -0.2129 -0.5108
 8468SOL    HW233638   1.813   1.356   6.278  0.0435 -0.2990 -0.6498
 8468SOL    HW333639   1.952   1.334   6.222 -0.1373  0.8908 -1.5928
 8468SOL    MW433640   1.869   1.309   6.229  0.2079 -0.0786 -0.6719
 8469SOL     OW33641   0.519   3.852   4.309 -0.3461 -0.1749 -0.1617
 8469SOL    HW233642   0.499   3.853   4.216  1.4333  0.2814 -0.5922
 8469SOL    HW333643   0.496   3.940   4.340  1.6659  0.6779 -0.8609
 8469SOL    MW433644   0.514   3.864   4.301  0.1541 -0.0021 -0.3108
 8470SOL     OW33645   4.341   2.157   3.578  0.0448 -0.2494  0.1310
 8470SOL    HW233646   4.321   2.142   3.670  0.5563 -0.2328  0.2490
 8470SOL    HW333647   4.426   2.115   3.565 -0.9449 -2.0768 -0.8459
 8470SOL    MW433648   4.350   2.150   3.588 -0.0183 -0.4883  0.0177
 8471SOL     OW33649   0.027   5.553   1.708  0.1372 -0.0637  0.1349
 8471SOL    HW233650  -0.056   5.591   1.679  0.2218  0.6999  0.8806
 8471SOL    HW333651   0.093   5.617   1.681  0.4187 -0.3282  0.1914
 8471SOL    MW433652   0.025   5.567   1.700  0.1855  0.0021  0.2408
 8472SOL     OW33653   3.442   0.833   3.768 -0.3804 -0.1991 -0.3379
 8472SOL    HW233654   3.492   0.751   3.773  1.1063  0.7622  1.3547
 8472SOL    HW333655   3.434   0.863   3.858  2.3983  3.4022 -1.0613
 8472SOL    MW433656   3.447   0.826   3.780  0.1824  0.4029 -0.2100
 8473SOL     OW33657   2.787   1.345   0.965 -0.1256 -0.0767 -0.0070
 8473SOL    HW233658   2.874   1.308   0.978  0.3430 -0.3938 -3.2561
 8473SOL    HW333659   2.728   1.283   1.007  1.0302 -1.7334 -0.7301
 8473SOL    MW433660   2.790   1.332   0.972  0.0887 -0.3371 -0.5311
 8474SOL     OW33661   0.034   3.900   0.835 -0.3360 -0.0175 -0.0354
 8474SOL    HW233662   0.121   3.934   0.819 -0.2254  0.5575  1.6287
 8474SOL    HW333663   0.049   3.817   0.881 -0.6399  0.4286  0.9021
 8474SOL    MW433664   0.047   3.893   0.839 -0.3615  0.1172  0.3078
 8475SOL     OW33665   4.018   1.267   3.404  0.6263 -0.4066  0.3575
 8475SOL    HW233666   3.965   1.212   3.462  0.9022  1.3449  2.3820
 8475SOL    HW333667   4.108   1.250   3.431  0.8511 -0.4593 -0.4017
 8475SOL    MW433668   4.023   1.257   3.415  0.6924 -0.1825  0.5245
 8476SOL     OW33669   2.360   4.048   2.492 -0.2902 -0.0726  0.1834
 8476SOL    HW233670   2.455   4.041   2.485 -0.2916  1.0945 -1.7768
 8476SOL    HW333671   2.328   3.964   2.458 -0.0026 -0.6778  1.3280
 8476SOL    MW433672   2.368   4.036   2.487 -0.2524  0.0015  0.0758
 8477SOL     OW33673   2.632   4.320   0.604  0.0097 -0.6349  0.3196
 8477SOL    HW233674   2.616   4.395   0.661  1.3811 -0.2525  0.2591
 8477SOL    HW333675   2.554   4.314   0.548  0.1944  1.2651 -0.2086
 8477SOL    MW433676   2.620   4.329   0.604  0.2150 -0.3338  0.2419
 8478SOL     OW33677   2.257   3.372   0.605 -0.1233  0.2051  0.3656
 8478SOL    HW233678   2.250   3.436   0.676  0.2294  0.5903  0.0568
 8478SOL    HW333679   2.170   3.373   0.564 -0.4014 -0.1902  0.9296
 8478SOL    MW433680   2.244   3.381   0.609 -0.1134  0.2037  0.3992
 8479SOL     OW33681   0.768   3.975   2.059 -0.3573  0.2171  0.5609
 8479SOL    HW233682   0.688   3.984   2.006 -0.0013  1.2924  0.1690
 8479SOL    HW333683   0.819   4.054   2.038  0.4083 -0.0196  1.4774
 8479SOL    MW433684   0.764   3.987   2.049 -0.2093  0.3277  0.6301
 8480SOL     OW33685   2.312   3.100   0.655  0.1453 -0.1098 -0.1898
 8480SOL    HW233686   2.294   3.193   0.646  0.7871  0.0873  0.4585
 8480SOL    HW333687   2.226   3.058   0.650 -0.1447  0.5189 -0.4680
 8480SOL    MW433688   2.298   3.106   0.653  0.1917 -0.0008 -0.1409
 8481SOL     OW33689   4.452   5.915   5.653 -0.1676  0.1784 -0.0941
 8481SOL    HW233690   4.379   5.973   5.674 -0.6054 -0.9272  1.6923
 8481SOL    HW333691   4.500   5.960   5.584 -1.7916  1.5475 -0.3881
 8481SOL    MW433692   4.449   5.928   5.647 -0.4396  0.2132  0.1028
 8482SOL     OW33693   4.243   2.425   5.989  0.2506  0.2372  0.2416
 8482SOL    HW233694   4.167   2.434   6.047  0.3257  1.5653  0.1508
 8482SOL    HW333695   4.263   2.514   5.961 -0.2104 -0.4007 -2.3909
 8482SOL    MW433696   4.235   2.438   5.993  0.1997  0.3283 -0.1177
 8483SOL     OW33697   2.040   5.932   5.762  0.3534 -0.1841 -0.5950
 8483SOL    HW233698   2.030   5.894   5.849  0.1856 -0.6684 -0.8232
 8483SOL    HW333699   2.111   5.881   5.722  2.0370  1.5026  0.0674
 8483SOL    MW433700   2.048   5.920   5.768  0.5533 -0.0255 -0.5377
 8484SOL     OW33701   2.017   0.300   2.285 -0.5631  0.4412  0.3095
 8484SOL    HW233702   1.946   0.364   2.288 -0.2244  0.9255 -1.1919
 8484SOL    HW333703   2.023   0.276   2.193  1.0778  0.2351  0.4533
 8484SOL    MW433704   2.008   0.305   2.273 -0.3019  0.4779  0.1304
 8485SOL     OW33705   0.928   1.383   2.217  0.1435 -0.8358  0.4298
 8485SOL    HW233706   0.957   1.372   2.126 -0.5568 -2.5828  0.3778
 8485SOL    HW333707   1.004   1.419   2.262  0.5400 -0.0402 -0.8251
 8485SOL    MW433708   0.942   1.386   2.211  0.1034 -0.9613  0.2574
 8486SOL     OW33709   6.401   1.806   0.628  0.0013  0.1043  0.0926
 8486SOL    HW233710   6.409   1.826   0.535  2.7464  1.2825  0.4728
 8486SOL    HW333711   6.474   1.746   0.645 -1.6609 -1.7229  1.1467
 8486SOL    MW433712   6.412   1.800   0.618  0.1442  0.0187  0.2818
 8487SOL     OW33713   1.958   4.164   5.104  0.6556  0.3455 -0.1916
 8487SOL    HW233714   1.994   4.244   5.140  0.1790  0.3789  0.2333
 8487SOL    HW333715   1.996   4.094   5.157  0.1948  0.3730  0.1803
 8487SOL    MW433716   1.967   4.165   5.116  0.5319  0.3535 -0.0865
 8488SOL     OW33717   2.557   1.549   0.859  0.0561 -0.5611  0.4893
 8488SOL    HW233718   2.603   1.496   0.924  1.9364 -0.3070 -0.5417
 8488SOL    HW333719   2.568   1.639   0.890 -1.0601 -0.5867  0.9970
 8488SOL    MW433720   2.565   1.554   0.871  0.1569 -0.5310  0.4202
 8489SOL     OW33721   4.073   2.683   1.336  0.2100  0.4119  0.2375
 8489SOL    HW233722   4.035   2.681   1.423  0.4293  0.6785  0.3384
 8489SOL    HW333723   4.072   2.775   1.311 -0.1199  0.3082 -0.1613
 8489SOL    MW433724   4.068   2.694   1.344  0.1954  0.4334  0.1982
 8490SOL     OW33725   1.346   4.530   4.329  0.4327  0.0115 -0.1279
 8490SOL    HW233726   1.257   4.524   4.294 -0.1503 -2.6456  1.5182
 8490SOL    HW333727   1.342   4.602   4.393 -1.0427 -1.0634  1.0685
 8490SOL    MW433728   1.334   4.539   4.333  0.1611 -0.4809  0.2471
 8491SOL     OW33729   5.140   1.146   3.268  0.1410  0.0122  0.7015
 8491SOL    HW233730   5.063   1.092   3.251 -0.1428  0.4320  0.6224
 8491SOL    HW333731   5.163   1.127   3.359 -1.0101  1.0437  1.2348
 8491SOL    MW433732   5.133   1.137   3.278 -0.0483  0.2037  0.7614
 8492SOL     OW33733   5.575   1.852   3.636  0.3730  0.2630 -0.0540
 8492SOL    HW233734   5.640   1.871   3.568 -0.4952  2.3865 -0.3503
 8492SOL    HW333735   5.608   1.897   3.713 -0.3383  0.6887  0.0070
 8492SOL    MW433736   5.588   1.860   3.637  0.1646  0.5993 -0.0850
 8493SOL     OW33737   5.361   3.924   1.994  0.1299 -0.2659  0.3285
 8493SOL    HW233738   5.305   3.978   2.050 -2.7387 -0.5553 -1.9624
 8493SOL    HW333739   5.362   3.838   2.036 -0.8605 -0.1312  0.6498
 8493SOL    MW433740   5.353   3.920   2.007 -0.3793 -0.2863  0.0686
 8494SOL     OW33741   0.592   2.836   2.547 -0.1059  0.2441  0.4488
 8494SOL    HW233742   0.571   2.746   2.521 -0.0508  0.1014  0.8901
 8494SOL    HW333743   0.520   2.888   2.513 -0.1998  0.0167  0.2947
 8494SOL    MW433744   0.580   2.831   2.539 -0.1110  0.1953  0.4867
 8495SOL     OW33745   4.055   5.508   4.591  0.0370  0.4537 -0.6326
 8495SOL    HW233746   3.999   5.431   4.600 -0.7692  1.1653  0.9156
 8495SOL    HW333747   4.013   5.560   4.521  0.2479 -0.2181 -1.2658
 8495SOL    MW433748   4.042   5.505   4.583 -0.0416  0.4590 -0.5119
 8496SOL     OW33749   0.682   0.030   0.137  0.7855  0.3371 -0.2759
 8496SOL    HW233750   0.775   0.040   0.116  0.3955  0.6842 -1.9192
 8496SOL    HW333751   0.643   0.113   0.113 -0.3547 -0.6360 -1.9294
 8496SOL    MW433752   0.689   0.042   0.131  0.5836  0.2545 -0.7109
 8497SOL     OW33753   1.271   1.816   1.902  0.1397  0.3956  0.1142
 8497SOL    HW233754   1.295   1.909   1.903 -2.0527  1.2045 -3.4412
 8497SOL    HW333755   1.344   1.773   1.857  0.6918  0.5627  0.8412
 8497SOL    MW433756   1.284   1.823   1.896 -0.0767  0.5244 -0.2590
 8498SOL     OW33757   4.123   1.099   6.211 -0.0892  0.0827  0.3557
 8498SOL    HW233758   4.097   1.088   6.119  0.3518  0.2919  0.2013
 8498SOL    HW333759   4.197   1.159   6.207  0.0308 -0.0333  0.8391
 8498SOL    MW433760   4.129   1.106   6.198 -0.0152  0.0950  0.3991
 8499SOL     OW33761   3.675   2.921   0.830 -0.3348 -0.0738  0.3469
 8499SOL    HW233762   3.595   2.909   0.778 -0.4533  0.0413  0.5000
 8499SOL    HW333763   3.646   2.906   0.920 -0.3356  0.6545  0.4757
 8499SOL    MW433764   3.660   2.917   0.835 -0.3505  0.0375  0.3841
 8500SOL     OW33765   5.740   4.693   4.258  0.3157  0.2025  0.6837
 8500SOL    HW233766   5.789   4.764   4.302  0.4071  0.2539  0.5002
 8500SOL    HW333767   5.804   4.653   4.200  0.0145  0.5802  0.0815
 8500SOL    MW433768   5.755   4.697   4.256  0.2880  0.2591  0.5800
 8501SOL     OW33769   5.096   5.084   5.629  0.3922  0.1388 -0.1117
 8501SOL    HW233770   5.007   5.054   5.614  0.7500 -2.3761  2.0651
 8501SOL    HW333771   5.151   5.008   5.609  1.6281  0.1932  2.5576
 8501SOL    MW433772   5.092   5.070   5.624  0.6025 -0.1858  0.5277
 8502SOL     OW33773   6.203   1.965   3.119 -0.4276  1.1366  0.0410
 8502SOL    HW233774   6.297   1.972   3.139 -0.4291 -1.3897  1.3163
 8502SOL    HW333775   6.200   1.923   3.033 -0.2914 -0.7108  0.8761
 8502SOL    MW433776   6.215   1.960   3.110 -0.4098  0.5596  0.3195
 8503SOL     OW33777   4.642   1.806   3.465  0.7518  0.2202 -0.3258
 8503SOL    HW233778   4.635   1.791   3.559 -0.1977 -0.6087 -0.5092
 8503SOL    HW333779   4.609   1.895   3.453  0.1185  0.0394  0.0417
 8503SOL    MW433780   4.637   1.816   3.476  0.5429  0.0870 -0.3015
 8504SOL     OW33781   0.057   3.292   3.872 -0.2719  0.6292 -0.3886
 8504SOL    HW233782   0.009   3.245   3.804  1.1363 -0.3940 -0.6998
 8504SOL    HW333783   0.131   3.236   3.894  0.5225  1.9325  0.4370
 8504SOL    MW433784   0.060   3.279   3.866  0.0187  0.6661 -0.3207
 8505SOL     OW33785   1.535   1.071   0.505  0.4030  0.3670 -0.3623
 8505SOL    HW233786   1.538   1.121   0.423 -0.9890  3.6024  1.3980
 8505SOL    HW333787   1.442   1.054   0.518  0.7324 -1.3943 -0.0975
 8505SOL    MW433788   1.523   1.075   0.496  0.2628  0.5615 -0.0951
 8506SOL     OW33789   1.892   5.368   4.648  0.4466 -0.2493  0.1359
 8506SOL    HW233790   1.917   5.307   4.717  0.2617 -0.6084 -0.1061
 8506SOL    HW333791   1.952   5.348   4.576  0.0218 -0.5310 -0.1429
 8506SOL    MW433792   1.903   5.357   4.647  0.3661 -0.3339  0.0672
 8507SOL     OW33793   3.895   3.220   1.537 -0.0972  0.0925  0.3188
 8507SOL    HW233794   3.940   3.135   1.542  1.5554  0.9000 -0.0360
 8507SOL    HW333795   3.965   3.285   1.549 -1.1998  1.4150 -0.1518
 8507SOL    MW433796   3.910   3.217   1.539 -0.0246  0.3736  0.2099
 8508SOL     OW33797   3.953   3.917   3.402  0.1873 -0.4833  0.0893
 8508SOL    HW233798   3.993   3.890   3.320 -1.9331 -1.0006 -0.8395
 8508SOL    HW333799   4.019   3.898   3.469  2.0176  0.0925 -1.4704
 8508SOL    MW433800   3.967   3.911   3.400  0.1490 -0.4756 -0.2390
 8509SOL     OW33801   1.186   5.323   5.967 -0.0399  0.0465  0.1926
 8509SOL    HW233802   1.222   5.397   6.017  1.4416 -0.7600  0.3860
 8509SOL    HW333803   1.253   5.303   5.902 -0.2240 -1.3642  0.3982
 8509SOL    MW433804   1.200   5.330   5.965  0.1313 -0.2461  0.2453
 8510SOL     OW33805   1.390   3.422   2.354 -0.1995  0.2736  0.4555
 8510SOL    HW233806   1.474   3.420   2.401  0.4697  1.3711 -0.6393
 8510SOL    HW333807   1.414   3.430   2.262 -1.5170  0.5892  0.1199
 8510SOL    MW433808   1.404   3.423   2.348 -0.2851  0.4600  0.2668
 8511SOL     OW33809   5.694   5.464   2.294 -0.5153  0.0326 -0.6562
 8511SOL    HW233810   5.671   5.447   2.203  0.4778  0.9387 -1.0978
 8511SOL    HW333811   5.789   5.478   2.293 -0.8971  3.5660 -0.0908
 8511SOL    MW433812   5.704   5.463   2.282 -0.4347  0.6183 -0.6399
 8512SOL     OW33813   2.815   4.248   1.364  0.3349  0.2320  0.4512
 8512SOL    HW233814   2.819   4.220   1.273 -0.3110 -0.0818  0.5155
 8512SOL    HW333815   2.776   4.174   1.410 -0.5632  0.8949  0.7705
 8512SOL    MW433816   2.811   4.234   1.358  0.1312  0.2781  0.5018
 8513SOL     OW33817   3.752   3.169   0.367  0.1216  0.3609 -0.2497
 8513SOL    HW233818   3.828   3.114   0.349 -0.2651  0.1141 -1.1973
 8513SOL    HW333819   3.677   3.114   0.344 -0.3039  0.9347 -0.2541
 8513SOL    MW433820   3.752   3.155   0.362  0.0145  0.4041 -0.3753
 8514SOL     OW33821   4.913   6.230   1.612  0.3071  0.5816 -0.4253
 8514SOL    HW233822   4.954   6.251   1.528 -2.2606  0.7156 -1.7431
 8514SOL    HW333823   4.826   6.198   1.589 -1.5304  3.1065  2.2617
 8514SOL    MW433824   4.907   6.229   1.598 -0.2741  0.9324 -0.2446
 8515SOL     OW33825   5.712   3.095   0.631 -0.6961  0.3160 -0.6145
 8515SOL    HW233826   5.706   3.186   0.661 -0.9498  0.5599 -1.3737
 8515SOL    HW333827   5.627   3.078   0.589 -0.6278 -0.2520 -0.5297
 8515SOL    MW433828   5.700   3.105   0.629 -0.7205  0.2733 -0.7034
 8516SOL     OW33829   0.834   2.636   3.934 -0.0653  0.7620  0.0804
 8516SOL    HW233830   0.921   2.624   3.971 -0.1168 -0.9681 -0.2765
 8516SOL    HW333831   0.785   2.681   4.003  0.5244 -0.1564  1.1375
 8516SOL    MW433832   0.839   2.640   3.948  0.0057  0.4126  0.1728
 8517SOL     OW33833   5.120   1.397   3.956 -0.0414  0.4743 -0.0848
 8517SOL    HW233834   5.034   1.393   3.915  0.0306  3.5429 -0.7788
 8517SOL    HW333835   5.174   1.446   3.894  2.0579 -0.7581  0.6447
 8517SOL    MW433836   5.116   1.402   3.943  0.2451  0.7165 -0.0801
 8518SOL     OW33837   0.565   0.419   6.215 -0.1635  0.2288 -0.4700
 8518SOL    HW233838   0.558   0.401   6.121 -1.6087 -2.0455  0.0138
 8518SOL    HW333839   0.656   0.445   6.227  0.3521 -0.5259 -2.3321
 8518SOL    MW433840   0.576   0.420   6.204 -0.2862 -0.1708 -0.6518
 8519SOL     OW33841   6.034   1.408   5.628  0.4787  0.0020  0.3059
 8519SOL    HW233842   5.989   1.452   5.700 -0.7630  3.6335 -2.3729
 8519SOL    HW333843   6.123   1.444   5.630  0.0326  1.2469 -0.7078
 8519SOL    MW433844   6.040   1.419   5.637  0.2560  0.6454 -0.1813
 8520SOL     OW33845   3.531   2.306   0.565 -0.3995 -0.0142  0.1640
 8520SOL    HW233846   3.549   2.213   0.581 -1.4219 -0.2371  0.1168
 8520SOL    HW333847   3.454   2.324   0.618  1.7546  1.7254  2.9440
 8520SOL    MW433848   3.523   2.296   0.574 -0.2502  0.1859  0.5245
 8521SOL     OW33849   1.570   3.569   6.108 -0.4057 -0.4945 -0.6702
 8521SOL    HW233850   1.527   3.649   6.076 -0.0102 -0.1350 -0.3000
 8521SOL    HW333851   1.499   3.505   6.113 -0.7026 -0.2073 -1.0893
 8521SOL    MW433852   1.555   3.571   6.104 -0.3927 -0.4092 -0.6767
 8522SOL     OW33853   4.622   5.997   2.202 -0.0191  0.5856  0.1212
 8522SOL    HW233854   4.628   5.981   2.296  0.0081  2.4496  0.4779
 8522SOL    HW333855   4.712   5.992   2.171  0.1434  1.3408  0.4552
 8522SOL    MW433856   4.634   5.994   2.211  0.0059  0.9312  0.2123
 8523SOL     OW33857   4.746   1.616   0.437 -0.2731 -0.4771  0.9867
 8523SOL    HW233858   4.799   1.553   0.388  0.7233  0.9337  0.1694
 8523SOL    HW333859   4.666   1.627   0.385  0.1610 -0.0530  0.3952
 8523SOL    MW433860   4.742   1.609   0.423 -0.0843 -0.2350  0.8008
 8524SOL     OW33861   6.407   4.459   5.647  0.0311  0.0543 -0.4276
 8524SOL    HW233862   6.460   4.381   5.661  0.9549  0.4257 -1.6000
 8524SOL    HW333863   6.454   4.529   5.692 -1.0771 -0.1178  1.0853
 8524SOL    MW433864   6.420   4.458   5.654  0.0068  0.0806 -0.3826
 8525SOL     OW33865   6.216   5.504   6.349  0.4484 -0.6723  0.0074
 8525SOL    HW233866   6.150   5.447   6.309 -1.1206  0.4129  0.9695
 8525SOL    HW333867   6.180   5.526   6.435  0.9555  1.8544 -0.3693
 8525SOL    MW433868   6.202   5.499   6.355  0.3083 -0.1958  0.0846
 8526SOL     OW33869   0.772   0.808   1.825  0.1898  0.3791 -0.0260
 8526SOL    HW233870   0.851   0.793   1.877  1.5366  1.0014 -1.7688
 8526SOL    HW333871   0.769   0.734   1.764  0.4545  1.2334 -1.1200
 8526SOL    MW433872   0.782   0.797   1.824  0.4024  0.5739 -0.4003
 8527SOL     OW33873   4.829   4.912   3.605 -0.0305 -0.0358  0.1330
 8527SOL    HW233874   4.876   4.888   3.525  0.1643 -0.1498  0.2835
 8527SOL    HW333875   4.744   4.867   3.597 -0.6936  1.3062 -0.8178
 8527SOL    MW433876   4.824   4.903   3.593 -0.0923  0.1262  0.0274
 8528SOL     OW33877   2.077   4.438   5.066  0.1112 -0.0766  0.6876
 8528SOL    HW233878   2.168   4.464   5.047  0.4317 -0.7354  1.2779
 8528SOL    HW333879   2.037   4.427   4.980 -0.8456  4.8944  0.1865
 8528SOL    MW433880   2.084   4.440   5.052  0.0273  0.4924  0.6994
 8529SOL     OW33881   3.949   5.809   3.975 -0.1182  0.3330 -0.2285
 8529SOL    HW233882   4.009   5.860   4.029  0.2001  1.8291 -1.9057
 8529SOL    HW333883   3.949   5.853   3.890 -4.2268  0.9755 -0.1301
 8529SOL    MW433884   3.957   5.821   3.971 -0.6183  0.6152 -0.4368
 8530SOL     OW33885   0.254   2.890   1.038  0.1947  0.0824  0.2645
 8530SOL    HW233886   0.179   2.837   1.065  0.7102 -0.7694  0.0567
 8530SOL    HW333887   0.290   2.925   1.120  0.4304 -0.6851  0.4964
 8530SOL    MW433888   0.249   2.888   1.052  0.2938 -0.1313  0.2677
 8531SOL     OW33889   3.732   5.705   1.404  0.3094  0.2016  0.5039
 8531SOL    HW233890   3.773   5.731   1.486 -0.3736 -1.8102  1.5568
 8531SOL    HW333891   3.805   5.692   1.343  0.7505  2.9895  0.3011
 8531SOL    MW433892   3.747   5.707   1.407  0.2775  0.3040  0.6161
 8532SOL     OW33893   3.138   1.985   0.157  0.3502 -0.1270  0.3487
 8532SOL    HW233894   3.203   1.972   0.227  0.6043 -0.0203  0.1326
 8532SOL    HW333895   3.087   1.904   0.158  0.3210 -0.1081  0.6910
 8532SOL    MW433896   3.140   1.973   0.166  0.3799 -0.1105  0.3654
 8533SOL     OW33897   5.469   4.880   5.768  0.2192 -0.0092 -0.0921
 8533SOL    HW233898   5.511   4.963   5.789  0.8918 -0.2557 -0.4479
 8533SOL    HW333899   5.528   4.837   5.706 -1.9886  1.0260 -3.1857
 8533SOL    MW433900   5.482   4.885   5.763  0.0167  0.0948 -0.5472
 8534SOL     OW33901   1.870   0.585   6.266  0.0083 -0.3930 -1.1389
 8534SOL    HW233902   1.872   0.587   6.170  0.6649 -0.7997 -1.1379
 8534SOL    HW333903   1.778   0.570   6.288 -0.0766 -0.7154 -1.7119
 8534SOL    MW433904   1.858   0.584   6.256  0.0838 -0.4892 -1.2143
 8535SOL     OW33905   5.895   1.269   2.101 -0.4189 -0.0868  0.0722
 8535SOL    HW233906   5.807   1.295   2.074 -1.2775 -0.0402  2.5862
 8535SOL    HW333907   5.904   1.179   2.069 -1.2028  0.0709 -0.6215
 8535SOL    MW433908   5.884   1.260   2.093 -0.6356 -0.0598  0.3124
 8536SOL     OW33909   4.291   3.755   4.285  0.2914  0.1769 -0.2333
 8536SOL    HW233910   4.250   3.752   4.199 -1.0326 -2.7199  0.3777
 8536SOL    HW333911   4.244   3.823   4.333 -2.3875 -1.4760 -0.3121
 8536SOL    MW433912   4.280   3.764   4.280 -0.2368 -0.4233 -0.1631
 8537SOL     OW33913   2.674   6.027   4.586 -0.3450  0.1807 -0.0787
 8537SOL    HW233914   2.709   6.111   4.553  1.0437  0.3403  1.6539
 8537SOL    HW333915   2.739   5.962   4.559 -1.5738 -0.4475 -1.6911
 8537SOL    MW433916   2.687   6.030   4.578 -0.3239  0.1189 -0.0628
 8538SOL     OW33917   0.746   2.033   4.374 -0.7085  0.0590 -0.5366
 8538SOL    HW233918   0.795   2.099   4.423  0.1428 -1.2698  0.4925
 8538SOL    HW333919   0.771   2.048   4.283  1.2169 -0.1857 -0.1041
 8538SOL    MW433920   0.756   2.043   4.368 -0.3422 -0.1486 -0.3438
 8539SOL     OW33921   1.356   2.368   3.139 -0.2909 -0.1743  0.4253
 8539SOL    HW233922   1.369   2.274   3.154 -0.3163 -0.2962 -0.2798
 8539SOL    HW333923   1.388   2.409   3.219 -0.1431 -0.7750  0.6853
 8539SOL    MW433924   1.362   2.361   3.151 -0.2747 -0.2696  0.3666
 8540SOL     OW33925   1.672   0.092   6.072  0.3726  0.7327 -0.6868
 8540SOL    HW233926   1.705   0.041   6.146  0.1359  1.5204 -0.0269
 8540SOL    HW333927   1.603   0.037   6.034  0.1480  0.5380 -0.0101
 8540SOL    MW433928   1.667   0.078   6.077  0.3118  0.8109 -0.5105
 8541SOL     OW33929   0.396   3.316   1.590  0.3148  0.3129  0.1060
 8541SOL    HW233930   0.368   3.367   1.514  1.0094  1.9142  0.8763
 8541SOL    HW333931   0.315   3.278   1.624  0.1551 -1.9134 -2.3575
 8541SOL    MW433932   0.382   3.318   1.584  0.3854  0.2305 -0.1174
 8542SOL     OW33933   2.003   4.831   5.829  0.3542 -0.6163  0.3020
 8542SOL    HW233934   2.089   4.871   5.836  0.4084 -0.4958 -0.9749
 8542SOL    HW333935   2.003   4.763   5.896  1.6002 -0.9166  0.0168
 8542SOL    MW433936   2.014   4.828   5.839  0.5258 -0.6400  0.0959
 8543SOL     OW33937   5.044   4.318   3.196 -0.1330  0.6596  0.3965
 8543SOL    HW233938   5.132   4.282   3.205 -0.1164  0.2298 -1.2722
 8543SOL    HW333939   5.054   4.394   3.140 -0.9611 -0.0592 -0.7791
 8543SOL    MW433940   5.057   4.323   3.190 -0.2400  0.5081  0.0212
 8544SOL     OW33941   2.875   2.017   3.804  0.2918  0.3092  0.3847
 8544SOL    HW233942   2.944   1.965   3.846  0.4504  0.8424  0.8002
 8544SOL    HW333943   2.923   2.089   3.762  0.0134  0.4837  0.3701
 8544SOL    MW433944   2.891   2.019   3.804  0.2760  0.4025  0.4376
 8545SOL     OW33945   1.523   4.290   0.436  0.0424 -0.1522  0.5398
 8545SOL    HW233946   1.510   4.383   0.419 -0.5734 -0.0526  1.4710
 8545SOL    HW333947   1.551   4.253   0.352 -2.0617  0.4292 -0.4682
 8545SOL    MW433948   1.525   4.297   0.423 -0.3164 -0.0623  0.5297
 8546SOL     OW33949   0.041   1.269   4.163 -0.3143 -0.4028  0.1748
 8546SOL    HW233950   0.065   1.328   4.091 -1.6157  1.2561  1.0212
 8546SOL    HW333951   0.098   1.295   4.235 -1.6859  0.6974  0.9142
 8546SOL    MW433952   0.051   1.280   4.163 -0.6670 -0.0388  0.3840
 8547SOL     OW33953   0.586   0.388   4.691  0.3054  0.5647 -0.2511
 8547SOL    HW233954   0.579   0.306   4.643 -0.4769 -0.3242  1.2747
 8547SOL    HW333955   0.517   0.443   4.654  0.8108  0.5446 -1.2611
 8547SOL    MW433956   0.576   0.384   4.680  0.2689  0.4447 -0.1830
 8548SOL     OW33957   3.554   5.587   4.283  0.0252  0.7742 -0.6520
 8548SOL    HW233958   3.603   5.509   4.311  0.6125  1.3804  0.0437
 8548SOL    HW333959   3.617   5.659   4.291 -1.0844  1.6347  0.6588
 8548SOL    MW433960   3.569   5.586   4.288 -0.0437  0.9677 -0.3873
 8549SOL     OW33961   5.901   0.860   2.592  0.1578  0.2010 -0.1155
 8549SOL    HW233962   5.996   0.847   2.594  0.3023  1.2287  0.9548
 8549SOL    HW333963   5.870   0.824   2.675 -0.1577  1.2887  0.2662
 8549SOL    MW433964   5.910   0.854   2.603  0.1353  0.4801  0.0761
 8550SOL     OW33965   1.021   5.474   3.189  0.0572  0.3075 -0.5975
 8550SOL    HW233966   0.983   5.417   3.122 -1.8275 -0.1162  0.7527
 8550SOL    HW333967   1.012   5.562   3.154 -0.1505  0.0283 -1.2583
 8550SOL    MW433968   1.015   5.478   3.176 -0.2189  0.2147 -0.5065
 8551SOL     OW33969   2.302   1.883   5.880 -0.1251  0.0915 -0.2295
 8551SOL    HW233970   2.321   1.904   5.971 -0.0112  2.0513 -0.6630
 8551SOL    HW333971   2.287   1.789   5.880  0.9471 -0.1270  1.6151
 8551SOL    MW433972   2.302   1.874   5.892  0.0314  0.3213 -0.0433
 8552SOL     OW33973   5.471   2.257   4.229  0.5238  0.3997 -0.1713
 8552SOL    HW233974   5.468   2.350   4.205 -2.1222  0.0560 -1.6296
 8552SOL    HW333975   5.446   2.255   4.321 -1.7647  1.0945 -0.7026
 8552SOL    MW433976   5.467   2.269   4.238 -0.1272  0.4460 -0.4338
 8553SOL     OW33977   5.935   1.022   4.381  0.0127 -0.2420 -0.1932
 8553SOL    HW233978   6.001   1.087   4.405 -0.8066  1.3197 -1.9039
 8553SOL    HW333979   5.956   0.999   4.290 -0.9646 -0.7385 -0.3095
 8553SOL    MW433980   5.946   1.028   4.372 -0.2243 -0.1015 -0.4343
 8554SOL     OW33981   1.135   2.493   3.737 -0.2150 -0.3420  0.2023
 8554SOL    HW233982   1.088   2.554   3.679 -1.2289 -1.2840 -0.0063
 8554SOL    HW333983   1.204   2.457   3.682 -0.2871 -0.1781  0.0008
 8554SOL    MW433984   1.138   2.497   3.722 -0.3583 -0.4446  0.1482
 8555SOL     OW33985   2.590   0.026   4.964  0.2110  0.3982  0.9237
 8555SOL    HW233986   2.660   0.060   5.020  0.5846 -0.1649  0.8008
 8555SOL    HW333987   2.574  -0.062   4.997 -1.7774  1.1650  2.2038
 8555SOL    MW433988   2.597   0.019   4.976 -0.0020  0.4250  1.0764
 8556SOL     OW33989   2.337   1.201   3.510 -0.3179  0.1744 -0.0858
 8556SOL    HW233990   2.414   1.150   3.487  0.1795  0.9943 -0.2970
 8556SOL    HW333991   2.290   1.147   3.574  1.1981  0.2907  1.1713
 8556SOL    MW433992   2.341   1.187   3.515 -0.0523  0.2979  0.0522
 8557SOL     OW33993   5.302   1.436   5.604 -0.0044 -0.2616  0.1824
 8557SOL    HW233994   5.256   1.356   5.629  1.7458 -1.6658 -0.8128
 8557SOL    HW333995   5.288   1.444   5.510 -0.7380  1.0178  0.3866
 8557SOL    MW433996   5.294   1.426   5.595  0.1297 -0.2780  0.0780
 8558SOL     OW33997   5.707   2.570   3.422  0.5036  0.1964  0.6326
 8558SOL    HW233998   5.722   2.477   3.404  0.6107  0.3549 -0.1124
 8558SOL    HW333999   5.793   2.604   3.446  0.9702  0.6277 -1.4993
 8558SOL    MW434000   5.720   2.562   3.423  0.5793  0.2742  0.2531
 8559SOL     OW34001   5.123   1.708   4.258 -0.1138  0.2899  0.0709
 8559SOL    HW234002   5.115   1.802   4.268 -0.6261  0.4475 -1.5267
 8559SOL    HW334003   5.202   1.685   4.306  0.4501  1.6484 -0.1835
 8559SOL    MW434004   5.132   1.717   4.266 -0.1070  0.4900 -0.1735
 8560SOL     OW34005   5.280   5.605   3.486  0.2757 -0.1831  0.1929
 8560SOL    HW234006   5.184   5.602   3.486  0.2563  0.1159  1.0265
 8560SOL    HW334007   5.301   5.698   3.481  0.5498 -0.2921 -1.0272
 8560SOL    MW434008   5.270   5.617   3.486  0.3093 -0.1581  0.1419
 8561SOL     OW34009   0.297   4.692   2.185  0.0241 -0.1678 -0.6085
 8561SOL    HW234010   0.255   4.710   2.269 -0.5141 -2.0938 -0.3997
 8561SOL    HW334011   0.366   4.628   2.205  1.0898  0.6901 -1.3931
 8561SOL    MW434012   0.301   4.686   2.199  0.0937 -0.3087 -0.6845
 8562SOL     OW34013   6.053   1.178   4.056  0.5924 -0.6978  0.5351
 8562SOL    HW234014   6.081   1.246   3.995 -1.4954  0.2591  0.5733
 8562SOL    HW334015   6.134   1.151   4.100  1.5519  1.4884  0.2489
 8562SOL    MW434016   6.067   1.184   4.054  0.4436 -0.2831  0.5023
 8563SOL     OW34017   5.607   3.620   1.506 -0.4932 -0.8641  0.3776
 8563SOL    HW234018   5.566   3.602   1.422 -0.4617 -0.3410  0.2483
 8563SOL    HW334019   5.701   3.617   1.489 -0.4754 -1.6322  0.5828
 8563SOL    MW434020   5.614   3.617   1.493 -0.4867 -0.8965  0.3876
 8564SOL     OW34021   1.076   1.152   0.532  0.6053  0.6478 -0.6146
 8564SOL    HW234022   1.049   1.126   0.444  0.2229 -0.1582 -0.2668
 8564SOL    HW334023   1.151   1.210   0.518  1.8499 -1.0587 -1.4164
 8564SOL    MW434024   1.082   1.156   0.519  0.7190  0.3163 -0.6745
 8565SOL     OW34025   5.058   1.421   6.052  0.0666  0.4481  0.1940
 8565SOL    HW234026   5.074   1.490   5.987  1.6392 -0.7255 -0.7279
 8565SOL    HW334027   5.142   1.410   6.097 -0.6038  0.2025  1.4266
 8565SOL    MW434028   5.071   1.429   6.049  0.1857  0.2609  0.2350
 8566SOL     OW34029   5.698   1.424   4.456  0.3665 -0.4630 -0.1051
 8566SOL    HW234030   5.691   1.363   4.530 -1.5586  0.9822  1.0039
 8566SOL    HW334031   5.754   1.494   4.489 -0.7959  0.3659  0.1399
 8566SOL    MW434032   5.705   1.425   4.470 -0.0408 -0.1630  0.0735
 8567SOL     OW34033   1.949   4.602   5.981  0.2146 -0.0201  0.4141
 8567SOL    HW234034   1.856   4.580   5.987  0.6629 -1.8153  1.7610
 8567SOL    HW334035   1.975   4.622   6.071  0.8278  1.9522 -0.1657
 8567SOL    MW434036   1.940   4.602   5.994  0.3547  0.0033  0.5153
 8568SOL     OW34037   4.757   0.456   1.210  0.5013 -0.1756  0.3834
 8568SOL    HW234038   4.847   0.424   1.217  0.4873 -0.0927  1.0557
 8568SOL    HW334039   4.737   0.451   1.117  1.1302 -0.3911  0.2513
 8568SOL    MW434040   4.766   0.451   1.199  0.5824 -0.1931  0.4547
 8569SOL     OW34041   0.234   3.870   4.316  0.5052 -0.2724  0.3149
 8569SOL    HW234042   0.192   3.913   4.242 -0.3299  0.1356  1.0080
 8569SOL    HW334043   0.163   3.851   4.376  1.2704  0.2157  1.4106
 8569SOL    MW434044   0.219   3.873   4.314  0.4960 -0.1542  0.5509
 8570SOL     OW34045   6.338   5.310   4.567  0.3423 -0.1400 -0.2904
 8570SOL    HW234046   6.405   5.351   4.513  0.0097  1.0509  0.1862
 8570SOL    HW334047   6.369   5.323   4.657  0.4163 -1.2796 -0.1277
 8570SOL    MW434048   6.351   5.317   4.572  0.3082 -0.1332 -0.2061
 8571SOL     OW34049   4.627   3.589   2.935 -0.2833  0.0298 -0.1856
 8571SOL    HW234050   4.632   3.671   2.885 -1.7299 -0.1824 -0.7316
 8571SOL    HW334051   4.697   3.534   2.898 -0.5389  0.3325 -1.1487
 8571SOL    MW434052   4.637   3.592   2.923 -0.5079  0.0417 -0.3847
 8572SOL     OW34053   5.966   3.156   2.175 -0.2239 -0.4281 -0.5549
 8572SOL    HW234054   6.042   3.102   2.194  0.9901  1.6513  1.0367
 8572SOL    HW334055   6.002   3.244   2.161 -2.2933  0.5628 -0.0880
 8572SOL    MW434056   5.981   3.161   2.176 -0.3367 -0.0230 -0.2833
 8573SOL     OW34057   2.408   0.453   5.839 -0.0501 -0.1196  0.2956
 8573SOL    HW234058   2.490   0.452   5.789  0.8165  0.4045  1.6444
 8573SOL    HW334059   2.430   0.412   5.923 -0.2701  2.8048  1.9283
 8573SOL    MW434060   2.422   0.448   5.844  0.0352  0.3354  0.6890
 8574SOL     OW34061   1.677   2.674   2.860 -0.5258 -0.0430 -0.1468
 8574SOL    HW234062   1.605   2.691   2.922 -0.0685  0.8076  0.1593
 8574SOL    HW334063   1.755   2.666   2.915 -0.1199  0.6736 -0.6079
 8574SOL    MW434064   1.677   2.675   2.876 -0.4119  0.1637 -0.1673
 8575SOL     OW34065   0.794   3.364   3.593  0.3928 -0.3890  0.1031
 8575SOL    HW234066   0.881   3.327   3.577  1.0178 -0.4374  3.0888
 8575SOL    HW334067   0.753   3.304   3.654 -1.0737  0.5811  0.1223
 8575SOL    MW434068   0.800   3.351   3.599  0.2818 -0.2674  0.4996
 8576SOL     OW34069   4.873   4.645   2.284  0.4920 -0.1399  0.5299
 8576SOL    HW234070   4.810   4.590   2.237  0.6171  0.8945 -0.9470
 8576SOL    HW334071   4.955   4.596   2.281  0.8594  0.4970 -1.6948
 8576SOL    MW434072   4.876   4.632   2.277  0.5570  0.0806  0.0415
 8577SOL     OW34073   1.136   4.817   0.761  0.2992  0.1065 -0.3607
 8577SOL    HW234074   1.175   4.902   0.780 -1.2577  0.8680 -0.4347
 8577SOL    HW334075   1.202   4.772   0.708  1.0725  1.3357 -0.4784
 8577SOL    MW434076   1.150   4.822   0.756  0.1958  0.3692 -0.3860
 8578SOL     OW34077   2.336   2.605   3.143  0.4298 -0.1640  0.1051
 8578SOL    HW234078   2.373   2.517   3.149  1.1856 -0.0136 -1.6000
 8578SOL    HW334079   2.333   2.637   3.233 -3.1415 -3.1911  1.2750
 8578SOL    MW434080   2.341   2.598   3.155  0.0583 -0.5436  0.0345
 8579SOL     OW34081   0.208   0.391   4.836 -0.3946  0.1299  0.3690
 8579SOL    HW234082   0.282   0.334   4.859 -0.6142 -1.1681 -1.9034
 8579SOL    HW334083   0.145   0.377   4.907  0.0031 -1.6565  0.4149
 8579SOL    MW434084   0.210   0.381   4.849 -0.3711 -0.2770  0.0753
 8580SOL     OW34085   2.262   1.666   4.415 -0.5972  0.0073  0.8646
 8580SOL    HW234086   2.247   1.704   4.328 -1.7067 -2.8327 -0.2925
 8580SOL    HW334087   2.356   1.679   4.431 -0.6740  1.9712 -0.0113
 8580SOL    MW434088   2.273   1.673   4.405 -0.7537 -0.1083  0.5964
 8581SOL     OW34089   4.430   0.413   6.350  0.3263 -0.3033 -0.6919
 8581SOL    HW234090   4.495   0.386   6.286  2.3631 -1.2899  1.6281
 8581SOL    HW334091   4.354   0.439   6.298  2.4484  0.7271 -3.5484
 8581SOL    MW434092   4.429   0.413   6.335  0.8750 -0.2975 -0.7626
 8582SOL     OW34093   2.400   2.861   3.000  0.4554 -0.0130 -0.3540
 8582SOL    HW234094   2.367   2.801   2.933  2.0209 -0.0394 -1.1702
 8582SOL    HW334095   2.338   2.854   3.071 -0.6801 -0.8259 -1.3764
 8582SOL    MW434096   2.388   2.852   3.000  0.5122 -0.1238 -0.5965
 8583SOL     OW34097   1.973   5.733   5.349 -0.1719  0.1287 -0.5858
 8583SOL    HW234098   1.979   5.818   5.392  0.0724  0.0879 -0.5406
 8583SOL    HW334099   2.059   5.719   5.309 -0.3519  0.1048 -0.9740
 8583SOL    MW434100   1.985   5.742   5.349 -0.1634  0.1202 -0.6311
 8584SOL     OW34101   5.390   4.445   2.656 -0.0506  0.1495 -0.1598
 8584SOL    HW234102   5.480   4.473   2.676 -0.6470  1.7025  0.5173
 8584SOL    HW334103   5.390   4.351   2.672  1.2667  0.2366  0.5193
 8584SOL    MW434104   5.402   4.437   2.660  0.0445  0.3659  0.0191
 8585SOL     OW34105   6.004   4.363   5.191  0.4006 -0.0840  0.0878
 8585SOL    HW234106   5.991   4.421   5.115  0.9858  0.6951  0.5672
 8585SOL    HW334107   5.999   4.275   5.154 -0.4102  0.2598 -0.6778
 8585SOL    MW434108   6.001   4.359   5.176  0.3708  0.0641  0.0500
 8586SOL     OW34109   6.127   4.103   3.342 -0.1479 -0.0486 -0.3455
 8586SOL    HW234110   6.092   4.188   3.318 -0.6976  0.2351  1.3174
 8586SOL    HW334111   6.092   4.086   3.430  1.0706 -1.3547 -0.0615
 8586SOL    MW434112   6.118   4.112   3.351 -0.0596 -0.1835 -0.0886
 8587SOL     OW34113   2.052   1.563   2.857 -0.4089 -0.5958  0.6650
 8587SOL    HW234114   2.077   1.575   2.948 -2.7358  0.9698  1.1896
 8587SOL    HW334115   2.103   1.628   2.809 -1.4559  0.7964  1.3517
 8587SOL    MW434116   2.062   1.573   2.863 -0.8541 -0.2056  0.8248
 8588SOL     OW34117   5.871   3.658   1.170  0.0961  0.4499 -0.2613
 8588SOL    HW234118   5.848   3.728   1.232 -0.1419  0.7892 -0.7239
 8588SOL    HW334119   5.942   3.611   1.213  0.1395  0.8687  0.1405
 8588SOL    MW434120   5.877   3.661   1.184  0.0704  0.5499 -0.2693
 8589SOL     OW34121   1.563   1.510   3.227  0.2107  0.3840 -0.2580
 8589SOL    HW234122   1.480   1.548   3.255  0.0034  0.1905 -0.6028
 8589SOL    HW334123   1.585   1.448   3.297  1.0271  1.7956  0.7791
 8589SOL    MW434124   1.555   1.507   3.240  0.2911  0.5447 -0.1666
 8590SOL     OW34125   0.125   3.206   0.489 -0.2777 -0.2681  0.5577
 8590SOL    HW234126   0.170   3.134   0.533 -0.6356  0.0854  1.5414
 8590SOL    HW334127   0.043   3.168   0.458 -0.3582 -0.3523  0.8663
 8590SOL    MW434128   0.120   3.192   0.491 -0.3356 -0.2326  0.7282
 8591SOL     OW34129   2.140   5.407   0.948  0.2690 -0.3885  0.2240
 8591SOL    HW234130   2.062   5.417   1.003  0.6704  1.0683  0.5610
 8591SOL    HW334131   2.157   5.495   0.915  1.3138 -0.8459 -0.4808
 8591SOL    MW434132   2.132   5.420   0.951  0.4598 -0.2567  0.1755
 8592SOL     OW34133   4.123   1.288   0.423 -0.2058 -0.1025  0.3833
 8592SOL    HW234134   4.161   1.339   0.352 -0.9436 -1.0981 -0.7742
 8592SOL    HW334135   4.170   1.205   0.421 -0.3760 -0.2170  0.9328
 8592SOL    MW434136   4.134   1.284   0.413 -0.3256 -0.2489  0.3031
 8593SOL     OW34137   2.692   3.517   5.684  0.1214  0.2612 -0.4468
 8593SOL    HW234138   2.757   3.578   5.719  0.6114 -0.4194 -0.1527
 8593SOL    HW334139   2.608   3.551   5.715  0.1997  1.8111 -1.7778
 8593SOL    MW434140   2.690   3.530   5.693  0.1964  0.3759 -0.5836
 8594SOL     OW34141   2.614   4.106   5.543 -0.2148 -0.5693  0.0120
 8594SOL    HW234142   2.557   4.176   5.575 -0.0430 -1.2509  1.9057
 8594SOL    HW334143   2.558   4.054   5.486 -0.5715  0.5763 -0.7353
 8594SOL    MW434144   2.599   4.109   5.540 -0.2392 -0.5081  0.1632
 8595SOL     OW34145   1.579   3.920   4.282  0.0632  0.4923 -0.5084
 8595SOL    HW234146   1.658   3.973   4.293 -0.3795  1.5125 -1.8582
 8595SOL    HW334147   1.525   3.971   4.221 -0.5722 -1.3439 -1.5540
 8595SOL    MW434148   1.582   3.934   4.275 -0.0790  0.3847 -0.8245
 8596SOL     OW34149   3.822   3.080   1.112  0.3225 -0.0372 -0.0035
 8596SOL    HW234150   3.834   3.150   1.176  1.4621 -0.4105  0.2262
 8596SOL    HW334151   3.849   3.120   1.029  0.7044 -0.1134  0.0809
 8596SOL    MW434152   3.827   3.095   1.109  0.5233 -0.0965  0.0379
 8597SOL     OW34153   3.981   2.273   2.406 -0.0659 -0.2308 -0.0244
 8597SOL    HW234154   4.012   2.242   2.320  0.4513 -0.5146  0.2604
 8597SOL    HW334155   3.887   2.284   2.394 -0.1229 -1.0180 -0.4129
 8597SOL    MW434156   3.973   2.270   2.393 -0.0051 -0.3721 -0.0381
 8598SOL     OW34157   5.673   2.636   2.287 -0.5377 -0.0259  0.4737
 8598SOL    HW234158   5.641   2.726   2.284  0.0005  0.1717  0.5957
 8598SOL    HW334159   5.625   2.591   2.217 -1.0769  0.2628  0.6471
 8598SOL    MW434160   5.662   2.642   2.278 -0.5378  0.0383  0.5127
 8599SOL     OW34161   2.110   4.899   1.236  0.5873 -0.0499 -0.0201
 8599SOL    HW234162   2.049   4.848   1.183 -1.3203  1.7178  0.3263
 8599SOL    HW334163   2.127   4.978   1.184 -0.0964  1.0020  1.2843
 8599SOL    MW434164   2.104   4.903   1.222  0.2454  0.3221  0.1977
 8600SOL     OW34165   2.319   0.840   2.981 -0.3747 -0.1208 -0.1800
 8600SOL    HW234166   2.250   0.894   3.019 -0.3939  1.0359 -1.7465
 8600SOL    HW334167   2.336   0.880   2.896  1.8133 -0.7351 -0.0963
 8600SOL    MW434168   2.312   0.853   2.975 -0.0885 -0.0493 -0.3757
 8601SOL     OW34169   0.173   4.247   4.683 -0.2941  0.4759  0.4066
 8601SOL    HW234170   0.180   4.153   4.669 -0.0061  0.5426  0.0808
 8601SOL    HW334171   0.224   4.286   4.611 -0.1107  0.8680  0.7435
 8601SOL    MW434172   0.181   4.240   4.671 -0.2319  0.5365  0.4080
 8602SOL     OW34173   1.736   3.199   3.263  0.1778  0.1137 -0.5524
 8602SOL    HW234174   1.725   3.122   3.208  1.3995  1.1983 -2.3814
 8602SOL    HW334175   1.783   3.167   3.340 -1.1360 -1.3287 -0.2983
 8602SOL    MW434176   1.740   3.184   3.266  0.1656  0.0665 -0.7602
 8603SOL     OW34177   5.864   4.727   2.669  0.1391  0.0973  0.2317
 8603SOL    HW234178   5.825   4.802   2.623  0.2219 -1.8580 -3.4365
 8603SOL    HW334179   5.951   4.717   2.630 -0.1242 -2.2546  0.0766
 8603SOL    MW434180   5.870   4.736   2.657  0.1153 -0.4709 -0.2727
 8604SOL     OW34181   2.930   2.842   1.197  0.1599  0.1714 -0.0340
 8604SOL    HW234182   3.025   2.849   1.194  0.2439  0.1567 -4.5637
 8604SOL    HW334183   2.901   2.929   1.225  1.5158  0.7974 -0.4970
 8604SOL    MW434184   2.939   2.855   1.201  0.3499  0.2520 -0.6927
 8605SOL     OW34185   4.250   3.205   4.452 -0.2856  0.6566 -0.0487
 8605SOL    HW234186   4.180   3.141   4.464 -0.8140  0.8375 -1.9813
 8605SOL    HW334187   4.211   3.275   4.400  0.5713  2.1161  1.1604
 8605SOL    MW434188   4.235   3.206   4.447 -0.2423  0.8730 -0.1441
 8606SOL     OW34189   3.200   0.801   5.168 -0.1838  0.4235 -0.3414
 8606SOL    HW234190   3.261   0.873   5.154 -1.4759  1.3348 -1.6744
 8606SOL    HW334191   3.184   0.800   5.262  4.3199 -1.9995  0.6966
 8606SOL    MW434192   3.206   0.810   5.178  0.2400  0.2241 -0.3803
 8607SOL     OW34193   1.996   5.316   2.301 -0.0632  0.1690  0.4158
 8607SOL    HW234194   1.946   5.384   2.255  1.0714  0.2539 -0.7517
 8607SOL    HW334195   2.000   5.243   2.239  0.6683 -0.0889  0.7597
 8607SOL    MW434196   1.990   5.316   2.286  0.1830  0.1461  0.3071
 8608SOL     OW34197   5.413   1.858   0.543  0.4600  0.2039 -0.6658
 8608SOL    HW234198   5.487   1.826   0.595 -1.0439 -2.9442 -0.2184
 8608SOL    HW334199   5.350   1.889   0.608  1.0126  2.1795 -1.0113
 8608SOL    MW434200   5.414   1.857   0.558  0.3345  0.0492 -0.6524
 8609SOL     OW34201   2.922   1.577   4.752  0.0174 -0.0900  0.7591
 8609SOL    HW234202   2.864   1.504   4.729 -0.3322  0.4466 -0.1387
 8609SOL    HW334203   2.872   1.655   4.726 -0.0864  0.5371  2.7045
 8609SOL    MW434204   2.907   1.578   4.746 -0.0424  0.0636  0.8973
 8610SOL     OW34205   2.921   5.274   1.421 -0.3674  0.0376 -0.2313
 8610SOL    HW234206   2.832   5.239   1.423  0.4591 -2.4222 -1.9800
 8610SOL    HW334207   2.948   5.275   1.513 -1.4578 -1.2709  0.1353
 8610SOL    MW434208   2.913   5.269   1.434 -0.4022 -0.4596 -0.4137
 8611SOL     OW34209   4.740   4.208   0.808 -0.0758 -0.1005 -0.4569
 8611SOL    HW234210   4.741   4.115   0.785 -1.1364 -0.8586  2.2320
 8611SOL    HW334211   4.823   4.221   0.855 -0.0983  0.2178 -0.5060
 8611SOL    MW434212   4.751   4.197   0.811 -0.2187 -0.1585 -0.1086
 8612SOL     OW34213   0.095   6.378   3.155  0.4071  0.1726 -0.2574
 8612SOL    HW234214   0.030   6.318   3.192  0.9492 -0.1993  0.1024
 8612SOL    HW334215   0.128   6.333   3.077  0.4967  0.1985 -0.2349
 8612SOL    MW434216   0.091   6.364   3.150  0.4904  0.1270 -0.2069
 8613SOL     OW34217   4.640   5.158   4.154 -0.9546  0.0206  0.4482
 8613SOL    HW234218   4.577   5.211   4.105 -1.1739  0.1394  0.8541
 8613SOL    HW334219   4.586   5.101   4.208 -0.7131  0.0374  0.7090
 8613SOL    MW434220   4.625   5.158   4.155 -0.9517  0.0385  0.5361
 8614SOL     OW34221   5.620   0.369   3.596 -0.3479  0.1393 -0.3027
 8614SOL    HW234222   5.611   0.462   3.578  0.1321  0.0787 -0.8989
 8614SOL    HW334223   5.565   0.353   3.672 -0.3387  0.9313 -0.1301
 8614SOL    MW434224   5.612   0.379   3.603 -0.2833  0.2358 -0.3586
 8615SOL     OW34225   4.547   5.605   5.247 -0.6038  0.1689 -0.2712
 8615SOL    HW234226   4.612   5.612   5.178 -0.8135 -0.5678 -0.5474
 8615SOL    HW334227   4.464   5.627   5.205 -0.7944 -0.6989 -0.3665
 8615SOL    MW434228   4.544   5.609   5.233 -0.6566 -0.0428 -0.3202
 8616SOL     OW34229   4.340   5.742   1.460  0.4123  0.1609  0.4762
 8616SOL    HW234230   4.350   5.763   1.553  0.2652  1.5844  0.1949
 8616SOL    HW334231   4.402   5.800   1.416 -0.9301  0.9704 -0.4433
 8616SOL    MW434232   4.350   5.752   1.467  0.2158  0.4556  0.3178
 8617SOL     OW34233   1.873   4.647   2.061  0.0682  0.2908 -0.4975
 8617SOL    HW234234   1.957   4.602   2.065 -0.3926 -0.5230  0.8054
 8617SOL    HW334235   1.891   4.736   2.093  0.6508  0.5148 -1.4233
 8617SOL    MW434236   1.886   4.653   2.066  0.0843  0.2130 -0.4478
 8618SOL     OW34237   6.217   4.192   3.901  0.6918  0.4201  0.1783
 8618SOL    HW234238   6.282   4.259   3.882  0.6672  0.1897 -0.7655
 8618SOL    HW334239   6.210   4.141   3.820 -0.1125 -0.0237  0.5127
 8618SOL    MW434240   6.225   4.194   3.888  0.5825  0.3311  0.0979
 8619SOL     OW34241   4.355   2.266   5.268  0.0712  0.5819 -0.2159
 8619SOL    HW234242   4.400   2.349   5.251 -0.5462  0.8902 -0.4111
 8619SOL    HW334243   4.408   2.222   5.334  1.2008  0.4694 -1.1686
 8619SOL    MW434244   4.368   2.271   5.274  0.1388  0.6077 -0.3674
 8620SOL     OW34245   3.290   3.907   1.635 -0.3140  0.3256  0.1351
 8620SOL    HW234246   3.289   3.868   1.723 -0.9704  2.1066  0.9757
 8620SOL    HW334247   3.324   3.995   1.649 -0.0245  0.4932 -1.4854
 8620SOL    MW434248   3.294   3.913   1.649 -0.3624  0.5827  0.0322
 8621SOL     OW34249   2.766   4.626   1.118  0.2431  0.0604  0.0578
 8621SOL    HW234250   2.732   4.548   1.162 -2.0729  1.9281  1.8615
 8621SOL    HW334251   2.695   4.654   1.060  0.5558  1.4048  0.2808
 8621SOL    MW434252   2.752   4.620   1.116 -0.0212  0.4842  0.3252
 8622SOL     OW34253   3.096   2.793   3.921  0.0348  0.0095 -0.4229
 8622SOL    HW234254   3.006   2.791   3.953 -0.1047  0.1056 -0.8089
 8622SOL    HW334255   3.101   2.872   3.868  0.3571  0.0232 -0.3747
 8622SOL    MW434256   3.085   2.803   3.918  0.0589  0.0240 -0.4675
 8623SOL     OW34257   1.803   1.025   4.721 -0.3764 -0.1052 -0.0731
 8623SOL    HW234258   1.715   1.033   4.684  0.0357 -1.1353 -1.3498
 8623SOL    HW334259   1.804   0.940   4.765 -0.0440 -0.0626  0.0098
 8623SOL    MW434260   1.792   1.015   4.722 -0.2782 -0.2355 -0.2306
 8624SOL     OW34261   3.531   2.616   2.765 -0.0821 -0.2270 -0.0747
 8624SOL    HW234262   3.517   2.606   2.671  0.4775 -0.9288 -0.0941
 8624SOL    HW334263   3.458   2.568   2.805 -0.0541 -0.3350 -0.1524
 8624SOL    MW434264   3.519   2.608   2.758 -0.0045 -0.3339 -0.0875
 8625SOL     OW34265   4.947   4.725   3.399 -0.1494 -0.3689 -0.1967
 8625SOL    HW234266   4.979   4.753   3.313 -0.1121 -0.7591 -0.3097
 8625SOL    HW334267   4.995   4.645   3.418 -0.3450 -0.4244  0.0736
 8625SOL    MW434268   4.957   4.718   3.390 -0.1703 -0.4277 -0.1760
 8626SOL     OW34269   5.086   1.383   0.847  0.7640  0.3322 -0.0886
 8626SOL    HW234270   4.995   1.397   0.819  0.3505 -1.3449  0.2933
 8626SOL    HW334271   5.138   1.429   0.781 -0.3329  0.8046 -0.6721
 8626SOL    MW434272   5.081   1.391   0.835  0.5647  0.1732 -0.1152
 8627SOL     OW34273   5.313   4.279   3.287  0.4222 -0.3180  0.3993
 8627SOL    HW234274   5.324   4.304   3.379  0.3147 -3.0922  1.2570
 8627SOL    HW334275   5.318   4.184   3.287 -2.0890 -0.5818 -2.1436
 8627SOL    MW434276   5.315   4.270   3.299  0.0767 -0.7188  0.1770
 8628SOL     OW34277   3.436   1.342   3.214  0.2031  0.4075  0.2409
 8628SOL    HW234278   3.442   1.422   3.267  0.3264 -0.3293  1.3653
 8628SOL    HW334279   3.423   1.272   3.278  2.7645 -0.8424 -0.4782
 8628SOL    MW434280   3.435   1.343   3.229  0.5573  0.1454  0.2943
 8629SOL     OW34281   5.258   0.676   5.936 -0.0195  0.1220 -0.0778
 8629SOL    HW234282   5.207   0.739   5.886 -0.7281 -0.4563 -0.1035
 8629SOL    HW334283   5.348   0.693   5.911 -0.1460  1.3965  0.2237
 8629SOL    MW434284   5.263   0.687   5.926 -0.1297  0.2138 -0.0414
 8630SOL     OW34285   2.535   5.121   4.073 -0.6403 -0.3864  0.0137
 8630SOL    HW234286   2.522   5.080   3.988 -2.5697  1.7458 -0.8221
 8630SOL    HW334287   2.516   5.214   4.058 -0.8319  0.0898  2.7227
 8630SOL    MW434288   2.531   5.128   4.060 -0.9202 -0.0422  0.2609
 8631SOL     OW34289   1.269   4.258   2.849 -1.1857 -0.2227  0.2728
 8631SOL    HW234290   1.178   4.286   2.858 -1.2180 -0.1998 -0.1005
 8631SOL    HW334291   1.271   4.170   2.887 -1.7212 -0.8794 -1.1600
 8631SOL    MW434292   1.258   4.250   2.855 -1.2606 -0.3063  0.0345
 8632SOL     OW34293   2.864   3.073   5.291  0.1171  0.4476 -0.3535
 8632SOL    HW234294   2.848   2.991   5.244 -0.2635 -0.1824  0.8428
 8632SOL    HW334295   2.833   3.141   5.231  1.1426 -0.2079 -1.6801
 8632SOL    MW434296   2.858   3.071   5.277  0.2022  0.2780 -0.3707
 8633SOL     OW34297   5.062   2.047   2.321  0.0945  0.1824  0.3141
 8633SOL    HW234298   5.023   2.012   2.400 -0.2032 -0.3343 -0.0601
 8633SOL    HW334299   5.156   2.039   2.335  0.0319 -0.5304  0.3334
 8633SOL    MW434300   5.069   2.042   2.333  0.0469  0.0202  0.2673
 8634SOL     OW34301   3.062   2.300   5.392 -0.4960  0.1610  0.2871
 8634SOL    HW234302   3.007   2.363   5.438  0.6057  1.0847  0.3858
 8634SOL    HW334303   3.140   2.293   5.447  0.6436  0.9209 -1.1687
 8634SOL    MW434304   3.065   2.307   5.406 -0.2003  0.3831  0.1081
 8635SOL     OW34305   4.788   2.378   1.116 -0.2832 -0.2222  0.3590
 8635SOL    HW234306   4.833   2.310   1.065  0.7109  0.8945 -0.3020
 8635SOL    HW334307   4.851   2.450   1.122 -0.7017  0.0364  2.4493
 8635SOL    MW434308   4.802   2.378   1.110 -0.2072 -0.0408  0.5476
 8636SOL     OW34309   0.019   1.099   3.290 -0.8045  0.0132  0.3358
 8636SOL    HW234310  -0.074   1.095   3.267 -0.2314  0.4842 -2.4108
 8636SOL    HW334311   0.041   1.192   3.282 -0.2700  0.0449  1.9119
 8636SOL    MW434312   0.010   1.111   3.286 -0.6584  0.0795  0.1814
 8637SOL     OW34313   4.579   1.841   0.279 -0.2364 -0.2358 -0.1918
 8637SOL    HW234314   4.533   1.766   0.316 -0.2440 -0.2684 -0.2664
 8637SOL    HW334315   4.530   1.917   0.309 -0.6350 -0.2961 -0.6827
 8637SOL    MW434316   4.567   1.841   0.288 -0.2900 -0.2480 -0.2664
 8638SOL     OW34317   2.794   5.178   0.748  0.1986  0.3319  0.4226
 8638SOL    HW234318   2.773   5.266   0.719  0.3382 -0.2176 -1.5153
 8638SOL    HW334319   2.717   5.149   0.797 -0.8880  0.6681 -1.0272
 8638SOL    MW434320   2.781   5.186   0.750  0.0737  0.3037 -0.0244
 8639SOL     OW34321   5.481   2.042   0.305 -0.3351  0.0979  0.2367
 8639SOL    HW234322   5.526   1.969   0.348 -1.8935 -0.3177  1.2400
 8639SOL    HW334323   5.449   2.096   0.377  0.3059  1.5034 -0.4873
 8639SOL    MW434324   5.483   2.039   0.320 -0.4561  0.2285  0.2736
 8640SOL     OW34325   2.723   0.587   3.794 -0.2540 -0.3631 -0.2574
 8640SOL    HW234326   2.656   0.656   3.799 -1.4069 -1.4174 -0.7129
 8640SOL    HW334327   2.806   0.635   3.793 -0.9998  1.0012 -0.0715
 8640SOL    MW434328   2.725   0.603   3.795 -0.5045 -0.3222 -0.2930
 8641SOL     OW34329   4.518   4.392   0.157 -0.5376 -0.4970  0.3445
 8641SOL    HW234330   4.446   4.451   0.177  1.0843  2.5681 -1.8318
 8641SOL    HW334331   4.492   4.349   0.075  0.5510  1.9262 -1.4381
 8641SOL    MW434332   4.505   4.394   0.149 -0.1799  0.2271 -0.1778
 8642SOL     OW34333   2.217   4.532   2.302  0.1852 -0.4733 -0.0826
 8642SOL    HW234334   2.278   4.588   2.350 -0.4090  1.3689 -1.3645
 8642SOL    HW334335   2.240   4.443   2.328  2.0634  0.2787  1.0077
 8642SOL    MW434336   2.228   4.528   2.312  0.3546 -0.1310 -0.1079
 8643SOL     OW34337   1.258   2.763   3.604 -0.0354  0.1367 -0.2874
 8643SOL    HW234338   1.209   2.820   3.663 -1.3065  0.8766 -1.9838
 8643SOL    HW334339   1.191   2.725   3.546  0.7134 -3.2215  0.8137
 8643SOL    MW434340   1.243   2.765   3.604 -0.1043 -0.2088 -0.3659
 8644SOL     OW34341   6.115   2.526   1.885 -0.3132  0.0059  0.1071
 8644SOL    HW234342   6.117   2.525   1.790 -2.0308 -0.1875  0.0495
 8644SOL    HW334343   6.124   2.434   1.910 -0.3124  0.0086  0.1164
 8644SOL    MW434344   6.117   2.513   1.876 -0.5397 -0.0193  0.1007
 8645SOL     OW34345   3.547   4.809   2.457  0.2320 -0.7125  0.0305
 8645SOL    HW234346   3.580   4.739   2.401 -0.3739  0.0747 -1.3938
 8645SOL    HW334347   3.466   4.775   2.493 -2.0000  0.3305 -3.4440
 8645SOL    MW434348   3.541   4.796   2.454 -0.1425 -0.4710 -0.6158
 8646SOL     OW34349   3.328   0.976   5.757 -0.3257  0.9041  0.5978
 8646SOL    HW234350   3.282   1.012   5.833  0.6337  0.7715  1.2653
 8646SOL    HW334351   3.351   1.053   5.704 -1.3593  0.9627  0.2264
 8646SOL    MW434352   3.325   0.991   5.760 -0.3355  0.8944  0.6369
 8647SOL     OW34353   4.924   2.956   4.597 -0.1515  0.2957 -0.4127
 8647SOL    HW234354   4.864   2.910   4.538  0.3199 -0.0147 -0.6536
 8647SOL    HW334355   4.919   3.047   4.568 -1.2271  0.4382  0.1882
 8647SOL    MW434356   4.916   2.962   4.585 -0.2312  0.2736 -0.3652
 8648SOL     OW34357   2.312   5.001   5.033  0.2371  0.2317 -0.0438
 8648SOL    HW234358   2.267   4.966   5.109 -0.0421 -1.9510 -1.1195
 8648SOL    HW334359   2.399   4.960   5.034  0.7733  1.3037 -0.1479
 8648SOL    MW434360   2.318   4.991   5.043  0.2710  0.0851 -0.1995
 8649SOL     OW34361   1.492   6.384   0.203  0.1925 -0.7864 -0.3246
 8649SOL    HW234362   1.548   6.309   0.224  1.4365  0.7751  2.5311
 8649SOL    HW334363   1.421   6.379   0.267  0.6143  0.7280  0.3015
 8649SOL    MW434364   1.490   6.373   0.214  0.4123 -0.3806  0.1348
 8650SOL     OW34365   6.190   3.395   0.745 -0.5020  0.2053 -0.5080
 8650SOL    HW234366   6.264   3.336   0.759 -0.7978  0.1914  1.2531
 8650SOL    HW334367   6.212   3.442   0.664  0.3896 -1.3070 -1.1976
 8650SOL    MW434368   6.203   3.393   0.736 -0.4234  0.0040 -0.3667
 8651SOL     OW34369   1.143   4.591   2.006  0.2371  0.1416  0.2434
 8651SOL    HW234370   1.210   4.649   1.970  1.2664 -1.2338 -0.1520
 8651SOL    HW334371   1.061   4.624   1.971  1.0576 -0.2848 -2.2992
 8651SOL    MW434372   1.141   4.603   1.997  0.4812 -0.0962 -0.1442
 8652SOL     OW34373   0.346   5.240   6.314 -0.3430  0.0006 -0.4552
 8652SOL    HW234374   0.359   5.297   6.389  0.3535  1.5134 -1.6747
 8652SOL    HW334375   0.433   5.205   6.295 -0.4153  0.0382 -0.8746
 8652SOL    MW434376   0.359   5.243   6.321 -0.2606  0.2052 -0.6714
 8653SOL     OW34377   2.140   4.543   2.038 -0.0192 -0.3394 -0.5058
 8653SOL    HW234378   2.200   4.605   1.996  0.0347 -0.4266 -0.5589
 8653SOL    HW334379   2.168   4.540   2.129 -1.7021  1.7575  0.1315
 8653SOL    MW434380   2.152   4.550   2.044 -0.2341 -0.0742 -0.4287
 8654SOL     OW34381   4.565   2.932   4.616 -0.7214  0.2222  0.6963
 8654SOL    HW234382   4.600   2.939   4.705 -2.1087 -0.5218  1.3374
 8654SOL    HW334383   4.473   2.908   4.629 -0.4929 -1.8031 -0.9743
 8654SOL    MW434384   4.557   2.930   4.630 -0.8743 -0.1432  0.5605
 8655SOL     OW34385   0.361   3.586   6.376  0.4990 -0.3965  0.5945
 8655SOL    HW234386   0.273   3.603   6.410  0.5052 -2.4798  1.7868
 8655SOL    HW334387   0.419   3.639   6.431  0.0249  1.2679 -0.4225
 8655SOL    MW434388   0.357   3.595   6.387  0.4372 -0.4517  0.6176
 8656SOL     OW34389   1.515   4.765   1.631 -0.2095 -0.5691  0.4201
 8656SOL    HW234390   1.559   4.682   1.649  0.3997 -0.8093 -1.8312
 8656SOL    HW334391   1.586   4.829   1.627 -0.4597 -0.2968  0.3509
 8656SOL    MW434392   1.530   4.762   1.633 -0.1622 -0.5648  0.1139
 8657SOL     OW34393   0.083   5.114   4.073  0.1936 -0.5256  0.3352
 8657SOL    HW234394   0.057   5.076   4.156  0.6486 -2.0007 -0.1640
 8657SOL    HW334395   0.173   5.084   4.059  1.1414  1.9293  0.5629
 8657SOL    MW434396   0.091   5.105   4.082  0.3787 -0.3963  0.2994
 8658SOL     OW34397   1.951   5.598   1.611  0.2573 -0.3246 -0.1450
 8658SOL    HW234398   1.892   5.523   1.606  0.6317 -0.7734  1.5345
 8658SOL    HW334399   1.908   5.658   1.672  0.6984  0.1377 -0.2854
 8658SOL    MW434400   1.937   5.596   1.619  0.3649 -0.3228  0.0581
 8659SOL     OW34401   5.123   3.478   5.049 -0.4705 -0.1667  0.2482
 8659SOL    HW234402   5.038   3.459   5.089 -0.2801  0.5180  0.9954
 8659SOL    HW334403   5.125   3.574   5.041 -0.7583 -0.2961 -1.9797
 8659SOL    MW434404   5.112   3.488   5.053 -0.4834 -0.0934  0.0528
 8660SOL     OW34405   0.103   2.970   0.819 -0.8377 -0.0582  0.2153
 8660SOL    HW234406   0.155   2.959   0.899  0.7618  1.5832 -0.5367
 8660SOL    HW334407   0.068   2.883   0.802  0.9945 -1.0723  1.2465
 8660SOL    MW434408   0.105   2.957   0.827 -0.3849  0.0246  0.2522
 8661SOL     OW34409   1.795   3.123   0.955 -0.6662  0.8612 -0.3307
 8661SOL    HW234410   1.760   3.196   1.006 -0.2302  0.9821 -0.2003
 8661SOL    HW334411   1.890   3.126   0.970 -0.7630 -0.5367  0.7281
 8661SOL    MW434412   1.803   3.133   0.964 -0.6214  0.6927 -0.1738
 8662SOL     OW34413   1.488   3.941   5.493  0.3373  0.2243 -0.0075
 8662SOL    HW234414   1.521   3.872   5.436 -0.8557 -0.4682  0.1016
 8662SOL    HW334415   1.556   3.953   5.559  1.5589  0.7601 -1.3086
 8662SOL    MW434416   1.501   3.934   5.494  0.3410  0.2036 -0.1648
 8663SOL     OW34417   3.632   3.285   2.528 -0.0786  0.1188 -0.1343
 8663SOL    HW234418   3.545   3.326   2.526 -0.3958 -0.5691 -2.1812
 8663SOL    HW334419   3.620   3.202   2.483  1.0486 -1.3142  2.0436
 8663SOL    MW434420   3.619   3.279   2.522  0.0282 -0.1610 -0.1170
 8664SOL     OW34421   4.179   5.464   0.087 -0.4513 -0.6832 -0.8785
 8664SOL    HW234422   4.108   5.498   0.141  1.5328  2.0737  0.2228
 8664SOL    HW334423   4.200   5.379   0.126 -0.6278  0.1930  1.2947
 8664SOL    MW434424   4.172   5.457   0.099 -0.2128 -0.2038 -0.4465
 8665SOL     OW34425   0.880   0.688   0.087 -0.5483 -0.0474  0.1837
 8665SOL    HW234426   0.957   0.681   0.144  0.2947 -2.5163 -1.0636
 8665SOL    HW334427   0.907   0.747   0.017 -0.6896  1.0060  1.0002
 8665SOL    MW434428   0.894   0.695   0.086 -0.4557 -0.2342  0.1268
 8666SOL     OW34429   3.139   3.556   1.410  0.5139  0.7599  0.2159
 8666SOL    HW234430   3.123   3.586   1.500 -0.8685  1.0128 -0.0981
 8666SOL    HW334431   3.229   3.581   1.392  0.3097  2.1155  0.9869
 8666SOL    MW434432   3.149   3.563   1.420  0.3045  0.9721  0.2762
 8667SOL     OW34433   5.406   5.940   3.201  0.3125  0.3531  0.4350
 8667SOL    HW234434   5.498   5.937   3.175  0.4167  0.4290  0.8008
 8667SOL    HW334435   5.362   5.885   3.136  0.1614  2.7368 -1.6253
 8667SOL    MW434436   5.412   5.932   3.189  0.3063  0.6776  0.2114
 8668SOL     OW34437   0.351   0.724   1.740 -0.3050 -0.2807  0.5252
 8668SOL    HW234438   0.369   0.734   1.834 -1.6271  1.1228  0.6756
 8668SOL    HW334439   0.269   0.674   1.738 -0.8120  0.5528  0.1627
 8668SOL    MW434440   0.342   0.718   1.752 -0.5463  0.0145  0.4972
 8669SOL     OW34441   5.492   0.062   2.673  0.0624  0.2024 -0.4937
 8669SOL    HW234442   5.469   0.009   2.749 -1.6663  1.8448  0.2042
 8669SOL    HW334443   5.501  -0.001   2.601  1.3321 -1.3329  0.9337
 8669SOL    MW434444   5.490   0.047   2.673  0.0018  0.2165 -0.2133
 8670SOL     OW34445   4.858   3.484   4.419 -0.2396 -0.1379  0.5162
 8670SOL    HW234446   4.918   3.492   4.345 -0.6999 -1.7151 -0.0567
 8670SOL    HW334447   4.845   3.390   4.430 -1.7439  0.1269  1.3222
 8670SOL    MW434448   4.864   3.473   4.411 -0.4988 -0.3110  0.5469
 8671SOL     OW34449   4.710   4.652   0.882  0.0696  0.3122 -0.3601
 8671SOL    HW234450   4.787   4.596   0.887 -0.3022 -0.2027 -0.3037
 8671SOL    HW334451   4.717   4.696   0.797  0.8545  0.9099  0.0017
 8671SOL    MW434452   4.721   4.650   0.872  0.1241  0.3231 -0.3049
 8672SOL     OW34453   2.749   3.796   0.160 -0.2941  0.4953  0.0167
 8672SOL    HW234454   2.662   3.757   0.175  0.7357 -1.3793  1.4907
 8672SOL    HW334455   2.804   3.722   0.134  0.2146  2.1284 -4.4634
 8672SOL    MW434456   2.744   3.781   0.158 -0.0911  0.4634 -0.3799
 8673SOL     OW34457   4.778   5.087   1.125  0.2410  0.0029  0.1208
 8673SOL    HW234458   4.743   5.174   1.107  0.0942 -0.0605  0.1007
 8673SOL    HW334459   4.872   5.096   1.112  0.1552 -0.0067 -0.5238
 8673SOL    MW434460   4.786   5.100   1.121  0.2103 -0.0068  0.0331
 8674SOL     OW34461   1.123   3.833   6.075 -0.3330 -0.6416  0.3434
 8674SOL    HW234462   1.128   3.927   6.059 -1.2056 -0.9654 -2.4280
 8674SOL    HW334463   1.029   3.814   6.078 -0.2360 -1.6313 -1.2309
 8674SOL    MW434464   1.111   3.843   6.073 -0.4353 -0.8149 -0.2300
 8675SOL     OW34465   5.947   5.261   4.274 -0.0093  0.4571  0.5586
 8675SOL    HW234466   6.020   5.214   4.233  0.1344  1.5467 -0.4717
 8675SOL    HW334467   5.869   5.227   4.231  0.1158  1.3408 -0.4054
 8675SOL    MW434468   5.946   5.250   4.263  0.0262  0.7174  0.2955
 8676SOL     OW34469   2.177   4.247   4.728  0.3293  0.3383  0.2583
 8676SOL    HW234470   2.154   4.309   4.660  1.4282  0.1640 -0.2999
 8676SOL    HW334471   2.214   4.300   4.798 -1.4785  0.5986  1.0782
 8676SOL    MW434472   2.179   4.262   4.728  0.2357  0.3497  0.2928
 8677SOL     OW34473   0.430   4.935   0.226  0.2314 -0.3833 -0.3983
 8677SOL    HW234474   0.478   4.916   0.145 -0.8742 -0.3792 -1.0844
 8677SOL    HW334475   0.496   4.932   0.295  1.2972  0.1039 -1.3660
 8677SOL    MW434476   0.445   4.932   0.224  0.2261 -0.3185 -0.6165
 8678SOL     OW34477   2.914   6.178   3.171 -0.3932 -0.1705  0.6272
 8678SOL    HW234478   2.901   6.182   3.077  0.9068 -0.6043  0.4075
 8678SOL    HW334479   2.924   6.269   3.198  1.0651 -0.1418  0.0480
 8678SOL    MW434480   2.913   6.191   3.162 -0.0292 -0.2240  0.5218
 8679SOL     OW34481   0.420   3.147   4.206 -0.3674 -0.7952  0.6209
 8679SOL    HW234482   0.501   3.118   4.163 -0.8903 -0.0141 -0.9884
 8679SOL    HW334483   0.372   3.066   4.223 -0.4030 -1.1204 -0.8810
 8679SOL    MW434484   0.424   3.132   4.202 -0.4411 -0.7351  0.2104
 8680SOL     OW34485   1.080   2.146   3.113  0.6135  0.4482 -0.4697
 8680SOL    HW234486   1.074   2.052   3.131  0.2717  0.2578 -1.5491
 8680SOL    HW334487   1.022   2.186   3.178  0.3959 -0.1190 -0.3082
 8680SOL    MW434488   1.072   2.139   3.124  0.5397  0.3482 -0.5908
 8681SOL     OW34489   3.750   2.973   0.058  0.1613 -0.3117 -0.0476
 8681SOL    HW234490   3.727   3.065   0.066  0.1937 -0.3432  0.4443
 8681SOL    HW334491   3.820   2.971  -0.007  1.2099  0.1971  1.0131
 8681SOL    MW434492   3.757   2.985   0.051  0.3039 -0.2487  0.1572
 8682SOL     OW34493   4.848   6.398   4.851  0.4915 -0.6885  0.4483
 8682SOL    HW234494   4.860   6.430   4.762  0.6046 -3.0676 -0.4512
 8682SOL    HW334495   4.827   6.477   4.902  0.4630  0.7325 -1.6355
 8682SOL    MW434496   4.847   6.413   4.846  0.5026 -0.8149  0.0547
 8683SOL     OW34497   0.788   1.719   0.385  0.0767 -0.6569 -0.0503
 8683SOL    HW234498   0.808   1.792   0.444 -0.4297  0.4203 -1.1750
 8683SOL    HW334499   0.821   1.642   0.431  0.9326  0.3079  1.0139
 8683SOL    MW434500   0.795   1.719   0.399  0.1228 -0.3875 -0.0583
 8684SOL     OW34501   1.700   2.549   4.658 -0.1124 -0.3729 -0.4085
 8684SOL    HW234502   1.753   2.584   4.730  0.8136  1.9564 -2.0905
 8684SOL    HW334503   1.610   2.555   4.689  0.1045  2.4763 -0.0751
 8684SOL    MW434504   1.695   2.554   4.671  0.0384  0.3103 -0.5864
 8685SOL     OW34505   0.498   2.615   4.850 -0.2046  0.5726  0.0393
 8685SOL    HW234506   0.472   2.596   4.940  1.4001  0.7184  0.5693
 8685SOL    HW334507   0.523   2.529   4.814 -2.0976  0.3013 -0.7371
 8685SOL    MW434508   0.498   2.601   4.857 -0.2426  0.5560  0.0068
 8686SOL     OW34509   2.693   3.398   2.554 -0.4007 -0.0848  1.0823
 8686SOL    HW234510   2.603   3.367   2.557 -0.0995 -1.0681  0.4213
 8686SOL    HW334511   2.725   3.371   2.468  0.0519  1.6447  0.6564
 8686SOL    MW434512   2.685   3.390   2.543 -0.3013  0.0136  0.9389
 8687SOL     OW34513   4.387   4.873   0.378 -0.0232  0.4371 -0.0762
 8687SOL    HW234514   4.446   4.857   0.451 -0.1989  0.2928  0.0339
 8687SOL    HW334515   4.442   4.864   0.300 -0.0921 -0.5883 -0.0139
 8687SOL    MW434516   4.402   4.870   0.377 -0.0555  0.2827 -0.0534
 8688SOL     OW34517   5.452   1.475   2.462 -0.2585 -0.0562 -0.0941
 8688SOL    HW234518   5.363   1.501   2.439  0.8722  3.0192 -1.5783
 8688SOL    HW334519   5.507   1.521   2.398  2.4234 -1.8139  0.7828
 8688SOL    MW434520   5.447   1.484   2.450  0.2445  0.1177 -0.1742
 8689SOL     OW34521   4.154   1.871   1.186  0.0863 -0.4899 -0.1145
 8689SOL    HW234522   4.211   1.947   1.199 -0.6408  0.0209  0.1365
 8689SOL    HW334523   4.207   1.796   1.213  2.0474 -0.5132 -3.3923
 8689SOL    MW434524   4.168   1.871   1.191  0.2491 -0.4256 -0.5139
 8690SOL     OW34525   1.464   2.349   0.941  0.6514  0.0690 -0.0226
 8690SOL    HW234526   1.467   2.333   0.847 -1.8847 -0.2906 -0.0965
 8690SOL    HW334527   1.443   2.263   0.979 -2.4740  0.9424  0.4630
 8690SOL    MW434528   1.462   2.335   0.934 -0.0956  0.1368  0.0317
 8691SOL     OW34529   1.697   2.797   0.056  0.5589  0.0282  0.1577
 8691SOL    HW234530   1.784   2.817   0.021 -0.0779  2.6084 -0.1693
 8691SOL    HW334531   1.669   2.878   0.099 -2.3106 -0.1898 -1.0803
 8691SOL    MW434532   1.705   2.811   0.057  0.0963  0.3398 -0.0488
 8692SOL     OW34533   6.220   2.167   0.273 -0.4236 -0.4916 -0.5290
 8692SOL    HW234534   6.197   2.124   0.355 -0.1944  0.6392  0.1378
 8692SOL    HW334535   6.142   2.158   0.218 -0.2733 -2.0323 -0.5400
 8692SOL    MW434536   6.207   2.160   0.276 -0.3735 -0.5457 -0.4425
 8693SOL     OW34537   6.122   1.272   1.149 -0.2701  0.6601 -0.1460
 8693SOL    HW234538   6.127   1.177   1.161 -1.0794  0.7742  1.5149
 8693SOL    HW334539   6.049   1.285   1.089  0.9484  0.2003 -1.8067
 8693SOL    MW434540   6.113   1.261   1.143 -0.2161  0.6145 -0.1460
 8694SOL     OW34541   5.860   0.776   1.092 -0.4380 -0.1006  0.3434
 8694SOL    HW234542   5.825   0.689   1.110 -1.4726  0.2072 -0.1024
 8694SOL    HW334543   5.789   0.821   1.046  0.1518  0.9188  0.4081
 8694SOL    MW434544   5.846   0.770   1.088 -0.4967  0.0745  0.2931
 8695SOL     OW34545   3.042   0.419   2.914  0.0934  0.9439 -0.3641
 8695SOL    HW234546   3.032   0.388   2.824 -1.0906  2.6147 -0.8520
 8695SOL    HW334547   2.969   0.381   2.961 -0.9976  2.3896 -0.8203
 8695SOL    MW434548   3.031   0.410   2.908 -0.2068  1.3551 -0.4887
 8696SOL     OW34549   3.367   6.255   6.151  0.0464 -0.0454 -0.1146
 8696SOL    HW234550   3.439   6.195   6.172  1.9046  1.0942 -2.7073
 8696SOL    HW334551   3.380   6.329   6.209  0.4062 -0.2603  0.0850
 8696SOL    MW434552   3.378   6.257   6.161  0.3390  0.0766 -0.4303
 8697SOL     OW34553   3.911   5.751   1.662  0.0792 -0.0028 -0.1420
 8697SOL    HW234554   3.888   5.666   1.700  0.3054 -0.7110 -1.5165
 8697SOL    HW334555   3.986   5.781   1.712  0.7255 -1.1799 -0.3697
 8697SOL    MW434556   3.918   5.744   1.673  0.1944 -0.2515 -0.3534
 8698SOL     OW34557   5.698   6.286   6.110  0.3808  0.6024 -0.0573
 8698SOL    HW234558   5.761   6.358   6.106  0.1137  1.2348  3.5058
 8698SOL    HW334559   5.719   6.241   6.193 -2.1572 -0.7878 -0.0849
 8698SOL    MW434560   5.709   6.289   6.121  0.0107  0.5024  0.4091
 8699SOL     OW34561   4.692   5.585   6.145  0.1181 -0.4023 -0.0113
 8699SOL    HW234562   4.738   5.654   6.096 -2.3149  1.7661  0.5335
 8699SOL    HW334563   4.632   5.547   6.081 -0.3528 -0.2371  0.3327
 8699SOL    MW434564   4.690   5.589   6.130 -0.2650 -0.0944  0.1060
 8700SOL     OW34565   1.495   2.317   1.518  0.1930  1.0353 -0.0775
 8700SOL    HW234566   1.588   2.342   1.516  0.7740 -0.9921 -1.0299
 8700SOL    HW334567   1.453   2.375   1.455  0.8705  1.7084  0.0737
 8700SOL    MW434568   1.502   2.328   1.510  0.3591  0.8566 -0.1832
 8701SOL     OW34569   3.094   0.699   3.161 -0.1884 -0.2287 -0.2803
 8701SOL    HW234570   3.189   0.709   3.148  0.1311 -1.3445  0.8771
 8701SOL    HW334571   3.069   0.772   3.217  0.2207 -0.4970  0.2714
 8701SOL    MW434572   3.103   0.710   3.167 -0.0923 -0.4113 -0.0548
 8702SOL     OW34573   0.574   0.692   4.430  0.1995 -0.3394  0.1019
 8702SOL    HW234574   0.664   0.659   4.423  1.3742  2.3930  0.7687
 8702SOL    HW334575   0.572   0.767   4.372 -1.2857  0.3579  1.0079
 8702SOL    MW434576   0.586   0.697   4.422  0.1585  0.1131  0.3094
 8703SOL     OW34577   0.396   2.421   1.504  0.2350  0.3464  0.0521
 8703SOL    HW234578   0.405   2.337   1.548  2.8587 -0.2248 -1.3465
 8703SOL    HW334579   0.410   2.486   1.572 -0.0293 -0.3847  0.8184
 8703SOL    MW434580   0.399   2.419   1.519  0.5463  0.1746 -0.0313
 8704SOL     OW34581   5.957   4.550   5.377  0.8697  0.5125 -0.3537
 8704SOL    HW234582   6.034   4.577   5.427  0.1517 -0.1674  1.1826
 8704SOL    HW334583   5.986   4.472   5.328  0.8392 -0.5529  1.2512
 8704SOL    MW434584   5.971   4.543   5.377  0.7710  0.2822  0.0607
 8705SOL     OW34585   0.638   4.738   2.315  0.5116  0.1217  0.6152
 8705SOL    HW234586   0.601   4.711   2.400  1.0451 -0.5291  0.6521
 8705SOL    HW334587   0.694   4.665   2.289 -0.3750 -0.0984 -0.7614
 8705SOL    MW434588   0.641   4.725   2.323  0.4650  0.0068  0.4384
 8706SOL     OW34589   6.186   1.271   1.782 -0.1121  0.1339 -0.2731
 8706SOL    HW234590   6.187   1.183   1.743  0.4382 -0.3646  0.8316
 8706SOL    HW334591   6.205   1.257   1.874 -2.3494  1.2028  0.4270
 8706SOL    MW434592   6.189   1.257   1.789 -0.3347  0.2092 -0.0350
 8707SOL     OW34593   5.739   2.199   5.285 -0.5114 -0.3018 -0.5781
 8707SOL    HW234594   5.815   2.224   5.233  2.7189 -3.6164  2.0066
 8707SOL    HW334595   5.710   2.116   5.246  0.7093 -1.7902  1.4858
 8707SOL    MW434596   5.745   2.191   5.273  0.0759 -0.9355  0.0352
 8708SOL     OW34597   3.671   5.713   3.973 -0.1570  0.6223  0.5994
 8708SOL    HW234598   3.649   5.778   4.039  0.6163  2.1627 -0.5922
 8708SOL    HW334599   3.766   5.723   3.961 -0.2448  0.1921 -0.5485
 8708SOL    MW434600   3.681   5.722   3.980 -0.0665  0.7687  0.2907
 8709SOL     OW34601   5.607   1.248   4.206 -0.5613 -0.1856 -0.2993
 8709SOL    HW234602   5.543   1.310   4.240 -1.3344 -1.3075  0.3277
 8709SOL    HW334603   5.686   1.301   4.193 -1.4716  1.1215 -0.6820
 8709SOL    MW434604   5.609   1.263   4.209 -0.7834 -0.1612 -0.2671
 8710SOL     OW34605   3.031   4.726   4.810 -1.1460 -0.0594  0.2419
 8710SOL    HW234606   3.077   4.716   4.894  0.0160  1.1105 -0.2149
 8710SOL    HW334607   2.940   4.739   4.835 -0.9340 -0.4573  1.2947
 8710SOL    MW434608   3.025   4.727   4.825 -0.9647  0.0425  0.3206
 8711SOL     OW34609   3.214   4.874   0.140 -0.5693 -0.3197  0.9582
 8711SOL    HW234610   3.171   4.816   0.077 -0.4241  0.9086 -0.3371
 8711SOL    HW334611   3.252   4.815   0.205  0.4851 -1.7795 -0.8553
 8711SOL    MW434612   3.214   4.858   0.140 -0.4110 -0.3503  0.5480
 8712SOL     OW34613   0.411   0.331   3.641 -0.6994  0.4398 -0.6627
 8712SOL    HW234614   0.429   0.384   3.719  0.0109  0.3728 -0.7743
 8712SOL    HW334615   0.389   0.394   3.573 -0.3814  0.5577 -0.6570
 8712SOL    MW434616   0.410   0.346   3.643 -0.5637  0.4465 -0.6767
 8713SOL     OW34617   4.901   1.063   3.592  0.1076 -0.1692  0.6884
 8713SOL    HW234618   4.941   1.150   3.584  3.1098 -1.1813  2.5063
 8713SOL    HW334619   4.917   1.039   3.684  0.4663 -3.0788 -0.0504
 8713SOL    MW434620   4.909   1.071   3.603  0.5511 -0.6866  0.8307
 8714SOL     OW34621   3.714   5.804   4.329  0.3802  0.2199  0.3006
 8714SOL    HW234622   3.707   5.800   4.424  1.6590  1.6514  0.4975
 8714SOL    HW334623   3.782   5.741   4.308 -1.3877 -1.7277  0.0480
 8714SOL    MW434624   3.722   5.796   4.339  0.3156  0.1518  0.2932
 8715SOL     OW34625   1.311   6.122   3.381 -0.0792 -0.1016 -0.2995
 8715SOL    HW234626   1.249   6.053   3.357 -0.1179 -0.3863  0.6061
 8715SOL    HW334627   1.256   6.191   3.419  0.0032  0.2744 -0.8498
 8715SOL    MW434628   1.295   6.122   3.383 -0.0734 -0.0895 -0.2527
 8716SOL     OW34629   0.506   2.001   4.733  0.0503  0.3417 -0.3617
 8716SOL    HW234630   0.528   1.921   4.686  1.4538  0.4051  0.1343
 8716SOL    HW334631   0.483   1.971   4.821 -4.1563  0.0541 -1.3640
 8716SOL    MW434632   0.506   1.986   4.738 -0.3195  0.3121 -0.4285
 8717SOL     OW34633   0.119   6.128   1.538 -0.3949 -0.0623 -0.1330
 8717SOL    HW234634   0.061   6.063   1.578  0.4966 -1.2418 -0.7038
 8717SOL    HW334635   0.075   6.152   1.456  0.7896 -2.4633 -1.5832
 8717SOL    MW434636   0.105   6.123   1.532 -0.1210 -0.5347 -0.3997
 8718SOL     OW34637   5.090   0.213   3.706  0.7084 -0.2503  0.2318
 8718SOL    HW234638   5.097   0.162   3.786  0.2352 -1.0182 -0.2073
 8718SOL    HW334639   5.015   0.175   3.659  0.8843  0.2819 -0.5029
 8718SOL    MW434640   5.081   0.202   3.710  0.6692 -0.2814  0.0769
 8719SOL     OW34641   1.611   1.628   5.996 -0.1408 -0.5000 -0.1260
 8719SOL    HW234642   1.579   1.717   6.008  1.2503 -0.2140  2.2979
 8719SOL    HW334643   1.633   1.599   6.085  4.1266 -1.4024 -1.2510
 8719SOL    MW434644   1.610   1.636   6.010  0.6057 -0.5813  0.0453
 8720SOL     OW34645   5.637   0.144   4.857 -0.8220  0.5382 -0.0727
 8720SOL    HW234646   5.693   0.141   4.780  0.9639  2.8677  1.0012
 8720SOL    HW334647   5.624   0.053   4.881  0.1467 -0.1625 -2.0160
 8720SOL    MW434648   5.643   0.132   4.850 -0.4586  0.7531 -0.1874
 8721SOL     OW34649   0.461   5.317   4.990  0.5937 -0.0827  0.2770
 8721SOL    HW234650   0.367   5.320   5.003  0.5039 -2.5671  0.7086
 8721SOL    HW334651   0.496   5.286   5.073  1.7022 -0.1178 -0.1851
 8721SOL    MW434652   0.454   5.313   5.002  0.7281 -0.4151  0.2730
 8722SOL     OW34653   4.423   2.022   5.088 -0.0525 -0.0483 -0.0234
 8722SOL    HW234654   4.467   1.938   5.098 -0.0185 -0.1196 -0.7319
 8722SOL    HW334655   4.428   2.062   5.175  0.6284 -0.4341  0.1214
 8722SOL    MW434656   4.429   2.016   5.101  0.0418 -0.1086 -0.0978
 8723SOL     OW34657   0.261   0.109   5.674 -0.3814 -0.1767 -0.3615
 8723SOL    HW234658   0.302   0.042   5.620 -0.3092 -1.0705  0.7558
 8723SOL    HW334659   0.334   0.150   5.721 -0.6790 -1.8507  1.7233
 8723SOL    MW434660   0.276   0.105   5.673 -0.4111 -0.5155  0.0610
 8724SOL     OW34661   0.548   3.570   1.414  0.3483 -0.1934  0.4733
 8724SOL    HW234662   0.639   3.540   1.407 -0.3598 -3.1324  2.3587
 8724SOL    HW334663   0.547   3.626   1.491  1.1683  3.1441 -1.6905
 8724SOL    MW434664   0.560   3.574   1.423  0.3631 -0.1408  0.4366
 8725SOL     OW34665   3.368   3.313   0.347  0.4029 -0.0495  0.2901
 8725SOL    HW234666   3.342   3.272   0.265 -0.6746 -1.1183  1.1361
 8725SOL    HW334667   3.455   3.351   0.328 -0.3712  0.9045 -1.6966
 8725SOL    MW434668   3.376   3.313   0.333  0.1586 -0.0646  0.1396
 8726SOL     OW34669   4.584   6.381   4.549  0.2140 -0.4643 -0.2311
 8726SOL    HW234670   4.680   6.382   4.544  0.4911 -2.5099  2.2295
 8726SOL    HW334671   4.561   6.289   4.533 -1.3376 -0.0432 -0.5509
 8726SOL    MW434672   4.594   6.369   4.546  0.0458 -0.6786  0.0514
 8727SOL     OW34673   0.039   3.674   1.793  0.8200 -0.3568 -0.6313
 8727SOL    HW234674  -0.016   3.752   1.781  2.3956  0.8981 -0.0730
 8727SOL    HW334675   0.098   3.698   1.865  0.5750 -2.5299  0.3637
 8727SOL    MW434676   0.039   3.687   1.801  0.9956 -0.4779 -0.4264
 8728SOL     OW34677   2.493   1.559   1.224 -0.0632 -0.5131  0.4253
 8728SOL    HW234678   2.484   1.490   1.159  0.1116 -1.4469  1.3626
 8728SOL    HW334679   2.579   1.543   1.264 -0.4319 -0.3551  1.3161
 8728SOL    MW434680   2.503   1.548   1.221 -0.0888 -0.6155  0.6665
 8729SOL     OW34681   1.967   4.128   5.725  0.5857 -0.4282  0.1769
 8729SOL    HW234682   2.015   4.046   5.738 -0.9110 -1.7214 -1.8772
 8729SOL    HW334683   1.896   4.124   5.789  1.4793  0.0919  1.2217
 8729SOL    MW434684   1.964   4.117   5.735  0.5061 -0.5302  0.0438
 8730SOL     OW34685   2.069   1.084   5.415 -0.4451  0.8723  0.3429
 8730SOL    HW234686   2.065   0.989   5.411 -2.1995  0.8154  2.3167
 8730SOL    HW334687   2.025   1.114   5.335 -0.2080  0.0461 -0.1031
 8730SOL    MW434688   2.063   1.076   5.404 -0.6453  0.7558  0.5445
 8731SOL     OW34689   5.351   0.916   5.276  0.1674  0.2330 -0.0907
 8731SOL    HW234690   5.283   0.901   5.210 -0.0976 -0.9599  0.4179
 8731SOL    HW334691   5.364   1.011   5.277  0.0230  0.2935 -1.6894
 8731SOL    MW434692   5.344   0.926   5.267  0.1134  0.0836 -0.2345
 8732SOL     OW34693   3.657   2.053   6.088 -0.1684  0.2254 -0.3182
 8732SOL    HW234694   3.678   1.982   6.027 -0.1586  0.1405 -0.2141
 8732SOL    HW334695   3.619   2.010   6.164  1.4201  0.1646  0.4826
 8732SOL    MW434696   3.655   2.038   6.090  0.0425  0.2062 -0.1988
 8733SOL     OW34697   0.925   1.337   1.939 -0.5074  0.3345  0.6511
 8733SOL    HW234698   0.966   1.416   1.904 -1.8333  1.5099  1.6434
 8733SOL    HW334699   0.911   1.282   1.863  1.7798  0.3786  0.1151
 8733SOL    MW434700   0.929   1.340   1.924 -0.3806  0.4954  0.7113
 8734SOL     OW34701   2.519   5.767   1.061 -0.1499 -0.1038 -0.2989
 8734SOL    HW234702   2.590   5.707   1.084 -0.1915 -1.0115 -2.3309
 8734SOL    HW334703   2.549   5.809   0.980 -2.2171 -1.0926 -1.6583
 8734SOL    MW434704   2.532   5.765   1.053 -0.4282 -0.3540 -0.7463
 8735SOL     OW34705   5.315   5.889   4.959  0.1886  0.2518  0.2093
 8735SOL    HW234706   5.321   5.939   5.041  1.6706  0.4444  0.0121
 8735SOL    HW334707   5.271   5.948   4.898 -1.3387 -0.0604  0.9642
 8735SOL    MW434708   5.310   5.904   4.962  0.1826  0.2360  0.2829
 8736SOL     OW34709   4.755   2.592   1.871  0.8070 -0.3234  0.2629
 8736SOL    HW234710   4.801   2.671   1.899  0.5159  0.0996 -0.4114
 8736SOL    HW334711   4.662   2.615   1.878  0.6695  0.3955 -2.4425
 8736SOL    MW434712   4.749   2.606   1.875  0.7504 -0.1728 -0.1830
 8737SOL     OW34713   1.733   3.785   1.461 -0.4407 -0.0918 -0.3319
 8737SOL    HW234714   1.779   3.824   1.387  0.1442 -0.2628 -0.0611
 8737SOL    HW334715   1.704   3.860   1.514 -1.9342  0.0903 -1.3498
 8737SOL    MW434716   1.735   3.800   1.458 -0.5605 -0.0903 -0.4304
 8738SOL     OW34717   3.165   5.146   2.573 -0.4609  1.1007  0.1125
 8738SOL    HW234718   3.120   5.152   2.657 -1.3070 -0.5064 -0.1758
 8738SOL    HW334719   3.254   5.177   2.590 -0.6325  0.8462  1.5868
 8738SOL    MW434720   3.171   5.151   2.586 -0.5952  0.8551  0.2689
 8739SOL     OW34721   6.147   4.840   0.171 -0.6048 -0.4124  0.0100
 8739SOL    HW234722   6.199   4.914   0.141  0.3405 -1.1877 -0.3211
 8739SOL    HW334723   6.207   4.765   0.169 -1.7334 -1.3547 -0.4595
 8739SOL    MW434724   6.162   4.840   0.167 -0.6290 -0.6390 -0.0956
 8740SOL     OW34725   0.610   2.489   6.359  0.1740  0.3617 -0.2275
 8740SOL    HW234726   0.673   2.417   6.364  0.7547  0.5754 -3.1087
 8740SOL    HW334727   0.542   2.456   6.301  0.7414  2.2881 -2.0727
 8740SOL    MW434728   0.609   2.475   6.352  0.3255  0.6441 -0.8511
 8741SOL     OW34729   3.580   6.249   3.473  0.3740  0.0358 -0.3935
 8741SOL    HW234730   3.526   6.326   3.454  0.2847 -0.2934 -1.5300
 8741SOL    HW334731   3.516   6.180   3.490  0.4482 -0.0524 -0.4763
 8741SOL    MW434732   3.564   6.250   3.473  0.3720 -0.0193 -0.5544
 8742SOL     OW34733   3.783   4.244   4.190 -0.1430 -0.1507  0.1861
 8742SOL    HW234734   3.776   4.285   4.104 -2.0888  1.1830  0.9217
 8742SOL    HW334735   3.875   4.219   4.198  0.2621  0.5738 -1.8699
 8742SOL    MW434736   3.794   4.246   4.180 -0.3463  0.1208  0.0119
 8743SOL     OW34737   0.441   5.272   3.052  0.1752 -0.3026 -0.4005
 8743SOL    HW234738   0.510   5.334   3.029  1.2013 -0.5368  1.7864
 8743SOL    HW334739   0.425   5.223   2.971  2.8913 -0.5330 -0.8925
 8743SOL    MW434740   0.448   5.274   3.038  0.6689 -0.3639 -0.1768
 8744SOL     OW34741   1.451   2.476   0.106  0.5086  0.0839  0.2811
 8744SOL    HW234742   1.529   2.437   0.066  0.1881 -1.0263  0.6925
 8744SOL    HW334743   1.431   2.418   0.179  0.0796  1.1219  0.9988
 8744SOL    MW434744   1.459   2.463   0.110  0.4098  0.0744  0.4301
 8745SOL     OW34745   2.268   1.040   2.385  0.1962  0.1043 -0.2008
 8745SOL    HW234746   2.214   1.083   2.319  1.8273  1.2415 -0.8823
 8745SOL    HW334747   2.210   1.027   2.459 -0.5508  3.3442 -0.0435
 8745SOL    MW434748   2.253   1.044   2.386  0.3129  0.6818 -0.2700
 8746SOL     OW34749   1.329   3.140   0.916 -0.4467  0.2100 -0.4803
 8746SOL    HW234750   1.397   3.077   0.941  0.2151  1.0611 -0.0676
 8746SOL    HW334751   1.376   3.207   0.866 -1.4184 -0.4357 -2.3595
 8746SOL    MW434752   1.344   3.141   0.913 -0.4876  0.2371 -0.6738
 8747SOL     OW34753   3.672   1.338   1.183 -0.0462 -0.0796  1.3689
 8747SOL    HW234754   3.759   1.312   1.153 -0.4640  0.4387 -0.4014
 8747SOL    HW334755   3.652   1.417   1.133 -1.9621 -0.7674  0.9683
 8747SOL    MW434756   3.681   1.345   1.173 -0.3541 -0.1020  1.0825
 8748SOL     OW34757   5.746   3.567   3.703  0.3586 -0.4550  0.4781
 8748SOL    HW234758   5.833   3.531   3.692  0.7124  0.3554  0.5690
 8748SOL    HW334759   5.690   3.491   3.718  1.2706 -0.8839  1.8519
 8748SOL    MW434760   5.750   3.553   3.704  0.5256 -0.4047  0.6714
 8749SOL     OW34761   2.490   0.695   5.437  0.1483 -0.1482  0.1541
 8749SOL    HW234762   2.445   0.758   5.380  1.7671 -0.8891 -2.0978
 8749SOL    HW334763   2.532   0.749   5.504 -0.7524  0.8933 -0.0893
 8749SOL    MW434764   2.490   0.711   5.438  0.2431 -0.1085 -0.1751
 8750SOL     OW34765   5.454   0.306   3.809 -0.1315 -0.1786  0.0114
 8750SOL    HW234766   5.368   0.344   3.824 -0.1010  0.4240 -1.2353
 8750SOL    HW334767   5.498   0.311   3.894 -0.4774  1.6705  0.1131
 8750SOL    MW434768   5.449   0.311   3.822 -0.1731  0.1448 -0.1397
 8751SOL     OW34769   2.880   1.298   1.845  0.3839 -0.2580 -0.1368
 8751SOL    HW234770   2.923   1.361   1.787 -0.1620  1.0874  0.8740
 8751SOL    HW334771   2.824   1.247   1.786 -1.1271  1.9014 -0.7064
 8751SOL    MW434772   2.878   1.300   1.829  0.1125  0.2044 -0.0786
 8752SOL     OW34773   5.710   4.315   0.803  0.4143 -0.0362  0.3537
 8752SOL    HW234774   5.671   4.227   0.813  1.7173 -0.4898  1.9744
 8752SOL    HW334775   5.651   4.372   0.852  0.0947 -0.1832  0.1441
 8752SOL    MW434776   5.697   4.311   0.811  0.5440 -0.1154  0.5398
 8753SOL     OW34777   5.013   1.039   5.402 -0.5415  0.1715  0.2766
 8753SOL    HW234778   4.980   0.972   5.342  0.6484 -0.0681 -0.1289
 8753SOL    HW334779   5.054   1.104   5.346  0.8157 -0.1780  0.8296
 8753SOL    MW434780   5.014   1.039   5.387 -0.2055  0.0938  0.2960
 8754SOL     OW34781   0.885   5.067   5.974  0.4129 -0.0833  0.2118
 8754SOL    HW234782   0.890   5.162   5.988  1.9718 -0.2551  1.1166
 8754SOL    HW334783   0.973   5.036   5.995 -0.2580 -1.8240  0.5966
 8754SOL    MW434784   0.897   5.075   5.979  0.5301 -0.3356  0.3820
 8755SOL     OW34785   1.317   3.337   1.112  0.1149  0.0762  0.8256
 8755SOL    HW234786   1.323   3.260   1.054  1.0624  1.0122 -0.3884
 8755SOL    HW334787   1.300   3.300   1.199 -1.7286 -1.3658 -0.0657
 8755SOL    MW434788   1.316   3.322   1.116 -0.0033  0.0095  0.5478
 8756SOL     OW34789   5.183   1.383   4.555 -0.2667  0.2432 -0.1733
 8756SOL    HW234790   5.190   1.313   4.489 -0.5807 -0.6933  0.7569
 8756SOL    HW334791   5.091   1.410   4.552  0.2973  2.1823 -2.0508
 8756SOL    MW434792   5.172   1.377   4.546 -0.2337  0.3755 -0.2983
 8757SOL     OW34793   2.069   5.704   3.294 -0.5808  0.0323  0.4055
 8757SOL    HW234794   2.029   5.777   3.342  1.3559  1.0551  0.5554
 8757SOL    HW334795   2.153   5.689   3.338 -1.0155 -2.4780  0.5062
 8757SOL    MW434796   2.075   5.712   3.306 -0.3827 -0.1640  0.4386
 8758SOL     OW34797   1.750   3.234   4.220 -0.1167 -0.3427 -0.0224
 8758SOL    HW234798   1.686   3.279   4.275  0.8682  0.3807  0.5567
 8758SOL    HW334799   1.827   3.223   4.276  0.4944 -0.6431 -0.8991
 8758SOL    MW434800   1.751   3.238   4.234  0.0939 -0.2869 -0.0617
 8759SOL     OW34801   2.208   2.950   6.324 -0.1014 -0.1237 -0.1197
 8759SOL    HW234802   2.223   2.944   6.418  2.2572  0.4432 -0.3939
 8759SOL    HW334803   2.251   2.873   6.287  1.0613  0.8344 -0.8728
 8759SOL    MW434804   2.216   2.939   6.332  0.3632  0.0775 -0.2552
 8760SOL     OW34805   1.003   0.742   1.077 -0.0890  0.4648  0.4958
 8760SOL    HW234806   1.039   0.717   1.162  0.6186 -1.0512 -0.2116
 8760SOL    HW334807   1.043   0.681   1.015 -0.5767  1.5468 -0.9396
 8760SOL    MW434808   1.013   0.730   1.080 -0.0600  0.4076  0.2131
 8761SOL     OW34809   4.453   4.554   3.665 -0.1417 -0.1276  0.2804
 8761SOL    HW234810   4.367   4.557   3.706  0.0109 -0.2128  0.6131
 8761SOL    HW334811   4.443   4.494   3.591 -0.9312  1.5548 -1.0249
 8761SOL    MW434812   4.440   4.546   3.661 -0.2257  0.0831  0.1521
 8762SOL     OW34813   3.596   5.058   4.327  0.7548 -0.2681  0.2078
 8762SOL    HW234814   3.509   5.017   4.321  0.9915 -0.6195 -1.5128
 8762SOL    HW334815   3.600   5.115   4.250  0.6840  2.5809  2.1863
 8762SOL    MW434816   3.585   5.060   4.316  0.7767  0.0614  0.2418
 8763SOL     OW34817   4.734   5.292   4.399  0.4351  0.1459  0.5067
 8763SOL    HW234818   4.829   5.301   4.396  0.6161 -1.6875 -0.9797
 8763SOL    HW334819   4.710   5.263   4.311 -1.3484 -0.7581  1.2430
 8763SOL    MW434820   4.743   5.289   4.387  0.2237 -0.2152  0.4077
 8764SOL     OW34821   5.568   3.328   3.741  0.2800  0.6581 -0.6476
 8764SOL    HW234822   5.626   3.253   3.752  0.2315  0.9020  2.0731
 8764SOL    HW334823   5.510   3.304   3.669  0.3314 -1.8820  0.0750
 8764SOL    MW434824   5.568   3.315   3.733  0.2804  0.3551 -0.1933
 8765SOL     OW34825   3.251   5.609   0.825 -0.7032 -0.3796 -0.0048
 8765SOL    HW234826   3.326   5.559   0.792 -2.3515 -2.3824 -0.9237
 8765SOL    HW334827   3.189   5.610   0.752 -0.5717  3.7306 -0.3411
 8765SOL    MW434828   3.253   5.603   0.811 -0.9033 -0.1016 -0.1704
 8766SOL     OW34829   2.646   6.381   6.121 -0.1361 -0.1409  0.3457
 8766SOL    HW234830   2.705   6.399   6.049 -1.1994  1.7389 -0.1187
 8766SOL    HW334831   2.643   6.285   6.127  0.5946 -0.3146 -1.5723
 8766SOL    MW434832   2.653   6.371   6.113 -0.1800  0.0842  0.0314
 8767SOL     OW34833   6.331   2.692   5.115 -0.1183 -0.2281  0.2004
 8767SOL    HW234834   6.388   2.619   5.090  1.5624  1.0527  0.0960
 8767SOL    HW334835   6.331   2.690   5.211 -0.6039 -0.7334  0.1965
 8767SOL    MW434836   6.339   2.682   5.124  0.0394 -0.1258  0.1861
 8768SOL     OW34837   0.149   2.135   3.841 -0.3708 -0.7369  0.0840
 8768SOL    HW234838   0.075   2.195   3.835  0.1996  0.2664  2.1537
 8768SOL    HW334839   0.112   2.055   3.879 -0.3609 -0.0841  1.5318
 8768SOL    MW434840   0.134   2.132   3.845 -0.2942 -0.5184  0.5481
 8769SOL     OW34841   5.730   5.841   4.026  0.1434 -0.3698 -0.0543
 8769SOL    HW234842   5.711   5.902   3.955  0.3647  0.8377  0.8856
 8769SOL    HW334843   5.645   5.827   4.068  0.1319 -0.5081 -0.1256
 8769SOL    MW434844   5.717   5.847   4.022  0.1711 -0.2287  0.0603
 8770SOL     OW34845   0.892   1.460   4.437  0.2337  0.2286 -0.5135
 8770SOL    HW234846   0.979   1.427   4.461  0.6142  1.2397 -0.4487
 8770SOL    HW334847   0.900   1.555   4.444 -0.7859  0.3483 -0.8439
 8770SOL    MW434848   0.905   1.468   4.441  0.1494  0.3778 -0.5485
 8771SOL     OW34849   5.143   5.152   3.034 -0.0474  0.0064  0.4831
 8771SOL    HW234850   5.162   5.223   2.973 -0.5916  0.7322  1.1309
 8771SOL    HW334851   5.053   5.168   3.062  0.4320  0.1633  2.0556
 8771SOL    MW434852   5.134   5.164   3.030 -0.0559  0.1229  0.7760
 8772SOL     OW34853   1.090   1.151   3.797  0.3493  0.6909  0.9729
 8772SOL    HW234854   1.137   1.072   3.823  0.8156  0.4423 -0.5165
 8772SOL    HW334855   1.154   1.201   3.745 -0.8771  0.4824 -0.8458
 8772SOL    MW434856   1.105   1.147   3.793  0.2490  0.6306  0.5364
 8773SOL     OW34857   6.340   0.886   0.123 -0.0159 -0.2899 -0.2314
 8773SOL    HW234858   6.417   0.916   0.074  0.0268 -0.0692 -0.0322
 8773SOL    HW334859   6.314   0.805   0.079 -0.5248  0.3698 -1.1926
 8773SOL    MW434860   6.347   0.880   0.111 -0.0774 -0.1737 -0.3319
 8774SOL     OW34861   3.820   2.747   4.181  0.3898  0.5764  0.2452
 8774SOL    HW234862   3.827   2.723   4.089  4.0170  0.6564  0.3657
 8774SOL    HW334863   3.896   2.804   4.197 -0.3984  0.9721  3.1774
 8774SOL    MW434864   3.831   2.752   4.171  0.7643  0.6391  0.6480
 8775SOL     OW34865   3.149   3.604   3.416  0.2336  0.3560  0.0126
 8775SOL    HW234866   3.097   3.684   3.426 -0.0154  0.1686  0.2088
 8775SOL    HW334867   3.236   3.628   3.449  0.5300  0.9330 -1.0982
 8775SOL    MW434868   3.154   3.618   3.421  0.2398  0.4074 -0.1080
 8776SOL     OW34869   0.284   2.923   4.306  0.1047 -0.0078  0.1975
 8776SOL    HW234870   0.219   2.859   4.275  0.6723  0.4903 -2.1956
 8776SOL    HW334871   0.347   2.870   4.356 -0.9220 -0.8520  0.6379
 8776SOL    MW434872   0.284   2.907   4.309  0.0442 -0.0534 -0.0601
 8777SOL     OW34873   4.318   6.419   5.066 -0.0419 -0.0234  0.1688
 8777SOL    HW234874   4.345   6.418   5.158  0.3374  0.6904  0.0696
 8777SOL    HW334875   4.224   6.400   5.068  0.2595 -1.6789  0.5834
 8777SOL    MW434876   4.309   6.416   5.078  0.0479 -0.1476  0.2104
 8778SOL     OW34877   6.183   1.200   6.172 -0.5976  0.0818  0.7039
 8778SOL    HW234878   6.261   1.153   6.202 -0.3062 -0.4498 -0.7913
 8778SOL    HW334879   6.126   1.203   6.248  0.6988  0.0978  1.7120
 8778SOL    MW434880   6.186   1.194   6.186 -0.3881  0.0138  0.6396
 8779SOL     OW34881   4.844   1.913   2.828 -0.0918 -0.0950 -0.3545
 8779SOL    HW234882   4.755   1.879   2.827  0.3511 -1.3135 -0.0531
 8779SOL    HW334883   4.842   1.984   2.891 -0.6427 -0.7136  0.3370
 8779SOL    MW434884   4.832   1.918   2.836 -0.1060 -0.3374 -0.2235
 8780SOL     OW34885   3.400   0.483   5.841 -0.0755 -0.2611 -0.2911
 8780SOL    HW234886   3.386   0.435   5.759 -1.8896  0.0276 -0.1841
 8780SOL    HW334887   3.363   0.427   5.909 -1.2330  0.7777 -0.0358
 8780SOL    MW434888   3.393   0.469   5.839 -0.4675 -0.0859 -0.2433
 8781SOL     OW34889   2.649   5.552   3.064  0.2676  1.0001  0.0548
 8781SOL    HW234890   2.645   5.525   3.156 -3.2916 -0.0841 -0.2568
 8781SOL    HW334891   2.724   5.505   3.028  1.6076  1.2674  2.2958
 8781SOL    MW434892   2.658   5.543   3.071 -0.0252  0.8923  0.3093
 8782SOL     OW34893   2.614   3.946   0.450 -0.3083 -0.6750  0.0479
 8782SOL    HW234894   2.557   3.953   0.526 -0.5410 -0.5464 -0.1349
 8782SOL    HW334895   2.623   3.852   0.434 -1.6463 -0.6893 -0.7828
 8782SOL    MW434896   2.608   3.935   0.458 -0.5156 -0.6599 -0.0859
 8783SOL     OW34897   5.217   1.433   3.163  0.2364  0.1926  0.1276
 8783SOL    HW234898   5.142   1.379   3.138  0.1563  1.0957 -1.7570
 8783SOL    HW334899   5.264   1.380   3.227  0.2863 -2.2512 -1.7827
 8783SOL    MW434900   5.213   1.418   3.168  0.2324 -0.0107 -0.3731
 8784SOL     OW34901   6.289   1.813   1.562 -0.6747  0.4893  0.3625
 8784SOL    HW234902   6.313   1.781   1.650  0.9384 -0.2113 -0.2939
 8784SOL    HW334903   6.283   1.733   1.509 -1.3052  0.9346 -0.2470
 8784SOL    MW434904   6.292   1.798   1.567 -0.5450  0.4556  0.1955
 8785SOL     OW34905   0.673   1.468   2.045 -0.0715 -0.3938  0.0731
 8785SOL    HW234906   0.714   1.549   2.076  1.0172 -1.0100  0.3038
 8785SOL    HW334907   0.746   1.411   2.022 -0.8395 -0.7114 -1.7214
 8785SOL    MW434908   0.688   1.471   2.046 -0.0292 -0.5170 -0.1332
 8786SOL     OW34909   3.366   5.169   0.312 -0.0400  0.3765 -0.2121
 8786SOL    HW234910   3.301   5.185   0.381 -1.0034 -3.2624 -0.0859
 8786SOL    HW334911   3.423   5.102   0.348  0.1792 -0.7396 -2.4831
 8786SOL    MW434912   3.365   5.163   0.326 -0.1382 -0.2508 -0.4951
 8787SOL     OW34913   2.078   6.065   1.877  0.1953  0.3401  1.0076
 8787SOL    HW234914   2.119   6.123   1.941  2.6130  0.1662 -0.2513
 8787SOL    HW334915   2.077   6.116   1.796  0.9040 -0.7990  0.2538
 8787SOL    MW434916   2.083   6.080   1.875  0.6078  0.1668  0.7420
 8788SOL     OW34917   4.241   5.430   3.526 -0.0170  0.2343 -0.0786
 8788SOL    HW234918   4.252   5.396   3.615  1.4503  2.3544  0.6273
 8788SOL    HW334919   4.307   5.383   3.474 -0.2024 -0.3014  0.1655
 8788SOL    MW434920   4.251   5.419   3.531  0.1522  0.4433  0.0467
 8789SOL     OW34921   3.952   5.121   5.571 -0.0378 -0.0680  0.0383
 8789SOL    HW234922   3.927   5.210   5.546 -0.0744 -0.3366 -0.9316
 8789SOL    HW334923   4.023   5.133   5.633 -1.2162  0.6681  1.3244
 8789SOL    MW434924   3.958   5.134   5.576 -0.1981 -0.0063  0.0800
 8790SOL     OW34925   3.405   1.316   5.003  0.2415  0.6254  0.5169
 8790SOL    HW234926   3.444   1.246   4.950  0.4699 -0.4183  1.9961
 8790SOL    HW334927   3.445   1.396   4.971 -0.0869  0.1172 -1.2954
 8790SOL    MW434928   3.415   1.317   4.992  0.2283  0.4207  0.4729
 8791SOL     OW34929   1.732   0.401   2.220  0.0405 -0.4371  0.1932
 8791SOL    HW234930   1.696   0.466   2.281  1.1878 -0.6879  1.1854
 8791SOL    HW334931   1.667   0.331   2.219  0.4797 -0.9498  2.0631
 8791SOL    MW434932   1.719   0.400   2.228  0.2498 -0.5379  0.5709
 8792SOL     OW34933   2.469   1.942   2.934  0.1224 -0.0563  0.3414
 8792SOL    HW234934   2.513   1.865   2.969 -2.8635 -1.9737  0.1950
 8792SOL    HW334935   2.514   2.016   2.975  3.3644 -1.7830  0.1772
 8792SOL    MW434936   2.481   1.942   2.944  0.1562 -0.5371  0.3004
 8793SOL     OW34937   5.212   0.536   1.913  0.8239 -0.1959  0.2379
 8793SOL    HW234938   5.295   0.536   1.865  1.5539  1.0024  1.4076
 8793SOL    HW334939   5.189   0.629   1.920  1.5178 -0.1182  3.3317
 8793SOL    MW434940   5.220   0.549   1.908  1.0118 -0.0276  0.8004
 8794SOL     OW34941   2.630   1.788   5.001 -0.3919  0.2662  0.7253
 8794SOL    HW234942   2.556   1.841   5.031  1.0731  1.8783  1.7266
 8794SOL    HW334943   2.707   1.836   5.032  1.0652 -2.3256  1.4170
 8794SOL    MW434944   2.630   1.802   5.009 -0.0064  0.1369  0.9487
 8795SOL     OW34945   5.761   0.750   1.353  0.1129 -0.9500 -0.4009
 8795SOL    HW234946   5.779   0.820   1.291 -1.5184 -0.2021 -0.0618
 8795SOL    HW334947   5.844   0.738   1.400  0.4351  0.7270 -0.4847
 8795SOL    MW434948   5.775   0.757   1.351 -0.0598 -0.6300 -0.3672
 8796SOL     OW34949   4.864   6.066   0.069 -0.2814 -0.2657  0.1046
 8796SOL    HW234950   4.870   6.057  -0.027 -0.6278 -0.9489  0.1402
 8796SOL    HW334951   4.774   6.095   0.085 -0.0239  0.5064  0.1866
 8796SOL    MW434952   4.853   6.068   0.058 -0.2932 -0.2540  0.1201
 8797SOL     OW34953   2.337   6.129   2.708 -0.3157  0.1713  0.1492
 8797SOL    HW234954   2.354   6.121   2.614  1.3642 -0.2267  0.4555
 8797SOL    HW334955   2.299   6.216   2.718  2.0004  1.3519 -0.6177
 8797SOL    MW434956   2.334   6.140   2.697  0.2115  0.2745  0.0884
 8798SOL     OW34957   4.288   6.172   0.938 -0.0289 -0.4343  0.2955
 8798SOL    HW234958   4.309   6.172   0.845 -0.9840  0.3960  0.0662
 8798SOL    HW334959   4.289   6.264   0.963 -0.8601 -0.5682  0.8471
 8798SOL    MW434960   4.291   6.184   0.929 -0.2645 -0.3424  0.3380
 8799SOL     OW34961   5.967   2.644   6.036 -0.0233 -0.2527  0.0802
 8799SOL    HW234962   5.900   2.668   5.972 -0.5073  2.9799  1.6347
 8799SOL    HW334963   6.050   2.651   5.987 -0.4899  0.5462 -0.6208
 8799SOL    MW434964   5.969   2.648   6.021 -0.1487  0.2792  0.1928
 8800SOL     OW34965   1.657   0.490   0.202 -0.2357 -0.0310  0.1414
 8800SOL    HW234966   1.748   0.478   0.228 -0.3935 -0.2530  0.5899
 8800SOL    HW334967   1.629   0.569   0.249  0.4458  1.5158 -1.8855
 8800SOL    MW434968   1.665   0.499   0.211 -0.1666  0.1438 -0.0668
 8801SOL     OW34969   0.217   1.084   0.071  0.2675 -0.3770 -0.5025
 8801SOL    HW234970   0.146   1.131   0.028 -0.2564 -0.1986  0.5185
 8801SOL    HW334971   0.294   1.139   0.059  0.3581 -0.7921 -2.0144
 8801SOL    MW434972   0.218   1.097   0.064  0.2103 -0.4082 -0.5673
 8802SOL     OW34973   3.089   3.168   6.313  0.2016  0.1203  0.3862
 8802SOL    HW234974   3.142   3.149   6.236 -0.5857  0.4779 -0.2540
 8802SOL    HW334975   3.055   3.083   6.340  1.2620 -0.1445  0.9355
 8802SOL    MW434976   3.091   3.154   6.307  0.2376  0.1325  0.3742
 8803SOL     OW34977   5.575   6.232   3.224 -0.0275 -0.3217 -0.4251
 8803SOL    HW234978   5.636   6.306   3.229 -0.0534 -0.2164 -1.5366
 8803SOL    HW334979   5.629   6.158   3.199 -0.4169 -0.1267 -1.9047
 8803SOL    MW434980   5.590   6.232   3.222 -0.0823 -0.2821 -0.7670
 8804SOL     OW34981   0.621   5.334   3.772 -0.2207 -0.3130  0.9006
 8804SOL    HW234982   0.549   5.368   3.719  0.3934 -0.7738 -0.2587
 8804SOL    HW334983   0.687   5.402   3.770  0.2929 -0.8168  0.0402
 8804SOL    MW434984   0.620   5.347   3.765 -0.0719 -0.4403  0.6341
 8805SOL     OW34985   4.810   5.363   4.823  0.7057 -0.8256 -0.0646
 8805SOL    HW234986   4.852   5.409   4.895 -0.7154 -0.1724  0.3768
 8805SOL    HW334987   4.756   5.297   4.866 -2.2908  1.3103 -0.2894
 8805SOL    MW434988   4.809   5.360   4.838  0.1229 -0.4576 -0.0360
 8806SOL     OW34989   3.727   6.409   0.438  0.0643  0.0018 -0.1741
 8806SOL    HW234990   3.705   6.317   0.451 -1.0056  0.1590 -0.7769
 8806SOL    HW334991   3.694   6.453   0.517  0.8091 -0.1431  0.2372
 8806SOL    MW434992   3.720   6.403   0.450  0.0214  0.0034 -0.1993
 8807SOL     OW34993   5.304   4.322   6.038 -0.7959  0.1916  0.5189
 8807SOL    HW234994   5.376   4.354   6.092  0.5190  1.5250 -1.8730
 8807SOL    HW334995   5.255   4.401   6.015 -0.7601 -0.1885 -0.9558
 8807SOL    MW434996   5.307   4.337   6.042 -0.6177  0.3174  0.0088
 8808SOL     OW34997   0.074   4.033   1.870  0.7331 -0.0665  0.8903
 8808SOL    HW234998   0.008   4.099   1.850  1.6790  0.6608  0.0487
 8808SOL    HW334999   0.043   3.991   1.950 -0.0560  1.1795  1.2621
 8808SOL    MW435000   0.061   4.036   1.878  0.7538  0.1938  0.8283
 8809SOL     OW35001   2.666   2.148   3.066 -0.0877  0.3539  0.1978
 8809SOL    HW235002   2.746   2.100   3.085 -0.7890 -0.5855  0.8997
 8809SOL    HW335003   2.642   2.188   3.150 -1.1284 -0.6041  0.3829
 8809SOL    MW435004   2.673   2.147   3.080 -0.3175  0.1036  0.3148
 8810SOL     OW35005   1.002   3.691   1.533  0.3733 -0.0127 -0.5982
 8810SOL    HW235006   0.950   3.661   1.607 -2.1328  2.3301 -1.2067
 8810SOL    HW335007   1.088   3.711   1.570 -0.6860  0.7539  1.6357
 8810SOL    MW435008   1.006   3.690   1.548 -0.0971  0.3975 -0.3838
 8811SOL     OW35009   4.332   0.406   2.798 -0.6159 -0.0041  0.5945
 8811SOL    HW235010   4.348   0.424   2.891  0.9618  0.2435  0.3082
 8811SOL    HW335011   4.371   0.481   2.752 -1.6535  0.0270 -0.2587
 8811SOL    MW435012   4.339   0.418   2.804 -0.5446  0.0326  0.4442
 8812SOL     OW35013   4.548   6.355   5.580 -0.0099  0.3392 -0.4823
 8812SOL    HW235014   4.523   6.379   5.670  0.9299  1.1738 -0.4345
 8812SOL    HW335015   4.642   6.339   5.585 -0.1975 -1.0355 -1.0332
 8812SOL    MW435016   4.557   6.356   5.593  0.0893  0.2680 -0.5487
 8813SOL     OW35017   6.370   0.330   0.056  0.0168 -0.5858  0.2207
 8813SOL    HW235018   6.326   0.343  -0.028  0.3408 -0.3240  0.0921
 8813SOL    HW335019   6.331   0.249   0.091 -0.9965 -0.0521  0.3808
 8813SOL    MW435020   6.359   0.321   0.050 -0.0742 -0.4809  0.2249
 8814SOL     OW35021   0.535   0.063   3.882 -0.0279 -0.3706  0.4434
 8814SOL    HW235022   0.568   0.021   3.961  0.6287 -1.8525 -0.5806
 8814SOL    HW335023   0.614   0.086   3.832 -0.3959  1.4413  0.6346
 8814SOL    MW435024   0.550   0.061   3.886  0.0101 -0.3270  0.3335
 8815SOL     OW35025   5.473   2.188   3.659 -0.6348  0.9327  0.0243
 8815SOL    HW235026   5.412   2.134   3.608 -0.7837  0.2400  0.9125
 8815SOL    HW335027   5.445   2.278   3.641 -1.5434  0.6487 -0.0490
 8815SOL    MW435028   5.461   2.193   3.650 -0.7744  0.8038  0.1318
 8816SOL     OW35029   5.845   5.337   2.892 -0.3089 -0.3465 -0.7394
 8816SOL    HW235030   5.888   5.332   2.977 -0.4169 -0.0932 -0.6715
 8816SOL    HW335031   5.868   5.254   2.849  1.1890  0.2584 -1.1534
 8816SOL    MW435032   5.854   5.325   2.897 -0.1255 -0.2333 -0.7850
 8817SOL     OW35033   2.979   0.621   4.115 -0.4733 -0.2161 -0.4719
 8817SOL    HW235034   3.005   0.616   4.023  0.6726 -0.0781 -0.1696
 8817SOL    HW335035   2.891   0.659   4.113 -0.1348  0.5647 -1.4666
 8817SOL    MW435036   2.971   0.626   4.102 -0.2774 -0.0948 -0.5633
 8818SOL     OW35037   5.815   2.345   1.367 -0.2737  0.3232 -0.1113
 8818SOL    HW235038   5.899   2.306   1.390  0.0107  0.7321 -0.4427
 8818SOL    HW335039   5.770   2.355   1.451 -0.5353 -1.0918 -0.0456
 8818SOL    MW435040   5.820   2.341   1.381 -0.2707  0.1905 -0.1464
 8819SOL     OW35041   5.739   4.103   5.417  0.5094  0.0502  0.4230
 8819SOL    HW235042   5.695   4.066   5.340 -0.2092  0.0076  0.8465
 8819SOL    HW335043   5.822   4.055   5.423  0.5579  0.0318 -0.2992
 8819SOL    MW435044   5.744   4.092   5.407  0.4210  0.0422  0.3836
 8820SOL     OW35045   2.524   0.593   6.200 -0.1686  0.3998  0.0866
 8820SOL    HW235046   2.574   0.663   6.158 -1.4472  0.9649 -0.5331
 8820SOL    HW335047   2.560   0.512   6.164  0.0489  0.8148 -0.6342
 8820SOL    MW435048   2.535   0.591   6.190 -0.3086  0.5291 -0.0903
 8821SOL     OW35049   2.519   3.298   1.551  0.3054 -0.2601 -0.3626
 8821SOL    HW235050   2.597   3.303   1.606  0.0325 -1.0577  0.1174
 8821SOL    HW335051   2.492   3.206   1.555 -0.2722 -0.1347 -1.0611
 8821SOL    MW435052   2.525   3.286   1.559  0.1932 -0.3488 -0.3915
 8822SOL     OW35053   0.511   0.792   1.980  0.8524 -0.4302  0.4265
 8822SOL    HW235054   0.543   0.710   2.018  0.7414 -0.2230  0.9740
 8822SOL    HW335055   0.586   0.828   1.933  1.3833 -0.0478  1.5316
 8822SOL    MW435056   0.525   0.786   1.979  0.9078 -0.3524  0.6446
 8823SOL     OW35057   6.167   1.222   4.901  0.0927  0.1328 -0.2270
 8823SOL    HW235058   6.129   1.258   4.981 -0.2036 -0.7136  0.0193
 8823SOL    HW335059   6.248   1.180   4.930  0.3484  0.4385 -0.4865
 8823SOL    MW435060   6.173   1.222   4.915  0.0873  0.0615 -0.2287
 8824SOL     OW35061   1.512   2.069   5.780 -0.5034 -0.3709  0.2931
 8824SOL    HW235062   1.465   2.101   5.857 -0.1061 -0.5022  0.5880
 8824SOL    HW335063   1.596   2.037   5.813  0.4182  1.1990 -0.4288
 8824SOL    MW435064   1.517   2.069   5.795 -0.3294 -0.1811  0.2368
 8825SOL     OW35065   5.952   2.515   5.583  0.0072 -0.3700 -0.4722
 8825SOL    HW235066   5.890   2.451   5.550 -0.4965 -0.1280  0.0004
 8825SOL    HW335067   5.995   2.472   5.656  0.1599 -0.4158 -0.5885
 8825SOL    MW435068   5.950   2.501   5.588 -0.0391 -0.3441 -0.4252
 8826SOL     OW35069   2.820   3.112   1.232  0.0268 -0.3806  0.2258
 8826SOL    HW235070   2.725   3.097   1.239  0.0883 -0.3324  1.2421
 8826SOL    HW335071   2.851   3.115   1.322  0.8920  0.3182 -0.0808
 8826SOL    MW435072   2.811   3.110   1.245  0.1491 -0.2820  0.3194
 8827SOL     OW35073   0.960   0.499   3.562  0.2791  0.1978 -0.0497
 8827SOL    HW235074   0.947   0.593   3.572  1.4596  0.3334  0.4825
 8827SOL    HW335075   0.881   0.467   3.518 -0.0742  1.4541 -0.3562
 8827SOL    MW435076   0.948   0.507   3.557  0.3883  0.3815 -0.0199
 8828SOL     OW35077   4.747   5.415   3.165  0.0703  0.6942  0.4845
 8828SOL    HW235078   4.813   5.347   3.150 -0.9221  0.0754 -1.4555
 8828SOL    HW335079   4.676   5.392   3.105 -0.8693  2.7076  0.7673
 8828SOL    MW435080   4.747   5.403   3.155 -0.1846  0.8782  0.2659
 8829SOL     OW35081   4.662   1.063   1.911 -0.0906  0.0867  0.0059
 8829SOL    HW235082   4.624   1.144   1.878 -1.4093 -0.0606  1.0693
 8829SOL    HW335083   4.712   1.090   1.988  2.0260  0.2707 -1.3449
 8829SOL    MW435084   4.664   1.077   1.917  0.0147  0.0916 -0.0320
 8830SOL     OW35085   5.127   4.917   0.421 -0.3471  0.1524  0.4973
 8830SOL    HW235086   5.191   4.969   0.372 -1.2082  0.3899 -0.4038
 8830SOL    HW335087   5.158   4.827   0.412 -0.3280  0.2290 -0.2162
 8830SOL    MW435088   5.140   4.912   0.414 -0.4582  0.1938  0.2843
 8831SOL     OW35089   3.562   0.313   4.781  0.0211 -0.4247  0.2951
 8831SOL    HW235090   3.549   0.348   4.693  1.4119 -2.9098 -1.0334
 8831SOL    HW335091   3.656   0.296   4.786  0.0412  0.0377  2.4539
 8831SOL    MW435092   3.573   0.315   4.770  0.2072 -0.6915  0.4047
 8832SOL     OW35093   0.775   0.989   5.716  0.3252  0.0725  0.2347
 8832SOL    HW235094   0.767   0.986   5.621 -0.2844 -0.0394  0.2871
 8832SOL    HW335095   0.868   1.004   5.732  0.7521 -1.7553 -0.3412
 8832SOL    MW435096   0.786   0.991   5.706  0.3011 -0.1835  0.1656
 8833SOL     OW35097   2.134   2.733   4.505 -0.3380 -0.4728  1.1900
 8833SOL    HW235098   2.175   2.657   4.464 -0.0309  0.2205  0.1704
 8833SOL    HW335099   2.205   2.797   4.512 -0.8476  0.1266  0.9768
 8833SOL    MW435100   2.149   2.731   4.500 -0.3647 -0.3022  1.0273
 8834SOL     OW35101   0.762   2.644   1.534  0.0856 -0.1158  0.3552
 8834SOL    HW235102   0.676   2.649   1.575 -0.4629  2.0157 -0.8763
 8834SOL    HW335103   0.810   2.719   1.570  0.5706  0.1037 -0.7023
 8834SOL    MW435104   0.757   2.655   1.544  0.0772  0.1944  0.0532
 8835SOL     OW35105   5.163   5.716   4.298  0.3316 -0.3012 -0.0471
 8835SOL    HW235106   5.151   5.764   4.217  0.7624  0.0635  0.0976
 8835SOL    HW335107   5.215   5.640   4.274 -0.7631 -0.9670 -0.3650
 8835SOL    MW435108   5.168   5.712   4.284  0.2440 -0.3409 -0.0699
 8836SOL     OW35109   1.435   6.205   3.040  0.1941 -0.0442 -0.1420
 8836SOL    HW235110   1.372   6.163   3.098  1.0271  0.2863  1.0612
 8836SOL    HW335111   1.412   6.175   2.952 -0.2041 -1.7495  0.5107
 8836SOL    MW435112   1.424   6.196   3.036  0.2515 -0.2256  0.1028
 8837SOL     OW35113   2.556   1.808   1.515  0.1389 -0.4074 -0.2532
 8837SOL    HW235114   2.534   1.876   1.579 -0.5581 -1.0983  0.2550
 8837SOL    HW335115   2.624   1.756   1.558 -0.0842 -0.6650 -0.2108
 8837SOL    MW435116   2.562   1.810   1.529  0.0175 -0.5326 -0.1806
 8838SOL     OW35117   4.259   4.064   4.343 -0.0730 -0.1046  0.4311
 8838SOL    HW235118   4.331   4.121   4.318  0.4735 -0.5170  1.0227
 8838SOL    HW335119   4.244   4.083   4.436 -0.6101 -0.1483  0.3593
 8838SOL    MW435120   4.267   4.074   4.352 -0.0718 -0.1648  0.4997
 8839SOL     OW35121   0.677   0.575   3.675 -0.8999 -0.5585  0.3260
 8839SOL    HW235122   0.596   0.623   3.661 -0.3825  0.3861  0.4752
 8839SOL    HW335123   0.746   0.637   3.650 -0.2381 -1.5181 -0.2751
 8839SOL    MW435124   0.676   0.590   3.670 -0.7444 -0.5605  0.2664
 8840SOL     OW35125   2.400   6.029   3.029 -0.1407 -0.2851  0.0877
 8840SOL    HW235126   2.380   5.936   3.013  1.1735 -0.3456 -1.4802
 8840SOL    HW335127   2.326   6.076   2.989 -1.0558 -0.6337  1.3060
 8840SOL    MW435128   2.387   6.023   3.021 -0.0880 -0.3391  0.0416
 8841SOL     OW35129   4.824   0.111   4.145 -0.3125 -0.3413  0.0402
 8841SOL    HW235130   4.811   0.166   4.067 -0.1128 -1.9781 -1.1920
 8841SOL    HW335131   4.827   0.173   4.217 -0.7742  1.2191 -1.2179
 8841SOL    MW435132   4.823   0.127   4.144 -0.3471 -0.3513 -0.2884
 8842SOL     OW35133   0.162   1.781   4.912 -0.3945 -0.1025 -0.5664
 8842SOL    HW235134   0.215   1.852   4.947 -0.5328 -0.0412 -0.4809
 8842SOL    HW335135   0.091   1.825   4.865  0.0225 -0.1805 -1.2837
 8842SOL    MW435136   0.159   1.796   4.910 -0.3577 -0.1047 -0.6497
 8843SOL     OW35137   1.972   2.158   2.916 -0.1628  0.0311 -0.0285
 8843SOL    HW235138   1.988   2.114   2.999  0.1004 -0.0208 -0.1047
 8843SOL    HW335139   1.950   2.087   2.855 -1.0543  0.1389  0.1635
 8843SOL    MW435140   1.972   2.143   2.919 -0.2457  0.0385 -0.0132
 8844SOL     OW35141   5.005   6.323   4.062 -0.4345  0.3603  0.1801
 8844SOL    HW235142   4.973   6.238   4.034  0.9864 -0.4928  0.9922
 8844SOL    HW335143   4.927   6.373   4.083 -1.2981 -2.0166  3.3033
 8844SOL    MW435144   4.991   6.318   4.061 -0.3610 -0.0659  0.6993
 8845SOL     OW35145   4.176   6.381   1.603 -0.7185 -0.1354 -0.0458
 8845SOL    HW235146   4.164   6.455   1.662  1.1690  0.4659 -0.3714
 8845SOL    HW335147   4.233   6.320   1.651  0.0418 -0.0775 -0.8475
 8845SOL    MW435148   4.182   6.383   1.617 -0.3692 -0.0484 -0.1945
 8846SOL     OW35149   4.559   1.418   2.466 -0.5175  0.6788  0.4691
 8846SOL    HW235150   4.526   1.434   2.554 -1.0560 -0.6726  0.5430
 8846SOL    HW335151   4.497   1.356   2.428 -0.3903  1.3774 -0.9292
 8846SOL    MW435152   4.547   1.412   2.473 -0.5717  0.5927  0.2944
 8847SOL     OW35153   3.135   3.128   5.014  0.2219 -0.2800  0.7704
 8847SOL    HW235154   3.160   3.076   5.090  0.2483 -0.5719  0.5686
 8847SOL    HW335155   3.217   3.165   4.982 -0.0216  1.3438  1.9482
 8847SOL    MW435156   3.149   3.126   5.020  0.1933 -0.1043  0.8992
 8848SOL     OW35157   2.910   1.249   3.051 -0.0507 -0.3604 -0.0444
 8848SOL    HW235158   2.934   1.163   3.017  4.0155  1.4156 -2.3846
 8848SOL    HW335159   2.994   1.291   3.072 -1.6380  3.7582 -0.9567
 8848SOL    MW435160   2.924   1.243   3.050  0.2764  0.4173 -0.4735
 8849SOL     OW35161   5.836   3.955   4.898  0.1730  0.5964 -0.5648
 8849SOL    HW235162   5.815   3.989   4.811  0.2148  1.2831 -0.3143
 8849SOL    HW335163   5.903   3.888   4.881 -1.0878 -0.5451 -1.2160
 8849SOL    MW435164   5.842   3.951   4.884  0.0122  0.5364 -0.6177
 8850SOL     OW35165   0.955   4.402   4.001 -0.1625  0.3253  0.2989
 8850SOL    HW235166   0.978   4.451   4.080  3.4911 -0.7641  0.1230
 8850SOL    HW335167   0.904   4.328   4.032  0.1932  0.5659  1.4919
 8850SOL    MW435168   0.951   4.399   4.015  0.3665  0.2133  0.4331
 8851SOL     OW35169   1.004   4.808   2.877  0.4753 -0.5657  0.5285
 8851SOL    HW235170   1.037   4.722   2.852  0.4364  0.0023 -1.6340
 8851SOL    HW335171   1.035   4.819   2.967 -0.3657 -3.2324  1.2557
 8851SOL    MW435172   1.012   4.798   2.886  0.3592 -0.8426  0.3391
 8852SOL     OW35173   2.443   2.699   0.226  0.6175 -0.1070  0.2938
 8852SOL    HW235174   2.443   2.650   0.308  1.0235  0.6560  0.7627
 8852SOL    HW335175   2.524   2.675   0.183 -0.6277 -2.2893 -1.0104
 8852SOL    MW435176   2.454   2.690   0.231  0.5068 -0.2942  0.1836
 8853SOL     OW35177   5.016   3.892   3.748  0.1043  0.3241  0.3498
 8853SOL    HW235178   4.985   3.817   3.697  0.9566 -0.3687  0.8239
 8853SOL    HW335179   5.079   3.935   3.690 -0.9277  1.1202 -0.2070
 8853SOL    MW435180   5.020   3.887   3.733  0.0806  0.3377  0.3389
 8854SOL     OW35181   0.245   3.600   2.288 -0.1045 -0.2490  0.2675
 8854SOL    HW235182   0.304   3.540   2.243  1.6410  1.5841 -0.0332
 8854SOL    HW335183   0.300   3.646   2.351 -1.8791 -0.6024  2.1801
 8854SOL    MW435184   0.260   3.598   2.290 -0.1083 -0.0538  0.4801
 8855SOL     OW35185   4.688   5.353   5.568  0.1964 -0.1958 -0.4642
 8855SOL    HW235186   4.720   5.415   5.634 -1.8663 -1.5490  1.9822
 8855SOL    HW335187   4.721   5.268   5.597  0.9131 -0.6432 -2.3902
 8855SOL    MW435188   4.697   5.350   5.580  0.0188 -0.4334 -0.3955
 8856SOL     OW35189   0.564   2.240   2.765 -0.5579  0.4839 -0.7618
 8856SOL    HW235190   0.484   2.256   2.814 -0.2657  1.1983 -0.4992
 8856SOL    HW335191   0.620   2.315   2.785  0.2930 -0.1414 -0.7140
 8856SOL    MW435192   0.561   2.252   2.774 -0.4071  0.4957 -0.7209
 8857SOL     OW35193   4.879   1.739   4.012 -0.6088  0.1902  0.2567
 8857SOL    HW235194   4.974   1.732   4.000 -0.5814 -0.9915  0.9768
 8857SOL    HW335195   4.859   1.677   4.082 -1.9456  0.2769 -0.0178
 8857SOL    MW435196   4.889   1.730   4.019 -0.7816  0.0457  0.3155
 8858SOL     OW35197   1.847   3.020   4.775 -0.1866 -0.0320 -0.0026
 8858SOL    HW235198   1.900   2.978   4.842  0.0834  1.5166  0.8048
 8858SOL    HW335199   1.757   2.996   4.796 -0.1518  0.8825  1.2776
 8858SOL    MW435200   1.842   3.011   4.786 -0.1464  0.2930  0.2729
 8859SOL     OW35201   5.102   5.225   4.807  0.3903  0.0500  0.3620
 8859SOL    HW235202   5.119   5.221   4.901 -0.3776  1.5313  0.5811
 8859SOL    HW335203   5.015   5.185   4.796  0.2626  0.3334  0.3427
 8859SOL    MW435204   5.093   5.219   4.818  0.2721  0.2828  0.3884
 8860SOL     OW35205   1.310   1.518   0.208  0.4240 -0.1390 -0.2705
 8860SOL    HW235206   1.215   1.522   0.214  0.3562 -0.9596 -0.6766
 8860SOL    HW335207   1.341   1.575   0.279 -0.3670 -0.5352  0.4097
 8860SOL    MW435208   1.302   1.526   0.218  0.3107 -0.2996 -0.2344
 8861SOL     OW35209   1.889   4.110   5.448 -0.8258  0.0143 -0.3899
 8861SOL    HW235210   1.907   4.093   5.541 -1.5654  0.3712 -0.1767
 8861SOL    HW335211   1.898   4.205   5.439 -1.7090  0.1005 -0.4607
 8861SOL    MW435212   1.892   4.120   5.459 -1.0399  0.0728 -0.3712
 8862SOL     OW35213   3.538   1.306   3.961  0.3484 -0.6092  0.3033
 8862SOL    HW235214   3.601   1.279   3.894 -1.0930  0.0260 -1.3803
 8862SOL    HW335215   3.461   1.250   3.946 -0.2518  0.0146  0.9806
 8862SOL    MW435216   3.536   1.295   3.950  0.0791 -0.4431  0.1705
 8863SOL     OW35217   2.508   1.024   3.090 -0.4764  0.0882  0.0987
 8863SOL    HW235218   2.452   0.954   3.056 -1.4401  0.9933 -0.2154
 8863SOL    HW335219   2.586   1.021   3.035 -1.0355  0.0522 -0.7089
 8863SOL    MW435220   2.511   1.014   3.078 -0.6773  0.2029 -0.0493
 8864SOL     OW35221   3.361   3.070   0.536  0.5124  0.0891 -0.3978
 8864SOL    HW235222   3.276   3.026   0.532  0.3621  0.3842 -0.4685
 8864SOL    HW335223   3.340   3.163   0.540  0.7514  0.0971  1.8655
 8864SOL    MW435224   3.347   3.076   0.536  0.5241  0.1291 -0.1085
 8865SOL     OW35225   5.687   6.099   3.606 -0.0710 -0.0987 -0.4984
 8865SOL    HW235226   5.701   6.191   3.581  0.3615  0.3712  1.3119
 8865SOL    HW335227   5.776   6.062   3.612  0.0208  0.3120  1.9178
 8865SOL    MW435228   5.701   6.106   3.604 -0.0018  0.0175  0.0593
 8866SOL     OW35229   3.269   5.742   5.645  0.0356  0.6434 -0.0123
 8866SOL    HW235230   3.258   5.729   5.551  0.5656  2.4288 -0.3611
 8866SOL    HW335231   3.339   5.682   5.670  0.2633  0.5393 -0.8637
 8866SOL    MW435232   3.276   5.732   5.636  0.1356  0.8652 -0.1706
 8867SOL     OW35233   0.110   0.018   1.425  0.9175 -0.5940 -0.1361
 8867SOL    HW235234   0.144   0.012   1.336  1.0414  1.2372 -0.2697
 8867SOL    HW335235   0.182  -0.013   1.480  1.2463 -0.7085 -0.6261
 8867SOL    MW435236   0.124   0.013   1.421  0.9772 -0.3675 -0.2184
 8868SOL     OW35237   5.595   0.358   2.333 -1.3161 -0.1898 -1.3300
 8868SOL    HW235238   5.573   0.402   2.415 -1.9094  0.7129 -1.9456
 8868SOL    HW335239   5.520   0.301   2.315 -1.5949  0.2654 -1.6625
 8868SOL    MW435240   5.582   0.357   2.341 -1.4312 -0.0107 -1.4551
 8869SOL     OW35241   1.583   3.635   1.894 -0.1990 -0.4539 -0.3587
 8869SOL    HW235242   1.638   3.627   1.816 -0.9064  0.0439 -0.9344
 8869SOL    HW335243   1.534   3.716   1.880  0.2891  0.1140  1.0261
 8869SOL    MW435244   1.584   3.644   1.882 -0.2279 -0.3133 -0.2519
 8870SOL     OW35245   1.212   1.525   1.105 -0.2216  0.0498  0.4016
 8870SOL    HW235246   1.207   1.432   1.125  0.6265  0.2940  1.8762
 8870SOL    HW335247   1.202   1.530   1.010  1.2419 -1.6770  0.1143
 8870SOL    MW435248   1.210   1.513   1.095  0.0834 -0.1458  0.5582
 8871SOL     OW35249   6.402   4.297   2.065  0.8109  0.1994 -0.1260
 8871SOL    HW235250   6.378   4.263   1.978  2.5313 -0.0109 -0.5529
 8871SOL    HW335251   6.383   4.224   2.125  2.1911 -0.7055 -0.7201
 8871SOL    MW435252   6.396   4.283   2.061  1.2200  0.0522 -0.2607
 8872SOL     OW35253   4.145   3.861   5.963 -0.1795  0.4981  0.2182
 8872SOL    HW235254   4.134   3.816   6.047 -1.3518  3.0153  1.5130
 8872SOL    HW335255   4.057   3.889   5.940  0.3445  1.0945 -1.1441
 8872SOL    MW435256   4.132   3.859   5.971 -0.2651  0.9089  0.2093
 8873SOL     OW35257   3.304   4.689   1.954 -0.0328 -0.6271 -0.3003
 8873SOL    HW235258   3.311   4.782   1.976 -1.0553 -0.2911 -1.2958
 8873SOL    HW335259   3.211   4.669   1.964  0.5795 -2.4456  3.2075
 8873SOL    MW435260   3.293   4.699   1.958 -0.0869 -0.8227  0.0311
 8874SOL     OW35261   3.832   3.073   6.225 -0.4801  0.0921  0.1476
 8874SOL    HW235262   3.877   2.988   6.216  0.7121  0.6436  0.6473
 8874SOL    HW335263   3.741   3.054   6.203  0.1321 -0.9110 -1.7199
 8874SOL    MW435264   3.826   3.059   6.221 -0.2420  0.0325 -0.0329
 8875SOL     OW35265   3.893   1.763   1.851  0.1380  0.1298  0.4772
 8875SOL    HW235266   3.870   1.843   1.898  0.6857  1.2063 -0.9977
 8875SOL    HW335267   3.817   1.706   1.862  0.0539  0.5221  2.2118
 8875SOL    MW435268   3.880   1.766   1.859  0.1992  0.3236  0.5115
 8876SOL     OW35269   1.143   6.228   3.572 -0.6728 -0.2521  0.1021
 8876SOL    HW235270   1.131   6.322   3.562  2.2610  0.1944 -0.2209
 8876SOL    HW335271   1.115   6.209   3.661 -1.7193  0.8260  0.0268
 8876SOL    MW435272   1.138   6.238   3.582 -0.4238 -0.0509  0.0495
 8877SOL     OW35273   4.104   3.231   5.510 -0.1333  0.0077 -0.1284
 8877SOL    HW235274   4.181   3.202   5.559  0.8963  1.5903 -0.7320
 8877SOL    HW335275   4.042   3.257   5.578 -0.5565 -2.1125  0.3926
 8877SOL    MW435276   4.106   3.230   5.525 -0.0533 -0.0632 -0.1393
 8878SOL     OW35277   2.698   3.559   2.765 -0.0210 -0.5362  0.2058
 8878SOL    HW235278   2.678   3.513   2.683 -1.5907  1.3591 -0.5586
 8878SOL    HW335279   2.634   3.630   2.769  0.7814  0.1502  2.5073
 8878SOL    MW435280   2.687   3.563   2.755 -0.1222 -0.1956  0.4086
 8879SOL     OW35281   5.388   1.560   2.968  0.1294 -0.2410 -0.0012
 8879SOL    HW235282   5.331   1.501   3.017 -1.1367  0.7178 -0.2461
 8879SOL    HW335283   5.417   1.510   2.893 -0.8060 -0.6142 -0.1275
 8879SOL    MW435284   5.384   1.546   2.965 -0.1611 -0.1637 -0.0502
 8880SOL     OW35285   6.427   4.657   1.455  0.0108 -0.0527  0.4045
 8880SOL    HW235286   6.470   4.606   1.523 -0.1105 -0.6893  0.0119
 8880SOL    HW335287   6.382   4.592   1.401 -0.8180  0.5379  0.3640
 8880SOL    MW435288   6.427   4.642   1.457 -0.1145 -0.0588  0.3474
 8881SOL     OW35289   3.848   5.273   0.163  0.5415 -0.4237  0.2688
 8881SOL    HW235290   3.761   5.306   0.139 -0.1111 -2.2795 -0.0543
 8881SOL    HW335291   3.888   5.248   0.080  2.2021  2.1451  0.1954
 8881SOL    MW435292   3.842   5.274   0.149  0.6745 -0.3297  0.2165
 8882SOL     OW35293   4.541   3.944   0.337  0.1521  0.1765 -0.1735
 8882SOL    HW235294   4.550   3.933   0.432  1.5106  1.7075 -0.0826
 8882SOL    HW335295   4.609   3.888   0.300  0.4955  0.5791 -0.1642
 8882SOL    MW435296   4.551   3.935   0.345  0.3767  0.4316 -0.1603
 8883SOL     OW35297   0.839   5.568   5.137  0.1413  0.5415  0.0116
 8883SOL    HW235298   0.868   5.625   5.066  0.2473 -1.6093 -1.7804
 8883SOL    HW335299   0.746   5.589   5.147  0.3066  1.4237 -0.1943
 8883SOL    MW435300   0.830   5.579   5.129  0.1771  0.3741 -0.2520
 8884SOL     OW35301   0.523   3.754   2.816  0.1691 -0.2849  0.0962
 8884SOL    HW235302   0.505   3.670   2.774 -0.9324 -0.1449  0.2598
 8884SOL    HW335303   0.554   3.811   2.745 -0.7917 -0.3196 -0.3582
 8884SOL    MW435304   0.525   3.751   2.801 -0.1030 -0.2710  0.0578
 8885SOL     OW35305   4.637   3.817   5.888 -0.0082 -0.4034  0.3283
 8885SOL    HW235306   4.696   3.891   5.879 -0.6242 -0.0594 -1.0471
 8885SOL    HW335307   4.681   3.759   5.951  0.6152  0.9605  1.1881
 8885SOL    MW435308   4.650   3.819   5.895 -0.0072 -0.1781  0.2602
 8886NA      NA35309   3.685   2.463   2.814  0.3994 -0.1339  0.2396
 8887NA      NA35310   3.005   0.124   0.573 -0.4748 -0.0467  0.3044
 8888NA      NA35311   2.613   5.420   2.282 -0.6395 -0.4007  0.4223
 8889NA      NA35312   5.065   1.879   0.209  0.0550  0.5574  0.2311
 8890NA      NA35313   4.885   0.280   1.675  0.0508 -0.0224  0.3459
 8891NA      NA35314   3.648   3.420   1.175 -0.1864  0.1972 -0.0372
 8892NA      NA35315   2.875   1.715   2.323 -0.1957 -0.8361 -0.2237
   6.42920   6.42920   6.42920
